Title
46055
    1GLY      N    1   1.235   4.298   1.169  0.1601 -0.8371 -0.5330
    1GLY    HT1    2   1.150   4.352   1.144  0.1634 -0.5734  0.0046
    1GLY    HT2    3   1.218   4.258   1.264 -0.3274  0.1461 -0.1870
    1GLY    HT3    4   1.256   4.213   1.113  0.6072 -0.9680 -0.1730
    1GLY     CA    5   1.342   4.406   1.169 -0.2832 -0.4596 -0.3155
    1GLY    HA1    6   1.302   4.491   1.222 -0.9244  0.6005 -2.4304
    1GLY    HA2    7   1.373   4.433   1.070 -2.3087  1.9385 -0.3816
    1GLY      C    8   1.469   4.364   1.248  0.0355 -0.3760  0.4002
    1GLY      O    9   1.491   4.242   1.267  1.2126  0.0800  0.1519
    2PRO      N   10   1.554   4.456   1.305 -0.2857  0.1691 -0.1922
    2PRO     CD   11   1.571   4.593   1.262  0.8403 -0.0952  0.1757
    2PRO    HD1   12   1.481   4.654   1.287  1.3792  0.7004  0.2037
    2PRO    HD2   13   1.595   4.601   1.154  1.2842  2.4980  0.3892
    2PRO     CA   14   1.633   4.423   1.421 -0.2230 -0.0335  0.3855
    2PRO     HA   15   1.708   4.354   1.386  1.2275  1.8602 -0.4162
    2PRO     CB   16   1.688   4.553   1.467  0.0464  0.0782 -0.0643
    2PRO    HB1   17   1.784   4.551   1.524 -0.3000  0.4371  0.5380
    2PRO    HB2   18   1.617   4.606   1.535 -2.2848 -1.9828 -0.7945
    2PRO     CG   19   1.697   4.632   1.335 -0.9345 -0.5216  0.2082
    2PRO    HG1   20   1.719   4.740   1.320  0.8442 -1.0403 -1.3679
    2PRO    HG2   21   1.778   4.586   1.275 -0.5575 -1.6861  1.5670
    2PRO      C   22   1.562   4.354   1.542 -0.3500  0.1975  0.0217
    2PRO      O   23   1.483   4.413   1.614 -0.1561 -0.8083  0.2628
    3GLY      N   24   1.602   4.229   1.561 -0.1005 -0.6134 -0.4026
    3GLY     HN   25   1.668   4.182   1.503  0.9065 -1.6632  1.4974
    3GLY     CA   26   1.571   4.139   1.670  0.0785  0.1642 -0.0933
    3GLY    HA1   27   1.582   4.033   1.651  0.9596  0.3502 -0.7047
    3GLY    HA2   28   1.470   4.167   1.696  0.2706  0.0949  0.7331
    3GLY      C   29   1.668   4.172   1.782 -0.6233  0.5919 -0.4749
    3GLY      O   30   1.732   4.274   1.796  0.5276  0.0483  0.4514
    4ALA      N   31   1.675   4.077   1.879  0.1382  0.0186  0.0937
    4ALA     HN   32   1.618   3.996   1.871 -0.6412  0.4597  0.9402
    4ALA     CA   33   1.747   4.101   2.001  0.0931 -0.0262 -0.0635
    4ALA     HA   34   1.709   4.191   2.048 -0.7901 -0.1740 -0.4617
    4ALA     CB   35   1.715   3.985   2.097  0.1757  0.0954  0.1482
    4ALA    HB1   36   1.795   3.978   2.174  0.3432  0.6327  0.0297
    4ALA    HB2   37   1.727   3.890   2.041 -2.5829 -0.9746  1.2266
    4ALA    HB3   38   1.617   4.003   2.145 -0.1162 -1.0759  0.0140
    4ALA      C   39   1.900   4.109   1.989  1.0928 -0.3531 -0.1469
    4ALA      O   40   1.963   4.053   1.896  0.4999 -0.3469 -0.3303
    5PRO      N   41   1.972   4.176   2.082  0.2226 -0.2233 -0.9044
    5PRO     CD   42   1.920   4.269   2.180  0.1708 -0.0831  0.6426
    5PRO    HD1   43   1.844   4.215   2.241 -0.8128  0.9815  0.4110
    5PRO    HD2   44   1.879   4.358   2.127  1.0745 -0.7098 -1.1798
    5PRO     CA   45   2.112   4.133   2.119 -0.8131  0.1030  0.0664
    5PRO     HA   46   2.180   4.186   2.053  0.4250 -0.3006  0.9988
    5PRO     CB   47   2.134   4.198   2.257  0.1553 -0.4426 -0.5127
    5PRO    HB1   48   2.243   4.212   2.275  0.2640 -2.9329  1.2708
    5PRO    HB2   49   2.101   4.129   2.338  0.4022  1.2353  1.0956
    5PRO     CG   50   2.038   4.314   2.265  0.1469  0.3280  0.6757
    5PRO    HG1   51   2.020   4.356   2.366 -0.5666  0.1143  0.6385
    5PRO    HG2   52   2.102   4.392   2.217  1.1973 -0.8407  0.1174
    5PRO      C   53   2.144   3.985   2.126  0.3773 -0.5395  0.0496
    5PRO      O   54   2.060   3.902   2.163 -0.3107  0.1589 -0.1318
    6GLY      N   55   2.266   3.942   2.100 -0.1989 -0.0376  0.4793
    6GLY     HN   56   2.335   4.002   2.061 -0.7911  0.1814 -0.2599
    6GLY     CA   57   2.311   3.799   2.113 -0.1306 -0.8611  0.1680
    6GLY    HA1   58   2.408   3.795   2.065  1.0107  1.7741  2.0298
    6GLY    HA2   59   2.234   3.740   2.065  0.4657 -0.4598 -1.3315
    6GLY      C   60   2.333   3.754   2.248 -0.3986 -0.8294 -0.7314
    6GLY      O   61   2.286   3.818   2.344 -0.1726  0.3040  0.3083
    7PRO      N   62   2.397   3.641   2.265  0.1819  0.1036 -0.3058
    7PRO     CD   63   2.405   3.534   2.161 -0.0374  0.7697 -0.0976
    7PRO    HD1   64   2.455   3.573   2.070  1.5953  0.3703  0.5946
    7PRO    HD2   65   2.303   3.507   2.127 -0.1934 -0.0806  0.9942
    7PRO     CA   66   2.422   3.585   2.397 -0.8206 -0.1335  0.2968
    7PRO     HA   67   2.341   3.617   2.461 -0.7162 -0.1616  0.4404
    7PRO     CB   68   2.428   3.432   2.376 -0.4051  0.3050  0.0579
    7PRO    HB1   69   2.324   3.391   2.383 -0.5247  0.8179  1.9032
    7PRO    HB2   70   2.477   3.378   2.460 -0.0820 -0.0469 -0.3541
    7PRO     CG   71   2.470   3.415   2.234  0.2405  0.1194  0.0503
    7PRO    HG1   72   2.579   3.413   2.216  0.3779 -0.7791  0.9012
    7PRO    HG2   73   2.437   3.320   2.188 -2.2596  0.7830  0.3214
    7PRO      C   74   2.545   3.647   2.467 -0.0150 -0.1358  0.0317
    7PRO      O   75   2.642   3.684   2.404  0.7392  0.2280 -0.0278
    8GLY      N   76   2.530   3.672   2.597  1.0222  0.2875  0.0000
    8GLY     HN   77   2.442   3.647   2.638  0.8250  1.5591  0.4113
    8GLY     CA   78   2.619   3.739   2.694 -0.2477 -0.1952 -0.0577
    8GLY    HA1   79   2.564   3.727   2.787  0.0476 -0.8731  0.0360
    8GLY    HA2   80   2.626   3.838   2.653  1.0291 -0.0654  0.4172
    8GLY      C   81   2.760   3.684   2.705 -0.1864 -0.2576 -0.7367
    8GLY      O   82   2.771   3.562   2.713 -0.2141  0.2663  0.3903
    9ALA      N   83   2.867   3.768   2.705 -0.3256  0.6644  0.0821
    9ALA     HN   84   2.852   3.866   2.694  0.6017  0.7754 -0.2712
    9ALA     CA   85   3.002   3.715   2.702 -0.3589 -0.4298 -0.3824
    9ALA     HA   86   3.018   3.656   2.613  2.4936  1.7214 -1.4728
    9ALA     CB   87   3.093   3.846   2.689  0.2886  0.0171 -0.0978
    9ALA    HB1   88   3.054   3.929   2.753 -0.2761  1.3439 -2.0458
    9ALA    HB2   89   3.071   3.880   2.585  1.7961 -1.0712 -0.7938
    9ALA    HB3   90   3.202   3.832   2.704  0.3352 -0.4408 -0.8068
    9ALA      C   91   3.042   3.643   2.833  0.1446 -0.0943  0.0790
    9ALA      O   92   2.993   3.667   2.938  0.5662 -0.8669 -0.2817
   10PRO      N   93   3.142   3.545   2.839  0.0990  0.4873  0.1906
   10PRO     CD   94   3.218   3.494   2.719 -0.3394  0.0702  0.9235
   10PRO    HD1   95   3.286   3.576   2.692  0.0296 -0.7202 -0.6420
   10PRO    HD2   96   3.150   3.467   2.635  1.1011  0.0624 -0.2825
   10PRO     CA   97   3.216   3.510   2.966 -0.8164  0.0211  0.5196
   10PRO     HA   98   3.154   3.440   3.020 -1.1039 -1.7064 -1.9027
   10PRO     CB   99   3.340   3.429   2.913 -0.5511 -0.5025 -0.3720
   10PRO    HB1  100   3.368   3.345   2.981  0.5984 -0.7384 -1.1108
   10PRO    HB2  101   3.425   3.498   2.897 -1.4945  0.5527 -0.9204
   10PRO     CG  102   3.290   3.373   2.778 -0.6807  0.4150 -1.2564
   10PRO    HG1  103   3.368   3.335   2.708 -0.0287  0.5341 -0.6093
   10PRO    HG2  104   3.220   3.291   2.804 -1.7003  2.1585  2.0715
   10PRO      C  105   3.255   3.626   3.054 -0.0954  0.4258 -0.1810
   10PRO      O  106   3.315   3.721   3.015  0.3633 -0.0912  0.1881
   11GLY      N  107   3.215   3.620   3.184 -0.2976  0.5463  0.2328
   11GLY     HN  108   3.157   3.545   3.214  0.3217 -0.0827 -0.1068
   11GLY     CA  109   3.245   3.705   3.301  0.2129 -0.0896  0.6061
   11GLY    HA1  110   3.188   3.665   3.384 -1.8030 -0.0878 -0.7249
   11GLY    HA2  111   3.202   3.800   3.272 -0.2828 -0.0091  1.5637
   11GLY      C  112   3.382   3.717   3.339  0.7408 -0.1010 -0.2367
   11GLY      O  113   3.473   3.650   3.284  0.3150 -0.1453 -0.3785
   12PRO      N  114   3.415   3.793   3.439  0.1872  0.0891 -0.2878
   12PRO     CD  115   3.332   3.900   3.497  0.4534  0.5456 -0.2152
   12PRO    HD1  116   3.256   3.856   3.564 -0.8768  0.6952 -1.5717
   12PRO    HD2  117   3.271   3.951   3.420 -2.2333 -1.9059  0.1203
   12PRO     CA  118   3.544   3.784   3.504 -1.0917  0.1159 -0.6743
   12PRO     HA  119   3.625   3.793   3.433 -1.2679 -0.3312 -0.9412
   12PRO     CB  120   3.541   3.911   3.606  0.1976  0.3011  0.2812
   12PRO    HB1  121   3.635   3.969   3.610  1.8716 -2.0327 -1.9838
   12PRO    HB2  122   3.513   3.868   3.705 -0.6239  0.5052  0.1466
   12PRO     CG  123   3.430   3.999   3.554  1.1039 -0.3829 -0.3356
   12PRO    HG1  124   3.379   4.059   3.633  0.3395  0.1588 -1.2178
   12PRO    HG2  125   3.469   4.067   3.475 -1.3949 -0.6268 -1.9062
   12PRO      C  126   3.567   3.641   3.569  0.6315  0.4314 -0.6341
   12PRO      O  127   3.485   3.585   3.643  0.0473  0.6153  0.2803
   13GLY      N  128   3.685   3.590   3.553  0.0919  0.7710  0.1335
   13GLY     HN  129   3.754   3.628   3.491 -1.4451  1.6355 -1.1136
   13GLY     CA  130   3.727   3.471   3.630 -0.2262 -0.6092 -0.1716
   13GLY    HA1  131   3.695   3.481   3.732 -0.7009  1.3040 -0.4770
   13GLY    HA2  132   3.833   3.456   3.637 -0.1662 -0.1278 -0.0441
   13GLY      C  133   3.673   3.337   3.589  0.7254  0.3479 -0.3908
   13GLY      O  134   3.611   3.319   3.490  0.4839 -0.0912 -0.4728
   14ALA      N  135   3.694   3.234   3.672  0.3364 -0.4599  0.0874
   14ALA     HN  136   3.749   3.244   3.754  0.8866  1.0530 -0.4211
   14ALA     CA  137   3.641   3.101   3.636  0.2055  0.1543  0.4109
   14ALA     HA  138   3.687   3.068   3.544 -0.0600  2.1468 -0.4793
   14ALA     CB  139   3.672   2.990   3.743 -0.2629 -0.0065 -0.3806
   14ALA    HB1  140   3.622   3.008   3.840  0.3170 -0.7298  0.0625
   14ALA    HB2  141   3.783   2.984   3.755 -0.2576  2.3813  1.5035
   14ALA    HB3  142   3.628   2.898   3.699 -2.9267  1.3051 -0.6729
   14ALA      C  143   3.478   3.094   3.607 -0.2143  0.2956 -0.2741
   14ALA      O  144   3.413   3.165   3.685  0.2494  0.3370  0.3145
   15PRO      N  145   3.408   3.018   3.526 -0.2141  0.0723 -0.6478
   15PRO     CD  146   3.461   2.925   3.431 -0.0676  0.9748  0.2130
   15PRO    HD1  147   3.468   2.826   3.479  1.2131  1.1986  0.5282
   15PRO    HD2  148   3.562   2.947   3.388  0.9267 -1.7371  0.9867
   15PRO     CA  149   3.260   3.015   3.522 -0.2734 -0.5412  0.0680
   15PRO     HA  150   3.231   3.117   3.500  0.7397 -0.3880 -0.6420
   15PRO     CB  151   3.227   2.925   3.404  1.6182 -0.3962 -0.0842
   15PRO    HB1  152   3.138   2.959   3.348  1.1894 -1.6751 -0.2271
   15PRO    HB2  153   3.205   2.818   3.423  1.3929 -0.3425 -0.0390
   15PRO     CG  154   3.352   2.921   3.322  0.0820  0.1534 -0.2538
   15PRO    HG1  155   3.360   2.830   3.258  3.0025 -0.6673  1.0599
   15PRO    HG2  156   3.367   3.007   3.253  2.1770 -0.5361 -0.7503
   15PRO      C  157   3.200   2.972   3.653  0.3397  0.3828  0.5165
   15PRO    OT1  158   3.235   2.863   3.702  0.1858 -0.3239 -0.3653
   15PRO    OT2  159   3.104   3.038   3.703 -0.0012 -0.5464 -0.4405
   16LIT    LIT  160   5.753   2.298   3.422 -0.8147  0.3253 -0.0641
   17LIT    LIT  161   2.552   6.452   5.322  0.5814  0.3385  0.7887
   18LIT    LIT  162   5.172   0.396   2.638 -0.7363  0.0157 -0.1845
   19LIT    LIT  163   7.119   3.802   1.904 -0.2188 -0.2906  1.0599
   20LIT    LIT  164   2.446   2.797   3.486 -1.1034  0.1261 -0.1710
   21LIT    LIT  165   7.953   3.911   2.007 -0.4162  0.6673 -0.6953
   22LIT    LIT  166   0.771   5.618   1.896  0.0237  0.2335 -1.2614
   23LIT    LIT  167   0.337   4.362   1.960 -0.5643  0.2763 -0.5697
   24LIT    LIT  168   6.859   5.042   5.667 -0.2416 -0.3649  1.4466
   25LIT    LIT  169   1.940   7.295   2.190 -0.5029  0.3262 -0.8380
   26LIT    LIT  170   2.562   2.929   2.734  0.2621  1.1117  0.6771
   27LIT    LIT  171   7.485   1.538   0.430  0.0175 -0.1300 -0.2394
   28LIT    LIT  172   6.516   0.375   0.233 -0.4777  0.6096 -0.3931
   29LIT    LIT  173   3.800   7.097   5.430 -0.0664  0.4219  0.5647
   30LIT    LIT  174   2.255   4.267   1.347  0.0621 -1.1573 -0.7147
   31LIT    LIT  175   2.010   1.284   4.363 -0.1772 -0.0426 -0.4049
   32LIT    LIT  176   2.584   5.248   4.388  0.2394  0.3860  0.4779
   33LIT    LIT  177   0.011   0.195   2.262  1.3055 -0.0611 -0.3676
   34LIT    LIT  178   1.860   7.904   5.650 -0.3382 -0.7969  0.1012
   35LIT    LIT  179   3.198   7.811   4.943 -0.2528 -0.7700  0.4218
   36LIT    LIT  180   4.025   6.525   4.943  0.6669 -0.3397  0.4829
   37LIT    LIT  181   5.985   1.334   4.475 -0.1630  0.9509 -0.0048
   38LIT    LIT  182   2.240   1.234   0.270  0.4263 -0.1797 -0.2492
   39LIT    LIT  183   0.546   5.177   0.381 -0.4317  0.3559 -0.0762
   40LIT    LIT  184   6.964   6.520   2.759 -0.4202  0.9791 -0.2962
   41LIT    LIT  185   1.896   6.556   2.426 -0.4933  0.2224 -0.3223
   42LIT    LIT  186   2.191   2.300   2.671 -0.3998  0.5062 -0.4303
   43LIT    LIT  187   4.259   5.078   1.435 -0.0421  1.1161  0.3865
   44LIT    LIT  188   6.261   6.639   1.632  0.2216 -0.4030  0.0545
   45LIT    LIT  189   1.304   7.576   3.037 -0.3309 -0.0632  0.1750
   46LIT    LIT  190   5.795   5.364   4.690 -0.8900  0.2526  0.7379
   47LIT    LIT  191   7.989   2.299   1.951  0.7841  0.8628 -0.6250
   48LIT    LIT  192   1.881   6.761   1.150 -1.3071 -0.0222 -0.3217
   49LIT    LIT  193   2.286   0.798   5.595  0.2597 -0.1718 -0.1586
   50LIT    LIT  194   7.587   1.313   4.890 -0.0994  0.6810 -0.5957
   51LIT    LIT  195   3.375   4.206   2.511  1.2749 -0.1386 -0.4509
   52LIT    LIT  196   2.107   5.811   4.635  0.1406  0.9589  0.0302
   53LIT    LIT  197   5.459   1.172   1.643  0.5938  0.5907  0.5157
   54LIT    LIT  198   5.590   3.412   4.811  0.4118 -0.1723  0.0230
   55LIT    LIT  199   1.623   4.635   2.388  1.1326  0.7362 -1.0197
   56LIT    LIT  200   7.618   5.961   2.889 -0.9297 -0.2187 -0.8370
   57LIT    LIT  201   3.273   6.579   6.176 -0.6338  0.1655 -0.2869
   58LIT    LIT  202   3.139   2.951   3.875  0.7474  0.1984  0.0472
   59CLA    CLA  203   4.914   5.101   1.430  0.3933 -0.1542 -0.4405
   60CLA    CLA  204   3.735   6.065   6.056  0.0855 -0.2064 -0.1068
   61CLA    CLA  205   5.509   1.046   1.823 -0.4393  0.3297 -0.0419
   62CLA    CLA  206   6.327   3.702   6.366  0.3272 -0.0994  0.4229
   63CLA    CLA  207   2.251   1.518   3.611  0.5606 -0.0896 -0.1025
   64CLA    CLA  208   0.944   4.681   1.278  0.0826  0.0020 -0.1067
   65CLA    CLA  209   3.432   0.835   4.730  0.0196 -0.1726  0.3624
   66CLA    CLA  210   1.714   7.667   2.323  0.4555  0.0686  0.3087
   67CLA    CLA  211   5.872   7.791   5.703  0.4676 -0.1364  0.3853
   68CLA    CLA  212   1.526   7.150   2.475 -0.1988  0.5870 -0.3298
   69CLA    CLA  213   0.970   5.043   1.613  0.4703  0.3472 -0.3261
   70CLA    CLA  214   1.175   1.245   3.822  0.1893  0.0292  0.0175
   71CLA    CLA  215   7.086   2.303   0.965 -0.3733 -0.1444  0.0987
   72CLA    CLA  216   0.480   7.873   0.415  0.2747 -0.2392  0.0778
   73CLA    CLA  217   6.390   0.528   0.363  0.2157 -0.0326  0.0814
   74CLA    CLA  218   2.610   3.456   3.273 -0.0139 -0.5902  0.1502
   75CLA    CLA  219   5.735   0.806   5.741 -0.3410 -0.4195  0.0121
   76CLA    CLA  220   7.641   4.650   3.836 -0.0580 -0.4917 -0.0149
   77CLA    CLA  221   4.154   4.864   4.298  0.1242 -0.0608  0.0417
   78CLA    CLA  222   1.842   5.283   0.993 -0.2028  0.1347 -0.0223
   79CLA    CLA  223   6.760   2.297   1.910 -0.2191  0.0499  0.0234
   80CLA    CLA  224   1.572   1.710   0.897 -0.0422  0.0479  0.2562
   81CLA    CLA  225   0.798   4.137   2.757 -0.5013 -0.0732 -0.1071
   82CLA    CLA  226   7.546   6.891   4.791  0.3409 -0.1976  0.2523
   83CLA    CLA  227   8.179   0.363   2.712 -0.0634  0.0828 -0.1613
   84CLA    CLA  228   4.961   4.795   4.294 -0.1810 -0.3483  0.5244
   85CLA    CLA  229   4.066   6.926   5.751  0.0941  0.5266 -0.4540
   86CLA    CLA  230   4.785   7.560   1.234  0.1184  0.1842 -0.3500
   87CLA    CLA  231   5.814   1.646   3.905  0.0814  0.6481 -0.3449
   88CLA    CLA  232   7.955   5.752   0.740 -0.4041  0.2089  0.6319
   89CLA    CLA  233   2.900   6.537   2.785 -0.4713  0.3006 -0.0872
   90CLA    CLA  234   0.560   5.560   3.564  0.0577  0.1188 -0.2251
   91CLA    CLA  235   1.876   6.255   1.165 -0.1032  0.2388 -0.2275
   92CLA    CLA  236   7.757   4.785   6.064  0.1784 -0.1291 -0.1683
   93CLA    CLA  237   5.311   3.316   5.641  0.0458  0.1178  0.1274
   94CLA    CLA  238   2.422   5.745   4.134  0.3284 -0.1150  0.0882
   95CLA    CLA  239   2.854   7.395   1.319 -0.5071  0.2951  0.1403
   96CLA    CLA  240   3.652   7.351   3.661 -0.2438 -0.5025 -0.2957
   97CLA    CLA  241   3.389   1.905   0.727 -0.3148 -0.1039  0.1261
   98CLA    CLA  242   7.719   0.413   4.706 -0.1797 -0.0768 -0.1823
   99CLA    CLA  243   2.682   6.662   6.622  0.8134 -0.3103  0.1563
  100CLA    CLA  244   5.934   0.353   2.020 -0.0084  0.0793  0.1237
  101CLA    CLA  245   2.916   7.367   4.180 -0.1319  0.0657 -0.0254
  102TIP3   OH2  246   4.847   1.962   1.873 -0.2333  0.5316  0.2365
  102TIP3    H1  247   4.867   2.032   1.811  0.2156  0.8937  0.7875
  102TIP3    H2  248   4.777   1.913   1.831  0.3855  0.4888 -0.7795
  103TIP3   OH2  249   7.767   2.511   3.268  0.4016 -0.1235 -0.2942
  103TIP3    H1  250   7.837   2.481   3.326  1.5138 -0.0731 -1.5776
  103TIP3    H2  251   7.704   2.553   3.327  1.1487 -0.6903  0.9539
  104TIP3   OH2  252   4.019   2.934   1.263  0.3041  0.2554  0.2644
  104TIP3    H1  253   4.101   2.976   1.238 -0.1455  0.7722 -0.4048
  104TIP3    H2  254   4.020   2.933   1.359  0.8589  0.7241  0.2675
  105TIP3   OH2  255   5.466   2.993   2.566 -0.4075  0.3605  0.1714
  105TIP3    H1  256   5.464   3.035   2.480  0.0519 -0.7999 -0.4238
  105TIP3    H2  257   5.457   3.065   2.628 -0.1140  1.2833 -0.8322
  106TIP3   OH2  258   0.387   6.410   0.402  0.0939 -0.0773  0.7461
  106TIP3    H1  259   0.320   6.345   0.379 -1.4017  1.0503  1.7777
  106TIP3    H2  260   0.448   6.408   0.327 -0.5685 -1.7640  0.1934
  107TIP3   OH2  261   0.192   4.963   5.392 -0.4225 -0.3370 -0.1537
  107TIP3    H1  262   0.239   5.020   5.332  1.1083 -1.9650 -0.5958
  107TIP3    H2  263   0.108   4.945   5.348  0.8891 -1.9512 -2.1731
  108TIP3   OH2  264   5.956   3.776   4.093  0.8157  0.1674  0.0646
  108TIP3    H1  265   6.047   3.771   4.124  0.7022  0.6061  0.4745
  108TIP3    H2  266   5.943   3.868   4.070 -0.1812  0.5832  2.0773
  109TIP3   OH2  267   7.078   7.113   5.822 -0.1668 -0.0548 -0.0460
  109TIP3    H1  268   6.990   7.116   5.858 -0.1211 -1.0734  0.1896
  109TIP3    H2  269   7.135   7.130   5.897 -0.1777  2.5141 -0.5367
  110TIP3   OH2  270   1.085   1.941   5.352  0.3887  0.1108 -0.3534
  110TIP3    H1  271   1.135   2.022   5.355 -0.0246  0.5462 -3.2369
  110TIP3    H2  272   0.994   1.968   5.360  0.0990  0.2188 -3.2609
  111TIP3   OH2  273   6.960   6.834   0.729 -0.1557 -0.5512 -0.1290
  111TIP3    H1  274   6.927   6.908   0.779 -2.3807 -1.6780  0.2366
  111TIP3    H2  275   7.049   6.819   0.762  0.2343  1.7341 -0.0419
  112TIP3   OH2  276   3.573   7.216   6.812  0.6745  0.2150  0.0292
  112TIP3    H1  277   3.664   7.238   6.828  1.2974 -1.6512 -0.6057
  112TIP3    H2  278   3.533   7.213   6.898  1.8148 -1.1886  0.5581
  113TIP3   OH2  279   1.326   5.708   1.637 -0.0239 -0.3779  0.0088
  113TIP3    H1  280   1.313   5.613   1.642 -2.0842 -0.0840  2.7064
  113TIP3    H2  281   1.342   5.735   1.728 -0.1417  1.9416 -0.5881
  114TIP3   OH2  282   8.019   1.009   4.559 -0.1139 -0.3655  0.2916
  114TIP3    H1  283   7.973   1.079   4.605  3.3712  2.2419  0.2116
  114TIP3    H2  284   7.965   0.992   4.482 -1.5219  1.6444  0.7415
  115TIP3   OH2  285   1.607   3.880   3.494  0.2807  0.2023  0.5918
  115TIP3    H1  286   1.559   3.952   3.536  1.2153  0.4190  1.3232
  115TIP3    H2  287   1.686   3.871   3.546  0.0121 -1.6221  0.7345
  116TIP3   OH2  288   0.861   2.361   0.623  0.3795 -0.4252  0.3400
  116TIP3    H1  289   0.793   2.388   0.562  1.3238 -1.0874 -1.0355
  116TIP3    H2  290   0.884   2.442   0.670  0.8136  0.4636 -1.3441
  117TIP3   OH2  291   3.953   4.083   4.479  0.3130 -0.5725 -0.2613
  117TIP3    H1  292   4.017   4.023   4.440  1.7161  1.2872 -0.9753
  117TIP3    H2  293   3.872   4.066   4.430  0.9760 -1.1131 -1.2072
  118TIP3   OH2  294   6.327   2.003   1.817  0.1774  0.0614  0.1576
  118TIP3    H1  295   6.312   2.096   1.799  1.0522  0.0406 -0.7351
  118TIP3    H2  296   6.422   1.994   1.818  0.0948 -0.7999  0.4055
  119TIP3   OH2  297   7.129   2.274   5.896  0.7236 -0.3923 -0.0204
  119TIP3    H1  298   7.211   2.226   5.912  1.3499  0.2121 -1.2579
  119TIP3    H2  299   7.153   2.341   5.832 -0.3154  1.0558  1.0431
  120TIP3   OH2  300   6.456   7.135   3.016  0.1389  0.4161  0.6486
  120TIP3    H1  301   6.526   7.094   3.066  0.7742  0.3076 -0.2958
  120TIP3    H2  302   6.500   7.191   2.953 -0.6152  0.3331  0.0205
  121TIP3   OH2  303   4.242   3.322   3.364 -0.0594 -0.5402  0.3086
  121TIP3    H1  304   4.307   3.348   3.429 -1.5014 -0.6654  1.8702
  121TIP3    H2  305   4.279   3.244   3.324  1.0698 -0.2033  0.6582
  122TIP3   OH2  306   3.190   0.189   0.620  0.3090 -0.1681 -0.0305
  122TIP3    H1  307   3.142   0.109   0.599 -3.3356  2.1203 -1.4097
  122TIP3    H2  308   3.266   0.188   0.562 -0.3978 -1.9850 -0.9900
  123TIP3   OH2  309   8.303   6.146   1.544 -0.3242  0.6556  0.0092
  123TIP3    H1  310   8.248   6.068   1.543  1.1617 -0.5330  2.0555
  123TIP3    H2  311   8.244   6.218   1.526 -2.0244 -0.8136 -0.5266
  124TIP3   OH2  312   5.496   3.339   4.661  0.6312 -0.5536  0.2366
  124TIP3    H1  313   5.464   3.373   4.577 -0.6795 -0.4439  0.7667
  124TIP3    H2  314   5.450   3.257   4.673  0.1103 -0.1308  1.2773
  125TIP3   OH2  315   1.576   5.134   4.281  0.2595 -0.6454  0.4425
  125TIP3    H1  316   1.543   5.063   4.336  0.7460 -0.1773  1.3491
  125TIP3    H2  317   1.656   5.100   4.242 -0.3553 -1.1653 -0.4150
  126TIP3   OH2  318   1.532   6.635   4.961 -0.0733 -0.2527  0.3980
  126TIP3    H1  319   1.461   6.673   4.908 -2.1057  0.5870  3.4539
  126TIP3    H2  320   1.607   6.692   4.945 -1.1821  1.1297 -0.1657
  127TIP3   OH2  321   3.398   7.735   3.849 -0.0644  0.0876 -0.1746
  127TIP3    H1  322   3.488   7.713   3.824  0.0121  0.0046  0.1620
  127TIP3    H2  323   3.344   7.667   3.811 -0.0217  0.3327 -0.6760
  128TIP3   OH2  324   4.118   3.919   0.201  0.2082 -0.3802  0.2008
  128TIP3    H1  325   4.098   3.832   0.166  1.9077 -1.2132  1.1784
  128TIP3    H2  326   4.034   3.963   0.204 -0.6598 -1.8913 -0.5942
  129TIP3   OH2  327   1.323   3.601   5.019  0.0700 -0.4902  0.5611
  129TIP3    H1  328   1.352   3.548   5.093  2.0423  0.7292  0.7366
  129TIP3    H2  329   1.383   3.578   4.948  0.2986  0.7087  0.3375
  130TIP3   OH2  330   3.700   5.291   5.203 -0.8003  0.2753  0.4039
  130TIP3    H1  331   3.624   5.266   5.257  1.2166 -3.5674  1.8738
  130TIP3    H2  332   3.742   5.208   5.181  2.6079  2.1596 -0.9705
  131TIP3   OH2  333   6.910   5.781   3.269  0.4248 -0.2999  0.1666
  131TIP3    H1  334   6.867   5.867   3.274  1.0867 -0.0036  1.3952
  131TIP3    H2  335   6.853   5.728   3.214 -0.2907  0.7703 -0.1478
  132TIP3   OH2  336   0.426   1.061   0.860 -0.5731 -0.6484  0.2487
  132TIP3    H1  337   0.487   1.003   0.905  1.1179  0.4322 -0.5460
  132TIP3    H2  338   0.388   1.114   0.930 -0.8402 -1.5288  0.7908
  133TIP3   OH2  339   4.839   1.031   1.735  0.7166  0.6138  0.3327
  133TIP3    H1  340   4.907   1.080   1.688  1.9506 -1.2253  0.0801
  133TIP3    H2  341   4.796   0.980   1.666  0.2653  0.4344  0.7499
  134TIP3   OH2  342   3.813   3.519   5.794  0.4100 -0.5747  0.2090
  134TIP3    H1  343   3.858   3.436   5.776 -0.2780 -0.9149  0.0399
  134TIP3    H2  344   3.743   3.522   5.729  0.5729  0.2543  0.0654
  135TIP3   OH2  345   4.421   6.640   3.746 -0.2619 -0.0698  0.2037
  135TIP3    H1  346   4.343   6.688   3.776 -0.5271 -0.1510 -0.3487
  135TIP3    H2  347   4.388   6.555   3.719  0.1403 -0.3946  0.7135
  136TIP3   OH2  348   1.043   2.825   4.281  0.7069 -0.3493  0.1504
  136TIP3    H1  349   1.052   2.892   4.348 -0.1653 -1.1406  1.0960
  136TIP3    H2  350   1.069   2.868   4.200 -0.8991  1.4541  0.5453
  137TIP3   OH2  351   5.832   0.387   6.189  0.4962 -0.1323  0.2533
  137TIP3    H1  352   5.881   0.315   6.228  0.5194 -0.4537 -0.3610
  137TIP3    H2  353   5.882   0.466   6.212  1.3129 -0.4566 -0.3711
  138TIP3   OH2  354   8.266   1.016   3.681 -0.5526 -0.1577  0.6905
  138TIP3    H1  355   8.203   0.947   3.702 -0.3282 -0.4096  0.5365
  138TIP3    H2  356   8.284   1.005   3.588 -2.0113  1.3358  0.1724
  139TIP3   OH2  357   0.569   1.921   1.711 -0.3010 -0.6670  0.3554
  139TIP3    H1  358   0.577   1.826   1.710 -1.0057 -0.7322 -0.2036
  139TIP3    H2  359   0.474   1.936   1.714 -0.2787  0.0064 -1.3174
  140TIP3   OH2  360   6.961   5.409   4.703  0.1456 -0.5492 -0.1890
  140TIP3    H1  361   6.880   5.391   4.655  0.7587 -2.0612 -0.7484
  140TIP3    H2  362   6.955   5.354   4.781 -0.2750  0.9220  0.8357
  141TIP3   OH2  363   5.000   0.020   6.192  0.3187 -0.5106 -0.1705
  141TIP3    H1  364   5.049   0.102   6.201 -0.5634  0.0631 -0.4232
  141TIP3    H2  365   5.041  -0.040   6.254  0.5589  0.3261  0.4922
  142TIP3   OH2  366   5.069   4.176   0.172  0.1346 -0.0100  0.2326
  142TIP3    H1  367   4.987   4.203   0.213 -0.8164 -2.2337 -0.0726
  142TIP3    H2  368   5.125   4.151   0.246  0.5874  1.5806  0.4459
  143TIP3   OH2  369   5.343   6.795   3.218 -0.0964 -0.6223 -0.3729
  143TIP3    H1  370   5.343   6.884   3.254  0.5174  0.0158 -1.8677
  143TIP3    H2  371   5.398   6.745   3.279 -2.1665 -0.5464  1.6895
  144TIP3   OH2  372   0.011   3.558   6.670  0.2111  0.1281  0.4337
  144TIP3    H1  373   0.103   3.539   6.690  0.2035 -0.6085 -0.1850
  144TIP3    H2  374   0.010   3.652   6.652  0.7271  0.2606  1.0500
  145TIP3   OH2  375   6.196   0.031   3.639  0.4296 -0.3691 -0.1720
  145TIP3    H1  376   6.190  -0.042   3.700 -2.2663 -0.2561 -0.2035
  145TIP3    H2  377   6.187   0.109   3.694  0.2895 -0.1748 -0.4661
  146TIP3   OH2  378   8.332   5.829   2.414 -0.0394 -0.2749 -0.1067
  146TIP3    H1  379   8.373   5.753   2.457 -0.2285  0.0685  0.6967
  146TIP3    H2  380   8.388   5.846   2.338 -0.7748 -2.0769 -1.1229
  147TIP3   OH2  381   6.350   0.983  -0.027  0.2853 -0.2420 -0.6728
  147TIP3    H1  382   6.374   0.901   0.016  2.8660  0.0052 -1.4755
  147TIP3    H2  383   6.356   1.049   0.041  1.1733 -0.3094 -0.6795
  148TIP3   OH2  384   3.423   6.528   4.085 -0.2112 -0.2226  0.3932
  148TIP3    H1  385   3.392   6.455   4.032 -2.0769  0.1178  0.9409
  148TIP3    H2  386   3.404   6.606   4.033  0.9808 -0.0653  0.1760
  149TIP3   OH2  387   5.843   0.189   3.439 -0.6838  0.2300 -0.7032
  149TIP3    H1  388   5.753   0.171   3.467 -0.2677 -0.5741  0.1670
  149TIP3    H2  389   5.886   0.104   3.441  1.1622  1.0695  2.7822
  150TIP3   OH2  390   2.330   2.562   2.220  0.0724  0.3859 -0.1593
  150TIP3    H1  391   2.324   2.481   2.168 -0.2128  0.0375  0.4051
  150TIP3    H2  392   2.381   2.621   2.166  1.5340 -0.6515  0.0327
  151TIP3   OH2  393   5.368   5.923   1.832 -0.3463 -0.0190  0.6657
  151TIP3    H1  394   5.382   6.004   1.783 -0.4153 -0.1556  0.4179
  151TIP3    H2  395   5.273   5.912   1.835 -0.4277  0.8049  2.1829
  152TIP3   OH2  396   4.902   5.083   1.122 -0.4040 -0.0824  0.0774
  152TIP3    H1  397   4.853   5.162   1.096  0.6570  0.5449 -0.0803
  152TIP3    H2  398   4.925   5.099   1.213  0.2127  0.0153 -0.0890
  153TIP3   OH2  399   8.021   3.731   3.097  0.1346  0.5229 -0.5548
  153TIP3    H1  400   8.070   3.654   3.125  1.1472  1.2209 -0.3970
  153TIP3    H2  401   7.937   3.723   3.143 -0.0985 -0.8986 -1.1610
  154TIP3   OH2  402   8.117   1.106   1.014 -0.8169  0.3163  0.7656
  154TIP3    H1  403   8.076   1.022   1.030 -0.9245  0.0209 -0.8731
  154TIP3    H2  404   8.197   1.085   0.965 -1.5611  1.2151 -0.9178
  155TIP3   OH2  405   3.771   5.281   1.951  0.0064 -0.4451 -1.0151
  155TIP3    H1  406   3.707   5.311   1.887  0.5648  0.4041 -1.1825
  155TIP3    H2  407   3.727   5.210   1.998 -0.8491 -0.2396 -1.5033
  156TIP3   OH2  408   6.436   2.300   0.430  0.0370  0.9313 -0.4254
  156TIP3    H1  409   6.478   2.215   0.416  0.1206  1.0190 -0.7307
  156TIP3    H2  410   6.348   2.289   0.394 -0.4294  0.5481  0.8078
  157TIP3   OH2  411   5.717  -0.000   0.613  0.0980  0.7214 -0.1624
  157TIP3    H1  412   5.710   0.064   0.542  1.1547  0.7808 -0.2318
  157TIP3    H2  413   5.669   0.039   0.686 -1.5515  0.3751 -1.0239
  158TIP3   OH2  414   3.315   6.993   5.145 -0.1256  0.8856 -0.0807
  158TIP3    H1  415   3.309   7.083   5.177 -0.2385  0.7443  0.3014
  158TIP3    H2  416   3.266   6.993   5.064  0.0838  1.2291 -0.2113
  159TIP3   OH2  417   0.418   1.265   1.267 -0.4652 -0.8673 -0.3746
  159TIP3    H1  418   0.430   1.223   1.352 -0.0881 -0.5290 -0.2573
  159TIP3    H2  419   0.506   1.279   1.234 -0.4847  1.1319  0.2524
  160TIP3   OH2  420   7.087   4.515   6.212  0.1722  0.3188 -0.6752
  160TIP3    H1  421   7.168   4.465   6.219 -0.0982  0.0282  0.6714
  160TIP3    H2  422   7.021   4.450   6.187  0.2600  0.4757 -1.3419
  161TIP3   OH2  423   2.379   2.500   4.134  0.1453  0.4043  0.0214
  161TIP3    H1  424   2.470   2.475   4.150  1.0363  3.0546 -0.4052
  161TIP3    H2  425   2.360   2.565   4.201  0.1130  3.1047 -2.3984
  162TIP3   OH2  426   8.246   3.358   5.611  0.5081 -0.3837 -0.5148
  162TIP3    H1  427   8.155   3.389   5.610  0.5653 -0.2059 -0.1058
  162TIP3    H2  428   8.255   3.312   5.694  0.1345 -2.3808 -1.5323
  163TIP3   OH2  429   7.608   7.116   6.326 -0.4174  0.0499  0.4857
  163TIP3    H1  430   7.617   7.122   6.231 -2.1421  1.0716  0.3490
  163TIP3    H2  431   7.635   7.027   6.347  0.3900 -0.0614 -0.8947
  164TIP3   OH2  432   7.011   0.038   6.135 -0.2025 -0.2787  0.0502
  164TIP3    H1  433   7.015  -0.049   6.096 -0.6372 -0.7453  1.0230
  164TIP3    H2  434   6.978   0.094   6.066 -0.6394 -1.0257 -0.3546
  165TIP3   OH2  435   5.834   0.047   1.243 -0.0359 -0.9718 -0.3114
  165TIP3    H1  436   5.914   0.099   1.241  0.7000 -2.0496  0.0766
  165TIP3    H2  437   5.840  -0.002   1.325 -1.9938  0.2667  0.6358
  166TIP3   OH2  438   3.408   1.323   6.282  0.1114 -0.4703 -0.0362
  166TIP3    H1  439   3.340   1.272   6.327  0.4325 -0.5192  0.4007
  166TIP3    H2  440   3.461   1.257   6.237 -0.8683 -0.3566 -1.4539
  167TIP3   OH2  441   2.779   7.620   0.893 -0.1157 -0.6396  0.1624
  167TIP3    H1  442   2.719   7.559   0.935  1.2540 -0.5017  2.4848
  167TIP3    H2  443   2.725   7.666   0.828 -2.3881 -0.9118  1.7398
  168TIP3   OH2  444   6.344   2.663   0.341  0.1172 -0.1134  0.6080
  168TIP3    H1  445   6.436   2.649   0.363  0.0894 -0.6066  0.4191
  168TIP3    H2  446   6.312   2.721   0.410  0.4752 -0.2398  0.8854
  169TIP3   OH2  447   4.144   4.885   0.846  0.4745 -0.6779 -0.1549
  169TIP3    H1  448   4.124   4.941   0.920  1.0511 -0.7147  0.0315
  169TIP3    H2  449   4.065   4.833   0.833  0.3788 -0.6859  0.4482
  170TIP3   OH2  450   3.338   6.353   3.843 -0.0219 -0.6099  0.2232
  170TIP3    H1  451   3.243   6.361   3.853  0.1534  0.7617  1.0766
  170TIP3    H2  452   3.353   6.260   3.829 -1.4199 -0.9552  0.8753
  171TIP3   OH2  453   3.991   1.285   2.815  0.1260  0.3146  0.3376
  171TIP3    H1  454   4.080   1.249   2.823 -0.3127 -0.5746  1.4966
  171TIP3    H2  455   3.980   1.300   2.721  0.8741 -1.2384 -0.0350
  172TIP3   OH2  456   7.265   3.093   0.280  0.6950  0.5221 -0.3564
  172TIP3    H1  457   7.279   3.068   0.371  2.4761 -0.4159 -0.8458
  172TIP3    H2  458   7.170   3.099   0.271  0.3801 -1.6372  0.9671
  173TIP3   OH2  459   2.323   0.742   0.623  0.3488 -0.1798 -0.1410
  173TIP3    H1  460   2.273   0.676   0.575 -0.9145  0.4092  0.3125
  173TIP3    H2  461   2.261   0.776   0.688  1.4735  0.3024  0.7080
  174TIP3   OH2  462   8.292   3.552   3.465  0.4085  0.1459  0.1238
  174TIP3    H1  463   8.387   3.559   3.474  0.2133  3.5972  1.1151
  174TIP3    H2  464   8.261   3.538   3.555 -0.0368 -2.0551 -0.3259
  175TIP3   OH2  465   0.073   4.034   3.652  0.1296 -0.5141  0.2388
  175TIP3    H1  466   0.026   3.964   3.608 -1.6061  1.4405 -1.1907
  175TIP3    H2  467   0.147   4.055   3.594  1.8767 -2.4000  1.6378
  176TIP3   OH2  468   0.919   7.879   4.386 -0.2985  0.0756  0.4080
  176TIP3    H1  469   0.844   7.907   4.334 -0.9792 -0.5085  1.0425
  176TIP3    H2  470   0.995   7.916   4.341 -1.0076  1.2492  0.1331
  177TIP3   OH2  471   6.269   1.578   1.857 -0.1119  0.2077 -0.0548
  177TIP3    H1  472   6.305   1.654   1.811  0.4193  0.1423  0.2381
  177TIP3    H2  473   6.276   1.601   1.950 -2.1387  0.7722 -0.0066
  178TIP3   OH2  474   4.950   6.995   0.982  0.0941  0.0758 -0.0005
  178TIP3    H1  475   4.888   7.014   1.053  1.1053  0.1735  0.8800
  178TIP3    H2  476   4.961   7.078   0.937 -0.2317  0.1144 -0.0122
  179TIP3   OH2  477   3.597   3.207   1.552  0.6274  0.0905  0.1536
  179TIP3    H1  478   3.634   3.264   1.485  2.0374  0.4685  1.1854
  179TIP3    H2  479   3.658   3.215   1.626 -0.0256 -1.4891  0.9163
  180TIP3   OH2  480   2.703   4.393   0.971  0.2703  0.1256 -0.2493
  180TIP3    H1  481   2.727   4.321   0.913 -0.3239 -0.2727 -0.0075
  180TIP3    H2  482   2.780   4.449   0.973  1.3246 -1.2984  0.7739
  181TIP3   OH2  483   7.217   4.792   2.362  0.0340 -0.3592  0.2013
  181TIP3    H1  484   7.214   4.730   2.289 -1.9127  1.2947 -1.2496
  181TIP3    H2  485   7.288   4.853   2.339  0.1630 -0.4848  0.2658
  182TIP3   OH2  486   6.109   1.960   2.842 -0.1833 -0.1195 -0.5279
  182TIP3    H1  487   6.029   1.986   2.886 -0.7187 -0.9792 -0.9677
  182TIP3    H2  488   6.105   2.004   2.757  0.1132  0.3139 -0.3251
  183TIP3   OH2  489   5.847   7.432   4.665 -0.1351  0.3086 -0.4926
  183TIP3    H1  490   5.937   7.431   4.633  0.7650 -2.7356  1.7523
  183TIP3    H2  491   5.847   7.496   4.736 -0.4457  2.0779 -2.0074
  184TIP3   OH2  492   6.139   4.928   5.400  1.0012 -0.3635  0.2083
  184TIP3    H1  493   6.090   4.901   5.477 -2.0105 -1.7039 -1.9568
  184TIP3    H2  494   6.130   5.024   5.397 -1.3630 -0.5417  0.0641
  185TIP3   OH2  495   1.987   5.876   4.771 -0.4405  0.3443 -0.4495
  185TIP3    H1  496   1.992   5.829   4.854 -1.1109  0.7847 -0.1555
  185TIP3    H2  497   1.970   5.967   4.795 -1.3878  0.3495 -1.0833
  186TIP3   OH2  498   7.217   6.323   3.682 -0.3458 -0.4826  0.6100
  186TIP3    H1  499   7.182   6.391   3.625  0.1270  0.3125  1.2475
  186TIP3    H2  500   7.179   6.343   3.768  2.0168  0.7449  1.4687
  187TIP3   OH2  501   5.404   5.484   4.155 -0.3073  0.3738 -0.1191
  187TIP3    H1  502   5.479   5.428   4.131  0.2292  0.7695  0.6010
  187TIP3    H2  503   5.370   5.445   4.235 -1.8101 -0.6714 -1.1968
  188TIP3   OH2  504   3.871   5.469   0.089  0.1761  0.4032 -0.1023
  188TIP3    H1  505   3.827   5.500   0.168 -0.4036 -0.0159 -0.2573
  188TIP3    H2  506   3.803   5.423   0.040  0.8132 -0.3415 -0.2962
  189TIP3   OH2  507   3.410   0.529   1.085  0.0998  0.2248  0.1961
  189TIP3    H1  508   3.419   0.589   1.011  1.7190 -0.2764 -0.0619
  189TIP3    H2  509   3.484   0.550   1.142  0.9441 -1.7367 -0.0930
  190TIP3   OH2  510   7.615   6.984   2.459  0.0739 -0.3348  0.2287
  190TIP3    H1  511   7.691   7.041   2.469 -0.1644  0.1146 -0.4839
  190TIP3    H2  512   7.608   6.939   2.543  0.3331  0.6054  0.7713
  191TIP3   OH2  513   5.441   6.826   1.971  0.0207  0.4602 -0.1088
  191TIP3    H1  514   5.447   6.819   2.067 -0.9402 -0.2897 -0.0881
  191TIP3    H2  515   5.418   6.918   1.956 -2.4065  0.0505  0.5733
  192TIP3   OH2  516   4.386   1.761   2.310 -0.1234 -0.0536 -0.5289
  192TIP3    H1  517   4.351   1.812   2.383 -0.1362 -0.6672 -0.1028
  192TIP3    H2  518   4.308   1.724   2.268 -0.0792 -0.1888 -0.4916
  193TIP3   OH2  519   0.699   0.633   0.472 -0.1707 -0.2081  0.0494
  193TIP3    H1  520   0.772   0.613   0.531  1.6400 -0.4926 -2.1308
  193TIP3    H2  521   0.678   0.724   0.490  1.4262  0.1870  0.0740
  194TIP3   OH2  522   2.919   1.836   4.732  0.6363 -0.1158 -0.0060
  194TIP3    H1  523   2.907   1.851   4.639  1.6810 -0.5750 -0.2273
  194TIP3    H2  524   2.844   1.782   4.758  0.3932 -0.0589 -0.5885
  195TIP3   OH2  525   1.674   3.021   4.152  0.4878 -0.5102 -0.1817
  195TIP3    H1  526   1.733   2.965   4.102  0.9307 -0.9248  0.7757
  195TIP3    H2  527   1.625   3.069   4.086  3.9049  2.0502 -1.1283
  196TIP3   OH2  528   7.810   4.562   0.926 -0.0184 -0.6305  0.1554
  196TIP3    H1  529   7.852   4.502   0.865  0.3830 -0.6139  0.4132
  196TIP3    H2  530   7.719   4.566   0.896  0.0884 -0.9044 -0.2196
  197TIP3   OH2  531   2.678   0.067   0.083  0.5243  0.4394  0.2532
  197TIP3    H1  532   2.742   0.079   0.013 -0.3496 -1.1048 -0.8583
  197TIP3    H2  533   2.709  -0.010   0.131  0.1154  0.3724  0.4139
  198TIP3   OH2  534   7.162   2.166   4.537 -0.5434 -0.4797 -0.2055
  198TIP3    H1  535   7.228   2.101   4.559  1.5726  0.7152 -2.5071
  198TIP3    H2  536   7.150   2.158   4.442 -3.8111 -0.6478  0.0996
  199TIP3   OH2  537   5.037   7.315   1.390 -0.5007  0.3278  0.1608
  199TIP3    H1  538   4.970   7.343   1.451  1.9359 -1.1957  3.9018
  199TIP3    H2  539   5.034   7.219   1.394  0.0834  0.1760 -1.8289
  200TIP3   OH2  540   0.373   2.927   1.681 -0.1958  0.2557  0.0472
  200TIP3    H1  541   0.347   3.002   1.627  1.3504  0.6903 -0.1245
  200TIP3    H2  542   0.416   2.966   1.757  1.4298 -0.4439 -0.4642
  201TIP3   OH2  543   3.481   4.129   4.337 -0.2407 -0.6205 -0.0311
  201TIP3    H1  544   3.392   4.163   4.340  0.1694  0.5665  3.4811
  201TIP3    H2  545   3.486   4.069   4.412  1.2688 -2.5609 -1.5893
  202TIP3   OH2  546   6.145   2.071   6.442 -0.3487 -0.3056 -0.1795
  202TIP3    H1  547   6.208   2.065   6.370 -0.5406 -0.8286 -0.3100
  202TIP3    H2  548   6.127   1.980   6.465  0.5520 -0.1572  1.2754
  203TIP3   OH2  549   3.627   7.383   2.444  0.0398  0.3100 -0.3488
  203TIP3    H1  550   3.684   7.420   2.376  2.0606 -1.5184  0.2141
  203TIP3    H2  551   3.683   7.380   2.522 -0.7172 -1.7767  0.1792
  204TIP3   OH2  552   5.654   0.901   5.447 -0.2382 -0.4588 -0.0444
  204TIP3    H1  553   5.564   0.930   5.460  0.2882  0.8157  0.9368
  204TIP3    H2  554   5.681   0.864   5.531  0.2948 -0.4385 -0.1989
  205TIP3   OH2  555   6.187   5.896   3.013  0.2537  0.7317 -0.2512
  205TIP3    H1  556   6.114   5.938   2.969 -0.4042  0.0944  0.2096
  205TIP3    H2  557   6.225   5.838   2.947  0.1012  0.7832 -0.3831
  206TIP3   OH2  558   3.511   1.389   2.734  0.2644 -0.0888 -0.1263
  206TIP3    H1  559   3.446   1.367   2.667  1.5895 -0.2629 -1.3901
  206TIP3    H2  560   3.575   1.443   2.689  0.7129  0.5686  1.2424
  207TIP3   OH2  561   2.135   0.482   2.969  0.2348 -0.1776  0.0699
  207TIP3    H1  562   2.077   0.487   2.892 -0.0204 -0.4411  0.2398
  207TIP3    H2  563   2.110   0.399   3.012  1.3269 -0.7262 -0.3152
  208TIP3   OH2  564   1.001   0.316   1.307 -0.0038  0.4539 -0.2380
  208TIP3    H1  565   0.959   0.388   1.261 -0.5301 -0.1130 -0.6501
  208TIP3    H2  566   0.967   0.237   1.266 -0.1129 -0.0572  0.7987
  209TIP3   OH2  567   0.186   3.747   1.535  0.3186 -0.1420 -0.6281
  209TIP3    H1  568   0.101   3.751   1.491  0.6303 -0.8010 -1.3196
  209TIP3    H2  569   0.182   3.816   1.600 -0.2112  0.8096 -1.6272
  210TIP3   OH2  570   7.194   4.467   0.482  1.1153 -0.4167  0.1038
  210TIP3    H1  571   7.211   4.548   0.434  1.0060 -0.4716 -0.0309
  210TIP3    H2  572   7.252   4.403   0.440 -1.1090 -1.2054 -2.0212
  211TIP3   OH2  573   0.618   2.004   3.824  0.0118 -0.3105  0.4287
  211TIP3    H1  574   0.532   1.994   3.865 -0.0593 -1.3640  0.0541
  211TIP3    H2  575   0.680   1.976   3.891 -0.0431 -1.0699  0.1709
  212TIP3   OH2  576   7.388   2.230   2.179  0.1020 -0.5013  0.4537
  212TIP3    H1  577   7.439   2.204   2.256 -1.7773 -1.1111  1.5687
  212TIP3    H2  578   7.431   2.186   2.106  0.7488 -1.5723  1.4437
  213TIP3   OH2  579   5.231   4.555   6.164  0.1442 -0.1766  0.1153
  213TIP3    H1  580   5.143   4.590   6.151  0.5496  1.3408  1.1610
  213TIP3    H2  581   5.286   4.608   6.106  0.6098  0.1403  0.8406
  214TIP3   OH2  582   5.944   3.214   5.847 -0.1956  0.5587  0.5970
  214TIP3    H1  583   5.908   3.270   5.917  0.7024  0.6194  1.0271
  214TIP3    H2  584   6.033   3.194   5.876 -0.0493  0.0041 -0.2055
  215TIP3   OH2  585   2.074   5.918   4.478 -0.2906  0.2943  0.5504
  215TIP3    H1  586   2.001   5.979   4.477  0.0075  0.6456 -0.1046
  215TIP3    H2  587   2.111   5.921   4.390 -0.1576 -0.6990  0.5527
  216TIP3   OH2  588   3.887   3.226   3.175  0.0458 -0.0892  0.3471
  216TIP3    H1  589   3.894   3.217   3.080 -0.3729 -2.1511  0.4463
  216TIP3    H2  590   3.793   3.239   3.190  0.1244  0.3304  0.4714
  217TIP3   OH2  591   3.612   0.965   5.273  0.1790  0.0794 -0.7407
  217TIP3    H1  592   3.636   1.056   5.287 -2.6130  0.6825  0.8440
  217TIP3    H2  593   3.518   0.967   5.254 -0.7026 -2.5999  2.3574
  218TIP3   OH2  594   7.725   0.429   0.297 -0.2050 -0.6977  0.3599
  218TIP3    H1  595   7.769   0.509   0.268  1.2789  0.0924  4.1602
  218TIP3    H2  596   7.632   0.450   0.296  0.1688  1.2250  1.4687
  219TIP3   OH2  597   7.141   0.928   5.261 -0.0607 -0.0473 -0.0062
  219TIP3    H1  598   7.141   1.019   5.291  0.5878  0.6644 -2.0033
  219TIP3    H2  599   7.106   0.932   5.172  1.5867 -1.4970 -0.7923
  220TIP3   OH2  600   5.710   2.887   5.288 -0.5815 -0.0418  0.3724
  220TIP3    H1  601   5.668   2.950   5.229  0.3572  0.3052  0.0661
  220TIP3    H2  602   5.718   2.807   5.235 -0.1342  0.1365  0.1685
  221TIP3   OH2  603   7.910   7.266   6.387 -0.4237 -0.2627 -0.0461
  221TIP3    H1  604   7.906   7.172   6.406 -0.4222 -0.3904 -0.6431
  221TIP3    H2  605   7.856   7.276   6.308  0.5142  0.0495 -0.6662
  222TIP3   OH2  606   4.637   6.279   3.077 -0.2661  0.4346 -0.1093
  222TIP3    H1  607   4.674   6.356   3.032 -1.1330 -0.2293 -2.0952
  222TIP3    H2  608   4.558   6.312   3.120  0.6895  1.1343  1.1411
  223TIP3   OH2  609   6.359   5.700   2.846 -0.2442  0.2670  0.0497
  223TIP3    H1  610   6.398   5.699   2.758  0.0617  1.6620  0.1506
  223TIP3    H2  611   6.373   5.611   2.879 -0.2461 -0.2469 -1.2556
  224TIP3   OH2  612   6.397   6.718   2.395 -0.6656  0.0458 -0.1538
  224TIP3    H1  613   6.340   6.682   2.326  0.5967 -2.2331 -0.1062
  224TIP3    H2  614   6.463   6.650   2.409  0.3910  1.3901  1.7982
  225TIP3   OH2  615   8.107   3.699   1.001  0.2199 -0.5951  0.1335
  225TIP3    H1  616   8.090   3.779   1.051  1.6165  0.4765 -1.0194
  225TIP3    H2  617   8.123   3.633   1.068  0.9546  0.5386  1.1314
  226TIP3   OH2  618   7.535   1.770   5.329 -0.5233 -0.4290  0.1119
  226TIP3    H1  619   7.480   1.773   5.251 -0.0363  1.0261 -0.2020
  226TIP3    H2  620   7.594   1.845   5.320  0.5450 -1.1148  1.1489
  227TIP3   OH2  621   4.134   2.373   5.692  0.7090  0.5297 -0.2051
  227TIP3    H1  622   4.073   2.391   5.764  2.2463 -1.6435  1.8052
  227TIP3    H2  623   4.150   2.279   5.697  2.0318  0.5661 -2.4903
  228TIP3   OH2  624   4.135   5.877   4.457  0.3127 -0.0451  0.1797
  228TIP3    H1  625   4.126   5.863   4.552  0.8202  0.9783  0.3883
  228TIP3    H2  626   4.082   5.808   4.418 -0.4600 -0.0744  1.2297
  229TIP3   OH2  627   7.615   4.064   5.671  0.1308 -0.0323 -0.1449
  229TIP3    H1  628   7.559   4.083   5.746 -0.8162  2.0757 -1.3018
  229TIP3    H2  629   7.702   4.092   5.698 -0.1059  0.2422  0.3475
  230TIP3   OH2  630   4.778   7.755   6.339  0.2412 -0.4412 -0.0078
  230TIP3    H1  631   4.808   7.788   6.424 -0.5428 -2.2505  1.0355
  230TIP3    H2  632   4.693   7.798   6.325  0.8640  0.6886 -0.4312
  231TIP3   OH2  633   6.317   2.924   5.888 -0.0543  0.5753 -0.2440
  231TIP3    H1  634   6.290   2.862   5.956 -0.5199  0.3730 -0.6034
  231TIP3    H2  635   6.284   2.885   5.807  0.3225  0.9145 -0.5602
  232TIP3   OH2  636   3.957   2.056   0.214 -0.0895 -0.8070  0.2685
  232TIP3    H1  637   4.040   2.074   0.258 -0.9721  0.1720  1.6107
  232TIP3    H2  638   3.980   1.997   0.142  2.0966  1.0525 -0.6795
  233TIP3   OH2  639   7.617   0.255   3.178  0.0486  0.6444  0.0112
  233TIP3    H1  640   7.660   0.325   3.227  0.7910 -0.0554  0.3706
  233TIP3    H2  641   7.574   0.300   3.105 -1.1713  1.7375  1.3230
  234TIP3   OH2  642   2.080   3.516   0.294  0.5881 -0.0386  0.0531
  234TIP3    H1  643   2.066   3.423   0.313 -1.1095 -0.1587 -1.5164
  234TIP3    H2  644   2.144   3.517   0.223  0.2170 -0.0464 -0.2847
  235TIP3   OH2  645   5.723   6.367   5.638 -0.9015  0.1379 -0.0840
  235TIP3    H1  646   5.710   6.441   5.578  2.1613  0.0768 -0.9581
  235TIP3    H2  647   5.680   6.395   5.720  1.4433  3.6646  0.1516
  236TIP3   OH2  648   7.123   1.494   3.531  0.3764 -0.2166  0.0619
  236TIP3    H1  649   7.205   1.529   3.565  0.3864 -0.2172  0.0383
  236TIP3    H2  650   7.129   1.400   3.545  0.3291 -0.2039  0.1687
  237TIP3   OH2  651   5.366   3.280   6.074 -0.1563 -0.6617  0.0703
  237TIP3    H1  652   5.295   3.331   6.112 -0.4849 -0.9728 -0.1202
  237TIP3    H2  653   5.399   3.335   6.003  0.3664 -0.1414  0.7008
  238TIP3   OH2  654   4.385   3.749   0.365  0.2449  0.4696  0.4568
  238TIP3    H1  655   4.319   3.684   0.387 -0.7003  1.4187  0.5066
  238TIP3    H2  656   4.387   3.807   0.442  0.7404  0.7661  0.2245
  239TIP3   OH2  657   7.848   2.591   0.933  0.2736  0.2334 -0.3429
  239TIP3    H1  658   7.794   2.520   0.968  0.5029  0.2237 -0.0036
  239TIP3    H2  659   7.831   2.590   0.839 -0.9281  0.7370 -0.1554
  240TIP3   OH2  660   0.731   0.281   4.083  0.0625  0.1612  0.2444
  240TIP3    H1  661   0.750   0.250   3.994 -0.4954  0.4851  0.0067
  240TIP3    H2  662   0.750   0.375   4.080 -0.5688  0.2902  0.2916
  241TIP3   OH2  663   3.882   2.937   0.334  0.1374 -0.0826  0.0638
  241TIP3    H1  664   3.810   2.906   0.390 -0.6495  1.1714 -0.2029
  241TIP3    H2  665   3.889   2.871   0.266 -1.6043  0.3356 -0.5835
  242TIP3   OH2  666   7.595   6.652   5.202 -0.3139  1.2146 -0.0751
  242TIP3    H1  667   7.648   6.716   5.156  1.4236  1.1932  1.7348
  242TIP3    H2  668   7.594   6.575   5.145  2.1587  1.0072  0.0492
  243TIP3   OH2  669   0.694   2.749   6.149  0.0305  0.2245  0.1439
  243TIP3    H1  670   0.662   2.672   6.101 -0.3294  0.3482  0.1858
  243TIP3    H2  671   0.788   2.734   6.157 -0.2280 -0.9076  1.4069
  244TIP3   OH2  672   2.044   5.458   2.038  0.3349 -0.0869  0.1488
  244TIP3    H1  673   1.955   5.439   2.011  1.0330 -1.7940 -1.1540
  244TIP3    H2  674   2.094   5.464   1.957  1.1491  2.6331  0.7489
  245TIP3   OH2  675   0.766   4.253   6.189 -0.3828 -0.1132 -0.4361
  245TIP3    H1  676   0.789   4.251   6.096  0.0034 -1.3903 -0.3304
  245TIP3    H2  677   0.832   4.309   6.229 -0.0623 -0.2115 -0.8185
  246TIP3   OH2  678   5.572   4.819   1.677  0.2526  0.1002  0.1959
  246TIP3    H1  679   5.635   4.835   1.747 -1.1079 -0.6890  1.6649
  246TIP3    H2  680   5.543   4.906   1.649  1.0432  0.4263  0.3715
  247TIP3   OH2  681   3.779   1.302   4.622 -0.0819 -0.2447 -0.4467
  247TIP3    H1  682   3.762   1.219   4.665  0.9310  0.1453  0.7902
  247TIP3    H2  683   3.745   1.291   4.533 -2.1691 -1.1250  0.3875
  248TIP3   OH2  684   4.778   6.033   2.051 -0.7267 -0.1620  0.5589
  248TIP3    H1  685   4.767   5.938   2.057  1.0764 -0.3578  1.3777
  248TIP3    H2  686   4.822   6.057   2.132  1.6465  0.9054 -0.9607
  249TIP3   OH2  687   3.867   7.112   6.646  0.6535  0.3800 -0.0423
  249TIP3    H1  688   3.895   7.021   6.654 -1.0678 -0.1586  0.3734
  249TIP3    H2  689   3.899   7.140   6.561 -0.1648 -1.1607 -0.9151
  250TIP3   OH2  690   3.262   6.169   0.259  0.1785 -0.0312 -0.3571
  250TIP3    H1  691   3.203   6.171   0.334  0.7174  1.2486  0.0667
  250TIP3    H2  692   3.223   6.105   0.200 -1.1462  0.1249  0.2981
  251TIP3   OH2  693   5.369   2.206   4.667  0.1663  0.5238  0.2778
  251TIP3    H1  694   5.325   2.184   4.585 -0.4141 -2.2975  1.2396
  251TIP3    H2  695   5.458   2.173   4.655  0.3032  0.8004  0.5242
  252TIP3   OH2  696   5.254   7.328   1.950  0.0367 -0.1035 -0.0259
  252TIP3    H1  697   5.244   7.305   1.857  0.8352 -2.1773  0.3241
  252TIP3    H2  698   5.325   7.392   1.951 -0.1131  0.0899 -0.8677
  253TIP3   OH2  699   8.090   7.787   0.787  0.3511 -0.9206 -0.0172
  253TIP3    H1  700   8.144   7.717   0.822  2.1128  0.0505 -0.6466
  253TIP3    H2  701   8.026   7.805   0.855 -0.2431 -3.1922  0.1024
  254TIP3   OH2  702   5.180   6.029   3.650  0.4251 -0.4554  0.2406
  254TIP3    H1  703   5.232   6.073   3.582 -0.4463  0.4618  0.1549
  254TIP3    H2  704   5.211   6.068   3.731  1.0267 -1.1027  0.3271
  255TIP3   OH2  705   0.327   6.924   6.245  0.3112 -0.2576 -0.0328
  255TIP3    H1  706   0.253   6.918   6.306 -0.1663 -0.5272 -0.6277
  255TIP3    H2  707   0.394   6.868   6.284 -0.3835 -1.3067 -0.2790
  256TIP3   OH2  708   0.996   7.705   0.439  0.8868 -0.0474  0.1472
  256TIP3    H1  709   1.010   7.783   0.493 -1.4547  2.6067 -2.7364
  256TIP3    H2  710   1.041   7.725   0.357 -1.5288 -0.7112 -1.4268
  257TIP3   OH2  711   3.505   2.600   1.844  0.4825  0.1973 -0.2593
  257TIP3    H1  712   3.434   2.604   1.907  0.4052 -0.1581 -0.3228
  257TIP3    H2  713   3.526   2.692   1.825  0.9147  0.3176  0.7347
  258TIP3   OH2  714   2.718   5.671   0.878 -0.2204  0.7017  0.0724
  258TIP3    H1  715   2.644   5.622   0.913 -0.7222 -0.4673 -2.4611
  258TIP3    H2  716   2.761   5.611   0.817  1.4493  2.1517 -0.2688
  259TIP3   OH2  717   5.424   0.067   0.169  0.0064  0.0391 -0.6868
  259TIP3    H1  718   5.497   0.129   0.165 -0.0057  0.1738  0.6521
  259TIP3    H2  719   5.457  -0.011   0.124  1.1377 -0.0407  0.2139
  260TIP3   OH2  720   5.189   5.089   0.479 -0.7593 -0.3712  0.3320
  260TIP3    H1  721   5.127   5.073   0.549 -2.7261  0.1964 -1.1838
  260TIP3    H2  722   5.136   5.089   0.399  1.0854  0.7818 -0.9885
  261TIP3   OH2  723   7.800   1.272   2.049  0.9506 -0.7265 -0.1904
  261TIP3    H1  724   7.808   1.176   2.047  0.9536 -0.7911  1.4102
  261TIP3    H2  725   7.710   1.290   2.022  0.2138 -1.3594  1.6811
  262TIP3   OH2  726   2.378   1.305   1.250 -0.4380  0.4395  0.7550
  262TIP3    H1  727   2.310   1.331   1.312 -0.6504  1.9727 -0.0763
  262TIP3    H2  728   2.459   1.342   1.285 -0.2620 -0.2087  1.0343
  263TIP3   OH2  729   2.588   6.692   4.926  0.2655 -0.2965 -0.5681
  263TIP3    H1  730   2.499   6.725   4.944  1.0688  1.9945 -0.4455
  263TIP3    H2  731   2.576   6.630   4.854 -1.2451  1.6648 -2.1532
  264TIP3   OH2  732   0.459   4.166   5.645 -0.2058 -0.2204 -0.5549
  264TIP3    H1  733   0.512   4.119   5.580  1.6638  0.1118  0.6679
  264TIP3    H2  734   0.516   4.174   5.721  0.4942  5.7371 -1.2486
  265TIP3   OH2  735   5.427   1.815   3.043 -0.0682 -0.3713  0.1511
  265TIP3    H1  736   5.340   1.824   3.083  0.7105  0.5638  1.7574
  265TIP3    H2  737   5.410   1.783   2.955 -2.1147  0.7364  0.0720
  266TIP3   OH2  738   3.700   1.204   5.331 -0.0848 -0.2748  0.5055
  266TIP3    H1  739   3.630   1.237   5.275  0.7782  2.7385  1.0437
  266TIP3    H2  740   3.663   1.203   5.419  0.8491  2.8616  1.0568
  267TIP3   OH2  741   2.005   6.143   0.295  0.6481  0.0130 -0.2886
  267TIP3    H1  742   2.025   6.226   0.251  0.8218 -0.2132 -0.6344
  267TIP3    H2  743   1.930   6.164   0.352 -0.7015 -0.0921 -1.9585
  268TIP3   OH2  744   8.276   1.210   5.057 -0.3708 -0.2810 -0.2722
  268TIP3    H1  745   8.342   1.258   5.006 -1.4816  1.8226  0.1299
  268TIP3    H2  746   8.195   1.259   5.042 -1.3475 -1.3997  1.1238
  269TIP3   OH2  747   7.639   1.727   0.780  0.2038  0.0854  0.0881
  269TIP3    H1  748   7.687   1.745   0.861  0.3447  0.9969 -0.1867
  269TIP3    H2  749   7.621   1.814   0.743  0.6458 -0.3237 -1.1536
  270TIP3   OH2  750   5.070   0.345   2.479 -0.3485  0.2165 -0.5091
  270TIP3    H1  751   5.091   0.285   2.407  0.4854 -0.5600  0.3466
  270TIP3    H2  752   4.992   0.391   2.450 -0.4575 -0.6151 -1.5986
  271TIP3   OH2  753   2.409   4.267   3.746 -0.6297  0.2303  0.2050
  271TIP3    H1  754   2.388   4.189   3.797 -0.6661  0.8308  1.1413
  271TIP3    H2  755   2.504   4.270   3.743 -0.5989  0.8339  1.2924
  272TIP3   OH2  756   7.931   4.256   3.030  0.3470  0.5132  0.6210
  272TIP3    H1  757   7.908   4.235   3.121  1.0971  0.3909  0.7907
  272TIP3    H2  758   8.023   4.231   3.023  0.3715  0.7975 -0.0940
  273TIP3   OH2  759   5.612   1.919   3.388 -0.3354  0.2583 -0.3477
  273TIP3    H1  760   5.652   1.895   3.471 -0.7889 -1.3093 -0.5446
  273TIP3    H2  761   5.529   1.960   3.412  0.3701  1.5184  0.0005
  274TIP3   OH2  762   2.581   2.947   3.471  0.5621 -0.1742  0.3373
  274TIP3    H1  763   2.573   3.040   3.451  1.3148 -0.0809  0.4393
  274TIP3    H2  764   2.675   2.933   3.484  0.4106 -0.8627  0.7460
  275TIP3   OH2  765   2.106   4.207   5.793  0.6647 -0.3222 -0.0048
  275TIP3    H1  766   2.159   4.146   5.844  0.6856 -0.9031 -0.6978
  275TIP3    H2  767   2.151   4.291   5.802 -0.0363 -0.1054  1.9731
  276TIP3   OH2  768   4.599   2.825   3.459  0.2931  0.3614  0.2950
  276TIP3    H1  769   4.631   2.857   3.375 -0.6238  1.1592  0.2302
  276TIP3    H2  770   4.545   2.749   3.437 -2.2455  2.1756 -0.1928
  277TIP3   OH2  771   3.330   7.570   3.359 -0.6142  0.2735  0.2290
  277TIP3    H1  772   3.257   7.603   3.306 -0.2363  0.9313  0.0930
  277TIP3    H2  773   3.397   7.639   3.352  1.6896 -1.9707 -3.0295
  278TIP3   OH2  774   6.334   6.813   2.659 -0.2749 -0.0259 -0.0696
  278TIP3    H1  775   6.239   6.825   2.657 -0.1202  1.4774  0.2849
  278TIP3    H2  776   6.357   6.785   2.571 -1.1234 -1.2241  0.0647
  279TIP3   OH2  777   6.354   0.402   1.295  0.1359 -0.6240  0.1172
  279TIP3    H1  778   6.290   0.400   1.223  0.1248  0.8832  0.0436
  279TIP3    H2  779   6.434   0.367   1.256 -0.1163 -0.6727 -0.3707
  280TIP3   OH2  780   4.999   3.255   6.187  0.0361 -0.2002  0.7808
  280TIP3    H1  781   5.070   3.190   6.190 -0.3904 -0.7421 -0.3271
  280TIP3    H2  782   5.043   3.337   6.165  0.5232 -0.1871  1.7342
  281TIP3   OH2  783   2.183   1.210   6.415 -0.2179 -0.1272  0.4388
  281TIP3    H1  784   2.175   1.163   6.498 -1.8999 -0.3707  0.1751
  281TIP3    H2  785   2.228   1.148   6.357 -0.4207 -0.5499  0.7262
  282TIP3   OH2  786   6.748   3.884   3.827  0.1141  0.1822  0.3300
  282TIP3    H1  787   6.843   3.891   3.822  0.3152 -2.0910 -0.4570
  282TIP3    H2  788   6.732   3.848   3.915 -0.1710  1.8798  1.0072
  283TIP3   OH2  789   0.825   4.691   1.577 -0.3911 -0.1434  0.2291
  283TIP3    H1  790   0.864   4.770   1.614 -1.6535  0.4697  0.3024
  283TIP3    H2  791   0.864   4.684   1.489  1.3550 -0.6783  0.9973
  284TIP3   OH2  792   5.948   5.185   0.708  0.6502  0.9824  0.4061
  284TIP3    H1  793   6.003   5.197   0.785  0.1799  1.0950  0.7272
  284TIP3    H2  794   5.858   5.182   0.742  0.3228  2.4104 -0.2744
  285TIP3   OH2  795   7.214   4.632   6.503 -0.0888 -0.1303 -0.0591
  285TIP3    H1  796   7.255   4.633   6.417  0.5897  2.0401  0.2273
  285TIP3    H2  797   7.287   4.643   6.565 -0.8842  2.6135  0.5181
  286TIP3   OH2  798   1.343   0.246   4.991  0.0079 -0.0664 -0.1123
  286TIP3    H1  799   1.257   0.287   4.998  0.9463  2.6453 -2.5001
  286TIP3    H2  800   1.338   0.192   4.912  0.5075  0.1953 -0.3293
  287TIP3   OH2  801   7.834   1.472   1.468  0.3212  0.2864  0.4869
  287TIP3    H1  802   7.763   1.440   1.523  0.9678 -2.6380 -0.2005
  287TIP3    H2  803   7.900   1.403   1.472  0.4489 -0.0818 -3.8285
  288TIP3   OH2  804   3.386   7.837   1.305 -0.5673  0.5062 -0.6074
  288TIP3    H1  805   3.477   7.851   1.281 -0.0152 -0.3337  0.8750
  288TIP3    H2  806   3.344   7.922   1.288  0.0498  0.4193 -2.9566
  289TIP3   OH2  807   5.818   5.408   3.676 -0.4704  0.3929 -0.0007
  289TIP3    H1  808   5.730   5.370   3.684  0.0677 -0.9893 -0.3642
  289TIP3    H2  809   5.850   5.377   3.592  0.7015  0.1699  0.5105
  290TIP3   OH2  810   0.999   2.593   2.331 -0.5764 -0.3820  0.0480
  290TIP3    H1  811   1.082   2.636   2.352 -0.3685 -0.5190 -0.5019
  290TIP3    H2  812   0.985   2.533   2.404 -1.2749  1.1790  1.2555
  291TIP3   OH2  813   6.925   3.763   3.378 -0.4294  0.1783 -0.2896
  291TIP3    H1  814   6.878   3.842   3.407 -2.1993  0.6432 -3.8827
  291TIP3    H2  815   6.866   3.691   3.398  0.7241 -0.2361  1.9916
  292TIP3   OH2  816   7.869   4.433   0.057 -0.0753  0.0333 -0.9965
  292TIP3    H1  817   7.914   4.508   0.094 -0.2349  0.9808 -2.6293
  292TIP3    H2  818   7.929   4.359   0.069 -0.7929 -0.1208  2.5566
  293TIP3   OH2  819   7.601   5.583   3.084  0.1962  0.0890  0.3872
  293TIP3    H1  820   7.524   5.638   3.070  2.7342  4.2046  0.9399
  293TIP3    H2  821   7.592   5.554   3.175 -1.3294 -0.7764  0.0084
  294TIP3   OH2  822   4.516   5.870   1.742 -0.5975  0.8872 -0.3857
  294TIP3    H1  823   4.553   5.790   1.781 -1.1401  0.8461  0.0628
  294TIP3    H2  824   4.587   5.933   1.744 -0.1983  0.4559 -0.6273
  295TIP3   OH2  825   3.988   3.458   0.444 -0.1961 -0.5016 -0.1623
  295TIP3    H1  826   4.060   3.397   0.457 -0.2762 -0.5821 -0.1044
  295TIP3    H2  827   3.910   3.409   0.466 -0.2585 -0.3707 -0.0931
  296TIP3   OH2  828   2.088   1.853   4.547 -0.3117 -0.3784 -0.0811
  296TIP3    H1  829   2.056   1.782   4.604  0.6513 -0.9317 -0.2004
  296TIP3    H2  830   2.182   1.836   4.538 -0.1302  0.7142 -0.4179
  297TIP3   OH2  831   7.033   3.616   4.509  0.8185 -0.3844  0.3667
  297TIP3    H1  832   6.944   3.609   4.542  1.5864 -1.6204  2.3392
  297TIP3    H2  833   7.058   3.707   4.525 -0.1193  0.0226 -0.3860
  298TIP3   OH2  834   3.138   3.484   3.938  0.3300 -0.3241 -0.4609
  298TIP3    H1  835   3.085   3.480   4.018  2.3109 -0.6039  0.9172
  298TIP3    H2  836   3.207   3.418   3.952  1.4152  0.4588 -1.8781
  299TIP3   OH2  837   7.281   6.770   5.059 -0.2669 -0.3897  0.3431
  299TIP3    H1  838   7.262   6.752   4.967 -2.6956 -0.8932  0.8895
  299TIP3    H2  839   7.335   6.849   5.057  0.3295 -0.7842 -1.5170
  300TIP3   OH2  840   4.990   6.081   4.491 -0.1362  0.4858 -0.0136
  300TIP3    H1  841   5.007   6.115   4.579 -0.7219  0.0677  0.2681
  300TIP3    H2  842   5.075   6.084   4.448  0.1377  0.7935  0.5331
  301TIP3   OH2  843   7.496   2.704   4.286  0.4648  0.4654 -0.1057
  301TIP3    H1  844   7.529   2.638   4.348  0.2680  0.8162  0.3810
  301TIP3    H2  845   7.423   2.746   4.332  1.3717  1.8856  0.1068
  302TIP3   OH2  846   4.238   1.133   5.894  0.0418 -0.4157 -0.0360
  302TIP3    H1  847   4.277   1.155   5.809 -0.2701  0.3249  0.0063
  302TIP3    H2  848   4.164   1.193   5.902  1.2754  0.9618  1.7053
  303TIP3   OH2  849   7.230   0.065   6.579  0.4760 -0.2868  0.2890
  303TIP3    H1  850   7.273   0.069   6.665 -1.1406 -1.3601  1.2055
  303TIP3    H2  851   7.215  -0.028   6.564  0.9192 -0.1306 -1.2806
  304TIP3   OH2  852   2.891   2.113   4.500 -0.0686 -0.4274  0.0207
  304TIP3    H1  853   2.817   2.095   4.443  0.3096 -1.0925 -0.2761
  304TIP3    H2  854   2.959   2.052   4.471 -0.4036 -1.9489  2.1892
  305TIP3   OH2  855   7.283   6.302   2.950 -0.1081 -0.3855 -0.2345
  305TIP3    H1  856   7.326   6.334   3.029 -1.0506 -2.1079  1.0615
  305TIP3    H2  857   7.351   6.303   2.883  0.7070  1.1742  0.5709
  306TIP3   OH2  858   0.085   7.136   4.502 -0.0051  0.0741 -0.1210
  306TIP3    H1  859   0.030   7.083   4.446  1.0189 -0.5511 -0.5694
  306TIP3    H2  860   0.116   7.207   4.446  1.9361 -1.1825 -0.7260
  307TIP3   OH2  861   3.189   4.128   3.838  0.0445 -0.5353  0.2602
  307TIP3    H1  862   3.124   4.060   3.822 -0.3769  0.2354 -1.5879
  307TIP3    H2  863   3.139   4.210   3.836  0.6914 -0.0910  1.4155
  308TIP3   OH2  864   2.008   6.354   0.056  0.3511  0.5475 -0.7194
  308TIP3    H1  865   1.940   6.390   0.113 -0.7132 -2.0786 -0.2249
  308TIP3    H2  866   1.978   6.373  -0.033 -1.4912 -1.2015 -0.5335
  309TIP3   OH2  867   7.809   2.287   2.311 -0.7887 -0.1774  0.1541
  309TIP3    H1  868   7.877   2.235   2.353  0.1442  0.5470 -0.4201
  309TIP3    H2  869   7.849   2.318   2.230 -1.8723  0.1099 -0.2911
  310TIP3   OH2  870   2.616   3.021   5.119 -0.1549 -0.2676 -0.4615
  310TIP3    H1  871   2.573   3.074   5.052 -0.5840 -1.4428 -1.1429
  310TIP3    H2  872   2.551   2.954   5.141  0.2969 -0.3867  0.5335
  311TIP3   OH2  873   0.121   0.933   0.548 -0.1290 -0.1624  0.0839
  311TIP3    H1  874   0.136   0.875   0.473  0.2466 -1.4385  1.0997
  311TIP3    H2  875   0.064   1.001   0.514 -0.6041 -1.1341 -1.1691
  312TIP3   OH2  876   0.402   3.178   1.818 -0.7614 -0.2764 -0.1187
  312TIP3    H1  877   0.488   3.171   1.775 -0.1110  3.3051  0.3488
  312TIP3    H2  878   0.341   3.197   1.747 -0.8286 -0.6886 -0.1776
  313TIP3   OH2  879   3.035   3.070   4.000 -0.2205  0.6859 -0.0024
  313TIP3    H1  880   2.940   3.054   3.995 -0.0655 -1.1901  1.7154
  313TIP3    H2  881   3.042   3.154   4.044 -1.0866  0.8901 -0.2237
  314TIP3   OH2  882   5.074   7.586   0.242 -0.0078  0.1661  0.0489
  314TIP3    H1  883   5.149   7.587   0.182 -0.9703 -2.1672 -1.3355
  314TIP3    H2  884   5.098   7.521   0.309  0.0075  0.9135  0.7910
  315TIP3   OH2  885   5.547   2.779   4.597 -0.5668 -0.1526  0.3251
  315TIP3    H1  886   5.572   2.689   4.618 -0.5052  0.5107  3.5100
  315TIP3    H2  887   5.615   2.809   4.537  1.3434 -1.1845  1.8490
  316TIP3   OH2  888   2.124   2.946   4.762 -0.0560  0.1161 -0.0025
  316TIP3    H1  889   2.161   3.013   4.819 -0.2781 -1.0353  1.5713
  316TIP3    H2  890   2.029   2.953   4.774 -0.2234  0.9047 -1.5012
  317TIP3   OH2  891   3.102   6.489   0.970 -0.4147  0.1260  0.5932
  317TIP3    H1  892   3.119   6.512   0.879 -0.2336 -0.5784  0.4437
  317TIP3    H2  893   3.099   6.573   1.016  0.2390  0.4424  0.0693
  318TIP3   OH2  894   6.167   6.707   0.572 -0.1028 -0.3738 -0.1218
  318TIP3    H1  895   6.252   6.721   0.613 -0.0961 -0.2739 -0.1700
  318TIP3    H2  896   6.158   6.612   0.567  0.1082 -0.3843 -0.3282
  319TIP3   OH2  897   2.175   4.361   4.203  0.2315 -0.5581  0.1658
  319TIP3    H1  898   2.111   4.341   4.272 -0.1180  0.9250  0.3131
  319TIP3    H2  899   2.222   4.438   4.236  1.9059 -1.4210 -0.0788
  320TIP3   OH2  900   8.249   4.282   4.778  0.8239  0.0665 -0.6529
  320TIP3    H1  901   8.260   4.200   4.729 -0.6829  0.7797 -2.2620
  320TIP3    H2  902   8.229   4.254   4.867  0.0200 -1.3448 -1.2407
  321TIP3   OH2  903   0.213   4.039   5.667 -0.2462  0.3897  0.4359
  321TIP3    H1  904   0.145   4.097   5.632  0.7818  0.5791 -1.3982
  321TIP3    H2  905   0.293   4.091   5.662  0.5799 -0.8903 -0.5717
  322TIP3   OH2  906   1.378   6.840   4.298  0.7688 -0.3529  0.1616
  322TIP3    H1  907   1.415   6.918   4.258 -0.7667  1.6406  2.3545
  322TIP3    H2  908   1.454   6.792   4.331  1.7304  0.3888 -0.8784
  323TIP3   OH2  909   3.942   3.860   2.764 -0.2850  0.1490 -0.2914
  323TIP3    H1  910   3.977   3.773   2.742 -0.1830  0.4811 -1.5242
  323TIP3    H2  911   3.872   3.842   2.827  1.4666 -0.6007  1.5707
  324TIP3   OH2  912   1.582   2.372   0.553  0.4978 -0.3140 -1.0787
  324TIP3    H1  913   1.583   2.278   0.538  1.8671 -0.4392 -0.3985
  324TIP3    H2  914   1.577   2.381   0.649 -3.2226  0.3856 -1.1759
  325TIP3   OH2  915   6.787   7.706   4.756 -0.2335  0.2324  0.3456
  325TIP3    H1  916   6.739   7.644   4.810 -0.5829  0.7356  0.6222
  325TIP3    H2  917   6.830   7.765   4.818  2.2967 -1.2931  0.1911
  326TIP3   OH2  918   1.506   6.183   1.588  0.0050 -0.0803  0.2763
  326TIP3    H1  919   1.447   6.139   1.526 -0.2414 -1.1243  1.2275
  326TIP3    H2  920   1.566   6.232   1.532 -0.4324 -0.7085 -0.7793
  327TIP3   OH2  921   1.802   5.375   0.127 -0.2213 -0.5013 -0.4702
  327TIP3    H1  922   1.726   5.350   0.076  0.3166  0.3330 -1.7297
  327TIP3    H2  923   1.792   5.328   0.210 -1.3402 -1.5486 -1.1641
  328TIP3   OH2  924   1.413   3.840   3.061  0.3599 -0.1568 -0.0317
  328TIP3    H1  925   1.333   3.794   3.089 -0.8464  1.5804 -0.4772
  328TIP3    H2  926   1.410   3.836   2.965  0.3513  0.6636 -0.0666
  329TIP3   OH2  927   7.929   1.136   2.729 -0.3354  0.1737  0.3824
  329TIP3    H1  928   8.023   1.121   2.743  0.2460  2.8800 -0.0274
  329TIP3    H2  929   7.913   1.107   2.640  0.2533  0.1896  0.2634
  330TIP3   OH2  930   4.271   0.774   5.376 -0.4064 -0.0169 -0.2794
  330TIP3    H1  931   4.332   0.844   5.352 -1.4900  0.7693 -0.8197
  330TIP3    H2  932   4.289   0.758   5.469 -0.1728  1.0406 -0.1218
  331TIP3   OH2  933   8.048   5.398   5.557  0.5968  0.2418 -0.3906
  331TIP3    H1  934   7.971   5.423   5.607  1.3529  0.2575  0.8071
  331TIP3    H2  935   8.122   5.425   5.612  1.4478 -0.7370 -1.0228
  332TIP3   OH2  936   3.350   4.793   2.701 -0.0621 -0.4249 -0.0829
  332TIP3    H1  937   3.346   4.751   2.787  1.3631  0.9669  0.6942
  332TIP3    H2  938   3.416   4.743   2.653 -0.6781 -1.0413 -0.3228
  333TIP3   OH2  939   5.805   2.431   1.539 -0.0021  0.2774  0.1248
  333TIP3    H1  940   5.788   2.402   1.449 -0.9378  2.4605 -0.4876
  333TIP3    H2  941   5.784   2.525   1.537 -1.1919  0.1515  2.9084
  334TIP3   OH2  942   4.274   2.920   2.013  0.1457 -0.1782  0.1515
  334TIP3    H1  943   4.257   2.944   2.104  0.5551 -1.2126  0.5020
  334TIP3    H2  944   4.190   2.935   1.969 -0.3810 -0.7665  0.9294
  335TIP3   OH2  945   5.722   0.094   6.725  0.6666 -0.3574  0.0854
  335TIP3    H1  946   5.797   0.039   6.744 -0.1100 -1.3814  0.2820
  335TIP3    H2  947   5.721   0.103   6.630  1.9050  0.9501  0.1661
  336TIP3   OH2  948   1.060   7.624   4.338 -0.1053 -0.0941  0.2787
  336TIP3    H1  949   1.004   7.698   4.362  0.8186  1.2302 -1.4532
  336TIP3    H2  950   1.053   7.619   4.243 -1.1748 -3.1279  0.4126
  337TIP3   OH2  951   0.271   3.480   1.401  0.0248 -0.3678  0.5955
  337TIP3    H1  952   0.257   3.566   1.440 -0.6803  0.0801 -0.5938
  337TIP3    H2  953   0.338   3.495   1.334 -1.8827 -0.1680 -1.3658
  338TIP3   OH2  954   4.263   6.624   4.118  0.3603 -0.2249 -0.0482
  338TIP3    H1  955   4.305   6.587   4.196 -0.1082  0.7993  0.7149
  338TIP3    H2  956   4.179   6.658   4.149 -0.8866 -1.8311 -1.4585
  339TIP3   OH2  957   1.360   1.424   6.210  0.2064 -0.3567 -0.8925
  339TIP3    H1  958   1.327   1.509   6.179  0.8939  0.2249 -0.0896
  339TIP3    H2  959   1.282   1.370   6.220 -0.2955  0.3495 -0.9362
  340TIP3   OH2  960   2.060   0.317   4.271 -0.1930 -0.4797 -0.1980
  340TIP3    H1  961   2.141   0.332   4.321  0.9321 -2.3981 -1.3164
  340TIP3    H2  962   2.079   0.352   4.184 -0.7247 -0.5873 -0.3611
  341TIP3   OH2  963   1.755   2.085   1.605  0.5310 -0.8229 -0.1099
  341TIP3    H1  964   1.717   2.009   1.649  0.2807 -0.7804 -0.2477
  341TIP3    H2  965   1.836   2.053   1.567  1.1851 -0.6581  1.1000
  342TIP3   OH2  966   7.176   7.900   6.538 -0.0404  0.0540  0.3370
  342TIP3    H1  967   7.212   7.930   6.622  1.8313 -0.3677 -0.2516
  342TIP3    H2  968   7.132   7.818   6.560  0.1177  0.1307  0.9770
  343TIP3   OH2  969   6.419   4.449   3.486 -0.5251  0.5973  0.3708
  343TIP3    H1  970   6.350   4.389   3.513 -0.9113  0.9999  0.3006
  343TIP3    H2  971   6.471   4.463   3.565 -0.5063  0.2660  0.4153
  344TIP3   OH2  972   4.521   3.252   1.505  0.1547 -0.0688  0.3061
  344TIP3    H1  973   4.582   3.180   1.522  1.3457  0.7750 -0.1855
  344TIP3    H2  974   4.462   3.218   1.438  0.7584 -0.5726  0.0118
  345TIP3   OH2  975   1.862   1.163   2.968 -0.2783  0.3344  0.3675
  345TIP3    H1  976   1.831   1.130   2.884  1.1261 -3.0561  1.0362
  345TIP3    H2  977   1.795   1.227   2.994 -1.7871  0.0475 -2.3527
  346TIP3   OH2  978   6.016   5.582   1.577 -0.2141  0.1189  0.4649
  346TIP3    H1  979   5.934   5.594   1.625  1.4965  0.4232  3.5405
  346TIP3    H2  980   6.023   5.660   1.521 -0.9429  1.2427  1.8861
  347TIP3   OH2  981   1.134   5.008   3.603  0.3514  0.4176 -0.3880
  347TIP3    H1  982   1.167   4.945   3.539  0.6407  0.7755 -0.5927
  347TIP3    H2  983   1.203   5.013   3.669 -0.7964 -1.4927  1.0559
  348TIP3   OH2  984   1.205   6.009   2.251  0.2116  0.4593 -0.0026
  348TIP3    H1  985   1.172   6.077   2.193  0.8651  0.2197 -0.6693
  348TIP3    H2  986   1.297   6.031   2.264 -0.2339  1.2908  2.0727
  349TIP3   OH2  987   2.911   7.765   2.151 -0.2588 -0.0385  0.5072
  349TIP3    H1  988   2.871   7.849   2.130 -1.0063 -0.7146 -0.9302
  349TIP3    H2  989   2.907   7.715   2.070 -0.1851 -1.6103  1.4211
  350TIP3   OH2  990   0.057   3.755   1.926 -0.1755  0.0194  0.3034
  350TIP3    H1  991  -0.028   3.713   1.942 -0.6271 -0.8345 -3.4852
  350TIP3    H2  992   0.114   3.683   1.899  1.1298  0.9182  0.6001
  351TIP3   OH2  993   1.231   5.479   2.916 -0.6051  0.2734  0.4994
  351TIP3    H1  994   1.242   5.509   2.826  0.0755  1.0466  0.8242
  351TIP3    H2  995   1.137   5.488   2.933 -1.0445 -1.6104 -0.7014
  352TIP3   OH2  996   5.588   5.241   3.719 -0.7368 -0.4348 -0.4761
  352TIP3    H1  997   5.555   5.205   3.636 -1.3456 -1.9354  0.3931
  352TIP3    H2  998   5.605   5.165   3.774  3.0064  0.3041 -0.3636
  353TIP3   OH2  999   1.510   2.401   0.829  0.3215 -0.9118  0.1672
  353TIP3    H1 1000   1.504   2.316   0.873 -1.2153 -0.5243  0.7964
  353TIP3    H2 1001   1.526   2.463   0.900  0.4115 -0.5695 -0.1521
  354TIP3   OH2 1002   5.713   2.612   4.808 -0.0897  0.3009  0.8534
  354TIP3    H1 1003   5.658   2.558   4.751 -0.8511 -0.5142  2.3252
  354TIP3    H2 1004   5.803   2.591   4.781 -0.3583  2.0910 -1.9928
  355TIP3   OH2 1005   4.679   3.493   6.751  0.3796  0.1391  0.6026
  355TIP3    H1 1006   4.691   3.587   6.765  1.6492  0.0069  0.5106
  355TIP3    H2 1007   4.764   3.455   6.773  0.4947 -0.7687 -1.2902
  356TIP3   OH2 1008   4.775   6.337   4.183  0.2649  0.1478 -0.8951
  356TIP3    H1 1009   4.692   6.368   4.146 -0.3389  1.4623  1.3963
  356TIP3    H2 1010   4.827   6.416   4.195  0.4011 -0.1760  1.0002
  357TIP3   OH2 1011   5.599   0.138   4.070  0.6555  0.1891  0.2828
  357TIP3    H1 1012   5.548   0.197   4.015 -1.7923 -1.6109  0.4804
  357TIP3    H2 1013   5.690   0.157   4.047 -0.1894  0.2950 -3.6155
  358TIP3   OH2 1014   5.895   6.282   2.274 -0.4597 -0.1658 -0.1966
  358TIP3    H1 1015   5.897   6.194   2.311  2.5040 -1.1326 -2.3293
  358TIP3    H2 1016   5.807   6.291   2.238 -0.6583 -2.4513 -0.3951
  359TIP3   OH2 1017   1.336   0.586   4.368  0.0669  0.0200  0.5061
  359TIP3    H1 1018   1.420   0.628   4.385 -0.2419  2.1667 -2.3856
  359TIP3    H2 1019   1.277   0.624   4.433  0.6695  1.0510  0.4728
  360TIP3   OH2 1020   2.715   5.844   4.673 -0.6070 -0.1411 -0.7530
  360TIP3    H1 1021   2.668   5.883   4.747 -0.1443 -0.9516 -0.0289
  360TIP3    H2 1022   2.745   5.759   4.704 -0.5785 -0.5916 -1.9407
  361TIP3   OH2 1023   4.552   5.729   6.029 -0.3100  0.1473 -0.3131
  361TIP3    H1 1024   4.535   5.821   6.046 -1.3445  0.2584 -1.7912
  361TIP3    H2 1025   4.542   5.719   5.934  1.1399 -1.2223 -0.3661
  362TIP3   OH2 1026   2.102   7.537   0.220 -0.3329 -0.4081 -0.6994
  362TIP3    H1 1027   2.080   7.624   0.187 -0.8739 -0.9124 -1.7450
  362TIP3    H2 1028   2.018   7.492   0.228 -0.2932 -0.1624  1.9583
  363TIP3   OH2 1029   5.839   1.510   0.523  0.3219  0.3311 -0.1500
  363TIP3    H1 1030   5.885   1.438   0.480 -0.5842  0.5882 -1.5767
  363TIP3    H2 1031   5.882   1.589   0.490 -1.1203  0.5786 -1.5432
  364TIP3   OH2 1032   0.157   2.485   4.830  0.0479 -0.1091 -0.1453
  364TIP3    H1 1033   0.089   2.551   4.845  1.8953  1.9500 -0.4125
  364TIP3    H2 1034   0.155   2.471   4.735  1.5409  1.8155 -0.5279
  365TIP3   OH2 1035   2.965   4.171   1.822 -0.1278 -0.2228  0.4551
  365TIP3    H1 1036   2.950   4.076   1.828 -2.0162  0.1087  1.5233
  365TIP3    H2 1037   2.895   4.202   1.765 -0.7858  0.7964  1.7878
  366TIP3   OH2 1038   1.830   2.612   0.620  0.6006  0.4503 -0.3497
  366TIP3    H1 1039   1.897   2.596   0.554  1.6655  1.2392  0.5008
  366TIP3    H2 1040   1.834   2.537   0.678  1.2021  0.7944  0.0607
  367TIP3   OH2 1041   6.157   6.248   2.657 -0.2895 -0.2160 -0.1092
  367TIP3    H1 1042   6.248   6.271   2.638  0.6698 -2.8220  0.9198
  367TIP3    H2 1043   6.136   6.298   2.736  0.6677 -0.4735  0.3260
  368TIP3   OH2 1044   1.515   6.663   3.584  0.2609  0.1495  0.5864
  368TIP3    H1 1045   1.507   6.587   3.642  2.2725  0.9957  2.0895
  368TIP3    H2 1046   1.602   6.653   3.545 -0.9892 -0.3508 -2.3450
  369TIP3   OH2 1047   2.366   5.071   6.024 -0.2407  0.1270  0.3108
  369TIP3    H1 1048   2.332   5.154   5.993  0.2529 -0.5317 -2.1937
  369TIP3    H2 1049   2.289   5.024   6.055 -0.7986  0.7878 -0.0492
  370TIP3   OH2 1050   3.285   2.220   4.313 -0.2858  0.8219  0.3280
  370TIP3    H1 1051   3.288   2.314   4.326  0.4568  0.5681  2.3637
  370TIP3    H2 1052   3.286   2.183   4.401  2.2820 -1.1519 -0.3815
  371TIP3   OH2 1053   4.322   0.377   4.241 -0.3928  0.4185  0.4766
  371TIP3    H1 1054   4.360   0.295   4.273 -0.4478  0.1492 -0.1499
  371TIP3    H2 1055   4.232   0.355   4.218  0.4405 -0.1230 -2.6412
  372TIP3   OH2 1056   2.502   1.525   1.452  0.0791  0.0045 -0.8047
  372TIP3    H1 1057   2.507   1.581   1.530  1.4601 -0.1436 -0.7614
  372TIP3    H2 1058   2.453   1.448   1.481  0.2255  0.1350 -0.1921
  373TIP3   OH2 1059   1.641   1.917   1.310  0.4285 -0.2730 -0.6767
  373TIP3    H1 1060   1.649   1.864   1.389 -1.2244  0.0916 -0.2315
  373TIP3    H2 1061   1.560   1.967   1.322  0.5354  0.3512 -2.2707
  374TIP3   OH2 1062   3.078   7.347   0.996 -0.4081  0.0312  0.2746
  374TIP3    H1 1063   3.052   7.287   1.066 -0.9112 -0.0307  0.0341
  374TIP3    H2 1064   3.124   7.417   1.042 -2.1473  0.8377  0.8901
  375TIP3   OH2 1065   6.739   6.010   5.791 -0.4262  0.1889  0.2481
  375TIP3    H1 1066   6.798   6.075   5.828 -0.2272  0.3854 -0.4051
  375TIP3    H2 1067   6.653   6.051   5.795 -0.4617  0.0628  0.8292
  376TIP3   OH2 1068   6.400   4.098   2.880 -0.0015 -0.4138 -0.2444
  376TIP3    H1 1069   6.463   4.081   2.810  1.0645  0.1526  0.5572
  376TIP3    H2 1070   6.320   4.053   2.851  0.6862 -0.9537 -1.3837
  377TIP3   OH2 1071   1.473   5.318   2.690 -0.0141 -0.2488  0.1678
  377TIP3    H1 1072   1.539   5.384   2.668 -0.8273  0.3073 -0.7070
  377TIP3    H2 1073   1.396   5.344   2.639 -0.6148 -1.4086  0.4561
  378TIP3   OH2 1074   6.074   2.517   3.175  0.2268  0.2252 -0.0964
  378TIP3    H1 1075   5.983   2.538   3.152  0.5030  0.1987 -1.2839
  378TIP3    H2 1076   6.112   2.601   3.200 -0.0580  0.2775  0.1678
  379TIP3   OH2 1077   6.828   7.313   0.495  0.1761 -0.6437 -0.1394
  379TIP3    H1 1078   6.837   7.408   0.493  0.8288 -0.5728  2.4899
  379TIP3    H2 1079   6.873   7.283   0.416  0.8355  1.1813 -0.5062
  380TIP3   OH2 1080   6.895   7.189   1.937 -0.8113  0.4464 -0.0833
  380TIP3    H1 1081   6.911   7.140   1.856 -1.8599  0.3638 -0.2487
  380TIP3    H2 1082   6.814   7.237   1.921 -0.8040  0.7607  0.7725
  381TIP3   OH2 1083   1.667   0.606   1.450  0.0685  0.0945  0.4271
  381TIP3    H1 1084   1.702   0.519   1.429 -0.2778 -0.1621  0.8615
  381TIP3    H2 1085   1.575   0.589   1.471 -0.2748  0.7207 -0.5134
  382TIP3   OH2 1086   8.112   4.312   0.096  0.0749 -0.8149 -0.4854
  382TIP3    H1 1087   8.152   4.399   0.105  0.3688 -1.0643  0.8571
  382TIP3    H2 1088   8.187   4.253   0.086  0.0399 -1.1636  1.0163
  383TIP3   OH2 1089   5.029   1.887   4.079 -0.8273  0.6368  0.3502
  383TIP3    H1 1090   5.066   1.799   4.073 -1.6848  0.3551 -1.2808
  383TIP3    H2 1091   5.037   1.910   4.172  1.8492 -0.0588  0.3906
  384TIP3   OH2 1092   6.375   0.603   1.654  0.2682  0.1483 -0.6446
  384TIP3    H1 1093   6.281   0.616   1.666  0.3393  0.0785  0.0367
  384TIP3    H2 1094   6.395   0.644   1.570 -0.2302  0.8744 -0.4134
  385TIP3   OH2 1095   0.867   5.389   0.670 -0.0337 -0.5826 -0.4666
  385TIP3    H1 1096   0.918   5.328   0.724  1.1829  0.6820 -0.1170
  385TIP3    H2 1097   0.871   5.472   0.718 -1.1725 -0.0682 -1.2081
  386TIP3   OH2 1098   2.161   6.087   1.681  0.1883 -0.3020  0.1176
  386TIP3    H1 1099   2.092   6.140   1.642 -0.8873  0.9511  3.3888
  386TIP3    H2 1100   2.238   6.143   1.680  0.0894 -0.1656  0.1095
  387TIP3   OH2 1101   6.477   6.273   4.450  0.4594  0.4973 -0.2994
  387TIP3    H1 1102   6.412   6.235   4.391  0.0378  1.9770 -0.8352
  387TIP3    H2 1103   6.538   6.201   4.468 -1.0704 -0.8067 -0.1205
  388TIP3   OH2 1104   1.494   3.589   4.743 -0.9068  0.4427 -0.0453
  388TIP3    H1 1105   1.419   3.530   4.736 -1.2679  0.8549  0.3645
  388TIP3    H2 1106   1.539   3.579   4.659 -0.3671 -1.2196  0.3890
  389TIP3   OH2 1107   3.039   2.447   6.631 -0.2779 -0.0007  0.5183
  389TIP3    H1 1108   2.969   2.461   6.567  0.6967  1.7992 -0.2373
  389TIP3    H2 1109   3.033   2.354   6.653 -1.7031 -0.3034 -0.9429
  390TIP3   OH2 1110   8.058   6.828   4.313 -0.1556  0.2420 -0.1050
  390TIP3    H1 1111   8.070   6.855   4.403 -0.3456 -0.2311  0.0665
  390TIP3    H2 1112   8.123   6.758   4.300 -1.5515 -1.2016  0.3333
  391TIP3   OH2 1113   1.074   0.118   5.248 -0.6381 -0.0569 -0.0523
  391TIP3    H1 1114   1.049   0.207   5.275 -0.5152 -0.3914  1.2220
  391TIP3    H2 1115   1.168   0.113   5.267 -0.3892 -0.0974 -1.2024
  392TIP3   OH2 1116   2.789   3.030   5.655 -0.5232 -0.3297 -0.1521
  392TIP3    H1 1117   2.786   3.085   5.733  0.8283 -1.3113  0.6392
  392TIP3    H2 1118   2.865   3.063   5.606 -1.1564  0.0539 -0.8998
  393TIP3   OH2 1119   1.172   7.354   4.403 -0.2072 -0.2580 -0.8096
  393TIP3    H1 1120   1.123   7.437   4.403 -0.1127 -0.2012 -0.7006
  393TIP3    H2 1121   1.167   7.324   4.494  3.2104  1.6877  0.2346
  394TIP3   OH2 1122   3.185   3.446   0.982  0.4168  0.3942 -0.2641
  394TIP3    H1 1123   3.125   3.428   1.054 -0.3519  0.2886 -0.9080
  394TIP3    H2 1124   3.215   3.536   0.998  0.5083  0.2592  0.3518
  395TIP3   OH2 1125   3.074   2.652   2.479 -0.1605 -0.3174 -0.1040
  395TIP3    H1 1126   2.981   2.671   2.495 -0.1488  0.9613 -1.3035
  395TIP3    H2 1127   3.082   2.558   2.491 -1.5715 -0.4111  0.2485
  396TIP3   OH2 1128   5.905   2.623   5.333 -0.4036 -0.0951 -0.0922
  396TIP3    H1 1129   5.872   2.671   5.410  2.7313 -0.0921  1.4171
  396TIP3    H2 1130   5.951   2.548   5.370 -0.2638 -1.0588 -2.0998
  397TIP3   OH2 1131   6.852   7.415   2.368 -0.4659  0.2786 -0.6286
  397TIP3    H1 1132   6.840   7.485   2.304 -2.5664  0.1358 -0.4512
  397TIP3    H2 1133   6.911   7.353   2.325  1.7447  2.2581 -0.6560
  398TIP3   OH2 1134   6.827   0.373   2.727 -0.3188 -0.0846 -0.0279
  398TIP3    H1 1135   6.755   0.436   2.722  0.2201  0.7431  2.0013
  398TIP3    H2 1136   6.813   0.327   2.810  0.6859 -0.9433 -0.3127
  399TIP3   OH2 1137   4.431   0.612   4.578 -0.1515 -0.5194  0.1210
  399TIP3    H1 1138   4.411   0.658   4.497  1.0746  1.2931  0.7738
  399TIP3    H2 1139   4.448   0.682   4.641  0.0810 -1.8905  1.6430
  400TIP3   OH2 1140   6.446   3.506   5.217 -0.0966  0.2428  0.0373
  400TIP3    H1 1141   6.401   3.438   5.268 -1.4414  1.2441  0.2361
  400TIP3    H2 1142   6.395   3.514   5.137  0.6561  0.3221 -0.4472
  401TIP3   OH2 1143   4.385   4.177   0.438  0.2431 -0.3526  0.1746
  401TIP3    H1 1144   4.329   4.114   0.484 -0.4446 -0.0337 -0.2151
  401TIP3    H2 1145   4.362   4.261   0.476  0.2216 -0.1789 -0.2248
  402TIP3   OH2 1146   2.304   6.331   1.615  0.2731 -0.5634 -0.1605
  402TIP3    H1 1147   2.285   6.422   1.639 -1.2333 -1.1799  1.2118
  402TIP3    H2 1148   2.263   6.320   1.529  1.0447  0.2113 -0.6479
  403TIP3   OH2 1149   3.394   2.664   2.977 -0.1646  0.1809 -0.9538
  403TIP3    H1 1150   3.397   2.759   2.991  2.1238 -0.0824  1.0010
  403TIP3    H2 1151   3.309   2.649   2.936 -0.6713  3.0430 -1.2011
  404TIP3   OH2 1152   1.075   3.328   1.096  0.2475 -0.1124 -0.4021
  404TIP3    H1 1153   0.984   3.354   1.114  0.6926  1.6077 -0.4262
  404TIP3    H2 1154   1.095   3.373   1.013  0.8888 -1.1165 -0.8049
  405TIP3   OH2 1155   6.548   0.175   2.676  0.3606  0.4693 -0.0445
  405TIP3    H1 1156   6.626   0.177   2.621 -0.6369  0.4550 -1.5398
  405TIP3    H2 1157   6.503   0.257   2.655 -1.5436 -0.8675 -1.6289
  406TIP3   OH2 1158   8.217   7.343   3.227 -0.5424 -0.4537  0.2335
  406TIP3    H1 1159   8.219   7.345   3.132 -0.1900 -1.1076  0.2236
  406TIP3    H2 1160   8.303   7.311   3.253 -1.0503 -1.4579  0.7296
  407TIP3   OH2 1161   2.360   2.317   2.767 -0.3639 -0.0113 -0.1391
  407TIP3    H1 1162   2.437   2.260   2.769 -0.7338 -0.5408  1.8811
  407TIP3    H2 1163   2.390   2.398   2.809 -0.5281  0.3218 -0.6625
  408TIP3   OH2 1164   1.189   6.264   1.512  0.0347  0.2982 -0.4541
  408TIP3    H1 1165   1.241   6.342   1.493 -0.0454  0.8611  1.3779
  408TIP3    H2 1166   1.247   6.191   1.490  0.2497  0.8511 -1.8380
  409TIP3   OH2 1167   0.685   6.298   6.580 -0.4029  0.3637 -0.6129
  409TIP3    H1 1168   0.693   6.245   6.500 -1.9073 -0.9443  0.0503
  409TIP3    H2 1169   0.775   6.307   6.612  0.1900  0.6590 -2.2780
  410TIP3   OH2 1170   8.278   4.939   5.467 -0.2266  0.1316  0.4455
  410TIP3    H1 1171   8.218   4.889   5.522 -1.1964 -1.7083 -2.1297
  410TIP3    H2 1172   8.248   4.924   5.378  2.1904  1.7394 -0.7485
  411TIP3   OH2 1173   8.032   7.542   6.250  0.1681 -0.0781  0.2589
  411TIP3    H1 1174   8.116   7.568   6.287  0.4453 -0.6746  0.0635
  411TIP3    H2 1175   8.004   7.469   6.305  0.8171 -1.2998 -0.9719
  412TIP3   OH2 1176   0.445   1.088   4.858 -0.2646  0.3795 -0.3208
  412TIP3    H1 1177   0.443   1.152   4.787 -1.4599  1.2604  0.4689
  412TIP3    H2 1178   0.486   1.011   4.819 -0.7753  0.8798 -1.9451
  413TIP3   OH2 1179   7.706   6.277   1.032 -0.2559  0.0579 -0.1311
  413TIP3    H1 1180   7.770   6.283   1.103 -2.1104 -1.2363  1.7742
  413TIP3    H2 1181   7.684   6.184   1.026 -0.9461  0.2764 -1.7145
  414TIP3   OH2 1182   2.631   2.585   1.246  0.1035  0.2235  0.2636
  414TIP3    H1 1183   2.544   2.587   1.206  0.3166  1.2271 -0.1803
  414TIP3    H2 1184   2.691   2.573   1.172  0.3691 -0.0324  0.5195
  415TIP3   OH2 1185   1.174   1.730   6.702 -0.2551  0.2157 -0.4034
  415TIP3    H1 1186   1.100   1.749   6.760  1.3849  2.0938  1.2762
  415TIP3    H2 1187   1.166   1.794   6.631 -0.0843  0.6470 -0.0401
  416TIP3   OH2 1188   2.301   2.314   1.756 -0.0967 -0.5634  0.4922
  416TIP3    H1 1189   2.351   2.241   1.721 -3.3527 -1.5144 -2.8282
  416TIP3    H2 1190   2.329   2.389   1.703 -0.4030 -0.5850  0.2929
  417TIP3   OH2 1191   7.029   4.271   2.402 -0.3196 -0.8356 -0.2579
  417TIP3    H1 1192   7.078   4.289   2.482  0.3586 -2.4287 -0.2787
  417TIP3    H2 1193   6.944   4.311   2.416  0.0553 -0.4170  0.9274
  418TIP3   OH2 1194   0.060   4.957   0.302 -0.3372 -0.3488  0.5539
  418TIP3    H1 1195   0.069   4.921   0.214 -1.8454  2.4869 -0.8933
  418TIP3    H2 1196  -0.021   4.917   0.335 -1.0156  0.2875 -0.2947
  419TIP3   OH2 1197   5.960   4.222   5.716  0.2303 -0.3332  0.1444
  419TIP3    H1 1198   6.018   4.151   5.743 -0.6108 -1.1621 -0.1292
  419TIP3    H2 1199   5.963   4.220   5.620  0.1251 -0.0670  0.1341
  420TIP3   OH2 1200   3.947   3.206   6.263 -0.5609  0.1465  0.9346
  420TIP3    H1 1201   4.000   3.257   6.324  0.2035 -0.3405  0.6930
  420TIP3    H2 1202   3.943   3.260   6.184  2.4792 -1.2065 -0.2976
  421TIP3   OH2 1203   0.885   3.991   5.977 -0.8494  0.4539 -0.1427
  421TIP3    H1 1204   0.841   3.920   6.024 -0.0627 -1.2605 -1.8677
  421TIP3    H2 1205   0.961   4.012   6.031  0.2925 -1.7884 -0.7714
  422TIP3   OH2 1206   2.426   1.732   2.660 -0.7153 -0.2833 -0.3240
  422TIP3    H1 1207   2.436   1.783   2.741 -0.2959  2.1133 -1.7804
  422TIP3    H2 1208   2.502   1.674   2.659  2.6189  3.6562 -1.5792
  423TIP3   OH2 1209   2.456   5.997   6.342  0.3200 -0.0467  0.1658
  423TIP3    H1 1210   2.377   5.943   6.342  0.4911 -0.3543 -1.7926
  423TIP3    H2 1211   2.427   6.082   6.311  0.5843  0.1637  0.4843
  424TIP3   OH2 1212   1.435   3.871   1.157 -0.5474  0.1579 -0.2299
  424TIP3    H1 1213   1.499   3.805   1.131 -0.9258 -0.5421  0.5446
  424TIP3    H2 1214   1.370   3.871   1.087 -0.1509  0.2586 -0.6030
  425TIP3   OH2 1215   2.771   3.870   0.155  0.3733  0.1818  0.4331
  425TIP3    H1 1216   2.700   3.883   0.218  1.4098 -2.6335  2.3816
  425TIP3    H2 1217   2.833   3.940   0.173  0.1494  0.0370  1.8516
  426TIP3   OH2 1218   5.619   2.237   5.082  0.5397 -0.0142  0.5826
  426TIP3    H1 1219   5.706   2.274   5.098  0.6431  0.5748 -1.0930
  426TIP3    H2 1220   5.559   2.312   5.089  0.4210 -0.0260 -0.2064
  427TIP3   OH2 1221   5.722   4.000   3.269 -0.4431  0.0333 -0.3297
  427TIP3    H1 1222   5.666   3.947   3.212 -1.4692  1.0831 -0.3167
  427TIP3    H2 1223   5.791   4.032   3.211  0.2446 -1.3375 -0.3254
  428TIP3   OH2 1224   1.248   4.225   1.442 -0.2409 -0.3935  0.2811
  428TIP3    H1 1225   1.217   4.311   1.473  1.4617 -0.2644  1.8342
  428TIP3    H2 1226   1.202   4.163   1.498  1.4205 -0.2437  1.9316
  429TIP3   OH2 1227   6.183   0.060   2.603  0.0480  0.5825 -0.6157
  429TIP3    H1 1228   6.238   0.085   2.677  0.0401 -0.0185 -0.4003
  429TIP3    H2 1229   6.185  -0.036   2.603 -1.8702  0.5015  0.0439
  430TIP3   OH2 1230   3.930   3.850   6.508 -0.0670 -0.3143 -0.1656
  430TIP3    H1 1231   3.838   3.872   6.520 -0.1704 -0.5235 -0.5873
  430TIP3    H2 1232   3.977   3.926   6.542 -0.4194  0.5674 -1.5883
  431TIP3   OH2 1233   6.241   6.845   0.353  0.0891 -0.3820 -0.5126
  431TIP3    H1 1234   6.181   6.797   0.296 -0.5780  1.0038 -1.0295
  431TIP3    H2 1235   6.210   6.826   0.441 -0.0472 -1.0361 -0.6951
  432TIP3   OH2 1236   7.149   6.475   6.143 -0.3043 -0.6874 -0.4728
  432TIP3    H1 1237   7.133   6.397   6.196 -2.8940 -0.5170 -0.8788
  432TIP3    H2 1238   7.157   6.442   6.054  1.8884 -0.7535 -0.3038
  433TIP3   OH2 1239   5.440   1.064   5.531  0.1817  0.5002 -0.1399
  433TIP3    H1 1240   5.397   1.120   5.467  0.0538  0.2322 -0.2934
  433TIP3    H2 1241   5.502   1.121   5.575 -0.1240  0.8235 -0.1183
  434TIP3   OH2 1242   5.590   3.855   1.174 -0.0945 -0.0280  0.3799
  434TIP3    H1 1243   5.648   3.800   1.121 -1.1155  0.9634 -1.9042
  434TIP3    H2 1244   5.514   3.799   1.191  0.6447 -0.6776  1.7212
  435TIP3   OH2 1245   1.943   5.569   2.470  0.6936 -0.3370  0.5102
  435TIP3    H1 1246   1.857   5.536   2.443  1.1717 -2.0003  0.9247
  435TIP3    H2 1247   1.948   5.657   2.431 -0.5435 -0.8301 -0.8619
  436TIP3   OH2 1248   2.876   3.055   0.775  0.6262 -0.1902  0.0268
  436TIP3    H1 1249   2.960   3.054   0.730  1.4317  1.7136  1.3542
  436TIP3    H2 1250   2.811   3.069   0.705  1.6858  1.1927 -0.7235
  437TIP3   OH2 1251   5.955   5.975   0.587 -0.2765 -0.2241 -0.7352
  437TIP3    H1 1252   5.897   5.900   0.584  2.0114 -2.1642  0.4685
  437TIP3    H2 1253   5.969   5.992   0.680  0.5551  0.6124 -0.9916
  438TIP3   OH2 1254   6.102   1.226   5.298  0.8900 -0.1415  0.4449
  438TIP3    H1 1255   6.015   1.191   5.318 -0.4970  1.6239 -1.9430
  438TIP3    H2 1256   6.162   1.165   5.341 -1.4353 -2.5977  0.5457
  439TIP3   OH2 1257   1.400   3.539   6.237 -0.2336 -0.7532 -0.5154
  439TIP3    H1 1258   1.330   3.473   6.239  0.3790 -1.3891  0.6224
  439TIP3    H2 1259   1.481   3.488   6.240  0.2754  0.0175 -0.8644
  440TIP3   OH2 1260   5.057   2.712   2.396 -0.1643  0.1659 -0.1189
  440TIP3    H1 1261   5.151   2.698   2.381 -0.0098 -0.4611  1.3019
  440TIP3    H2 1262   5.044   2.690   2.488 -1.9494 -0.9759 -0.6051
  441TIP3   OH2 1263   5.958   3.550   1.088 -0.0978 -0.1814  0.3732
  441TIP3    H1 1264   5.981   3.499   1.010 -2.0833 -2.8763  1.4144
  441TIP3    H2 1265   5.876   3.593   1.066 -0.2126 -0.2350  0.6903
  442TIP3   OH2 1266   1.381   6.755   0.130  0.4283  0.1238  0.2248
  442TIP3    H1 1267   1.348   6.844   0.148  0.3569 -0.0822  1.1432
  442TIP3    H2 1268   1.470   6.756   0.165  0.2357 -0.3310  0.7332
  443TIP3   OH2 1269   6.402   1.887   0.164  0.0241 -0.2874  0.1136
  443TIP3    H1 1270   6.347   1.809   0.161 -0.5720  0.1172  0.4745
  443TIP3    H2 1271   6.492   1.852   0.168 -0.0626 -0.9659 -2.2046
  444TIP3   OH2 1272   3.790   1.019   5.844 -0.8910 -0.4187  0.1699
  444TIP3    H1 1273   3.775   0.925   5.851  1.6153 -0.9190 -0.3248
  444TIP3    H2 1274   3.835   1.031   5.761  1.2872  0.8205  1.4330
  445TIP3   OH2 1275   2.226   2.792   2.275 -0.0284  0.4601  0.4606
  445TIP3    H1 1276   2.247   2.698   2.276 -1.3360  0.1383  0.1619
  445TIP3    H2 1277   2.140   2.796   2.234  0.1555  1.8372  0.1778
  446TIP3   OH2 1278   6.128   0.211   0.323 -0.6005  0.0076  0.0008
  446TIP3    H1 1279   6.159   0.256   0.402 -1.3589  0.1629  0.2253
  446TIP3    H2 1280   6.098   0.282   0.266  0.5345 -0.0632 -0.6986
  447TIP3   OH2 1281   4.511   3.691   1.749  0.4178 -0.1792 -0.0461
  447TIP3    H1 1282   4.455   3.769   1.750  0.8077  0.1347 -1.1034
  447TIP3    H2 1283   4.488   3.644   1.829 -0.8407  0.3011 -0.1094
  448TIP3   OH2 1284   5.338   0.245   3.282 -0.7498  0.8122 -0.5012
  448TIP3    H1 1285   5.404   0.282   3.342 -0.0324  1.1547 -1.4718
  448TIP3    H2 1286   5.273   0.206   3.340  0.6447 -0.1406  0.4995
  449TIP3   OH2 1287   0.084   3.658   6.375 -0.0955 -0.2393 -0.2384
  449TIP3    H1 1288   0.038   3.688   6.453 -0.4089  0.7685 -0.7877
  449TIP3    H2 1289   0.169   3.630   6.407 -0.0258  0.6557  0.4103
  450TIP3   OH2 1290   4.571   7.886   2.367  0.2518  0.1608 -0.2542
  450TIP3    H1 1291   4.476   7.887   2.379  0.2955  1.0366  0.0498
  450TIP3    H2 1292   4.594   7.794   2.374 -0.5627 -0.0524 -0.2154
  451TIP3   OH2 1293   6.764   5.786   6.856  0.2679 -0.1061 -0.3705
  451TIP3    H1 1294   6.782   5.782   6.762  1.5728 -0.1516 -0.1338
  451TIP3    H2 1295   6.841   5.745   6.897  0.3512  1.1301  0.7793
  452TIP3   OH2 1296   4.853   2.386   5.838 -0.1082  0.5907 -0.0989
  452TIP3    H1 1297   4.789   2.390   5.909 -0.6693 -1.2008 -0.4403
  452TIP3    H2 1298   4.873   2.477   5.817 -2.0721  1.1831  0.4492
  453TIP3   OH2 1299   7.213   2.535   4.570  0.0815 -0.6181 -0.4175
  453TIP3    H1 1300   7.145   2.483   4.613 -1.4457  0.3731 -1.5079
  453TIP3    H2 1301   7.210   2.620   4.615  1.2406 -0.8576  0.1202
  454TIP3   OH2 1302   3.284   4.816   0.244 -0.0955  0.2166 -0.3093
  454TIP3    H1 1303   3.324   4.730   0.252 -1.4042 -0.4810 -0.8412
  454TIP3    H2 1304   3.286   4.834   0.150  1.7787  1.6012 -0.0514
  455TIP3   OH2 1305   7.279   1.279   2.619 -0.2185 -0.7892  0.2971
  455TIP3    H1 1306   7.345   1.270   2.550 -0.0685 -3.6906  0.7079
  455TIP3    H2 1307   7.328   1.267   2.701 -0.9787 -1.2910  0.6925
  456TIP3   OH2 1308   1.882   0.699   4.082 -0.4350 -0.1396  0.3058
  456TIP3    H1 1309   1.879   0.669   3.991  0.0497  0.5033  0.0683
  456TIP3    H2 1310   1.883   0.794   4.075 -2.3579 -0.0118  1.0438
  457TIP3   OH2 1311   5.817   0.609   5.236 -0.4065  0.6613 -0.0253
  457TIP3    H1 1312   5.864   0.584   5.316 -0.3613 -1.2484 -0.6125
  457TIP3    H2 1313   5.725   0.596   5.258 -0.6487  3.0612  0.6629
  458TIP3   OH2 1314   5.320   6.778   4.388 -0.0574 -0.1306  0.1024
  458TIP3    H1 1315   5.403   6.788   4.342  0.6947  0.1578  1.4696
  458TIP3    H2 1316   5.253   6.783   4.319  1.0081  0.3539 -0.9263
  459TIP3   OH2 1317   2.562   3.466   4.109  0.6370 -0.0292 -0.0461
  459TIP3    H1 1318   2.496   3.535   4.112  0.5195 -0.1468  2.1405
  459TIP3    H2 1319   2.645   3.512   4.123  0.5167 -0.2954  1.8795
  460TIP3   OH2 1320   0.109   0.443   6.743 -0.1741 -0.3253  0.3730
  460TIP3    H1 1321   0.100   0.457   6.649 -0.5181  0.5831  0.5402
  460TIP3    H2 1322   0.163   0.363   6.750 -0.0828 -0.3552 -0.5844
  461TIP3   OH2 1323   7.845   6.903   4.743 -0.0405 -0.2204 -0.4495
  461TIP3    H1 1324   7.753   6.917   4.764 -0.1774  0.1647 -1.2652
  461TIP3    H2 1325   7.893   6.935   4.820 -0.5894 -0.6566  0.0822
  462TIP3   OH2 1326   8.064   4.718   2.415  0.2784  0.0960  0.2503
  462TIP3    H1 1327   8.048   4.688   2.504 -0.8043 -0.0799 -0.0004
  462TIP3    H2 1328   7.986   4.693   2.366  0.8878  0.1400 -0.7648
  463TIP3   OH2 1329   7.479   2.170   1.137 -0.0371  0.4351 -0.3829
  463TIP3    H1 1330   7.489   2.186   1.043 -0.0660 -1.2161 -0.6985
  463TIP3    H2 1331   7.496   2.077   1.147 -0.9325  0.4057  1.1318
  464TIP3   OH2 1332   7.680   7.442   3.791  0.1038  0.0277  0.5738
  464TIP3    H1 1333   7.727   7.504   3.735 -0.2641 -0.0173  0.2054
  464TIP3    H2 1334   7.738   7.427   3.865  0.3600  0.5194  0.4735
  465TIP3   OH2 1335   3.794   0.533   4.041  0.0022  0.4943  0.1933
  465TIP3    H1 1336   3.797   0.502   3.951 -1.5181  0.5663  0.0886
  465TIP3    H2 1337   3.748   0.464   4.089 -2.8720  2.1647  0.0736
  466TIP3   OH2 1338   1.395   3.451   0.414  0.0425  0.1154  0.6053
  466TIP3    H1 1339   1.466   3.515   0.407  0.6439 -0.6506 -0.6154
  466TIP3    H2 1340   1.425   3.376   0.363 -0.2729 -1.5082  2.6550
  467TIP3   OH2 1341   3.080   2.800   4.684 -0.2357 -0.2523  0.3930
  467TIP3    H1 1342   3.107   2.714   4.716 -1.5972 -0.4582  1.0467
  467TIP3    H2 1343   3.087   2.858   4.760 -1.7725 -0.3600  0.6536
  468TIP3   OH2 1344   1.060   7.832   5.817 -0.2467 -0.2106  0.1899
  468TIP3    H1 1345   0.998   7.771   5.777  0.0460  1.0029 -2.3680
  468TIP3    H2 1346   1.009   7.878   5.884 -1.7237 -0.2454 -0.8653
  469TIP3   OH2 1347   6.139   3.229   0.426  0.0411 -0.0763 -0.3045
  469TIP3    H1 1348   6.164   3.247   0.516 -0.0923  0.1654 -0.3174
  469TIP3    H2 1349   6.051   3.265   0.417  1.0197  2.2508 -1.2668
  470TIP3   OH2 1350   0.017   4.132   4.394 -0.2280 -0.2900  0.1098
  470TIP3    H1 1351   0.029   4.105   4.303  1.5851 -2.3232  0.8733
  470TIP3    H2 1352   0.072   4.210   4.403 -1.0783  0.4272 -0.7180
  471TIP3   OH2 1353   2.665   0.090   5.777  0.5861 -0.2358 -0.0219
  471TIP3    H1 1354   2.657   0.045   5.693 -1.5841  2.3352 -1.3315
  471TIP3    H2 1355   2.582   0.072   5.822 -0.0459  1.7505 -0.2971
  472TIP3   OH2 1356   6.944   5.744   5.420 -0.2890 -0.1677 -0.0145
  472TIP3    H1 1357   6.996   5.716   5.345 -0.1781 -1.3909  0.4872
  472TIP3    H2 1358   6.938   5.839   5.412 -0.6854 -0.3088 -1.8226
  473TIP3   OH2 1359   1.498   3.225   1.698 -0.3757 -0.1811 -0.0497
  473TIP3    H1 1360   1.541   3.157   1.646 -0.5232 -1.2148  1.1360
  473TIP3    H2 1361   1.425   3.180   1.741  1.0211  0.0411  2.7796
  474TIP3   OH2 1362   7.693   3.449   2.870 -0.0568 -0.0865  0.2453
  474TIP3    H1 1363   7.636   3.518   2.903  0.1559 -1.0745  2.9479
  474TIP3    H2 1364   7.636   3.396   2.814 -0.3114  1.9765 -1.5704
  475TIP3   OH2 1365   4.789   0.965   2.750 -0.1939 -0.2141  0.5329
  475TIP3    H1 1366   4.763   0.931   2.835  0.7559  0.7819  1.2491
  475TIP3    H2 1367   4.720   1.027   2.726 -0.6103 -0.7105  0.4236
  476TIP3   OH2 1368   0.418   2.586   2.408 -0.1626  0.6807 -0.3315
  476TIP3    H1 1369   0.509   2.600   2.433 -0.4722 -0.2259  1.4395
  476TIP3    H2 1370   0.405   2.642   2.332  1.6182  1.4908 -0.0783
  477TIP3   OH2 1371   4.626   2.551   0.810  0.3109 -0.5015  0.2360
  477TIP3    H1 1372   4.612   2.465   0.769  1.0638 -0.4816 -0.0798
  477TIP3    H2 1373   4.677   2.600   0.746 -0.0585  0.1689  0.4423
  478TIP3   OH2 1374   3.135   6.995   2.016  0.0084  0.0247  0.1615
  478TIP3    H1 1375   3.222   6.958   2.032 -0.2154 -0.7079 -0.2597
  478TIP3    H2 1376   3.085   6.975   2.095 -0.3608 -1.3555 -0.3967
  479TIP3   OH2 1377   0.287   3.529   6.708  0.2268  0.0523 -0.0984
  479TIP3    H1 1378   0.327   3.475   6.640  0.0758 -1.8821  1.2609
  479TIP3    H2 1379   0.354   3.533   6.777 -0.6244 -0.3994  0.7866
  480TIP3   OH2 1380   4.596   3.308   5.899 -0.1269  0.6233  0.2968
  480TIP3    H1 1381   4.585   3.399   5.924  1.5031  0.6825  0.9359
  480TIP3    H2 1382   4.680   3.283   5.937  0.0648 -0.7693 -0.9582
  481TIP3   OH2 1383   5.868   7.402   3.898 -0.3199  0.1688 -0.5217
  481TIP3    H1 1384   5.779   7.373   3.918 -0.5329  0.1253 -1.5063
  481TIP3    H2 1385   5.861   7.496   3.884  0.4988  1.0289  3.4452
  482TIP3   OH2 1386   7.638   0.695   1.011 -0.6994 -0.6609 -0.3455
  482TIP3    H1 1387   7.595   0.632   1.069 -0.1669  0.0492  0.8738
  482TIP3    H2 1388   7.635   0.778   1.059  0.8521 -0.3109 -0.7815
  483TIP3   OH2 1389   7.243   1.121   6.644 -0.2141  0.2545 -0.4621
  483TIP3    H1 1390   7.251   1.205   6.600 -1.8362  1.0089  0.5967
  483TIP3    H2 1391   7.165   1.081   6.605  1.1400 -1.2892 -1.7275
  484TIP3   OH2 1392   2.294   4.069   5.908  0.0142  0.4393  0.3713
  484TIP3    H1 1393   2.387   4.072   5.887  0.0447  1.7204  0.6514
  484TIP3    H2 1394   2.272   3.975   5.904  1.3008  0.1220  0.3070
  485TIP3   OH2 1395   4.995   4.210   3.026  0.0092 -0.7096  0.0107
  485TIP3    H1 1396   5.048   4.235   3.102 -1.2007  0.1923  0.5879
  485TIP3    H2 1397   4.906   4.206   3.059 -0.3385 -1.9415 -1.0116
  486TIP3   OH2 1398   3.791   7.865   3.172  0.0594  0.9500  0.2493
  486TIP3    H1 1399   3.723   7.910   3.221  0.7750  1.7404  0.5415
  486TIP3    H2 1400   3.792   7.908   3.086  0.6045  1.3802  0.4599
  487TIP3   OH2 1401   2.994   3.033   4.362 -0.4129 -0.1998 -0.5840
  487TIP3    H1 1402   2.917   2.990   4.324 -0.3382 -0.3317 -0.5860
  487TIP3    H2 1403   3.008   3.110   4.306 -0.3879 -0.3175 -0.7412
  488TIP3   OH2 1404   0.526   5.804   2.562 -0.2494  0.3139 -0.0514
  488TIP3    H1 1405   0.603   5.796   2.507 -0.2943 -1.3515  0.0730
  488TIP3    H2 1406   0.507   5.898   2.564  1.3698  0.6783 -0.6071
  489TIP3   OH2 1407   6.488   2.202   5.134 -0.7009  0.3702 -0.1147
  489TIP3    H1 1408   6.487   2.254   5.215 -1.0770  1.4172 -0.7676
  489TIP3    H2 1409   6.469   2.113   5.162  1.6791  0.2238  1.2666
  490TIP3   OH2 1410   4.257   6.956   4.039  0.1862  0.2662  0.2740
  490TIP3    H1 1411   4.306   6.881   4.071  0.1243 -0.3828 -1.0841
  490TIP3    H2 1412   4.314   7.031   4.057  1.4704 -0.4138 -0.7944
  491TIP3   OH2 1413   6.355   3.673   3.896  0.0269  0.0191 -0.2254
  491TIP3    H1 1414   6.335   3.613   3.825 -1.6228  1.2205 -0.8255
  491TIP3    H2 1415   6.442   3.646   3.926 -0.7062 -2.7326 -0.3393
  492TIP3   OH2 1416   6.975   6.390   0.710  0.0692  0.1478  0.3879
  492TIP3    H1 1417   6.986   6.337   0.631 -0.2255 -0.8301  0.9870
  492TIP3    H2 1418   6.897   6.442   0.694  0.7465  0.9237 -0.4847
  493TIP3   OH2 1419   6.619   0.543   2.734 -0.2979 -0.3048 -0.4160
  493TIP3    H1 1420   6.574   0.560   2.651 -1.0300 -0.1781 -0.0004
  493TIP3    H2 1421   6.549   0.536   2.798  0.2811 -0.0947  0.2483
  494TIP3   OH2 1422   1.158   7.313   4.978  0.8538  0.0693 -0.2355
  494TIP3    H1 1423   1.203   7.395   5.000  0.9961 -0.1258  0.2254
  494TIP3    H2 1424   1.065   7.336   4.979  0.8638  0.0997  0.4572
  495TIP3   OH2 1425   8.331   4.359   5.248 -0.3517 -0.2640  0.4613
  495TIP3    H1 1426   8.385   4.363   5.168 -0.6652 -1.3361  0.1895
  495TIP3    H2 1427   8.393   4.379   5.319  0.8893 -3.1374  0.3445
  496TIP3   OH2 1428   0.441   4.391   5.146  0.0313 -0.0694  0.6996
  496TIP3    H1 1429   0.473   4.366   5.060  0.2580 -0.0287  0.7706
  496TIP3    H2 1430   0.467   4.483   5.156  1.4249 -0.5168  1.4492
  497TIP3   OH2 1431   7.819   1.898   1.903 -0.1809 -0.1307 -0.2456
  497TIP3    H1 1432   7.862   1.812   1.908 -1.2996 -0.6523  1.1442
  497TIP3    H2 1433   7.728   1.880   1.928 -1.0656  1.0579 -2.3678
  498TIP3   OH2 1434   6.732   7.870   5.661 -0.3453 -0.0850 -0.6662
  498TIP3    H1 1435   6.706   7.890   5.751 -1.9223  1.1341 -1.3457
  498TIP3    H2 1436   6.682   7.791   5.638  1.9779 -1.9816  0.2916
  499TIP3   OH2 1437   3.823   2.695   4.329  0.3445  0.4245 -0.5312
  499TIP3    H1 1438   3.869   2.741   4.399  1.6584 -1.2836 -0.2051
  499TIP3    H2 1439   3.730   2.715   4.345  0.7976  2.2860  0.0229
  500TIP3   OH2 1440   6.838   7.606   2.171  0.2679 -0.3242 -0.4458
  500TIP3    H1 1441   6.859   7.639   2.084  1.9873  0.8438  0.3493
  500TIP3    H2 1442   6.869   7.674   2.231 -1.5060 -0.7740  1.0778
  501TIP3   OH2 1443   4.115   7.260   4.932 -0.0126 -0.2872  0.4766
  501TIP3    H1 1444   4.027   7.283   4.903  0.2938 -1.4840 -1.6662
  501TIP3    H2 1445   4.102   7.216   5.016 -1.3997  0.0586  0.4725
  502TIP3   OH2 1446   0.963   1.055   4.333 -0.6052 -0.1674 -0.2759
  502TIP3    H1 1447   1.036   1.030   4.276 -1.4831 -2.7565 -0.4371
  502TIP3    H2 1448   0.984   1.014   4.417 -0.9001  0.8058  0.2767
  503TIP3   OH2 1449   5.324   4.020   2.512  0.0186  0.2282 -0.2310
  503TIP3    H1 1450   5.357   4.089   2.570  0.0861 -0.4935  0.6225
  503TIP3    H2 1451   5.230   4.019   2.527 -0.1641  1.0078 -1.2368
  504TIP3   OH2 1452   4.459   0.071   3.157  0.0175  0.3796  0.2503
  504TIP3    H1 1453   4.454   0.081   3.062 -1.6584 -0.0805  0.2546
  504TIP3    H2 1454   4.478  -0.021   3.170 -1.5629  0.0340  0.3419
  505TIP3   OH2 1455   5.013   1.545   0.861  0.0531  0.0391  0.4398
  505TIP3    H1 1456   4.933   1.524   0.908 -0.8756 -0.8497 -1.4176
  505TIP3    H2 1457   5.040   1.630   0.894 -2.2585  0.8476  0.3600
  506TIP3   OH2 1458   5.246   0.858   6.318 -0.2236 -0.2788 -0.6119
  506TIP3    H1 1459   5.276   0.777   6.277  0.8765 -1.0643  1.6299
  506TIP3    H2 1460   5.326   0.905   6.339 -0.7878  0.4006  0.0408
  507TIP3   OH2 1461   1.297   3.874   3.569  0.4652  0.0684  0.2328
  507TIP3    H1 1462   1.351   3.796   3.583  0.3375  0.0490  0.6339
  507TIP3    H2 1463   1.207   3.842   3.573  0.3957 -0.1851 -2.0559
  508TIP3   OH2 1464   8.180   3.686   1.964 -0.1877 -0.4519 -0.0827
  508TIP3    H1 1465   8.115   3.647   2.023 -1.6834  2.4004  0.3335
  508TIP3    H2 1466   8.140   3.680   1.877 -0.0631 -0.5562 -0.1323
  509TIP3   OH2 1467   0.658   0.541   0.891  0.3515  0.4079 -0.2598
  509TIP3    H1 1468   0.592   0.481   0.855  1.4367 -0.4931 -0.8250
  509TIP3    H2 1469   0.741   0.496   0.876  1.2084  2.0433 -0.6693
  510TIP3   OH2 1470   2.804   5.856   3.153 -0.1616  0.2201  0.4906
  510TIP3    H1 1471   2.779   5.844   3.061 -0.0626  1.7024  0.2388
  510TIP3    H2 1472   2.757   5.935   3.180  2.3219  1.7631  0.6956
  511TIP3   OH2 1473   3.217   6.155   4.161 -0.0363  0.6359  0.0649
  511TIP3    H1 1474   3.219   6.221   4.230 -1.4810 -1.3144  2.1313
  511TIP3    H2 1475   3.131   6.165   4.120 -0.3198  0.0141  0.4798
  512TIP3   OH2 1476   5.315   7.730   0.874  0.0277  0.6830 -0.1439
  512TIP3    H1 1477   5.409   7.743   0.865 -0.0389  0.6100 -1.0973
  512TIP3    H2 1478   5.277   7.816   0.856 -0.2060  0.1644 -2.5900
  513TIP3   OH2 1479   6.255   0.331   0.541  0.0955 -0.9180 -0.1599
  513TIP3    H1 1480   6.280   0.404   0.484  1.8580 -1.5307 -0.2409
  513TIP3    H2 1481   6.329   0.321   0.601 -0.2568 -2.4234  0.0593
  514TIP3   OH2 1482   1.587   0.896   3.883  0.0150  0.0336  0.3622
  514TIP3    H1 1483   1.568   0.983   3.916  0.3655 -0.1472  1.0758
  514TIP3    H2 1484   1.675   0.877   3.915  0.2731 -0.2547 -0.4901
  515TIP3   OH2 1485   2.827   5.235   1.319 -0.0424  0.6410  0.0251
  515TIP3    H1 1486   2.811   5.289   1.396  2.1735  2.5276 -0.7089
  515TIP3    H2 1487   2.804   5.290   1.244  1.2081  0.1934 -0.7306
  516TIP3   OH2 1488   3.894   1.549   2.264  0.0367  0.1552  0.0873
  516TIP3    H1 1489   3.829   1.601   2.216  0.4820  1.6471  1.0241
  516TIP3    H2 1490   3.852   1.465   2.278 -0.2886 -0.1914 -2.4791
  517TIP3   OH2 1491   7.515   3.023   2.854  0.0919 -0.1757 -0.0013
  517TIP3    H1 1492   7.527   3.097   2.794 -2.7555 -0.5173 -1.1451
  517TIP3    H2 1493   7.590   3.029   2.914 -0.3540  4.1131  0.4898
  518TIP3   OH2 1494   2.069   7.705   4.571 -0.7455 -0.0266  0.1359
  518TIP3    H1 1495   2.103   7.649   4.501 -0.0836 -0.7898  1.0410
  518TIP3    H2 1496   1.974   7.696   4.565 -0.7028  0.0616 -0.7754
  519TIP3   OH2 1497   1.520   5.788   5.515  0.4323 -0.1359  0.5818
  519TIP3    H1 1498   1.579   5.859   5.490 -0.5789 -0.0641 -1.9016
  519TIP3    H2 1499   1.441   5.833   5.547  0.4447 -0.1712  0.6616
  520TIP3   OH2 1500   6.119   1.663   1.591  0.0472 -0.1996 -0.1284
  520TIP3    H1 1501   6.056   1.724   1.630 -1.9642 -1.5423 -1.0806
  520TIP3    H2 1502   6.087   1.576   1.616  3.4904 -0.9955  2.2107
  521TIP3   OH2 1503   5.765   4.287   1.718 -0.0734 -0.3163 -0.3510
  521TIP3    H1 1504   5.722   4.373   1.720  0.7535  0.1016  0.4548
  521TIP3    H2 1505   5.801   4.277   1.807  2.6854 -0.0157 -1.3387
  522TIP3   OH2 1506   4.606   0.645   1.986 -0.1532 -0.1081  0.6771
  522TIP3    H1 1507   4.569   0.595   2.058 -1.6902 -0.5451 -0.3587
  522TIP3    H2 1508   4.697   0.617   1.981 -0.8247 -2.4394  0.4722
  523TIP3   OH2 1509   0.729   5.708   5.532  0.5745 -0.3004  0.0900
  523TIP3    H1 1510   0.721   5.803   5.521 -1.4445 -0.4417 -0.0847
  523TIP3    H2 1511   0.654   5.672   5.485  2.7629 -2.2184 -2.2747
  524TIP3   OH2 1512   2.950   3.956   1.199 -0.1867  0.0730 -0.8549
  524TIP3    H1 1513   2.893   4.015   1.150  0.5131  0.5446 -1.1156
  524TIP3    H2 1514   3.033   3.959   1.153  0.7326  1.1176  0.7571
  525TIP3   OH2 1515   4.604   5.746   4.426 -0.4177  0.5709  0.4915
  525TIP3    H1 1516   4.584   5.705   4.510  0.5310 -1.1099 -0.0467
  525TIP3    H2 1517   4.667   5.815   4.446  1.4837 -1.2073  0.9735
  526TIP3   OH2 1518   8.344   3.497   4.499 -0.3174 -0.1382  0.4431
  526TIP3    H1 1519   8.411   3.511   4.566 -0.6752 -0.2881  0.8404
  526TIP3    H2 1520   8.378   3.427   4.444 -0.4988 -0.7698  1.1240
  527TIP3   OH2 1521   0.897   5.016   2.910 -0.3427 -0.2781 -0.4012
  527TIP3    H1 1522   0.836   5.083   2.941 -0.5458  0.5054 -2.3035
  527TIP3    H2 1523   0.849   4.934   2.920 -1.0993  0.1539 -0.3764
  528TIP3   OH2 1524   5.470   6.914   1.517 -0.0843 -0.2217 -0.6815
  528TIP3    H1 1525   5.538   6.910   1.585 -0.9284 -1.0903  0.1360
  528TIP3    H2 1526   5.411   6.983   1.546 -0.3506 -0.4703 -0.6363
  529TIP3   OH2 1527   1.955   3.987   4.619  0.6547 -0.1098  0.3483
  529TIP3    H1 1528   1.919   3.904   4.648 -0.6401  0.3395  0.0981
  529TIP3    H2 1529   1.964   4.039   4.699  1.5147 -0.5021  0.5103
  530TIP3   OH2 1530   1.452   6.646   1.771 -0.2094  0.1336 -0.0718
  530TIP3    H1 1531   1.438   6.592   1.850  0.3857  0.2263  0.1009
  530TIP3    H2 1532   1.472   6.583   1.702  0.2439  0.1133  0.0755
  531TIP3   OH2 1533   7.433   6.052   2.258 -0.3699  0.3375 -0.2290
  531TIP3    H1 1534   7.497   6.100   2.207 -1.8911  0.0602 -2.5678
  531TIP3    H2 1535   7.428   5.966   2.215 -2.9442  0.6824 -0.8284
  532TIP3   OH2 1536   1.140   5.578   2.340 -0.3052  0.1670  0.3437
  532TIP3    H1 1537   1.048   5.560   2.320 -0.3234  0.6087  0.0375
  532TIP3    H2 1538   1.139   5.607   2.431 -0.1686 -2.3017  1.2261
  533TIP3   OH2 1539   2.655   7.507   4.820 -0.4985  0.4729  0.1922
  533TIP3    H1 1540   2.625   7.450   4.750  0.1839  0.8068 -0.3860
  533TIP3    H2 1541   2.575   7.548   4.853 -0.7692  0.8544 -0.8851
  534TIP3   OH2 1542   1.284   6.260   5.697 -0.6913 -0.1666  0.2859
  534TIP3    H1 1543   1.349   6.214   5.749 -1.9922  0.2556  2.3833
  534TIP3    H2 1544   1.334   6.329   5.652  0.6319 -1.2264  0.0830
  535TIP3   OH2 1545   1.460   4.520   2.899  0.0255 -0.0352  0.2829
  535TIP3    H1 1546   1.498   4.597   2.941  0.6778 -1.4704  2.4688
  535TIP3    H2 1547   1.522   4.449   2.917 -2.0272 -1.7391  1.0660
  536TIP3   OH2 1548   6.451   5.753   5.454 -0.3563  0.1730 -0.2507
  536TIP3    H1 1549   6.439   5.672   5.504 -0.5094 -0.0120 -0.5755
  536TIP3    H2 1550   6.401   5.819   5.501 -0.9227 -0.1152 -0.4333
  537TIP3   OH2 1551   8.089   5.403   3.101 -0.5455 -0.2745 -0.1392
  537TIP3    H1 1552   8.075   5.344   3.174 -0.5428 -0.1018  0.0022
  537TIP3    H2 1553   8.011   5.393   3.046 -0.3970 -0.6492 -0.2837
  538TIP3   OH2 1554   3.159   6.042   6.064 -0.0824 -0.6964  0.9249
  538TIP3    H1 1555   3.092   5.985   6.027  0.5302 -0.8240 -0.0220
  538TIP3    H2 1556   3.174   6.007   6.152 -0.2922 -1.5096  0.6511
  539TIP3   OH2 1557   8.245   2.998   0.145 -0.2159 -0.4077 -0.1526
  539TIP3    H1 1558   8.223   2.987   0.052  1.5395  1.3616 -0.8656
  539TIP3    H2 1559   8.339   2.982   0.149  0.4633  2.9823  0.5584
  540TIP3   OH2 1560   7.577   2.820   3.312  0.7306  0.1866 -0.0991
  540TIP3    H1 1561   7.570   2.804   3.218  2.0426  1.0581 -0.3717
  540TIP3    H2 1562   7.487   2.834   3.340  0.1956 -1.1607 -1.0008
  541TIP3   OH2 1563   1.485   0.341   3.825  0.3486 -0.4068  0.1456
  541TIP3    H1 1564   1.511   0.266   3.877  1.2512 -0.8093 -0.8535
  541TIP3    H2 1565   1.551   0.346   3.755 -0.6909  0.2454 -0.8227
  542TIP3   OH2 1566   7.874   2.138   4.582  0.0859  0.5245 -0.1538
  542TIP3    H1 1567   7.826   2.165   4.504  0.4322 -1.2321 -1.0089
  542TIP3    H2 1568   7.959   2.182   4.575  0.0267  0.5647 -0.6188
  543TIP3   OH2 1569   2.687   4.853   4.699  0.3392  0.1461  0.3124
  543TIP3    H1 1570   2.779   4.832   4.691  0.1441 -0.0853 -1.8175
  543TIP3    H2 1571   2.684   4.949   4.704  0.5842  0.4401 -3.1963
  544TIP3   OH2 1572   0.909   2.997   2.431 -0.2168 -0.3338 -0.0900
  544TIP3    H1 1573   0.879   2.913   2.398 -0.6116 -0.1784 -0.1325
  544TIP3    H2 1574   0.850   3.018   2.503 -0.6210  0.2667 -0.5796
  545TIP3   OH2 1575   1.921   4.531   2.761 -0.0127  0.9114  0.3858
  545TIP3    H1 1576   2.006   4.525   2.805 -0.2815  0.5248  0.8627
  545TIP3    H2 1577   1.913   4.448   2.714  0.1429  1.2036 -0.1728
  546TIP3   OH2 1578   2.082   6.525   4.532 -1.1114  0.2196  0.1567
  546TIP3    H1 1579   2.038   6.461   4.588 -1.7297  0.5963  0.1112
  546TIP3    H2 1580   2.172   6.525   4.562 -0.8728 -1.3465 -0.4312
  547TIP3   OH2 1581   7.479   0.542   0.038 -0.0155  0.1355 -0.0399
  547TIP3    H1 1582   7.506   0.628   0.069  3.7909 -1.7470  2.5962
  547TIP3    H2 1583   7.400   0.522   0.088 -1.3331  2.1840 -1.1467
  548TIP3   OH2 1584   4.872   1.963   5.701  0.4941 -0.1308 -0.0118
  548TIP3    H1 1585   4.941   2.014   5.658  1.8722 -1.3615  0.6603
  548TIP3    H2 1586   4.914   1.922   5.776 -1.5985  1.0594  1.9325
  549TIP3   OH2 1587   3.672   3.145   1.990 -0.5784  0.6928  0.4617
  549TIP3    H1 1588   3.708   3.148   2.078  1.0241  1.6802 -0.1811
  549TIP3    H2 1589   3.619   3.225   1.983 -0.6205  0.6682  0.5023
  550TIP3   OH2 1590   7.709   1.056   0.448 -0.1508 -0.3632  0.1436
  550TIP3    H1 1591   7.614   1.070   0.455 -0.2470 -0.9310 -0.0242
  550TIP3    H2 1592   7.720   0.962   0.455  0.3520 -0.3516 -0.4194
  551TIP3   OH2 1593   6.767   0.297   1.995  0.7517 -0.2199 -0.5453
  551TIP3    H1 1594   6.746   0.387   1.969 -0.9841 -0.2644  0.4946
  551TIP3    H2 1595   6.729   0.289   2.083  0.5098 -2.0850 -0.7884
  552TIP3   OH2 1596   4.276   3.372   2.464  0.2045  0.1592 -0.3373
  552TIP3    H1 1597   4.255   3.307   2.531  0.2867  1.9333  1.5245
  552TIP3    H2 1598   4.193   3.385   2.417  0.4804 -2.1173 -1.6392
  553TIP3   OH2 1599   6.642   2.553   1.507 -0.5141  0.4891 -0.3659
  553TIP3    H1 1600   6.700   2.490   1.464 -0.6937 -0.8005  1.1952
  553TIP3    H2 1601   6.636   2.626   1.445  3.0401  0.8502 -0.4946
  554TIP3   OH2 1602   3.927   1.216   0.733 -0.4811  0.6003  0.2974
  554TIP3    H1 1603   3.877   1.290   0.699 -0.8326  0.8829  1.3768
  554TIP3    H2 1604   3.956   1.245   0.820  0.1910 -0.1705  0.3449
  555TIP3   OH2 1605   7.998   0.155   2.076  0.3194 -0.1395 -0.0999
  555TIP3    H1 1606   7.993   0.060   2.084  0.3053 -0.2226 -1.0199
  555TIP3    H2 1607   7.908   0.183   2.062 -0.0842  0.2919  2.6937
  556TIP3   OH2 1608   4.659   6.077   5.381  0.2966  0.5400  0.6558
  556TIP3    H1 1609   4.678   6.112   5.468 -0.6207 -1.8500  1.8787
  556TIP3    H2 1610   4.591   6.134   5.346  0.5488  1.4097  1.5512
  557TIP3   OH2 1611   7.266   6.626   1.935  0.4567  0.1842  0.3686
  557TIP3    H1 1612   7.239   6.538   1.961 -0.1532  0.7463  1.7197
  557TIP3    H2 1613   7.227   6.638   1.848 -2.3627  0.3354  1.5527
  558TIP3   OH2 1614   2.807   1.581   5.809 -0.4154 -0.1514  0.0186
  558TIP3    H1 1615   2.778   1.492   5.791  0.0589  0.1700 -2.7297
  558TIP3    H2 1616   2.888   1.571   5.858  0.6533 -1.3256 -1.9027
  559TIP3   OH2 1617   3.356   4.532   0.192 -0.2824 -0.0624 -0.1829
  559TIP3    H1 1618   3.320   4.458   0.144 -0.1587  0.1872 -0.6679
  559TIP3    H2 1619   3.443   4.545   0.155 -0.3229  0.3565 -0.1385
  560TIP3   OH2 1620   3.019   6.387   5.890 -0.4902 -0.4771  0.1092
  560TIP3    H1 1621   2.972   6.457   5.844 -0.5444  0.4685  1.5073
  560TIP3    H2 1622   2.950   6.339   5.936 -0.4272 -1.3285 -0.6606
  561TIP3   OH2 1623   0.533   5.458   0.953 -0.1625  0.0389  0.1951
  561TIP3    H1 1624   0.527   5.465   0.858 -2.5407 -0.9823  0.1997
  561TIP3    H2 1625   0.545   5.548   0.982 -1.2145  0.6089 -1.0117
  562TIP3   OH2 1626   2.783   4.567   1.718 -0.2340 -0.4575  0.4337
  562TIP3    H1 1627   2.801   4.643   1.662 -1.7727 -0.8251 -0.6372
  562TIP3    H2 1628   2.854   4.567   1.782 -0.3310  2.0240  0.6284
  563TIP3   OH2 1629   0.787   0.774   2.601 -0.3840 -0.7270 -0.2857
  563TIP3    H1 1630   0.697   0.773   2.567 -0.4008  2.7238 -0.7179
  563TIP3    H2 1631   0.779   0.740   2.690 -2.3407  0.3986  0.0322
  564TIP3   OH2 1632   3.563   7.365   2.887  0.2158 -0.3851  0.1221
  564TIP3    H1 1633   3.569   7.412   2.970  1.1093  0.3970 -0.3643
  564TIP3    H2 1634   3.488   7.405   2.842 -0.5628 -1.1249  0.7195
  565TIP3   OH2 1635   5.953   7.253   1.021 -0.5953 -0.0804 -0.1592
  565TIP3    H1 1636   5.881   7.243   0.959  0.5276 -1.2621 -1.3505
  565TIP3    H2 1637   6.022   7.295   0.970 -0.5324  1.3486  1.0612
  566TIP3   OH2 1638   2.229   5.610   0.627 -0.1456  0.6985  0.1205
  566TIP3    H1 1639   2.277   5.677   0.578  1.2717 -0.5096 -0.1856
  566TIP3    H2 1640   2.153   5.590   0.571 -1.2356  2.8234  0.7440
  567TIP3   OH2 1641   6.282   1.526   0.458  0.0342 -1.1999 -0.5670
  567TIP3    H1 1642   6.288   1.592   0.526  0.2161 -0.2219 -1.4959
  567TIP3    H2 1643   6.368   1.484   0.458  0.3698 -0.5315 -0.8325
  568TIP3   OH2 1644   2.272   6.716   2.299  0.1686 -0.2802 -0.0651
  568TIP3    H1 1645   2.272   6.620   2.298 -0.5265 -0.2831 -1.2285
  568TIP3    H2 1646   2.339   6.739   2.364  1.7966 -1.5349 -1.2282
  569TIP3   OH2 1647   4.145   0.308   0.119  0.4542 -0.1098 -0.5611
  569TIP3    H1 1648   4.198   0.387   0.107  0.4631 -0.0933 -0.4139
  569TIP3    H2 1649   4.076   0.315   0.053  0.3007  0.1517 -0.3734
  570TIP3   OH2 1650   0.015   5.906   3.920  0.5819 -0.0652  0.1733
  570TIP3    H1 1651   0.051   5.935   3.837  0.5446 -0.2931  0.0769
  570TIP3    H2 1652   0.051   5.967   3.985 -1.3795  1.7073 -0.2974
  571TIP3   OH2 1653   0.741   6.266   4.107  0.2783  0.0523  0.4221
  571TIP3    H1 1654   0.738   6.333   4.038 -2.1993 -0.4208 -0.0238
  571TIP3    H2 1655   0.705   6.310   4.184 -0.0775 -0.3676  0.4984
  572TIP3   OH2 1656   0.785   3.259   1.859  0.6365  0.0017 -0.1231
  572TIP3    H1 1657   0.824   3.190   1.912 -0.5315 -0.0033  0.7656
  572TIP3    H2 1658   0.766   3.329   1.921  0.4721  0.5371 -0.7666
  573TIP3   OH2 1659   1.534   5.843   5.944  0.2431  0.3187 -0.1212
  573TIP3    H1 1660   1.533   5.752   5.913  0.1046  0.5040 -0.6704
  573TIP3    H2 1661   1.460   5.849   6.004  1.5814 -0.5301  1.6850
  574TIP3   OH2 1662   3.277   5.912   0.493 -0.2087 -0.0489  0.1267
  574TIP3    H1 1663   3.365   5.878   0.474 -0.3796 -0.6099  0.3165
  574TIP3    H2 1664   3.272   5.914   0.589 -0.1045  0.7846  0.1242
  575TIP3   OH2 1665   4.303   3.494   0.436  0.4040  0.0972 -0.1382
  575TIP3    H1 1666   4.231   3.436   0.461  0.0365  0.9063  0.7920
  575TIP3    H2 1667   4.377   3.467   0.491  0.8545 -0.7903 -1.1556
  576TIP3   OH2 1668   2.410   2.009   5.750 -0.2906 -0.7121 -0.0158
  576TIP3    H1 1669   2.428   2.040   5.839 -1.8272 -0.3612  0.2017
  576TIP3    H2 1670   2.409   1.914   5.758  2.2599 -0.8139 -0.2384
  577TIP3   OH2 1671   1.471   2.960   0.107  0.4778 -0.2327  0.7737
  577TIP3    H1 1672   1.512   2.908   0.038  1.7250  1.3194  0.2880
  577TIP3    H2 1673   1.454   2.898   0.177  4.3575 -0.9034  1.3201
  578TIP3   OH2 1674   5.985   6.220   1.992  0.4772 -0.0569  0.2828
  578TIP3    H1 1675   6.027   6.150   2.041 -0.0555  0.2388  1.1815
  578TIP3    H2 1676   5.979   6.293   2.053 -2.5233 -0.4833  0.6769
  579TIP3   OH2 1677   6.982   1.469   6.563  0.2253 -0.5806  0.6048
  579TIP3    H1 1678   6.974   1.377   6.536 -1.5811 -0.7032  1.3783
  579TIP3    H2 1679   7.061   1.472   6.617  1.4925 -1.2021 -1.1284
  580TIP3   OH2 1680   4.805   6.548   1.691 -0.0931 -0.0560  0.1623
  580TIP3    H1 1681   4.888   6.522   1.650 -0.9290 -0.2126 -1.5448
  580TIP3    H2 1682   4.738   6.513   1.632 -1.3394  1.7094  0.4521
  581TIP3   OH2 1683   5.556   1.090   3.950 -0.0034  0.5218  0.3059
  581TIP3    H1 1684   5.494   1.114   4.018  0.2717 -0.7637  1.0472
  581TIP3    H2 1685   5.642   1.104   3.990  0.2760  2.7405 -0.8642
  582TIP3   OH2 1686   4.106   6.976   0.269  0.2014  0.0680 -0.0332
  582TIP3    H1 1687   4.173   6.983   0.201 -0.2018  0.1011 -0.4319
  582TIP3    H2 1688   4.027   7.014   0.229 -0.3954 -1.1071 -0.0313
  583TIP3   OH2 1689   2.984   1.992   6.629 -0.2759  0.3411 -0.0061
  583TIP3    H1 1690   3.070   1.959   6.601 -0.4053  1.5801 -2.1129
  583TIP3    H2 1691   2.922   1.946   6.572 -1.1425 -1.0465  1.9484
  584TIP3   OH2 1692   4.880   3.977   3.606  0.0917 -0.0671 -0.2656
  584TIP3    H1 1693   4.906   4.049   3.663 -0.1504  1.1339 -1.6187
  584TIP3    H2 1694   4.784   3.981   3.603 -0.2687 -2.8958  2.6819
  585TIP3   OH2 1695   5.932   0.808   3.970 -0.7524 -0.1300  0.1912
  585TIP3    H1 1696   5.850   0.773   4.004 -0.3643  0.0690  1.3646
  585TIP3    H2 1697   5.934   0.899   4.001 -0.1117 -0.1210  0.1460
  586TIP3   OH2 1698   4.986   7.781   4.738 -0.2927  0.1368 -0.6857
  586TIP3    H1 1699   5.018   7.845   4.675 -0.9121  0.9745 -0.1658
  586TIP3    H2 1700   5.052   7.780   4.807 -0.4116  0.4032 -0.5689
  587TIP3   OH2 1701   5.981   6.850   5.802  0.0044 -0.1714 -0.1525
  587TIP3    H1 1702   5.917   6.921   5.814 -0.0045 -0.3163  0.7533
  587TIP3    H2 1703   5.981   6.833   5.708 -1.8493 -0.6849 -0.0846
  588TIP3   OH2 1704   6.047   0.956   1.778 -0.6374 -0.1957 -0.0207
  588TIP3    H1 1705   5.968   0.925   1.735 -1.3551  1.1780  0.2647
  588TIP3    H2 1706   6.069   1.037   1.733 -0.2044  0.1743  0.8304
  589TIP3   OH2 1707   4.293   0.067   6.345 -0.2787 -0.6057  0.3306
  589TIP3    H1 1708   4.350   0.029   6.412 -0.2350  0.0180  0.6595
  589TIP3    H2 1709   4.207   0.027   6.360 -0.1084 -0.9754  0.3233
  590TIP3   OH2 1710   6.508   7.105   4.257 -0.1246  0.8101 -0.3160
  590TIP3    H1 1711   6.463   7.082   4.338  1.2834  0.9636  0.5283
  590TIP3    H2 1712   6.447   7.077   4.188 -0.1014 -2.1157  0.6876
  591TIP3   OH2 1713   1.985   7.727   1.403  0.2847  0.2587 -0.4465
  591TIP3    H1 1714   1.952   7.813   1.374 -2.9019 -0.4709  0.5849
  591TIP3    H2 1715   1.959   7.667   1.334  0.2190 -0.2350  0.0029
  592TIP3   OH2 1716   7.309   6.768   1.160 -0.1888  0.2319  0.1982
  592TIP3    H1 1717   7.343   6.727   1.081 -0.7016  1.6819 -0.8356
  592TIP3    H2 1718   7.296   6.696   1.222  1.9809 -0.7096 -0.3509
  593TIP3   OH2 1719   1.314   7.556   3.502  0.8178 -0.4579  0.1568
  593TIP3    H1 1720   1.290   7.528   3.590  0.0132 -1.1836 -0.2730
  593TIP3    H2 1721   1.405   7.527   3.492  1.3371  0.7588  1.1821
  594TIP3   OH2 1722   2.477   5.149   5.252  0.3251 -0.3494  0.1779
  594TIP3    H1 1723   2.567   5.150   5.284  0.6296  0.1404 -0.6683
  594TIP3    H2 1724   2.423   5.167   5.329  0.8008 -2.5935  1.1108
  595TIP3   OH2 1725   2.712   0.010   2.434 -0.2546  0.3234 -0.5937
  595TIP3    H1 1726   2.792   0.019   2.485 -0.5469 -1.6610  0.3180
  595TIP3    H2 1727   2.733   0.050   2.349  2.4550 -1.9160 -1.1283
  596TIP3   OH2 1728   6.392   1.132   4.738 -0.1165  0.6115  0.1331
  596TIP3    H1 1729   6.355   1.045   4.723  0.5454  0.3692 -0.1377
  596TIP3    H2 1730   6.483   1.115   4.762 -0.1963  1.1922  0.8638
  597TIP3   OH2 1731   2.508   0.486   4.759 -0.2494 -0.2960  0.0866
  597TIP3    H1 1732   2.557   0.482   4.841  0.3410  2.8814  0.0285
  597TIP3    H2 1733   2.569   0.524   4.696 -0.6764 -2.7110 -1.9066
  598TIP3   OH2 1734   4.841   3.109   4.097  0.1652  0.0222 -0.2879
  598TIP3    H1 1735   4.867   3.035   4.152  1.2036 -0.6117 -1.5545
  598TIP3    H2 1736   4.920   3.162   4.090 -0.7367  1.6131  1.1024
  599TIP3   OH2 1737   6.165   5.817   6.830  0.0292  0.3369  0.5947
  599TIP3    H1 1738   6.206   5.835   6.745  2.2092 -1.7388  1.0938
  599TIP3    H2 1739   6.107   5.742   6.813  1.5512 -1.0200  1.1340
  600TIP3   OH2 1740   3.436   6.853   1.092 -0.1913  0.2210 -0.6603
  600TIP3    H1 1741   3.356   6.888   1.054 -0.0741  0.9434 -0.2617
  600TIP3    H2 1742   3.440   6.762   1.061  0.3978  1.0366 -3.1204
  601TIP3   OH2 1743   0.400   6.295   4.186  0.2001  0.2312  0.2644
  601TIP3    H1 1744   0.467   6.287   4.119 -0.7545 -0.8903 -0.5795
  601TIP3    H2 1745   0.426   6.232   4.253 -0.7490 -1.2542 -0.7255
  602TIP3   OH2 1746   3.362   7.115   5.430  0.1343 -0.4322  0.0052
  602TIP3    H1 1747   3.376   7.049   5.497 -0.7793 -1.6726 -0.9909
  602TIP3    H2 1748   3.280   7.091   5.388 -0.2029  1.3078 -0.4427
  603TIP3   OH2 1749   7.112   5.872   6.483  0.5746  0.4856  0.0871
  603TIP3    H1 1750   7.122   5.958   6.523 -0.4568  1.1806 -1.0668
  603TIP3    H2 1751   7.140   5.885   6.392 -1.6838  0.1985 -0.7014
  604TIP3   OH2 1752   6.100   4.838   4.762 -0.4224  0.3705  0.0936
  604TIP3    H1 1753   6.083   4.902   4.693  0.1506 -0.1701 -0.5626
  604TIP3    H2 1754   6.068   4.756   4.726  0.1396  0.0316  0.3588
  605TIP3   OH2 1755   1.058   5.531   3.326  0.6638  0.0824  0.1278
  605TIP3    H1 1756   1.001   5.460   3.295 -0.3021  1.6436 -1.8987
  605TIP3    H2 1757   1.021   5.610   3.287  1.7286  1.7467  2.2693
  606TIP3   OH2 1758   3.807   4.276   3.087 -0.1208  0.2816  0.1537
  606TIP3    H1 1759   3.867   4.202   3.083  0.2196  0.5816 -0.4187
  606TIP3    H2 1760   3.726   4.239   3.122  0.2801 -0.1999  0.5999
  607TIP3   OH2 1761   6.293   4.176   5.984 -0.5870  0.6024 -0.0508
  607TIP3    H1 1762   6.323   4.115   6.052  0.2128  0.9359 -0.1006
  607TIP3    H2 1763   6.261   4.119   5.914  1.7576  0.1578 -0.8426
  608TIP3   OH2 1764   7.645   5.567   2.112 -0.3310 -0.1144  0.1633
  608TIP3    H1 1765   7.727   5.551   2.064 -0.6108 -0.2997 -0.2657
  608TIP3    H2 1766   7.669   5.556   2.204  0.3795  0.9377  0.1250
  609TIP3   OH2 1767   0.351   1.323   3.734 -0.3458  0.6603  0.5258
  609TIP3    H1 1768   0.359   1.380   3.811 -1.6413  1.4655  0.1047
  609TIP3    H2 1769   0.260   1.292   3.737  0.0669 -0.6497  0.2117
  610TIP3   OH2 1770   3.924   5.835   2.600  0.0774  0.0700  0.0246
  610TIP3    H1 1771   3.967   5.867   2.679  0.5955  1.6506 -0.8533
  610TIP3    H2 1772   3.936   5.905   2.536 -3.5036  0.5136 -0.3944
  611TIP3   OH2 1773   1.832   3.467   6.004  0.8833  0.4185 -0.1575
  611TIP3    H1 1774   1.755   3.523   6.001  0.1577 -0.5839 -0.6974
  611TIP3    H2 1775   1.879   3.485   5.922  1.1164  0.8641  0.0698
  612TIP3   OH2 1776   1.843   0.773   1.558 -0.2052  0.0481  0.1751
  612TIP3    H1 1777   1.780   0.710   1.524  0.7356 -1.7055  1.5406
  612TIP3    H2 1778   1.793   0.827   1.620 -0.9392  0.4741 -0.7668
  613TIP3   OH2 1779   6.185   7.143   1.170  0.1847  0.0780  0.4551
  613TIP3    H1 1780   6.217   7.222   1.215  1.3856 -0.1628  0.0796
  613TIP3    H2 1781   6.112   7.173   1.117  1.3202  1.2085 -0.5589
  614TIP3   OH2 1782   5.301   0.449   4.645 -0.5007  0.6695 -0.1568
  614TIP3    H1 1783   5.319   0.366   4.601 -0.1983  0.9876 -0.6411
  614TIP3    H2 1784   5.300   0.427   4.738 -0.7793  0.0577 -0.2973
  615TIP3   OH2 1785   2.894   6.776   6.807  0.3031 -0.4502  0.2436
  615TIP3    H1 1786   2.972   6.722   6.793 -0.0302 -0.8637 -0.0141
  615TIP3    H2 1787   2.832   6.747   6.741  0.2543  0.5133 -0.1562
  616TIP3   OH2 1788   8.318   0.576   5.095 -0.3932 -0.2456  0.4395
  616TIP3    H1 1789   8.274   0.529   5.024  0.2434  0.4414 -0.4292
  616TIP3    H2 1790   8.267   0.656   5.106 -0.7978 -0.5877  1.1307
  617TIP3   OH2 1791   1.549   2.154   3.268  0.4779  0.2982  0.1370
  617TIP3    H1 1792   1.587   2.069   3.248  1.3021  0.8951 -0.9152
  617TIP3    H2 1793   1.457   2.136   3.288  0.7154 -0.8616  0.2320
  618TIP3   OH2 1794   2.509   0.241   3.495  0.1473 -0.2445  0.2923
  618TIP3    H1 1795   2.474   0.269   3.410  1.4908  0.0793 -0.1719
  618TIP3    H2 1796   2.482   0.311   3.556  0.1078  0.0706 -0.0826
  619TIP3   OH2 1797   2.011   1.195   1.070 -0.1287  0.6928  0.1735
  619TIP3    H1 1798   2.014   1.114   1.019 -0.7315  0.9026 -0.2141
  619TIP3    H2 1799   1.961   1.256   1.015 -4.4462 -0.2538  2.5176
  620TIP3   OH2 1800   7.880   3.896   5.901  0.8760  0.3180 -0.1329
  620TIP3    H1 1801   7.876   3.974   5.846 -0.5444  0.1324 -0.3340
  620TIP3    H2 1802   7.949   3.842   5.862  0.8775  0.8320 -0.8506
  621TIP3   OH2 1803   4.076   4.120   3.625 -0.3693  0.4972  0.2199
  621TIP3    H1 1804   4.012   4.168   3.572  1.9722  2.4507 -0.9883
  621TIP3    H2 1805   4.048   4.137   3.716 -0.7262  2.6256 -0.2208
  622TIP3   OH2 1806   1.831   6.100   4.829  0.2021  0.0031 -0.4962
  622TIP3    H1 1807   1.861   6.178   4.782 -0.4821  0.7040  0.2008
  622TIP3    H2 1808   1.765   6.133   4.891  1.3960 -0.8204  1.2823
  623TIP3   OH2 1809   5.787   7.377   2.554  0.1328  0.4852  0.3006
  623TIP3    H1 1810   5.842   7.427   2.493  0.1176  2.0715  1.5242
  623TIP3    H2 1811   5.763   7.440   2.621 -0.1575 -1.1294  1.7696
  624TIP3   OH2 1812   5.020   5.256   0.209  0.2880  0.0139  0.1032
  624TIP3    H1 1813   5.085   5.310   0.256  0.2341  1.4691 -1.3793
  624TIP3    H2 1814   5.064   5.233   0.127 -0.7919  0.4226 -0.6105
  625TIP3   OH2 1815   6.717   3.106   6.818  0.3488 -0.4752 -0.0344
  625TIP3    H1 1816   6.800   3.152   6.826 -1.0648  2.2206  0.4582
  625TIP3    H2 1817   6.717   3.043   6.890  1.1060  1.0413  1.3632
  626TIP3   OH2 1818   5.240   2.619   3.093 -0.0554 -0.2427  0.0294
  626TIP3    H1 1819   5.325   2.591   3.129 -0.7875 -2.2856  0.3377
  626TIP3    H2 1820   5.224   2.704   3.132 -0.0826 -1.6627  3.4816
  627TIP3   OH2 1821   1.980   6.055   5.762 -0.5029  0.5145  0.0900
  627TIP3    H1 1822   1.894   6.017   5.742  0.1283 -1.0283  0.2070
  627TIP3    H2 1823   2.017   6.076   5.677 -0.1456 -0.7698 -0.0808
  628TIP3   OH2 1824   1.293   2.415   4.803 -0.7541  0.0746 -0.6530
  628TIP3    H1 1825   1.352   2.486   4.776 -0.5475  0.9590  1.8524
  628TIP3    H2 1826   1.223   2.416   4.738  0.5691  0.7957 -2.1639
  629TIP3   OH2 1827   5.927   3.704   6.538  0.0325  0.1139 -0.2162
  629TIP3    H1 1828   6.010   3.664   6.565  0.1086  0.4458  0.0467
  629TIP3    H2 1829   5.893   3.645   6.471 -0.7194 -1.3832  1.3686
  630TIP3   OH2 1830   6.490   7.108   4.619  0.0713  0.5917  0.1094
  630TIP3    H1 1831   6.475   7.101   4.713  2.2857  0.2921  0.4933
  630TIP3    H2 1832   6.513   7.200   4.605 -0.9473  0.7980 -0.2734
  631TIP3   OH2 1833   4.439   5.054   3.087  0.2811 -0.4381 -0.1002
  631TIP3    H1 1834   4.404   5.048   3.177  0.0573  1.3632 -0.0412
  631TIP3    H2 1835   4.365   5.085   3.035  1.2883  1.7962 -0.2821
  632TIP3   OH2 1836   8.034   1.383   4.309 -0.6271  0.1450  0.0284
  632TIP3    H1 1837   8.070   1.308   4.260 -1.6002 -0.7187  0.5924
  632TIP3    H2 1838   8.010   1.446   4.241 -0.0006 -0.1453 -0.4753
  633TIP3   OH2 1839   1.213   6.348   2.687  0.0043  0.4421  0.3941
  633TIP3    H1 1840   1.238   6.260   2.716 -0.1542  0.5775  0.9453
  633TIP3    H2 1841   1.153   6.332   2.614 -1.5346  0.0339  1.6886
  634TIP3   OH2 1842   2.453   7.328   5.055 -0.1148 -0.0978  0.6859
  634TIP3    H1 1843   2.412   7.374   4.982 -0.2398  0.0516  0.8483
  634TIP3    H2 1844   2.388   7.264   5.083  0.6961 -1.5772 -0.6315
  635TIP3   OH2 1845   5.940   1.529   1.993 -0.0235 -0.3823 -0.2758
  635TIP3    H1 1846   5.956   1.623   2.002  1.4212 -0.5676 -0.7569
  635TIP3    H2 1847   5.901   1.519   1.906 -0.1304 -0.2336 -0.2444
  636TIP3   OH2 1848   4.581   1.977   2.299 -0.1769  0.3640  0.6304
  636TIP3    H1 1849   4.517   1.912   2.271 -0.4275  0.2949  1.3396
  636TIP3    H2 1850   4.656   1.926   2.331 -0.8058  0.3732  2.2104
  637TIP3   OH2 1851   5.930   2.400   5.540  0.5938  0.3170 -0.2417
  637TIP3    H1 1852   5.981   2.417   5.619  0.4420  0.0590 -0.0869
  637TIP3    H2 1853   5.840   2.423   5.564  0.7283  1.3275 -0.6947
  638TIP3   OH2 1854   4.339   3.084   4.934 -0.2360 -0.0937  0.0026
  638TIP3    H1 1855   4.408   3.072   5.000 -0.6221 -1.2203  0.2206
  638TIP3    H2 1856   4.343   3.005   4.880 -1.9427 -0.6348  0.5906
  639TIP3   OH2 1857   6.309   0.736   5.181  0.3769  0.5084 -0.4607
  639TIP3    H1 1858   6.373   0.666   5.193  0.4929  0.8004  0.7407
  639TIP3    H2 1859   6.246   0.701   5.118 -0.1352 -1.0625  0.8702
  640TIP3   OH2 1860   5.426   5.914   2.635 -0.1810  0.1035 -0.0630
  640TIP3    H1 1861   5.398   5.971   2.707  2.1180  2.5740 -0.9604
  640TIP3    H2 1862   5.346   5.899   2.583 -1.1601  1.2037  1.0701
  641TIP3   OH2 1863   5.954   0.561   0.969  0.0869  0.0281 -0.0940
  641TIP3    H1 1864   6.006   0.524   1.040  2.1857 -0.2202 -1.6479
  641TIP3    H2 1865   5.875   0.508   0.967  0.4325 -0.5849  1.4269
  642TIP3   OH2 1866   6.708   2.568   0.080  0.4169 -0.2993  0.1843
  642TIP3    H1 1867   6.672   2.558   0.168 -2.3216 -1.3757 -0.9751
  642TIP3    H2 1868   6.697   2.661   0.060 -2.3172 -0.6740 -0.3136
  643TIP3   OH2 1869   5.505   5.867   3.502  0.1975 -0.4972 -0.7502
  643TIP3    H1 1870   5.487   5.945   3.556  0.3506 -0.8124 -0.2412
  643TIP3    H2 1871   5.571   5.819   3.551 -2.5234 -2.8653  0.8695
  644TIP3   OH2 1872   6.034   0.955   6.648  0.0218 -0.4926  0.7323
  644TIP3    H1 1873   5.977   0.879   6.653  1.0487 -1.2395  1.5093
  644TIP3    H2 1874   6.026   0.997   6.734  1.4406 -1.2316  1.2630
  645TIP3   OH2 1875   7.621   1.572   0.564  0.4883 -0.1132 -0.0432
  645TIP3    H1 1876   7.716   1.559   0.567  0.6159  0.9191  1.6438
  645TIP3    H2 1877   7.604   1.637   0.632 -1.0840  1.9794 -2.2551
  646TIP3   OH2 1878   0.680   6.889   3.453  0.3356  0.1424 -0.2995
  646TIP3    H1 1879   0.733   6.969   3.455  1.0894 -0.3486  0.2100
  646TIP3    H2 1880   0.711   6.842   3.376 -1.1959  1.0196 -1.5238
  647TIP3   OH2 1881   6.802   5.541   1.902  0.2385  0.2042 -1.0427
  647TIP3    H1 1882   6.760   5.475   1.847  1.3486 -0.5864 -0.9928
  647TIP3    H2 1883   6.737   5.610   1.911 -0.6880 -0.5464 -1.7174
  648TIP3   OH2 1884   3.772   2.552   3.704 -0.2283  0.7206 -0.2399
  648TIP3    H1 1885   3.855   2.568   3.750  0.4480 -0.9987 -0.7417
  648TIP3    H2 1886   3.784   2.593   3.618 -1.3000  3.4952  0.8258
  649TIP3   OH2 1887   6.657   2.379   0.276 -0.4488 -0.1187 -0.0098
  649TIP3    H1 1888   6.586   2.337   0.325  0.1325 -0.2944  0.6998
  649TIP3    H2 1889   6.737   2.339   0.311 -0.0870 -2.6522 -3.2875
  650TIP3   OH2 1890   5.954   7.849   4.932  0.0325 -0.8446  0.2547
  650TIP3    H1 1891   5.993   7.900   5.003 -0.1002  2.2243 -1.7052
  650TIP3    H2 1892   5.860   7.851   4.950 -0.0891  0.7067 -0.3953
  651TIP3   OH2 1893   7.226   2.532   5.761  0.0711 -0.1847 -0.1598
  651TIP3    H1 1894   7.293   2.513   5.827  0.1353  0.1643 -0.1227
  651TIP3    H2 1895   7.188   2.615   5.788 -0.2213 -0.2679 -0.3100
  652TIP3   OH2 1896   8.147   4.176   5.324 -0.5616 -0.1999 -0.6399
  652TIP3    H1 1897   8.145   4.197   5.417 -2.3751  0.6638 -0.8291
  652TIP3    H2 1898   8.179   4.256   5.282  1.3485 -0.9473 -0.7349
  653TIP3   OH2 1899   2.442   4.470   3.907 -0.2923 -0.1473  0.1422
  653TIP3    H1 1900   2.407   4.416   3.837 -3.0122  1.4707  0.0885
  653TIP3    H2 1901   2.442   4.413   3.984  1.8511 -1.6631 -0.8840
  654TIP3   OH2 1902   7.905   4.294   6.140  0.3610  0.1268 -0.3966
  654TIP3    H1 1903   7.929   4.202   6.148  1.0240  0.3982  1.3797
  654TIP3    H2 1904   7.824   4.302   6.190 -0.6128  0.2268 -1.9281
  655TIP3   OH2 1905   2.387   0.829   3.382  0.2569 -0.2740  0.9085
  655TIP3    H1 1906   2.349   0.913   3.408  2.2420  1.2444 -0.7596
  655TIP3    H2 1907   2.428   0.847   3.297 -1.6710 -3.6706 -0.9495
  656TIP3   OH2 1908   7.394   3.743   1.371 -0.3498 -0.2325  0.0049
  656TIP3    H1 1909   7.389   3.835   1.345  1.5675  0.1057  0.6169
  656TIP3    H2 1910   7.392   3.694   1.289  2.8206  0.6520 -0.7588
  657TIP3   OH2 1911   0.877   4.175   4.392  0.1091  0.7429 -0.2954
  657TIP3    H1 1912   0.936   4.161   4.467 -1.2105  1.2970  0.8802
  657TIP3    H2 1913   0.789   4.168   4.429 -0.5830  0.5762 -1.9012
  658TIP3   OH2 1914   7.071   4.580   4.954  0.2729 -0.1000 -0.4361
  658TIP3    H1 1915   6.987   4.548   4.986  1.2251  0.1219  2.5707
  658TIP3    H2 1916   7.132   4.567   5.027  3.0127 -0.6951 -2.6494
  659TIP3   OH2 1917   2.528   1.295   3.700  0.1231 -0.0614 -0.1422
  659TIP3    H1 1918   2.581   1.375   3.709 -0.3667  0.0863  2.0973
  659TIP3    H2 1919   2.578   1.229   3.748 -1.3584 -0.0751  1.4732
  660TIP3   OH2 1920   5.655   3.759   3.787  0.5929 -0.2465 -0.0534
  660TIP3    H1 1921   5.593   3.711   3.731 -0.4212  0.6055  0.3052
  660TIP3    H2 1922   5.725   3.786   3.727 -0.0703 -0.0458 -0.7580
  661TIP3   OH2 1923   2.976   4.219   3.600 -0.0934  0.3862 -0.1457
  661TIP3    H1 1924   2.910   4.157   3.629  1.2640 -1.9584 -1.7312
  661TIP3    H2 1925   3.004   4.263   3.680 -2.4942  0.4473  0.7623
  662TIP3   OH2 1926   4.231   2.725   2.245  0.6061 -0.5222 -0.1800
  662TIP3    H1 1927   4.240   2.656   2.311  0.0014 -0.9810 -0.5631
  662TIP3    H2 1928   4.291   2.699   2.175  0.6623 -0.4528 -0.1577
  663TIP3   OH2 1929   6.156   1.502   4.220 -0.1639 -0.0594  0.6357
  663TIP3    H1 1930   6.128   1.583   4.176 -0.9589  0.1133  1.4291
  663TIP3    H2 1931   6.250   1.513   4.234 -0.0830  0.2938 -0.1567
  664TIP3   OH2 1932   1.753   4.211   2.489  0.4200  0.1925 -0.0356
  664TIP3    H1 1933   1.787   4.127   2.457  0.6103  0.4541 -0.5262
  664TIP3    H2 1934   1.809   4.233   2.563  1.7988  0.9569 -1.2515
  665TIP3   OH2 1935   5.836   7.580   2.337  0.0644  0.4482  0.5879
  665TIP3    H1 1936   5.797   7.660   2.302 -2.0355 -0.1934  1.3476
  665TIP3    H2 1937   5.829   7.516   2.266  0.7119  0.6069  0.3721
  666TIP3   OH2 1938   4.996   2.147   0.572 -0.4471  0.1846  0.3037
  666TIP3    H1 1939   5.075   2.096   0.557 -0.7009  0.1347 -0.9827
  666TIP3    H2 1940   4.925   2.091   0.544 -0.8672  0.6127  0.4925
  667TIP3   OH2 1941   5.251   4.639   0.556 -0.2029 -0.1962  0.1649
  667TIP3    H1 1942   5.285   4.717   0.600  1.5776 -1.3304  0.8807
  667TIP3    H2 1943   5.328   4.584   0.540 -1.1409 -1.0073 -2.0348
  668TIP3   OH2 1944   0.388   1.021   3.437 -0.4183  0.0731  0.2029
  668TIP3    H1 1945   0.386   1.107   3.396 -0.8660 -0.9871 -2.1750
  668TIP3    H2 1946   0.325   0.969   3.387 -0.9005 -1.3911  2.2111
  669TIP3   OH2 1947   0.590   7.595   3.606  0.7098 -0.2017 -0.2289
  669TIP3    H1 1948   0.658   7.539   3.643  1.0988  0.2723 -0.2129
  669TIP3    H2 1949   0.521   7.596   3.673  0.1422 -1.6474 -0.7581
  670TIP3   OH2 1950   1.631   0.097   4.875 -0.0075 -0.1326 -0.1604
  670TIP3    H1 1951   1.719   0.097   4.838  0.0563 -1.2227 -0.0335
  670TIP3    H2 1952   1.578   0.145   4.810  0.1871 -1.6378 -1.5020
  671TIP3   OH2 1953   2.115   4.809   0.933  0.2770  0.2194  0.0317
  671TIP3    H1 1954   2.116   4.772   0.845  1.2683 -0.1618  0.1899
  671TIP3    H2 1955   2.022   4.818   0.954  0.0179 -0.7236 -0.6288
  672TIP3   OH2 1956   0.913   0.988   2.478 -0.5800  0.3393  0.1477
  672TIP3    H1 1957   0.867   0.974   2.395 -2.0283  2.2002  0.5746
  672TIP3    H2 1958   0.868   0.931   2.540 -0.4353  0.0229 -0.0359
  673TIP3   OH2 1959   4.859   0.252   5.900  0.3697  0.2481 -0.3276
  673TIP3    H1 1960   4.816   0.335   5.880  1.2699  1.2637  1.6477
  673TIP3    H2 1961   4.840   0.237   5.992  1.5347 -0.9368 -0.2538
  674TIP3   OH2 1962   5.072   3.878   2.251  0.0567  0.2763  0.0072
  674TIP3    H1 1963   4.993   3.922   2.219 -0.9214 -0.2193  1.6042
  674TIP3    H2 1964   5.063   3.788   2.220  0.5858  0.4781 -0.7657
  675TIP3   OH2 1965   1.979   6.724   2.500 -0.0128  0.1921  0.6049
  675TIP3    H1 1966   1.930   6.806   2.497 -1.0406 -0.4299 -0.4750
  675TIP3    H2 1967   2.066   6.749   2.530 -0.8335  1.3938  2.1255
  676TIP3   OH2 1968   5.453   1.936   4.487  0.0992 -0.2568  0.0802
  676TIP3    H1 1969   5.387   1.919   4.554 -0.9366 -2.5916 -1.3866
  676TIP3    H2 1970   5.516   1.995   4.529 -1.8983  0.5341  2.1558
  677TIP3   OH2 1971   5.935   6.315   3.494  0.0032  0.1391 -0.2488
  677TIP3    H1 1972   5.847   6.279   3.511  0.1707  0.2610  1.0126
  677TIP3    H2 1973   5.995   6.248   3.526  0.3509  0.3982 -0.3510
  678TIP3   OH2 1974   2.177   0.955   4.209  0.6459  0.4106  0.1417
  678TIP3    H1 1975   2.272   0.944   4.211  0.7567  1.4074  0.7571
  678TIP3    H2 1976   2.159   1.001   4.127  1.1454  3.8448  1.8077
  679TIP3   OH2 1977   4.952   1.119   6.696 -0.0664  0.3495 -0.0567
  679TIP3    H1 1978   4.878   1.088   6.643 -0.6622 -0.4456  1.2082
  679TIP3    H2 1979   4.996   1.040   6.726 -0.4574  0.7311  1.6267
  680TIP3   OH2 1980   1.769   4.423   5.483 -0.5453 -0.4405  0.1626
  680TIP3    H1 1981   1.792   4.351   5.542 -1.2305 -1.3886 -0.6913
  680TIP3    H2 1982   1.831   4.414   5.410  0.6139  1.0146  0.9084
  681TIP3   OH2 1983   0.970   5.545   4.466  0.1556 -0.0282 -0.2165
  681TIP3    H1 1984   0.967   5.619   4.526  0.4515 -0.5801  0.5024
  681TIP3    H2 1985   0.911   5.568   4.395 -0.4384  0.5118  0.4443
  682TIP3   OH2 1986   1.999   2.107   5.130  0.0041 -0.4934  0.3413
  682TIP3    H1 1987   2.034   2.176   5.187 -1.1513 -0.2701  0.8246
  682TIP3    H2 1988   2.047   2.116   5.048 -0.7477  1.5130  0.0655
  683TIP3   OH2 1989   1.452   1.848   5.205 -0.2626 -0.6470  0.0674
  683TIP3    H1 1990   1.405   1.769   5.233 -0.9444 -0.2922 -0.0485
  683TIP3    H2 1991   1.538   1.840   5.245  0.2862 -2.2816 -1.2876
  684TIP3   OH2 1992   0.912   1.383   2.814 -0.2228  0.3917 -0.0979
  684TIP3    H1 1993   0.895   1.313   2.750 -0.1996  1.1268 -0.9376
  684TIP3    H2 1994   1.000   1.414   2.792  0.2062 -0.0309  0.9740
  685TIP3   OH2 1995   1.391   3.240   5.984 -0.2269 -0.2452  0.7024
  685TIP3    H1 1996   1.325   3.173   5.968 -0.3361 -0.1051  0.5605
  685TIP3    H2 1997   1.349   3.302   6.044 -1.0173  1.0041 -1.0593
  686TIP3   OH2 1998   3.482   4.274   4.094 -0.7458  0.3981  0.3021
  686TIP3    H1 1999   3.566   4.312   4.119 -0.2575 -1.3085  1.4581
  686TIP3    H2 2000   3.460   4.216   4.167 -1.5843 -1.2451 -1.1918
  687TIP3   OH2 2001   7.688   4.163   0.837 -0.3850 -0.0214 -0.3411
  687TIP3    H1 2002   7.747   4.195   0.905 -0.0537 -0.4263 -0.4317
  687TIP3    H2 2003   7.601   4.178   0.872 -0.2210  0.0527  0.0424
  688TIP3   OH2 2004   4.015   0.658   2.393  0.6828  0.2623  0.0022
  688TIP3    H1 2005   4.095   0.616   2.361 -0.0196 -2.1966  1.2231
  688TIP3    H2 2006   3.968   0.682   2.313  0.0084 -3.6600 -0.9720
  689TIP3   OH2 2007   6.903   1.316   2.014  0.4172  0.0741  0.3443
  689TIP3    H1 2008   6.910   1.272   2.098 -0.0656 -1.8775 -0.5777
  689TIP3    H2 2009   6.919   1.247   1.949  1.3496  1.6264 -1.1718
  690TIP3   OH2 2010   4.218   2.760   4.357  0.2589 -0.1484 -0.0999
  690TIP3    H1 2011   4.306   2.724   4.355  0.4815  0.2725  1.2846
  690TIP3    H2 2012   4.174   2.721   4.281  1.2945 -1.2026 -0.1798
  691TIP3   OH2 2013   1.372   0.148   4.737 -0.2609 -0.1938 -0.6977
  691TIP3    H1 2014   1.300   0.202   4.705  0.6731  0.1327 -2.4020
  691TIP3    H2 2015   1.415   0.116   4.657  0.6514 -1.4967  0.2744
  692TIP3   OH2 2016   6.552   4.620   6.388 -0.7312 -0.0001  0.1982
  692TIP3    H1 2017   6.480   4.683   6.395 -0.4704  0.3024  0.1542
  692TIP3    H2 2018   6.607   4.654   6.318 -2.3483 -2.0610 -2.2493
  693TIP3   OH2 2019   6.029   5.100   3.165 -0.3868 -0.2617  0.1790
  693TIP3    H1 2020   5.969   5.033   3.132  1.1822 -0.9215 -1.5344
  693TIP3    H2 2021   6.027   5.169   3.099  0.8189 -0.3730 -0.0006
  694TIP3   OH2 2022   3.092   5.779   1.687 -0.3818 -0.3203  0.0073
  694TIP3    H1 2023   3.057   5.867   1.696  2.5281  0.9971 -0.5372
  694TIP3    H2 2024   3.015   5.724   1.674 -2.2290  2.6408 -3.7946
  695TIP3   OH2 2025   5.939   7.345   6.811  0.2750  0.0486  0.4139
  695TIP3    H1 2026   5.850   7.356   6.777  0.4529 -1.1050 -0.4987
  695TIP3    H2 2027   5.952   7.250   6.812  1.2725  0.1780  1.1441
  696TIP3   OH2 2028   0.635   3.475   6.143  0.0407 -0.1457 -0.2879
  696TIP3    H1 2029   0.578   3.415   6.096 -0.3741 -0.8387  1.0621
  696TIP3    H2 2030   0.576   3.530   6.195  0.5577 -0.9022  1.1588
  697TIP3   OH2 2031   7.675   7.534   4.139 -0.0992  0.2351  0.1352
  697TIP3    H1 2032   7.612   7.481   4.090 -1.1558  0.1998  1.4887
  697TIP3    H2 2033   7.690   7.485   4.220 -0.1816  1.4045  0.8894
  698TIP3   OH2 2034   4.719   2.029   3.285 -0.0755 -0.0873  0.1297
  698TIP3    H1 2035   4.751   2.024   3.195  2.0702 -0.0365  0.8413
  698TIP3    H2 2036   4.784   1.981   3.336  0.2892  2.2147  2.0171
  699TIP3   OH2 2037   4.314   0.540   2.691 -0.1586 -0.1677  0.4907
  699TIP3    H1 2038   4.339   0.525   2.783  1.2212  0.1272  0.1842
  699TIP3    H2 2039   4.319   0.453   2.651 -1.5587 -0.4379  0.8575
  700TIP3   OH2 2040   2.351   2.833   6.664 -0.5878 -0.2865 -0.2140
  700TIP3    H1 2041   2.358   2.920   6.623  2.4802 -0.4013 -0.1609
  700TIP3    H2 2042   2.422   2.783   6.625 -2.3013 -2.8593 -0.2617
  701TIP3   OH2 2043   3.842   3.236   0.554  0.0519 -0.3069  0.1345
  701TIP3    H1 2044   3.873   3.148   0.577 -0.2693 -0.2823  0.6734
  701TIP3    H2 2045   3.764   3.249   0.607 -1.2133 -0.5670 -1.5605
  702TIP3   OH2 2046   3.276   5.146   6.701  0.0338 -0.0732  0.0207
  702TIP3    H1 2047   3.327   5.134   6.621  0.9047 -1.3516  0.7336
  702TIP3    H2 2048   3.263   5.058   6.735 -1.1904  0.3692  0.7776
  703TIP3   OH2 2049   8.327   3.405   6.468  0.0080 -0.7524 -0.3743
  703TIP3    H1 2050   8.239   3.390   6.505  0.2512 -0.6284  0.2720
  703TIP3    H2 2051   8.358   3.484   6.512 -0.6736  0.8801 -2.6769
  704TIP3   OH2 2052   0.780   5.713   3.992  0.2856  0.0215 -0.2581
  704TIP3    H1 2053   0.699   5.724   3.941  0.6648 -0.5479 -0.9889
  704TIP3    H2 2054   0.800   5.620   3.986  0.4768 -0.0155  0.7399
  705TIP3   OH2 2055   6.730   4.686   3.184 -0.1343  0.0073 -0.4296
  705TIP3    H1 2056   6.745   4.622   3.114 -4.2270 -1.1931 -0.4261
  705TIP3    H2 2057   6.803   4.747   3.175  1.3483 -1.9239 -3.5848
  706TIP3   OH2 2058   6.857   0.340   6.454  0.4548  0.4874  0.0681
  706TIP3    H1 2059   6.859   0.377   6.365 -0.4564 -0.0120 -0.1766
  706TIP3    H2 2060   6.764   0.324   6.471  0.7440 -0.8422  0.5115
  707TIP3   OH2 2061   3.755   5.432   0.717  0.4933 -0.0939 -0.5992
  707TIP3    H1 2062   3.844   5.443   0.749  0.8485 -0.5721 -1.3840
  707TIP3    H2 2063   3.741   5.337   0.717  0.2828 -0.0669 -1.2606
  708TIP3   OH2 2064   7.646   4.108   4.714  0.0515 -0.0570 -0.2818
  708TIP3    H1 2065   7.669   4.181   4.771 -0.5129  0.8048 -1.1393
  708TIP3    H2 2066   7.719   4.046   4.724  1.0890  1.1091 -0.3667
  709TIP3   OH2 2067   0.662   4.905   3.728  0.2946  0.3302 -0.2920
  709TIP3    H1 2068   0.736   4.869   3.680 -0.6682  0.2113 -1.7461
  709TIP3    H2 2069   0.591   4.909   3.664 -0.6919  1.3415  0.8032
  710TIP3   OH2 2070   4.050   0.685   2.668 -0.1051  0.0023 -1.0993
  710TIP3    H1 2071   4.135   0.647   2.690 -0.8341 -1.2388 -0.3060
  710TIP3    H2 2072   4.045   0.681   2.573  1.0472  0.8481 -1.2080
  711TIP3   OH2 2073   1.929   5.581   3.874 -0.1015  0.2511  0.4091
  711TIP3    H1 2074   1.854   5.522   3.870  0.3549 -0.5009  2.2204
  711TIP3    H2 2075   1.923   5.623   3.960 -0.1744  2.5932 -0.6381
  712TIP3   OH2 2076   6.895   6.101   6.810 -0.1084  0.7709 -0.2788
  712TIP3    H1 2077   6.817   6.057   6.778  0.1370 -0.4652  0.7853
  712TIP3    H2 2078   6.867   6.148   6.888  0.4053 -0.5318  0.7193
  713TIP3   OH2 2079   6.003   0.195   2.470  0.8483 -0.1765 -0.7708
  713TIP3    H1 2080   6.080   0.153   2.507  0.5068  0.5745  0.9109
  713TIP3    H2 2081   5.984   0.267   2.530 -0.8763 -0.0531 -1.3957
  714TIP3   OH2 2082   8.174   6.049   5.142  0.1203 -0.1290  0.3594
  714TIP3    H1 2083   8.120   6.104   5.200 -0.2834  1.5398 -1.4980
  714TIP3    H2 2084   8.262   6.083   5.154 -0.0817  0.7574 -0.5514
  715TIP3   OH2 2085   1.852   3.300   2.989  0.5069 -0.0505  0.0422
  715TIP3    H1 2086   1.810   3.366   2.934 -0.7209 -0.5607  0.3480
  715TIP3    H2 2087   1.820   3.217   2.955 -0.0413 -0.3824  1.3333
  716TIP3   OH2 2088   2.940   1.578   6.520  0.3396 -0.3796 -0.4071
  716TIP3    H1 2089   2.911   1.666   6.493 -2.3612 -1.5530 -1.7172
  716TIP3    H2 2090   3.029   1.571   6.486  1.4364  2.5145  1.4900
  717TIP3   OH2 2091   0.069   2.972   5.754 -0.1896  0.3846  0.1609
  717TIP3    H1 2092   0.090   2.984   5.661  0.6532  2.1158  0.5250
  717TIP3    H2 2093   0.152   2.947   5.794  0.0759  2.1522  0.8112
  718TIP3   OH2 2094   6.052   7.293  -0.022 -0.5375 -0.2493 -0.2690
  718TIP3    H1 2095   5.966   7.286   0.021  0.4519  0.3081  1.9833
  718TIP3    H2 2096   6.098   7.213   0.005  1.0919  1.3717  2.2804
  719TIP3   OH2 2097   0.189   0.669   3.495  0.3929 -0.5171  0.4423
  719TIP3    H1 2098   0.096   0.648   3.487  0.1084  0.6832  0.4552
  719TIP3    H2 2099   0.207   0.658   3.589  0.4322 -1.3707  0.3439
  720TIP3   OH2 2100   6.783   6.017   5.512  0.1734 -0.4189  0.0538
  720TIP3    H1 2101   6.761   5.990   5.601  0.1852  1.5056  0.6850
  720TIP3    H2 2102   6.762   6.111   5.510  3.1890  0.3275 -0.9745
  721TIP3   OH2 2103   6.378   3.932   6.146  0.9499 -0.7456  0.6137
  721TIP3    H1 2104   6.369   3.881   6.227 -0.4195 -0.2445  0.8122
  721TIP3    H2 2105   6.318   3.889   6.085 -0.9654  1.1197  1.0664
  722TIP3   OH2 2106   4.896   3.377   1.325 -0.0053 -0.4562  0.3393
  722TIP3    H1 2107   4.820   3.425   1.357 -1.2228 -0.6688 -2.0273
  722TIP3    H2 2108   4.971   3.422   1.365 -1.2608  1.0389  1.1373
  723TIP3   OH2 2109   0.524   6.228   3.632  0.2893  0.3179 -0.1732
  723TIP3    H1 2110   0.605   6.201   3.589 -0.2316 -1.0265 -0.3714
  723TIP3    H2 2111   0.466   6.255   3.560  0.8302  2.1802  0.0256
  724TIP3   OH2 2112   7.636   3.412   0.076 -0.0483  0.0608  0.5555
  724TIP3    H1 2113   7.678   3.330   0.099 -0.3454 -0.0883  0.5668
  724TIP3    H2 2114   7.642   3.416  -0.020  0.8745  0.5144  0.6212
  725TIP3   OH2 2115   5.025   0.167   3.588 -0.4226  0.4186 -0.6685
  725TIP3    H1 2116   5.024   0.248   3.536  0.4989  1.4754  0.8670
  725TIP3    H2 2117   5.013   0.197   3.678  3.6025 -0.6585  0.4425
  726TIP3   OH2 2118   4.914   3.038   2.562 -0.1264  0.2525  0.0873
  726TIP3    H1 2119   4.969   3.045   2.485 -0.3949 -2.5737 -0.4555
  726TIP3    H2 2120   4.971   3.000   2.629 -0.4650  0.6778  0.6251
  727TIP3   OH2 2121   5.540   3.601   4.821 -0.2844 -0.2662 -0.5561
  727TIP3    H1 2122   5.505   3.632   4.737 -0.9138 -0.9071 -0.5399
  727TIP3    H2 2123   5.478   3.635   4.886  0.7598  1.1093 -0.2328
  728TIP3   OH2 2124   6.456   0.347   4.594 -0.2650 -0.3652  0.9457
  728TIP3    H1 2125   6.470   0.286   4.522 -0.7881 -0.1164  0.6220
  728TIP3    H2 2126   6.544   0.371   4.623 -0.0592 -1.0723  0.9105
  729TIP3   OH2 2127   0.094   4.941   1.005  0.1758 -0.1378 -0.0544
  729TIP3    H1 2128   0.138   4.994   1.071  1.3094  0.8121 -1.4955
  729TIP3    H2 2129   0.001   4.943   1.030  0.2207  2.2485  0.1596
  730TIP3   OH2 2130   7.381   0.634   3.412  0.6794  0.5385 -0.6655
  730TIP3    H1 2131   7.450   0.637   3.478  1.6050 -0.7870 -1.5127
  730TIP3    H2 2132   7.427   0.650   3.329 -0.2405  0.8791 -1.1187
  731TIP3   OH2 2133   4.848   5.003   4.087 -0.6459 -0.4880  0.2190
  731TIP3    H1 2134   4.873   4.926   4.137  1.1553 -1.6677 -2.2842
  731TIP3    H2 2135   4.900   5.074   4.125 -0.5430 -0.9865  1.0335
  732TIP3   OH2 2136   3.797   4.533   1.473  0.2011  0.3016 -0.5588
  732TIP3    H1 2137   3.786   4.450   1.520 -1.4480  0.7214 -0.1384
  732TIP3    H2 2138   3.867   4.515   1.410  1.4129 -0.7324  0.9823
  733TIP3   OH2 2139   7.697   1.270   3.648  0.0772  0.5304  0.0964
  733TIP3    H1 2140   7.671   1.219   3.571 -1.6791  1.8009 -0.2231
  733TIP3    H2 2141   7.776   1.226   3.680 -1.4367 -2.5143  0.0141
  734TIP3   OH2 2142   0.276   2.200   3.091  0.2752 -0.1560 -0.5499
  734TIP3    H1 2143   0.202   2.179   3.034 -0.4663 -0.6308  0.5766
  734TIP3    H2 2144   0.353   2.193   3.033 -0.5465  0.5770 -1.7918
  735TIP3   OH2 2145   6.343   4.479   2.186 -0.5769  0.3880 -0.1264
  735TIP3    H1 2146   6.261   4.466   2.139 -1.3335 -0.9422  1.4471
  735TIP3    H2 2147   6.329   4.558   2.238  0.1905  1.7467 -1.9165
  736TIP3   OH2 2148   4.445   4.060   4.953 -0.4963  0.2615  0.2522
  736TIP3    H1 2149   4.486   4.146   4.958  1.7441 -0.7109 -0.2942
  736TIP3    H2 2150   4.383   4.067   4.880  1.1001  0.8775 -1.0981
  737TIP3   OH2 2151   3.507   6.453   2.287 -0.5820  0.5856  0.6579
  737TIP3    H1 2152   3.456   6.381   2.325 -0.9479 -0.4232 -1.6084
  737TIP3    H2 2153   3.594   6.445   2.328 -0.1138 -2.1967 -0.6582
  738TIP3   OH2 2154   4.069   0.022   0.038 -0.5728  0.1973  0.0996
  738TIP3    H1 2155   3.986   0.024  -0.010 -0.0847 -0.7871 -0.8191
  738TIP3    H2 2156   4.130   0.072  -0.018 -0.3496  0.2516  0.3899
  739TIP3   OH2 2157   4.028   2.536   1.994  0.2318  0.0948  0.4562
  739TIP3    H1 2158   4.124   2.535   1.987  0.1498 -0.1718 -0.8463
  739TIP3    H2 2159   3.999   2.465   1.937 -0.7309 -0.1517  1.2284
  740TIP3   OH2 2160   2.845   0.654   0.632 -0.3493 -0.1468  0.5885
  740TIP3    H1 2161   2.872   0.562   0.635  1.2845  0.2624 -0.2623
  740TIP3    H2 2162   2.760   0.653   0.588 -0.3892 -1.2496  0.6612
  741TIP3   OH2 2163   3.611   7.623   1.685 -0.7436  0.2282 -0.0719
  741TIP3    H1 2164   3.536   7.581   1.727 -0.7531  0.6280  0.3209
  741TIP3    H2 2165   3.582   7.640   1.596 -0.3133 -1.7069 -0.6256
  742TIP3   OH2 2166   7.480   0.647   6.481  0.7015 -0.2140 -0.3322
  742TIP3    H1 2167   7.472   0.554   6.501 -0.5713 -0.2621 -0.9627
  742TIP3    H2 2168   7.396   0.684   6.509  1.5176  0.9175  0.7411
  743TIP3   OH2 2169   2.195   2.386   3.488  0.0239  0.3316 -0.0223
  743TIP3    H1 2170   2.128   2.343   3.542  1.5692 -1.4751  0.5707
  743TIP3    H2 2171   2.248   2.314   3.454  1.5185  1.6849 -0.6869
  744TIP3   OH2 2172   6.448   3.534   6.090  0.1552 -0.2414  0.6365
  744TIP3    H1 2173   6.491   3.450   6.106  0.5992  0.2545  2.1812
  744TIP3    H2 2174   6.412   3.559   6.175 -0.8790  0.6377 -0.0457
  745TIP3   OH2 2175   2.892   1.145   4.768 -0.1429 -0.1258 -0.3310
  745TIP3    H1 2176   2.832   1.077   4.739  0.3711 -0.8854  0.3496
  745TIP3    H2 2177   2.961   1.098   4.816  0.8260  0.7455 -0.8119
  746TIP3   OH2 2178   7.816   0.765   5.347  0.0021  0.1604  0.6593
  746TIP3    H1 2179   7.881   0.735   5.410  1.8062  3.7688  0.7776
  746TIP3    H2 2180   7.845   0.852   5.322 -3.6413  1.0946 -1.0490
  747TIP3   OH2 2181   2.125   0.632   2.315 -0.0338 -0.0485  0.3390
  747TIP3    H1 2182   2.076   0.593   2.387  0.0004  0.4921  0.6565
  747TIP3    H2 2183   2.161   0.557   2.267 -1.6683 -0.4793 -0.2715
  748TIP3   OH2 2184   1.270   3.239   6.498 -0.7488  0.7378  0.0232
  748TIP3    H1 2185   1.284   3.215   6.590  0.3426 -2.2367 -0.8101
  748TIP3    H2 2186   1.358   3.253   6.464 -1.0249  0.2737 -0.9092
  749TIP3   OH2 2187   3.972   3.970   4.726 -0.1060  0.3947  0.0786
  749TIP3    H1 2188   3.945   4.003   4.640  0.9112 -0.0487 -0.4351
  749TIP3    H2 2189   4.049   3.916   4.708 -0.8260 -1.0487  1.0789
  750TIP3   OH2 2190   5.380   2.128   4.956 -0.2723  0.1415 -0.2115
  750TIP3    H1 2191   5.398   2.168   4.871 -0.8833  0.7413 -0.0730
  750TIP3    H2 2192   5.461   2.139   5.005 -0.4404  1.2788 -0.1613
  751TIP3   OH2 2193   4.488   7.364   6.733 -0.4725 -0.5516 -0.0944
  751TIP3    H1 2194   4.419   7.298   6.726 -0.5699 -0.6972  1.6501
  751TIP3    H2 2195   4.447   7.445   6.704 -0.7431 -1.0172 -1.0337
  752TIP3   OH2 2196   0.782   3.222   2.210  0.0366 -0.1554  0.0435
  752TIP3    H1 2197   0.728   3.301   2.215 -0.0204 -0.0131 -1.9970
  752TIP3    H2 2198   0.719   3.150   2.208 -0.2815  0.0588 -3.4928
  753TIP3   OH2 2199   4.466   4.383   4.159 -0.0397  0.4495  0.2292
  753TIP3    H1 2200   4.526   4.318   4.124 -1.5722  0.2429 -2.2994
  753TIP3    H2 2201   4.513   4.466   4.151  0.9733 -0.0192  1.0885
  754TIP3   OH2 2202   4.994   0.807   1.870  0.2524 -0.1994  0.2186
  754TIP3    H1 2203   4.940   0.728   1.868 -1.2042  0.7560  0.5977
  754TIP3    H2 2204   4.934   0.878   1.848  1.6861  0.7465 -0.8222
  755TIP3   OH2 2205   5.010   0.435   0.668 -0.1761  0.7826 -0.4062
  755TIP3    H1 2206   5.095   0.421   0.628  0.0867 -0.4565  0.5343
  755TIP3    H2 2207   5.026   0.428   0.762 -1.1938  1.2711 -0.1782
  756TIP3   OH2 2208   7.428   1.346   0.395 -0.2959 -0.0985  0.3134
  756TIP3    H1 2209   7.407   1.309   0.481 -0.3803 -1.3519 -0.2244
  756TIP3    H2 2210   7.455   1.271   0.343  1.9333  0.9253 -0.1340
  757TIP3   OH2 2211   2.845   6.329   0.314 -0.4782  0.0890 -0.0415
  757TIP3    H1 2212   2.891   6.264   0.261  0.3432 -0.8848  1.7547
  757TIP3    H2 2213   2.801   6.278   0.382 -1.9456  1.2388 -0.0811
  758TIP3   OH2 2214   7.004   3.815   1.035 -0.5807  0.5387 -0.1927
  758TIP3    H1 2215   6.970   3.895   0.995 -0.8680  0.7802  0.5279
  758TIP3    H2 2216   6.981   3.822   1.128 -1.8621 -1.0310 -0.3481
  759TIP3   OH2 2217   0.789   2.020   2.809  0.0906  0.2429 -0.3538
  759TIP3    H1 2218   0.870   2.030   2.860 -0.4710  0.4278  0.5402
  759TIP3    H2 2219   0.725   1.989   2.873 -0.7697  0.9690 -0.8394
  760TIP3   OH2 2220   5.068   4.911   0.239 -0.0458 -0.0237 -0.4161
  760TIP3    H1 2221   4.996   4.919   0.176  0.2938 -1.0727 -0.9613
  760TIP3    H2 2222   5.124   4.986   0.221 -0.8615  0.6555 -0.1711
  761TIP3   OH2 2223   0.255   3.714   0.089 -0.0097  0.2391 -0.3951
  761TIP3    H1 2224   0.287   3.624   0.080 -0.7223 -0.0755  0.1095
  761TIP3    H2 2225   0.280   3.739   0.178  0.2696  0.5719 -0.5684
  762TIP3   OH2 2226   8.397   5.339   3.977  0.5693 -0.1499 -0.2025
  762TIP3    H1 2227   8.442   5.419   3.952  1.6420  0.8397  4.2187
  762TIP3    H2 2228   8.313   5.368   4.013  1.3392 -0.8338  2.2875
  763TIP3   OH2 2229   0.641   0.214   1.446 -0.2145 -0.1746 -0.2108
  763TIP3    H1 2230   0.723   0.173   1.419  0.4627 -0.1896  1.7308
  763TIP3    H2 2231   0.575   0.146   1.432  0.1430 -0.3197 -1.3524
  764TIP3   OH2 2232   3.515   7.275   5.934 -0.1977 -0.0665 -0.5590
  764TIP3    H1 2233   3.595   7.300   5.980 -0.5993 -0.6080  0.4636
  764TIP3    H2 2234   3.444   7.313   5.986 -0.6022  0.9875 -1.8262
  765TIP3   OH2 2235   2.329   5.994   0.642  0.5816  0.0878  0.4846
  765TIP3    H1 2236   2.303   5.927   0.579  0.6602  1.0309 -0.5817
  765TIP3    H2 2237   2.400   6.042   0.599 -0.6828  2.0174  0.4145
  766TIP3   OH2 2238   7.370   1.323   4.127 -0.6427 -0.2354 -0.7046
  766TIP3    H1 2239   7.430   1.355   4.060  0.9891 -0.0619  0.7593
  766TIP3    H2 2240   7.413   1.245   4.162  0.0732  1.2421  2.0461
  767TIP3   OH2 2241   6.683   5.552   4.897 -0.0321 -0.1478  0.0368
  767TIP3    H1 2242   6.589   5.569   4.894 -0.0953  0.0490  2.0489
  767TIP3    H2 2243   6.690   5.456   4.900 -0.3047 -0.1448  1.9068
  768TIP3   OH2 2244   4.610   0.835   1.522 -0.2731 -0.4166 -0.1143
  768TIP3    H1 2245   4.564   0.871   1.598 -1.2583 -0.8362 -0.4957
  768TIP3    H2 2246   4.611   0.907   1.458 -0.8434 -0.5582 -0.2870
  769TIP3   OH2 2247   7.965   3.708   0.740  0.1260  0.5519 -0.2335
  769TIP3    H1 2248   8.043   3.702   0.796  0.5714  1.4026 -0.7411
  769TIP3    H2 2249   7.904   3.763   0.789 -0.7375 -1.2388  0.7901
  770TIP3   OH2 2250   6.350   2.364   4.309  0.7437  0.3452 -0.0232
  770TIP3    H1 2251   6.348   2.457   4.286  4.1946  0.4381 -0.5422
  770TIP3    H2 2252   6.390   2.361   4.396 -0.6412 -0.6459  0.6204
  771TIP3   OH2 2253   6.313   0.953   1.006 -0.7855  0.3101 -0.5803
  771TIP3    H1 2254   6.385   0.928   1.064  0.0266  1.4247 -1.0802
  771TIP3    H2 2255   6.245   0.986   1.065 -0.5711  0.0168 -0.1636
  772TIP3   OH2 2256   5.267   4.709   3.816 -0.5580 -0.1046 -1.0873
  772TIP3    H1 2257   5.194   4.655   3.788 -0.2283 -3.2414  3.2004
  772TIP3    H2 2258   5.245   4.736   3.905  1.9886  1.8554 -0.9348
  773TIP3   OH2 2259   3.879   3.626   5.072  0.8452 -0.2344 -0.3501
  773TIP3    H1 2260   3.847   3.711   5.043 -0.5013 -0.7689 -0.5410
  773TIP3    H2 2261   3.949   3.605   5.011  0.0689  0.0172 -1.3627
  774TIP3   OH2 2262   7.715   4.715   4.252 -0.1447 -0.2880  0.4781
  774TIP3    H1 2263   7.764   4.765   4.187  0.4429  0.7509  1.6749
  774TIP3    H2 2264   7.743   4.625   4.239 -1.8903 -0.5622 -2.3349
  775TIP3   OH2 2265   2.585   0.188   6.768  0.0378 -0.0643 -0.1189
  775TIP3    H1 2266   2.623   0.178   6.681  0.2472 -0.2894 -0.0012
  775TIP3    H2 2267   2.491   0.181   6.753  0.1233 -1.3513 -0.1657
  776TIP3   OH2 2268   1.163   1.475   1.607  0.7417 -0.0708 -0.0836
  776TIP3    H1 2269   1.127   1.562   1.594 -1.0043 -0.2785  2.6745
  776TIP3    H2 2270   1.256   1.490   1.622  0.6493  1.1996 -0.6452
  777TIP3   OH2 2271   1.729   3.777   1.405  0.2078 -0.1346  0.1761
  777TIP3    H1 2272   1.792   3.848   1.420 -0.3448  0.5472 -0.6530
  777TIP3    H2 2273   1.644   3.820   1.403 -0.1672 -0.8716 -0.0032
  778TIP3   OH2 2274   0.988   4.647   2.008  0.0876  0.6999  0.4502
  778TIP3    H1 2275   1.029   4.725   1.972  1.8671  0.5007  1.9122
  778TIP3    H2 2276   0.921   4.624   1.944  1.9694  1.2885 -1.8770
  779TIP3   OH2 2277   7.905   2.041   6.121  0.0083 -0.0354 -0.0965
  779TIP3    H1 2278   7.972   2.091   6.167  0.6092 -0.5982 -0.3474
  779TIP3    H2 2279   7.927   2.051   6.029  0.5542 -1.3001 -0.1321
  780TIP3   OH2 2280   2.805   2.476   1.053 -0.3469 -0.4236 -0.2659
  780TIP3    H1 2281   2.894   2.504   1.076 -0.6414  0.6755 -0.4215
  780TIP3    H2 2282   2.816   2.387   1.021  0.8753  0.0922 -1.3744
  781TIP3   OH2 2283   1.402   1.984   4.943  0.0396  0.5006  0.3838
  781TIP3    H1 2284   1.398   2.073   4.976  2.1511  0.2535  1.5173
  781TIP3    H2 2285   1.400   1.929   5.021  2.3419 -0.2321  0.0089
  782TIP3   OH2 2286   4.041   6.463   0.468 -0.3143  0.2350  0.4217
  782TIP3    H1 2287   4.072   6.372   0.463 -1.0575  0.0394 -2.2434
  782TIP3    H2 2288   4.045   6.494   0.378 -1.2263  2.4804  1.0953
  783TIP3   OH2 2289   7.285   3.454   0.881 -0.1040  0.1602 -0.0584
  783TIP3    H1 2290   7.269   3.368   0.919 -1.8028  0.4145 -0.1191
  783TIP3    H2 2291   7.344   3.438   0.808 -0.6158 -0.9984 -0.2315
  784TIP3   OH2 2292   3.575   1.957   0.127 -0.2782 -0.3015  1.1837
  784TIP3    H1 2293   3.508   1.900   0.091  1.8547 -2.5903  0.5504
  784TIP3    H2 2294   3.569   2.037   0.074 -0.9520 -1.3866 -0.4445
  785TIP3   OH2 2295   3.165   1.104   4.445  0.7287 -0.0853 -0.3563
  785TIP3    H1 2296   3.259   1.116   4.432  0.9428  1.1876  1.8873
  785TIP3    H2 2297   3.153   1.109   4.540 -1.6140 -0.1287 -0.5991
  786TIP3   OH2 2298   7.655   2.856   4.572 -0.3605 -0.2479 -0.4401
  786TIP3    H1 2299   7.742   2.815   4.578  0.2228  0.9301 -0.5848
  786TIP3    H2 2300   7.596   2.783   4.554  0.3616 -1.2936  1.2286
  787TIP3   OH2 2301   6.541   4.109   2.326 -0.0071  0.1641  0.7649
  787TIP3    H1 2302   6.549   4.174   2.256  0.9581 -1.1769 -0.4268
  787TIP3    H2 2303   6.482   4.149   2.389 -0.8197  1.4837 -0.7509
  788TIP3   OH2 2304   4.327   2.293   2.210 -0.1280  0.8756  0.0698
  788TIP3    H1 2305   4.391   2.231   2.174  1.5868  0.8857  2.7524
  788TIP3    H2 2306   4.244   2.269   2.168  0.3378 -3.4723  1.0848
  789TIP3   OH2 2307   1.218   3.987   0.578 -0.0698 -0.5029 -0.3645
  789TIP3    H1 2308   1.237   4.076   0.548  0.5802 -0.4690  0.1130
  789TIP3    H2 2309   1.183   3.998   0.666  1.5090 -0.7772  0.3422
  790TIP3   OH2 2310   5.542   4.884   3.343 -0.2868 -0.2937  0.2272
  790TIP3    H1 2311   5.551   4.958   3.283  1.2433 -0.6463 -0.0131
  790TIP3    H2 2312   5.450   4.858   3.335 -0.0909 -0.5122 -2.2268
  791TIP3   OH2 2313   0.350   7.132   6.665  0.5068 -0.1179  0.2214
  791TIP3    H1 2314   0.400   7.214   6.664  0.2082  0.0625 -0.3748
  791TIP3    H2 2315   0.327   7.119   6.757 -1.0116  1.4448  0.1166
  792TIP3   OH2 2316   3.973   4.237   6.224 -0.6145 -0.4993 -0.7273
  792TIP3    H1 2317   4.031   4.210   6.153  0.3498  1.1540 -0.6050
  792TIP3    H2 2318   3.959   4.157   6.275  1.5288 -0.9616 -0.7683
  793TIP3   OH2 2319   1.558   6.033   2.270 -0.8632  0.3337 -0.0070
  793TIP3    H1 2320   1.539   6.052   2.362 -0.0875 -1.0304  0.4649
  793TIP3    H2 2321   1.617   5.957   2.273  0.0860  0.9650 -1.5929
  794TIP3   OH2 2322   0.777   5.789   1.986  0.5507  0.0579 -0.5903
  794TIP3    H1 2323   0.713   5.821   2.051  2.2607 -1.1705  1.8428
  794TIP3    H2 2324   0.829   5.866   1.964 -1.3567  0.9674 -2.2429
  795TIP3   OH2 2325   4.759   6.315   2.258  0.3093  0.0784 -0.7426
  795TIP3    H1 2326   4.737   6.336   2.349 -2.6285  2.4083 -1.8046
  795TIP3    H2 2327   4.832   6.373   2.237  0.4263  0.1701 -0.0968
  796TIP3   OH2 2328   6.986   3.170   6.754  0.0250  0.0782  0.4615
  796TIP3    H1 2329   7.020   3.257   6.731  0.2042  0.3028  1.5553
  796TIP3    H2 2330   7.058   3.127   6.800 -0.3103 -0.3838  0.5680
  797TIP3   OH2 2331   1.397   2.222   3.000  0.0491  0.3483  0.5040
  797TIP3    H1 2332   1.474   2.199   2.948  0.1255 -1.0719  1.2112
  797TIP3    H2 2333   1.432   2.243   3.086 -0.1512  2.0112  0.2168
  798TIP3   OH2 2334   3.902   4.663   0.178  0.1258 -0.3256 -0.0751
  798TIP3    H1 2335   3.952   4.742   0.199 -1.2829  0.5120  0.2280
  798TIP3    H2 2336   3.822   4.696   0.138 -0.6574 -1.6043  0.4090
  799TIP3   OH2 2337   8.013   5.040   4.525 -0.1115  0.1198  0.1369
  799TIP3    H1 2338   8.050   5.127   4.512 -0.2769  0.2216  0.3401
  799TIP3    H2 2339   8.060   4.984   4.462 -1.7823  0.8315 -1.8526
  800TIP3   OH2 2340   2.374   3.818   4.586  0.1591 -0.2424 -0.3955
  800TIP3    H1 2341   2.362   3.724   4.572 -0.2578 -0.3994  0.9413
  800TIP3    H2 2342   2.404   3.850   4.501 -0.8831 -1.3745 -1.2417
  801TIP3   OH2 2343   3.438   5.477   4.350 -0.2332 -0.3178  0.0359
  801TIP3    H1 2344   3.396   5.546   4.299 -1.8032 -1.9268 -1.0201
  801TIP3    H2 2345   3.530   5.479   4.324 -0.3208  1.1074 -0.2234
  802TIP3   OH2 2346   7.890   2.069   2.845  0.6162 -0.8911 -0.7111
  802TIP3    H1 2347   7.841   2.003   2.894  0.7271 -0.8449 -0.5355
  802TIP3    H2 2348   7.832   2.094   2.773  0.1718 -0.4839 -0.2273
  803TIP3   OH2 2349   4.740   5.452   2.726 -0.3774  0.9867 -0.2150
  803TIP3    H1 2350   4.721   5.501   2.646  1.0020  2.6854  0.4407
  803TIP3    H2 2351   4.823   5.408   2.708 -0.9650 -0.1079 -0.3343
  804TIP3   OH2 2352   0.136   7.877   3.127  0.8494  0.3262  0.1451
  804TIP3    H1 2353   0.209   7.858   3.067  0.9327  0.6609  0.1357
  804TIP3    H2 2354   0.123   7.796   3.176  1.4416  0.3624  0.3708
  805TIP3   OH2 2355   4.182   2.894   0.936 -0.3873 -0.3865  0.0555
  805TIP3    H1 2356   4.195   2.862   1.025 -0.0241 -0.9312 -0.1875
  805TIP3    H2 2357   4.267   2.928   0.910 -0.8129  0.9694  0.3707
  806TIP3   OH2 2358   3.151   3.946   1.033  0.4781 -0.5415  0.4820
  806TIP3    H1 2359   3.189   3.863   1.003  1.5957 -0.3983  1.4593
  806TIP3    H2 2360   3.172   4.008   0.963  1.1155 -0.7109  0.5131
  807TIP3   OH2 2361   2.097   5.846   1.849  0.3474 -0.5178 -0.0272
  807TIP3    H1 2362   2.033   5.789   1.807  1.6339 -2.3927  0.3835
  807TIP3    H2 2363   2.125   5.906   1.781  0.3679 -1.6731 -1.0760
  808TIP3   OH2 2364   3.996   4.391   4.459  0.0735 -0.3869  0.0625
  808TIP3    H1 2365   4.012   4.317   4.401  1.1294 -0.9089  0.9854
  808TIP3    H2 2366   3.987   4.466   4.400 -0.7823 -1.1928 -0.8701
  809TIP3   OH2 2367   2.657   6.900   5.896  0.0672 -0.1898 -0.4080
  809TIP3    H1 2368   2.615   6.982   5.922 -0.6846  0.0588 -2.2798
  809TIP3    H2 2369   2.627   6.837   5.961 -1.6438  0.4273 -0.5379
  810TIP3   OH2 2370   2.740   3.224   5.849  0.0195  0.4518 -0.2350
  810TIP3    H1 2371   2.763   3.228   5.942 -0.5659  1.3845 -0.1142
  810TIP3    H2 2372   2.646   3.208   5.848  0.0130  0.5074 -0.6658
  811TIP3   OH2 2373   0.626   4.198   0.882  0.2217 -0.3585 -0.1231
  811TIP3    H1 2374   0.653   4.149   0.805 -1.6544  0.7349 -1.5420
  811TIP3    H2 2375   0.561   4.260   0.850 -0.0743  0.6460  2.2205
  812TIP3   OH2 2376   4.484   1.212   2.939 -0.3118  0.2266  0.6469
  812TIP3    H1 2377   4.534   1.184   3.016  1.2251 -0.2803 -0.4888
  812TIP3    H2 2378   4.515   1.301   2.922 -0.9264  0.4795  0.8174
  813TIP3   OH2 2379   7.250   3.988   4.031 -0.0045  0.1066 -0.4103
  813TIP3    H1 2380   7.300   4.065   4.060  0.7094 -0.5173  0.0324
  813TIP3    H2 2381   7.268   3.921   4.096 -1.1749 -0.2441 -0.4248
  814TIP3   OH2 2382   6.226   4.362   6.365 -0.0318 -0.1488  0.2218
  814TIP3    H1 2383   6.285   4.377   6.291 -1.3322  0.2615 -0.8007
  814TIP3    H2 2384   6.210   4.450   6.401 -1.8215  0.1149 -1.0361
  815TIP3   OH2 2385   1.494   3.003   6.136  0.3770 -0.2040 -0.5664
  815TIP3    H1 2386   1.421   3.001   6.198  0.1908 -0.8120 -0.7997
  815TIP3    H2 2387   1.506   3.096   6.117  0.8188  0.0394  0.8132
  816TIP3   OH2 2388   5.212   0.467   6.164  0.0925 -0.1331 -0.4074
  816TIP3    H1 2389   5.305   0.483   6.148  0.3232 -0.9686  0.0037
  816TIP3    H2 2390   5.184   0.417   6.087 -0.5848  2.0013 -1.6150
  817TIP3   OH2 2391   6.853   1.995   5.301 -0.7434  0.0433 -0.2682
  817TIP3    H1 2392   6.859   2.076   5.351  1.0681 -0.7545  0.9111
  817TIP3    H2 2393   6.916   2.006   5.230  0.5474 -0.7898  0.6865
  818TIP3   OH2 2394   4.362   0.558   6.834 -0.5896  0.4296 -0.2971
  818TIP3    H1 2395   4.337   0.488   6.894 -0.6516  1.2511  0.6627
  818TIP3    H2 2396   4.440   0.525   6.790 -1.2589 -0.6954 -0.6949
  819TIP3   OH2 2397   6.592   1.788   6.605 -0.1901 -0.0548  0.0624
  819TIP3    H1 2398   6.636   1.863   6.646 -0.7832 -0.7020  1.9682
  819TIP3    H2 2399   6.531   1.828   6.543 -0.6527  1.0628  1.2004
  820TIP3   OH2 2400   5.351   0.121   3.758  0.0973  0.0538  0.0094
  820TIP3    H1 2401   5.281   0.126   3.693  1.1558 -0.4613 -1.2381
  820TIP3    H2 2402   5.368   0.212   3.782  0.5347  0.3969 -1.4467
  821TIP3   OH2 2403   4.837   2.567   3.197 -0.0656  0.9287  0.0591
  821TIP3    H1 2404   4.753   2.584   3.155 -0.6532 -0.2460  0.6998
  821TIP3    H2 2405   4.827   2.481   3.237  0.9844  1.3524  1.3143
  822TIP3   OH2 2406   7.040   6.643   4.179 -0.9181  0.0476 -0.0422
  822TIP3    H1 2407   7.080   6.594   4.107 -0.4476  0.2543  0.0726
  822TIP3    H2 2408   6.948   6.620   4.175 -1.0422  0.6617 -1.1993
  823TIP3   OH2 2409   3.949   7.472   0.880  0.3293 -0.3439 -0.2042
  823TIP3    H1 2410   3.855   7.491   0.881  0.7327  2.0285 -0.2062
  823TIP3    H2 2411   3.968   7.452   0.788  0.2648  2.1699 -0.8407
  824TIP3   OH2 2412   2.211   1.764   6.756  0.2044 -0.2860  0.4819
  824TIP3    H1 2413   2.156   1.720   6.821  2.2739  0.3547  2.8161
  824TIP3    H2 2414   2.283   1.704   6.740  0.3707  0.1036 -0.2978
  825TIP3   OH2 2415   3.861   0.528   6.334  0.1631  0.1077 -0.7492
  825TIP3    H1 2416   3.902   0.579   6.264  1.3153  0.2217 -0.0064
  825TIP3    H2 2417   3.878   0.437   6.309 -1.9181  0.0006 -2.0894
  826TIP3   OH2 2418   5.311   3.185   1.412 -0.3472 -0.2151 -0.0929
  826TIP3    H1 2419   5.336   3.095   1.430 -0.6097  0.0925  1.9934
  826TIP3    H2 2420   5.218   3.189   1.434 -0.4391  0.4714 -0.5744
  827TIP3   OH2 2421   3.295   3.390   3.554 -0.0945 -0.4585  0.1037
  827TIP3    H1 2422   3.353   3.465   3.542 -1.5019  0.7352  0.3841
  827TIP3    H2 2423   3.347   3.325   3.600  1.0680  0.4802  0.1511
  828TIP3   OH2 2424   7.170   4.987   3.724  0.5514  0.2466 -0.1734
  828TIP3    H1 2425   7.107   4.940   3.780  0.8564 -1.2601 -1.0314
  828TIP3    H2 2426   7.152   5.079   3.740 -1.9293 -0.1130 -0.3965
  829TIP3   OH2 2427   0.273   7.773   5.183  0.1589  0.3364 -0.1027
  829TIP3    H1 2428   0.183   7.742   5.189  0.2040  0.2296  0.0416
  829TIP3    H2 2429   0.292   7.807   5.270  0.6414 -0.7150  0.2269
  830TIP3   OH2 2430   7.201   0.610   1.105 -0.0012  0.3567 -0.8269
  830TIP3    H1 2431   7.107   0.625   1.100 -0.0011  0.9627  0.4582
  830TIP3    H2 2432   7.239   0.698   1.114  0.5094  0.0156  0.6404
  831TIP3   OH2 2433   3.556   2.621   3.859 -0.1573  0.3468  0.1815
  831TIP3    H1 2434   3.566   2.554   3.927 -1.1712 -0.9302 -0.8565
  831TIP3    H2 2435   3.631   2.608   3.801  0.8960  1.6652  1.2073
  832TIP3   OH2 2436   8.236   7.536   0.247  0.0174 -0.3460 -0.0127
  832TIP3    H1 2437   8.149   7.531   0.286  0.2318 -0.0079  0.5168
  832TIP3    H2 2438   8.293   7.565   0.318  1.0401 -2.9840  0.3345
  833TIP3   OH2 2439   5.619   6.409   1.229 -0.6433  0.4826  0.0287
  833TIP3    H1 2440   5.596   6.326   1.186  0.0489  0.7763 -0.9368
  833TIP3    H2 2441   5.534   6.452   1.243 -0.9948 -0.2928  0.3577
  834TIP3   OH2 2442   3.781   0.323   2.275 -0.3320  0.3156  0.4126
  834TIP3    H1 2443   3.746   0.234   2.283  1.3228 -0.5301 -1.1587
  834TIP3    H2 2444   3.825   0.339   2.359  0.5402 -0.9070  0.2074
  835TIP3   OH2 2445   0.189   4.228   6.640  0.1125 -1.1326 -0.1659
  835TIP3    H1 2446   0.284   4.221   6.628  0.4062 -2.5708  2.2390
  835TIP3    H2 2447   0.177   4.306   6.693 -0.5449  1.3440 -3.5972
  836TIP3   OH2 2448   7.356   5.313   2.029  0.5502  0.1912  0.1355
  836TIP3    H1 2449   7.264   5.323   2.002  0.7773  1.1338 -0.3182
  836TIP3    H2 2450   7.370   5.384   2.092  1.4015  1.0763 -1.0023
  837TIP3   OH2 2451   4.335   6.751   1.819  0.0346 -0.0181 -0.5166
  837TIP3    H1 2452   4.279   6.808   1.767 -0.1861  0.4352  0.1980
  837TIP3    H2 2453   4.397   6.810   1.862 -0.8478 -0.1628  1.0483
  838TIP3   OH2 2454   6.646   6.405   2.092  0.5003  0.3034  0.2013
  838TIP3    H1 2455   6.578   6.432   2.154  0.3554 -1.7008  0.9843
  838TIP3    H2 2456   6.624   6.315   2.070  1.8197  0.2571 -1.0656
  839TIP3   OH2 2457   2.456   0.756   4.088  0.2025  0.0620 -0.3056
  839TIP3    H1 2458   2.441   0.753   4.183  0.6254  0.4361 -0.2225
  839TIP3    H2 2459   2.539   0.802   4.079 -0.2147  0.7166 -0.8966
  840TIP3   OH2 2460   4.106   4.567   4.761  0.4435 -0.3150 -0.1622
  840TIP3    H1 2461   4.098   4.477   4.729  0.0662 -0.0322 -0.8731
  840TIP3    H2 2462   4.150   4.614   4.690 -1.6739  0.6496 -0.9000
  841TIP3   OH2 2463   5.507   2.772   2.999 -0.1194 -0.2247  0.3431
  841TIP3    H1 2464   5.450   2.794   3.073 -0.4694 -0.4208  0.1347
  841TIP3    H2 2465   5.528   2.679   3.012 -0.0023 -0.2037  0.3110
  842TIP3   OH2 2466   7.957   2.236   0.312 -0.4467 -0.2744  0.2742
  842TIP3    H1 2467   7.926   2.304   0.253 -1.6223 -1.0596 -0.0544
  842TIP3    H2 2468   8.048   2.221   0.287 -0.6121  0.1610 -0.6149
  843TIP3   OH2 2469   6.023   0.526   4.244  0.5936 -0.1374 -0.6267
  843TIP3    H1 2470   6.004   0.442   4.204  1.0051 -0.0752 -0.9601
  843TIP3    H2 2471   6.105   0.512   4.291 -0.2473 -0.4171  0.8338
  844TIP3   OH2 2472   3.666   0.888   3.071 -0.6148  0.3272  0.6314
  844TIP3    H1 2473   3.728   0.822   3.100 -1.1808 -0.7559 -0.5515
  844TIP3    H2 2474   3.718   0.950   3.021 -0.2708  0.1533  0.7696
  845TIP3   OH2 2475   4.334   3.689   0.062 -0.2952 -0.3968  0.4193
  845TIP3    H1 2476   4.354   3.646   0.145  1.9858 -1.5938 -0.6493
  845TIP3    H2 2477   4.398   3.760   0.055 -0.2401 -0.5114 -0.4230
  846TIP3   OH2 2478   7.547   3.670   3.594  0.0100  0.1996 -0.3605
  846TIP3    H1 2479   7.542   3.745   3.535  1.4396  0.0635 -0.6916
  846TIP3    H2 2480   7.640   3.664   3.617 -0.2091 -0.9952  0.2832
  847TIP3   OH2 2481   0.721   4.800   2.950  0.3447 -0.6523  0.5693
  847TIP3    H1 2482   0.647   4.761   2.996  0.0231 -2.4441 -1.3022
  847TIP3    H2 2483   0.681   4.850   2.878  0.8833 -1.3929 -0.2747
  848TIP3   OH2 2484   0.936   4.888   0.832  0.1323  0.2122  0.3430
  848TIP3    H1 2485   0.985   4.812   0.801  0.7150  0.0004  1.7305
  848TIP3    H2 2486   0.907   4.864   0.920  1.2687  1.9829  1.2601
  849TIP3   OH2 2487   7.539   0.751   5.370 -0.8864 -0.7577  0.4580
  849TIP3    H1 2488   7.540   0.833   5.319 -0.9783 -1.6840 -1.1038
  849TIP3    H2 2489   7.631   0.725   5.375 -1.0645 -2.1873 -1.9132
  850TIP3   OH2 2490   4.764   1.868   4.929  0.5328  0.3141  0.0973
  850TIP3    H1 2491   4.746   1.856   5.022 -2.2113 -2.1581 -0.5783
  850TIP3    H2 2492   4.688   1.917   4.897  1.2662  0.8093 -0.9324
  851TIP3   OH2 2493   2.766   1.221   0.517 -0.0884 -0.0637 -0.4643
  851TIP3    H1 2494   2.723   1.306   0.504 -0.2696  0.0828  0.8770
  851TIP3    H2 2495   2.703   1.157   0.485 -0.1245  0.2911 -1.1097
  852TIP3   OH2 2496   8.103   2.500   6.263 -0.3924 -0.2912 -0.1226
  852TIP3    H1 2497   8.175   2.487   6.324 -0.4861  1.4569  0.4159
  852TIP3    H2 2498   8.142   2.492   6.177 -0.0814 -1.8962  0.1445
  853TIP3   OH2 2499   0.913   6.404   2.148 -1.0230 -0.3379 -0.0429
  853TIP3    H1 2500   0.896   6.496   2.171  1.0898 -0.1249  0.9212
  853TIP3    H2 2501   0.875   6.354   2.219 -2.6643 -0.2725 -0.8440
  854TIP3   OH2 2502   5.286   4.759   2.762 -0.3267 -0.5546  0.4309
  854TIP3    H1 2503   5.276   4.670   2.794  2.4100 -0.8115  0.8121
  854TIP3    H2 2504   5.290   4.813   2.841  1.4223 -0.5823  0.4177
  855TIP3   OH2 2505   2.144   5.395   2.919 -0.3164 -0.5085  0.1938
  855TIP3    H1 2506   2.076   5.350   2.970 -0.6735  0.2531  0.4114
  855TIP3    H2 2507   2.225   5.352   2.944 -0.6306 -0.9226  0.5193
  856TIP3   OH2 2508   3.112   0.092   5.801 -0.0180  0.1078 -0.0237
  856TIP3    H1 2509   3.042   0.155   5.811  1.3502  1.9108 -1.1445
  856TIP3    H2 2510   3.072   0.007   5.821 -1.6570  1.3807  2.6083
  857TIP3   OH2 2511   8.344   2.774   4.055 -0.1121 -0.2941  0.6526
  857TIP3    H1 2512   8.316   2.800   3.967  0.1107 -3.2069 -0.3981
  857TIP3    H2 2513   8.280   2.707   4.081  1.3587 -1.4057  1.5385
  858TIP3   OH2 2514   3.866   3.344   3.877  0.0964 -0.6444  0.2598
  858TIP3    H1 2515   3.955   3.354   3.842  1.0680 -5.9746  0.4302
  858TIP3    H2 2516   3.878   3.344   3.972 -0.0089 -1.5051  0.2804
  859TIP3   OH2 2517   8.149   4.997   4.152  0.6480 -0.2430  0.8725
  859TIP3    H1 2518   8.194   4.969   4.071  2.0149  1.0218  1.1444
  859TIP3    H2 2519   8.057   5.002   4.127  1.0370  0.1439 -0.6297
  860TIP3   OH2 2520   4.725   6.037   2.525 -0.0204 -0.1734 -0.1404
  860TIP3    H1 2521   4.784   6.046   2.450 -1.2862 -0.1023 -1.1575
  860TIP3    H2 2522   4.765   6.091   2.593  0.9916  0.0060 -0.8488
  861TIP3   OH2 2523   2.553   7.566   4.234 -0.0099  0.3844  0.1663
  861TIP3    H1 2524   2.517   7.606   4.155  1.1964 -0.3718 -0.8056
  861TIP3    H2 2525   2.509   7.481   4.240 -0.2398  0.5199  0.4291
  862TIP3   OH2 2526   1.584   3.661   0.181  0.0607 -0.2774 -0.0491
  862TIP3    H1 2527   1.493   3.638   0.162 -0.0336 -0.0716  0.1449
  862TIP3    H2 2528   1.592   3.650   0.276  0.2036 -0.1785 -0.0494
  863TIP3   OH2 2529   6.947   0.398   6.057  0.7199  0.5166  0.3068
  863TIP3    H1 2530   6.943   0.336   5.985  0.3385  1.4369 -0.4875
  863TIP3    H2 2531   7.039   0.398   6.083  1.2619  1.5359 -1.4340
  864TIP3   OH2 2532   6.759   2.445   2.956 -0.1271 -0.3571  0.0583
  864TIP3    H1 2533   6.701   2.414   2.886 -1.4198 -1.2160  1.4596
  864TIP3    H2 2534   6.812   2.368   2.978 -0.5246 -0.4227  0.7919
  865TIP3   OH2 2535   0.044   1.286   0.694  0.4300 -0.0457  0.1256
  865TIP3    H1 2536   0.103   1.327   0.631  0.9706  0.6099  1.0218
  865TIP3    H2 2537   0.086   1.302   0.779 -0.5041 -0.5081  0.6884
  866TIP3   OH2 2538   1.983   3.200   2.673 -0.3337 -0.7750 -0.0928
  866TIP3    H1 2539   2.017   3.235   2.755  0.0902  1.3292 -1.0970
  866TIP3    H2 2540   1.897   3.165   2.696 -1.7897  2.8967  0.7308
  867TIP3   OH2 2541   6.293   7.730   6.322 -0.3009  0.3567  0.3418
  867TIP3    H1 2542   6.381   7.714   6.290  0.2424  0.3265  1.7800
  867TIP3    H2 2543   6.238   7.667   6.276  0.4473  0.2748 -0.4500
  868TIP3   OH2 2544   5.498   5.040   6.770  0.4329  0.4789 -0.1148
  868TIP3    H1 2545   5.585   5.061   6.736  1.5655 -0.1407  2.1849
  868TIP3    H2 2546   5.459   5.125   6.791  0.0376  0.8205 -2.0276
  869TIP3   OH2 2547   7.840   5.667   4.664 -0.0940 -0.1502 -0.1636
  869TIP3    H1 2548   7.780   5.593   4.654 -2.0138  1.2767  0.2307
  869TIP3    H2 2549   7.864   5.691   4.575  2.7484 -2.8373 -0.2839
  870TIP3   OH2 2550   0.028   4.110   1.689  0.4064  0.1688  0.2945
  870TIP3    H1 2551   0.084   4.156   1.626  0.3739  0.4987  0.5068
  870TIP3    H2 2552   0.084   4.041   1.725 -0.3122 -1.8460 -2.0766
  871TIP3   OH2 2553   4.782   1.702   2.909 -0.8192  0.1697  0.4119
  871TIP3    H1 2554   4.788   1.608   2.925 -0.3756 -0.2097 -1.7577
  871TIP3    H2 2555   4.691   1.724   2.931 -1.5171 -1.1884 -0.9206
  872TIP3   OH2 2556   7.191   5.102   5.123  0.2212  0.4540 -0.1469
  872TIP3    H1 2557   7.239   5.127   5.202 -1.4719 -0.3421  1.2060
  872TIP3    H2 2558   7.101   5.088   5.153 -0.2022 -1.1675 -1.9755
  873TIP3   OH2 2559   4.220   4.431   3.615 -0.7770 -0.1532  0.6661
  873TIP3    H1 2560   4.302   4.435   3.664 -0.7786 -0.3589  0.6892
  873TIP3    H2 2561   4.229   4.354   3.559 -0.2022  0.8928 -0.7176
  874TIP3   OH2 2562   4.674   6.928   2.552 -0.4364 -0.4073  0.0348
  874TIP3    H1 2563   4.689   6.932   2.458  0.4309  0.7861  0.2075
  874TIP3    H2 2564   4.762   6.928   2.591 -0.7835  1.0212  0.8908
  875TIP3   OH2 2565   1.370   7.824   0.880 -0.2037  0.6071  1.1858
  875TIP3    H1 2566   1.403   7.737   0.903 -0.2290  0.3582  0.2985
  875TIP3    H2 2567   1.280   7.825   0.914 -0.9029 -0.4630 -0.5250
  876TIP3   OH2 2568   3.887   0.396  -0.013 -0.1759 -0.4351 -0.5444
  876TIP3    H1 2569   3.814   0.350   0.028 -0.2192 -0.9565 -1.1962
  876TIP3    H2 2570   3.873   0.488   0.010 -0.4225 -0.6603  0.2533
  877TIP3   OH2 2571   4.625   1.166   6.776 -0.3145  0.3911 -0.7238
  877TIP3    H1 2572   4.640   1.108   6.701  1.8831  0.7697 -0.6423
  877TIP3    H2 2573   4.667   1.248   6.753 -0.5591  0.8841  0.4822
  878TIP3   OH2 2574   7.473   6.412   6.157 -0.1792 -0.1573  0.0049
  878TIP3    H1 2575   7.545   6.358   6.126 -0.7342 -0.1536 -1.3656
  878TIP3    H2 2576   7.394   6.364   6.132 -0.6626  0.6402 -0.0528
  879TIP3   OH2 2577   7.675   7.034   6.086 -0.2335  0.0424 -0.4928
  879TIP3    H1 2578   7.605   6.970   6.103  1.3109 -1.5877 -0.0375
  879TIP3    H2 2579   7.714   7.005   6.003  0.2758  0.6101 -0.4533
  880TIP3   OH2 2580   4.125   4.522   3.271  0.5366 -0.6640 -0.2127
  880TIP3    H1 2581   4.141   4.611   3.302 -1.2261 -0.6275  0.7066
  880TIP3    H2 2582   4.122   4.469   3.350  0.8320 -1.4314 -0.7028
  881TIP3   OH2 2583   3.433   0.709   3.307  0.7753 -0.0568 -0.8611
  881TIP3    H1 2584   3.473   0.634   3.351 -2.0370 -1.5420 -0.5884
  881TIP3    H2 2585   3.416   0.772   3.377  0.9648 -0.1948 -0.6903
  882TIP3   OH2 2586   7.080   1.113   5.708 -0.1368  0.3995  0.0760
  882TIP3    H1 2587   7.134   1.036   5.723  1.5156  1.4443 -0.3125
  882TIP3    H2 2588   7.091   1.166   5.786  0.3776  1.1655 -0.5039
  883TIP3   OH2 2589   3.191   5.670   2.379 -0.0605 -0.4345  1.1074
  883TIP3    H1 2590   3.122   5.731   2.402 -0.7785 -0.1408 -1.4690
  883TIP3    H2 2591   3.215   5.627   2.461 -4.2192 -1.5204  1.9621
  884TIP3   OH2 2592   3.113   0.815   3.249 -0.6415 -0.1888  0.1307
  884TIP3    H1 2593   3.206   0.836   3.244 -0.7319  0.5541  1.2053
  884TIP3    H2 2594   3.078   0.841   3.164 -0.2659  1.6952  0.5047
  885TIP3   OH2 2595   1.569   2.056   4.105 -0.6508  0.0201 -0.5905
  885TIP3    H1 2596   1.481   2.018   4.105  0.4225 -2.7182 -1.3627
  885TIP3    H2 2597   1.605   2.035   4.191 -0.4223  0.2667 -0.6230
  886TIP3   OH2 2598   5.153   4.930   2.430  0.5356 -0.2784  0.0227
  886TIP3    H1 2599   5.165   4.970   2.517  0.2725 -3.7930  1.8394
  886TIP3    H2 2600   5.129   4.840   2.448  2.1760 -1.6849 -3.7423
  887TIP3   OH2 2601   0.988   6.223   0.948 -0.1881 -0.1138 -0.4680
  887TIP3    H1 2602   1.053   6.294   0.955 -0.5681  0.1406  0.7335
  887TIP3    H2 2603   0.904   6.266   0.962 -0.7016 -0.3528 -2.5581
  888TIP3   OH2 2604   6.854   7.492   1.667  0.2299  0.1319  0.3379
  888TIP3    H1 2605   6.848   7.587   1.662 -0.7558  0.0341 -0.7506
  888TIP3    H2 2606   6.948   7.473   1.659  0.2772  0.9388 -1.2515
  889TIP3   OH2 2607   6.263   0.686   0.714  0.1243 -0.2199  0.4769
  889TIP3    H1 2608   6.192   0.626   0.689  0.9456 -0.8928 -0.2755
  889TIP3    H2 2609   6.340   0.631   0.722  0.4866  0.4325  1.7936
  890TIP3   OH2 2610   3.970   6.308   5.536 -0.4560 -0.5006  0.2659
  890TIP3    H1 2611   4.060   6.321   5.505 -0.1659  0.7833  1.5386
  890TIP3    H2 2612   3.974   6.226   5.586 -0.6910 -2.0084 -2.0725
  891TIP3   OH2 2613   0.913   6.825   2.752  0.0269 -0.4508 -0.0895
  891TIP3    H1 2614   0.959   6.872   2.682  3.0994  1.7762  3.0326
  891TIP3    H2 2615   0.840   6.883   2.775  2.1646  1.7308  1.8667
  892TIP3   OH2 2616   2.793   4.541   0.609  0.3266  0.0536  0.1344
  892TIP3    H1 2617   2.747   4.538   0.525  0.3223 -1.8390  0.1623
  892TIP3    H2 2618   2.730   4.579   0.670 -0.6206 -0.9853 -0.1775
  893TIP3   OH2 2619   0.755   2.756   2.349 -0.1150  0.1290 -0.0352
  893TIP3    H1 2620   0.735   2.700   2.423 -1.9200 -0.5426 -0.9585
  893TIP3    H2 2621   0.821   2.709   2.299  0.2151  0.0133  0.5165
  894TIP3   OH2 2622   7.281   1.948   4.885  0.6865  1.1046  0.4627
  894TIP3    H1 2623   7.230   1.933   4.806  1.8320  1.3621 -0.3369
  894TIP3    H2 2624   7.260   2.039   4.910  1.1911  1.4091 -0.1963
  895TIP3   OH2 2625   0.250   3.328   4.635  0.3937  0.5185  0.4338
  895TIP3    H1 2626   0.263   3.364   4.723  1.8411  0.0539  0.4401
  895TIP3    H2 2627   0.276   3.237   4.642  1.2234  0.6508 -0.6285
  896TIP3   OH2 2628   1.601   5.945   3.393  0.2197  0.7184 -0.2638
  896TIP3    H1 2629   1.613   5.851   3.384 -0.8249  0.7920 -3.5747
  896TIP3    H2 2630   1.507   5.957   3.407  0.2547  1.2925 -0.4790
  897TIP3   OH2 2631   8.152   6.453   4.897 -0.3092  0.2965 -0.2487
  897TIP3    H1 2632   8.243   6.468   4.871 -1.1019 -0.5609 -3.9955
  897TIP3    H2 2633   8.126   6.535   4.940  2.2405  0.4414  1.2455
  898TIP3   OH2 2634   6.715   1.533   6.548 -0.5368  0.0575  0.4714
  898TIP3    H1 2635   6.807   1.519   6.567 -0.9016 -0.9558  1.6504
  898TIP3    H2 2636   6.701   1.626   6.567  0.6939  0.8133 -1.9524
  899TIP3   OH2 2637   5.012   1.664   3.264 -0.1686 -0.6033 -0.7506
  899TIP3    H1 2638   5.048   1.750   3.240 -0.1467 -0.1906  0.6671
  899TIP3    H2 2639   5.058   1.602   3.207  1.6142  0.0859 -0.1392
  900TIP3   OH2 2640   1.087   6.105   3.670  0.3154 -0.4601 -0.1925
  900TIP3    H1 2641   1.007   6.063   3.703  1.3914 -2.0119  0.5439
  900TIP3    H2 2642   1.058   6.191   3.639 -1.6761 -1.0835 -0.1727
  901TIP3   OH2 2643   4.326   0.987   0.839  0.1702 -0.1100  0.0866
  901TIP3    H1 2644   4.274   1.027   0.768  0.2723 -1.0823 -0.5608
  901TIP3    H2 2645   4.304   0.894   0.835  1.4761 -0.4439  0.2190
  902TIP3   OH2 2646   0.170   5.997   0.413 -0.1580 -0.1728 -0.0004
  902TIP3    H1 2647   0.246   5.950   0.446 -0.6693 -1.2962 -0.3986
  902TIP3    H2 2648   0.160   6.071   0.473  0.8133 -0.4059  0.4685
  903TIP3   OH2 2649   1.923   3.384   1.135  0.5229 -0.6819 -0.4687
  903TIP3    H1 2650   1.852   3.443   1.161  1.2376  0.1362 -0.3054
  903TIP3    H2 2651   1.946   3.338   1.216  0.0585 -1.0796 -0.5625
  904TIP3   OH2 2652   4.175   5.723   2.658  0.1881 -0.2034 -0.1570
  904TIP3    H1 2653   4.125   5.741   2.578 -0.3813 -1.1714 -0.0486
  904TIP3    H2 2654   4.108   5.705   2.724  0.6367 -1.9725 -0.1123
  905TIP3   OH2 2655   0.552   1.591   3.023 -0.4626 -0.3480 -0.4241
  905TIP3    H1 2656   0.550   1.586   3.119 -0.6790  2.2009 -0.2243
  905TIP3    H2 2657   0.643   1.569   3.001 -1.4831 -6.5097 -0.2721
  906TIP3   OH2 2658   5.824   4.132   0.558 -0.6074 -0.2195 -0.0921
  906TIP3    H1 2659   5.745   4.113   0.608 -0.9882 -0.8984 -0.9274
  906TIP3    H2 2660   5.893   4.082   0.600 -0.9940 -1.0577 -0.4416
  907TIP3   OH2 2661   7.470   4.535   4.590 -0.2575  0.1101 -0.5796
  907TIP3    H1 2662   7.440   4.473   4.656  1.9324 -0.2718  0.1503
  907TIP3    H2 2663   7.544   4.580   4.631  0.5064  0.6156 -2.3935
  908TIP3   OH2 2664   5.197   7.616   6.115  0.0303 -0.6900  0.1579
  908TIP3    H1 2665   5.102   7.608   6.126 -0.1482  1.2010  0.4541
  908TIP3    H2 2666   5.207   7.680   6.045  1.0884 -1.0598 -0.0330
  909TIP3   OH2 2667   0.089   4.596   0.500  0.1184  0.3760 -0.0224
  909TIP3    H1 2668   0.013   4.653   0.504 -0.7245 -0.7523  0.6853
  909TIP3    H2 2669   0.113   4.581   0.592  1.9859  1.6989 -0.2307
  910TIP3   OH2 2670   6.321   0.036   0.200  0.1850 -0.2347 -0.4674
  910TIP3    H1 2671   6.256   0.077   0.257 -1.1798 -1.5934 -0.9705
  910TIP3    H2 2672   6.357  -0.035   0.251  0.6676 -0.0036 -0.4859
  911TIP3   OH2 2673   7.513   1.055   4.127  0.3765 -0.6544 -0.0085
  911TIP3    H1 2674   7.463   0.978   4.101 -1.0782  0.4433 -0.5837
  911TIP3    H2 2675   7.591   1.053   4.072 -1.0881 -0.1419 -2.2270
  912TIP3   OH2 2676   3.540   3.400   4.367  0.6018 -0.4389  0.2381
  912TIP3    H1 2677   3.582   3.446   4.440  0.3406  2.2812 -1.2057
  912TIP3    H2 2678   3.571   3.446   4.289 -0.0934 -2.4769 -1.3015
  913TIP3   OH2 2679   1.942   1.882   5.438 -0.1997  0.6761  0.3056
  913TIP3    H1 2680   1.927   1.973   5.412  1.0286  0.7765 -0.1160
  913TIP3    H2 2681   2.008   1.888   5.507  1.3720  0.0221 -1.0729
  914TIP3   OH2 2682   8.356   3.397   6.208 -0.1261 -0.0841  0.0887
  914TIP3    H1 2683   8.441   3.437   6.190 -0.1228 -0.4461 -0.7583
  914TIP3    H2 2684   8.343   3.410   6.302  0.4673  0.7406  0.0720
  915TIP3   OH2 2685   4.695   3.897   2.541 -0.0583 -0.6540 -0.8450
  915TIP3    H1 2686   4.757   3.969   2.533 -0.7490 -0.2135 -3.1424
  915TIP3    H2 2687   4.662   3.903   2.631  0.3805  1.5136 -0.7694
  916TIP3   OH2 2688   5.898   1.997   3.031  0.6350  0.3821  0.2787
  916TIP3    H1 2689   5.836   2.068   3.045 -0.7916 -0.7098 -0.2438
  916TIP3    H2 2690   5.843   1.920   3.015  2.0891 -0.2225 -2.3682
  917TIP3   OH2 2691   1.462   7.522   3.927  0.5231  0.2280  0.1067
  917TIP3    H1 2692   1.402   7.575   3.981 -1.5848 -0.2965 -1.5844
  917TIP3    H2 2693   1.526   7.585   3.894 -1.3488  1.6041 -1.0700
  918TIP3   OH2 2694   1.606   6.041   4.663  0.1368  0.0977  0.0951
  918TIP3    H1 2695   1.696   6.066   4.682 -0.3347  2.4527 -0.4889
  918TIP3    H2 2696   1.588   5.968   4.723  2.3277 -0.2757  0.3667
  919TIP3   OH2 2697   7.484   0.953   5.581 -0.4027 -0.0544  0.1217
  919TIP3    H1 2698   7.455   0.880   5.527 -1.4580  0.7844 -0.4886
  919TIP3    H2 2699   7.440   0.941   5.665  0.9492 -1.1572  0.7070
  920TIP3   OH2 2700   4.363   3.356   1.696 -0.0691  0.3832 -0.2885
  920TIP3    H1 2701   4.422   3.334   1.768  1.9599  0.9845 -1.6863
  920TIP3    H2 2702   4.413   3.336   1.617 -2.4450 -0.8717 -1.6052
  921TIP3   OH2 2703   4.343   2.439   0.587 -0.3040 -0.3555  0.2219
  921TIP3    H1 2704   4.381   2.499   0.522  0.9981 -1.2885  0.0812
  921TIP3    H2 2705   4.411   2.373   0.601 -0.4443 -0.0603  2.7170
  922TIP3   OH2 2706   4.957   0.583   1.595 -0.3177  0.4944 -0.1669
  922TIP3    H1 2707   4.973   0.502   1.643 -0.2646 -0.4351 -1.6917
  922TIP3    H2 2708   4.862   0.598   1.604 -0.0431  1.3568  1.7285
  923TIP3   OH2 2709   2.481   6.523   2.192  0.1701  0.2056 -0.0204
  923TIP3    H1 2710   2.553   6.584   2.208 -0.3054  0.6544  0.4648
  923TIP3    H2 2711   2.506   6.444   2.239  0.9821 -0.1358 -0.9851
  924TIP3   OH2 2712   1.122   5.316   6.554  0.1494  0.1214  0.1727
  924TIP3    H1 2713   1.169   5.378   6.499 -0.5823  0.6547  0.1411
  924TIP3    H2 2714   1.184   5.295   6.625  0.2136  1.2936  0.4810
  925TIP3   OH2 2715   4.167   3.287   0.603  0.6775  0.3458  0.1145
  925TIP3    H1 2716   4.131   3.198   0.601 -0.4986  0.7624 -3.0958
  925TIP3    H2 2717   4.202   3.296   0.692 -0.1656 -2.8883  0.9364
  926TIP3   OH2 2718   1.781   7.276   2.587  0.2887 -0.1980 -0.4358
  926TIP3    H1 2719   1.856   7.217   2.579 -0.3823 -1.3585  1.2195
  926TIP3    H2 2720   1.708   7.226   2.549 -0.2121 -0.3288  0.6535
  927TIP3   OH2 2721   7.785   7.718   2.095  0.3309  0.0856  0.0733
  927TIP3    H1 2722   7.714   7.747   2.037  0.4283  0.2494  0.0368
  927TIP3    H2 2723   7.810   7.632   2.060 -1.4008 -1.0623  1.4434
  928TIP3   OH2 2724   2.685   6.946   4.128 -0.4854  0.0425 -0.8901
  928TIP3    H1 2725   2.655   6.882   4.063  0.3790 -0.6788 -0.5985
  928TIP3    H2 2726   2.760   6.904   4.170  0.3568  1.4075 -0.9625
  929TIP3   OH2 2727   2.210   4.651   1.157  0.1571  0.2631  0.1173
  929TIP3    H1 2728   2.167   4.714   1.099  0.0533 -0.4434 -0.5816
  929TIP3    H2 2729   2.151   4.644   1.232 -0.9055 -0.6086 -0.7740
  930TIP3   OH2 2730   2.495   0.747   4.377 -0.0232  0.1070  0.6480
  930TIP3    H1 2731   2.587   0.722   4.378 -0.4126 -1.5737 -0.9591
  930TIP3    H2 2732   2.487   0.810   4.449  2.0489 -0.8398  1.7972
  931TIP3   OH2 2733   4.706   7.307   6.129 -0.0769  0.6410  0.3700
  931TIP3    H1 2734   4.756   7.295   6.047 -0.7350  0.5803 -0.0309
  931TIP3    H2 2735   4.645   7.233   6.129 -1.1416  1.5041  0.1319
  932TIP3   OH2 2736   0.077   4.639   2.012  0.1613 -0.1273 -0.4502
  932TIP3    H1 2737  -0.004   4.590   2.023  0.2015  0.2367  1.9393
  932TIP3    H2 2738   0.057   4.727   2.044  0.6018  0.9945 -2.9676
  933TIP3   OH2 2739   7.914   7.397   2.543  0.2540  0.3796  0.0156
  933TIP3    H1 2740   7.830   7.360   2.570 -0.4064  2.0409  0.3594
  933TIP3    H2 2741   7.948   7.440   2.621  0.6622  1.0702 -0.5285
  934TIP3   OH2 2742   0.523   0.922   4.215  0.0924 -0.2198 -0.1276
  934TIP3    H1 2743   0.522   0.922   4.119 -1.6305  2.8640 -0.2294
  934TIP3    H2 2744   0.561   1.007   4.239  0.3228 -0.8503  1.9474
  935TIP3   OH2 2745   0.529   1.280   6.384  0.2135 -0.5218 -0.1407
  935TIP3    H1 2746   0.530   1.242   6.472  3.0017  0.3117  0.2691
  935TIP3    H2 2747   0.560   1.210   6.327 -0.2154 -0.6174 -0.2609
  936TIP3   OH2 2748   0.447   6.995   0.255  0.5332  0.0425  0.5199
  936TIP3    H1 2749   0.480   7.046   0.329  0.3928 -0.4719  0.9430
  936TIP3    H2 2750   0.400   7.059   0.201  0.0598  0.2979  1.2207
  937TIP3   OH2 2751   5.968   3.397   0.844  0.1272 -0.2987 -0.1552
  937TIP3    H1 2752   5.948   3.423   0.754 -1.1917  0.1453  0.2429
  937TIP3    H2 2753   5.896   3.339   0.868  0.3159 -0.1873  0.7127
  938TIP3   OH2 2754   2.130   2.593   5.526  0.2871  0.1151  0.1328
  938TIP3    H1 2755   2.119   2.662   5.591  3.3709 -0.1446  1.0776
  938TIP3    H2 2756   2.070   2.524   5.553  0.4348  0.6216  1.8741
  939TIP3   OH2 2757   0.757   3.581  -0.013  0.5491  0.3614  0.0858
  939TIP3    H1 2758   0.799   3.657   0.026 -1.6951  1.5379  0.3616
  939TIP3    H2 2759   0.734   3.525   0.062 -0.0318  0.6250  0.1099
  940TIP3   OH2 2760   0.076   3.110   0.640  0.0479 -0.0159 -0.2329
  940TIP3    H1 2761   0.056   3.077   0.728 -0.6529  2.5412  0.6820
  940TIP3    H2 2762   0.019   3.060   0.582  1.4967 -2.7161  0.5112
  941TIP3   OH2 2763   6.280   7.595   6.078  0.1940 -0.3548 -1.0055
  941TIP3    H1 2764   6.236   7.667   6.033  0.5317 -0.1820 -1.0613
  941TIP3    H2 2765   6.224   7.519   6.062  0.4874 -0.3672 -2.0185
  942TIP3   OH2 2766   3.252   6.238   6.327  0.6043  0.4296 -0.0111
  942TIP3    H1 2767   3.235   6.144   6.325 -0.7400  0.6618 -0.1229
  942TIP3    H2 2768   3.307   6.254   6.250 -1.3765  0.1133 -1.5878
  943TIP3   OH2 2769   4.209   7.228   4.638 -0.3850 -0.1939  0.0460
  943TIP3    H1 2770   4.177   7.305   4.591  1.0152 -0.2545 -1.0825
  943TIP3    H2 2771   4.131   7.176   4.654 -1.3773  1.4458  0.8702
  944TIP3   OH2 2772   0.938   1.634   1.150 -0.1238 -0.2425  0.1206
  944TIP3    H1 2773   1.018   1.675   1.117  0.6996 -1.2441  0.8265
  944TIP3    H2 2774   0.886   1.708   1.183 -0.3726  0.6304 -2.0467
  945TIP3   OH2 2775   2.502   4.007   2.448  0.2298  0.6744 -0.2954
  945TIP3    H1 2776   2.447   3.996   2.526  0.8440  0.3545  0.1060
  945TIP3    H2 2777   2.469   3.942   2.386  0.9367 -0.4080  0.4080
  946TIP3   OH2 2778   6.010   5.224   6.015  0.1495 -0.4168  0.9015
  946TIP3    H1 2779   6.039   5.314   5.999  0.3561 -0.6294  0.0836
  946TIP3    H2 2780   6.081   5.169   5.981 -0.9886 -0.9322 -0.7378
  947TIP3   OH2 2781   7.085   6.025   5.359  0.4291 -0.1748  0.1380
  947TIP3    H1 2782   7.077   6.120   5.348 -2.3391 -0.4400 -1.0338
  947TIP3    H2 2783   7.119   5.994   5.275  0.3345 -0.2915  0.1429
  948TIP3   OH2 2784   2.660   6.578   3.860 -0.5397  0.0208  0.4554
  948TIP3    H1 2785   2.645   6.661   3.816 -0.4254 -0.3817 -0.3487
  948TIP3    H2 2786   2.737   6.542   3.818 -0.1032 -0.1251  1.3542
  949TIP3   OH2 2787   2.468   6.544   3.196 -0.5508 -0.0043  0.3945
  949TIP3    H1 2788   2.549   6.555   3.147 -0.9378 -0.4942 -0.3812
  949TIP3    H2 2789   2.403   6.522   3.130 -1.2944  0.2627  1.0209
  950TIP3   OH2 2790   2.122   1.413   2.111  0.2769 -0.3494  0.2194
  950TIP3    H1 2791   2.167   1.346   2.059  0.3663  2.2546 -3.4558
  950TIP3    H2 2792   2.030   1.406   2.085  0.5108  1.7927 -1.3848
  951TIP3   OH2 2793   1.623   2.982   1.601  0.1604 -0.0990 -0.5790
  951TIP3    H1 2794   1.628   2.966   1.507  3.2870 -0.3669 -0.4686
  951TIP3    H2 2795   1.540   2.942   1.628 -0.8648  0.0750 -3.1773
  952TIP3   OH2 2796   5.708   1.390   3.250  0.2635 -0.1911  0.2157
  952TIP3    H1 2797   5.690   1.484   3.241 -0.8428 -0.4785 -0.9665
  952TIP3    H2 2798   5.793   1.378   3.208  0.6213  0.3455  0.7733
  953TIP3   OH2 2799   1.813   3.877   5.869 -0.6526  0.4196  0.0996
  953TIP3    H1 2800   1.869   3.900   5.795 -0.6377  3.5822  0.9493
  953TIP3    H2 2801   1.870   3.883   5.946 -0.9211 -1.7679  0.5328
  954TIP3   OH2 2802   6.995   3.069   4.349  0.0589 -0.4078  0.1513
  954TIP3    H1 2803   6.901   3.083   4.334  0.4483  0.5206 -1.7636
  954TIP3    H2 2804   7.016   2.994   4.294  0.6198  0.0522 -0.2754
  955TIP3   OH2 2805   5.070   5.496   5.392 -0.0839  0.1971  0.2971
  955TIP3    H1 2806   4.990   5.545   5.371  0.4169  0.1943 -1.9134
  955TIP3    H2 2807   5.131   5.563   5.422  0.1711  0.8040 -1.4339
  956TIP3   OH2 2808   5.209   1.803   1.622  0.1353  0.4982 -0.8546
  956TIP3    H1 2809   5.252   1.760   1.696  1.5146 -0.0629 -1.9454
  956TIP3    H2 2810   5.277   1.858   1.583 -0.2680  0.0515 -2.2596
  957TIP3   OH2 2811   3.731   4.363   4.182  0.2225  0.4782 -0.3307
  957TIP3    H1 2812   3.747   4.321   4.097  0.0222  2.6776 -1.5336
  957TIP3    H2 2813   3.813   4.351   4.230  1.0187  0.7527 -1.5675
  958TIP3   OH2 2814   7.753   7.395   1.069 -0.0637 -0.2783 -0.0455
  958TIP3    H1 2815   7.766   7.483   1.031  0.5070 -0.2172  0.2828
  958TIP3    H2 2816   7.661   7.394   1.096  0.0586  0.4082  0.4215
  959TIP3   OH2 2817   3.656   7.545   3.400 -0.5226  0.1461 -0.6102
  959TIP3    H1 2818   3.749   7.543   3.422  0.2162  0.2068 -3.3251
  959TIP3    H2 2819   3.617   7.475   3.452  1.2085 -0.4803 -0.0898
  960TIP3   OH2 2820   0.706   2.275   5.819  0.0623 -0.0579  0.1737
  960TIP3    H1 2821   0.755   2.198   5.790  1.5454  1.1498 -0.6648
  960TIP3    H2 2822   0.624   2.271   5.771  0.0263 -1.2197  0.3022
  961TIP3   OH2 2823   4.244   7.731   6.422 -0.4582 -0.2800 -0.4334
  961TIP3    H1 2824   4.197   7.814   6.409 -1.0901 -0.6064 -0.2759
  961TIP3    H2 2825   4.321   7.738   6.366  1.2289  1.7479  1.9002
  962TIP3   OH2 2826   7.185   0.738   0.194 -0.0742  0.6111 -0.2421
  962TIP3    H1 2827   7.235   0.723   0.275  0.7427  0.8170 -0.6961
  962TIP3    H2 2828   7.149   0.826   0.204 -0.5449  0.3752  0.1861
  963TIP3   OH2 2829   8.155   6.541   5.437 -0.3872  0.5553 -0.5966
  963TIP3    H1 2830   8.224   6.510   5.378 -0.0038 -1.2076  0.7021
  963TIP3    H2 2831   8.075   6.498   5.405 -0.1817 -0.3903  0.1181
  964TIP3   OH2 2832   7.302   5.712   2.406  0.1028 -0.5543 -0.6457
  964TIP3    H1 2833   7.306   5.783   2.471 -0.2884 -0.9757 -0.1515
  964TIP3    H2 2834   7.227   5.735   2.351  1.2070  0.4793 -1.7683
  965TIP3   OH2 2835   4.813   6.319   5.451 -0.4425 -0.1358 -0.5099
  965TIP3    H1 2836   4.721   6.323   5.476  0.3081 -0.4592  2.7537
  965TIP3    H2 2837   4.848   6.244   5.499  1.9059  1.1061 -0.1201
  966TIP3   OH2 2838   4.340   7.861   1.820  0.0902  0.5446 -0.0239
  966TIP3    H1 2839   4.361   7.858   1.727 -1.5360 -0.4660 -0.3915
  966TIP3    H2 2840   4.311   7.951   1.835  1.3758  1.0166 -0.2210
  967TIP3   OH2 2841   6.354   0.063   3.427 -0.2029  0.0865 -0.5596
  967TIP3    H1 2842   6.362   0.155   3.400 -0.2290 -0.2843 -1.8962
  967TIP3    H2 2843   6.297   0.065   3.504  0.3689  1.2530 -0.1398
  968TIP3   OH2 2844   2.334   0.328   1.449  0.2468 -0.3299 -0.4358
  968TIP3    H1 2845   2.262   0.272   1.421  1.0025 -0.7533 -1.5800
  968TIP3    H2 2846   2.391   0.271   1.500 -0.1014 -0.0384  0.3104
  969TIP3   OH2 2847   5.417   4.732   6.064  0.4289 -0.2427 -0.1480
  969TIP3    H1 2848   5.400   4.809   6.009 -0.4208 -1.1095 -1.1454
  969TIP3    H2 2849   5.482   4.682   6.015  0.4280 -0.5202  0.1350
  970TIP3   OH2 2850   7.087   5.525   0.648 -0.4122 -0.4934 -0.8128
  970TIP3    H1 2851   7.105   5.439   0.686 -0.1860 -0.0925 -0.0112
  970TIP3    H2 2852   7.052   5.505   0.561 -0.8229 -1.4121 -0.4525
  971TIP3   OH2 2853   5.642   2.326   3.249 -0.4052  0.1596  0.0251
  971TIP3    H1 2854   5.552   2.299   3.230 -0.3431 -0.0849  0.0781
  971TIP3    H2 2855   5.693   2.293   3.176 -0.5941  1.7128 -0.8606
  972TIP3   OH2 2856   3.537   5.178   0.997  0.6304 -0.8073 -0.7001
  972TIP3    H1 2857   3.482   5.191   0.920 -1.1961 -2.1719  0.3010
  972TIP3    H2 2858   3.527   5.086   1.019  2.7457 -0.9294  0.0075
  973TIP3   OH2 2859   4.167   0.559   3.403 -0.0132  0.0304  0.1899
  973TIP3    H1 2860   4.111   0.496   3.358  2.0012 -0.8329 -1.2162
  973TIP3    H2 2861   4.201   0.615   3.333  0.6575  0.7299  1.0589
  974TIP3   OH2 2862   6.945   4.163   5.014 -0.1445  0.2616  0.3980
  974TIP3    H1 2863   6.912   4.074   5.023  2.5771 -1.0010 -0.9461
  974TIP3    H2 2864   6.998   4.178   5.092  0.6863  0.0369 -0.1009
  975TIP3   OH2 2865   3.068   1.477   5.508  0.1706 -0.1992 -0.1216
  975TIP3    H1 2866   3.013   1.547   5.543  1.1681  0.8598 -0.5972
  975TIP3    H2 2867   3.130   1.457   5.579  1.3064  0.9796 -0.7501
  976TIP3   OH2 2868   2.518   6.420   3.468  0.3751  0.3839 -0.6094
  976TIP3    H1 2869   2.429   6.392   3.489  0.7246  0.3527  0.9863
  976TIP3    H2 2870   2.508   6.478   3.393 -1.2874  2.1499  0.8550
  977TIP3   OH2 2871   4.193   7.085   6.188  0.2788 -0.5162 -0.1505
  977TIP3    H1 2872   4.231   7.009   6.144  0.9971 -0.3500  0.1690
  977TIP3    H2 2873   4.259   7.110   6.253  0.3616  0.8005 -0.7194
  978TIP3   OH2 2874   6.771   0.448   0.631 -0.2724  0.2586  0.2644
  978TIP3    H1 2875   6.727   0.527   0.601 -1.0791 -0.6728 -1.1435
  978TIP3    H2 2876   6.862   0.460   0.606 -0.7116  0.0255 -1.5585
  979TIP3   OH2 2877   7.550   5.074   3.560  0.1055  0.7352 -0.5268
  979TIP3    H1 2878   7.613   5.035   3.620 -0.2939 -0.0423 -0.5941
  979TIP3    H2 2879   7.526   5.003   3.501  1.4724  1.8125 -2.4835
  980TIP3   OH2 2880   0.375   6.910   5.151 -0.0227 -0.4781  0.2506
  980TIP3    H1 2881   0.316   6.954   5.212 -1.0900  0.1560 -1.1691
  980TIP3    H2 2882   0.318   6.852   5.100  0.6473 -0.2741 -0.7705
  981TIP3   OH2 2883   1.639   5.320   0.353  0.3629  0.3274  0.5539
  981TIP3    H1 2884   1.564   5.325   0.293  1.4157 -0.9269 -0.9521
  981TIP3    H2 2885   1.613   5.373   0.428 -2.6100 -1.1365  0.7208
  982TIP3   OH2 2886   6.597   7.581   4.395  0.0639 -0.4627  0.5477
  982TIP3    H1 2887   6.659   7.620   4.456  0.7782 -1.1661  0.2976
  982TIP3    H2 2888   6.607   7.631   4.315  1.8558 -1.8338 -0.1621
  983TIP3   OH2 2889   4.248   0.136   4.395 -0.3052  0.2933  0.0239
  983TIP3    H1 2890   4.324   0.080   4.406  0.3001  1.1594  0.4226
  983TIP3    H2 2891   4.256   0.202   4.464 -1.0369  0.8176 -0.3655
  984TIP3   OH2 2892   0.899   5.442   2.274  0.3679 -0.3604  0.2218
  984TIP3    H1 2893   0.828   5.428   2.336 -0.2410 -1.1367 -0.6314
  984TIP3    H2 2894   0.953   5.363   2.281 -1.1689 -1.7241 -2.1099
  985TIP3   OH2 2895   5.692   1.296   2.829  0.4848 -0.6780 -0.2528
  985TIP3    H1 2896   5.720   1.380   2.866  1.2348 -1.2316  0.5006
  985TIP3    H2 2897   5.742   1.288   2.748  0.2030 -0.2810 -0.4718
  986TIP3   OH2 2898   7.105   5.868   1.020 -0.4497 -0.5575 -0.5716
  986TIP3    H1 2899   7.101   5.962   1.004 -0.8113 -0.3731  0.5643
  986TIP3    H2 2900   7.175   5.857   1.085 -0.9187 -0.9983 -0.1353
  987TIP3   OH2 2901   6.556   4.488   5.372  0.4396  0.3736  0.3373
  987TIP3    H1 2902   6.535   4.522   5.285  0.5288  1.6517  0.7969
  987TIP3    H2 2903   6.524   4.398   5.371 -1.7875  1.1021 -0.2292
  988TIP3   OH2 2904   3.981   7.148   2.763  0.6305 -0.5442  0.5522
  988TIP3    H1 2905   3.932   7.204   2.825  0.4441  0.5785 -0.5578
  988TIP3    H2 2906   3.938   7.164   2.679  2.2833 -0.2891 -0.2769
  989TIP3   OH2 2907   1.278   2.576   1.252 -0.2165 -0.2069 -0.2590
  989TIP3    H1 2908   1.277   2.486   1.285 -0.2326 -0.5117 -1.0774
  989TIP3    H2 2909   1.351   2.578   1.190  1.4971  1.0529  1.6405
  990TIP3   OH2 2910   6.552   0.784   4.413  0.1255 -0.3207  0.0943
  990TIP3    H1 2911   6.605   0.830   4.478 -0.3077 -2.1322  1.8287
  990TIP3    H2 2912   6.609   0.715   4.380 -0.4861 -1.0173  0.4734
  991TIP3   OH2 2913   3.849   6.022   6.328 -0.5731  0.3142 -0.0606
  991TIP3    H1 2914   3.944   6.020   6.316 -0.7688 -0.0657 -1.9120
  991TIP3    H2 2915   3.815   6.050   6.243 -2.0996  1.0806  0.7616
  992TIP3   OH2 2916   2.601   6.499   1.425 -0.1926  0.3587 -0.0998
  992TIP3    H1 2917   2.687   6.494   1.383 -0.3467 -0.5222 -0.3252
  992TIP3    H2 2918   2.608   6.574   1.485  0.0833  1.5642 -1.5647
  993TIP3   OH2 2919   1.796   6.514   4.422  0.2022 -0.6691  0.0199
  993TIP3    H1 2920   1.824   6.438   4.371  1.4541 -1.2959  1.5480
  993TIP3    H2 2921   1.870   6.573   4.421  1.3061 -1.7853  3.0488
  994TIP3   OH2 2922   8.236   6.751   1.379  0.2771 -0.0552  0.3044
  994TIP3    H1 2923   8.161   6.695   1.359 -0.5728  1.2623 -0.3109
  994TIP3    H2 2924   8.306   6.689   1.402 -1.6443 -1.2769  3.4707
  995TIP3   OH2 2925   0.099   0.897   3.009 -0.5727  0.0753 -0.1040
  995TIP3    H1 2926   0.074   0.982   2.975  0.2578  0.5766  0.4817
  995TIP3    H2 2927   0.087   0.837   2.936 -0.2053  0.8716 -0.8386
  996TIP3   OH2 2928   6.818   1.412   5.988  0.3368  0.0699  0.0426
  996TIP3    H1 2929   6.773   1.487   6.028 -2.8547 -1.3162 -0.6533
  996TIP3    H2 2930   6.816   1.430   5.894 -0.8360 -0.9966 -0.1687
  997TIP3   OH2 2931   3.218   7.138   3.210  0.1621  0.2004 -0.4221
  997TIP3    H1 2932   3.305   7.175   3.219 -0.1584  0.9271 -0.2156
  997TIP3    H2 2933   3.195   7.152   3.118 -0.6090  2.0464  0.0104
  998TIP3   OH2 2934   3.147   0.134   2.416 -0.6712 -0.6686  0.0799
  998TIP3    H1 2935   3.213   0.073   2.382 -0.8499 -0.5023 -0.5936
  998TIP3    H2 2936   3.198   0.209   2.447 -0.5704 -0.0206 -1.5195
  999TIP3   OH2 2937   0.952   6.612   5.401  0.3868  0.4330 -0.2519
  999TIP3    H1 2938   0.969   6.522   5.431  1.0198  0.2024 -1.2405
  999TIP3    H2 2939   1.035   6.658   5.415 -0.0130  0.9454  0.4915
 1000TIP3   OH2 2940   3.820   1.479   6.287 -0.1250 -0.4631  0.0463
 1000TIP3    H1 2941   3.863   1.547   6.236 -0.4991 -0.9118 -0.9152
 1000TIP3    H2 2942   3.786   1.418   6.221 -2.2011 -0.1444  0.7290
 1001TIP3   OH2 2943   3.878   0.007   3.125  0.4654 -0.6760  0.4359
 1001TIP3    H1 2944   3.846   0.078   3.069 -0.8487 -1.2323  0.4295
 1001TIP3    H2 2945   3.827   0.015   3.205  2.3365  0.1185  1.6178
 1002TIP3   OH2 2946   2.722   1.266   4.993 -0.0040 -0.0809 -0.3979
 1002TIP3    H1 2947   2.729   1.347   5.044 -1.6004  0.1593 -0.5063
 1002TIP3    H2 2948   2.805   1.260   4.946  0.8086  0.6013  0.8925
 1003TIP3   OH2 2949   7.257   4.753   2.636  0.1996 -0.2466  0.2980
 1003TIP3    H1 2950   7.254   4.760   2.540  0.9292  2.2575  0.4027
 1003TIP3    H2 2951   7.340   4.793   2.661  0.2687 -1.3275  1.9798
 1004TIP3   OH2 2952   4.262   6.725   0.549  0.2703 -0.3796 -1.0787
 1004TIP3    H1 2953   4.209   6.677   0.613 -0.4090  0.2766 -1.1267
 1004TIP3    H2 2954   4.269   6.814   0.586 -2.7377  0.9555 -3.2408
 1005TIP3   OH2 2955   5.101   2.656   4.865  0.8397 -0.5369  0.1354
 1005TIP3    H1 2956   5.075   2.647   4.957 -1.2496  1.7116 -0.1468
 1005TIP3    H2 2957   5.172   2.720   4.866  0.8951 -0.5989  0.1913
 1006TIP3   OH2 2958   1.226   2.161   1.919  0.1394 -0.5878 -0.2078
 1006TIP3    H1 2959   1.177   2.085   1.950 -0.5986  0.0353  0.1836
 1006TIP3    H2 2960   1.159   2.222   1.887  0.7774 -0.5186 -1.4679
 1007TIP3   OH2 2961   6.609   3.602   3.988 -0.2479 -0.3449  0.3862
 1007TIP3    H1 2962   6.683   3.647   4.028 -1.6422  1.9291  0.6442
 1007TIP3    H2 2963   6.648   3.537   3.930  1.9392  0.7523  0.5250
 1008TIP3   OH2 2964   5.113   5.264   1.624 -0.0975 -0.4820 -0.1570
 1008TIP3    H1 2965   5.153   5.214   1.695 -0.6677 -1.4462 -0.4997
 1008TIP3    H2 2966   5.073   5.198   1.568 -1.4049  0.4050 -0.2977
 1009TIP3   OH2 2967   8.334   2.861   6.268 -0.8187  0.5053  0.1840
 1009TIP3    H1 2968   8.419   2.865   6.223 -0.4490  0.2072  0.8457
 1009TIP3    H2 2969   8.335   2.777   6.314 -2.0273 -0.1258 -0.8639
 1010TIP3   OH2 2970   5.741   2.076   5.811  0.3090  0.3757  0.1577
 1010TIP3    H1 2971   5.695   2.054   5.730 -0.5899 -0.5088  0.8841
 1010TIP3    H2 2972   5.798   2.001   5.827 -1.8616 -1.0200  1.9935
 1011TIP3   OH2 2973   1.029   3.730   5.828  0.3200 -0.2722 -0.3314
 1011TIP3    H1 2974   1.103   3.706   5.884 -0.0315 -2.2631 -0.6512
 1011TIP3    H2 2975   0.952   3.719   5.883  0.1419  0.2469 -0.4710
 1012TIP3   OH2 2976   1.503   6.908   1.702  0.5511  0.0146  0.4192
 1012TIP3    H1 2977   1.532   6.894   1.612  0.6178  0.1351  0.4211
 1012TIP3    H2 2978   1.466   6.824   1.729 -0.7043  0.3459 -0.1771
 1013TIP3   OH2 2979   1.156   3.130   1.335 -0.2272 -0.4623  0.0708
 1013TIP3    H1 2980   1.123   3.146   1.423  0.3420 -0.8559  0.3622
 1013TIP3    H2 2981   1.112   3.195   1.280  0.3436  0.6121  0.8547
 1014TIP3   OH2 2982   7.975   7.734   3.179  0.4349  0.0812  0.4325
 1014TIP3    H1 2983   8.050   7.705   3.230  0.1768 -0.5023  0.4848
 1014TIP3    H2 2984   8.012   7.791   3.111  0.9506 -0.4135  0.2949
 1015TIP3   OH2 2985   6.537   1.464   4.478  0.2272  0.3396 -0.3249
 1015TIP3    H1 2986   6.493   1.485   4.396  0.3400  0.5340 -0.3376
 1015TIP3    H2 2987   6.480   1.501   4.546 -1.5574 -2.5988 -0.0836
 1016TIP3   OH2 2988   5.787   4.391   0.425  0.0331  0.8648  0.5709
 1016TIP3    H1 2989   5.702   4.349   0.413  0.3284  0.7438 -1.3223
 1016TIP3    H2 2990   5.844   4.322   0.458 -0.3758  0.7245  0.9904
 1017TIP3   OH2 2991   4.428   7.108   4.786 -0.2331 -0.0889  0.2447
 1017TIP3    H1 2992   4.421   7.182   4.846  0.3993 -0.0431  0.2702
 1017TIP3    H2 2993   4.372   7.132   4.712  0.9060  0.9993 -0.3181
 1018TIP3   OH2 2994   6.915   1.378   4.230 -0.2319 -0.1670  0.4300
 1018TIP3    H1 2995   6.889   1.469   4.247 -1.9225 -0.1157 -1.9648
 1018TIP3    H2 2996   6.841   1.326   4.259 -1.0326 -0.4051 -1.8037
 1019TIP3   OH2 2997   0.039   3.537   5.844 -0.6007  0.2614 -0.3700
 1019TIP3    H1 2998   0.064   3.615   5.794  0.5606  0.2571  0.1643
 1019TIP3    H2 2999   0.020   3.471   5.778  0.4719  0.3915 -0.8342
 1020TIP3   OH2 3000   4.773   3.062   3.551  0.1984 -0.3318 -0.3630
 1020TIP3    H1 3001   4.692   3.012   3.559  0.1613 -0.3376 -0.7214
 1020TIP3    H2 3002   4.750   3.134   3.491  0.3915 -0.1903 -0.2696
 1021TIP3   OH2 3003   0.583   5.550   1.908 -0.0749  0.5696 -0.4280
 1021TIP3    H1 3004   0.566   5.476   1.851  1.9381 -1.4725  1.4288
 1021TIP3    H2 3005   0.499   5.566   1.952 -0.7887  0.0862 -1.5666
 1022TIP3   OH2 3006   8.200   0.692   6.550 -0.1915 -0.2246 -0.4583
 1022TIP3    H1 3007   8.178   0.646   6.469 -0.6892 -0.6941 -0.0584
 1022TIP3    H2 3008   8.282   0.651   6.579  1.2996  1.5145 -1.9361
 1023TIP3   OH2 3009   2.021   3.831   1.058 -0.2541  0.1829 -0.0225
 1023TIP3    H1 3010   2.045   3.753   1.008 -1.0630 -0.5819  0.7470
 1023TIP3    H2 3011   2.020   3.802   1.149  0.3580  1.3426  0.3833
 1024TIP3   OH2 3012   4.570   6.604   4.153  0.1303 -0.1779 -0.4334
 1024TIP3    H1 3013   4.587   6.636   4.242 -2.2837 -2.0097  0.8182
 1024TIP3    H2 3014   4.555   6.684   4.102  1.2668  0.9088  0.8602
 1025TIP3   OH2 3015   1.733   3.427   5.586 -0.2888 -0.1822  0.7501
 1025TIP3    H1 3016   1.772   3.339   5.580  0.6595  0.1540  1.6603
 1025TIP3    H2 3017   1.658   3.416   5.644 -0.9652 -0.6339 -0.1839
 1026TIP3   OH2 3018   5.233   6.444  -0.029 -0.0557 -0.3123  0.0861
 1026TIP3    H1 3019   5.151   6.483  -0.001  0.6652  0.7426  0.7826
 1026TIP3    H2 3020   5.251   6.375   0.035  0.3263  0.4204  0.7696
 1027TIP3   OH2 3021   4.023   6.904   4.871 -0.0104  0.0617 -0.1579
 1027TIP3    H1 3022   4.103   6.950   4.898 -0.7174  0.3270  1.6273
 1027TIP3    H2 3023   4.000   6.945   4.787  0.0788  2.1422  0.7589
 1028TIP3   OH2 3024   2.132   3.474   1.645  0.2520  0.3097 -0.2448
 1028TIP3    H1 3025   2.097   3.563   1.641  0.5391  0.4233 -0.2489
 1028TIP3    H2 3026   2.199   3.471   1.578  1.0380  0.4455  0.5200
 1029TIP3   OH2 3027   5.105   0.809   1.178  0.0051  0.5091  0.6151
 1029TIP3    H1 3028   5.010   0.797   1.168 -0.3052 -0.4945  3.7664
 1029TIP3    H2 3029   5.143   0.759   1.106 -1.8314 -0.7790  0.4691
 1030TIP3   OH2 3030   1.019   0.264   3.323  0.4844  0.6667 -0.2390
 1030TIP3    H1 3031   1.042   0.353   3.349 -1.8381  2.0790 -2.5717
 1030TIP3    H2 3032   0.924   0.266   3.313  0.6047 -1.3782 -2.6619
 1031TIP3   OH2 3033   1.501   3.828   5.063 -0.0459 -0.1814  0.4404
 1031TIP3    H1 3034   1.431   3.764   5.071  0.2807 -1.1957 -3.2711
 1031TIP3    H2 3035   1.580   3.781   5.087 -0.2970  0.3538  2.5191
 1032TIP3   OH2 3036   4.531   2.843   6.575 -0.4215  0.5788 -0.3429
 1032TIP3    H1 3037   4.511   2.756   6.539 -0.3917 -0.6849  2.4462
 1032TIP3    H2 3038   4.626   2.842   6.588 -0.3805  1.1706 -0.5704
 1033TIP3   OH2 3039   5.739   2.318   0.928 -0.0749 -0.0319 -0.2463
 1033TIP3    H1 3040   5.801   2.324   0.856  0.1039  0.7742 -0.0381
 1033TIP3    H2 3041   5.787   2.272   0.997 -0.1645 -0.5915 -0.5593
 1034TIP3   OH2 3042   3.491   6.779   5.862 -0.3285 -0.0883  0.1771
 1034TIP3    H1 3043   3.553   6.851   5.851  0.1947 -0.5417  0.0616
 1034TIP3    H2 3044   3.547   6.701   5.871 -0.8822 -0.4998  0.1166
 1035TIP3   OH2 3045   3.503   3.614   0.855 -0.1626 -0.1684  0.5084
 1035TIP3    H1 3046   3.507   3.522   0.827 -0.8452 -0.6851  1.9893
 1035TIP3    H2 3047   3.542   3.614   0.942 -0.7560  0.8292  0.7916
 1036TIP3   OH2 3048   4.894   3.453   4.904 -0.3272  0.4962 -0.4830
 1036TIP3    H1 3049   4.860   3.435   4.816 -0.3419 -0.5163 -0.2769
 1036TIP3    H2 3050   4.989   3.454   4.893 -0.3257  0.2742 -0.4967
 1037TIP3   OH2 3051   6.987   5.388   0.418 -0.4040 -0.5490 -1.1385
 1037TIP3    H1 3052   7.055   5.393   0.350  3.3331 -0.1639  2.2681
 1037TIP3    H2 3053   6.977   5.294   0.435  0.8886 -0.5664 -0.3151
 1038TIP3   OH2 3054   6.280   3.025   4.242 -0.2025 -0.2950 -0.5669
 1038TIP3    H1 3055   6.189   3.003   4.258 -0.5890 -0.3765 -2.7182
 1038TIP3    H2 3056   6.315   2.951   4.193  1.4673 -0.9438  1.4528
 1039TIP3   OH2 3057   4.078   1.951   0.982 -0.2327 -0.0208  0.8588
 1039TIP3    H1 3058   4.109   1.965   0.893  0.4638 -1.0258  0.9245
 1039TIP3    H2 3059   3.988   1.983   0.982 -0.1209  0.3125 -0.1120
 1040TIP3   OH2 3060   1.810   3.310   0.465  0.3009 -0.4879  0.3420
 1040TIP3    H1 3061   1.789   3.403   0.456  1.1236 -0.0705  2.2137
 1040TIP3    H2 3062   1.726   3.265   0.459  0.0398  0.2002 -2.0536
 1041TIP3   OH2 3063   6.800   3.332   4.412 -0.0229  0.6446 -0.0195
 1041TIP3    H1 3064   6.850   3.330   4.331 -0.4598 -0.2136 -0.2817
 1041TIP3    H2 3065   6.788   3.425   4.431  0.8197  0.8517 -0.4742
 1042TIP3   OH2 3066   4.827   0.825   4.297  0.5795  0.0404 -0.1912
 1042TIP3    H1 3067   4.792   0.784   4.376 -0.9132  3.0692  0.8868
 1042TIP3    H2 3068   4.913   0.858   4.322  0.3046  0.5885  0.0451
 1043TIP3   OH2 3069   6.777   0.375   0.896 -0.0081  1.0322  0.0650
 1043TIP3    H1 3070   6.781   0.369   0.800 -1.0095  0.9285  0.0155
 1043TIP3    H2 3071   6.749   0.465   0.913 -0.0427  0.9873  0.2492
 1044TIP3   OH2 3072   7.941   6.790   1.480  0.1101  0.8809  0.2368
 1044TIP3    H1 3073   7.902   6.726   1.540 -0.3641 -0.3129 -1.2906
 1044TIP3    H2 3074   7.997   6.739   1.423  1.9911  2.2391  0.7451
 1045TIP3   OH2 3075   6.352   3.341   1.467  0.0030  0.2121  0.3687
 1045TIP3    H1 3076   6.375   3.292   1.546 -1.1607  1.5218  1.5893
 1045TIP3    H2 3077   6.433   3.347   1.417  0.4657 -1.7671  0.8124
 1046TIP3   OH2 3078   5.414   7.094   1.881 -0.4343  0.1800  0.1964
 1046TIP3    H1 3079   5.467   7.163   1.922  0.3497  0.7035 -1.5645
 1046TIP3    H2 3080   5.326   7.130   1.877 -0.5092  0.1537  1.2822
 1047TIP3   OH2 3081   5.039   7.320   2.125 -0.1274 -0.1409  0.2959
 1047TIP3    H1 3082   5.121   7.331   2.077  0.0541 -0.4627  0.5276
 1047TIP3    H2 3083   4.970   7.334   2.060  0.1070  0.4645  0.1723
 1048TIP3   OH2 3084   2.627   2.695   3.928  0.4417  0.2865  0.2292
 1048TIP3    H1 3085   2.639   2.619   3.871 -0.1657 -0.4154  0.9961
 1048TIP3    H2 3086   2.670   2.670   4.010  1.1514  1.2045  0.1501
 1049TIP3   OH2 3087   6.079   7.037   0.739 -0.2669  0.0219 -0.1604
 1049TIP3    H1 3088   6.157   6.985   0.760  0.3262  0.1291 -1.9401
 1049TIP3    H2 3089   6.088   7.116   0.792 -0.9027 -1.3746  2.1694
 1050TIP3   OH2 3090   1.795   6.674   1.553 -0.1243  0.3030 -0.2561
 1050TIP3    H1 3091   1.814   6.637   1.640 -2.2387 -1.8811 -0.6245
 1050TIP3    H2 3092   1.877   6.662   1.504  0.9816  1.2295  1.2671
 1051TIP3   OH2 3093   3.574   2.976   0.944  0.5368  0.1443  0.1640
 1051TIP3    H1 3094   3.574   2.966   1.039 -0.3220  0.1380  0.1689
 1051TIP3    H2 3095   3.653   2.931   0.914  0.2816 -0.7186  0.7816
 1052TIP3   OH2 3096   6.017   3.305   3.393  0.5516 -0.2214  0.2788
 1052TIP3    H1 3097   5.923   3.301   3.409  0.4968  0.3132  0.1133
 1052TIP3    H2 3098   6.049   3.217   3.414 -0.1503 -0.7577 -0.8245
 1053TIP3   OH2 3099   7.635   5.285   4.305 -0.0785 -0.4336  0.2305
 1053TIP3    H1 3100   7.714   5.254   4.260  0.4408  0.3802  0.5664
 1053TIP3    H2 3101   7.581   5.206   4.315  0.2143 -0.8019 -0.9570
 1054TIP3   OH2 3102   0.130   1.620   0.681  0.1806 -0.2394  0.0785
 1054TIP3    H1 3103   0.157   1.545   0.734 -1.5775 -1.1681 -0.2583
 1054TIP3    H2 3104   0.154   1.596   0.592 -0.4672 -0.4678 -0.0418
 1055TIP3   OH2 3105   2.847   3.012   4.672 -0.2879 -0.1463  0.2729
 1055TIP3    H1 3106   2.866   2.920   4.690 -0.9305 -0.3678 -0.1333
 1055TIP3    H2 3107   2.794   3.010   4.593  0.4745  0.6469 -0.2685
 1056TIP3   OH2 3108   2.270   5.018   1.863  0.1892  0.0731  0.5047
 1056TIP3    H1 3109   2.350   5.056   1.826 -1.4812  1.6351 -1.7512
 1056TIP3    H2 3110   2.227   4.976   1.788 -3.1858  3.0183  0.5511
 1057TIP3   OH2 3111   6.201   5.745   4.862  0.1078 -0.2250 -0.7131
 1057TIP3    H1 3112   6.215   5.714   4.773  0.2030 -1.1106 -0.3984
 1057TIP3    H2 3113   6.203   5.840   4.855  4.6545 -0.1062 -1.0059
 1058TIP3   OH2 3114   6.246   4.798   4.084 -0.3600  0.9221  0.2333
 1058TIP3    H1 3115   6.190   4.875   4.091 -1.5963 -0.0937  2.9523
 1058TIP3    H2 3116   6.329   4.832   4.051 -1.9239  2.7885 -2.1306
 1059TIP3   OH2 3117   5.927   0.780   2.389  0.0772  0.4797  0.2901
 1059TIP3    H1 3118   5.916   0.687   2.409 -1.9330  0.1325 -1.9331
 1059TIP3    H2 3119   5.880   0.825   2.459  0.6848 -0.1730  1.1407
 1060TIP3   OH2 3120   2.285   3.123   1.296 -0.2869 -0.0353  0.5170
 1060TIP3    H1 3121   2.259   3.051   1.353  0.6218 -2.2875 -1.7335
 1060TIP3    H2 3122   2.206   3.142   1.245 -0.2381 -0.1964  0.3788
 1061TIP3   OH2 3123   4.715   2.519   2.448  0.2747 -0.1077 -0.2655
 1061TIP3    H1 3124   4.679   2.603   2.476  0.7876 -0.3743  1.2368
 1061TIP3    H2 3125   4.791   2.505   2.504  3.0981  0.6456 -3.5664
 1062TIP3   OH2 3126   4.302   6.728   5.678  0.2581  0.5007 -0.4512
 1062TIP3    H1 3127   4.241   6.801   5.676 -0.3141  0.0077 -1.9072
 1062TIP3    H2 3128   4.247   6.650   5.675  0.9284  0.0456 -2.1018
 1063TIP3   OH2 3129   4.655   3.526   6.034  0.7022 -0.0172  0.0700
 1063TIP3    H1 3130   4.678   3.618   6.038 -1.0117  0.4116  1.1327
 1063TIP3    H2 3131   4.676   3.492   6.121  0.0160 -0.2725  0.1450
 1064TIP3   OH2 3132   3.723   2.780   2.288 -0.3917 -0.5201  0.6769
 1064TIP3    H1 3133   3.803   2.775   2.236 -0.6180  0.0137  0.2656
 1064TIP3    H2 3134   3.749   2.755   2.376  0.4393  0.6410  0.7687
 1065TIP3   OH2 3135   5.072   7.577   2.458 -0.1328  0.3233  0.3616
 1065TIP3    H1 3136   5.090   7.660   2.415 -1.0682  0.8843  0.9938
 1065TIP3    H2 3137   4.988   7.548   2.421  0.9409 -1.1829 -1.0388
 1066TIP3   OH2 3138   5.569   2.370   2.507 -0.3319 -0.1364 -0.0247
 1066TIP3    H1 3139   5.574   2.275   2.491  0.0480  0.0663 -1.2191
 1066TIP3    H2 3140   5.614   2.409   2.433  0.4759  0.9562  0.9912
 1067TIP3   OH2 3141   4.969   5.508   6.554 -1.2673  0.0806  0.0123
 1067TIP3    H1 3142   4.923   5.577   6.506 -1.7910  0.0637  0.4817
 1067TIP3    H2 3143   5.048   5.491   6.502 -0.3841  2.0344  0.5968
 1068TIP3   OH2 3144   8.373   7.675   5.442 -0.0216  1.0192  0.2063
 1068TIP3    H1 3145   8.331   7.752   5.480  0.7668  0.8564  1.4910
 1068TIP3    H2 3146   8.357   7.682   5.348 -1.3198  1.9016  0.4756
 1069TIP3   OH2 3147   0.146   2.105   2.068 -0.5434  0.2731  0.2395
 1069TIP3    H1 3148   0.158   2.198   2.049  1.7746 -0.1178 -0.5027
 1069TIP3    H2 3149   0.075   2.103   2.133 -0.6536  2.5329  0.2682
 1070TIP3   OH2 3150   5.516   1.862   0.115 -0.3658  0.1042 -0.1635
 1070TIP3    H1 3151   5.568   1.797   0.068  0.5027  0.4624  0.2730
 1070TIP3    H2 3152   5.467   1.908   0.046  2.0046  1.6300 -0.9834
 1071TIP3   OH2 3153   7.847   3.928   4.679 -0.0922  0.1353 -0.8455
 1071TIP3    H1 3154   7.899   3.887   4.610 -0.0053  0.8329 -1.2068
 1071TIP3    H2 3155   7.913   3.963   4.740 -0.1690 -0.5619 -0.3494
 1072TIP3   OH2 3156   4.685   3.495   1.433  0.1657 -0.3159  0.3169
 1072TIP3    H1 3157   4.656   3.579   1.468 -0.2735 -0.0943 -0.5680
 1072TIP3    H2 3158   4.642   3.430   1.489 -1.5806  0.0155 -0.5603
 1073TIP3   OH2 3159   7.886   3.102   3.965  0.1065  0.6646  0.0032
 1073TIP3    H1 3160   7.847   3.147   4.040 -0.1557 -0.4999  0.5958
 1073TIP3    H2 3161   7.812   3.067   3.916  0.3060  0.8117 -0.4081
 1074TIP3   OH2 3162   2.937   7.726   3.734 -0.3483  0.1878  0.1930
 1074TIP3    H1 3163   2.888   7.665   3.679  1.6947  0.5132 -2.1416
 1074TIP3    H2 3164   2.874   7.755   3.800 -2.5181 -1.3180 -1.0995
 1075TIP3   OH2 3165   3.578   5.211   3.341 -0.0247 -0.0574  0.6671
 1075TIP3    H1 3166   3.571   5.117   3.325 -0.0538 -0.2473  1.7584
 1075TIP3    H2 3167   3.665   5.234   3.310  0.6836 -0.7908  2.0602
 1076TIP3   OH2 3168   7.448   5.223   3.054  0.2091  0.4585  0.6615
 1076TIP3    H1 3169   7.391   5.222   3.130 -2.5315  1.5567 -1.2514
 1076TIP3    H2 3170   7.471   5.315   3.042  2.2204  0.0812  1.1802
 1077TIP3   OH2 3171   7.576   4.086   2.169  0.7283  0.2559 -0.6144
 1077TIP3    H1 3172   7.543   4.129   2.090 -1.1978  0.6499  0.3268
 1077TIP3    H2 3173   7.600   4.158   2.228 -1.0699  0.1033  0.3941
 1078TIP3   OH2 3174   6.861   7.223   6.277 -0.4693 -0.0700  0.5705
 1078TIP3    H1 3175   6.947   7.262   6.296 -0.3665 -0.5288  1.0968
 1078TIP3    H2 3176   6.825   7.277   6.207  0.5163 -0.2371 -0.1008
 1079TIP3   OH2 3177   1.015   3.120   0.594 -0.1643 -0.0924 -0.2575
 1079TIP3    H1 3178   1.030   3.202   0.547  0.6526  0.5091  1.0094
 1079TIP3    H2 3179   1.024   3.143   0.686  1.1074 -1.7818  0.0955
 1080TIP3   OH2 3180   0.740   2.301   4.528  0.1437 -0.0152 -0.0427
 1080TIP3    H1 3181   0.724   2.209   4.508 -0.3600 -0.3695  1.7552
 1080TIP3    H2 3182   0.671   2.348   4.482  0.0430 -0.6054 -0.5053
 1081TIP3   OH2 3183   7.931   4.825   1.026 -0.3706 -0.5276  0.3921
 1081TIP3    H1 3184   7.851   4.773   1.034 -1.7393  1.3955 -0.1753
 1081TIP3    H2 3185   7.948   4.827   0.932 -2.3377  2.7600 -0.0501
 1082TIP3   OH2 3186   2.241   2.361   2.469  0.0270 -0.0002 -0.2004
 1082TIP3    H1 3187   2.203   2.332   2.386 -1.7610 -2.0075  1.2098
 1082TIP3    H2 3188   2.258   2.455   2.456 -0.5198 -0.1813 -2.6844
 1083TIP3   OH2 3189   0.065   0.357   1.154  0.1034  0.1143 -0.5309
 1083TIP3    H1 3190   0.052   0.292   1.223 -0.3135 -1.0106 -1.6311
 1083TIP3    H2 3191   0.124   0.422   1.193  0.3364 -0.7903  0.6817
 1084TIP3   OH2 3192   7.796   3.810   3.635  0.2951  0.6181  0.0101
 1084TIP3    H1 3193   7.790   3.905   3.629 -0.0922  0.6103  0.2228
 1084TIP3    H2 3194   7.763   3.790   3.722 -0.6069  0.2136 -0.4044
 1085TIP3   OH2 3195   3.169   5.422   5.811 -0.5680  0.0885 -0.1676
 1085TIP3    H1 3196   3.075   5.434   5.819 -0.6823 -1.3454  1.0673
 1085TIP3    H2 3197   3.201   5.417   5.901  0.5083 -0.6352 -0.5550
 1086TIP3   OH2 3198   3.814   6.692   3.926  0.3845  0.3232 -0.1146
 1086TIP3    H1 3199   3.733   6.736   3.951  1.1994  1.2051  1.1053
 1086TIP3    H2 3200   3.823   6.711   3.833 -1.9909 -1.8205 -0.8978
 1087TIP3   OH2 3201   0.737   0.574   1.730 -0.1223 -0.4046 -0.2909
 1087TIP3    H1 3202   0.773   0.603   1.647 -0.7672 -1.2241 -0.8720
 1087TIP3    H2 3203   0.660   0.521   1.707 -0.8842  0.1367  0.8548
 1088TIP3   OH2 3204   7.759   1.357   5.797  0.2678  0.0287  0.2059
 1088TIP3    H1 3205   7.804   1.273   5.789  0.7602  0.1561  1.3659
 1088TIP3    H2 3206   7.670   1.335   5.823  0.3456 -0.1465  0.3239
 1089TIP3   OH2 3207   4.372   2.309   6.294  0.1633  0.2565  0.0937
 1089TIP3    H1 3208   4.381   2.405   6.290 -1.1679  0.3970 -3.5534
 1089TIP3    H2 3209   4.398   2.280   6.206 -0.5884 -2.6283  0.7394
 1090TIP3   OH2 3210   4.285   0.616   5.106  0.2040 -0.0710 -0.1295
 1090TIP3    H1 3211   4.221   0.588   5.171 -0.0942  2.4862  0.7957
 1090TIP3    H2 3212   4.359   0.649   5.157  1.1339 -0.5215 -1.1526
 1091TIP3   OH2 3213   5.301   1.470   5.475  0.0225 -0.3455 -0.5246
 1091TIP3    H1 3214   5.257   1.388   5.499  0.9094 -0.7480 -0.2162
 1091TIP3    H2 3215   5.280   1.482   5.383 -0.3036 -0.8022 -0.5139
 1092TIP3   OH2 3216   5.956   5.089   3.718  0.3196 -0.9056 -0.2220
 1092TIP3    H1 3217   5.971   4.997   3.736  0.2950 -1.1365 -1.2880
 1092TIP3    H2 3218   5.910   5.122   3.795  2.0901 -1.3009  1.0653
 1093TIP3   OH2 3219   4.167   3.822   4.592  0.1778 -0.1840  0.1014
 1093TIP3    H1 3220   4.222   3.747   4.572 -0.0877 -0.2560 -0.3898
 1093TIP3    H2 3221   4.164   3.872   4.510 -0.5088 -0.2055  0.0997
 1094TIP3   OH2 3222   6.598   0.038   2.911  0.0885  0.9652  0.3272
 1094TIP3    H1 3223   6.583   0.074   2.823 -0.7858  0.5332  0.2803
 1094TIP3    H2 3224   6.682  -0.007   2.905 -0.1634  0.5788 -0.4190
 1095TIP3   OH2 3225   1.555   7.003   6.107  0.5506  0.3152  0.5589
 1095TIP3    H1 3226   1.463   7.022   6.092  0.7754  2.1283  1.2660
 1095TIP3    H2 3227   1.589   6.976   6.022 -0.7816 -1.2060  0.4578
 1096TIP3   OH2 3228   6.175   7.658   3.269 -0.4373  0.2694 -0.3284
 1096TIP3    H1 3229   6.104   7.688   3.326 -0.8299 -1.8419  0.4114
 1096TIP3    H2 3230   6.147   7.571   3.239  0.9302  0.2409 -1.6818
 1097TIP3   OH2 3231   6.402   6.766   0.706 -0.2458  0.0457  0.1441
 1097TIP3    H1 3232   6.388   6.835   0.771 -1.3198  0.4715 -0.5106
 1097TIP3    H2 3233   6.493   6.777   0.678 -0.7237  2.0186 -0.8273
 1098TIP3   OH2 3234   7.897   7.484   2.028  0.0855 -0.0852 -0.2669
 1098TIP3    H1 3235   7.976   7.498   2.080 -0.1752  1.3940 -0.2233
 1098TIP3    H2 3236   7.887   7.389   2.025  2.6960 -0.4101 -1.5857
 1099TIP3   OH2 3237   1.502   0.796   1.679  0.3721 -0.2713 -0.4029
 1099TIP3    H1 3238   1.556   0.854   1.733 -1.4105  0.7849  0.3290
 1099TIP3    H2 3239   1.504   0.712   1.725  0.9079 -0.0901 -0.0840
 1100TIP3   OH2 3240   5.255   4.789   3.316  0.3783  0.1239 -0.2564
 1100TIP3    H1 3241   5.173   4.752   3.284  0.5325 -0.0757 -0.4175
 1100TIP3    H2 3242   5.289   4.724   3.378  2.1398 -1.4505 -2.6908
 1101TIP3   OH2 3243   3.712   3.649   1.733  1.1033  0.2750  0.1368
 1101TIP3    H1 3244   3.745   3.732   1.699  0.4695 -0.3741 -2.2260
 1101TIP3    H2 3245   3.788   3.590   1.732  1.2819  0.4945  0.6773
 1102TIP3   OH2 3246   0.030   7.195   4.198 -0.0966 -0.2491  0.2525
 1102TIP3    H1 3247  -0.012   7.281   4.198  0.6630  0.1812 -1.5573
 1102TIP3    H2 3248   0.077   7.192   4.115  2.8502 -0.9998  1.8144
 1103TIP3   OH2 3249   5.212   6.876   4.612  0.2887 -0.5140  0.0847
 1103TIP3    H1 3250   5.256   6.832   4.539 -0.0624 -1.5616  0.4828
 1103TIP3    H2 3251   5.190   6.963   4.578  1.3660 -0.4871 -0.5915
 1104TIP3   OH2 3252   6.078   3.411   4.243 -0.1857 -0.1648  0.3465
 1104TIP3    H1 3253   6.125   3.481   4.197  0.4373  0.0324  1.2611
 1104TIP3    H2 3254   6.124   3.331   4.219 -0.2485 -0.1371  0.1329
 1105TIP3   OH2 3255   2.542   6.625   4.509 -0.7379  0.0338  0.1732
 1105TIP3    H1 3256   2.488   6.698   4.479  0.0663  0.4961 -0.1806
 1105TIP3    H2 3257   2.621   6.630   4.456 -1.0104 -1.6161 -0.4650
 1106TIP3   OH2 3258   5.839   1.495   2.944  0.4291 -0.4014 -0.0037
 1106TIP3    H1 3259   5.873   1.556   2.878 -1.9376  0.1994 -0.7577
 1106TIP3    H2 3260   5.846   1.543   3.026  0.8117 -0.0611 -0.2285
 1107TIP3   OH2 3261   4.500   0.607   5.929 -0.0174  0.2994  0.2093
 1107TIP3    H1 3262   4.523   0.698   5.910  0.0473  0.6907  2.0052
 1107TIP3    H2 3263   4.584   0.564   5.944 -0.1298  0.5679  1.8381
 1108TIP3   OH2 3264   6.304   2.940   1.956  0.3356 -0.3543  0.2893
 1108TIP3    H1 3265   6.344   2.895   2.030  0.7320 -0.6782 -0.1166
 1108TIP3    H2 3266   6.351   3.023   1.950  0.1248 -0.2127  0.5596
 1109TIP3   OH2 3267   7.589   0.573   1.940  0.3170  0.4160 -1.0632
 1109TIP3    H1 3268   7.585   0.669   1.944  0.6099  0.4123 -0.6949
 1109TIP3    H2 3269   7.682   0.553   1.938  0.3943  0.0263  1.8707
 1110TIP3   OH2 3270   0.298   6.506   2.975 -0.5245 -0.0418  0.5329
 1110TIP3    H1 3271   0.291   6.556   3.056 -0.9245 -0.0370  0.4987
 1110TIP3    H2 3272   0.221   6.449   2.976 -2.5560  2.4699 -1.5559
 1111TIP3   OH2 3273   0.096   6.551   6.680 -0.4109  0.1340  0.8946
 1111TIP3    H1 3274   0.186   6.575   6.661 -0.5870  0.4491  0.4082
 1111TIP3    H2 3275   0.100   6.460   6.708  0.0235  0.0536  0.5785
 1112TIP3   OH2 3276   2.338   6.691   5.987 -0.3070  0.2843 -0.1327
 1112TIP3    H1 3277   2.405   6.745   6.027  1.0898  0.7983 -2.8914
 1112TIP3    H2 3278   2.292   6.650   6.060  2.5973  0.4005  1.8922
 1113TIP3   OH2 3279   3.742   7.038   3.965 -0.1222  0.1651  0.2739
 1113TIP3    H1 3280   3.814   6.979   3.942 -1.2826 -1.9172  1.6719
 1113TIP3    H2 3281   3.663   6.993   3.933 -0.9174  1.9661 -0.4459
 1114TIP3   OH2 3282   7.766   1.299   1.105 -0.3720  0.5765 -0.1560
 1114TIP3    H1 3283   7.691   1.239   1.110 -0.4617  0.7429  0.6538
 1114TIP3    H2 3284   7.792   1.297   1.013 -0.7715 -0.2233 -0.2641
 1115TIP3   OH2 3285   8.013   1.597   2.188  0.4368  0.1319  0.3548
 1115TIP3    H1 3286   7.994   1.619   2.097  0.2514  1.0902  0.6203
 1115TIP3    H2 3287   7.928   1.595   2.231  0.6571  1.4715  0.8920
 1116TIP3   OH2 3288   4.552   5.613   3.534 -0.0281 -0.3024 -0.4511
 1116TIP3    H1 3289   4.564   5.529   3.489 -0.0497 -0.0905 -0.8529
 1116TIP3    H2 3290   4.606   5.606   3.613 -0.4798 -0.9151 -0.1836
 1117TIP3   OH2 3291   0.606   0.102   0.990 -0.0040  0.5622  0.2077
 1117TIP3    H1 3292   0.574   0.192   0.985  0.4449  0.7232  0.1698
 1117TIP3    H2 3293   0.592   0.076   1.081 -0.6691  0.4710  0.0769
 1118TIP3   OH2 3294   0.910   2.392   3.765 -0.0102  0.1160 -0.4040
 1118TIP3    H1 3295   0.956   2.425   3.688 -1.8456  0.0152 -1.6150
 1118TIP3    H2 3296   0.953   2.308   3.784  0.6154  0.2397 -1.1924
 1119TIP3   OH2 3297   3.364   4.240   4.807 -0.0046  0.1580 -0.3394
 1119TIP3    H1 3298   3.399   4.197   4.885 -0.0765  0.2616 -0.2496
 1119TIP3    H2 3299   3.415   4.321   4.799 -0.5186  0.5335  0.0522
 1120TIP3   OH2 3300   2.031   1.828   3.418  0.4999  0.0985 -0.1291
 1120TIP3    H1 3301   1.993   1.782   3.492 -1.2040 -1.9123 -2.1156
 1120TIP3    H2 3302   1.959   1.838   3.356  1.7360  2.1751 -1.3537
 1121TIP3   OH2 3303   0.773   0.826   5.310  0.1284 -0.3238 -0.0063
 1121TIP3    H1 3304   0.701   0.776   5.346 -0.7958  1.3288  0.5422
 1121TIP3    H2 3305   0.822   0.858   5.386 -0.4424  1.1843 -0.2275
 1122TIP3   OH2 3306   8.121   5.903   1.984  0.1550  0.6466 -0.1724
 1122TIP3    H1 3307   8.123   5.976   2.046  0.5255  0.6179 -0.1488
 1122TIP3    H2 3308   8.044   5.852   2.009  0.0202  0.9076 -0.0503
 1123TIP3   OH2 3309   4.910   0.736   3.649  0.6135  0.6869 -0.2568
 1123TIP3    H1 3310   4.966   0.737   3.727 -2.5132  1.5437  2.1679
 1123TIP3    H2 3311   4.907   0.828   3.621  0.3766  0.6602 -0.3198
 1124TIP3   OH2 3312   6.768   1.354   6.813 -0.4344  0.4024 -0.1988
 1124TIP3    H1 3313   6.788   1.446   6.795 -0.2161  0.5161  0.5656
 1124TIP3    H2 3314   6.817   1.305   6.747  0.1816  0.8009 -0.0517
 1125TIP3   OH2 3315   7.342   5.052   0.330 -0.0539  0.2263 -0.6663
 1125TIP3    H1 3316   7.369   5.000   0.255 -0.0185  0.6535 -0.9515
 1125TIP3    H2 3317   7.248   5.064   0.319 -0.7308 -2.5397  1.1102
 1126TIP3   OH2 3318   4.675   7.752   5.842 -0.1341 -0.4850  0.0961
 1126TIP3    H1 3319   4.650   7.820   5.780  0.3038  0.4158  0.8873
 1126TIP3    H2 3320   4.618   7.766   5.917  1.4087  0.4040  1.1485
 1127TIP3   OH2 3321   3.940   7.228   3.733 -0.3448 -0.4174  0.6875
 1127TIP3    H1 3322   3.845   7.235   3.738 -0.4452 -0.0105 -0.9704
 1127TIP3    H2 3323   3.960   7.241   3.640  1.4902  1.7476  1.2761
 1128TIP3   OH2 3324   4.753   4.551   3.655  0.9104 -0.6705 -0.2269
 1128TIP3    H1 3325   4.681   4.599   3.696  1.7380 -0.3932  0.9597
 1128TIP3    H2 3326   4.714   4.469   3.626  0.2500 -0.7982  0.9581
 1129TIP3   OH2 3327   1.640   6.454   4.660 -0.2047 -0.0493 -0.1221
 1129TIP3    H1 3328   1.598   6.422   4.580  0.3276  1.7438 -1.1748
 1129TIP3    H2 3329   1.660   6.546   4.642 -0.1777  0.4562  2.1334
 1130TIP3   OH2 3330   6.762   0.308   3.550  0.6997 -0.0649  0.3954
 1130TIP3    H1 3331   6.824   0.364   3.596  2.2116  0.3256 -1.9220
 1130TIP3    H2 3332   6.683   0.361   3.541  0.9438  0.4273  1.1247
 1131TIP3   OH2 3333   8.048   3.950   5.197 -0.5599 -0.1995  0.4196
 1131TIP3    H1 3334   8.077   4.039   5.181  1.9747 -0.8914  0.7829
 1131TIP3    H2 3335   8.101   3.919   5.270 -0.5320 -2.3714 -0.4298
 1132TIP3   OH2 3336   2.735   2.459   3.282 -0.2825  0.1553  0.7576
 1132TIP3    H1 3337   2.653   2.410   3.273  0.0445 -0.6310  1.7403
 1132TIP3    H2 3338   2.779   2.416   3.356  0.8418  0.8045  0.4791
 1133TIP3   OH2 3339   8.118   1.915   6.443  0.0487  0.2532 -0.1378
 1133TIP3    H1 3340   8.078   1.879   6.364 -0.7672  0.0025  0.3762
 1133TIP3    H2 3341   8.094   2.008   6.441 -3.8702 -0.4940  2.0077
 1134TIP3   OH2 3342   5.290   5.433   2.386 -0.4656 -0.2787  0.1663
 1134TIP3    H1 3343   5.255   5.493   2.452  0.5167 -0.9485  1.3429
 1134TIP3    H2 3344   5.320   5.357   2.436 -0.9248 -1.4003 -1.2113
 1135TIP3   OH2 3345   0.872   5.641   3.650  0.7919 -0.3355  0.1604
 1135TIP3    H1 3346   0.896   5.566   3.704 -2.4276 -0.2865  1.9022
 1135TIP3    H2 3347   0.791   5.614   3.605 -0.6953  2.1469  1.1633
 1136TIP3   OH2 3348   7.464   6.785   2.050 -0.1901 -0.0235 -0.4506
 1136TIP3    H1 3349   7.494   6.775   2.140  1.2659  0.0572 -0.9009
 1136TIP3    H2 3350   7.392   6.722   2.041 -0.9840  0.6348  1.0194
 1137TIP3   OH2 3351   0.162   0.270   3.560 -0.8152  0.4358  0.1792
 1137TIP3    H1 3352   0.248   0.262   3.600 -0.5381  0.5458 -0.3847
 1137TIP3    H2 3353   0.113   0.326   3.619  0.0351  1.7723 -0.3381
 1138TIP3   OH2 3354   6.836   3.180   5.998  0.3714  0.2525 -0.6430
 1138TIP3    H1 3355   6.753   3.227   6.002  0.3823  0.2854 -0.8030
 1138TIP3    H2 3356   6.903   3.248   6.000  0.4772  0.1756  1.6370
 1139TIP3   OH2 3357   4.377   4.455   6.341  0.2537 -0.4923  0.0270
 1139TIP3    H1 3358   4.337   4.542   6.339 -0.1445 -0.5615  2.4837
 1139TIP3    H2 3359   4.422   4.451   6.425 -0.1084 -2.8292  0.1782
 1140TIP3   OH2 3360   5.581   0.677   3.818  0.1377  0.2693 -0.1408
 1140TIP3    H1 3361   5.647   0.738   3.851  1.2451 -0.8855 -0.1462
 1140TIP3    H2 3362   5.527   0.656   3.894  0.9133 -0.1737  0.3021
 1141TIP3   OH2 3363   7.700   0.475   1.623 -0.2968 -0.6380  0.1676
 1141TIP3    H1 3364   7.760   0.410   1.658 -0.8326 -1.3208 -0.1519
 1141TIP3    H2 3365   7.712   0.471   1.528 -1.1662 -1.1113  0.0667
 1142TIP3   OH2 3366   6.542   0.848   5.668  0.0169 -0.6497  0.1511
 1142TIP3    H1 3367   6.605   0.890   5.608 -0.0836  0.2574  0.6628
 1142TIP3    H2 3368   6.482   0.802   5.610  0.7837 -1.0136 -0.3776
 1143TIP3   OH2 3369   5.522   3.675   6.518 -0.4102 -0.2168 -0.7745
 1143TIP3    H1 3370   5.569   3.593   6.528 -0.4599 -0.3173 -1.3515
 1143TIP3    H2 3371   5.497   3.700   6.608  0.0690 -0.5512 -0.5461
 1144TIP3   OH2 3372   7.124   2.321   6.463 -0.2505  0.3544  0.4051
 1144TIP3    H1 3373   7.112   2.226   6.455 -0.0346  0.2220  1.4702
 1144TIP3    H2 3374   7.174   2.346   6.386  0.6890 -0.5888  0.6902
 1145TIP3   OH2 3375   7.192   5.675   0.226  0.1655  0.3737 -0.2952
 1145TIP3    H1 3376   7.246   5.752   0.211  2.0785 -1.1356 -1.7226
 1145TIP3    H2 3377   7.112   5.690   0.175  0.6978  1.2201 -0.8950
 1146TIP3   OH2 3378   7.436   3.754   6.809 -0.1728  0.2509  0.7428
 1146TIP3    H1 3379   7.488   3.815   6.758  1.1027  0.3966  2.1475
 1146TIP3    H2 3380   7.347   3.763   6.774  0.5296  0.7370 -1.0260
 1147TIP3   OH2 3381   4.449   4.020   1.828  0.1955 -0.1094  0.3990
 1147TIP3    H1 3382   4.532   4.038   1.871 -1.1725  0.4443  3.0299
 1147TIP3    H2 3383   4.395   3.978   1.895 -1.7407 -0.2176 -1.1155
 1148TIP3   OH2 3384   0.543   5.807   2.828  0.2387 -0.3009 -0.0801
 1148TIP3    H1 3385   0.528   5.800   2.734 -1.8827 -2.2788  0.2864
 1148TIP3    H2 3386   0.465   5.852   2.861  0.0788 -1.2254  0.8698
 1149TIP3   OH2 3387   1.938   1.969   0.588 -0.1149  0.1425 -0.0109
 1149TIP3    H1 3388   1.933   2.064   0.577  1.5515  0.2205 -0.3521
 1149TIP3    H2 3389   2.031   1.949   0.580 -0.1964 -1.2989  1.9763
 1150TIP3   OH2 3390   6.869   7.534   5.614 -0.2940  0.1182 -0.1170
 1150TIP3    H1 3391   6.862   7.480   5.693  0.6345 -0.7282 -0.5789
 1150TIP3    H2 3392   6.781   7.569   5.601 -0.6976 -0.5297  0.7329
 1151TIP3   OH2 3393   4.325   6.439   0.291 -0.0493  0.8618  0.2022
 1151TIP3    H1 3394   4.376   6.459   0.370 -2.0628 -0.1699  1.8324
 1151TIP3    H2 3395   4.333   6.518   0.238  1.3875  1.5860  1.4040
 1152TIP3   OH2 3396   3.123   5.333   2.089 -0.5169 -0.8360  0.1013
 1152TIP3    H1 3397   3.032   5.316   2.112 -0.6552 -0.8454 -0.4397
 1152TIP3    H2 3398   3.161   5.246   2.075 -0.4156 -0.8339  0.3664
 1153TIP3   OH2 3399   6.395   2.897   3.043  0.0993 -0.0538  0.1321
 1153TIP3    H1 3400   6.444   2.815   3.041 -0.9029 -0.6703  0.3413
 1153TIP3    H2 3401   6.347   2.900   2.961 -2.7703 -1.5378  1.6092
 1154TIP3   OH2 3402   7.470   5.717   0.528 -0.4530  0.1596  0.3534
 1154TIP3    H1 3403   7.563   5.712   0.550 -0.0134  0.1922 -1.3439
 1154TIP3    H2 3404   7.452   5.811   0.520 -0.3832  0.1265 -0.2407
 1155TIP3   OH2 3405   4.576   1.558   2.391 -0.3875 -0.0574 -0.2958
 1155TIP3    H1 3406   4.515   1.631   2.379  0.6454  1.2426  1.7775
 1155TIP3    H2 3407   4.643   1.572   2.323  0.2922  1.5401  0.6266
 1156TIP3   OH2 3408   3.337   5.246   5.116 -0.1520  0.1485  0.3338
 1156TIP3    H1 3409   3.303   5.283   5.198  0.8475 -0.5496  1.0839
 1156TIP3    H2 3410   3.344   5.152   5.133 -0.2536 -0.0511 -0.6804
 1157TIP3   OH2 3411   8.263   1.888   3.662 -0.5443  0.1304 -0.0416
 1157TIP3    H1 3412   8.356   1.881   3.685 -0.6831  0.3902  0.6043
 1157TIP3    H2 3413   8.260   1.861   3.570 -0.1140 -1.8373  0.4739
 1158TIP3   OH2 3414   3.984   6.335   4.097 -0.5906  0.0288 -0.4289
 1158TIP3    H1 3415   4.056   6.341   4.035 -0.1575  1.7746  0.1954
 1158TIP3    H2 3416   4.026   6.335   4.183 -1.3226  1.0651 -0.0575
 1159TIP3   OH2 3417   5.990   4.537   4.788 -0.2185 -0.3077 -0.1704
 1159TIP3    H1 3418   6.036   4.490   4.858 -0.8820  1.6402  1.6675
 1159TIP3    H2 3419   6.057   4.557   4.723  0.2474 -2.9412 -0.6217
 1160TIP3   OH2 3420   5.233   4.277   0.759  0.0640 -0.0774  0.2248
 1160TIP3    H1 3421   5.185   4.196   0.777 -0.9098  0.7593  1.5773
 1160TIP3    H2 3422   5.164   4.342   0.743  0.8353  0.4916 -0.8893
 1161TIP3   OH2 3423   6.038   6.792   6.211 -0.5287 -0.3254 -0.2887
 1161TIP3    H1 3424   5.996   6.725   6.158 -0.9088 -0.0423 -0.3431
 1161TIP3    H2 3425   6.047   6.752   6.297  0.9053 -1.1252 -0.7719
 1162TIP3   OH2 3426   5.014   1.300   0.371  0.0579 -0.5270  0.5110
 1162TIP3    H1 3427   5.081   1.338   0.315 -0.4034  0.5758  0.6763
 1162TIP3    H2 3428   5.047   1.311   0.460  1.2523 -3.1801  0.4733
 1163TIP3   OH2 3429   2.128   1.527   1.379  0.8026  0.1417  0.4660
 1163TIP3    H1 3430   2.133   1.617   1.413 -0.2740  0.0625  0.8693
 1163TIP3    H2 3431   2.168   1.474   1.448  0.2966  0.1839  0.8001
 1164TIP3   OH2 3432   5.213   2.649   5.909 -0.1260 -0.5678  0.0252
 1164TIP3    H1 3433   5.198   2.732   5.955 -0.6227 -0.8434  0.3771
 1164TIP3    H2 3434   5.193   2.668   5.817  0.0125 -0.2344  0.0622
 1165TIP3   OH2 3435   7.482   3.272   0.395  0.0350  0.2641  0.4137
 1165TIP3    H1 3436   7.530   3.336   0.341  0.5158 -1.1362 -0.9079
 1165TIP3    H2 3437   7.406   3.248   0.342 -0.4224  0.1143  1.1242
 1166TIP3   OH2 3438   6.893   4.721   2.338  0.2261  0.6673  0.4203
 1166TIP3    H1 3439   6.962   4.784   2.356 -1.3362  2.5151  0.1878
 1166TIP3    H2 3440   6.812   4.772   2.340 -0.9743 -1.0169 -1.3725
 1167TIP3   OH2 3441   0.140   7.602   5.647  0.2668  0.0648 -0.4280
 1167TIP3    H1 3442   0.208   7.551   5.602  0.5790  1.7784 -2.0437
 1167TIP3    H2 3443   0.081   7.631   5.577 -0.4492  1.0738  0.5468
 1168TIP3   OH2 3444   7.065   0.153   0.395  0.2144  1.0541 -0.7829
 1168TIP3    H1 3445   7.119   0.087   0.353 -0.5236  0.1436 -0.3286
 1168TIP3    H2 3446   7.061   0.127   0.487 -2.6650 -0.1205 -1.1290
 1169TIP3   OH2 3447   6.961   7.200   3.965 -0.2759 -0.3492  0.3586
 1169TIP3    H1 3448   6.981   7.279   4.015 -1.2777  0.2924 -0.2126
 1169TIP3    H2 3449   7.029   7.138   3.991  1.2263  1.0476 -0.0371
 1170TIP3   OH2 3450   7.398   2.191   6.618  0.4981  0.5137 -0.4637
 1170TIP3    H1 3451   7.368   2.171   6.707  2.2845  0.0456  0.0920
 1170TIP3    H2 3452   7.400   2.287   6.615  0.8695  0.5352  0.1853
 1171TIP3   OH2 3453   1.944   3.098   6.386  0.2863 -0.2546  0.0169
 1171TIP3    H1 3454   1.939   3.097   6.291 -0.1570 -2.3246  0.0194
 1171TIP3    H2 3455   2.001   3.024   6.408 -0.6381 -0.5938  1.3878
 1172TIP3   OH2 3456   7.069   5.403   2.526 -0.5983 -0.3468 -0.0655
 1172TIP3    H1 3457   7.079   5.309   2.539 -1.2244 -0.6307 -1.4466
 1172TIP3    H2 3458   7.157   5.434   2.504 -0.0744 -0.3105  1.8841
 1173TIP3   OH2 3459   1.149   0.984   5.992 -0.6332  0.3720  0.0399
 1173TIP3    H1 3460   1.206   1.057   6.013  0.0591 -0.0409 -0.3891
 1173TIP3    H2 3461   1.065   1.024   5.970 -1.0549  0.9074  2.3521
 1174TIP3   OH2 3462   2.476   0.930   4.927 -0.1620 -0.1064  0.1111
 1174TIP3    H1 3463   2.434   0.854   4.887 -3.5434  1.6624 -0.1121
 1174TIP3    H2 3464   2.426   0.945   5.008  0.2399  1.9316  0.0512
 1175TIP3   OH2 3465   3.606   7.475   0.163  0.4430 -0.0675  0.0751
 1175TIP3    H1 3466   3.533   7.449   0.219  1.3043  1.0983  1.8351
 1175TIP3    H2 3467   3.567   7.492   0.078 -1.5121  1.3810  1.1832
 1176TIP3   OH2 3468   7.574   1.580   1.414  0.0922 -0.3088  0.0875
 1176TIP3    H1 3469   7.597   1.669   1.441 -0.2353  0.0999 -0.9398
 1176TIP3    H2 3470   7.535   1.541   1.492 -1.9787  1.2381 -0.0756
 1177TIP3   OH2 3471   5.792   4.556   5.389  0.6632 -0.4173  0.1725
 1177TIP3    H1 3472   5.804   4.509   5.307  1.4920  1.3545 -0.7755
 1177TIP3    H2 3473   5.795   4.488   5.457 -1.5312 -2.1110 -1.3058
 1178TIP3   OH2 3474   7.413   3.485   3.443 -0.0662  0.1040 -0.5104
 1178TIP3    H1 3475   7.324   3.515   3.462  0.1437  1.2372 -1.2117
 1178TIP3    H2 3476   7.469   3.536   3.501  0.1278 -0.8086  0.1311
 1179TIP3   OH2 3477   4.724   2.487   6.087  0.5067  0.0850 -0.2743
 1179TIP3    H1 3478   4.646   2.537   6.063  0.8964  0.3013 -1.1179
 1179TIP3    H2 3479   4.774   2.545   6.144  0.9893  0.6995 -1.3034
 1180TIP3   OH2 3480   5.283   3.185   4.383 -0.5184  0.6055  0.6665
 1180TIP3    H1 3481   5.313   3.111   4.435 -0.8358  1.1476  1.6419
 1180TIP3    H2 3482   5.190   3.193   4.405 -0.4679  1.3379  0.6183
 1181TIP3   OH2 3483   8.299   7.027   1.442 -1.1898  0.4718  0.6929
 1181TIP3    H1 3484   8.277   6.934   1.433 -0.5973  0.2514  1.4410
 1181TIP3    H2 3485   8.218   7.067   1.475 -1.5623  0.2989  0.0232
 1182TIP3   OH2 3486   7.561   3.009   0.827  0.1913  0.5364 -0.0566
 1182TIP3    H1 3487   7.509   2.943   0.873  1.4270 -0.0174  0.6073
 1182TIP3    H2 3488   7.534   3.003   0.736 -0.6418  0.0251  0.2159
 1183TIP3   OH2 3489   1.949   2.107   1.336 -0.1522 -0.2535  0.1840
 1183TIP3    H1 3490   1.882   2.153   1.287 -1.8957 -0.6349  2.0844
 1183TIP3    H2 3491   1.971   2.031   1.282 -3.3598 -1.6955  0.6845
 1184TIP3   OH2 3492   2.028   6.893   3.138 -0.4895 -0.3039 -0.1144
 1184TIP3    H1 3493   2.055   6.823   3.198 -0.9654  0.0330  0.5022
 1184TIP3    H2 3494   1.938   6.871   3.115 -0.2237 -0.5812 -0.9444
 1185TIP3   OH2 3495   2.051   7.195   3.450 -0.4064 -0.0365 -0.4049
 1185TIP3    H1 3496   2.146   7.190   3.442 -0.3998 -0.8468  0.0217
 1185TIP3    H2 3497   2.018   7.172   3.363 -0.2125  0.6315 -0.6605
 1186TIP3   OH2 3498   4.951   6.559   0.549  0.1719  0.2043 -0.2583
 1186TIP3    H1 3499   4.973   6.466   0.542  0.8084  0.4388 -1.9179
 1186TIP3    H2 3500   5.029   6.599   0.588  0.0916  0.1160 -0.0051
 1187TIP3   OH2 3501   0.278   3.930   5.914 -0.2893  0.4413 -0.6507
 1187TIP3    H1 3502   0.213   3.983   5.867 -1.6919 -0.0380  0.6563
 1187TIP3    H2 3503   0.228   3.889   5.985  1.7325  1.1735  1.2924
 1188TIP3   OH2 3504   0.825   2.653   0.536 -0.7383 -0.0929  0.6861
 1188TIP3    H1 3505   0.882   2.728   0.519  0.1994 -0.3051  2.5820
 1188TIP3    H2 3506   0.850   2.624   0.624 -4.7993  0.7504  2.3459
 1189TIP3   OH2 3507   6.054   4.493   4.344 -0.1138 -0.0216  0.0038
 1189TIP3    H1 3508   6.083   4.404   4.325  0.8802  0.1557  0.6211
 1189TIP3    H2 3509   6.109   4.522   4.417 -0.2705  1.1674 -0.3167
 1190TIP3   OH2 3510   5.670   7.335   4.072 -0.8387  0.6111 -0.1888
 1190TIP3    H1 3511   5.591   7.386   4.056 -0.6689  0.3806 -1.8808
 1190TIP3    H2 3512   5.714   7.381   4.144 -1.5885  1.7804 -0.4574
 1191TIP3   OH2 3513   6.320   6.602   2.848  0.6868 -0.0706 -0.2244
 1191TIP3    H1 3514   6.409   6.575   2.826  1.8157  2.0863  1.3446
 1191TIP3    H2 3515   6.310   6.687   2.805 -0.4299 -0.0223  0.1011
 1192TIP3   OH2 3516   5.245   7.381   4.398 -0.2460  0.2332  0.2956
 1192TIP3    H1 3517   5.320   7.441   4.400  2.9194 -3.3264 -0.0152
 1192TIP3    H2 3518   5.240   7.347   4.487  1.1385 -2.2710 -0.4665
 1193TIP3   OH2 3519   4.299   3.910   1.232 -0.0498  0.4680  0.0711
 1193TIP3    H1 3520   4.340   3.876   1.312  0.2138  0.3911 -0.0960
 1193TIP3    H2 3521   4.229   3.847   1.213 -0.3343  0.6700  0.4286
 1194TIP3   OH2 3522   3.263   6.400   3.131 -0.0539 -0.0107 -0.8648
 1194TIP3    H1 3523   3.300   6.312   3.136  0.9856  0.0423 -4.4654
 1194TIP3    H2 3524   3.197   6.394   3.062  1.4230  2.3751 -2.6368
 1195TIP3   OH2 3525   7.137   5.053   1.914 -0.1081 -0.4351 -0.3738
 1195TIP3    H1 3526   7.157   5.028   2.004 -0.8948 -1.3699 -0.4483
 1195TIP3    H2 3527   7.107   5.144   1.920 -0.0509 -0.4546  0.2826
 1196TIP3   OH2 3528   6.585   6.499   2.762 -0.1775  0.0319 -0.0261
 1196TIP3    H1 3529   6.608   6.573   2.707 -1.0881  0.7720  0.5670
 1196TIP3    H2 3530   6.639   6.509   2.840 -0.2908  0.0542  0.0488
 1197TIP3   OH2 3531   7.346   4.657   4.005  0.3761 -0.7228  0.8803
 1197TIP3    H1 3532   7.433   4.674   3.969 -0.3158  3.0735  0.5246
 1197TIP3    H2 3533   7.300   4.611   3.936  1.3483 -0.4096 -0.0067
 1198TIP3   OH2 3534   0.546   3.412   3.266 -0.3560  0.2639 -0.4813
 1198TIP3    H1 3535   0.557   3.491   3.319 -1.6002  0.3834 -0.3706
 1198TIP3    H2 3536   0.470   3.368   3.304  1.2070 -1.8033  0.4388
 1199TIP3   OH2 3537   6.041   2.942   6.196  1.0773  0.2053 -0.1567
 1199TIP3    H1 3538   6.112   3.007   6.188 -0.0996  1.5128 -0.3583
 1199TIP3    H2 3539   5.970   2.989   6.239 -0.7249 -0.1595 -2.5063
 1200TIP3   OH2 3540   6.301   7.273   1.996  0.3068  0.3119 -0.1623
 1200TIP3    H1 3541   6.341   7.347   1.952  0.8078 -1.2993 -2.6313
 1200TIP3    H2 3542   6.374   7.225   2.036  0.0958  0.5857  0.5767
 1201TIP3   OH2 3543   1.930   1.610   3.559  0.2444  0.5153 -0.2491
 1201TIP3    H1 3544   2.001   1.589   3.619 -1.3069  0.1398  1.5421
 1201TIP3    H2 3545   1.936   1.544   3.490  0.5783 -0.5875  0.8034
 1202TIP3   OH2 3546   5.107   2.897   0.096  0.1811 -0.0882 -0.0757
 1202TIP3    H1 3547   5.060   2.960   0.042  0.0219 -0.3576 -0.2531
 1202TIP3    H2 3548   5.050   2.821   0.100  1.5619 -1.3461 -2.2299
 1203TIP3   OH2 3549   0.334   4.325   3.435  0.1394 -0.4716  0.8870
 1203TIP3    H1 3550   0.245   4.344   3.465  0.2176 -0.2898  0.9987
 1203TIP3    H2 3551   0.350   4.389   3.366  0.4108 -0.1167  1.2796
 1204TIP3   OH2 3552   3.880   5.905   3.724  0.3936 -0.0588 -0.1627
 1204TIP3    H1 3553   3.875   5.895   3.819  0.9425  0.0969 -0.1176
 1204TIP3    H2 3554   3.820   5.837   3.690  0.7313 -0.5804  0.2731
 1205TIP3   OH2 3555   2.046   4.443   0.811  0.1405 -0.0975 -0.1551
 1205TIP3    H1 3556   1.960   4.470   0.842  0.7282  0.2896  1.2409
 1205TIP3    H2 3557   2.050   4.349   0.828  0.0782 -0.0708  0.0110
 1206TIP3   OH2 3558   6.159   2.778   6.727  0.2470 -0.1933 -0.5601
 1206TIP3    H1 3559   6.196   2.810   6.809 -2.1224  0.2229  0.4301
 1206TIP3    H2 3560   6.080   2.731   6.753 -1.6111  1.5250 -2.6774
 1207TIP3   OH2 3561   2.757   3.255   4.888 -0.2929  0.0379 -0.0954
 1207TIP3    H1 3562   2.792   3.322   4.947 -0.6583  0.8950 -0.8293
 1207TIP3    H2 3563   2.833   3.224   4.839 -0.6003  2.8923 -2.6940
 1208TIP3   OH2 3564   1.482   3.981   4.512  0.3118  0.5157  0.1528
 1208TIP3    H1 3565   1.476   3.949   4.602 -1.4282 -1.2086 -0.5004
 1208TIP3    H2 3566   1.462   4.074   4.518  0.7832  0.5434  1.6048
 1209TIP3   OH2 3567   2.694   7.869   2.557  0.0314  0.2946 -0.2983
 1209TIP3    H1 3568   2.766   7.819   2.519 -1.2717 -0.9793 -1.1727
 1209TIP3    H2 3569   2.700   7.850   2.651  1.8244  1.5590 -0.1164
 1210TIP3   OH2 3570   5.828   6.743   3.550 -0.0737 -0.6146  0.0016
 1210TIP3    H1 3571   5.824   6.835   3.522 -1.3536 -0.9943 -1.1948
 1210TIP3    H2 3572   5.742   6.726   3.589 -0.3466 -1.6532 -1.0091
 1211TIP3   OH2 3573   8.061   7.081   1.788  0.9505 -0.3361  0.1200
 1211TIP3    H1 3574   8.098   6.994   1.804 -1.8352 -1.6703 -0.1177
 1211TIP3    H2 3575   8.050   7.086   1.693  0.8354  0.1607  0.1565
 1212TIP3   OH2 3576   2.012   0.364   0.673  0.2654 -0.2659 -0.0932
 1212TIP3    H1 3577   2.068   0.288   0.686  0.7892 -0.0670 -1.0949
 1212TIP3    H2 3578   2.068   0.427   0.628 -0.4075  0.3963 -0.0105
 1213TIP3   OH2 3579   6.490   4.690   0.482  0.2334 -0.0654  0.4145
 1213TIP3    H1 3580   6.585   4.696   0.485  0.2616 -0.3101  0.0352
 1213TIP3    H2 3581   6.461   4.779   0.459  0.3598  0.0394  0.6514
 1214TIP3   OH2 3582   5.064   0.207   1.462  0.2044  0.2356  0.6546
 1214TIP3    H1 3583   5.107   0.280   1.506 -0.8364  0.6600  0.9974
 1214TIP3    H2 3584   5.100   0.128   1.504  2.0599  0.4750 -0.3747
 1215TIP3   OH2 3585   1.376   6.431   5.501 -0.0499  0.5155 -0.5089
 1215TIP3    H1 3586   1.349   6.385   5.421 -0.3289  1.9603 -1.2776
 1215TIP3    H2 3587   1.409   6.515   5.470  2.2315  0.1397  0.7089
 1216TIP3   OH2 3588   0.883   5.940   0.011  0.3955  0.4555  0.3601
 1216TIP3    H1 3589   0.829   5.918   0.087 -0.1037  0.5239  0.0280
 1216TIP3    H2 3590   0.820   5.964  -0.057  0.8077 -0.1550 -0.2525
 1217TIP3   OH2 3591   5.696   6.208   3.364 -0.3387  0.0350 -0.3314
 1217TIP3    H1 3592   5.758   6.137   3.350  1.0015  1.4105 -1.8715
 1217TIP3    H2 3593   5.673   6.237   3.276 -1.2163  1.1990  0.2514
 1218TIP3   OH2 3594   6.471   0.722   1.118 -0.5552 -0.1431 -0.1932
 1218TIP3    H1 3595   6.502   0.677   1.040  1.6115  0.1791  0.4166
 1218TIP3    H2 3596   6.547   0.771   1.149 -1.9172  1.3027  1.0229
 1219TIP3   OH2 3597   8.236   6.507   5.687  0.3359  0.3813  0.2957
 1219TIP3    H1 3598   8.247   6.545   5.599 -0.6613  0.3852  0.1568
 1219TIP3    H2 3599   8.173   6.436   5.674 -0.9934  1.3458  1.2491
 1220TIP3   OH2 3600   4.608   3.502   4.908 -0.2946 -0.3039  0.1558
 1220TIP3    H1 3601   4.541   3.568   4.926  0.6608  0.7084  0.1387
 1220TIP3    H2 3602   4.691   3.549   4.919  0.4092 -1.4372 -0.1522
 1221TIP3   OH2 3603   6.653   1.399   0.836  0.3497  0.0010  0.1911
 1221TIP3    H1 3604   6.692   1.480   0.803 -0.0936 -0.3896 -1.3612
 1221TIP3    H2 3605   6.725   1.353   0.880  0.9198  0.6277 -0.0760
 1222TIP3   OH2 3606   8.007   0.479   0.390  0.0843 -0.0729  0.4632
 1222TIP3    H1 3607   7.978   0.453   0.302 -1.7010  0.4373  0.8584
 1222TIP3    H2 3608   8.056   0.560   0.375  0.6073 -0.4902 -0.1483
 1223TIP3   OH2 3609   2.873   0.586   2.958 -0.3974  0.0663 -0.1875
 1223TIP3    H1 3610   2.802   0.560   3.017 -0.1877 -0.9494 -0.3726
 1223TIP3    H2 3611   2.911   0.663   3.000  1.0821 -1.8011  2.1488
 1224TIP3   OH2 3612   2.683   4.947   2.405 -0.1767  0.1136 -0.6431
 1224TIP3    H1 3613   2.597   4.944   2.364 -0.3874  0.9011 -0.2678
 1224TIP3    H2 3614   2.681   5.025   2.460  0.7833  0.1386 -0.6353
 1225TIP3   OH2 3615   2.283   1.434   6.094 -0.3239 -0.3344  0.1095
 1225TIP3    H1 3616   2.346   1.362   6.085  1.3612  1.0104  0.4625
 1225TIP3    H2 3617   2.304   1.473   6.179 -0.1703  1.4539 -0.7032
 1226TIP3   OH2 3618   1.726   3.806   3.250  0.3197 -0.0031  0.1408
 1226TIP3    H1 3619   1.681   3.855   3.319  1.2238  0.6343  0.2894
 1226TIP3    H2 3620   1.744   3.721   3.288 -2.0578 -0.8518 -0.4032
 1227TIP3   OH2 3621   7.726   4.756   0.685 -0.0704 -0.3573 -0.1541
 1227TIP3    H1 3622   7.766   4.840   0.710  0.3712 -0.8659  0.8806
 1227TIP3    H2 3623   7.633   4.776   0.678  0.0347  0.2296  0.0509
 1228TIP3   OH2 3624   3.266   4.133   1.597  0.3110  0.0306  0.2042
 1228TIP3    H1 3625   3.179   4.110   1.564 -0.5207  0.1090  2.1601
 1228TIP3    H2 3626   3.254   4.219   1.638  1.7105  0.7735 -0.8667
 1229TIP3   OH2 3627   1.212   0.539   2.603 -0.5692  0.0622  0.6641
 1229TIP3    H1 3628   1.123   0.546   2.571 -1.0533 -0.4584  1.8480
 1229TIP3    H2 3629   1.213   0.587   2.686 -0.3918 -1.8355  1.8469
 1230TIP3   OH2 3630   4.354   2.533   4.973 -0.1418  0.1479 -0.2486
 1230TIP3    H1 3631   4.396   2.565   5.053 -0.2491 -0.7328  0.1705
 1230TIP3    H2 3632   4.334   2.441   4.991 -2.6812  0.6218 -0.2340
 1231TIP3   OH2 3633   2.032   4.924   5.811 -0.6988  0.0469 -0.4763
 1231TIP3    H1 3634   2.067   4.979   5.881 -0.1205  0.0395 -0.7524
 1231TIP3    H2 3635   2.027   4.983   5.735 -1.0451 -0.0176 -0.5021
 1232TIP3   OH2 3636   4.294   1.742   0.500  0.0136 -0.4156 -0.1192
 1232TIP3    H1 3637   4.345   1.804   0.553 -0.7515 -0.1138  0.2706
 1232TIP3    H2 3638   4.359   1.702   0.443  0.7595 -0.2810  0.6032
 1233TIP3   OH2 3639   0.358   7.202   5.111 -0.1928 -0.0459  0.0280
 1233TIP3    H1 3640   0.433   7.168   5.159  0.1983  0.9336  0.1390
 1233TIP3    H2 3641   0.393   7.228   5.026 -0.8936 -1.8184 -0.8429
 1234TIP3   OH2 3642   7.650   7.781   2.337 -0.0605 -0.0181  0.1977
 1234TIP3    H1 3643   7.677   7.743   2.253 -2.7998 -4.3621  0.9223
 1234TIP3    H2 3644   7.717   7.752   2.399  0.1460  0.1286  0.0430
 1235TIP3   OH2 3645   5.427   1.903   3.822 -0.1794  0.4922  0.1392
 1235TIP3    H1 3646   5.464   1.858   3.899 -0.5012  1.1194  0.6692
 1235TIP3    H2 3647   5.394   1.832   3.767 -1.3411  0.0764  1.3080
 1236TIP3   OH2 3648   7.057   2.815   2.056  0.4043 -0.2758  0.1309
 1236TIP3    H1 3649   7.012   2.769   1.985  1.2912  0.0529 -0.6560
 1236TIP3    H2 3650   7.077   2.747   2.120 -1.7724 -0.3339  0.8227
 1237TIP3   OH2 3651   7.090   2.576   1.465 -0.8412 -0.4199  0.3036
 1237TIP3    H1 3652   7.050   2.541   1.385 -1.5806  2.5119 -0.7227
 1237TIP3    H2 3653   7.184   2.566   1.450 -0.9795 -3.0316  0.6659
 1238TIP3   OH2 3654   6.299   1.353   0.911 -0.6733 -0.2889 -0.5164
 1238TIP3    H1 3655   6.253   1.348   0.995  0.1366 -0.0860 -0.0577
 1238TIP3    H2 3656   6.323   1.445   0.902 -1.6170 -0.1134 -1.4472
 1239TIP3   OH2 3657   7.221   2.011   3.263  0.0310 -0.2907  0.2301
 1239TIP3    H1 3658   7.294   1.997   3.323  0.3196 -1.1631 -0.2987
 1239TIP3    H2 3659   7.256   2.066   3.194  0.4449 -1.3524 -0.4372
 1240TIP3   OH2 3660   3.832   1.408   0.153  0.6992 -0.1855 -0.2645
 1240TIP3    H1 3661   3.775   1.350   0.203  0.2768 -0.6271 -1.2292
 1240TIP3    H2 3662   3.919   1.394   0.190  0.2062  0.4867  1.2168
 1241TIP3   OH2 3663   4.304   3.612   5.118  0.6905  0.2112 -0.4140
 1241TIP3    H1 3664   4.262   3.664   5.049 -0.0625 -0.6989 -0.6678
 1241TIP3    H2 3665   4.384   3.659   5.138 -1.1475  2.9275  1.2043
 1242TIP3   OH2 3666   5.750   5.093   2.915 -0.0244 -0.5180  0.1721
 1242TIP3    H1 3667   5.839   5.114   2.886  0.2138 -0.6079  0.8224
 1242TIP3    H2 3668   5.741   4.999   2.899  0.5595 -0.8321  1.5242
 1243TIP3   OH2 3669   0.018   2.561   1.726 -0.1343 -0.5347 -0.3733
 1243TIP3    H1 3670   0.087   2.541   1.663 -1.3992  0.2685 -2.1195
 1243TIP3    H2 3671   0.027   2.655   1.742 -0.5647 -0.5077 -0.2866
 1244TIP3   OH2 3672   0.838   1.850   2.250 -0.1421 -0.2130 -0.5232
 1244TIP3    H1 3673   0.743   1.866   2.254 -0.1921 -0.4073 -0.9438
 1244TIP3    H2 3674   0.847   1.778   2.188  0.1667 -1.1299  0.5454
 1245TIP3   OH2 3675   2.326   2.791   3.347 -0.3260  0.0929 -0.9366
 1245TIP3    H1 3676   2.379   2.843   3.287 -0.4631  0.0104 -1.1308
 1245TIP3    H2 3677   2.262   2.747   3.290 -0.1245 -0.3893 -0.7914
 1246TIP3   OH2 3678   3.528   2.073   5.177 -0.1055 -0.1363 -0.2185
 1246TIP3    H1 3679   3.438   2.044   5.191  0.0912  0.6055  3.4694
 1246TIP3    H2 3680   3.520   2.161   5.140 -0.9545  0.3734  1.1285
 1247TIP3   OH2 3681   4.046   3.624   2.764 -0.9254  0.5989  0.0491
 1247TIP3    H1 3682   4.042   3.556   2.698 -1.2111  0.4663  0.2028
 1247TIP3    H2 3683   4.030   3.578   2.847  2.3046  0.2109  0.5878
 1248TIP3   OH2 3684   6.733   6.395   4.373 -0.0158  0.2962  0.3577
 1248TIP3    H1 3685   6.674   6.417   4.445 -2.7506  2.2164 -2.2674
 1248TIP3    H2 3686   6.705   6.308   4.344  1.7798 -0.9634  2.0877
 1249TIP3   OH2 3687   0.199   2.729   2.772 -0.1968 -0.6001  0.0657
 1249TIP3    H1 3688   0.205   2.754   2.680 -0.9965  0.8100  0.3751
 1249TIP3    H2 3689   0.285   2.693   2.793  0.7734  1.2219 -0.6155
 1250TIP3   OH2 3690   2.591   1.606   2.862  0.0485  0.1293 -0.8896
 1250TIP3    H1 3691   2.547   1.691   2.876  2.1119  1.1157  0.0321
 1250TIP3    H2 3692   2.642   1.592   2.942 -0.1154 -1.9465 -1.0933
 1251TIP3   OH2 3693   8.165   2.102   3.810 -0.6174  0.5818 -0.0839
 1251TIP3    H1 3694   8.134   2.172   3.753  0.0830  0.3363 -0.7762
 1251TIP3    H2 3695   8.171   2.025   3.754  2.1562  0.8298 -0.2649
 1252TIP3   OH2 3696   6.322   7.485   6.627 -0.3105  0.2980 -0.4691
 1252TIP3    H1 3697   6.267   7.532   6.689  1.5021  2.0566 -0.1002
 1252TIP3    H2 3698   6.409   7.523   6.637  0.8801 -1.9183 -1.4844
 1253TIP3   OH2 3699   7.713   2.124   3.443  0.3321 -0.0232  0.3757
 1253TIP3    H1 3700   7.773   2.191   3.476  0.4254  1.9732 -3.2985
 1253TIP3    H2 3701   7.768   2.047   3.430  1.0699  0.3377  1.2475
 1254TIP3   OH2 3702   4.328   3.531   5.564  0.0661  0.1761 -0.3309
 1254TIP3    H1 3703   4.348   3.447   5.605 -1.9002 -0.5863 -0.8096
 1254TIP3    H2 3704   4.332   3.513   5.470  1.6951  1.1819 -0.4869
 1255TIP3   OH2 3705   7.034   6.272   3.357 -0.5467 -0.0629  0.0348
 1255TIP3    H1 3706   7.029   6.355   3.405 -2.9425 -0.0510 -0.1346
 1255TIP3    H2 3707   7.089   6.292   3.281  0.6442  0.7724  1.0778
 1256TIP3   OH2 3708   2.864   7.037   3.535  0.0955 -0.3306 -0.1558
 1256TIP3    H1 3709   2.879   7.059   3.627 -0.8547 -0.1058 -0.0446
 1256TIP3    H2 3710   2.894   7.113   3.486 -3.2978  1.4523  0.2302
 1257TIP3   OH2 3711   4.024   6.579   4.552 -0.3177  0.1937  0.3472
 1257TIP3    H1 3712   3.978   6.662   4.548 -1.7219 -0.4139  2.4180
 1257TIP3    H2 3713   3.958   6.513   4.530 -0.6047 -0.6930  3.3580
 1258TIP3   OH2 3714   2.583   2.784   1.499  0.5273  0.2157  0.3230
 1258TIP3    H1 3715   2.514   2.774   1.565  2.6730  2.2119  3.1202
 1258TIP3    H2 3716   2.604   2.694   1.473 -2.6846 -0.4831 -0.3325
 1259TIP3   OH2 3717   1.060   3.544   5.065 -0.5190 -0.4300  0.0385
 1259TIP3    H1 3718   1.142   3.578   5.028 -1.0647 -0.9806 -1.7628
 1259TIP3    H2 3719   1.027   3.615   5.119  0.3680  0.3955 -0.4745
 1260TIP3   OH2 3720   2.568   7.870   2.202  0.4041  0.5345  0.2630
 1260TIP3    H1 3721   2.634   7.938   2.189 -0.1844  1.0394 -0.2079
 1260TIP3    H2 3722   2.614   7.788   2.187  1.5680  0.6889  2.6255
 1261TIP3   OH2 3723   0.844   4.807   4.291  0.4311 -0.4149  0.0440
 1261TIP3    H1 3724   0.773   4.743   4.299  0.2444 -0.3101 -0.7123
 1261TIP3    H2 3725   0.812   4.870   4.226  0.9232  0.0312  0.2274
 1262TIP3   OH2 3726   7.071   4.689   4.276  0.6233  0.4219  0.8141
 1262TIP3    H1 3727   7.017   4.615   4.247 -0.6845  0.7908  2.2027
 1262TIP3    H2 3728   7.109   4.660   4.359  1.5988  0.6340  0.4528
 1263TIP3   OH2 3729   2.087   3.000   4.270 -0.2630 -0.2769  0.1190
 1263TIP3    H1 3730   2.115   3.045   4.351 -0.0894 -0.3259  0.0866
 1263TIP3    H2 3731   2.090   3.068   4.203 -0.8371 -0.1286  0.2405
 1264TIP3   OH2 3732   8.344   2.576   1.095 -0.3279 -0.2693 -0.7296
 1264TIP3    H1 3733   8.314   2.492   1.062  1.2979 -0.2379 -2.4387
 1264TIP3    H2 3734   8.278   2.639   1.066 -0.2379 -0.6061 -1.6755
 1265TIP3   OH2 3735   5.833   1.783   6.785  0.1929  0.1651  0.5798
 1265TIP3    H1 3736   5.825   1.840   6.862  0.2703  0.0825  0.6492
 1265TIP3    H2 3737   5.846   1.843   6.712 -0.0797  0.2547  0.6018
 1266TIP3   OH2 3738   4.622   6.755   2.781  0.3408 -0.2497 -0.3103
 1266TIP3    H1 3739   4.544   6.707   2.754  0.2473 -0.1188 -0.2710
 1266TIP3    H2 3740   4.643   6.812   2.706  1.2357 -1.3186 -0.9030
 1267TIP3   OH2 3741   5.315   0.775   5.974  0.2366 -0.3989  0.1084
 1267TIP3    H1 3742   5.328   0.776   5.879 -0.9076  0.2028 -0.0533
 1267TIP3    H2 3743   5.235   0.724   5.987 -0.4395  0.7589  0.6194
 1268TIP3   OH2 3744   2.837   2.797   3.426  0.3160 -0.2581 -0.3432
 1268TIP3    H1 3745   2.907   2.817   3.489  0.6917  0.3155 -0.9231
 1268TIP3    H2 3746   2.842   2.869   3.362 -2.2745  1.0691  0.8026
 1269TIP3   OH2 3747   3.519   3.443   4.895  0.0361  0.4302 -0.8500
 1269TIP3    H1 3748   3.548   3.470   4.807  1.3453  0.2013 -0.5095
 1269TIP3    H2 3749   3.448   3.381   4.879 -0.1687  0.8722 -1.7314
 1270TIP3   OH2 3750   1.337   2.700   6.134  0.6267 -0.2823  0.3874
 1270TIP3    H1 3751   1.272   2.769   6.147 -0.2811 -1.0280 -0.0539
 1270TIP3    H2 3752   1.311   2.658   6.052  0.1301 -2.2395  1.5011
 1271TIP3   OH2 3753   5.523   5.550   5.762  0.0110  0.2680  0.0512
 1271TIP3    H1 3754   5.605   5.511   5.793  0.8405  1.7121 -0.2197
 1271TIP3    H2 3755   5.500   5.499   5.685  1.2715  0.5318 -0.5242
 1272TIP3   OH2 3756   4.623   5.202   4.461 -0.1856  0.4630 -0.1053
 1272TIP3    H1 3757   4.540   5.237   4.429 -0.8385  0.5078  1.5322
 1272TIP3    H2 3758   4.630   5.235   4.551  1.1943 -0.2472  0.0769
 1273TIP3   OH2 3759   4.691   2.222   2.472  0.2428 -0.1345  0.0174
 1273TIP3    H1 3760   4.706   2.299   2.416 -0.4522 -0.1778 -0.2447
 1273TIP3    H2 3761   4.662   2.154   2.412  0.5417 -0.5148  0.2946
 1274TIP3   OH2 3762   2.836   7.450   6.569  0.2090 -0.6779 -0.5175
 1274TIP3    H1 3763   2.905   7.516   6.579 -1.2513  0.6113  2.3637
 1274TIP3    H2 3764   2.843   7.397   6.649 -2.5070 -0.0177  0.2705
 1275TIP3   OH2 3765   0.408   0.645   3.298 -0.0210  0.4496 -0.2536
 1275TIP3    H1 3766   0.418   0.550   3.296 -1.7747  0.2303  0.3996
 1275TIP3    H2 3767   0.335   0.661   3.357  1.0868  2.2991  0.7057
 1276TIP3   OH2 3768   3.966   7.142   6.383 -0.6326 -0.0650  0.6750
 1276TIP3    H1 3769   3.989   7.221   6.334 -1.1995  0.3415  1.0382
 1276TIP3    H2 3770   4.035   7.080   6.363 -1.2889 -0.2329 -1.3565
 1277TIP3   OH2 3771   4.070   4.926   6.220  0.4296  0.7287 -0.2552
 1277TIP3    H1 3772   4.118   4.939   6.138 -0.0576 -1.4232 -0.9604
 1277TIP3    H2 3773   4.106   4.991   6.280  3.5318 -0.1082 -1.0147
 1278TIP3   OH2 3774   3.496   1.034   0.718 -0.2102  0.5413 -0.5243
 1278TIP3    H1 3775   3.585   1.004   0.700 -0.0022  0.0024  1.2012
 1278TIP3    H2 3776   3.468   1.076   0.637  1.1453 -0.3903 -1.5314
 1279TIP3   OH2 3777   0.815   4.032   2.419 -0.2328  0.1363  0.5105
 1279TIP3    H1 3778   0.790   4.123   2.435 -2.0755 -0.4893  1.4865
 1279TIP3    H2 3779   0.773   3.983   2.490 -0.6268 -1.6610 -0.8982
 1280TIP3   OH2 3780   2.829   2.619   2.399 -0.0494  0.1857 -0.2353
 1280TIP3    H1 3781   2.747   2.571   2.400 -0.1256  0.2256 -2.1145
 1280TIP3    H2 3782   2.878   2.584   2.325  0.5679  1.8702 -0.6807
 1281TIP3   OH2 3783   6.271   4.795   4.370 -0.2139  0.3128  0.2080
 1281TIP3    H1 3784   6.287   4.762   4.281 -3.7616  0.7983 -0.7770
 1281TIP3    H2 3785   6.357   4.822   4.402  1.2623 -0.3085 -2.8812
 1282TIP3   OH2 3786   7.296   5.195   3.318  0.6042 -0.2302 -0.0921
 1282TIP3    H1 3787   7.333   5.248   3.388 -0.6336  2.3289 -1.2212
 1282TIP3    H2 3788   7.228   5.143   3.360  1.3969 -0.4358  0.9597
 1283TIP3   OH2 3789   1.292   3.217   0.908  0.1807  0.0184 -0.1998
 1283TIP3    H1 3790   1.294   3.313   0.905  0.5739  0.0137 -0.1841
 1283TIP3    H2 3791   1.381   3.191   0.883 -0.0508 -0.3545 -0.6377
 1284TIP3   OH2 3792   2.798   4.043   2.610 -0.1322  0.2974 -0.7772
 1284TIP3    H1 3793   2.717   4.047   2.558  0.6894  2.6350 -2.0091
 1284TIP3    H2 3794   2.864   4.087   2.555  1.6990 -0.4678  0.7055
 1285TIP3   OH2 3795   2.506   7.302   4.332 -0.5838 -0.2427  0.5375
 1285TIP3    H1 3796   2.596   7.270   4.325 -0.2348  0.4909  1.5017
 1285TIP3    H2 3797   2.452   7.223   4.322  0.1890 -0.8204  0.8438
 1286TIP3   OH2 3798   5.935   2.093   3.805  0.4103 -0.4358 -0.1627
 1286TIP3    H1 3799   5.923   2.047   3.722 -0.6771 -1.0417  0.3026
 1286TIP3    H2 3800   5.853   2.078   3.852  0.5852  0.8178  0.5768
 1287TIP3   OH2 3801   3.330   3.292   3.947  0.1542  0.2792 -0.0203
 1287TIP3    H1 3802   3.335   3.244   3.864  0.5504  2.2286 -1.1826
 1287TIP3    H2 3803   3.421   3.315   3.967 -0.1899  2.5349 -0.7696
 1288TIP3   OH2 3804   6.111   3.673   4.453 -0.2264 -0.3807 -0.0193
 1288TIP3    H1 3805   6.043   3.667   4.385  0.1139 -1.3288 -0.3034
 1288TIP3    H2 3806   6.118   3.584   4.487  3.0417 -1.1419 -2.1959
 1289TIP3   OH2 3807   3.797   0.898   2.240  0.2106  0.0024 -0.2597
 1289TIP3    H1 3808   3.833   0.827   2.187  0.5377 -0.1952  0.2198
 1289TIP3    H2 3809   3.872   0.929   2.291 -0.1671  0.0022  0.2977
 1290TIP3   OH2 3810   3.681   5.759   3.897 -0.1315 -0.0904 -0.2925
 1290TIP3    H1 3811   3.626   5.829   3.931 -1.0391 -1.7171  1.8547
 1290TIP3    H2 3812   3.763   5.768   3.944 -0.6618 -1.1134  0.8788
 1291TIP3   OH2 3813   1.873   0.980   3.974  0.1714  0.0302 -0.0288
 1291TIP3    H1 3814   1.817   1.053   3.948  0.8223  0.7007  0.4562
 1291TIP3    H2 3815   1.868   0.919   3.899 -1.1335  0.1035 -0.0292
 1292TIP3   OH2 3816   4.108   3.484   4.506  0.2767 -0.4491 -0.0118
 1292TIP3    H1 3817   4.200   3.461   4.517 -0.0337 -1.6493  0.2099
 1292TIP3    H2 3818   4.060   3.419   4.558 -0.6363  0.9816  1.0101
 1293TIP3   OH2 3819   6.355   3.364   3.217  0.9950 -0.2973  0.5353
 1293TIP3    H1 3820   6.401   3.429   3.164 -0.8919 -0.8648 -1.9849
 1293TIP3    H2 3821   6.355   3.285   3.163 -0.2386 -1.1996  1.7926
 1294TIP3   OH2 3822   2.341   2.079   2.330 -0.3340  0.1424 -0.0647
 1294TIP3    H1 3823   2.385   2.117   2.407  0.6036 -0.4124 -0.3100
 1294TIP3    H2 3824   2.317   1.991   2.358 -0.5091  0.1400 -0.2231
 1295TIP3   OH2 3825   4.807   0.057   1.793  0.6047 -0.5571  0.1797
 1295TIP3    H1 3826   4.873  -0.009   1.773  1.0510  0.5458 -2.2865
 1295TIP3    H2 3827   4.728   0.026   1.750  0.8593  0.5443 -1.1357
 1296TIP3   OH2 3828   7.853   7.551   4.552 -0.1862  0.7995  0.0401
 1296TIP3    H1 3829   7.776   7.567   4.606 -0.8105 -0.3599 -0.4638
 1296TIP3    H2 3830   7.818   7.513   4.471  0.8888  0.5129 -0.3099
 1297TIP3   OH2 3831   2.869   2.552   6.098 -0.2721 -0.6384 -0.4265
 1297TIP3    H1 3832   2.775   2.562   6.083  0.1342  0.7302 -2.4473
 1297TIP3    H2 3833   2.896   2.484   6.037  0.4858  1.0743 -2.1141
 1298TIP3   OH2 3834   8.312   5.783   4.991  0.3019  0.4677  0.5172
 1298TIP3    H1 3835   8.343   5.873   4.988  1.7837  0.0025  0.5580
 1298TIP3    H2 3836   8.316   5.754   4.899 -0.5096  0.5471  0.4555
 1299TIP3   OH2 3837   5.769   1.546   4.805 -0.9548  0.2160  0.0118
 1299TIP3    H1 3838   5.733   1.595   4.879  0.6362 -1.9386  2.4041
 1299TIP3    H2 3839   5.707   1.475   4.791 -0.7258  0.0109  0.0255
 1300TIP3   OH2 3840   0.709   5.223   0.522 -0.0376 -0.0123 -0.3770
 1300TIP3    H1 3841   0.746   5.296   0.572  0.1984 -0.2688 -0.1700
 1300TIP3    H2 3842   0.674   5.164   0.589  1.0410 -0.7710 -0.4591
 1301TIP3   OH2 3843   3.646   4.825   2.880 -0.3989 -0.1599  0.3963
 1301TIP3    H1 3844   3.724   4.771   2.895 -2.3248 -3.4480 -0.3860
 1301TIP3    H2 3845   3.597   4.819   2.962 -1.2149 -0.6827 -0.1169
 1302TIP3   OH2 3846   1.444   3.961   3.845 -0.2277  0.5549 -0.2836
 1302TIP3    H1 3847   1.531   3.920   3.846 -1.5089 -2.3778  0.7386
 1302TIP3    H2 3848   1.428   3.979   3.752  0.5909 -0.9965 -0.7672
 1303TIP3   OH2 3849   4.393   5.854   4.833  0.1325 -0.6118 -0.3333
 1303TIP3    H1 3850   4.417   5.789   4.767  0.5937 -3.3206  2.3032
 1303TIP3    H2 3851   4.470   5.863   4.888 -1.0664 -0.5594  1.4335
 1304TIP3   OH2 3852   7.907   7.238   4.160  0.4946 -0.2727  0.1154
 1304TIP3    H1 3853   7.832   7.201   4.208  0.1874 -0.7108 -0.6918
 1304TIP3    H2 3854   7.983   7.191   4.195  0.2463 -0.7628  0.0113
 1305TIP3   OH2 3855   3.182   1.437   4.671  0.0266  1.0337 -0.8627
 1305TIP3    H1 3856   3.164   1.530   4.656 -0.4609  0.9441 -0.8398
 1305TIP3    H2 3857   3.193   1.401   4.583  0.7908  1.2199 -0.8527
 1306TIP3   OH2 3858   2.484   5.017   0.351  0.1188 -0.0856  0.0141
 1306TIP3    H1 3859   2.490   4.924   0.374  2.4031 -0.2784 -1.0893
 1306TIP3    H2 3860   2.509   5.063   0.431 -1.6251 -0.3495  0.7541
 1307TIP3   OH2 3861   2.956   4.588   5.265 -0.5837 -0.8471  0.4140
 1307TIP3    H1 3862   2.974   4.668   5.217 -0.7934 -0.6432  0.6686
 1307TIP3    H2 3863   3.011   4.595   5.344  0.5900 -1.6779 -0.2880
 1308TIP3   OH2 3864   4.766   0.158   4.891 -0.5417 -0.1854 -0.0936
 1308TIP3    H1 3865   4.759   0.163   4.987  0.6154  1.2558 -0.0567
 1308TIP3    H2 3866   4.860   0.160   4.874 -0.7375  3.0103 -1.3772
 1309TIP3   OH2 3867   5.361   5.539   2.787  0.3928 -0.2538  0.8255
 1309TIP3    H1 3868   5.424   5.467   2.789 -0.2866 -0.8504  1.3929
 1309TIP3    H2 3869   5.357   5.571   2.877  2.0269  1.7227  0.2626
 1310TIP3   OH2 3870   7.092   2.396   5.545  0.5656  0.0167 -0.1348
 1310TIP3    H1 3871   7.114   2.450   5.621 -0.1165 -1.2978  1.0474
 1310TIP3    H2 3872   7.160   2.329   5.543  1.3107  0.7708 -1.4913
 1311TIP3   OH2 3873   6.754   4.031   3.093  0.1971  0.3934 -0.1587
 1311TIP3    H1 3874   6.670   4.051   3.134  0.4368 -0.2900  0.6934
 1311TIP3    H2 3875   6.819   4.057   3.158  0.5718 -1.1839  0.1386
 1312TIP3   OH2 3876   1.349   0.914   1.967  0.0541 -0.4509 -0.1866
 1312TIP3    H1 3877   1.279   0.849   1.958 -0.8522  0.6467 -1.5726
 1312TIP3    H2 3878   1.401   0.884   2.042 -2.4192 -0.8246  1.4779
 1313TIP3   OH2 3879   0.061   5.922   6.487 -0.3342  0.3701 -0.0704
 1313TIP3    H1 3880   0.109   5.885   6.413  0.7341  0.8355  0.3753
 1313TIP3    H2 3881   0.055   5.850   6.550 -1.2456 -0.0273 -0.5949
 1314TIP3   OH2 3882   6.163   6.209   4.980  0.4910 -0.2278 -0.6324
 1314TIP3    H1 3883   6.205   6.273   4.922  2.0940  1.2388  1.9560
 1314TIP3    H2 3884   6.083   6.253   5.010  0.0850 -0.6522 -1.0802
 1315TIP3   OH2 3885   7.999   2.005   5.071  0.0714  0.0064 -0.3594
 1315TIP3    H1 3886   8.090   2.009   5.041 -0.4600  1.1049 -1.9154
 1315TIP3    H2 3887   7.949   2.055   5.006 -1.8072 -1.4284 -0.1233
 1316TIP3   OH2 3888   2.729   0.158   3.681 -0.0685  0.4510 -0.0826
 1316TIP3    H1 3889   2.727   0.220   3.754 -2.0727 -1.9154  2.1077
 1316TIP3    H2 3890   2.646   0.170   3.636  0.1885  0.3735 -0.5844
 1317TIP3   OH2 3891   1.308   2.105   3.388  0.4989 -0.0228  0.1763
 1317TIP3    H1 3892   1.249   2.179   3.372  0.7825  0.0610 -0.5023
 1317TIP3    H2 3893   1.304   2.092   3.483 -1.5079 -0.7645  0.0319
 1318TIP3   OH2 3894   3.584   4.541   3.091  0.1460 -1.2930 -0.0387
 1318TIP3    H1 3895   3.659   4.587   3.129 -0.4493 -0.0239 -0.3584
 1318TIP3    H2 3896   3.522   4.533   3.164 -0.0774 -0.8556 -0.1761
 1319TIP3   OH2 3897   5.494   4.764   0.940 -0.0707 -0.1042  0.2348
 1319TIP3    H1 3898   5.566   4.776   1.002  1.5136  0.6355 -1.6437
 1319TIP3    H2 3899   5.419   4.742   0.995  1.4139 -0.2578  2.3356
 1320TIP3   OH2 3900   2.468   4.194   6.674 -1.1288  0.3805  0.1602
 1320TIP3    H1 3901   2.547   4.248   6.673 -1.8661  1.4835 -0.9177
 1320TIP3    H2 3902   2.453   4.171   6.582 -1.5265 -0.6328  0.4643
 1321TIP3   OH2 3903   3.403   7.533   5.195 -0.1004 -0.0637 -0.4531
 1321TIP3    H1 3904   3.418   7.439   5.189 -1.1519 -0.4083  1.3482
 1321TIP3    H2 3905   3.476   7.573   5.148  0.6647 -1.7700 -0.7732
 1322TIP3   OH2 3906   4.965   1.920   1.515  0.0182 -0.1722 -0.2245
 1322TIP3    H1 3907   5.016   1.892   1.592 -0.2444 -1.0615 -0.3659
 1322TIP3    H2 3908   4.977   1.850   1.451 -0.1933  0.3135 -0.8069
 1323TIP3   OH2 3909   8.159   2.842   6.074 -0.0526  0.6082  0.3340
 1323TIP3    H1 3910   8.076   2.802   6.100  0.8178 -0.9957  0.7995
 1323TIP3    H2 3911   8.207   2.853   6.156  0.0038  2.0450  0.1331
 1324TIP3   OH2 3912   2.678   7.216   5.464  0.0669 -0.2007  0.3007
 1324TIP3    H1 3913   2.730   7.188   5.539  1.7116 -0.7014 -0.9563
 1324TIP3    H2 3914   2.706   7.157   5.393 -0.9637  0.6595 -0.8544
 1325TIP3   OH2 3915   2.612   0.272   3.930 -0.3050 -0.3060 -0.1757
 1325TIP3    H1 3916   2.579   0.362   3.921 -1.4603 -0.8710 -2.2247
 1325TIP3    H2 3917   2.641   0.266   4.021 -2.0058  1.5440  0.5596
 1326TIP3   OH2 3918   0.754   0.932   4.978 -0.0639  0.2870  0.0250
 1326TIP3    H1 3919   0.702   0.977   5.045  0.5328 -0.3124  0.9095
 1326TIP3    H2 3920   0.690   0.899   4.915 -0.7122  0.0741  0.7854
 1327TIP3   OH2 3921   5.758   7.940   2.688 -0.1876 -0.1726  0.5256
 1327TIP3    H1 3922   5.769   7.945   2.783  0.0501 -0.9813  0.5525
 1327TIP3    H2 3923   5.784   7.850   2.666 -3.0621 -0.9846  0.0633
 1328TIP3   OH2 3924   6.677   4.008   5.481  0.6303 -0.2852 -0.1687
 1328TIP3    H1 3925   6.627   3.948   5.537  2.0394 -0.9252  0.4670
 1328TIP3    H2 3926   6.747   3.954   5.445  2.0364  0.9783  0.5356
 1329TIP3   OH2 3927   1.969   4.277   2.671 -0.1587  0.3468 -0.2952
 1329TIP3    H1 3928   2.057   4.282   2.634 -0.2270  1.7995 -0.2960
 1329TIP3    H2 3929   1.976   4.214   2.742  0.6455 -0.2830 -0.9180
 1330TIP3   OH2 3930   6.770   5.516   5.407  0.5443  0.1893 -0.2946
 1330TIP3    H1 3931   6.770   5.476   5.320  2.1467 -0.2146 -0.1513
 1330TIP3    H2 3932   6.838   5.583   5.403  0.3559  0.4420  0.5275
 1331TIP3   OH2 3933   6.484   1.025   4.244 -0.5943  0.0598  0.2945
 1331TIP3    H1 3934   6.508   0.942   4.287 -0.7373 -0.2884 -0.2918
 1331TIP3    H2 3935   6.448   1.079   4.314  2.5804  0.9255  1.4523
 1332TIP3   OH2 3936   4.412   1.829   1.239 -0.6913 -0.0356 -0.0862
 1332TIP3    H1 3937   4.441   1.803   1.326  0.6056  1.7278  0.0633
 1332TIP3    H2 3938   4.493   1.843   1.189 -1.3251  1.5108 -0.7555
 1333TIP3   OH2 3939   8.231   3.551   0.031  0.0736  0.4055  0.1852
 1333TIP3    H1 3940   8.284   3.472   0.024 -1.2427 -0.6128  0.9886
 1333TIP3    H2 3941   8.250   3.584   0.118 -1.1513 -0.4288  0.8042
 1334TIP3   OH2 3942   0.603   6.834   1.720 -0.2214  0.0761  0.8347
 1334TIP3    H1 3943   0.640   6.747   1.739  0.2759  0.6332  2.6144
 1334TIP3    H2 3944   0.557   6.858   1.800 -1.0821  1.1169  0.0552
 1335TIP3   OH2 3945   6.499   0.978   6.265  0.1497 -0.2013  0.5241
 1335TIP3    H1 3946   6.515   1.072   6.256 -1.4741  0.5246  3.6363
 1335TIP3    H2 3947   6.414   0.965   6.223 -0.5808  0.1868  1.8327
 1336TIP3   OH2 3948   8.009   2.996   4.544  0.9294 -0.3323  0.4772
 1336TIP3    H1 3949   8.080   3.060   4.551  1.5717 -0.8179 -1.0008
 1336TIP3    H2 3950   7.929   3.049   4.541  1.4201  0.4100 -0.3244
 1337TIP3   OH2 3951   3.258   0.071   6.178  0.1688  0.3132 -0.3356
 1337TIP3    H1 3952   3.191   0.139   6.169 -0.1265  0.1096  0.2488
 1337TIP3    H2 3953   3.284   0.077   6.270  1.1454  0.5674 -0.6179
 1338TIP3   OH2 3954   1.928   4.143   0.750  0.3759 -0.2075  1.0061
 1338TIP3    H1 3955   1.905   4.071   0.809  0.8535 -2.2503 -1.1618
 1338TIP3    H2 3956   1.845   4.186   0.730 -0.2213 -1.4285  0.7898
 1339TIP3   OH2 3957   4.832   2.906   6.219  0.3979  0.0151 -0.0180
 1339TIP3    H1 3958   4.742   2.934   6.236  0.4420 -0.4913  1.1573
 1339TIP3    H2 3959   4.887   2.965   6.271  0.8043  0.7729 -1.2804
 1340TIP3   OH2 3960   7.131   5.217   6.725  0.5579  0.1906 -0.0071
 1340TIP3    H1 3961   7.131   5.272   6.647  2.9371  1.0577  0.5321
 1340TIP3    H2 3962   7.086   5.137   6.697 -1.4246  1.6468 -1.3139
 1341TIP3   OH2 3963   1.912   6.621   3.863 -0.0736 -0.2885  0.0291
 1341TIP3    H1 3964   1.866   6.695   3.823 -0.2254 -0.0086  0.7092
 1341TIP3    H2 3965   1.912   6.641   3.957  1.0552 -0.5045  0.0822
 1342TIP3   OH2 3966   0.355   2.027   2.776 -0.3843  0.7365  0.0372
 1342TIP3    H1 3967   0.428   1.966   2.781  0.8548  2.1614  0.0870
 1342TIP3    H2 3968   0.278   1.974   2.796  0.5454 -0.9314 -0.6120
 1343TIP3   OH2 3969   8.163   1.775   3.394  0.4072 -0.0559  0.1377
 1343TIP3    H1 3970   8.163   1.679   3.395 -1.1730 -0.0925 -0.9435
 1343TIP3    H2 3971   8.220   1.798   3.321  1.8066 -0.0999  1.1595
 1344TIP3   OH2 3972   7.882   4.895   0.051 -0.2860  0.0647 -0.2782
 1344TIP3    H1 3973   7.921   4.872  -0.033 -0.1893  1.4691 -0.6375
 1344TIP3    H2 3974   7.799   4.846   0.053  0.5587 -1.4289 -0.3482
 1345TIP3   OH2 3975   1.834   4.117   1.396  0.2122  0.3337  0.1883
 1345TIP3    H1 3976   1.889   4.081   1.327  0.9895  0.3379  0.7893
 1345TIP3    H2 3977   1.882   4.099   1.477  0.2183  1.9561  0.5785
 1346TIP3   OH2 3978   6.320   6.571   3.481 -0.0219  0.2433 -0.1101
 1346TIP3    H1 3979   6.290   6.524   3.559 -0.7455 -2.0456 -1.6355
 1346TIP3    H2 3980   6.243   6.621   3.453 -0.1411  0.1085 -0.0268
 1347TIP3   OH2 3981   0.682   2.436   4.796  0.1813  0.0638  0.1742
 1347TIP3    H1 3982   0.606   2.494   4.793 -0.8606 -1.2792 -0.0020
 1347TIP3    H2 3983   0.667   2.373   4.726  1.9108  0.2959 -0.4650
 1348TIP3   OH2 3984   7.017   7.063   1.693  0.0713 -0.0178  0.3067
 1348TIP3    H1 3985   6.999   7.114   1.615 -1.5112 -1.1819 -0.1475
 1348TIP3    H2 3986   7.098   7.017   1.674  1.6618  2.3789  0.8118
 1349TIP3   OH2 3987   0.032   7.382   6.002  0.1853  0.1964  0.3178
 1349TIP3    H1 3988   0.061   7.447   6.066 -2.5264  0.5974  1.2516
 1349TIP3    H2 3989  -0.030   7.327   6.049  0.5411 -1.5453 -1.1382
 1350TIP3   OH2 3990   1.432   1.664   6.553 -0.2268 -0.0602  0.5184
 1350TIP3    H1 3991   1.350   1.656   6.602  0.1962 -0.5750  1.1615
 1350TIP3    H2 3992   1.481   1.584   6.574  1.1178  0.9416  1.4504
 1351TIP3   OH2 3993   8.074   6.930   6.014 -0.7991  0.3757  0.2866
 1351TIP3    H1 3994   8.067   6.878   5.933 -1.1694 -1.6291  1.5396
 1351TIP3    H2 3995   8.168   6.933   6.032 -0.8266 -0.6464  0.6591
 1352TIP3   OH2 3996   6.787   0.056   3.642  0.1835 -0.3058 -0.1958
 1352TIP3    H1 3997   6.771   0.146   3.612  0.4142 -0.4689 -0.8308
 1352TIP3    H2 3998   6.882   0.045   3.634  0.2101 -0.4582  0.3138
 1353TIP3   OH2 3999   7.972   2.014   5.846  0.3358  0.5480 -0.0237
 1353TIP3    H1 4000   7.943   1.974   5.764  0.9086  0.6769 -0.2975
 1353TIP3    H2 4001   8.060   1.978   5.860  0.0142  0.0809  0.8423
 1354TIP3   OH2 4002   3.999   3.619   0.942  0.1606  0.1726  0.0229
 1354TIP3    H1 4003   3.951   3.565   0.879  0.1907 -3.0793  2.5087
 1354TIP3    H2 4004   4.089   3.618   0.909 -0.2282  0.5000 -1.0838
 1355TIP3   OH2 4005   1.617   2.401   3.173  0.2675 -0.7225 -0.1969
 1355TIP3    H1 4006   1.598   2.323   3.225  1.9212 -1.9115 -1.2594
 1355TIP3    H2 4007   1.700   2.381   3.130 -0.0857  0.9741 -1.8006
 1356TIP3   OH2 4008   1.075   1.763   3.981 -0.1556  0.2861 -0.2094
 1356TIP3    H1 4009   1.106   1.755   4.071  0.4201  1.9127 -0.2275
 1356TIP3    H2 4010   1.067   1.672   3.950 -3.6470 -0.5814  2.5137
 1357TIP3   OH2 4011   2.147   3.608   0.926 -0.2537  0.0297  0.0630
 1357TIP3    H1 4012   2.159   3.584   0.834  0.0499 -1.7994  0.5395
 1357TIP3    H2 4013   2.235   3.621   0.960 -0.2823 -0.6755  0.4228
 1358TIP3   OH2 4014   6.222   1.604   2.151 -0.5329 -0.2161  0.3330
 1358TIP3    H1 4015   6.129   1.591   2.133 -0.5128  0.0997 -0.0113
 1358TIP3    H2 4016   6.247   1.530   2.207 -0.5515 -1.3230 -1.0776
 1359TIP3   OH2 4017   3.114   0.484   6.825  0.4460  0.1969 -0.0131
 1359TIP3    H1 4018   3.157   0.504   6.742  0.0222  1.5901  0.0802
 1359TIP3    H2 4019   3.128   0.561   6.879 -0.4256 -0.1497  0.7401
 1360TIP3   OH2 4020   6.265   1.328   1.726  0.4565 -0.3241  0.1731
 1360TIP3    H1 4021   6.296   1.417   1.744 -1.4673  0.2513  0.9590
 1360TIP3    H2 4022   6.256   1.288   1.812  0.5526 -1.0073 -0.1312
 1361TIP3   OH2 4023   6.896   3.719   0.261 -0.0457  0.1889  0.1356
 1361TIP3    H1 4024   6.843   3.785   0.306  0.4888  0.2640  0.6705
 1361TIP3    H2 4025   6.967   3.769   0.221  1.2193 -0.1969  1.8037
 1362TIP3   OH2 4026   0.592   3.474   5.001 -0.4564 -0.0476  0.3943
 1362TIP3    H1 4027   0.679   3.514   5.002 -0.9466  1.0802 -0.6150
 1362TIP3    H2 4028   0.610   3.381   4.986  0.6628 -0.2122  2.3187
 1363TIP3   OH2 4029   0.494   6.252   5.628 -0.3594 -0.8600 -0.2224
 1363TIP3    H1 4030   0.505   6.272   5.721  0.2364  1.0616 -0.6586
 1363TIP3    H2 4031   0.514   6.159   5.621 -1.7041 -1.3686  1.7555
 1364TIP3   OH2 4032   4.091   7.288   3.191 -0.3608  0.0680  0.8067
 1364TIP3    H1 4033   4.118   7.370   3.150  1.0469 -1.4642 -1.5561
 1364TIP3    H2 4034   4.144   7.281   3.270 -0.6589  1.4952  1.1558
 1365TIP3   OH2 4035   1.753   2.827   6.617  0.3530  0.4002 -0.9068
 1365TIP3    H1 4036   1.671   2.824   6.666  1.7869 -2.0039  1.7332
 1365TIP3    H2 4037   1.728   2.820   6.525 -2.3720 -0.0115 -0.2048
 1366TIP3   OH2 4038   7.784   1.041   5.727  0.0535  0.2598  0.5907
 1366TIP3    H1 4039   7.864   1.003   5.691 -1.4708 -0.9761 -1.7255
 1366TIP3    H2 4040   7.758   0.979   5.796  0.6613  0.2674  0.8411
 1367TIP3   OH2 4041  -0.013   7.369   2.692  0.1501 -0.0417  0.1811
 1367TIP3    H1 4042   0.073   7.405   2.713 -0.5636  1.8287  0.1078
 1367TIP3    H2 4043  -0.040   7.416   2.613 -0.3669 -1.6248 -0.6388
 1368TIP3   OH2 4044   7.330   2.063   5.838  0.4773 -0.2109  0.1621
 1368TIP3    H1 4045   7.398   2.032   5.898  1.5561  0.7010 -0.5582
 1368TIP3    H2 4046   7.250   2.023   5.871  0.9425  0.6251  2.5428
 1369TIP3   OH2 4047   1.869   0.076   1.917 -0.2144 -0.0316  0.4556
 1369TIP3    H1 4048   1.907   0.147   1.865 -1.3107  0.0695 -0.2427
 1369TIP3    H2 4049   1.839   0.119   1.998 -0.2653  0.1832  0.3243
 1370TIP3   OH2 4050   3.919   3.362   5.073  0.3231  0.3213  0.0271
 1370TIP3    H1 4051   3.851   3.335   5.011 -1.1912  1.0452  1.2922
 1370TIP3    H2 4052   3.902   3.455   5.088  1.1683  0.3509  0.8870
 1371TIP3   OH2 4053   3.532   0.218   6.740 -0.2162 -0.5206 -1.0019
 1371TIP3    H1 4054   3.471   0.163   6.788 -2.2247  0.5349 -2.2513
 1371TIP3    H2 4055   3.583   0.262   6.809 -1.4131 -0.8153  0.1134
 1372TIP3   OH2 4056   1.711   0.910   0.714 -0.6827 -0.0865 -0.8690
 1372TIP3    H1 4057   1.716   0.939   0.623 -1.3980  0.0688 -0.8585
 1372TIP3    H2 4058   1.750   0.823   0.713  0.0999  0.2536 -1.1664
 1373TIP3   OH2 4059   0.130   5.067   3.563  0.6165  0.1365  0.6591
 1373TIP3    H1 4060   0.149   5.024   3.647 -1.0893  0.3900  1.1985
 1373TIP3    H2 4061   0.036   5.083   3.565 -0.0958 -2.5355 -2.5529
 1374TIP3   OH2 4062   2.846   6.485   6.151  0.2435  0.1230  0.3683
 1374TIP3    H1 4063   2.786   6.499   6.224 -0.1002  1.2364 -0.1186
 1374TIP3    H2 4064   2.835   6.392   6.129 -2.0217  0.4942 -0.3362
 1375TIP3   OH2 4065   3.525   2.960   5.551  0.0152  0.3747  0.4094
 1375TIP3    H1 4066   3.528   2.866   5.564  2.5289  0.4099  0.6026
 1375TIP3    H2 4067   3.559   2.973   5.462  1.5768  1.1715  1.0921
 1376TIP3   OH2 4068   0.004   6.734   0.206 -0.2069 -0.4106 -0.3390
 1376TIP3    H1 4069   0.069   6.775   0.148  2.6211 -0.4055  2.5784
 1376TIP3    H2 4070  -0.040   6.808   0.249 -1.0307 -0.4473 -1.0741
 1377TIP3   OH2 4071   3.025   3.271   1.830  0.0440  0.6827 -0.2382
 1377TIP3    H1 4072   3.014   3.177   1.849 -0.4037  0.9627  0.9567
 1377TIP3    H2 4073   2.936   3.306   1.829  0.1025  0.8594 -2.1043
 1378TIP3   OH2 4074   2.342   1.675   0.896 -0.5170  0.1431 -0.2144
 1378TIP3    H1 4075   2.436   1.661   0.880 -0.3646  1.4787 -0.6187
 1378TIP3    H2 4076   2.299   1.612   0.838  0.1285  0.0037 -0.5577
 1379TIP3   OH2 4077   1.959   6.595   5.866  0.6656  0.1894 -0.0623
 1379TIP3    H1 4078   2.036   6.552   5.904  0.4621 -2.1896 -2.0693
 1379TIP3    H2 4079   1.900   6.609   5.940  0.9703 -2.6522  0.8428
 1380TIP3   OH2 4080   0.307   0.755   2.459  0.1005 -0.6110 -0.1842
 1380TIP3    H1 4081   0.252   0.691   2.414  1.4091 -1.5806 -0.4402
 1380TIP3    H2 4082   0.393   0.714   2.464  0.8872  0.9919 -0.0421
 1381TIP3   OH2 4083   4.608   3.989   3.553  0.6560  0.0670  0.6879
 1381TIP3    H1 4084   4.567   4.002   3.639 -1.3951 -2.0032  0.1420
 1381TIP3    H2 4085   4.562   4.050   3.495 -0.8179 -1.3173  0.3398
 1382TIP3   OH2 4086   7.118   5.319   0.825  0.0396  0.4092 -0.2984
 1382TIP3    H1 4087   7.144   5.312   0.917 -0.8660  2.0487  0.1323
 1382TIP3    H2 4088   7.023   5.330   0.829 -0.1593 -0.6704 -1.5216
 1383TIP3   OH2 4089   1.380   0.949   4.769  0.5300  0.0184 -0.5370
 1383TIP3    H1 4090   1.471   0.970   4.792  0.5410 -0.0514 -0.5137
 1383TIP3    H2 4091   1.370   0.857   4.796  0.4751  0.0039 -0.6072
 1384TIP3   OH2 4092   6.790   0.044   0.159 -0.2351  0.2316  0.2226
 1384TIP3    H1 4093   6.835  -0.015   0.099 -1.3246  0.4995 -0.9063
 1384TIP3    H2 4094   6.790   0.129   0.114  2.0586  1.3922  2.1828
 1385TIP3   OH2 4095   7.964   1.662   1.922 -0.3175 -0.2010  0.3742
 1385TIP3    H1 4096   8.044   1.649   1.872 -0.5261 -0.6345  0.1417
 1385TIP3    H2 4097   7.914   1.582   1.908 -0.7399  0.0166  0.6101
 1386TIP3   OH2 4098   5.033   2.098   3.307  0.0027  0.2687  0.1364
 1386TIP3    H1 4099   4.976   2.131   3.376  0.6308  0.8290  0.4057
 1386TIP3    H2 4100   5.055   2.176   3.256 -2.5716 -0.4676 -2.3521
 1387TIP3   OH2 4101   0.535   1.361   4.268  0.0444  0.3934  0.1676
 1387TIP3    H1 4102   0.541   1.268   4.247  0.0622  1.0313 -3.2987
 1387TIP3    H2 4103   0.449   1.387   4.235 -0.3167  1.4928  1.8625
 1388TIP3   OH2 4104   6.712   2.783   5.800 -0.3740  0.6270 -0.0979
 1388TIP3    H1 4105   6.638   2.741   5.757  1.4347  0.4288 -3.2814
 1388TIP3    H2 4106   6.720   2.869   5.758  2.4444 -0.2033 -1.5811
 1389TIP3   OH2 4107   7.223   3.818   2.458 -0.2276  0.4019  0.1901
 1389TIP3    H1 4108   7.141   3.861   2.483 -0.6185 -0.7307  0.9117
 1389TIP3    H2 4109   7.233   3.840   2.365 -2.9827 -1.8895 -0.8104
 1390TIP3   OH2 4110   6.469   0.262   0.733  0.4586 -0.1952 -0.0780
 1390TIP3    H1 4111   6.419   0.187   0.701  1.8274 -0.5753 -1.4727
 1390TIP3    H2 4112   6.522   0.227   0.805 -0.3181 -0.0949  0.5478
 1391TIP3   OH2 4113   5.922   2.883   0.471 -0.2757  0.4461  0.1826
 1391TIP3    H1 4114   5.954   2.945   0.536  0.8260 -0.7021  0.7918
 1391TIP3    H2 4115   5.921   2.799   0.518  1.0290 -0.5099 -1.4266
 1392TIP3   OH2 4116   2.649   7.610   2.083 -0.3730 -0.1321  0.3221
 1392TIP3    H1 4117   2.633   7.557   2.162 -1.5676 -0.9477 -0.4236
 1392TIP3    H2 4118   2.714   7.560   2.034  0.8236  0.6793  1.0492
 1393TIP3   OH2 4119   3.325   1.525   5.187 -0.2956  0.1858 -0.6136
 1393TIP3    H1 4120   3.350   1.573   5.108  0.6969 -0.1366 -0.5115
 1393TIP3    H2 4121   3.233   1.502   5.174 -0.0597 -0.1153 -1.8050
 1394TIP3   OH2 4122   4.864   6.702   2.915  0.8236  0.4066 -0.3197
 1394TIP3    H1 4123   4.781   6.734   2.879 -0.1204 -1.2505  0.3060
 1394TIP3    H2 4124   4.866   6.736   3.004  0.1264 -0.6926  0.1311
 1395TIP3   OH2 4125   5.530   0.911   2.941  0.3242 -0.0191  0.2253
 1395TIP3    H1 4126   5.623   0.927   2.958  0.3140 -0.6736  0.9239
 1395TIP3    H2 4127   5.497   0.996   2.910  1.2025  0.1489 -0.3074
 1396TIP3   OH2 4128   1.804   3.960   0.919  0.0974 -0.5890  0.0940
 1396TIP3    H1 4129   1.871   3.907   0.963 -0.1355 -0.9383  0.0303
 1396TIP3    H2 4130   1.740   3.980   0.988  0.5405  0.2063  0.2848
 1397TIP3   OH2 4131   6.527   0.197   5.384  0.1645 -0.5896 -0.1729
 1397TIP3    H1 4132   6.617   0.223   5.364 -0.0344  0.6172  0.4114
 1397TIP3    H2 4133   6.534   0.104   5.407  1.2957 -0.4797  0.0087
 1398TIP3   OH2 4134   6.515   2.204   5.753  0.1446 -0.0704 -0.2855
 1398TIP3    H1 4135   6.603   2.232   5.729  0.5661 -0.4704  0.7164
 1398TIP3    H2 4136   6.461   2.222   5.676  1.5976 -2.2044 -1.9295
 1399TIP3   OH2 4137   5.734   7.832   1.792 -0.0733 -0.2788  0.0321
 1399TIP3    H1 4138   5.737   7.775   1.868  1.4941 -2.7664 -1.7400
 1399TIP3    H2 4139   5.646   7.821   1.757 -0.4265 -0.0163  0.8268
 1400TIP3   OH2 4140   2.743   6.053   3.734 -0.2190  0.5122  0.4453
 1400TIP3    H1 4141   2.826   6.096   3.750 -0.0161  0.2231  0.1906
 1400TIP3    H2 4142   2.757   5.962   3.761 -0.3325  0.3726  0.0375
 1401TIP3   OH2 4143   2.204   2.309   0.973  0.6555  0.2359 -0.6135
 1401TIP3    H1 4144   2.220   2.250   0.899 -0.1260  1.5338 -1.8605
 1401TIP3    H2 4145   2.236   2.394   0.943  1.6497  0.5124  1.1068
 1402TIP3   OH2 4146   8.331   5.391   6.304  0.0256  0.0031  0.2942
 1402TIP3    H1 4147   8.263   5.335   6.265  0.7175 -0.1327 -0.7508
 1402TIP3    H2 4148   8.412   5.344   6.289  0.3968  0.3092  1.2771
 1403TIP3   OH2 4149   1.183   5.999   6.736  0.1107 -0.5987 -0.3127
 1403TIP3    H1 4150   1.156   6.052   6.811  2.4236 -0.5640  0.5700
 1403TIP3    H2 4151   1.240   6.056   6.685  0.0043 -1.2051 -1.1447
 1404TIP3   OH2 4152   3.008   7.859   4.893  0.4347 -0.0963  0.7486
 1404TIP3    H1 4153   2.971   7.920   4.830 -0.2026 -0.3731  0.8493
 1404TIP3    H2 4154   2.968   7.775   4.872  1.9743 -0.6917  0.0329
 1405TIP3   OH2 4155   2.270   5.058   0.013  0.0035  0.1474  0.2017
 1405TIP3    H1 4156   2.255   5.115   0.088  1.5326 -0.1413  0.7649
 1405TIP3    H2 4157   2.335   5.104  -0.040  0.7259 -0.7202  0.3042
 1406TIP3   OH2 4158   5.274   7.557   5.273 -0.2868 -0.1348 -0.4986
 1406TIP3    H1 4159   5.209   7.535   5.339 -0.6283  0.8723 -0.4863
 1406TIP3    H2 4160   5.313   7.638   5.304  1.1169 -0.8140 -0.4155
 1407TIP3   OH2 4161   5.940   5.300   5.039 -0.3369  0.2108 -0.6065
 1407TIP3    H1 4162   5.985   5.378   5.007 -1.9426  1.6277  0.4248
 1407TIP3    H2 4163   5.849   5.312   5.014 -1.0247 -0.2493  1.4313
 1408TIP3   OH2 4164   6.267   1.475   5.939  0.0092  0.2602  0.3623
 1408TIP3    H1 4165   6.266   1.495   5.846  0.3444  0.1310  0.3300
 1408TIP3    H2 4166   6.191   1.418   5.953  0.7265 -0.8314 -0.0846
 1409TIP3   OH2 4167   5.479   4.964   5.872 -0.4243 -0.3851  0.5463
 1409TIP3    H1 4168   5.563   4.918   5.874  0.2037  0.4967 -2.0112
 1409TIP3    H2 4169   5.453   4.962   5.780 -3.0880 -0.3519  1.2162
 1410TIP3   OH2 4170   5.003   2.595   6.590 -0.0332 -0.0950 -0.4410
 1410TIP3    H1 4171   5.087   2.572   6.551 -1.1684 -2.7371 -1.5884
 1410TIP3    H2 4172   5.021   2.605   6.683  1.7397  0.7002 -0.8325
 1411TIP3   OH2 4173   6.238   6.658   2.179  0.0272 -0.2028 -0.4989
 1411TIP3    H1 4174   6.175   6.587   2.191  1.4059 -1.4930 -0.6809
 1411TIP3    H2 4175   6.221   6.690   2.091 -0.0953 -0.8147 -0.6996
 1412TIP3   OH2 4176   5.084   5.086   2.192 -0.0150 -0.7189 -0.2724
 1412TIP3    H1 4177   5.011   5.148   2.197 -1.4767 -2.3690  0.0989
 1412TIP3    H2 4178   5.092   5.051   2.281  0.2480 -1.6045 -0.6294
 1413TIP3   OH2 4179   3.781   1.654   1.233  0.0001  0.2365 -0.1909
 1413TIP3    H1 4180   3.852   1.652   1.298 -0.9949 -2.8796  0.9987
 1413TIP3    H2 4181   3.826   1.646   1.149  1.1636 -0.3615  0.4569
 1414TIP3   OH2 4182   3.091   2.269   1.883 -0.6839 -0.4725  0.1522
 1414TIP3    H1 4183   3.092   2.341   1.820 -0.6448  0.1721  0.8698
 1414TIP3    H2 4184   3.107   2.191   1.831  0.8480  0.1943 -0.4413
 1415TIP3   OH2 4185   3.043   5.881   1.169  0.1042 -0.1097 -0.1212
 1415TIP3    H1 4186   3.069   5.791   1.189 -0.2723 -0.5877 -1.6531
 1415TIP3    H2 4187   2.952   5.887   1.198  0.3714  0.0376  0.7112
 1416TIP3   OH2 4188   6.594   7.352   4.163 -0.1347 -0.1400  0.0403
 1416TIP3    H1 4189   6.569   7.266   4.196  2.1090 -0.4606  1.0613
 1416TIP3    H2 4190   6.619   7.401   4.240  0.5020  0.7657 -0.7221
 1417TIP3   OH2 4191   3.415   4.956   5.063 -0.0527  0.2377 -0.1724
 1417TIP3    H1 4192   3.470   4.914   4.997  0.1039  0.8446 -0.4373
 1417TIP3    H2 4193   3.355   4.887   5.092  1.7112 -0.8467  1.1240
 1418TIP3   OH2 4194   6.703   0.376   6.814  0.2692  0.1053 -0.0832
 1418TIP3    H1 4195   6.797   0.359   6.802  0.5003  1.0958  0.2481
 1418TIP3    H2 4196   6.678   0.427   6.737  0.1659  0.4647  0.1891
 1419TIP3   OH2 4197   4.056   0.845   6.734 -0.0003 -0.0236  0.2473
 1419TIP3    H1 4198   4.087   0.831   6.645 -0.4599 -0.8237  0.2020
 1419TIP3    H2 4199   3.972   0.889   6.724 -0.2242 -0.4367  0.2615
 1420TIP3   OH2 4200   5.647   1.283   5.587  0.2943  0.7207  0.0697
 1420TIP3    H1 4201   5.686   1.270   5.674  1.3162  0.5281 -0.3996
 1420TIP3    H2 4202   5.595   1.363   5.595 -0.1203  0.3730  1.0181
 1421TIP3   OH2 4203   3.778   0.890   6.365  0.8067 -0.2324 -0.0555
 1421TIP3    H1 4204   3.738   0.873   6.450  1.7830 -0.5920  0.3452
 1421TIP3    H2 4205   3.714   0.858   6.301 -1.5173  3.0993  0.3350
 1422TIP3   OH2 4206   5.729   7.311   5.993 -0.0393 -0.1470  0.6222
 1422TIP3    H1 4207   5.710   7.248   5.923 -0.9863  2.1771 -1.3389
 1422TIP3    H2 4208   5.808   7.356   5.964 -0.5302  0.9533  0.9549
 1423TIP3   OH2 4209   3.221   5.345   4.755  0.0140  0.3676 -0.3751
 1423TIP3    H1 4210   3.195   5.430   4.790  0.2453  0.7898 -1.1993
 1423TIP3    H2 4211   3.306   5.327   4.794  0.7467  1.3137 -1.4635
 1424TIP3   OH2 4212   3.630   7.904   1.182 -0.4658  0.2369  0.2964
 1424TIP3    H1 4213   3.703   7.908   1.243 -0.7030  0.6771  0.5551
 1424TIP3    H2 4214   3.664   7.855   1.107  0.3424  1.0887  0.0896
 1425TIP3   OH2 4215   0.996   3.271   0.213  0.0780  0.1422 -0.2479
 1425TIP3    H1 4216   1.019   3.339   0.150 -0.4156  1.9985  1.4733
 1425TIP3    H2 4217   0.995   3.190   0.161 -0.0946  1.5158 -2.5546
 1426TIP3   OH2 4218   6.945   1.743   5.020 -0.2981  0.2292 -0.0137
 1426TIP3    H1 4219   6.889   1.705   4.953 -0.3136  0.9288 -0.4102
 1426TIP3    H2 4220   6.968   1.830   4.986 -0.6253  0.7595  1.0577
 1427TIP3   OH2 4221   8.057   3.720   6.622 -0.0076  0.2737  1.0479
 1427TIP3    H1 4222   8.067   3.711   6.717 -0.2646 -1.3059  0.9545
 1427TIP3    H2 4223   8.146   3.730   6.589  0.3147 -1.5279  1.2757
 1428TIP3   OH2 4224   5.046   0.421   4.853  0.2667 -0.1374 -0.5528
 1428TIP3    H1 4225   5.050   0.463   4.939  1.8071 -0.1869 -0.5687
 1428TIP3    H2 4226   5.062   0.328   4.871 -3.9998 -1.0236 -0.4123
 1429TIP3   OH2 4227   0.931   7.201   2.886 -0.5936  0.1024  0.0973
 1429TIP3    H1 4228   0.922   7.233   2.796  0.6961 -1.1408 -0.5129
 1429TIP3    H2 4229   0.846   7.163   2.908 -0.7392 -0.1059 -0.8092
 1430TIP3   OH2 4230   6.716   6.268   5.374  0.5303  0.8365  0.0326
 1430TIP3    H1 4231   6.723   6.292   5.281  1.0196 -0.8907 -0.4091
 1430TIP3    H2 4232   6.765   6.336   5.420  2.1958  0.5135 -1.1897
 1431TIP3   OH2 4233   7.621   2.783   2.754 -0.4786  0.3140 -0.4807
 1431TIP3    H1 4234   7.597   2.841   2.827  1.2170  0.8923 -0.3433
 1431TIP3    H2 4235   7.706   2.747   2.778  0.8348  1.6178 -2.7501
 1432TIP3   OH2 4236   4.041   2.489   4.700  0.3759 -0.1814  0.0364
 1432TIP3    H1 4237   4.098   2.423   4.662  1.1209  0.2726  0.3382
 1432TIP3    H2 4238   3.973   2.504   4.634 -0.0344 -1.5135  0.1308
 1433TIP3   OH2 4239   5.564   0.606   6.800 -0.9060 -0.2836 -0.3520
 1433TIP3    H1 4240   5.614   0.678   6.762 -0.8871  0.1081  0.3933
 1433TIP3    H2 4241   5.496   0.586   6.735 -1.3798  0.9141 -0.2406
 1434TIP3   OH2 4242   1.328   2.425   0.440  0.5169  0.5378  0.1690
 1434TIP3    H1 4243   1.405   2.400   0.491 -0.0329 -0.0038  0.7565
 1434TIP3    H2 4244   1.254   2.415   0.500 -0.1479 -0.1097 -0.7085
 1435TIP3   OH2 4245   7.198   4.109   5.528 -0.1912 -0.5840  0.7919
 1435TIP3    H1 4246   7.239   4.185   5.568  1.4669 -0.9830 -0.0722
 1435TIP3    H2 4247   7.224   4.035   5.583 -1.2554 -0.6403  1.2535
 1436TIP3   OH2 4248   2.629   1.730   6.663  0.0463 -0.3888 -0.3366
 1436TIP3    H1 4249   2.626   1.658   6.600  0.2414 -1.0716  0.4094
 1436TIP3    H2 4250   2.716   1.724   6.703  1.1607  1.9917 -2.1802
 1437TIP3   OH2 4251   2.825   1.112   5.547  0.2640 -0.6693 -0.1439
 1437TIP3    H1 4252   2.814   1.199   5.507 -0.0026  0.5646  2.4349
 1437TIP3    H2 4253   2.789   1.052   5.482 -1.0215  1.2903 -1.3765
 1438TIP3   OH2 4254   1.910   6.493   1.782 -0.2387 -0.7286 -0.2239
 1438TIP3    H1 4255   1.849   6.424   1.757  0.1204 -0.8610 -0.7637
 1438TIP3    H2 4256   1.884   6.518   1.871 -1.7688 -0.0243 -0.8424
 1439TIP3   OH2 4257   4.563   1.869   2.007  0.1079  0.2779 -0.6668
 1439TIP3    H1 4258   4.469   1.864   1.988  0.1369  0.5738 -0.8950
 1439TIP3    H2 4259   4.580   1.793   2.063 -0.3651  0.4921 -0.2190
 1440TIP3   OH2 4260   3.061   7.677   4.481  0.0408 -0.2403  0.1047
 1440TIP3    H1 4261   3.052   7.744   4.413  0.1191 -0.7918 -0.4631
 1440TIP3    H2 4262   2.998   7.701   4.549  0.5559  0.7886  0.2272
 1441TIP3   OH2 4263   7.333   7.943   6.291  0.0324  0.0663  0.6131
 1441TIP3    H1 4264   7.308   7.926   6.381  0.6710  0.5386  0.8821
 1441TIP3    H2 4265   7.312   7.862   6.245  0.1693 -0.3543  1.2793
 1442TIP3   OH2 4266   8.032   3.968   1.342  0.4585 -0.5587  0.6023
 1442TIP3    H1 4267   8.044   4.062   1.355 -0.4590 -0.6431  2.3074
 1442TIP3    H2 4268   8.008   3.959   1.250  1.0616  0.8058  0.2897
 1443TIP3   OH2 4269   6.525   1.454   1.309 -0.0060 -0.2445  0.2079
 1443TIP3    H1 4270   6.529   1.418   1.220  0.7591 -2.9541  1.2485
 1443TIP3    H2 4271   6.456   1.404   1.352  1.4194 -0.8666  1.8734
 1444TIP3   OH2 4272   7.315   2.350   1.236 -0.9034  0.1211  0.2797
 1444TIP3    H1 4273   7.383   2.298   1.194  0.1403  0.3251  1.6656
 1444TIP3    H2 4274   7.255   2.372   1.165  0.9347  0.6919 -1.1626
 1445TIP3   OH2 4275   0.788   3.885   2.001  0.1447  0.1341  0.2432
 1445TIP3    H1 4276   0.795   3.849   2.089  2.4528  1.0528  0.5160
 1445TIP3    H2 4277   0.694   3.902   1.990 -0.3052 -0.7311  2.2059
 1446TIP3   OH2 4278   0.854   5.637   0.817  0.0767  0.3578 -0.1658
 1446TIP3    H1 4279   0.789   5.702   0.843  0.2301  0.3171  0.3119
 1446TIP3    H2 4280   0.878   5.592   0.898  1.6299  1.2135 -0.1275
 1447TIP3   OH2 4281   3.012   1.472   5.935  0.1919 -0.2796  0.5928
 1447TIP3    H1 4282   3.029   1.454   6.028  0.8639 -0.0647  0.5184
 1447TIP3    H2 4283   3.031   1.389   5.891  0.5591 -0.1913  0.5747
 1448TIP3   OH2 4284   3.929   3.145   2.937  0.6055  0.9140  0.4122
 1448TIP3    H1 4285   3.986   3.074   2.968  0.3089  0.6860  0.4401
 1448TIP3    H2 4286   3.944   3.148   2.842 -1.0106 -0.6717  0.0506
 1449TIP3   OH2 4287   7.690   4.597   5.492  0.2491 -0.3194 -0.6536
 1449TIP3    H1 4288   7.741   4.602   5.573  0.7392 -0.0050 -0.9766
 1449TIP3    H2 4289   7.712   4.511   5.456  0.0561 -0.4461 -0.4672
 1450TIP3   OH2 4290   1.535   1.711   2.441 -0.0309  0.4255 -0.0707
 1450TIP3    H1 4291   1.509   1.797   2.408 -0.5216  0.9870  1.6314
 1450TIP3    H2 4292   1.467   1.690   2.506  0.9861 -0.4649  0.7325
 1451TIP3   OH2 4293   6.266   5.287   5.058 -0.1048  0.4028  0.1658
 1451TIP3    H1 4294   6.188   5.336   5.083 -0.8627 -0.1236 -1.0119
 1451TIP3    H2 4295   6.232   5.216   5.003  1.2194  0.2529 -0.5068
 1452TIP3   OH2 4296   4.712   6.381   3.772  0.4652  0.2601 -0.4731
 1452TIP3    H1 4297   4.644   6.436   3.811  0.4987  0.9555 -1.3613
 1452TIP3    H2 4298   4.768   6.442   3.723  1.8879 -0.2639  0.4386
 1453TIP3   OH2 4299   8.010   0.630   2.719 -0.3152  0.2125  0.0391
 1453TIP3    H1 4300   7.955   0.619   2.641  0.4946  3.1933 -1.0988
 1453TIP3    H2 4301   8.077   0.562   2.710  0.3473  1.0740 -2.5037
 1454TIP3   OH2 4302   2.620   7.830   5.739 -0.1047 -0.5223 -0.3625
 1454TIP3    H1 4303   2.705   7.786   5.732 -0.2873 -0.5753 -3.2301
 1454TIP3    H2 4304   2.638   7.921   5.717 -0.8746 -0.7115 -1.9236
 1455TIP3   OH2 4305   6.404   0.602   1.916  0.0192 -0.0177 -0.5279
 1455TIP3    H1 4306   6.426   0.509   1.918 -1.1954 -0.3153  0.1648
 1455TIP3    H2 4307   6.359   0.615   1.833 -1.2532 -0.4342  0.0617
 1456TIP3   OH2 4308   6.434   1.714   1.686  0.5061 -0.0572  0.3758
 1456TIP3    H1 4309   6.364   1.777   1.668  2.0962  2.2463  1.8376
 1456TIP3    H2 4310   6.459   1.681   1.599 -1.8850 -0.5003 -0.2382
 1457TIP3   OH2 4311   4.016   1.908   3.234 -0.2891 -1.0430  0.0934
 1457TIP3    H1 4312   4.089   1.867   3.280  0.7680  0.6535  0.0176
 1457TIP3    H2 4313   4.038   1.897   3.141 -0.5900 -1.3098  0.0529
 1458TIP3   OH2 4314   4.263   5.264   1.393 -0.4644  0.3154 -0.2253
 1458TIP3    H1 4315   4.310   5.335   1.437 -1.9931  0.1075  1.9339
 1458TIP3    H2 4316   4.187   5.307   1.353 -0.7933  0.0699  0.1257
 1459TIP3   OH2 4317   4.033   7.692   2.493  0.1934 -0.3868  0.1363
 1459TIP3    H1 4318   4.076   7.650   2.419  1.5610 -0.7064  1.0676
 1459TIP3    H2 4319   3.961   7.633   2.516  0.0259 -0.5002 -0.6464
 1460TIP3   OH2 4320   3.113   0.725   2.454  0.2761 -0.7808  0.2439
 1460TIP3    H1 4321   3.049   0.760   2.392  1.6037  1.1692 -0.1134
 1460TIP3    H2 4322   3.121   0.633   2.429 -0.2307 -0.3738 -1.6306
 1461TIP3   OH2 4323   2.070   1.861   0.876  0.2234  0.5451 -0.1504
 1461TIP3    H1 4324   2.008   1.847   0.804  0.1447 -2.1290  0.3298
 1461TIP3    H2 4325   2.122   1.781   0.878  1.6058  1.4316  1.4867
 1462TIP3   OH2 4326   0.347   4.727   4.543  0.2580  0.4901  0.1489
 1462TIP3    H1 4327   0.270   4.784   4.542 -0.2295 -0.1393 -1.3953
 1462TIP3    H2 4328   0.357   4.698   4.452  0.8299 -1.4000  0.7582
 1463TIP3   OH2 4329   4.303   7.108   3.743 -0.3164  0.5908  0.1083
 1463TIP3    H1 4330   4.283   7.020   3.712  1.0623  0.0186  0.7372
 1463TIP3    H2 4331   4.229   7.130   3.800 -2.2686  1.1802 -2.4956
 1464TIP3   OH2 4332   0.220   1.153   6.468  0.0640 -0.4566  0.5420
 1464TIP3    H1 4333   0.190   1.233   6.511  0.6311 -1.1340  2.2939
 1464TIP3    H2 4334   0.272   1.184   6.394  0.2502  0.7956  1.1705
 1465TIP3   OH2 4335   1.908   6.199   4.040 -0.2736 -0.2498 -0.2378
 1465TIP3    H1 4336   1.992   6.210   4.085 -0.2509 -0.5431 -0.2038
 1465TIP3    H2 4337   1.909   6.108   4.010 -0.3102 -0.0742 -0.7884
 1466TIP3   OH2 4338   7.297   0.628   5.050 -0.3395 -0.0616  0.2060
 1466TIP3    H1 4339   7.318   0.588   5.134  1.4479  1.0269  0.3241
 1466TIP3    H2 4340   7.375   0.615   4.996  0.8557  4.0154  0.6035
 1467TIP3   OH2 4341   6.856   1.649   0.423 -0.0714  0.5132 -0.1612
 1467TIP3    H1 4342   6.924   1.716   0.420 -0.6616  1.1021 -0.8872
 1467TIP3    H2 4343   6.896   1.576   0.470  1.4692  0.3993 -1.5673
 1468TIP3   OH2 4344   8.011   0.677   0.984  0.2023 -0.0542  0.0959
 1468TIP3    H1 4345   7.954   0.734   0.932  0.4235 -1.7031 -2.1051
 1468TIP3    H2 4346   8.099   0.694   0.950  0.3315 -1.2835 -0.2379
 1469TIP3   OH2 4347   7.052   2.733   5.056  0.1134 -0.1984  0.0866
 1469TIP3    H1 4348   7.107   2.785   5.115 -2.4287 -0.9318  3.4350
 1469TIP3    H2 4349   7.090   2.645   5.060  1.4423  0.2526 -1.5454
 1470TIP3   OH2 4350   0.845   0.986   3.869 -0.0898 -0.1324  0.0476
 1470TIP3    H1 4351   0.924   0.972   3.920 -0.5883  1.5826  1.4082
 1470TIP3    H2 4352   0.829   1.080   3.874 -1.5383 -0.2508 -1.2425
 1471TIP3   OH2 4353   3.619   2.873   6.571 -0.5808  0.2954 -0.3680
 1471TIP3    H1 4354   3.706   2.913   6.575 -0.8735  0.8487  0.6376
 1471TIP3    H2 4355   3.636   2.784   6.539  0.5389 -0.1179  1.2687
 1472TIP3   OH2 4356   1.736   3.689   5.121  0.3982 -0.0908  0.4464
 1472TIP3    H1 4357   1.827   3.707   5.145  1.0958 -1.3422 -1.0450
 1472TIP3    H2 4358   1.708   3.621   5.182  0.2244  0.7723  1.3402
 1473TIP3   OH2 4359   3.411   6.184   6.095  0.3880 -0.0443 -0.3471
 1473TIP3    H1 4360   3.363   6.107   6.066  0.3589 -0.1652  0.0125
 1473TIP3    H2 4361   3.500   6.152   6.114  0.3012 -0.0524  0.0717
 1474TIP3   OH2 4362   0.796   1.131   1.108  0.3690  0.3019 -0.1697
 1474TIP3    H1 4363   0.781   1.055   1.165  0.1052  0.8467  0.5089
 1474TIP3    H2 4364   0.890   1.131   1.092  0.6325  0.7707  1.2093
 1475TIP3   OH2 4365   4.470   6.019   2.627  0.1796 -0.0976  0.1997
 1475TIP3    H1 4366   4.466   5.924   2.616 -0.3104  0.0574 -1.0878
 1475TIP3    H2 4367   4.552   6.045   2.585 -0.0423  0.1222 -0.1039
 1476TIP3   OH2 4368   6.591   2.568   6.622  0.3004  0.2844 -0.0515
 1476TIP3    H1 4369   6.658   2.632   6.648  1.0598  0.2177 -1.7378
 1476TIP3    H2 4370   6.514   2.622   6.600  1.8581  1.1403 -4.5687
 1477TIP3   OH2 4371   0.459   4.857   1.784  0.4134 -0.4165  0.4531
 1477TIP3    H1 4372   0.380   4.829   1.738  0.1148 -0.7916  1.1690
 1477TIP3    H2 4373   0.464   4.951   1.769  0.5941 -0.6043 -0.7358
 1478TIP3   OH2 4374   5.172   4.525   3.091  0.2507 -0.1057 -0.3708
 1478TIP3    H1 4375   5.259   4.565   3.084  0.0074  0.6082  0.5190
 1478TIP3    H2 4376   5.119   4.573   3.027  0.4072 -0.2956 -0.6499
 1479TIP3   OH2 4377   6.776   2.359   1.346 -0.2734  0.3431 -0.4735
 1479TIP3    H1 4378   6.871   2.368   1.336 -0.4989  0.9093 -2.9670
 1479TIP3    H2 4379   6.764   2.272   1.382  1.2022  0.7052  1.0474
 1480TIP3   OH2 4380   6.850   3.170   3.917  0.3652 -1.0944  0.3369
 1480TIP3    H1 4381   6.931   3.119   3.912  1.6228  0.6594  1.6355
 1480TIP3    H2 4382   6.791   3.115   3.967  0.4488 -2.7133 -1.2414
 1481TIP3   OH2 4383   6.388   5.650   1.444  0.1846 -0.8264  0.1819
 1481TIP3    H1 4384   6.455   5.715   1.423  0.1152 -0.5291  0.8647
 1481TIP3    H2 4385   6.345   5.684   1.523 -0.8466 -0.9490 -0.3002
 1482TIP3   OH2 4386   1.407   6.247   0.040  0.7361 -0.3037  0.0323
 1482TIP3    H1 4387   1.339   6.182   0.059  0.1202  0.5703  0.8855
 1482TIP3    H2 4388   1.370   6.330   0.070  2.4895  0.0812  1.2710
 1483TIP3   OH2 4389   3.133   5.555   6.683 -0.7502 -0.1664 -0.1249
 1483TIP3    H1 4390   3.131   5.461   6.698 -0.3598 -0.1537 -0.0013
 1483TIP3    H2 4391   3.140   5.593   6.771  2.0114 -0.1025 -0.3132
 1484TIP3   OH2 4392   5.588   6.680   0.636 -0.0795  0.1102 -0.2942
 1484TIP3    H1 4393   5.598   6.596   0.592 -0.1495  0.5245 -1.1103
 1484TIP3    H2 4394   5.601   6.745   0.568 -0.8940  0.7558  0.1460
 1485TIP3   OH2 4395   1.425   5.332   0.172 -0.0527  0.4259 -0.3356
 1485TIP3    H1 4396   1.482   5.314   0.097  0.8647  0.2518  0.3873
 1485TIP3    H2 4397   1.344   5.364   0.133  0.1704 -0.2829 -1.4373
 1486TIP3   OH2 4398   0.129   4.590   2.303  0.8729 -0.1680 -0.2707
 1486TIP3    H1 4399   0.210   4.626   2.339  1.2910  0.0762 -1.4168
 1486TIP3    H2 4400   0.135   4.606   2.209 -0.2925 -0.5802 -0.4340
 1487TIP3   OH2 4401   4.590   3.894   2.274  0.3463 -0.4972 -0.3613
 1487TIP3    H1 4402   4.507   3.940   2.273 -0.1634 -1.3720  0.1916
 1487TIP3    H2 4403   4.616   3.892   2.366  1.0118 -0.1911 -0.5333
 1488TIP3   OH2 4404   4.668   7.833   0.580 -0.5250 -0.1131 -0.8265
 1488TIP3    H1 4405   4.689   7.758   0.635 -1.0271 -0.0380 -0.5298
 1488TIP3    H2 4406   4.587   7.868   0.616 -0.0620  0.8449 -0.6860
 1489TIP3   OH2 4407   2.880   6.459   1.505  0.6167  0.0323 -0.5137
 1489TIP3    H1 4408   2.975   6.463   1.515  0.6825  1.5170 -1.3508
 1489TIP3    H2 4409   2.848   6.433   1.591  1.7788 -0.5808 -0.2418
 1490TIP3   OH2 4410   2.134   3.205   4.881  0.5081  0.4722  0.0366
 1490TIP3    H1 4411   2.077   3.244   4.815 -1.0341 -0.7437  0.5726
 1490TIP3    H2 4412   2.127   3.264   4.956  2.9335  2.3223 -1.0672
 1491TIP3   OH2 4413   7.940   1.997   1.385 -0.3026  0.0897 -0.3422
 1491TIP3    H1 4414   8.030   2.028   1.401 -0.1353  0.2044 -1.4314
 1491TIP3    H2 4415   7.909   1.971   1.472  0.0508  1.9673  0.4156
 1492TIP3   OH2 4416   1.891   7.301   4.548  0.6958  0.3400  0.1915
 1492TIP3    H1 4417   1.933   7.361   4.610  0.8064  0.3594  0.0978
 1492TIP3    H2 4418   1.817   7.349   4.513  1.7973  1.0860 -1.2152
 1493TIP3   OH2 4419   5.013   3.585   2.153 -0.3841 -0.0770 -0.1065
 1493TIP3    H1 4420   5.081   3.523   2.129 -0.1711 -0.3582  1.1246
 1493TIP3    H2 4421   4.997   3.568   2.246 -2.2131 -0.0911 -0.3781
 1494TIP3   OH2 4422   2.649   7.736   1.708 -0.6682 -0.2620  0.1080
 1494TIP3    H1 4423   2.708   7.663   1.689 -0.4535 -0.6407  1.9861
 1494TIP3    H2 4424   2.562   7.703   1.685 -0.8181 -1.8836  2.6532
 1495TIP3   OH2 4425   2.903   3.902   1.868  0.4157 -0.5408 -0.0610
 1495TIP3    H1 4426   2.814   3.873   1.847  0.6639 -1.4510  0.0652
 1495TIP3    H2 4427   2.958   3.859   1.802  0.5179  2.4451 -2.1327
 1496TIP3   OH2 4428   1.264   3.086   3.867  0.9331 -0.1483  0.0948
 1496TIP3    H1 4429   1.182   3.126   3.897  0.7098 -1.7802  1.8546
 1496TIP3    H2 4430   1.286   3.134   3.787 -0.3563  2.0709  0.9733
 1497TIP3   OH2 4431   1.080   7.840   3.627 -0.0345 -0.5138 -0.6416
 1497TIP3    H1 4432   1.014   7.904   3.653 -0.4267 -1.3219  0.3920
 1497TIP3    H2 4433   1.155   7.893   3.600  0.1616  0.3959  1.4984
 1498TIP3   OH2 4434   7.241   6.898   1.641 -0.0105 -0.2607 -0.4228
 1498TIP3    H1 4435   7.218   6.805   1.645 -2.2489  0.2720  0.6290
 1498TIP3    H2 4436   7.326   6.904   1.686 -0.6963 -1.5660  1.1547
 1499TIP3   OH2 4437   1.550   2.132   5.748 -0.4163  0.0710  0.3354
 1499TIP3    H1 4438   1.486   2.197   5.777 -2.5944 -1.5210 -0.6101
 1499TIP3    H2 4439   1.629   2.182   5.731 -2.1164  2.5865 -0.8272
 1500TIP3   OH2 4440   1.424   7.718   5.009 -0.3232  0.1291  0.0253
 1500TIP3    H1 4441   1.340   7.712   4.964 -0.5920  2.0850  0.1705
 1500TIP3    H2 4442   1.455   7.807   4.991  1.4790 -0.3732  0.4027
 1501TIP3   OH2 4443   0.233   4.374   6.202 -0.0189  0.0508  0.2078
 1501TIP3    H1 4444   0.314   4.324   6.191  0.1165  0.0663  1.0692
 1501TIP3    H2 4445   0.167   4.326   6.152  0.7028  0.5302 -1.2556
 1502TIP3   OH2 4446   3.768   0.596   1.569  0.2287 -0.2601 -0.0294
 1502TIP3    H1 4447   3.700   0.640   1.518  0.0470 -0.1791  0.2824
 1502TIP3    H2 4448   3.843   0.591   1.510 -0.0871 -0.4604 -0.4204
 1503TIP3   OH2 4449   7.191   5.535   1.214  0.5137  0.0049  0.6549
 1503TIP3    H1 4450   7.235   5.564   1.134  0.7626 -0.8830  0.4584
 1503TIP3    H2 4451   7.115   5.594   1.222  1.7251  1.5716  1.0118
 1504TIP3   OH2 4452   3.767   5.556   5.861 -0.4044 -0.0459  0.3396
 1504TIP3    H1 4453   3.745   5.645   5.835  0.5528  0.0028 -0.3440
 1504TIP3    H2 4454   3.858   5.561   5.890 -0.4200 -0.7517  0.5232
 1505TIP3   OH2 4455   4.510   7.858   6.321  0.1642  0.2779 -0.1249
 1505TIP3    H1 4456   4.508   7.860   6.416 -2.0787  1.1873 -0.1273
 1505TIP3    H2 4457   4.476   7.943   6.294 -0.0432 -0.2719 -1.7364
 1506TIP3   OH2 4458   5.514   0.470   3.654 -0.2725  0.3579  0.3284
 1506TIP3    H1 4459   5.419   0.469   3.643 -0.1122  3.2692 -2.9103
 1506TIP3    H2 4460   5.529   0.534   3.724 -0.6324 -0.9555  1.6671
 1507TIP3   OH2 4461   6.060   4.207   0.314 -0.2810  0.0976 -0.2724
 1507TIP3    H1 4462   6.019   4.153   0.381  2.0466  0.0569  1.2489
 1507TIP3    H2 4463   6.132   4.153   0.281  1.6641  1.8978  0.7879
 1508TIP3   OH2 4464   6.398   3.223   2.939 -0.0086  0.1601 -0.1932
 1508TIP3    H1 4465   6.306   3.230   2.913 -0.1208  3.2611  0.6987
 1508TIP3    H2 4466   6.446   3.274   2.874  0.4624  2.4384  1.8207
 1509TIP3   OH2 4467   5.115   3.224   4.094  0.1868  0.1164 -0.1943
 1509TIP3    H1 4468   5.176   3.173   4.041  1.2162  3.0190 -2.0688
 1509TIP3    H2 4469   5.169   3.260   4.165 -0.4457 -1.0433  0.9032
 1510TIP3   OH2 4470   2.503   3.371   2.829  0.1813  1.0551  0.2499
 1510TIP3    H1 4471   2.442   3.429   2.783  0.7105  1.2538 -0.2277
 1510TIP3    H2 4472   2.583   3.373   2.775  0.0585 -0.4882 -0.0354
 1511TIP3   OH2 4473   4.613   4.895   4.537  0.4344  0.3719  0.0317
 1511TIP3    H1 4474   4.564   4.927   4.612 -2.1922  0.5625 -1.6546
 1511TIP3    H2 4475   4.566   4.816   4.509  1.8539 -0.1769 -0.9237
 1512TIP3   OH2 4476   7.850   6.854   2.131 -0.2282  0.2097 -0.1295
 1512TIP3    H1 4477   7.880   6.818   2.048 -0.0358  0.5274 -0.2015
 1512TIP3    H2 4478   7.848   6.780   2.191  0.2957  0.1089 -0.2348
 1513TIP3   OH2 4479   1.895   2.874   3.684  0.4111 -0.0301 -0.2083
 1513TIP3    H1 4480   1.894   2.789   3.640 -0.8969  0.5379 -1.3394
 1513TIP3    H2 4481   1.810   2.880   3.726  0.4344  0.7773 -0.2618
 1514TIP3   OH2 4482   3.962   5.814   1.073 -0.0564 -0.0945 -0.0618
 1514TIP3    H1 4483   3.993   5.775   0.991 -2.4456 -2.3181 -0.0324
 1514TIP3    H2 4484   4.009   5.766   1.141 -0.3207 -0.3697 -0.0752
 1515TIP3   OH2 4485   4.549   2.220   2.966 -0.1139  0.3807  0.5390
 1515TIP3    H1 4486   4.559   2.308   3.003  1.5351 -0.0280  1.1660
 1515TIP3    H2 4487   4.521   2.235   2.876 -1.4432  1.4847  1.0979
 1516TIP3   OH2 4488   5.530   3.879   5.564 -0.2003  0.0616  1.0647
 1516TIP3    H1 4489   5.548   3.970   5.539 -0.2945 -0.3283 -0.4803
 1516TIP3    H2 4490   5.612   3.849   5.604 -0.1511  0.7912  1.5514
 1517TIP3   OH2 4491   2.543   3.958   0.310  0.2145  0.1579  0.0474
 1517TIP3    H1 4492   2.543   3.902   0.388  0.5917  1.4493  1.0051
 1517TIP3    H2 4493   2.588   4.038   0.338 -0.6173  1.0842 -1.1785
 1518TIP3   OH2 4494   4.770   3.181   6.063 -0.5336 -0.0536 -0.5025
 1518TIP3    H1 4495   4.700   3.189   6.128 -0.4313  1.2646 -0.5179
 1518TIP3    H2 4496   4.846   3.222   6.105 -0.5422  1.0786 -1.5452
 1519TIP3   OH2 4497   2.922   1.094   2.123 -0.4119  0.0595 -0.4105
 1519TIP3    H1 4498   2.883   1.037   2.189 -0.6133  0.1341 -0.4667
 1519TIP3    H2 4499   2.854   1.107   2.058 -0.0707 -0.3739 -0.8633
 1520TIP3   OH2 4500   3.288   0.726   1.441 -0.5913 -0.0927 -0.2753
 1520TIP3    H1 4501   3.200   0.740   1.476 -0.1305  2.0978  0.1291
 1520TIP3    H2 4502   3.300   0.797   1.378  0.5874 -0.8760 -0.9604
 1521TIP3   OH2 4503   6.316   2.573   0.895  0.3844 -0.0037 -0.2776
 1521TIP3    H1 4504   6.223   2.595   0.885  0.2178 -0.5608  0.0356
 1521TIP3    H2 4505   6.341   2.537   0.810  0.4689  0.6853 -0.5532
 1522TIP3   OH2 4506   7.401   4.213   4.055  0.3202  0.0578 -0.5768
 1522TIP3    H1 4507   7.315   4.254   4.041  0.7297  1.4403  0.7146
 1522TIP3    H2 4508   7.436   4.202   3.966 -0.5151  0.9647 -1.0418
 1523TIP3   OH2 4509   4.806   7.186   5.151 -0.4472  0.1236 -0.6176
 1523TIP3    H1 4510   4.859   7.246   5.100  0.2575 -0.6032 -0.7564
 1523TIP3    H2 4511   4.716   7.202   5.122 -0.0987 -0.0143 -1.8165
 1524TIP3   OH2 4512   0.011   5.677   3.543 -0.1012  0.4052 -0.8619
 1524TIP3    H1 4513   0.094   5.712   3.512  1.1326  0.2113  1.9335
 1524TIP3    H2 4514   0.019   5.582   3.530 -0.3551  0.4695 -1.5495
 1525TIP3   OH2 4515   5.934   7.622   2.839 -0.1339  0.9697 -0.2002
 1525TIP3    H1 4516   5.940   7.538   2.885  2.2277  0.4736 -1.2275
 1525TIP3    H2 4517   5.872   7.673   2.891  1.0671 -0.1337  2.5594
 1526TIP3   OH2 4518   1.949   6.766   1.869 -0.0071  0.4060 -0.3627
 1526TIP3    H1 4519   1.859   6.787   1.893  0.2468  1.3734 -0.2254
 1526TIP3    H2 4520   1.992   6.851   1.860  1.0488 -0.0530  0.1712
 1527TIP3   OH2 4521   1.925   5.003   3.953 -0.1537  0.4513  0.3808
 1527TIP3    H1 4522   1.952   4.912   3.938 -0.7414  0.2592  0.4410
 1527TIP3    H2 4523   1.849   5.015   3.897 -0.2613  0.8128  0.6000
 1528TIP3   OH2 4524   6.186   5.011   6.207 -0.3214  0.6221  0.7327
 1528TIP3    H1 4525   6.196   4.940   6.144 -0.5935 -0.1358  1.5122
 1528TIP3    H2 4526   6.112   5.062   6.174 -0.2826  0.3997  0.2942
 1529TIP3   OH2 4527   7.552   1.377   3.848  0.1027 -0.0481  0.2394
 1529TIP3    H1 4528   7.619   1.352   3.784  2.3692  3.2673  1.0759
 1529TIP3    H2 4529   7.593   1.361   3.933 -1.5413 -1.1090  0.8879
 1530TIP3   OH2 4530   0.739   4.010   4.700 -0.4413  0.5062  0.0760
 1530TIP3    H1 4531   0.696   3.926   4.713  0.2876  0.0254 -0.5203
 1530TIP3    H2 4532   0.702   4.044   4.618  0.7279 -0.2014 -0.7767
 1531TIP3   OH2 4533   7.362   4.143   4.812  0.3022  0.2347  0.0526
 1531TIP3    H1 4534   7.403   4.117   4.894 -0.8355 -0.1351  0.5179
 1531TIP3    H2 4535   7.430   4.129   4.746  1.2538  0.6146  0.9326
 1532TIP3   OH2 4536   0.468   2.343   1.121  0.4935 -0.5511 -0.5938
 1532TIP3    H1 4537   0.400   2.276   1.128 -0.5968  0.0703 -3.4650
 1532TIP3    H2 4538   0.432   2.405   1.057  3.0050  0.7933 -0.7960
 1533TIP3   OH2 4539   1.267   7.021   4.696 -0.2489  0.0238 -0.0270
 1533TIP3    H1 4540   1.357   6.996   4.677  0.1403  0.9654  0.5167
 1533TIP3    H2 4541   1.219   7.004   4.614  0.3541 -0.7616 -0.2219
 1534TIP3   OH2 4542   0.681   5.859   0.799 -0.6015  0.1762  0.4930
 1534TIP3    H1 4543   0.739   5.874   0.874  0.6216  2.3252 -0.7820
 1534TIP3    H2 4544   0.721   5.908   0.728 -2.6005 -0.4733 -1.1659
 1535TIP3   OH2 4545   0.483   5.174   0.807 -0.4169  0.2727  0.1260
 1535TIP3    H1 4546   0.568   5.130   0.805 -0.8989 -0.6873  0.0336
 1535TIP3    H2 4547   0.497   5.257   0.761  0.5612  0.3064  0.4689
 1536TIP3   OH2 4548   6.100   1.774   6.429 -0.0536 -0.3600  0.3100
 1536TIP3    H1 4549   6.121   1.693   6.381 -0.5182  0.3114 -1.0878
 1536TIP3    H2 4550   6.005   1.782   6.419  0.1595  1.1048 -0.8512
 1537TIP3   OH2 4551   6.293   5.677   3.812 -0.6949  0.3673  0.3220
 1537TIP3    H1 4552   6.220   5.715   3.863 -0.4397  1.0993  0.1585
 1537TIP3    H2 4553   6.357   5.651   3.878 -0.9151  0.1390  0.4448
 1538TIP3   OH2 4554   4.066   3.663   3.641  0.3092  0.2541  0.2910
 1538TIP3    H1 4555   4.031   3.659   3.552 -2.9079  1.1732  1.3623
 1538TIP3    H2 4556   4.031   3.745   3.676  3.5637  1.1950  1.6996
 1539TIP3   OH2 4557   6.137   1.898   3.535  0.4664  0.0287 -0.1369
 1539TIP3    H1 4558   6.130   1.813   3.492 -0.0283 -0.2419  0.4702
 1539TIP3    H2 4559   6.052   1.912   3.575  1.2124 -0.1875  1.6038
 1540TIP3   OH2 4560   1.018   0.856   0.575  0.4792 -0.1557 -0.3218
 1540TIP3    H1 4561   1.004   0.916   0.502 -1.4569  2.6606  2.1344
 1540TIP3    H2 4562   1.069   0.908   0.638  0.4343 -1.8166  1.1340
 1541TIP3   OH2 4563   2.030   1.414   4.517 -0.2228 -0.4114  0.0995
 1541TIP3    H1 4564   2.084   1.415   4.596 -0.4814 -0.5554  0.2819
 1541TIP3    H2 4565   1.942   1.436   4.549 -0.1636  0.4050 -0.2765
 1542TIP3   OH2 4566   5.908   6.987   2.569 -0.3958 -0.4619 -0.4316
 1542TIP3    H1 4567   5.986   7.042   2.572 -0.2515 -0.6354 -0.9048
 1542TIP3    H2 4568   5.841   7.037   2.616 -0.1525 -0.0693 -0.5032
 1543TIP3   OH2 4569   7.569   3.603   3.230 -0.0246 -0.1039  0.7062
 1543TIP3    H1 4570   7.543   3.524   3.181 -2.1708 -0.5556  2.3869
 1543TIP3    H2 4571   7.642   3.574   3.285  0.9877 -0.1488 -0.6108
 1544TIP3   OH2 4572   7.524   5.750   3.350 -0.0989  0.5965  0.7857
 1544TIP3    H1 4573   7.449   5.794   3.388 -0.8915 -2.0323  2.5428
 1544TIP3    H2 4574   7.504   5.656   3.359  2.9270 -0.1945  0.3935
 1545TIP3   OH2 4575   3.337   2.573   0.828 -0.3462  0.0679 -0.1935
 1545TIP3    H1 4576   3.301   2.487   0.853  1.9024 -0.5461  1.1656
 1545TIP3    H2 4577   3.274   2.636   0.863 -0.8827 -0.9766  0.7945
 1546TIP3   OH2 4578   3.844   4.665   4.909 -0.4523  0.2744  0.2060
 1546TIP3    H1 4579   3.795   4.591   4.873  1.0607 -0.6745  0.0242
 1546TIP3    H2 4580   3.936   4.640   4.900  0.0966  2.1410  0.2510
 1547TIP3   OH2 4581   6.703   4.709   3.468  0.1860 -0.3608 -0.5058
 1547TIP3    H1 4582   6.710   4.715   3.372  0.4067  1.8792 -0.3921
 1547TIP3    H2 4583   6.790   4.735   3.499 -1.1049  3.6436  0.3412
 1548TIP3   OH2 4584   7.999   0.915   5.989 -0.0489  0.1188 -0.0990
 1548TIP3    H1 4585   7.931   0.974   6.024  1.1155  0.5386  1.6120
 1548TIP3    H2 4586   8.051   0.971   5.931  1.4649  1.0913  2.0391
 1549TIP3   OH2 4587   7.421   6.396   3.169 -0.0555 -0.0530  0.2038
 1549TIP3    H1 4588   7.405   6.449   3.247  0.8836  0.6398 -0.0578
 1549TIP3    H2 4589   7.424   6.306   3.201 -0.9851  0.1032  0.7618
 1550TIP3   OH2 4590   6.653   2.633   5.011  0.3226  0.1412  0.3318
 1550TIP3    H1 4591   6.673   2.711   5.062  0.9942  0.8166 -0.9138
 1550TIP3    H2 4592   6.735   2.611   4.967 -0.2465 -0.3747 -0.5033
 1551TIP3   OH2 4593   7.368   4.736   1.427 -0.1166 -0.1672 -0.1879
 1551TIP3    H1 4594   7.393   4.745   1.519  3.1109  0.9301 -1.0323
 1551TIP3    H2 4595   7.320   4.816   1.407  1.4868  0.8656 -0.0537
 1552TIP3   OH2 4596   4.553   2.989   5.958  0.3926  0.2621  0.8326
 1552TIP3    H1 4597   4.534   2.979   5.865  1.2832  0.5579  0.6103
 1552TIP3    H2 4598   4.604   3.070   5.964 -0.5178  0.7909  1.7095
 1553TIP3   OH2 4599   0.705   6.794   2.377  0.2308  0.0516  0.1867
 1553TIP3    H1 4600   0.626   6.843   2.400  0.8921  1.3844 -0.2185
 1553TIP3    H2 4601   0.767   6.862   2.349  1.7131 -0.8975  1.0379
 1554TIP3   OH2 4602   7.990   4.803   3.864 -0.3244  0.4166 -0.1948
 1554TIP3    H1 4603   7.942   4.735   3.817 -2.0565 -0.0049  2.0021
 1554TIP3    H2 4604   8.017   4.761   3.946  1.7319  1.3798 -0.3064
 1555TIP3   OH2 4605   8.349   1.283   2.989  0.2866  0.1095 -0.1779
 1555TIP3    H1 4606   8.426   1.319   2.944  0.7382 -1.2994 -0.5870
 1555TIP3    H2 4607   8.275   1.317   2.940  0.7292 -0.1882 -1.0737
 1556TIP3   OH2 4608   1.304   2.410   5.288  0.0267  0.5674 -0.3875
 1556TIP3    H1 4609   1.211   2.419   5.267 -0.5986  0.8041  2.0936
 1556TIP3    H2 4610   1.305   2.397   5.383  2.4489 -1.1115 -0.5671
 1557TIP3   OH2 4611   1.214   2.976   2.070 -0.5290 -0.0294  0.1462
 1557TIP3    H1 4612   1.224   2.990   2.165  1.5185  2.8635 -0.3725
 1557TIP3    H2 4613   1.279   2.910   2.049  1.8486  2.1004  0.3047
 1558TIP3   OH2 4614   0.619   4.037   1.793 -0.3194 -0.0727  0.2945
 1558TIP3    H1 4615   0.642   4.051   1.701  0.4933 -2.1407  0.1469
 1558TIP3    H2 4616   0.697   4.065   1.841  0.0304 -0.9154  0.2194
 1559TIP3   OH2 4617   7.045   1.303   1.205 -0.1179  0.5252 -0.5943
 1559TIP3    H1 4618   7.076   1.362   1.273  0.8025 -0.7080  0.1087
 1559TIP3    H2 4619   7.031   1.359   1.128  3.9277  1.2836 -1.0150
 1560TIP3   OH2 4620   6.627   4.496   3.654 -0.6934 -0.2544 -0.0973
 1560TIP3    H1 4621   6.604   4.515   3.745 -1.9998  0.0415 -0.4678
 1560TIP3    H2 4622   6.663   4.578   3.621  0.1947 -0.4902  0.2676
 1561TIP3   OH2 4623   2.174   7.285   0.338  0.2859 -0.6855 -0.3731
 1561TIP3    H1 4624   2.149   7.377   0.341 -0.0138 -0.7957  1.3507
 1561TIP3    H2 4625   2.168   7.262   0.245 -0.1152  0.8895 -0.7669
 1562TIP3   OH2 4626   5.158   4.954   0.811  0.4907 -0.4362  0.1519
 1562TIP3    H1 4627   5.147   4.943   0.906  1.8679 -0.2713  0.3568
 1562TIP3    H2 4628   5.069   4.964   0.777 -0.0333 -0.6453  1.4058
 1563TIP3   OH2 4629   3.507   1.199   5.550 -0.6827  0.2259 -0.2052
 1563TIP3    H1 4630   3.468   1.173   5.634  2.0433  0.4689  1.2379
 1563TIP3    H2 4631   3.580   1.255   5.574  0.2482  0.2458 -2.7813
 1564TIP3   OH2 4632   7.401   1.817   4.500 -0.3561 -0.9011  0.4032
 1564TIP3    H1 4633   7.356   1.873   4.563 -1.2750 -0.1392 -0.8578
 1564TIP3    H2 4634   7.380   1.856   4.415  1.7691 -1.1943 -0.3322
 1565TIP3   OH2 4635   5.242   0.096   2.557 -0.1422 -0.5171 -0.3912
 1565TIP3    H1 4636   5.327   0.057   2.535  1.0091  1.3734  0.3795
 1565TIP3    H2 4637   5.203   0.118   2.472 -0.7686 -3.0835 -0.8303
 1566TIP3   OH2 4638   4.528   7.711   6.570  0.1644  0.4164  0.2825
 1566TIP3    H1 4639   4.585   7.637   6.549  0.9580  1.2806 -0.7362
 1566TIP3    H2 4640   4.574   7.759   6.638  0.9858  1.4367 -0.9463
 1567TIP3   OH2 4641   6.753   4.767   0.463  0.5846  0.4112  0.2111
 1567TIP3    H1 4642   6.835   4.781   0.511  0.3630 -0.2649  0.8008
 1567TIP3    H2 4643   6.743   4.846   0.410  1.7032  0.4350  0.0039
 1568TIP3   OH2 4644   5.718   0.637   0.199  0.2521 -0.1014 -0.3287
 1568TIP3    H1 4645   5.651   0.675   0.255  1.4408  2.4856 -0.5169
 1568TIP3    H2 4646   5.792   0.696   0.207  0.9063 -0.2859 -3.6909
 1569TIP3   OH2 4647   3.871   6.656   0.833 -0.1240  0.2175 -0.5040
 1569TIP3    H1 4648   3.937   6.691   0.893 -1.0319 -0.0753  0.6840
 1569TIP3    H2 4649   3.920   6.597   0.776  0.9158  1.2198 -0.6918
 1570TIP3   OH2 4650   5.794   7.703   3.225 -0.4453  0.1343  0.1513
 1570TIP3    H1 4651   5.862   7.669   3.167 -0.6120 -1.8975  1.0788
 1570TIP3    H2 4652   5.837   7.714   3.310 -1.3835 -1.9578  0.9699
 1571TIP3   OH2 4653   3.695   4.418   4.887 -0.1276 -0.2655  0.0100
 1571TIP3    H1 4654   3.729   4.374   4.809 -0.5027  2.4463 -1.8344
 1571TIP3    H2 4655   3.610   4.453   4.860  1.4085  4.2127  0.0937
 1572TIP3   OH2 4656   0.920   2.771   1.533 -0.0982  0.3964  0.7507
 1572TIP3    H1 4657   0.955   2.732   1.453 -2.1364  2.6865 -1.4459
 1572TIP3    H2 4658   0.830   2.739   1.538  0.2167 -0.3455  2.6747
 1573TIP3   OH2 4659   5.404   1.400   3.250 -0.2048  0.5187 -0.0982
 1573TIP3    H1 4660   5.446   1.486   3.250 -0.6742  0.7480  0.4961
 1573TIP3    H2 4661   5.445   1.354   3.176  0.2231  1.1602 -0.2687
 1574TIP3   OH2 4662   4.247   4.279   4.537 -0.0913 -0.3606  0.0800
 1574TIP3    H1 4663   4.270   4.243   4.451  0.0867  1.0424 -0.4803
 1574TIP3    H2 4664   4.173   4.337   4.520 -1.5704 -1.8163  1.2690
 1575TIP3   OH2 4665   2.760   2.396   0.385  0.0199  0.0873 -0.6379
 1575TIP3    H1 4666   2.852   2.406   0.409 -0.1432 -2.9065  1.9194
 1575TIP3    H2 4667   2.713   2.443   0.454 -0.4677  1.7150 -2.0064
 1576TIP3   OH2 4668   5.790   0.476   4.499  0.2540 -0.0609 -0.2813
 1576TIP3    H1 4669   5.821   0.554   4.453  0.6426  1.2652  2.0949
 1576TIP3    H2 4670   5.695   0.483   4.497  0.1452 -1.1638 -2.6388
 1577TIP3   OH2 4671   4.762   6.593   1.093  0.1858 -0.1196 -0.4411
 1577TIP3    H1 4672   4.826   6.660   1.117  0.1829  0.4322 -1.8728
 1577TIP3    H2 4673   4.745   6.609   1.000 -2.0291 -0.2521 -0.1134
 1578TIP3   OH2 4674   4.396   1.954   2.684  0.8215 -0.8624 -0.3990
 1578TIP3    H1 4675   4.360   1.873   2.719 -0.5020 -0.1098  0.0764
 1578TIP3    H2 4676   4.329   1.986   2.623  1.0417  0.1812 -0.1145
 1579TIP3   OH2 4677   5.888   3.981   0.278  0.0918  0.0007  0.2102
 1579TIP3    H1 4678   5.866   3.944   0.363 -2.3506  0.4296 -0.1500
 1579TIP3    H2 4679   5.876   3.909   0.216  0.5251  0.0290  0.0945
 1580TIP3   OH2 4680   6.695   7.065   3.136 -0.1056 -0.0202  0.4751
 1580TIP3    H1 4681   6.756   7.013   3.189  0.3929  0.4637  0.3885
 1580TIP3    H2 4682   6.708   7.033   3.046 -1.2142 -1.0967  0.6658
 1581TIP3   OH2 4683   4.305   3.862   1.997  0.8144 -0.3266  0.3952
 1581TIP3    H1 4684   4.322   3.770   2.017  1.4060 -0.2959  0.0713
 1581TIP3    H2 4685   4.313   3.907   2.081  1.7033 -0.4100  0.3640
 1582TIP3   OH2 4686   5.415   4.611   2.203 -0.0729 -0.5460  0.1069
 1582TIP3    H1 4687   5.333   4.602   2.250 -0.5165  0.6295 -0.3971
 1582TIP3    H2 4688   5.395   4.583   2.114 -0.1341  0.4210 -0.1971
 1583TIP3   OH2 4689   1.556   7.817   1.106 -0.0508 -0.3970 -0.3873
 1583TIP3    H1 4690   1.477   7.847   1.151  0.9457  0.8592  0.6074
 1583TIP3    H2 4691   1.572   7.885   1.040 -0.1614 -0.9981 -1.0436
 1584TIP3   OH2 4692   4.126   7.465   3.680  0.3783  0.2578 -0.4473
 1584TIP3    H1 4693   4.039   7.442   3.712  0.8304  1.4090  1.8297
 1584TIP3    H2 4694   4.157   7.386   3.635 -1.8796 -0.0956 -1.5156
 1585TIP3   OH2 4695   1.691   3.389   1.534  0.2696 -0.0565  0.4141
 1585TIP3    H1 4696   1.652   3.406   1.448  0.8291  0.9736  0.3469
 1585TIP3    H2 4697   1.619   3.353   1.587  0.0725 -1.3153 -0.6521
 1586TIP3   OH2 4698   8.260   3.840   4.789 -0.4678 -0.0813 -0.5221
 1586TIP3    H1 4699   8.232   3.765   4.842  1.1026 -0.7302 -0.5575
 1586TIP3    H2 4700   8.298   3.901   4.853 -1.5030  0.5906 -0.5275
 1587TIP3   OH2 4701   2.123   5.707   4.021  0.5851 -0.0737  0.3419
 1587TIP3    H1 4702   2.215   5.701   4.048  0.7462 -1.4685 -0.4716
 1587TIP3    H2 4703   2.113   5.641   3.953 -0.6455  1.1414 -0.7054
 1588TIP3   OH2 4704   3.110   7.541   1.936 -0.6041 -0.0411 -0.1337
 1588TIP3    H1 4705   3.068   7.555   1.851 -0.9056 -0.1514 -0.0042
 1588TIP3    H2 4706   3.109   7.447   1.949 -2.0796  0.0635  0.7450
 1589TIP3   OH2 4707   3.171   5.984   6.346  0.1244  0.5303 -0.6085
 1589TIP3    H1 4708   3.090   6.023   6.378 -0.4030 -0.5433 -0.6048
 1589TIP3    H2 4709   3.176   5.899   6.389  0.4331 -0.0958 -1.8323
 1590TIP3   OH2 4710   2.009   0.083   6.510  0.2155 -0.0717 -0.7132
 1590TIP3    H1 4711   2.076   0.104   6.445  1.2079 -1.4480 -0.1734
 1590TIP3    H2 4712   1.950   0.023   6.465  0.0789  0.1023 -0.7710
 1591TIP3   OH2 4713   4.945   3.369   3.778  0.3295  0.0762  0.1858
 1591TIP3    H1 4714   4.926   3.459   3.751 -1.9884 -0.3280  0.2731
 1591TIP3    H2 4715   4.860   3.330   3.794  1.3286 -1.8428  1.2204
 1592TIP3   OH2 4716   1.148   3.278   4.094 -0.5679  0.6615  0.3271
 1592TIP3    H1 4717   1.179   3.354   4.144 -1.3924  0.4298  1.2043
 1592TIP3    H2 4718   1.053   3.287   4.092 -0.6095  0.1659 -0.4089
 1593TIP3   OH2 4719   4.087   3.036   0.540  0.1536  0.0342  0.2535
 1593TIP3    H1 4720   4.028   2.986   0.484 -0.4980  0.4194  0.5808
 1593TIP3    H2 4721   4.144   2.970   0.579 -0.0428 -0.3432 -0.0824
 1594TIP3   OH2 4722   2.686   2.513   1.502 -0.5449 -0.3235 -0.2408
 1594TIP3    H1 4723   2.682   2.528   1.407 -0.4259 -1.2099 -0.3889
 1594TIP3    H2 4724   2.768   2.466   1.515 -0.4009  0.0866  0.3514
 1595TIP3   OH2 4725   0.219   6.578   3.558  0.7495 -0.0122  0.0181
 1595TIP3    H1 4726   0.291   6.635   3.532  0.1319  0.1857 -1.3561
 1595TIP3    H2 4727   0.151   6.594   3.493  0.0416 -1.3121  0.4024
 1596TIP3   OH2 4728   7.216   4.826   0.090  0.1657  0.3895  0.1067
 1596TIP3    H1 4729   7.147   4.891   0.078 -0.8908 -0.4074  1.6878
 1596TIP3    H2 4730   7.196   4.758   0.026  1.9879  2.0545 -2.4713
 1597TIP3   OH2 4731   6.417   5.424   2.898 -0.0074  0.4889  0.7385
 1597TIP3    H1 4732   6.374   5.341   2.921 -1.1811  0.8985  0.1274
 1597TIP3    H2 4733   6.477   5.401   2.827 -1.5172  0.3806 -0.5784
 1598TIP3   OH2 4734   0.504   1.589   4.799  0.1603  0.0860 -0.1251
 1598TIP3    H1 4735   0.523   1.528   4.870  1.1601  1.9323  1.2572
 1598TIP3    H2 4736   0.570   1.657   4.807 -1.0874  1.5235 -1.4384
 1599TIP3   OH2 4737   7.753   5.091   1.813  0.2539  0.3827  0.1064
 1599TIP3    H1 4738   7.768   5.184   1.828  1.7976  0.0939  0.6482
 1599TIP3    H2 4739   7.661   5.084   1.789 -0.2121  1.9034  1.2971
 1600TIP3   OH2 4740   4.349   4.334   1.004  0.3878 -0.3405 -0.3129
 1600TIP3    H1 4741   4.432   4.378   1.023  0.9465 -1.9703  1.4323
 1600TIP3    H2 4742   4.284   4.384   1.053  0.6212 -0.0160 -0.3312
 1601TIP3   OH2 4743   5.323   7.527   3.055  0.1991 -0.5233  0.0058
 1601TIP3    H1 4744   5.313   7.622   3.050  0.4934 -0.5238 -0.7858
 1601TIP3    H2 4745   5.257   7.499   3.118  0.5537  0.2682  0.7426
 1602TIP3   OH2 4746   1.295   1.181   4.290  0.1984  0.2892  0.1817
 1602TIP3    H1 4747   1.334   1.208   4.373  2.0426  0.4775 -0.7118
 1602TIP3    H2 4748   1.277   1.087   4.302 -0.3992  0.4913  1.0701
 1603TIP3   OH2 4749   6.293   7.906   2.579  0.6010 -0.3547 -0.1358
 1603TIP3    H1 4750   6.377   7.927   2.620  1.4911 -2.9299 -0.4721
 1603TIP3    H2 4751   6.238   7.875   2.651 -0.2900  1.7534  0.1601
 1604TIP3   OH2 4752   1.532   2.417   3.612 -0.9922  0.1713 -0.3775
 1604TIP3    H1 4753   1.564   2.439   3.700  0.1456 -1.4260 -0.3338
 1604TIP3    H2 4754   1.506   2.501   3.574  0.0952  1.1308  0.8792
 1605TIP3   OH2 4755   0.147   0.468   5.174 -0.1100 -0.1440 -0.9121
 1605TIP3    H1 4756   0.073   0.523   5.149  0.3185  0.7267 -0.2989
 1605TIP3    H2 4757   0.121   0.380   5.146 -1.2095  0.2042 -1.0579
 1606TIP3   OH2 4758   7.148   5.746   3.677  0.1754  0.1865  0.4232
 1606TIP3    H1 4759   7.166   5.681   3.745  1.8334  0.4313  0.2548
 1606TIP3    H2 4760   7.091   5.700   3.615 -2.8142  0.4709  2.7139
 1607TIP3   OH2 4761   1.678   2.854   5.148  0.0548 -0.4366  0.1263
 1607TIP3    H1 4762   1.753   2.908   5.123 -1.2125  0.5443 -1.8737
 1607TIP3    H2 4763   1.632   2.838   5.065 -2.9850  0.6524  1.4567
 1608TIP3   OH2 4764   3.589   6.770   3.321 -0.2067 -0.1620 -0.2937
 1608TIP3    H1 4765   3.522   6.753   3.255  2.3957  1.6141 -3.7128
 1608TIP3    H2 4766   3.607   6.685   3.360 -2.2490 -1.2074 -1.5036
 1609TIP3   OH2 4767   1.310   5.030   6.788 -1.0208  0.1463  0.8557
 1609TIP3    H1 4768   1.347   5.109   6.748  1.2076  0.1410  2.6688
 1609TIP3    H2 4769   1.247   4.998   6.724  1.2930  0.8699 -2.0276
 1610TIP3   OH2 4770   7.795   5.417   6.030 -0.3543 -0.1334 -0.3084
 1610TIP3    H1 4771   7.809   5.437   6.123  1.1474  0.5376 -0.6445
 1610TIP3    H2 4772   7.876   5.374   6.002 -0.1076  1.1399 -1.6857
 1611TIP3   OH2 4773   4.413   5.937   3.209  0.3438  0.0798  0.1349
 1611TIP3    H1 4774   4.497   5.982   3.221  0.6418 -0.6782  1.0581
 1611TIP3    H2 4775   4.391   5.905   3.296 -1.0261  0.4568 -0.0619
 1612TIP3   OH2 4776   0.110   0.277   1.408 -0.5128 -0.2535 -0.5620
 1612TIP3    H1 4777   0.169   0.344   1.442 -0.4531 -0.4242 -0.3241
 1612TIP3    H2 4778   0.039   0.272   1.473 -0.3262 -0.6798 -0.3859
 1613TIP3   OH2 4779   0.624   4.364   6.752  0.4017 -0.2063  0.3002
 1613TIP3    H1 4780   0.553   4.319   6.707  2.2390 -1.3830 -1.6321
 1613TIP3    H2 4781   0.586   4.446   6.781 -1.5712 -0.4712 -1.2972
 1614TIP3   OH2 4782   3.337   2.156   4.579  0.0185 -0.8969  0.7038
 1614TIP3    H1 4783   3.307   2.245   4.600 -1.3063 -1.3141  0.6641
 1614TIP3    H2 4784   3.431   2.157   4.599  0.0541  0.5523  0.5576
 1615TIP3   OH2 4785   7.013   0.160   2.031  0.0716 -0.4628 -0.2488
 1615TIP3    H1 4786   7.082   0.197   1.976 -0.8372 -1.1602 -1.9538
 1615TIP3    H2 4787   6.933   0.204   2.000 -0.4407 -0.7198  0.6863
 1616TIP3   OH2 4788   7.798   7.431   6.579  0.1226  0.1197  0.6696
 1616TIP3    H1 4789   7.840   7.377   6.513 -1.1122 -1.8865  1.4229
 1616TIP3    H2 4790   7.817   7.387   6.662 -0.8817  0.8534  1.3146
 1617TIP3   OH2 4791   3.620   6.171   2.695 -0.5675  0.0009 -0.5165
 1617TIP3    H1 4792   3.676   6.120   2.753 -1.0731  0.4721  0.4120
 1617TIP3    H2 4793   3.532   6.159   2.730 -0.6699  1.6595 -0.1357
 1618TIP3   OH2 4794   8.026   6.247   5.893 -0.1059  0.4930  0.2434
 1618TIP3    H1 4795   8.036   6.159   5.855 -2.2007 -2.1679  4.9201
 1618TIP3    H2 4796   8.115   6.272   5.917  0.5456 -0.3037 -1.1659
 1619TIP3   OH2 4797   0.988   4.152   1.633 -0.1729  0.2084 -0.2926
 1619TIP3    H1 4798   1.037   4.151   1.715  2.0058  0.7145 -1.5107
 1619TIP3    H2 4799   0.959   4.243   1.623  1.8712  0.8043 -1.3058
 1620TIP3   OH2 4800   8.347   7.512   1.122  0.1314  0.1084  0.0993
 1620TIP3    H1 4801   8.289   7.558   1.183 -0.5294 -0.1716 -0.3081
 1620TIP3    H2 4802   8.418   7.479   1.177  0.3939  1.2352  0.4639
 1621TIP3   OH2 4803   4.477   5.734   2.573  0.1190 -0.4361 -0.0702
 1621TIP3    H1 4804   4.389   5.699   2.584 -0.6650  0.2941 -2.9413
 1621TIP3    H2 4805   4.527   5.662   2.534  1.5076 -1.5296  3.3559
 1622TIP3   OH2 4806   7.291   0.299   6.449 -0.0889  0.0139 -0.1644
 1622TIP3    H1 4807   7.386   0.296   6.461 -0.1480  1.0851  0.6610
 1622TIP3    H2 4808   7.258   0.226   6.502  0.2188  0.0874  0.1314
 1623TIP3   OH2 4809   1.896   6.567   1.182 -0.9124 -0.2587  0.2033
 1623TIP3    H1 4810   1.939   6.569   1.268  3.0664 -2.5499 -1.4708
 1623TIP3    H2 4811   1.904   6.476   1.153 -0.1773  0.8078 -3.4191
 1624TIP3   OH2 4812   7.590   1.668   5.623  0.3897  0.3506  0.1221
 1624TIP3    H1 4813   7.527   1.595   5.623  2.0892 -1.2075 -0.4140
 1624TIP3    H2 4814   7.588   1.700   5.533  2.2590 -1.5312 -0.6762
 1625TIP3   OH2 4815   0.184   6.124   6.221 -0.0859 -0.3159  0.4706
 1625TIP3    H1 4816   0.195   6.151   6.129  0.7340 -0.9241  0.3825
 1625TIP3    H2 4817   0.178   6.207   6.269  0.0910  0.0107 -0.0596
 1626TIP3   OH2 4818   2.377   0.740   2.161 -0.1887 -0.8025  0.2512
 1626TIP3    H1 4819   2.318   0.795   2.211 -1.5948 -1.2519 -0.8327
 1626TIP3    H2 4820   2.358   0.760   2.070  0.0717 -2.2302 -0.1531
 1627TIP3   OH2 4821   3.318   0.318   4.943  0.2429  0.3602  0.1943
 1627TIP3    H1 4822   3.346   0.360   4.862 -0.7821 -0.2361 -0.4940
 1627TIP3    H2 4823   3.399   0.291   4.985  0.8097  1.0588 -0.4231
 1628TIP3   OH2 4824   2.307   5.485   1.480 -0.0574  0.2223  0.7183
 1628TIP3    H1 4825   2.251   5.537   1.422 -0.3493 -0.8806 -0.0330
 1628TIP3    H2 4826   2.359   5.549   1.528 -2.1714  1.2966  1.6836
 1629TIP3   OH2 4827   4.092   6.653   1.922  0.6016  0.3171  0.2143
 1629TIP3    H1 4828   4.081   6.589   1.852  0.2290 -0.7343  1.1922
 1629TIP3    H2 4829   4.172   6.701   1.899  0.3474  0.1654 -1.0337
 1630TIP3   OH2 4830   4.771   5.452   3.712 -0.2691  0.5160 -0.0286
 1630TIP3    H1 4831   4.843   5.481   3.768 -0.0546 -1.4294  0.7935
 1630TIP3    H2 4832   4.725   5.385   3.764 -0.6785 -0.6251 -1.7585
 1631TIP3   OH2 4833   1.504   5.263   2.379 -0.3061  0.0438  0.0378
 1631TIP3    H1 4834   1.557   5.343   2.377  0.1418 -0.0641  3.1525
 1631TIP3    H2 4835   1.567   5.192   2.369 -0.6600 -0.0218 -2.3140
 1632TIP3   OH2 4836   3.234   6.715   0.111 -0.5716  0.6859 -0.0344
 1632TIP3    H1 4837   3.283   6.636   0.137 -2.1947  0.7941  4.0886
 1632TIP3    H2 4838   3.179   6.685   0.039  0.9639 -1.1014 -0.5713
 1633TIP3   OH2 4839   0.700   1.536   1.244  0.2678  0.5156 -0.1364
 1633TIP3    H1 4840   0.657   1.576   1.320  1.4288 -1.2874  1.5753
 1633TIP3    H2 4841   0.789   1.572   1.245  0.1927  0.7269 -0.8524
 1634TIP3   OH2 4842   0.110   3.493   1.879  0.8212  0.1828 -0.2561
 1634TIP3    H1 4843   0.138   3.439   1.805 -1.6480  0.9310 -1.8837
 1634TIP3    H2 4844   0.045   3.440   1.924  1.7287  0.0539  0.9571
 1635TIP3   OH2 4845   7.992   6.468   3.446  0.4161 -1.0494 -0.3164
 1635TIP3    H1 4846   7.946   6.537   3.398 -0.1863 -0.9264  0.4238
 1635TIP3    H2 4847   8.015   6.404   3.379  2.9874  0.8550 -1.4252
 1636TIP3   OH2 4848   7.790   4.464   2.136 -0.5508 -0.2411  0.0810
 1636TIP3    H1 4849   7.741   4.412   2.200 -2.7857  2.0217  0.3666
 1636TIP3    H2 4850   7.740   4.456   2.055 -0.2706  0.5037 -0.1707
 1637TIP3   OH2 4851   2.368   3.682   6.809  0.4317  0.0669  0.7359
 1637TIP3    H1 4852   2.401   3.601   6.769  2.5523  0.8520  0.7587
 1637TIP3    H2 4853   2.342   3.736   6.734 -0.3085 -0.3341  0.6900
 1638TIP3   OH2 4854   4.714   2.040   0.197  0.3732 -0.2769 -0.9172
 1638TIP3    H1 4855   4.660   2.051   0.119 -0.1265  1.0373 -0.4252
 1638TIP3    H2 4856   4.797   2.084   0.175 -0.8172  2.9063  0.2486
 1639TIP3   OH2 4857   0.496   6.524   1.172 -0.3061 -0.7872  0.2504
 1639TIP3    H1 4858   0.463   6.505   1.260 -1.1552 -1.8646 -0.2703
 1639TIP3    H2 4859   0.517   6.617   1.174 -1.6506 -0.4640  1.1882
 1640TIP3   OH2 4860   5.406   6.478   4.705  0.2193 -0.5036 -0.3516
 1640TIP3    H1 4861   5.313   6.459   4.716  0.3745 -1.3607 -0.4132
 1640TIP3    H2 4862   5.413   6.573   4.715 -0.5958 -0.4828  0.1003
 1641TIP3   OH2 4863   3.324   7.779   4.215 -0.0479 -0.2339 -1.1317
 1641TIP3    H1 4864   3.277   7.696   4.224 -0.5461  0.0341 -1.2520
 1641TIP3    H2 4865   3.289   7.819   4.136 -0.1737  0.3210 -0.8074
 1642TIP3   OH2 4866   3.077   7.753   5.901 -0.0487  0.4022 -0.4103
 1642TIP3    H1 4867   3.162   7.780   5.935 -0.2357 -0.1139  0.5121
 1642TIP3    H2 4868   3.081   7.772   5.807  1.9211 -1.6641 -0.8342
 1643TIP3   OH2 4869   5.058   6.142   6.433  0.1226 -0.1142  0.5056
 1643TIP3    H1 4870   5.041   6.048   6.441  2.4878 -0.6167  0.2630
 1643TIP3    H2 4871   5.151   6.148   6.410 -0.5459  2.1901 -2.1056
 1644TIP3   OH2 4872   6.699   5.665   0.717 -0.1533  0.1791 -0.2838
 1644TIP3    H1 4873   6.774   5.719   0.741  1.2245 -1.0102 -1.6914
 1644TIP3    H2 4874   6.722   5.577   0.747 -0.9149 -0.2420 -0.8967
 1645TIP3   OH2 4875   0.479   0.796   6.833 -0.7202 -0.4930  0.0165
 1645TIP3    H1 4876   0.394   0.806   6.790  0.0215 -0.1190 -1.4141
 1645TIP3    H2 4877   0.524   0.729   6.782  0.3091  0.2020 -0.0200
 1646TIP3   OH2 4878   1.514   6.161   0.328  0.3248 -0.2132 -0.9384
 1646TIP3    H1 4879   1.444   6.124   0.383  0.8986 -2.3462 -1.5461
 1646TIP3    H2 4880   1.492   6.254   0.322 -1.1991 -0.3887  0.7336
 1647TIP3   OH2 4881   7.400   0.165   6.816  0.1161 -0.3468  0.0799
 1647TIP3    H1 4882   7.448   0.184   6.897 -0.5754  0.7891  0.2568
 1647TIP3    H2 4883   7.420   0.239   6.758  0.5005 -1.0811 -0.7529
 1648TIP3   OH2 4884   0.679   0.419   4.577 -0.4099  0.2370  0.2273
 1648TIP3    H1 4885   0.607   0.367   4.613  0.2576 -0.9571 -0.1031
 1648TIP3    H2 4886   0.702   0.375   4.495  2.6149 -1.2407  1.6952
 1649TIP3   OH2 4887   1.177   0.222   1.483  0.0755  0.2976 -0.1669
 1649TIP3    H1 4888   1.119   0.283   1.437 -0.2450 -0.5477 -0.9022
 1649TIP3    H2 4889   1.152   0.136   1.450  0.4581 -0.2506  0.9251
 1650TIP3   OH2 4890   1.653   3.437   6.260  0.1438  0.1910  0.3436
 1650TIP3    H1 4891   1.692   3.497   6.324 -1.6772 -0.4472  2.1371
 1650TIP3    H2 4892   1.721   3.427   6.194  2.4208  0.3799  2.4779
 1651TIP3   OH2 4893   0.253   2.504   6.463 -0.0326  0.0486 -0.1079
 1651TIP3    H1 4894   0.258   2.549   6.548  0.6174  1.0751 -0.6717
 1651TIP3    H2 4895   0.228   2.415   6.485 -1.4590  0.6855  1.0468
 1652TIP3   OH2 4896   7.131   4.926   0.524  0.2969 -0.0518 -0.4006
 1652TIP3    H1 4897   7.106   5.005   0.476  1.4888 -0.3843 -1.6234
 1652TIP3    H2 4898   7.054   4.905   0.576 -0.4408  1.2843 -0.8921
 1653TIP3   OH2 4899   7.444   3.571   4.081  0.5015 -0.4284 -0.2898
 1653TIP3    H1 4900   7.528   3.554   4.125  0.2961 -1.5128 -0.2812
 1653TIP3    H2 4901   7.406   3.644   4.129 -0.0029 -1.9606  1.7726
 1654TIP3   OH2 4902   1.547   3.193   3.157  0.4291  0.5900 -0.5656
 1654TIP3    H1 4903   1.599   3.183   3.077 -0.1382 -0.9763 -0.7712
 1654TIP3    H2 4904   1.491   3.116   3.159 -0.2575  1.0894  0.8576
 1655TIP3   OH2 4905   5.929   5.893   1.154 -0.7336 -0.1645  0.7097
 1655TIP3    H1 4906   5.950   5.801   1.172  2.4948  0.4731  0.8147
 1655TIP3    H2 4907   5.892   5.925   1.236  2.0185 -0.4393  2.1922
 1656TIP3   OH2 4908   1.679   6.348   3.953 -0.3169 -0.1592 -0.0156
 1656TIP3    H1 4909   1.764   6.326   3.992 -1.2841 -0.9111  1.7979
 1656TIP3    H2 4910   1.630   6.266   3.953 -1.9703  0.7440  1.4732
 1657TIP3   OH2 4911   0.160   5.562   1.868  0.4387  0.3128 -0.4094
 1657TIP3    H1 4912   0.220   5.540   1.797 -0.9139 -0.7572 -1.2884
 1657TIP3    H2 4913   0.103   5.629   1.831  1.1346  1.4156  0.4574
 1658TIP3   OH2 4914   5.312   0.262   4.836  0.7541 -0.6177  0.1428
 1658TIP3    H1 4915   5.372   0.194   4.866  1.2785  0.9328  2.9041
 1658TIP3    H2 4916   5.227   0.236   4.871  1.1891  0.6916  2.3629
 1659TIP3   OH2 4917   0.354   2.187   1.454 -0.0652 -0.0755  0.3248
 1659TIP3    H1 4918   0.336   2.195   1.361  0.3300  0.2562  0.2769
 1659TIP3    H2 4919   0.408   2.263   1.475  1.6453 -1.2453  0.3828
 1660TIP3   OH2 4920   2.134   2.353   1.404 -0.0878  0.3585 -0.4091
 1660TIP3    H1 4921   2.068   2.339   1.472 -0.3614 -0.3494 -0.8143
 1660TIP3    H2 4922   2.192   2.278   1.411 -0.3005  0.1122 -1.1629
 1661TIP3   OH2 4923   4.844   1.508   0.253  0.0641  0.1084  0.7514
 1661TIP3    H1 4924   4.889   1.432   0.290  2.4094 -0.2039 -2.3173
 1661TIP3    H2 4925   4.858   1.578   0.318  2.8021 -0.6843  1.1322
 1662TIP3   OH2 4926   3.622   4.593   4.223 -0.1701  0.2237 -0.2274
 1662TIP3    H1 4927   3.648   4.501   4.222 -0.2086  0.2152 -0.7433
 1662TIP3    H2 4928   3.677   4.633   4.290 -0.7925 -0.3538  0.6453
 1663TIP3   OH2 4929   7.599   6.353   4.523 -0.6322 -0.5482  0.1081
 1663TIP3    H1 4930   7.621   6.260   4.515  2.6852  0.2174 -1.0346
 1663TIP3    H2 4931   7.674   6.399   4.485 -2.8201  2.6039 -0.7888
 1664TIP3   OH2 4932   1.872   3.098   3.496 -0.1449  0.1616 -0.0038
 1664TIP3    H1 4933   1.879   3.036   3.569  0.3452 -0.2344 -0.3796
 1664TIP3    H2 4934   1.915   3.177   3.527  1.9762 -0.6820 -0.5748
 1665TIP3   OH2 4935   6.858   0.486   5.002  0.3178  0.7063 -0.8096
 1665TIP3    H1 4936   6.793   0.553   5.022  0.6787  0.5191  1.1901
 1665TIP3    H2 4937   6.910   0.524   4.931  0.2058  2.3515 -0.0692
 1666TIP3   OH2 4938   7.777   1.714   5.131 -0.2126  0.2897  0.0171
 1666TIP3    H1 4939   7.743   1.800   5.108 -0.8174 -0.3244 -1.5303
 1666TIP3    H2 4940   7.872   1.723   5.123 -0.1235  1.2905  1.7381
 1667TIP3   OH2 4941   3.914   0.621   5.011 -0.1180  0.2764 -1.0126
 1667TIP3    H1 4942   3.930   0.615   5.105 -0.2665 -0.9287 -1.0404
 1667TIP3    H2 4943   3.931   0.532   4.979  0.8159  0.8825 -2.2715
 1668TIP3   OH2 4944   0.827   3.029   1.537 -0.1719 -0.0205  0.1215
 1668TIP3    H1 4945   0.803   2.982   1.616 -1.6627 -0.4876 -0.5779
 1668TIP3    H2 4946   0.876   2.965   1.485  1.3823  0.4831  0.9108
 1669TIP3   OH2 4947   0.861   7.100   5.127  0.2448  1.0104 -0.2183
 1669TIP3    H1 4948   0.928   7.127   5.064 -0.1453 -0.7791 -1.4758
 1669TIP3    H2 4949   0.897   7.022   5.168 -0.7420  0.4401 -0.3978
 1670TIP3   OH2 4950   6.629   3.858   2.251  0.2643 -0.1166 -0.0186
 1670TIP3    H1 4951   6.607   3.805   2.327 -0.2092  1.3927  0.9530
 1670TIP3    H2 4952   6.584   3.942   2.266  2.5674  1.2967 -0.4491
 1671TIP3   OH2 4953   1.515   3.257   6.392 -0.5324 -0.2177 -0.0595
 1671TIP3    H1 4954   1.581   3.320   6.361  0.3659 -0.4491  1.2974
 1671TIP3    H2 4955   1.527   3.181   6.336 -1.7389  0.8376 -1.8345
 1672TIP3   OH2 4956   7.566   5.525   1.611  0.0606 -0.2017 -0.1250
 1672TIP3    H1 4957   7.527   5.533   1.698  0.3301 -1.8605  0.1767
 1672TIP3    H2 4958   7.509   5.576   1.554 -0.7752 -0.0347  0.8326
 1673TIP3   OH2 4959   1.321   7.775   6.052 -0.2597 -0.1620  0.5497
 1673TIP3    H1 4960   1.367   7.696   6.022 -0.0067  0.3548 -0.4909
 1673TIP3    H2 4961   1.234   7.744   6.077 -0.4075 -0.6819 -0.5395
 1674TIP3   OH2 4962   6.112   4.241   4.242 -0.2422 -0.0219  0.3909
 1674TIP3    H1 4963   6.144   4.186   4.170 -0.6696  0.6664 -0.3456
 1674TIP3    H2 4964   6.156   4.207   4.320  1.1722 -0.0192 -0.3697
 1675TIP3   OH2 4965   4.430   0.987   1.705  0.3663 -0.1640 -0.1430
 1675TIP3    H1 4966   4.504   1.048   1.703  1.2004 -1.1584 -0.8411
 1675TIP3    H2 4967   4.406   0.982   1.797  0.7781  0.6248  0.0201
 1676TIP3   OH2 4968   6.531   5.061   3.839 -0.0906  0.1941  0.1717
 1676TIP3    H1 4969   6.609   5.086   3.789 -0.3368  0.7112  0.0398
 1676TIP3    H2 4970   6.462   5.120   3.808 -0.4293  0.0294  0.5935
 1677TIP3   OH2 4971   6.883   0.037   0.855  0.3507  0.1583 -0.1843
 1677TIP3    H1 4972   6.934   0.051   0.776 -0.9208 -0.3729 -1.1299
 1677TIP3    H2 4973   6.883  -0.058   0.867 -0.0287  0.1897  0.0728
 1678TIP3   OH2 4974   7.232   0.448   1.347 -0.1059 -0.0635 -0.3252
 1678TIP3    H1 4975   7.206   0.502   1.272 -0.9394 -1.2264 -0.8903
 1678TIP3    H2 4976   7.157   0.391   1.364  1.2919 -2.1184 -0.7291
 1679TIP3   OH2 4977   1.358   6.412   4.592  0.7585 -0.1592 -0.0088
 1679TIP3    H1 4978   1.410   6.449   4.663  0.5131 -0.1546  0.1690
 1679TIP3    H2 4979   1.281   6.376   4.635  0.6260 -0.1890 -0.2698
 1680TIP3   OH2 4980   2.907   4.612   3.962  0.1767 -0.1266  0.2057
 1680TIP3    H1 4981   2.856   4.575   4.034 -0.1347 -0.1192 -0.0119
 1680TIP3    H2 4982   2.856   4.593   3.884 -0.2660  1.2505  0.1317
 1681TIP3   OH2 4983   3.041   4.230   1.404 -0.8486  0.0071  0.2862
 1681TIP3    H1 4984   3.012   4.146   1.439 -1.4227  0.3123  0.5514
 1681TIP3    H2 4985   3.112   4.207   1.344 -0.5856 -0.6166  0.8135
 1682TIP3   OH2 4986   5.481   3.363   4.976  0.6327 -0.3119  0.1681
 1682TIP3    H1 4987   5.406   3.315   5.010 -0.3736  0.8687 -0.2922
 1682TIP3    H2 4988   5.521   3.404   5.053  0.1891 -0.1123  0.2929
 1683TIP3   OH2 4989   3.151   4.091   5.039  0.2223 -0.0558  0.0708
 1683TIP3    H1 4990   3.238   4.131   5.042 -0.2383  1.0128 -0.4331
 1683TIP3    H2 4991   3.167   4.000   5.013  1.0911  0.4826 -1.4035
 1684TIP3   OH2 4992   1.446   5.874   2.610  0.1502  0.0109 -0.3994
 1684TIP3    H1 4993   1.421   5.832   2.528 -0.9043 -0.0104 -0.0898
 1684TIP3    H2 4994   1.376   5.849   2.671  1.2344 -0.5015  0.6816
 1685TIP3   OH2 4995   0.200   3.119   3.245 -0.4242 -0.8469 -0.5763
 1685TIP3    H1 4996   0.215   3.058   3.172  0.0291 -0.6748 -0.6331
 1685TIP3    H2 4997   0.130   3.176   3.215  0.6522  0.0704 -1.4278
 1686TIP3   OH2 4998   6.343   5.113   4.263  0.3609 -0.2863 -0.3010
 1686TIP3    H1 4999   6.369   5.204   4.277 -1.2102  0.3344 -1.2031
 1686TIP3    H2 5000   6.425   5.069   4.238  1.3768  0.5714  1.3323
 1687TIP3   OH2 5001   1.715   3.108   2.281 -0.3791 -0.0405  0.5866
 1687TIP3    H1 5002   1.787   3.074   2.334 -1.9243 -2.7742  1.1090
 1687TIP3    H2 5003   1.727   3.069   2.195 -0.4088  0.7670  0.1991
 1688TIP3   OH2 5004   2.623   6.098   1.751  0.4060 -0.9750 -0.3576
 1688TIP3    H1 5005   2.554   6.146   1.797 -1.7582 -2.0035 -2.2992
 1688TIP3    H2 5006   2.633   6.144   1.668  1.7912 -1.1085 -0.2919
 1689TIP3   OH2 5007   3.834   5.769   1.485  0.1347  0.6960 -0.2030
 1689TIP3    H1 5008   3.782   5.696   1.454  0.8995 -0.4684  1.1100
 1689TIP3    H2 5009   3.916   5.763   1.436 -0.1049  1.1731 -0.6700
 1690TIP3   OH2 5010   3.723   0.146   5.963 -0.1319  0.6400 -0.0801
 1690TIP3    H1 5011   3.718   0.168   5.870  0.6656 -0.4811 -0.4071
 1690TIP3    H2 5012   3.631   0.137   5.990 -0.3572  0.3586 -0.9137
 1691TIP3   OH2 5013   2.491   3.475   0.284  0.2402 -0.7265  0.1740
 1691TIP3    H1 5014   2.414   3.493   0.230  1.2758  1.8080 -0.5808
 1691TIP3    H2 5015   2.540   3.409   0.235 -1.9096 -3.2497  1.2107
 1692TIP3   OH2 5016   2.988   7.162   6.526  1.2215  0.0942  0.1956
 1692TIP3    H1 5017   3.022   7.159   6.437 -0.9024  1.8033 -0.7617
 1692TIP3    H2 5018   3.014   7.248   6.558 -0.1457  0.4993  0.2738
 1693TIP3   OH2 5019   0.454   0.605   1.564 -0.4168 -0.0586  0.4631
 1693TIP3    H1 5020   0.480   0.553   1.489  1.8562  1.1110  0.3619
 1693TIP3    H2 5021   0.442   0.541   1.635  0.3349 -0.8824 -0.1378
 1694TIP3   OH2 5022   5.742   0.873   0.380 -0.0044  0.4784 -0.0167
 1694TIP3    H1 5023   5.802   0.947   0.372  0.5873  0.0287  0.1500
 1694TIP3    H2 5024   5.786   0.813   0.440 -1.3010  0.8064  1.3498
 1695TIP3   OH2 5025   4.017   7.754   0.573 -0.3676 -0.4208 -0.0177
 1695TIP3    H1 5026   4.045   7.669   0.539 -0.8762 -0.2859 -0.7919
 1695TIP3    H2 5027   3.937   7.735   0.623  0.1936 -0.5666  0.8622
 1696TIP3   OH2 5028   0.379   1.208   2.735 -0.1701  0.2331  0.0662
 1696TIP3    H1 5029   0.306   1.235   2.678 -0.3443 -2.0063 -0.8816
 1696TIP3    H2 5030   0.457   1.228   2.684 -0.2718 -0.3360 -0.3295
 1697TIP3   OH2 5031   2.172   1.332   5.166 -0.0668 -0.4317 -0.3355
 1697TIP3    H1 5032   2.121   1.272   5.112 -1.4307 -0.9206  1.3872
 1697TIP3    H2 5033   2.179   1.289   5.251 -0.4824  1.5129  0.7611
 1698TIP3   OH2 5034   2.409   2.964   2.359 -0.1625 -0.5702 -0.2455
 1698TIP3    H1 5035   2.459   2.985   2.280  2.0557 -1.1060  0.9440
 1698TIP3    H2 5036   2.348   2.896   2.332  1.9649 -2.2404 -1.1107
 1699TIP3   OH2 5037   1.447   3.664   0.637  0.0211  0.1569 -0.0605
 1699TIP3    H1 5038   1.532   3.689   0.600  0.0550 -0.0260 -0.1126
 1699TIP3    H2 5039   1.383   3.717   0.590  0.2641  2.0451  1.5944
 1700TIP3   OH2 5040   3.199   0.886   2.693 -0.7152 -0.0438 -0.2991
 1700TIP3    H1 5041   3.171   0.814   2.638  0.4469 -0.8238  0.0888
 1700TIP3    H2 5042   3.202   0.962   2.635  0.1508 -0.7780 -1.2333
 1701TIP3   OH2 5043   4.314   2.549   2.896 -0.0091 -0.9036 -0.3321
 1701TIP3    H1 5044   4.295   2.487   2.826 -1.3837 -0.4223 -0.4208
 1701TIP3    H2 5045   4.386   2.603   2.862  0.1867 -1.4804 -0.8514
 1702TIP3   OH2 5046   5.402   1.650   0.390  0.1146  0.4251  0.1708
 1702TIP3    H1 5047   5.414   1.743   0.369 -0.1286 -0.0114 -2.1657
 1702TIP3    H2 5048   5.489   1.612   0.384  0.0514  0.3110 -0.0787
 1703TIP3   OH2 5049   7.623   3.045   5.727 -0.0663 -0.1863 -0.3771
 1703TIP3    H1 5050   7.589   3.012   5.644  0.5186  1.7795 -1.4764
 1703TIP3    H2 5051   7.552   3.097   5.764 -0.1766 -0.7062  0.1590
 1704TIP3   OH2 5052   7.514   7.801   5.402  0.7611 -0.3616 -0.2303
 1704TIP3    H1 5053   7.494   7.742   5.329  1.7638 -2.2351  0.9232
 1704TIP3    H2 5054   7.502   7.747   5.481 -0.8637  1.7462  1.0773
 1705TIP3   OH2 5055   2.742   7.402   0.307 -0.4414  0.0902  0.1554
 1705TIP3    H1 5056   2.826   7.393   0.352 -0.6443  2.9252  1.3154
 1705TIP3    H2 5057   2.756   7.362   0.221  1.0416 -2.3494  1.4203
 1706TIP3   OH2 5058   4.893   7.693   0.967  0.0643  0.5680 -0.0042
 1706TIP3    H1 5059   4.872   7.640   1.043 -0.5596 -0.0685 -0.6083
 1706TIP3    H2 5060   4.906   7.630   0.896 -1.7479  1.2249 -0.9904
 1707TIP3   OH2 5061   8.065   1.750   1.297  0.1959  0.4375 -0.1204
 1707TIP3    H1 5062   8.012   1.817   1.340  1.5537  2.5480 -1.4969
 1707TIP3    H2 5063   8.067   1.778   1.205  1.2988 -1.2030 -0.6317
 1708TIP3   OH2 5064   5.911   2.630   2.882 -0.4882  0.0423  0.0912
 1708TIP3    H1 5065   5.880   2.550   2.838 -3.5039  0.0373  1.9566
 1708TIP3    H2 5066   5.840   2.693   2.870  0.2562  1.2731  1.7161
 1709TIP3   OH2 5067   8.218   6.483   1.024 -0.2028  0.3662 -0.4088
 1709TIP3    H1 5068   8.146   6.458   0.967  0.1645  0.6729 -1.0196
 1709TIP3    H2 5069   8.269   6.545   0.972  0.1616  0.6196  0.2406
 1710TIP3   OH2 5070   0.469   0.934   1.180  0.5583  0.2346 -0.4956
 1710TIP3    H1 5071   0.453   0.986   1.260  1.5934  1.8111 -1.2648
 1710TIP3    H2 5072   0.383   0.897   1.159  0.0266  0.6812  0.7353
 1711TIP3   OH2 5073   8.101   6.389   1.837  0.2245 -0.8550  0.2773
 1711TIP3    H1 5074   8.075   6.422   1.752  0.8399 -2.1316 -0.4464
 1711TIP3    H2 5075   8.089   6.294   1.831 -0.5162 -0.9105  1.9017
 1712TIP3   OH2 5076   2.138   1.376   3.231 -0.3296 -0.3500 -1.0848
 1712TIP3    H1 5077   2.085   1.365   3.310  0.0586 -0.6678 -0.8590
 1712TIP3    H2 5078   2.175   1.464   3.239  0.3149 -0.6561 -0.5197
 1713TIP3   OH2 5079   1.534   6.719   5.929  0.1669 -0.3895 -0.4166
 1713TIP3    H1 5080   1.452   6.725   5.977  1.3349  0.2876  1.5918
 1713TIP3    H2 5081   1.555   6.810   5.907  1.3503 -0.3336  0.8474
 1714TIP3   OH2 5082   1.353   5.174   0.798 -0.2267  0.3642 -0.7066
 1714TIP3    H1 5083   1.349   5.190   0.704  0.1250 -2.1244 -1.2205
 1714TIP3    H2 5084   1.439   5.208   0.824  1.1038 -1.7501 -1.9949
 1715TIP3   OH2 5085   5.912   3.327   2.447  0.3786  0.2558  0.0482
 1715TIP3    H1 5086   5.839   3.318   2.507 -0.2254  1.0512 -0.5463
 1715TIP3    H2 5087   5.902   3.255   2.384  0.4470  0.0164  0.3110
 1716TIP3   OH2 5088   7.353   3.709   1.089 -0.2127  0.2767  0.3886
 1716TIP3    H1 5089   7.396   3.657   1.021 -1.1537  0.0592 -0.0479
 1716TIP3    H2 5090   7.346   3.797   1.051  2.4183  1.0926  1.5557
 1717TIP3   OH2 5091   7.587   6.423   4.029 -0.3452 -0.2121 -0.3381
 1717TIP3    H1 5092   7.634   6.365   3.969  1.2545  0.1743  0.4727
 1717TIP3    H2 5093   7.567   6.500   3.977 -0.6541 -0.6414 -0.8682
 1718TIP3   OH2 5094   2.992   4.497   0.983  0.2096  0.6239  0.3163
 1718TIP3    H1 5095   3.072   4.464   1.024  0.9164  2.7169  0.7225
 1718TIP3    H2 5096   2.972   4.432   0.916  2.6413  0.3808 -0.2737
 1719TIP3   OH2 5097   3.660   6.282   1.633  0.0136  0.0646 -0.0496
 1719TIP3    H1 5098   3.565   6.290   1.622  0.1028  1.3359 -0.0914
 1719TIP3    H2 5099   3.693   6.263   1.546 -0.2921 -1.7618  0.1860
 1720TIP3   OH2 5100   4.901   5.529   3.231 -0.6887 -0.0305 -0.3604
 1720TIP3    H1 5101   4.849   5.449   3.240  0.2708 -0.6949 -0.5286
 1720TIP3    H2 5102   4.837   5.600   3.236 -1.5343 -0.7957  0.0264
 1721TIP3   OH2 5103   3.507   0.882   3.495  0.2684  0.5045  0.1994
 1721TIP3    H1 5104   3.598   0.896   3.518  0.9283 -1.7026 -0.7813
 1721TIP3    H2 5105   3.468   0.842   3.572  0.6427 -0.3105 -0.0246
 1722TIP3   OH2 5106   5.532   2.038   5.278  1.0043  0.1079 -0.0625
 1722TIP3    H1 5107   5.568   1.951   5.260  0.4826  0.1198 -1.2369
 1722TIP3    H2 5108   5.576   2.096   5.215  1.6730  0.7862  1.0024
 1723TIP3   OH2 5109   7.498   7.311   0.205 -0.6722  0.2604  0.1228
 1723TIP3    H1 5110   7.418   7.310   0.259 -0.1857 -0.2768  0.8584
 1723TIP3    H2 5111   7.547   7.387   0.236  0.8007 -1.4631  2.2934
 1724TIP3   OH2 5112   7.473   5.031   1.762  0.5981  0.0156 -0.4694
 1724TIP3    H1 5113   7.389   5.072   1.743  0.8815  0.7392 -0.2157
 1724TIP3    H2 5114   7.452   4.940   1.784 -0.0204 -0.0493 -1.2910
 1725TIP3   OH2 5115   5.472   7.490   1.936  0.7912  0.2609  0.2233
 1725TIP3    H1 5116   5.525   7.512   1.860 -1.0657  1.5841 -0.7658
 1725TIP3    H2 5117   5.464   7.572   1.985 -1.8347  0.6274 -0.6676
 1726TIP3   OH2 5118   0.437   4.670   6.213 -0.0367  0.3520  0.0062
 1726TIP3    H1 5119   0.409   4.750   6.169 -0.8024 -0.3778 -0.8615
 1726TIP3    H2 5120   0.466   4.612   6.143  1.4064  0.1879  0.6981
 1727TIP3   OH2 5121   8.191   4.315   5.615  0.3841 -0.3819 -0.2730
 1727TIP3    H1 5122   8.166   4.315   5.707 -0.1711  1.8314 -0.3830
 1727TIP3    H2 5123   8.170   4.403   5.584 -0.9953 -1.5158 -2.9270
 1728TIP3   OH2 5124   7.314   0.903   4.995  0.1540 -0.2335  0.5758
 1728TIP3    H1 5125   7.332   0.932   4.906  0.6088 -0.5045  0.5765
 1728TIP3    H2 5126   7.298   0.809   4.987  0.4258 -0.3029  0.8088
 1729TIP3   OH2 5127   4.955   7.281   6.259 -0.7228 -0.5798  0.6955
 1729TIP3    H1 5128   4.994   7.303   6.174  0.3784  1.6234  1.7046
 1729TIP3    H2 5129   4.863   7.263   6.238 -0.0900 -2.0622 -1.1957
 1730TIP3   OH2 5130   6.146   3.167   2.549  0.1337 -0.0678 -0.3525
 1730TIP3    H1 5131   6.058   3.133   2.566 -0.0309  1.4590  2.5220
 1730TIP3    H2 5132   6.131   3.252   2.508  0.1498  0.6107  0.9681
 1731TIP3   OH2 5133   6.588   1.330   0.527  0.5798 -0.2245 -0.0418
 1731TIP3    H1 5134   6.664   1.274   0.545 -0.1930 -1.4753 -0.5001
 1731TIP3    H2 5135   6.529   1.314   0.602 -0.8856 -2.3119 -1.5154
 1732TIP3   OH2 5136   1.411   7.265   1.200  0.3151  0.1653 -0.1183
 1732TIP3    H1 5137   1.439   7.356   1.207  0.1514  0.2842 -0.9636
 1732TIP3    H2 5138   1.322   7.264   1.234  0.2318  0.3674 -0.3293
 1733TIP3   OH2 5139   4.849   6.650   3.953 -0.4171  0.1098  0.4573
 1733TIP3    H1 5140   4.837   6.667   4.047  0.4182  0.4609  0.5112
 1733TIP3    H2 5141   4.784   6.705   3.910  1.9208  3.2933  0.6415
 1734TIP3   OH2 5142   1.875   2.834   4.398 -0.2588 -0.1346 -0.2881
 1734TIP3    H1 5143   1.964   2.840   4.433 -0.8367  0.8830  1.0837
 1734TIP3    H2 5144   1.869   2.905   4.334 -0.4539  0.5701  0.5035
 1735TIP3   OH2 5145   3.368   6.642   5.578 -0.5718 -0.2594 -0.1009
 1735TIP3    H1 5146   3.420   6.564   5.599 -1.8732 -1.5116 -1.3259
 1735TIP3    H2 5147   3.307   6.650   5.651  0.2341  0.2790  0.5453
 1736TIP3   OH2 5148   1.398   3.642   6.600 -0.2199 -0.0877 -0.0377
 1736TIP3    H1 5149   1.326   3.635   6.537  0.4277  1.3378 -0.9940
 1736TIP3    H2 5150   1.421   3.551   6.620 -2.6028 -0.6004  0.7074
 1737TIP3   OH2 5151   2.516   6.846   3.930  0.1252  0.2503  0.1253
 1737TIP3    H1 5152   2.510   6.870   3.837  0.5060  1.8308  0.4856
 1737TIP3    H2 5153   2.429   6.864   3.966  0.2070  0.3863  0.2528
 1738TIP3   OH2 5154   4.035   0.696   2.090 -0.3817 -0.1685  0.0283
 1738TIP3    H1 5155   4.083   0.711   2.009 -0.1417 -0.6095  0.0809
 1738TIP3    H2 5156   3.946   0.673   2.062 -0.0710 -1.2200 -0.1629
 1739TIP3   OH2 5157   7.651   5.898   1.390  0.1648 -0.7686 -0.3622
 1739TIP3    H1 5158   7.703   5.958   1.443  1.1628 -1.2409 -0.7779
 1739TIP3    H2 5159   7.564   5.938   1.387  0.9316  0.9447 -1.0945
 1740TIP3   OH2 5160   4.154   4.145   6.036 -0.3358 -0.0514 -0.3403
 1740TIP3    H1 5161   4.192   4.087   6.102 -0.2827 -0.4162 -0.6879
 1740TIP3    H2 5162   4.126   4.086   5.965  0.9539  0.4471 -1.3084
 1741TIP3   OH2 5163   0.543   0.617   4.745 -0.1779 -0.3901 -0.1276
 1741TIP3    H1 5164   0.611   0.559   4.709 -0.9480 -0.7466 -1.0474
 1741TIP3    H2 5165   0.471   0.559   4.768 -0.6766  0.1160 -0.3759
 1742TIP3   OH2 5166   3.545   5.257   4.650  0.0395  0.1592 -0.7211
 1742TIP3    H1 5167   3.588   5.243   4.565 -0.3054 -0.3824 -0.8085
 1742TIP3    H2 5168   3.507   5.345   4.643 -0.8483 -0.2691 -1.5033
 1743TIP3   OH2 5169   7.814   4.878   2.553 -0.0226  0.3412  0.2072
 1743TIP3    H1 5170   7.835   4.786   2.569  0.2570 -0.1859 -2.6890
 1743TIP3    H2 5171   7.756   4.877   2.477 -0.2181  2.5511  0.2548
 1744TIP3   OH2 5172   4.689   3.928   0.539  0.7108  0.6518 -0.2226
 1744TIP3    H1 5173   4.679   4.012   0.493  0.2395  0.4857 -0.4249
 1744TIP3    H2 5174   4.604   3.913   0.579  0.4440 -0.2890 -1.1255
 1745TIP3   OH2 5175   7.413   0.355   1.066  0.0296 -0.0399  0.1971
 1745TIP3    H1 5176   7.367   0.328   0.986  0.5100 -1.2497  0.3141
 1745TIP3    H2 5177   7.358   0.425   1.102 -1.5197 -1.1468  0.1166
 1746TIP3   OH2 5178   1.376   0.247   3.168 -0.2989  0.4373 -0.4027
 1746TIP3    H1 5179   1.398   0.321   3.111  0.0219  2.6180  2.3813
 1746TIP3    H2 5180   1.382   0.282   3.257  0.4576 -3.0929  1.1084
 1747TIP3   OH2 5181   6.909   4.839   3.806  0.2677  0.2331  0.3889
 1747TIP3    H1 5182   6.942   4.819   3.894  0.6084  0.7309  0.3790
 1747TIP3    H2 5183   6.814   4.825   3.812  0.3654 -0.3371  0.6635
 1748TIP3   OH2 5184   1.417   7.850   1.923  0.1836  0.3505  0.5417
 1748TIP3    H1 5185   1.495   7.900   1.899  0.5391 -1.0230 -1.4205
 1748TIP3    H2 5186   1.449   7.784   1.985  0.1650  1.0036  1.2688
 1749TIP3   OH2 5187   7.771   7.814   2.809  0.2662 -1.3263  0.1481
 1749TIP3    H1 5188   7.702   7.855   2.862 -0.8762  0.7994 -2.7113
 1749TIP3    H2 5189   7.790   7.731   2.854  0.1982  0.6641  4.3771
 1750TIP3   OH2 5190   1.930   1.618   4.041 -0.5625  0.6119 -0.1731
 1750TIP3    H1 5191   1.877   1.694   4.020 -2.6732 -0.6124  0.4473
 1750TIP3    H2 5192   1.959   1.633   4.132  0.9216  1.6560 -0.7768
 1751TIP3   OH2 5193   5.444   5.126   6.158 -0.1149  0.7903 -0.2098
 1751TIP3    H1 5194   5.358   5.082   6.161  1.7386 -3.6444 -2.1857
 1751TIP3    H2 5195   5.492   5.079   6.090  3.8222  3.2738  0.5427
 1752TIP3   OH2 5196   6.008   0.035   1.963  0.6162  0.2162  0.2335
 1752TIP3    H1 5197   6.099   0.032   1.992  1.4559  0.7199 -2.0969
 1752TIP3    H2 5198   5.979   0.124   1.981  0.5048  0.0008  1.1494
 1753TIP3   OH2 5199   3.017   3.258   4.568  0.0914 -0.6683  0.0020
 1753TIP3    H1 5200   3.042   3.225   4.654 -1.2073 -0.5720  0.4407
 1753TIP3    H2 5201   2.989   3.181   4.519 -0.2362 -0.5858  0.0560
 1754TIP3   OH2 5202   7.651   6.519   3.051  0.1342  0.4455  0.2657
 1754TIP3    H1 5203   7.583   6.453   3.063 -0.3692  0.8978 -0.0566
 1754TIP3    H2 5204   7.626   6.591   3.108  1.1065  0.0550  1.2190
 1755TIP3   OH2 5205   4.720   0.902   5.364 -0.4008 -0.3830  0.3166
 1755TIP3    H1 5206   4.732   0.854   5.446  0.9276  1.5187  1.3224
 1755TIP3    H2 5207   4.704   0.992   5.391  0.4015  0.3694 -1.5137
 1756TIP3   OH2 5208   3.078   3.429   2.212 -0.5005  0.4553  0.7173
 1756TIP3    H1 5209   3.042   3.501   2.160  1.0318  0.3680 -0.5578
 1756TIP3    H2 5210   3.003   3.374   2.233 -1.0870 -0.4166 -2.8898
 1757TIP3   OH2 5211   2.709   6.571   0.372  0.1390 -0.2457 -0.5114
 1757TIP3    H1 5212   2.749   6.487   0.347 -0.0900 -1.1029  1.8131
 1757TIP3    H2 5213   2.709   6.571   0.468 -1.7048  1.5520 -0.4341
 1758TIP3   OH2 5214   7.692   4.938   4.950 -0.5044 -0.0592 -0.6341
 1758TIP3    H1 5215   7.640   4.998   5.003 -1.3189 -1.3314  0.0407
 1758TIP3    H2 5216   7.631   4.906   4.883 -0.2445 -0.6107 -0.6120
 1759TIP3   OH2 5217   4.668   1.230   0.051 -0.1667  0.5564  0.6723
 1759TIP3    H1 5218   4.601   1.162   0.049 -0.2363  0.6398 -0.3945
 1759TIP3    H2 5219   4.621   1.309   0.076 -0.0602  0.2032  2.0487
 1760TIP3   OH2 5220   1.805   6.106   1.817  0.3704 -0.2484  0.0442
 1760TIP3    H1 5221   1.758   6.023   1.821  1.1107 -0.6822  0.0094
 1760TIP3    H2 5222   1.830   6.115   1.725 -1.3144  0.9502 -0.3429
 1761TIP3   OH2 5223   3.236   2.426   4.660  0.2586  0.0774 -0.5937
 1761TIP3    H1 5224   3.291   2.502   4.682  0.0813  0.2305 -0.6733
 1761TIP3    H2 5225   3.151   2.464   4.639 -0.3717 -0.2833  1.1810
 1762TIP3   OH2 5226   2.893   4.060   3.349  0.1830  0.4329  0.0577
 1762TIP3    H1 5227   2.812   4.080   3.303 -1.2471 -0.0013  2.2374
 1762TIP3    H2 5228   2.919   4.143   3.389  0.0619  0.2657  0.4811
 1763TIP3   OH2 5229   7.554   1.567   2.354 -0.0401  0.5271 -0.1168
 1763TIP3    H1 5230   7.537   1.597   2.443 -2.3052  3.8962 -1.4916
 1763TIP3    H2 5231   7.622   1.626   2.322 -0.6404  0.6680 -1.1754
 1764TIP3   OH2 5232   7.961   3.175   4.995 -0.0479 -0.1278  0.3515
 1764TIP3    H1 5233   8.042   3.207   4.955 -1.0851  2.1398 -0.0940
 1764TIP3    H2 5234   7.953   3.085   4.965  3.3174 -1.1820  2.0786
 1765TIP3   OH2 5235   2.040   3.410   5.661  0.2550 -0.1951  0.7375
 1765TIP3    H1 5236   2.050   3.460   5.580  1.2103 -0.1669  0.8603
 1765TIP3    H2 5237   1.950   3.376   5.657  0.0421  0.4161  0.0247
 1766TIP3   OH2 5238   3.909   6.350   3.021 -0.0069  0.3507  0.1202
 1766TIP3    H1 5239   3.829   6.367   3.071  0.4377  0.3826  0.8334
 1766TIP3    H2 5240   3.913   6.421   2.957 -0.5086  0.3872  0.1192
 1767TIP3   OH2 5241   2.464   1.051   6.549 -0.3091 -0.0733 -0.0530
 1767TIP3    H1 5242   2.491   0.973   6.598 -0.0801  0.5114  0.7737
 1767TIP3    H2 5243   2.374   1.067   6.576  0.0039  0.5857  0.6425
 1768TIP3   OH2 5244   6.102   2.966   3.756  0.4647 -0.3604  0.4499
 1768TIP3    H1 5245   6.156   2.997   3.828  0.5693 -0.1764  0.2929
 1768TIP3    H2 5246   6.101   2.871   3.766  0.4586 -0.3326  0.7071
 1769TIP3   OH2 5247   1.257   4.256   2.748 -0.3711  0.0206  0.7871
 1769TIP3    H1 5248   1.241   4.162   2.757 -0.6635 -0.1067 -0.8062
 1769TIP3    H2 5249   1.171   4.296   2.753 -0.3866  0.0729  0.2384
 1770TIP3   OH2 5250   6.493   7.602   1.441 -0.6097 -0.2343  0.0705
 1770TIP3    H1 5251   6.568   7.557   1.404 -1.8567 -1.4811 -1.0663
 1770TIP3    H2 5252   6.441   7.532   1.482 -2.1464  0.2454 -0.9581
 1771TIP3   OH2 5253   2.922   5.926   2.233  0.4255  0.1950 -0.0490
 1771TIP3    H1 5254   2.875   5.998   2.276  1.5367  0.7973  0.1846
 1771TIP3    H2 5255   2.965   5.879   2.304 -0.1179 -0.5954 -0.2216
 1772TIP3   OH2 5256   7.680   1.944   2.281  0.1644  0.2878  0.1270
 1772TIP3    H1 5257   7.616   1.904   2.221  0.5925 -0.0097 -0.1380
 1772TIP3    H2 5258   7.628   2.003   2.335 -0.6670 -1.3756  1.2301
 1773TIP3   OH2 5259   3.076   6.360   0.500 -0.1060 -0.1959 -0.0150
 1773TIP3    H1 5260   2.987   6.353   0.464  0.3511 -1.3740 -0.9727
 1773TIP3    H2 5261   3.081   6.289   0.564  0.2165 -0.2473 -0.0987
 1774TIP3   OH2 5262   1.946   5.953   1.229 -0.0253 -0.2550 -0.2026
 1774TIP3    H1 5263   1.913   6.042   1.215 -2.7973 -0.8857  1.5046
 1774TIP3    H2 5264   1.963   5.948   1.323  1.0051 -1.2861 -0.4185
 1775TIP3   OH2 5265   4.496   5.702   0.484  0.1341 -0.1092  0.0545
 1775TIP3    H1 5266   4.584   5.704   0.446 -0.1823 -2.3513 -0.9556
 1775TIP3    H2 5267   4.446   5.646   0.426 -0.9280 -2.0793  2.6714
 1776TIP3   OH2 5268   0.870   7.813   2.743 -0.0362  0.4276 -0.5838
 1776TIP3    H1 5269   0.886   7.768   2.826 -1.0329  1.0128 -0.0579
 1776TIP3    H2 5270   0.779   7.790   2.720  0.5678 -0.6529 -2.1187
 1777TIP3   OH2 5271   7.737   5.881   2.179 -0.0836  0.2715 -0.4511
 1777TIP3    H1 5272   7.644   5.860   2.177  0.3253 -2.1158  1.2575
 1777TIP3    H2 5273   7.778   5.815   2.122  0.7182  0.1438  0.2485
 1778TIP3   OH2 5274   0.736   6.012   3.986 -0.5033 -0.1975  0.4432
 1778TIP3    H1 5275   0.749   6.085   4.047  2.2499 -0.5522  0.4032
 1778TIP3    H2 5276   0.710   5.939   4.042 -1.8199  0.4008  0.6615
 1779TIP3   OH2 5277   6.514   1.055   2.399  0.0858 -0.3935 -0.1589
 1779TIP3    H1 5278   6.579   0.985   2.392 -0.7424 -1.1986  0.0291
 1779TIP3    H2 5279   6.436   1.020   2.355 -0.4031  0.3267  0.1206
 1780TIP3   OH2 5280   6.890   7.565   5.933  0.1221  0.6014 -0.7039
 1780TIP3    H1 5281   6.845   7.647   5.955  1.9398  1.4075  0.2683
 1780TIP3    H2 5282   6.842   7.498   5.982 -0.9288  1.1722 -0.9143
 1781TIP3   OH2 5283   2.520   6.542   5.799  0.0536  0.3581 -0.6685
 1781TIP3    H1 5284   2.507   6.459   5.845  1.8278  0.4295  0.0371
 1781TIP3    H2 5285   2.514   6.608   5.868 -1.0617  0.8223 -1.1800
 1782TIP3   OH2 5286   2.948   1.280   0.224 -0.0259  0.0949 -0.1772
 1782TIP3    H1 5287   2.873   1.221   0.211 -1.3814  1.6243  0.3020
 1782TIP3    H2 5288   3.010   1.229   0.275 -2.0149 -0.3136  2.0292
 1783TIP3   OH2 5289   6.932   6.777   5.084  0.1954 -0.2025  0.5276
 1783TIP3    H1 5290   7.003   6.716   5.065  0.7393  0.5457  0.1062
 1783TIP3    H2 5291   6.874   6.729   5.143  0.4746 -1.2129 -0.0001
 1784TIP3   OH2 5292   5.674   7.882   4.173 -0.3643  0.1179  0.1726
 1784TIP3    H1 5293   5.662   7.969   4.135  0.3171 -0.4150 -1.3309
 1784TIP3    H2 5294   5.591   7.837   4.156  0.0261 -0.2000 -0.9449
 1785TIP3   OH2 5295   8.036   3.258   4.280  0.2943  0.1607  0.0493
 1785TIP3    H1 5296   8.007   3.181   4.231 -0.2376  0.9309 -0.8747
 1785TIP3    H2 5297   8.045   3.227   4.370 -1.7108 -0.5432  0.0589
 1786TIP3   OH2 5298   5.145   7.326   5.777 -0.6365 -0.3799 -0.5709
 1786TIP3    H1 5299   5.087   7.264   5.732 -1.2712  0.2168 -0.5895
 1786TIP3    H2 5300   5.109   7.412   5.756  0.8190  0.0630 -1.3776
 1787TIP3   OH2 5301   1.140   7.594   5.098  0.2264  0.3323 -0.1660
 1787TIP3    H1 5302   1.163   7.635   5.182  0.7950 -0.4847  0.0804
 1787TIP3    H2 5303   1.156   7.663   5.034  1.8379  0.3199  0.1695
 1788TIP3   OH2 5304   6.547   1.168   4.031 -0.4227  0.1345  0.1663
 1788TIP3    H1 5305   6.551   1.121   4.114  2.8561 -3.9955 -1.9653
 1788TIP3    H2 5306   6.468   1.135   3.988  0.9225 -2.3286 -0.5762
 1789TIP3   OH2 5307   8.095   2.176   2.060  0.5192  0.0661 -0.4494
 1789TIP3    H1 5308   8.051   2.112   2.115  1.8761 -0.3787  0.1582
 1789TIP3    H2 5309   8.185   2.180   2.093  0.9555  0.9513 -1.6276
 1790TIP3   OH2 5310   5.362   7.550   3.431  0.3972 -0.3677 -0.0387
 1790TIP3    H1 5311   5.322   7.628   3.393 -0.7099  0.0118  1.8219
 1790TIP3    H2 5312   5.290   7.504   3.474  1.0328 -2.4175 -1.0220
 1791TIP3   OH2 5313   3.021   4.073   2.412 -0.3256  0.0304  0.1157
 1791TIP3    H1 5314   3.026   3.984   2.379  1.2217  0.0714  0.1763
 1791TIP3    H2 5315   3.006   4.127   2.334 -0.9778 -0.2509  0.0447
 1792TIP3   OH2 5316   6.892   3.678   5.252 -0.2373 -0.4389 -0.1371
 1792TIP3    H1 5317   6.939   3.613   5.304  0.1432 -0.1780 -0.1485
 1792TIP3    H2 5318   6.801   3.670   5.280  0.2357  1.1419  2.1257
 1793TIP3   OH2 5319   6.674   6.086   0.452 -0.0938 -0.0553  0.3772
 1793TIP3    H1 5320   6.677   6.059   0.544  0.4275 -1.0581  0.0853
 1793TIP3    H2 5321   6.592   6.134   0.443 -0.4137 -0.4310  1.2484
 1794TIP3   OH2 5322   7.347   1.744   3.012 -0.3473  0.2320 -0.3649
 1794TIP3    H1 5323   7.362   1.651   2.995  0.2380 -0.0328  1.4340
 1794TIP3    H2 5324   7.281   1.770   2.947 -0.1162 -1.2798 -1.2563
 1795TIP3   OH2 5325   7.112   4.079   3.529 -0.2963  0.1948  0.1877
 1795TIP3    H1 5326   7.174   4.038   3.589  0.5478 -0.0820 -0.8381
 1795TIP3    H2 5327   7.032   4.091   3.581  0.1296 -0.8045  1.1157
 1796TIP3   OH2 5328   5.076   0.384   3.426  0.3008  0.2689 -0.8545
 1796TIP3    H1 5329   5.001   0.437   3.401  0.7800  1.0848 -0.6059
 1796TIP3    H2 5330   5.124   0.370   3.344  0.9232  1.4399 -0.7216
 1797TIP3   OH2 5331   4.840   0.053   5.610 -0.8287 -0.4732 -0.1408
 1797TIP3    H1 5332   4.930   0.027   5.592 -0.2629 -0.3925  2.2869
 1797TIP3    H2 5333   4.845   0.145   5.632 -1.8194  0.0098 -1.7522
 1798TIP3   OH2 5334   5.163   0.193   6.761 -0.2595 -0.2700  0.5275
 1798TIP3    H1 5335   5.252   0.186   6.725 -0.1398  2.3635  0.1745
 1798TIP3    H2 5336   5.176   0.189   6.856  0.0121 -1.5829  0.4628
 1799TIP3   OH2 5337   5.815   6.129   0.349  0.3817  0.4209 -0.5499
 1799TIP3    H1 5338   5.815   6.061   0.416  1.1406  1.3273  0.4093
 1799TIP3    H2 5339   5.776   6.087   0.272  1.9175 -1.4629 -0.3794
 1800TIP3   OH2 5340   4.575   5.726   0.999  0.2245 -0.2867  0.0381
 1800TIP3    H1 5341   4.598   5.813   1.033  0.7461  0.2448 -1.5720
 1800TIP3    H2 5342   4.485   5.736   0.966  0.1074 -0.5046  0.2827
 1801TIP3   OH2 5343   6.565   7.848   0.343  0.6048 -0.2616 -0.5920
 1801TIP3    H1 5344   6.579   7.835   0.250 -0.4381  2.2287 -1.2000
 1801TIP3    H2 5345   6.620   7.923   0.365 -1.0982  0.8572  0.1158
 1802TIP3   OH2 5346   2.316   2.731   4.272  0.0726 -0.1773 -0.4340
 1802TIP3    H1 5347   2.223   2.719   4.252 -0.0918 -1.4991  0.9735
 1802TIP3    H2 5348   2.317   2.759   4.364  1.0583  0.2445 -0.5606
 1803TIP3   OH2 5349   2.535   4.842   3.406 -0.1355  0.1136 -0.3417
 1803TIP3    H1 5350   2.550   4.760   3.453 -2.6575 -0.5864 -0.5936
 1803TIP3    H2 5351   2.559   4.911   3.468  2.4708 -0.7587 -0.2837
 1804TIP3   OH2 5352   7.384   7.783   2.272 -0.0611  0.4237  0.4907
 1804TIP3    H1 5353   7.391   7.715   2.204 -2.5560 -1.3415  1.8222
 1804TIP3    H2 5354   7.473   7.796   2.303  0.6039 -1.7535 -0.3348
 1805TIP3   OH2 5355   7.643   6.545   6.792  0.0020 -0.9757  0.7570
 1805TIP3    H1 5356   7.650   6.629   6.746  0.0226 -1.0632  0.6009
 1805TIP3    H2 5357   7.581   6.494   6.740  1.1440 -1.6189 -0.0048
 1806TIP3   OH2 5358   8.047   4.550   1.119 -0.3433  0.1214 -0.4917
 1806TIP3    H1 5359   8.006   4.548   1.206 -1.3989 -0.7125 -0.9776
 1806TIP3    H2 5360   7.975   4.528   1.059  0.1186  1.7387 -1.6800
 1807TIP3   OH2 5361   1.237   0.174   2.204 -0.5675 -0.6403  0.1710
 1807TIP3    H1 5362   1.322   0.208   2.177 -1.1209  1.3161  0.6974
 1807TIP3    H2 5363   1.176   0.203   2.136 -0.8275 -2.1216 -0.2661
 1808TIP3   OH2 5364   7.798   5.099   2.991  0.1904 -1.2364  0.1281
 1808TIP3    H1 5365   7.865   5.033   3.010  0.3330 -1.0434  0.2936
 1808TIP3    H2 5366   7.730   5.084   3.056  0.4150 -0.9495  0.4305
 1809TIP3   OH2 5367   0.725   0.878   1.226 -0.1231 -0.8275 -0.0366
 1809TIP3    H1 5368   0.637   0.865   1.189 -1.3553  0.5043  2.1460
 1809TIP3    H2 5369   0.739   0.801   1.280  0.1148 -1.1086 -0.4990
 1810TIP3   OH2 5370   5.164   7.493   0.877 -0.2740 -0.3694  0.5764
 1810TIP3    H1 5371   5.179   7.585   0.855  0.2772 -0.6265 -0.1658
 1810TIP3    H2 5372   5.238   7.446   0.838 -1.6963 -1.3890 -1.0729
 1811TIP3   OH2 5373   6.639   1.024   4.771  0.1411 -0.4863  0.3539
 1811TIP3    H1 5374   6.624   0.934   4.741  1.8190 -0.9988  0.9174
 1811TIP3    H2 5375   6.697   1.014   4.847  3.8569  1.2229 -1.9856
 1812TIP3   OH2 5376   2.767   7.569   4.391  0.5516 -0.2524 -0.1880
 1812TIP3    H1 5377   2.690   7.568   4.334 -1.1326 -1.1103  1.9562
 1812TIP3    H2 5378   2.821   7.496   4.359 -0.2952 -0.6543 -0.7640
 1813TIP3   OH2 5379   6.320   5.147   6.791  0.1087  0.6054 -0.1814
 1813TIP3    H1 5380   6.283   5.206   6.726  0.9743 -0.0452 -1.3027
 1813TIP3    H2 5381   6.267   5.068   6.785  0.5109  0.3556 -0.4673
 1814TIP3   OH2 5382   1.511   2.837   4.904 -0.5080  0.9149 -0.1883
 1814TIP3    H1 5383   1.431   2.811   4.950  0.7193  0.3139  1.7212
 1814TIP3    H2 5384   1.541   2.758   4.861  0.2758  0.5028  1.0556
 1815TIP3   OH2 5385   0.522   3.515   1.246 -0.3157 -0.1057  0.0163
 1815TIP3    H1 5386   0.584   3.563   1.192 -0.3211  0.2413  0.3212
 1815TIP3    H2 5387   0.571   3.489   1.324 -0.5964  0.3287  0.3443
 1816TIP3   OH2 5388   2.008   6.556   1.422  0.2263  0.2233  0.1612
 1816TIP3    H1 5389   2.028   6.464   1.440  0.6281 -0.4130 -2.9341
 1816TIP3    H2 5390   2.091   6.602   1.438 -0.0958  0.1814  2.1577
 1817TIP3   OH2 5391   4.980   5.247   4.133  0.9647 -0.0935  0.2608
 1817TIP3    H1 5392   4.924   5.309   4.180 -1.0507 -0.3966 -1.6118
 1817TIP3    H2 5393   5.045   5.302   4.090 -0.9689  0.8555 -1.6056
 1818TIP3   OH2 5394   3.695   0.530   0.264  1.0023 -0.0661  0.4950
 1818TIP3    H1 5395   3.614   0.571   0.235  0.7049  0.9349  2.5882
 1818TIP3    H2 5396   3.691   0.441   0.228 -0.2779  0.4417 -0.7008
 1819TIP3   OH2 5397   2.160   0.159   3.577  0.0222 -0.0062 -0.6133
 1819TIP3    H1 5398   2.185   0.180   3.667  3.6688 -0.9524 -1.2428
 1819TIP3    H2 5399   2.112   0.076   3.584  0.3799 -0.1343  0.4716
 1820TIP3   OH2 5400   5.645   4.851   0.734 -0.0890  0.0857  0.3247
 1820TIP3    H1 5401   5.696   4.772   0.714  0.3991  0.2859  0.7655
 1820TIP3    H2 5402   5.578   4.821   0.796 -0.8113 -0.2723 -0.5998
 1821TIP3   OH2 5403   1.320   7.589   0.140 -0.2333  0.6070 -0.0019
 1821TIP3    H1 5404   1.355   7.639   0.066 -1.1103 -0.0964 -0.9162
 1821TIP3    H2 5405   1.291   7.656   0.202 -0.3159  1.2264 -0.6942
 1822TIP3   OH2 5406   7.557   1.679   1.152 -0.0127 -1.0008 -0.1363
 1822TIP3    H1 5407   7.637   1.633   1.175  0.2221 -0.1476  0.8697
 1822TIP3    H2 5408   7.489   1.638   1.205  0.1187 -0.4868  0.4399
 1823TIP3   OH2 5409   4.855   6.572   4.546 -0.6722 -0.0488 -0.1663
 1823TIP3    H1 5410   4.945   6.539   4.548 -0.6690 -0.2874 -2.3245
 1823TIP3    H2 5411   4.801   6.494   4.530 -1.1667  0.2455  0.0553
 1824TIP3   OH2 5412   4.268   0.470   0.447  0.0322 -0.0503  0.0722
 1824TIP3    H1 5413   4.293   0.378   0.444  0.1923 -0.0732  1.5619
 1824TIP3    H2 5414   4.175   0.469   0.468  0.1991  0.1264  0.8506
 1825TIP3   OH2 5415   4.849   4.433   1.434  0.5147  0.5341 -0.0446
 1825TIP3    H1 5416   4.841   4.413   1.341 -0.8911  1.8864 -0.2552
 1825TIP3    H2 5417   4.829   4.526   1.440  0.4457  0.4370  1.6414
 1826TIP3   OH2 5418   7.854   6.166   0.263 -0.4607  0.1204 -0.5497
 1826TIP3    H1 5419   7.899   6.083   0.251 -0.1990 -0.3213  2.6545
 1826TIP3    H2 5420   7.761   6.143   0.266 -0.3668 -0.1912  0.7618
 1827TIP3   OH2 5421   1.521   7.819   5.783 -0.2431 -0.2666 -0.1001
 1827TIP3    H1 5422   1.515   7.861   5.697 -1.4392  1.9087  0.9524
 1827TIP3    H2 5423   1.450   7.858   5.834 -0.4057 -2.4622  1.5139
 1828TIP3   OH2 5424   6.322   5.674   6.340 -0.3664  0.0668  0.1316
 1828TIP3    H1 5425   6.415   5.694   6.354 -0.5981  1.7612 -0.4409
 1828TIP3    H2 5426   6.301   5.608   6.406  1.4203 -0.9485 -0.2441
 1829TIP3   OH2 5427   1.040   2.066   2.948 -0.1491  0.0613  0.5997
 1829TIP3    H1 5428   1.058   2.055   3.041  0.4450 -0.5372  0.4291
 1829TIP3    H2 5429   1.094   2.141   2.922 -1.5013  1.2306  1.0395
 1830TIP3   OH2 5430   5.393   5.519   3.209 -0.1167 -0.2137 -0.5327
 1830TIP3    H1 5431   5.425   5.607   3.191  1.0405 -0.3294  0.8262
 1830TIP3    H2 5432   5.321   5.531   3.271  1.3878 -0.3191  1.2882
 1831TIP3   OH2 5433   0.062   0.557   5.423  0.1265  0.1276  0.4223
 1831TIP3    H1 5434   0.081   0.534   5.332  0.5682  0.8241  0.3301
 1831TIP3    H2 5435   0.086   0.479   5.473 -1.4474 -0.7878 -0.1786
 1832TIP3   OH2 5436   0.182   3.089   2.169 -0.2318 -1.1951 -0.2422
 1832TIP3    H1 5437   0.231   3.041   2.103 -0.7178 -0.4758 -1.1674
 1832TIP3    H2 5438   0.093   3.093   2.134 -0.0882  0.8646 -0.5165
 1833TIP3   OH2 5439   8.321   7.349   0.640 -0.0612  1.0092  0.4722
 1833TIP3    H1 5440   8.414   7.367   0.652 -0.0681  3.3878 -2.0362
 1833TIP3    H2 5441   8.278   7.394   0.713  0.7036  0.2297  1.4210
 1834TIP3   OH2 5442   7.233   3.381   0.260  0.0606 -0.5571 -0.0641
 1834TIP3    H1 5443   7.190   3.412   0.340  0.2753  0.5178 -0.3469
 1834TIP3    H2 5444   7.187   3.301   0.237 -0.9074 -0.1404  0.3861
 1835TIP3   OH2 5445   6.742   4.278   4.379 -0.2417 -0.6337  0.5349
 1835TIP3    H1 5446   6.740   4.232   4.463 -0.2312  0.9235  1.4262
 1835TIP3    H2 5447   6.699   4.362   4.396  1.3818  0.4894 -0.5170
 1836TIP3   OH2 5448   1.383   3.589   3.879  0.4564 -0.1644  0.2874
 1836TIP3    H1 5449   1.305   3.644   3.876 -0.7042 -1.6432  1.4194
 1836TIP3    H2 5450   1.408   3.576   3.788 -1.0555 -0.2278 -0.1394
 1837TIP3   OH2 5451   1.173   7.770   5.340 -0.2078  0.0272 -0.1871
 1837TIP3    H1 5452   1.257   7.785   5.297  0.1076 -0.1453  0.3569
 1837TIP3    H2 5453   1.192   7.704   5.407 -0.5363  0.7984  0.6767
 1838TIP3   OH2 5454   1.601   1.671   3.341  0.1594  0.0218 -0.2298
 1838TIP3    H1 5455   1.588   1.722   3.421  0.9731  0.4075 -0.3312
 1838TIP3    H2 5456   1.662   1.601   3.367 -0.3222 -0.4285 -0.2874
 1839TIP3   OH2 5457   7.798   4.874   5.623 -0.0130 -0.3383  0.2207
 1839TIP3    H1 5458   7.740   4.798   5.613 -1.9152  0.4818  3.4642
 1839TIP3    H2 5459   7.775   4.931   5.550 -1.6889 -1.0767  0.1217
 1840TIP3   OH2 5460   4.451   2.344   0.094  0.4839 -0.4221  0.2097
 1840TIP3    H1 5461   4.443   2.390   0.011 -0.7755 -0.3760  0.3271
 1840TIP3    H2 5462   4.458   2.252   0.070  0.3672 -0.3889  0.0483
 1841TIP3   OH2 5463   7.689   5.686   0.966  0.4210 -0.6262 -0.3478
 1841TIP3    H1 5464   7.627   5.632   0.917 -2.9490  2.2391  0.2700
 1841TIP3    H2 5465   7.721   5.750   0.903 -0.8862  0.6513  0.2061
 1842TIP3   OH2 5466   1.250   3.378   2.083  0.1058 -0.0774 -0.2996
 1842TIP3    H1 5467   1.332   3.374   2.134 -0.1143  4.1210  0.7540
 1842TIP3    H2 5468   1.183   3.347   2.144  0.5587 -1.0400 -0.2651
 1843TIP3   OH2 5469   6.134   3.152   2.939 -0.3083 -0.6213  0.2110
 1843TIP3    H1 5470   6.138   3.074   2.883  0.5584 -0.5616  0.1767
 1843TIP3    H2 5471   6.139   3.117   3.029  0.8877 -0.5767  0.1801
 1844TIP3   OH2 5472   4.442   3.188   5.412 -0.2609 -0.6965  0.2385
 1844TIP3    H1 5473   4.454   3.209   5.504  1.3628  1.5355 -0.3825
 1844TIP3    H2 5474   4.406   3.268   5.374  0.6336 -0.9957 -1.3292
 1845TIP3   OH2 5475   0.420   7.739   4.952  0.2201  0.1792 -0.0477
 1845TIP3    H1 5476   0.450   7.828   4.972 -0.1109  0.4102 -0.5701
 1845TIP3    H2 5477   0.366   7.714   5.026  1.9067 -0.3571  1.0755
 1846TIP3   OH2 5478   5.097   6.829   6.547 -0.2363  0.1690 -0.3770
 1846TIP3    H1 5479   5.191   6.843   6.551  0.2642 -2.7006  1.6312
 1846TIP3    H2 5480   5.065   6.855   6.634 -1.2112  0.6182 -0.8597
 1847TIP3   OH2 5481   2.961   4.213   5.197  0.8053 -0.1558 -0.9333
 1847TIP3    H1 5482   3.044   4.209   5.150  1.0354  2.4637 -0.8943
 1847TIP3    H2 5483   2.895   4.205   5.128  1.0343 -1.8563 -1.0057
 1848TIP3   OH2 5484   5.382   0.759   3.633 -0.1832 -0.4175  0.1449
 1848TIP3    H1 5485   5.328   0.680   3.624  1.0592 -1.4374  1.2308
 1848TIP3    H2 5486   5.447   0.736   3.700 -0.0763  1.6973  0.8304
 1849TIP3   OH2 5487   0.484   2.918   2.664  0.3313 -0.1078 -0.8527
 1849TIP3    H1 5488   0.519   2.845   2.717  0.3215  0.2719 -0.3090
 1849TIP3    H2 5489   0.402   2.884   2.628  1.1901 -0.9840 -2.0716
 1850TIP3   OH2 5490   7.856   5.243   0.478 -0.3471 -0.4635  0.4450
 1850TIP3    H1 5491   7.796   5.315   0.461 -0.6438 -0.1230  2.7263
 1850TIP3    H2 5492   7.849   5.187   0.400 -1.7879  0.7963 -0.3773
 1851TIP3   OH2 5493   7.395   5.536   1.388 -0.3557  0.0709 -0.3008
 1851TIP3    H1 5494   7.309   5.547   1.349 -0.4999 -0.1790 -0.0573
 1851TIP3    H2 5495   7.457   5.559   1.319 -0.6215  0.4595 -0.4089
 1852TIP3   OH2 5496   6.279   0.773   4.324 -0.4449  0.2199 -0.0565
 1852TIP3    H1 5497   6.257   0.688   4.362 -0.0642  0.1861  0.0984
 1852TIP3    H2 5498   6.364   0.795   4.362  0.0896  0.0457 -1.1003
 1853TIP3   OH2 5499   6.231   7.910   5.397  0.1263 -0.3192  0.6814
 1853TIP3    H1 5500   6.196   7.899   5.486  0.0739  1.0581  0.8553
 1853TIP3    H2 5501   6.326   7.912   5.409  0.0925  1.2559  0.9192
 1854TIP3   OH2 5502   5.218   3.103   0.559 -0.0518  0.0620 -0.4941
 1854TIP3    H1 5503   5.168   3.027   0.589  0.1838  0.3146  0.6012
 1854TIP3    H2 5504   5.261   3.136   0.638  1.0365  0.4597 -1.2312
 1855TIP3   OH2 5505   2.074   5.011   5.359 -0.0898 -0.0387 -0.6162
 1855TIP3    H1 5506   2.073   4.924   5.320  2.2303 -0.6321  0.4692
 1855TIP3    H2 5507   1.998   5.013   5.416 -0.2517 -1.3154 -0.7619
 1856TIP3   OH2 5508   5.835   5.515   3.313  0.2957 -0.6385  0.4983
 1856TIP3    H1 5509   5.760   5.458   3.332 -0.5392 -0.5472 -2.1004
 1856TIP3    H2 5510   5.817   5.548   3.225  0.6454  3.8210  1.8791
 1857TIP3   OH2 5511   8.278   4.421   1.130  0.3354 -0.1024  0.1062
 1857TIP3    H1 5512   8.269   4.365   1.052 -0.3662 -1.7400  1.3098
 1857TIP3    H2 5513   8.192   4.461   1.141  0.5827  0.5391 -0.2373
 1858TIP3   OH2 5514   6.550   2.765   2.104  0.2209  0.0881  0.3377
 1858TIP3    H1 5515   6.627   2.740   2.156  0.7530  1.2353  0.1561
 1858TIP3    H2 5516   6.567   2.857   2.081 -0.0422 -0.3519 -1.7803
 1859TIP3   OH2 5517   4.026   0.037   2.322 -0.4778 -0.5012 -0.1540
 1859TIP3    H1 5518   4.031   0.076   2.235  0.6685 -1.6268 -0.6294
 1859TIP3    H2 5519   3.981   0.102   2.376 -1.3481  0.1411 -1.6191
 1860TIP3   OH2 5520   6.398   2.006   6.608  0.3640  0.3417  0.6986
 1860TIP3    H1 5521   6.452   2.035   6.535 -0.5399  0.4334  0.0516
 1860TIP3    H2 5522   6.326   2.070   6.612  0.6659  0.6367  1.9951
 1861TIP3   OH2 5523   2.725   2.745   0.598 -0.1147 -0.3926 -0.1507
 1861TIP3    H1 5524   2.711   2.756   0.504  0.0007  0.6154 -0.0629
 1861TIP3    H2 5525   2.749   2.832   0.629  0.8100 -0.9092  0.6542
 1862TIP3   OH2 5526   5.608   1.863   0.564  0.5864  0.3355  0.2599
 1862TIP3    H1 5527   5.589   1.867   0.657  0.1942 -0.1073  0.2071
 1862TIP3    H2 5528   5.528   1.893   0.521  0.4201 -0.3725  0.0540
 1863TIP3   OH2 5529   4.125   4.029   5.778 -0.6894 -0.0775  0.1170
 1863TIP3    H1 5530   4.043   3.985   5.800 -0.5790 -1.1031 -1.3195
 1863TIP3    H2 5531   4.191   3.960   5.786 -0.2781  0.2126 -0.6644
 1864TIP3   OH2 5532   7.156   6.555   5.512  0.4374  0.3325  0.1643
 1864TIP3    H1 5533   7.121   6.640   5.539 -1.5913 -0.0193 -1.1241
 1864TIP3    H2 5534   7.245   6.574   5.484 -0.1335  2.1614 -0.5654
 1865TIP3   OH2 5535   3.052   1.434   5.128 -0.0683 -0.0126 -0.0276
 1865TIP3    H1 5536   3.006   1.416   5.046 -1.4648 -3.3359  1.3148
 1865TIP3    H2 5537   3.021   1.521   5.154 -1.8657 -0.1317 -1.5589
 1866TIP3   OH2 5538   1.841   2.365   0.189  0.1537  0.0416  0.7318
 1866TIP3    H1 5539   1.851   2.283   0.239 -0.9163 -0.8733 -0.4880
 1866TIP3    H2 5540   1.783   2.419   0.243  0.8282 -0.0047  1.5249
 1867TIP3   OH2 5541   4.267   7.423   3.952  0.2286 -0.6153  0.2075
 1867TIP3    H1 5542   4.326   7.433   4.027  0.2164  0.9631  0.0280
 1867TIP3    H2 5543   4.322   7.437   3.876 -0.2514  0.4096  0.0235
 1868TIP3   OH2 5544   6.331   4.044   6.776  0.3367  0.3323  0.0091
 1868TIP3    H1 5545   6.252   4.083   6.811  0.1636  0.3481 -0.3941
 1868TIP3    H2 5546   6.327   4.060   6.682 -1.7562 -3.9999 -0.9095
 1869TIP3   OH2 5547   2.922   1.535   3.117 -0.1371 -0.1418 -0.4037
 1869TIP3    H1 5548   2.967   1.459   3.081 -1.8588 -0.8264 -1.2394
 1869TIP3    H2 5549   2.866   1.499   3.186  0.3921  0.6521  0.4683
 1870TIP3   OH2 5550   6.788   3.509   3.317 -0.3908  0.3691 -0.7488
 1870TIP3    H1 5551   6.787   3.414   3.306  0.5791  0.2914 -0.3117
 1870TIP3    H2 5552   6.799   3.544   3.228  1.2798 -0.0170 -0.7265
 1871TIP3   OH2 5553   0.021   0.841   5.563  0.5620  0.1017 -0.5379
 1871TIP3    H1 5554  -0.017   0.854   5.476 -0.8460 -1.2812 -0.1820
 1871TIP3    H2 5555   0.075   0.762   5.553  2.1887  1.1960 -0.6647
 1872TIP3   OH2 5556   1.338   7.845   3.516 -0.3052  0.0238  0.3790
 1872TIP3    H1 5557   1.357   7.751   3.521 -2.5249 -0.4864  0.3629
 1872TIP3    H2 5558   1.331   7.863   3.422 -0.6162  0.0302  0.4022
 1873TIP3   OH2 5559   5.846   1.796   4.688  0.4930  0.3320 -0.4436
 1873TIP3    H1 5560   5.825   1.828   4.776  0.4681 -0.7194 -0.0558
 1873TIP3    H2 5561   5.822   1.704   4.690  0.8928  0.1971 -1.4316
 1874TIP3   OH2 5562   5.116   2.038   1.270  0.1441  0.5875  0.6119
 1874TIP3    H1 5563   5.178   2.100   1.232  1.1126  0.1198  1.4085
 1874TIP3    H2 5564   5.115   2.058   1.363  0.0381 -0.2280  0.7940
 1875TIP3   OH2 5565   6.427   0.356   3.284 -0.1085  0.0866  0.3266
 1875TIP3    H1 5566   6.382   0.363   3.201 -0.2949 -2.4226  0.1478
 1875TIP3    H2 5567   6.493   0.426   3.282  1.4658 -1.3002 -2.9612
 1876TIP3   OH2 5568   7.030   2.354   4.693 -0.4300 -0.4770  0.4460
 1876TIP3    H1 5569   7.063   2.286   4.634  0.3055 -0.3026  0.6438
 1876TIP3    H2 5570   6.937   2.333   4.705 -0.2589 -1.3143  0.3370
 1877TIP3   OH2 5571   1.791   2.590   4.539 -0.3323  0.3754 -0.6420
 1877TIP3    H1 5572   1.821   2.680   4.526  0.2018 -0.1581 -4.4044
 1877TIP3    H2 5573   1.871   2.537   4.530 -1.0612 -0.5940 -1.7143
 1878TIP3   OH2 5574   1.254   1.079   1.791  0.5031  0.4768 -0.0194
 1878TIP3    H1 5575   1.309   1.027   1.850 -0.9173 -0.4054  0.5818
 1878TIP3    H2 5576   1.193   1.016   1.753 -1.6351  1.7198  1.1357
 1879TIP3   OH2 5577   1.005   3.027   0.120 -0.3626 -0.4233  0.4528
 1879TIP3    H1 5578   0.937   2.959   0.127 -0.5677 -0.4200 -1.2423
 1879TIP3    H2 5579   1.074   2.987   0.067 -1.1246  1.1422 -1.8560
 1880TIP3   OH2 5580   7.666   1.790   3.834 -0.5107 -0.3034  0.4207
 1880TIP3    H1 5581   7.685   1.815   3.925  0.1338  2.1700 -0.3180
 1880TIP3    H2 5582   7.751   1.788   3.791 -0.7488 -2.0251 -0.0623
 1881TIP3   OH2 5583   2.097   6.455   4.238  0.0976  0.3527  0.0284
 1881TIP3    H1 5584   2.151   6.464   4.316 -0.9451  0.0883  0.8070
 1881TIP3    H2 5585   2.067   6.364   4.239  0.0673  0.3442 -0.6905
 1882TIP3   OH2 5586   2.051   3.561   4.107  0.1996 -0.6023 -0.0056
 1882TIP3    H1 5587   2.110   3.524   4.172 -0.6167 -0.9768  0.5398
 1882TIP3    H2 5588   1.977   3.500   4.105 -0.7546  0.5181  0.2627
 1883TIP3   OH2 5589   5.514   3.010   1.162  0.1010 -0.1098  0.7341
 1883TIP3    H1 5590   5.542   2.962   1.240  0.3385  0.9799  1.3418
 1883TIP3    H2 5591   5.579   2.987   1.096  1.7228  1.2833  1.7257
 1884TIP3   OH2 5592   2.100   4.830   2.590 -0.7279 -0.1361  0.6403
 1884TIP3    H1 5593   2.047   4.831   2.671  1.6997 -3.2038  2.4557
 1884TIP3    H2 5594   2.077   4.748   2.547 -0.2365  0.3622 -0.6234
 1885TIP3   OH2 5595   1.076   6.456   5.807  0.0551  0.5486 -0.4032
 1885TIP3    H1 5596   1.135   6.386   5.779 -0.4021 -0.0478  0.0976
 1885TIP3    H2 5597   1.002   6.451   5.746 -0.7249 -0.4534  0.5876
 1886TIP3   OH2 5598   5.271   2.150   3.744  0.2663  0.6054  0.5275
 1886TIP3    H1 5599   5.195   2.199   3.775 -0.8919 -0.1169 -1.0558
 1886TIP3    H2 5600   5.279   2.077   3.806 -0.9738  0.1274  0.1676
 1887TIP3   OH2 5601   5.808   6.527   4.818 -0.3659 -0.4694  0.1294
 1887TIP3    H1 5602   5.764   6.466   4.758  0.9425 -1.1402 -0.1824
 1887TIP3    H2 5603   5.739   6.555   4.878 -1.9432  0.9081 -2.1754
 1888TIP3   OH2 5604   1.615   0.898   1.364  0.1879  0.3954 -0.1040
 1888TIP3    H1 5605   1.566   0.967   1.408 -0.1762  0.7445 -1.0352
 1888TIP3    H2 5606   1.690   0.944   1.325  0.9309 -0.0312  0.7633
 1889TIP3   OH2 5607   6.060   5.365   3.026  0.2722  0.0323 -0.7566
 1889TIP3    H1 5608   6.073   5.384   3.119  1.1271  1.0734 -1.0700
 1889TIP3    H2 5609   6.015   5.443   2.993  2.2376  0.8282 -1.7103
 1890TIP3   OH2 5610   1.926   3.326   5.303  0.1924  0.0985 -0.2372
 1890TIP3    H1 5611   1.950   3.364   5.218  1.2736 -3.8234 -1.9104
 1890TIP3    H2 5612   1.846   3.277   5.285 -0.4935  0.5390  1.4773
 1891TIP3   OH2 5613   5.675   7.452   2.794 -0.2073 -0.1433  0.6891
 1891TIP3    H1 5614   5.720   7.499   2.865 -0.1032  0.7817  0.0408
 1891TIP3    H2 5615   5.705   7.362   2.801  1.7820  0.4382  0.2837
 1892TIP3   OH2 5616   0.937   5.126   6.532  0.2341  0.7682 -0.6828
 1892TIP3    H1 5617   0.868   5.158   6.474 -0.5927  0.6303  0.2100
 1892TIP3    H2 5618   1.000   5.198   6.537  0.4427  0.6894 -1.9329
 1893TIP3   OH2 5619   2.195   7.502   5.139 -0.1792 -0.5702  0.6013
 1893TIP3    H1 5620   2.146   7.427   5.174  0.4484 -1.0022  0.5521
 1893TIP3    H2 5621   2.257   7.524   5.209  1.6142 -1.9159 -0.4973
 1894TIP3   OH2 5622   2.079   7.320   5.910  0.2360 -0.0234  0.3195
 1894TIP3    H1 5623   2.173   7.336   5.898  0.0885  0.8651  0.2540
 1894TIP3    H2 5624   2.050   7.392   5.965 -0.5871  0.2626 -0.4640
 1895TIP3   OH2 5625   0.273   3.033   4.686  0.1156 -0.5644 -0.4726
 1895TIP3    H1 5626   0.225   2.979   4.622 -2.3643 -0.6532  1.2969
 1895TIP3    H2 5627   0.291   2.973   4.758 -0.5154  0.3923  0.4959
 1896TIP3   OH2 5628   3.383   2.656   3.661 -0.4413  0.2153  0.5510
 1896TIP3    H1 5629   3.461   2.657   3.717 -0.6332  0.2969  0.8175
 1896TIP3    H2 5630   3.348   2.745   3.668 -1.2265 -0.1410  1.3749
 1897TIP3   OH2 5631   2.654   1.218   4.112  0.3171 -0.3927 -0.2597
 1897TIP3    H1 5632   2.635   1.312   4.107 -1.5870 -0.6458  0.9986
 1897TIP3    H2 5633   2.637   1.186   4.024  2.7438  0.6503 -1.2154
 1898TIP3   OH2 5634   4.245   2.443   3.353  0.4361  0.3180 -0.4160
 1898TIP3    H1 5635   4.176   2.384   3.322 -0.1902  0.8652 -0.0999
 1898TIP3    H2 5636   4.269   2.495   3.277 -0.7286  1.3032 -0.1447
 1899TIP3   OH2 5637   2.147   3.209   4.069  0.0708  0.0944  0.5562
 1899TIP3    H1 5638   2.079   3.186   4.006  0.0356 -0.1454  0.6809
 1899TIP3    H2 5639   2.229   3.201   4.021  0.0045  0.5201  0.3641
 1900TIP3   OH2 5640   8.103   3.294   6.017 -0.5670 -0.3553 -0.3480
 1900TIP3    H1 5641   8.196   3.293   6.040 -0.8795  1.8183  1.3505
 1900TIP3    H2 5642   8.087   3.383   5.986 -2.5657  0.1543  1.8698
 1901TIP3   OH2 5643   7.853   0.058   0.094  0.2062  0.2358  0.5983
 1901TIP3    H1 5644   7.790  -0.009   0.120  0.1683 -0.6917 -1.6742
 1901TIP3    H2 5645   7.807   0.111   0.029  1.3837  0.1968 -0.3068
 1902TIP3   OH2 5646   2.203   2.998   2.991  0.2450 -0.2525  0.3382
 1902TIP3    H1 5647   2.170   3.073   2.942  0.6712  0.0733  0.5370
 1902TIP3    H2 5648   2.174   3.013   3.081 -1.1016 -1.1832  0.0870
 1903TIP3   OH2 5649   7.400   4.141   2.579 -0.4386  0.4075 -0.2220
 1903TIP3    H1 5650   7.394   4.236   2.583  0.1509  0.4111  1.0991
 1903TIP3    H2 5651   7.348   4.117   2.502 -0.1354  1.8235 -0.9059
 1904TIP3   OH2 5652   0.901   5.812   4.554  0.8056  0.3051  0.2126
 1904TIP3    H1 5653   0.947   5.877   4.606 -0.5529  0.0354  1.8450
 1904TIP3    H2 5654   0.844   5.864   4.496  1.1193  0.5863  0.1531
 1905TIP3   OH2 5655   6.123   7.182   3.294 -0.6593  0.2392 -0.3212
 1905TIP3    H1 5656   6.122   7.135   3.211 -1.9140  0.5057 -0.4771
 1905TIP3    H2 5657   6.156   7.118   3.357  0.4514  0.0868 -1.0373
 1906TIP3   OH2 5658   3.373   1.871   6.025 -0.8176  0.4606  0.0087
 1906TIP3    H1 5659   3.293   1.821   6.010 -1.0992  1.1217 -0.7387
 1906TIP3    H2 5660   3.409   1.834   6.106 -0.6909 -1.3553 -0.8081
 1907TIP3   OH2 5661   6.364   5.235   1.182  0.2436  0.3282 -0.6413
 1907TIP3    H1 5662   6.422   5.300   1.220  0.6641  0.7190 -1.8825
 1907TIP3    H2 5663   6.313   5.283   1.116 -0.8363 -0.2010 -0.2227
 1908TIP3   OH2 5664   4.368   6.984   1.238  0.0691 -0.1211 -0.1627
 1908TIP3    H1 5665   4.379   6.892   1.259 -0.4314 -0.0611  0.4056
 1908TIP3    H2 5666   4.285   7.008   1.280  0.6742  0.8235  0.5264
 1909TIP3   OH2 5667   2.026   0.962   5.867  0.2140  0.0739  0.0871
 1909TIP3    H1 5668   1.986   0.881   5.899  0.5641  0.3405  1.2705
 1909TIP3    H2 5669   2.046   1.012   5.947  0.7016  0.9919 -0.5856
 1910TIP3   OH2 5670   4.397   3.762   2.654 -0.2867 -1.0761 -0.0107
 1910TIP3    H1 5671   4.383   3.723   2.741 -0.4052 -0.3466  0.3025
 1910TIP3    H2 5672   4.476   3.719   2.622 -0.8331 -2.1245  0.0049
 1911TIP3   OH2 5673   3.281   1.621   3.649 -0.3290 -0.5235 -0.0573
 1911TIP3    H1 5674   3.355   1.647   3.705 -0.0092 -0.1801 -0.6320
 1911TIP3    H2 5675   3.285   1.526   3.648  1.4634 -0.5059 -1.8264
 1912TIP3   OH2 5676   0.988   2.888   0.470  0.4439  0.6237 -0.8363
 1912TIP3    H1 5677   0.997   2.980   0.496  1.7803  0.4342 -0.5575
 1912TIP3    H2 5678   1.075   2.864   0.440  0.4227 -0.9223  0.2728
 1913TIP3   OH2 5679   7.020   7.421   1.984 -0.1603  0.2012 -0.6212
 1913TIP3    H1 5680   7.012   7.326   1.974  1.1350 -0.0241  0.2397
 1913TIP3    H2 5681   6.984   7.440   2.070  0.2669  0.3789 -0.4757
 1914TIP3   OH2 5682   5.483   2.015   1.779  0.4530  0.5072  0.1913
 1914TIP3    H1 5683   5.447   1.999   1.692 -0.2639 -1.6797  0.8190
 1914TIP3    H2 5684   5.408   2.004   1.838  1.3666 -0.3643  1.2449
 1915TIP3   OH2 5685   3.455   0.335   5.821  0.4536  0.0581  0.2437
 1915TIP3    H1 5686   3.496   0.250   5.809  1.3247  0.6413 -1.2449
 1915TIP3    H2 5687   3.466   0.379   5.736 -2.7565  0.4891 -0.0700
 1916TIP3   OH2 5688   3.619   6.565   3.679  0.1979  0.4243  0.5320
 1916TIP3    H1 5689   3.534   6.533   3.651  0.3299  1.3849 -1.0622
 1916TIP3    H2 5690   3.682   6.505   3.638  0.3484  0.7960  0.2217
 1917TIP3   OH2 5691   4.620   3.813   1.153  0.1094  0.3239  0.1293
 1917TIP3    H1 5692   4.633   3.867   1.231  1.1901 -2.5705  2.1099
 1917TIP3    H2 5693   4.689   3.748   1.157 -0.4070 -0.5270 -2.7822
 1918TIP3   OH2 5694   1.505   1.766   0.079 -0.2372  0.1621 -0.4779
 1918TIP3    H1 5695   1.423   1.729   0.113  0.0483  0.9874  1.1870
 1918TIP3    H2 5696   1.566   1.692   0.079  0.2310  0.4115  2.5183
 1919TIP3   OH2 5697   4.588   5.159   1.825 -0.4877 -0.2044  0.0899
 1919TIP3    H1 5698   4.668   5.176   1.774 -0.8195 -1.7044 -1.0087
 1919TIP3    H2 5699   4.585   5.230   1.889  1.6431 -0.0112  0.0643
 1920TIP3   OH2 5700   5.256   2.330   2.306 -0.4546  0.6371 -0.3621
 1920TIP3    H1 5701   5.269   2.413   2.352  1.4994  0.0096  0.3200
 1920TIP3    H2 5702   5.260   2.264   2.375 -0.7644 -0.1097 -1.0517
 1921TIP3   OH2 5703   6.878   1.318   0.297  0.4654  0.1980 -0.3621
 1921TIP3    H1 5704   6.936   1.369   0.241  0.4245  0.0116 -0.5738
 1921TIP3    H2 5705   6.883   1.361   0.382  0.6435  0.3907 -0.4700
 1922TIP3   OH2 5706   3.664   2.123   5.754 -0.6048 -0.1994 -0.0284
 1922TIP3    H1 5707   3.694   2.038   5.784 -0.1786 -1.2370 -3.1113
 1922TIP3    H2 5708   3.572   2.126   5.781 -1.1106 -2.4075 -1.2594
 1923TIP3   OH2 5709   7.207   1.258   0.099  0.1369 -0.0782  0.4266
 1923TIP3    H1 5710   7.164   1.344   0.102  0.3996  0.0725 -0.1172
 1923TIP3    H2 5711   7.295   1.276   0.065  0.4719 -0.4503  1.0774
 1924TIP3   OH2 5712   7.338   6.130   3.476  0.4732 -0.6204  0.7218
 1924TIP3    H1 5713   7.299   6.181   3.546  1.7975 -1.4656  2.1692
 1924TIP3    H2 5714   7.286   6.050   3.472  0.2401 -0.4613  0.5535
 1925TIP3   OH2 5715   3.497   7.784   5.616 -0.0334  0.3532 -0.3369
 1925TIP3    H1 5716   3.503   7.790   5.521 -0.6800 -1.4065 -0.5277
 1925TIP3    H2 5717   3.587   7.795   5.647  0.5156 -1.1200 -1.3135
 1926TIP3   OH2 5718   6.883   1.643   3.809 -0.4527 -0.0436  0.0848
 1926TIP3    H1 5719   6.833   1.659   3.728  0.1067 -2.4606 -0.8408
 1926TIP3    H2 5720   6.962   1.696   3.799 -0.8842  0.5197 -0.4494
 1927TIP3   OH2 5721   7.278   3.671   6.216 -0.7054 -0.4685 -0.1473
 1927TIP3    H1 5722   7.337   3.682   6.290  2.0725  1.9201 -2.4489
 1927TIP3    H2 5723   7.311   3.593   6.171 -0.5084 -0.2476 -0.3917
 1928TIP3   OH2 5724   6.222   4.615   6.541  0.3121 -0.0441  0.4649
 1928TIP3    H1 5725   6.290   4.560   6.580 -0.0601 -1.0928 -0.3315
 1928TIP3    H2 5726   6.271   4.680   6.490  0.7994  1.2458  2.4636
 1929TIP3   OH2 5727  -0.019   3.336  -0.001  0.4723 -0.1006 -0.2570
 1929TIP3    H1 5728  -0.002   3.251  -0.040 -0.8108  0.0013 -1.1273
 1929TIP3    H2 5729   0.027   3.335   0.082  0.7693 -1.5040 -0.4217
 1930TIP3   OH2 5730   0.443   7.499   2.529 -0.0695 -0.8441 -0.6819
 1930TIP3    H1 5731   0.369   7.544   2.569  1.5178  1.1779  0.1249
 1930TIP3    H2 5732   0.420   7.491   2.437 -1.5949 -0.9855 -0.3132
 1931TIP3   OH2 5733   2.200   4.643   6.229 -0.9359  0.2257  0.7326
 1931TIP3    H1 5734   2.155   4.674   6.308  0.6874 -0.8635  2.1483
 1931TIP3    H2 5735   2.194   4.547   6.234  0.9067  0.0659  0.6325
 1932TIP3   OH2 5736   0.810   7.316   6.460  0.0870 -0.3930 -0.4561
 1932TIP3    H1 5737   0.720   7.348   6.465  0.1114 -0.3393 -0.3629
 1932TIP3    H2 5738   0.858   7.387   6.418  0.1886 -0.2047 -0.0304
 1933TIP3   OH2 5739   6.884   0.389   3.994  0.3210  0.3416  0.1545
 1933TIP3    H1 5740   6.812   0.406   3.934  0.6021  3.3998  0.5468
 1933TIP3    H2 5741   6.914   0.301   3.970  0.5732  1.3995 -4.3088
 1934TIP3   OH2 5742   0.761   6.418   3.068  0.3504 -0.1825  0.3491
 1934TIP3    H1 5743   0.727   6.501   3.034  1.8087  0.1889 -0.2940
 1934TIP3    H2 5744   0.683   6.370   3.098 -0.4244  1.9873  2.1013
 1935TIP3   OH2 5745   6.897   2.803   0.334 -0.2633 -0.2800  0.0653
 1935TIP3    H1 5746   6.911   2.869   0.402  1.7621 -2.3222  1.7529
 1935TIP3    H2 5747   6.926   2.847   0.253 -0.0483  1.2672  0.9352
 1936TIP3   OH2 5748   6.658   7.861   0.057 -0.0475  0.0603 -0.0708
 1936TIP3    H1 5749   6.636   7.949   0.028 -0.2076 -0.1255 -0.5257
 1936TIP3    H2 5750   6.596   7.804   0.010  0.1219 -0.2994  0.1369
 1937TIP3   OH2 5751   5.733   1.956   4.896 -0.9790 -0.1422 -1.0498
 1937TIP3    H1 5752   5.697   2.036   4.934  0.8769  0.9723 -1.5289
 1937TIP3    H2 5753   5.805   1.933   4.954  0.6709  0.4985 -2.7618
 1938TIP3   OH2 5754   6.888   6.492   4.809  0.2352  0.3035  0.3294
 1938TIP3    H1 5755   6.794   6.477   4.821 -0.5119  0.8060 -3.4229
 1938TIP3    H2 5756   6.893   6.582   4.777  1.7304 -0.3108 -1.3141
 1939TIP3   OH2 5757   3.159   4.997   5.329 -0.0775  0.0939  0.0104
 1939TIP3    H1 5758   3.073   4.965   5.302 -1.1898  1.8696  1.2545
 1939TIP3    H2 5759   3.173   4.957   5.415  0.7346 -0.7988 -0.5128
 1940TIP3   OH2 5760   2.534   3.425   4.718 -1.1222 -0.4465  0.4840
 1940TIP3    H1 5761   2.505   3.436   4.808 -0.3505 -1.1052  0.8301
 1940TIP3    H2 5762   2.616   3.375   4.725  0.2316  1.4890 -0.4324
 1941TIP3   OH2 5763   7.573   4.009   0.509  0.3939 -0.4452 -0.6779
 1941TIP3    H1 5764   7.656   4.007   0.558  1.0673 -0.3162 -1.7641
 1941TIP3    H2 5765   7.584   3.941   0.442  0.1099  0.4004 -1.5911
 1942TIP3   OH2 5766   0.742   0.248   5.209  0.5814  0.4634  0.0961
 1942TIP3    H1 5767   0.669   0.297   5.248  1.7104  0.7815  1.9365
 1942TIP3    H2 5768   0.710   0.158   5.205 -0.0855  0.6769  0.4488
 1943TIP3   OH2 5769   7.442   1.686   2.574 -0.4317  0.5721  0.9326
 1943TIP3    H1 5770   7.429   1.767   2.525  1.0575  0.1330 -0.2685
 1943TIP3    H2 5771   7.363   1.634   2.558 -0.7067  1.1423  0.4328
 1944TIP3   OH2 5772   1.124   5.114   5.286  0.2977  0.5871 -0.1212
 1944TIP3    H1 5773   1.120   5.206   5.312 -0.3749  0.3095  0.8168
 1944TIP3    H2 5774   1.185   5.074   5.348  0.5731  0.3889 -0.5127
 1945TIP3   OH2 5775   2.082   4.310   1.468  0.7634  0.2120 -0.2425
 1945TIP3    H1 5776   2.059   4.301   1.561  0.0898 -3.3805 -0.5933
 1945TIP3    H2 5777   2.022   4.376   1.434 -0.8199 -0.3087  1.3726
 1946TIP3   OH2 5778   3.245   1.084   4.727 -0.4239 -0.4244  0.2382
 1946TIP3    H1 5779   3.312   1.152   4.727 -1.3682  0.5299 -0.7467
 1946TIP3    H2 5780   3.294   1.002   4.737  0.7966  0.3157  0.5068
 1947TIP3   OH2 5781   3.363   6.663   1.307 -0.3998 -0.5842  0.2301
 1947TIP3    H1 5782   3.329   6.658   1.396 -2.4181 -1.8956 -0.5394
 1947TIP3    H2 5783   3.366   6.757   1.288  0.3003 -0.2778  1.7229
 1948TIP3   OH2 5784   3.188   6.773   0.953  0.3471 -0.1720  0.0871
 1948TIP3    H1 5785   3.112   6.803   0.904  1.0227  0.5234 -0.5475
 1948TIP3    H2 5786   3.155   6.761   1.043 -0.0502  2.1699  0.3162
 1949TIP3   OH2 5787   1.426   5.107   0.489  0.3601 -0.3211 -0.5393
 1949TIP3    H1 5788   1.501   5.073   0.537  0.8415  0.7497 -0.5039
 1949TIP3    H2 5789   1.463   5.174   0.431 -0.6286  0.5647 -0.1689
 1950TIP3   OH2 5790   6.913   3.462   5.420  0.1418  0.0221 -0.5316
 1950TIP3    H1 5791   6.974   3.408   5.369 -1.3379 -0.9225 -1.3734
 1950TIP3    H2 5792   6.897   3.411   5.499 -1.5172 -1.0024 -1.4779
 1951TIP3   OH2 5793   2.173   0.178   1.035  0.3665 -0.5430 -0.6984
 1951TIP3    H1 5794   2.103   0.243   1.038 -0.0497 -1.0030 -0.3774
 1951TIP3    H2 5795   2.227   0.204   0.961  1.1975  1.2040  0.4404
 1952TIP3   OH2 5796   8.092   0.429   2.378 -0.2916  0.3084  0.2785
 1952TIP3    H1 5797   8.011   0.478   2.393  1.7327  3.5173  2.0051
 1952TIP3    H2 5798   8.124   0.409   2.466  1.2384 -0.0591 -0.3384
 1953TIP3   OH2 5799   3.263   3.508   0.548 -0.1034  0.1385  0.2569
 1953TIP3    H1 5800   3.182   3.555   0.530  0.0194  0.8863  1.5333
 1953TIP3    H2 5801   3.313   3.513   0.467 -0.8736  0.6120 -0.1960
 1954TIP3   OH2 5802   0.450   1.053   3.705 -0.6727 -0.3412 -0.4785
 1954TIP3    H1 5803   0.401   1.020   3.631  0.6415  1.2380 -2.1449
 1954TIP3    H2 5804   0.408   1.136   3.727  1.1989  1.1309 -2.0495
 1955TIP3   OH2 5805   4.066   4.311   2.326  0.0045  0.4617  0.2461
 1955TIP3    H1 5806   3.994   4.291   2.267 -0.5022  2.0368  0.2799
 1955TIP3    H2 5807   4.084   4.228   2.371 -1.8823  0.0600  0.3538
 1956TIP3   OH2 5808   5.852   4.849   4.008 -0.6194  0.3023  0.6364
 1956TIP3    H1 5809   5.845   4.900   4.088 -1.4159  0.3171  0.5654
 1956TIP3    H2 5810   5.796   4.772   4.023 -2.5822  1.3741 -0.6972
 1957TIP3   OH2 5811   1.632   7.731   3.888  0.0792 -0.2222  0.2806
 1957TIP3    H1 5812   1.614   7.734   3.794 -0.3421 -0.9506  0.3259
 1957TIP3    H2 5813   1.718   7.689   3.895 -0.3232 -1.0811  0.2482
 1958TIP3   OH2 5814   7.228   4.410   2.573  0.4126  0.3336 -0.2473
 1958TIP3    H1 5815   7.163   4.480   2.574  1.9196  2.1464 -4.1600
 1958TIP3    H2 5816   7.266   4.411   2.660 -0.9101  3.1909  0.4099
 1959TIP3   OH2 5817   3.727   7.668   0.750  0.2137 -0.2274  0.3695
 1959TIP3    H1 5818   3.708   7.574   0.751 -0.0954 -0.1662  0.5843
 1959TIP3    H2 5819   3.654   7.707   0.702  0.8902 -0.2013 -0.6646
 1960TIP3   OH2 5820   5.118   4.626   5.124  0.0787 -0.4701  0.0625
 1960TIP3    H1 5821   5.086   4.563   5.059  0.4314 -1.6279  0.9926
 1960TIP3    H2 5822   5.048   4.632   5.189 -0.2630  0.6683 -0.3747
 1961TIP3   OH2 5823   4.640   3.694   3.538 -0.2821  0.2396 -0.3470
 1961TIP3    H1 5824   4.645   3.789   3.546 -2.0352  0.3993 -0.7212
 1961TIP3    H2 5825   4.553   3.672   3.570 -0.0136 -1.2135 -0.5507
 1962TIP3   OH2 5826   3.953   5.369   5.170  0.8902 -0.2984  0.0364
 1962TIP3    H1 5827   3.864   5.351   5.201  0.8839 -1.1202 -0.4340
 1962TIP3    H2 5828   3.944   5.379   5.075  1.4280 -1.3494 -0.1455
 1963TIP3   OH2 5829   8.234   3.837   3.456 -0.3871 -0.5810  0.3884
 1963TIP3    H1 5830   8.216   3.847   3.549 -0.1623  1.0573  0.2880
 1963TIP3    H2 5831   8.265   3.747   3.446  2.6917  0.1156  2.4049
 1964TIP3   OH2 5832   7.931   0.447   3.891  0.3117  0.3235  0.4420
 1964TIP3    H1 5833   7.988   0.483   3.960  1.2016 -0.5532  0.1790
 1964TIP3    H2 5834   7.857   0.508   3.888  0.8048  1.0061  1.3932
 1965TIP3   OH2 5835   1.070   0.316   2.942  0.4355  0.5962 -0.2022
 1965TIP3    H1 5836   0.975   0.333   2.944  0.4409  1.0627 -2.2257
 1965TIP3    H2 5837   1.107   0.380   3.003 -0.5798 -0.0574  1.1673
 1966TIP3   OH2 5838   0.897   2.520   5.832  0.2805 -0.4855  0.1887
 1966TIP3    H1 5839   0.829   2.464   5.795  0.0061  1.0363 -1.7607
 1966TIP3    H2 5840   0.979   2.472   5.816 -0.0915 -1.0893  0.0644
 1967TIP3   OH2 5841   3.279   6.304   6.600  0.5190  0.2191  0.0138
 1967TIP3    H1 5842   3.186   6.285   6.613 -0.0880  1.6268 -1.8933
 1967TIP3    H2 5843   3.291   6.306   6.505  2.8652 -1.4518  0.1852
 1968TIP3   OH2 5844   6.631   1.122   6.823  0.0874 -0.5844 -0.5055
 1968TIP3    H1 5845   6.694   1.191   6.803 -1.6554  0.7124 -1.8395
 1968TIP3    H2 5846   6.614   1.131   6.916 -2.2081  2.8186 -1.0659
 1969TIP3   OH2 5847   7.482   0.470   6.757  0.2915  0.4750  0.0686
 1969TIP3    H1 5848   7.465   0.489   6.849  0.3332 -0.3107  0.2519
 1969TIP3    H2 5849   7.566   0.512   6.739 -0.0412  1.2138  0.1915
 1970TIP3   OH2 5850   3.713   6.437   5.561  0.3157  0.1451 -0.2466
 1970TIP3    H1 5851   3.670   6.431   5.646 -0.2844 -3.2993 -0.6224
 1970TIP3    H2 5852   3.787   6.376   5.568 -0.6372 -1.4270 -2.5747
 1971TIP3   OH2 5853   5.761   0.431   3.744 -0.0219  0.0250  0.3894
 1971TIP3    H1 5854   5.670   0.418   3.718  0.1124  0.2452 -0.1991
 1971TIP3    H2 5855   5.757   0.446   3.839 -0.5780 -0.1263  0.3934
 1972TIP3   OH2 5856   4.547   5.097   3.480  0.1853  0.2082  0.2972
 1972TIP3    H1 5857   4.627   5.068   3.436 -1.2943 -1.9202 -1.1634
 1972TIP3    H2 5858   4.556   5.066   3.570  0.8391 -0.3204  0.0546
 1973TIP3   OH2 5859   3.336   3.496   5.252  0.0434  0.1082 -0.2934
 1973TIP3    H1 5860   3.319   3.405   5.227 -1.3730  0.2628  0.0115
 1973TIP3    H2 5861   3.253   3.541   5.235  1.0423  1.6057 -1.5296
 1974TIP3   OH2 5862   6.922   5.695   1.169  0.0796 -0.8415  0.8110
 1974TIP3    H1 5863   6.981   5.725   1.100 -1.3637 -1.1296 -0.6196
 1974TIP3    H2 5864   6.837   5.685   1.125 -1.3977  0.8354  3.0512
 1975TIP3   OH2 5865   6.000   2.221   2.097  0.1866  0.3243 -0.7025
 1975TIP3    H1 5866   5.985   2.288   2.164 -1.0647  1.9320 -2.4767
 1975TIP3    H2 5867   6.067   2.259   2.040  0.6000 -0.6297 -0.8710
 1976TIP3   OH2 5868   8.128   6.375   2.575 -0.7466 -0.1865 -0.3554
 1976TIP3    H1 5869   8.151   6.442   2.639  0.5328  0.4946 -1.4815
 1976TIP3    H2 5870   8.183   6.394   2.499  0.2240 -2.9241 -0.4622
 1977TIP3   OH2 5871   2.640   7.407   4.008  0.4330  0.1092 -0.6832
 1977TIP3    H1 5872   2.714   7.419   4.068  0.4715 -2.0837 -0.2060
 1977TIP3    H2 5873   2.602   7.494   3.999  1.7968  0.9033  0.7358
 1978TIP3   OH2 5874   6.548   3.964   1.360  0.1495  0.2706 -0.1534
 1978TIP3    H1 5875   6.619   4.028   1.364  2.1864 -1.8256 -0.8284
 1978TIP3    H2 5876   6.521   3.964   1.268 -0.1877  0.4998 -0.0556
 1979TIP3   OH2 5877   0.251   4.261   4.589 -0.2850  0.1722  0.1232
 1979TIP3    H1 5878   0.268   4.233   4.679  0.3259  0.3720  0.0732
 1979TIP3    H2 5879   0.282   4.351   4.586  0.3649 -0.0626 -0.4802
 1980TIP3   OH2 5880   5.324   7.337   3.740  0.1102  0.1021 -0.6082
 1980TIP3    H1 5881   5.267   7.411   3.720  0.5769  0.3760 -0.9515
 1980TIP3    H2 5882   5.309   7.320   3.833 -1.2791 -0.4900 -0.9284
 1981TIP3   OH2 5883   1.652   1.710   2.173 -0.2445  0.5680 -0.2324
 1981TIP3    H1 5884   1.620   1.700   2.263  0.4261  1.6089  0.1397
 1981TIP3    H2 5885   1.574   1.699   2.119 -0.4649 -1.2111  0.3921
 1982TIP3   OH2 5886   1.253   2.082   3.654  0.6702 -0.1517 -0.0029
 1982TIP3    H1 5887   1.333   2.058   3.699 -0.0508 -0.5662  1.1027
 1982TIP3    H2 5888   1.188   2.019   3.685 -0.0207 -0.0022 -1.0839
 1983TIP3   OH2 5889   4.961   3.743   1.680  0.4110 -0.3853  0.0931
 1983TIP3    H1 5890   4.872   3.745   1.645  0.5073 -0.6575 -0.1778
 1983TIP3    H2 5891   4.957   3.794   1.761 -0.3057 -1.5420  0.8197
 1984TIP3   OH2 5892   1.190   1.962   1.597 -0.4251 -0.2393  0.3822
 1984TIP3    H1 5893   1.205   1.931   1.686  3.1475 -0.3776 -0.1112
 1984TIP3    H2 5894   1.237   2.045   1.592 -0.0658 -0.5051 -1.4939
 1985TIP3   OH2 5895   2.863   1.642   3.397  0.0144  0.1565  0.5413
 1985TIP3    H1 5896   2.868   1.654   3.492 -0.3056 -0.8956  0.7078
 1985TIP3    H2 5897   2.938   1.585   3.377  0.6897  1.2076  0.0011
 1986TIP3   OH2 5898   1.803   0.254   2.159 -0.2929 -0.4121 -0.1887
 1986TIP3    H1 5899   1.837   0.203   2.233  0.9743  0.0739 -0.4033
 1986TIP3    H2 5900   1.710   0.234   2.157 -0.0117 -1.9328  0.3507
 1987TIP3   OH2 5901   2.976   3.358   6.246 -0.0852 -0.0230  0.0510
 1987TIP3    H1 5902   2.952   3.445   6.278 -0.8824 -0.1298 -0.2160
 1987TIP3    H2 5903   3.029   3.375   6.168  0.2134  0.2259  0.3073
 1988TIP3   OH2 5904   7.872   2.576   2.426  0.3473  0.4670  0.4996
 1988TIP3    H1 5905   7.781   2.548   2.423  0.6222 -0.4597 -2.2561
 1988TIP3    H2 5906   7.921   2.497   2.448  0.6016  0.4605 -0.0602
 1989TIP3   OH2 5907   4.507   2.163   5.599 -0.5574 -0.3135  0.1068
 1989TIP3    H1 5908   4.485   2.254   5.621  0.4602 -0.0057 -0.0938
 1989TIP3    H2 5909   4.466   2.111   5.668  1.2053  0.5274  1.9002
 1990TIP3   OH2 5910   2.595   3.011   0.966 -0.0693 -0.3161 -0.2657
 1990TIP3    H1 5911   2.589   3.035   1.059  3.3535  1.6673 -0.3984
 1990TIP3    H2 5912   2.677   2.962   0.959 -0.7461 -1.3027 -2.1630
 1991TIP3   OH2 5913   2.887   6.106   3.375  0.4460 -0.2269  0.3077
 1991TIP3    H1 5914   2.803   6.106   3.421  0.4344  1.0054  0.3258
 1991TIP3    H2 5915   2.927   6.189   3.399  1.7069 -0.8125  0.3287
 1992TIP3   OH2 5916   3.309   3.644   4.468  0.5121  0.0302  0.0154
 1992TIP3    H1 5917   3.299   3.548   4.470  0.2207  0.0389  2.8350
 1992TIP3    H2 5918   3.250   3.672   4.398  0.3648 -1.8278 -0.6711
 1993TIP3   OH2 5919   7.851   4.738   4.608 -0.0762  0.3181  0.1771
 1993TIP3    H1 5920   7.909   4.692   4.547 -0.4415  0.0117  0.0616
 1993TIP3    H2 5921   7.815   4.810   4.555  0.1944  0.5099  0.2493
 1994TIP3   OH2 5922   3.471   3.038   2.622 -0.7497 -0.0684  0.6963
 1994TIP3    H1 5923   3.400   2.978   2.645  0.0205 -1.0723  0.5305
 1994TIP3    H2 5924   3.452   3.063   2.531 -2.3290  1.8058  1.4523
 1995TIP3   OH2 5925   4.470   4.256   0.745  0.1167  0.5134  0.4281
 1995TIP3    H1 5926   4.418   4.310   0.805  1.5276  0.5886  1.6394
 1995TIP3    H2 5927   4.554   4.301   0.740  1.2244 -1.3514  1.2011
 1996TIP3   OH2 5928   7.592   7.169   3.929 -0.3401  0.2558  0.1347
 1996TIP3    H1 5929   7.639   7.119   3.996 -0.9159 -1.1812 -0.4913
 1996TIP3    H2 5930   7.571   7.252   3.972 -0.7295 -0.6312  1.7728
 1997TIP3   OH2 5931   2.667   1.326   3.239  0.5411 -0.3604 -0.1676
 1997TIP3    H1 5932   2.689   1.349   3.329  0.7623 -1.0058 -0.0475
 1997TIP3    H2 5933   2.614   1.247   3.248 -0.2099  0.0956 -0.5581
 1998TIP3   OH2 5934   7.617   4.015   6.143 -0.0478  0.2034  0.0703
 1998TIP3    H1 5935   7.641   4.097   6.186 -0.5373 -0.2697  1.2644
 1998TIP3    H2 5936   7.622   3.949   6.211 -0.0502 -0.7087 -0.7888
 1999TIP3   OH2 5937   0.645   5.303   5.172  0.5485  0.0438 -0.1938
 1999TIP3    H1 5938   0.623   5.337   5.259  0.4693  0.3059 -0.3133
 1999TIP3    H2 5939   0.717   5.359   5.142 -0.5153  1.0413 -0.9789
 2000TIP3   OH2 5940   6.302   0.292   1.564  0.6065 -0.5074 -0.2102
 2000TIP3    H1 5941   6.382   0.259   1.605  1.3394 -0.5607 -1.6129
 2000TIP3    H2 5942   6.333   0.337   1.485 -0.8232 -1.7080 -1.5273
 2001TIP3   OH2 5943   8.031   7.895   5.895  0.3385  0.3355 -0.1944
 2001TIP3    H1 5944   8.079   7.814   5.875 -0.2795 -0.5671  1.7140
 2001TIP3    H2 5945   7.997   7.881   5.983 -1.5670  1.8482 -0.6201
 2002TIP3   OH2 5946   4.399   5.276   4.919  0.2214 -0.2017  0.3126
 2002TIP3    H1 5947   4.372   5.258   4.829 -0.2822  1.7112  0.0231
 2002TIP3    H2 5948   4.377   5.197   4.968  1.1482 -1.5385 -1.3519
 2003TIP3   OH2 5949   2.518   6.881   5.634 -0.0868 -0.3553  0.4851
 2003TIP3    H1 5950   2.579   6.850   5.701  0.3295 -0.8413 -0.0961
 2003TIP3    H2 5951   2.440   6.826   5.646  0.5192 -1.4300 -0.3167
 2004TIP3   OH2 5952   4.231   4.458   6.685 -0.4569  0.8290 -0.1902
 2004TIP3    H1 5953   4.256   4.549   6.668 -1.8211  1.2931  0.1301
 2004TIP3    H2 5954   4.173   4.435   6.612 -0.5009  0.3756 -0.0158
 2005TIP3   OH2 5955   1.251   1.772   2.316  0.1912  0.0131 -0.3434
 2005TIP3    H1 5956   1.228   1.724   2.396  0.1955 -0.0069 -0.3542
 2005TIP3    H2 5957   1.276   1.704   2.253  1.9326  0.1064  0.1912
 2006TIP3   OH2 5958   3.198   5.634   1.224  0.1987  0.6336 -0.0666
 2006TIP3    H1 5959   3.161   5.549   1.247 -1.0372  1.3722  0.7290
 2006TIP3    H2 5960   3.284   5.613   1.188 -0.1495 -0.9639 -0.0354
 2007TIP3   OH2 5961   6.003   4.907   1.282 -0.0032 -0.4634  0.3213
 2007TIP3    H1 5962   5.908   4.918   1.281  0.1046  0.6704 -1.8489
 2007TIP3    H2 5963   6.036   4.983   1.329 -0.0956  0.0191 -0.3877
 2008TIP3   OH2 5964   5.517   0.442   5.019 -0.1324  0.2364  0.2876
 2008TIP3    H1 5965   5.548   0.499   4.950  1.9378  0.2264  1.1418
 2008TIP3    H2 5966   5.442   0.396   4.981  0.5420  0.7102 -1.6942
 2009TIP3   OH2 5967   0.355   5.959   0.836 -0.4115 -0.6248  0.0636
 2009TIP3    H1 5968   0.422   6.026   0.822 -0.4897 -0.4283  0.6022
 2009TIP3    H2 5969   0.358   5.905   0.757  1.4402 -1.5594  0.7050
 2010TIP3   OH2 5970   6.277   1.686   5.109  0.1641  0.3360  0.0011
 2010TIP3    H1 5971   6.219   1.758   5.136  0.7190  0.5606  0.6233
 2010TIP3    H2 5972   6.225   1.607   5.125  0.3651  0.4786  1.5131
 2011TIP3   OH2 5973   6.012   3.565   1.724 -0.2384 -0.5790 -0.4139
 2011TIP3    H1 5974   6.084   3.561   1.662 -0.2131  0.8677 -0.5222
 2011TIP3    H2 5975   5.939   3.600   1.674  0.2040  2.1704  0.6264
 2012TIP3   OH2 5976   3.983   5.231   1.385  0.2431  0.1102  0.0810
 2012TIP3    H1 5977   4.016   5.155   1.432  1.3870 -0.0865 -0.9839
 2012TIP3    H2 5978   3.913   5.266   1.441 -0.6738 -2.0176  0.3328
 2013TIP3   OH2 5979   8.078   6.593   6.180 -0.1356 -0.3127  0.0991
 2013TIP3    H1 5980   8.148   6.540   6.219  0.9676  1.7531  1.1210
 2013TIP3    H2 5981   8.124   6.663   6.134 -1.4886  1.1918  0.9135
 2014TIP3   OH2 5982   3.428   2.945   5.009  0.0936  0.4796  0.0732
 2014TIP3    H1 5983   3.341   2.966   5.043  1.1488  2.4590  1.7587
 2014TIP3    H2 5984   3.429   2.849   5.004 -2.0278  0.3860  0.3713
 2015TIP3   OH2 5985   0.586   2.975   6.076 -0.5003 -0.0875  0.1824
 2015TIP3    H1 5986   0.646   2.906   6.105 -1.7174 -1.3386 -0.1752
 2015TIP3    H2 5987   0.560   2.948   5.988 -0.7008  1.0523 -0.1209
 2016TIP3   OH2 5988   7.236   5.528   3.857 -0.3537  0.5560 -0.7185
 2016TIP3    H1 5989   7.325   5.543   3.825 -0.0231 -1.0697 -0.6553
 2016TIP3    H2 5990   7.229   5.581   3.936  0.7091  0.3482 -0.4769
 2017TIP3   OH2 5991   4.953   6.132   5.612  0.0244 -0.2959  0.1004
 2017TIP3    H1 5992   5.034   6.082   5.625 -0.8216 -2.2369 -1.6009
 2017TIP3    H2 5993   4.909   6.129   5.697  2.4129  2.2906  1.6040
 2018TIP3   OH2 5994   1.416   7.732   2.536 -0.2041 -0.2987  0.5109
 2018TIP3    H1 5995   1.322   7.721   2.553 -0.3002 -0.5554 -0.1394
 2018TIP3    H2 5996   1.453   7.645   2.552 -0.0798 -0.2059  0.7333
 2019TIP3   OH2 5997   0.625   2.507   1.299  0.4916 -0.3218 -0.5578
 2019TIP3    H1 5998   0.581   2.435   1.254 -0.3184  1.5431 -3.0201
 2019TIP3    H2 5999   0.717   2.481   1.301  0.5100 -0.7120 -3.0736
 2020TIP3   OH2 6000   6.673   3.009   0.327 -0.1048 -0.1053  0.0716
 2020TIP3    H1 6001   6.724   3.078   0.371 -0.0989  0.5090 -0.8531
 2020TIP3    H2 6002   6.631   2.962   0.398  1.1430 -0.1460  0.8250
 2021TIP3   OH2 6003   6.378   1.675   4.589 -0.3465  0.1189 -0.7297
 2021TIP3    H1 6004   6.291   1.689   4.551 -0.1097  2.1604 -0.5888
 2021TIP3    H2 6005   6.369   1.699   4.681 -0.0908 -1.6122 -0.2118
 2022TIP3   OH2 6006   3.164   4.839   4.381  0.1291  0.3782  0.3578
 2022TIP3    H1 6007   3.118   4.755   4.387 -0.8367  0.8966  0.5074
 2022TIP3    H2 6008   3.257   4.816   4.376 -0.1407 -0.7013  0.1300
 2023TIP3   OH2 6009   7.877   3.457   2.678 -0.4353 -0.0720 -0.2688
 2023TIP3    H1 6010   7.893   3.363   2.682  1.1597  0.2220  1.7655
 2023TIP3    H2 6011   7.815   3.474   2.750 -0.8308  0.4191 -0.7155
 2024TIP3   OH2 6012   7.885   5.751   4.390 -0.0438 -0.0333  0.8041
 2024TIP3    H1 6013   7.828   5.764   4.314 -1.3534 -1.5083  1.4680
 2024TIP3    H2 6014   7.920   5.838   4.409 -0.8172  0.6231 -0.6145
 2025TIP3   OH2 6015   4.024   1.753   4.101  0.1318 -0.0238 -0.1026
 2025TIP3    H1 6016   4.039   1.661   4.081 -0.1474 -0.2313  0.6346
 2025TIP3    H2 6017   4.037   1.798   4.017 -0.5009 -0.8162 -0.6390
 2026TIP3   OH2 6018   4.014   6.150   5.791  0.3965 -0.2893  0.0373
 2026TIP3    H1 6019   4.041   6.108   5.873 -1.4750 -0.2005  0.7421
 2026TIP3    H2 6020   3.921   6.127   5.782  0.4421  0.1174 -1.8188
 2027TIP3   OH2 6021   1.888   2.290   6.554 -0.3178 -0.3191  0.1326
 2027TIP3    H1 6022   1.884   2.360   6.488 -0.6913  0.7318  1.2395
 2027TIP3    H2 6023   1.944   2.325   6.623 -0.8589 -0.9400  0.9049
 2028TIP3   OH2 6024   1.136   5.887   4.773 -0.4696  0.0493 -0.4363
 2028TIP3    H1 6025   1.040   5.893   4.772 -0.5325  0.0221  1.6137
 2028TIP3    H2 6026   1.164   5.968   4.816  0.5307  0.5812 -1.9997
 2029TIP3   OH2 6027   5.072   6.162   0.029 -0.3429  0.2228 -0.2589
 2029TIP3    H1 6028   4.989   6.121   0.054 -0.9065  1.1069 -0.6254
 2029TIP3    H2 6029   5.115   6.180   0.113  0.7044 -2.5625 -0.0849
 2030TIP3   OH2 6030   8.415   2.670   0.700  0.0009 -0.2084 -0.1632
 2030TIP3    H1 6031   8.342   2.665   0.763 -1.6558  1.0726 -1.8584
 2030TIP3    H2 6032   8.383   2.624   0.623  1.2542 -0.1545 -0.7364
 2031TIP3   OH2 6033   0.785   1.374   3.330 -0.0693 -0.3685  0.3087
 2031TIP3    H1 6034   0.758   1.299   3.383 -0.3287 -1.1524 -0.8958
 2031TIP3    H2 6035   0.704   1.422   3.314  0.0237 -0.0809  0.6976
 2032TIP3   OH2 6036   0.047   6.490   0.064 -0.0748  0.1091 -0.2966
 2032TIP3    H1 6037   0.022   6.563   0.120  2.5475 -0.2025  1.4953
 2032TIP3    H2 6038   0.108   6.528   0.001 -0.0969 -0.2079 -0.5105
 2033TIP3   OH2 6039   2.926   5.730   0.197  0.1638 -0.1931 -0.2755
 2033TIP3    H1 6040   2.851   5.721   0.140  1.5251 -0.5312 -2.1097
 2033TIP3    H2 6041   2.947   5.640   0.224  0.2495 -0.1577 -0.2218
 2034TIP3   OH2 6042   3.728   1.238   4.335 -0.1071  0.3244  0.0646
 2034TIP3    H1 6043   3.676   1.169   4.293 -0.2046  0.0123  0.6819
 2034TIP3    H2 6044   3.805   1.192   4.368 -0.3007  0.4646  0.7110
 2035TIP3   OH2 6045   7.108   1.136   0.883  0.4726  0.3613 -0.4310
 2035TIP3    H1 6046   7.151   1.091   0.956 -0.5216  0.9726  0.5660
 2035TIP3    H2 6047   7.172   1.201   0.854  0.5825  0.6436  0.4233
 2036TIP3   OH2 6048   8.426   7.254   1.569 -0.1522  0.7914 -0.6558
 2036TIP3    H1 6049   8.373   7.333   1.575  0.5322  1.3079 -1.2168
 2036TIP3    H2 6050   8.372   7.191   1.521 -2.3275 -0.5082  3.0735
 2037TIP3   OH2 6051   1.514   7.072   5.206  0.0164 -0.0003  0.8712
 2037TIP3    H1 6052   1.450   7.005   5.225 -0.2407  0.0076  0.0565
 2037TIP3    H2 6053   1.576   7.067   5.279  0.3403 -1.5222  0.5227
 2038TIP3   OH2 6054   4.901   1.944   6.023 -0.0611  0.1940  0.2373
 2038TIP3    H1 6055   4.942   2.009   6.080 -0.4859  0.3836  0.3359
 2038TIP3    H2 6056   4.828   1.991   5.982  1.0736  0.4954 -1.5782
 2039TIP3   OH2 6057   0.526   6.817   0.994 -0.0917  0.0538 -0.6246
 2039TIP3    H1 6058   0.579   6.832   1.072 -0.8700 -0.4451  0.0274
 2039TIP3    H2 6059   0.562   6.875   0.928  1.1021 -0.0981 -0.1323
 2040TIP3   OH2 6060   2.069   5.052   1.158  0.1761 -0.4377  0.0713
 2040TIP3    H1 6061   2.029   5.064   1.072 -0.6121 -2.8510  0.0164
 2040TIP3    H2 6062   2.154   5.094   1.151 -0.4910  0.7918 -1.3468
 2041TIP3   OH2 6063   4.990   0.690   2.222 -0.0597 -0.5794  0.2990
 2041TIP3    H1 6064   5.056   0.658   2.283  1.6798 -0.0403 -1.1931
 2041TIP3    H2 6065   4.948   0.763   2.266  0.5826 -0.7157  1.1486
 2042TIP3   OH2 6066   7.504   2.430   4.749 -0.4236 -0.2061  0.6140
 2042TIP3    H1 6067   7.583   2.399   4.794  0.8563  2.3090  0.2804
 2042TIP3    H2 6068   7.460   2.485   4.814 -0.7061  0.2264  0.0574
 2043TIP3   OH2 6069   2.928   4.065   0.180  0.6136 -0.2036 -0.2956
 2043TIP3    H1 6070   2.995   4.008   0.142  1.3386  0.9105 -0.7278
 2043TIP3    H2 6071   2.963   4.090   0.266 -0.5963 -1.9538  0.7711
 2044TIP3   OH2 6072   3.950   1.326   2.550 -0.1851 -0.1806 -0.1141
 2044TIP3    H1 6073   4.005   1.332   2.472 -1.5709  0.6451 -1.0783
 2044TIP3    H2 6074   3.882   1.263   2.526 -2.5169  2.4348 -0.8746
 2045TIP3   OH2 6075   7.831   7.349   0.470  0.2433  0.4359 -0.6891
 2045TIP3    H1 6076   7.749   7.396   0.484  0.5718  0.4408  1.6233
 2045TIP3    H2 6077   7.817   7.299   0.390 -1.1301  2.2516 -1.6502
 2046TIP3   OH2 6078   0.228   3.815   0.789 -0.5514  0.2631 -0.1802
 2046TIP3    H1 6079   0.303   3.865   0.758 -0.4408  0.4191  0.3325
 2046TIP3    H2 6080   0.152   3.869   0.765 -0.6503 -0.6621 -2.2290
 2047TIP3   OH2 6081   1.284   6.284   3.448 -0.7947 -0.5806  0.8624
 2047TIP3    H1 6082   1.253   6.374   3.437  0.0437 -0.2689  0.9305
 2047TIP3    H2 6083   1.344   6.271   3.374  0.3330 -0.5106  1.7385
 2048TIP3   OH2 6084   3.800   3.499   0.776  1.2277 -0.6798  0.2456
 2048TIP3    H1 6085   3.830   3.413   0.804 -0.7351 -1.6115 -0.3120
 2048TIP3    H2 6086   3.753   3.483   0.694  1.6394  1.0715 -0.3730
 2049TIP3   OH2 6087   4.300   4.741   6.302  0.0805 -0.7057  1.0206
 2049TIP3    H1 6088   4.355   4.777   6.233  0.9557 -0.1343  1.9730
 2049TIP3    H2 6089   4.221   4.795   6.301  0.4269 -0.1887  0.9721
 2050TIP3   OH2 6090   0.198   7.665   1.524 -0.0477 -0.1954  0.0004
 2050TIP3    H1 6091   0.220   7.692   1.435  2.1756  2.2483  1.1539
 2050TIP3    H2 6092   0.253   7.589   1.541 -0.1570 -0.3996 -0.5557
 2051TIP3   OH2 6093   1.215   4.944   0.503  0.3853  0.0572  0.3293
 2051TIP3    H1 6094   1.142   5.003   0.523 -0.3692  0.6963 -3.6248
 2051TIP3    H2 6095   1.290   5.001   0.490  1.1753 -0.4427  2.3023
 2052TIP3   OH2 6096   6.648   5.265   6.451  0.3540  0.1899  0.1435
 2052TIP3    H1 6097   6.625   5.231   6.537 -0.5549  0.4014 -0.0119
 2052TIP3    H2 6098   6.605   5.206   6.389 -0.2350  0.8990 -0.1415
 2053TIP3   OH2 6099   4.459   2.508   3.662 -0.4662  0.2405  0.4951
 2053TIP3    H1 6100   4.497   2.558   3.734 -0.2268  1.2285 -0.2972
 2053TIP3    H2 6101   4.526   2.510   3.594  0.3552 -2.7316  1.0513
 2054TIP3   OH2 6102   0.921   4.179   1.168  0.3277  0.6529  0.4316
 2054TIP3    H1 6103   0.877   4.227   1.238 -1.7112  0.3106 -0.5369
 2054TIP3    H2 6104   0.936   4.245   1.100 -1.2633  0.2485 -0.3556
 2055TIP3   OH2 6105   3.731   7.228   1.192 -0.2677 -0.5197 -0.5486
 2055TIP3    H1 6106   3.713   7.296   1.257 -0.4724 -1.3511  0.3003
 2055TIP3    H2 6107   3.812   7.187   1.222  0.6468  0.2727 -1.8600
 2056TIP3   OH2 6108   0.950   6.356   6.700 -0.0910 -0.6721  0.2731
 2056TIP3    H1 6109   0.949   6.432   6.759  0.3552  0.0805 -0.6717
 2056TIP3    H2 6110   1.025   6.370   6.643  0.4470 -2.2151  0.5528
 2057TIP3   OH2 6111   5.171   5.750   4.292 -0.5055 -0.1399  0.4919
 2057TIP3    H1 6112   5.174   5.662   4.329 -1.7027 -0.6587 -0.5646
 2057TIP3    H2 6113   5.228   5.746   4.216  2.7296  1.1881  2.6104
 2058TIP3   OH2 6114   2.008   6.603   3.518 -0.5641  0.0000 -0.2040
 2058TIP3    H1 6115   2.072   6.623   3.586 -1.2923  1.7588  0.0183
 2058TIP3    H2 6116   1.977   6.515   3.538 -0.7736  0.4895  1.7664
 2059TIP3   OH2 6117   6.289   5.442   6.509 -0.5829  0.0833 -0.2113
 2059TIP3    H1 6118   6.333   5.452   6.594  0.0414  1.1927 -0.6502
 2059TIP3    H2 6119   6.259   5.351   6.509 -3.6614  0.8987  2.6543
 2060TIP3   OH2 6120   5.256   4.277   1.423 -0.0071  0.2846 -0.2441
 2060TIP3    H1 6121   5.188   4.291   1.357 -0.4871  2.4844  0.6274
 2060TIP3    H2 6122   5.290   4.189   1.404 -0.7022  0.4984 -2.8313
 2061TIP3   OH2 6123   1.763   3.122   1.823 -0.0067  0.9601  0.0203
 2061TIP3    H1 6124   1.822   3.195   1.804  1.7425 -0.3584  0.0850
 2061TIP3    H2 6125   1.725   3.100   1.737 -1.0365  2.2872  0.1004
 2062TIP3   OH2 6126   2.539   7.692   6.705 -0.2997 -0.0863  0.4726
 2062TIP3    H1 6127   2.592   7.677   6.627  0.6718  0.7723  0.9310
 2062TIP3    H2 6128   2.566   7.622   6.766  0.9406  0.8066  0.9944
 2063TIP3   OH2 6129   7.141   6.911   2.499 -0.5465  0.2327  0.3929
 2063TIP3    H1 6130   7.200   6.838   2.480 -1.1446  0.0803 -1.0556
 2063TIP3    H2 6131   7.199   6.986   2.512  0.0224  0.3462 -2.1740
 2064TIP3   OH2 6132   5.731   0.094   2.677  0.4727 -0.2358  0.5863
 2064TIP3    H1 6133   5.683   0.023   2.720 -2.5976  0.1309 -1.9407
 2064TIP3    H2 6134   5.682   0.173   2.699  2.5648  0.8867  1.5066
 2065TIP3   OH2 6135   4.204   4.632   2.692  0.5340  0.3088 -0.8891
 2065TIP3    H1 6136   4.161   4.612   2.609 -0.5247  1.1720 -0.5664
 2065TIP3    H2 6137   4.197   4.727   2.700  1.2837  0.3121 -0.1520
 2066TIP3   OH2 6138   6.877   6.946   3.270  0.5051  0.0402 -0.3075
 2066TIP3    H1 6139   6.846   6.943   3.360 -0.4195 -0.4422 -0.6304
 2066TIP3    H2 6140   6.972   6.955   3.278  0.7349 -2.4053  0.7519
 2067TIP3   OH2 6141   2.914   0.384   0.638 -0.3012 -0.0081  0.0980
 2067TIP3    H1 6142   3.003   0.366   0.607 -0.7675  2.3494 -3.1551
 2067TIP3    H2 6143   2.858   0.330   0.583 -1.0065  0.3132  0.4886
 2068TIP3   OH2 6144   1.569   2.527   6.030  0.2034 -0.1735 -0.3065
 2068TIP3    H1 6145   1.501   2.461   6.043  0.7536 -0.7632 -0.3567
 2068TIP3    H2 6146   1.522   2.610   6.023 -0.4394 -0.4189  0.8078
 2069TIP3   OH2 6147   2.105   1.698   1.748 -0.4530 -0.5624  1.1587
 2069TIP3    H1 6148   2.065   1.727   1.830  1.5036 -1.3893  2.4645
 2069TIP3    H2 6149   2.118   1.604   1.759  0.8326 -0.5059  0.3471
 2070TIP3   OH2 6150   0.099   0.785   4.474  0.5438 -0.3121 -0.2525
 2070TIP3    H1 6151   0.040   0.854   4.446  1.2998 -0.2441 -1.7798
 2070TIP3    H2 6152   0.187   0.820   4.458  0.9640 -1.1285  0.1862
 2071TIP3   OH2 6153   8.160   2.579   0.790 -0.1626 -0.7068  0.1393
 2071TIP3    H1 6154   8.081   2.529   0.810 -0.0097 -0.1514  2.4922
 2071TIP3    H2 6155   8.132   2.671   0.795  0.0966 -0.5023 -1.6551
 2072TIP3   OH2 6156   8.226   0.532   1.352 -0.6843  0.2791  0.0561
 2072TIP3    H1 6157   8.220   0.550   1.258 -0.2646 -2.1400 -0.5170
 2072TIP3    H2 6158   8.145   0.485   1.372 -0.0206 -0.7288  0.4838
 2073TIP3   OH2 6159   7.436   1.185   4.540 -0.4097 -0.0064  0.4734
 2073TIP3    H1 6160   7.386   1.266   4.540 -1.1468 -0.4055 -1.1979
 2073TIP3    H2 6161   7.418   1.145   4.625 -1.4224  0.7779  0.6465
 2074TIP3   OH2 6162   7.826   2.802   1.466 -0.3850 -0.6204  0.0375
 2074TIP3    H1 6163   7.892   2.847   1.519  0.2903 -0.1019 -1.1992
 2074TIP3    H2 6164   7.831   2.844   1.381 -0.1879 -2.5999 -0.9892
 2075TIP3   OH2 6165   1.213   0.409   0.452  0.1966 -0.0907 -0.3124
 2075TIP3    H1 6166   1.247   0.354   0.523  0.8669 -0.2339 -0.7388
 2075TIP3    H2 6167   1.166   0.349   0.395  1.3715 -0.3397 -1.0593
 2076TIP3   OH2 6168   0.963   3.890   4.427  0.1003 -0.2167 -0.2870
 2076TIP3    H1 6169   0.886   3.926   4.383  0.4957 -0.6840 -1.4059
 2076TIP3    H2 6170   1.035   3.946   4.396  0.1862  0.3906  0.9624
 2077TIP3   OH2 6171   0.794   6.986   1.095 -0.0931 -0.1656  0.3228
 2077TIP3    H1 6172   0.772   6.894   1.108  0.7773 -0.3362  0.6471
 2077TIP3    H2 6173   0.873   6.985   1.041 -1.3456  0.4610 -1.5926
 2078TIP3   OH2 6174   7.501   5.547   1.878 -0.4439 -0.3190 -0.3207
 2078TIP3    H1 6175   7.429   5.485   1.889 -1.6932  0.8562 -1.3561
 2078TIP3    H2 6176   7.566   5.521   1.942 -2.2476 -0.8102  1.3970
 2079TIP3   OH2 6177   0.738   0.320   5.946  0.2603  0.1063  0.2234
 2079TIP3    H1 6178   0.782   0.282   5.870  0.3360  0.8256 -0.1052
 2079TIP3    H2 6179   0.769   0.410   5.949 -1.5540  0.8133 -0.3419
 2080TIP3   OH2 6180   1.804   2.212   5.721 -0.0159 -0.6348  0.2685
 2080TIP3    H1 6181   1.858   2.216   5.800  0.6042 -1.1127 -0.1213
 2080TIP3    H2 6182   1.825   2.292   5.674  1.1585 -1.2938 -0.3785
 2081TIP3   OH2 6183   3.390   3.208   0.985  0.2128  0.0579 -0.4439
 2081TIP3    H1 6184   3.421   3.121   0.961 -1.3002 -1.2185  1.8662
 2081TIP3    H2 6185   3.356   3.245   0.904  0.3102 -1.7784 -1.3665
 2082TIP3   OH2 6186   6.473   7.744   1.107 -0.4036 -0.1125  0.0623
 2082TIP3    H1 6187   6.450   7.708   1.021 -0.0571  0.8954 -0.4647
 2082TIP3    H2 6188   6.551   7.695   1.133 -0.9262 -0.9256  0.1438
 2083TIP3   OH2 6189   3.194   6.561   2.780  0.0708 -0.2448 -0.2385
 2083TIP3    H1 6190   3.099   6.569   2.779  0.0619 -0.3081 -0.0285
 2083TIP3    H2 6191   3.211   6.483   2.834  0.1643 -1.4092 -1.8527
 2084TIP3   OH2 6192   7.028   4.697   4.722  0.1356 -0.2629  0.1248
 2084TIP3    H1 6193   7.033   4.641   4.800  1.6618 -0.7096 -0.2786
 2084TIP3    H2 6194   7.115   4.692   4.682 -0.8922 -0.8523 -2.1944
 2085TIP3   OH2 6195   2.709   3.918   0.998 -0.1866 -0.3251  0.0166
 2085TIP3    H1 6196   2.762   3.948   0.924 -0.2716  2.4964  0.9553
 2085TIP3    H2 6197   2.619   3.919   0.965 -0.2779  1.3882  0.1922
 2086TIP3   OH2 6198   3.560   3.833   2.307  0.2609 -0.5488 -0.6260
 2086TIP3    H1 6199   3.496   3.901   2.284  0.0799 -1.0587 -1.6931
 2086TIP3    H2 6200   3.558   3.830   2.403 -0.2585  0.4380 -0.5893
 2087TIP3   OH2 6201   7.065   6.331   5.373 -0.2602 -0.6225  0.3525
 2087TIP3    H1 6202   7.029   6.293   5.453 -0.7821 -0.2753  0.2897
 2087TIP3    H2 6203   7.091   6.420   5.399  0.2746 -0.7689  0.3213
 2088TIP3   OH2 6204   2.251   5.528   4.294  0.1272 -0.3162 -0.1828
 2088TIP3    H1 6205   2.172   5.538   4.241  0.3018 -1.2894 -0.6470
 2088TIP3    H2 6206   2.314   5.590   4.255  0.0689 -0.6147 -0.7573
 2089TIP3   OH2 6207   3.763   0.549   2.085  0.5260  0.3252  0.2214
 2089TIP3    H1 6208   3.670   0.533   2.068  0.4674  0.6132  0.2634
 2089TIP3    H2 6209   3.790   0.475   2.139 -0.1881  1.2483  1.9389
 2090TIP3   OH2 6210   2.684   1.477   2.062  0.5287 -0.1325 -0.8661
 2090TIP3    H1 6211   2.656   1.412   1.999  0.3762 -1.0014  0.0689
 2090TIP3    H2 6212   2.748   1.531   2.016  0.3198 -0.6656 -1.7828
 2091TIP3   OH2 6213   7.393   3.624   4.922  0.0125  0.7279 -0.8126
 2091TIP3    H1 6214   7.370   3.594   5.010 -1.6010  1.2471 -1.0283
 2091TIP3    H2 6215   7.445   3.703   4.936  0.0477  0.6186 -0.3221
 2092TIP3   OH2 6216   3.321   2.593   5.905 -0.1345 -0.0638  0.2671
 2092TIP3    H1 6217   3.364   2.512   5.877  0.8635  0.8776 -1.0802
 2092TIP3    H2 6218   3.302   2.580   5.998  0.3106 -1.6955  0.1549
 2093TIP3   OH2 6219   6.766   2.764   6.713 -0.1644 -0.1807  0.1914
 2093TIP3    H1 6220   6.861   2.776   6.707 -0.0448 -1.1749 -0.0942
 2093TIP3    H2 6221   6.730   2.835   6.659  0.2770  1.8243  2.3592
 2094TIP3   OH2 6222   2.601   2.445   1.862  0.2272  0.0253 -0.0397
 2094TIP3    H1 6223   2.610   2.385   1.789  0.3316  0.7865 -0.6684
 2094TIP3    H2 6224   2.629   2.395   1.938 -0.9351 -1.1441 -0.3420
 2095TIP3   OH2 6225   7.667   2.862   3.811  0.0641  0.2685  0.6211
 2095TIP3    H1 6226   7.644   2.803   3.882  1.2547 -1.4034 -0.3079
 2095TIP3    H2 6227   7.642   2.816   3.731 -1.1141  2.0435 -0.1169
 2096TIP3   OH2 6228   0.327   1.753   6.619 -0.3087 -0.2016  0.4629
 2096TIP3    H1 6229   0.318   1.849   6.617 -1.7626 -0.3162  0.6517
 2096TIP3    H2 6230   0.360   1.734   6.707 -1.2604  0.0535  0.8932
 2097TIP3   OH2 6231   5.542   3.979   0.485 -0.2052 -0.4553 -0.0483
 2097TIP3    H1 6232   5.499   3.923   0.550 -1.7398 -0.3342 -0.9054
 2097TIP3    H2 6233   5.519   4.068   0.512 -0.2063 -0.3714 -0.3279
 2098TIP3   OH2 6234   7.219   0.873   1.251 -0.0535 -0.4096  0.0760
 2098TIP3    H1 6235   7.137   0.870   1.300 -0.7347 -1.3064 -1.0354
 2098TIP3    H2 6236   7.222   0.961   1.214 -0.5661 -0.3859  0.0815
 2099TIP3   OH2 6237   1.741   2.194   0.896  0.0963 -0.1888 -0.0179
 2099TIP3    H1 6238   1.647   2.173   0.898 -0.2158  1.1838  0.4122
 2099TIP3    H2 6239   1.783   2.120   0.939 -0.8012 -0.7616 -0.1008
 2100TIP3   OH2 6240   7.665   4.461   1.887  0.7990  0.0552  0.1267
 2100TIP3    H1 6241   7.710   4.501   1.813  1.8538 -0.5719  0.4123
 2100TIP3    H2 6242   7.658   4.368   1.865  0.7568 -0.0684  0.6337
 2101TIP3   OH2 6243   7.962   5.639   6.287 -0.2989  0.3013  0.3512
 2101TIP3    H1 6244   7.973   5.678   6.201 -1.8465  0.5679  0.2467
 2101TIP3    H2 6245   8.051   5.613   6.313 -0.0247 -1.6263 -2.1618
 2102TIP3   OH2 6246   7.125   1.524   0.130  0.4055 -0.6785 -0.1593
 2102TIP3    H1 6247   7.032   1.508   0.114  0.3496 -0.9779  0.4448
 2102TIP3    H2 6248   7.127   1.604   0.183  0.6301  0.7930 -2.2432
 2103TIP3   OH2 6249   5.450   3.600   1.969  0.5588  0.2048  0.4589
 2103TIP3    H1 6250   5.518   3.538   1.995  0.4290 -0.9638 -1.8125
 2103TIP3    H2 6251   5.489   3.686   1.984  1.9687 -0.4422  0.5962
 2104TIP3   OH2 6252   8.335   1.137   0.490 -0.3069  0.4510  0.0939
 2104TIP3    H1 6253   8.383   1.199   0.543  0.2044  0.4780 -0.3941
 2104TIP3    H2 6254   8.244   1.144   0.521 -0.4757  2.2289 -0.6772
 2105TIP3   OH2 6255   3.866   2.255   0.811  0.7318 -0.4450 -0.0171
 2105TIP3    H1 6256   3.832   2.218   0.730 -0.8064  2.1852 -0.7112
 2105TIP3    H2 6257   3.944   2.305   0.784 -0.2261  1.0865 -0.1065
 2106TIP3   OH2 6258   6.923   5.789   3.962 -0.4774  0.0038  0.0486
 2106TIP3    H1 6259   6.971   5.848   3.904  0.0096 -1.2985 -0.9172
 2106TIP3    H2 6260   6.987   5.763   4.028 -0.9155  1.1567  0.9549
 2107TIP3   OH2 6261   2.605   0.688   0.524 -0.2693 -0.2504 -0.2216
 2107TIP3    H1 6262   2.578   0.661   0.612 -1.0989 -0.4277 -0.5210
 2107TIP3    H2 6263   2.530   0.665   0.468  0.9519 -1.8776 -1.2834
 2108TIP3   OH2 6264   7.919   3.055   2.132 -0.0562 -0.2821  0.0917
 2108TIP3    H1 6265   7.951   3.112   2.202 -0.2160 -0.5552  0.3880
 2108TIP3    H2 6266   7.826   3.045   2.150 -0.2397  0.2202 -0.5670
 2109TIP3   OH2 6267   7.614   5.321   0.095 -0.7640 -0.0612 -0.3142
 2109TIP3    H1 6268   7.598   5.413   0.072 -0.1717  0.1056 -0.0854
 2109TIP3    H2 6269   7.568   5.307   0.177  1.1877  0.7643  1.0026
 2110TIP3   OH2 6270   3.596   5.963   6.807  0.3683 -0.1389 -0.2104
 2110TIP3    H1 6271   3.551   6.046   6.798 -0.4477 -0.5253  0.2412
 2110TIP3    H2 6272   3.684   5.979   6.771  0.1395  0.8362 -0.3485
 2111TIP3   OH2 6273   3.506   1.922   4.440 -0.6429 -0.2221 -0.2085
 2111TIP3    H1 6274   3.550   1.995   4.397 -0.1033 -0.0033  0.7006
 2111TIP3    H2 6275   3.521   1.935   4.533 -1.1439 -1.1079  0.0156
 2112TIP3   OH2 6276   2.356   7.791   5.359 -0.4666  0.3341 -0.4507
 2112TIP3    H1 6277   2.388   7.800   5.270 -2.6350 -2.5699 -1.7096
 2112TIP3    H2 6278   2.425   7.744   5.405 -0.9066 -1.8873 -1.8775
 2113TIP3   OH2 6279   4.902   1.148   0.763  0.2575  0.0461 -0.0122
 2113TIP3    H1 6280   4.927   1.180   0.850 -3.2029  0.2734  1.0338
 2113TIP3    H2 6281   4.925   1.219   0.704 -0.8499  1.5757  1.3063
 2114TIP3   OH2 6282   5.071   7.476   3.215 -0.2554  0.0060  0.3029
 2114TIP3    H1 6283   4.982   7.443   3.204 -0.0650 -0.0561 -1.3203
 2114TIP3    H2 6284   5.117   7.406   3.261 -0.5967 -0.7579 -0.4890
 2115TIP3   OH2 6285   3.223   2.821   1.742 -0.9299  0.9196  0.0565
 2115TIP3    H1 6286   3.151   2.816   1.678  0.6704 -1.2072 -1.7156
 2115TIP3    H2 6287   3.274   2.897   1.714 -0.3553  0.1280 -1.1696
 2116TIP3   OH2 6288   6.203   5.101   5.830  0.0397 -0.0186  0.7421
 2116TIP3    H1 6289   6.246   5.140   5.753  0.1398  0.4999  1.0583
 2116TIP3    H2 6290   6.155   5.025   5.795 -0.2420  0.4461  0.1038
 2117TIP3   OH2 6291   5.763   5.269   5.508 -0.0549  0.1692  0.1215
 2117TIP3    H1 6292   5.839   5.311   5.549  1.9352 -1.3213 -1.7957
 2117TIP3    H2 6293   5.761   5.181   5.547 -1.6707  0.6201  1.1279
 2118TIP3   OH2 6294   6.449   5.838   5.194  0.3364  0.5072 -0.3708
 2118TIP3    H1 6295   6.507   5.915   5.190  1.1756 -0.1372 -0.7715
 2118TIP3    H2 6296   6.449   5.813   5.287 -0.8702  1.6675 -0.0229
 2119TIP3   OH2 6297   4.026   7.806   2.844  0.0834 -0.0090  0.0988
 2119TIP3    H1 6298   4.067   7.830   2.928 -0.7588 -0.0302  0.5237
 2119TIP3    H2 6299   4.037   7.711   2.839  0.4234  0.0315  0.0243
 2120TIP3   OH2 6300   4.770   3.633   0.912 -0.1851  0.3993  0.0842
 2120TIP3    H1 6301   4.702   3.669   0.855 -0.1981 -0.5330 -0.4927
 2120TIP3    H2 6302   4.821   3.575   0.856 -0.5453 -0.9904  1.1305
 2121TIP3   OH2 6303   8.028   3.372   3.408 -0.4691  0.4704  0.0388
 2121TIP3    H1 6304   7.975   3.354   3.486 -0.4389  0.3581  0.0331
 2121TIP3    H2 6305   8.077   3.451   3.431  0.6105 -0.3652  0.6850
 2122TIP3   OH2 6306  -0.029   6.374   0.541 -0.3341  0.2409  0.3367
 2122TIP3    H1 6307  -0.009   6.311   0.471  0.5067  0.4966  0.3322
 2122TIP3    H2 6308   0.056   6.394   0.580 -0.8615 -0.6482  2.0979
 2123TIP3   OH2 6309   4.781   6.382   2.533 -0.4252  0.4777  0.6610
 2123TIP3    H1 6310   4.860   6.350   2.578 -0.3650 -0.8015 -0.3158
 2123TIP3    H2 6311   4.714   6.381   2.601  0.3970  1.7303  1.5543
 2124TIP3   OH2 6312   0.103   0.267   5.494  0.2955 -0.2926  0.4204
 2124TIP3    H1 6313   0.016   0.227   5.495  0.2911 -0.3184 -0.2419
 2124TIP3    H2 6314   0.147   0.233   5.572  0.6673 -2.4456 -0.6541
 2125TIP3   OH2 6315   7.114  -0.004   5.077  0.5877 -0.2074  0.4328
 2125TIP3    H1 6316   7.045   0.003   5.012 -1.2760 -0.8496  2.2236
 2125TIP3    H2 6317   7.146   0.085   5.090  1.7696 -0.1933 -2.0425
 2126TIP3   OH2 6318   7.647   2.598   0.717  0.5379  0.0413  0.2701
 2126TIP3    H1 6319   7.676   2.678   0.675 -0.9613  0.5068  0.0872
 2126TIP3    H2 6320   7.567   2.622   0.763  0.2388 -1.2715  0.4846
 2127TIP3   OH2 6321   0.605   0.545   6.396  0.4995  0.3364 -0.1676
 2127TIP3    H1 6322   0.700   0.541   6.407  0.5867  1.6350 -0.3034
 2127TIP3    H2 6323   0.587   0.492   6.318  1.5207  2.8020 -2.1715
 2128TIP3   OH2 6324   2.754   5.558   2.607  0.3523  0.0441  0.0543
 2128TIP3    H1 6325   2.679   5.504   2.581 -0.8733  2.8085 -2.8568
 2128TIP3    H2 6326   2.721   5.613   2.678 -0.1259  0.6229 -0.6050
 2129TIP3   OH2 6327   6.096   5.873   4.490 -0.4682  0.4024  0.3786
 2129TIP3    H1 6328   6.069   5.783   4.475 -0.2106  0.3136  0.4406
 2129TIP3    H2 6329   6.117   5.877   4.583 -1.0118  0.6696  0.4942
 2130TIP3   OH2 6330   7.610   6.042   0.210  0.7311  0.1618  0.3208
 2130TIP3    H1 6331   7.554   6.099   0.157  1.4926  0.5794 -0.0575
 2130TIP3    H2 6332   7.585   5.953   0.184  2.6442  0.3278 -2.5210
 2131TIP3   OH2 6333   4.121   2.190   6.596  0.2066 -0.8074 -0.4230
 2131TIP3    H1 6334   4.056   2.190   6.666 -0.2160 -1.0022 -0.8021
 2131TIP3    H2 6335   4.122   2.099   6.565 -0.7314 -0.4230 -1.6678
 2132TIP3   OH2 6336   3.077   7.174   4.696 -0.2931  0.1810 -0.2601
 2132TIP3    H1 6337   2.996   7.178   4.747  0.8897  0.9692  1.6423
 2132TIP3    H2 6338   3.074   7.252   4.640 -1.1243 -0.1377 -0.6781
 2133TIP3   OH2 6339   6.974   5.672   5.888 -0.2713  0.2090 -0.6997
 2133TIP3    H1 6340   7.051   5.665   5.831  0.0739  0.7833 -0.3190
 2133TIP3    H2 6341   6.969   5.588   5.933  0.3418  0.2860 -0.4789
 2134TIP3   OH2 6342   5.377   1.847   1.253  0.0677  0.3854 -0.4561
 2134TIP3    H1 6343   5.367   1.753   1.269  0.2739  0.6295  1.3053
 2134TIP3    H2 6344   5.288   1.877   1.233  0.2588 -0.4433 -2.7447
 2135TIP3   OH2 6345   0.019   4.926   5.903  0.0778  0.2332 -0.0761
 2135TIP3    H1 6346  -0.067   4.919   5.943  0.0813 -0.4205 -0.1780
 2135TIP3    H2 6347   0.052   5.012   5.932 -1.8542  1.9404 -2.5263
 2136TIP3   OH2 6348   3.971   2.154   4.238 -0.6496 -0.3290  0.1153
 2136TIP3    H1 6349   3.986   2.090   4.307  4.0707  0.1037 -0.1619
 2136TIP3    H2 6350   3.941   2.103   4.163 -3.4852 -1.1132  1.6468
 2137TIP3   OH2 6351   7.011   1.750   3.398  0.0277 -0.1098  0.0582
 2137TIP3    H1 6352   7.057   1.669   3.422  1.5586  0.0810 -1.9826
 2137TIP3    H2 6353   7.044   1.815   3.459 -1.1085 -0.9411  1.6324
 2138TIP3   OH2 6354   5.747   1.739   0.368 -0.0437  0.4015 -0.5652
 2138TIP3    H1 6355   5.685   1.779   0.429  1.7002  0.4742  1.3040
 2138TIP3    H2 6356   5.825   1.795   0.373  1.1467 -1.1647 -0.6903
 2139TIP3   OH2 6357   3.073   0.048   0.920 -0.0523 -0.2556 -0.0208
 2139TIP3    H1 6358   3.134  -0.011   0.965  1.3808  0.0478 -1.4366
 2139TIP3    H2 6359   3.123   0.078   0.843 -1.6113  0.9158 -0.6123
 2140TIP3   OH2 6360   4.475   2.205   3.502 -0.1354  0.5039 -0.0630
 2140TIP3    H1 6361   4.408   2.250   3.450 -0.6256  0.5789  0.6227
 2140TIP3    H2 6362   4.555   2.212   3.449 -0.4056  1.4147 -0.3608
 2141TIP3   OH2 6363   3.266   4.052   0.692 -0.5753 -0.2762  0.2478
 2141TIP3    H1 6364   3.329   3.982   0.706  1.3338  1.6132  1.7080
 2141TIP3    H2 6365   3.318   4.125   0.659 -2.3534  0.7583 -0.4053
 2142TIP3   OH2 6366   5.041   6.312   0.556  0.0147  0.2169 -0.2278
 2142TIP3    H1 6367   5.127   6.277   0.533 -1.2564 -3.4204 -0.1515
 2142TIP3    H2 6368   4.984   6.282   0.485 -1.2196  2.8793 -0.4789
 2143TIP3   OH2 6369   3.838   6.084   4.501  0.1591  0.0204  0.4804
 2143TIP3    H1 6370   3.766   6.065   4.441  0.9360  0.3874 -0.6059
 2143TIP3    H2 6371   3.795   6.100   4.586 -0.9665 -0.4298  0.0180
 2144TIP3   OH2 6372   0.409   2.940   5.521  0.1055 -0.4943  0.2834
 2144TIP3    H1 6373   0.458   2.991   5.458  0.4725 -1.8244 -0.5501
 2144TIP3    H2 6374   0.322   2.980   5.523  0.1372 -0.3356 -0.9591
 2145TIP3   OH2 6375   0.787   7.847   1.932 -0.5832 -0.0042  0.1942
 2145TIP3    H1 6376   0.726   7.876   1.864  0.5396  1.2359 -0.3300
 2145TIP3    H2 6377   0.850   7.791   1.886  0.0318  0.6334  0.2376
 2146TIP3   OH2 6378   3.497   5.379   3.755  0.0994  0.2818  0.1810
 2146TIP3    H1 6379   3.408   5.363   3.723 -0.0300  1.7262 -0.2684
 2146TIP3    H2 6380   3.552   5.370   3.677  0.1199  1.0652  0.0918
 2147TIP3   OH2 6381   3.277   0.172   5.524  0.2973  0.0548 -0.2000
 2147TIP3    H1 6382   3.216   0.107   5.491 -1.9373  1.5022  0.8449
 2147TIP3    H2 6383   3.326   0.126   5.593  1.0069 -1.3451 -1.5809
 2148TIP3   OH2 6384   4.362   6.473   1.764 -0.5543  0.1628  0.2269
 2148TIP3    H1 6385   4.341   6.555   1.809 -0.4033  1.6712 -2.2451
 2148TIP3    H2 6386   4.356   6.495   1.671  3.5854 -1.5143 -0.6601
 2149TIP3   OH2 6387   2.115   0.610   3.824  0.0415 -0.1640 -0.3005
 2149TIP3    H1 6388   2.182   0.678   3.821 -1.0504  0.9231 -1.6746
 2149TIP3    H2 6389   2.105   0.583   3.733 -0.3707 -1.3465  0.0834
 2150TIP3   OH2 6390   3.214   6.723   5.788 -0.0813  0.0725 -0.0294
 2150TIP3    H1 6391   3.297   6.758   5.819 -0.0907  0.9623 -0.9470
 2150TIP3    H2 6392   3.159   6.718   5.866  0.6287  0.0700  0.4766
 2151TIP3   OH2 6393   5.202   5.779   5.693 -0.0453 -0.2902  0.0692
 2151TIP3    H1 6394   5.225   5.776   5.601  1.9462  0.5224  0.4898
 2151TIP3    H2 6395   5.255   5.850   5.730 -1.2455 -0.1723  1.7303
 2152TIP3   OH2 6396   3.011   7.819   0.996 -0.4734 -0.2063 -0.3832
 2152TIP3    H1 6397   2.988   7.840   1.086  0.2373 -1.0599  0.0237
 2152TIP3    H2 6398   2.945   7.755   0.968  0.7429 -1.9144  0.4490
 2153TIP3   OH2 6399   0.731   6.489   0.131  0.5300 -0.1103 -0.4951
 2153TIP3    H1 6400   0.760   6.570   0.090  0.8644  0.3339  0.5831
 2153TIP3    H2 6401   0.804   6.429   0.121  1.2287  0.4813  0.7470
 2154TIP3   OH2 6402   0.768   4.755   3.440  0.0418 -0.3177 -0.1204
 2154TIP3    H1 6403   0.819   4.727   3.364 -1.0543 -0.0614 -0.9752
 2154TIP3    H2 6404   0.834   4.778   3.506  1.0260 -0.1484 -1.1322
 2155TIP3   OH2 6405   2.306   5.318   5.097 -0.1935 -0.7933 -0.0771
 2155TIP3    H1 6406   2.226   5.274   5.069 -0.3691 -0.7399  0.3253
 2155TIP3    H2 6407   2.356   5.251   5.143  0.3077 -1.0021 -0.9206
 2156TIP3   OH2 6408   1.404   4.880   6.255  0.0262 -0.0242 -0.3711
 2156TIP3    H1 6409   1.449   4.848   6.333  0.0666  0.9818  0.0284
 2156TIP3    H2 6410   1.331   4.931   6.289 -1.1408 -1.1905 -1.0090
 2157TIP3   OH2 6411   1.898   1.505   5.268  0.2878 -0.6160  0.5995
 2157TIP3    H1 6412   1.938   1.556   5.339  3.9411 -0.8045 -1.0832
 2157TIP3    H2 6413   1.813   1.547   5.254  1.1861  2.0795  2.3390
 2158TIP3   OH2 6414   2.864   0.306   6.719 -0.0207 -0.4667  0.3229
 2158TIP3    H1 6415   2.941   0.260   6.687 -0.8356 -1.6796  0.0297
 2158TIP3    H2 6416   2.834   0.254   6.794 -0.0103  0.5281  1.0391
 2159TIP3   OH2 6417   6.645   5.024   0.925 -0.0775  0.2722 -0.1463
 2159TIP3    H1 6418   6.634   5.046   1.017  2.5419 -0.7661  0.4901
 2159TIP3    H2 6419   6.608   4.936   0.917 -1.0416  0.6745 -0.3177
 2160TIP3   OH2 6420   0.138   1.091   1.613 -0.7585 -0.4885  0.7448
 2160TIP3    H1 6421   0.079   1.022   1.584  0.7059 -0.3922 -3.1586
 2160TIP3    H2 6422   0.109   1.169   1.565 -0.0769  0.6672  2.1361
 2161TIP3   OH2 6423   5.999   0.774   0.192  0.0616 -0.1409 -0.2530
 2161TIP3    H1 6424   5.969   0.847   0.138 -0.3702  0.9481  1.3983
 2161TIP3    H2 6425   6.041   0.815   0.267 -1.6721 -1.5125  1.5814
 2162TIP3   OH2 6426   3.164   1.071   4.166  0.1609 -0.0169  0.3640
 2162TIP3    H1 6427   3.144   1.131   4.238 -0.7459 -0.8163  0.7970
 2162TIP3    H2 6428   3.087   1.014   4.160  0.8875 -0.9608 -0.2180
 2163TIP3   OH2 6429   2.200   6.770   0.918 -0.3352  0.3763  0.1319
 2163TIP3    H1 6430   2.252   6.829   0.972 -0.6799 -0.1429  1.0487
 2163TIP3    H2 6431   2.239   6.777   0.831  1.1176  0.1953  0.7433
 2164TIP3   OH2 6432   5.285   6.554   0.308 -0.0083 -0.2854 -0.1652
 2164TIP3    H1 6433   5.364   6.555   0.254  0.9153  0.4394  1.1406
 2164TIP3    H2 6434   5.258   6.645   0.313  0.3040 -0.2427  1.1015
 2165TIP3   OH2 6435   0.046   7.565   6.806 -0.2575 -0.8835 -0.0505
 2165TIP3    H1 6436   0.027   7.650   6.846 -1.1986 -1.2659  0.3381
 2165TIP3    H2 6437  -0.009   7.561   6.728  2.3319  0.2965 -2.0696
 2166TIP3   OH2 6438   2.487   5.029   5.018 -0.1792 -0.1676 -0.4728
 2166TIP3    H1 6439   2.488   5.089   5.093  1.6989  1.1757 -1.5055
 2166TIP3    H2 6440   2.542   4.956   5.045  0.9601  0.5820 -0.7119
 2167TIP3   OH2 6441   7.297   3.825   4.251 -0.1413  0.1420  0.5665
 2167TIP3    H1 6442   7.367   3.788   4.305  2.6230  2.9399 -0.7701
 2167TIP3    H2 6443   7.265   3.899   4.301  0.0984  0.7392 -0.1423
 2168TIP3   OH2 6444   2.194   1.831   1.340 -0.6778  0.0832 -0.2181
 2168TIP3    H1 6445   2.273   1.834   1.287  0.4688  0.1352  1.4073
 2168TIP3    H2 6446   2.123   1.843   1.278  0.1865 -4.5376 -2.5494
 2169TIP3   OH2 6447   5.948   6.478   6.414 -0.2040 -0.4581 -0.1597
 2169TIP3    H1 6448   5.917   6.442   6.497  0.9067 -0.0185  0.4695
 2169TIP3    H2 6449   5.998   6.556   6.439  0.4198 -0.4956 -1.2172
 2170TIP3   OH2 6450   7.316   7.520   3.865 -0.3179 -0.2286 -0.0526
 2170TIP3    H1 6451   7.264   7.502   3.786  0.5234  1.6870 -1.1198
 2170TIP3    H2 6452   7.269   7.591   3.909  0.9167  0.9992 -0.6366
 2171TIP3   OH2 6453   1.195   5.080   6.170 -0.5323  0.0518  0.0775
 2171TIP3    H1 6454   1.185   5.173   6.150 -0.2578  0.1398  0.3310
 2171TIP3    H2 6455   1.106   5.047   6.175 -0.6018 -0.0712 -1.6748
 2172TIP3   OH2 6456   3.347   4.861   1.846  0.1036  0.3962  0.0835
 2172TIP3    H1 6457   3.326   4.780   1.892  1.6021  0.3578  0.7583
 2172TIP3    H2 6458   3.323   4.930   1.908  1.1454  0.3747  0.5311
 2173TIP3   OH2 6459   0.497   3.071   3.274 -0.3431 -0.0142 -0.2447
 2173TIP3    H1 6460   0.435   3.140   3.299 -0.8100 -0.5248  0.0543
 2173TIP3    H2 6461   0.472   3.049   3.184 -0.3643  0.0262 -0.2490
 2174TIP3   OH2 6462   5.472   4.356   0.852  0.4160  0.2953  0.4002
 2174TIP3    H1 6463   5.472   4.413   0.929  0.6397 -1.1108  1.4946
 2174TIP3    H2 6464   5.386   4.315   0.852  0.2267  0.6755 -0.4212
 2175TIP3   OH2 6465   8.052   0.163   1.040  0.2108  0.2085 -0.2273
 2175TIP3    H1 6466   8.078   0.123   1.122 -0.4676  0.1861 -0.0180
 2175TIP3    H2 6467   8.057   0.257   1.057  2.8336  0.2988 -1.0357
 2176TIP3   OH2 6468   0.169   6.492   0.691 -0.8575  0.2341 -0.0091
 2176TIP3    H1 6469   0.231   6.557   0.656 -1.6592  0.1772 -1.6055
 2176TIP3    H2 6470   0.116   6.542   0.753  0.8452  0.2476  1.5456
 2177TIP3   OH2 6471   4.382   0.654   0.276  0.0292 -0.4775  0.6199
 2177TIP3    H1 6472   4.397   0.735   0.325 -2.4752  0.0367  0.6395
 2177TIP3    H2 6473   4.345   0.594   0.341 -2.8821  0.0583 -0.3955
 2178TIP3   OH2 6474   6.930   4.038   4.119 -0.2775  0.5542  0.7041
 2178TIP3    H1 6475   6.990   4.095   4.166 -1.2938  1.6678  0.6935
 2178TIP3    H2 6476   6.851   4.037   4.172 -0.7966  0.3590 -0.0492
 2179TIP3   OH2 6477   5.799   7.444   3.057 -0.4820  0.4969  0.0937
 2179TIP3    H1 6478   5.874   7.404   3.101  0.4981  2.9385  0.8576
 2179TIP3    H2 6479   5.744   7.477   3.129 -0.4863  1.7332 -0.4414
 2180TIP3   OH2 6480   5.473   7.420   4.589 -0.0622 -0.1932 -0.2499
 2180TIP3    H1 6481   5.514   7.487   4.534 -0.5168  0.3001  0.0045
 2180TIP3    H2 6482   5.523   7.340   4.570 -0.7193 -0.2416 -2.0279
 2181TIP3   OH2 6483   5.194   4.722   4.097 -0.0305  0.2965 -0.0492
 2181TIP3    H1 6484   5.121   4.735   4.158  0.1015 -1.3698  0.4953
 2181TIP3    H2 6485   5.271   4.754   4.144  0.0029 -0.5667  0.4942
 2182TIP3   OH2 6486   1.382   2.153   1.665  0.0920  0.1200  0.2578
 2182TIP3    H1 6487   1.454   2.217   1.673  0.3488 -0.1598  0.1927
 2182TIP3    H2 6488   1.337   2.158   1.749  0.1319  0.3625  0.2669
 2183TIP3   OH2 6489   2.300   1.512   0.667  0.0258 -0.4943 -0.2580
 2183TIP3    H1 6490   2.295   1.542   0.576 -1.4879  1.7805  0.4821
 2183TIP3    H2 6491   2.212   1.479   0.686 -0.1686  0.5565  0.8089
 2184TIP3   OH2 6492   5.370   0.214   1.334 -0.1712 -0.3960 -0.1138
 2184TIP3    H1 6493   5.400   0.169   1.412  2.0947  0.0039 -0.6724
 2184TIP3    H2 6494   5.289   0.170   1.310  0.3268 -2.0894  1.1114
 2185TIP3   OH2 6495   3.329   0.878   6.172  0.3492  0.4977 -0.8158
 2185TIP3    H1 6496   3.390   0.886   6.098  1.2602 -1.1270 -0.3073
 2185TIP3    H2 6497   3.312   0.784   6.178 -1.5891  0.8275 -0.4034
 2186TIP3   OH2 6498   0.103   4.873   0.042  0.2876  0.5564  0.1494
 2186TIP3    H1 6499   0.198   4.883   0.035  0.4076 -0.0180  0.8478
 2186TIP3    H2 6500   0.068   4.934  -0.023  1.1782 -1.1824 -2.0952
 2187TIP3   OH2 6501   2.042   5.478   5.324  0.2487  0.0592 -0.5729
 2187TIP3    H1 6502   2.102   5.466   5.398  0.6550 -0.0541 -0.9187
 2187TIP3    H2 6503   1.986   5.401   5.327 -1.5832  1.3307  1.2868
 2188TIP3   OH2 6504   1.568   1.601   1.204  0.3924  0.1623  0.5320
 2188TIP3    H1 6505   1.528   1.611   1.118 -0.1229 -2.3957  0.4135
 2188TIP3    H2 6506   1.586   1.691   1.232 -1.5304  1.1816 -1.2268
 2189TIP3   OH2 6507   2.414   6.898   6.504 -0.2819  0.7771 -0.1698
 2189TIP3    H1 6508   2.340   6.936   6.457 -0.8913 -0.1528 -0.0001
 2189TIP3    H2 6509   2.401   6.803   6.495 -0.7081  0.5342  2.2706
 2190TIP3   OH2 6510   5.970   1.991   4.525 -0.4541  0.5055  0.1286
 2190TIP3    H1 6511   5.996   2.066   4.579 -1.0924 -0.4809  1.8852
 2190TIP3    H2 6512   5.913   1.939   4.582 -1.3063 -0.5208 -1.5697
 2191TIP3   OH2 6513   0.332   2.506   1.925 -0.2203  0.1221  0.2268
 2191TIP3    H1 6514   0.408   2.468   1.969  1.2883  2.1139 -0.4918
 2191TIP3    H2 6515   0.289   2.432   1.883 -0.1204 -1.4077  2.6839
 2192TIP3   OH2 6516   2.747   2.698   0.867  0.2530  0.0857 -0.0138
 2192TIP3    H1 6517   2.792   2.616   0.887 -0.2414 -0.1584  0.1336
 2192TIP3    H2 6518   2.748   2.704   0.772  0.2691 -0.1029 -0.0252
 2193TIP3   OH2 6519   3.189   6.553   4.579 -0.1306  0.0601  0.0828
 2193TIP3    H1 6520   3.149   6.546   4.493 -1.3664  1.0954  0.5428
 2193TIP3    H2 6521   3.119   6.534   4.641  0.0996  1.6493  0.9051
 2194TIP3   OH2 6522   7.068   0.115   3.984 -0.1987  0.7520 -0.1011
 2194TIP3    H1 6523   7.036   0.030   4.014  0.1974 -0.2349 -2.2400
 2194TIP3    H2 6524   7.117   0.150   4.058 -0.1883 -0.9945  0.7711
 2195TIP3   OH2 6525   5.534   1.596   1.967  0.0608  0.1026  0.3614
 2195TIP3    H1 6526   5.454   1.636   1.931 -0.6856 -1.5553  0.0838
 2195TIP3    H2 6527   5.604   1.655   1.940 -1.1229  2.2246  1.5426
 2196TIP3   OH2 6528   8.290   6.892   5.345  0.2388  0.2303  0.4006
 2196TIP3    H1 6529   8.203   6.859   5.369  0.4199 -0.8813 -0.4098
 2196TIP3    H2 6530   8.328   6.920   5.428  0.2316 -2.0294  1.2465
 2197TIP3   OH2 6531   3.289   1.591   1.728  0.1569 -0.4909  0.0375
 2197TIP3    H1 6532   3.379   1.557   1.733  0.7935  0.2520 -3.5223
 2197TIP3    H2 6533   3.300   1.684   1.709 -1.3520 -0.4487 -0.7775
 2198TIP3   OH2 6534   3.550   1.324   2.119  0.0043 -0.3397 -0.4225
 2198TIP3    H1 6535   3.502   1.405   2.102  1.5894  0.8715  0.4660
 2198TIP3    H2 6536   3.547   1.276   2.037 -0.0288  1.1675 -1.3401
 2199TIP3   OH2 6537   1.408   0.367   1.944 -0.2322  0.4211  0.4044
 2199TIP3    H1 6538   1.353   0.445   1.958 -0.4295  0.3622 -0.0114
 2199TIP3    H2 6539   1.368   0.324   1.869  0.5118  0.4897 -0.0395
 2200TIP3   OH2 6540   7.228   3.033   6.177  0.2965  0.2620  0.4519
 2200TIP3    H1 6541   7.179   2.968   6.127  2.0402 -2.1727  1.7129
 2200TIP3    H2 6542   7.165   3.066   6.241 -0.4890 -0.6008  0.1445
 2201TIP3   OH2 6543   2.968   2.674   6.797 -0.8461 -0.3958  0.2173
 2201TIP3    H1 6544   3.003   2.611   6.859 -1.1329 -1.6295 -0.8468
 2201TIP3    H2 6545   2.982   2.634   6.711 -2.6666  0.1584 -0.3836
 2202TIP3   OH2 6546   1.942   6.677   6.409 -0.4684  0.0459  0.0863
 2202TIP3    H1 6547   1.978   6.704   6.325 -1.6425  1.0929 -0.1227
 2202TIP3    H2 6548   1.931   6.760   6.457 -0.9939 -0.4135  0.7739
 2203TIP3   OH2 6549   2.514   5.509   0.934  0.2480  0.2620 -0.2639
 2203TIP3    H1 6550   2.451   5.491   0.863  0.6295 -1.0958 -0.2825
 2203TIP3    H2 6551   2.543   5.423   0.962 -0.2914  0.7532  1.9450
 2204TIP3   OH2 6552   4.758   5.035   0.234 -0.5932  0.3197 -0.4157
 2204TIP3    H1 6553   4.810   5.074   0.304  0.6800 -0.4172 -0.9266
 2204TIP3    H2 6554   4.810   4.961   0.202 -0.9597  0.8180 -2.3548
 2205TIP3   OH2 6555   5.280   4.658   1.952 -0.0424  0.2717  0.1299
 2205TIP3    H1 6556   5.222   4.714   2.004 -0.4423  2.0956 -2.1691
 2205TIP3    H2 6557   5.286   4.700   1.867  0.1719 -2.8483 -1.5649
 2206TIP3   OH2 6558   7.025   6.753   3.916 -0.0386  0.3302 -0.0163
 2206TIP3    H1 6559   6.979   6.810   3.978  1.9540  2.2906 -0.2161
 2206TIP3    H2 6560   7.099   6.719   3.966 -0.3701 -0.9143 -0.3474
 2207TIP3   OH2 6561   5.468   3.045   5.533  0.1188 -0.5576 -0.0474
 2207TIP3    H1 6562   5.511   3.075   5.452  1.7208  0.4768  1.1213
 2207TIP3    H2 6563   5.426   3.123   5.569  0.7536 -0.6241  0.8871
 2208TIP3   OH2 6564   4.233   7.176   2.866  0.0794 -0.0216  0.2718
 2208TIP3    H1 6565   4.147   7.158   2.828 -0.3071 -0.0561  1.1414
 2208TIP3    H2 6566   4.245   7.271   2.855 -0.5320  0.1601  1.0616
 2209TIP3   OH2 6567   1.137   1.299   1.382  0.2167 -0.1872  0.1167
 2209TIP3    H1 6568   1.100   1.361   1.445  0.8055 -0.4281  0.7062
 2209TIP3    H2 6569   1.203   1.348   1.334 -0.7990  0.2268 -0.8958
 2210TIP3   OH2 6570   1.524   0.210   2.122  0.6142  0.1468 -0.3329
 2210TIP3    H1 6571   1.505   0.291   2.075 -0.5435 -0.2096 -0.5229
 2210TIP3    H2 6572   1.492   0.141   2.063  1.5753 -0.4538 -0.1761
 2211TIP3   OH2 6573   6.754   1.181   0.646  0.7298  0.2599 -0.3187
 2211TIP3    H1 6574   6.824   1.120   0.671  2.1358  1.4887 -1.0510
 2211TIP3    H2 6575   6.785   1.266   0.678 -0.8037  0.7294 -0.0104
 2212TIP3   OH2 6576   6.718   5.738   5.790 -0.4815 -0.0908 -0.0734
 2212TIP3    H1 6577   6.811   5.714   5.789 -0.4758 -0.0838 -1.2701
 2212TIP3    H2 6578   6.718   5.834   5.794 -0.3528  0.0870 -2.7316
 2213TIP3   OH2 6579   5.006   2.758   3.327 -0.7775  0.5904 -0.4428
 2213TIP3    H1 6580   5.064   2.683   3.317 -0.3960  0.8848 -0.4907
 2213TIP3    H2 6581   4.920   2.727   3.300 -0.6187  0.1753 -0.4664
 2214TIP3   OH2 6582   2.540   5.841   2.621  0.3097  0.4670  0.1248
 2214TIP3    H1 6583   2.563   5.845   2.528  1.4023 -3.2697  0.0650
 2214TIP3    H2 6584   2.452   5.803   2.623  1.1319 -1.5672  0.5322
 2215TIP3   OH2 6585   4.015   7.309   1.453  0.1358  0.1396  0.7231
 2215TIP3    H1 6586   4.012   7.386   1.509  1.2421  1.6410 -1.1499
 2215TIP3    H2 6587   4.090   7.324   1.395 -0.7769 -1.4436 -0.9718
 2216TIP3   OH2 6588   5.121   5.518   1.380  0.3967 -0.0379 -0.1643
 2216TIP3    H1 6589   5.026   5.523   1.393  0.4789  0.6364  0.2382
 2216TIP3    H2 6590   5.157   5.506   1.468  0.6360 -1.4057 -0.4186
 2217TIP3   OH2 6591   3.697   0.800   6.611 -0.3744  0.0509  0.0598
 2217TIP3    H1 6592   3.758   0.838   6.673  1.4079 -1.0377 -0.9446
 2217TIP3    H2 6593   3.682   0.711   6.644 -0.3959 -0.1139 -0.3840
 2218TIP3   OH2 6594   8.233   3.351   2.217  0.1113  0.2093 -0.2155
 2218TIP3    H1 6595   8.293   3.303   2.273  0.0015  0.9488  0.5573
 2218TIP3    H2 6596   8.148   3.311   2.234  0.6016 -2.3646 -2.9694
 2219TIP3   OH2 6597   4.547   0.038   0.361 -0.0714 -0.2196  0.3627
 2219TIP3    H1 6598   4.495   0.104   0.316 -0.3073 -0.0786  0.8304
 2219TIP3    H2 6599   4.630   0.082   0.380  0.3516 -0.5445 -0.6637
 2220TIP3   OH2 6600   1.158   1.260   6.283 -0.3185  0.4664 -0.2588
 2220TIP3    H1 6601   1.073   1.291   6.250  0.0597  1.8342  0.0128
 2220TIP3    H2 6602   1.149   1.264   6.378 -0.6787 -1.4783 -0.1670
 2221TIP3   OH2 6603   7.227   5.306   4.611  0.0457 -0.6501  0.0555
 2221TIP3    H1 6604   7.287   5.376   4.637  0.9326 -2.4614  3.4982
 2221TIP3    H2 6605   7.146   5.326   4.658 -0.7320 -0.4571 -1.2918
 2222TIP3   OH2 6606   7.043   3.009   5.619  0.2029  0.6922  0.0188
 2222TIP3    H1 6607   6.982   3.067   5.665 -1.2299 -0.6444 -0.1227
 2222TIP3    H2 6608   6.993   2.929   5.603  1.6934 -0.0825 -1.0118
 2223TIP3   OH2 6609   1.970   2.663   1.195  0.1074 -0.0708 -0.4850
 2223TIP3    H1 6610   1.929   2.640   1.112 -0.0640  2.7977 -1.3191
 2223TIP3    H2 6611   1.996   2.579   1.233 -0.6880 -1.5575 -2.9537
 2224TIP3   OH2 6612   1.633   4.785   0.921 -0.1068 -0.2133  0.4539
 2224TIP3    H1 6613   1.611   4.804   0.830  0.0218 -2.4589 -0.1086
 2224TIP3    H2 6614   1.550   4.783   0.967 -0.3561 -0.8627 -0.0125
 2225TIP3   OH2 6615   0.680   3.182   6.523 -0.5304 -0.2111 -0.0567
 2225TIP3    H1 6616   0.679   3.171   6.428 -1.0094 -0.5771 -0.0093
 2225TIP3    H2 6617   0.589   3.171   6.550 -0.1362 -1.9925  0.6577
 2226TIP3   OH2 6618   6.566   4.659   1.502 -0.0177  0.0337  0.1631
 2226TIP3    H1 6619   6.604   4.715   1.569 -1.3193 -1.5993  2.4395
 2226TIP3    H2 6620   6.494   4.711   1.465  0.4048  0.7984  0.4021
 2227TIP3   OH2 6621   1.050   6.927   0.970 -0.2556 -0.4125 -0.1119
 2227TIP3    H1 6622   1.022   6.950   0.882 -2.1309 -1.0284  0.2693
 2227TIP3    H2 6623   1.093   6.842   0.961  1.2558  0.3589 -0.6474
 2228TIP3   OH2 6624   6.250   4.977   3.803  0.7833  0.2644  0.0531
 2228TIP3    H1 6625   6.278   4.887   3.787  0.7803  0.6171 -2.2443
 2228TIP3    H2 6626   6.217   4.976   3.893  1.0012 -1.9642  0.1647
 2229TIP3   OH2 6627   2.799   5.501   5.545 -0.8208 -0.2041 -0.2504
 2229TIP3    H1 6628   2.789   5.509   5.451 -0.0784 -1.2999 -0.4454
 2229TIP3    H2 6629   2.890   5.528   5.562 -1.2198  0.8745  0.2861
 2230TIP3   OH2 6630   2.136   6.110   5.536  0.1987  0.0586  0.0125
 2230TIP3    H1 6631   2.200   6.043   5.561 -0.1042  0.1926  1.1901
 2230TIP3    H2 6632   2.159   6.186   5.589 -1.4077 -0.1502  1.0760
 2231TIP3   OH2 6633   5.653   4.543   0.727 -0.2464  0.0194 -0.9121
 2231TIP3    H1 6634   5.594   4.470   0.747  0.0984 -0.7269 -2.4796
 2231TIP3    H2 6635   5.595   4.614   0.701 -0.5000 -0.3951 -1.4849
 2232TIP3   OH2 6636   2.447   6.239   4.734 -0.4285  0.2190  0.2180
 2232TIP3    H1 6637   2.459   6.331   4.711  1.3769  0.3842  1.5778
 2232TIP3    H2 6638   2.402   6.240   4.818 -1.8165 -0.2256 -0.4812
 2233TIP3   OH2 6639   7.358   1.735   6.489  0.1532 -0.3462  0.3290
 2233TIP3    H1 6640   7.372   1.807   6.427  1.6317 -1.0265 -0.1980
 2233TIP3    H2 6641   7.406   1.761   6.567  1.8100 -1.2429 -0.3111
 2234TIP3   OH2 6642   7.616   5.999   2.699  0.7954  0.1064 -0.9766
 2234TIP3    H1 6643   7.685   6.006   2.633  0.5855 -4.0367 -1.9313
 2234TIP3    H2 6644   7.534   5.998   2.649  0.0712  3.0783 -0.0076
 2235TIP3   OH2 6645   4.360   0.494   3.852  0.0764 -0.1151  0.7225
 2235TIP3    H1 6646   4.417   0.435   3.803  0.1625 -0.8463  1.6850
 2235TIP3    H2 6647   4.273   0.453   3.847  0.2632 -0.6885  1.9460
 2236TIP3   OH2 6648   0.604   1.047   6.242  0.3687 -0.5897  0.1912
 2236TIP3    H1 6649   0.557   0.990   6.303  0.1382  0.1553  0.7205
 2236TIP3    H2 6650   0.693   1.051   6.276 -0.0555  0.8108  1.2066
 2237TIP3   OH2 6651   8.188   4.037   0.299  1.0618 -0.1915  0.0106
 2237TIP3    H1 6652   8.256   4.086   0.254  0.8434 -0.6893 -0.8824
 2237TIP3    H2 6653   8.129   4.007   0.229  0.1592 -0.1260  0.7183
 2238TIP3   OH2 6654   2.976   2.605   0.465  0.1473 -0.4385 -0.7040
 2238TIP3    H1 6655   2.967   2.700   0.452 -0.6839 -0.5545 -1.0759
 2238TIP3    H2 6656   3.069   2.588   0.451  0.9140  0.7242  2.2192
 2239TIP3   OH2 6657   0.493   3.256   4.439 -0.2495 -0.2226  0.4082
 2239TIP3    H1 6658   0.408   3.220   4.414 -1.7293  2.8199  0.6960
 2239TIP3    H2 6659   0.506   3.226   4.529 -0.7983 -1.0679  0.2164
 2240TIP3   OH2 6660   4.046   5.999   6.028 -0.2577  0.1717 -0.7270
 2240TIP3    H1 6661   3.950   6.004   6.020 -0.1394 -0.3526 -3.3383
 2240TIP3    H2 6662   4.062   5.999   6.122 -2.7797  0.9606 -0.2199
 2241TIP3   OH2 6663   3.076   0.413   4.053  0.1268  0.0960 -0.8430
 2241TIP3    H1 6664   3.096   0.499   4.092 -0.3144  0.3895 -1.2484
 2241TIP3    H2 6665   3.116   0.416   3.967  0.5150 -0.2926 -0.6794
 2242TIP3   OH2 6666   4.211   1.780   3.404 -0.0566 -0.3631  0.3326
 2242TIP3    H1 6667   4.223   1.689   3.432 -0.0959 -0.1118  1.2047
 2242TIP3    H2 6668   4.300   1.811   3.386 -0.0439 -0.5778  0.0200
 2243TIP3   OH2 6669   3.905   3.696   5.352  0.3972 -0.3611  0.1091
 2243TIP3    H1 6670   3.898   3.602   5.367 -1.7584 -0.5107 -1.3322
 2243TIP3    H2 6671   3.900   3.705   5.257  0.6007  1.2082  0.2282
 2244TIP3   OH2 6672   0.133   3.844   4.465 -0.7167  0.8919 -0.3864
 2244TIP3    H1 6673   0.133   3.933   4.428 -1.3440  0.4592 -1.4767
 2244TIP3    H2 6674   0.041   3.826   4.485 -0.3913  1.1426  1.5431
 2245TIP3   OH2 6675   4.808   0.651   5.520  0.0422 -0.5375 -0.0488
 2245TIP3    H1 6676   4.799   0.740   5.554  0.0768 -1.3971  2.3757
 2245TIP3    H2 6677   4.864   0.606   5.583 -1.5922 -2.8269 -0.0992
 2246TIP3   OH2 6678   4.485   5.681   1.980 -0.3148 -1.0134  0.6502
 2246TIP3    H1 6679   4.399   5.723   1.973 -0.4944 -1.5283 -0.5021
 2246TIP3    H2 6680   4.480   5.605   1.922  0.9129 -1.0571  0.5614
 2247TIP3   OH2 6681   2.642   5.049   3.597 -0.3824 -0.2724 -0.0532
 2247TIP3    H1 6682   2.711   5.094   3.548  0.3495 -0.1649  1.0394
 2247TIP3    H2 6683   2.594   5.119   3.641  0.6093 -0.4987  1.4565
 2248TIP3   OH2 6684   7.970   2.986   5.524 -0.3446 -0.0440 -0.9099
 2248TIP3    H1 6685   7.997   2.904   5.565 -0.5516 -0.1257 -0.9369
 2248TIP3    H2 6686   7.936   2.960   5.439  0.9280  0.2107 -1.5257
 2249TIP3   OH2 6687   0.831   6.187   4.962 -1.2656 -0.1658 -0.2618
 2249TIP3    H1 6688   0.808   6.240   4.886 -0.3069  2.9536  1.4667
 2249TIP3    H2 6689   0.773   6.111   4.957 -2.7643  1.0370 -2.8714
 2250TIP3   OH2 6690   7.715   3.523   6.745 -0.3386  0.2287 -0.0148
 2250TIP3    H1 6691   7.739   3.507   6.837  1.1758 -0.2246 -0.4633
 2250TIP3    H2 6692   7.705   3.436   6.707 -0.9333  0.4151 -0.2961
 2251TIP3   OH2 6693   5.249   1.129   0.768  0.3526 -0.1027 -0.1222
 2251TIP3    H1 6694   5.226   1.199   0.707  0.6903  0.4969  0.4378
 2251TIP3    H2 6695   5.166   1.083   0.783  0.2243 -0.1390 -0.8746
 2252TIP3   OH2 6696   0.464   5.178   3.853 -0.3256  0.5910  0.3904
 2252TIP3    H1 6697   0.513   5.201   3.933  0.3320 -0.7945  0.4065
 2252TIP3    H2 6698   0.511   5.222   3.783  0.1152  0.4007  0.5662
 2253TIP3   OH2 6699   3.299   5.079   4.447  0.0510  0.3939  0.1974
 2253TIP3    H1 6700   3.388   5.076   4.413  1.2612 -1.5448  3.1893
 2253TIP3    H2 6701   3.259   4.997   4.418  0.0038  0.2340  0.7022
 2254TIP3   OH2 6702   0.774   3.993   1.020 -0.1746 -0.0683  0.0215
 2254TIP3    H1 6703   0.831   4.056   1.064  0.2036  0.4193 -1.1309
 2254TIP3    H2 6704   0.701   4.045   0.988 -0.0392 -0.2583 -0.6225
 2255TIP3   OH2 6705   3.325   0.970   0.288  0.5012 -0.4002  0.1918
 2255TIP3    H1 6706   3.325   1.016   0.372 -0.0530 -3.2942  1.9123
 2255TIP3    H2 6707   3.417   0.970   0.261  0.3600  3.0621 -0.8408
 2256TIP3   OH2 6708   6.241   7.879   0.341 -0.3369  0.0895 -0.5389
 2256TIP3    H1 6709   6.311   7.889   0.277 -0.3218 -0.1940 -0.5700
 2256TIP3    H2 6710   6.175   7.827   0.296 -1.2680  1.6694 -1.0525
 2257TIP3   OH2 6711   3.825   2.299   3.007  0.1077 -0.1642  0.2538
 2257TIP3    H1 6712   3.826   2.301   2.911  0.8457  0.3310  0.2614
 2257TIP3    H2 6713   3.809   2.207   3.029 -0.7446 -0.1679 -0.3360
 2258TIP3   OH2 6714   2.763   3.177   4.058  0.1177 -0.6147 -0.1769
 2258TIP3    H1 6715   2.710   3.214   4.129  0.8188 -1.0877  0.6136
 2258TIP3    H2 6716   2.699   3.147   3.994 -0.5205  0.1384  0.0862
 2259TIP3   OH2 6717   3.130   1.055   6.104 -0.2406  0.0112 -0.1616
 2259TIP3    H1 6718   3.163   1.129   6.156 -0.4862  0.2797 -0.3837
 2259TIP3    H2 6719   3.185   0.981   6.129 -0.8494 -0.0506  1.0640
 2260TIP3   OH2 6720   2.339   7.378   1.305 -0.7417 -0.1681  0.5277
 2260TIP3    H1 6721   2.316   7.369   1.212  0.0225 -0.5990  0.3663
 2260TIP3    H2 6722   2.431   7.350   1.309  0.7252  3.8970  0.6465
 2261TIP3   OH2 6723   7.131   1.009   2.024  0.1838  0.1982 -0.5342
 2261TIP3    H1 6724   7.189   0.962   1.965  0.5817 -0.5660  0.4425
 2261TIP3    H2 6725   7.185   1.029   2.100 -0.6935 -0.1124  0.1903
 2262TIP3   OH2 6726   5.241   6.323   6.269  0.1073 -0.2816 -0.5528
 2262TIP3    H1 6727   5.162   6.368   6.240  1.1578  1.4530 -0.9228
 2262TIP3    H2 6728   5.269   6.272   6.193  0.0352  0.1503 -0.8757
 2263TIP3   OH2 6729   3.615   6.599   1.259 -0.5095  0.0385  0.2172
 2263TIP3    H1 6730   3.530   6.639   1.277  0.3536  1.1715  2.0207
 2263TIP3    H2 6731   3.618   6.593   1.164 -2.3239  0.6012  0.0774
 2264TIP3   OH2 6732   1.555   2.659   2.269 -0.0529 -0.2553  0.0901
 2264TIP3    H1 6733   1.535   2.705   2.350 -0.6678 -0.3421 -0.0056
 2264TIP3    H2 6734   1.644   2.685   2.247  0.4880 -1.0217  1.3278
 2265TIP3   OH2 6735   1.291   0.084   3.437 -1.2643 -0.4975  0.4638
 2265TIP3    H1 6736   1.264   0.002   3.479 -0.2413 -0.6970  0.7483
 2265TIP3    H2 6737   1.377   0.065   3.401 -1.4241  0.1786 -0.3044
 2266TIP3   OH2 6738   3.631   6.415   3.076 -0.3021  0.3803 -0.5374
 2266TIP3    H1 6739   3.627   6.343   3.139  0.0958  2.1043  1.5841
 2266TIP3    H2 6740   3.615   6.494   3.129 -0.9529  1.8569 -2.7857
 2267TIP3   OH2 6741   4.640   6.402   1.505 -0.3983 -0.2611 -0.1927
 2267TIP3    H1 6742   4.689   6.453   1.440  0.0367  0.8876  0.9902
 2267TIP3    H2 6743   4.549   6.429   1.494 -0.5993 -1.3858 -1.4827
 2268TIP3   OH2 6744   6.134   6.030   4.768  0.2323 -0.2937  0.0697
 2268TIP3    H1 6745   6.093   6.087   4.703  1.3314 -1.6110 -1.8705
 2268TIP3    H2 6746   6.118   6.074   4.851 -0.0726  2.1881 -1.1995
 2269TIP3   OH2 6747   8.061   0.691   1.514  0.4552  0.2845  0.2904
 2269TIP3    H1 6748   8.104   0.654   1.591 -0.1462  0.3523  0.6702
 2269TIP3    H2 6749   8.132   0.729   1.462  0.9169 -0.1749  0.5838
 2270TIP3   OH2 6750   8.075   5.910   0.237 -0.4974  0.4447 -0.2619
 2270TIP3    H1 6751   7.998   5.901   0.293 -0.6510  1.0647 -0.3716
 2270TIP3    H2 6752   8.145   5.937   0.296 -0.2915 -0.3781 -0.1161
 2271TIP3   OH2 6753   3.163   0.766   1.019  0.0357  0.2391  0.2499
 2271TIP3    H1 6754   3.094   0.830   1.003  0.8481  1.0480 -0.1695
 2271TIP3    H2 6755   3.120   0.694   1.064 -1.7641 -0.7450 -2.7580
 2272TIP3   OH2 6756   7.275   4.875   4.921 -0.3035  0.0719 -0.4976
 2272TIP3    H1 6757   7.262   4.882   4.827 -0.1852 -0.5773 -0.5644
 2272TIP3    H2 6758   7.202   4.923   4.959 -0.6897 -0.1806 -0.9131
 2273TIP3   OH2 6759   8.135   3.467   6.721  0.6318 -0.3469  0.1190
 2273TIP3    H1 6760   8.222   3.500   6.701  0.2977 -0.2282 -1.2518
 2273TIP3    H2 6761   8.095   3.535   6.774 -0.3435  2.0183 -3.2995
 2274TIP3   OH2 6762   6.838   3.070   1.044 -0.1155  0.0161 -0.1972
 2274TIP3    H1 6763   6.888   3.008   0.992  0.2797  0.7818 -0.7538
 2274TIP3    H2 6764   6.782   3.016   1.099 -1.5987 -0.8119 -2.4260
 2275TIP3   OH2 6765   1.320   3.800   2.784 -1.0109  0.1324  0.0497
 2275TIP3    H1 6766   1.311   3.728   2.721 -0.9857 -0.1079  0.3189
 2275TIP3    H2 6767   1.345   3.875   2.730  1.0607 -0.5247 -0.0130
 2276TIP3   OH2 6768   1.572   3.883   0.818  0.1633 -0.3746 -0.1921
 2276TIP3    H1 6769   1.573   3.898   0.723  0.4569  1.1764  0.0187
 2276TIP3    H2 6770   1.664   3.889   0.844 -0.0282  0.4317  0.3398
 2277TIP3   OH2 6771   6.171   2.347   1.909  0.4834  0.2855 -0.1159
 2277TIP3    H1 6772   6.249   2.314   1.955  0.0928  1.4845  1.5136
 2277TIP3    H2 6773   6.193   2.437   1.886  0.6181 -0.2511 -2.2792
 2278TIP3   OH2 6774   2.120   1.251   0.408  0.1607 -0.3368  0.0007
 2278TIP3    H1 6775   2.045   1.193   0.413  0.8141 -1.3273 -1.2376
 2278TIP3    H2 6776   2.086   1.337   0.432 -1.5019 -0.6504 -1.1144
 2279TIP3   OH2 6777   5.250   1.668   2.859  0.2072  0.4837  0.3006
 2279TIP3    H1 6778   5.311   1.594   2.865  0.3966  0.3487 -2.0364
 2279TIP3    H2 6779   5.187   1.641   2.791  0.5115  2.5679 -0.8954
 2280TIP3   OH2 6780   5.303   7.271   0.993 -0.3385 -0.1271  0.2555
 2280TIP3    H1 6781   5.220   7.251   0.950 -0.8957  0.1877  1.1652
 2280TIP3    H2 6782   5.279   7.295   1.082  0.6141  1.1698  0.1886
 2281TIP3   OH2 6783   5.802   4.342   4.680  0.5655  0.1180 -0.0522
 2281TIP3    H1 6784   5.724   4.317   4.729  1.2874  0.9380  1.6101
 2281TIP3    H2 6785   5.852   4.396   4.741  1.4978  1.2559 -1.7404
 2282TIP3   OH2 6786   2.279   2.500   0.177  0.5288 -0.4738 -0.2213
 2282TIP3    H1 6787   2.355   2.454   0.142 -0.5149 -1.2961 -1.5317
 2282TIP3    H2 6788   2.264   2.460   0.262  2.5939  0.9445  0.8926
 2283TIP3   OH2 6789   8.321   4.467   6.663  0.5234  0.3579 -0.1717
 2283TIP3    H1 6790   8.384   4.409   6.707  0.5064  1.1117  0.9020
 2283TIP3    H2 6791   8.351   4.472   6.573  1.1077 -0.5130 -0.0392
 2284TIP3   OH2 6792   4.186   6.208   0.275 -0.3305  0.2107 -0.6886
 2284TIP3    H1 6793   4.134   6.197   0.354  0.2126 -1.2788 -0.5086
 2284TIP3    H2 6794   4.221   6.297   0.281  0.6483 -0.2615  1.3482
 2285TIP3   OH2 6795   4.802   1.674   1.646  0.1018 -0.0595 -0.4082
 2285TIP3    H1 6796   4.752   1.593   1.635 -0.5666  0.5154 -1.9487
 2285TIP3    H2 6797   4.741   1.735   1.688 -0.0479  0.1998 -0.9797
 2286TIP3   OH2 6798   4.434   7.174   4.112 -0.3970 -0.5878 -0.5792
 2286TIP3    H1 6799   4.424   7.228   4.034  1.1127  0.6426  0.0238
 2286TIP3    H2 6800   4.367   7.205   4.172 -0.3072 -0.1957 -0.6784
 2287TIP3   OH2 6801   3.227   5.689   5.402 -0.0362 -0.7570 -0.6031
 2287TIP3    H1 6802   3.204   5.775   5.437  0.1470 -0.7976 -0.3823
 2287TIP3    H2 6803   3.242   5.705   5.309  0.3507 -0.4820 -0.4946
 2288TIP3   OH2 6804   3.539   4.181   3.164  0.2156  0.3074  0.2253
 2288TIP3    H1 6805   3.459   4.130   3.155 -0.4901  1.4547 -0.2217
 2288TIP3    H2 6806   3.510   4.264   3.203  0.7112  1.8219 -2.3932
 2289TIP3   OH2 6807   6.186   1.321   2.230 -0.0591  0.0597 -0.5919
 2289TIP3    H1 6808   6.132   1.268   2.288  1.0171 -1.4429 -0.8908
 2289TIP3    H2 6809   6.268   1.335   2.278  0.1986  0.2587 -1.0735
 2290TIP3   OH2 6810   6.593   2.994   1.768  0.0461  0.7955 -0.1325
 2290TIP3    H1 6811   6.508   2.949   1.762  0.1511  0.5156  0.4794
 2290TIP3    H2 6812   6.658   2.924   1.768  0.2888  1.0157 -0.7209
 2291TIP3   OH2 6813   7.377   4.597   6.301 -0.3806  0.4911 -0.1135
 2291TIP3    H1 6814   7.431   4.529   6.259  0.0327  0.3755  0.6003
 2291TIP3    H2 6815   7.425   4.678   6.285 -0.2910  0.4649  0.0268
 2292TIP3   OH2 6816   1.401   4.753   1.053  0.2621  0.5004  0.8555
 2292TIP3    H1 6817   1.363   4.738   1.140 -0.5468  0.7886  0.5537
 2292TIP3    H2 6818   1.347   4.822   1.015  0.5302  0.2765  0.0649
 2293TIP3   OH2 6819   5.679   7.300   4.876  0.3590 -0.0209  0.0298
 2293TIP3    H1 6820   5.694   7.333   4.964  3.2097 -0.5781 -0.1542
 2293TIP3    H2 6821   5.724   7.363   4.819  2.2044 -1.8451 -0.6363
 2294TIP3   OH2 6822   6.570   0.106   1.397  0.5569 -0.0249 -0.4734
 2294TIP3    H1 6823   6.615   0.055   1.464 -0.0406  0.4966  0.3354
 2294TIP3    H2 6824   6.509   0.162   1.445 -1.7710 -1.4610 -1.5447
 2295TIP3   OH2 6825   5.772   0.238   1.779  0.1066  0.5185  0.1006
 2295TIP3    H1 6826   5.834   0.165   1.773  0.0695  0.4899  0.0662
 2295TIP3    H2 6827   5.795   0.282   1.861 -1.8228 -1.2955  1.7213
 2296TIP3   OH2 6828   7.494   5.803   5.781  0.3607  0.2901 -0.4728
 2296TIP3    H1 6829   7.553   5.759   5.843 -0.3646 -2.5763 -1.6233
 2296TIP3    H2 6830   7.456   5.875   5.830  1.1291 -0.7932  1.8590
 2297TIP3   OH2 6831   1.481   2.937   5.843 -0.5832  0.2244  0.0010
 2297TIP3    H1 6832   1.508   2.944   5.934 -1.3758 -1.5543  0.4063
 2297TIP3    H2 6833   1.390   2.966   5.841 -0.6772 -0.0833 -0.1763
 2298TIP3   OH2 6834   4.381   3.682   4.519  0.6418  0.4784  0.0331
 2298TIP3    H1 6835   4.388   3.587   4.508  1.4735  0.7344 -2.2385
 2298TIP3    H2 6836   4.470   3.711   4.535  0.3275  0.8562  1.1519
 2299TIP3   OH2 6837   4.978   0.835   3.078 -0.0875 -0.1090 -0.4144
 2299TIP3    H1 6838   5.050   0.856   3.138 -0.8628 -1.4035  1.0273
 2299TIP3    H2 6839   4.993   0.744   3.053  1.0570  0.7891 -3.4914
 2300TIP3   OH2 6840   0.240   6.697   0.325  0.1788  0.4748  0.0966
 2300TIP3    H1 6841   0.150   6.727   0.316  0.5190  1.2845 -0.7339
 2300TIP3    H2 6842   0.232   6.605   0.353 -0.8862  0.6976  0.5684
 2301TIP3   OH2 6843   6.149   7.011   1.556  0.6726  0.0752 -0.5913
 2301TIP3    H1 6844   6.126   7.057   1.476 -0.0089  0.2387 -0.3109
 2301TIP3    H2 6845   6.124   6.920   1.540 -0.1204  0.2415 -0.3099
 2302TIP3   OH2 6846   6.118   2.535   5.742 -0.0380  0.1301 -0.4350
 2302TIP3    H1 6847   6.188   2.537   5.808 -1.6098  0.2507  1.3218
 2302TIP3    H2 6848   6.038   2.525   5.793 -1.2584 -0.9120 -2.4391
 2303TIP3   OH2 6849   1.041   3.297   2.655  0.0431  0.2030 -0.1748
 2303TIP3    H1 6850   1.103   3.285   2.727  1.5562 -1.0803 -1.6440
 2303TIP3    H2 6851   0.998   3.212   2.646 -0.4586  0.4879 -0.5176
 2304TIP3   OH2 6852   6.535   3.394   4.521 -0.1553  0.5991 -0.1008
 2304TIP3    H1 6853   6.628   3.410   4.536  0.1169 -0.5508 -0.4849
 2304TIP3    H2 6854   6.533   3.329   4.451 -1.2579  0.8769 -0.3437
 2305TIP3   OH2 6855   0.465   2.699   5.659  0.3536 -0.0054 -0.4230
 2305TIP3    H1 6856   0.429   2.782   5.626  0.4861  0.2375  0.0299
 2305TIP3    H2 6857   0.409   2.677   5.733  0.1768 -0.4452 -0.6894
 2306TIP3   OH2 6858   3.310   2.222   1.519 -0.1845 -0.1002  0.3009
 2306TIP3    H1 6859   3.291   2.307   1.559 -0.7706  0.6555 -1.4716
 2306TIP3    H2 6860   3.337   2.243   1.430 -0.3503 -1.7726 -0.1819
 2307TIP3   OH2 6861   7.150   3.981   4.798 -0.2720  0.3814  0.3240
 2307TIP3    H1 6862   7.203   4.060   4.800 -1.4792  1.2078  0.9703
 2307TIP3    H2 6863   7.187   3.925   4.866 -1.3405  1.7282  2.0856
 2308TIP3   OH2 6864   5.652   4.067   4.108 -0.1969  0.2466 -0.7997
 2308TIP3    H1 6865   5.737   4.075   4.151 -1.3038  0.5113  1.5093
 2308TIP3    H2 6866   5.655   4.132   4.037  1.9475 -0.6644 -1.6160
 2309TIP3   OH2 6867   5.979   6.803   1.981 -0.2366  0.3745  0.1673
 2309TIP3    H1 6868   5.973   6.816   2.076 -0.8274 -1.0667  0.3442
 2309TIP3    H2 6869   5.895   6.766   1.956 -0.3566  1.3952 -1.0573
 2310TIP3   OH2 6870   6.247   7.454   0.110  0.0178 -0.0906 -1.0990
 2310TIP3    H1 6871   6.327   7.402   0.117 -0.8795 -1.2756  1.4278
 2310TIP3    H2 6872   6.192   7.403   0.050 -1.2705 -2.8842  2.1460
 2311TIP3   OH2 6873   0.731   4.572   5.739 -0.3571  0.3409  0.4519
 2311TIP3    H1 6874   0.751   4.478   5.737 -0.7575  0.1952  2.0631
 2311TIP3    H2 6875   0.809   4.614   5.703  0.2579 -0.5618  0.6875
 2312TIP3   OH2 6876   6.699   7.609   1.170 -0.5393 -0.0142  0.4838
 2312TIP3    H1 6877   6.727   7.564   1.250 -0.5292 -1.6928 -0.4031
 2312TIP3    H2 6878   6.744   7.562   1.099 -0.1836  1.7202 -0.4853
 2313TIP3   OH2 6879   8.332   5.983   2.940  0.5019  0.2126  0.3687
 2313TIP3    H1 6880   8.314   5.910   2.999 -2.2545  0.0800 -0.4739
 2313TIP3    H2 6881   8.380   5.943   2.867 -0.9746 -0.8266 -0.0839
 2314TIP3   OH2 6882   7.879   4.970   5.862  0.5327 -0.1466  0.1247
 2314TIP3    H1 6883   7.844   4.942   5.778 -0.0993  2.4940 -0.5857
 2314TIP3    H2 6884   7.828   4.922   5.927 -1.5290  0.4667 -0.9663
 2315TIP3   OH2 6885   2.059   7.079   1.835  0.3366  0.5368 -0.5498
 2315TIP3    H1 6886   2.130   7.017   1.818 -1.2682 -1.6649  0.2964
 2315TIP3    H2 6887   2.072   7.148   1.770  2.1655 -0.7182 -1.6172
 2316TIP3   OH2 6888   0.449   4.444   5.645 -0.0711  0.0320 -0.0546
 2316TIP3    H1 6889   0.522   4.464   5.703  1.6686 -0.5941 -1.9369
 2316TIP3    H2 6890   0.455   4.350   5.631 -0.7814  0.0953 -0.8350
 2317TIP3   OH2 6891   7.518   0.119   2.592  0.1856 -0.7674  0.4681
 2317TIP3    H1 6892   7.608   0.119   2.559 -0.1549  0.9479 -0.5711
 2317TIP3    H2 6893   7.469   0.070   2.526 -0.2397  1.4469 -0.9774
 2318TIP3   OH2 6894   0.205   3.814   2.836  0.0706 -1.1512 -0.1494
 2318TIP3    H1 6895   0.135   3.753   2.816  1.2242 -1.9379 -2.0345
 2318TIP3    H2 6896   0.273   3.761   2.879  0.3419 -0.8227 -0.1642
 2319TIP3   OH2 6897   3.200   0.795   3.793 -0.0983 -0.1996  0.0147
 2319TIP3    H1 6898   3.124   0.769   3.740  0.4655  0.7344 -1.2934
 2319TIP3    H2 6899   3.180   0.761   3.880 -0.9671 -1.9792 -0.8161
 2320TIP3   OH2 6900   5.675   6.048   2.042 -0.5504 -0.2270  0.8717
 2320TIP3    H1 6901   5.716   6.077   2.123 -1.3516 -0.2267  1.2891
 2320TIP3    H2 6902   5.655   6.129   1.995 -0.2937 -0.2158  0.7842
 2321TIP3   OH2 6903   0.563   1.639   1.725 -0.4521  0.5994 -0.2327
 2321TIP3    H1 6904   0.518   1.667   1.804  0.9426 -0.2406  0.9133
 2321TIP3    H2 6905   0.573   1.544   1.735  2.1510  0.8105 -0.0401
 2322TIP3   OH2 6906   6.125   4.480   5.009 -0.0874 -0.1832  0.1374
 2322TIP3    H1 6907   6.190   4.426   4.963 -0.1137 -1.5560  1.6289
 2322TIP3    H2 6908   6.154   4.480   5.100 -0.3383  2.0155  0.2770
 2323TIP3   OH2 6909   6.524   3.027   2.138  0.7704  0.0646 -0.3647
 2323TIP3    H1 6910   6.537   3.120   2.117 -1.3135  0.7389  0.9350
 2323TIP3    H2 6911   6.557   3.017   2.227  1.4549 -0.5820 -0.6844
 2324TIP3   OH2 6912   3.660   5.542   1.389  0.2068  0.7486  0.1535
 2324TIP3    H1 6913   3.609   5.461   1.395 -0.3316  1.1868  2.4813
 2324TIP3    H2 6914   3.745   5.514   1.357 -0.4578 -0.4963 -0.6156
 2325TIP3   OH2 6915   3.638   4.081   4.684  0.8668 -0.0925  0.0323
 2325TIP3    H1 6916   3.561   4.107   4.733 -1.4186 -1.3327 -2.6579
 2325TIP3    H2 6917   3.670   4.002   4.729 -0.9116 -0.9579 -0.1291
 2326TIP3   OH2 6918   3.690   6.105   0.167 -0.2991  0.4354  0.2158
 2326TIP3    H1 6919   3.633   6.068   0.100 -0.5734  1.3030 -0.0321
 2326TIP3    H2 6920   3.779   6.088   0.135 -0.3993 -0.5455  0.4054
 2327TIP3   OH2 6921   5.040   4.202   1.241  0.5293 -0.4542 -0.2694
 2327TIP3    H1 6922   5.006   4.209   1.330  2.1080 -0.4102  0.3725
 2327TIP3    H2 6923   5.009   4.117   1.210  0.9861 -1.0431  0.8139
 2328TIP3   OH2 6924   2.351   3.496   3.800 -0.3776  0.2694  0.3638
 2328TIP3    H1 6925   2.321   3.405   3.803 -0.5502  0.3432  1.6960
 2328TIP3    H2 6926   2.425   3.495   3.740 -0.1467 -0.8207  0.6447
 2329TIP3   OH2 6927   6.761   0.061   2.555  0.1303 -0.4637 -0.4229
 2329TIP3    H1 6928   6.766  -0.026   2.517  1.5339  0.2607 -1.9945
 2329TIP3    H2 6929   6.829   0.062   2.623 -1.2838 -1.2212  1.0749
 2330TIP3   OH2 6930   5.800   3.288   1.076  0.1028 -0.2606 -0.3358
 2330TIP3    H1 6931   5.745   3.257   1.148 -0.6066  1.5110 -0.0540
 2330TIP3    H2 6932   5.889   3.269   1.104  0.0024  2.1017  1.9856
 2331TIP3   OH2 6933   0.770   0.858   4.528 -0.4238  0.0232 -0.1486
 2331TIP3    H1 6934   0.724   0.864   4.444 -1.9723 -1.4508  0.5405
 2331TIP3    H2 6935   0.809   0.771   4.529 -0.8925 -0.1945  0.8653
 2332TIP3   OH2 6936   3.571   1.227   6.543  0.2256 -0.4290 -0.1065
 2332TIP3    H1 6937   3.656   1.183   6.548 -0.5040 -1.8884  0.1591
 2332TIP3    H2 6938   3.527   1.186   6.468 -0.5730 -0.3323  0.2940
 2333TIP3   OH2 6939   5.325   3.490   1.708 -0.4014  0.3864 -0.0597
 2333TIP3    H1 6940   5.342   3.547   1.632  1.4894  0.8216  0.6324
 2333TIP3    H2 6941   5.359   3.539   1.783  2.3260 -2.0274  0.4496
 2334TIP3   OH2 6942   2.727   4.473   3.783 -0.4659  0.5265 -0.1477
 2334TIP3    H1 6943   2.702   4.384   3.806  1.5256 -0.4002 -1.2989
 2334TIP3    H2 6944   2.750   4.469   3.690  0.1906  2.1011 -0.0936
 2335TIP3   OH2 6945   0.511   2.214   1.988  0.8770  0.4089  0.2318
 2335TIP3    H1 6946   0.483   2.122   1.990 -0.1061  0.6589 -1.1737
 2335TIP3    H2 6947   0.493   2.246   2.076 -1.5400  0.0324 -0.0667
 2336TIP3   OH2 6948   4.368   6.154   3.547 -0.0798  0.0094  0.4360
 2336TIP3    H1 6949   4.415   6.071   3.544  0.3375  0.2465  0.3583
 2336TIP3    H2 6950   4.327   6.155   3.634 -0.9822 -0.7551  0.0433
 2337TIP3   OH2 6951   5.270   4.005   5.727  0.0012 -0.1001  0.4384
 2337TIP3    H1 6952   5.352   3.975   5.767 -1.1486 -1.5710  1.8097
 2337TIP3    H2 6953   5.292   4.091   5.690  1.7188  0.3714  2.3381
 2338TIP3   OH2 6954   1.697   0.393   0.997  0.1730 -0.2447 -0.1297
 2338TIP3    H1 6955   1.635   0.463   0.976 -0.6534 -0.5185  1.3264
 2338TIP3    H2 6956   1.662   0.316   0.952 -0.9867 -0.5690  1.2564
 2339TIP3   OH2 6957   0.914   2.331   2.772  0.3419  0.0090  0.2219
 2339TIP3    H1 6958   0.852   2.259   2.782 -0.2341  0.4108 -0.3910
 2339TIP3    H2 6959   0.996   2.297   2.807 -0.0008 -0.8383  0.2150
 2340TIP3   OH2 6960   2.802   6.285   4.761 -0.1531  0.2512  0.4689
 2340TIP3    H1 6961   2.765   6.260   4.677  0.1092  0.2728  0.3449
 2340TIP3    H2 6962   2.841   6.205   4.796  0.7281  0.4760  0.0485
 2341TIP3   OH2 6963   1.382   0.054   2.984  0.7826 -0.3016  0.2829
 2341TIP3    H1 6964   1.353   0.120   3.047  0.1807 -1.6137  1.4413
 2341TIP3    H2 6965   1.471   0.081   2.960 -0.0672  1.8938 -0.6733
 2342TIP3   OH2 6966   1.912   4.319   4.320  0.3791  0.2367 -0.0430
 2342TIP3    H1 6967   1.858   4.316   4.399  0.9321 -0.1235  0.3347
 2342TIP3    H2 6968   1.850   4.332   4.248 -0.1519  0.3499  0.4301
 2343TIP3   OH2 6969   3.009   5.643   3.321  0.0816 -0.2736  0.2491
 2343TIP3    H1 6970   3.097   5.623   3.290 -0.2267  0.9201 -1.5379
 2343TIP3    H2 6971   2.983   5.565   3.370  2.4825 -0.2662  1.7303
 2344TIP3   OH2 6972   5.596   0.817   3.475  0.0540  0.5873  0.1278
 2344TIP3    H1 6973   5.503   0.808   3.499 -0.6649  1.6129 -2.0315
 2344TIP3    H2 6974   5.625   0.895   3.523  0.1878 -0.4236  1.7618
 2345TIP3   OH2 6975   5.912   0.243   3.155  0.1938  0.2451 -0.0018
 2345TIP3    H1 6976   5.858   0.224   3.232 -0.7621  2.3134 -0.0912
 2345TIP3    H2 6977   5.858   0.216   3.081 -0.0258  0.7455 -0.0285
 2346TIP3   OH2 6978   6.053   6.540   5.605  0.2911  0.4369  0.4457
 2346TIP3    H1 6979   6.107   6.461   5.593  0.6307  0.6507  0.5559
 2346TIP3    H2 6980   5.994   6.517   5.676  1.0839  0.6383  1.1850
 2347TIP3   OH2 6981   3.072   3.637   3.624  0.3026 -0.5429 -0.5066
 2347TIP3    H1 6982   3.151   3.583   3.634  0.4254 -0.0667  1.4948
 2347TIP3    H2 6983   3.008   3.578   3.585  1.6149 -0.9408 -2.1652
 2348TIP3   OH2 6984   1.770   4.105   5.196  0.2835 -0.5488 -0.1741
 2348TIP3    H1 6985   1.795   4.043   5.264  0.3651 -0.5233 -0.1803
 2348TIP3    H2 6986   1.830   4.179   5.208 -1.2831  0.5610  1.3132
 2349TIP3   OH2 6987   1.023   1.010   5.279 -0.1351  0.4144  1.2241
 2349TIP3    H1 6988   0.935   0.978   5.256  0.2820 -1.4592  2.0939
 2349TIP3    H2 6989   1.081   0.967   5.217  0.3281  0.4476  1.6290
 2350TIP3   OH2 6990   3.013   3.915   4.489 -0.1154  0.5807 -0.2722
 2350TIP3    H1 6991   3.093   3.941   4.534 -0.2205  0.6896 -0.1458
 2350TIP3    H2 6992   2.959   3.874   4.556  0.7522 -1.6059 -0.8149
 2351TIP3   OH2 6993   4.106   2.463   1.389  0.2564 -0.1796 -0.3250
 2351TIP3    H1 6994   4.128   2.398   1.323 -0.8479 -0.7889 -0.1144
 2351TIP3    H2 6995   4.032   2.425   1.436 -1.4492  1.9066 -1.2134
 2352TIP3   OH2 6996   7.063   6.436   5.819 -0.1396  0.4460 -0.3741
 2352TIP3    H1 6997   7.072   6.351   5.777  1.0946 -1.0936  2.6915
 2352TIP3    H2 6998   7.092   6.499   5.753 -0.6161 -1.5131 -2.5640
 2353TIP3   OH2 6999   5.685   2.937   0.920  0.2408 -0.0163  0.4132
 2353TIP3    H1 7000   5.716   2.870   0.860 -0.2120  1.5355 -1.6601
 2353TIP3    H2 7001   5.761   2.960   0.973  1.4894  0.5359 -1.5182
 2354TIP3   OH2 7002   5.772   2.983   5.932 -0.2772 -0.8052 -0.1463
 2354TIP3    H1 7003   5.700   3.019   5.881  0.3132 -3.3317 -3.0021
 2354TIP3    H2 7004   5.847   3.041   5.914 -0.5505 -0.5936 -0.5967
 2355TIP3   OH2 7005   8.350   3.139   2.396 -0.4009 -0.8374 -0.0254
 2355TIP3    H1 7006   8.425   3.104   2.348  0.6951  0.3247  0.7883
 2355TIP3    H2 7007   8.375   3.132   2.488 -0.8187  0.5863  0.2192
 2356TIP3   OH2 7008   0.749   1.846   6.068 -0.0315 -0.0856  0.4392
 2356TIP3    H1 7009   0.673   1.791   6.089  0.0647 -0.5878 -0.4746
 2356TIP3    H2 7010   0.780   1.878   6.153 -1.5649  0.5401  0.7903
 2357TIP3   OH2 7011   5.639   7.771   0.808  0.2148  0.1332 -0.6089
 2357TIP3    H1 7012   5.676   7.853   0.838  0.2132 -0.3596  0.8304
 2357TIP3    H2 7013   5.647   7.774   0.713  1.0379  1.3920 -0.5213
 2358TIP3   OH2 7014   0.560   5.813   4.137  0.5555 -0.2548 -0.6418
 2358TIP3    H1 7015   0.479   5.832   4.088 -0.3754 -2.4710 -0.0734
 2358TIP3    H2 7016   0.621   5.782   4.071  0.9670  1.3772 -1.0683
 2359TIP3   OH2 7017   0.455   7.831   3.443 -0.4461 -0.0373 -0.5433
 2359TIP3    H1 7018   0.522   7.765   3.458 -0.2404  0.0493 -1.0454
 2359TIP3    H2 7019   0.377   7.796   3.485  0.6286  1.3205  2.9224
 2360TIP3   OH2 7020   2.485   3.502   4.972  0.0912 -0.1840  0.0736
 2360TIP3    H1 7021   2.542   3.509   5.049  0.1627 -1.7483  0.1977
 2360TIP3    H2 7022   2.442   3.588   4.966  0.5996  0.1935  1.4490
 2361TIP3   OH2 7023   4.571   7.051   6.134  0.1836 -0.1022  0.1281
 2361TIP3    H1 7024   4.519   6.999   6.195  0.1242  0.6196  0.7104
 2361TIP3    H2 7025   4.529   7.038   6.049 -1.3798  0.9789  0.6903
 2362TIP3   OH2 7026   0.020   6.663   5.186  0.0885 -0.3961 -0.6215
 2362TIP3    H1 7027  -0.011   6.739   5.235  2.3822  0.3037 -0.1331
 2362TIP3    H2 7028   0.014   6.690   5.094  0.8298  0.3855 -0.4565
 2363TIP3   OH2 7029   6.535   7.626   6.010  0.0071 -0.4568  0.3909
 2363TIP3    H1 7030   6.573   7.642   6.096  0.0754 -0.8599  0.4401
 2363TIP3    H2 7031   6.442   7.611   6.026 -0.1099  0.1765  0.3119
 2364TIP3   OH2 7032   5.658   0.423   3.178 -0.0739 -0.0755  0.3770
 2364TIP3    H1 7033   5.610   0.423   3.261  1.4532  0.1963  1.2846
 2364TIP3    H2 7034   5.646   0.335   3.143  0.0707 -0.5080  1.3743
 2365TIP3   OH2 7035   5.224   3.876   4.127 -0.2589  0.6933 -0.2757
 2365TIP3    H1 7036   5.293   3.835   4.178 -1.8591  0.3192  1.7269
 2365TIP3    H2 7037   5.184   3.939   4.188 -3.0722 -0.6766 -0.5358
 2366TIP3   OH2 7038   5.701   7.241   2.345 -0.3178 -0.7033  0.0042
 2366TIP3    H1 7039   5.703   7.315   2.284 -0.9996 -0.5360  0.1654
 2366TIP3    H2 7040   5.725   7.279   2.429 -0.3473 -0.7257  0.0232
 2367TIP3   OH2 7041   0.833   6.733   0.048  0.5425 -0.2456 -0.6390
 2367TIP3    H1 7042   0.907   6.755   0.104 -0.4372  0.9929  0.2270
 2367TIP3    H2 7043   0.787   6.817   0.036 -2.7185 -1.4834  1.8019
 2368TIP3   OH2 7044   1.662   7.708   6.118 -0.0224  0.3903  0.5461
 2368TIP3    H1 7045   1.665   7.789   6.067 -1.8550 -0.7875 -1.6271
 2368TIP3    H2 7046   1.745   7.664   6.098  0.1307  0.8583  0.1327
 2369TIP3   OH2 7047   8.079   6.093   3.013 -0.5708 -0.0587  0.2804
 2369TIP3    H1 7048   8.073   6.189   3.008  0.1299 -0.0111  0.2699
 2369TIP3    H2 7049   8.162   6.072   2.970 -0.0250 -0.5536  1.5266
 2370TIP3   OH2 7050   3.245   3.438   6.406 -0.0773 -0.0093  0.1488
 2370TIP3    H1 7051   3.235   3.495   6.330  1.6431  1.4081  0.9187
 2370TIP3    H2 7052   3.249   3.497   6.480 -1.6813 -1.3683  1.3919
 2371TIP3   OH2 7053   0.469   0.160   2.546 -0.1260  0.2042  0.1487
 2371TIP3    H1 7054   0.473   0.093   2.614 -2.8503  1.3753  1.6276
 2371TIP3    H2 7055   0.560   0.177   2.523  0.7191 -2.5627  1.1128
 2372TIP3   OH2 7056   0.801   0.666   1.420 -0.3849 -0.1932  0.9303
 2372TIP3    H1 7057   0.887   0.675   1.378 -1.5612  2.0688 -1.2472
 2372TIP3    H2 7058   0.757   0.597   1.370 -1.1886  1.3803 -0.6586
 2373TIP3   OH2 7059   7.922   3.075   5.950 -0.2055 -0.4076 -0.4645
 2373TIP3    H1 7060   7.990   3.016   5.919  1.7522  0.1828  2.3224
 2373TIP3    H2 7061   7.963   3.161   5.952 -1.4884  0.2289  0.0223
 2374TIP3   OH2 7062   7.562   0.196   0.069 -0.2996  0.3445  0.6986
 2374TIP3    H1 7063   7.645   0.232   0.039 -0.0569 -1.3693 -0.8666
 2374TIP3    H2 7064   7.534   0.255   0.139  1.3370  1.9738  0.0537
 2375TIP3   OH2 7065   0.604   5.373   1.462  0.6338  0.1226  0.3299
 2375TIP3    H1 7066   0.638   5.332   1.383  1.9099  0.0463  0.8924
 2375TIP3    H2 7067   0.574   5.460   1.434  0.5608 -0.1076 -0.3233
 2376TIP3   OH2 7068   3.958   6.804   1.084  0.1600 -0.0731 -0.4190
 2376TIP3    H1 7069   3.897   6.863   1.128 -0.4131  0.0861 -1.3929
 2376TIP3    H2 7070   4.034   6.858   1.065 -0.0645  0.1576 -0.6593
 2377TIP3   OH2 7071   7.982   3.701   4.074  0.3233 -0.2201 -0.0193
 2377TIP3    H1 7072   7.951   3.619   4.035 -1.5682  0.0041  0.8719
 2377TIP3    H2 7073   8.065   3.678   4.115  0.1804 -1.5304 -0.4214
 2378TIP3   OH2 7074   2.718   2.833   2.807 -0.0179  0.6805 -0.1116
 2378TIP3    H1 7075   2.778   2.817   2.734 -0.4184 -0.9215 -0.1375
 2378TIP3    H2 7076   2.754   2.781   2.879 -0.0281  1.6693  0.6324
 2379TIP3   OH2 7077   3.601   3.564   5.362  0.0982 -0.3141 -0.0818
 2379TIP3    H1 7078   3.509   3.540   5.364 -0.4386  1.6444  0.6496
 2379TIP3    H2 7079   3.643   3.506   5.425 -0.6827 -0.9594 -0.1436
 2380TIP3   OH2 7080   3.345   4.853   2.383  0.6404  0.0038 -0.0986
 2380TIP3    H1 7081   3.439   4.838   2.374  0.8247 -0.0846  1.6882
 2380TIP3    H2 7082   3.337   4.916   2.454 -0.6746 -0.7323  0.4486
 2381TIP3   OH2 7083   4.978   3.952   6.355 -0.2640  0.2608  0.1104
 2381TIP3    H1 7084   4.965   3.996   6.439 -2.9793  0.7905 -0.5164
 2381TIP3    H2 7085   5.055   3.995   6.317  1.0657 -0.0276  2.2738
 2382TIP3   OH2 7086   2.365   5.378   0.737  0.1432 -0.4918  0.7096
 2382TIP3    H1 7087   2.308   5.323   0.790 -0.2516 -1.1637 -0.3804
 2382TIP3    H2 7088   2.313   5.457   0.721  0.3871 -0.1456  1.5675
 2383TIP3   OH2 7089   2.228   3.605   4.458  0.2226  0.4107  0.0299
 2383TIP3    H1 7090   2.219   3.518   4.419 -0.1740  0.7196 -0.5909
 2383TIP3    H2 7091   2.267   3.659   4.389  1.0074  0.5985  0.5985
 2384TIP3   OH2 7092   7.258   0.234   1.904  0.0261 -0.1183 -0.4284
 2384TIP3    H1 7093   7.314   0.296   1.859  0.5081 -0.0736  0.2135
 2384TIP3    H2 7094   7.314   0.195   1.971 -0.1649 -1.4916 -1.0307
 2385TIP3   OH2 7095   2.988   2.811   2.720 -0.1426 -0.0888  0.7521
 2385TIP3    H1 7096   3.072   2.780   2.688  0.1570  0.2411  1.2214
 2385TIP3    H2 7097   2.995   2.807   2.815 -0.1568  1.2493  0.8203
 2386TIP3   OH2 7098   5.845   0.669   0.521  0.5325 -0.4743  0.4709
 2386TIP3    H1 7099   5.900   0.638   0.592  1.1702 -0.8212 -0.1648
 2386TIP3    H2 7100   5.772   0.607   0.517 -1.1105  1.1367  2.6884
 2387TIP3   OH2 7101   1.586   7.006   1.048 -0.3301 -0.2400 -0.7578
 2387TIP3    H1 7102   1.635   6.975   0.972  0.6228  0.4044 -0.4326
 2387TIP3    H2 7103   1.624   7.092   1.067  1.0751 -1.3185  1.8178
 2388TIP3   OH2 7104   8.287   7.440   4.188 -0.1247 -0.0862 -0.1248
 2388TIP3    H1 7105   8.234   7.497   4.132  0.0888 -0.0123 -0.2558
 2388TIP3    H2 7106   8.336   7.501   4.244 -1.4536 -0.1869  1.1991
 2389TIP3   OH2 7107   6.433   0.761   0.089  0.5603  0.2507 -0.1060
 2389TIP3    H1 7108   6.525   0.755   0.113  0.6307  0.7735 -0.2306
 2389TIP3    H2 7109   6.388   0.783   0.171  0.3408 -1.4714  0.2842
 2390TIP3   OH2 7110   0.539   4.320   1.213  0.1998 -0.6819  0.4146
 2390TIP3    H1 7111   0.629   4.324   1.246 -0.5453 -0.3400  2.5467
 2390TIP3    H2 7112   0.504   4.238   1.247 -0.3374 -0.7919 -0.3635
 2391TIP3   OH2 7113   1.964   5.410   1.274  0.2352  0.4382  0.2800
 2391TIP3    H1 7114   2.052   5.432   1.243  1.9111 -3.3374  1.8019
 2391TIP3    H2 7115   1.927   5.356   1.204 -0.4840  1.1530  0.0971
 2392TIP3   OH2 7116   3.316   7.001   4.733  0.1739 -0.2912 -0.4226
 2392TIP3    H1 7117   3.244   7.061   4.710 -0.2647 -0.2498  0.9893
 2392TIP3    H2 7118   3.344   6.964   4.649 -0.4811  0.8371 -1.1650
 2393TIP3   OH2 7119   6.535   1.110   5.874  0.4201 -0.1441  0.4536
 2393TIP3    H1 7120   6.620   1.096   5.833  0.8865  1.0875  0.9475
 2393TIP3    H2 7121   6.514   1.027   5.916  0.7413 -0.8783 -0.8011
 2394TIP3   OH2 7122   2.861   4.509   3.544 -0.3405  0.0786  0.5036
 2394TIP3    H1 7123   2.945   4.467   3.526  0.1620  1.4218 -0.3937
 2394TIP3    H2 7124   2.883   4.589   3.591 -0.9323  1.3394 -1.2532
 2395TIP3   OH2 7125   8.055   1.126   5.832  0.4752  0.2245  0.4379
 2395TIP3    H1 7126   8.123   1.169   5.884 -0.2057  0.7167  0.9272
 2395TIP3    H2 7127   8.056   1.173   5.748  0.1352  0.8134  0.7611
 2396TIP3   OH2 7128   8.248   5.315   4.545 -0.3309 -0.0662  0.0781
 2396TIP3    H1 7129   8.228   5.278   4.459 -1.1215  0.4815  0.0059
 2396TIP3    H2 7130   8.172   5.370   4.565  0.0625  0.1919  0.9142
 2397TIP3   OH2 7131   7.566   1.521   2.062 -0.4084  0.4232 -0.2154
 2397TIP3    H1 7132   7.606   1.528   2.148 -1.6395 -0.7324  0.5015
 2397TIP3    H2 7133   7.514   1.441   2.066 -1.0750  0.7223 -1.7955
 2398TIP3   OH2 7134   4.537   0.424   0.656 -0.5424  0.3906 -0.1025
 2398TIP3    H1 7135   4.503   0.412   0.567 -1.3186 -0.0137  0.2394
 2398TIP3    H2 7136   4.630   0.443   0.643 -0.7286  0.7756 -1.0235
 2399TIP3   OH2 7137   7.222   6.400   6.669 -0.2201 -0.1579 -0.5778
 2399TIP3    H1 7138   7.220   6.488   6.705  1.6611  0.5111 -1.9763
 2399TIP3    H2 7139   7.159   6.402   6.596 -1.8779 -0.6884  0.7709
 2400TIP3   OH2 7140   6.724   7.475   3.337 -0.1726  0.1411  0.3486
 2400TIP3    H1 7141   6.712   7.415   3.411 -0.9360  0.0452  0.1593
 2400TIP3    H2 7142   6.698   7.561   3.372  0.1802  0.2260  0.4023
 2401TIP3   OH2 7143   5.392   4.389   3.755 -0.3417 -0.2379 -0.4369
 2401TIP3    H1 7144   5.450   4.464   3.770  0.3459 -0.6891 -0.7855
 2401TIP3    H2 7145   5.441   4.333   3.695 -0.9097 -0.8939 -0.2956
 2402TIP3   OH2 7146   5.205   4.925   4.473 -0.2030 -0.3398  0.2489
 2402TIP3    H1 7147   5.205   5.020   4.484  0.7376 -0.5717  2.7509
 2402TIP3    H2 7148   5.132   4.908   4.414 -1.3985  1.8127  1.0110
 2403TIP3   OH2 7149   0.576   0.039   4.219  0.0226 -0.2282 -0.1194
 2403TIP3    H1 7150   0.493   0.077   4.247 -0.7164 -2.2401  0.5801
 2403TIP3    H2 7151   0.567   0.030   4.124  0.3943  1.6783 -0.3652
 2404TIP3   OH2 7152   3.036   1.528   2.270 -0.3313 -0.5791  0.0757
 2404TIP3    H1 7153   3.002   1.574   2.193 -2.4240 -0.0301  1.2489
 2404TIP3    H2 7154   3.127   1.558   2.278 -1.2111  2.4700  0.0388
 2405TIP3   OH2 7155   7.072   0.972   3.137  0.3015 -0.0152  0.4397
 2405TIP3    H1 7156   7.059   0.897   3.195 -1.1954 -0.4664 -0.4122
 2405TIP3    H2 7157   7.140   0.944   3.075  0.7228 -0.1525  0.9655
 2406TIP3   OH2 7158   0.769   3.615   3.860  0.0182 -0.0370  0.3348
 2406TIP3    H1 7159   0.851   3.598   3.814  0.1117 -1.4571  0.9828
 2406TIP3    H2 7160   0.722   3.676   3.803 -0.3985 -2.6194 -2.3154
 2407TIP3   OH2 7161   6.259   5.330   0.064  0.2802  0.7612  0.1783
 2407TIP3    H1 7162   6.194   5.397   0.087 -0.9813 -0.2704 -0.2298
 2407TIP3    H2 7163   6.238   5.256   0.122  1.5778  0.6508  0.5443
 2408TIP3   OH2 7164   6.957   1.856   6.755  0.9359 -0.3377  0.1409
 2408TIP3    H1 7165   6.885   1.899   6.801  1.6086 -0.9607  1.8483
 2408TIP3    H2 7166   6.987   1.922   6.692  0.3792  0.8056  1.0167
 2409TIP3   OH2 7167   4.185   1.412   3.041  0.5127 -0.0255  0.3853
 2409TIP3    H1 7168   4.093   1.416   3.068 -0.1494 -0.3908 -1.6638
 2409TIP3    H2 7169   4.188   1.344   2.975  1.8127  1.4485 -1.1800
 2410TIP3   OH2 7170   3.032   4.557   4.339 -0.5202 -0.5007  0.3874
 2410TIP3    H1 7171   3.058   4.602   4.420  0.6666  0.9245 -0.7257
 2410TIP3    H2 7172   2.994   4.475   4.369 -3.2245  1.3648  2.5715
 2411TIP3   OH2 7173   6.379   6.308   5.147 -0.0571  0.1488 -0.2041
 2411TIP3    H1 7174   6.295   6.269   5.121  1.2333 -1.7477 -1.7824
 2411TIP3    H2 7175   6.390   6.382   5.088 -0.0019 -0.4469 -0.9580
 2412TIP3   OH2 7176   7.343   1.037   4.747  0.4942  0.3760 -0.1182
 2412TIP3    H1 7177   7.323   0.968   4.684  1.2420  0.9179 -0.9785
 2412TIP3    H2 7178   7.259   1.080   4.763  0.4367  0.8315 -1.4910
 2413TIP3   OH2 7179   3.989   6.441   2.703 -0.1817 -0.1632  0.4084
 2413TIP3    H1 7180   4.043   6.482   2.771  0.5416 -0.4593  0.0273
 2413TIP3    H2 7181   4.029   6.355   2.689 -2.1147 -1.3527  1.7144
 2414TIP3   OH2 7182   2.321   0.198   6.431  0.6205 -0.7458  0.0868
 2414TIP3    H1 7183   2.357   0.211   6.343  0.9185 -3.7551 -0.3269
 2414TIP3    H2 7184   2.386   0.145   6.476 -0.8992 -1.8147  1.0961
 2415TIP3   OH2 7185   6.410   7.592   4.861 -0.3012  0.1097 -0.1815
 2415TIP3    H1 7186   6.497   7.596   4.899 -0.2439 -1.8527 -0.0007
 2415TIP3    H2 7187   6.424   7.606   4.767  0.3203 -0.9888 -0.2631
 2416TIP3   OH2 7188   1.684   0.685   0.948 -0.3590 -0.0675 -0.4052
 2416TIP3    H1 7189   1.750   0.653   1.009 -0.6235 -0.0201 -0.0891
 2416TIP3    H2 7190   1.729   0.689   0.864 -0.3508 -1.3806 -0.4825
 2417TIP3   OH2 7191   1.412   0.711   3.829 -0.6430 -0.8398 -0.0517
 2417TIP3    H1 7192   1.484   0.771   3.849 -0.1804 -0.9337 -1.3122
 2417TIP3    H2 7193   1.433   0.631   3.878 -0.1125 -0.7056 -0.0526
 2418TIP3   OH2 7194   0.393   5.126   0.496 -0.0197  0.0330  0.9714
 2418TIP3    H1 7195   0.312   5.163   0.460  1.0605  2.4423  0.7882
 2418TIP3    H2 7196   0.367   5.083   0.577 -1.6159 -0.1993  0.3614
 2419TIP3   OH2 7197   5.308   0.600   5.589 -0.1698  0.1644  0.1119
 2419TIP3    H1 7198   5.356   0.682   5.591 -1.2962  0.8402  0.5721
 2419TIP3    H2 7199   5.370   0.536   5.554  1.3307  0.8009  1.4879
 2420TIP3   OH2 7200   6.831   5.185   3.759  0.2528  0.3511  0.2702
 2420TIP3    H1 7201   6.802   5.276   3.767 -0.9377 -0.1312  1.9304
 2420TIP3    H2 7202   6.876   5.181   3.675 -1.3962  2.0185 -0.7529
 2421TIP3   OH2 7203   2.097   7.881   2.175  0.0636  0.6046 -0.2530
 2421TIP3    H1 7204   2.188   7.884   2.146 -0.2676  0.2730 -1.3637
 2421TIP3    H2 7205   2.054   7.952   2.128 -0.3057  0.5992  0.0702
 2422TIP3   OH2 7206   2.347   1.772   4.604  0.6493 -0.0680 -0.2258
 2422TIP3    H1 7207   2.365   1.712   4.676 -0.5936 -0.2412 -0.0363
 2422TIP3    H2 7208   2.388   1.732   4.527  0.2596 -0.9034 -0.0011
 2423TIP3   OH2 7209   7.126   2.575   0.048 -0.6928 -0.1266  0.5770
 2423TIP3    H1 7210   7.063   2.577   0.120 -1.5871  0.3461 -0.1957
 2423TIP3    H2 7211   7.184   2.649   0.065 -1.3321  0.4209  0.4554
 2424TIP3   OH2 7212   6.962   3.688   6.700  1.0304 -0.0607  0.2357
 2424TIP3    H1 7213   6.900   3.735   6.644  0.4760 -1.5188 -0.4332
 2424TIP3    H2 7214   7.042   3.740   6.696  0.5653  0.6100 -0.8151
 2425TIP3   OH2 7215   7.532   4.096   5.029  0.0839 -0.1761  0.3178
 2425TIP3    H1 7216   7.592   4.157   4.986  0.2261  0.9555  2.0082
 2425TIP3    H2 7217   7.584   4.017   5.044  0.5207  0.0351 -0.0790
 2426TIP3   OH2 7218   8.376   2.828   1.736  0.1960 -0.0293 -0.2593
 2426TIP3    H1 7219   8.285   2.848   1.717  0.5407  0.9976 -0.9006
 2426TIP3    H2 7220   8.418   2.823   1.650  0.1631 -3.6989 -0.2407
 2427TIP3   OH2 7221   5.203   0.050   3.416  0.4309 -0.6592 -0.3714
 2427TIP3    H1 7222   5.175  -0.032   3.375  1.3619 -1.5614  0.7225
 2427TIP3    H2 7223   5.128   0.077   3.469  0.9069 -2.1587  1.2044
 2428TIP3   OH2 7224   1.072   3.502   0.888 -0.1822 -0.1019 -0.3969
 2428TIP3    H1 7225   1.071   3.586   0.933 -1.3271 -1.0300  1.4395
 2428TIP3    H2 7226   1.160   3.496   0.851 -0.2802  2.1555 -1.1518
 2429TIP3   OH2 7227   4.767   6.936   6.293  0.4181 -0.4147 -0.1958
 2429TIP3    H1 7228   4.846   6.887   6.270 -0.0349 -0.7908 -0.9901
 2429TIP3    H2 7229   4.737   6.973   6.210 -0.4778 -0.6361  0.0229
 2430TIP3   OH2 7230   6.731   0.910   3.492  0.5923 -0.1078  0.4981
 2430TIP3    H1 7231   6.640   0.880   3.486  0.1020  1.4285 -0.3394
 2430TIP3    H2 7232   6.734   0.964   3.571  0.0594  1.9277 -0.7761
 2431TIP3   OH2 7233   3.364   4.535   4.118 -0.4071 -0.4123 -0.0120
 2431TIP3    H1 7234   3.426   4.584   4.172 -0.5102 -1.1802  0.8253
 2431TIP3    H2 7235   3.396   4.445   4.119 -1.0309 -0.6471 -0.3207
 2432TIP3   OH2 7236   4.731   3.714   0.372 -0.1294 -0.3809 -0.0258
 2432TIP3    H1 7237   4.715   3.783   0.436 -0.8990 -1.3200  0.8295
 2432TIP3    H2 7238   4.684   3.743   0.293  0.0025  0.3186  0.1497
 2433TIP3   OH2 7239   3.479   0.690   3.009  0.2285  0.4906 -0.1545
 2433TIP3    H1 7240   3.476   0.671   3.103  1.4708 -0.2440 -0.2377
 2433TIP3    H2 7241   3.562   0.737   2.996  0.2663  0.2284 -0.9333
 2434TIP3   OH2 7242   1.228   0.531   2.066  0.2727  0.3174  0.9424
 2434TIP3    H1 7243   1.182   0.588   2.127 -0.2926  0.7147  0.1628
 2434TIP3    H2 7244   1.169   0.523   1.991  1.4214  0.7604 -0.0383
 2435TIP3   OH2 7245   8.078   6.231   5.561 -0.5191 -0.4966 -0.0051
 2435TIP3    H1 7246   8.093   6.184   5.643  2.3662 -0.7139 -0.5651
 2435TIP3    H2 7247   8.159   6.222   5.512 -1.1275  2.0259 -1.7183
 2436TIP3   OH2 7248   5.183   0.577   1.899 -0.5755 -0.3170  0.0852
 2436TIP3    H1 7249   5.109   0.634   1.917 -0.8026 -0.6445  0.1895
 2436TIP3    H2 7250   5.253   0.637   1.870 -0.9615 -0.0385 -0.2738
 2437TIP3   OH2 7251   0.055   6.355   1.113  0.0792  0.0049 -0.1503
 2437TIP3    H1 7252   0.047   6.263   1.138  0.6072  0.0235  0.1197
 2437TIP3    H2 7253  -0.035   6.386   1.105 -0.1013 -0.5539 -0.3174
 2438TIP3   OH2 7254   5.735   2.505   6.087  0.4002  0.4421 -0.0588
 2438TIP3    H1 7255   5.732   2.428   6.144  1.5155  1.7505  1.8867
 2438TIP3    H2 7256   5.810   2.489   6.030 -1.0713 -1.1445 -1.6767
 2439TIP3   OH2 7257   7.362   0.948   3.387  0.4550 -0.5297  0.1123
 2439TIP3    H1 7258   7.282   0.897   3.402 -0.1971  0.7209  1.0551
 2439TIP3    H2 7259   7.360   0.966   3.292 -1.7848  1.5871  0.4346
 2440TIP3   OH2 7260   4.498   4.687   3.685  0.4490  0.7105  0.5929
 2440TIP3    H1 7261   4.446   4.720   3.611  0.6413  1.2763  0.7090
 2440TIP3    H2 7262   4.435   4.681   3.757  0.6726  2.0147  0.9126
 2441TIP3   OH2 7263   5.569   7.044   2.942 -0.4301  0.2324 -0.3407
 2441TIP3    H1 7264   5.592   6.955   2.970 -0.4844  0.6281  1.0128
 2441TIP3    H2 7265   5.500   7.031   2.877  0.0119 -0.7365 -0.6373
 2442TIP3   OH2 7266   2.719   2.572   5.612  0.5549 -0.7511 -0.2475
 2442TIP3    H1 7267   2.701   2.631   5.684  1.8196 -0.7570  0.0955
 2442TIP3    H2 7268   2.800   2.605   5.573 -0.8935  0.2213 -2.6927
 2443TIP3   OH2 7269   7.890   2.161   3.140  0.0711  0.3909  0.5327
 2443TIP3    H1 7270   7.860   2.102   3.071  1.1582  2.2309 -1.6562
 2443TIP3    H2 7271   7.816   2.219   3.156 -1.1004 -1.5716  2.8894
 2444TIP3   OH2 7272   4.847   3.973   2.161 -0.3025 -0.0969  0.0326
 2444TIP3    H1 7273   4.770   3.950   2.213  0.0638 -0.2704  0.5120
 2444TIP3    H2 7274   4.844   4.068   2.153 -0.1327 -0.0305  0.7417
 2445TIP3   OH2 7275   5.503   1.237   0.837  0.1566  0.2430 -0.0131
 2445TIP3    H1 7276   5.419   1.200   0.809  0.6568 -0.6453 -0.3823
 2445TIP3    H2 7277   5.511   1.211   0.929  0.2297 -0.0438 -0.1009
 2446TIP3   OH2 7278   0.131   5.318   4.224 -0.1147 -0.0506  0.0596
 2446TIP3    H1 7279   0.106   5.229   4.248  0.3262 -0.2261 -0.1245
 2446TIP3    H2 7280   0.067   5.344   4.158 -0.0546 -0.3495 -0.1189
 2447TIP3   OH2 7281   5.305   6.362   1.967 -0.2872 -0.1556  0.7552
 2447TIP3    H1 7282   5.380   6.419   1.951  0.2278 -0.9618  0.2133
 2447TIP3    H2 7283   5.336   6.298   2.031 -1.2409  0.8833  2.3080
 2448TIP3   OH2 7284   7.516   2.335   3.486 -0.0503 -0.1296  0.1264
 2448TIP3    H1 7285   7.606   2.318   3.457 -0.4224  0.3206 -1.3301
 2448TIP3    H2 7286   7.476   2.384   3.415 -1.2920  0.1989  1.0147
 2449TIP3   OH2 7287   2.093   4.704   3.123  0.1151  0.0424 -0.1016
 2449TIP3    H1 7288   2.173   4.736   3.165  0.9730  0.1687 -1.7408
 2449TIP3    H2 7289   2.049   4.782   3.092 -0.0805 -0.0936 -0.1689
 2450TIP3   OH2 7290   1.606   3.085   2.551 -0.2119 -0.6591  0.2855
 2450TIP3    H1 7291   1.636   3.113   2.465  0.3955  1.0018  0.9798
 2450TIP3    H2 7292   1.649   3.001   2.566  0.9281 -0.2177 -0.3952
 2451TIP3   OH2 7293   1.794   0.069   6.732 -0.4381  0.1679 -0.2654
 2451TIP3    H1 7294   1.827   0.049   6.644  0.0725  1.1474 -0.3068
 2451TIP3    H2 7295   1.871   0.097   6.781 -0.8743  0.5349  0.2221
 2452TIP3   OH2 7296   5.239   6.218   0.752 -0.2096  0.0282  0.0970
 2452TIP3    H1 7297   5.326   6.247   0.724 -0.5846  0.3268 -0.7836
 2452TIP3    H2 7298   5.254   6.176   0.837  1.0406 -1.4009 -0.7963
 2453TIP3   OH2 7299   7.242   3.670   1.835 -0.2905  0.3906  0.2867
 2453TIP3    H1 7300   7.335   3.662   1.815 -0.6338 -0.8882 -0.9758
 2453TIP3    H2 7301   7.215   3.581   1.861 -1.3948  0.4783 -0.5036
 2454TIP3   OH2 7302   0.031   7.643   4.286  0.2909 -0.6082 -0.2209
 2454TIP3    H1 7303  -0.037   7.708   4.268 -0.4890 -1.3934 -0.1685
 2454TIP3    H2 7304   0.072   7.673   4.367  0.1769 -0.0038 -0.3784
 2455TIP3   OH2 7305   1.603   1.805   2.811 -0.1465 -0.0063  0.6917
 2455TIP3    H1 7306   1.696   1.788   2.796 -0.3479 -0.1147 -0.5917
 2455TIP3    H2 7307   1.599   1.847   2.897  1.2567  1.6021  0.0084
 2456TIP3   OH2 7308   2.567   4.530   5.518 -0.4182 -0.2644 -0.9159
 2456TIP3    H1 7309   2.642   4.578   5.553 -0.8808 -1.0199  1.2743
 2456TIP3    H2 7310   2.574   4.540   5.423  1.9117  0.4525 -0.7272
 2457TIP3   OH2 7311   7.937   2.691   1.209 -0.3308 -0.4890  0.4981
 2457TIP3    H1 7312   7.932   2.634   1.132  1.3444  1.8918 -1.5504
 2457TIP3    H2 7313   7.874   2.761   1.192  1.5044  1.1700  0.2053
 2458TIP3   OH2 7314   6.051   2.132   1.636  0.2988 -0.2258  0.3112
 2458TIP3    H1 7315   6.075   2.056   1.689  2.3115  0.6485  0.7058
 2458TIP3    H2 7316   6.130   2.185   1.630 -0.0714  0.1924 -2.8242
 2459TIP3   OH2 7317   5.570   4.253   1.213  0.2162 -0.1914  0.4667
 2459TIP3    H1 7318   5.650   4.274   1.166  0.2126  1.8403  1.2674
 2459TIP3    H2 7319   5.595   4.253   1.305 -0.3652 -1.2188  0.6358
 2460TIP3   OH2 7320   8.101   7.581   2.389  0.2522  0.0264  0.2512
 2460TIP3    H1 7321   8.061   7.643   2.328  2.4537  1.4810  0.1579
 2460TIP3    H2 7322   8.082   7.617   2.476 -0.7507 -0.6676  0.3276
 2461TIP3   OH2 7323   1.098   6.477   6.105  0.4448  0.2141  0.1534
 2461TIP3    H1 7324   1.119   6.431   6.024  1.3333 -0.3912  0.7083
 2461TIP3    H2 7325   1.014   6.520   6.088  0.0495 -0.8519 -0.6972
 2462TIP3   OH2 7326   4.968   0.493   4.343 -0.1396 -0.7642  0.0894
 2462TIP3    H1 7327   4.879   0.524   4.327  0.3199 -0.6576 -2.6535
 2462TIP3    H2 7328   4.988   0.526   4.431 -1.7603  1.7289 -0.3613
 2463TIP3   OH2 7329   2.697   4.404   6.678 -0.0767 -0.1618  0.1141
 2463TIP3    H1 7330   2.751   4.430   6.603  2.8965 -0.4346  1.9969
 2463TIP3    H2 7331   2.683   4.485   6.727 -0.4110 -0.2969  0.2460
 2464TIP3   OH2 7332   3.290   5.722  -0.012 -0.3159  0.1702  0.4871
 2464TIP3    H1 7333   3.304   5.703   0.081  1.6203  1.1973  0.4550
 2464TIP3    H2 7334   3.330   5.648  -0.057 -0.5804  0.0455  0.4546
 2465TIP3   OH2 7335   5.568   1.392   4.701 -0.0867 -0.7575 -0.1180
 2465TIP3    H1 7336   5.508   1.444   4.754 -0.2103 -1.9399  0.9730
 2465TIP3    H2 7337   5.594   1.449   4.629 -1.5793  0.1794  0.0608
 2466TIP3   OH2 7338   5.559   7.665   2.131 -0.1483  0.1183  0.2452
 2466TIP3    H1 7339   5.508   7.681   2.211  1.1555  0.6605  1.0037
 2466TIP3    H2 7340   5.565   7.751   2.090 -0.2343 -0.0366 -0.0931
 2467TIP3   OH2 7341   0.435   5.858   1.833 -0.2462 -0.1856  0.5340
 2467TIP3    H1 7342   0.459   5.844   1.924 -1.1566 -1.6012  0.5893
 2467TIP3    H2 7343   0.349   5.816   1.825 -0.7013  0.9210 -0.6949
 2468TIP3   OH2 7344   7.860   1.286   0.449  1.0734 -0.2840  0.2900
 2468TIP3    H1 7345   7.942   1.238   0.465  1.6378  0.1332 -1.1988
 2468TIP3    H2 7346   7.797   1.218   0.426  1.0291 -0.5874  1.2326
 2469TIP3   OH2 7347   2.549   0.167   0.511  0.1049 -0.4123  0.6635
 2469TIP3    H1 7348   2.552   0.072   0.510 -0.0459 -0.4246 -0.5427
 2469TIP3    H2 7349   2.579   0.192   0.598  0.8607 -1.5391  0.7428
 2470TIP3   OH2 7350   0.496   7.740   2.084  0.5943  0.0745  0.5989
 2470TIP3    H1 7351   0.459   7.749   1.996  0.6041 -1.7181  0.3613
 2470TIP3    H2 7352   0.578   7.692   2.071  0.8084  0.1601  1.5488
 2471TIP3   OH2 7353   8.159   7.107   6.315 -0.3899  0.3984  0.3459
 2471TIP3    H1 7354   8.091   7.175   6.323 -0.0572  0.5545  2.2377
 2471TIP3    H2 7355   8.150   7.056   6.395  1.2439 -0.0400  0.2629
 2472TIP3   OH2 7356   1.349   3.464   0.790  0.0066 -0.1812  0.2321
 2472TIP3    H1 7357   1.376   3.549   0.755  0.7301 -0.1781  0.7902
 2472TIP3    H2 7358   1.383   3.400   0.727  0.9723 -0.1528  0.7100
 2473TIP3   OH2 7359   2.575   1.966   3.782  0.0330 -0.1570 -0.3374
 2473TIP3    H1 7360   2.590   1.873   3.799  0.9572 -0.0793 -0.6934
 2473TIP3    H2 7361   2.479   1.976   3.783 -0.1329 -1.3525 -1.5734
 2474TIP3   OH2 7362   4.494   2.229   1.003 -0.4433 -0.2861 -0.0168
 2474TIP3    H1 7363   4.410   2.268   0.980 -0.0469  1.1705  0.9212
 2474TIP3    H2 7364   4.522   2.275   1.083  1.6138 -0.1640 -0.7398
 2475TIP3   OH2 7365   1.947   7.574   5.802  0.3816 -0.2593 -0.1366
 2475TIP3    H1 7366   1.886   7.521   5.855 -0.6478  0.5131 -0.5148
 2475TIP3    H2 7367   1.904   7.659   5.794  1.3126  0.1635 -0.8103
 2476TIP3   OH2 7368   3.754   0.794   4.367  0.2615 -0.5186 -0.6941
 2476TIP3    H1 7369   3.668   0.803   4.325  1.0282 -1.4820 -2.5911
 2476TIP3    H2 7370   3.810   0.857   4.321  0.9597 -1.0914 -0.6470
 2477TIP3   OH2 7371   2.256   3.135   2.654  0.3255 -0.1828  0.3376
 2477TIP3    H1 7372   2.161   3.140   2.664  0.1234 -1.2559 -0.7403
 2477TIP3    H2 7373   2.282   3.223   2.627 -0.1857  0.4263  1.7343
 2478TIP3   OH2 7374   4.613   7.037   1.795 -0.0922 -0.1893 -0.3771
 2478TIP3    H1 7375   4.530   7.083   1.786  0.4993  1.6872  2.4507
 2478TIP3    H2 7376   4.600   6.976   1.867  1.3924  1.4795  1.4260
 2479TIP3   OH2 7377   3.421   5.070   5.389  0.0700  0.2684 -0.6908
 2479TIP3    H1 7378   3.459   4.983   5.377  0.8727  0.4365  0.5116
 2479TIP3    H2 7379   3.333   5.063   5.353 -0.2559 -1.3518  0.3462
 2480TIP3   OH2 7380   0.357   3.545   2.544 -0.6256  0.0671 -0.1495
 2480TIP3    H1 7381   0.330   3.541   2.635 -1.2046  0.8903 -0.2729
 2480TIP3    H2 7382   0.276   3.534   2.494 -0.4705  0.6741 -0.5481
 2481TIP3   OH2 7383   8.144   0.877   0.811 -0.0677 -0.3271  0.1220
 2481TIP3    H1 7384   8.224   0.928   0.824  1.1343 -1.7188 -1.4536
 2481TIP3    H2 7385   8.150   0.845   0.721 -2.4651 -0.4007 -0.0703
 2482TIP3   OH2 7386   6.003   5.718   3.846  0.2075 -0.0895 -0.3765
 2482TIP3    H1 7387   6.039   5.630   3.848 -0.9410 -0.5840 -0.5432
 2482TIP3    H2 7388   5.982   5.733   3.754 -3.3843 -1.2912  0.0903
 2483TIP3   OH2 7389   4.197   5.569   4.530  0.2794 -0.0967  0.0092
 2483TIP3    H1 7390   4.132   5.629   4.568  2.1333  0.9380  1.7336
 2483TIP3    H2 7391   4.186   5.488   4.579  1.2315  0.5644  1.4126
 2484TIP3   OH2 7392   2.116   3.364   1.949  0.1639 -0.1608  0.0580
 2484TIP3    H1 7393   2.091   3.441   1.999  1.0924  1.0556 -1.2491
 2484TIP3    H2 7394   2.107   3.391   1.857 -0.9035 -2.0978 -0.4624
 2485TIP3   OH2 7395   0.284   7.127   2.498  0.4202  0.8475  0.5646
 2485TIP3    H1 7396   0.208   7.088   2.541  0.5315  0.0363  0.0517
 2485TIP3    H2 7397   0.250   7.203   2.451  0.4909  2.5532  3.0676
 2486TIP3   OH2 7398   4.942   6.317   1.136 -0.6542  0.4089  0.2459
 2486TIP3    H1 7399   4.980   6.382   1.077  1.8774  0.3223  1.6888
 2486TIP3    H2 7400   4.888   6.262   1.078  0.6844  1.0953 -1.7665
 2487TIP3   OH2 7401   1.333   1.873   1.825 -0.3208  0.3388 -0.5571
 2487TIP3    H1 7402   1.401   1.818   1.864  0.1211  0.9900 -0.4053
 2487TIP3    H2 7403   1.262   1.872   1.889 -1.7097 -2.7033 -1.9412
 2488TIP3   OH2 7404   4.209   3.962   2.730  0.1306  0.2576 -0.3914
 2488TIP3    H1 7405   4.260   3.896   2.684  0.4000 -0.2771  0.6446
 2488TIP3    H2 7406   4.119   3.928   2.731  0.4167 -0.5314  0.8718
 2489TIP3   OH2 7407   4.931   1.657   2.474 -0.0414 -0.2492  0.1600
 2489TIP3    H1 7408   4.999   1.660   2.407 -0.0502  0.6045  0.1848
 2489TIP3    H2 7409   4.878   1.735   2.458 -1.1665 -1.0128 -0.0123
 2490TIP3   OH2 7410   8.330   5.752   3.199 -0.2077 -0.0096 -0.1576
 2490TIP3    H1 7411   8.325   5.708   3.284 -0.4752 -0.2284 -0.2858
 2490TIP3    H2 7412   8.270   5.703   3.143  0.5515 -0.3562 -0.6953
 2491TIP3   OH2 7413   1.841   7.706   2.959 -0.2260  0.2834 -0.1233
 2491TIP3    H1 7414   1.902   7.639   2.929  0.6615  0.0337  2.0261
 2491TIP3    H2 7415   1.895   7.783   2.973 -0.4652  0.2246  1.2752
 2492TIP3   OH2 7416   1.264   0.122   2.509  0.6854 -0.2439  0.5935
 2492TIP3    H1 7417   1.281   0.203   2.460  1.5110 -1.1237 -0.6626
 2492TIP3    H2 7418   1.216   0.149   2.587 -2.7381  1.0414 -1.7387
 2493TIP3   OH2 7419   3.060   1.177   3.326 -0.3557  0.4133  0.3806
 2493TIP3    H1 7420   3.141   1.224   3.306 -0.4778  0.1173 -0.9241
 2493TIP3    H2 7421   2.994   1.219   3.269 -1.4668  1.6002  2.4273
 2494TIP3   OH2 7422   6.181   5.885   2.336 -0.0284  0.5058 -0.2235
 2494TIP3    H1 7423   6.211   5.824   2.404 -0.6823 -0.5535 -0.8569
 2494TIP3    H2 7424   6.092   5.857   2.317  0.0011  1.0625 -1.2226
 2495TIP3   OH2 7425   7.391   0.564   4.310 -0.4975  0.4297 -0.4934
 2495TIP3    H1 7426   7.319   0.598   4.363 -1.2684  0.6662 -1.6618
 2495TIP3    H2 7427   7.387   0.469   4.323 -1.0961  0.4301 -0.6263
 2496TIP3   OH2 7428   5.834   4.728   2.776 -0.1944 -0.7521  0.1899
 2496TIP3    H1 7429   5.834   4.783   2.697  0.8141 -2.1505 -0.8363
 2496TIP3    H2 7430   5.760   4.669   2.764 -1.6099  0.6572  1.5464
 2497TIP3   OH2 7431   5.600   5.631   0.635  0.1805  0.3840  0.2695
 2497TIP3    H1 7432   5.680   5.661   0.592  1.8036 -0.5722  2.4408
 2497TIP3    H2 7433   5.538   5.704   0.624  1.4672  1.3238 -1.1044
 2498TIP3   OH2 7434   0.102   1.511   6.743  0.2189  0.2929  0.1508
 2498TIP3    H1 7435   0.153   1.517   6.663 -1.5926  0.7916 -1.0261
 2498TIP3    H2 7436   0.120   1.423   6.777  0.1567 -0.3604 -1.4282
 2499TIP3   OH2 7437   5.140   6.683   3.549 -0.2143  0.0230 -0.0899
 2499TIP3    H1 7438   5.216   6.741   3.555  0.6124 -1.1200  1.0486
 2499TIP3    H2 7439   5.170   6.609   3.495 -1.0153  0.2780 -0.9046
 2500TIP3   OH2 7440   5.109   2.400   4.580 -0.6760  0.1402 -0.3563
 2500TIP3    H1 7441   5.035   2.347   4.611 -0.3670 -0.2703 -0.3063
 2500TIP3    H2 7442   5.159   2.340   4.524  0.4672 -0.0747  0.8429
 2501TIP3   OH2 7443   4.246   5.932   0.327 -0.6514 -0.0505 -0.4242
 2501TIP3    H1 7444   4.206   6.014   0.299 -1.3358  0.3727  1.6337
 2501TIP3    H2 7445   4.325   5.924   0.274  0.1623  2.6337  0.2196
 2502TIP3   OH2 7446   3.704   5.707   5.298 -0.3672 -0.2928  0.5754
 2502TIP3    H1 7447   3.667   5.670   5.378  1.1909 -0.5299  1.2198
 2502TIP3    H2 7448   3.786   5.658   5.285  0.4167  1.1263 -0.0149
 2503TIP3   OH2 7449   4.254   4.105   4.747 -0.0198 -0.1967 -0.1414
 2503TIP3    H1 7450   4.262   4.193   4.711  0.0695 -0.8856 -1.8743
 2503TIP3    H2 7451   4.161   4.095   4.765 -0.1687 -0.0791 -0.8325
 2504TIP3   OH2 7452   4.794   1.657   5.570 -0.0832 -0.1896 -0.3894
 2504TIP3    H1 7453   4.771   1.741   5.529 -1.0104 -1.0669 -1.7539
 2504TIP3    H2 7454   4.889   1.662   5.583 -0.0368  0.8347 -0.9993
 2505TIP3   OH2 7455   2.831   6.451   4.057 -0.1701  0.3330  0.5044
 2505TIP3    H1 7456   2.775   6.512   4.009 -0.6281 -0.7470 -0.3824
 2505TIP3    H2 7457   2.770   6.391   4.100  0.2455  1.0467  2.1875
 2506TIP3   OH2 7458   3.412   6.195   2.872 -0.0529 -0.1340  0.0194
 2506TIP3    H1 7459   3.440   6.122   2.927 -1.0142  0.4520  1.3279
 2506TIP3    H2 7460   3.328   6.222   2.909 -0.7239  0.3053 -1.7342
 2507TIP3   OH2 7461   0.153   7.514   0.379 -0.5837  0.3967 -0.6182
 2507TIP3    H1 7462   0.097   7.589   0.400 -0.5106 -0.1640  1.8851
 2507TIP3    H2 7463   0.241   7.542   0.404 -0.6290 -0.6574  0.7771
 2508TIP3   OH2 7464   2.352   1.790   2.419 -0.0474  0.1039 -0.4337
 2508TIP3    H1 7465   2.440   1.783   2.384  0.4241  0.0831  0.6937
 2508TIP3    H2 7466   2.364   1.783   2.514 -0.9330  2.8621 -0.0283
 2509TIP3   OH2 7467   8.073   2.999   2.681  0.7037  0.6137  0.1159
 2509TIP3    H1 7468   8.066   2.984   2.775  0.6491  0.3757  0.0749
 2509TIP3    H2 7469   8.035   2.921   2.641  2.6598 -0.2934 -0.1206
 2510TIP3   OH2 7470   3.322   3.095   5.647 -0.0059 -0.1668 -0.1750
 2510TIP3    H1 7471   3.242   3.045   5.664 -0.8493  1.5137  1.0695
 2510TIP3    H2 7472   3.383   3.031   5.609 -2.1192 -1.3593 -1.7527
 2511TIP3   OH2 7473   7.387   1.327   4.842  0.4286 -0.0656 -0.3821
 2511TIP3    H1 7474   7.342   1.409   4.822 -0.9207 -0.8979 -0.9323
 2511TIP3    H2 7475   7.318   1.261   4.838  0.8161 -0.8696  3.0509
 2512TIP3   OH2 7476   4.657   6.590   5.148 -0.1200 -0.1587  0.3531
 2512TIP3    H1 7477   4.673   6.660   5.085  0.0655 -2.1097 -1.9173
 2512TIP3    H2 7478   4.619   6.634   5.224 -0.9054  2.2628 -1.3295
 2513TIP3   OH2 7479   0.291   3.120   1.510 -0.8163  0.2969 -0.1480
 2513TIP3    H1 7480   0.355   3.183   1.478  0.4959 -0.9238 -0.0516
 2513TIP3    H2 7481   0.228   3.110   1.438 -1.0664  1.6821 -0.1553
 2514TIP3   OH2 7482   5.492   3.868   1.930 -0.2816  0.0608  0.5962
 2514TIP3    H1 7483   5.520   3.958   1.942  1.7596 -0.7556  2.7863
 2514TIP3    H2 7484   5.396   3.872   1.925 -0.1911  2.3788 -0.3265
 2515TIP3   OH2 7485   3.223   3.862   5.322 -0.0703  0.7074 -0.1400
 2515TIP3    H1 7486   3.283   3.869   5.247  0.4187  0.9307  0.2662
 2515TIP3    H2 7487   3.264   3.915   5.390 -2.6240  4.1679 -1.0459
 2516TIP3   OH2 7488   3.046   6.513   4.334 -0.0223 -0.4464  0.1514
 2516TIP3    H1 7489   2.973   6.497   4.274 -1.2491 -0.8364  1.6489
 2516TIP3    H2 7490   3.108   6.442   4.316 -0.8934 -1.2236  0.0894
 2517TIP3   OH2 7491   5.165   1.693   5.566  0.0595 -0.0087 -0.0573
 2517TIP3    H1 7492   5.231   1.624   5.568 -0.9642 -1.0187  0.7255
 2517TIP3    H2 7493   5.099   1.664   5.629 -0.4881  1.6171  0.1559
 2518TIP3   OH2 7494   8.324   1.324   2.450  0.0213  0.0145  0.3939
 2518TIP3    H1 7495   8.238   1.285   2.466 -0.1320  0.3574  0.4124
 2518TIP3    H2 7496   8.305   1.415   2.428  0.4114  0.2052  0.8359
 2519TIP3   OH2 7497   1.695   5.107   2.269  0.2493  0.4860  0.0882
 2519TIP3    H1 7498   1.674   5.089   2.177  0.6947 -0.0822  0.0920
 2519TIP3    H2 7499   1.784   5.140   2.268  0.2267  0.5585  0.3083
 2520TIP3   OH2 7500   0.193   0.926   1.177  0.1900 -0.0415 -0.2914
 2520TIP3    H1 7501   0.120   0.978   1.210 -0.7170 -0.5485 -1.4230
 2520TIP3    H2 7502   0.152   0.850   1.136  1.3532 -0.3883 -0.8651
 2521TIP3   OH2 7503   4.834   6.765   6.046  0.1534  0.0242  0.4271
 2521TIP3    H1 7504   4.836   6.858   6.021  0.0425 -0.1848 -0.3635
 2521TIP3    H2 7505   4.903   6.758   6.113 -1.4777  1.1793  2.3697
 2522TIP3   OH2 7506   7.697   0.435   5.327  0.1756  0.2139 -0.1184
 2522TIP3    H1 7507   7.775   0.392   5.362  1.4415  1.0410 -1.7525
 2522TIP3    H2 7508   7.637   0.441   5.401  1.5213 -0.7463  1.1112
 2523TIP3   OH2 7509   0.344   3.880   3.782 -0.1765 -0.1108 -0.6039
 2523TIP3    H1 7510   0.255   3.914   3.773 -1.3363 -1.9905  2.1159
 2523TIP3    H2 7511   0.387   3.940   3.842 -0.9675 -1.1677  1.1258
 2524TIP3   OH2 7512   1.182   4.812   2.300 -0.1769 -0.6282 -0.2734
 2524TIP3    H1 7513   1.106   4.826   2.243 -0.6347 -0.6469  0.3217
 2524TIP3    H2 7514   1.210   4.900   2.325  2.1462 -0.3863 -3.2040
 2525TIP3   OH2 7515   8.074   7.797   5.077  0.3853  0.1564  0.6222
 2525TIP3    H1 7516   8.017   7.874   5.075  2.2250  1.5734 -0.7694
 2525TIP3    H2 7517   8.106   7.789   4.987  1.3668 -1.3575  1.0814
 2526TIP3   OH2 7518   3.432   5.588   2.295 -0.1639  0.3057  0.1078
 2526TIP3    H1 7519   3.510   5.632   2.330 -0.3085 -0.2037  1.1213
 2526TIP3    H2 7520   3.362   5.651   2.307  0.2325  1.1089 -1.6253
 2527TIP3   OH2 7521   0.997   2.460   5.554  0.1562  0.0420 -0.1685
 2527TIP3    H1 7522   1.091   2.458   5.573 -0.2496  0.3256  2.1206
 2527TIP3    H2 7523   0.965   2.539   5.597 -1.4618 -1.1391  0.9247
 2528TIP3   OH2 7524   0.976   5.369   2.684  0.1385  0.1105  0.1703
 2528TIP3    H1 7525   0.903   5.415   2.644  0.2058  0.3173  0.2880
 2528TIP3    H2 7526   0.995   5.417   2.764 -0.8784 -1.0948  1.1726
 2529TIP3   OH2 7527   4.621   1.860   3.694 -0.0197 -0.0709 -0.0079
 2529TIP3    H1 7528   4.689   1.905   3.644  1.5565 -1.7339  0.4883
 2529TIP3    H2 7529   4.658   1.773   3.711 -1.5074 -0.4025  1.9288
 2530TIP3   OH2 7530   1.248   2.587   5.895  0.5930  0.1979 -0.8617
 2530TIP3    H1 7531   1.263   2.624   5.808 -1.5698 -0.3652 -1.5464
 2530TIP3    H2 7532   1.257   2.492   5.882  1.0050  0.1506 -0.2818
 2531TIP3   OH2 7533   3.212   6.216   4.658  0.4759 -0.1919  0.0004
 2531TIP3    H1 7534   3.144   6.161   4.698 -0.0680  0.9871  0.7561
 2531TIP3    H2 7535   3.238   6.276   4.728  2.4224 -0.7167 -0.2286
 2532TIP3   OH2 7536   7.667   6.170   4.174 -0.1507 -0.2837  0.5205
 2532TIP3    H1 7537   7.666   6.148   4.081 -2.8427 -1.3595  0.6961
 2532TIP3    H2 7538   7.681   6.265   4.176 -1.0467 -0.0844 -1.0577
 2533TIP3   OH2 7539   8.379   0.944   4.983  0.0673 -0.0417  0.3013
 2533TIP3    H1 7540   8.353   1.035   4.973 -0.2659 -0.1525  0.1620
 2533TIP3    H2 7541   8.412   0.919   4.896  0.1599 -0.0524  0.3397
 2534TIP3   OH2 7542   1.163   4.238   6.055  0.6795  0.3196  0.3137
 2534TIP3    H1 7543   1.221   4.304   6.094  0.5397  0.0671  0.9747
 2534TIP3    H2 7544   1.175   4.161   6.111 -0.8906  0.5041  0.9396
 2535TIP3   OH2 7545   2.858   5.668   3.924 -0.2586  0.0729  0.4264
 2535TIP3    H1 7546   2.841   5.728   3.997 -1.3905 -0.3342  0.5115
 2535TIP3    H2 7547   2.809   5.706   3.850  0.5029  0.2304 -0.0046
 2536TIP3   OH2 7548   7.304   5.421   5.955 -0.1774  0.3333 -0.3976
 2536TIP3    H1 7549   7.317   5.406   6.049  0.2984 -0.9831 -0.6427
 2536TIP3    H2 7550   7.392   5.413   5.918 -0.2893  1.3613 -0.8955
 2537TIP3   OH2 7551   6.352   0.422   2.710  0.1794  0.8165 -0.1619
 2537TIP3    H1 7552   6.277   0.481   2.717 -1.5897 -0.9772 -2.3918
 2537TIP3    H2 7553   6.332   0.350   2.771  0.3850  0.6051 -0.3418
 2538TIP3   OH2 7554   6.053   3.036   5.655  0.6079 -0.4495 -0.4238
 2538TIP3    H1 7555   5.994   3.043   5.579  0.3559 -0.2462 -0.2140
 2538TIP3    H2 7556   6.007   3.083   5.725  0.4843 -1.2806  0.0660
 2539TIP3   OH2 7557   2.889   6.217   6.112  0.6707  0.7861 -0.8574
 2539TIP3    H1 7558   2.871   6.202   6.205 -2.3803 -1.2913 -1.6710
 2539TIP3    H2 7559   2.980   6.188   6.101  0.8815  0.4338  1.3097
 2540TIP3   OH2 7560   7.931   5.437   2.229 -0.4839  0.0717 -0.5603
 2540TIP3    H1 7561   7.876   5.445   2.307  1.1140 -4.5250  1.3284
 2540TIP3    H2 7562   8.011   5.486   2.250 -0.8283  0.4940 -0.2156
 2541TIP3   OH2 7563   5.656   4.838   4.821  0.5960 -0.1498  0.3236
 2541TIP3    H1 7564   5.657   4.745   4.843 -0.5032  0.1842  2.0293
 2541TIP3    H2 7565   5.713   4.879   4.886  2.2721  0.2586 -1.3168
 2542TIP3   OH2 7566   3.773   7.253   0.182  0.0933  0.2330  0.3938
 2542TIP3    H1 7567   3.792   7.245   0.275 -0.7484  0.6059  0.6030
 2542TIP3    H2 7568   3.700   7.315   0.177  0.0166  0.0867 -0.4962
 2543TIP3   OH2 7569   1.953   3.180   3.889  0.3317 -1.1375 -0.3436
 2543TIP3    H1 7570   1.897   3.117   3.843 -0.5258 -1.2559  0.8091
 2543TIP3    H2 7571   2.013   3.213   3.822 -0.8183 -1.3571 -1.5060
 2544TIP3   OH2 7572   2.156   4.804   4.612 -0.4640  0.3716 -0.3340
 2544TIP3    H1 7573   2.095   4.770   4.547 -1.5386  0.9748  0.3425
 2544TIP3    H2 7574   2.163   4.733   4.677  0.0064  0.0772 -0.7030
 2545TIP3   OH2 7575   1.721   2.236   1.232  0.6981  0.6238 -0.2109
 2545TIP3    H1 7576   1.709   2.275   1.146  1.1302 -1.4737 -1.2890
 2545TIP3    H2 7577   1.736   2.311   1.290 -2.7028  2.3868 -1.2936
 2546TIP3   OH2 7578   6.141   6.758   1.746 -0.8946 -0.0311 -0.3332
 2546TIP3    H1 7579   6.177   6.843   1.774  1.7348 -1.2859  0.4560
 2546TIP3    H2 7580   6.062   6.747   1.798 -0.2506  1.1141  0.9530
 2547TIP3   OH2 7581   7.087   2.859   4.160  0.6187  0.3690  0.0631
 2547TIP3    H1 7582   7.031   2.872   4.083  0.6274 -1.6397 -0.3438
 2547TIP3    H2 7583   7.173   2.890   4.132 -0.0778  2.8811  0.4756
 2548TIP3   OH2 7584   1.090   1.145   1.062 -0.5045 -0.2633  0.0765
 2548TIP3    H1 7585   1.084   1.240   1.071  1.4851 -0.0036 -0.8117
 2548TIP3    H2 7586   1.179   1.124   1.088 -0.1655 -1.5763 -1.9325
 2549TIP3   OH2 7587   7.173   7.229   5.574 -0.0033 -0.6338 -0.2062
 2549TIP3    H1 7588   7.145   7.170   5.644  1.4749 -0.9093  0.1919
 2549TIP3    H2 7589   7.163   7.178   5.494 -1.9389 -0.2350 -0.2742
 2550TIP3   OH2 7590   6.127   6.167   0.408 -0.1488  0.2521 -0.4906
 2550TIP3    H1 7591   6.062   6.104   0.377  0.3667 -0.7700  0.4285
 2550TIP3    H2 7592   6.128   6.235   0.341 -0.5546 -0.8306 -1.6350
 2551TIP3   OH2 7593   7.786   1.891   6.547  0.5029  0.0521  0.5186
 2551TIP3    H1 7594   7.830   1.947   6.482  0.4087 -0.5562 -0.0799
 2551TIP3    H2 7595   7.793   1.940   6.629  1.7152  0.2747  0.3039
 2552TIP3   OH2 7596   8.073   1.561   5.523 -0.5347  0.6093 -0.2345
 2552TIP3    H1 7597   7.980   1.555   5.548 -0.0776 -1.7330  1.1516
 2552TIP3    H2 7598   8.101   1.470   5.514  1.2432  1.2971 -2.3271
 2553TIP3   OH2 7599   2.572   2.196   0.771 -0.0274  0.0220  0.6707
 2553TIP3    H1 7600   2.542   2.178   0.682  0.6069 -0.7134  0.5938
 2553TIP3    H2 7601   2.591   2.290   0.772  2.3213 -0.3493 -0.7237
 2554TIP3   OH2 7602   2.835   3.992   3.600  0.2695  0.1110  0.7092
 2554TIP3    H1 7603   2.845   4.027   3.512  1.3466  1.0995  1.1890
 2554TIP3    H2 7604   2.742   3.971   3.608  0.1243  0.1878 -0.5811
 2555TIP3   OH2 7605   1.332   2.420   2.442  0.0752 -0.6526 -0.2331
 2555TIP3    H1 7606   1.417   2.413   2.485  0.4232  0.2790 -0.7365
 2555TIP3    H2 7607   1.329   2.346   2.382  0.3860 -0.8816  0.0334
 2556TIP3   OH2 7608   4.160   6.543   4.805 -0.2124 -0.5907 -0.4530
 2556TIP3    H1 7609   4.232   6.606   4.798  0.8078 -1.7388 -0.6542
 2556TIP3    H2 7610   4.117   6.546   4.719 -1.7969  1.6474  0.3328
 2557TIP3   OH2 7611   4.928   5.821   4.838 -0.0962  0.4335 -0.2100
 2557TIP3    H1 7612   4.876   5.829   4.758  2.8060  0.7629 -2.2283
 2557TIP3    H2 7613   4.941   5.911   4.867  0.3425  0.4445 -0.4311
 2558TIP3   OH2 7614   7.054   0.663   6.050  0.6130 -0.1193 -0.3082
 2558TIP3    H1 7615   7.020   0.574   6.046  0.3441  0.0309 -1.9150
 2558TIP3    H2 7616   6.983   0.718   6.018  1.0377  0.6143 -0.0386
 2559TIP3   OH2 7617   6.651   2.350   4.124  0.4838  0.0924 -0.1473
 2559TIP3    H1 7618   6.581   2.414   4.138  1.0687  0.9344 -0.9870
 2559TIP3    H2 7619   6.687   2.372   4.038  2.7004  0.5595  0.8333
 2560TIP3   OH2 7620   5.321   2.257   2.588  0.2584 -0.2095  0.2976
 2560TIP3    H1 7621   5.399   2.312   2.579  0.6210 -0.6535  0.6771
 2560TIP3    H2 7622   5.348   2.171   2.554  0.4597 -0.8283  1.9137
 2561TIP3   OH2 7623   4.605   1.476   1.635  0.5603  0.2118  0.2701
 2561TIP3    H1 7624   4.568   1.502   1.720  0.3813 -1.2993  0.6837
 2561TIP3    H2 7625   4.566   1.391   1.617 -0.3039  0.9967 -1.9126
 2562TIP3   OH2 7626   3.801   1.983   4.557 -0.3755 -0.1136  0.3022
 2562TIP3    H1 7627   3.850   1.927   4.617 -0.9315 -0.7849  0.1482
 2562TIP3    H2 7628   3.791   1.929   4.478 -1.9860 -0.2843  0.5905
 2563TIP3   OH2 7629   1.900   5.669   1.777  0.4467  0.3891 -0.0204
 2563TIP3    H1 7630   1.973   5.614   1.749  0.4268 -0.2196  1.0732
 2563TIP3    H2 7631   1.840   5.608   1.821  0.1931  1.2012  0.7912
 2564TIP3   OH2 7632   2.401   0.800   5.444 -0.2117  0.3980  0.2290
 2564TIP3    H1 7633   2.494   0.820   5.438  0.1391 -0.9972  0.4601
 2564TIP3    H2 7634   2.390   0.722   5.390 -1.6205  1.5629 -1.2574
 2565TIP3   OH2 7635   3.519   2.981   4.537 -0.0571 -0.0006 -0.2984
 2565TIP3    H1 7636   3.561   3.028   4.464  0.7616  0.4725  0.4541
 2565TIP3    H2 7637   3.428   3.010   4.535 -0.3105 -0.7688 -1.7498
 2566TIP3   OH2 7638   2.712   0.274   5.064 -0.3664  0.2273 -0.0977
 2566TIP3    H1 7639   2.676   0.297   5.149  0.9044 -1.4094  0.9409
 2566TIP3    H2 7640   2.725   0.358   5.020  1.0118  1.3108  2.2028
 2567TIP3   OH2 7641   1.779   3.904   4.110  0.4927 -0.4945  1.3236
 2567TIP3    H1 7642   1.860   3.895   4.160  1.0758 -3.5363  0.0520
 2567TIP3    H2 7643   1.710   3.875   4.170  0.9816 -2.4681  0.9976
 2568TIP3   OH2 7644   8.369   6.415   5.294  0.3452 -0.3658 -0.0569
 2568TIP3    H1 7645   8.374   6.356   5.219 -1.3657  0.9343 -1.2944
 2568TIP3    H2 7646   8.392   6.501   5.259  2.1866 -0.1208  1.5635
 2569TIP3   OH2 7647   7.320   1.523   5.174  0.7907  0.1432 -0.1695
 2569TIP3    H1 7648   7.395   1.477   5.210 -0.1594 -1.2682  0.1092
 2569TIP3    H2 7649   7.326   1.508   5.079 -0.0307 -1.4600 -0.0041
 2570TIP3   OH2 7650   4.608   7.361   2.877 -0.4248  0.0285  0.0423
 2570TIP3    H1 7651   4.657   7.440   2.855 -0.6784  0.2070  0.1054
 2570TIP3    H2 7652   4.608   7.310   2.796 -0.8049  0.3881 -0.1918
 2571TIP3   OH2 7653   1.181   2.178   6.376 -0.4717  0.1498 -0.2263
 2571TIP3    H1 7654   1.104   2.200   6.427 -0.9924 -0.1967 -0.8509
 2571TIP3    H2 7655   1.252   2.228   6.416 -0.7729 -0.4533  1.1065
 2572TIP3   OH2 7656   3.414   0.266   0.978  0.0995 -0.1994  0.5094
 2572TIP3    H1 7657   3.446   0.354   0.994  0.8557 -0.5098  0.7571
 2572TIP3    H2 7658   3.346   0.277   0.912 -0.0752  0.6058  0.8170
 2573TIP3   OH2 7659   0.155   5.088   4.970 -0.5661  0.3643  0.0536
 2573TIP3    H1 7660   0.245   5.056   4.974 -0.9120 -0.5745  2.5617
 2573TIP3    H2 7661   0.163   5.181   4.949  0.9727  0.2383  0.0175
 2574TIP3   OH2 7662   2.276   7.095   4.177 -0.0306  0.0721 -0.2026
 2574TIP3    H1 7663   2.303   7.155   4.108  0.1581  1.7366  1.2484
 2574TIP3    H2 7664   2.242   7.018   4.131  1.0012  0.7103 -2.1048
 2575TIP3   OH2 7665   0.103   4.398   0.149  0.3252 -0.7222 -0.0694
 2575TIP3    H1 7666   0.032   4.462   0.138  2.5771  1.7777 -1.1238
 2575TIP3    H2 7667   0.111   4.357   0.063 -0.9157 -2.3407  0.5265
 2576TIP3   OH2 7668   2.102   2.784   4.097 -0.5640  0.2819  0.2680
 2576TIP3    H1 7669   2.021   2.803   4.049  0.8211  0.8187 -2.0162
 2576TIP3    H2 7670   2.110   2.857   4.159 -1.4947  0.5830  0.0545
 2577TIP3   OH2 7671   7.632   0.076   2.891  0.1028 -1.0409 -0.0345
 2577TIP3    H1 7672   7.559   0.026   2.855 -0.4974 -0.7493  0.7356
 2577TIP3    H2 7673   7.641   0.151   2.832 -1.4069 -0.1276  0.8158
 2578TIP3   OH2 7674   4.536   6.137   2.263 -0.4068  0.2274  0.3682
 2578TIP3    H1 7675   4.623   6.168   2.290  0.0112 -0.0154 -0.6533
 2578TIP3    H2 7676   4.529   6.164   2.172 -0.3249 -2.0276 -0.3556
 2579TIP3   OH2 7677   6.800   4.374   0.183 -0.4793 -0.1565  0.4938
 2579TIP3    H1 7678   6.883   4.368   0.231 -0.1055 -0.3874 -0.1592
 2579TIP3    H2 7679   6.808   4.455   0.132  0.6603 -1.6741 -1.9106
 2580TIP3   OH2 7680   0.296   0.837   5.199 -0.0653 -0.2132 -0.1423
 2580TIP3    H1 7681   0.317   0.813   5.109  1.3931 -0.5015  0.2500
 2580TIP3    H2 7682   0.350   0.915   5.216 -0.5384  0.0042  0.3963
 2581TIP3   OH2 7683   2.625   4.975   4.124  0.1904 -0.1108  0.2123
 2581TIP3    H1 7684   2.708   4.988   4.078  0.2074  0.5250  0.4160
 2581TIP3    H2 7685   2.560   5.015   4.067 -0.0530 -1.0032 -0.1676
 2582TIP3   OH2 7686   3.812   5.392   6.391  0.3087 -0.6381  0.3913
 2582TIP3    H1 7687   3.904   5.418   6.403  0.1979 -1.1329  2.9857
 2582TIP3    H2 7688   3.817   5.308   6.345  1.1048 -0.2513 -0.2552
 2583TIP3   OH2 7689   3.873   1.500   1.971  0.1949  0.5829  0.0954
 2583TIP3    H1 7690   3.815   1.573   1.992  2.1328  2.2497 -0.0267
 2583TIP3    H2 7691   3.875   1.447   2.051 -1.4110  0.4923  0.1051
 2584TIP3   OH2 7692   3.619   3.638   2.029 -0.4483  0.7429  0.1874
 2584TIP3    H1 7693   3.676   3.623   1.953  0.3350  0.3343  0.8349
 2584TIP3    H2 7694   3.536   3.666   1.992 -1.0391 -2.2418 -0.9655
 2585TIP3   OH2 7695   0.733   0.061   4.499 -0.5431  0.0042  0.4669
 2585TIP3    H1 7696   0.813   0.009   4.490  1.1229  2.3372  0.7975
 2585TIP3    H2 7697   0.703   0.074   4.409  0.4642  0.5383  0.1926
 2586TIP3   OH2 7698   4.232   7.500   5.535 -0.1668  0.2966 -0.3010
 2586TIP3    H1 7699   4.327   7.504   5.544 -0.1951  1.1727 -0.3476
 2586TIP3    H2 7700   4.200   7.584   5.569 -1.0627 -0.6632  1.3519
 2587TIP3   OH2 7701   0.460   7.122   4.413  0.3055  0.0072  0.1433
 2587TIP3    H1 7702   0.423   7.046   4.459  0.6998 -0.6479 -0.5827
 2587TIP3    H2 7703   0.550   7.129   4.447  0.0295  0.6278  0.7639
 2588TIP3   OH2 7704   3.357   3.675   1.937 -0.4726 -0.1973 -0.3246
 2588TIP3    H1 7705   3.371   3.656   1.844 -0.4330 -1.0101 -0.1626
 2588TIP3    H2 7706   3.274   3.722   1.939 -1.2679 -1.5276 -0.6428
 2589TIP3   OH2 7707   5.550   4.310   4.776  0.4742  0.0460 -0.7193
 2589TIP3    H1 7708   5.520   4.386   4.826  0.3396  1.1666 -2.4153
 2589TIP3    H2 7709   5.471   4.259   4.759  0.6640 -0.8980  1.0300
 2590TIP3   OH2 7710   6.454   1.800   0.955 -0.3766  0.0296 -0.9239
 2590TIP3    H1 7711   6.516   1.836   1.018  1.3066 -1.9910 -1.3037
 2590TIP3    H2 7712   6.413   1.877   0.916  2.0702  1.5294 -0.8001
 2591TIP3   OH2 7713   6.280   7.068   4.407 -0.2658  0.0700 -0.1434
 2591TIP3    H1 7714   6.334   7.057   4.485  0.1342 -0.1850 -0.4558
 2591TIP3    H2 7715   6.190   7.056   4.439 -0.0386 -1.2880  0.0585
 2592TIP3   OH2 7716   0.062   5.520   2.127 -0.5134  0.1495  0.4085
 2592TIP3    H1 7717   0.109   5.581   2.184 -0.0011 -0.4700  0.6630
 2592TIP3    H2 7718   0.106   5.528   2.043  0.3761 -0.7775  0.7702
 2593TIP3   OH2 7719   3.673   2.710   6.324  0.0789  0.0958  0.1355
 2593TIP3    H1 7720   3.620   2.660   6.261 -0.4609 -0.8167  1.2548
 2593TIP3    H2 7721   3.760   2.671   6.319  0.3501  0.8128 -0.8731
 2594TIP3   OH2 7722   7.814   5.720   5.509  0.8756 -0.1388 -0.1518
 2594TIP3    H1 7723   7.811   5.653   5.579 -0.6717 -0.4563 -0.4834
 2594TIP3    H2 7724   7.841   5.671   5.431  1.3297 -0.0437 -0.0566
 2595TIP3   OH2 7725   5.160   5.686   6.199 -0.5759 -0.4446 -0.0128
 2595TIP3    H1 7726   5.131   5.633   6.125 -0.7447  0.4439 -0.5847
 2595TIP3    H2 7727   5.245   5.721   6.172 -1.0847  0.6667 -0.1809
 2596TIP3   OH2 7728   1.075   2.015   2.208  0.2469 -0.8511 -0.4118
 2596TIP3    H1 7729   0.981   1.999   2.195 -0.0175 -0.9009  1.3504
 2596TIP3    H2 7730   1.108   1.934   2.248  0.9814 -0.7054 -0.6987
 2597TIP3   OH2 7731   3.595   5.992   1.238  0.2348 -0.3086  0.2620
 2597TIP3    H1 7732   3.526   5.957   1.183  0.3641 -0.2027  0.0287
 2597TIP3    H2 7733   3.554   6.065   1.285  0.1432 -0.3541  0.2518
 2598TIP3   OH2 7734   7.309   1.205   2.903  0.0571  0.1105 -0.3798
 2598TIP3    H1 7735   7.214   1.222   2.906  0.1987  0.7892  0.7478
 2598TIP3    H2 7736   7.347   1.276   2.955  1.1873 -0.1884 -0.7900
 2599TIP3   OH2 7737   7.220   3.255   4.849 -0.5107 -0.4970  0.2327
 2599TIP3    H1 7738   7.205   3.161   4.836  1.3380 -0.6706 -1.0543
 2599TIP3    H2 7739   7.225   3.291   4.761  1.9179  0.2374  0.6048
 2600TIP3   OH2 7740   8.177   1.428   0.697  0.6185 -0.3115  0.3509
 2600TIP3    H1 7741   8.119   1.401   0.768  0.6727 -0.4761  0.3327
 2600TIP3    H2 7742   8.239   1.356   0.688  1.4137  0.2721  1.0099
 2601TIP3   OH2 7743   6.032   6.608   5.087 -0.0853  0.3467  0.0408
 2601TIP3    H1 7744   5.995   6.612   5.175 -0.2612 -0.2298 -0.0046
 2601TIP3    H2 7745   5.973   6.551   5.038  1.7401 -2.1310  0.4494
 2602TIP3   OH2 7746   7.874   4.472   5.662  0.1550 -0.3399 -0.0250
 2602TIP3    H1 7747   7.930   4.459   5.585  0.3887 -2.6960  0.4706
 2602TIP3    H2 7748   7.912   4.414   5.728 -1.4633 -0.1561  1.1030
 2603TIP3   OH2 7749   1.934   3.140   0.969 -0.0396  0.7985  0.2084
 2603TIP3    H1 7750   1.954   3.210   1.031 -1.1346  1.6507 -0.3830
 2603TIP3    H2 7751   2.013   3.132   0.915  1.3123 -0.6013  2.2462
 2604TIP3   OH2 7752   1.835   6.582   5.481 -0.1586  0.7314 -0.0112
 2604TIP3    H1 7753   1.758   6.592   5.424  0.1271  0.0578 -0.5335
 2604TIP3    H2 7754   1.798   6.553   5.565 -0.4807  0.4678 -0.2399
 2605TIP3   OH2 7755   2.040   6.195   3.100 -0.2767  0.3246  0.3198
 2605TIP3    H1 7756   1.987   6.203   3.180 -1.7221  1.3775 -0.6819
 2605TIP3    H2 7757   2.038   6.283   3.062 -0.1635 -0.3154 -1.2123
 2606TIP3   OH2 7758   3.999   3.607   4.279 -0.5682 -0.2463  0.5117
 2606TIP3    H1 7759   4.018   3.537   4.342  2.4298 -0.3318 -0.3213
 2606TIP3    H2 7760   4.085   3.630   4.242 -1.7744  2.1618 -1.0680
 2607TIP3   OH2 7761   3.398   1.803   1.913  0.5644 -0.2781  0.2372
 2607TIP3    H1 7762   3.399   1.843   1.826  1.0079  0.4189  0.5593
 2607TIP3    H2 7763   3.411   1.876   1.973  0.3775 -0.7730  0.8873
 2608TIP3   OH2 7764   2.551   4.072   4.372  0.7075  0.4458 -0.0834
 2608TIP3    H1 7765   2.495   4.137   4.415  1.1380  0.4975  0.4014
 2608TIP3    H2 7766   2.594   4.120   4.302  0.0034  0.3617 -0.5786
 2609TIP3   OH2 7767   2.639   2.144   2.811 -0.5137  0.1204 -0.2869
 2609TIP3    H1 7768   2.709   2.090   2.847 -0.7436  0.0609  0.0814
 2609TIP3    H2 7769   2.652   2.230   2.850 -2.1736 -0.5129  1.9333
 2610TIP3   OH2 7770   5.572   6.642   5.284 -0.2239 -0.0397 -0.4220
 2610TIP3    H1 7771   5.572   6.656   5.379 -1.0928 -0.9813 -0.2649
 2610TIP3    H2 7772   5.551   6.549   5.274  1.3047 -0.3166 -1.5023
 2611TIP3   OH2 7773   7.224   3.589   5.834  0.0102  0.2074  0.0302
 2611TIP3    H1 7774   7.200   3.679   5.856  0.7080  0.3547  0.2402
 2611TIP3    H2 7775   7.149   3.554   5.786 -0.2149  0.9400 -0.1553
 2612TIP3   OH2 7776   6.688   7.560   4.964 -1.0898 -0.8771 -0.6722
 2612TIP3    H1 7777   6.695   7.495   5.033 -1.4903  0.0538  0.2621
 2612TIP3    H2 7778   6.688   7.644   5.009  1.5702 -0.0721 -1.9512
 2613TIP3   OH2 7779   5.415   1.728   4.029  0.1469  0.7618 -0.0570
 2613TIP3    H1 7780   5.446   1.699   4.115  0.5092 -0.0612 -0.4640
 2613TIP3    H2 7781   5.322   1.706   4.028  0.1831  0.6090  0.0487
 2614TIP3   OH2 7782   7.773   6.905   0.364 -0.6881  0.5964 -0.1065
 2614TIP3    H1 7783   7.685   6.881   0.335  0.3051  0.3821 -3.4179
 2614TIP3    H2 7784   7.780   6.999   0.348 -0.5609  0.7649  0.9008
 2615TIP3   OH2 7785   5.408   6.555   5.592 -0.2781 -0.4943 -0.7241
 2615TIP3    H1 7786   5.379   6.477   5.640 -1.8299 -0.0475 -0.8587
 2615TIP3    H2 7787   5.340   6.620   5.609  0.4864  0.5158 -1.4196
 2616TIP3   OH2 7788   2.783   4.470   5.893 -0.0532  0.5516 -0.1901
 2616TIP3    H1 7789   2.700   4.490   5.935  0.1872 -0.6532  0.9098
 2616TIP3    H2 7790   2.760   4.451   5.802 -0.9544  0.4174  0.0633
 2617TIP3   OH2 7791   8.023   3.387   1.964  0.6394  0.0350 -0.3487
 2617TIP3    H1 7792   8.030   3.292   1.978 -0.7588 -0.1465 -0.7332
 2617TIP3    H2 7793   7.979   3.395   1.879  1.3931  1.0481 -0.6640
 2618TIP3   OH2 7794   3.277   3.701   0.979 -0.3138  0.8077  0.5504
 2618TIP3    H1 7795   3.220   3.710   0.903 -0.2908  2.3169  0.6740
 2618TIP3    H2 7796   3.365   3.717   0.944 -0.1603  0.2564  0.6762
 2619TIP3   OH2 7797   6.925   0.186   4.734  0.0767  0.0421  0.4244
 2619TIP3    H1 7798   7.017   0.171   4.759  0.3572  0.2614 -0.4160
 2619TIP3    H2 7799   6.875   0.131   4.794  0.8636 -1.3566 -0.1360
 2620TIP3   OH2 7800   6.605   6.693   5.810  0.8422  0.5582  0.3802
 2620TIP3    H1 7801   6.608   6.744   5.729  0.6202  0.4244  0.2885
 2620TIP3    H2 7802   6.581   6.605   5.783  2.1637  0.1562  0.4307
 2621TIP3   OH2 7803   2.133   4.460   3.240 -0.5331 -0.3338  0.0881
 2621TIP3    H1 7804   2.113   4.551   3.218 -0.1845  0.0470  1.2554
 2621TIP3    H2 7805   2.228   4.454   3.232 -0.5598 -0.6134 -0.0388
 2622TIP3   OH2 7806   3.411   3.896   4.519 -0.3563 -0.5966 -0.0152
 2622TIP3    H1 7807   3.485   3.881   4.578  0.6667  3.4292  0.0507
 2622TIP3    H2 7808   3.386   3.809   4.489  3.6232 -2.2991  0.8938
 2623TIP3   OH2 7809   3.266   2.292  -0.002 -0.4239  0.5512 -0.6673
 2623TIP3    H1 7810   3.315   2.374   0.003 -0.9763  0.8601 -0.3080
 2623TIP3    H2 7811   3.202   2.297   0.068  1.6793 -1.6092  1.6324
 2624TIP3   OH2 7812   0.729   4.892   5.310  0.0317  0.7143 -0.2691
 2624TIP3    H1 7813   0.809   4.906   5.259  0.1097 -0.7925 -0.6216
 2624TIP3    H2 7814   0.756   4.910   5.400  1.4471 -1.8596 -0.0724
 2625TIP3   OH2 7815   0.596   2.504   2.127 -0.3086  0.0424 -0.6516
 2625TIP3    H1 7816   0.656   2.434   2.152 -0.5564  0.3860  1.0823
 2625TIP3    H2 7817   0.646   2.558   2.066  0.3355 -0.9236 -1.0055
 2626TIP3   OH2 7818   8.281   3.207   3.459  0.5771  0.2052 -0.1973
 2626TIP3    H1 7819   8.225   3.153   3.514  1.1650 -0.8955 -0.6575
 2626TIP3    H2 7820   8.248   3.296   3.471 -0.1422 -0.1970  0.8902
 2627TIP3   OH2 7821   0.163   5.420   3.453  0.5662  0.6914 -0.5839
 2627TIP3    H1 7822   0.073   5.389   3.449  1.0177 -0.7453 -0.3493
 2627TIP3    H2 7823   0.207   5.374   3.381  1.7307 -0.9219  1.0639
 2628TIP3   OH2 7824   3.060   6.914   2.644 -0.2620  0.5887 -0.0020
 2628TIP3    H1 7825   3.012   6.836   2.616 -0.7414  1.3142 -1.3098
 2628TIP3    H2 7826   3.134   6.880   2.695 -1.1288 -0.6451  0.4847
 2629TIP3   OH2 7827   1.361   5.281   6.690  0.2526 -0.0165 -0.3112
 2629TIP3    H1 7828   1.355   5.337   6.768  1.1085 -0.4304  0.0647
 2629TIP3    H2 7829   1.429   5.322   6.637  2.0782 -1.5524  0.7202
 2630TIP3   OH2 7830   6.006   1.811   1.106 -0.6343  0.4595  0.2178
 2630TIP3    H1 7831   6.052   1.806   1.190  2.3522  0.3252 -1.2697
 2630TIP3    H2 7832   5.921   1.850   1.127  0.2031  0.9214  3.2042
 2631TIP3   OH2 7833   5.273   7.008   1.280  0.0848  0.2344  0.0117
 2631TIP3    H1 7834   5.351   7.057   1.306  0.2015  0.3318 -0.5257
 2631TIP3    H2 7835   5.211   7.022   1.352  0.6492 -0.0594  0.5740
 2632TIP3   OH2 7836   8.019   6.408   0.066 -0.0004 -0.0291  0.2203
 2632TIP3    H1 7837   8.068   6.460   0.003  0.3914 -1.0178 -0.3226
 2632TIP3    H2 7838   8.050   6.437   0.152  1.0550 -0.1616 -0.1021
 2633TIP3   OH2 7839   2.596   0.194   4.210  0.7593 -0.1286 -0.7114
 2633TIP3    H1 7840   2.605   0.200   4.305 -0.2443 -0.4982 -0.5850
 2633TIP3    H2 7841   2.504   0.215   4.193  0.7374 -0.8227 -1.5285
 2634TIP3   OH2 7842   3.911   5.925   5.032  0.2341  0.1473  0.1424
 2634TIP3    H1 7843   3.912   6.005   5.085 -0.0642  0.2334  0.0160
 2634TIP3    H2 7844   3.976   5.941   4.963 -0.2749  0.5359 -0.2554
 2635TIP3   OH2 7845   3.818   3.265   2.573 -0.5646 -0.6209 -0.8140
 2635TIP3    H1 7846   3.798   3.210   2.497 -1.1840 -0.7671 -0.5527
 2635TIP3    H2 7847   3.750   3.242   2.637 -1.7439  1.4820 -1.2311
 2636TIP3   OH2 7848   2.815   3.090   5.324 -0.3979 -0.3508 -0.0286
 2636TIP3    H1 7849   2.762   3.072   5.246  0.5178 -2.0906 -0.3085
 2636TIP3    H2 7850   2.824   3.185   5.326 -0.5106 -0.2643 -1.9942
 2637TIP3   OH2 7851   5.089   2.556   5.127  0.1309 -0.1306 -0.6911
 2637TIP3    H1 7852   5.149   2.613   5.175  2.1474 -1.7700 -1.1109
 2637TIP3    H2 7853   5.101   2.469   5.167 -3.7818 -0.1883  0.8224
 2638TIP3   OH2 7854   4.245   6.118   6.702  0.2300  0.2928 -0.1515
 2638TIP3    H1 7855   4.166   6.153   6.744  1.3152  1.1814  1.2329
 2638TIP3    H2 7856   4.265   6.038   6.751  0.7779  0.6369  0.1917
 2639TIP3   OH2 7857   2.350   7.315   3.636 -0.1367 -0.0813 -0.0391
 2639TIP3    H1 7858   2.415   7.323   3.566  1.6776 -1.4672  1.3972
 2639TIP3    H2 7859   2.304   7.399   3.635  1.2628  0.7249 -1.5238
 2640TIP3   OH2 7860   2.434   6.886   0.478 -0.1627  0.2318  0.1033
 2640TIP3    H1 7861   2.513   6.919   0.434  0.8017  0.4856  1.9068
 2640TIP3    H2 7862   2.362   6.933   0.436  0.4212 -1.0956 -2.6389
 2641TIP3   OH2 7863   5.227   6.016   5.860 -0.1468 -0.0021  0.1662
 2641TIP3    H1 7864   5.304   6.019   5.803  0.3494  1.7820  0.8789
 2641TIP3    H2 7865   5.262   6.032   5.948 -1.1882 -0.4482  0.6732
 2642TIP3   OH2 7866   5.936   4.852   3.010 -0.2429  0.3233  0.4479
 2642TIP3    H1 7867   5.900   4.822   2.926 -0.5199 -2.8064  1.5291
 2642TIP3    H2 7868   6.021   4.810   3.015 -0.1869  0.5609  1.6824
 2643TIP3   OH2 7869   0.647   7.417   4.772  0.5225 -0.1032 -0.7425
 2643TIP3    H1 7870   0.562   7.377   4.792  0.2460  1.5661  1.7746
 2643TIP3    H2 7871   0.624   7.499   4.729  0.7075  1.1182  1.3589
 2644TIP3   OH2 7872   2.634   2.474   5.904 -0.2532  0.0570 -0.1031
 2644TIP3    H1 7873   2.562   2.468   5.842 -0.1477 -0.6748 -0.1667
 2644TIP3    H2 7874   2.596   2.450   5.988 -0.3073  0.6692  0.0550
 2645TIP3   OH2 7875   3.458   6.632   0.513  0.8876 -0.1081 -0.2548
 2645TIP3    H1 7876   3.488   6.617   0.423  2.0683 -1.1818  0.2853
 2645TIP3    H2 7877   3.538   6.649   0.562  0.3827 -0.7257  0.8095
 2646TIP3   OH2 7878   0.727   5.914   1.064 -0.3614 -0.4721 -0.2498
 2646TIP3    H1 7879   0.658   5.936   1.127  0.6335 -0.8472  1.0209
 2646TIP3    H2 7880   0.807   5.912   1.117  0.4621 -1.1217 -1.4860
 2647TIP3   OH2 7881   7.489   3.516   4.660 -0.0201 -0.7472  0.0127
 2647TIP3    H1 7882   7.438   3.554   4.731  0.5660 -0.6971  0.4109
 2647TIP3    H2 7883   7.474   3.574   4.586  1.4083  0.6917  0.7914
 2648TIP3   OH2 7884   7.853   0.647   0.156 -0.2474  0.0658 -0.0106
 2648TIP3    H1 7885   7.947   0.658   0.150 -0.2652  0.1619 -0.1212
 2648TIP3    H2 7886   7.829   0.599   0.076 -0.3070  0.1502 -0.0440
 2649TIP3   OH2 7887   3.607   5.808   6.204 -0.4671 -0.2266 -0.0254
 2649TIP3    H1 7888   3.672   5.800   6.274  1.2816 -1.8309 -1.7104
 2649TIP3    H2 7889   3.637   5.882   6.152 -0.3608 -0.5542 -0.4327
 2650TIP3   OH2 7890   3.306   6.821   2.762 -0.3638 -0.3342 -0.0756
 2650TIP3    H1 7891   3.363   6.826   2.839  0.7603  0.4641 -0.9343
 2650TIP3    H2 7892   3.279   6.730   2.758  0.9058 -0.7414  0.3244
 2651TIP3   OH2 7893   4.546   0.544   4.063  0.1120  0.8025  0.4878
 2651TIP3    H1 7894   4.517   0.501   4.143  1.1202  0.9939  0.9792
 2651TIP3    H2 7895   4.475   0.530   4.000 -0.5654  0.4042  1.3267
 2652TIP3   OH2 7896   4.043   1.369   4.563  0.2015 -0.4677  0.0922
 2652TIP3    H1 7897   3.959   1.365   4.609  0.7715 -1.0395  1.1089
 2652TIP3    H2 7898   4.024   1.417   4.482 -1.0728 -0.4830  0.3696
 2653TIP3   OH2 7899   7.456   4.632   1.200 -0.1853 -0.2886  0.4987
 2653TIP3    H1 7900   7.413   4.677   1.273  0.2715  0.2917  0.4117
 2653TIP3    H2 7901   7.549   4.645   1.215 -0.0428 -1.2362  0.4833
 2654TIP3   OH2 7902   5.217   2.583   2.809 -0.1372 -0.0873  0.4657
 2654TIP3    H1 7903   5.205   2.602   2.903 -0.1076 -0.1788  0.4881
 2654TIP3    H2 7904   5.311   2.574   2.798 -0.2421 -3.7945  1.1877
 2655TIP3   OH2 7905   0.284   7.575   1.946  0.1612 -0.6607  0.1991
 2655TIP3    H1 7906   0.229   7.555   2.022  0.4417 -0.1067  0.5558
 2655TIP3    H2 7907   0.360   7.518   1.956 -0.3957 -1.5172 -0.3611
 2656TIP3   OH2 7908   8.283   4.617   5.121 -0.0309 -0.0175 -0.2921
 2656TIP3    H1 7909   8.219   4.613   5.050  1.5872  1.1187 -1.9088
 2656TIP3    H2 7910   8.315   4.527   5.129 -0.3177 -0.1783 -0.9272
 2657TIP3   OH2 7911   1.507   0.540   1.760 -0.4527  0.0343 -0.3979
 2657TIP3    H1 7912   1.486   0.471   1.823 -0.2919  0.0903 -0.2800
 2657TIP3    H2 7913   1.602   0.531   1.746 -0.3042  0.6566  0.1336
 2658TIP3   OH2 7914   4.565   7.196   1.200 -0.3127 -0.5470  0.4217
 2658TIP3    H1 7915   4.513   7.121   1.229  0.2549 -0.7531  0.9139
 2658TIP3    H2 7916   4.541   7.266   1.260 -1.2591 -0.1533 -0.3736
 2659TIP3   OH2 7917   7.418   6.062   6.183 -0.3229 -0.1865 -0.2672
 2659TIP3    H1 7918   7.485   6.070   6.251 -0.4354  0.4681 -0.2324
 2659TIP3    H2 7919   7.460   6.099   6.105 -0.4771 -0.2058 -0.3586
 2660TIP3   OH2 7920   3.608   7.026   5.802 -0.4523  0.0901 -0.4030
 2660TIP3    H1 7921   3.615   7.069   5.887  0.1630 -1.3023  0.2813
 2660TIP3    H2 7922   3.526   7.060   5.764 -0.9370  0.4310  0.9167
 2661TIP3   OH2 7923   4.021   0.678   5.281 -0.0723  0.1281  0.1123
 2661TIP3    H1 7924   3.958   0.704   5.348 -0.2714 -0.9391  0.3639
 2661TIP3    H2 7925   4.101   0.726   5.303 -0.7955  1.5255 -0.2391
 2662TIP3   OH2 7926   0.529   2.484   5.512  0.0825 -0.0029  0.1828
 2662TIP3    H1 7927   0.506   2.562   5.563 -0.1759 -0.9990  1.6540
 2662TIP3    H2 7928   0.624   2.490   5.499  0.7104 -1.1337  3.3824
 2663TIP3   OH2 7929   2.188   1.072   6.649  0.3340 -0.4217  0.2402
 2663TIP3    H1 7930   2.178   0.988   6.604 -1.6328 -0.6967  1.0781
 2663TIP3    H2 7931   2.100   1.092   6.680  1.3176  0.4724  2.6640
 2664TIP3   OH2 7932   3.562   3.590   4.169 -0.2781 -0.1000  0.1728
 2664TIP3    H1 7933   3.554   3.683   4.188  0.9337  0.3116 -1.1164
 2664TIP3    H2 7934   3.506   3.576   4.093  1.0748  0.0513 -0.8933
 2665TIP3   OH2 7935   5.413   6.240   1.111  0.1228  0.0962  0.1879
 2665TIP3    H1 7936   5.356   6.170   1.144  0.6547 -1.3078 -1.6947
 2665TIP3    H2 7937   5.354   6.312   1.091 -0.7605 -0.6843 -0.0577
 2666TIP3   OH2 7938   6.212   2.301   3.182 -0.3654  0.2586  0.0139
 2666TIP3    H1 7939   6.186   2.392   3.169  0.5562  0.1712 -3.2212
 2666TIP3    H2 7940   6.140   2.262   3.231 -3.2103  1.6133 -2.7882
 2667TIP3   OH2 7941   0.447   3.055   3.013 -0.3130  0.3347 -0.1922
 2667TIP3    H1 7942   0.391   3.000   2.958 -0.2228  0.0333  0.0119
 2667TIP3    H2 7943   0.511   3.092   2.952  0.5463 -0.9707 -0.1243
 2668TIP3   OH2 7944   1.564   2.354   2.189  0.5506  0.3835  0.3721
 2668TIP3    H1 7945   1.480   2.308   2.182  0.2305  0.6845  1.7927
 2668TIP3    H2 7946   1.539   2.444   2.214  1.1485  1.4141 -2.4330
 2669TIP3   OH2 7947   1.980   3.338   3.234 -0.0776 -0.5533 -0.1239
 2669TIP3    H1 7948   1.997   3.244   3.223 -0.0604 -0.4664 -0.8476
 2669TIP3    H2 7949   1.941   3.365   3.151 -0.4456  0.0001  0.2255
 2670TIP3   OH2 7950   2.232   7.782   4.278 -0.3903 -0.1819  0.7906
 2670TIP3    H1 7951   2.217   7.705   4.332  0.0374  0.5088  1.9362
 2670TIP3    H2 7952   2.318   7.814   4.306 -0.0588  0.0733 -0.4663
 2671TIP3   OH2 7953   4.975   7.643   5.186 -0.4196  0.2752  0.1350
 2671TIP3    H1 7954   4.903   7.680   5.135  0.7314  0.4920 -1.4207
 2671TIP3    H2 7955   5.053   7.689   5.154  0.5351 -0.6428  1.0582
 2672TIP3   OH2 7956   7.011   6.473   6.514  0.3043  0.5479 -0.1698
 2672TIP3    H1 7957   6.949   6.439   6.448  1.4000 -1.0148 -0.4596
 2672TIP3    H2 7958   6.959   6.480   6.594 -0.3198 -0.6063 -0.4399
 2673TIP3   OH2 7959   7.842   1.516   3.403 -0.2160 -0.3560 -0.1230
 2673TIP3    H1 7960   7.845   1.610   3.417  0.1178 -0.1754 -1.3183
 2673TIP3    H2 7961   7.919   1.482   3.449 -0.0302  0.0138 -0.1635
 2674TIP3   OH2 7962   2.612   1.618   4.591 -0.1575 -0.2134 -0.4866
 2674TIP3    H1 7963   2.661   1.692   4.554 -0.0414  0.2016  0.4646
 2674TIP3    H2 7964   2.582   1.569   4.515  1.3162 -0.2070 -1.1159
 2675TIP3   OH2 7965   2.509   6.514   5.515 -0.1955 -0.3703 -0.2443
 2675TIP3    H1 7966   2.420   6.529   5.547 -0.6265 -1.7933 -0.6907
 2675TIP3    H2 7967   2.559   6.488   5.592  0.1046  1.3456  0.1850
 2676TIP3   OH2 7968   3.444   5.624   1.153  0.1387  0.4673  0.6500
 2676TIP3    H1 7969   3.514   5.637   1.217  0.5231  0.3486  0.2569
 2676TIP3    H2 7970   3.479   5.559   1.092 -1.0742 -1.1314  1.5917
 2677TIP3   OH2 7971   1.003   7.625   6.001 -0.1391 -0.5630  0.3879
 2677TIP3    H1 7972   1.053   7.606   5.922  1.7200  0.5681  1.2293
 2677TIP3    H2 7973   0.912   7.615   5.974  0.4388 -0.4183 -1.8334
 2678TIP3   OH2 7974   2.109   0.423   4.027 -0.3721  0.1556 -0.3168
 2678TIP3    H1 7975   2.098   0.503   3.975 -0.8931  0.0397 -0.3959
 2678TIP3    H2 7976   2.019   0.394   4.044 -0.1871 -0.3179 -0.1413
 2679TIP3   OH2 7977   4.948   1.341   5.381 -0.1425 -0.2144 -0.0228
 2679TIP3    H1 7978   4.988   1.342   5.294  1.2318 -0.1461  0.5848
 2679TIP3    H2 7979   4.912   1.429   5.391  0.3366  0.0145 -0.2451
 2680TIP3   OH2 7980   3.590   7.445   6.593 -0.0839  0.3514  0.5180
 2680TIP3    H1 7981   3.585   7.350   6.605 -1.6845  0.3800  0.3645
 2680TIP3    H2 7982   3.552   7.481   6.673 -0.7080  0.8104  0.0309
 2681TIP3   OH2 7983   7.079   6.298   3.939  0.2736 -0.6248  0.3897
 2681TIP3    H1 7984   7.013   6.367   3.943 -0.2871 -1.2106  1.8692
 2681TIP3    H2 7985   7.030   6.220   3.912  0.4476 -0.9434  0.9765
 2682TIP3   OH2 7986   4.245   3.281   1.349  0.7241 -0.1848  0.7198
 2682TIP3    H1 7987   4.157   3.311   1.371  0.4780 -0.6757  0.4329
 2682TIP3    H2 7988   4.232   3.192   1.316  1.3566 -0.3578  0.9230
 2683TIP3   OH2 7989   8.389   0.290   0.050  0.0400 -0.1562  0.3060
 2683TIP3    H1 7990   8.427   0.225  -0.008  1.9880  0.3881  0.9083
 2683TIP3    H2 7991   8.341   0.349  -0.009  1.7431  0.2395 -0.7649
 2684TIP3   OH2 7992   8.322   6.779   3.163 -0.3907 -0.0975  0.7742
 2684TIP3    H1 7993   8.356   6.767   3.252  0.2395 -0.3097  0.5092
 2684TIP3    H2 7994   8.299   6.872   3.159 -2.3837 -0.4713  1.8218
 2685TIP3   OH2 7995   4.822   5.093   6.126 -0.0793 -0.3912  0.2350
 2685TIP3    H1 7996   4.847   5.183   6.148 -1.5877 -0.0744  0.7531
 2685TIP3    H2 7997   4.755   5.070   6.191 -1.3192 -1.0932 -1.2401
 2686TIP3   OH2 7998   1.593   2.134   2.826 -0.4211  0.1336  0.0071
 2686TIP3    H1 7999   1.551   2.063   2.778  0.3323 -0.1056 -0.3030
 2686TIP3    H2 8000   1.672   2.094   2.864 -0.4259  0.5970  0.5142
 2687TIP3   OH2 8001   2.828   6.125   0.542  0.1192  0.2403 -0.4847
 2687TIP3    H1 8002   2.884   6.129   0.619  0.0434  0.3089 -0.4327
 2687TIP3    H2 8003   2.847   6.040   0.503 -1.4650 -0.7779  0.8549
 2688TIP3   OH2 8004   3.568   3.090   3.048 -0.6063  0.8179  0.5563
 2688TIP3    H1 8005   3.567   3.158   3.115  1.4079  2.4073 -0.8966
 2688TIP3    H2 8006   3.640   3.032   3.072  1.2097  2.3062 -0.9376
 2689TIP3   OH2 8007   4.223   4.971   1.861 -0.0794 -0.4509 -0.2544
 2689TIP3    H1 8008   4.294   4.937   1.915 -0.5179 -0.6499  0.2030
 2689TIP3    H2 8009   4.180   5.037   1.916 -1.7726 -2.0310  0.4457
 2690TIP3   OH2 8010   5.688   6.231   2.668  0.4330 -0.0849  0.6115
 2690TIP3    H1 8011   5.611   6.247   2.613  1.2658 -1.9704 -1.2191
 2690TIP3    H2 8012   5.702   6.314   2.713 -0.7499  1.3348 -1.4550
 2691TIP3   OH2 8013   4.716   5.978   6.265 -0.4356  0.4557  0.4380
 2691TIP3    H1 8014   4.696   5.975   6.359  0.7778  1.4921  0.7584
 2691TIP3    H2 8015   4.796   5.926   6.257  0.2530  1.5168  0.2248
 2692TIP3   OH2 8016   7.135   1.627   1.830  0.2342  0.1042 -0.3891
 2692TIP3    H1 8017   7.141   1.635   1.926  1.8004 -0.5238 -0.3954
 2692TIP3    H2 8018   7.140   1.718   1.799 -2.2621  0.4940  0.1474
 2693TIP3   OH2 8019   2.554   7.765   1.399  0.1551  0.1249 -0.1599
 2693TIP3    H1 8020   2.575   7.726   1.314  0.3107  0.6286 -0.3550
 2693TIP3    H2 8021   2.634   7.812   1.424 -0.3553  1.1747 -0.4188
 2694TIP3   OH2 8022   6.775   4.565   6.587 -0.1038  0.6607 -0.1170
 2694TIP3    H1 8023   6.700   4.523   6.629 -0.4280 -0.1179 -1.4053
 2694TIP3    H2 8024   6.817   4.495   6.538  0.9855  1.2764 -0.1048
 2695TIP3   OH2 8025   3.093   2.464   1.682  0.2931  0.1000 -0.1722
 2695TIP3    H1 8026   3.182   2.498   1.667 -0.5602  2.5052 -0.2976
 2695TIP3    H2 8027   3.058   2.450   1.594  0.4418 -0.5377 -0.1292
 2696TIP3   OH2 8028   3.066   2.106   4.732  0.0388  0.3907  0.0586
 2696TIP3    H1 8029   3.154   2.090   4.699  0.3218  1.2650  0.3634
 2696TIP3    H2 8030   3.015   2.127   4.653 -0.3958 -1.9960 -0.3844
 2697TIP3   OH2 8031   1.928   4.736   5.112 -0.3008 -0.1336 -0.4785
 2697TIP3    H1 8032   1.884   4.689   5.041 -2.1380  0.4028  0.2535
 2697TIP3    H2 8033   1.967   4.812   5.069  2.5174 -2.0739 -1.6329
 2698TIP3   OH2 8034   5.501   0.808   4.289  0.2479 -0.0831  0.2924
 2698TIP3    H1 8035   5.506   0.794   4.384  3.2413  2.6099  0.7287
 2698TIP3    H2 8036   5.426   0.868   4.278 -0.3257 -0.6746  0.8744
 2699TIP3   OH2 8037   4.091   3.251   2.636  0.4855 -0.0442 -0.6219
 2699TIP3    H1 8038   4.087   3.155   2.633  1.4915 -0.0806 -2.0253
 2699TIP3    H2 8039   3.999   3.278   2.628  0.1007 -0.8706  0.6447
 2700TIP3   OH2 8040   7.780   0.998   2.938 -0.0105  0.4390  0.0423
 2700TIP3    H1 8041   7.806   0.906   2.934 -1.8133 -0.0755 -1.2394
 2700TIP3    H2 8042   7.844   1.044   2.884 -0.1619 -0.3599 -0.8345
 2701TIP3   OH2 8043   8.053   0.839   2.210  0.0435 -0.0331  0.0584
 2701TIP3    H1 8044   8.141   0.807   2.192 -0.3628 -1.3800  0.3036
 2701TIP3    H2 8045   8.052   0.856   2.304 -0.9439 -3.6321  0.8755
 2702TIP3   OH2 8046   0.355   4.413   2.151 -0.3454 -0.1873  0.3990
 2702TIP3    H1 8047   0.311   4.364   2.220 -0.9823 -0.1544  0.0180
 2702TIP3    H2 8048   0.375   4.498   2.190 -1.7523  0.2602  0.1894
 2703TIP3   OH2 8049   0.400   0.981   0.601  0.2480  0.2582 -1.0320
 2703TIP3    H1 8050   0.305   0.989   0.594  0.2619  0.7902 -0.6213
 2703TIP3    H2 8051   0.423   1.031   0.679  0.5507 -2.1449  0.5361
 2704TIP3   OH2 8052   7.631   1.483   4.976 -0.5877 -0.2809 -0.5779
 2704TIP3    H1 8053   7.660   1.541   4.906 -0.7444  0.9379  0.3252
 2704TIP3    H2 8054   7.675   1.517   5.054  2.0102 -3.4004 -0.4851
 2705TIP3   OH2 8055   4.250   1.485   4.096  0.4065 -0.6192 -0.4966
 2705TIP3    H1 8056   4.280   1.575   4.108 -0.6326 -0.4646  1.3362
 2705TIP3    H2 8057   4.326   1.431   4.117  0.5141 -0.1712  0.3249
 2706TIP3   OH2 8058   5.485   2.395   5.934 -0.2060 -0.4680  0.1431
 2706TIP3    H1 8059   5.564   2.420   5.983 -0.0229 -1.0854  0.1760
 2706TIP3    H2 8060   5.504   2.418   5.843 -0.1423 -0.2619  0.2079
 2707TIP3   OH2 8061   5.221   5.425   4.826  0.4170 -0.4864 -0.5002
 2707TIP3    H1 8062   5.155   5.484   4.862 -1.5254 -1.2527 -2.5196
 2707TIP3    H2 8063   5.220   5.349   4.884 -0.3485 -0.3838 -0.3673
 2708TIP3   OH2 8064   7.769   7.933   3.191  0.4334 -0.1105  0.1399
 2708TIP3    H1 8065   7.848   7.893   3.226  0.5714  0.3495  0.3649
 2708TIP3    H2 8066   7.702   7.865   3.198  1.2157 -1.1496 -1.7666
 2709TIP3   OH2 8067   7.296   5.603   4.884 -0.0767  0.1851  0.3553
 2709TIP3    H1 8068   7.255   5.547   4.949 -0.1421 -0.1973 -0.0119
 2709TIP3    H2 8069   7.350   5.664   4.935  0.4949 -0.6052  0.7245
 2710TIP3   OH2 8070   5.017   1.334   3.923 -0.1754 -0.7248 -0.3518
 2710TIP3    H1 8071   5.044   1.242   3.924 -0.1382 -0.7134  0.2303
 2710TIP3    H2 8072   5.070   1.374   3.854 -1.2228 -1.4331 -1.6035
 2711TIP3   OH2 8073   7.331   2.887   4.052  0.6127  0.2324 -0.3860
 2711TIP3    H1 8074   7.421   2.867   4.078  0.7234  1.6529  0.4052
 2711TIP3    H2 8075   7.334   2.977   4.021 -0.6103  0.4386  0.0299
 2712TIP3   OH2 8076   5.482   6.097   2.845  0.4300  0.2601  0.1214
 2712TIP3    H1 8077   5.558   6.104   2.787  0.2271 -0.7766 -0.2893
 2712TIP3    H2 8078   5.428   6.172   2.824  0.1583 -0.3273 -1.3300
 2713TIP3   OH2 8079   8.284   6.672   4.235 -0.0738 -0.6325 -0.0466
 2713TIP3    H1 8080   8.293   6.598   4.295 -0.5720  0.4981  1.4998
 2713TIP3    H2 8081   8.328   6.644   4.155 -0.6617 -2.7742  0.3117
 2714TIP3   OH2 8082   5.795   5.195   5.795  0.4298  0.0044 -0.2016
 2714TIP3    H1 8083   5.777   5.122   5.736  1.0188 -0.0500 -0.3281
 2714TIP3    H2 8084   5.885   5.179   5.824  0.3396  0.3381  0.2658
 2715TIP3   OH2 8085   6.213   5.394   4.120  0.1963  0.0075  0.5047
 2715TIP3    H1 8086   6.176   5.423   4.037 -0.6713 -2.0913  0.1059
 2715TIP3    H2 8087   6.305   5.375   4.100 -0.1822 -1.2003 -0.2077
 2716TIP3   OH2 8088   2.081   2.049   4.212 -0.1338  0.5745  0.3431
 2716TIP3    H1 8089   2.129   1.998   4.147  1.5992  1.4201  0.8946
 2716TIP3    H2 8090   2.026   2.108   4.161 -0.0858  0.0510 -0.3231
 2717TIP3   OH2 8091   4.232   6.052   2.786  0.5649 -0.5101 -0.1749
 2717TIP3    H1 8092   4.203   5.989   2.852 -1.5281  0.7656  0.2254
 2717TIP3    H2 8093   4.312   6.014   2.750  1.5333 -1.4846  2.7391
 2718TIP3   OH2 8094   1.755   6.536   3.245 -0.3989 -0.4173  0.0559
 2718TIP3    H1 8095   1.742   6.592   3.321  0.7405 -0.4662  0.3093
 2718TIP3    H2 8096   1.678   6.551   3.190 -1.1192 -0.2098  1.1060
 2719TIP3   OH2 8097   5.563   0.608   4.770  0.3352  0.4989 -0.2518
 2719TIP3    H1 8098   5.588   0.660   4.693  1.7547  1.7452  1.0055
 2719TIP3    H2 8099   5.476   0.641   4.793  0.1286  0.4946 -0.9794
 2720TIP3   OH2 8100   1.794   7.260   3.728 -0.0050  0.2107 -0.1384
 2720TIP3    H1 8101   1.765   7.294   3.644 -0.7128  0.3359  0.1491
 2720TIP3    H2 8102   1.778   7.331   3.790 -0.3549 -0.2058  0.2570
 2721TIP3   OH2 8103   3.789   7.371   1.957  0.0992 -0.0135  0.2002
 2721TIP3    H1 8104   3.809   7.279   1.969 -2.8266 -0.8013 -0.1321
 2721TIP3    H2 8105   3.727   7.373   1.883 -1.8314  1.8894  1.7287
 2722TIP3   OH2 8106   6.670   5.516   3.477 -0.3391 -0.4151 -0.0097
 2722TIP3    H1 8107   6.603   5.452   3.501 -2.3975  1.7667  0.3500
 2722TIP3    H2 8108   6.655   5.591   3.534  1.4948  0.7386 -0.9249
 2723TIP3   OH2 8109   2.590   1.509   1.177 -0.0220  0.7121  0.0560
 2723TIP3    H1 8110   2.681   1.522   1.205 -0.1464  1.1037  0.2861
 2723TIP3    H2 8111   2.538   1.534   1.253 -0.3678  2.0032 -0.5878
 2724TIP3   OH2 8112   3.235   6.909   4.333  0.2656 -0.2967  0.2919
 2724TIP3    H1 8113   3.163   6.934   4.391  0.8808  0.2798  0.8110
 2724TIP3    H2 8114   3.305   6.881   4.391  0.1852 -1.7016 -0.2257
 2725TIP3   OH2 8115   2.544   4.043   1.970  0.1361 -0.6008 -0.1607
 2725TIP3    H1 8116   2.565   4.129   1.933 -0.1982 -0.8339 -0.9113
 2725TIP3    H2 8117   2.606   4.032   2.042 -1.1371  1.1759  1.3019
 2726TIP3   OH2 8118   5.026   3.448   4.381  0.4691  0.3232  0.0186
 2726TIP3    H1 8119   5.004   3.475   4.292 -1.5649  0.8981  0.6452
 2726TIP3    H2 8120   5.018   3.353   4.380  0.5906  0.3148 -0.4352
 2727TIP3   OH2 8121   0.232   1.975   0.560  0.2487 -0.4115 -0.1065
 2727TIP3    H1 8122   0.274   1.993   0.476  0.3328 -2.2150 -0.4824
 2727TIP3    H2 8123   0.296   1.923   0.609 -0.5631 -1.0676  0.2835
 2728TIP3   OH2 8124   0.759   1.829   1.229  0.8742  0.3416 -0.0862
 2728TIP3    H1 8125   0.772   1.866   1.141 -1.6112  2.8747  0.4597
 2728TIP3    H2 8126   0.666   1.839   1.245  0.8129 -2.5073  1.8902
 2729TIP3   OH2 8127   6.439   6.162   5.349  0.0276 -0.1000 -0.5872
 2729TIP3    H1 8128   6.418   6.224   5.280 -1.4514 -1.2270 -1.1943
 2729TIP3    H2 8129   6.535   6.162   5.354  0.0842  1.2939 -1.4027
 2730TIP3   OH2 8130   5.549   4.336   5.242  0.0724  0.3721  0.0634
 2730TIP3    H1 8131   5.567   4.390   5.165 -0.1301  1.1848  0.5672
 2730TIP3    H2 8132   5.611   4.264   5.236  2.4632  2.2171  0.8881
 2731TIP3   OH2 8133   2.267   3.719   3.009 -0.4281 -0.3122  0.1845
 2731TIP3    H1 8134   2.342   3.659   3.007 -0.5088 -0.4545  1.0653
 2731TIP3    H2 8135   2.216   3.691   3.085  0.9872  2.6177  2.3886
 2732TIP3   OH2 8136   6.549   2.480   3.284 -0.0291 -0.2879  0.2396
 2732TIP3    H1 8137   6.533   2.503   3.192  1.7543 -0.4322 -0.1466
 2732TIP3    H2 8138   6.579   2.390   3.281  1.3541  0.1322  0.7958
 2733TIP3   OH2 8139   6.051   2.643   1.787 -0.1456  0.1396 -0.0750
 2733TIP3    H1 8140   5.997   2.627   1.864  1.0616  1.5873  1.1230
 2733TIP3    H2 8141   6.131   2.684   1.821  0.2082  1.2868 -2.1335
 2734TIP3   OH2 8142   1.973   0.545   2.723 -0.5890  0.3288  0.3799
 2734TIP3    H1 8143   2.066   0.552   2.702 -0.4831  0.0591  0.7553
 2734TIP3    H2 8144   1.947   0.459   2.688 -0.3767 -0.1905  1.4864
 2735TIP3   OH2 8145   3.863   4.293   4.704  0.3166 -0.0663  0.2049
 2735TIP3    H1 8146   3.898   4.326   4.621  1.2808  1.3157  1.1130
 2735TIP3    H2 8147   3.844   4.201   4.687 -1.1153  0.5608 -2.0328
 2736TIP3   OH2 8148   4.757   2.215   6.683  0.5085 -0.1310  0.7072
 2736TIP3    H1 8149   4.841   2.234   6.727  1.0805  0.1933 -0.4737
 2736TIP3    H2 8150   4.748   2.285   6.618 -0.7071 -0.1458  0.8410
 2737TIP3   OH2 8151   1.129   7.157   5.575 -0.3584  0.1128  0.0570
 2737TIP3    H1 8152   1.050   7.116   5.541 -0.4371  1.1182 -1.0453
 2737TIP3    H2 8153   1.157   7.217   5.505  1.8668 -0.8268  0.0246
 2738TIP3   OH2 8154   7.348   7.058   1.233 -0.0490 -0.6751 -0.9115
 2738TIP3    H1 8155   7.329   6.965   1.240 -0.8908 -0.4155  3.2494
 2738TIP3    H2 8156   7.264   7.097   1.207  0.1851 -0.9908 -2.2017
 2739TIP3   OH2 8157   6.831   1.395   3.908 -0.1821  0.0541  0.5316
 2739TIP3    H1 8158   6.843   1.482   3.869  0.0177  0.1470  0.8044
 2739TIP3    H2 8159   6.796   1.342   3.836 -2.9509  1.0304  1.0192
 2740TIP3   OH2 8160   6.304   4.044   5.480  0.1917  0.0005 -0.4447
 2740TIP3    H1 8161   6.349   3.971   5.521 -0.2330 -0.2383 -0.3908
 2740TIP3    H2 8162   6.213   4.035   5.510  0.4085  1.4053  0.7769
 2741TIP3   OH2 8163   2.058   5.427   0.793  0.1025 -0.5426  0.3199
 2741TIP3    H1 8164   2.090   5.478   0.867 -0.7211 -0.8070  0.8674
 2741TIP3    H2 8165   2.012   5.353   0.832 -1.1934 -0.1771 -0.4236
 2742TIP3   OH2 8166   2.032   0.933   4.549  0.7175 -0.0147 -0.1329
 2742TIP3    H1 8167   1.948   0.980   4.549  1.2064  0.8654  0.2722
 2742TIP3    H2 8168   2.033   0.888   4.465  0.3517  0.9005 -0.6454
 2743TIP3   OH2 8169   6.030   1.321   6.483  0.0270  0.4942 -0.5560
 2743TIP3    H1 8170   6.098   1.291   6.544  0.3003 -0.0664 -1.1200
 2743TIP3    H2 8171   6.019   1.248   6.422  0.2222  1.2885 -1.5593
 2744TIP3   OH2 8172   4.867   2.984   5.504 -0.4622 -0.6705 -0.0462
 2744TIP3    H1 8173   4.941   3.040   5.531 -1.9226  0.5273  1.7278
 2744TIP3    H2 8174   4.820   3.036   5.439 -0.2722 -1.0408 -0.4843
 2745TIP3   OH2 8175   2.897   0.677   4.725  0.0625  0.2922  0.2038
 2745TIP3    H1 8176   2.963   0.608   4.714  0.0520  0.3561 -0.2936
 2745TIP3    H2 8177   2.901   0.700   4.818 -0.8444 -1.2906  0.6660
 2746TIP3   OH2 8178   1.230   3.026   5.869  0.4735  0.7417 -0.7896
 2746TIP3    H1 8179   1.190   2.963   5.929  0.8438  1.4123  0.1875
 2746TIP3    H2 8180   1.159   3.051   5.810 -0.2584  1.0060  0.1667
 2747TIP3   OH2 8181   3.656   4.740   1.166 -0.8552  0.5665  0.2951
 2747TIP3    H1 8182   3.745   4.706   1.158 -0.7408  0.5240  1.6337
 2747TIP3    H2 8183   3.643   4.753   1.259 -1.9346  1.4692  0.0387
 2748TIP3   OH2 8184   1.082   0.976   4.064 -0.2523 -0.6605 -0.0999
 2748TIP3    H1 8185   1.141   0.902   4.079  0.7411  0.1588  0.1371
 2748TIP3    H2 8186   1.121   1.023   3.990  0.3916  0.8477  1.1389
 2749TIP3   OH2 8187   7.342   1.237   6.198 -0.1285 -0.6427 -0.5415
 2749TIP3    H1 8188   7.305   1.324   6.210 -0.0105 -0.4760 -1.3577
 2749TIP3    H2 8189   7.432   1.245   6.228 -0.1701 -0.5352 -0.4424
 2750TIP3   OH2 8190   7.059   2.552   4.101  0.5547 -0.1463  0.3796
 2750TIP3    H1 8191   7.004   2.630   4.099 -1.6533 -1.6186  0.4554
 2750TIP3    H2 8192   7.128   2.569   4.037 -1.1247  0.9897 -1.2155
 2751TIP3   OH2 8193   7.753   5.781   1.713  0.4863  0.1614 -0.3966
 2751TIP3    H1 8194   7.735   5.802   1.621  0.4855  1.6190 -0.0817
 2751TIP3    H2 8195   7.676   5.812   1.761  0.2788 -1.0223  0.0599
 2752TIP3   OH2 8196   1.542   1.725   6.038 -0.4501  0.0342  0.4827
 2752TIP3    H1 8197   1.574   1.642   6.003  0.9099  0.4431  0.6757
 2752TIP3    H2 8198   1.550   1.787   5.965  0.3278  0.3999  0.8640
 2753TIP3   OH2 8199   3.249   0.409   3.334  0.6660  0.2401  0.0759
 2753TIP3    H1 8200   3.267   0.466   3.260  0.9398  0.0239 -0.0254
 2753TIP3    H2 8201   3.155   0.420   3.351  0.4720 -0.1895 -0.7006
 2754TIP3   OH2 8202   2.923   7.756   2.424 -0.4251  0.2004  0.2643
 2754TIP3    H1 8203   2.947   7.762   2.332 -0.5560 -0.1536  0.2076
 2754TIP3    H2 8204   2.995   7.798   2.471 -0.2729  0.2147  0.0150
 2755TIP3   OH2 8205   3.956   2.852   3.967 -0.2952 -0.2578 -0.1142
 2755TIP3    H1 8206   3.895   2.785   4.000  0.3167 -0.6642  0.2058
 2755TIP3    H2 8207   3.905   2.900   3.901 -0.4737 -1.6022 -0.9997
 2756TIP3   OH2 8208   1.601   5.701   1.919 -0.0413  0.3221  0.3740
 2756TIP3    H1 8209   1.606   5.756   1.841 -1.4207  0.2491  0.2058
 2756TIP3    H2 8210   1.550   5.752   1.982 -1.6829 -0.8427  0.0794
 2757TIP3   OH2 8211   7.681   2.242   0.383 -0.4706  0.0727  0.5310
 2757TIP3    H1 8212   7.704   2.333   0.366 -1.0209 -0.1958 -2.3166
 2757TIP3    H2 8213   7.765   2.197   0.391  0.0326  0.2058 -2.6200
 2758TIP3   OH2 8214   0.479   6.811   1.357  0.9220  0.3001 -0.5528
 2758TIP3    H1 8215   0.386   6.794   1.342  0.7869 -1.1633  1.4705
 2758TIP3    H2 8216   0.488   6.906   1.345 -1.1006  0.6755  0.3689
 2759TIP3   OH2 8217   1.574   1.122   4.229  0.7897 -0.0651  0.2970
 2759TIP3    H1 8218   1.493   1.171   4.218  0.1409 -0.8969  1.2085
 2759TIP3    H2 8219   1.556   1.062   4.301  1.5879 -1.5383 -0.6673
 2760TIP3   OH2 8220   1.850   5.256   6.808  0.1287 -0.3402 -0.4050
 2760TIP3    H1 8221   1.881   5.188   6.867  0.1807 -2.4360 -2.7034
 2760TIP3    H2 8222   1.927   5.281   6.757 -0.2401  0.2845 -0.6760
 2761TIP3   OH2 8223   5.905   1.005   5.078 -0.3810 -0.1560  0.0572
 2761TIP3    H1 8224   5.855   0.941   5.028  1.4926 -0.9021 -0.9522
 2761TIP3    H2 8225   5.934   0.957   5.156  1.0356 -0.5905 -0.7066
 2762TIP3   OH2 8226   2.406   0.217   6.082  0.8683  0.7048 -0.3769
 2762TIP3    H1 8227   2.392   0.174   5.997  0.3023  0.5658 -0.2186
 2762TIP3    H2 8228   2.340   0.286   6.085  0.5443  0.3766  0.1706
 2763TIP3   OH2 8229   1.080   3.003   4.506  0.0490  0.2978 -0.5164
 2763TIP3    H1 8230   1.150   3.056   4.468  1.3670 -0.0765  1.2509
 2763TIP3    H2 8231   1.123   2.949   4.572 -1.5898 -1.4643 -0.7629
 2764TIP3   OH2 8232   2.693   4.215   3.724 -0.2657  0.3761  0.2706
 2764TIP3    H1 8233   2.683   4.219   3.629 -1.7995 -1.1891  0.3151
 2764TIP3    H2 8234   2.676   4.123   3.747 -1.3938  0.9732  2.1742
 2765TIP3   OH2 8235   5.355   1.070   0.508 -0.1830 -0.2562  0.5374
 2765TIP3    H1 8236   5.292   1.059   0.579 -2.0990 -0.2896 -1.0760
 2765TIP3    H2 8237   5.371   0.981   0.477 -0.6509 -0.1253 -0.1053
 2766TIP3   OH2 8238   7.725   4.573   1.644 -0.1442 -0.1207  0.1688
 2766TIP3    H1 8239   7.650   4.605   1.595 -0.8416  1.1215  1.9782
 2766TIP3    H2 8240   7.791   4.641   1.634  0.7311 -1.0889 -1.1952
 2767TIP3   OH2 8241   7.479   4.144   1.667 -0.5424  0.3705 -0.1955
 2767TIP3    H1 8242   7.438   4.081   1.609  0.8862 -0.0932 -0.7320
 2767TIP3    H2 8243   7.411   4.164   1.732 -0.6651 -2.6838  0.7882
 2768TIP3   OH2 8244   4.767   1.012   5.892  0.1614 -0.3695  0.7836
 2768TIP3    H1 8245   4.858   0.984   5.884  0.7354  1.5267 -0.1451
 2768TIP3    H2 8246   4.755   1.030   5.985  0.4477 -1.4674  1.0437
 2769TIP3   OH2 8247   5.831   1.112   4.824  0.0843 -0.6038 -0.0506
 2769TIP3    H1 8248   5.888   1.097   4.899  0.2550  1.3292  0.2368
 2769TIP3    H2 8249   5.745   1.082   4.853 -0.1202  1.2391  1.4033
 2770TIP3   OH2 8250   0.217   1.389   0.892 -0.3430  0.0885  0.8042
 2770TIP3    H1 8251   0.225   1.309   0.943 -0.7536 -0.5597 -0.1075
 2770TIP3    H2 8252   0.275   1.452   0.935  1.3324 -1.2035  0.5604
 2771TIP3   OH2 8253   4.836   2.373   0.537 -0.1831 -0.1376  0.2116
 2771TIP3    H1 8254   4.884   2.442   0.491 -0.7159 -0.1816 -0.4227
 2771TIP3    H2 8255   4.904   2.322   0.582  0.1746  1.0800  1.0883
 2772TIP3   OH2 8256   7.008   3.189   0.239 -0.1636  0.5267  0.0419
 2772TIP3    H1 8257   6.941   3.218   0.301  0.2663  0.3738  0.5839
 2772TIP3    H2 8258   6.959   3.170   0.159 -0.7654  0.4677  0.4132
 2773TIP3   OH2 8259   7.957   5.765   3.811  0.2732  0.4820  0.3383
 2773TIP3    H1 8260   8.014   5.808   3.874  0.9137  0.7842 -0.4308
 2773TIP3    H2 8261   8.016   5.718   3.753 -0.2086  1.1511 -0.7313
 2774TIP3   OH2 8262   7.514   0.566   1.284  0.1980  0.2443  0.4605
 2774TIP3    H1 8263   7.440   0.514   1.317  0.4710 -0.9527 -0.7121
 2774TIP3    H2 8264   7.493   0.656   1.309 -0.9979 -0.2460  1.3286
 2775TIP3   OH2 8265   4.627   5.110   6.421 -0.2247  0.0089  0.6261
 2775TIP3    H1 8266   4.607   5.021   6.449 -0.9347 -0.4236 -1.1172
 2775TIP3    H2 8267   4.554   5.163   6.453  0.4191  0.0588  2.0450
 2776TIP3   OH2 8268   4.016   3.473   5.545 -0.1306  0.1713 -0.1958
 2776TIP3    H1 8269   4.097   3.510   5.511  0.0859  0.6040  0.7424
 2776TIP3    H2 8270   4.044   3.403   5.604 -0.4141  0.5008  0.3466
 2777TIP3   OH2 8271   7.940   6.932   4.984 -0.5001 -0.1931 -0.4196
 2777TIP3    H1 8272   8.010   6.949   5.048 -0.3594  2.0306 -1.0545
 2777TIP3    H2 8273   7.861   6.921   5.037  0.0738 -1.3027  0.2417
 2778TIP3   OH2 8274   0.774   5.437   3.974 -0.0703 -0.0748 -0.1335
 2778TIP3    H1 8275   0.712   5.391   4.031 -0.2117  0.7664  0.3994
 2778TIP3    H2 8276   0.826   5.367   3.934 -0.9853 -0.7584 -0.1550
 2779TIP3   OH2 8277   2.738   6.612   4.329  0.1444  0.2230  0.8283
 2779TIP3    H1 8278   2.803   6.672   4.293  0.0289 -0.7456 -1.1578
 2779TIP3    H2 8279   2.666   6.615   4.266 -0.9463 -0.1300  2.0064
 2780TIP3   OH2 8280   2.049   4.943   6.325  0.2465  0.1742  0.0706
 2780TIP3    H1 8281   1.955   4.953   6.333  0.0231 -2.0460  0.9816
 2780TIP3    H2 8282   2.071   4.871   6.384  2.3663 -0.0104 -0.8306
 2781TIP3   OH2 8283   1.758   0.804   4.965 -0.0804 -0.1417 -0.0261
 2781TIP3    H1 8284   1.735   0.786   4.873 -0.5358 -0.4921  0.1488
 2781TIP3    H2 8285   1.779   0.897   4.966 -1.5004  0.2171 -0.2202
 2782TIP3   OH2 8286   8.176   0.148   4.792  0.3542  0.1263  0.1012
 2782TIP3    H1 8287   8.097   0.152   4.846 -0.0103 -1.0636 -0.2993
 2782TIP3    H2 8288   8.184   0.055   4.769  1.0543  0.4534 -1.0663
 2783TIP3   OH2 8289   3.281   1.725   5.724 -0.5646  0.7559  0.5557
 2783TIP3    H1 8290   3.281   1.636   5.689  1.8538  0.7011  0.5197
 2783TIP3    H2 8291   3.297   1.781   5.647  0.6173  0.9706  0.9401
 2784TIP3   OH2 8292   5.359   1.981   3.518 -0.1993 -0.2118  0.4619
 2784TIP3    H1 8293   5.357   2.014   3.608 -2.4242  0.2741  0.3128
 2784TIP3    H2 8294   5.283   1.923   3.513 -0.0188 -0.3535 -1.0547
 2785TIP3   OH2 8295   7.329   4.047   1.410  0.0429  0.1297 -0.0986
 2785TIP3    H1 8296   7.276   4.086   1.340 -1.7550  1.2712  1.8029
 2785TIP3    H2 8297   7.372   4.121   1.452 -1.0356 -0.1986  1.6704
 2786TIP3   OH2 8298   4.370   6.489   1.495  0.1634 -0.2722 -0.1424
 2786TIP3    H1 8299   4.331   6.406   1.523 -0.2444  0.5469  1.9017
 2786TIP3    H2 8300   4.362   6.488   1.400 -1.9383 -1.5783 -0.0252
 2787TIP3   OH2 8301   2.948   3.833   5.878 -0.8717 -0.0433  0.4682
 2787TIP3    H1 8302   2.969   3.799   5.791  1.1122 -1.8260  1.5245
 2787TIP3    H2 8303   2.853   3.829   5.883 -0.9658 -1.1367 -1.1627
 2788TIP3   OH2 8304   6.573   4.323   1.638  0.1818  0.0782  0.1871
 2788TIP3    H1 8305   6.645   4.323   1.701 -0.6461  3.2746  1.3417
 2788TIP3    H2 8306   6.604   4.379   1.567 -0.4937  0.0355 -0.1518
 2789TIP3   OH2 8307   2.459   5.007   2.229 -0.2858 -0.1331 -0.2690
 2789TIP3    H1 8308   2.387   4.998   2.168 -1.7498  1.7798  1.0595
 2789TIP3    H2 8309   2.500   5.091   2.206  0.1074 -0.1290  0.4118
 2790TIP3   OH2 8310   2.637   4.262   2.351  0.3728 -0.1423  0.4647
 2790TIP3    H1 8311   2.656   4.176   2.312  2.2271  0.7879 -0.8509
 2790TIP3    H2 8312   2.578   4.304   2.288  1.7068  0.5708 -0.3540
 2791TIP3   OH2 8313   6.295   5.576   0.754  0.4677 -0.1930 -0.0845
 2791TIP3    H1 8314   6.219   5.558   0.699  1.3555  0.0981 -1.4790
 2791TIP3    H2 8315   6.266   5.642   0.816 -1.3285 -2.3966  1.6101
 2792TIP3   OH2 8316   2.969   6.760   2.979  0.6926  0.6570 -0.6677
 2792TIP3    H1 8317   2.964   6.687   2.917 -0.8624  0.3398 -0.1944
 2792TIP3    H2 8318   2.980   6.718   3.064 -0.0909  0.9838 -0.4067
 2793TIP3   OH2 8319   2.731   6.248   4.505 -0.6655  0.4320 -0.6355
 2793TIP3    H1 8320   2.748   6.167   4.457 -0.1454  0.2476 -0.1479
 2793TIP3    H2 8321   2.697   6.308   4.439  0.0415  0.1812 -1.2340
 2794TIP3   OH2 8322   5.143   5.899   3.990 -0.4039 -0.1985  0.3159
 2794TIP3    H1 8323   5.179   5.939   3.911 -2.0653  1.0844  0.1352
 2794TIP3    H2 8324   5.193   5.819   4.002 -0.1909 -0.5086 -2.1242
 2795TIP3   OH2 8325   1.490   0.483   2.602  0.1340  0.0763  0.1875
 2795TIP3    H1 8326   1.399   0.514   2.603  0.4188  0.9935 -0.3075
 2795TIP3    H2 8327   1.496   0.430   2.523  0.0409  0.0687  0.1848
 2796TIP3   OH2 8328   5.720   7.266   3.282  0.7441  0.4735 -0.2613
 2796TIP3    H1 8329   5.661   7.325   3.235  1.3790  1.2051 -0.1651
 2796TIP3    H2 8330   5.761   7.321   3.349  0.1412 -0.4558  0.9256
 2797TIP3   OH2 8331   1.670   1.250   1.641 -0.1248  0.7096 -0.3437
 2797TIP3    H1 8332   1.574   1.253   1.648 -0.3852 -2.9204 -0.6557
 2797TIP3    H2 8333   1.689   1.281   1.552 -1.0446  0.8829 -0.4896
 2798TIP3   OH2 8334   3.737   3.577   3.209 -0.3512 -0.3962  0.7347
 2798TIP3    H1 8335   3.742   3.514   3.137 -0.3773  2.3037 -1.8331
 2798TIP3    H2 8336   3.644   3.599   3.216  0.0100  2.6226 -1.6913
 2799TIP3   OH2 8337   1.507   4.285   5.810 -0.0395  0.1427  0.5032
 2799TIP3    H1 8338   1.507   4.371   5.767 -0.5666 -0.7396 -1.3804
 2799TIP3    H2 8339   1.587   4.285   5.863  1.5612  0.7545 -1.7503
 2800TIP3   OH2 8340   5.263   5.802   0.460 -0.1685  0.1163 -0.5089
 2800TIP3    H1 8341   5.228   5.848   0.384  1.5252  3.0286  0.3427
 2800TIP3    H2 8342   5.355   5.827   0.463  0.4593 -2.0789  1.0349
 2801TIP3   OH2 8343   0.246   2.784   2.509 -0.0483 -0.6829 -0.0112
 2801TIP3    H1 8344   0.279   2.697   2.486  1.3210  0.3056 -2.2000
 2801TIP3    H2 8345   0.166   2.794   2.457  0.4691 -0.2114 -0.7413
 2802TIP3   OH2 8346   7.943   6.764   1.903 -0.0209 -0.1206  0.3178
 2802TIP3    H1 8347   8.024   6.780   1.855  0.1159 -0.4422  0.4399
 2802TIP3    H2 8348   7.875   6.762   1.836  0.0110  0.5714  0.2576
 2803TIP3   OH2 8349   0.925   4.955   6.166  0.5100 -0.0311 -0.1494
 2803TIP3    H1 8350   0.869   4.888   6.204 -0.5372  1.6989  1.5746
 2803TIP3    H2 8351   0.973   4.911   6.096 -2.2325 -1.8445 -1.0352
 2804TIP3   OH2 8352   1.747   4.750   0.602 -0.4697  0.2115 -0.1433
 2804TIP3    H1 8353   1.744   4.841   0.574 -0.4083  0.7771  1.5535
 2804TIP3    H2 8354   1.778   4.702   0.525  1.1816  1.8529 -0.5899
 2805TIP3   OH2 8355   7.962   2.724   6.208  0.2274  0.2859 -0.1949
 2805TIP3    H1 8356   7.881   2.736   6.256  0.1331  0.7613 -0.4727
 2805TIP3    H2 8357   7.989   2.634   6.230 -0.5894 -0.0289 -0.4376
 2806TIP3   OH2 8358   3.641   1.841   6.758 -0.1591  0.1548  0.1409
 2806TIP3    H1 8359   3.724   1.817   6.798  0.3067  0.9094 -0.3339
 2806TIP3    H2 8360   3.605   1.909   6.814 -0.4409 -0.1368  0.3200
 2807TIP3   OH2 8361   1.115   2.579   0.993 -0.2746  0.6085 -0.2992
 2807TIP3    H1 8362   1.045   2.529   1.035 -0.2529  0.5504 -0.3317
 2807TIP3    H2 8363   1.154   2.630   1.064  0.2971 -0.1019 -0.0829
 2808TIP3   OH2 8364   3.873   2.574   4.914  0.3615  0.5923  0.3556
 2808TIP3    H1 8365   3.937   2.577   4.843 -0.1928 -0.9659 -0.2556
 2808TIP3    H2 8366   3.895   2.648   4.970  1.7045  1.0066 -0.6815
 2809TIP3   OH2 8367   8.088   1.520   1.134 -0.1749  0.3932  0.3147
 2809TIP3    H1 8368   8.152   1.523   1.205 -0.5112  0.3903  0.6219
 2809TIP3    H2 8369   8.016   1.577   1.163 -0.3846  0.2678  0.0512
 2810TIP3   OH2 8370   8.285   4.878   3.468 -0.0740 -0.0090  0.1534
 2810TIP3    H1 8371   8.318   4.816   3.402  0.1834  0.2666  0.0231
 2810TIP3    H2 8372   8.215   4.830   3.512  0.5788 -0.6567  0.5184
 2811TIP3   OH2 8373   6.170   1.615   3.751  0.1189  0.6633  0.4758
 2811TIP3    H1 8374   6.107   1.663   3.805  0.1398  1.5900 -0.2969
 2811TIP3    H2 8375   6.222   1.683   3.708  0.2906 -0.0510 -0.4883
 2812TIP3   OH2 8376   2.383   1.118   2.659  0.1708 -0.1440  0.2964
 2812TIP3    H1 8377   2.409   1.208   2.681 -0.0227 -0.2327  0.9153
 2812TIP3    H2 8378   2.402   1.110   2.566  0.4222  0.4610  0.2874
 2813TIP3   OH2 8379   6.012   1.786   6.104 -0.3628  0.2405  0.0333
 2813TIP3    H1 8380   6.103   1.756   6.112 -0.3875 -0.2846 -1.3210
 2813TIP3    H2 8381   5.961   1.717   6.146 -0.1330  0.7958  1.2875
 2814TIP3   OH2 8382   4.127   6.942   5.452  0.3590 -0.4048  0.1140
 2814TIP3    H1 8383   4.040   6.933   5.415  0.2771  0.3832  0.1009
 2814TIP3    H2 8384   4.113   6.960   5.545  0.5637 -2.3664  0.5700
 2815TIP3   OH2 8385   6.764   1.595   4.861 -0.6917  0.2655  0.7789
 2815TIP3    H1 8386   6.795   1.533   4.795  2.1263  0.7903  1.4727
 2815TIP3    H2 8387   6.671   1.606   4.842 -0.6362 -1.8710 -1.1989
 2816TIP3   OH2 8388   0.688   7.863   5.421  0.4041 -0.3364 -0.0002
 2816TIP3    H1 8389   0.652   7.888   5.336 -0.5104  0.6465  0.6544
 2816TIP3    H2 8390   0.650   7.776   5.438  2.3750 -1.5933 -1.5819
 2817TIP3   OH2 8391   1.398   3.213  -0.006 -0.4421  0.8625  0.2665
 2817TIP3    H1 8392   1.436   3.143   0.046 -0.7677  0.5553  0.0954
 2817TIP3    H2 8393   1.314   3.178  -0.035 -0.6401  1.3492  0.2393
 2818TIP3   OH2 8394   8.366   5.771   1.010  0.3141  0.9402 -0.2049
 2818TIP3    H1 8395   8.426   5.834   1.050  0.2554  0.6775  0.3024
 2818TIP3    H2 8396   8.351   5.805   0.921  2.4802  0.1751 -0.9276
 2819TIP3   OH2 8397   4.407   1.042   6.095 -0.4554 -0.0984 -0.0518
 2819TIP3    H1 8398   4.341   1.070   6.032 -0.5913  1.1755  0.6159
 2819TIP3    H2 8399   4.412   1.114   6.158  0.3167 -0.9387  0.8902
 2820TIP3   OH2 8400   1.998   0.949   0.128 -0.1096  0.0837  0.0315
 2820TIP3    H1 8401   2.025   0.928   0.038  0.4400  0.8465  0.0032
 2820TIP3    H2 8402   1.985   0.864   0.170  0.8582 -0.3039 -0.4168
 2821TIP3   OH2 8403   3.354   2.473   1.618  0.6644  0.3567  0.6021
 2821TIP3    H1 8404   3.386   2.502   1.533 -0.4947  1.0240  0.3763
 2821TIP3    H2 8405   3.420   2.505   1.680  0.5216  1.6011  0.1406
 2822TIP3   OH2 8406   4.340   4.405   0.016  0.1334 -0.2048  0.0791
 2822TIP3    H1 8407   4.371   4.456  -0.059  1.8856  0.1872  1.0150
 2822TIP3    H2 8408   4.280   4.464   0.062  1.7895  0.9266  0.8964
 2823TIP3   OH2 8409   6.772   7.481   3.047 -0.0918 -0.3637  0.2222
 2823TIP3    H1 8410   6.756   7.486   3.141  0.4586 -2.0786  0.4476
 2823TIP3    H2 8411   6.849   7.536   3.033 -0.0452 -0.2675  0.8242
 2824TIP3   OH2 8412   0.052   6.884   6.809  0.0445 -0.6235 -0.3467
 2824TIP3    H1 8413   0.036   6.925   6.895  1.2427 -1.8786  0.5146
 2824TIP3    H2 8414  -0.028   6.837   6.790  0.7043 -2.6425  1.4700
 2825TIP3   OH2 8415   4.667   6.049   5.670  0.0640  0.2600  0.0081
 2825TIP3    H1 8416   4.698   6.067   5.759 -1.9649 -0.0932  0.8524
 2825TIP3    H2 8417   4.581   6.089   5.667 -0.3753 -0.7268 -1.4205
 2826TIP3   OH2 8418   1.046   4.978   1.104  0.8151  0.3886 -0.5202
 2826TIP3    H1 8419   1.103   4.944   1.035  0.3106  1.2085 -1.3690
 2826TIP3    H2 8420   0.970   4.919   1.103  2.0376 -1.3538  1.3299
 2827TIP3   OH2 8421   3.782   6.550   4.204  0.1658 -0.4201  0.7318
 2827TIP3    H1 8422   3.849   6.504   4.255  1.3647  1.6862  1.2083
 2827TIP3    H2 8423   3.829   6.585   4.128 -0.6384  0.1052  0.4608
 2828TIP3   OH2 8424   3.987   0.765   5.642 -0.2197 -0.6938 -0.2273
 2828TIP3    H1 8425   4.061   0.784   5.700 -2.1790  0.1449  2.1649
 2828TIP3    H2 8426   4.004   0.818   5.564  1.5987 -0.4082  0.2983
 2829TIP3   OH2 8427   5.120   1.791   0.288 -0.3607  0.1460 -0.4961
 2829TIP3    H1 8428   5.172   1.859   0.245  0.0072  0.5077  0.5046
 2829TIP3    H2 8429   5.105   1.824   0.376 -0.9275 -0.6805 -0.2766
 2830TIP3   OH2 8430   7.842   4.656   5.137  0.1336 -0.1124 -0.2737
 2830TIP3    H1 8431   7.892   4.715   5.193 -0.1370 -0.1300 -0.0108
 2830TIP3    H2 8432   7.787   4.714   5.084 -0.3296 -0.1346  0.1744
 2831TIP3   OH2 8433   2.938   3.504   3.240 -0.4795 -0.3436  0.4844
 2831TIP3    H1 8434   2.856   3.479   3.284  0.3245 -0.1716  2.1272
 2831TIP3    H2 8435   2.945   3.598   3.254 -0.7966 -0.0421 -1.1042
 2832TIP3   OH2 8436   3.406   4.932   5.701  0.2959 -0.3813  0.4412
 2832TIP3    H1 8437   3.453   4.969   5.776 -1.3374  1.0687  0.8174
 2832TIP3    H2 8438   3.433   4.986   5.627 -1.0643  0.7883  0.7482
 2833TIP3   OH2 8439   7.664   7.196   5.181  0.3623  0.3763  0.1600
 2833TIP3    H1 8440   7.595   7.217   5.244  0.1711  1.3977 -0.3747
 2833TIP3    H2 8441   7.722   7.272   5.183  0.2178  0.5354 -1.0700
 2834TIP3   OH2 8442   4.506   5.007   4.753 -0.3967  0.3214  1.0280
 2834TIP3    H1 8443   4.443   5.076   4.733  0.8216  1.4270  0.8417
 2834TIP3    H2 8444   4.531   5.022   4.844 -1.2143 -0.8035  1.4608
 2835TIP3   OH2 8445   2.959   5.757   5.126  0.2623 -0.1476  0.5815
 2835TIP3    H1 8446   3.055   5.757   5.119  0.3010 -0.9889  1.0510
 2835TIP3    H2 8447   2.941   5.823   5.193  0.5031  0.0891  0.4192
 2836TIP3   OH2 8448   6.407   1.253   2.570 -0.0164  0.6313 -0.2697
 2836TIP3    H1 8449   6.461   1.255   2.648 -0.6447  0.3693  0.1775
 2836TIP3    H2 8450   6.437   1.176   2.521 -0.1795  0.3218  0.1161
 2837TIP3   OH2 8451   3.658   6.711   2.090 -0.3358  0.2867 -0.1327
 2837TIP3    H1 8452   3.564   6.693   2.093 -0.8029  2.4740  0.4697
 2837TIP3    H2 8453   3.696   6.650   2.153 -1.4153 -0.2846 -0.0003
 2838TIP3   OH2 8454   7.487   7.098   2.795  0.4196 -0.1485  0.4816
 2838TIP3    H1 8455   7.445   7.145   2.868 -0.9393 -1.4853  0.6148
 2838TIP3    H2 8456   7.552   7.160   2.761 -0.5982  1.4232  1.2707
 2839TIP3   OH2 8457   0.033   2.640   5.587  0.1157 -0.3368  0.2349
 2839TIP3    H1 8458   0.066   2.597   5.666 -0.6760 -2.9307 -0.7414
 2839TIP3    H2 8459   0.106   2.693   5.556  1.0244 -0.6495  1.7377
 2840TIP3   OH2 8460   5.607   7.724   3.433  0.0911  0.5948 -0.0381
 2840TIP3    H1 8461   5.539   7.657   3.428  1.2989 -0.7481  0.7967
 2840TIP3    H2 8462   5.663   7.708   3.357 -0.9563  2.2533 -1.2199
 2841TIP3   OH2 8463   5.918   7.838   6.825 -0.5386  0.3493 -0.0885
 2841TIP3    H1 8464   5.957   7.764   6.777 -1.9162 -0.9310  0.6821
 2841TIP3    H2 8465   5.993   7.893   6.849  0.4145 -0.2141 -1.6194
 2842TIP3   OH2 8466   0.855   6.148   2.286 -0.3748 -0.3557  0.2265
 2842TIP3    H1 8467   0.854   6.058   2.317 -0.6042  0.1346  1.7309
 2842TIP3    H2 8468   0.947   6.166   2.266  0.3749  0.1936  3.5604
 2843TIP3   OH2 8469   7.004   1.923   2.964 -0.2105  1.0481  0.3146
 2843TIP3    H1 8470   6.989   1.878   3.047 -0.1852  2.4247  1.1040
 2843TIP3    H2 8471   7.049   1.860   2.909 -1.4499 -0.3625  0.8554
 2844TIP3   OH2 8472   1.474   0.927   3.233 -0.5654  0.1299 -0.1969
 2844TIP3    H1 8473   1.488   1.010   3.279 -1.4509  1.4496 -2.1535
 2844TIP3    H2 8474   1.394   0.892   3.271 -0.1045  0.0551  0.7520
 2845TIP3   OH2 8475   5.729   1.462   6.054  0.4924 -0.1820 -0.0421
 2845TIP3    H1 8476   5.805   1.508   6.093  1.4429 -2.1136  0.5094
 2845TIP3    H2 8477   5.768   1.388   6.008 -1.0647 -1.0576  0.0190
 2846TIP3   OH2 8478   2.941   4.450   0.148 -0.1650 -0.2351  0.2765
 2846TIP3    H1 8479   2.949   4.423   0.056  0.4998  0.0720  0.2340
 2846TIP3    H2 8480   2.968   4.542   0.147 -1.0062  0.0257  0.6449
 2847TIP3   OH2 8481   6.377   5.978   2.115 -0.4482 -0.1406  0.1033
 2847TIP3    H1 8482   6.447   6.042   2.120 -0.1731 -0.3533 -0.8090
 2847TIP3    H2 8483   6.387   5.924   2.193  0.6965 -0.4646 -0.2572
 2848TIP3   OH2 8484   0.325   2.480   5.043  0.2146  0.4875 -0.5684
 2848TIP3    H1 8485   0.249   2.464   5.100  1.3337 -1.4567  0.4645
 2848TIP3    H2 8486   0.291   2.467   4.954 -0.5167 -1.0684 -0.0902
 2849TIP3   OH2 8487   8.128   4.822   1.676  0.5875 -0.0967  0.3985
 2849TIP3    H1 8488   8.216   4.860   1.677  0.8501 -0.6306 -0.6063
 2849TIP3    H2 8489   8.107   4.807   1.768  1.9068 -0.7706  0.6142
 2850TIP3   OH2 8490   8.276   2.020   5.034  0.0055 -0.2076  0.4729
 2850TIP3    H1 8491   8.336   1.950   5.060 -0.3976  0.6223  4.2461
 2850TIP3    H2 8492   8.326   2.072   4.971  0.8364 -2.9745 -1.3123
 2851TIP3   OH2 8493   3.321   2.778   5.720 -0.0311 -0.1718 -0.4728
 2851TIP3    H1 8494   3.341   2.697   5.767  0.8690 -0.6812 -1.6855
 2851TIP3    H2 8495   3.313   2.751   5.628  0.7935  1.1771 -0.9742
 2852TIP3   OH2 8496   5.377   2.372   6.470  0.1330 -0.2893 -0.0550
 2852TIP3    H1 8497   5.424   2.290   6.483  0.4492  0.0834  1.2802
 2852TIP3    H2 8498   5.284   2.346   6.470  0.2594 -0.7670 -0.6902
 2853TIP3   OH2 8499   6.723   3.167   1.949  0.0703 -0.4255  0.3912
 2853TIP3    H1 8500   6.657   3.104   1.919  0.2889  0.8095 -3.0260
 2853TIP3    H2 8501   6.680   3.252   1.944  1.1190  0.1437  0.6499
 2854TIP3   OH2 8502   1.744   0.318   6.304 -0.1778 -0.0947 -0.2697
 2854TIP3    H1 8503   1.696   0.350   6.228  0.1185  1.1809  0.0537
 2854TIP3    H2 8504   1.739   0.223   6.298 -2.5960 -0.0140 -0.3343
 2855TIP3   OH2 8505   6.822   0.213   5.367 -0.6724 -0.2068 -0.2995
 2855TIP3    H1 8506   6.851   0.207   5.458  2.3597  2.6178 -0.8700
 2855TIP3    H2 8507   6.870   0.288   5.332 -2.9617 -0.1574 -3.8214
 2856TIP3   OH2 8508   0.813   7.351   2.661 -0.5985 -0.0828  0.4564
 2856TIP3    H1 8509   0.757   7.427   2.681  0.5937  0.5855  1.4349
 2856TIP3    H2 8510   0.756   7.291   2.615 -1.6150  1.3896 -0.2938
 2857TIP3   OH2 8511   5.291   6.308   5.592  0.2067  0.1604 -0.5602
 2857TIP3    H1 8512   5.310   6.307   5.685  0.3045 -0.1448 -0.5820
 2857TIP3    H2 8513   5.312   6.219   5.562  0.3515  0.3062 -0.9044
 2858TIP3   OH2 8514   0.780   1.001   0.784 -0.4607 -0.2473  0.3019
 2858TIP3    H1 8515   0.838   0.925   0.791 -1.2136 -0.9629 -0.8670
 2858TIP3    H2 8516   0.707   0.980   0.843 -0.0824  0.1330  0.9085
 2859TIP3   OH2 8517   3.555   0.646   3.932  0.1406 -0.1066 -0.9409
 2859TIP3    H1 8518   3.626   0.615   3.989 -0.3988 -1.4929 -0.9914
 2859TIP3    H2 8519   3.499   0.569   3.919 -1.1818  0.8653 -1.1963
 2860TIP3   OH2 8520   7.262   7.818   1.465 -0.0236  0.1350  0.2629
 2860TIP3    H1 8521   7.292   7.761   1.395  0.0118  0.9534 -0.4022
 2860TIP3    H2 8522   7.322   7.802   1.537  1.2269  0.7803 -0.5963
 2861TIP3   OH2 8523   5.789   2.084   0.563  0.1366  0.1605  0.5326
 2861TIP3    H1 8524   5.784   2.049   0.652 -1.9401 -0.1710  0.3314
 2861TIP3    H2 8525   5.765   2.011   0.507  0.2023  0.7028 -0.2206
 2862TIP3   OH2 8526   4.333   2.650   5.861  0.2756 -0.2198 -0.4945
 2862TIP3    H1 8527   4.252   2.603   5.839  0.3279 -0.6190  0.1384
 2862TIP3    H2 8528   4.304   2.735   5.894  0.2103  0.6997 -2.7052
 2863TIP3   OH2 8529   0.464   4.998   3.524 -0.4101  0.0898  0.0162
 2863TIP3    H1 8530   0.488   5.091   3.527  0.6885 -0.2195  1.5821
 2863TIP3    H2 8531   0.368   4.998   3.525 -0.4802  1.2302 -1.8379
 2864TIP3   OH2 8532   6.693   2.024   4.622 -0.0251  0.0426  0.6286
 2864TIP3    H1 8533   6.600   2.013   4.643  0.2339 -3.3044  0.6179
 2864TIP3    H2 8534   6.694   2.058   4.532 -1.3433 -1.8997 -0.1943
 2865TIP3   OH2 8535   4.697   5.206   5.885  0.2957 -0.0038  0.1227
 2865TIP3    H1 8536   4.778   5.191   5.935  0.5813 -0.6123 -0.5014
 2865TIP3    H2 8537   4.699   5.139   5.817 -0.5165  0.2714 -0.1764
 2866TIP3   OH2 8538   1.310   3.310   6.779 -0.0197  0.2933 -0.8120
 2866TIP3    H1 8539   1.309   3.347   6.867 -0.2793 -0.4061 -0.5201
 2866TIP3    H2 8540   1.231   3.346   6.738 -0.5926 -0.3955 -0.3321
 2867TIP3   OH2 8541   0.047   6.751   4.914  0.5560  1.2234 -0.5126
 2867TIP3    H1 8542   0.076   6.842   4.912  1.0300  1.0693 -0.9586
 2867TIP3    H2 8543   0.038   6.727   4.822  1.8844  0.3803 -0.4473
 2868TIP3   OH2 8544   3.255   2.888   4.014  0.3679  0.1018 -0.0405
 2868TIP3    H1 8545   3.336   2.839   4.030  1.0822  1.2993  0.0669
 2868TIP3    H2 8546   3.237   2.932   4.097  0.2676  0.8017 -0.4336
 2869TIP3   OH2 8547   3.809   6.374   3.611  0.7138 -0.2494 -0.1947
 2869TIP3    H1 8548   3.790   6.316   3.684 -0.0792  0.4611  0.1863
 2869TIP3    H2 8549   3.887   6.337   3.570  0.1355 -1.6747 -0.0726
 2870TIP3   OH2 8550   6.384   3.494   4.911 -0.1247  0.2404 -0.3619
 2870TIP3    H1 8551   6.334   3.568   4.877 -0.8411  0.8954  1.9200
 2870TIP3    H2 8552   6.317   3.433   4.942  0.4445  0.2015  0.8651
 2871TIP3   OH2 8553   5.134   7.852   5.103  0.0233  0.1506 -0.0252
 2871TIP3    H1 8554   5.152   7.854   5.009 -0.0055 -0.8736 -0.0685
 2871TIP3    H2 8555   5.220   7.857   5.145  0.2503 -1.7359 -0.1726
 2872TIP3   OH2 8556   4.886   5.210   0.463 -0.0100 -0.5033  0.2207
 2872TIP3    H1 8557   4.819   5.261   0.508  0.3154 -0.1130  0.2768
 2872TIP3    H2 8558   4.908   5.263   0.385  1.2777  0.1214  0.9684
 2873TIP3   OH2 8559   2.183   4.172   0.414  0.0171  0.1206 -0.2326
 2873TIP3    H1 8560   2.248   4.143   0.350 -0.4074 -0.2819 -0.4803
 2873TIP3    H2 8561   2.230   4.236   0.468  0.9664 -1.0226  0.3333
 2874TIP3   OH2 8562   3.413   4.397   3.285  0.2110  0.0169  0.2701
 2874TIP3    H1 8563   3.387   4.482   3.320  1.2418 -0.1151  1.4115
 2874TIP3    H2 8564   3.358   4.333   3.330 -2.1766  0.1370 -2.1824
 2875TIP3   OH2 8565   2.083   1.333   2.360 -0.5855  0.0561  0.4081
 2875TIP3    H1 8566   2.165   1.351   2.405 -0.7251 -1.5557  1.3749
 2875TIP3    H2 8567   2.099   1.360   2.269  0.7392  0.4800  0.7487
 2876TIP3   OH2 8568   2.168   2.099   0.264  0.4147 -0.6743 -1.1005
 2876TIP3    H1 8569   2.200   2.035   0.328 -0.9296 -0.6603 -0.3837
 2876TIP3    H2 8570   2.091   2.057   0.225  0.5735 -0.2222 -1.9357
 2877TIP3   OH2 8571   4.396   0.620   1.818  0.0595  0.2712 -0.2775
 2877TIP3    H1 8572   4.482   0.607   1.857 -0.6107 -0.8778  0.8922
 2877TIP3    H2 8573   4.371   0.709   1.842  1.9572  1.6136 -2.8141
 2878TIP3   OH2 8574   0.200   5.924   1.076  0.3526 -0.1681 -0.3154
 2878TIP3    H1 8575   0.258   5.866   1.126 -0.5500 -0.9422 -0.1312
 2878TIP3    H2 8576   0.254   5.956   1.004  0.6671 -1.9156 -0.9119
 2879TIP3   OH2 8577   8.253   4.490   3.459 -0.6658 -0.5153 -0.5718
 2879TIP3    H1 8578   8.292   4.408   3.490 -0.4923  0.3090  1.5253
 2879TIP3    H2 8579   8.218   4.468   3.373  2.2948 -1.9369 -1.5697
 2880TIP3   OH2 8580   4.699   1.029   1.378 -0.4779 -0.7228  0.0937
 2880TIP3    H1 8581   4.793   1.011   1.380 -0.3217  0.1000  1.5031
 2880TIP3    H2 8582   4.690   1.103   1.318 -0.2536 -0.8956 -0.1578
 2881TIP3   OH2 8583   2.585   4.556   1.463  0.0456  0.2276  0.2732
 2881TIP3    H1 8584   2.585   4.577   1.369 -0.7020 -0.3358  0.1386
 2881TIP3    H2 8585   2.669   4.512   1.478 -0.5131 -1.1720 -0.4926
 2882TIP3   OH2 8586   5.200   2.056   0.253  0.2561 -0.0549  0.0224
 2882TIP3    H1 8587   5.254   2.134   0.260 -0.8736  0.8743 -1.0460
 2882TIP3    H2 8588   5.111   2.090   0.243 -0.1598 -1.4451 -1.3545
 2883TIP3   OH2 8589   8.173   6.147   1.110 -0.3317 -0.0676 -0.0196
 2883TIP3    H1 8590   8.117   6.186   1.044  0.6180 -1.3131 -1.6383
 2883TIP3    H2 8591   8.260   6.146   1.070 -0.1561 -3.1056  0.1453
 2884TIP3   OH2 8592   7.342   3.037   2.073  0.2333  0.1504  0.2597
 2884TIP3    H1 8593   7.315   3.028   2.165  1.3238  0.2673  0.6057
 2884TIP3    H2 8594   7.337   2.948   2.038  0.5808 -0.0297  0.6574
 2885TIP3   OH2 8595   3.925   6.635   6.712  0.4915 -0.2949 -0.1128
 2885TIP3    H1 8596   3.865   6.590   6.654  0.2174  0.6676 -0.6076
 2885TIP3    H2 8597   3.982   6.567   6.748  1.4983 -0.7890 -2.4796
 2886TIP3   OH2 8598   3.565   1.048   4.043  0.0227 -0.5973  0.1695
 2886TIP3    H1 8599   3.538   0.990   4.114  0.3476  1.9357  2.4932
 2886TIP3    H2 8600   3.485   1.062   3.992 -0.7439 -0.7811  1.2818
 2887TIP3   OH2 8601   2.939   2.874   0.423 -0.2344  0.6465 -0.1461
 2887TIP3    H1 8602   2.889   2.849   0.345  1.2824 -0.9522 -0.6604
 2887TIP3    H2 8603   2.892   2.951   0.457  0.5028  3.1613 -4.1173
 2888TIP3   OH2 8604   2.216   6.985   6.329  0.0133  0.0030  0.1141
 2888TIP3    H1 8605   2.159   7.054   6.294 -1.3212  0.1725  2.3730
 2888TIP3    H2 8606   2.187   6.906   6.285  1.7326  0.8333 -2.7057
 2889TIP3   OH2 8607   3.881   2.407   6.175  0.0407  0.0575 -0.1848
 2889TIP3    H1 8608   3.896   2.397   6.269 -0.6738  0.6963  0.0019
 2889TIP3    H2 8609   3.884   2.501   6.159  0.0342 -0.0361 -0.7889
 2890TIP3   OH2 8610   5.867   1.858   5.114 -0.6694  0.1332  0.4886
 2890TIP3    H1 8611   5.791   1.804   5.139 -0.6346 -0.2258 -0.1736
 2890TIP3    H2 8612   5.922   1.859   5.193  0.6483 -3.0361 -0.2230
 2891TIP3   OH2 8613   4.680   3.341   4.474  0.1005  0.2815 -0.5140
 2891TIP3    H1 8614   4.691   3.252   4.507 -0.5746 -0.1592 -1.4340
 2891TIP3    H2 8615   4.677   3.331   4.379  0.7505  1.3783 -0.6672
 2892TIP3   OH2 8616   7.511   7.777   3.210 -0.3827  0.1349  0.3083
 2892TIP3    H1 8617   7.490   7.845   3.275  1.9981  2.0190 -0.7425
 2892TIP3    H2 8618   7.499   7.695   3.258 -0.4452  1.3782  2.5929
 2893TIP3   OH2 8619   3.055   1.069   1.344 -0.2494  0.3583  0.2224
 2893TIP3    H1 8620   3.143   1.101   1.322 -0.0332  0.2639  0.9413
 2893TIP3    H2 8621   3.000   1.099   1.271  0.5908 -0.5842 -0.8394
 2894TIP3   OH2 8622   3.943   4.332   2.685 -0.1977  0.1296 -0.2768
 2894TIP3    H1 8623   4.014   4.334   2.749  0.2328 -0.9301 -0.7036
 2894TIP3    H2 8624   3.921   4.239   2.676 -0.9274  0.3543 -0.9213
 2895TIP3   OH2 8625   1.534   0.188   4.206  0.0694  0.2116  0.1569
 2895TIP3    H1 8626   1.561   0.122   4.142  0.1470  0.3358  0.0612
 2895TIP3    H2 8627   1.613   0.207   4.256 -0.2913 -0.9242  1.2430
 2896TIP3   OH2 8628   8.083   4.751   6.633 -0.1208  0.0840  0.5052
 2896TIP3    H1 8629   8.174   4.782   6.632 -0.3813  0.8801 -0.0416
 2896TIP3    H2 8630   8.061   4.739   6.541 -0.1830 -1.3333  0.6851
 2897TIP3   OH2 8631   4.146   6.521   5.782  0.5908  0.3541  0.2279
 2897TIP3    H1 8632   4.059   6.556   5.763  0.9601  0.2173 -2.0340
 2897TIP3    H2 8633   4.141   6.490   5.872 -1.7497  0.1969  0.0968
 2898TIP3   OH2 8634   5.605   5.368   3.311 -0.4393 -0.0069 -0.4424
 2898TIP3    H1 8635   5.555   5.295   3.346 -1.6339  0.2929 -1.4505
 2898TIP3    H2 8636   5.539   5.425   3.271  0.6458  0.7327 -1.2276
 2899TIP3   OH2 8637   4.252   0.703   0.872  0.7055 -0.2583 -0.0363
 2899TIP3    H1 8638   4.240   0.609   0.860  0.7827 -0.6366  2.3134
 2899TIP3    H2 8639   4.173   0.732   0.918  0.9762  0.7000 -0.1496
 2900TIP3   OH2 8640   1.104   0.757   3.587  0.3266  0.3636  0.0936
 2900TIP3    H1 8641   1.132   0.789   3.673  1.3210  0.8612 -0.3972
 2900TIP3    H2 8642   1.012   0.784   3.580  0.4691  1.0275  0.6631
 2901TIP3   OH2 8643   7.204   5.167   2.705  1.1917 -0.0204  0.3298
 2901TIP3    H1 8644   7.294   5.173   2.735  1.2717 -0.7534  0.2564
 2901TIP3    H2 8645   7.159   5.115   2.772  0.5699  1.2204  0.9066
 2902TIP3   OH2 8646   3.434   3.607   0.325  0.1342  0.1385  0.3427
 2902TIP3    H1 8647   3.520   3.592   0.284  0.2410  1.6268 -0.0523
 2902TIP3    H2 8648   3.372   3.563   0.268  0.6749 -1.5017  0.9729
 2903TIP3   OH2 8649   3.878   0.400   3.778 -0.1768  0.4995 -0.2179
 2903TIP3    H1 8650   3.870   0.304   3.777 -1.4206  0.6013 -0.4679
 2903TIP3    H2 8651   3.969   0.416   3.753 -0.2122 -0.5905 -1.1284
 2904TIP3   OH2 8652   0.159   7.032   4.961  0.9573  0.0515  0.0941
 2904TIP3    H1 8653   0.230   7.052   5.023 -0.2427  0.7016  1.3151
 2904TIP3    H2 8654   0.106   7.112   4.959 -0.5321 -0.8928  0.3398
 2905TIP3   OH2 8655   3.574   5.572   1.643 -0.0644 -0.4668  0.7139
 2905TIP3    H1 8656   3.516   5.648   1.644  0.7046  0.1264  1.0182
 2905TIP3    H2 8657   3.597   5.560   1.551 -1.9537 -1.7374  0.3273
 2906TIP3   OH2 8658   6.479   5.514   1.728  0.3763 -0.0546  0.3230
 2906TIP3    H1 8659   6.499   5.444   1.789  0.4854 -0.7397 -0.4720
 2906TIP3    H2 8660   6.384   5.518   1.725  0.3731  0.0694  0.6412
 2907TIP3   OH2 8661   2.495   7.679   2.452 -0.4054 -0.0626  0.0309
 2907TIP3    H1 8662   2.539   7.764   2.456 -1.6010  0.7005 -1.6422
 2907TIP3    H2 8663   2.401   7.701   2.453 -0.7467 -1.2232 -1.7041
 2908TIP3   OH2 8664   4.347   7.241   0.248 -0.2352  0.0425  0.7703
 2908TIP3    H1 8665   4.439   7.250   0.274 -0.6816  1.1673  2.0365
 2908TIP3    H2 8666   4.340   7.150   0.218  1.6879  0.4398 -1.0635
 2909TIP3   OH2 8667   7.147   6.974   3.271 -0.3977  0.3772 -0.1309
 2909TIP3    H1 8668   7.167   6.984   3.178 -2.0563  0.5826 -0.4938
 2909TIP3    H2 8669   7.207   7.034   3.315  1.7381 -1.0910 -0.8600
 2910TIP3   OH2 8670   7.428   6.325   2.722  0.0829 -0.3527  0.1484
 2910TIP3    H1 8671   7.494   6.286   2.664 -0.7728  0.3135 -1.3504
 2910TIP3    H2 8672   7.446   6.419   2.718 -0.5142 -0.2290  0.2847
 2911TIP3   OH2 8673   4.857   5.940   5.247 -0.1300  0.0961  0.4168
 2911TIP3    H1 8674   4.794   5.976   5.309 -1.5929 -1.3474 -0.1425
 2911TIP3    H2 8675   4.941   5.977   5.274 -0.7264 -0.2761  3.1045
 2912TIP3   OH2 8676   7.674   1.884   4.928  0.1228 -0.1603  0.9277
 2912TIP3    H1 8677   7.647   1.798   4.896 -1.2227  0.4103  0.4479
 2912TIP3    H2 8678   7.761   1.897   4.891  0.2870 -1.2540  0.8963
 2913TIP3   OH2 8679   6.644   4.951   3.365 -0.3284  0.2819  0.2848
 2913TIP3    H1 8680   6.617   4.954   3.273 -0.6490 -1.4264  0.2940
 2913TIP3    H2 8681   6.594   4.878   3.402 -1.2500  1.7749  2.1735
 2914TIP3   OH2 8682   4.878   4.143   5.334  0.3180  0.4317 -0.2477
 2914TIP3    H1 8683   4.954   4.110   5.383  0.4094 -0.5020 -0.9859
 2914TIP3    H2 8684   4.806   4.085   5.361 -0.2558  1.5694  0.7636
 2915TIP3   OH2 8685   7.493   4.610   2.547  0.3367  0.1678  0.1134
 2915TIP3    H1 8686   7.442   4.586   2.624  1.6436  0.8372  1.2482
 2915TIP3    H2 8687   7.483   4.705   2.540 -0.5929  0.0053 -1.1934
 2916TIP3   OH2 8688   7.269   1.220   5.937  0.1732 -0.4522 -0.8458
 2916TIP3    H1 8689   7.196   1.281   5.925  1.7689  1.1910 -3.0153
 2916TIP3    H2 8690   7.276   1.208   6.032 -0.8085  1.9896 -0.4107
 2917TIP3   OH2 8691   0.872   2.385   2.189 -0.0209  0.3271 -0.4300
 2917TIP3    H1 8692   0.903   2.468   2.224  0.9970 -0.1402 -0.2031
 2917TIP3    H2 8693   0.904   2.319   2.250  0.6019 -0.3809 -1.4875
 2918TIP3   OH2 8694   6.937   4.970   5.308  0.3088 -0.3861  0.6646
 2918TIP3    H1 8695   6.871   4.957   5.376 -1.0237 -1.3725 -0.7540
 2918TIP3    H2 8696   7.014   4.923   5.340 -0.0721 -0.2939  1.7606
 2919TIP3   OH2 8697   3.857   2.550   6.566  0.9781 -0.3686 -0.2950
 2919TIP3    H1 8698   3.899   2.622   6.612  1.2417 -0.4412 -0.4185
 2919TIP3    H2 8699   3.926   2.514   6.511  1.1924 -1.5010  0.6792
 2920TIP3   OH2 8700   0.745   7.121   0.163 -0.2666  0.0358 -0.3388
 2920TIP3    H1 8701   0.828   7.148   0.202 -0.1853 -0.0324 -0.4631
 2920TIP3    H2 8702   0.727   7.035   0.201  0.7166 -0.8560 -1.7774
 2921TIP3   OH2 8703   1.454   2.594   6.610 -0.5594 -0.1044 -0.6140
 2921TIP3    H1 8704   1.435   2.676   6.655  0.7888 -0.4562  0.6567
 2921TIP3    H2 8705   1.507   2.544   6.672 -1.1471 -1.8456 -1.4518
 2922TIP3   OH2 8706   1.467   5.313   6.204  0.0082  0.5651 -0.0087
 2922TIP3    H1 8707   1.392   5.329   6.261  0.2049  0.5612  0.2534
 2922TIP3    H2 8708   1.518   5.394   6.208  0.3469  0.3406  0.3197
 2923TIP3   OH2 8709   7.139   1.463   5.480  0.6123 -0.0699 -0.4294
 2923TIP3    H1 8710   7.154   1.388   5.423 -0.0386  0.0760 -0.8019
 2923TIP3    H2 8711   7.043   1.471   5.484  0.6502 -0.0124  0.5921
 2924TIP3   OH2 8712   3.691   1.658   2.125 -0.4111 -0.5569 -0.3824
 2924TIP3    H1 8713   3.609   1.611   2.134 -1.5599  1.1460 -1.3234
 2924TIP3    H2 8714   3.675   1.742   2.168  0.8638 -0.2147 -0.5333
 2925TIP3   OH2 8715   5.634   6.360   4.661 -0.5471 -0.1193  0.0066
 2925TIP3    H1 8716   5.626   6.265   4.664 -1.3731 -0.0390  0.8461
 2925TIP3    H2 8717   5.544   6.392   4.672 -0.2403  0.7563  0.0427
 2926TIP3   OH2 8718   2.997   7.315   0.511 -0.3614  0.0262 -0.3708
 2926TIP3    H1 8719   3.020   7.225   0.488  0.2927  0.4637 -1.5158
 2926TIP3    H2 8720   2.936   7.306   0.584 -0.1102 -1.3353 -0.2971
 2927TIP3   OH2 8721   6.322   2.251   2.945  0.3034 -0.5289  0.4455
 2927TIP3    H1 8722   6.282   2.268   3.030  2.0000  0.3013  1.1089
 2927TIP3    H2 8723   6.337   2.156   2.945 -3.4630 -1.2897 -0.7023
 2928TIP3   OH2 8724   7.325   2.497   0.872 -0.7035 -0.1895  0.3608
 2928TIP3    H1 8725   7.345   2.525   0.782  0.9948 -0.1774  0.7103
 2928TIP3    H2 8726   7.247   2.444   0.863 -0.6081 -0.1287 -1.1322
 2929TIP3   OH2 8727   6.272   0.559   3.509  0.4808 -0.6924 -0.5179
 2929TIP3    H1 8728   6.180   0.538   3.525  0.5186  0.3842  1.3390
 2929TIP3    H2 8729   6.273   0.595   3.420 -1.0151 -0.0517 -0.3069
 2930TIP3   OH2 8730   5.371   5.789   1.008  0.4005 -0.8586 -0.3578
 2930TIP3    H1 8731   5.310   5.756   0.942 -1.7214 -0.2103  1.1839
 2930TIP3    H2 8732   5.336   5.757   1.091  1.7313  0.2171  0.6679
 2931TIP3   OH2 8733   6.872   2.283   0.419 -0.1969  0.1360 -0.3373
 2931TIP3    H1 8734   6.889   2.285   0.513  0.7101  1.3237 -0.4967
 2931TIP3    H2 8735   6.917   2.205   0.388 -0.1647 -0.0437  0.1512
 2932TIP3   OH2 8736   5.891   4.812   5.909  0.0213 -0.6602 -0.3233
 2932TIP3    H1 8737   5.859   4.790   5.822 -0.3555 -1.5163  0.0218
 2932TIP3    H2 8738   5.874   4.906   5.917  1.0278 -0.3449 -1.5554
 2933TIP3   OH2 8739   6.658   3.373   0.201 -0.5761  0.5638 -0.0442
 2933TIP3    H1 8740   6.566   3.377   0.229 -0.2244 -0.0766  1.2740
 2933TIP3    H2 8741   6.708   3.382   0.282  0.5187 -0.0336 -0.6284
 2934TIP3   OH2 8742   1.862   5.684   5.274 -0.7697  0.1586  0.3496
 2934TIP3    H1 8743   1.891   5.602   5.313 -1.0796  0.7141  1.7880
 2934TIP3    H2 8744   1.861   5.747   5.346 -0.6882  1.4026 -0.6898
 2935TIP3   OH2 8745   7.251   7.083   4.461 -0.3156  0.0958  0.1741
 2935TIP3    H1 8746   7.316   7.097   4.529 -0.4357  0.5003  0.2088
 2935TIP3    H2 8747   7.248   6.988   4.449 -0.6442 -0.0195  1.0797
 2936TIP3   OH2 8748   8.281   2.004   0.940 -0.5730  0.1221  0.1621
 2936TIP3    H1 8749   8.243   2.055   0.867 -2.9093 -1.5081  0.1169
 2936TIP3    H2 8750   8.328   1.933   0.897 -0.4720  0.1344  0.2523
 2937TIP3   OH2 8751   0.662   3.733   1.143 -0.1803  0.0349  0.1958
 2937TIP3    H1 8752   0.720   3.678   1.196  1.0882  0.8578 -0.2910
 2937TIP3    H2 8753   0.716   3.807   1.117 -1.3198  0.5834 -0.7096
 2938TIP3   OH2 8754   7.483   4.964   5.894 -0.1547  0.0853  0.0356
 2938TIP3    H1 8755   7.529   5.041   5.925 -1.1835  0.7439 -0.0304
 2938TIP3    H2 8756   7.515   4.893   5.950  1.7007  0.2964 -0.6866
 2939TIP3   OH2 8757   7.086   1.766   0.257  0.0770  0.2422 -0.1927
 2939TIP3    H1 8758   7.157   1.829   0.273  1.5947 -1.0824 -1.4673
 2939TIP3    H2 8759   7.030   1.809   0.192 -0.8313  1.6428  1.4229
 2940TIP3   OH2 8760   1.931   6.437   3.053  0.1763 -0.2770 -0.2820
 2940TIP3    H1 8761   1.904   6.483   3.133  2.1691 -0.2886  0.4656
 2940TIP3    H2 8762   1.980   6.502   3.003  2.6663 -1.3527  0.5907
 2941TIP3   OH2 8763   5.046   4.373   1.635  0.3548 -0.2629 -0.2442
 2941TIP3    H1 8764   5.115   4.332   1.583  0.1250  0.0800 -0.8218
 2941TIP3    H2 8765   4.974   4.388   1.573  0.4306  1.0018 -0.0476
 2942TIP3   OH2 8766   2.070   1.666   6.073 -0.1634 -0.2863 -0.5833
 2942TIP3    H1 8767   1.978   1.640   6.083 -0.5990  1.6321  1.0026
 2942TIP3    H2 8768   2.117   1.615   6.139 -0.6834  1.2497  1.0431
 2943TIP3   OH2 8769   2.734   7.150   4.331 -0.1613 -0.7229 -0.4060
 2943TIP3    H1 8770   2.709   7.086   4.264  1.1559 -0.7704 -0.8766
 2943TIP3    H2 8771   2.800   7.204   4.289 -1.5103  1.2257 -0.1477
 2944TIP3   OH2 8772   6.484   5.674   6.607 -0.0531 -0.2233  0.3136
 2944TIP3    H1 8773   6.562   5.653   6.557 -0.1184  0.7828 -0.2352
 2944TIP3    H2 8774   6.507   5.656   6.698  1.4327  1.7004  0.3777
 2945TIP3   OH2 8775   2.363   3.262   0.845  0.3566  0.3787  0.2779
 2945TIP3    H1 8776   2.352   3.167   0.838  0.7663  0.3232  0.3940
 2945TIP3    H2 8777   2.369   3.292   0.755 -0.5846  0.3944  0.2075
 2946TIP3   OH2 8778   0.632   4.775   4.615 -0.3874 -0.5094 -0.8410
 2946TIP3    H1 8779   0.660   4.706   4.554  1.1598  0.0692 -0.8138
 2946TIP3    H2 8780   0.536   4.769   4.614 -0.4061 -0.7196 -3.0883
 2947TIP3   OH2 8781   0.413   6.725   2.849  0.8558  0.0118  0.0400
 2947TIP3    H1 8782   0.398   6.729   2.754  0.4207 -0.5090  0.0797
 2947TIP3    H2 8783   0.366   6.646   2.877  1.9438 -0.4791  0.5179
 2948TIP3   OH2 8784   1.981   3.714   2.733  0.4905 -0.1266  0.3946
 2948TIP3    H1 8785   1.932   3.764   2.667 -0.6119 -1.0435  0.4867
 2948TIP3    H2 8786   2.067   3.756   2.736  0.6680 -0.1980 -1.8052
 2949TIP3   OH2 8787   4.673   1.150   1.936  0.8712 -0.1695  0.0345
 2949TIP3    H1 8788   4.725   1.114   1.864 -0.5782  0.0161 -1.1585
 2949TIP3    H2 8789   4.623   1.221   1.895 -0.8625 -0.8205  0.9547
 2950TIP3   OH2 8790   6.858   1.862   0.975 -0.6171 -0.0138 -0.0846
 2950TIP3    H1 8791   6.866   1.956   0.963 -0.4248  0.1301  1.0627
 2950TIP3    H2 8792   6.947   1.828   0.965 -0.7267 -0.1074 -0.7548
 2951TIP3   OH2 8793   7.432   3.994   1.082  0.3809 -0.2117  0.5065
 2951TIP3    H1 8794   7.498   3.946   1.132 -0.0993 -1.4858 -0.0545
 2951TIP3    H2 8795   7.482   4.048   1.022  0.9316 -0.2762  0.8997
 2952TIP3   OH2 8796   2.994   2.457   1.390  0.8773 -0.0358  0.1459
 2952TIP3    H1 8797   3.036   2.482   1.308 -0.6894  0.2096 -0.6151
 2952TIP3    H2 8798   2.949   2.375   1.370  0.6013 -0.0505  0.8096
 2953TIP3   OH2 8799   3.687   4.373   5.875  0.5343 -0.3466  0.1575
 2953TIP3    H1 8800   3.774   4.339   5.856 -0.5162 -2.4966 -1.0483
 2953TIP3    H2 8801   3.694   4.406   5.965  2.5273 -0.6237  0.1496
 2954TIP3   OH2 8802   7.116   1.413   2.233  0.3326 -0.0500  0.1297
 2954TIP3    H1 8803   7.066   1.333   2.246  0.6585 -0.1964  0.5141
 2954TIP3    H2 8804   7.083   1.474   2.299  1.7555 -0.6810  1.4842
 2955TIP3   OH2 8805   7.269   2.630   3.939 -0.3915  0.9000  0.1011
 2955TIP3    H1 8806   7.282   2.664   3.851  1.2349 -1.0335 -0.4846
 2955TIP3    H2 8807   7.272   2.707   3.996  2.1993  1.8546 -1.2101
 2956TIP3   OH2 8808   3.386   4.672   6.116  0.2478  0.9157 -0.7190
 2956TIP3    H1 8809   3.329   4.596   6.107  0.2070  0.8680 -0.0563
 2956TIP3    H2 8810   3.327   4.747   6.120  0.1848  0.8102  0.6641
 2957TIP3   OH2 8811   5.498   2.675   4.961 -0.1608  0.7169  0.3038
 2957TIP3    H1 8812   5.476   2.589   4.997  0.3914 -0.4265 -1.8907
 2957TIP3    H2 8813   5.585   2.664   4.922  0.0005  2.3223  0.1385
 2958TIP3   OH2 8814   1.493   4.470   4.613 -0.3854  0.5527 -0.7092
 2958TIP3    H1 8815   1.522   4.489   4.702  0.1350 -0.7491 -0.5885
 2958TIP3    H2 8816   1.404   4.436   4.623  0.6209 -2.1642 -0.3884
 2959TIP3   OH2 8817   2.352   4.347   1.789 -0.2033 -0.4864  0.2532
 2959TIP3    H1 8818   2.370   4.441   1.795 -1.1452 -0.2190 -0.6357
 2959TIP3    H2 8819   2.261   4.342   1.758 -0.5760 -1.7108  1.4451
 2960TIP3   OH2 8820   0.380   2.631   1.065 -0.5896  0.8506 -0.0348
 2960TIP3    H1 8821   0.299   2.601   1.106 -1.0374  1.0788 -0.7342
 2960TIP3    H2 8822   0.355   2.652   0.975  0.3701  0.3711 -0.4306
 2961TIP3   OH2 8823   7.209   4.074   2.246 -0.0788 -0.2021  0.0159
 2961TIP3    H1 8824   7.142   4.047   2.310 -0.5420  0.1970 -0.2878
 2961TIP3    H2 8825   7.242   4.157   2.279 -0.2264 -0.0593 -0.1923
 2962TIP3   OH2 8826   3.648   7.603   4.730 -0.1736 -0.2687  0.0043
 2962TIP3    H1 8827   3.644   7.558   4.645  1.2965 -0.8221  0.2071
 2962TIP3    H2 8828   3.607   7.541   4.791 -0.0640 -0.4211 -0.0756
 2963TIP3   OH2 8829   6.156   4.531   0.991  0.1066  0.5618  0.4046
 2963TIP3    H1 8830   6.221   4.599   1.009 -0.1976  1.0108 -0.1754
 2963TIP3    H2 8831   6.159   4.520   0.896  0.4856 -0.5678  0.5351
 2964TIP3   OH2 8832   6.580   7.169   1.616  1.0700 -0.2259  0.3066
 2964TIP3    H1 8833   6.623   7.229   1.676  0.8335 -0.5072  0.7586
 2964TIP3    H2 8834   6.588   7.083   1.657 -0.9165 -0.1462  0.9865
 2965TIP3   OH2 8835   0.016   1.105   1.308  0.3639  0.0331 -0.3773
 2965TIP3    H1 8836  -0.072   1.137   1.327  1.0915  2.1070 -0.1583
 2965TIP3    H2 8837   0.064   1.184   1.280  2.1148 -1.0527 -0.5959
 2966TIP3   OH2 8838   8.352   5.294   3.211 -0.0089 -0.2660 -0.3179
 2966TIP3    H1 8839   8.289   5.361   3.184  0.2677  0.2125  0.1959
 2966TIP3    H2 8840   8.326   5.273   3.301  0.8197  0.2558  0.0588
 2967TIP3   OH2 8841   8.346   7.405   5.728 -0.7626  0.9336 -0.2507
 2967TIP3    H1 8842   8.422   7.450   5.691  0.0819 -1.1658 -1.2310
 2967TIP3    H2 8843   8.376   7.373   5.813 -0.4164 -0.1782 -0.7798
 2968TIP3   OH2 8844   6.146   1.359   2.607 -0.1287 -0.1635  0.5719
 2968TIP3    H1 8845   6.233   1.321   2.601 -0.6736 -1.5402  0.9385
 2968TIP3    H2 8846   6.127   1.360   2.701 -0.4917  0.1660  0.4970
 2969TIP3   OH2 8847   2.156   5.094   6.768 -0.4407  1.0619 -0.1379
 2969TIP3    H1 8848   2.225   5.075   6.831 -1.1256 -1.7015 -0.1252
 2969TIP3    H2 8849   2.141   5.188   6.777  1.3727  1.2362  1.8192
 2970TIP3   OH2 8850   2.540   7.629   0.041 -0.0967  0.2109  0.1037
 2970TIP3    H1 8851   2.487   7.585   0.108 -0.3773  0.0883 -0.1954
 2970TIP3    H2 8852   2.604   7.679   0.091 -0.2935  0.1086  0.4673
 2971TIP3   OH2 8853   1.940   2.692   2.547 -0.3151  0.0592 -0.3703
 2971TIP3    H1 8854   1.934   2.619   2.485  0.1717 -0.0138 -0.3351
 2971TIP3    H2 8855   2.033   2.701   2.565 -0.4360  0.1948  0.2211
 2972TIP3   OH2 8856   1.114   6.445   4.824  0.0538  0.4377 -0.3617
 2972TIP3    H1 8857   1.019   6.441   4.835  0.0137 -0.9468 -0.9875
 2972TIP3    H2 8858   1.132   6.387   4.750  1.3907  0.6319 -0.2094
 2973TIP3   OH2 8859   4.052   5.237   0.184 -0.5254 -0.0563 -0.0662
 2973TIP3    H1 8860   3.976   5.198   0.229  0.0176 -0.2192  0.7315
 2973TIP3    H2 8861   4.014   5.303   0.126 -1.3552 -0.8489 -0.4464
 2974TIP3   OH2 8862   5.650   4.932   3.804 -0.2425 -0.0869  0.4418
 2974TIP3    H1 8863   5.648   4.949   3.898 -0.8010 -1.6551  0.7387
 2974TIP3    H2 8864   5.708   4.856   3.794 -0.1040  0.1184 -0.4967
 2975TIP3   OH2 8865   6.091   2.329   4.521 -0.2890  0.1731  0.0802
 2975TIP3    H1 8866   6.178   2.368   4.510 -0.0425  0.1052  1.6134
 2975TIP3    H2 8867   6.073   2.287   4.437  1.4954 -0.4693 -0.0260
 2976TIP3   OH2 8868   6.371   1.468   2.357 -0.6325 -0.1839 -0.3021
 2976TIP3    H1 8869   6.452   1.491   2.311 -1.2808  1.6736 -0.6023
 2976TIP3    H2 8870   6.398   1.453   2.448  0.2913 -1.4642 -0.7495
 2977TIP3   OH2 8871   0.029   7.107   3.810  0.1543 -0.1894 -0.6070
 2977TIP3    H1 8872  -0.015   7.028   3.781 -0.3034 -0.5826  1.0775
 2977TIP3    H2 8873   0.091   7.078   3.877  0.4176  0.8072 -0.3910
 2978TIP3   OH2 8874   7.832   2.618   4.921 -0.8717  0.1219 -0.4195
 2978TIP3    H1 8875   7.791   2.532   4.918  0.4092 -0.6776  2.3464
 2978TIP3    H2 8876   7.804   2.655   5.004  0.2598  1.5129 -0.6300
 2979TIP3   OH2 8877   3.623   0.342   4.192  0.1894  0.0109 -0.4915
 2979TIP3    H1 8878   3.530   0.359   4.208  0.0415  0.7270 -1.9497
 2979TIP3    H2 8879   3.624   0.287   4.114  0.9939  0.0311 -0.5026
 2980TIP3   OH2 8880   3.754   2.370   4.241  0.3268  0.7993 -0.0010
 2980TIP3    H1 8881   3.717   2.394   4.325  1.8544 -2.4457  1.8199
 2980TIP3    H2 8882   3.846   2.352   4.260  0.6105 -0.5022 -2.2521
 2981TIP3   OH2 8883   7.087   5.608   6.719  0.0469 -0.4631 -0.4347
 2981TIP3    H1 8884   7.065   5.701   6.705  0.3633 -0.2979  0.1568
 2981TIP3    H2 8885   7.064   5.591   6.810 -0.2773 -1.0474 -0.6210
 2982TIP3   OH2 8886   5.372   6.879   6.545  0.0113  0.2964 -0.1773
 2982TIP3    H1 8887   5.402   6.792   6.521  0.9841  0.2549  1.0457
 2982TIP3    H2 8888   5.390   6.933   6.468 -1.1334 -0.6696 -1.1574
 2983TIP3   OH2 8889   2.411   7.505   2.239 -0.5748  0.2132  0.6696
 2983TIP3    H1 8890   2.374   7.545   2.160  0.3749 -0.9335 -0.4044
 2983TIP3    H2 8891   2.410   7.575   2.304  1.4330  2.1839 -1.2569
 2984TIP3   OH2 8892   0.368   4.685   0.041  0.1758  0.1310 -0.4052
 2984TIP3    H1 8893   0.404   4.597   0.055  1.4807  0.9519  1.8919
 2984TIP3    H2 8894   0.344   4.715   0.128 -0.6057  1.9253 -1.2010
 2985TIP3   OH2 8895   2.734   1.505   5.123  0.6807  0.0885 -0.4365
 2985TIP3    H1 8896   2.766   1.595   5.128  0.3859  0.2471 -1.2798
 2985TIP3    H2 8897   2.642   1.510   5.148  0.4129  0.1805 -1.3951
 2986TIP3   OH2 8898   7.633   2.000   5.995 -0.6857  0.0840 -0.1393
 2986TIP3    H1 8899   7.679   1.960   6.069 -1.1316  1.0955  0.7291
 2986TIP3    H2 8900   7.598   1.927   5.945 -0.7269 -0.6307  0.8950
 2987TIP3   OH2 8901   5.996   7.449   5.628 -0.1848 -0.0000 -0.4665
 2987TIP3    H1 8902   6.033   7.446   5.539 -0.1539  0.4351 -0.4729
 2987TIP3    H2 8903   5.972   7.541   5.640 -2.7233 -0.5010 -1.0650
 2988TIP3   OH2 8904   0.279   4.368   2.912  0.3760  0.4008  0.1307
 2988TIP3    H1 8905   0.319   4.415   2.839 -0.6954 -0.0304 -0.7568
 2988TIP3    H2 8906   0.267   4.279   2.880  1.0758 -0.1477  1.3033
 2989TIP3   OH2 8907   3.077   6.445   3.912  0.3889  0.0004 -0.2976
 2989TIP3    H1 8908   3.053   6.526   3.866 -1.9308 -0.6961 -0.4106
 2989TIP3    H2 8909   3.035   6.453   3.998 -1.8125 -1.9718 -1.0807
 2990TIP3   OH2 8910   4.953   7.342   0.476  0.3764 -0.8468  0.1173
 2990TIP3    H1 8911   4.929   7.300   0.559  0.1751 -2.6032 -0.7640
 2990TIP3    H2 8912   5.030   7.395   0.497 -0.7700  0.2226  1.7869
 2991TIP3   OH2 8913   0.138   3.371   1.604 -0.4389  0.5725  0.6263
 2991TIP3    H1 8914   0.104   3.285   1.580 -0.4237  0.6568  0.3020
 2991TIP3    H2 8915   0.194   3.396   1.531 -0.8086  1.0622  0.5014
 2992TIP3   OH2 8916   1.451   2.062   6.066 -0.1302  0.2324  0.0339
 2992TIP3    H1 8917   1.539   2.025   6.068 -0.5392 -0.7669  0.4370
 2992TIP3    H2 8918   1.396   1.993   6.104 -1.2284  0.4280 -1.1436
 2993TIP3   OH2 8919   4.193   0.073   3.266 -0.8537  0.0757 -0.2754
 2993TIP3    H1 8920   4.148   0.034   3.190 -0.1264 -0.4312 -0.4622
 2993TIP3    H2 8921   4.284   0.083   3.237 -0.8098  0.9707  0.1357
 2994TIP3   OH2 8922   7.099   1.997   5.174 -0.8146  0.0694  0.2057
 2994TIP3    H1 8923   7.104   1.902   5.186 -1.7315  0.2850  2.9632
 2994TIP3    H2 8924   7.186   2.029   5.195 -1.5909  0.1245  4.0775
 2995TIP3   OH2 8925   0.936   4.588   4.830 -0.4209  0.0183  0.1603
 2995TIP3    H1 8926   0.937   4.506   4.880  0.8108 -1.1142 -1.5655
 2995TIP3    H2 8927   1.022   4.627   4.847  0.3544 -0.8053 -1.6273
 2996TIP3   OH2 8928   4.025   1.594   6.660 -0.1313  0.1578 -0.1545
 2996TIP3    H1 8929   4.075   1.632   6.588  2.7137 -1.3355  0.8556
 2996TIP3    H2 8930   3.998   1.508   6.628  0.8972 -0.3942  0.4006
 2997TIP3   OH2 8931   7.732   2.066   5.566 -0.2543 -0.1629  0.0602
 2997TIP3    H1 8932   7.666   2.124   5.606  0.6978 -0.1090  1.6373
 2997TIP3    H2 8933   7.701   1.978   5.586  0.4476 -0.1360  1.3965
 2998TIP3   OH2 8934   5.727   1.273   5.146  0.1171 -0.2584 -0.2309
 2998TIP3    H1 8935   5.817   1.266   5.115  0.7965 -0.2373  1.6070
 2998TIP3    H2 8936   5.676   1.219   5.085  1.5610 -1.3323 -0.5462
 2999TIP3   OH2 8937   7.353   5.165   3.970  0.5624  0.3582  0.5159
 2999TIP3    H1 8938   7.441   5.186   3.937  0.3651 -0.1927 -0.3972
 2999TIP3    H2 8939   7.336   5.077   3.937 -0.4436  0.5665  0.4582
 3000TIP3   OH2 8940   1.591   5.145   1.760 -0.5764 -0.4894 -0.4193
 3000TIP3    H1 8941   1.629   5.232   1.774 -2.5501  0.3466  0.1226
 3000TIP3    H2 8942   1.545   5.153   1.676 -1.4345 -0.7397  0.0167
 3001TIP3   OH2 8943   1.693   2.702   3.792  0.0575 -0.1548  0.2137
 3001TIP3    H1 8944   1.614   2.756   3.786  0.0309 -0.2884 -0.7855
 3001TIP3    H2 8945   1.661   2.612   3.801  0.0822 -0.2317 -0.4024
 3002TIP3   OH2 8946   5.748   7.445   2.121 -0.0294  0.3935  0.6155
 3002TIP3    H1 8947   5.812   7.459   2.052 -2.2724  0.1823 -1.6393
 3002TIP3    H2 8948   5.695   7.525   2.123  0.4779  0.7450  2.7163
 3003TIP3   OH2 8949   4.513   0.756   2.893  0.2954  0.3528 -0.1438
 3003TIP3    H1 8950   4.561   0.723   2.817 -0.2184 -3.3737  0.9502
 3003TIP3    H2 8951   4.573   0.817   2.935  1.2954  1.0920 -2.4732
 3004TIP3   OH2 8952   2.093   4.757   0.658  0.2180  0.2156  0.4049
 3004TIP3    H1 8953   2.125   4.733   0.571 -1.6940  1.3949 -0.7049
 3004TIP3    H2 8954   1.998   4.762   0.647 -0.2720 -1.4622  3.0704
 3005TIP3   OH2 8955   4.894   5.046   0.707 -0.1148  1.1233  0.0827
 3005TIP3    H1 8956   4.880   5.075   0.617  0.0259  1.4992  0.1811
 3005TIP3    H2 8957   4.940   5.118   0.749  0.5457  0.6159  0.2422
 3006TIP3   OH2 8958   5.135   3.751   6.649 -0.2260  0.0304  0.2292
 3006TIP3    H1 8959   5.210   3.810   6.654 -0.9948  1.0879 -0.3155
 3006TIP3    H2 8960   5.130   3.711   6.736  0.7832  0.1488  0.3608
 3007TIP3   OH2 8961   7.935   7.634   3.721  0.4594 -0.0155 -0.0801
 3007TIP3    H1 8962   7.907   7.598   3.638 -1.6470  0.7438  0.2548
 3007TIP3    H2 8963   8.020   7.674   3.702  1.6353 -2.7341 -1.0336
 3008TIP3   OH2 8964   8.230   5.741   5.701 -0.1150  0.9806 -0.0658
 3008TIP3    H1 8965   8.202   5.650   5.716 -2.5082  1.6504 -0.0966
 3008TIP3    H2 8966   8.296   5.756   5.769  1.3883 -1.1663 -0.9236
 3009TIP3   OH2 8967   0.642   1.222   3.548  0.5616  0.1223 -0.3017
 3009TIP3    H1 8968   0.609   1.148   3.598 -0.1424  0.5699 -0.0899
 3009TIP3    H2 8969   0.707   1.262   3.605  1.9810 -1.1316 -0.9717
 3010TIP3   OH2 8970   4.343   6.458   6.760  0.0297 -0.1633  0.3048
 3010TIP3    H1 8971   4.431   6.491   6.746 -0.4000  0.5214 -0.8610
 3010TIP3    H2 8972   4.341   6.373   6.716  0.4553 -0.7437  1.3719
 3011TIP3   OH2 8973   3.870   7.362   4.874  0.1493  0.3175 -0.0054
 3011TIP3    H1 8974   3.779   7.390   4.889  0.1556  0.5934 -0.4554
 3011TIP3    H2 8975   3.881   7.367   4.779  0.1852 -1.1374 -0.0959
 3012TIP3   OH2 8976   1.568   2.741   0.432  0.5681  0.0778  0.2948
 3012TIP3    H1 8977   1.500   2.809   0.426  0.2247 -0.2956 -0.0504
 3012TIP3    H2 8978   1.602   2.751   0.521  1.0203  1.1782  0.0184
 3013TIP3   OH2 8979   2.359   6.533   2.795  0.1517  0.1991 -0.5327
 3013TIP3    H1 8980   2.350   6.534   2.890  0.2329 -1.0339 -0.4974
 3013TIP3    H2 8981   2.453   6.541   2.779  0.2668 -0.8616 -0.4551
 3014TIP3   OH2 8982   1.868   3.155   0.127  0.3885 -0.4046 -0.2448
 3014TIP3    H1 8983   1.883   3.066   0.095 -0.7838 -0.6626 -0.1197
 3014TIP3    H2 8984   1.785   3.149   0.175 -0.3239  0.9957 -1.2377
 3015TIP3   OH2 8985   8.083   6.910   0.695 -0.0353 -0.0631  0.1612
 3015TIP3    H1 8986   8.157   6.970   0.699 -0.4133  0.3684  0.7408
 3015TIP3    H2 8987   8.006   6.967   0.694 -0.3547 -0.4407 -1.7217
 3016TIP3   OH2 8988   2.206   7.780   1.781  0.0353 -0.1704 -0.1875
 3016TIP3    H1 8989   2.254   7.796   1.699  1.7758 -2.7734  0.2178
 3016TIP3    H2 8990   2.272   7.787   1.849 -1.0149  0.0795  0.8266
 3017TIP3   OH2 8991   7.094   1.001   0.140  0.1235  0.1215  0.1173
 3017TIP3    H1 8992   7.142   1.082   0.121  0.0718 -0.1195 -1.1661
 3017TIP3    H2 8993   7.037   0.989   0.064  0.0066 -1.0211  0.3680
 3018TIP3   OH2 8994   0.917   1.280   6.158 -0.3673  0.7700  0.0265
 3018TIP3    H1 8995   0.917   1.220   6.084 -0.0501  1.7619 -0.8027
 3018TIP3    H2 8996   0.894   1.365   6.120 -2.0576  0.9664  1.3674
 3019TIP3   OH2 8997   2.024   5.915   1.495  0.0452  0.1699  0.0793
 3019TIP3    H1 8998   1.955   5.915   1.561 -1.5449  0.2442 -1.5294
 3019TIP3    H2 8999   2.090   5.976   1.530 -1.2954  1.1184  1.0496
 3020TIP3   OH2 9000   3.256   1.726   3.141 -0.3962 -0.1410 -0.1349
 3020TIP3    H1 9001   3.192   1.774   3.192  1.0057  0.6974  0.9187
 3020TIP3    H2 9002   3.252   1.637   3.175  0.3943  0.3672  1.3849
 3021TIP3   OH2 9003   4.703   7.747   4.748  0.0937 -0.0017 -0.2073
 3021TIP3    H1 9004   4.713   7.653   4.737 -1.3807 -0.4177  1.5571
 3021TIP3    H2 9005   4.789   7.783   4.726  0.7617 -1.7654 -0.6505
 3022TIP3   OH2 9006   1.823   7.021   0.310  0.4474  0.4060 -0.2154
 3022TIP3    H1 9007   1.775   7.103   0.323 -1.2365 -0.4418 -0.8050
 3022TIP3    H2 9008   1.827   6.982   0.397  1.1004  1.0083  0.0372
 3023TIP3   OH2 9009   2.487   5.606   2.331 -0.3480  0.0412 -0.5711
 3023TIP3    H1 9010   2.546   5.534   2.352  0.1001  0.4267 -0.4910
 3023TIP3    H2 9011   2.510   5.630   2.241  0.5302  1.0431 -0.1054
 3024TIP3   OH2 9012   5.447   3.659   3.655  0.3393 -0.0033  0.4358
 3024TIP3    H1 9013   5.413   3.581   3.611  1.0488 -1.1357  1.8084
 3024TIP3    H2 9014   5.369   3.708   3.680 -0.0932  0.8018 -2.1931
 3025TIP3   OH2 9015   1.047   3.064   5.682  0.0529  0.1997 -0.3846
 3025TIP3    H1 9016   0.973   3.015   5.646 -0.7464  2.2208 -1.6576
 3025TIP3    H2 9017   1.108   3.073   5.609  1.2664 -0.8116  0.4558
 3026TIP3   OH2 9018   6.715   6.530   2.997  0.3495  0.0303  0.2915
 3026TIP3    H1 9019   6.674   6.527   3.083 -0.3554 -2.4117 -0.0550
 3026TIP3    H2 9020   6.804   6.561   3.014  0.3305 -0.7117  1.9373
 3027TIP3   OH2 9021   1.319   0.189   0.215  0.0488 -0.0475 -0.9370
 3027TIP3    H1 9022   1.342   0.115   0.270 -2.4028 -0.2008  0.0133
 3027TIP3    H2 9023   1.397   0.245   0.216  1.1889 -1.5680  0.0534
 3028TIP3   OH2 9024   6.616   6.901   1.720 -0.0786 -0.0271 -0.4332
 3028TIP3    H1 9025   6.658   6.855   1.647 -0.3188 -1.0411  0.0394
 3028TIP3    H2 9026   6.677   6.890   1.793 -0.1942  0.3054 -0.2862
 3029TIP3   OH2 9027   5.122   5.203   4.482  0.4421  0.1821 -0.0653
 3029TIP3    H1 9028   5.077   5.250   4.552  0.6021  0.3579 -0.0828
 3029TIP3    H2 9029   5.052   5.181   4.420  0.0538 -1.1700  0.7974
 3030TIP3   OH2 9030   1.945   7.914   6.326  0.5263 -0.3084 -1.1890
 3030TIP3    H1 9031   1.909   7.857   6.394 -0.2899 -0.6731 -1.9047
 3030TIP3    H2 9032   2.040   7.901   6.331  0.5405  0.2077  0.3332
 3031TIP3   OH2 9033   2.457   3.738   0.763  0.2040  0.4657  0.0735
 3031TIP3    H1 9034   2.509   3.769   0.689  0.1507  0.8818  0.2051
 3031TIP3    H2 9035   2.519   3.729   0.835  0.0470  1.3000  0.3276
 3032TIP3   OH2 9036   2.839   6.337  -0.009  0.0577 -0.2127  0.2264
 3032TIP3    H1 9037   2.750   6.363  -0.031  0.4193 -1.4916 -3.4980
 3032TIP3    H2 9038   2.844   6.343   0.087 -4.0139 -0.2265  0.5787
 3033TIP3   OH2 9039   8.258   3.620   6.030 -0.1825  0.2058  0.3222
 3033TIP3    H1 9040   8.321   3.583   5.968  0.2240  0.2563  0.6995
 3033TIP3    H2 9041   8.290   3.593   6.116 -1.2100 -0.5779  0.4803
 3034TIP3   OH2 9042   0.775   0.176   6.430  0.2117 -0.2269 -0.4334
 3034TIP3    H1 9043   0.838   0.236   6.388 -1.3650  0.9911 -1.1664
 3034TIP3    H2 9044   0.736   0.128   6.357 -0.0573 -0.6162 -0.0355
 3035TIP3   OH2 9045   1.794   4.020   3.062  0.1897 -0.0462 -0.6729
 3035TIP3    H1 9046   1.811   3.953   3.127  1.7942  1.9378  1.1143
 3035TIP3    H2 9047   1.726   4.075   3.101  0.5534  0.6788 -1.0257
 3036TIP3   OH2 9048   2.304   5.127   5.477  0.1345 -0.1799  0.2620
 3036TIP3    H1 9049   2.230   5.078   5.444  1.2535 -0.9886 -1.1606
 3036TIP3    H2 9050   2.325   5.085   5.561 -1.5296  0.6537  1.1434
 3037TIP3   OH2 9051   6.705   6.600   0.994 -0.3709  0.2358  0.3996
 3037TIP3    H1 9052   6.683   6.693   0.993  0.2704  0.3909  0.6267
 3037TIP3    H2 9053   6.784   6.594   1.048 -0.3942 -0.4370  0.3700
 3038TIP3   OH2 9054   2.463   2.302   2.204 -0.4060  0.0028  0.2177
 3038TIP3    H1 9055   2.389   2.257   2.246 -0.4063  0.6188  0.8793
 3038TIP3    H2 9056   2.477   2.253   2.122 -2.0615  0.3530 -0.3156
 3039TIP3   OH2 9057   2.640   3.803   0.585  0.2984 -0.1027  0.5059
 3039TIP3    H1 9058   2.704   3.825   0.653 -0.5485  1.2182  0.9134
 3039TIP3    H2 9059   2.688   3.747   0.524  1.8651  0.8905  0.7753
 3040TIP3   OH2 9060   0.654   0.287   3.798  0.2545  0.1347  0.2736
 3040TIP3    H1 9061   0.716   0.215   3.784 -1.0222 -0.8932 -0.2960
 3040TIP3    H2 9062   0.699   0.364   3.762  1.3641 -0.4920  0.2575
 3041TIP3   OH2 9063   4.696   7.660   3.781 -0.2033  0.2732  0.3277
 3041TIP3    H1 9064   4.638   7.693   3.849 -0.8009 -1.3432  0.6543
 3041TIP3    H2 9065   4.642   7.601   3.729  1.1979 -1.6884  0.9461
 3042TIP3   OH2 9066   7.000   5.487   6.167  0.1317 -0.0245  0.1851
 3042TIP3    H1 9067   7.007   5.394   6.186 -0.7769  0.0960  1.1748
 3042TIP3    H2 9068   7.087   5.522   6.188  0.4052 -0.5965  0.0316
 3043TIP3   OH2 9069   5.006   6.399   0.871 -0.1498 -0.2105 -0.0366
 3043TIP3    H1 9070   5.099   6.399   0.893 -0.0266  0.3436 -0.5234
 3043TIP3    H2 9071   4.993   6.320   0.819 -0.2641 -1.0629  1.2322
 3044TIP3   OH2 9072   6.967   4.761   3.558  0.8811 -0.7570 -0.2771
 3044TIP3    H1 9073   7.051   4.716   3.547  0.5689 -1.2111 -0.8745
 3044TIP3    H2 9074   6.955   4.768   3.653  1.0132 -1.8140 -0.1717
 3045TIP3   OH2 9075   0.294   0.435   0.132 -0.2504 -0.2415 -0.6685
 3045TIP3    H1 9076   0.365   0.446   0.195 -0.3635  0.4998 -0.6599
 3045TIP3    H2 9077   0.240   0.366   0.169  0.6950 -1.1336 -0.8913
 3046TIP3   OH2 9078   0.219   4.778   1.671 -0.4570  0.3011  0.4663
 3046TIP3    H1 9079   0.136   4.821   1.691 -0.5494  0.4907 -0.2725
 3046TIP3    H2 9080   0.199   4.722   1.595  0.5726  2.0293 -1.1868
 3047TIP3   OH2 9081   6.380   1.967   2.907  0.6577  0.0422  0.5045
 3047TIP3    H1 9082   6.383   1.871   2.910  0.8319  0.0686  1.6895
 3047TIP3    H2 9083   6.286   1.987   2.908  0.6267 -0.1073  1.1605
 3048TIP3   OH2 9084   1.911   2.717   4.967  0.7518 -0.3778  0.3416
 3048TIP3    H1 9085   1.976   2.745   5.032  0.0072  0.1432  0.8793
 3048TIP3    H2 9086   1.923   2.622   4.962  2.2540 -0.1884 -0.3598
 3049TIP3   OH2 9087   3.151   1.994   0.524  0.0674  0.4627 -0.1261
 3049TIP3    H1 9088   3.229   1.987   0.579 -1.3782  1.3018  2.2116
 3049TIP3    H2 9089   3.123   1.903   0.511  1.9619  0.0620 -1.9660
 3050TIP3   OH2 9090   2.410   2.786   0.356 -0.1043 -0.0499 -0.2627
 3050TIP3    H1 9091   2.375   2.740   0.432 -0.6561  0.6859 -0.0598
 3050TIP3    H2 9092   2.340   2.845   0.329  0.5963  0.6965 -0.4874
 3051TIP3   OH2 9093   3.341   3.376   1.204  0.3197  0.5945  0.5486
 3051TIP3    H1 9094   3.289   3.453   1.227  0.4265  0.8913 -0.1486
 3051TIP3    H2 9095   3.311   3.354   1.115  0.1897 -0.2548  0.7984
 3052TIP3   OH2 9096   0.722   6.220   1.006 -0.2629  0.1165  0.2444
 3052TIP3    H1 9097   0.646   6.208   0.949 -0.3027  1.2201  0.0347
 3052TIP3    H2 9098   0.759   6.133   1.016 -1.1969 -0.3414 -0.1609
 3053TIP3   OH2 9099   4.074   1.285   3.806  0.4462  0.3605  0.5846
 3053TIP3    H1 9100   4.038   1.197   3.800 -0.9046  0.9643 -0.5116
 3053TIP3    H2 9101   4.130   1.294   3.729  1.0078  0.2962  0.9745
 3054TIP3   OH2 9102   1.117   3.403   2.421 -0.9933  0.1040  0.5462
 3054TIP3    H1 9103   1.106   3.353   2.340 -0.4867  1.3670 -0.3482
 3054TIP3    H2 9104   1.099   3.341   2.491  0.8176 -1.6516 -0.4550
 3055TIP3   OH2 9105   4.497   2.975   5.698 -0.3916  0.3822 -0.1426
 3055TIP3    H1 9106   4.404   2.964   5.677 -0.0388 -1.0045 -1.1470
 3055TIP3    H2 9107   4.538   2.894   5.666  1.1939  1.0671  0.0864
 3056TIP3   OH2 9108   7.887   7.461   3.149  0.5549 -0.0522  0.6255
 3056TIP3    H1 9109   7.907   7.554   3.151 -1.3306  0.4219 -0.4854
 3056TIP3    H2 9110   7.857   7.445   3.059  0.4560 -1.6441  0.9150
 3057TIP3   OH2 9111   1.249   4.451   1.713 -0.1898 -0.3713  0.0924
 3057TIP3    H1 9112   1.336   4.416   1.692  0.0913  1.0841 -1.4630
 3057TIP3    H2 9113   1.231   4.420   1.801  1.8125 -0.9061  0.3685
 3058TIP3   OH2 9114   0.990   5.622   6.773  0.5775  0.1082  0.3936
 3058TIP3    H1 9115   1.013   5.705   6.732 -2.6243  0.5208 -0.8696
 3058TIP3    H2 9116   0.987   5.560   6.701 -2.6354  0.2715  0.2481
 3059TIP3   OH2 9117   0.175   7.486   0.687 -0.3356  0.3592 -0.2790
 3059TIP3    H1 9118   0.234   7.482   0.612 -1.2989 -1.2133 -1.0207
 3059TIP3    H2 9119   0.160   7.579   0.702  1.8812  0.7756 -0.4021
 3060TIP3   OH2 9120   2.087   4.136   4.438  0.3030  0.1216  0.2928
 3060TIP3    H1 9121   2.055   4.070   4.500  0.6416  1.0624  1.5246
 3060TIP3    H2 9122   2.009   4.182   4.410  0.2797  0.6803  1.2260
 3061TIP3   OH2 9123   6.746   2.794   3.991  0.3156  0.5529 -0.4054
 3061TIP3    H1 9124   6.670   2.751   3.952  1.1946  0.2340 -1.8220
 3061TIP3    H2 9125   6.753   2.755   4.078 -0.6716  0.0100 -0.5535
 3062TIP3   OH2 9126   5.473   3.017   0.754  0.1782  0.0106 -0.2192
 3062TIP3    H1 9127   5.462   2.956   0.682  1.8912  1.7283 -2.0959
 3062TIP3    H2 9128   5.538   2.976   0.811 -0.4524 -0.9351 -0.1761
 3063TIP3   OH2 9129   4.781   4.066   6.048 -0.5040  0.4284  0.4207
 3063TIP3    H1 9130   4.753   4.017   5.971  0.0571 -0.9278  1.0302
 3063TIP3    H2 9131   4.865   4.105   6.023 -1.3689  1.8579 -0.3597
 3064TIP3   OH2 9132   2.287   5.329   2.524  0.6442 -0.0521  0.0328
 3064TIP3    H1 9133   2.248   5.399   2.576 -0.3284 -1.8461  1.8483
 3064TIP3    H2 9134   2.218   5.300   2.465  0.5276 -0.5102  0.3874
 3065TIP3   OH2 9135   1.982   2.409   4.483 -0.0672 -0.6327 -0.1066
 3065TIP3    H1 9136   1.956   2.432   4.394  1.8824 -0.0197 -0.5560
 3065TIP3    H2 9137   2.013   2.319   4.477  0.9329 -0.2819 -0.2418
 3066TIP3   OH2 9138   6.720   1.212   3.250  0.1443  0.6227 -0.0187
 3066TIP3    H1 9139   6.672   1.209   3.333  0.5712  1.0333  0.2496
 3066TIP3    H2 9140   6.812   1.214   3.275  0.2939  0.2564 -0.5186
 3067TIP3   OH2 9141   7.078   2.456   3.050  0.2405  0.1121  0.3191
 3067TIP3    H1 9142   6.989   2.454   3.017  0.5962  0.7147 -0.7179
 3067TIP3    H2 9143   7.079   2.391   3.120 -1.1039  0.3857  0.6153
 3068TIP3   OH2 9144   4.141   3.963   4.341  0.0058  0.3068 -0.4604
 3068TIP3    H1 9145   4.193   3.915   4.276 -0.7513 -1.5304  0.2164
 3068TIP3    H2 9146   4.165   4.055   4.328  0.4868 -0.0839 -2.7671
 3069TIP3   OH2 9147   3.640   7.194   3.393  0.3403  0.2776 -0.8838
 3069TIP3    H1 9148   3.579   7.250   3.344  1.0770  0.7567 -1.2785
 3069TIP3    H2 9149   3.643   7.232   3.480 -1.8781 -1.2691 -0.0680
 3070TIP3   OH2 9150   5.554   1.643   3.231 -0.6568 -0.2782  0.1139
 3070TIP3    H1 9151   5.570   1.727   3.274  0.6633 -0.2195 -0.4565
 3070TIP3    H2 9152   5.530   1.666   3.141  0.2168 -0.5166 -0.1871
 3071TIP3   OH2 9153   8.071   4.073   6.362  0.5130  0.0184  0.3940
 3071TIP3    H1 9154   8.163   4.050   6.372 -0.1426 -2.7376  1.1602
 3071TIP3    H2 9155   8.048   4.041   6.274 -0.0556 -0.8784  0.8490
 3072TIP3   OH2 9156   6.853   4.880   2.951  0.6092  0.2700  0.3029
 3072TIP3    H1 9157   6.775   4.930   2.976 -0.0042 -0.4439 -0.1371
 3072TIP3    H2 9158   6.919   4.905   3.016 -0.3010  0.1021  1.3323
 3073TIP3   OH2 9159   7.644   6.085   6.395 -0.3546  0.3521 -0.3717
 3073TIP3    H1 9160   7.710   6.018   6.377 -0.9172 -0.4365  0.4290
 3073TIP3    H2 9161   7.674   6.162   6.346  1.1721  0.0315  0.0179
 3074TIP3   OH2 9162   8.055   5.348   3.856 -0.3147 -0.2258  0.2279
 3074TIP3    H1 9163   8.020   5.363   3.944 -1.3192  0.1057 -0.2142
 3074TIP3    H2 9164   8.089   5.433   3.828 -1.6018  0.1218 -0.3748
 3075TIP3   OH2 9165   5.524   1.114   4.786  0.3138 -0.0090  0.3840
 3075TIP3    H1 9166   5.519   1.202   4.749  2.2623 -0.1282 -0.2614
 3075TIP3    H2 9167   5.477   1.120   4.869 -0.4926  1.3553 -0.1352
 3076TIP3   OH2 9168   5.310   3.567   0.259 -0.2552 -0.1815  0.0529
 3076TIP3    H1 9169   5.235   3.605   0.306 -0.2650 -0.3280  0.1554
 3076TIP3    H2 9170   5.291   3.473   0.255 -1.1320  0.0213 -1.8019
 3077TIP3   OH2 9171   5.053   5.555   3.012  0.2732  0.0030  0.2251
 3077TIP3    H1 9172   4.999   5.545   3.090 -2.1928  0.4022 -1.3084
 3077TIP3    H2 9173   5.080   5.465   2.990 -3.2621 -0.8691 -1.1847
 3078TIP3   OH2 9174   0.645   7.490   3.293  0.3615  0.1989 -0.3319
 3078TIP3    H1 9175   0.633   7.492   3.198 -0.3906  1.8228 -0.2413
 3078TIP3    H2 9176   0.557   7.474   3.327  0.6175 -0.3077  0.1046
 3079TIP3   OH2 9177   2.724   3.276   2.669 -0.1185  0.5364  0.0224
 3079TIP3    H1 9178   2.765   3.189   2.666  0.2392  0.6043  1.9426
 3079TIP3    H2 9179   2.792   3.336   2.638  0.2819  0.3222  0.4759
 3080TIP3   OH2 9180   6.365   4.832   1.345  0.2458  0.3099  0.1657
 3080TIP3    H1 9181   6.440   4.882   1.312  0.0744  0.2747 -0.2729
 3080TIP3    H2 9182   6.333   4.884   1.419  0.3760  0.5921  0.0259
 3081TIP3   OH2 9183   4.656   1.919   2.729  0.1644 -0.1607  0.2934
 3081TIP3    H1 9184   4.562   1.929   2.718  0.1239 -0.0264  0.7411
 3081TIP3    H2 9185   4.666   1.835   2.774  0.2171  0.1361  0.8426
 3082TIP3   OH2 9186   6.308   7.084   3.501 -0.4385  0.3264 -0.3612
 3082TIP3    H1 9187   6.379   7.026   3.531 -0.6299 -0.0067 -0.5470
 3082TIP3    H2 9188   6.352   7.155   3.455 -0.1073  1.0474  1.0237
 3083TIP3   OH2 9189   7.760   3.931   5.018 -0.3959  0.1405  0.0582
 3083TIP3    H1 9190   7.852   3.907   5.012 -0.1672  0.3952  1.8092
 3083TIP3    H2 9191   7.713   3.860   4.975  0.5486 -0.7395  0.4384
 3084TIP3   OH2 9192   3.890   6.116   2.878 -0.2886 -0.5174 -0.1635
 3084TIP3    H1 9193   3.899   6.197   2.929  0.2496 -0.4445 -0.3753
 3084TIP3    H2 9194   3.939   6.132   2.798 -1.2276 -0.5896 -0.7707
 3085TIP3   OH2 9195   0.527   4.322   1.936 -0.3029 -0.2980 -0.1458
 3085TIP3    H1 9196   0.562   4.369   2.012 -0.7833 -2.3209  1.3901
 3085TIP3    H2 9197   0.596   4.330   1.870 -1.3515  4.7590 -1.0522
 3086TIP3   OH2 9198   6.119   5.991   5.890  0.3877  0.0996 -0.0490
 3086TIP3    H1 9199   6.099   6.033   5.974  1.0065  0.4886 -0.0851
 3086TIP3    H2 9200   6.152   5.904   5.914 -0.9976 -0.4302  0.0234
 3087TIP3   OH2 9201   4.820   7.238   5.895  0.0513  0.1460 -0.4227
 3087TIP3    H1 9202   4.843   7.331   5.884  0.0255  0.1861 -0.1416
 3087TIP3    H2 9203   4.804   7.207   5.806  0.2663  0.3594 -0.5366
 3088TIP3   OH2 9204   0.058   5.588   0.422 -0.2096  0.1192  0.0870
 3088TIP3    H1 9205   0.018   5.639   0.492 -1.3414  0.4563 -0.7767
 3088TIP3    H2 9206  -0.004   5.516   0.406 -0.7476  0.9013 -1.5770
 3089TIP3   OH2 9207   3.768   4.027   4.314 -0.6184  0.3923  0.1676
 3089TIP3    H1 9208   3.761   3.932   4.321  0.7460  0.1680 -1.1082
 3089TIP3    H2 9209   3.683   4.055   4.280 -0.4789 -0.5718 -1.0382
 3090TIP3   OH2 9210   5.215   5.038   1.777  0.0910  0.4590  0.4348
 3090TIP3    H1 9211   5.231   4.969   1.713  0.2385  1.0523 -0.1833
 3090TIP3    H2 9212   5.302   5.059   1.812 -0.1454 -0.9647  2.0406
 3091TIP3   OH2 9213   6.096   1.491   3.258 -0.5780 -0.2417  0.0603
 3091TIP3    H1 9214   6.041   1.491   3.337 -1.4210  2.1659 -0.4294
 3091TIP3    H2 9215   6.144   1.574   3.263  1.9626 -1.6174 -0.2891
 3092TIP3   OH2 9216   0.881   3.731   2.250  0.5150 -0.2465  0.1880
 3092TIP3    H1 9217   0.810   3.727   2.314  0.4621  1.7770  0.3255
 3092TIP3    H2 9218   0.960   3.747   2.301  0.6618  0.1257 -0.1455
 3093TIP3   OH2 9219   7.271   7.250   0.405 -0.7550  0.5603 -0.4706
 3093TIP3    H1 9220   7.211   7.201   0.348 -0.9959  0.9240 -0.5341
 3093TIP3    H2 9221   7.272   7.201   0.486 -1.2488  0.6182 -0.4211
 3094TIP3   OH2 9222   2.366   7.731   6.320  0.4768  0.0188  0.0292
 3094TIP3    H1 9223   2.288   7.693   6.361 -0.6762  1.7592 -0.4193
 3094TIP3    H2 9224   2.430   7.660   6.318 -2.0294 -2.4280 -2.1918
 3095TIP3   OH2 9225   2.735   3.860   4.331  0.5102  0.5751  0.2093
 3095TIP3    H1 9226   2.683   3.935   4.361  0.8825  0.4042  1.3568
 3095TIP3    H2 9227   2.823   3.877   4.365  0.4387 -0.7055  1.1197
 3096TIP3   OH2 9228   0.563   7.135   1.766  0.4355  0.1012 -0.6435
 3096TIP3    H1 9229   0.598   7.101   1.684 -0.8940 -2.7853 -0.1643
 3096TIP3    H2 9230   0.470   7.113   1.764 -0.2618  2.6590  0.4053
 3097TIP3   OH2 9231   6.963   0.948   2.355 -0.0198 -0.6242  0.1298
 3097TIP3    H1 9232   6.900   0.914   2.417 -0.7890  0.3420 -0.0981
 3097TIP3    H2 9233   6.994   0.871   2.307 -2.0278 -0.9921 -0.6827
 3098TIP3   OH2 9234   5.801   6.112   4.825 -0.1624 -0.3749 -0.3890
 3098TIP3    H1 9235   5.861   6.173   4.783  0.3018 -1.2551 -1.0538
 3098TIP3    H2 9236   5.857   6.041   4.856 -0.7079 -0.5626  0.1830
 3099TIP3   OH2 9237   6.464   5.883   3.099 -0.0655 -0.0081 -0.1804
 3099TIP3    H1 9238   6.469   5.789   3.080 -0.6678 -0.3804  1.3404
 3099TIP3    H2 9239   6.373   5.898   3.123  0.4486  0.5111  1.6517
 3100TIP3   OH2 9240   4.990   2.108   4.563  0.2036 -0.5018  0.1475
 3100TIP3    H1 9241   4.913   2.052   4.577  0.0480  0.1995  2.5214
 3100TIP3    H2 9242   5.034   2.110   4.648  2.6088 -0.4723 -1.0149
 3101TIP3   OH2 9243   1.516  -0.010   3.300 -0.5888 -0.7996  0.0170
 3101TIP3    H1 9244   1.502   0.074   3.255 -1.1537 -1.1206 -0.4159
 3101TIP3    H2 9245   1.606  -0.034   3.277 -0.4467 -0.3506  0.0836
 3102TIP3   OH2 9246   6.424   2.558   3.509  0.4101 -0.0859  0.1255
 3102TIP3    H1 9247   6.466   2.546   3.423  0.1164 -0.7793  0.0719
 3102TIP3    H2 9248   6.368   2.634   3.497 -0.1948 -0.6204 -0.5307
 3103TIP3   OH2 9249   7.081   3.437   6.709  0.4530 -0.9281 -0.0400
 3103TIP3    H1 9250   7.159   3.457   6.761  0.4118  0.8276 -0.6039
 3103TIP3    H2 9251   7.037   3.521   6.697 -2.9530 -2.1556  2.3951
 3104TIP3   OH2 9252   6.511   7.793   3.105  0.3416  0.2442  0.0535
 3104TIP3    H1 9253   6.532   7.715   3.155  1.0927  0.6630  0.4050
 3104TIP3    H2 9254   6.583   7.854   3.124  1.3543 -0.0196 -2.4893
 3105TIP3   OH2 9255   5.006   5.913   5.950 -0.2314  0.6721  0.2827
 3105TIP3    H1 9256   5.004   5.817   5.948  0.6789  0.6336  0.5108
 3105TIP3    H2 9257   5.082   5.936   5.897  1.2636  1.1396  2.4921
 3106TIP3   OH2 9258   2.851   3.420   5.127  0.6048 -0.3039  0.1802
 3106TIP3    H1 9259   2.914   3.348   5.129  1.9517  0.8293  2.3105
 3106TIP3    H2 9260   2.903   3.497   5.103 -0.6705  0.1277 -1.3699
 3107TIP3   OH2 9261   4.486   3.982   6.023 -0.3384 -0.2498  0.0189
 3107TIP3    H1 9262   4.526   3.941   5.946 -0.4527 -0.1616 -0.0895
 3107TIP3    H2 9263   4.463   4.071   5.993 -0.0359 -0.0861  0.2686
 3108TIP3   OH2 9264   7.464   6.658   3.873 -0.0799  0.0472 -0.5118
 3108TIP3    H1 9265   7.500   6.614   3.796  0.3623 -0.9810  0.2572
 3108TIP3    H2 9266   7.459   6.750   3.848 -1.1955 -0.4326 -2.2291
 3109TIP3   OH2 9267   2.969   6.901   0.857  0.1815 -0.5515 -0.1006
 3109TIP3    H1 9268   2.928   6.904   0.770  0.4670 -1.2989 -0.2708
 3109TIP3    H2 9269   2.997   6.991   0.874 -2.8114  0.3360  0.6723
 3110TIP3   OH2 9270   7.192   1.430   1.448 -0.1468 -0.2771 -0.2137
 3110TIP3    H1 9271   7.241   1.350   1.436  0.9503  0.0818  1.4855
 3110TIP3    H2 9272   7.155   1.422   1.536  0.1388  1.1509  0.0556
 3111TIP3   OH2 9273   6.007   0.600   5.427  0.4716 -0.3517  0.0925
 3111TIP3    H1 9274   6.034   0.597   5.518  0.3706 -0.3605  0.1223
 3111TIP3    H2 9275   6.050   0.678   5.392  1.4513 -0.9949 -0.1583
 3112TIP3   OH2 9276   3.579   1.502   6.434 -0.0385  0.1723 -0.0746
 3112TIP3    H1 9277   3.564   1.411   6.406  1.3809 -0.2318  0.4022
 3112TIP3    H2 9278   3.661   1.528   6.392 -0.4480  1.2606 -0.2333
 3113TIP3   OH2 9279   5.159   5.405   6.397  0.1956  0.6555 -0.0385
 3113TIP3    H1 9280   5.194   5.405   6.308 -1.7482 -1.6264 -0.9341
 3113TIP3    H2 9281   5.171   5.314   6.427 -2.7597  0.2904  0.3914
 3114TIP3   OH2 9282   0.278   4.945   2.290  0.3670 -0.2691  0.5155
 3114TIP3    H1 9283   0.256   5.036   2.269 -1.1367 -0.9064 -0.8386
 3114TIP3    H2 9284   0.302   4.906   2.206  2.4670 -0.7814  1.2975
 3115TIP3   OH2 9285   7.270   7.198   2.257  0.5391  0.2531  0.3065
 3115TIP3    H1 9286   7.300   7.152   2.335  0.9906  0.5786  0.3293
 3115TIP3    H2 9287   7.278   7.291   2.279 -1.0380  0.3592  0.5144
 3116TIP3   OH2 9288   6.885   0.777   5.682 -0.1834  0.2815 -0.2204
 3116TIP3    H1 9289   6.856   0.808   5.768  0.1781  0.1782 -0.0602
 3116TIP3    H2 9290   6.806   0.743   5.641 -0.2267 -0.3364  0.3551
 3117TIP3   OH2 9291   6.996   7.187   1.429 -0.4762  0.0091 -0.6378
 3117TIP3    H1 9292   7.012   7.095   1.407  0.7423 -0.2557  1.1602
 3117TIP3    H2 9293   7.082   7.228   1.424 -0.8514  0.8403 -0.4741
 3118TIP3   OH2 9294   3.959   4.194   4.196 -0.6621  0.7453 -0.4685
 3118TIP3    H1 9295   3.974   4.143   4.116  0.0065  0.0143  0.1057
 3118TIP3    H2 9296   3.897   4.142   4.247  1.4198 -0.5067  0.9562
 3119TIP3   OH2 9297   4.058   3.045   1.889  0.1459  0.1322 -0.3395
 3119TIP3    H1 9298   4.048   3.102   1.965  4.3757  0.5874  0.1216
 3119TIP3    H2 9299   4.053   3.104   1.814 -1.8310  0.0130 -0.3516
 3120TIP3   OH2 9300   0.816   2.806   4.816 -0.0551  0.4591 -0.0353
 3120TIP3    H1 9301   0.792   2.720   4.782  0.0033  0.2739  0.3943
 3120TIP3    H2 9302   0.907   2.818   4.789 -0.6766  1.3086 -1.9697
 3121TIP3   OH2 9303   2.825   4.410   1.410  0.2654 -0.3298  0.2751
 3121TIP3    H1 9304   2.856   4.500   1.403  1.4156 -0.7796 -1.0384
 3121TIP3    H2 9305   2.904   4.358   1.425 -0.3925 -1.1232  1.1364
 3122TIP3   OH2 9306   5.354   5.400   3.790 -0.7497 -0.3067  1.1643
 3122TIP3    H1 9307   5.371   5.486   3.751  0.2968 -0.1231  1.9995
 3122TIP3    H2 9308   5.435   5.352   3.778 -1.5429 -1.4592  0.0769
 3123TIP3   OH2 9309   5.021   7.631   2.830  0.2946 -0.0501  0.0818
 3123TIP3    H1 9310   4.971   7.655   2.908 -1.0355  1.1295 -1.0841
 3123TIP3    H2 9311   4.970   7.561   2.790  0.5552 -0.1097 -0.1466
 3124TIP3   OH2 9312   8.332   7.162   2.208 -0.2109 -0.1099 -0.3305
 3124TIP3    H1 9313   8.324   7.068   2.189 -0.7267 -0.3505  0.9503
 3124TIP3    H2 9314   8.250   7.185   2.252  1.3260  0.0228  2.7565
 3125TIP3   OH2 9315   5.800   2.438   4.042 -0.3542 -0.2726  0.5028
 3125TIP3    H1 9316   5.884   2.393   4.043  0.4924  1.2372  0.3963
 3125TIP3    H2 9317   5.736   2.370   4.060  0.6572 -1.8867 -1.6241
 3126TIP3   OH2 9318   6.616   7.565   2.557 -0.1713 -0.3813  0.2786
 3126TIP3    H1 9319   6.605   7.485   2.506  0.3812 -0.4533  0.2680
 3126TIP3    H2 9320   6.560   7.629   2.513 -0.8395 -0.8365  0.4607
 3127TIP3   OH2 9321   4.673   0.098   4.518  0.5669  0.7325  0.1579
 3127TIP3    H1 9322   4.611   0.076   4.449  1.3249 -0.8030 -0.0742
 3127TIP3    H2 9323   4.757   0.105   4.474  0.6042  2.8104  0.4629
 3128TIP3   OH2 9324   0.888   3.498   5.747 -0.3740 -0.4041 -0.4901
 3128TIP3    H1 9325   0.956   3.565   5.740 -2.4165  1.7268 -1.1918
 3128TIP3    H2 9326   0.888   3.456   5.661  0.9693 -1.4442 -0.0219
 3129TIP3   OH2 9327   7.363   3.605   2.216 -0.1080 -0.1788 -0.2376
 3129TIP3    H1 9328   7.268   3.598   2.215 -0.1514  0.3299  0.0211
 3129TIP3    H2 9329   7.381   3.691   2.255  0.4004  0.9590 -2.7821
 3130TIP3   OH2 9330   3.504   3.996   1.943  0.0629  0.1138 -0.0859
 3130TIP3    H1 9331   3.583   3.972   1.990 -1.1316 -2.6796  0.7277
 3130TIP3    H2 9332   3.436   3.937   1.978 -1.4007 -0.7416 -3.7799
 3131TIP3   OH2 9333   7.955   2.772   2.242  0.0220  0.2831  0.4743
 3131TIP3    H1 9334   7.943   2.711   2.314 -0.0764  0.2302  0.4132
 3131TIP3    H2 9335   7.994   2.849   2.282 -0.5145  0.4561  0.6772
 3132TIP3   OH2 9336   7.763   0.298   2.796  0.2415 -0.0137 -0.0039
 3132TIP3    H1 9337   7.838   0.306   2.855  0.9047 -0.1380 -0.8123
 3132TIP3    H2 9338   7.753   0.385   2.758 -0.6343  0.2547  0.8111
 3133TIP3   OH2 9339   2.704   6.920   3.231  0.0755  0.1713 -0.4141
 3133TIP3    H1 9340   2.731   6.953   3.145  0.5731 -0.8617 -0.6688
 3133TIP3    H2 9341   2.779   6.868   3.261 -0.9538 -1.3678 -0.3767
 3134TIP3   OH2 9342   1.992   4.942   3.090 -0.6579  0.1623  0.7082
 3134TIP3    H1 9343   2.056   5.012   3.096 -2.7984  2.3217 -0.0526
 3134TIP3    H2 9344   1.921   4.969   3.148 -1.3547 -1.6299  0.7508
 3135TIP3   OH2 9345   1.120   2.572   4.357  0.1655 -0.4089 -0.2371
 3135TIP3    H1 9346   1.215   2.571   4.342  0.8013  1.7329  2.6960
 3135TIP3    H2 9347   1.093   2.661   4.336 -0.4096  0.1108  2.3589
 3136TIP3   OH2 9348   1.581   0.184   0.389 -0.3891 -0.3768  0.0104
 3136TIP3    H1 9349   1.528   0.107   0.410 -0.0736 -0.2611  1.3731
 3136TIP3    H2 9350   1.632   0.200   0.469 -1.4379  2.0380  0.2981
 3137TIP3   OH2 9351   0.432   6.710   1.957 -0.1854  0.1109 -0.0597
 3137TIP3    H1 9352   0.390   6.699   2.042  1.3364 -0.3294  0.6666
 3137TIP3    H2 9353   0.365   6.683   1.894 -1.2526  0.2019  0.9924
 3138TIP3   OH2 9354   3.770   3.257   1.740  0.2654  0.5430 -0.1061
 3138TIP3    H1 9355   3.761   3.216   1.826  1.1519  0.5745  0.0110
 3138TIP3    H2 9356   3.788   3.349   1.759 -1.7303  1.0287 -0.3693
 3139TIP3   OH2 9357   3.656   7.345   5.677 -0.3661 -0.6822  0.3251
 3139TIP3    H1 9358   3.647   7.317   5.768  0.1617 -1.3858  0.1678
 3139TIP3    H2 9359   3.751   7.350   5.663 -0.4399  0.2438  0.0545
 3140TIP3   OH2 9360   1.049   5.712   2.585 -0.1026  0.2028 -0.4312
 3140TIP3    H1 9361   0.974   5.653   2.594  1.1522 -1.5013 -0.6331
 3140TIP3    H2 9362   1.013   5.799   2.603 -2.2911 -0.4379 -1.3158
 3141TIP3   OH2 9363   5.586   1.245   5.881 -0.0933  0.2732 -0.1465
 3141TIP3    H1 9364   5.672   1.203   5.883  0.1249  0.7026  2.5872
 3141TIP3    H2 9365   5.591   1.314   5.947 -2.7925 -0.2522  0.7373
 3142TIP3   OH2 9366   3.090   1.900   2.459 -0.2145 -0.3721  0.4785
 3142TIP3    H1 9367   3.023   1.962   2.431 -0.5080 -0.1044  1.7047
 3142TIP3    H2 9368   3.169   1.953   2.469 -0.3418 -0.2804  1.0391
 3143TIP3   OH2 9369   4.072   2.358   0.650  0.2742  0.3042  0.3417
 3143TIP3    H1 9370   4.007   2.421   0.617 -0.6429 -1.0829 -0.6254
 3143TIP3    H2 9371   4.156   2.392   0.619  0.0232  1.9420  1.3006
 3144TIP3   OH2 9372   0.448   5.857   6.456  0.2039 -0.2771 -0.0465
 3144TIP3    H1 9373   0.483   5.780   6.500  1.4950  0.1977 -0.2040
 3144TIP3    H2 9374   0.514   5.925   6.469  0.7006 -0.1164 -2.7061
 3145TIP3   OH2 9375   1.324   1.298   0.064 -0.1193 -0.6475  0.1134
 3145TIP3    H1 9376   1.385   1.322   0.133 -0.3152  0.4824 -0.0738
 3145TIP3    H2 9377   1.237   1.318   0.100 -0.2142  0.0935 -0.4949
 3146TIP3   OH2 9378   0.550   4.794   0.810 -0.5168  0.2339 -0.0315
 3146TIP3    H1 9379   0.589   4.707   0.798  0.5492  0.7063 -0.0677
 3146TIP3    H2 9380   0.503   4.787   0.893 -0.9436 -0.5461 -0.3182
 3147TIP3   OH2 9381   1.211   5.951   3.910  0.0240  0.0639 -0.3385
 3147TIP3    H1 9382   1.292   5.904   3.891  0.1761 -0.0496  0.5314
 3147TIP3    H2 9383   1.182   5.985   3.826 -1.0698 -3.1320 -1.4086
 3148TIP3   OH2 9384   3.177   5.649   2.083 -0.5218 -0.5665  0.2882
 3148TIP3    H1 9385   3.089   5.660   2.118 -0.2067 -0.7122  1.1484
 3148TIP3    H2 9386   3.209   5.569   2.125  0.0091 -0.5295 -0.0410
 3149TIP3   OH2 9387   2.563   4.868   6.003  0.3352 -0.0185  0.5403
 3149TIP3    H1 9388   2.487   4.926   6.009  0.4577  0.0622  1.4588
 3149TIP3    H2 9389   2.638   4.928   5.997  0.3635 -0.0964  0.0808
 3150TIP3   OH2 9390   5.655   0.733   1.538 -0.4520 -0.5155 -0.0929
 3150TIP3    H1 9391   5.624   0.803   1.479 -1.6064 -0.6972  0.2717
 3150TIP3    H2 9392   5.693   0.668   1.480  1.0292  0.5769 -0.4184
 3151TIP3   OH2 9393   8.097   1.963   0.041 -0.3653 -0.0831  0.4531
 3151TIP3    H1 9394   8.034   2.035   0.034  1.4408  1.4393 -1.3756
 3151TIP3    H2 9395   8.162   1.993   0.105 -0.8501 -1.1736  1.5026
 3152TIP3   OH2 9396   4.424   0.815   1.114  0.1250  0.0030 -0.2118
 3152TIP3    H1 9397   4.514   0.817   1.081 -0.1583 -2.7685 -1.4299
 3152TIP3    H2 9398   4.371   0.793   1.038 -1.3847 -0.1835  0.8490
 3153TIP3   OH2 9399   1.553   6.611   2.220  1.0644 -0.1530 -0.4486
 3153TIP3    H1 9400   1.478   6.654   2.180  0.0670  0.5147  2.0043
 3153TIP3    H2 9401   1.520   6.527   2.251  1.4425 -0.0384  0.2784
 3154TIP3   OH2 9402   3.704   3.147   5.635 -0.2819  0.0144  0.0231
 3154TIP3    H1 9403   3.687   3.156   5.728  0.1301  1.1977  0.0020
 3154TIP3    H2 9404   3.650   3.073   5.607 -1.3714  0.4399  0.9505
 3155TIP3   OH2 9405   0.264   0.900   2.678  0.0902  0.1326 -0.5434
 3155TIP3    H1 9406   0.332   0.967   2.683  0.3343 -0.1052 -0.6375
 3155TIP3    H2 9407   0.285   0.851   2.599 -0.0553 -0.0890 -0.4448
 3156TIP3   OH2 9408   0.910   2.578   6.457  0.3758  0.3445  0.0058
 3156TIP3    H1 9409   0.862   2.655   6.486  1.7701  0.8581  1.0857
 3156TIP3    H2 9410   0.924   2.527   6.536  1.5637  0.2016 -0.2735
 3157TIP3   OH2 9411   5.450   2.675   2.065 -0.3873 -0.4904  0.5880
 3157TIP3    H1 9412   5.367   2.630   2.054 -0.9221  0.1732  1.7365
 3157TIP3    H2 9413   5.426   2.763   2.093  0.6811  0.0496 -0.1374
 3158TIP3   OH2 9414   7.100   3.645   4.218 -0.0643 -0.3431 -0.1557
 3158TIP3    H1 9415   7.175   3.704   4.209 -1.0275  0.9754  0.0358
 3158TIP3    H2 9416   7.089   3.636   4.312  2.8020 -4.5753  0.0413
 3159TIP3   OH2 9417   0.737   6.612   5.060  0.5434  0.2654 -0.1123
 3159TIP3    H1 9418   0.694   6.585   4.979 -2.8471 -1.6294  2.0746
 3159TIP3    H2 9419   0.783   6.534   5.091 -0.8035 -0.0517  1.2284
 3160TIP3   OH2 9420   6.223   2.973   0.020 -0.1772  0.1691  0.0351
 3160TIP3    H1 9421   6.279   2.895   0.020 -0.7954 -0.4180 -3.0702
 3160TIP3    H2 9422   6.153   2.953   0.082  0.5650 -1.0437  0.5157
 3161TIP3   OH2 9423   4.685   1.218   0.491  0.2258  0.1412  0.4298
 3161TIP3    H1 9424   4.641   1.304   0.494 -1.6387 -0.7533  0.1982
 3161TIP3    H2 9425   4.654   1.174   0.570  0.8818 -0.4579  0.3545
 3162TIP3   OH2 9426   3.958   4.877   1.253 -0.6484 -0.3820 -0.7666
 3162TIP3    H1 9427   3.938   4.799   1.201 -1.7959  0.0763 -1.0489
 3162TIP3    H2 9428   3.990   4.941   1.189 -0.3810 -0.3972 -0.6458
 3163TIP3   OH2 9429   2.032   7.005   3.817 -0.2994  0.6008 -0.4537
 3163TIP3    H1 9430   1.966   6.981   3.882  0.2833 -0.1625 -0.1313
 3163TIP3    H2 9431   1.983   7.049   3.748 -1.2283 -0.4724 -0.5022
 3164TIP3   OH2 9432   4.058   0.759   1.832  0.0263  0.3890  0.9053
 3164TIP3    H1 9433   4.050   0.756   1.737  1.1770 -2.2248  0.8159
 3164TIP3    H2 9434   3.968   0.758   1.864 -0.3622 -0.2276 -0.1652
 3165TIP3   OH2 9435   5.808   1.374   2.277 -0.3241 -0.2332 -0.0894
 3165TIP3    H1 9436   5.808   1.415   2.190 -1.8595 -0.1397 -0.0807
 3165TIP3    H2 9437   5.895   1.335   2.286 -0.0080  0.0990 -1.5100
 3166TIP3   OH2 9438   6.218   3.699   4.134  0.0456  1.3089  0.2940
 3166TIP3    H1 9439   6.257   3.667   4.052 -0.2315  1.1074  0.2392
 3166TIP3    H2 9440   6.287   3.687   4.199  0.7548  2.7061 -0.1573
 3167TIP3   OH2 9441   3.201   5.940   2.846 -0.2501 -0.3850  0.0369
 3167TIP3    H1 9442   3.215   5.895   2.929  0.6167  1.4875  0.9647
 3167TIP3    H2 9443   3.264   5.900   2.786  0.2335 -0.6787  0.7299
 3168TIP3   OH2 9444   7.811   0.859   0.861 -0.5885 -0.0016 -0.2022
 3168TIP3    H1 9445   7.750   0.810   0.916 -0.8591  1.9290  1.3339
 3168TIP3    H2 9446   7.819   0.806   0.782 -3.5711 -0.8054 -0.1192
 3169TIP3   OH2 9447   0.878   6.022   1.780 -0.3532 -0.0391 -0.3776
 3169TIP3    H1 9448   0.871   6.037   1.685 -1.2129  2.6678  0.0266
 3169TIP3    H2 9449   0.817   6.084   1.819  0.6070 -0.4740  2.0020
 3170TIP3   OH2 9450   8.215   2.476   2.228 -0.5990  0.3877  0.0047
 3170TIP3    H1 9451   8.301   2.493   2.267  0.1800 -2.1209 -0.4532
 3170TIP3    H2 9452   8.228   2.490   2.134 -1.0948  1.4109  0.0813
 3171TIP3   OH2 9453   7.882   5.009   4.001  0.6493 -0.1964  0.0117
 3171TIP3    H1 9454   7.929   4.943   3.948 -0.0668 -0.1462 -0.7027
 3171TIP3    H2 9455   7.791   4.980   4.000  0.5148  0.1814  0.6689
 3172TIP3   OH2 9456   2.083   3.408   2.508  0.5630 -0.7002 -0.2441
 3172TIP3    H1 9457   2.096   3.337   2.445  0.6612 -0.4376 -0.5241
 3172TIP3    H2 9458   2.042   3.367   2.584 -1.3882 -0.6853 -1.2302
 3173TIP3   OH2 9459   1.732   6.929   2.564 -0.1439 -0.4049  0.1156
 3173TIP3    H1 9460   1.661   6.994   2.567  0.3212  0.1441 -0.4268
 3173TIP3    H2 9461   1.694   6.854   2.519 -0.3744 -0.1037 -0.1954
 3174TIP3   OH2 9462   1.831   2.062   3.890 -0.0515  0.0563 -0.0534
 3174TIP3    H1 9463   1.846   2.130   3.956 -1.2274  1.6765 -1.3644
 3174TIP3    H2 9464   1.738   2.067   3.870  0.0251 -1.2709 -0.9302
 3175TIP3   OH2 9465   1.571   5.312   1.263 -0.2506 -0.5019 -0.5757
 3175TIP3    H1 9466   1.503   5.254   1.228 -0.7837  0.6391 -1.4859
 3175TIP3    H2 9467   1.635   5.318   1.193  1.2867 -2.2293  0.5717
 3176TIP3   OH2 9468   8.308   4.022   2.412  0.2167 -0.1645  0.0068
 3176TIP3    H1 9469   8.230   3.981   2.448 -0.7465 -0.2169 -1.9991
 3176TIP3    H2 9470   8.290   4.116   2.415  0.1402 -0.1678 -0.3062
 3177TIP3   OH2 9471   7.765   6.571   1.193  0.1106 -0.2954  0.3565
 3177TIP3    H1 9472   7.810   6.535   1.117  0.4711  0.7484  0.0624
 3177TIP3    H2 9473   7.684   6.520   1.199 -0.9914  0.9798 -2.0545
 3178TIP3   OH2 9474   1.610   1.088   4.769 -0.5692 -0.1283  0.7479
 3178TIP3    H1 9475   1.602   1.181   4.746 -0.2856 -0.2439  0.1401
 3178TIP3    H2 9476   1.666   1.087   4.846  0.4056  0.1433  0.0598
 3179TIP3   OH2 9477   0.797   4.592   2.293  0.1612 -0.3995 -0.1694
 3179TIP3    H1 9478   0.845   4.526   2.243  1.7062  1.1781 -0.8702
 3179TIP3    H2 9479   0.808   4.673   2.243  0.5765  0.9517  1.9849
 3180TIP3   OH2 9480   4.684   4.402   0.702 -0.1373 -0.2386 -0.3294
 3180TIP3    H1 9481   4.732   4.436   0.627 -0.1992 -0.0840 -0.2999
 3180TIP3    H2 9482   4.699   4.467   0.771 -1.2752  0.3653 -0.6392
 3181TIP3   OH2 9483   0.998   6.234   2.524  0.1095 -0.4810  0.2112
 3181TIP3    H1 9484   0.947   6.310   2.553  0.5775  0.3281 -0.9806
 3181TIP3    H2 9485   0.938   6.187   2.466  0.2924 -0.2157 -0.1986
 3182TIP3   OH2 9486   2.461   6.865   4.375 -0.3259  0.4619 -0.0185
 3182TIP3    H1 9487   2.510   6.943   4.399  1.5839 -1.3955  2.7802
 3182TIP3    H2 9488   2.504   6.833   4.295  1.5209  0.2149  1.0152
 3183TIP3   OH2 9489   8.207   0.801   0.538  0.1918  0.6808 -0.7270
 3183TIP3    H1 9490   8.247   0.828   0.455  2.0360 -0.6641 -0.3236
 3183TIP3    H2 9491   8.116   0.829   0.530 -0.1660 -0.9745 -3.9644
 3184TIP3   OH2 9492   1.199   3.105   5.442 -0.1749 -0.1114  0.7878
 3184TIP3    H1 9493   1.202   3.041   5.370 -0.9071  1.1301 -0.4069
 3184TIP3    H2 9494   1.167   3.185   5.401  1.9662  1.4341  1.9528
 3185TIP3   OH2 9495   8.317   0.658   3.880  0.3715  0.4700 -0.5029
 3185TIP3    H1 9496   8.286   0.620   3.962 -1.0755  0.5036 -1.0131
 3185TIP3    H2 9497   8.332   0.583   3.823 -1.4833  0.5404 -1.1615
 3186TIP3   OH2 9498   3.794   0.336   5.725  0.5183 -0.1020 -0.7373
 3186TIP3    H1 9499   3.724   0.275   5.702  1.8086 -2.7906  1.6931
 3186TIP3    H2 9500   3.851   0.338   5.648 -0.3655 -0.7618 -1.4230
 3187TIP3   OH2 9501   6.906   3.836   5.770 -0.0339 -0.1565 -0.4159
 3187TIP3    H1 9502   6.882   3.927   5.758 -0.3505 -0.1605  0.1612
 3187TIP3    H2 9503   6.994   3.839   5.809 -0.2318 -0.0795  0.0386
 3188TIP3   OH2 9504   4.261   4.051   5.457  0.5522 -0.1768 -0.0357
 3188TIP3    H1 9505   4.172   4.030   5.485  0.2928  0.3504 -0.4470
 3188TIP3    H2 9506   4.249   4.104   5.378  1.1290  2.5306  1.5700
 3189TIP3   OH2 9507   2.424   0.560   5.347  0.1597 -0.2266  0.2502
 3189TIP3    H1 9508   2.490   0.494   5.327 -0.8733 -0.8028 -1.5476
 3189TIP3    H2 9509   2.348   0.509   5.375  0.3942  0.4286  2.2528
 3190TIP3   OH2 9510   4.370   5.204   6.011 -0.0955 -0.7190 -0.2076
 3190TIP3    H1 9511   4.410   5.289   6.029  0.6799 -1.3773  1.4370
 3190TIP3    H2 9512   4.444   5.148   5.986 -0.2625 -1.4161  0.7869
 3191TIP3   OH2 9513   7.086   5.392   3.159 -0.1480 -0.7207 -0.0336
 3191TIP3    H1 9514   7.147   5.339   3.212 -0.1652 -0.7880 -0.0820
 3191TIP3    H2 9515   7.000   5.375   3.197 -0.1066 -0.4327  0.1946
 3192TIP3   OH2 9516   3.013   3.394   0.286 -0.0750  0.1277 -0.1766
 3192TIP3    H1 9517   3.100   3.362   0.260  0.1599  0.0118  0.7345
 3192TIP3    H2 9518   3.003   3.477   0.240  0.8888  0.5687  0.3855
 3193TIP3   OH2 9519   1.544   2.650   6.326  0.0910  0.4325  0.0869
 3193TIP3    H1 9520   1.480   2.636   6.396  0.8988 -1.6459  0.5031
 3193TIP3    H2 9521   1.494   2.640   6.245  0.0232 -2.9225  0.3778
 3194TIP3   OH2 9522   0.581   2.163   6.546 -0.1190  0.2272 -0.5287
 3194TIP3    H1 9523   0.493   2.126   6.555 -0.0361  0.1393 -0.0558
 3194TIP3    H2 9524   0.640   2.092   6.572  0.0781  0.4160 -0.4536
 3195TIP3   OH2 9525   5.251   6.629   2.229  0.2385  0.8988  0.1903
 3195TIP3    H1 9526   5.306   6.705   2.249 -0.7914  1.0503  2.8205
 3195TIP3    H2 9527   5.162   6.661   2.240 -0.2660 -0.2932 -0.3196
 3196TIP3   OH2 9528   1.115   0.734   1.892 -0.1120 -0.2341  0.2035
 3196TIP3    H1 9529   1.093   0.770   1.805  2.4411  0.4018 -0.2611
 3196TIP3    H2 9530   1.050   0.773   1.950 -0.3976  1.3256 -1.0601
 3197TIP3   OH2 9531   2.741   4.501   2.549 -0.1534 -1.1432 -0.2291
 3197TIP3    H1 9532   2.698   4.586   2.560  0.2559 -1.2473  3.9003
 3197TIP3    H2 9533   2.675   4.446   2.507 -1.6905  0.3544  0.0912
 3198TIP3   OH2 9534   3.205   2.780   2.023 -0.2893 -0.2557 -0.4422
 3198TIP3    H1 9535   3.224   2.855   2.080 -0.6649 -0.8151  0.4479
 3198TIP3    H2 9536   3.238   2.806   1.937  1.4783  0.0958  0.3096
 3199TIP3   OH2 9537   7.579   5.442   4.077 -0.2791 -0.0174 -0.2720
 3199TIP3    H1 9538   7.590   5.377   4.146  1.1609  0.2083 -0.2726
 3199TIP3    H2 9539   7.552   5.391   4.000 -0.2673 -0.4628  0.0166
 3200TIP3   OH2 9540   2.026   7.224   2.943  0.3357  0.1303 -0.2827
 3200TIP3    H1 9541   2.056   7.142   2.903 -0.6311 -0.5315  0.3380
 3200TIP3    H2 9542   1.934   7.229   2.920 -0.6916 -1.0600  3.0897
 3201TIP3   OH2 9543   6.011   5.559   6.763 -0.4793  0.0489  0.7535
 3201TIP3    H1 9544   6.052   5.488   6.812 -0.8983 -0.6891  0.0572
 3201TIP3    H2 9545   5.921   5.562   6.796 -0.4236  0.3531  0.8814
 3202TIP3   OH2 9546   5.760   2.875   2.970 -0.1040  0.6567 -0.3538
 3202TIP3    H1 9547   5.745   2.967   2.993  1.2971  0.9001 -0.3344
 3202TIP3    H2 9548   5.675   2.833   2.983 -0.8919  2.0351 -0.8368
 3203TIP3   OH2 9549   6.994   2.226   0.675  0.1108  0.2399 -0.1700
 3203TIP3    H1 9550   7.011   2.243   0.768 -1.0635 -1.1285  0.3299
 3203TIP3    H2 9551   7.075   2.186   0.643 -0.0258 -0.7869  0.6943
 3204TIP3   OH2 9552   8.249   1.825   4.120  0.2698  0.1563 -0.4573
 3204TIP3    H1 9553   8.335   1.866   4.112 -0.7848  2.6939  0.1898
 3204TIP3    H2 9554   8.245   1.794   4.210 -0.1300  1.7269  0.0953
 3205TIP3   OH2 9555   7.303   0.616   5.730  0.2707 -0.4423  0.6735
 3205TIP3    H1 9556   7.262   0.698   5.703 -2.2219 -2.1322 -1.1016
 3205TIP3    H2 9557   7.360   0.640   5.803 -0.6904  2.7623  0.4920
 3206TIP3   OH2 9558   2.984   0.843   1.824  0.1431  0.1446  0.3376
 3206TIP3    H1 9559   2.956   0.777   1.759 -0.8139 -0.0583  0.9338
 3206TIP3    H2 9560   3.045   0.899   1.776  0.2240 -0.5981 -0.4589
 3207TIP3   OH2 9561   6.758   5.837   0.372 -0.3711  0.0110 -0.6048
 3207TIP3    H1 9562   6.722   5.922   0.397  0.7426  0.4930 -0.5823
 3207TIP3    H2 9563   6.697   5.774   0.409 -1.4256  0.8004 -0.9479
 3208TIP3   OH2 9564   7.850   0.850   3.787  0.2543  0.1396  0.0739
 3208TIP3    H1 9565   7.941   0.819   3.792  0.0497 -0.2406  2.0562
 3208TIP3    H2 9566   7.799   0.781   3.827 -0.9821  0.2362 -1.2672
 3209TIP3   OH2 9567   6.779   4.045   1.731 -0.2077 -0.3779 -0.2067
 3209TIP3    H1 9568   6.832   4.108   1.683 -0.0863 -1.3031 -1.3286
 3209TIP3    H2 9569   6.688   4.069   1.711 -0.2526  0.9493  1.3829
 3210TIP3   OH2 9570   5.404   6.608   2.697  0.2499 -0.0047  0.0525
 3210TIP3    H1 9571   5.479   6.550   2.707 -0.2686 -0.8209 -0.6273
 3210TIP3    H2 9572   5.379   6.631   2.786  1.2441  0.2121  0.2881
 3211TIP3   OH2 9573   1.193   1.462   0.443 -0.1391  0.0307  0.2087
 3211TIP3    H1 9574   1.282   1.443   0.416  0.8087  2.4703  1.3065
 3211TIP3    H2 9575   1.170   1.391   0.503  1.0261 -0.6646 -0.1445
 3212TIP3   OH2 9576   0.610   0.810   0.896 -0.5691 -0.0722 -0.0226
 3212TIP3    H1 9577   0.656   0.726   0.895 -0.2428  0.0902 -1.2557
 3212TIP3    H2 9578   0.529   0.793   0.846 -0.6487  0.2667 -0.0112
 3213TIP3   OH2 9579   0.526   4.452   0.119 -0.1928 -0.0585 -0.3264
 3213TIP3    H1 9580   0.544   4.483   0.207 -0.2110  0.4201 -0.4885
 3213TIP3    H2 9581   0.568   4.366   0.114  0.6335  0.3300 -0.1668
 3214TIP3   OH2 9582   0.248   7.125   6.093 -0.0829 -0.1857  0.4438
 3214TIP3    H1 9583   0.178   7.161   6.147 -0.7145 -0.1869 -0.3518
 3214TIP3    H2 9584   0.291   7.060   6.149 -0.5699 -0.0171  1.0195
 3215TIP3   OH2 9585   2.462   6.795   1.803 -0.1328 -0.0468 -0.3795
 3215TIP3    H1 9586   2.420   6.870   1.762 -1.8882 -0.3176  0.7954
 3215TIP3    H2 9587   2.391   6.750   1.849  1.4254 -0.6557  1.5724
 3216TIP3   OH2 9588   3.524   4.817   5.398 -0.5403 -0.1410 -0.3865
 3216TIP3    H1 9589   3.603   4.801   5.346 -0.0250 -0.7630  0.5618
 3216TIP3    H2 9590   3.539   4.770   5.480 -2.7555 -2.0734 -0.9539
 3217TIP3   OH2 9591   5.146   5.524   3.366 -0.1907 -0.5173 -0.2713
 3217TIP3    H1 9592   5.108   5.536   3.453 -0.8293  0.1973 -0.6303
 3217TIP3    H2 9593   5.071   5.505   3.309  0.1438 -0.4006 -0.7625
 3218TIP3   OH2 9594   7.378   3.598   5.174 -0.3965  0.1038 -0.0272
 3218TIP3    H1 9595   7.439   3.627   5.242 -0.8386  1.1520 -0.0504
 3218TIP3    H2 9596   7.322   3.534   5.217 -0.0374  0.0184  0.3189
 3219TIP3   OH2 9597   3.476   3.769   0.104 -0.4032 -0.3801  0.1032
 3219TIP3    H1 9598   3.431   3.686   0.091  0.8361 -1.1419  0.4944
 3219TIP3    H2 9599   3.568   3.750   0.085 -0.4544  1.6232 -2.8757
 3220TIP3   OH2 9600   4.189   7.435   1.268 -0.5331 -0.2811  0.0921
 3220TIP3    H1 9601   4.244   7.514   1.259 -0.0367 -0.7665 -1.3482
 3220TIP3    H2 9602   4.237   7.380   1.330 -0.9237  0.5569  1.1766
 3221TIP3   OH2 9603   2.108   1.625   2.404 -0.3717 -0.6022  0.2153
 3221TIP3    H1 9604   2.187   1.674   2.426 -0.5789 -0.5512  0.8630
 3221TIP3    H2 9605   2.113   1.612   2.309  0.8272 -1.3121  0.3606
 3222TIP3   OH2 9606   4.614   5.060   3.750 -0.1599  0.5499 -0.2983
 3222TIP3    H1 9607   4.696   5.108   3.762  0.9371 -1.6465  1.6827
 3222TIP3    H2 9608   4.558   5.091   3.821 -0.6147  1.1130 -0.8875
 3223TIP3   OH2 9609   8.265   5.391   0.462 -0.1660 -0.1497 -0.3206
 3223TIP3    H1 9610   8.229   5.303   0.465  0.5690 -0.4343  0.9355
 3223TIP3    H2 9611   8.196   5.447   0.498  0.5708 -0.7067  2.2086
 3224TIP3   OH2 9612   3.878   4.212   3.458 -0.2725 -0.3639  0.1135
 3224TIP3    H1 9613   3.896   4.163   3.377 -1.9758 -1.2300  0.2224
 3224TIP3    H2 9614   3.866   4.302   3.430 -1.8423 -0.8115 -0.7819
 3225TIP3   OH2 9615   7.493   7.156   4.295 -0.2237  0.9982  0.1677
 3225TIP3    H1 9616   7.466   7.155   4.387 -0.4072  2.4212  0.1433
 3225TIP3    H2 9617   7.450   7.233   4.258 -0.0808  0.4890 -1.0962
 3226TIP3   OH2 9618   2.626   7.428   2.536 -0.2082 -0.3967  0.4723
 3226TIP3    H1 9619   2.606   7.518   2.511  0.3358 -0.3933  0.0176
 3226TIP3    H2 9620   2.644   7.433   2.630  3.0240  0.6080 -0.0740
 3227TIP3   OH2 9621   8.117   2.259   5.831  0.2003  0.0927 -0.4282
 3227TIP3    H1 9622   8.207   2.228   5.825 -0.2240 -1.1470 -0.6879
 3227TIP3    H2 9623   8.064   2.181   5.814 -0.9190  1.0755 -1.5833
 3228TIP3   OH2 9624   1.662   7.424   2.964  0.1587 -0.5788  0.1193
 3228TIP3    H1 9625   1.591   7.397   3.022 -0.1351  0.6083  0.3405
 3228TIP3    H2 9626   1.627   7.498   2.915  1.2612  0.0766  0.2780
 3229TIP3   OH2 9627   0.603   4.617   3.648 -0.4107 -0.7955  0.7577
 3229TIP3    H1 9628   0.650   4.675   3.589  0.4885  0.1069  2.2760
 3229TIP3    H2 9629   0.525   4.666   3.673 -0.8362 -1.2120  0.2615
 3230TIP3   OH2 9630   0.197   6.745   1.303 -0.3797  0.2587  0.1241
 3230TIP3    H1 9631   0.223   6.727   1.212  0.4035  3.3691 -0.3634
 3230TIP3    H2 9632   0.142   6.670   1.326  0.2286 -1.1612 -2.5364
 3231TIP3   OH2 9633   0.014   6.559   1.428 -0.0740 -0.4178  0.1102
 3231TIP3    H1 9634   0.012   6.539   1.521 -0.6833 -0.0110  0.1899
 3231TIP3    H2 9635  -0.018   6.479   1.386 -1.6011  0.0287  0.3720
 3232TIP3   OH2 9636   5.169   5.582   2.592  0.4935 -0.1930 -0.1609
 3232TIP3    H1 9637   5.226   5.568   2.668  2.1890 -0.9129 -1.4992
 3232TIP3    H2 9638   5.183   5.673   2.567  1.5740 -0.5290 -0.8471
 3233TIP3   OH2 9639   2.169   4.210   0.983  0.5107 -0.5012  0.2303
 3233TIP3    H1 9640   2.258   4.241   0.967  0.3986 -0.5522 -0.5335
 3233TIP3    H2 9641   2.152   4.148   0.911  1.1073 -3.1758  2.2206
 3234TIP3   OH2 9642   7.427   5.817   4.064  0.0820  0.2965  0.5464
 3234TIP3    H1 9643   7.454   5.868   4.140 -0.4613  0.4043  0.6763
 3234TIP3    H2 9644   7.370   5.877   4.015  0.0096  0.0523  0.3336
 3235TIP3   OH2 9645   4.712   5.566   2.447 -0.2780  0.3962  0.1205
 3235TIP3    H1 9646   4.695   5.505   2.376  0.8045  0.5620 -0.3113
 3235TIP3    H2 9647   4.799   5.602   2.427 -0.3345  1.1002  1.0567
 3236TIP3   OH2 9648   0.429   6.992   3.541  0.3973 -0.4428 -0.3338
 3236TIP3    H1 9649   0.423   6.929   3.612  0.9639 -1.1562 -0.9043
 3236TIP3    H2 9650   0.471   6.944   3.469  1.4983  0.7696 -0.5487
 3237TIP3   OH2 9651   8.352   6.424   2.444  0.0152 -0.5004  0.1681
 3237TIP3    H1 9652   8.429   6.461   2.487 -0.9952  0.9140  0.8838
 3237TIP3    H2 9653   8.386   6.363   2.380  1.7394  0.3015  0.2756
 3238TIP3   OH2 9654   0.451   3.515   4.123 -0.3114  0.1439  0.0891
 3238TIP3    H1 9655   0.522   3.497   4.185  0.7715  0.2880 -1.0859
 3238TIP3    H2 9656   0.464   3.606   4.097 -0.8803  0.1449 -0.2039
 3239TIP3   OH2 9657   3.354   7.811  -0.005  0.1933 -0.1270  0.2840
 3239TIP3    H1 9658   3.284   7.833   0.058  1.3685 -0.7744  1.8933
 3239TIP3    H2 9659   3.433   7.844   0.036  1.0356 -0.8168 -0.7499
 3240TIP3   OH2 9660   5.266   7.746   4.840  0.0287 -0.2171  0.9975
 3240TIP3    H1 9661   5.236   7.658   4.862  0.1228 -0.8413 -1.1144
 3240TIP3    H2 9662   5.358   7.735   4.816  0.3945  0.6912  1.9214
 3241TIP3   OH2 9663   2.474   6.786  -0.030 -0.1729  0.6191  0.1905
 3241TIP3    H1 9664   2.514   6.870  -0.009 -1.5205  1.1447  0.7670
 3241TIP3    H2 9665   2.492   6.731   0.046 -0.8373  0.9754  0.6196
 3242TIP3   OH2 9666   1.442   0.520   4.021  0.2915  0.2734  0.0885
 3242TIP3    H1 9667   1.521   0.507   4.074 -1.1724 -2.6471  1.8800
 3242TIP3    H2 9668   1.455   0.463   3.945  0.6124  1.1395 -0.5112
 3243TIP3   OH2 9669   6.279   2.985   1.592  0.0449 -0.2909 -0.0701
 3243TIP3    H1 9670   6.306   2.895   1.613 -0.4017 -0.8977 -1.8749
 3243TIP3    H2 9671   6.285   2.990   1.497 -1.6922  1.0065 -0.1743
 3244TIP3   OH2 9672   4.131   6.686   2.193 -0.2842  0.5552 -0.1121
 3244TIP3    H1 9673   4.106   6.631   2.119 -1.3887 -0.6613  1.0782
 3244TIP3    H2 9674   4.101   6.637   2.270  1.7028  1.2813  1.2119
 3245TIP3   OH2 9675   6.024   3.316   1.423 -0.6096  0.0424  1.2621
 3245TIP3    H1 9676   6.012   3.232   1.469  0.3774 -1.1459 -0.5189
 3245TIP3    H2 9677   6.109   3.348   1.454 -0.4664 -0.1843  1.1054
 3246TIP3   OH2 9678   3.483   4.910   6.724  0.4881  0.1447 -0.2529
 3246TIP3    H1 9679   3.484   4.901   6.629 -1.3544  0.9403 -0.4031
 3246TIP3    H2 9680   3.551   4.974   6.743  1.1828 -0.3684 -0.9875
 3247TIP3   OH2 9681   7.654   1.613   1.815 -0.1460  0.0615 -0.1097
 3247TIP3    H1 9682   7.727   1.553   1.799  0.2690  0.3685  0.5914
 3247TIP3    H2 9683   7.619   1.586   1.900 -2.1382 -1.3659 -1.2859
 3248TIP3   OH2 9684   0.696   4.557   0.744 -0.1743 -0.2624 -0.0483
 3248TIP3    H1 9685   0.749   4.550   0.665 -1.4079  0.9979 -1.0268
 3248TIP3    H2 9686   0.755   4.531   0.815  0.7613 -2.0870 -1.4130
 3249TIP3   OH2 9687   3.817   3.122   5.181 -0.0094  0.1086 -1.0155
 3249TIP3    H1 9688   3.845   3.203   5.138  0.6689 -0.2138 -1.1889
 3249TIP3    H2 9689   3.891   3.098   5.237 -0.0996 -0.5256 -1.1609
 3250TIP3   OH2 9690   5.264   5.177   4.964  0.2825 -0.0223  0.5236
 3250TIP3    H1 9691   5.301   5.173   4.876  0.2712  0.0661  0.5149
 3250TIP3    H2 9692   5.308   5.106   5.011 -0.3874 -0.6574  0.1985
 3251TIP3   OH2 9693   8.113   4.266   1.478 -1.0236 -0.2457  0.6512
 3251TIP3    H1 9694   8.108   4.330   1.549  0.1647  0.0017  0.5406
 3251TIP3    H2 9695   8.198   4.283   1.437 -1.6317 -0.4693 -0.7626
 3252TIP3   OH2 9696   4.440   0.111   1.920 -0.0373 -0.0992  0.2980
 3252TIP3    H1 9697   4.381   0.159   1.979 -0.6004 -1.1972  0.6613
 3252TIP3    H2 9698   4.509   0.078   1.977  1.5450  2.0236 -0.2778
 3253TIP3   OH2 9699   6.105   6.398   1.285  0.2256  0.3803  0.8135
 3253TIP3    H1 9700   6.198   6.382   1.269  0.2751  0.3771  1.0946
 3253TIP3    H2 9701   6.076   6.323   1.337 -0.4299 -0.6793 -1.0001
 3254TIP3   OH2 9702   7.799   1.163   1.349 -0.6291  0.0415 -0.2952
 3254TIP3    H1 9703   7.711   1.178   1.384 -0.5868  0.2763 -0.2913
 3254TIP3    H2 9704   7.812   1.233   1.285 -0.6919 -0.3710 -0.7653
 3255TIP3   OH2 9705   0.549   3.887   5.936  0.0675  0.3874  0.8046
 3255TIP3    H1 9706   0.454   3.883   5.927  0.1568  0.8788 -0.7610
 3255TIP3    H2 9707   0.579   3.799   5.915 -0.0052  0.4501  0.4200
 3256TIP3   OH2 9708   3.412   6.970   2.081  0.0448 -0.6154  0.0952
 3256TIP3    H1 9709   3.357   7.013   2.146  0.9207 -0.1416  0.5431
 3256TIP3    H2 9710   3.501   6.981   2.114  0.5924  0.3487 -1.5709
 3257TIP3   OH2 9711   5.372   3.450   0.601 -0.2257  0.2598 -0.3681
 3257TIP3    H1 9712   5.302   3.515   0.597 -0.3758  0.2108  0.8888
 3257TIP3    H2 9713   5.337   3.381   0.658  0.8979  0.3398  0.4693
 3258TIP3   OH2 9714   3.321   4.506   0.860  0.2701  0.2490 -0.3292
 3258TIP3    H1 9715   3.273   4.444   0.915 -0.1042  0.1163 -0.7982
 3258TIP3    H2 9716   3.258   4.532   0.792  1.1234 -0.6006 -1.4821
 3259TIP3   OH2 9717   1.801   3.042   1.189  0.1238  0.1888 -0.1368
 3259TIP3    H1 9718   1.828   3.069   1.101 -1.8320 -1.4480 -1.3317
 3259TIP3    H2 9719   1.744   3.113   1.219  0.2632  0.4471 -0.4685
 3260TIP3   OH2 9720   6.818   3.677   3.040 -0.4145 -0.0844 -0.1138
 3260TIP3    H1 9721   6.760   3.751   3.021 -2.0781 -1.3194 -0.0924
 3260TIP3    H2 9722   6.906   3.711   3.024 -1.0002  2.3044  1.2194
 3261TIP3   OH2 9723   5.241   5.400   1.935 -0.1420 -0.2555 -0.0559
 3261TIP3    H1 9724   5.327   5.410   1.974 -0.8988 -0.0928  1.6453
 3261TIP3    H2 9725   5.206   5.320   1.975 -0.7769 -0.3491 -0.7662
 3262TIP3   OH2 9726   2.394   4.236   4.753  0.2969  0.2410  0.0955
 3262TIP3    H1 9727   2.374   4.240   4.660  0.5578  2.6631  0.0861
 3262TIP3    H2 9728   2.485   4.205   4.756 -0.3321 -1.8064 -0.2966
 3263TIP3   OH2 9729   1.092   1.180   3.516  0.0789 -0.3439 -0.2761
 3263TIP3    H1 9730   1.060   1.099   3.475 -3.0711  0.3089  0.5960
 3263TIP3    H2 9731   1.119   1.153   3.603  0.4171 -0.6786 -0.4804
 3264TIP3   OH2 9732   3.371   2.280   1.905 -0.3322  0.6407  0.8251
 3264TIP3    H1 9733   3.379   2.366   1.946  1.4533  0.7233  0.3726
 3264TIP3    H2 9734   3.277   2.271   1.887 -0.6229  2.2441  1.3659
 3265TIP3   OH2 9735   7.894   3.348   3.647  0.0117  0.1220 -0.1976
 3265TIP3    H1 9736   7.928   3.437   3.655 -0.5018  0.3189 -0.1698
 3265TIP3    H2 9737   7.838   3.336   3.724 -0.3808 -0.0109 -0.4979
 3266TIP3   OH2 9738   8.130   2.189   3.271 -0.4382 -0.1375  0.3622
 3266TIP3    H1 9739   8.048   2.173   3.224 -0.9460  0.9148  0.8640
 3266TIP3    H2 9740   8.195   2.136   3.224 -1.4887 -1.4150  0.2772
 3267TIP3   OH2 9741   5.951   0.461   3.451 -0.3107  0.2127 -0.3432
 3267TIP3    H1 9742   5.889   0.525   3.485 -1.6248 -0.9892 -0.3556
 3267TIP3    H2 9743   5.908   0.376   3.467  0.6979 -0.5764 -1.6576
 3268TIP3   OH2 9744   6.289   3.432   6.793 -0.7685 -0.0766 -0.5729
 3268TIP3    H1 9745   6.361   3.373   6.773 -0.3645 -0.0887  0.8204
 3268TIP3    H2 9746   6.318   3.480   6.871 -2.2283 -0.0282 -0.0287
 3269TIP3   OH2 9747   7.937   5.052   1.631 -0.4401 -0.0630 -0.1599
 3269TIP3    H1 9748   7.882   5.078   1.705  0.7208 -0.8003  0.9995
 3269TIP3    H2 9749   7.979   4.971   1.659  1.4830  0.6249 -0.8602
 3270TIP3   OH2 9750   2.768   7.781   4.567 -0.3094 -0.5047  0.2146
 3270TIP3    H1 9751   2.747   7.702   4.517  1.1739 -0.7316 -0.0830
 3270TIP3    H2 9752   2.770   7.850   4.502  3.4687 -1.0934 -0.4962
 3271TIP3   OH2 9753   1.553   1.401   4.790  0.1862 -0.5471  0.5629
 3271TIP3    H1 9754   1.526   1.492   4.779 -0.1857 -0.4309  2.1408
 3271TIP3    H2 9755   1.558   1.389   4.885  0.8868 -1.9880  0.3754
 3272TIP3   OH2 9756   7.143   2.495   5.114 -0.4929  0.5083 -0.2236
 3272TIP3    H1 9757   7.227   2.497   5.070 -0.0498 -0.3220  0.5518
 3272TIP3    H2 9758   7.106   2.409   5.093 -0.6482  0.4352  0.3300
 3273TIP3   OH2 9759   1.779   2.803   1.802  0.2683  0.1270  0.3327
 3273TIP3    H1 9760   1.759   2.883   1.754 -1.1542 -0.7332 -0.5887
 3273TIP3    H2 9761   1.840   2.756   1.745 -1.6517 -1.0312 -0.8509
 3274TIP3   OH2 9762   0.388   1.167   1.755 -0.8959 -0.1152  0.6135
 3274TIP3    H1 9763   0.450   1.101   1.725 -0.6959  0.2866  0.1318
 3274TIP3    H2 9764   0.304   1.140   1.718 -0.5458  0.7132 -0.8820
 3275TIP3   OH2 9765   3.017   6.984   4.496  0.0811  0.2400  0.1359
 3275TIP3    H1 9766   3.031   7.053   4.561  2.1334  0.1027 -0.1122
 3275TIP3    H2 9767   2.947   6.930   4.534  0.8574  0.4654  1.9937
 3276TIP3   OH2 9768   2.899   6.694   2.041  0.1920 -0.1207  0.0283
 3276TIP3    H1 9769   2.973   6.634   2.044  2.2065  1.8944 -2.8316
 3276TIP3    H2 9770   2.923   6.765   2.101 -1.7342 -1.5548  2.6681
 3277TIP3   OH2 9771   3.320   1.060   3.929 -0.4172  0.4085  0.1227
 3277TIP3    H1 9772   3.257   1.039   3.859 -0.5251 -1.7585  0.7828
 3277TIP3    H2 9773   3.266   1.073   4.006 -0.1542 -0.2314  0.4254
 3278TIP3   OH2 9774   0.404   6.231   4.864 -0.4607  0.3775 -0.1452
 3278TIP3    H1 9775   0.353   6.256   4.786 -0.2008 -0.0632 -0.4627
 3278TIP3    H2 9776   0.343   6.243   4.937 -0.9559  0.0708 -0.4974
 3279TIP3   OH2 9777   7.987   2.730   6.561  0.3331 -0.1438  0.0955
 3279TIP3    H1 9778   7.989   2.759   6.652  4.1551  1.8672 -0.3963
 3279TIP3    H2 9779   7.950   2.804   6.513  0.6217 -0.1928 -0.2070
 3280TIP3   OH2 9780   0.261   5.872   4.734 -0.4779 -0.2713 -0.0874
 3280TIP3    H1 9781   0.245   5.791   4.686  1.1174 -0.9013  0.3748
 3280TIP3    H2 9782   0.356   5.875   4.745 -0.6843  0.4039  2.0310
 3281TIP3   OH2 9783   7.306   1.393   6.552 -0.1031  0.3423  0.2198
 3281TIP3    H1 9784   7.398   1.419   6.563 -0.5780  2.9427 -1.0320
 3281TIP3    H2 9785   7.291   1.400   6.457 -1.5260 -0.2970  0.3809
 3282TIP3   OH2 9786   4.776   2.481   5.154 -0.0341  0.2179  0.2849
 3282TIP3    H1 9787   4.806   2.542   5.222  0.4409  0.2205  0.0761
 3282TIP3    H2 9788   4.834   2.498   5.080  0.3629 -0.7682  0.3636
 3283TIP3   OH2 9789   7.656   3.796   3.902 -0.1388  0.2985 -0.1276
 3283TIP3    H1 9790   7.602   3.737   3.955  0.7751  0.6361  1.2392
 3283TIP3    H2 9791   7.593   3.845   3.849 -0.9773 -1.1784 -0.5396
 3284TIP3   OH2 9792   0.673   4.717   0.291 -0.4695 -0.2139 -0.3781
 3284TIP3    H1 9793   0.628   4.716   0.375 -2.2975 -1.5441 -1.3067
 3284TIP3    H2 9794   0.740   4.649   0.298  0.5950  0.8897  0.5657
 3285TIP3   OH2 9795   5.873   4.130   3.049  0.1024 -0.5405 -0.3047
 3285TIP3    H1 9796   5.925   4.052   3.031  0.8879 -0.2317  0.5589
 3285TIP3    H2 9797   5.925   4.203   3.013  0.0217 -0.2852  0.0863
 3286TIP3   OH2 9798   2.468   0.409   5.735 -0.3644 -0.9500 -0.3169
 3286TIP3    H1 9799   2.409   0.334   5.731 -3.0568  1.1195 -2.3645
 3286TIP3    H2 9800   2.551   0.376   5.700 -0.7289 -3.4918  0.9887
 3287TIP3   OH2 9801   4.373   0.653   1.319  0.2054  0.4196  0.0914
 3287TIP3    H1 9802   4.388   0.721   1.254 -0.2106  1.0435  0.6292
 3287TIP3    H2 9803   4.342   0.700   1.396 -0.0319 -0.3756  0.4959
 3288TIP3   OH2 9804   6.149   7.555   1.748  0.2449  0.0068  0.0388
 3288TIP3    H1 9805   6.063   7.590   1.724  0.8813  1.3211 -0.4041
 3288TIP3    H2 9806   6.142   7.461   1.730 -1.5636 -0.1677  1.4352
 3289TIP3   OH2 9807   3.704   1.045   4.721  0.0146 -0.1851  0.2804
 3289TIP3    H1 9808   3.672   1.038   4.812 -0.8953  0.2278  0.0116
 3289TIP3    H2 9809   3.708   0.955   4.690 -1.1441 -0.2394  0.2535
 3290TIP3   OH2 9810   3.037   7.241   3.431 -0.3930 -0.3653 -0.0395
 3290TIP3    H1 9811   3.095   7.263   3.504 -1.2164  1.8416  0.0255
 3290TIP3    H2 9812   3.096   7.213   3.361  0.6859  0.7288  0.3954
 3291TIP3   OH2 9813   5.447   7.027   0.518 -0.8866  0.3173 -0.2770
 3291TIP3    H1 9814   5.493   6.947   0.494 -1.4076  0.2623 -1.1164
 3291TIP3    H2 9815   5.404   7.006   0.602  1.2538  0.6382  0.9748
 3292TIP3   OH2 9816   3.162   3.009   1.011  0.1068 -0.6245 -0.0270
 3292TIP3    H1 9817   3.101   2.935   1.007 -0.3116 -0.2934  0.0875
 3292TIP3    H2 9818   3.170   3.038   0.920  1.6578 -1.9041 -0.3296
 3293TIP3   OH2 9819   2.429   4.919   0.885 -0.0543 -0.3411 -0.2634
 3293TIP3    H1 9820   2.387   4.989   0.936 -0.9680 -0.7565 -0.4203
 3293TIP3    H2 9821   2.441   4.848   0.948  3.1462  0.7525  0.5478
 3294TIP3   OH2 9822   1.355   3.970   2.564  0.4085  0.1604  0.4249
 3294TIP3    H1 9823   1.287   4.034   2.545  0.0768  0.3571  2.1521
 3294TIP3    H2 9824   1.431   4.022   2.589  0.9592 -0.0805 -0.6945
 3295TIP3   OH2 9825   4.131   1.338   2.338 -0.0513  0.1906  0.1624
 3295TIP3    H1 9826   4.065   1.318   2.272  0.5660 -0.0503 -0.3862
 3295TIP3    H2 9827   4.201   1.275   2.323 -0.4608 -0.7315  1.8864
 3296TIP3   OH2 9828   3.999   7.922   4.880 -0.1363 -0.5575  0.2456
 3296TIP3    H1 9829   4.042   7.858   4.824  0.0191  0.0058 -0.2853
 3296TIP3    H2 9830   4.014   7.889   4.969  1.0912 -0.5623  0.0594
 3297TIP3   OH2 9831   2.095   5.374   6.739 -0.1261 -0.0311 -0.2751
 3297TIP3    H1 9832   2.105   5.416   6.825 -3.1362 -0.2813  0.2982
 3297TIP3    H2 9833   2.092   5.446   6.677 -1.2759  0.4060  0.2580
 3298TIP3   OH2 9834   8.346   0.878   4.700  0.0830 -0.3520 -0.2817
 3298TIP3    H1 9835   8.424   0.832   4.670  2.0390  2.2118  0.4402
 3298TIP3    H2 9836   8.340   0.954   4.642  0.2832  1.3579  1.8054
 3299TIP3   OH2 9837   3.059   3.402   5.418 -0.1829 -0.0227  0.0470
 3299TIP3    H1 9838   3.074   3.483   5.370  0.3049  0.3377  0.8030
 3299TIP3    H2 9839   2.966   3.384   5.406  0.1817 -0.7298 -2.2483
 3300TIP3   OH2 9840   3.925   6.366   2.048 -0.5452 -0.3781 -0.0744
 3300TIP3    H1 9841   3.862   6.381   1.978 -0.3223  3.6678  0.3618
 3300TIP3    H2 9842   4.008   6.353   2.002 -0.7554  0.0397 -0.5856
 3301TIP3   OH2 9843   7.053   2.851   6.044  0.2918  0.3816  0.1678
 3301TIP3    H1 9844   6.973   2.884   6.085  0.4653  0.8360  0.1395
 3301TIP3    H2 9845   7.023   2.816   5.960 -0.2425 -1.5248  1.0875
 3302TIP3   OH2 9846   7.798   3.318   6.324 -0.2106 -0.0311  0.3524
 3302TIP3    H1 9847   7.868   3.382   6.337 -0.0696 -0.2804  0.8468
 3302TIP3    H2 9848   7.736   3.362   6.267  0.9450 -0.2585 -1.1388
 3303TIP3   OH2 9849   3.169   2.347   0.705 -0.0700 -0.4126  0.0560
 3303TIP3    H1 9850   3.249   2.360   0.653 -1.4883 -0.5696 -2.3292
 3303TIP3    H2 9851   3.114   2.291   0.650 -2.4249  0.9239  0.9068
 3304TIP3   OH2 9852   6.529   2.296   0.754  0.5236 -0.3300  0.5826
 3304TIP3    H1 9853   6.494   2.217   0.713  2.2069 -0.5692 -0.4803
 3304TIP3    H2 9854   6.618   2.273   0.779  0.6309  0.8620  1.3869
 3305TIP3   OH2 9855   2.286   6.806   3.493  0.7195 -0.0333  0.6621
 3305TIP3    H1 9856   2.373   6.776   3.468  0.3123 -0.8794  0.2230
 3305TIP3    H2 9857   2.276   6.778   3.584  1.8224  2.1889  1.5298
 3306TIP3   OH2 9858   1.897   0.111   5.242 -0.2253 -0.0210 -0.0381
 3306TIP3    H1 9859   1.927   0.047   5.306  0.6159 -0.5234 -0.9184
 3306TIP3    H2 9860   1.806   0.087   5.225 -0.2180 -0.3625  0.3804
 3307TIP3   OH2 9861   6.788   4.587   4.953 -0.1567  0.1046  0.5660
 3307TIP3    H1 9862   6.792   4.683   4.954 -3.6108  0.3916 -0.8329
 3307TIP3    H2 9863   6.790   4.562   5.045 -0.8703  1.6572  1.0305
 3308TIP3   OH2 9864   4.399   6.584   2.762 -0.1643 -0.4413 -0.0038
 3308TIP3    H1 9865   4.336   6.637   2.810 -0.9925 -1.2544 -0.1639
 3308TIP3    H2 9866   4.362   6.496   2.762  0.2330 -0.6392 -1.3788
 3309TIP3   OH2 9867   5.740   2.587   6.615 -0.3788 -0.3958  0.4418
 3309TIP3    H1 9868   5.660   2.591   6.563 -0.9817 -1.5452  1.2300
 3309TIP3    H2 9869   5.785   2.508   6.583  0.2178 -0.0067  0.3120
 3310TIP3   OH2 9870   0.765   5.259   3.447 -0.0582  0.2349 -0.9128
 3310TIP3    H1 9871   0.775   5.165   3.436 -0.3302  0.2113 -0.9642
 3310TIP3    H2 9872   0.843   5.296   3.405 -0.0614  0.0454 -1.0884
 3311TIP3   OH2 9873   4.422   1.377   4.990 -0.1025  0.2645  0.6477
 3311TIP3    H1 9874   4.412   1.385   4.895 -2.7685 -0.4720  0.7810
 3311TIP3    H2 9875   4.508   1.414   5.008  0.5188  0.3664 -2.0490
 3312TIP3   OH2 9876   4.508   4.001   4.653  0.6756 -0.0317  0.1823
 3312TIP3    H1 9877   4.511   3.924   4.710 -0.5044  0.5673  1.1025
 3312TIP3    H2 9878   4.416   4.028   4.653  0.9959  1.1529 -0.4159
 3313TIP3   OH2 9879   7.813   4.678   3.471  0.6943  0.6129  0.1699
 3313TIP3    H1 9880   7.848   4.611   3.530  0.5367  0.6977  0.3603
 3313TIP3    H2 9881   7.865   4.669   3.391  0.9466  0.5364  0.3423
 3314TIP3   OH2 9882   7.917   4.105   0.383 -0.1215 -0.0178  0.9517
 3314TIP3    H1 9883   8.003   4.069   0.360  0.3105 -0.6076  3.2110
 3314TIP3    H2 9884   7.867   4.102   0.301  1.9928  0.3985 -0.4537
 3315TIP3   OH2 9885   5.262   7.389   1.241 -0.3200 -0.2516 -0.0882
 3315TIP3    H1 9886   5.185   7.370   1.295 -0.3557 -1.5602 -0.5722
 3315TIP3    H2 9887   5.310   7.455   1.291 -0.6313 -1.0229  1.2813
 3316TIP3   OH2 9888   3.912   4.510   6.819 -0.6155 -0.2611  0.9058
 3316TIP3    H1 9889   3.879   4.487   6.906  0.7906 -1.0726  1.2429
 3316TIP3    H2 9890   3.965   4.588   6.833  0.3980 -0.9388  0.9640
 3317TIP3   OH2 9891   3.500   4.338   6.881 -0.0396 -0.0435 -0.1787
 3317TIP3    H1 9892   3.512   4.430   6.856  0.5153 -0.7447 -2.8379
 3317TIP3    H2 9893   3.437   4.304   6.817 -0.0246 -1.5946  0.5889
 3318TIP3   OH2 9894   1.732   2.514   6.467 -0.3034  0.0517  0.5638
 3318TIP3    H1 9895   1.665   2.553   6.411  0.1410 -1.4546 -1.0965
 3318TIP3    H2 9896   1.688   2.501   6.551 -0.4648  4.0953  1.3261
 3319TIP3   OH2 9897   6.622   2.645   3.074 -0.6112  0.5679 -0.2980
 3319TIP3    H1 9898   6.678   2.687   3.140 -0.4833 -0.5181  0.3207
 3319TIP3    H2 9899   6.680   2.584   3.029 -1.3392 -0.8850  0.6343
 3320TIP3   OH2 9900   3.769   3.274   2.254  0.0347  0.3554 -0.0241
 3320TIP3    H1 9901   3.701   3.333   2.221 -0.5657  1.2947  2.6324
 3320TIP3    H2 9902   3.724   3.191   2.268 -0.7981  1.0789  2.0976
 3321TIP3   OH2 9903   7.799   3.310   0.381  0.2600 -0.8068  0.0771
 3321TIP3    H1 9904   7.799   3.347   0.292 -0.3660  1.7975  1.0493
 3321TIP3    H2 9905   7.892   3.300   0.402  0.4431 -0.4980 -0.5442
 3322TIP3   OH2 9906   0.506   0.212   5.850  0.3316 -0.2767  0.2818
 3322TIP3    H1 9907   0.581   0.243   5.902  0.6339  0.6951 -0.7179
 3322TIP3    H2 9908   0.433   0.267   5.877  0.2154 -0.5202  0.4770
 3323TIP3   OH2 9909   4.179   0.040   1.489 -0.0681 -0.0273  0.4054
 3323TIP3    H1 9910   4.153   0.129   1.514 -0.9568 -0.6816  1.9651
 3323TIP3    H2 9911   4.151   0.032   1.398 -1.5026  0.7438  0.7474
 3324TIP3   OH2 9912   4.910   7.298   6.525 -0.7420 -0.5150  0.4115
 3324TIP3    H1 9913   4.860   7.217   6.526 -0.6364 -0.6005 -0.3679
 3324TIP3    H2 9914   4.952   7.299   6.439 -0.2899  0.0911  0.6324
 3325TIP3   OH2 9915   8.108   1.406   0.205  0.3941  0.7899  0.8303
 3325TIP3    H1 9916   8.156   1.386   0.285  1.2742  0.5240  0.2562
 3325TIP3    H2 9917   8.146   1.488   0.173  2.3008 -0.6802 -0.9568
 3326TIP3   OH2 9918   4.200   3.533   1.863 -0.1618 -0.6306  0.3509
 3326TIP3    H1 9919   4.265   3.469   1.832  0.3494  0.1352 -0.2027
 3326TIP3    H2 9920   4.206   3.529   1.958 -0.2519 -1.5176  0.3327
 3327TIP3   OH2 9921   5.390   3.942   1.487 -0.6834 -0.2117 -0.7888
 3327TIP3    H1 9922   5.485   3.956   1.484 -0.5244 -1.0011  0.1079
 3327TIP3    H2 9923   5.367   3.918   1.397 -0.1988  0.8835 -1.2262
 3328TIP3   OH2 9924   5.673   1.833   1.886 -0.6521  0.2188  0.0032
 3328TIP3    H1 9925   5.729   1.904   1.919  3.1199 -1.1541 -2.7817
 3328TIP3    H2 9926   5.604   1.877   1.836  0.5686  1.9645 -0.2037
 3329TIP3   OH2 9927   5.862   5.658   5.458  0.0213 -0.2220  0.4731
 3329TIP3    H1 9928   5.863   5.749   5.429 -0.2274 -0.4968 -0.4505
 3329TIP3    H2 9929   5.858   5.663   5.553  0.2152  0.7289  0.4445
 3330TIP3   OH2 9930   5.039   3.814   5.693 -0.8403 -0.1053 -0.0832
 3330TIP3    H1 9931   5.040   3.724   5.660 -0.8871  0.2146 -0.9835
 3330TIP3    H2 9932   5.024   3.868   5.616  1.8107  0.8615 -0.0530
 3331TIP3   OH2 9933   5.058   3.721   4.432 -0.1674 -0.0329 -0.3521
 3331TIP3    H1 9934   5.139   3.747   4.389  0.5463  0.5165  1.2682
 3331TIP3    H2 9935   5.053   3.626   4.419  0.8942 -0.1190 -0.2288
 3332TIP3   OH2 9936   1.390   2.969   3.167 -0.0563  0.2766 -0.2307
 3332TIP3    H1 9937   1.380   2.890   3.220  0.2555  0.6370  0.3812
 3332TIP3    H2 9938   1.303   3.008   3.166 -0.2917 -0.2358 -0.8155
 3333TIP3   OH2 9939   3.585   6.764   6.645  0.1554 -0.0888 -0.1790
 3333TIP3    H1 9940   3.670   6.793   6.610  1.1338 -2.2965  0.2044
 3333TIP3    H2 9941   3.522   6.787   6.576  1.2368  0.4451 -1.0343
 3334TIP3   OH2 9942   4.432   0.831   4.811  0.0156  0.0359  0.1010
 3334TIP3    H1 9943   4.362   0.864   4.867  0.2206 -1.7089  1.4814
 3334TIP3    H2 9944   4.443   0.898   4.744 -0.9679  1.7226  1.5388
 3335TIP3   OH2 9945   6.052   6.667   3.820 -0.3185 -0.0616  0.0416
 3335TIP3    H1 9946   6.043   6.741   3.879 -0.7143 -0.1412  0.0814
 3335TIP3    H2 9947   6.142   6.637   3.833 -0.1389  0.4401 -0.0139
 3336TIP3   OH2 9948   0.899   1.591   4.634 -0.2674 -0.0939  0.1019
 3336TIP3    H1 9949   0.927   1.536   4.561  0.9535 -0.2434  0.6587
 3336TIP3    H2 9950   0.887   1.678   4.595  0.7851 -0.0753 -0.2169
 3337TIP3   OH2 9951   5.898   5.812   4.746 -0.1281 -0.0567  0.3670
 3337TIP3    H1 9952   5.923   5.860   4.825 -1.5672  3.4300 -1.1192
 3337TIP3    H2 9953   5.806   5.835   4.732 -0.4658 -2.1428 -1.3360
 3338TIP3   OH2 9954   3.633   2.458   4.472 -0.2159 -0.1393 -0.0728
 3338TIP3    H1 9955   3.623   2.454   4.567 -1.4443  0.1426 -0.1688
 3338TIP3    H2 9956   3.619   2.550   4.451  0.3693 -0.1449 -0.5073
 3339TIP3   OH2 9957   7.675   6.887   4.495  0.5800 -0.1137  0.0910
 3339TIP3    H1 9958   7.618   6.817   4.463  1.6560 -0.8996 -0.1558
 3339TIP3    H2 9959   7.677   6.874   4.590 -0.0944  0.2626  0.1574
 3340TIP3   OH2 9960   4.503   3.161   6.614 -0.1303  0.0017 -0.2825
 3340TIP3    H1 9961   4.456   3.125   6.689  1.2436  0.6112  0.9334
 3340TIP3    H2 9962   4.445   3.147   6.540 -1.6332 -0.4465  0.9230
 3341TIP3   OH2 9963   4.701   7.853   3.516 -0.0090  0.7689  0.1575
 3341TIP3    H1 9964   4.712   7.942   3.483 -1.2829  1.0804  0.5092
 3341TIP3    H2 9965   4.724   7.859   3.609  0.8860  0.5029 -0.0431
 3342TIP3   OH2 9966   7.711   1.988   5.286 -0.4683 -0.3035  0.3561
 3342TIP3    H1 9967   7.699   2.036   5.368 -0.3433  1.2984 -0.5259
 3342TIP3    H2 9968   7.805   1.968   5.284 -0.0866  1.4026 -0.2879
 3343TIP3   OH2 9969   4.049   6.573   1.182  0.1381  0.1458  0.1309
 3343TIP3    H1 9970   4.018   6.652   1.139 -1.8259 -0.5105  0.2561
 3343TIP3    H2 9971   4.034   6.503   1.118  0.4452 -0.3480  0.5853
 3344TIP3   OH2 9972   4.068   7.612   6.096  0.1415  0.2893  0.1207
 3344TIP3    H1 9973   4.005   7.684   6.098  0.8642  0.9808 -0.7908
 3344TIP3    H2 9974   4.109   7.618   6.009  0.8189 -0.6950  0.3507
 3345TIP3   OH2 9975   2.754   3.182   6.749  0.8833 -0.0700 -0.0631
 3345TIP3    H1 9976   2.727   3.090   6.751 -0.4471  0.2951  0.1022
 3345TIP3    H2 9977   2.841   3.181   6.710  0.4687 -1.3136 -1.0240
 3346TIP3   OH2 9978   3.838   5.132   6.249 -0.3842  0.0140  0.4983
 3346TIP3    H1 9979   3.871   5.045   6.229  0.9539  0.4041  0.8863
 3346TIP3    H2 9980   3.849   5.181   6.167 -1.4486 -0.2602  0.1818
 3347TIP3   OH2 9981   2.245   2.162   6.380 -0.0863 -0.3782  0.4723
 3347TIP3    H1 9982   2.164   2.156   6.330  1.1224 -2.9200 -1.4105
 3347TIP3    H2 9983   2.232   2.104   6.455 -0.6667  0.7714  1.2918
 3348TIP3   OH2 9984   5.004   3.327   0.543  0.3669  0.1665 -0.4015
 3348TIP3    H1 9985   5.078   3.388   0.537  1.2384 -0.6709  1.2299
 3348TIP3    H2 9986   5.045   3.241   0.548 -0.7244 -0.3154  0.5037
 3349TIP3   OH2 9987   1.263   0.766   4.106 -0.0004 -0.6329  0.3255
 3349TIP3    H1 9988   1.257   0.690   4.163  1.6835  0.6023  2.3070
 3349TIP3    H2 9989   1.315   0.736   4.031  1.0889 -1.3579  1.3225
 3350TIP3   OH2 9990   6.069   7.890   0.736  0.6558  0.2937  0.1537
 3350TIP3    H1 9991   6.139   7.839   0.695 -0.1090 -1.4320  0.8868
 3350TIP3    H2 9992   6.115   7.948   0.797  1.7241  2.1487 -2.2353
 3351TIP3   OH2 9993   7.300   5.234   1.425  0.8670 -0.5988 -0.0683
 3351TIP3    H1 9994   7.318   5.180   1.502  0.1576 -0.6850  0.0488
 3351TIP3    H2 9995   7.358   5.309   1.433 -0.8803  0.6374  1.8446
 3352TIP3   OH2 9996   3.634   3.931   0.946 -0.1869 -0.4485 -0.3635
 3352TIP3    H1 9997   3.728   3.919   0.951 -0.1661 -0.3561 -0.5289
 3352TIP3    H2 9998   3.612   3.912   0.855 -0.4021 -0.9819 -0.2059
 3353TIP3   OH2 9999   4.190   1.149   4.250 -0.3010 -0.0768 -0.4387
 3353TIP3    H110000   4.202   1.166   4.156  1.3670 -1.5205 -0.5460
 3353TIP3    H210001   4.274   1.112   4.278  0.2989  2.9374  2.2806
 3354TIP3   OH210002   5.827   1.117   5.394 -0.7171  0.1411  0.2500
 3354TIP3    H110003   5.778   1.180   5.342  0.8440 -0.3193 -1.9431
 3354TIP3    H210004   5.765   1.046   5.411 -1.8296  1.2231  0.7619
 3355TIP3   OH210005   4.589   2.281   5.064  0.3602  0.2731 -0.4344
 3355TIP3    H110006   4.617   2.360   5.017 -0.4424  0.3913 -0.7237
 3355TIP3    H210007   4.639   2.282   5.145  0.0606  1.3038 -0.2525
 3356TIP3   OH210008   1.664   3.293   3.798  0.0260 -0.3940  0.2030
 3356TIP3    H110009   1.720   3.317   3.724  1.8330 -2.4386  0.8161
 3356TIP3    H210010   1.575   3.298   3.764  0.7124  0.3985 -1.5772
 3357TIP3   OH210011   7.349   5.983   4.527  0.4454  0.1378 -0.1812
 3357TIP3    H110012   7.398   5.980   4.609  0.0805 -1.3717  0.0082
 3357TIP3    H210013   7.273   6.038   4.547 -0.5210 -1.5160  1.0499
 3358TIP3   OH210014   0.934   6.552   0.777  0.0117 -0.0921  0.2128
 3358TIP3    H110015   0.873   6.479   0.765  0.2513 -0.2963  0.2329
 3358TIP3    H210016   0.974   6.535   0.862  2.4567 -1.7100 -1.1564
 3359TIP3   OH210017   7.956   7.112   2.223 -0.2668  0.1289  0.0503
 3359TIP3    H110018   7.917   7.033   2.185  2.4550 -1.6329  0.5624
 3359TIP3    H210019   7.932   7.108   2.316 -0.6794  0.2521 -0.0521
 3360TIP3   OH210020   0.666   4.446   4.683  0.2679 -0.0511  0.2651
 3360TIP3    H110021   0.688   4.492   4.602  0.6295  0.8426  0.8394
 3360TIP3    H210022   0.738   4.468   4.742  0.2548 -1.0801  0.6841
 3361TIP3   OH210023   6.725   6.760   6.671  0.3142  0.1138 -0.0096
 3361TIP3    H110024   6.812   6.779   6.706  1.1372 -0.7969 -1.4415
 3361TIP3    H210025   6.742   6.710   6.591 -1.5640 -1.4550  0.4990
 3362TIP3   OH210026   0.476   2.519   0.112 -0.3513  0.3494  0.2753
 3362TIP3    H110027   0.493   2.559   0.026  0.9531 -0.0511  0.3257
 3362TIP3    H210028   0.480   2.592   0.174  0.9439  0.3339  0.2396
 3363TIP3   OH210029   3.872   7.121   3.074 -0.4132 -0.0833  0.3866
 3363TIP3    H110030   3.858   7.035   3.113 -0.4282  0.2746  1.1788
 3363TIP3    H210031   3.949   7.156   3.118 -0.0131  0.0520 -0.3905
 3364TIP3   OH210032   1.713   4.516   1.935  0.0629 -0.7378 -0.3944
 3364TIP3    H110033   1.628   4.542   1.898 -0.0012 -1.3047 -0.6536
 3364TIP3    H210034   1.731   4.430   1.896  1.2298 -0.1865 -1.1025
 3365TIP3   OH210035   1.760   6.848   3.822 -0.0840  0.0666  0.3863
 3365TIP3    H110036   1.675   6.820   3.855 -0.7993 -1.2167 -2.2482
 3365TIP3    H210037   1.742   6.884   3.735  1.5975  3.7264  1.3513
 3366TIP3   OH210038   7.919   2.876   3.319  0.1698  0.1603 -0.1187
 3366TIP3    H110039   7.938   2.784   3.338 -1.9473 -0.2871  0.1039
 3366TIP3    H210040   7.959   2.924   3.392  1.3710 -0.5668 -0.2859
 3367TIP3   OH210041   6.818   3.268   2.241 -0.6285  0.3130 -0.2381
 3367TIP3    H110042   6.756   3.226   2.182  1.2685 -0.4291 -1.8162
 3367TIP3    H210043   6.887   3.202   2.254  0.1415  1.3013  0.9575
 3368TIP3   OH210044   1.485   5.880   6.458 -0.1833 -0.6641 -0.9615
 3368TIP3    H110045   1.512   5.952   6.514  0.0169 -0.4646 -1.3125
 3368TIP3    H210046   1.545   5.883   6.383 -2.0359  0.6691 -2.4848
 3369TIP3   OH210047   6.020  -0.002   0.744 -0.3825  0.1976  0.5270
 3369TIP3    H110048   5.935  -0.046   0.740 -0.1198 -0.2265 -0.8517
 3369TIP3    H210049   6.011   0.061   0.815 -1.5766 -0.3961  0.9303
 3370TIP3   OH210050   3.160   6.014   2.430  0.2866  0.2204  0.2588
 3370TIP3    H110051   3.198   6.070   2.498  0.0881 -0.4742  0.9621
 3370TIP3    H210052   3.105   5.952   2.478 -0.0369 -0.1468 -0.5619
 3371TIP3   OH210053   2.918   6.803   3.386  0.3283  0.1112  0.0268
 3371TIP3    H110054   2.981   6.755   3.439  1.2661  0.4087 -0.7809
 3371TIP3    H210055   2.876   6.864   3.447 -0.6548 -1.4625  0.9978
 3372TIP3   OH210056   3.204   2.351   0.992 -0.0440 -0.4162 -0.5656
 3372TIP3    H110057   3.253   2.271   1.010  0.3767 -0.2424 -0.9285
 3372TIP3    H210058   3.169   2.339   0.904  0.7799  0.1782 -0.9785
 3373TIP3   OH210059   2.944   1.500   0.027 -0.1805  0.3000 -0.3479
 3373TIP3    H110060   2.926   1.460  -0.058 -0.8398 -0.1056 -0.0272
 3373TIP3    H210061   2.961   1.425   0.085  2.7941  0.6475 -0.6565
 3374TIP3   OH210062   5.589   2.508   2.940 -0.2237  0.1963  0.2277
 3374TIP3    H110063   5.671   2.479   2.980 -0.3614 -1.4882 -0.6222
 3374TIP3    H210064   5.531   2.431   2.945 -1.2594  0.9020 -0.4624
 3375TIP3   OH210065   5.386   6.754   4.964  0.0069 -0.2017  0.5703
 3375TIP3    H110066   5.355   6.808   4.891  0.0048  1.5861  1.8329
 3375TIP3    H210067   5.326   6.773   5.036 -0.5359 -2.6197  0.8534
 3376TIP3   OH210068   1.381   1.165   6.818 -0.2890  0.1337  0.5081
 3376TIP3    H110069   1.304   1.196   6.867 -0.9413 -2.2605  1.1546
 3376TIP3    H210070   1.350   1.086   6.774  1.4153 -0.0146 -0.4850
 3377TIP3   OH210071   0.336   4.102   2.857 -0.8412  0.3693  0.1339
 3377TIP3    H110072   0.390   4.076   2.932 -1.9420  0.2930  0.9348
 3377TIP3    H210073   0.339   4.026   2.798 -3.0428 -1.2436  1.8989
 3378TIP3   OH210074   6.652   0.646   5.374  0.2942 -0.2807  0.5371
 3378TIP3    H110075   6.707   0.723   5.389 -1.6969  1.7750 -1.8506
 3378TIP3    H210076   6.714   0.573   5.365  2.3561  1.3103  1.1459
 3379TIP3   OH210077   1.920   0.071   5.690 -0.4448 -0.2626  0.5617
 3379TIP3    H110078   2.012   0.056   5.670 -0.7749 -0.3905 -1.0450
 3379TIP3    H210079   1.874   0.003   5.641 -1.6066  2.1939 -2.0672
 3380TIP3   OH210080   0.085   4.034   0.702  0.7507 -0.3078 -0.3044
 3380TIP3    H110081  -0.001   4.059   0.667  0.0121 -0.0764  1.5250
 3380TIP3    H210082   0.138   4.113   0.694 -0.0530  0.4031  0.9166
 3381TIP3   OH210083   4.239   4.040  -0.010 -0.0677 -0.2478  0.2074
 3381TIP3    H110084   4.314   4.088   0.025 -0.6068 -0.4209  1.6916
 3381TIP3    H210085   4.207   3.988   0.064 -1.2608 -0.6640 -0.5633
 3382TIP3   OH210086   0.291   0.047   4.647 -0.3784 -0.3196 -0.8169
 3382TIP3    H110087   0.221   0.102   4.682 -0.4156 -0.4261 -0.7227
 3382TIP3    H210088   0.358   0.047   4.715 -0.8165 -1.2274 -0.3664
 3383TIP3   OH210089   7.444   1.298   2.418 -0.3593 -0.0148  0.2393
 3383TIP3    H110090   7.528   1.253   2.407  0.0682  0.7858  0.1618
 3383TIP3    H210091   7.459   1.387   2.385 -1.5919 -0.2020 -0.9683
 3384TIP3   OH210092   3.875   0.438   1.847  0.1517  0.0679  0.0431
 3384TIP3    H110093   3.788   0.435   1.806 -0.0608  0.2917  0.4649
 3384TIP3    H210094   3.859   0.480   1.932  0.7828  0.7285 -0.1580
 3385TIP3   OH210095   7.687   1.047   3.922  0.3716 -0.5506  0.1419
 3385TIP3    H110096   7.759   0.992   3.892  1.0691 -0.0233  0.7937
 3385TIP3    H210097   7.730   1.120   3.967 -0.4443  1.3674 -2.0051
 3386TIP3   OH210098   6.187   2.616   2.894 -0.4427 -0.1340 -0.6415
 3386TIP3    H110099   6.094   2.640   2.898 -0.5178 -0.3571 -0.9884
 3386TIP3    H210100   6.195   2.540   2.952 -0.4937 -0.1615 -0.6699
 3387TIP3   OH210101   4.310   2.677   1.412  0.0647 -0.3111  0.0109
 3387TIP3    H110102   4.262   2.748   1.455  0.6084 -0.0252  0.1501
 3387TIP3    H210103   4.248   2.604   1.410 -0.3402  0.0210  0.2839
 3388TIP3   OH210104   4.520   1.774   2.981 -0.1082  0.1765  0.0994
 3388TIP3    H110105   4.475   1.693   3.007  1.0396 -0.6025 -0.2671
 3388TIP3    H210106   4.462   1.844   3.011 -1.4650 -0.7802 -0.1891
 3389TIP3   OH210107   3.771   3.686   4.015 -0.0709 -0.4474  0.0898
 3389TIP3    H110108   3.720   3.649   4.087 -0.0066 -0.5320  0.0912
 3389TIP3    H210109   3.713   3.679   3.939 -0.2945  0.0127  0.2149
 3390TIP3   OH210110   1.041   3.998   3.901  0.0061  0.5726  0.2655
 3390TIP3    H110111   1.047   4.044   3.985 -0.9386 -0.3383  0.8523
 3390TIP3    H210112   0.970   3.936   3.913  0.5459 -0.2997 -0.8740
 3391TIP3   OH210113   7.371   0.750   0.872  0.2877  0.1134 -0.1576
 3391TIP3    H110114   7.455   0.708   0.855 -0.3119 -0.9442 -0.6444
 3391TIP3    H210115   7.306   0.682   0.852 -0.6889  0.9684  0.0140
 3392TIP3   OH210116   2.281   0.441   0.761  0.4551  0.4956 -0.2783
 3392TIP3    H110117   2.272   0.347   0.750  0.3003  0.4822 -0.0335
 3392TIP3    H210118   2.367   0.452   0.802  0.1267  0.4076  0.4361
 3393TIP3   OH210119   7.861   4.680   2.245  0.1350 -0.8703  0.0357
 3393TIP3    H110120   7.807   4.629   2.184  0.3722 -1.8898  0.6582
 3393TIP3    H210121   7.805   4.752   2.272  0.1260 -0.2127 -1.6132
 3394TIP3   OH210122   8.067   2.432   2.905  0.3492  0.2300 -0.6973
 3394TIP3    H110123   8.091   2.434   2.998  0.9747  0.3686 -0.8592
 3394TIP3    H210124   7.976   2.463   2.904  0.0739 -0.5150 -0.0557
 3395TIP3   OH210125   0.677   6.457   0.405 -0.6086  0.0096  0.6237
 3395TIP3    H110126   0.611   6.526   0.399 -0.9097 -0.3822 -0.9810
 3395TIP3    H210127   0.697   6.434   0.314 -0.8973 -2.3649  1.0987
 3396TIP3   OH210128   3.740   1.911   2.226  0.8944  0.4546 -0.3020
 3396TIP3    H110129   3.761   1.967   2.151 -0.3292  1.1145 -0.1719
 3396TIP3    H210130   3.707   1.970   2.293  0.4602 -0.3145  0.1862
 3397TIP3   OH210131   6.006   7.418   3.250  0.1641  0.0767  0.1475
 3397TIP3    H110132   6.048   7.332   3.237  0.2738  0.2263 -0.5283
 3397TIP3    H210133   5.974   7.415   3.340 -0.3492 -0.8991 -0.0443
 3398TIP3   OH210134   3.673   6.581   5.926  0.3716  0.1101  0.0335
 3398TIP3    H110135   3.763   6.600   5.901  0.6100 -1.6247 -0.5818
 3398TIP3    H210136   3.680   6.522   6.001 -0.1174 -2.4909 -1.8447
 3399TIP3   OH210137   3.420   2.082   3.347 -0.1638 -0.1873 -0.6470
 3399TIP3    H110138   3.450   2.026   3.275 -1.5631 -0.9004 -0.7040
 3399TIP3    H210139   3.418   2.024   3.423 -0.4792  0.0837 -0.4453
 3400TIP3   OH210140   3.251   6.041   5.781  0.2419 -0.0219  0.0360
 3400TIP3    H110141   3.211   6.050   5.867 -0.1580  0.1136 -0.1610
 3400TIP3    H210142   3.344   6.058   5.795  0.1105  0.4208  0.3658
 3401TIP3   OH210143   6.296   0.220   4.070  0.3568 -0.1685  0.3493
 3401TIP3    H110144   6.354   0.277   4.120  0.7531 -0.1076 -0.1739
 3401TIP3    H210145   6.344   0.138   4.062  0.7744  0.1776 -0.8710
 3402TIP3   OH210146   1.305   0.842   1.473  0.4378 -0.0299  0.6712
 3402TIP3    H110147   1.296   0.937   1.485 -1.4442 -0.3867  2.9489
 3402TIP3    H210148   1.377   0.818   1.531  0.7085 -0.0376  0.3332
 3403TIP3   OH210149   2.773   3.464   1.222  0.2298  0.6125 -0.2194
 3403TIP3    H110150   2.810   3.551   1.211  0.2337  0.6382 -0.0156
 3403TIP3    H210151   2.810   3.433   1.305 -1.0853  1.0895  0.5781
 3404TIP3   OH210152   2.502   7.313   1.651 -0.0521 -0.7801  0.3926
 3404TIP3    H110153   2.552   7.255   1.709  0.5872  0.4846  1.1438
 3404TIP3    H210154   2.565   7.345   1.587 -0.0564  0.1729  0.8434
 3405TIP3   OH210155  -0.017   3.882   1.186 -0.2330 -0.1469  0.7728
 3405TIP3    H110156  -0.035   3.971   1.156  1.8168  0.5327  1.3670
 3405TIP3    H210157   0.076   3.869   1.168 -0.6345 -2.4613  0.0497
 3406TIP3   OH210158   3.610   4.877   2.468 -0.2520 -0.6526  0.4808
 3406TIP3    H110159   3.648   4.963   2.486 -0.5623 -0.4615  0.2141
 3406TIP3    H210160   3.628   4.826   2.548 -0.8984 -0.0545  1.0223
 3407TIP3   OH210161   5.223   3.293   2.819  0.5130 -0.6004  0.5602
 3407TIP3    H110162   5.230   3.324   2.729  0.4052 -0.7398  0.5036
 3407TIP3    H210163   5.286   3.346   2.868 -0.7229  0.7518  0.7442
 3408TIP3   OH210164   3.005   0.098   1.926  0.2799  0.0751  0.4660
 3408TIP3    H110165   3.016   0.010   1.891 -2.0873 -0.7917  1.7115
 3408TIP3    H210166   2.970   0.148   1.852 -0.2695 -0.5457  0.2976
 3409TIP3   OH210167   0.340   2.637   5.897 -0.5253 -0.2315  0.1271
 3409TIP3    H110168   0.323   2.729   5.918  0.3947  0.2667 -1.1514
 3409TIP3    H210169   0.420   2.616   5.945  0.0530  0.0849 -0.6695
 3410TIP3   OH210170   6.944   7.271   0.741  0.5704 -0.7227  0.0785
 3410TIP3    H110171   6.970   7.180   0.758  0.8916 -1.0604 -1.9852
 3410TIP3    H210172   6.892   7.267   0.661 -0.7796  0.7458  0.8191
 3411TIP3   OH210173   7.964   1.274   1.623 -0.1508  0.1449 -0.1675
 3411TIP3    H110174   8.055   1.300   1.607 -0.7536  1.0945 -2.5370
 3411TIP3    H210175   7.963   1.180   1.606  0.0038  0.5111 -2.5431
 3412TIP3   OH210176   1.433   5.680   4.928 -0.4932  0.1162  0.8032
 3412TIP3    H110177   1.445   5.643   5.016  2.2513 -0.8017  0.1340
 3412TIP3    H210178   1.515   5.727   4.911 -0.5042 -0.6317 -1.6566
 3413TIP3   OH210179   3.407   3.099   6.843 -0.4974 -0.0947  0.1674
 3413TIP3    H110180   3.479   3.040   6.866 -1.3352 -0.5241  1.8434
 3413TIP3    H210181   3.407   3.100   6.747  2.0035  0.2973  0.1093
 3414TIP3   OH210182   1.351   5.374   3.936 -0.0026  0.3591  0.4039
 3414TIP3    H110183   1.312   5.437   3.876  2.7595  0.7173 -1.1872
 3414TIP3    H210184   1.329   5.289   3.899 -2.1199  0.3674  1.4976
 3415TIP3   OH210185   3.149   5.051   2.743 -0.1704  0.4221 -0.0141
 3415TIP3    H110186   3.159   4.965   2.785 -1.1064  0.4564  0.3037
 3415TIP3    H210187   3.080   5.039   2.679 -1.6325  1.3550  1.2951
 3416TIP3   OH210188   4.904   5.683   1.557 -0.1443  0.0568 -0.0889
 3416TIP3    H110189   4.884   5.766   1.514  0.0473 -0.1729 -0.6318
 3416TIP3    H210190   4.853   5.618   1.508  2.0447 -0.5978 -1.6915
 3417TIP3   OH210191   7.515   4.876   4.724  0.4725 -0.0082 -0.4236
 3417TIP3    H110192   7.555   4.880   4.637 -0.0486 -0.4098 -0.6888
 3417TIP3    H210193   7.427   4.913   4.711 -0.8013 -2.8807 -0.7862
 3418TIP3   OH210194   3.277   5.200   3.935 -0.3696  0.2470 -0.0916
 3418TIP3    H110195   3.208   5.159   3.988 -2.4443  2.3606 -1.0194
 3418TIP3    H210196   3.294   5.283   3.979  0.5219  0.4195 -0.7488
 3419TIP3   OH210197   0.457   2.596   5.241 -0.2299 -0.5509 -0.4564
 3419TIP3    H110198   0.424   2.556   5.161 -3.3714  0.6162  0.0993
 3419TIP3    H210199   0.485   2.522   5.295 -0.7007 -1.5573 -1.5596
 3420TIP3   OH210200   0.718   4.572   4.421  0.3451 -0.1715  0.0087
 3420TIP3    H110201   0.812   4.574   4.403  0.0606 -1.6246 -1.8754
 3420TIP3    H210202   0.684   4.502   4.365 -2.2001  1.7289 -1.0034
 3421TIP3   OH210203   5.481   5.157   3.459 -0.3181  0.7504  0.5750
 3421TIP3    H110204   5.486   5.066   3.488  1.7119  0.9479  0.9407
 3421TIP3    H210205   5.399   5.161   3.408 -0.4435 -1.2659  0.5356
 3422TIP3   OH210206   0.540   3.123   6.302  0.0587  0.2286 -0.0490
 3422TIP3    H110207   0.531   3.039   6.348  0.9248  0.6827  0.9753
 3422TIP3    H210208   0.571   3.099   6.215  0.8427 -0.4987  0.4113
 3423TIP3   OH210209   8.119   3.758   2.389  0.5951 -0.5533  0.1183
 3423TIP3    H110210   8.099   3.716   2.305 -3.9159 -0.4943  0.8840
 3423TIP3    H210211   8.111   3.687   2.453 -1.4766  0.2688  0.8729
 3424TIP3   OH210212   6.380   4.117   3.588 -0.4138  0.0985  0.7459
 3424TIP3    H110213   6.314   4.184   3.610 -1.8226 -1.0280  0.1498
 3424TIP3    H210214   6.404   4.078   3.672 -0.1066  0.8699  1.0243
 3425TIP3   OH210215   8.188   7.636   3.262 -0.4115 -0.3380  0.3371
 3425TIP3    H110216   8.207   7.543   3.267 -0.5466 -0.4017 -0.2256
 3425TIP3    H210217   8.253   7.678   3.319  0.9333 -0.6123 -0.9369
 3426TIP3   OH210218   8.191   1.649   3.911 -0.6526  0.3095 -0.2769
 3426TIP3    H110219   8.224   1.698   3.836 -2.1340  0.6498 -0.7466
 3426TIP3    H210220   8.193   1.712   3.983  0.6440  0.0228 -0.0464
 3427TIP3   OH210221   3.665   2.006   6.368 -0.0453  0.8661 -0.0983
 3427TIP3    H110222   3.744   2.054   6.345 -0.1729  1.5371  0.8035
 3427TIP3    H210223   3.595   2.071   6.366 -0.0322  1.0545  2.2991
 3428TIP3   OH210224   1.376   0.842   6.126  0.3744 -0.5699  0.0584
 3428TIP3    H110225   1.362   0.935   6.106 -1.3759 -0.9326 -0.6091
 3428TIP3    H210226   1.305   0.797   6.080  0.1293 -2.0853  1.8055
 3429TIP3   OH210227   2.164   6.754   1.497 -0.6331 -0.3669  0.4848
 3429TIP3    H110228   2.252   6.789   1.485 -0.3204 -1.6798 -1.3076
 3429TIP3    H210229   2.150   6.757   1.592  0.3894  2.0219  0.6271
 3430TIP3   OH210230   8.207   0.247   5.118 -0.6788  0.5414 -0.0308
 3430TIP3    H110231   8.219   0.300   5.197 -0.1467  0.8534 -0.3147
 3430TIP3    H210232   8.286   0.263   5.066 -0.7310 -0.1663 -0.3352
 3431TIP3   OH210233   4.687   4.067   1.006 -0.4327 -0.0260 -0.3478
 3431TIP3    H110234   4.768   4.023   0.980  0.2271  1.4703 -0.9408
 3431TIP3    H210235   4.633   3.998   1.043  1.6658 -0.8595  1.4040
 3432TIP3   OH210236   6.514   7.551   0.591  0.1508  0.4765 -0.2623
 3432TIP3    H110237   6.551   7.464   0.605  1.3095  0.9232 -0.4378
 3432TIP3    H210238   6.541   7.575   0.503  1.5184  1.7802  0.4551
 3433TIP3   OH210239   4.450   7.017   6.710  0.3567  0.3529  0.0113
 3433TIP3    H110240   4.478   6.931   6.681  0.8610  0.2665  0.7161
 3433TIP3    H210241   4.435   7.007   6.804 -2.0732  0.3961 -0.2958
 3434TIP3   OH210242   5.679   7.712   4.608  0.3132 -0.4978  0.0099
 3434TIP3    H110243   5.756   7.690   4.555  1.0934 -0.2090  0.9875
 3434TIP3    H210244   5.650   7.797   4.574  0.8881 -0.2491  0.1250
 3435TIP3   OH210245   2.977   4.877   0.814 -0.4764  0.3475 -0.5004
 3435TIP3    H110246   2.988   4.970   0.833  0.9378  0.2195 -0.6199
 3435TIP3    H210247   2.887   4.870   0.782 -1.1794  1.3851  1.1188
 3436TIP3   OH210248   1.571   3.575   5.921  0.7301 -0.1915 -0.1173
 3436TIP3    H110249   1.546   3.598   5.832 -0.1834  0.9584  0.4035
 3436TIP3    H210250   1.563   3.657   5.970  1.9321 -0.6298  0.8761
 3437TIP3   OH210251   6.694   3.524   6.630  0.3523  0.4051 -0.7773
 3437TIP3    H110252   6.685   3.520   6.534  0.8535 -0.7986 -0.8001
 3437TIP3    H210253   6.693   3.617   6.651  0.0088  0.6792 -1.9355
 3438TIP3   OH210254   2.636   3.575   5.175  0.0530  0.0769  0.6931
 3438TIP3    H110255   2.706   3.515   5.198  0.1092  0.4308  1.4723
 3438TIP3    H210256   2.651   3.652   5.230 -1.5823 -0.2729  1.7068
 3439TIP3   OH210257   0.481   6.219   0.855 -0.3248  0.0124  0.1929
 3439TIP3    H110258   0.408   6.238   0.913  0.0066  0.0421  0.6027
 3439TIP3    H210259   0.478   6.288   0.789 -0.4875  0.1843  0.3785
 3440TIP3   OH210260   2.626   7.563   6.021  0.2116  0.3939  0.0446
 3440TIP3    H110261   2.703   7.617   6.003 -0.6963  1.4789 -0.7625
 3440TIP3    H210262   2.557   7.600   5.965 -0.0670 -2.6621 -1.8503
 3441TIP3   OH210263   7.294   1.685   3.307  0.0083 -0.0945 -0.0371
 3441TIP3    H110264   7.298   1.718   3.217  0.8008  1.8603  0.6618
 3441TIP3    H210265   7.385   1.687   3.337 -0.1070 -1.6512  0.5359
 3442TIP3   OH210266   6.697   3.508   2.310 -0.5228 -0.0933  0.1365
 3442TIP3    H110267   6.750   3.428   2.304 -2.9845 -1.7996 -0.8454
 3442TIP3    H210268   6.649   3.510   2.227 -0.2980  2.6531 -0.0034
 3443TIP3   OH210269   6.168   3.624   6.638  0.1029  0.0320 -0.9992
 3443TIP3    H110270   6.188   3.537   6.673  1.9627  1.2973  1.4324
 3443TIP3    H210271   6.250   3.652   6.596  0.7268  1.8570  1.2454
 3444TIP3   OH210272   1.908   4.722   1.929 -0.3581  0.0299 -0.5017
 3444TIP3    H110273   1.828   4.670   1.918  0.4463 -1.0757 -1.4097
 3444TIP3    H210274   1.893   4.800   1.875  0.6379 -1.9796 -4.0340
 3445TIP3   OH210275   8.119   0.488   0.764 -0.1042  0.3169 -0.0742
 3445TIP3    H110276   8.096   0.399   0.737 -1.3230  0.3541  0.7920
 3445TIP3    H210277   8.159   0.527   0.686 -0.6813 -0.5871 -0.8387
 3446TIP3   OH210278   0.354   5.005   5.655  0.5536  0.1292 -0.0178
 3446TIP3    H110279   0.390   4.979   5.571  1.5267 -0.0578  0.4456
 3446TIP3    H210280   0.273   4.955   5.663  1.0888 -0.7960 -0.2883
 3447TIP3   OH210281   1.287   3.021   1.118 -0.5498 -0.1727  0.2131
 3447TIP3    H110282   1.268   3.057   1.205  0.7183 -1.7535  1.1930
 3447TIP3    H210283   1.278   3.096   1.059 -0.6646  1.1244  1.7976
 3448TIP3   OH210284   2.866   2.372   5.844  0.7006 -0.0223  0.3931
 3448TIP3    H110285   2.905   2.357   5.757  1.5763  2.4023  0.2990
 3448TIP3    H210286   2.781   2.412   5.826  0.1831 -0.9651  0.6691
 3449TIP3   OH210287   6.691   6.238   0.960  0.3627 -0.3365  0.1714
 3449TIP3    H110288   6.615   6.281   0.920  0.3140  0.3661  0.9982
 3449TIP3    H210289   6.709   6.289   1.038  1.1369 -1.0442  0.4674
 3450TIP3   OH210290   7.589   0.841   6.195 -0.2803 -0.5449  0.5629
 3450TIP3    H110291   7.570   0.748   6.211  0.7936 -0.6265  1.5329
 3450TIP3    H210292   7.523   0.889   6.245 -0.6250 -0.7816  0.3400
 3451TIP3   OH210293   3.404   1.582   2.054  0.0409  0.1228 -0.0857
 3451TIP3    H110294   3.382   1.657   1.999  1.6198  0.1851 -0.6870
 3451TIP3    H210295   3.374   1.606   2.141 -1.9813  0.2683 -0.7551
 3452TIP3   OH210296   0.089   3.693   3.836 -0.0844  0.1161  0.1602
 3452TIP3    H110297   0.064   3.747   3.910 -0.8260  1.2249 -0.8669
 3452TIP3    H210298   0.073   3.603   3.865 -0.3085  0.5250  1.3486
 3453TIP3   OH210299   5.189   6.627   4.087 -0.2354  0.0186  0.1903
 3453TIP3    H110300   5.131   6.700   4.112 -0.0870  0.4568 -0.6887
 3453TIP3    H210301   5.142   6.549   4.115 -1.0123  0.3963 -0.0065
 3454TIP3   OH210302   3.802   6.551   2.233 -0.2665 -0.1530  0.1606
 3454TIP3    H110303   3.862   6.545   2.307 -0.6065 -1.7147  0.3500
 3454TIP3    H210304   3.830   6.481   2.174 -1.5818 -0.5793  0.0229
 3455TIP3   OH210305   8.042   6.609   1.262 -0.1013 -0.1260 -0.1087
 3455TIP3    H110306   8.077   6.577   1.179 -0.0605 -0.7057  0.1238
 3455TIP3    H210307   7.960   6.561   1.273 -0.6878  0.8054 -0.3715
 3456TIP3   OH210308   7.279   7.873   5.609  0.0139  0.1596 -0.2863
 3456TIP3    H110309   7.216   7.937   5.641  0.2914  0.8854 -1.1349
 3456TIP3    H210310   7.233   7.789   5.615 -0.3818  0.4311  0.7726
 3457TIP3   OH210311   6.688   6.717   2.110 -0.6536  0.2175  0.4487
 3457TIP3    H110312   6.708   6.623   2.104 -0.2969  0.2008  1.5987
 3457TIP3    H210313   6.622   6.732   2.043 -0.6307 -0.8378  0.1726
 3458TIP3   OH210314   2.039   7.679   6.649  0.1194 -0.2928  0.4440
 3458TIP3    H110315   2.113   7.730   6.617 -0.4080 -0.7737 -1.6606
 3458TIP3    H210316   2.032   7.703   6.741  0.2554  2.9708 -0.3023
 3459TIP3   OH210317   5.149   0.078   1.226 -0.0744 -0.5551  0.1218
 3459TIP3    H110318   5.145  -0.017   1.221 -0.2666 -0.5222 -0.4907
 3459TIP3    H210319   5.064   0.104   1.262 -0.3807 -0.5690 -0.5775
 3460TIP3   OH210320   7.175   4.590   5.398 -0.4113  0.3321 -0.1819
 3460TIP3    H110321   7.243   4.548   5.451  1.6322  1.4210 -1.7719
 3460TIP3    H210322   7.190   4.558   5.309 -0.8790  1.8721 -0.8579
 3461TIP3   OH210323   8.083   2.855   4.780 -0.4037 -0.2390  0.8005
 3461TIP3    H110324   8.045   2.907   4.709  0.5836 -0.6477 -0.0552
 3461TIP3    H210325   8.013   2.849   4.846 -1.2595  0.3476 -0.0289
 3462TIP3   OH210326   4.253   2.876   4.661 -0.3964 -0.1505  0.2263
 3462TIP3    H110327   4.229   2.822   4.737 -0.2709  0.0308  0.3956
 3462TIP3    H210328   4.285   2.813   4.596 -1.8897 -0.4781 -0.2403
 3463TIP3   OH210329   0.549   7.132   0.477  0.1426 -0.0757  0.3479
 3463TIP3    H110330   0.641   7.148   0.500  0.2005 -0.9413  0.7651
 3463TIP3    H210331   0.500   7.197   0.527  0.5985  1.2859 -0.8978
 3464TIP3   OH210332   7.496   0.557   4.058 -0.4826 -0.0348  0.2278
 3464TIP3    H110333   7.465   0.605   4.135  0.9904  1.8716 -0.2905
 3464TIP3    H210334   7.440   0.479   4.054 -1.6009  0.5906  2.3190
 3465TIP3   OH210335   4.188   6.306   4.284  0.5043  0.5329  0.2994
 3465TIP3    H110336   4.205   6.213   4.269 -0.4396 -0.2130  3.2362
 3465TIP3    H210337   4.269   6.339   4.324  0.1333  0.4907  1.0842
 3466TIP3   OH210338   4.555   7.155   5.098  0.3610 -0.5755  0.5893
 3466TIP3    H110339   4.509   7.152   5.182  0.8448  0.6259  0.9117
 3466TIP3    H210340   4.497   7.204   5.041  0.7263 -0.0324  0.6773
 3467TIP3   OH210341   7.420   5.536   0.047  0.3048  0.5336  0.4301
 3467TIP3    H110342   7.424   5.612   0.106  0.2766  1.5000 -0.7768
 3467TIP3    H210343   7.329   5.531   0.020  0.4322  0.4660  0.0073
 3468TIP3   OH210344   1.409   3.457   1.473 -0.1201 -0.2151 -0.2277
 3468TIP3    H110345   1.350   3.464   1.547 -1.6190 -2.0441 -1.1563
 3468TIP3    H210346   1.393   3.535   1.421 -1.9778 -0.7884 -0.5887
 3469TIP3   OH210347   8.130   7.816   3.635 -0.5957  0.0833 -0.2685
 3469TIP3    H110348   8.165   7.880   3.572 -2.0585 -0.1574 -1.3830
 3469TIP3    H210349   8.100   7.869   3.709  1.9131  0.3045  0.6896
 3470TIP3   OH210350   4.128   5.251   5.531  0.0217 -0.1584 -0.4842
 3470TIP3    H110351   4.070   5.181   5.559 -1.7877  1.3711 -0.1836
 3470TIP3    H210352   4.192   5.260   5.601 -1.1504  0.0008  0.5990
 3471TIP3   OH210353   4.495   7.726   4.419 -0.2200  0.4765 -0.6287
 3471TIP3    H110354   4.520   7.778   4.343  2.7540 -1.6494 -1.2921
 3471TIP3    H210355   4.461   7.644   4.382  0.1989 -0.1518  0.3366
 3472TIP3   OH210356   3.209   1.400   0.530  0.2332  0.1375 -0.5081
 3472TIP3    H110357   3.206   1.433   0.620 -2.3003  0.1215 -0.5028
 3472TIP3    H210358   3.125   1.355   0.519  0.9500 -0.8053 -2.5530
 3473TIP3   OH210359   5.809   1.568   5.680 -0.4065 -0.2724 -0.4436
 3473TIP3    H110360   5.766   1.592   5.762  0.5529  0.1735 -0.0550
 3473TIP3    H210361   5.737   1.545   5.621 -1.2037  1.0263 -0.0102
 3474TIP3   OH210362   3.547   7.859   4.728 -0.0531  0.3884 -0.1524
 3474TIP3    H110363   3.565   7.765   4.726 -2.4824 -0.1295 -0.4837
 3474TIP3    H210364   3.633   7.900   4.718  1.1994 -1.7671  1.0318
 3475TIP3   OH210365   5.284   1.300   2.286 -0.2900 -0.0057  0.5005
 3475TIP3    H110366   5.288   1.209   2.258 -0.8650 -0.1366  0.8228
 3475TIP3    H210367   5.335   1.348   2.221 -0.1148 -0.5374  0.2437
 3476TIP3   OH210368   7.356   6.940   6.605  0.6156  0.4297 -0.0983
 3476TIP3    H110369   7.273   6.950   6.559  0.8628  1.6571 -0.2983
 3476TIP3    H210370   7.364   7.020   6.657  0.9244 -0.3804  1.1527
 3477TIP3   OH210371   7.443   2.158   4.048  0.2909 -0.3755 -0.0752
 3477TIP3    H110372   7.471   2.147   3.957 -0.9229 -1.3161 -0.3596
 3477TIP3    H210373   7.437   2.253   4.060  0.2645 -0.2434 -1.0408
 3478TIP3   OH210374   4.394   3.420   4.434  0.2820  0.6223 -0.0847
 3478TIP3    H110375   4.364   3.330   4.421  0.3890  0.7329 -1.2243
 3478TIP3    H210376   4.486   3.411   4.459 -0.3496  0.3289  2.4610
 3479TIP3   OH210377   2.089   2.151   1.851  0.0445  0.1746  0.1897
 3479TIP3    H110378   2.159   2.214   1.833  0.1224  0.2386  0.7212
 3479TIP3    H210379   2.080   2.102   1.768 -1.2051  2.0028 -0.8139
 3480TIP3   OH210380   0.595   6.370   2.594  0.1303 -0.3226 -0.4393
 3480TIP3    H110381   0.685   6.368   2.626 -0.3605 -1.7442  1.0030
 3480TIP3    H210382   0.548   6.424   2.657 -0.3482 -1.0273 -0.1759
 3481TIP3   OH210383   5.757   5.843   0.062 -0.8294  0.0963  0.5371
 3481TIP3    H110384   5.712   5.763   0.036  0.0471 -0.7742  1.5995
 3481TIP3    H210385   5.791   5.879  -0.019 -1.4074 -0.5035  0.0192
 3482TIP3   OH210386   6.566   5.002   4.100 -0.3490 -0.2413  0.4262
 3482TIP3    H110387   6.620   5.078   4.121  0.0426 -0.7928  1.5088
 3482TIP3    H210388   6.563   5.001   4.004  0.7696  0.3601  0.3591
 3483TIP3   OH210389   6.560   3.264   6.156  0.4716  0.8112 -0.4806
 3483TIP3    H110390   6.501   3.196   6.188 -0.2452  1.8092  0.4164
 3483TIP3    H210391   6.616   3.284   6.231  0.9005  0.9792 -0.8383
 3484TIP3   OH210392   7.952   4.096   6.872  0.4959 -0.6202 -0.0787
 3484TIP3    H110393   8.014   4.025   6.890  0.5730 -0.6009 -0.2593
 3484TIP3    H210394   7.977   4.127   6.785  0.6230 -0.1972  0.1099
 3485TIP3   OH210395   7.280   5.458   5.668 -0.4605  0.1030 -0.2428
 3485TIP3    H110396   7.234   5.538   5.642  0.2375  0.7524  0.4893
 3485TIP3    H210397   7.267   5.452   5.762  1.4441  0.6533  0.1000
 3486TIP3   OH210398   3.283   2.983   5.920 -0.2175  0.5775  0.3668
 3486TIP3    H110399   3.196   3.002   5.885  0.0848  0.3032 -0.5875
 3486TIP3    H210400   3.325   2.931   5.851  0.9978  1.4170  0.4434
 3487TIP3   OH210401   5.351   4.975   5.140  0.1296 -0.4038  0.0990
 3487TIP3    H110402   5.319   4.917   5.072  3.2565  0.3673 -2.2502
 3487TIP3    H210403   5.428   4.930   5.176  0.4916  0.7026  0.7729
 3488TIP3   OH210404   4.067   6.451   0.026  0.1445 -0.6439 -0.2602
 3488TIP3    H110405   4.036   6.375  -0.023 -0.5258  0.4012 -1.5333
 3488TIP3    H210406   4.001   6.465   0.093  0.2530 -1.1548 -0.0416
 3489TIP3   OH210407   6.803   3.258   3.169  0.1722  0.3145 -0.4658
 3489TIP3    H110408   6.728   3.203   3.149 -1.3285  2.7534 -2.1660
 3489TIP3    H210409   6.833   3.289   3.083  0.2452  2.8910  0.4024
 3490TIP3   OH210410   2.261   1.220   3.746  0.4923  0.0053 -0.2095
 3490TIP3    H110411   2.355   1.238   3.744  0.8224 -1.3044  1.3989
 3490TIP3    H210412   2.220   1.302   3.717  2.1437  0.1339 -2.3645
 3491TIP3   OH210413   0.467   1.941   6.233 -0.6491 -0.8097  0.3288
 3491TIP3    H110414   0.461   1.881   6.159 -0.8722 -0.1585 -0.1915
 3491TIP3    H210415   0.485   1.885   6.308  1.3646 -1.3291 -0.4775
 3492TIP3   OH210416   2.805   7.907   1.861 -0.1333 -0.5962 -1.0264
 3492TIP3    H110417   2.887   7.891   1.814 -0.2159  0.8822 -1.7421
 3492TIP3    H210418   2.748   7.834   1.835  0.9350 -1.6591 -0.5001
 3493TIP3   OH210419   8.408   3.129   6.164  0.0398  0.0062  0.5192
 3493TIP3    H110420   8.389   3.219   6.191  1.6217 -0.0151  1.8481
 3493TIP3    H210421   8.360   3.075   6.226 -0.3915 -0.0848  0.1149
 3494TIP3   OH210422   0.823   0.777   6.214  0.2320  0.3253 -0.3765
 3494TIP3    H110423   0.737   0.784   6.173 -0.3287 -0.8259  0.5226
 3494TIP3    H210424   0.851   0.867   6.227 -2.3025  0.8944  2.2180
 3495TIP3   OH210425   3.040   0.403   0.179  0.0198 -0.5766  0.3652
 3495TIP3    H110426   3.039   0.477   0.119  0.2900  1.0911  2.2777
 3495TIP3    H210427   2.948   0.377   0.187 -0.2105  0.2301  0.4336
 3496TIP3   OH210428   2.867   0.986   6.039  0.0968  0.3691  0.3332
 3496TIP3    H110429   2.958   1.008   6.061  0.4141  1.6723 -2.0113
 3496TIP3    H210430   2.839   1.057   5.982 -2.0138 -0.6761  0.0106
 3497TIP3   OH210431   5.593   0.102   2.127 -0.7781  0.6045 -0.6127
 3497TIP3    H110432   5.586   0.156   2.049  2.0724  1.2180 -0.5628
 3497TIP3    H210433   5.683   0.115   2.157 -1.0029 -1.6194  1.3162
 3498TIP3   OH210434   6.821   6.199   0.245  0.1445 -0.3036 -0.6232
 3498TIP3    H110435   6.779   6.165   0.324 -0.1666  1.3070 -0.0659
 3498TIP3    H210436   6.751   6.243   0.197  0.5340 -0.4326 -1.3292
 3499TIP3   OH210437   7.076   1.969   5.591  0.6908 -0.7378 -0.3280
 3499TIP3    H110438   7.138   2.041   5.581  0.7039 -0.5821  0.7416
 3499TIP3    H210439   7.116   1.896   5.544  1.5638 -0.5658  0.1289
 3500TIP3   OH210440   1.208   5.321   0.368  0.3345  0.3804 -0.5807
 3500TIP3    H110441   1.199   5.415   0.353  2.2567  0.5565 -0.8463
 3500TIP3    H210442   1.301   5.302   0.352 -0.0672 -1.6256 -0.8735
 3501TIP3   OH210443   6.132   1.420   4.576 -0.0752 -0.3457  0.3684
 3501TIP3    H110444   6.109   1.416   4.669 -2.2626  0.5580 -0.0737
 3501TIP3    H210445   6.146   1.513   4.559  0.8364 -0.5624 -0.1066
 3502TIP3   OH210446   3.756   5.450   3.105 -0.8148  0.2542 -0.3038
 3502TIP3    H110447   3.689   5.474   3.040 -1.1897 -0.3547 -0.1492
 3502TIP3    H210448   3.736   5.505   3.181 -2.2191 -1.0998  0.3736
 3503TIP3   OH210449   1.961   5.704   5.597  0.1416  0.3892  0.0587
 3503TIP3    H110450   2.008   5.629   5.560 -1.3155  0.0325 -1.1534
 3503TIP3    H210451   1.998   5.780   5.552 -1.6278 -0.0363 -2.3251
 3504TIP3   OH210452   6.742   2.871   0.642  0.4557  0.0957 -0.9525
 3504TIP3    H110453   6.789   2.943   0.599  2.0618 -0.4366 -0.1801
 3504TIP3    H210454   6.650   2.885   0.619  0.6518  2.6048 -0.5485
 3505TIP3   OH210455   7.853   1.106   0.735 -0.3612 -0.2606  0.0943
 3505TIP3    H110456   7.864   1.017   0.769  1.4748 -0.0371  0.2110
 3505TIP3    H210457   7.797   1.096   0.658 -1.2342 -1.3220  0.8282
 3506TIP3   OH210458   2.175   4.730   5.468  0.7276 -0.2417  0.1382
 3506TIP3    H110459   2.225   4.780   5.532  0.2206 -0.0667  0.4024
 3506TIP3    H210460   2.085   4.731   5.501 -0.4081  3.0798 -2.4077
 3507TIP3   OH210461   3.005   0.539   3.352 -0.4254 -0.0751  0.6101
 3507TIP3    H110462   3.017   0.555   3.445 -1.9468 -1.2323  1.0672
 3507TIP3    H210463   3.019   0.623   3.310 -0.1076  0.5518  1.9362
 3508TIP3   OH210464   7.996   3.487   6.220 -0.1409  0.2626 -0.1527
 3508TIP3    H110465   8.059   3.418   6.202 -1.1211 -0.8908  0.6881
 3508TIP3    H210466   7.959   3.509   6.135 -0.2008 -0.6422 -0.3716
 3509TIP3   OH210467   4.824   1.577   6.706  0.8566 -0.0287 -0.4201
 3509TIP3    H110468   4.895   1.611   6.760  0.5718  1.5055 -0.9699
 3509TIP3    H210469   4.747   1.577   6.764  0.5547  1.6025 -0.7847
 3510TIP3   OH210470   5.217   5.628   2.190 -0.2298 -0.1192  0.4803
 3510TIP3    H110471   5.226   5.567   2.263  0.9158  0.9678  1.3007
 3510TIP3    H210472   5.126   5.619   2.162 -0.9923  0.0824  2.6517
 3511TIP3   OH210473   7.769   3.400   4.947  0.1543  0.3201 -0.8059
 3511TIP3    H110474   7.755   3.462   5.018 -0.3044 -0.2186 -0.4142
 3511TIP3    H210475   7.804   3.322   4.990 -0.1208 -0.0070 -1.1715
 3512TIP3   OH210476   6.838   7.561   0.414  0.2778 -0.3023  0.1691
 3512TIP3    H110477   6.780   7.588   0.343  0.0526 -0.0748  0.4397
 3512TIP3    H210478   6.821   7.623   0.485  1.3217  0.1636  0.0289
 3513TIP3   OH210479   0.318   0.664   5.428  0.6936  0.0199 -0.3842
 3513TIP3    H110480   0.227   0.645   5.451  0.4371  0.7961 -0.7392
 3513TIP3    H210481   0.313   0.716   5.348  1.5370 -1.5484 -1.5041
 3514TIP3   OH210482   0.398   2.140   2.397  0.5848 -0.0912  0.4647
 3514TIP3    H110483   0.320   2.085   2.406  1.1955 -0.9986  0.3435
 3514TIP3    H210484   0.372   2.207   2.335 -0.1807 -0.2339  0.6108
 3515TIP3   OH210485   2.520   7.170   5.702  0.0782 -0.7308 -0.1354
 3515TIP3    H110486   2.528   7.077   5.682 -0.7673 -0.5471 -1.4739
 3515TIP3    H210487   2.567   7.214   5.631  1.7563 -0.1329  1.2759
 3516TIP3   OH210488   8.225   5.206   5.897 -0.1486  0.5129 -0.3146
 3516TIP3    H110489   8.189   5.119   5.915  1.2391 -0.4090 -1.7231
 3516TIP3    H210490   8.293   5.218   5.964 -0.1848  0.4248 -0.2616
 3517TIP3   OH210491   6.211   7.246   5.346  0.3091  0.4769  0.1603
 3517TIP3    H110492   6.275   7.284   5.286  1.6111  1.2927  1.9605
 3517TIP3    H210493   6.260   7.232   5.428 -1.3463 -0.6747  1.0269
 3518TIP3   OH210494   0.304   1.851   1.068 -0.4427  0.0826  0.4627
 3518TIP3    H110495   0.383   1.859   1.015 -2.0507 -0.0270 -2.1263
 3518TIP3    H210496   0.239   1.906   1.023 -2.1920 -0.8297  1.7429
 3519TIP3   OH210497   0.658   6.019   5.576  0.0964 -0.8915 -0.8558
 3519TIP3    H110498   0.704   5.995   5.657  1.1292 -1.5770 -1.6139
 3519TIP3    H210499   0.707   6.093   5.541 -0.4964 -0.4368 -0.7324
 3520TIP3   OH210500   8.353   6.656   2.249 -0.0491  0.3211 -0.3562
 3520TIP3    H110501   8.368   6.735   2.300 -0.7273  0.2168  0.0212
 3520TIP3    H210502   8.364   6.584   2.312  2.9092 -0.0702 -1.1804
 3521TIP3   OH210503   3.562   4.985   6.200  0.4731  0.0155  0.3816
 3521TIP3    H110504   3.646   4.941   6.216  0.8804  0.2496 -0.9570
 3521TIP3    H210505   3.566   5.064   6.254  1.0643 -0.0486  0.4443
 3522TIP3   OH210506   7.344   7.405   4.793  0.1319  1.0864 -0.3007
 3522TIP3    H110507   7.266   7.349   4.796  0.3831  0.6362 -1.5808
 3522TIP3    H210508   7.412   7.353   4.836  0.1788  0.7180 -0.8179
 3523TIP3   OH210509   2.125   5.454   5.585  0.4324 -0.3342 -0.4599
 3523TIP3    H110510   2.099   5.473   5.675 -0.7040  0.2610 -0.8908
 3523TIP3    H210511   2.219   5.439   5.589  0.3570 -0.5217  0.8570
 3524TIP3   OH210512   7.146   7.641   5.616 -0.1615  0.7173 -0.0523
 3524TIP3    H110513   7.188   7.556   5.626  0.1224  0.8183 -0.3476
 3524TIP3    H210514   7.053   7.625   5.632 -0.0251  0.4699  0.5123
 3525TIP3   OH210515   0.824   5.371   1.619  0.2171  0.1439  0.5335
 3525TIP3    H110516   0.877   5.296   1.595  1.7762  1.9461 -2.1760
 3525TIP3    H210517   0.746   5.365   1.563 -0.5267 -0.3242  1.5788
 3526TIP3   OH210518   1.259   2.582   2.681 -0.1453 -0.1581 -0.0958
 3526TIP3    H110519   1.251   2.525   2.605 -1.1306  1.1776 -1.0210
 3526TIP3    H210520   1.299   2.662   2.648  0.8607 -0.1170  1.1126
 3527TIP3   OH210521   5.463   2.314   5.395  0.3899  0.2294  0.0218
 3527TIP3    H110522   5.387   2.268   5.432 -0.7521  0.9080 -1.3803
 3527TIP3    H210523   5.426   2.371   5.328  2.0470  1.3704  0.0144
 3528TIP3   OH210524   5.037   0.385   5.468  0.4123  0.4669 -0.5071
 3528TIP3    H110525   4.955   0.370   5.422  1.5267  0.4295 -2.6265
 3528TIP3    H210526   5.021   0.463   5.521 -1.0600  0.2633 -0.6174
 3529TIP3   OH210527   4.278   7.276   4.317 -0.1241  0.0913  0.0056
 3529TIP3    H110528   4.207   7.321   4.363  0.1500  2.6418 -1.8466
 3529TIP3    H210529   4.357   7.320   4.346  0.2818  0.0765 -1.0420
 3530TIP3   OH210530   7.496   0.630   0.636 -0.3167 -0.1317  0.4447
 3530TIP3    H110531   7.468   0.556   0.690 -0.6012  0.8244  1.6506
 3530TIP3    H210532   7.577   0.601   0.595 -0.7952 -1.3673  0.3303
 3531TIP3   OH210533   0.215   5.755   3.097 -0.0296 -0.3219 -0.1012
 3531TIP3    H110534   0.138   5.745   3.154 -1.6628  0.9494 -1.9370
 3531TIP3    H210535   0.231   5.667   3.063 -1.8623 -0.3233 -1.0819
 3532TIP3   OH210536   3.688   1.260   1.653  0.1611  0.4520  0.6839
 3532TIP3    H110537   3.748   1.256   1.727  1.7470  1.1572 -0.5277
 3532TIP3    H210538   3.731   1.210   1.584 -1.7544 -1.0614  0.4917
 3533TIP3   OH210539   1.053   2.939   3.345  0.3603 -0.0683  0.3358
 3533TIP3    H110540   0.960   2.961   3.330  0.6485 -0.2071 -2.1782
 3533TIP3    H210541   1.100   3.019   3.322  1.0429 -1.2325 -2.9333
 3534TIP3   OH210542   7.822   7.147   1.297  0.2923  0.0874 -0.4541
 3534TIP3    H110543   7.886   7.092   1.252 -0.6399  0.6012 -2.5189
 3534TIP3    H210544   7.739   7.129   1.252 -0.3664  1.8509 -0.0115
 3535TIP3   OH210545   5.593   1.200   1.508 -0.3115  0.1491  0.4986
 3535TIP3    H110546   5.676   1.166   1.477 -0.8858 -0.6049 -0.2617
 3535TIP3    H210547   5.580   1.282   1.461  0.4455  0.7667  1.3393
 3536TIP3   OH210548   5.887   0.384   1.208  0.2234  0.1202 -0.1137
 3536TIP3    H110549   5.817   0.319   1.202  0.5587 -0.1775 -1.0030
 3536TIP3    H210550   5.868   0.433   1.288 -1.4097  0.5124 -0.7049
 3537TIP3   OH210551   4.316   4.603   0.407  0.5112 -0.4478 -0.1390
 3537TIP3    H110552   4.294   4.685   0.365  1.6754  0.1954  0.4490
 3537TIP3    H210553   4.402   4.580   0.372 -1.3502 -3.5955 -3.4493
 3538TIP3   OH210554   4.863   4.632   5.619 -0.0963 -0.1261 -0.1029
 3538TIP3    H110555   4.899   4.681   5.545 -0.9443  0.5452 -0.0952
 3538TIP3    H210556   4.859   4.541   5.589  0.3035  0.0170 -0.5895
 3539TIP3   OH210557   5.816   2.726   5.869 -0.5492 -0.3745  0.6311
 3539TIP3    H110558   5.892   2.700   5.920  0.2238 -0.2530 -0.4299
 3539TIP3    H210559   5.783   2.804   5.914  0.7139  0.3205  0.4076
 3540TIP3   OH210560   0.687   5.859   0.189 -0.6151 -0.2073  0.5518
 3540TIP3    H110561   0.715   5.865   0.280  0.9984  1.0866  0.0179
 3540TIP3    H210562   0.713   5.771   0.161  0.1086 -0.1349  0.9777
 3541TIP3   OH210563   0.499   2.482   3.319 -0.0297  0.6705  0.0692
 3541TIP3    H110564   0.468   2.456   3.232  2.8043 -0.9545 -0.5903
 3541TIP3    H210565   0.504   2.400   3.368 -0.8502  1.4698  1.5520
 3542TIP3   OH210566   8.171   7.655   5.851 -0.0756 -0.2240 -0.3503
 3542TIP3    H110567   8.233   7.666   5.923 -0.5209 -2.6613  0.5030
 3542TIP3    H210568   8.222   7.612   5.782 -0.5118 -1.2852 -0.0382
 3543TIP3   OH210569   7.514   5.789   5.502 -0.3288  0.4632  0.4945
 3543TIP3    H110570   7.512   5.778   5.597  2.0946  0.9717  0.6507
 3543TIP3    H210571   7.605   5.808   5.481 -0.6883 -0.1717 -2.0164
 3544TIP3   OH210572   4.295   2.252   5.994  0.5730 -0.0045  0.4665
 3544TIP3    H110573   4.226   2.315   5.974 -0.6719 -1.7251 -0.9246
 3544TIP3    H210574   4.297   2.193   5.919  1.2648 -2.0150  1.9659
 3545TIP3   OH210575   2.659   6.291   5.325  0.5829  0.7855 -0.1769
 3545TIP3    H110576   2.754   6.282   5.317  0.6477 -0.6930  1.5176
 3545TIP3    H210577   2.635   6.230   5.395 -1.9849 -1.1286 -2.4473
 3546TIP3   OH210578   5.061   4.300   2.489  0.3071 -0.2094 -0.4858
 3546TIP3    H110579   5.089   4.303   2.580  0.1032 -1.3840 -0.3735
 3546TIP3    H210580   4.965   4.293   2.494 -0.0115  2.5761 -0.8480
 3547TIP3   OH210581   5.066   0.155   4.905  0.1355 -0.5187  0.0737
 3547TIP3    H110582   5.086   0.087   4.841  1.4014 -1.0970  1.0122
 3547TIP3    H210583   5.085   0.114   4.990  1.0418  1.0058  0.6650
 3548TIP3   OH210584   8.151   0.029   5.264 -0.1129  0.4477 -0.2941
 3548TIP3    H110585   8.163   0.085   5.187  3.0092 -1.4258 -1.3626
 3548TIP3    H210586   8.200   0.072   5.333  1.6481 -0.4736 -0.9100
 3549TIP3   OH210587   1.750   6.788   4.893  0.6184 -0.7042  0.4213
 3549TIP3    H110588   1.727   6.836   4.972 -0.8275 -1.8784  0.7691
 3549TIP3    H210589   1.733   6.849   4.821 -0.4400 -0.4264  0.8888
 3550TIP3   OH210590   0.138   1.926   5.832  0.3525 -0.1288  0.0426
 3550TIP3    H110591   0.204   1.919   5.763 -1.6388 -0.3066 -1.9484
 3550TIP3    H210592   0.127   1.836   5.864 -1.5849 -0.8300 -2.3340
 3551TIP3   OH210593   1.668   7.031   5.434 -0.1113  0.3388 -0.2122
 3551TIP3    H110594   1.590   7.015   5.487 -0.0150 -1.6162 -0.5801
 3551TIP3    H210595   1.716   7.098   5.482 -0.6280 -0.4883  1.5652
 3552TIP3   OH210596   0.439   3.127   5.318  0.3863 -0.7234 -0.2794
 3552TIP3    H110597   0.432   3.218   5.348 -0.3898 -0.3938 -1.3968
 3552TIP3    H210598   0.526   3.122   5.278 -0.7543  0.4830 -3.1305
 3553TIP3   OH210599   7.360   6.303   4.144  0.3447 -0.0100  0.2308
 3553TIP3    H110600   7.328   6.229   4.092  0.3301 -0.4244  0.8176
 3553TIP3    H210601   7.447   6.322   4.108  0.3685 -0.3441  0.1086
 3554TIP3   OH210602  -0.020   6.679   0.879  0.1282 -0.1517 -0.0549
 3554TIP3    H110603   0.002   6.757   0.828 -0.3076 -0.4304 -0.6756
 3554TIP3    H210604   0.044   6.678   0.950  0.8096  0.1943 -0.6526
 3555TIP3   OH210605   1.775   0.618   2.188  0.0805  0.0714  0.3509
 3555TIP3    H110606   1.833   0.680   2.232 -1.0406  1.6065 -0.2425
 3555TIP3    H210607   1.697   0.614   2.243  0.0444 -0.6607  0.2652
 3556TIP3   OH210608   0.865   4.758   3.193  0.4033 -0.6022  0.3548
 3556TIP3    H110609   0.821   4.751   3.108 -0.7278  0.6972  0.8063
 3556TIP3    H210610   0.955   4.732   3.175 -0.0759 -1.4500 -1.0028
 3557TIP3   OH210611   3.114   5.072   4.648 -0.1512  0.2577 -0.2081
 3557TIP3    H110612   3.148   5.047   4.562 -0.0361 -2.1385  0.4666
 3557TIP3    H210613   3.177   5.136   4.681  0.4112  0.3599 -1.4199
 3558TIP3   OH210614   0.533   3.854   5.233 -0.2676  0.2363 -0.5146
 3558TIP3    H110615   0.539   3.937   5.280  0.2209 -0.4643  0.6927
 3558TIP3    H210616   0.469   3.802   5.282  0.5006 -0.6303 -0.3910
 3559TIP3   OH210617   0.249   7.259   1.754  0.2854  0.2255 -0.2883
 3559TIP3    H110618   0.158   7.255   1.725  0.3953  0.2472 -0.6385
 3559TIP3    H210619   0.243   7.279   1.848 -0.0725  0.0761 -0.2762
 3560TIP3   OH210620   7.952   6.318   4.545  0.5606 -0.3498  0.0353
 3560TIP3    H110621   7.966   6.277   4.630 -0.4502  0.2230  0.5041
 3560TIP3    H210622   7.896   6.394   4.564  0.7842  0.1138 -1.0602
 3561TIP3   OH210623   5.504   1.435   0.123  0.5083  0.1357  0.2610
 3561TIP3    H110624   5.515   1.448   0.029 -0.3885  0.7207  0.2301
 3561TIP3    H210625   5.431   1.374   0.131  1.5757 -1.1405  0.5518
 3562TIP3   OH210626   4.445   0.804   0.484 -0.5344  0.1361 -0.4312
 3562TIP3    H110627   4.494   0.886   0.475  0.1873 -0.4362 -2.2242
 3562TIP3    H210628   4.479   0.764   0.564  0.9336  0.4075 -0.8948
 3563TIP3   OH210629   1.326   7.454   1.384  0.2707 -0.4892  0.0838
 3563TIP3    H110630   1.232   7.463   1.365  0.7287  0.5147 -1.9729
 3563TIP3    H210631   1.353   7.539   1.416  0.1893 -1.2597  2.3525
 3564TIP3   OH210632   5.106   7.153   2.330  0.4742  0.1874 -0.5318
 3564TIP3    H110633   5.070   7.207   2.260  0.4040  1.3086  0.3411
 3564TIP3    H210634   5.111   7.211   2.405 -1.7050 -1.5593  1.1182
 3565TIP3   OH210635   6.374   0.119   6.288 -0.0064  0.2444 -0.0022
 3565TIP3    H110636   6.335   0.090   6.370  0.8946  0.8036  0.6393
 3565TIP3    H210637   6.388   0.039   6.238  0.1673 -0.1787  0.7187
 3566TIP3   OH210638   5.585   7.811   5.612 -0.2845 -0.2730 -0.2273
 3566TIP3    H110639   5.674   7.795   5.641 -0.2284 -1.6265 -1.0637
 3566TIP3    H210640   5.533   7.741   5.651 -0.7273 -0.3273 -0.8962
 3567TIP3   OH210641   2.530   3.473   4.452 -0.2090 -0.0113 -0.0964
 3567TIP3    H110642   2.523   3.490   4.546  0.9887  0.4864 -0.0729
 3567TIP3    H210643   2.469   3.402   4.435  1.3084 -1.7847  1.5047
 3568TIP3   OH210644   2.149   6.231   0.992 -0.0580 -0.7711 -0.1399
 3568TIP3    H110645   2.170   6.323   1.003  0.5290 -0.4952 -2.8580
 3568TIP3    H210646   2.069   6.218   1.043  0.5006  0.8917  1.2752
 3569TIP3   OH210647   0.811   2.047   5.720 -0.3950  0.2594 -0.2638
 3569TIP3    H110648   0.816   1.963   5.767  1.4166  0.5810  0.1678
 3569TIP3    H210649   0.878   2.041   5.653 -1.1336  0.8870 -1.0823
 3570TIP3   OH210650   5.498   6.374   0.811 -0.4827  0.4238  0.1095
 3570TIP3    H110651   5.562   6.427   0.859 -0.7639  0.7083  0.1821
 3570TIP3    H210652   5.508   6.401   0.720  1.5379 -1.6647 -0.3426
 3571TIP3   OH210653   7.551   7.699   3.924  0.1949 -0.2305  0.3057
 3571TIP3    H110654   7.596   7.667   4.002  1.3932 -0.3421 -0.4063
 3571TIP3    H210655   7.524   7.620   3.878  1.1947 -0.2135 -0.3399
 3572TIP3   OH210656   2.718   5.547   3.166  0.3848  0.0789  0.1993
 3572TIP3    H110657   2.762   5.607   3.226 -0.1339 -0.8098  1.5247
 3572TIP3    H210658   2.626   5.574   3.169  0.4150  0.2763 -0.5117
 3573TIP3   OH210659   5.824   1.017   3.205 -0.6075 -0.5374  0.4865
 3573TIP3    H110660   5.780   1.024   3.120  2.0811 -0.5342 -1.0327
 3573TIP3    H210661   5.848   0.925   3.212  0.9557 -0.1865  0.2081
 3574TIP3   OH210662   4.263   7.706   2.669 -0.0143 -0.2406  0.1710
 3574TIP3    H110663   4.192   7.746   2.720 -0.6258  0.8867 -1.5020
 3574TIP3    H210664   4.331   7.773   2.667  0.2312 -0.4970 -0.0426
 3575TIP3   OH210665   3.163   5.484   0.331 -0.5398 -0.4327  0.0484
 3575TIP3    H110666   3.191   5.569   0.297 -0.9623  0.2723  1.4046
 3575TIP3    H210667   3.094   5.455   0.271 -0.3175  0.1304 -0.4784
 3576TIP3   OH210668   7.619   2.489   2.441 -0.7941  0.9444  0.0724
 3576TIP3    H110669   7.540   2.501   2.389 -0.2654  0.1752 -0.9383
 3576TIP3    H210670   7.595   2.520   2.528 -1.9560  1.4680 -0.4133
 3577TIP3   OH210671   6.031   6.565   3.493  0.3836 -0.5954 -0.0374
 3577TIP3    H110672   5.955   6.617   3.519  0.5323 -0.6642  0.5434
 3577TIP3    H210673   6.003   6.474   3.505  0.0720 -0.6719 -1.1904
 3578TIP3   OH210674   1.837   1.990   2.872  0.1393 -0.1120  0.7275
 3578TIP3    H110675   1.873   1.908   2.839  0.4798  0.2779  0.1084
 3578TIP3    H210676   1.900   2.019   2.938  0.7938  0.3838 -0.0959
 3579TIP3   OH210677   6.564   7.247   6.643 -0.3426 -0.1623 -0.5301
 3579TIP3    H110678   6.582   7.157   6.617 -0.1162 -0.1459 -0.4318
 3579TIP3    H210679   6.491   7.274   6.586  0.4006  0.0027 -1.4344
 3580TIP3   OH210680   2.319   6.903   1.184 -0.1756 -0.0130  0.0737
 3580TIP3    H110681   2.336   6.870   1.271 -0.8865 -0.3805  0.0847
 3580TIP3    H210682   2.381   6.858   1.127 -0.2630 -0.3854  0.2757
 3581TIP3   OH210683   5.615   3.843   0.091  0.3407  0.9680  0.1185
 3581TIP3    H110684   5.527   3.880   0.102  0.0885  0.1571  0.9543
 3581TIP3    H210685   5.623   3.779   0.161  1.4114  0.6553 -0.2686
 3582TIP3   OH210686   7.299   7.214   6.002 -0.0413 -0.1350  0.3725
 3582TIP3    H110687   7.391   7.227   6.026 -0.1295 -0.4836  0.9222
 3582TIP3    H210688   7.268   7.301   5.979  1.2927 -0.4175 -3.0562
 3583TIP3   OH210689   5.561   7.110   4.458 -0.3225 -0.1706 -0.5730
 3583TIP3    H110690   5.630   7.176   4.459 -3.0089  2.9164  1.6443
 3583TIP3    H210691   5.560   7.078   4.367  1.5928  2.3544 -1.5966
 3584TIP3   OH210692   5.459   4.844   4.523  0.0214  0.5700 -0.3286
 3584TIP3    H110693   5.374   4.887   4.531  0.0599  0.4982  0.6411
 3584TIP3    H210694   5.462   4.784   4.598  0.3890 -0.3807 -1.0864
 3585TIP3   OH210695   4.047   0.241   4.636 -0.3638 -0.0042 -0.5303
 3585TIP3    H110696   4.095   0.307   4.587 -0.3897  0.1976 -0.2853
 3585TIP3    H210697   3.956   0.252   4.609 -0.5463  0.8253  0.3528
 3586TIP3   OH210698   0.735   0.227   3.302 -0.5331 -0.2466  0.2825
 3586TIP3    H110699   0.754   0.144   3.346 -0.1884  0.6835  1.9901
 3586TIP3    H210700   0.673   0.204   3.233 -0.2410 -1.9553  0.5526
 3587TIP3   OH210701   5.833   3.364   6.307  0.1355  0.8453 -0.0502
 3587TIP3    H110702   5.816   3.376   6.213 -0.1638 -1.7464 -0.4087
 3587TIP3    H210703   5.920   3.400   6.321  0.2710  1.0786 -1.3630
 3588TIP3   OH210704   1.201   6.662   4.419  0.1951  0.4432 -0.3294
 3588TIP3    H110705   1.234   6.577   4.390 -0.7183  0.0215 -0.1562
 3588TIP3    H210706   1.269   6.724   4.391  1.2803 -0.4201  0.3012
 3589TIP3   OH210707   2.952   1.294   6.448 -0.1880  0.8596 -0.1685
 3589TIP3    H110708   2.919   1.337   6.526 -1.1882  1.9106 -1.1377
 3589TIP3    H210709   2.943   1.200   6.467 -1.1090  1.1015  0.6892
 3590TIP3   OH210710   1.262   0.613   5.894 -0.7440 -0.2621  0.1250
 3590TIP3    H110711   1.178   0.580   5.925  0.1161 -2.4902  0.2283
 3590TIP3    H210712   1.239   0.685   5.834 -2.7602 -1.4795 -0.6470
 3591TIP3   OH210713   8.142   1.336   3.569  0.4019  0.3467 -0.5019
 3591TIP3    H110714   8.139   1.254   3.519  2.6722  0.0154 -0.2188
 3591TIP3    H210715   8.175   1.310   3.655 -2.1854  1.1008  0.8064
 3592TIP3   OH210716   5.961   6.398   2.499  0.4919  0.0883 -0.3111
 3592TIP3    H110717   5.947   6.361   2.412 -0.1567  0.6446 -0.4514
 3592TIP3    H210718   6.036   6.350   2.534  0.3053 -0.6371 -0.8878
 3593TIP3   OH210719   7.967   6.704   2.889 -0.1049  0.0828 -0.2819
 3593TIP3    H110720   7.874   6.708   2.864  0.1649  2.1355 -1.2366
 3593TIP3    H210721   7.971   6.751   2.972  0.0862  0.0679 -0.2832
 3594TIP3   OH210722   3.596   6.408   6.592 -0.0427  0.0592 -0.3628
 3594TIP3    H110723   3.674   6.461   6.572  0.2782 -0.4062 -0.3565
 3594TIP3    H210724   3.583   6.354   6.515 -0.8278  0.6828 -0.6774
 3595TIP3   OH210725   0.246   4.968   1.404 -0.5141 -0.5600 -0.2578
 3595TIP3    H110726   0.308   5.004   1.467 -0.5433  0.1269 -0.6111
 3595TIP3    H210727   0.243   5.033   1.334 -0.7291 -1.1531 -0.8115
 3596TIP3   OH210728   1.131   0.558   3.117  0.4510  0.0424  0.3812
 3596TIP3    H110729   1.224   0.544   3.131  0.3690 -0.8441  0.1264
 3596TIP3    H210730   1.092   0.556   3.204  0.8496  1.9924  0.6395
 3597TIP3   OH210731   5.010   2.276   6.780  0.6228 -0.3989 -0.1265
 3597TIP3    H110732   5.045   2.193   6.812 -0.6696 -1.0636 -0.3676
 3597TIP3    H210733   5.058   2.343   6.829  0.4594 -1.3244  1.3623
 3598TIP3   OH210734   7.698   6.127   5.785  0.1126  0.1317  0.0777
 3598TIP3    H110735   7.722   6.209   5.742 -1.5225  0.1368 -0.9497
 3598TIP3    H210736   7.781   6.083   5.802  0.9327  1.1912 -0.9953
 3599TIP3   OH210737   5.780   5.084   6.714  0.6506  0.3151 -0.0166
 3599TIP3    H110738   5.855   5.068   6.657  0.2116  1.6377 -1.0207
 3599TIP3    H210739   5.750   5.172   6.690 -1.8962 -0.5752 -0.4028
 3600TIP3   OH210740   5.778   4.430   2.108  0.2874 -0.4069  0.8158
 3600TIP3    H110741   5.782   4.348   2.059 -1.7570  0.1049 -0.2915
 3600TIP3    H210742   5.822   4.493   2.052 -2.6838  0.3440 -0.8837
 3601TIP3   OH210743   7.686   4.239   0.254  0.2178  0.0533 -0.4173
 3601TIP3    H110744   7.703   4.148   0.230  0.5849 -0.1274  0.5029
 3601TIP3    H210745   7.658   4.280   0.172  0.7658 -0.7076 -1.0045
 3602TIP3   OH210746   0.939   4.308   0.183 -0.3847 -0.2048 -0.2669
 3602TIP3    H110747   1.024   4.298   0.139 -0.1631 -0.6591  0.2548
 3602TIP3    H210748   0.922   4.402   0.181 -0.1436 -0.1695 -0.8849
 3603TIP3   OH210749   0.597   2.920   6.752 -0.5138  0.1627  0.2273
 3603TIP3    H110750   0.570   2.856   6.819  1.2832 -0.7189  0.1725
 3603TIP3    H210751   0.645   2.986   6.801  0.1541 -0.0877 -0.0804
 3604TIP3   OH210752   7.728   2.876   6.518 -0.5218 -0.1444 -0.8903
 3604TIP3    H110753   7.710   2.790   6.479  1.5374 -1.0856  0.0509
 3604TIP3    H210754   7.763   2.928   6.446  1.3377 -1.2154 -0.8365
 3605TIP3   OH210755   8.206   1.649   0.912  0.0135  0.4176 -0.4034
 3605TIP3    H110756   8.181   1.579   0.972 -0.2193  1.4579  0.7541
 3605TIP3    H210757   8.207   1.607   0.826 -1.0576 -0.7754  0.1241
 3606TIP3   OH210758   4.097   6.464   6.838 -0.0830  0.6519 -0.3044
 3606TIP3    H110759   4.085   6.369   6.836 -0.3312  0.6479  0.6948
 3606TIP3    H210760   4.187   6.478   6.809 -0.5621  0.2555 -2.1368
 3607TIP3   OH210761   3.851   3.990   5.955  0.2079  0.0124 -0.4686
 3607TIP3    H110762   3.849   3.960   6.046 -1.0510  1.3883 -0.0113
 3607TIP3    H210763   3.767   3.964   5.919 -0.9896  2.8625 -0.0263
 3608TIP3   OH210764   7.217   7.782   4.668 -0.0226  0.5707 -0.3323
 3608TIP3    H110765   7.149   7.843   4.639  0.0266  0.3896 -0.8381
 3608TIP3    H210766   7.240   7.733   4.590  0.6931  0.6281 -0.1630
 3609TIP3   OH210767   5.832   2.165   5.335  0.0884  0.0805  0.0056
 3609TIP3    H110768   5.854   2.240   5.391 -0.0365 -0.2029  0.4451
 3609TIP3    H210769   5.754   2.128   5.376 -2.0476  1.8127 -2.2010
 3610TIP3   OH210770   8.006   0.609   5.483  0.6615 -0.4869 -0.3710
 3610TIP3    H110771   7.942   0.540   5.501 -0.9014  1.0579  0.1816
 3610TIP3    H210772   8.038   0.636   5.569  0.0490  0.5618 -0.4511
 3611TIP3   OH210773   6.189   0.055   6.799 -0.3685  0.1944 -0.0262
 3611TIP3    H110774   6.161   0.145   6.814 -0.4607  0.0859  0.4763
 3611TIP3    H210775   6.255   0.039   6.867  1.8744  0.8593 -1.9012
 3612TIP3   OH210776   5.482   6.496   2.349 -0.4248  0.1869  0.3637
 3612TIP3    H110777   5.545   6.565   2.369  0.8818 -1.0489  0.7160
 3612TIP3    H210778   5.405   6.542   2.318  0.7528  1.7553 -0.3645
 3613TIP3   OH210779   1.833   2.812   4.012  0.0626 -0.1269  0.1105
 3613TIP3    H110780   1.794   2.742   4.064  0.6240 -0.9577 -0.5744
 3613TIP3    H210781   1.804   2.794   3.922  1.5851 -0.4659 -0.3318
 3614TIP3   OH210782   5.651   4.659   2.318  0.1072 -0.2238  0.7293
 3614TIP3    H110783   5.703   4.614   2.252  0.7185 -1.4003  1.9704
 3614TIP3    H210784   5.560   4.643   2.292  0.3341 -0.5854  0.1282
 3615TIP3   OH210785   1.167   4.051   4.328  0.3831  0.2300 -0.2336
 3615TIP3    H110786   1.139   4.098   4.250 -2.2179  0.3564  0.6831
 3615TIP3    H210787   1.186   4.119   4.392  0.2045  0.0896 -0.0306
 3616TIP3   OH210788   3.242   0.727   4.302 -0.0090  0.2811 -0.0895
 3616TIP3    H110789   3.160   0.772   4.321 -0.8156 -0.9028 -0.6638
 3616TIP3    H210790   3.271   0.694   4.387 -1.1145 -0.8847 -0.1312
 3617TIP3   OH210791   1.604   5.953   1.738  0.1540 -0.2477  0.1411
 3617TIP3    H110792   1.590   6.045   1.717 -0.5856 -0.6425 -1.2760
 3617TIP3    H210793   1.639   5.916   1.657 -0.2905 -1.3525  0.4396
 3618TIP3   OH210794   1.490   2.833   6.724  0.4897 -0.0310 -0.3342
 3618TIP3    H110795   1.482   2.802   6.815  0.1128 -1.5673 -0.8531
 3618TIP3    H210796   1.400   2.853   6.698  0.6627  0.9550 -0.2057
 3619TIP3   OH210797   3.007   7.682   6.575  0.4097 -0.1785 -0.3826
 3619TIP3    H110798   3.031   7.739   6.648 -1.5270 -0.3948  0.4652
 3619TIP3    H210799   3.040   7.728   6.497  0.5115  1.1734  0.4294
 3620TIP3   OH210800   2.132   5.970   2.813  0.0831  0.4346 -0.2679
 3620TIP3    H110801   2.220   6.001   2.792  0.1575 -0.1803 -0.8714
 3620TIP3    H210802   2.086   6.049   2.843  0.7818  0.7925 -0.1035
 3621TIP3   OH210803   4.140   1.656   2.268  0.4171  0.0444 -0.2941
 3621TIP3    H110804   4.157   1.578   2.321  0.4689  0.2045 -0.0735
 3621TIP3    H210805   4.046   1.652   2.249  0.5983 -0.5986 -1.1286
 3622TIP3   OH210806   2.141   6.912   5.383 -0.4442 -0.2737 -0.0312
 3622TIP3    H110807   2.105   6.825   5.401 -0.5337 -0.4388 -0.9743
 3622TIP3    H210808   2.225   6.895   5.342 -1.2193  0.0394 -1.8327
 3623TIP3   OH210809   6.058   2.183   0.561  0.8658  0.5027  0.6117
 3623TIP3    H110810   5.970   2.150   0.544  1.3685 -1.6004  1.8425
 3623TIP3    H210811   6.091   2.208   0.475 -1.3333  2.5662  0.2506
 3624TIP3   OH210812   4.017   1.359   4.905  0.0095 -0.1076  0.4926
 3624TIP3    H110813   3.956   1.319   4.968  0.6453 -1.3112  0.3836
 3624TIP3    H210814   4.049   1.285   4.853  0.9701  0.6075  0.0358
 3625TIP3   OH210815   4.806   2.805   1.537  0.5505 -0.6565  0.3064
 3625TIP3    H110816   4.835   2.782   1.625 -0.4264  0.3280  0.9151
 3625TIP3    H210817   4.849   2.742   1.480 -0.9705 -3.1733  1.7302
 3626TIP3   OH210818   0.652   5.100   6.080 -0.0323  0.1058  0.0706
 3626TIP3    H110819   0.557   5.107   6.089 -0.4211  2.3375 -3.6003
 3626TIP3    H210820   0.666   5.014   6.042 -0.6120 -0.0728  0.2470
 3627TIP3   OH210821   2.981   6.031   2.687  0.5546  0.2012 -0.0960
 3627TIP3    H110822   3.014   6.114   2.651  0.8784  0.2886  0.3902
 3627TIP3    H210823   3.046   6.007   2.754  0.4971 -0.4773 -0.2808
 3628TIP3   OH210824   7.437   5.756   5.053 -0.3738  0.0415 -0.1856
 3628TIP3    H110825   7.404   5.846   5.052  0.4236  0.3508 -0.0586
 3628TIP3    H210826   7.515   5.761   5.108  1.7403  0.0493 -2.9406
 3629TIP3   OH210827   5.481   4.023   4.315 -0.2122  0.0925 -0.3852
 3629TIP3    H110828   5.534   4.012   4.236  0.3254 -1.5278  0.1557
 3629TIP3    H210829   5.542   4.055   4.381 -0.2670 -0.2040 -0.1884
 3630TIP3   OH210830   8.075   1.405   4.999  0.1527 -0.7606  0.0468
 3630TIP3    H110831   8.103   1.432   4.912  2.6849 -1.6858  0.4778
 3630TIP3    H210832   8.057   1.487   5.045 -0.7390 -0.2477 -1.1745
 3631TIP3   OH210833   5.872   4.462   2.536 -0.3738  0.4027 -0.2716
 3631TIP3    H110834   5.812   4.507   2.477 -0.2109 -0.9138 -1.4920
 3631TIP3    H210835   5.953   4.454   2.487 -0.4829 -1.4378 -0.2256
 3632TIP3   OH210836   3.393   5.665   3.527 -0.0599 -0.2956 -0.1383
 3632TIP3    H110837   3.388   5.632   3.438  1.2822 -0.2365 -0.2666
 3632TIP3    H210838   3.366   5.591   3.582 -0.4989 -0.4606 -0.5754
 3633TIP3   OH210839   8.333   1.702   6.876 -0.2879  0.2588  0.2982
 3633TIP3    H110840   8.390   1.633   6.845 -1.1135 -0.8042  1.0768
 3633TIP3    H210841   8.273   1.719   6.803 -1.7902 -1.7532  0.9641
 3634TIP3   OH210842   6.774   2.026   0.195  0.5824  0.1156  0.0817
 3634TIP3    H110843   6.736   1.942   0.167 -2.0965  0.1812  2.9763
 3634TIP3    H210844   6.723   2.092   0.149  0.8246  0.1819 -0.0937
 3635TIP3   OH210845   7.377   5.756   1.591  0.4375  0.8656  0.7415
 3635TIP3    H110846   7.349   5.726   1.505 -0.1206 -0.0301  1.2158
 3635TIP3    H210847   7.359   5.850   1.591 -0.2115  0.7498  0.1252
 3636TIP3   OH210848   1.172   7.154   5.291 -0.0196  0.7335 -0.2140
 3636TIP3    H110849   1.133   7.067   5.284 -0.5198  0.8266  1.1570
 3636TIP3    H210850   1.189   7.180   5.200  1.1403 -1.2264 -0.6133
 3637TIP3   OH210851   0.661   2.241   4.216 -0.3875  0.1959 -0.4844
 3637TIP3    H110852   0.709   2.162   4.241 -1.1119 -0.5606 -1.3829
 3637TIP3    H210853   0.728   2.299   4.180 -0.0411 -0.5792 -1.1284
 3638TIP3   OH210854   8.112   3.551   2.576 -0.1057 -0.1835  0.3177
 3638TIP3    H110855   8.165   3.480   2.613  0.0244 -0.8310 -1.0358
 3638TIP3    H210856   8.029   3.547   2.623 -0.2839 -1.5725 -0.0659
 3639TIP3   OH210857   0.865   7.865   6.481  0.4443  0.4595  0.0380
 3639TIP3    H110858   0.874   7.914   6.400  0.3629  3.2205  1.5960
 3639TIP3    H210859   0.939   7.893   6.535  1.3088 -2.3591  0.5099
 3640TIP3   OH210860   3.516   6.460   2.840  0.4959  0.2170 -0.1913
 3640TIP3    H110861   3.465   6.382   2.818  0.9575  0.2488 -1.5124
 3640TIP3    H210862   3.559   6.440   2.923  0.4731 -0.8636 -0.4344
 3641TIP3   OH210863   1.123   3.323   5.256 -0.1565  0.1972 -0.3621
 3641TIP3    H110864   1.036   3.284   5.248 -0.1085 -0.3021  1.1876
 3641TIP3    H210865   1.126   3.389   5.187 -1.5380 -0.1814 -0.8238
 3642TIP3   OH210866   6.051   5.486   5.915  0.5440 -0.0524 -0.2169
 3642TIP3    H110867   5.996   5.505   5.838  0.2629 -0.6683 -0.1827
 3642TIP3    H210868   6.133   5.454   5.878  0.1269 -1.1017 -0.2740
 3643TIP3   OH210869   0.085   0.182   4.754 -0.3764 -0.2030  0.2476
 3643TIP3    H110870  -0.010   0.185   4.762 -0.5850  3.6540 -1.2967
 3643TIP3    H210871   0.112   0.274   4.759  3.4400 -1.2232  1.8503
 3644TIP3   OH210872   2.442   3.952   5.474 -0.1818  1.1374  0.5299
 3644TIP3    H110873   2.439   3.915   5.385  0.2764 -0.3603  1.0974
 3644TIP3    H210874   2.377   4.022   5.473  2.0460  3.3889 -1.8973
 3645TIP3   OH210875   7.858   3.252   5.264 -0.4669  0.3392 -0.1171
 3645TIP3    H110876   7.938   3.237   5.214 -1.5693  1.0834 -2.2199
 3645TIP3    H210877   7.814   3.167   5.265  0.2531 -0.0407  0.9372
 3646TIP3   OH210878   5.504   4.631   6.669  0.5104  0.2213  0.1316
 3646TIP3    H110879   5.589   4.668   6.645  1.2809 -0.4891  1.5929
 3646TIP3    H210880   5.449   4.646   6.593  1.9836  0.5627 -0.9194
 3647TIP3   OH210881   3.340   2.642   4.782 -0.0328 -0.6255  0.3629
 3647TIP3    H110882   3.336   2.706   4.711 -1.8714 -1.8510 -0.7100
 3647TIP3    H210883   3.350   2.695   4.861  4.4817  0.7425 -0.8019
 3648TIP3   OH210884   1.507   2.375   2.725  0.8170 -0.1476 -0.1148
 3648TIP3    H110885   1.543   2.319   2.794  0.6575 -0.3208 -0.1719
 3648TIP3    H210886   1.582   2.396   2.670  0.6947 -1.2142 -0.7285
 3649TIP3   OH210887   0.136   5.800   5.518  0.4043  0.1688 -0.2450
 3649TIP3    H110888   0.082   5.727   5.549 -0.5463  0.6772 -0.6746
 3649TIP3    H210889   0.176   5.836   5.597 -1.0224  0.6902  0.2645
 3650TIP3   OH210890   5.660   5.269   4.814  0.3481 -0.8040 -0.1856
 3650TIP3    H110891   5.588   5.212   4.788  0.1681 -0.9283  0.5679
 3650TIP3    H210892   5.643   5.290   4.906  0.1121  0.9244 -0.5856
 3651TIP3   OH210893   1.240   3.978   4.745 -0.2426 -0.0371  0.6858
 3651TIP3    H110894   1.235   3.973   4.840  0.3956  1.1841  0.8061
 3651TIP3    H210895   1.319   3.928   4.722 -0.2566 -0.1229  0.8282
 3652TIP3   OH210896   5.412   5.366   5.414 -0.7240  0.2357 -0.0136
 3652TIP3    H110897   5.389   5.277   5.388  0.8039 -0.2740  0.2491
 3652TIP3    H210898   5.397   5.419   5.336  0.4701 -0.6639 -0.8968
 3653TIP3   OH210899   5.873   6.317   6.644 -0.2006 -0.3069  0.6796
 3653TIP3    H110900   5.835   6.231   6.629  0.0536 -0.6225  1.7681
 3653TIP3    H210901   5.964   6.300   6.668 -0.0563  0.2851  0.5823
 3654TIP3   OH210902   4.781   0.142   2.416  0.1869  0.0079  0.4350
 3654TIP3    H110903   4.772   0.049   2.436 -0.1709 -0.2337 -0.8254
 3654TIP3    H210904   4.836   0.145   2.338 -1.8229  0.7133 -1.0146
 3655TIP3   OH210905   5.252   5.350   0.345 -0.9135 -0.0204 -0.0569
 3655TIP3    H110906   5.311   5.415   0.384 -1.1606 -0.5213  1.1998
 3655TIP3    H210907   5.249   5.279   0.409 -0.1952 -1.5634 -1.6536
 3656TIP3   OH210908   2.293   3.497   2.727 -0.1978 -0.0374 -0.1157
 3656TIP3    H110909   2.221   3.463   2.674 -0.8479  3.9358 -2.1227
 3656TIP3    H210910   2.250   3.549   2.795  0.7601  0.3088  0.2357
 3657TIP3   OH210911   6.563   0.873   3.998 -0.1209  0.0646  0.0231
 3657TIP3    H110912   6.565   0.930   4.075  0.9363 -0.5961  0.5157
 3657TIP3    H210913   6.479   0.827   4.004  0.1398 -0.3154  1.0547
 3658TIP3   OH210914   5.141   0.023   2.022  0.7575 -0.1561 -0.1431
 3658TIP3    H110915   5.186   0.068   1.950 -1.2533  0.6013 -1.0029
 3658TIP3    H210916   5.191  -0.057   2.036  2.0674  0.4083 -1.3538
 3659TIP3   OH210917   1.595   4.338   6.168 -0.2356 -0.2464 -0.2019
 3659TIP3    H110918   1.629   4.273   6.230 -0.1886  1.1887  1.3416
 3659TIP3    H210919   1.503   4.349   6.192 -0.1362  0.5585 -0.1766
 3660TIP3   OH210920   7.962   4.490   3.277 -0.2370  0.0195  0.4353
 3660TIP3    H110921   7.961   4.452   3.365 -2.0517 -0.2034  0.3566
 3660TIP3    H210922   7.938   4.418   3.219  1.4723  0.0187 -0.3558
 3661TIP3   OH210923   8.071   6.452   2.276 -0.2378 -0.0837 -0.0646
 3661TIP3    H110924   8.009   6.465   2.204  0.1970 -1.2695 -0.6872
 3661TIP3    H210925   8.141   6.398   2.237  1.2844  1.3661  0.5608
 3662TIP3   OH210926   7.549   0.371   2.280  0.4890  0.0987 -0.0120
 3662TIP3    H110927   7.566   0.464   2.290 -0.4956  0.5402 -1.9670
 3662TIP3    H210928   7.469   0.354   2.330  0.6799  0.2853  0.3579
 3663TIP3   OH210929   5.841   7.547   4.920  0.0573 -0.2546  0.6551
 3663TIP3    H110930   5.935   7.566   4.910  0.4987 -2.3167  0.4815
 3663TIP3    H210931   5.817   7.589   5.003  1.0531  0.5413  0.5593
 3664TIP3   OH210932   4.020   0.741   3.046 -0.0962 -0.3244  0.1113
 3664TIP3    H110933   3.954   0.747   2.977  0.2376  0.4348 -0.1522
 3664TIP3    H210934   3.971   0.752   3.127  0.0055  3.5432 -0.1689
 3665TIP3   OH210935   2.540   0.738   1.694  0.2612 -0.4912 -0.4783
 3665TIP3    H110936   2.631   0.768   1.695  1.5824 -4.0215 -0.3414
 3665TIP3    H210937   2.541   0.659   1.641 -2.9769 -0.2010 -1.2049
 3666TIP3   OH210938   8.351   3.175   5.189  0.3916  0.2597  0.5116
 3666TIP3    H110939   8.416   3.106   5.179 -0.4998 -0.5631  0.3035
 3666TIP3    H210940   8.319   3.165   5.279 -0.7681 -0.5479  0.0398
 3667TIP3   OH210941   6.618   1.242   6.233  0.5767 -0.2760 -0.5664
 3667TIP3    H110942   6.588   1.267   6.320 -3.4301 -1.3300 -1.4350
 3667TIP3    H210943   6.581   1.308   6.175  1.9679 -0.3829 -1.6336
 3668TIP3   OH210944   2.207   0.322   6.663  0.2208  0.0312  0.5790
 3668TIP3    H110945   2.239   0.256   6.601  0.1121 -1.1974  1.8030
 3668TIP3    H210946   2.283   0.377   6.680  0.3662  0.1256 -0.3058
 3669TIP3   OH210947   2.644   6.995   0.085 -0.3624  0.1684 -0.1253
 3669TIP3    H110948   2.713   6.984   0.150 -0.6706 -3.4024 -0.2140
 3669TIP3    H210949   2.577   7.046   0.130  0.5640  0.0919  1.4180
 3670TIP3   OH210950   3.487   0.495   5.578 -0.0384  0.0824  0.0804
 3670TIP3    H110951   3.566   0.547   5.564  0.1466 -0.2460 -0.1054
 3670TIP3    H210952   3.415   0.558   5.569  0.1768  0.2752 -0.2868
 3671TIP3   OH210953   5.220   6.524   5.076  0.3907  0.1955 -0.6733
 3671TIP3    H110954   5.222   6.546   4.983 -1.0869 -0.0568 -0.7936
 3671TIP3    H210955   5.154   6.583   5.113  1.9621  1.2909  0.5213
 3672TIP3   OH210956   0.880   7.354   2.252 -0.0882  0.0055  0.3997
 3672TIP3    H110957   0.813   7.286   2.261 -0.9089  0.6580 -0.4889
 3672TIP3    H210958   0.830   7.434   2.236  0.9044  0.5456 -0.0912
 3673TIP3   OH210959   0.174   1.331   1.332  0.2344 -0.3922  0.1043
 3673TIP3    H110960   0.192   1.379   1.413 -0.0178 -0.7134  0.3534
 3673TIP3    H210961   0.256   1.335   1.283 -0.2803  1.8033 -0.6719
 3674TIP3   OH210962   5.813   2.276   3.025 -0.0831 -0.5496 -0.6719
 3674TIP3    H110963   5.824   2.308   2.935  0.2810  0.9276 -0.1303
 3674TIP3    H210964   5.891   2.306   3.071 -0.7495 -0.3770  0.3822
 3675TIP3   OH210965   2.255   7.007   0.323  0.1722  0.3093  0.6974
 3675TIP3    H110966   2.225   6.925   0.282 -0.8010  1.0941 -0.2177
 3675TIP3    H210967   2.175   7.057   0.338  0.9155  2.2672 -1.3628
 3676TIP3   OH210968   3.536   6.713   4.262  0.4204 -0.4111  0.6572
 3676TIP3    H110969   3.620   6.672   4.281  0.4200 -0.7015  0.0650
 3676TIP3    H210970   3.489   6.648   4.210  0.1893  0.0998  0.2089
 3677TIP3   OH210971   2.258   7.859   6.656 -0.6665  0.2455 -0.6265
 3677TIP3    H110972   2.339   7.808   6.656 -0.9961 -0.3098  0.6483
 3677TIP3    H210973   2.282   7.940   6.701 -0.7174  0.2765 -0.6558
 3678TIP3   OH210974   0.788   2.001   4.283  0.0847 -0.3598  0.0406
 3678TIP3    H110975   0.777   1.907   4.266 -0.7544 -0.4461  0.9556
 3678TIP3    H210976   0.881   2.017   4.269  0.8609 -1.9347  2.5574
 3679TIP3   OH210977   1.068   7.426   2.688  0.2072 -0.2881  0.6644
 3679TIP3    H110978   1.096   7.391   2.603 -0.0833 -1.0765  0.8858
 3679TIP3    H210979   0.974   7.411   2.691  0.1407  0.1664  0.9325
 3680TIP3   OH210980   3.714   4.331   5.151 -0.2932  0.7231 -0.1111
 3680TIP3    H110981   3.733   4.405   5.208  1.6349  1.6884 -1.8478
 3680TIP3    H210982   3.709   4.368   5.063  2.4129 -1.2764 -1.2923
 3681TIP3   OH210983   6.820   6.556   0.101 -0.1000 -0.0786  0.4712
 3681TIP3    H110984   6.793   6.566   0.192  1.6313  0.6973  0.9496
 3681TIP3    H210985   6.893   6.494   0.104 -0.7616 -0.9430 -0.5483
 3682TIP3   OH210986   7.994   0.902   1.191 -0.5527 -0.2578 -0.0806
 3682TIP3    H110987   7.904   0.931   1.204 -0.6289  0.6669 -2.2092
 3682TIP3    H210988   7.986   0.814   1.156 -0.7040  0.0945 -0.9732
 3683TIP3   OH210989   4.876   5.742   0.677  0.9111 -0.0714 -0.1300
 3683TIP3    H110990   4.822   5.754   0.755 -0.0015 -2.0359 -0.3944
 3683TIP3    H210991   4.891   5.831   0.644 -0.1548  0.6734  1.2869
 3684TIP3   OH210992   7.686   4.787   2.844  0.9633  0.0025 -0.7302
 3684TIP3    H110993   7.779   4.781   2.826  1.1562  0.8450 -0.0875
 3684TIP3    H210994   7.677   4.863   2.902 -0.0613 -0.3675 -0.3718
 3685TIP3   OH210995   4.323   3.608   2.145 -0.1231  0.0079  0.0615
 3685TIP3    H110996   4.289   3.643   2.228  1.2677  0.8674  0.2918
 3685TIP3    H210997   4.418   3.612   2.154  0.0593 -0.9260 -1.1597
 3686TIP3   OH210998   5.374   6.844   3.552  0.5295  0.0255 -0.4990
 3686TIP3    H110999   5.423   6.769   3.518  1.6015  0.2178  0.5639
 3686TIP3    H211000   5.402   6.852   3.643 -1.5275  0.1340  0.1837
 3687TIP3   OH211001   1.445   4.192   0.942  0.2751 -0.0568 -0.8692
 3687TIP3    H111002   1.522   4.163   0.991 -0.8874  0.7119  1.5770
 3687TIP3    H211003   1.475   4.269   0.894  1.3225 -0.4900 -0.9407
 3688TIP3   OH211004   3.873   6.771   6.275  0.1199 -0.1127  0.3574
 3688TIP3    H111005   3.885   6.686   6.233  0.4521  0.3805 -0.5774
 3688TIP3    H211006   3.915   6.833   6.215  1.0429  0.5614  1.6634
 3689TIP3   OH211007   0.040   5.633   6.051 -0.0583  0.6631  0.2292
 3689TIP3    H111008   0.053   5.612   6.143 -1.9719 -0.4935  0.2905
 3689TIP3    H211009   0.112   5.590   6.005  1.0481  1.4590  1.1879
 3690TIP3   OH211010   1.443   7.259   5.529 -0.2317  0.0134  0.3586
 3690TIP3    H111011   1.503   7.331   5.507 -1.9256  1.4959  0.4001
 3690TIP3    H211012   1.368   7.272   5.472 -1.6900 -0.1924  2.1526
 3691TIP3   OH211013   5.028   4.798   5.443  0.3990  0.0835 -0.6415
 3691TIP3    H111014   5.076   4.716   5.454  0.2763 -0.1155 -1.5329
 3691TIP3    H211015   4.979   4.786   5.362 -2.4577 -0.3771  1.0135
 3692TIP3   OH211016   6.314   0.868   4.693 -0.1010  0.1670  0.3024
 3692TIP3    H111017   6.228   0.846   4.729 -0.9547  2.5630 -0.0548
 3692TIP3    H211018   6.352   0.784   4.666 -2.0804 -1.0094  1.0020
 3693TIP3   OH211019   2.624   1.739   3.340  0.3403 -0.1863  0.2950
 3693TIP3    H111020   2.701   1.689   3.369 -0.2292 -1.1143  0.2535
 3693TIP3    H211021   2.595   1.694   3.261  0.6013  1.0370 -0.5292
 3694TIP3   OH211022   4.125   6.030   3.665  0.6245 -0.6512  0.2368
 3694TIP3    H111023   4.155   6.070   3.747  0.1025  1.6674 -0.6086
 3694TIP3    H211024   4.042   5.989   3.687 -0.2252  1.1700  0.6511
 3695TIP3   OH211025   5.383   3.000   2.868  0.0311  0.3238 -0.5441
 3695TIP3    H111026   5.411   2.918   2.908 -1.1575  0.3130  0.3324
 3695TIP3    H211027   5.289   2.988   2.854 -0.4999  2.0872  1.0635
 3696TIP3   OH211028   0.974   5.166   0.812  0.3553  0.8135 -0.5455
 3696TIP3    H111029   0.978   5.070   0.814 -0.5983  0.7326 -1.4533
 3696TIP3    H211030   1.024   5.191   0.734  1.5195  1.1377  0.2851
 3697TIP3   OH211031   4.807   4.345   4.294 -0.6165 -0.1972  0.5245
 3697TIP3    H111032   4.792   4.439   4.282 -3.5229 -0.8305 -2.1231
 3697TIP3    H211033   4.888   4.327   4.247  0.1033  0.9871  1.2683
 3698TIP3   OH211034   6.373   5.409   4.454 -0.2137 -0.1868  0.1634
 3698TIP3    H111035   6.413   5.403   4.367 -1.5076 -1.0280 -0.4200
 3698TIP3    H211036   6.437   5.454   4.508  0.0636  1.6376 -1.5791
 3699TIP3   OH211037   8.143   5.190   5.002 -0.2864  0.2655 -0.2391
 3699TIP3    H111038   8.140   5.105   4.958  0.6843  0.4651 -0.7189
 3699TIP3    H211039   8.212   5.180   5.068  0.9367  1.1509 -1.3485
 3700TIP3   OH211040   5.771   3.722   5.667 -0.3617  0.4077 -0.1648
 3700TIP3    H111041   5.703   3.657   5.652  0.1577 -0.5564  1.3802
 3700TIP3    H211042   5.829   3.682   5.732 -0.7145  2.8482  1.8504
 3701TIP3   OH211043   4.615   1.973   6.229 -0.3414  0.2065 -0.0827
 3701TIP3    H111044   4.611   2.011   6.318 -1.5794 -0.0924  0.0018
 3701TIP3    H211045   4.671   2.034   6.181  0.7766  0.1089  1.0225
 3702TIP3   OH211046   4.419   7.430   0.658  0.0166 -0.3351 -0.0797
 3702TIP3    H111047   4.405   7.344   0.700 -0.6234  0.0595  0.5474
 3702TIP3    H211048   4.383   7.493   0.721  2.3253  0.5747  0.4203
 3703TIP3   OH211049   6.901   2.103   1.690  0.2888  0.4776 -0.1717
 3703TIP3    H111050   6.965   2.166   1.659  0.1674  0.9406  0.5087
 3703TIP3    H211051   6.857   2.146   1.763 -1.4388  0.5198 -1.2002
 3704TIP3   OH211052   7.805   6.283   6.294 -0.0445 -0.4730  0.3038
 3704TIP3    H111053   7.808   6.303   6.200 -0.8598  2.3252  0.7973
 3704TIP3    H211054   7.897   6.275   6.320  0.2733  0.5954 -0.4103
 3705TIP3   OH211055   8.359   4.062   0.977 -0.1664  0.6720  0.2095
 3705TIP3    H111056   8.308   4.083   0.899  0.4266 -1.9434 -1.0076
 3705TIP3    H211057   8.448   4.049   0.945 -0.3715 -3.0338  0.6987
 3706TIP3   OH211058   4.067   2.639   5.803  0.0932  0.1873  0.6667
 3706TIP3    H111059   4.104   2.696   5.735 -1.1283 -1.9634 -1.9759
 3706TIP3    H211060   3.973   2.645   5.790 -0.1879 -0.2549  2.2744
 3707TIP3   OH211061   7.775   6.349   5.613  0.1656 -0.2060 -0.2241
 3707TIP3    H111062   7.851   6.308   5.573 -0.4826  0.4066 -2.2276
 3707TIP3    H211063   7.742   6.409   5.546 -2.5640 -1.0585  0.2175
 3708TIP3   OH211064   5.611   5.279   0.120 -0.0397  0.0399  0.3661
 3708TIP3    H111065   5.686   5.338   0.115 -0.5956  0.7809  0.6829
 3708TIP3    H211066   5.535   5.336   0.119 -0.6302 -0.7244 -0.4416
 3709TIP3   OH211067   0.904   2.940   6.360  0.5446 -0.1189  0.4512
 3709TIP3    H111068   0.924   2.968   6.449 -0.6607 -0.2613  0.7922
 3709TIP3    H211069   0.822   2.892   6.368  0.1457  0.2985 -0.8035
 3710TIP3   OH211070   4.333   7.799   6.799 -0.1474 -0.0324  0.2526
 3710TIP3    H111071   4.342   7.794   6.894 -1.5658  0.5969  0.4402
 3710TIP3    H211072   4.334   7.707   6.770 -2.2165 -0.3978  1.1603
 3711TIP3   OH211073   5.230   7.025   0.707 -0.2838 -0.2068 -0.2753
 3711TIP3    H111074   5.179   6.986   0.635  0.2459  1.4426 -1.6062
 3711TIP3    H211075   5.165   7.049   0.773 -1.1760  1.0277 -1.5470
 3712TIP3   OH211076   7.486   3.042   3.693 -0.1209 -0.1112 -0.4874
 3712TIP3    H111077   7.532   3.119   3.659  1.3374 -0.3058  0.9054
 3712TIP3    H211078   7.556   2.983   3.723 -1.2425 -0.7738  0.9676
 3713TIP3   OH211079   3.761   1.321   2.311 -0.1050 -0.7320 -0.0727
 3713TIP3    H111080   3.682   1.355   2.269  0.2250 -0.6846 -0.6551
 3713TIP3    H211081   3.734   1.237   2.348 -0.5012 -0.5853 -0.0260
 3714TIP3   OH211082   0.621   2.817   5.295 -0.1424 -0.2127 -0.6332
 3714TIP3    H111083   0.552   2.751   5.287 -1.0542  0.8732 -2.2372
 3714TIP3    H211084   0.645   2.838   5.205  0.4368  1.3340 -0.1456
 3715TIP3   OH211085   2.174   3.766   0.351 -0.0204 -0.2126 -0.8604
 3715TIP3    H111086   2.258   3.745   0.393 -0.5660  1.6384  1.4202
 3715TIP3    H211087   2.140   3.682   0.321  2.1519 -1.1422 -0.8980
 3716TIP3   OH211088   4.377   1.844   3.789  0.1425 -0.6944  0.4891
 3716TIP3    H111089   4.468   1.858   3.762  1.3524 -0.6860  3.9520
 3716TIP3    H211090   4.359   1.753   3.767  0.3687 -0.2682 -1.6572
 3717TIP3   OH211091   2.961   7.078   4.020 -0.2927 -0.2972 -0.0398
 3717TIP3    H111092   2.909   7.125   4.086  1.0055 -1.3851  1.8347
 3717TIP3    H211093   2.989   6.998   4.064  4.9946  1.2171  0.0422
 3718TIP3   OH211094   1.333   6.971   5.850 -0.1069  0.0140 -0.2933
 3718TIP3    H111095   1.351   7.053   5.896  0.9016 -0.6989  0.6454
 3718TIP3    H211096   1.256   6.935   5.895  0.4662 -0.3489  0.4290
 3719TIP3   OH211097   0.554  -0.003   5.635  0.1589  0.0473  0.3541
 3719TIP3    H111098   0.468  -0.038   5.658  0.1543  0.9439  1.7618
 3719TIP3    H211099   0.564   0.076   5.688  0.2889  2.1152 -2.4738
 3720TIP3   OH211100   4.266   1.740   4.897 -0.2343 -0.1984  0.1095
 3720TIP3    H111101   4.322   1.720   4.823 -0.0573 -0.0396  0.2018
 3720TIP3    H211102   4.177   1.721   4.866 -0.1773  0.0320 -0.1993
 3721TIP3   OH211103   5.564   6.742   4.711 -0.3291  0.2333  0.3518
 3721TIP3    H111104   5.607   6.762   4.794  1.2527  2.2255 -0.8517
 3721TIP3    H211105   5.634   6.747   4.646 -1.9041  0.9804 -1.3871
 3722TIP3   OH211106   4.183   2.812   6.400 -0.3976  0.1906 -0.1058
 3722TIP3    H111107   4.199   2.796   6.493  0.9531  0.8372 -0.1981
 3722TIP3    H211108   4.092   2.840   6.395 -1.0090 -1.5488  0.7812
 3723TIP3   OH211109   0.484   0.842   6.407  0.1385 -0.1887 -0.2089
 3723TIP3    H111110   0.414   0.792   6.367  1.7913 -1.9147 -1.1039
 3723TIP3    H211111   0.545   0.777   6.442 -0.0120  1.2309  3.0852
 3724TIP3   OH211112   2.043   5.558   0.201 -0.5883  0.1941 -0.3080
 3724TIP3    H111113   1.978   5.628   0.210 -1.7518 -0.8177 -0.6648
 3724TIP3    H211114   1.993   5.477   0.208  0.5759 -0.6176 -1.0627
 3725TIP3   OH211115   1.396   2.339   6.089  0.7651  0.6376  0.4887
 3725TIP3    H111116   1.331   2.358   6.157  0.3865  2.0456 -0.2088
 3725TIP3    H211117   1.397   2.244   6.082 -3.5939  0.4602 -1.5883
 3726TIP3   OH211118   5.174   5.010   5.883 -0.3813  0.2648 -0.6665
 3726TIP3    H111119   5.171   4.930   5.830 -2.3530 -1.2820  1.5327
 3726TIP3    H211120   5.096   5.059   5.855 -1.0745 -0.2581  0.2907
 3727TIP3   OH211121   5.106   3.084   5.573  0.3677  0.0153 -0.3880
 3727TIP3    H111122   5.174   3.018   5.579 -0.4796 -0.7862  0.9536
 3727TIP3    H211123   5.149   3.166   5.598  0.4201 -0.8315  2.6009
 3728TIP3   OH211124   7.988   1.981   3.488  0.5320 -0.0075  0.3247
 3728TIP3    H111125   8.042   2.053   3.521  1.5569 -0.9202  0.6909
 3728TIP3    H211126   8.051   1.918   3.453 -0.3673 -0.6113 -0.2464
 3729TIP3   OH211127   3.634   6.506   5.299 -0.3216  0.4712  0.7344
 3729TIP3    H111128   3.626   6.496   5.393  0.0247 -0.9447  0.6313
 3729TIP3    H211129   3.637   6.417   5.265 -0.8775  0.9559 -0.6571
 3730TIP3   OH211130   4.848   6.036   1.008  0.2701 -0.7460 -0.0963
 3730TIP3    H111131   4.862   6.088   0.929 -0.3425 -0.7691 -0.2300
 3730TIP3    H211132   4.932   5.993   1.024  0.9780  0.7313  0.3549
 3731TIP3   OH211133   1.558   5.001   3.083  0.0909  0.3390 -0.5193
 3731TIP3    H111134   1.526   5.087   3.055  1.3976  1.4658  1.2336
 3731TIP3    H211135   1.633   5.020   3.140  1.2272 -2.0272 -1.0915
 3732TIP3   OH211136   0.607   3.425   2.272  0.1730  0.2537 -0.8253
 3732TIP3    H111137   0.513   3.414   2.258  0.3182 -1.2885 -0.8166
 3732TIP3    H211138   0.615   3.506   2.322 -1.5789 -1.7264  3.1519
 3733TIP3   OH211139   2.303   1.513   2.995  0.5612  0.1752  0.1932
 3733TIP3    H111140   2.226   1.497   2.941  0.0249 -0.4012  1.1192
 3733TIP3    H211141   2.278   1.584   3.054  0.5645 -0.3342  0.8209
 3734TIP3   OH211142   5.207   0.265   5.726  0.0182  0.7600  0.1107
 3734TIP3    H111143   5.210   0.169   5.730  1.5433  0.5840 -2.3801
 3734TIP3    H211144   5.180   0.283   5.636  0.0540  2.6823  0.4551
 3735TIP3   OH211145   4.859   6.580   3.542  0.2973 -0.1019  0.4898
 3735TIP3    H111146   4.890   6.538   3.462  1.5225  1.1316  0.2889
 3735TIP3    H211147   4.932   6.636   3.570 -0.5200  0.3269  1.8660
 3736TIP3   OH211148   7.989   3.882   4.451  0.0380 -0.1227  0.1441
 3736TIP3    H111149   8.083   3.891   4.435 -0.2116 -0.1107 -1.5475
 3736TIP3    H211150   7.948   3.918   4.372 -1.4187  0.5866  1.1776
 3737TIP3   OH211151   0.881   7.743   0.047 -0.2360 -0.0183 -0.6132
 3737TIP3    H111152   0.856   7.827   0.008  1.5895  0.9269  0.1290
 3737TIP3    H211153   0.929   7.698  -0.022 -1.5452 -0.6553 -1.1395
 3738TIP3   OH211154   0.673   0.701   4.243  0.1166  0.3495  0.2286
 3738TIP3    H111155   0.625   0.782   4.225 -0.6118 -0.1796 -0.3078
 3738TIP3    H211156   0.605   0.639   4.271  0.5095 -0.3720 -0.3864
 3739TIP3   OH211157   0.331   3.761   6.484  0.4834 -0.4947 -0.2241
 3739TIP3    H111158   0.295   3.820   6.418  0.0350  0.4916  0.8796
 3739TIP3    H211159   0.375   3.818   6.546  1.9492 -1.5094 -0.2959
 3740TIP3   OH211160   6.549   5.710   0.502  0.3308  0.2473  0.4424
 3740TIP3    H111161   6.481   5.777   0.513  1.8451  1.6162  2.2382
 3740TIP3    H211162   6.606   5.722   0.577  2.1920 -1.3049 -0.6375
 3741TIP3   OH211163   5.072   6.089   5.357 -0.0636  0.8031 -0.0747
 3741TIP3    H111164   5.015   6.135   5.419 -0.2896 -1.1851  1.2721
 3741TIP3    H211165   5.107   6.159   5.301 -2.2820  2.3103  0.2873
 3742TIP3   OH211166   3.372   7.696   2.582 -0.0151  0.2026 -0.4374
 3742TIP3    H111167   3.441   7.657   2.636 -1.0369 -0.9294  0.1203
 3742TIP3    H211168   3.326   7.621   2.545  1.1697  0.9355 -3.6526
 3743TIP3   OH211169   2.400   6.603   6.523  0.1820 -0.1543 -0.2054
 3743TIP3    H111170   2.394   6.524   6.577  0.6348 -0.5720 -0.7695
 3743TIP3    H211171   2.488   6.637   6.540  0.1820 -0.0654 -0.3818
 3744TIP3   OH211172   2.193   4.482   5.899 -0.1853 -0.1059 -0.5607
 3744TIP3    H111173   2.259   4.508   5.964 -0.3751  1.0295 -0.7898
 3744TIP3    H211174   2.232   4.507   5.815  0.1942 -1.8496 -0.9433
 3745TIP3   OH211175   6.260   3.016   1.315  0.1631  0.4691  0.2361
 3745TIP3    H111176   6.340   3.027   1.264 -0.6429 -0.0298 -1.1957
 3745TIP3    H211177   6.191   3.054   1.261 -0.9421 -1.3442  0.2684
 3746TIP3   OH211178   5.640   6.579   1.497 -0.2062  0.5060  0.2268
 3746TIP3    H111179   5.648   6.569   1.402  0.7185 -0.4955  0.3877
 3746TIP3    H211180   5.664   6.671   1.513  1.0629  0.3002 -0.3829
 3747TIP3   OH211181   1.100   1.365   4.499  0.3839 -0.1434  0.2693
 3747TIP3    H111182   1.149   1.294   4.540  0.9315  0.3422  0.4809
 3747TIP3    H211183   1.009   1.335   4.499  0.6989 -1.1215 -0.2636
 3748TIP3   OH211184   2.004   3.239   5.906  0.1487 -0.9089  0.1807
 3748TIP3    H111185   1.954   3.223   5.826  0.0121 -1.7376  0.4294
 3748TIP3    H211186   1.947   3.209   5.977  0.1660  0.0429  0.6203
 3749TIP3   OH211187   5.165   0.323   2.818 -0.3440 -0.0294 -0.2920
 3749TIP3    H111188   5.107   0.260   2.863 -0.5619  0.0165 -0.5081
 3749TIP3    H211189   5.225   0.352   2.886 -1.4739  1.0055  0.2928
 3750TIP3   OH211190   3.905   0.196   0.253 -0.0519  0.7489 -0.6452
 3750TIP3    H111191   3.853   0.222   0.177 -1.4672  0.5552  0.2218
 3750TIP3    H211192   3.989   0.241   0.241 -1.6732  4.2281 -0.2511
 3751TIP3   OH211193   3.997   4.587   4.274  0.3304  0.6392  0.0963
 3751TIP3    H111194   3.973   4.594   4.182 -1.3626  1.9988  0.5856
 3751TIP3    H211195   4.057   4.660   4.289  0.2894  0.6630  0.1484
 3752TIP3   OH211196   0.787   4.880   6.561  0.2213 -0.2199 -0.2875
 3752TIP3    H111197   0.762   4.888   6.653  0.7308  1.7214 -0.2710
 3752TIP3    H211198   0.810   4.969   6.535 -0.4703 -0.6294 -2.4766
 3753TIP3   OH211199   4.735   0.900   3.013  0.0564 -0.1677 -0.2155
 3753TIP3    H111200   4.702   0.969   3.070  1.6939  0.2384  0.2812
 3753TIP3    H211201   4.821   0.878   3.049  0.0331 -1.7081 -1.0177
 3754TIP3   OH211202   7.260   2.062   0.885 -1.1920  0.0492  0.0358
 3754TIP3    H111203   7.200   2.126   0.924 -0.4022  1.3071 -0.7091
 3754TIP3    H211204   7.345   2.107   0.883 -0.6800 -0.8974 -0.8197
 3755TIP3   OH211205   2.932   2.272   5.577 -0.3556  0.0785  0.3750
 3755TIP3    H111206   2.868   2.269   5.506  0.6098 -1.3648 -0.5165
 3755TIP3    H211207   3.003   2.327   5.544 -1.1286  1.7196  1.3782
 3756TIP3   OH211208   3.705   3.978   0.421 -0.6214 -0.4615 -0.2861
 3756TIP3    H111209   3.762   3.919   0.471 -0.8434 -0.0009  0.5349
 3756TIP3    H211210   3.617   3.941   0.431 -1.1868  1.2877  2.3598
 3757TIP3   OH211211   6.325   5.147   4.575 -0.1996  0.3886 -0.1627
 3757TIP3    H111212   6.270   5.098   4.514  1.8788 -1.1840 -0.9050
 3757TIP3    H211213   6.351   5.225   4.526 -1.3843  0.9305  0.0447
 3758TIP3   OH211214   4.903   0.215   3.854 -0.0795  0.6830  0.2905
 3758TIP3    H111215   4.938   0.219   3.943  0.4249  1.2197  0.0739
 3758TIP3    H211216   4.851   0.295   3.845 -0.7263  0.2799  0.3384
 3759TIP3   OH211217   7.015   1.228   3.251  0.2624 -0.2075  0.3699
 3759TIP3    H111218   7.022   1.143   3.208 -3.5484 -1.0500  1.0448
 3759TIP3    H211219   7.065   1.219   3.331  0.8135 -1.4218 -0.0932
 3760TIP3   OH211220   5.530   7.744   3.832 -0.0891  0.2729 -0.1562
 3760TIP3    H111221   5.557   7.814   3.772 -0.8432  0.2496 -0.5291
 3760TIP3    H211222   5.449   7.710   3.794 -1.1076  0.8898  1.3843
 3761TIP3   OH211223   1.893   1.142   0.306  0.5296 -0.3663  0.3133
 3761TIP3    H111224   1.849   1.218   0.267  0.4630  0.9890  2.8049
 3761TIP3    H211225   1.924   1.091   0.231  1.2959  2.5552 -1.5305
 3762TIP3   OH211226   3.562   5.453   0.940  0.2163  0.0754  0.0113
 3762TIP3    H111227   3.593   5.376   0.987  0.2768  1.2054  1.9090
 3762TIP3    H211228   3.613   5.453   0.859  0.6184 -1.5572  0.2213
 3763TIP3   OH211229   0.390   2.125   4.521  0.5107 -0.1296  0.0600
 3763TIP3    H111230   0.473   2.080   4.539 -0.3074 -1.6261  0.2214
 3763TIP3    H211231   0.380   2.121   4.426  0.6920  0.2038  0.0239
 3764TIP3   OH211232   2.010   6.888   6.599  0.0444  0.0404  0.0667
 3764TIP3    H111233   1.949   6.962   6.588 -0.0003  0.1491  1.0052
 3764TIP3    H211234   2.093   6.929   6.622  0.0228 -0.2009  0.5807
 3765TIP3   OH211235   1.497   0.818   5.136  0.1635  0.2182 -0.0910
 3765TIP3    H111236   1.568   0.807   5.073  0.4254 -0.0131  0.2355
 3765TIP3    H211237   1.496   0.735   5.185  0.0677  0.4472  0.3046
 3766TIP3   OH211238   4.926   3.980   4.417 -0.0582  0.0149 -0.5716
 3766TIP3    H111239   4.988   4.047   4.389 -0.7942  0.9282 -0.0558
 3766TIP3    H211240   4.981   3.910   4.451  0.6848  1.0996  0.5317
 3767TIP3   OH211241   8.168   1.635   2.666  0.2016 -0.2495 -0.1648
 3767TIP3    H111242   8.215   1.632   2.583  0.2295  0.8214 -0.1946
 3767TIP3    H211243   8.211   1.704   2.716 -1.5358  1.0011 -0.3251
 3768TIP3   OH211244   3.222   0.653   5.696  0.0955 -0.0720  0.2302
 3768TIP3    H111245   3.146   0.711   5.698 -0.7908 -1.1475 -0.7538
 3768TIP3    H211246   3.282   0.694   5.633 -0.7607 -0.4793 -0.8766
 3769TIP3   OH211247   7.118   5.369   1.913  0.3149  0.0451 -0.6050
 3769TIP3    H111248   7.147   5.421   1.838  1.4168 -0.2019 -0.3630
 3769TIP3    H211249   7.065   5.429   1.965  2.1709  1.1761  0.0642
 3770TIP3   OH211250   8.103   4.795   5.627  0.0762 -0.4342 -0.2340
 3770TIP3    H111251   8.114   4.748   5.710 -0.3513  1.7568  1.1414
 3770TIP3    H211252   8.008   4.806   5.618  0.2001  1.1538  0.1109
 3771TIP3   OH211253   5.626   3.782   2.256 -0.0250 -0.5080  0.1418
 3771TIP3    H111254   5.637   3.691   2.227 -0.2781 -0.6751  0.5563
 3771TIP3    H211255   5.534   3.801   2.242  0.5055  0.5637 -2.3756
 3772TIP3   OH211256   4.335   6.823   5.329 -0.4840  0.7680  0.7408
 3772TIP3    H111257   4.252   6.850   5.367 -0.0697  1.5341  1.1192
 3772TIP3    H211258   4.399   6.885   5.363  0.8162 -1.5755  2.9523
 3773TIP3   OH211259   0.263   6.357   4.656 -0.0907 -0.3073 -0.3873
 3773TIP3    H111260   0.279   6.444   4.617  0.8457 -0.2363  0.1247
 3773TIP3    H211261   0.193   6.320   4.603  0.7195  0.0438 -1.7586
 3774TIP3   OH211262   2.691   0.985   5.358 -0.7937 -1.0629  0.1605
 3774TIP3    H111263   2.607   1.016   5.326  0.3972 -0.6079 -2.9148
 3774TIP3    H211264   2.752   1.003   5.287  2.6260  1.4454  3.3041
 3775TIP3   OH211265   4.645   7.018   2.999 -0.2373 -0.0506  0.0437
 3775TIP3    H111266   4.689   6.955   2.941 -1.1561 -1.1436  0.4921
 3775TIP3    H211267   4.552   6.998   2.990 -0.6032  1.5840 -0.1580
 3776TIP3   OH211268   7.060   4.108   6.377 -0.5416 -0.2164 -0.5275
 3776TIP3    H111269   7.125   4.044   6.406 -1.4003 -1.0345 -0.3877
 3776TIP3    H211270   7.021   4.070   6.299  0.8141  1.3773 -2.0617
 3777TIP3   OH211271   6.347   6.920   4.078  0.1939 -0.4087 -0.5682
 3777TIP3    H111272   6.425   6.882   4.039 -0.0092 -1.3922 -0.0520
 3777TIP3    H211273   6.275   6.868   4.041 -0.0419 -0.9823  0.6369
 3778TIP3   OH211274   6.022   0.362   1.548  0.0282 -0.2530  0.3456
 3778TIP3    H111275   5.965   0.287   1.537 -0.3957 -0.4984  3.2994
 3778TIP3    H211276   6.109   0.330   1.526 -0.4938 -0.8298 -0.9576
 3779TIP3   OH211277   4.552   5.383   3.398 -0.5127 -0.3034 -0.6437
 3779TIP3    H111278   4.624   5.356   3.341 -0.1156  0.0644 -0.3340
 3779TIP3    H211279   4.519   5.302   3.436  0.7015 -0.3726  0.3258
 3780TIP3   OH211280   3.848   1.880   4.306 -0.2181  0.5513 -0.0992
 3780TIP3    H111281   3.774   1.821   4.295 -0.5732  1.1829 -1.1712
 3780TIP3    H211282   3.895   1.877   4.223  0.3023  1.0398  0.1646
 3781TIP3   OH211283   4.385   1.079   4.642  0.9961  0.0820 -0.0096
 3781TIP3    H111284   4.442   1.083   4.565 -0.1673  0.5365 -0.8730
 3781TIP3    H211285   4.313   1.023   4.615  0.7565 -0.0537  0.8868
 3782TIP3   OH211286   1.811   6.874   5.244 -0.2653  0.1790 -0.0532
 3782TIP3    H111287   1.779   6.784   5.236  1.5480 -0.5275  0.2569
 3782TIP3    H211288   1.750   6.916   5.304 -2.3593 -0.2012 -1.7919
 3783TIP3   OH211289   3.662   7.436   5.395 -0.3752 -0.2963  0.2205
 3783TIP3    H111290   3.592   7.489   5.432 -0.8009 -0.9420  0.3534
 3783TIP3    H211291   3.742   7.476   5.428 -0.6279  0.9496 -0.5860
 3784TIP3   OH211292   3.529   3.837   5.341  0.4103 -0.0780  0.0807
 3784TIP3    H111293   3.472   3.822   5.266 -0.5148 -0.8575  0.9023
 3784TIP3    H211294   3.584   3.759   5.346  0.3485 -0.1101  0.3067
 3785TIP3   OH211295   4.769   3.471   1.799 -0.2768 -0.0964  0.0614
 3785TIP3    H111296   4.784   3.546   1.856  0.1170  0.3091 -0.5707
 3785TIP3    H211297   4.845   3.469   1.741  0.1079 -1.4369  0.5535
 3786TIP3   OH211298   4.110   1.680   2.955  0.2074 -0.1254  0.6708
 3786TIP3    H111299   4.028   1.643   2.920  0.2337 -0.8513  1.3581
 3786TIP3    H211300   4.152   1.607   2.999  1.0618  0.3387  0.6385
 3787TIP3   OH211301   1.308   0.310   0.850 -0.3715 -0.7784  0.5793
 3787TIP3    H111302   1.245   0.380   0.867 -0.4146 -0.6903  0.0944
 3787TIP3    H211303   1.389   0.356   0.827  0.0062 -0.8880  1.6332
 3788TIP3   OH211304   2.920   1.019   6.498 -0.3256 -0.0902  0.4254
 3788TIP3    H111305   2.867   0.970   6.436 -0.8135  0.4223  0.4246
 3788TIP3    H211306   2.872   1.013   6.581 -0.6699  0.8103  0.3051
 3789TIP3   OH211307   7.491   6.323   1.771 -0.3267  0.1064  0.1835
 3789TIP3    H111308   7.497   6.257   1.840 -0.0871 -2.4519 -2.1110
 3789TIP3    H211309   7.397   6.326   1.750 -0.3307  0.4662  0.2558
 3790TIP3   OH211310   1.420   6.392   4.995  0.6032 -0.5970 -0.2936
 3790TIP3    H111311   1.461   6.478   4.983  0.4380 -0.7027 -1.9066
 3790TIP3    H211312   1.326   6.411   4.999  0.4845 -0.7454 -1.6902
 3791TIP3   OH211313   2.613  -0.003   5.490 -0.1009  0.6898 -0.0088
 3791TIP3    H111314   2.562   0.077   5.480 -1.3315  0.1889  1.7675
 3791TIP3    H211315   2.554  -0.073   5.462  0.7134  0.3276 -0.8630
 3792TIP3   OH211316   4.169   2.779   5.603  0.4211  0.0177  0.0341
 3792TIP3    H111317   4.148   2.701   5.551  1.8169  0.1208 -0.7514
 3792TIP3    H211318   4.208   2.840   5.539  0.9683  0.6676  0.9658
 3793TIP3   OH211319   6.888   5.945   0.661  0.0013  0.4774 -0.8611
 3793TIP3    H111320   6.903   5.940   0.567  1.2575 -0.3746 -0.6476
 3793TIP3    H211321   6.907   5.856   0.693  0.0153  0.8583  0.2403
 3794TIP3   OH211322   1.061   1.626   5.896  0.8262 -0.1893 -0.2438
 3794TIP3    H111323   1.146   1.624   5.850  0.0609  1.8324 -1.9394
 3794TIP3    H211324   1.015   1.548   5.865  1.5115 -0.5027 -0.4853
 3795TIP3   OH211325   4.721   7.072   6.537  0.2466 -0.0052  0.0807
 3795TIP3    H111326   4.718   7.021   6.455  0.1679  1.1906 -0.6832
 3795TIP3    H211327   4.651   7.035   6.591  0.5953 -1.1137 -0.1981
 3796TIP3   OH211328   7.339   5.450   0.499  0.4233 -0.3236  0.5651
 3796TIP3    H111329   7.357   5.542   0.516  1.2595 -0.5510  0.9546
 3796TIP3    H211330   7.316   5.413   0.584 -1.9821 -0.0549  0.1054
 3797TIP3   OH211331   3.592   3.347   4.002  0.3937 -0.0194 -0.2999
 3797TIP3    H111332   3.632   3.322   3.919  1.3459  1.2247 -0.2444
 3797TIP3    H211333   3.665   3.381   4.055 -0.5396  1.3241  0.1865
 3798TIP3   OH211334   6.435   2.001   3.882  0.2128  0.0097 -0.4839
 3798TIP3    H111335   6.494   1.996   3.807  0.9834  0.5563  0.0718
 3798TIP3    H211336   6.356   2.042   3.848 -0.3159 -1.7338 -1.5051
 3799TIP3   OH211337   1.704   5.406   1.686  0.6023  0.2383  0.1501
 3799TIP3    H111338   1.763   5.343   1.645 -0.4328 -1.7309  1.4910
 3799TIP3    H211339   1.670   5.458   1.614 -0.4685 -2.4905 -1.4692
 3800TIP3   OH211340   6.894   3.666   4.983  0.0562 -0.1574  0.0025
 3800TIP3    H111341   6.897   3.677   5.078  0.3023 -1.1697  0.1287
 3800TIP3    H211342   6.985   3.652   4.958  0.1245  1.1263 -0.5336
 3801TIP3   OH211343   0.125   6.128   0.653  0.2184 -0.4903 -0.4202
 3801TIP3    H111344   0.192   6.108   0.719 -0.3884  0.5446  0.5431
 3801TIP3    H211345   0.042   6.121   0.700 -0.1892  0.9873 -0.8510
 3802TIP3   OH211346   4.304   3.145   0.381 -0.0483 -0.2165 -0.1125
 3802TIP3    H111347   4.239   3.143   0.452  0.2624  0.8584  0.2227
 3802TIP3    H211348   4.382   3.103   0.419  0.1174  0.3569  0.1886
 3803TIP3   OH211349   1.271   2.797   1.439  0.0649 -0.1632 -0.3761
 3803TIP3    H111350   1.263   2.712   1.397  0.3565  0.0905 -0.9485
 3803TIP3    H211351   1.188   2.808   1.485  0.4360 -1.2173  0.5887
 3804TIP3   OH211352   0.475   1.437   0.091  0.2610  0.3866 -0.4060
 3804TIP3    H111353   0.485   1.504   0.159  0.1164 -0.5386  0.5690
 3804TIP3    H211354   0.553   1.447   0.036  0.8503  0.6015  0.4326
 3805TIP3   OH211355   1.193   3.148   3.240  0.0847 -0.1019 -0.2097
 3805TIP3    H111356   1.110   3.180   3.206  0.2702  2.6704  1.5932
 3805TIP3    H211357   1.239   3.227   3.270  2.4728 -1.7304  0.7908
 3806TIP3   OH211358   0.860   5.239   4.743 -0.0730  0.3877  0.4324
 3806TIP3    H111359   0.771   5.252   4.709  0.0596  0.2929  0.0495
 3806TIP3    H211360   0.917   5.274   4.675  0.1401  2.5852  1.6426
 3807TIP3   OH211361   1.003   1.728   3.528 -0.7073  0.3864  0.2726
 3807TIP3    H111362   1.028   1.637   3.518 -0.5800  0.4103  0.3718
 3807TIP3    H211363   0.909   1.726   3.546 -0.5008  0.2076  1.3902
 3808TIP3   OH211364   7.353   6.507   4.983 -0.3665 -0.5155  0.2933
 3808TIP3    H111365   7.304   6.518   4.902 -0.0895  0.4194  0.2367
 3808TIP3    H211366   7.337   6.587   5.032  0.6908 -0.3982  0.4831
 3809TIP3   OH211367   3.098   0.579   6.077 -0.1128 -0.0111 -0.1332
 3809TIP3    H111368   3.181   0.532   6.076 -0.8409 -1.4897  1.4993
 3809TIP3    H211369   3.066   0.573   5.987  1.8241  1.2089 -0.9619
 3810TIP3   OH211370   1.898   6.824   4.347  0.1992  0.2088  0.1154
 3810TIP3    H111371   1.898   6.919   4.334  0.2083  0.1351 -0.4438
 3810TIP3    H211372   1.989   6.803   4.369 -0.0492  0.4887  1.5155
 3811TIP3   OH211373   2.290   6.775   5.728  0.1028 -0.1992  0.0745
 3811TIP3    H111374   2.287   6.743   5.819 -1.2165  0.1641  0.1900
 3811TIP3    H211375   2.276   6.696   5.675 -0.6536 -0.2062  0.2641
 3812TIP3   OH211376   1.062   6.842   0.184 -0.3609 -0.0624 -0.1663
 3812TIP3    H111377   1.017   6.787   0.248 -0.7309  1.4093  0.9030
 3812TIP3    H211378   1.139   6.791   0.158 -0.5127 -0.9431  1.0200
 3813TIP3   OH211379   8.005   7.499   2.854 -0.4332  0.7159  0.0314
 3813TIP3    H111380   8.100   7.488   2.845 -0.3582  0.6668  0.8184
 3813TIP3    H211381   7.995   7.579   2.905 -0.7537 -0.0348  1.2113
 3814TIP3   OH211382   0.533   2.196   5.356  0.6979 -0.1201  0.3683
 3814TIP3    H111383   0.511   2.266   5.418 -0.1474 -0.7166  0.7451
 3814TIP3    H211384   0.556   2.243   5.275  0.2454  0.5959  0.6442
 3815TIP3   OH211385   0.618   4.424   3.062 -0.2069  0.2443  0.0125
 3815TIP3    H111386   0.565   4.490   3.107 -0.3375  0.6257 -0.6709
 3815TIP3    H211387   0.597   4.437   2.969 -1.7026 -2.0579 -0.0234
 3816TIP3   OH211388   0.746   7.773   1.377 -0.0203  0.3027  0.2580
 3816TIP3    H111389   0.743   7.837   1.448 -0.6681  0.8270 -0.2241
 3816TIP3    H211390   0.654   7.762   1.351  0.3010  0.9817 -1.2393
 3817TIP3   OH211391   2.039   0.496   1.306  0.1171  0.0139 -0.8404
 3817TIP3    H111392   1.954   0.539   1.299  1.4210  2.8158 -0.7392
 3817TIP3    H211393   2.057   0.492   1.400  0.0387 -0.7288 -0.8529
 3818TIP3   OH211394   2.521   4.734   2.090  0.2203 -0.4435 -0.0656
 3818TIP3    H111395   2.444   4.775   2.132  1.0891  0.7854  0.4032
 3818TIP3    H211396   2.563   4.806   2.042  1.4650 -0.9181  0.2752
 3819TIP3   OH211397   3.480   3.665   3.919  0.0222 -0.0106 -0.1210
 3819TIP3    H111398   3.420   3.739   3.910  0.5263  0.3290 -0.8096
 3819TIP3    H211399   3.462   3.610   3.843  0.1987 -0.1860 -0.0363
 3820TIP3   OH211400   6.308   5.897   1.814  0.2303 -0.1602  0.1703
 3820TIP3    H111401   6.218   5.865   1.811  0.6054 -1.2435 -0.1476
 3820TIP3    H211402   6.314   5.944   1.897 -0.4442 -0.6480  0.5076
 3821TIP3   OH211403   7.883   5.741   1.968 -0.2234  0.2946 -0.1250
 3821TIP3    H111404   7.875   5.647   1.951  0.4228  0.5143 -1.8660
 3821TIP3    H211405   7.850   5.782   1.888 -1.3889  1.5941  0.9811
 3822TIP3   OH211406   8.186   6.899   2.177 -0.3301 -0.3423  0.6776
 3822TIP3    H111407   8.162   6.826   2.119 -0.8697  0.0955  0.3386
 3822TIP3    H211408   8.102   6.931   2.211 -0.0576 -0.2133  1.2412
 3823TIP3   OH211409   4.243   0.416   4.550 -0.0932 -0.4145 -0.1851
 3823TIP3    H111410   4.315   0.468   4.586  1.0145 -0.8235 -1.7216
 3823TIP3    H211411   4.224   0.456   4.465 -0.5562 -1.3293 -0.5229
 3824TIP3   OH211412   0.511   1.906   3.597 -0.2902  0.0875 -0.4502
 3824TIP3    H111413   0.529   1.944   3.684 -1.4345  1.4711 -0.7699
 3824TIP3    H211414   0.415   1.907   3.591 -0.2802 -1.4198 -1.1445
 3825TIP3   OH211415   7.341   5.077   0.934  0.2122 -0.0654  0.6772
 3825TIP3    H111416   7.392   5.154   0.911 -1.8179  1.5725  1.2699
 3825TIP3    H211417   7.388   5.003   0.896  2.4300  1.4210  0.3917
 3826TIP3   OH211418   3.844   3.895   4.964  0.1887 -0.2028 -0.7845
 3826TIP3    H111419   3.874   3.911   4.875 -0.6514  2.4134 -0.6856
 3826TIP3    H211420   3.873   3.972   5.013 -0.1221 -1.1765  1.0222
 3827TIP3   OH211421   4.480   2.574   4.226 -0.5078 -0.7788 -0.8222
 3827TIP3    H111422   4.527   2.512   4.282  0.7719 -1.0623 -2.1602
 3827TIP3    H211423   4.420   2.519   4.175  0.0677 -0.8396 -1.4478
 3828TIP3   OH211424   3.483   7.046   1.426 -0.5721 -0.1971 -0.1297
 3828TIP3    H111425   3.484   7.130   1.472 -0.6301 -0.3539  0.1632
 3828TIP3    H211426   3.443   7.065   1.341 -1.0868 -0.0369  0.1450
 3829TIP3   OH211427   6.290   0.401   6.660  0.2644  0.1654  0.8727
 3829TIP3    H111428   6.310   0.308   6.650  0.6450  0.3178  0.1438
 3829TIP3    H211429   6.358   0.446   6.609 -0.8700  0.7747 -0.1777
 3830TIP3   OH211430   2.889   6.175   3.081 -0.0413 -0.6462 -0.0768
 3830TIP3    H111431   2.812   6.230   3.095  0.3682 -0.1164  0.1336
 3830TIP3    H211432   2.893   6.119   3.158 -0.9103 -1.5296 -0.6556
 3831TIP3   OH211433   6.554   4.809   5.892 -0.9045  0.2708 -0.3547
 3831TIP3    H111434   6.483   4.746   5.880 -0.0292 -0.7783 -0.2740
 3831TIP3    H211435   6.634   4.757   5.879 -0.1571  1.6157 -1.4720
 3832TIP3   OH211436   5.604   7.906   0.232  0.4165  0.1620  0.1109
 3832TIP3    H111437   5.600   7.814   0.207  0.3446  0.1239  0.2618
 3832TIP3    H211438   5.524   7.944   0.195  0.5083  0.1902 -0.0582
 3833TIP3   OH211439   0.847   3.064   4.739 -0.7485  0.0691 -0.1326
 3833TIP3    H111440   0.795   3.093   4.664  1.1217  1.8731 -0.8429
 3833TIP3    H211441   0.820   2.973   4.753 -1.9431  0.0211 -2.3046
 3834TIP3   OH211442   4.981   6.753   1.168  0.4510 -0.0543  0.2611
 3834TIP3    H111443   4.979   6.844   1.139 -1.0347  0.3602  1.5347
 3834TIP3    H211444   5.069   6.741   1.203  1.1212  0.4475 -1.1738
 3835TIP3   OH211445   0.255   3.525   4.438 -0.7552 -0.2491  0.3226
 3835TIP3    H111446   0.262   3.442   4.486  2.0731  1.1749  2.7108
 3835TIP3    H211447   0.210   3.584   4.499 -1.1522  0.4466 -0.6235
 3836TIP3   OH211448   7.605   5.456   2.844 -0.4204  0.0663  0.4394
 3836TIP3    H111449   7.604   5.510   2.923 -0.5940  0.5843  0.0881
 3836TIP3    H211450   7.587   5.367   2.875  0.2223  0.1473  1.0690
 3837TIP3   OH211451   3.643   4.539   0.147  0.3054  0.5511  0.1425
 3837TIP3    H111452   3.632   4.608   0.083 -1.1646 -0.3577 -0.6419
 3837TIP3    H211453   3.711   4.571   0.207  0.2358  2.2837 -0.6729
 3838TIP3   OH211454   6.134   6.402   2.888  0.5056  0.1391  0.1809
 3838TIP3    H111455   6.189   6.358   2.953 -1.9049 -0.5728  1.8520
 3838TIP3    H211456   6.175   6.488   2.876  0.7903  0.4729  2.9921
 3839TIP3   OH211457   5.493   7.540   2.542 -0.6363 -0.0858  0.1357
 3839TIP3    H111458   5.500   7.446   2.555 -2.4301 -0.4502 -1.2222
 3839TIP3    H211459   5.418   7.566   2.595 -0.7001  0.4321 -0.2046
 3840TIP3   OH211460   7.478   1.396   2.793 -0.3444 -0.1281 -0.1196
 3840TIP3    H111461   7.493   1.383   2.887 -0.6554 -0.2546 -0.0848
 3840TIP3    H211462   7.406   1.460   2.790 -0.2798 -0.0639 -0.2723
 3841TIP3   OH211463   3.572   2.463   2.932  0.5535 -0.2901 -0.4712
 3841TIP3    H111464   3.494   2.517   2.944  1.2237  0.8032 -0.9107
 3841TIP3    H211465   3.539   2.379   2.900 -0.4486  0.1014 -0.4811
 3842TIP3   OH211466   3.695   3.964   6.579  0.2440 -0.0183  0.3916
 3842TIP3    H111467   3.764   4.023   6.609 -1.1405  1.8563  0.0551
 3842TIP3    H211468   3.621   4.021   6.561 -1.1738 -1.8839  0.0275
 3843TIP3   OH211469   7.831   1.742   5.942 -0.0258 -0.3026 -0.2855
 3843TIP3    H111470   7.737   1.748   5.928  0.0279 -0.5181 -0.7716
 3843TIP3    H211471   7.865   1.828   5.918  0.0258 -0.5658 -1.1746
 3844TIP3   OH211472   6.140   1.774   3.096 -0.7339 -0.0529  0.5093
 3844TIP3    H111473   6.192   1.777   3.016 -1.9719 -2.1378 -0.4627
 3844TIP3    H211474   6.195   1.817   3.162  0.4990  1.3439 -1.3148
 3845TIP3   OH211475   1.817   6.127   2.677 -0.5388 -0.1038 -0.2175
 3845TIP3    H111476   1.833   6.093   2.765  1.8979  1.3777 -0.0016
 3845TIP3    H211477   1.810   6.049   2.622 -1.1265 -1.0332  1.1159
 3846TIP3   OH211478   6.903   7.554   4.547 -0.6260  0.2325 -0.4997
 3846TIP3    H111479   6.892   7.602   4.629  0.0726  0.9973 -0.8354
 3846TIP3    H211480   6.922   7.464   4.574 -1.6975  0.1853  0.1480
 3847TIP3   OH211481   0.331   6.083   4.513  0.4842 -0.5171 -0.0423
 3847TIP3    H111482   0.281   6.007   4.484 -0.4719 -0.2646  0.8796
 3847TIP3    H211483   0.335   6.074   4.608 -0.4476  1.0517  0.1672
 3848TIP3   OH211484   3.241   3.875   5.924  0.4057 -0.5383 -0.3671
 3848TIP3    H111485   3.152   3.847   5.944  0.2306  1.7588  2.6653
 3848TIP3    H211486   3.247   3.869   5.828 -2.7338 -1.4295 -0.6002
 3849TIP3   OH211487   4.601   4.517   5.983 -0.1748 -0.2743  0.1521
 3849TIP3    H111488   4.688   4.487   5.957  0.0086 -0.2753  0.7565
 3849TIP3    H211489   4.549   4.436   5.989  0.0235 -0.3645  0.6777
 3850TIP3   OH211490   3.965   0.069   0.482 -0.2207 -0.2501  0.0587
 3850TIP3    H111491   4.008   0.138   0.532 -1.5102  0.7643 -0.1856
 3850TIP3    H211492   3.955   0.106   0.394 -1.6766 -0.4065  0.1462
 3851TIP3   OH211493   5.897   0.762   4.314 -0.4964 -0.1615  0.1828
 3851TIP3    H111494   5.952   0.684   4.301 -1.2991 -0.8294  0.7559
 3851TIP3    H211495   5.957   0.835   4.297  0.8581 -0.8336  1.7917
 3852TIP3   OH211496   2.160   4.065   4.155  0.2080  0.2782 -0.7919
 3852TIP3    H111497   2.095   4.098   4.093  0.1552  1.4613 -0.1351
 3852TIP3    H211498   2.127   4.090   4.241  1.7360  1.2994 -0.4649
 3853TIP3   OH211499   4.671   6.942   3.567  0.0678  0.5814  0.4540
 3853TIP3    H111500   4.588   6.982   3.542  0.9040  1.5677 -0.8491
 3853TIP3    H211501   4.716   6.925   3.484  1.4904  0.7653  1.1595
 3854TIP3   OH211502   1.653   4.706   3.996  0.6234 -0.1346 -0.7915
 3854TIP3    H111503   1.718   4.713   4.066  0.3974  0.5079 -0.6338
 3854TIP3    H211504   1.589   4.642   4.029 -0.5429  1.5877  0.4890
 3855TIP3   OH211505   7.315   7.245   3.384  0.0055  0.5871  0.3093
 3855TIP3    H111506   7.277   7.313   3.439  1.1563  1.7848 -0.3309
 3855TIP3    H211507   7.371   7.195   3.443 -2.2299 -1.0668  1.2169
 3856TIP3   OH211508   4.803   3.105   0.683 -0.3826  0.6743  0.0838
 3856TIP3    H111509   4.872   3.158   0.724  0.6572  0.3112 -1.1386
 3856TIP3    H211510   4.844   3.068   0.605 -1.3400 -1.2634  0.4316
 3857TIP3   OH211511   5.062   4.283   6.491 -0.1067  0.2272  0.6591
 3857TIP3    H111512   5.039   4.190   6.494  0.2431  0.1459  0.9329
 3857TIP3    H211513   5.138   4.290   6.549  1.7775  0.1592 -1.6870
 3858TIP3   OH211514   4.395   6.848   2.487 -0.2726  0.1790 -0.6340
 3858TIP3    H111515   4.482   6.882   2.510 -0.7259  0.9456 -0.0452
 3858TIP3    H211516   4.409   6.805   2.402  0.1306  2.6632 -1.9111
 3859TIP3   OH211517   2.781   2.480   3.769  0.6670 -0.9022 -0.1552
 3859TIP3    H111518   2.857   2.422   3.771  1.2389 -0.2248 -0.9775
 3859TIP3    H211519   2.793   2.531   3.688 -0.5790 -0.6701 -0.2111
 3860TIP3   OH211520   7.281   6.831   5.360 -0.3251  0.0064 -0.3368
 3860TIP3    H111521   7.350   6.768   5.382 -1.1820 -1.0914 -0.6954
 3860TIP3    H211522   7.244   6.798   5.278 -1.4040  0.4646 -0.0506
 3861TIP3   OH211523   1.374   6.254   4.187 -0.1287  0.1061  0.5336
 3861TIP3    H111524   1.298   6.204   4.157  0.9434  0.0827 -2.4297
 3861TIP3    H211525   1.363   6.340   4.148  1.4317  0.0418 -0.1375
 3862TIP3   OH211526   8.420   7.399   6.546  0.4267  0.0417 -0.6680
 3862TIP3    H111527   8.405   7.326   6.606 -0.8937 -0.0251 -1.0495
 3862TIP3    H211528   8.333   7.436   6.531  1.1027  1.9591 -0.1719
 3863TIP3   OH211529   4.453   4.474   3.373 -0.2511 -0.1578  0.4900
 3863TIP3    H111530   4.417   4.411   3.309  0.3099  0.2129 -0.1996
 3863TIP3    H211531   4.434   4.560   3.335  1.6457  0.0549 -0.0670
 3864TIP3   OH211532   1.003   0.990   4.897  0.4033 -0.4966 -0.2327
 3864TIP3    H111533   0.919   0.969   4.939  0.5308 -0.1638  0.1971
 3864TIP3    H211534   1.069   0.950   4.954  0.8017  2.6518  1.7713
 3865TIP3   OH211535   8.256   1.914   1.432 -0.8015  0.6445  0.1468
 3865TIP3    H111536   8.236   1.996   1.387  0.5180  0.3967 -0.9625
 3865TIP3    H211537   8.217   1.846   1.377 -0.5893  0.4365  0.2485
 3866TIP3   OH211538   3.163   4.850   3.719 -0.3481  0.0139 -0.1619
 3866TIP3    H111539   3.126   4.821   3.803  0.8965 -1.1327  0.0223
 3866TIP3    H211540   3.252   4.877   3.740  0.1633 -0.7934 -1.1881
 3867TIP3   OH211541   7.159   3.647   2.892 -0.5316 -0.0695 -0.2579
 3867TIP3    H111542   7.164   3.658   2.987  1.0655 -1.4690 -0.1250
 3867TIP3    H211543   7.146   3.553   2.879  2.3799 -0.4346 -1.3824
 3868TIP3   OH211544   3.978   1.613   6.118 -0.3201 -0.1113 -0.3935
 3868TIP3    H111545   3.974   1.692   6.064  1.5219  3.6992  4.2626
 3868TIP3    H211546   4.058   1.569   6.090 -0.0643  1.0087 -1.5211
 3869TIP3   OH211547   5.507   0.324   3.911  0.0434 -0.1248 -0.2106
 3869TIP3    H111548   5.587   0.369   3.935 -0.2667 -0.4536  1.6297
 3869TIP3    H211549   5.441   0.360   3.970 -0.8383 -0.9178 -0.6856
 3870TIP3   OH211550   7.764   7.687   6.511  0.0628 -0.0394 -0.5874
 3870TIP3    H111551   7.833   7.725   6.566  1.1371 -1.2356 -1.0641
 3870TIP3    H211552   7.787   7.594   6.504  0.0947  0.0967 -3.2456
 3871TIP3   OH211553   2.128   5.672   1.327  0.4323  0.2539  0.1792
 3871TIP3    H111554   2.155   5.734   1.259 -0.4672 -0.7983 -1.1753
 3871TIP3    H211555   2.068   5.722   1.383  1.1774  1.1254  0.2172
 3872TIP3   OH211556   7.089   6.509   2.596  0.0847 -0.2749  0.2050
 3872TIP3    H111557   7.182   6.532   2.601 -0.2822  1.1814  0.6814
 3872TIP3    H211558   7.064   6.527   2.506  0.0354  0.2693  0.3267
 3873TIP3   OH211559   0.677   4.049   5.461 -0.2165 -0.0655  0.3851
 3873TIP3    H111560   0.752   4.085   5.413 -1.1171 -2.6207 -3.4419
 3873TIP3    H211561   0.715   3.986   5.522  0.8524  1.2342  1.1213
 3874TIP3   OH211562   7.919   0.185   3.827  0.6550 -0.3879  0.0552
 3874TIP3    H111563   7.917   0.280   3.841 -2.8570 -0.2298 -0.6717
 3874TIP3    H211564   7.954   0.150   3.909  2.2879  1.4838  0.2480
 3875TIP3   OH211565   0.502   7.137   1.314  0.4080  0.0140  0.3700
 3875TIP3    H111566   0.546   7.157   1.231 -1.7687  0.3210 -0.7835
 3875TIP3    H211567   0.533   7.205   1.374  1.1400  0.4954 -0.5142
 3876TIP3   OH211568   4.493   5.114   2.431 -0.5230  0.7764 -0.0315
 3876TIP3    H111569   4.408   5.136   2.393 -1.7193 -1.2154  1.3369
 3876TIP3    H211570   4.526   5.042   2.376  0.1523  1.3174 -0.3520
 3877TIP3   OH211571   7.387   2.538   4.997 -0.0786 -0.0883  0.0817
 3877TIP3    H111572   7.408   2.624   4.962  0.3529 -0.7841 -1.4518
 3877TIP3    H211573   7.444   2.529   5.074  0.9523  0.4048 -0.6063
 3878TIP3   OH211574   7.530   5.485   6.162 -0.0183  0.7411 -0.2619
 3878TIP3    H111575   7.617   5.452   6.183 -0.0765  0.5250 -0.3604
 3878TIP3    H211576   7.470   5.413   6.183 -0.2307  1.0877  0.3324
 3879TIP3   OH211577   2.206   7.779   4.802 -0.1459 -0.3600 -0.1720
 3879TIP3    H111578   2.152   7.752   4.876  1.6243 -2.0088  0.5973
 3879TIP3    H211579   2.151   7.762   4.725 -0.9034 -1.5602  0.5946
 3880TIP3   OH211580   1.197   2.461   6.267 -0.1470 -0.5970  0.7889
 3880TIP3    H111581   1.217   2.432   6.356  0.7834 -0.2393  0.7055
 3880TIP3    H211582   1.211   2.555   6.268 -1.9302 -0.3020  0.7308
 3881TIP3   OH211583   6.970   6.682   6.139 -0.6620 -0.3910  0.2012
 3881TIP3    H111584   7.026   6.605   6.146  1.1482  0.7800 -0.7310
 3881TIP3    H211585   6.915   6.665   6.062 -0.3311 -0.7726  0.0489
 3882TIP3   OH211586   8.150   2.181   0.749  0.2247  0.1736 -0.7933
 3882TIP3    H111587   8.089   2.182   0.823  1.9974  0.2079  0.7399
 3882TIP3    H211588   8.095   2.161   0.673 -1.8215  1.0906  0.3538
 3883TIP3   OH211589   8.205   1.200   4.170 -0.3513  0.4805  0.0263
 3883TIP3    H111590   8.266   1.272   4.158 -0.0273  0.7487  2.6720
 3883TIP3    H211591   8.256   1.131   4.212 -1.1962 -0.4212 -0.3727
 3884TIP3   OH211592   1.631   5.140   3.644  0.4362  0.0895  0.4202
 3884TIP3    H111593   1.561   5.076   3.654 -0.0680  0.5070 -0.3987
 3884TIP3    H211594   1.630   5.165   3.552 -0.4441  2.4492  0.9974
 3885TIP3   OH211595   2.542   5.166   1.823  0.0034 -0.1369 -0.2186
 3885TIP3    H111596   2.557   5.105   1.750 -2.6331 -0.2699 -0.7612
 3885TIP3    H211597   2.612   5.147   1.885  1.2454 -1.3172 -1.8973
 3886TIP3   OH211598   0.721   3.602   6.780  0.0969  0.3877 -0.2214
 3886TIP3    H111599   0.739   3.521   6.733 -1.1982  0.5631 -1.0744
 3886TIP3    H211600   0.684   3.660   6.713  1.8026  2.0083  0.1512
 3887TIP3   OH211601   0.163   6.250   4.360  0.1105 -0.2839  0.0409
 3887TIP3    H111602   0.227   6.270   4.292  1.0420  1.3567  1.3128
 3887TIP3    H211603   0.207   6.184   4.414  0.2124 -0.0898  0.1963
 3888TIP3   OH211604   5.146   7.608   4.059 -1.0335 -0.0555  0.3015
 3888TIP3    H111605   5.077   7.674   4.051 -2.0202 -0.7169  2.5657
 3888TIP3    H211606   5.167   7.606   4.152  1.6578 -0.3256 -0.2339
 3889TIP3   OH211607   2.165   7.686   1.031 -0.5930 -0.4644 -0.4118
 3889TIP3    H111608   2.230   7.700   1.100  0.6672  0.3717 -1.7246
 3889TIP3    H211609   2.189   7.602   0.992 -0.4859 -0.3000 -0.7002
 3890TIP3   OH211610   5.737   1.146   4.232 -0.5774  0.3999 -0.5713
 3890TIP3    H111611   5.683   1.146   4.311 -1.0587 -0.0497 -0.8874
 3890TIP3    H211612   5.719   1.231   4.191  0.1881  0.9081  0.1340
 3891TIP3   OH211613   2.677   7.621   6.429 -1.1461  0.2315  0.0187
 3891TIP3    H111614   2.623   7.572   6.367 -0.6370 -1.4353  0.8309
 3891TIP3    H211615   2.724   7.554   6.479  1.6167  1.5575 -0.5783
 3892TIP3   OH211616   7.753   6.855   1.263  0.0897  0.0505 -0.1926
 3892TIP3    H111617   7.835   6.871   1.310  1.0278 -0.2022 -1.6817
 3892TIP3    H211618   7.748   6.760   1.256 -1.1533 -0.0250  1.2254
 3893TIP3   OH211619   4.981   4.833   1.550  0.1435  0.5676 -0.9577
 3893TIP3    H111620   5.076   4.828   1.560  0.0686  1.7517  0.8600
 3893TIP3    H211621   4.967   4.916   1.503  0.0269 -0.3087 -2.5515
 3894TIP3   OH211622   2.329   1.414   4.959  0.0897  0.1729 -0.5953
 3894TIP3    H111623   2.297   1.388   5.046 -0.9899  0.9172 -0.7635
 3894TIP3    H211624   2.378   1.337   4.928  0.6500 -0.0321  0.7388
 3895TIP3   OH211625   2.297   4.541   4.353  0.4248 -0.9650 -0.2501
 3895TIP3    H111626   2.370   4.534   4.414 -0.0264 -0.9939  0.2966
 3895TIP3    H211627   2.304   4.630   4.317 -1.1541  0.2979  2.2676
 3896TIP3   OH211628   6.619   3.798   0.877 -0.7127 -0.3324  0.0834
 3896TIP3    H111629   6.602   3.733   0.809 -0.5028  1.8635 -2.2423
 3896TIP3    H211630   6.536   3.843   0.889 -0.1925  0.8425 -0.5248
 3897TIP3   OH211631   7.008   3.709   2.022 -0.2123  0.0746 -0.1174
 3897TIP3    H111632   7.038   3.669   2.104 -0.3106  0.6097  0.1821
 3897TIP3    H211633   6.919   3.738   2.040 -0.1438  0.4263 -0.3279
 3898TIP3   OH211634   5.449   1.832   4.846 -0.1235 -0.0474  0.7203
 3898TIP3    H111635   5.514   1.901   4.860  0.1184 -0.4071  1.3919
 3898TIP3    H211636   5.383   1.873   4.791  1.6187 -0.2216 -1.6765
 3899TIP3   OH211637   1.320   1.747   3.451  0.7196  0.4451  0.5924
 3899TIP3    H111638   1.310   1.763   3.545  1.3784  0.3923  0.6789
 3899TIP3    H211639   1.366   1.825   3.419  0.9247  0.2434  0.3977
 3900TIP3   OH211640   3.753   2.120   0.595 -0.3598  0.6864 -0.6111
 3900TIP3    H111641   3.736   2.139   0.503 -0.7177 -0.4596 -0.7914
 3900TIP3    H211642   3.809   2.042   0.593 -1.4323 -0.1275  0.1607
 3901TIP3   OH211643   4.948   3.239   2.887 -0.1818 -1.2767 -0.5943
 3901TIP3    H111644   4.900   3.322   2.894  1.4708 -0.4137  1.7754
 3901TIP3    H211645   5.034   3.264   2.853  0.5797 -1.8499  0.8341
 3902TIP3   OH211646   2.230   6.792   2.697  0.1021 -0.1995  0.0155
 3902TIP3    H111647   2.294   6.817   2.630  1.3577 -0.9324  0.8942
 3902TIP3    H211648   2.265   6.711   2.734 -1.2298 -0.4915  0.6963
 3903TIP3   OH211649   5.654   6.837   2.609  0.1873  0.0171  0.6750
 3903TIP3    H111650   5.732   6.882   2.641  0.4878 -0.0876  0.1208
 3903TIP3    H211651   5.684   6.748   2.589 -0.1028 -0.0622  0.5862
 3904TIP3   OH211652   2.454   1.641   4.833  0.1043 -0.0414  0.3607
 3904TIP3    H111653   2.506   1.587   4.773 -1.3763  0.3409 -1.3322
 3904TIP3    H211654   2.420   1.578   4.897 -1.3077 -1.1270 -1.3718
 3905TIP3   OH211655   3.461   4.788   3.798  0.1399 -0.0715 -0.6224
 3905TIP3    H111656   3.518   4.843   3.852  0.9318  0.5771 -2.0506
 3905TIP3    H211657   3.410   4.737   3.861  1.2867  0.3667  0.7202
 3906TIP3   OH211658   3.279   7.128   0.332 -0.1806  0.2463 -0.0185
 3906TIP3    H111659   3.304   7.162   0.418  2.4747 -2.0233  0.2404
 3906TIP3    H211660   3.291   7.033   0.339 -2.1628 -0.2760 -2.2314
 3907TIP3   OH211661   4.534   6.529   4.619  0.9303 -0.2445 -0.3814
 3907TIP3    H111662   4.458   6.582   4.641  0.4784 -0.7786 -0.6181
 3907TIP3    H211663   4.571   6.503   4.703  1.0067  0.2300 -0.2664
 3908TIP3   OH211664   2.267   5.358   6.083 -0.9598  0.7993 -0.2843
 3908TIP3    H111665   2.357   5.337   6.109 -1.2667  0.3854  0.4749
 3908TIP3    H211666   2.269   5.452   6.064 -0.0369  0.5248 -1.7162
 3909TIP3   OH211667   5.565   0.363   3.430  0.0496 -0.1779 -0.1067
 3909TIP3    H111668   5.636   0.315   3.473 -0.0744 -0.1258  0.1594
 3909TIP3    H211669   5.529   0.418   3.499  0.1006  0.1954 -0.3774
 3910TIP3   OH211670   8.296   3.146   2.922 -0.0474 -0.2130 -0.0569
 3910TIP3    H111671   8.219   3.088   2.926  0.4753 -0.9984 -1.0601
 3910TIP3    H211672   8.327   3.150   3.013 -2.4113  1.7416  0.7742
 3911TIP3   OH211673   6.264   4.725   4.959 -0.1878 -0.0453 -0.1220
 3911TIP3    H111674   6.234   4.635   4.952 -1.4633  0.4581 -1.6553
 3911TIP3    H211675   6.207   4.774   4.901  1.1427  1.6056 -0.1133
 3912TIP3   OH211676   8.284   4.398   0.524 -0.3159 -0.4168 -0.5377
 3912TIP3    H111677   8.202   4.409   0.475 -0.2542 -0.5671 -0.6743
 3912TIP3    H211678   8.331   4.479   0.508 -1.2659  0.5048  1.1267
 3913TIP3   OH211679   4.119   3.899   3.436 -0.4114 -0.0981 -0.0194
 3913TIP3    H111680   4.095   3.968   3.498  0.3154  0.7481 -0.6357
 3913TIP3    H211681   4.044   3.840   3.434  0.0817 -0.9349  2.6842
 3914TIP3   OH211682   3.052   7.566   6.153  0.0744 -0.0727 -0.0456
 3914TIP3    H111683   3.031   7.496   6.092  0.6891  0.2881 -0.6829
 3914TIP3    H211684   2.996   7.639   6.126 -2.6735 -1.0948  2.3279
 3915TIP3   OH211685   0.516   1.470   0.526 -0.0458  0.2882  0.1408
 3915TIP3    H111686   0.559   1.449   0.609 -0.9000  1.7773  1.0147
 3915TIP3    H211687   0.559   1.414   0.461  1.6876  0.1888  1.3217
 3916TIP3   OH211688   7.200   1.696   4.000  0.0933 -0.1873 -0.8998
 3916TIP3    H111689   7.131   1.709   3.935 -0.0666  0.8683 -0.5258
 3916TIP3    H211690   7.177   1.613   4.043 -2.1212  1.1467  0.6494
 3917TIP3   OH211691   2.622   0.687   3.068 -0.4881  0.1368 -0.3914
 3917TIP3    H111692   2.606   0.763   3.125 -1.5984  0.6838 -1.3883
 3917TIP3    H211693   2.549   0.627   3.087 -0.4484 -0.0086 -0.6977
 3918TIP3   OH211694   0.873   1.538   6.483  0.2421  0.5337 -0.3002
 3918TIP3    H111695   0.956   1.529   6.530  0.9575  1.0093 -1.4130
 3918TIP3    H211696   0.894   1.514   6.393 -1.5478 -2.3683 -0.0628
 3919TIP3   OH211697   3.689   4.893   0.355  0.3699  0.3694 -0.2515
 3919TIP3    H111698   3.602   4.933   0.350  0.2373 -0.0622 -3.0424
 3919TIP3    H211699   3.677   4.815   0.409 -0.5461  1.2750  0.8911
 3920TIP3   OH211700   5.229   2.060   2.961  0.0422 -0.3173  0.1846
 3920TIP3    H111701   5.164   2.130   2.966  0.1902 -0.1459 -0.2361
 3920TIP3    H211702   5.203   2.010   2.884  0.2151 -0.4470  0.2113
 3921TIP3   OH211703   1.783   0.998   3.357  0.1848 -0.1787  0.2213
 3921TIP3    H111704   1.734   1.076   3.331 -0.7033 -0.7347  0.1526
 3921TIP3    H211705   1.730   0.959   3.428  0.8133 -0.5041  0.5202
 3922TIP3   OH211706   3.955   2.204   4.607 -0.8518 -0.1348  0.4837
 3922TIP3    H111707   3.912   2.131   4.563 -1.4680  0.6536 -0.2297
 3922TIP3    H211708   3.928   2.281   4.559 -0.2228  0.5811  1.2484
 3923TIP3   OH211709   4.713   6.418   0.521  0.2880 -0.5105 -0.1484
 3923TIP3    H111710   4.639   6.477   0.510  0.8340  0.0589 -0.9371
 3923TIP3    H211711   4.775   6.467   0.575 -0.6346 -1.6962  2.1143
 3924TIP3   OH211712   2.329   6.603   6.265  0.4592  0.9065 -0.4635
 3924TIP3    H111713   2.388   6.539   6.226  1.0630  0.6783  0.7914
 3924TIP3    H211714   2.344   6.597   6.359 -0.8172  1.5879 -0.1838
 3925TIP3   OH211715   7.451   4.832   0.821 -0.0988 -0.0885 -0.3352
 3925TIP3    H111716   7.428   4.804   0.733 -1.3010  0.9254 -0.3640
 3925TIP3    H211717   7.461   4.751   0.870 -0.8390 -0.6279 -1.0598
 3926TIP3   OH211718   0.739   1.478   4.131  0.1452 -0.4557  0.0928
 3926TIP3    H111719   0.821   1.451   4.171  0.2337 -0.3616 -0.0238
 3926TIP3    H211720   0.671   1.430   4.179  0.1162  0.7924  1.3847
 3927TIP3   OH211721   5.771   3.968   2.076  0.2084  0.1701 -0.1640
 3927TIP3    H111722   5.784   3.920   1.994 -0.0379 -1.1915  0.5498
 3927TIP3    H211723   5.770   3.899   2.143  0.8668  1.2880  1.0353
 3928TIP3   OH211724   6.966   4.351   0.401 -0.0140 -0.0376 -0.0673
 3928TIP3    H111725   6.883   4.381   0.438 -0.3281  0.8722 -1.4121
 3928TIP3    H211726   7.033   4.402   0.447 -0.0988 -1.3627  1.6028
 3929TIP3   OH211727   4.786   3.001   2.857 -0.1500  0.0231 -0.2459
 3929TIP3    H111728   4.698   3.037   2.864 -0.5857 -1.1538  0.5532
 3929TIP3    H211729   4.844   3.078   2.862 -0.9921  0.5905  2.2707
 3930TIP3   OH211730   1.757   7.091   4.391  1.1184 -0.0928  0.7233
 3930TIP3    H111731   1.696   7.083   4.465  1.6963  1.0581  1.3551
 3930TIP3    H211732   1.769   7.186   4.381  0.5344 -0.2032 -1.3026
 3931TIP3   OH211733   3.577   2.135   4.307  0.1498 -0.5220  0.2158
 3931TIP3    H111734   3.630   2.214   4.304  1.2320 -1.2015  0.6562
 3931TIP3    H211735   3.489   2.163   4.280  1.3169  0.1169 -3.4595
 3932TIP3   OH211736   3.625   6.213   6.400 -0.0006  0.1283  0.2418
 3932TIP3    H111737   3.573   6.137   6.427  0.5229  0.4752  2.4374
 3932TIP3    H211738   3.709   6.176   6.372 -0.1828 -0.1722  0.0846
 3933TIP3   OH211739   7.684   0.285   4.977  0.0333 -0.1554 -0.1176
 3933TIP3    H111740   7.659   0.324   4.894  0.1661  0.0311 -0.0735
 3933TIP3    H211741   7.766   0.330   5.000  0.3830 -0.7137 -0.2385
 3934TIP3   OH211742   0.069   4.865   4.850 -0.3328 -0.1836 -0.1782
 3934TIP3    H111743   0.078   4.951   4.890  2.8383 -0.5889  0.2187
 3934TIP3    H211744   0.133   4.810   4.895 -2.3061 -2.8186 -0.3555
 3935TIP3   OH211745   1.590   1.148   6.287 -0.4862  0.1841  0.0134
 3935TIP3    H111746   1.599   1.241   6.271  1.9024 -0.0802 -0.6179
 3935TIP3    H211747   1.677   1.112   6.269 -1.7849 -2.4472 -1.6566
 3936TIP3   OH211748   4.547   5.206   1.224 -0.0924 -0.2062  0.2414
 3936TIP3    H111749   4.482   5.135   1.218 -2.0142  1.5162 -0.4243
 3936TIP3    H211750   4.573   5.207   1.316  0.5859 -2.2256  0.1394
 3937TIP3   OH211751   7.184   1.858   4.653  0.2407  0.1157  0.5354
 3937TIP3    H111752   7.151   1.852   4.564  1.0199 -1.4910  0.3330
 3937TIP3    H211753   7.112   1.826   4.708 -0.4341  1.5862  0.5778
 3938TIP3   OH211754   0.342   2.863   1.339 -0.3075 -0.5978  0.1699
 3938TIP3    H111755   0.328   2.937   1.281  0.3444 -0.8112 -0.2739
 3938TIP3    H211756   0.424   2.883   1.385 -0.5313 -0.6857  0.6191
 3939TIP3   OH211757   6.656   4.824   1.962  0.2289 -0.5077  0.0135
 3939TIP3    H111758   6.675   4.838   2.054 -3.1580 -1.0818  0.9280
 3939TIP3    H211759   6.685   4.734   1.945  0.0470 -0.7189  0.7847
 3940TIP3   OH211760   8.195   7.759   2.108 -0.9520  0.0937  0.0019
 3940TIP3    H111761   8.160   7.670   2.111 -1.2697  0.2325  0.7426
 3940TIP3    H211762   8.276   7.752   2.059 -1.3755 -0.4637 -0.6332
 3941TIP3   OH211763   5.494   6.835   6.792  0.1881 -0.1200 -0.3887
 3941TIP3    H111764   5.480   6.930   6.785  0.4368  0.0330  0.8970
 3941TIP3    H211765   5.407   6.797   6.784 -0.1780  0.3698  0.9201
 3942TIP3   OH211766   0.898   2.591   0.813 -1.3204 -0.8691 -0.2838
 3942TIP3    H111767   0.813   2.598   0.857 -1.1496  0.4105 -0.1296
 3942TIP3    H211768   0.961   2.628   0.875 -1.0455  0.7906 -1.4937
 3943TIP3   OH211769   3.014   1.923   1.017 -0.5255 -0.0643 -0.3257
 3943TIP3    H111770   2.977   1.921   1.105  0.0644 -1.1097 -0.0830
 3943TIP3    H211771   2.943   1.893   0.960 -1.5852  2.5551 -0.5139
 3944TIP3   OH211772   1.937   0.839   2.248  0.0096 -0.0101 -0.2777
 3944TIP3    H111773   2.005   0.772   2.258 -0.9132 -0.9886 -0.3229
 3944TIP3    H211774   1.899   0.822   2.161  0.1848  0.9774 -0.5504
 3945TIP3   OH211775   6.566   4.926   3.098  0.5451 -0.2918 -0.1544
 3945TIP3    H111776   6.500   4.857   3.092 -1.0896  0.6804  3.7720
 3945TIP3    H211777   6.530   4.999   3.048  1.0956 -1.3747 -2.2067
 3946TIP3   OH211778   4.567   3.054   0.452  0.1745 -0.5222 -0.5044
 3946TIP3    H111779   4.637   3.102   0.496 -0.8203  1.2130 -0.7312
 3946TIP3    H211780   4.575   3.078   0.360 -1.3426  0.5649 -0.3876
 3947TIP3   OH211781   3.593   3.805   2.578 -0.1721  0.2676 -0.2702
 3947TIP3    H111782   3.588   3.711   2.593 -2.1436  0.2489 -0.7440
 3947TIP3    H211783   3.542   3.843   2.650 -0.3974  0.8773 -0.7422
 3948TIP3   OH211784   4.433   3.516   6.842 -0.0830  0.7358 -0.2286
 3948TIP3    H111785   4.402   3.558   6.761  1.0059  0.8028 -0.6187
 3948TIP3    H211786   4.523   3.491   6.823  0.4578  1.4821  1.2338
 3949TIP3   OH211787   2.333   6.049   0.898  0.0285 -0.1388 -0.5001
 3949TIP3    H111788   2.267   6.117   0.912  2.2961  1.9915  0.5314
 3949TIP3    H211789   2.325   6.028   0.804 -2.0950 -0.0614 -0.4049
 3950TIP3   OH211790   5.100   0.447   0.933  0.0162  0.2175  0.0008
 3950TIP3    H111791   5.110   0.537   0.904 -0.0801  0.2937  0.2071
 3950TIP3    H211792   5.166   0.436   1.002  0.3796 -0.0210 -0.3768
 3951TIP3   OH211793   4.306   4.996   4.970 -0.2156  0.1813 -0.4341
 3951TIP3    H111794   4.220   4.988   5.011  1.0622 -1.6653  2.1638
 3951TIP3    H211795   4.326   4.908   4.939 -0.3008  1.1416 -3.5256
 3952TIP3   OH211796   7.979   2.680   0.482 -0.2414 -0.2012 -0.0935
 3952TIP3    H111797   7.917   2.691   0.410 -1.1265  0.8505  0.8017
 3952TIP3    H211798   8.019   2.766   0.494  1.3216 -0.8145 -0.5523
 3953TIP3   OH211799   0.146   3.198   6.528 -0.0970 -0.4238 -0.3682
 3953TIP3    H111800   0.073   3.260   6.521 -1.7677 -2.2080  0.0923
 3953TIP3    H211801   0.114   3.132   6.590  2.3622 -0.7447  0.6594
 3954TIP3   OH211802   6.435   7.263   0.054 -0.3385 -0.2949  0.2225
 3954TIP3    H111803   6.398   7.176   0.065  0.3882 -0.6742 -0.2294
 3954TIP3    H211804   6.452   7.270  -0.040 -1.7817  0.9214  0.0223
 3955TIP3   OH211805   1.992   7.228   6.656  0.4149 -0.7264 -0.5333
 3955TIP3    H111806   1.928   7.186   6.599 -1.7206  1.2450  0.2775
 3955TIP3    H211807   2.058   7.264   6.597 -1.4496  0.7981 -1.7581
 3956TIP3   OH211808   3.398   5.866   1.067  0.2824 -0.1767 -0.0446
 3956TIP3    H111809   3.410   5.773   1.083  0.4869 -0.4028 -1.3860
 3956TIP3    H211810   3.304   5.877   1.055  0.4024 -0.5657 -1.6813
 3957TIP3   OH211811   7.664   4.046   1.441  0.0720 -0.7819  0.3064
 3957TIP3    H111812   7.590   4.102   1.416 -0.4240 -1.4918  0.1342
 3957TIP3    H211813   7.625   3.981   1.500  1.2008  0.8570  3.0413
 3958TIP3   OH211814   7.851   0.061   3.418 -0.0789  1.1637  0.0016
 3958TIP3    H111815   7.831   0.035   3.328  0.6483  0.7204 -0.0438
 3958TIP3    H211816   7.767   0.092   3.453  0.1101  3.9136 -1.6498
 3959TIP3   OH211817   6.676   2.285   2.317  0.1374 -0.0935  0.5614
 3959TIP3    H111818   6.673   2.201   2.272 -1.4479  1.0326 -1.6185
 3959TIP3    H211819   6.746   2.333   2.274 -0.2037  0.3604  0.5053
 3960TIP3   OH211820   5.096   7.097   5.231 -0.3025 -0.4196 -0.2041
 3960TIP3    H111821   5.037   7.164   5.267  0.7061 -0.2873  1.3069
 3960TIP3    H211822   5.182   7.121   5.264  0.2230 -1.9566 -0.3904
 3961TIP3   OH211823   6.194   3.745   3.230  0.2760  0.1948 -0.2646
 3961TIP3    H111824   6.247   3.810   3.276 -0.1544 -0.5271  1.3239
 3961TIP3    H211825   6.203   3.665   3.283 -0.1701 -0.6987 -1.5053
 3962TIP3   OH211826   0.816   1.830   3.938 -0.3300  0.1123 -0.0492
 3962TIP3    H111827   0.908   1.809   3.953 -0.1560  1.4787  1.0897
 3962TIP3    H211828   0.781   1.755   3.891  0.5935 -1.8892  2.2646
 3963TIP3   OH211829   0.821   4.953   1.364 -0.1989  0.4233 -0.0719
 3963TIP3    H111830   0.864   4.989   1.442  0.1622  0.2362 -0.1809
 3963TIP3    H211831   0.859   4.866   1.354  1.5982  1.3145 -1.8428
 3964TIP3   OH211832   3.634   7.784   6.181 -0.3301 -0.3658  0.1650
 3964TIP3    H111833   3.599   7.760   6.267  1.2555 -1.2070  0.6349
 3964TIP3    H211834   3.635   7.701   6.132  1.8031 -0.6110  0.5165
 3965TIP3   OH211835   5.204   1.431   1.796  0.0239  0.2764  0.4970
 3965TIP3    H111836   5.145   1.473   1.733 -2.1555  0.1038  2.2762
 3965TIP3    H211837   5.203   1.488   1.872  2.3428  0.3215  0.5579
 3966TIP3   OH211838   1.883   6.340   5.191 -0.0214 -0.3059 -0.3028
 3966TIP3    H111839   1.817   6.408   5.203 -1.3290 -1.5150 -0.4489
 3966TIP3    H211840   1.839   6.259   5.217  1.5325 -1.0927 -0.0195
 3967TIP3   OH211841   2.875   2.975   3.194  0.0217 -0.0394 -0.0539
 3967TIP3    H111842   2.816   3.026   3.138 -1.4212  1.3835  2.5832
 3967TIP3    H211843   2.945   3.037   3.217 -0.0660 -0.2073  0.6767
 3968TIP3   OH211844   3.663   7.798   4.423  0.0317  0.1711 -0.1828
 3968TIP3    H111845   3.607   7.867   4.459 -0.8040 -0.4464 -0.2629
 3968TIP3    H211846   3.614   7.717   4.439  0.4675 -0.2916 -1.1122
 3969TIP3   OH211847   3.819   2.721   1.582  1.0293 -0.0407 -1.0378
 3969TIP3    H111848   3.775   2.804   1.561 -0.7547  0.1516  2.6267
 3969TIP3    H211849   3.904   2.747   1.616  1.4284  0.0585 -2.0668
 3970TIP3   OH211850   5.010   0.697   4.101  0.7148  0.0742  0.0628
 3970TIP3    H111851   5.081   0.721   4.161 -0.6269  0.2188  1.6655
 3970TIP3    H211852   4.931   0.699   4.155 -0.7992  1.6080 -2.0323
 3971TIP3   OH211853   7.554   1.108   0.107 -0.0865 -0.4594  0.4590
 3971TIP3    H111854   7.552   1.021   0.146 -0.5103 -0.3654  0.6445
 3971TIP3    H211855   7.617   1.100   0.035  0.8705 -0.5706  1.2881
 3972TIP3   OH211856   7.310   2.678   1.117  0.3718 -0.6586  0.5530
 3972TIP3    H111857   7.227   2.673   1.164 -0.0266  1.1728  0.1212
 3972TIP3    H211858   7.301   2.615   1.046 -0.5205 -0.6938  0.6883
 3973TIP3   OH211859   3.279   7.193   2.256  0.4743  0.3219 -0.0782
 3973TIP3    H111860   3.216   7.253   2.216  0.1346 -0.5603 -0.9087
 3973TIP3    H211861   3.268   7.206   2.350 -0.9444  0.2109 -0.2006
 3974TIP3   OH211862   4.809   5.049   3.355  0.6399 -0.4592  0.2202
 3974TIP3    H111863   4.827   4.988   3.283 -1.2237 -1.2907  0.4024
 3974TIP3    H211864   4.879   5.033   3.418  0.3882 -2.1823  0.0989
 3975TIP3   OH211865   3.729   4.203   3.942  0.9095 -0.2012  0.2329
 3975TIP3    H111866   3.678   4.249   3.875  0.6065 -0.3581  0.3527
 3975TIP3    H211867   3.681   4.121   3.956 -0.3324  0.8124  2.3095
 3976TIP3   OH211868   4.371   6.378   2.366 -0.1141  0.0099  0.9108
 3976TIP3    H111869   4.371   6.424   2.282 -2.3243  1.2573  1.5072
 3976TIP3    H211870   4.407   6.292   2.346  1.9247  1.1511 -0.7451
 3977TIP3   OH211871   7.494   2.294   0.581 -0.1695 -0.3050 -0.3239
 3977TIP3    H111872   7.485   2.389   0.586  0.9428 -0.2382  1.5299
 3977TIP3    H211873   7.563   2.279   0.517  0.1435  0.1922 -0.1057
 3978TIP3   OH211874   4.577   6.333   5.084  0.0595  0.0677  0.8713
 3978TIP3    H111875   4.489   6.316   5.052  1.5267 -1.6705 -2.7725
 3978TIP3    H211876   4.582   6.429   5.091 -1.6745  0.2825 -0.2038
 3979TIP3   OH211877   4.017   5.478   5.943  0.5225 -0.7884  0.0181
 3979TIP3    H111878   4.033   5.449   6.033  0.1178  0.1375  0.4001
 3979TIP3    H211879   4.093   5.533   5.922 -0.3785  0.7346  0.5784
 3980TIP3   OH211880   5.258   0.152   0.606 -0.4184  0.5071 -0.0789
 3980TIP3    H111881   5.253   0.247   0.607 -1.3459  0.4749  0.5658
 3980TIP3    H211882   5.195   0.125   0.673  0.6694 -0.5285  0.5588
 3981TIP3   OH211883   4.799   7.203   0.678 -0.0634  0.0615 -0.3804
 3981TIP3    H111884   4.783   7.143   0.605 -0.8033  1.5765 -1.4946
 3981TIP3    H211885   4.715   7.207   0.724 -0.0302  0.2708 -0.3381
 3982TIP3   OH211886   8.272   6.958   0.336 -0.0744 -0.2549  0.1975
 3982TIP3    H111887   8.356   6.969   0.380  0.6296  0.1890 -1.1950
 3982TIP3    H211888   8.226   7.040   0.353 -0.6545 -0.8714  1.7777
 3983TIP3   OH211889   8.340   1.278   0.027 -0.0743  0.0958  0.5796
 3983TIP3    H111890   8.333   1.204   0.088 -1.8570  0.7637  1.2376
 3983TIP3    H211891   8.382   1.347   0.079  0.2337  0.0298  0.4210
 3984TIP3   OH211892   4.286   0.854   1.923 -0.5063 -0.0066  0.3617
 3984TIP3    H111893   4.258   0.884   2.009  0.5447  1.5554  0.2001
 3984TIP3    H211894   4.208   0.814   1.885 -0.7252 -1.7118  2.4206
 3985TIP3   OH211895   1.376   2.579   1.855  0.6761  0.9376  0.1573
 3985TIP3    H111896   1.465   2.592   1.889  0.4587  1.9115  0.3765
 3985TIP3    H211897   1.324   2.559   1.933  0.5178  1.3679  0.1636
 3986TIP3   OH211898   2.831   5.161   3.459 -0.0689  0.3920 -0.1339
 3986TIP3    H111899   2.879   5.110   3.393 -0.2119  0.2289 -0.1132
 3986TIP3    H211900   2.868   5.249   3.453 -0.1677  0.4087 -0.5207
 3987TIP3   OH211901   3.533   4.605   6.816 -0.7002  0.2384  0.4289
 3987TIP3    H111902   3.508   4.698   6.814 -1.6626 -0.0004  0.7280
 3987TIP3    H211903   3.591   4.597   6.891 -0.7213  0.5778  0.4836
 3988TIP3   OH211904   5.917   2.503   2.186  0.2207 -0.2139 -0.0351
 3988TIP3    H111905   5.950   2.583   2.228 -0.7132  1.8060 -2.8637
 3988TIP3    H211906   5.876   2.454   2.257  0.0011  2.2498  1.6625
 3989TIP3   OH211907   5.323   3.629   6.029  0.6872 -0.2260 -0.5022
 3989TIP3    H111908   5.286   3.651   5.944 -1.3878 -1.6439 -0.0437
 3989TIP3    H211909   5.331   3.712   6.074  0.1489  0.3675 -1.4622
 3990TIP3   OH211910   7.267   7.906   5.131  0.0527  0.2249 -0.1201
 3990TIP3    H111911   7.262   7.947   5.045  0.5355 -0.7792 -0.6402
 3990TIP3    H211912   7.192   7.847   5.134 -1.2552  1.8260  1.0359
 3991TIP3   OH211913   3.487   6.316   5.062 -0.4420 -0.4353 -0.1564
 3991TIP3    H111914   3.514   6.270   5.142 -0.3615 -1.9391 -1.0114
 3991TIP3    H211915   3.563   6.313   5.005 -0.5558  0.4796 -0.3730
 3992TIP3   OH211916   1.373   4.028   5.439  0.8291 -0.2418  0.5286
 3992TIP3    H111917   1.456   4.065   5.469  2.5124 -0.9703 -2.7487
 3992TIP3    H211918   1.397   3.946   5.396 -1.9343 -1.6272  1.3521
 3993TIP3   OH211919   0.175   2.984   2.895 -0.2625 -0.5049 -0.5271
 3993TIP3    H111920   0.117   2.980   2.971  0.2043  1.3434 -0.0291
 3993TIP3    H211921   0.172   2.896   2.859 -1.2339 -1.1869  1.0794
 3994TIP3   OH211922   3.865   6.827   1.945  0.4280  0.4698 -0.5020
 3994TIP3    H111923   3.924   6.752   1.952 -0.4105 -0.3135 -1.4376
 3994TIP3    H211924   3.788   6.801   1.995  0.9361  1.6016  0.9595
 3995TIP3   OH211925   5.820   2.605   3.160 -0.5383 -0.3554  0.4119
 3995TIP3    H111926   5.784   2.625   3.247  2.9773 -1.0450  2.1945
 3995TIP3    H211927   5.835   2.690   3.121 -1.2481 -0.0095  0.8564
 3996TIP3   OH211928   4.696   4.610   0.876 -0.1478  0.5961  0.1087
 3996TIP3    H111929   4.755   4.652   0.937  0.6501 -0.3977  0.0571
 3996TIP3    H211930   4.635   4.561   0.931  1.0813 -0.9746  0.1438
 3997TIP3   OH211931   2.652   0.333   5.360  0.4017 -0.1996  0.3998
 3997TIP3    H111932   2.578   0.296   5.408  1.7316 -1.4110  1.6122
 3997TIP3    H211933   2.716   0.356   5.428  0.8560  1.5623 -0.5485
 3998TIP3   OH211934   4.513   4.312   2.546 -0.1710 -0.0382  0.2090
 3998TIP3    H111935   4.482   4.401   2.528 -1.4170 -0.5621 -0.3054
 3998TIP3    H211936   4.465   4.285   2.624  1.1923  0.2011  1.1699
 3999TIP3   OH211937   0.879   5.143   2.216  0.5351 -0.2300  0.0001
 3999TIP3    H111938   0.861   5.120   2.307  0.3029  1.0741  0.3141
 3999TIP3    H211939   0.961   5.192   2.220 -0.8571  2.3119 -0.0274
 4000TIP3   OH211940   3.856   2.704   3.505 -0.0957  0.1507  0.0076
 4000TIP3    H111941   3.919   2.672   3.441  1.5643 -0.0295  1.6519
 4000TIP3    H211942   3.892   2.788   3.534 -0.8654  0.2765  0.6251
 4001TIP3   OH211943   4.909   5.323   2.224  0.0122  0.2028  0.4134
 4001TIP3    H111944   4.918   5.416   2.201 -1.9977  0.2537 -0.3495
 4001TIP3    H211945   4.815   5.311   2.238  0.4500 -1.3196  2.3555
 4002TIP3   OH211946   5.816   7.688   3.876  0.0291  0.0878  0.7207
 4002TIP3    H111947   5.721   7.697   3.865  0.2862  1.2259 -0.9620
 4002TIP3    H211948   5.835   7.735   3.957 -0.7982  0.0618  0.9430
 4003TIP3   OH211949   2.056   3.671   1.285  0.5006  0.3644  0.0769
 4003TIP3    H111950   2.083   3.698   1.373  2.4266 -0.7382 -0.1261
 4003TIP3    H211951   1.997   3.596   1.300 -0.0824  0.8877  0.4421
 4004TIP3   OH211952   1.849   6.658   2.268 -0.1107  0.5718  0.2160
 4004TIP3    H111953   1.759   6.667   2.238 -0.2772  1.4185  0.9408
 4004TIP3    H211954   1.893   6.613   2.196 -0.9783  0.6633 -0.3928
 4005TIP3   OH211955   5.890   7.821   1.559 -1.0969  0.2639 -0.1707
 4005TIP3    H111956   5.830   7.815   1.633 -0.2305 -1.0787  0.4828
 4005TIP3    H211957   5.872   7.742   1.507 -1.5400  1.0780 -1.2871
 4006TIP3   OH211958   5.369   6.527   1.246 -0.0053  0.0096 -0.4317
 4006TIP3    H111959   5.398   6.619   1.250 -4.0662  1.4690  0.5972
 4006TIP3    H211960   5.317   6.522   1.166  0.6331 -1.6027 -0.7797
 4007TIP3   OH211961   2.496   1.688   3.866 -0.4124  0.5499  0.3484
 4007TIP3    H111962   2.404   1.674   3.888 -0.4703 -0.1515 -0.3105
 4007TIP3    H211963   2.502   1.668   3.773  1.0593 -3.0487  1.0407
 4008TIP3   OH211964   4.000   3.725   5.771  0.0942 -0.1142  0.8361
 4008TIP3    H111965   4.084   3.680   5.763 -0.1965 -0.3852 -1.1746
 4008TIP3    H211966   3.943   3.661   5.812  0.3521 -0.6779  0.3361
 4009TIP3   OH211967   3.238   7.251   1.896  0.1671  0.5701  0.4803
 4009TIP3    H111968   3.202   7.174   1.940  0.6717 -0.1370 -0.3154
 4009TIP3    H211969   3.326   7.260   1.933  0.7643 -0.2989 -0.6813
 4010TIP3   OH211970   0.699   7.689   4.479 -0.2271  0.0570  0.3302
 4010TIP3    H111971   0.693   7.739   4.397 -1.1415 -1.5433 -0.6279
 4010TIP3    H211972   0.678   7.753   4.547 -1.1150  1.0628 -0.8386
 4011TIP3   OH211973   1.706   7.228   1.796 -0.0309  0.3323 -0.0402
 4011TIP3    H111974   1.681   7.193   1.710 -0.0584 -4.7294  1.7069
 4011TIP3    H211975   1.638   7.293   1.816 -1.4256 -0.1114 -2.7913
 4012TIP3   OH211976   4.886   5.657   4.098 -0.0100 -0.4848 -0.3930
 4012TIP3    H111977   4.843   5.705   4.027  0.6577 -0.3575 -0.7251
 4012TIP3    H211978   4.952   5.719   4.132  1.1511 -1.2928 -1.1025
 4013TIP3   OH211979   2.423   7.574   1.715 -0.1690 -0.2290 -0.5724
 4013TIP3    H111980   2.358   7.604   1.651 -1.8217 -0.6260  0.8598
 4013TIP3    H211981   2.444   7.485   1.688  1.6002  0.6657 -2.3955
 4014TIP3   OH211982   1.870   6.074   2.935  0.2647  0.2628  0.4057
 4014TIP3    H111983   1.944   6.119   2.977  0.0015  0.2616  0.8774
 4014TIP3    H211984   1.811   6.053   3.008 -0.1502  0.1715  0.0434
 4015TIP3   OH211985   7.318   4.210   1.918  0.4680  0.5981  0.3533
 4015TIP3    H111986   7.236   4.186   1.959  0.7912 -0.9176  0.1562
 4015TIP3    H211987   7.348   4.287   1.967  0.0976 -0.2390  1.9750
 4016TIP3   OH211988   5.088   2.367   3.202 -0.2937  0.0443 -0.7581
 4016TIP3    H111989   5.109   2.455   3.173 -0.6010 -0.2973 -2.0823
 4016TIP3    H211990   5.049   2.325   3.126 -0.9543 -0.9693  0.0984
 4017TIP3   OH211991   3.596   3.664   5.655  0.2951  0.0169 -0.2359
 4017TIP3    H111992   3.643   3.739   5.618 -2.1651  1.6408 -0.2833
 4017TIP3    H211993   3.517   3.656   5.602 -0.3954 -1.4460  0.9290
 4018TIP3   OH211994   2.743   4.139   3.122  0.2037  0.2241 -0.5561
 4018TIP3    H111995   2.662   4.185   3.099 -0.6761 -0.4466  1.0104
 4018TIP3    H211996   2.768   4.092   3.043  1.1986  3.3561 -2.2772
 4019TIP3   OH211997   4.190   2.612   0.750  0.2985  0.1112 -0.2548
 4019TIP3    H111998   4.215   2.526   0.717 -1.0941 -1.3143  2.1442
 4019TIP3    H211999   4.255   2.632   0.816  0.3134  0.6813 -0.4352
 4020TIP3   OH212000   5.391   7.304   0.555 -0.0850  0.3224  0.2875
 4020TIP3    H112001   5.417   7.341   0.639 -1.3387  0.6950  0.5436
 4020TIP3    H212002   5.367   7.214   0.576 -1.0957  0.6186  0.5053
 4021TIP3   OH212003   2.337   6.416   4.473  0.7359  0.6047 -0.2118
 4021TIP3    H112004   2.392   6.493   4.479  2.0201 -0.2071 -1.0036
 4021TIP3    H212005   2.386   6.356   4.417 -1.5652  0.3462 -2.1055
 4022TIP3   OH212006   4.887   0.167   0.108 -0.1490 -0.1236  0.2041
 4022TIP3    H112007   4.982   0.162   0.100 -0.1396  0.0721  0.2006
 4022TIP3    H212008   4.854   0.127   0.026 -0.0861 -1.1732  0.6691
 4023TIP3   OH212009   1.875   3.422   3.639  0.1987 -0.2295 -0.1489
 4023TIP3    H112010   1.930   3.468   3.702 -1.0298  0.8724  0.1755
 4023TIP3    H212011   1.923   3.426   3.557  0.5650  0.8135  0.1009
 4024TIP3   OH212012   6.365   6.398   2.290  0.0647 -0.2734  0.6296
 4024TIP3    H112013   6.323   6.322   2.330 -0.0678  0.0822  1.1750
 4024TIP3    H212014   6.413   6.440   2.361  1.9932 -1.0940 -0.1149
 4025TIP3   OH212015   4.753   0.859   0.638  0.5564 -0.7950 -0.2358
 4025TIP3    H112016   4.790   0.782   0.681 -0.8534 -3.0740 -2.8462
 4025TIP3    H212017   4.748   0.836   0.546  0.9156  2.8340 -1.3293
 4026TIP3   OH212018   6.998   0.775   2.782  0.2813 -0.2282 -0.3651
 4026TIP3    H112019   7.064   0.844   2.776  0.4199 -0.3008  0.1950
 4026TIP3    H212020   7.045   0.694   2.760  0.4886 -0.3319  0.4028
 4027TIP3   OH212021   2.317   6.032   6.021 -0.1459  0.6615 -0.5894
 4027TIP3    H112022   2.349   5.947   6.051  0.3947  1.6108  1.7487
 4027TIP3    H212023   2.225   6.017   6.001 -0.4656 -0.1871  1.2777
 4028TIP3   OH212024   0.557   5.738   3.843  0.4263 -0.2766  0.8772
 4028TIP3    H112025   0.558   5.680   3.767 -0.4784 -0.4489  0.9926
 4028TIP3    H212026   0.581   5.824   3.808 -1.0292 -0.1253  0.1869
 4029TIP3   OH212027   4.036   1.001   1.205  0.4965 -0.2370  0.1094
 4029TIP3    H112028   3.996   0.964   1.284 -1.2255 -0.2191 -0.7037
 4029TIP3    H212029   3.978   1.074   1.181  0.3506 -0.9133 -1.7482
 4030TIP3   OH212030   7.518   1.576   4.530 -0.1280  0.3568 -0.1418
 4030TIP3    H112031   7.435   1.529   4.536  0.1775 -0.0232  2.6687
 4030TIP3    H212032   7.493   1.668   4.525 -0.6839  0.1657 -1.3836
 4031TIP3   OH212033   1.890   3.754   3.539  0.3688  0.2973  0.4700
 4031TIP3    H112034   1.880   3.678   3.483 -0.6229  0.5275  0.3209
 4031TIP3    H212035   1.930   3.821   3.483  0.9211  0.0079  0.5087
 4032TIP3   OH212036   4.681   0.168   4.135 -0.2122 -0.2103  0.0863
 4032TIP3    H112037   4.748   0.233   4.113 -0.0638  0.5821  2.5716
 4032TIP3    H212038   4.722   0.084   4.116 -0.1335  0.3177 -2.4768
 4033TIP3   OH212039   3.719   4.512   6.607 -0.1053 -0.1103 -0.1998
 4033TIP3    H112040   3.796   4.545   6.652 -1.7462  1.4019  1.6974
 4033TIP3    H212041   3.655   4.497   6.677 -1.5320 -1.3566 -1.6899
 4034TIP3   OH212042   4.711   0.950   4.069 -0.0549 -0.4286 -0.1657
 4034TIP3    H112043   4.644   0.995   4.121 -1.1351  0.9912 -2.5984
 4034TIP3    H212044   4.772   0.915   4.133 -0.2384  2.8158  2.0208
 4035TIP3   OH212045   1.147   6.243   4.652  0.3119 -0.4196  0.0410
 4035TIP3    H112046   1.220   6.190   4.620  0.2388 -1.1773  1.1174
 4035TIP3    H212047   1.076   6.225   4.590  0.6782 -0.5551 -0.3502
 4036TIP3   OH212048   6.081   5.546   0.046 -0.4318  0.1255 -0.1512
 4036TIP3    H112049   6.139   5.561  -0.029 -1.4313  2.1458 -0.5721
 4036TIP3    H212050   6.100   5.617   0.107 -0.8902 -0.4824  0.7331
 4037TIP3   OH212051   4.033   0.347   4.898 -0.3658 -0.2135 -0.5069
 4037TIP3    H112052   4.117   0.392   4.907  0.6377 -1.8596 -1.2710
 4037TIP3    H212053   4.025   0.331   4.804 -3.2415  2.9602 -1.0071
 4038TIP3   OH212054   2.241   5.862   3.406  0.1050  0.1729 -0.7124
 4038TIP3    H112055   2.156   5.859   3.363  0.0401 -1.2408 -0.5409
 4038TIP3    H212056   2.283   5.940   3.371 -1.6560  1.5024 -0.0039
 4039TIP3   OH212057   4.390   3.054   2.298 -0.0505 -0.2429 -0.4230
 4039TIP3    H112058   4.415   3.142   2.270  0.3185 -0.4513 -0.7533
 4039TIP3    H212059   4.445   3.037   2.375 -1.6083  0.6368  0.9635
 4040TIP3   OH212060   5.362   6.519   3.746  0.9612  0.1205  0.6796
 4040TIP3    H112061   5.324   6.599   3.783  2.0355  0.7737  0.4104
 4040TIP3    H212062   5.287   6.462   3.731 -0.1003  1.8163 -0.9351
 4041TIP3   OH212063   7.915   0.312   1.707 -0.0172  0.2094 -0.0751
 4041TIP3    H112064   7.998   0.282   1.745  1.3604 -1.0951 -3.6789
 4041TIP3    H212065   7.861   0.233   1.702  0.5610 -0.1063 -2.3425
 4042TIP3   OH212066   6.124   5.195   0.899  0.3710  0.0641 -0.6890
 4042TIP3    H112067   6.103   5.102   0.903  1.4417 -0.1337  1.4847
 4042TIP3    H212068   6.214   5.197   0.865  0.7439  0.2193  0.2868
 4043TIP3   OH212069   3.539   5.139   2.302  0.0603 -0.3483  0.1789
 4043TIP3    H112070   3.471   5.201   2.328  1.6880  1.2824  0.7337
 4043TIP3    H212071   3.593   5.129   2.380  1.3715 -0.3479 -0.7105
 4044TIP3   OH212072   2.544   4.942   2.736 -0.4678 -0.1029 -0.4201
 4044TIP3    H112073   2.608   4.881   2.698 -1.2012 -0.5226 -1.0223
 4044TIP3    H212074   2.477   4.951   2.668  0.0829  2.1510 -0.7382
 4045TIP3   OH212075   7.165   6.250   6.316 -0.1710 -0.0280 -0.2588
 4045TIP3    H112076   7.079   6.243   6.357 -0.0612 -0.9759 -0.1671
 4045TIP3    H212077   7.220   6.188   6.364  0.5624  0.5528 -0.3333
 4046TIP3   OH212078   2.829   0.216   0.431 -0.0061  0.2562 -0.5090
 4046TIP3    H112079   2.841   0.270   0.353 -0.8569  1.0304 -0.1325
 4046TIP3    H212080   2.737   0.189   0.427  0.1351 -0.2898 -0.1400
 4047TIP3   OH212081   0.078   0.799   4.075 -0.3040 -0.0725 -0.2428
 4047TIP3    H112082   0.139   0.744   4.124 -1.0090 -0.4773  0.1852
 4047TIP3    H212083   0.047   0.744   4.004 -1.1570 -0.3038  0.2972
 4048TIP3   OH212084   1.082   6.185   2.113 -0.2566 -0.1792  0.3254
 4048TIP3    H112085   1.077   6.145   2.026 -1.3301  1.7170 -0.5379
 4048TIP3    H212086   1.025   6.261   2.108 -1.1057 -0.5230  3.0068
 4049TIP3   OH212087   4.084   0.558   3.992  0.1306  0.6109  0.0764
 4049TIP3    H112088   4.013   0.531   4.050  0.1469  1.8075  0.6666
 4049TIP3    H212089   4.113   0.476   3.951 -0.5308 -0.1116  1.0058
 4050TIP3   OH212090   6.910   5.650   3.546 -0.2019 -0.0703  0.6598
 4050TIP3    H112091   6.853   5.655   3.469  0.1125 -0.7217  0.3817
 4050TIP3    H212092   6.869   5.585   3.603 -0.6897  0.7473  1.2709
 4051TIP3   OH212093   7.804   0.185   6.383  0.0284 -0.4404  0.1710
 4051TIP3    H112094   7.864   0.168   6.311  1.2796 -0.9866  1.3028
 4051TIP3    H212095   7.852   0.159   6.462 -1.2514  0.2466  1.2270
 4052TIP3   OH212096   0.068   7.259   3.357 -0.6756 -0.1868  0.1183
 4052TIP3    H112097   0.160   7.236   3.351 -0.8985 -1.0070 -0.4233
 4052TIP3    H212098   0.067   7.352   3.380  0.2786 -0.1560  0.0559
 4053TIP3   OH212099   5.273   2.451   0.401 -0.2602  0.4636 -0.0938
 4053TIP3    H112100   5.297   2.360   0.388 -0.6491  0.1728  1.1715
 4053TIP3    H212101   5.349   2.490   0.444 -0.0824  0.7552 -0.6573
 4054TIP3   OH212102   4.738   0.187   2.017 -0.2838 -0.5249  0.0089
 4054TIP3    H112103   4.800   0.259   2.004  1.5440 -1.6027  2.1301
 4054TIP3    H212104   4.750   0.132   1.940 -0.1169  0.3218 -0.5863
 4055TIP3   OH212105   3.612   1.066   1.414  0.1321  0.1336  0.1160
 4055TIP3    H112106   3.595   1.158   1.390 -1.6443 -0.0273  0.6335
 4055TIP3    H212107   3.591   1.016   1.335 -0.0740  0.0651  0.2158
 4056TIP3   OH212108   6.792   2.241   4.759  0.9807  0.7094  0.0113
 4056TIP3    H112109   6.791   2.198   4.845 -1.6810  1.2695  0.3609
 4056TIP3    H212110   6.782   2.170   4.696 -0.9968  0.5389  0.4481
 4057TIP3   OH212111   6.157   7.333   3.854  0.2437 -0.1155 -0.3838
 4057TIP3    H112112   6.195   7.248   3.876  1.3934  0.4225 -0.2350
 4057TIP3    H212113   6.068   7.329   3.888  0.6555 -0.8463  0.6648
 4058TIP3   OH212114   8.228   2.188   1.318 -0.5361 -0.0872  0.6826
 4058TIP3    H112115   8.246   2.260   1.377  1.5407 -0.2761  0.3577
 4058TIP3    H212116   8.194   2.229   1.239  0.4918  0.5586  0.5564
 4059TIP3   OH212117   6.911   1.737   5.535 -0.1822  0.0136 -0.6924
 4059TIP3    H112118   6.967   1.810   5.563  0.1921 -0.1546 -0.9865
 4059TIP3    H212119   6.856   1.774   5.467 -0.4526  0.1883 -0.3813
 4060TIP3   OH212120   4.543   2.584   6.403  0.6808 -0.0797  0.2143
 4060TIP3    H112121   4.611   2.618   6.344 -0.3310  0.6156 -0.5809
 4060TIP3    H212122   4.462   2.590   6.353 -0.3200  1.0579  1.8491
 4061TIP3   OH212123   0.844   5.102   3.892  0.3649 -0.6192 -0.1882
 4061TIP3    H112124   0.800   5.025   3.856 -1.5993  0.1558  0.4041
 4061TIP3    H212125   0.800   5.177   3.851  0.1823  0.2137  1.4333
 4062TIP3   OH212126   0.050   4.851   6.355  0.0851 -0.2689 -0.2470
 4062TIP3    H112127   0.009   4.859   6.441 -1.7180 -1.4387 -0.9366
 4062TIP3    H212128  -0.022   4.863   6.293  1.1663 -0.3924 -1.5842
 4063TIP3   OH212129   6.777   3.182   2.666 -1.0304  0.4448 -0.0969
 4063TIP3    H112130   6.832   3.254   2.635 -0.0892  0.1995  0.9338
 4063TIP3    H212131   6.688   3.211   2.649 -0.7331  2.3889  1.3374
 4064TIP3   OH212132   6.882   2.596   0.928 -0.2010 -0.5828  0.2775
 4064TIP3    H112133   6.815   2.544   0.972  1.0459 -0.2275  2.7362
 4064TIP3    H212134   6.936   2.532   0.881 -0.4448 -1.1732  0.8013
 4065TIP3   OH212135   6.780   1.182   5.689  0.3133  0.4443 -0.3978
 4065TIP3    H112136   6.866   1.217   5.664 -0.4613  1.2032 -2.1519
 4065TIP3    H212137   6.720   1.256   5.677 -1.1956 -1.0766 -3.0683
 4066TIP3   OH212138   4.458   2.420   5.718 -0.0466  0.1974  0.0320
 4066TIP3    H112139   4.449   2.374   5.801  0.8076  0.0274  0.0399
 4066TIP3    H212140   4.414   2.504   5.733  1.4470  0.8234  1.2044
 4067TIP3   OH212141   4.810   3.834   5.850  0.2191 -0.9682 -0.0422
 4067TIP3    H112142   4.893   3.839   5.802  0.4432 -0.3078  0.3967
 4067TIP3    H212143   4.831   3.784   5.929  0.9461  1.5949  1.4996
 4068TIP3   OH212144   5.463   5.038   4.814 -0.1710 -0.3079 -0.2531
 4068TIP3    H112145   5.401   4.983   4.863  0.3082  2.2228  3.6555
 4068TIP3    H212146   5.549   5.005   4.839  0.1575 -0.9712 -2.1031
 4069TIP3   OH212147   5.811   0.646   3.573  0.3157  0.0456 -0.2928
 4069TIP3    H112148   5.771   0.604   3.649  0.1524 -0.9557 -0.9199
 4069TIP3    H212149   5.743   0.702   3.537  0.1198 -0.1338 -0.2011
 4070TIP3   OH212150   1.445   2.870   3.863 -0.0488 -0.0863 -0.8079
 4070TIP3    H112151   1.389   2.947   3.873  0.0235 -0.1232 -0.1353
 4070TIP3    H212152   1.497   2.889   3.785  0.1138  0.6363 -0.5320
 4071TIP3   OH212153   6.455   5.586   3.137  0.1006 -0.1053  1.0057
 4071TIP3    H112154   6.465   5.509   3.194  0.8174  0.1645  1.2590
 4071TIP3    H212155   6.450   5.549   3.049 -1.0118 -0.5247  1.2372
 4072TIP3   OH212156   0.332   5.225   2.193  0.5961  0.3572  0.6193
 4072TIP3    H112157   0.425   5.203   2.182  0.6626 -0.4624  2.4333
 4072TIP3    H212158   0.321   5.232   2.288 -1.3729 -0.3583  0.4753
 4073TIP3   OH212159   0.101   1.284   3.615  0.4057  0.3263  0.1928
 4073TIP3    H112160   0.060   1.269   3.700 -0.2645  0.4708 -0.0985
 4073TIP3    H212161   0.075   1.209   3.562  1.7453 -0.3380  0.4382
 4074TIP3   OH212162   6.112   6.556   1.532 -0.2448 -0.2163 -0.3623
 4074TIP3    H112163   6.066   6.487   1.579 -0.7541 -0.8109 -1.6862
 4074TIP3    H212164   6.096   6.537   1.440  2.2130 -0.1380 -0.8781
 4075TIP3   OH212165   7.511   2.845   2.527  0.2947 -0.2151 -0.9356
 4075TIP3    H112166   7.422   2.876   2.543  0.5131 -0.4937  1.0407
 4075TIP3    H212167   7.549   2.833   2.614  3.0871  2.1987 -1.6593
 4076TIP3   OH212168   1.117   4.707   2.545 -0.5540 -0.2536 -0.0778
 4076TIP3    H112169   1.178   4.648   2.590 -1.2277 -0.8527  0.0693
 4076TIP3    H212170   1.163   4.731   2.465  0.0411 -0.3778  0.2155
 4077TIP3   OH212171   4.646   5.846   4.987 -0.5249 -0.1101  0.2703
 4077TIP3    H112172   4.628   5.793   5.065 -0.4517  0.2746  0.5465
 4077TIP3    H212173   4.715   5.906   5.014 -0.5172  0.0416 -0.0856
 4078TIP3   OH212174   7.546   2.184   2.413 -0.0195 -0.7882  0.2872
 4078TIP3    H112175   7.599   2.262   2.396 -0.9427  0.0190  0.9509
 4078TIP3    H212176   7.484   2.212   2.481 -0.0128 -2.2742  0.9440
 4079TIP3   OH212177   1.801   0.557   5.644 -0.1728  0.1760 -0.5626
 4079TIP3    H112178   1.720   0.577   5.691 -0.5723  0.0956 -1.2189
 4079TIP3    H212179   1.777   0.492   5.579  0.5321 -0.2504 -0.4066
 4080TIP3   OH212180   7.297   2.704   6.055  0.2566 -0.3003  0.4728
 4080TIP3    H112181   7.268   2.635   6.115  0.1670  0.1492  0.9543
 4080TIP3    H212182   7.221   2.761   6.045  0.0501 -0.7389 -0.6172
 4081TIP3   OH212183   5.684   1.760   5.964  0.3917 -0.4758 -0.3202
 4081TIP3    H112184   5.701   1.826   6.031 -2.3199  0.8598 -0.8030
 4081TIP3    H212185   5.697   1.677   6.009  1.4955  0.3713  1.0108
 4082TIP3   OH212186   8.197   7.240   0.433  1.1197  0.1828  0.5161
 4082TIP3    H112187   8.237   7.272   0.515  1.0716 -0.4713  0.7972
 4082TIP3    H212188   8.271   7.224   0.375  1.3835 -1.9944  1.3751
 4083TIP3   OH212189   4.245   0.791   5.798  0.3738  0.2810  0.4564
 4083TIP3    H112190   4.231   0.870   5.747  0.1279  0.1450  0.3161
 4083TIP3    H212191   4.332   0.803   5.836  0.8278  0.0995 -0.4958
 4084TIP3   OH212192   4.463   3.279   4.771 -0.1073  0.4747  0.0031
 4084TIP3    H112193   4.386   3.241   4.813 -0.3660  0.7540 -0.2131
 4084TIP3    H212194   4.483   3.357   4.824  0.2358  0.2132  0.2630
 4085TIP3   OH212195   7.950   3.155   1.042 -0.0056 -0.3724 -0.2862
 4085TIP3    H112196   7.940   3.241   1.084 -0.5564 -0.3376 -0.4733
 4085TIP3    H212197   7.955   3.093   1.115 -2.7682 -0.5138 -0.1211
 4086TIP3   OH212198   4.684   4.349   1.631 -0.2390 -0.6143  0.4563
 4086TIP3    H112199   4.594   4.376   1.615 -0.0724 -0.5738 -0.4386
 4086TIP3    H212200   4.733   4.383   1.556  0.2098 -2.1876  0.0010
 4087TIP3   OH212201   4.987   3.972   2.641  0.4276 -0.7544 -0.1025
 4087TIP3    H112202   4.972   4.061   2.607  1.5092 -1.6951 -3.3781
 4087TIP3    H212203   4.977   3.981   2.736 -0.4641  2.6499 -0.3846
 4088TIP3   OH212204   4.809   5.888   0.137  0.6041  0.1982 -0.5469
 4088TIP3    H112205   4.784   5.951   0.069  0.4521  0.4729 -0.2392
 4088TIP3    H212206   4.850   5.817   0.089 -0.4065 -0.0807 -1.0439
 4089TIP3   OH212207   3.582   5.803   1.813 -0.6026  0.2595  0.4283
 4089TIP3    H112208   3.495   5.766   1.826  0.0132 -2.3296 -1.9791
 4089TIP3    H212209   3.569   5.898   1.821 -3.3154 -0.1045  1.5054
 4090TIP3   OH212210   2.646   2.923   6.816  0.0843  0.2546 -0.2400
 4090TIP3    H112211   2.573   2.967   6.861  1.0174  1.0359  0.5653
 4090TIP3    H212212   2.606   2.882   6.740 -1.1049  1.1603 -0.1358
 4091TIP3   OH212213   1.191   4.439   1.981 -0.6560 -0.1339  0.2591
 4091TIP3    H112214   1.131   4.512   1.968  0.9086  1.2818  0.7105
 4091TIP3    H212215   1.229   4.453   2.067  1.3782 -0.1612 -0.5731
 4092TIP3   OH212216   7.520   3.024   5.457 -0.1736 -0.2022  0.1773
 4092TIP3    H112217   7.452   2.959   5.475 -2.2738  1.5918 -0.6549
 4092TIP3    H212218   7.501   3.053   5.368  2.5277 -0.4949 -0.5597
 4093TIP3   OH212219   3.352   4.017   2.554 -0.2569  0.2863  0.2107
 4093TIP3    H112220   3.419   3.984   2.613 -0.6822 -1.8221 -0.3966
 4093TIP3    H212221   3.301   3.940   2.530 -1.4774  1.4506 -1.1527
 4094TIP3   OH212222   4.473   5.962   0.184 -0.1064 -0.6139 -0.1273
 4094TIP3    H112223   4.525   5.884   0.200 -0.2113 -0.8251 -0.7890
 4094TIP3    H212224   4.537   6.032   0.172  0.0160 -0.7595 -0.3442
 4095TIP3   OH212225   6.431   3.536   2.465 -0.7273 -0.0295 -0.2793
 4095TIP3    H112226   6.467   3.451   2.440 -0.7009 -0.7001  1.8918
 4095TIP3    H212227   6.336   3.525   2.456 -0.6539  0.4150 -1.9791
 4096TIP3   OH212228   4.105   7.010   0.978 -0.3153 -0.1156  0.2213
 4096TIP3    H112229   4.128   7.079   1.041 -1.8612  0.6119  0.0319
 4096TIP3    H212230   4.031   7.046   0.929  0.2111 -1.0690 -1.3536
 4097TIP3   OH212231   5.182   3.016   2.678 -0.2719 -0.2016 -0.3663
 4097TIP3    H112232   5.194   3.091   2.736 -0.5658 -0.7098  0.3651
 4097TIP3    H212233   5.269   2.999   2.642 -0.1151  0.1973 -0.1773
 4098TIP3   OH212234   3.835   6.055   1.539  0.3764  0.3869  1.0100
 4098TIP3    H112235   3.822   5.974   1.489  1.7107  1.8832 -2.0097
 4098TIP3    H212236   3.874   6.026   1.622 -0.1534 -2.1094  0.4699
 4099TIP3   OH212237   3.129   6.576   0.674  0.2051 -0.0187  0.3192
 4099TIP3    H112238   3.170   6.662   0.685 -0.6586  0.4849 -0.2805
 4099TIP3    H212239   3.134   6.560   0.579  2.2618 -1.6115  0.6105
 4100TIP3   OH212240   3.407   6.277   1.607  0.4757 -0.6013  0.5763
 4100TIP3    H112241   3.356   6.197   1.591 -0.6120  0.1371  0.2508
 4100TIP3    H212242   3.384   6.303   1.696  1.5499 -1.1496  1.0278
 4101TIP3   OH212243   7.751   0.592   6.792 -0.5957  0.7466  0.7183
 4101TIP3    H112244   7.844   0.601   6.815 -0.6879  1.2357  0.9018
 4101TIP3    H212245   7.740   0.647   6.715 -0.1637 -1.2947 -0.9029
 4102TIP3   OH212246   5.916   1.367   5.501 -0.0046 -0.0324  0.0236
 4102TIP3    H112247   5.871   1.283   5.511 -0.4584  0.1648 -0.3304
 4102TIP3    H212248   5.911   1.407   5.587  2.5442 -1.4959  0.9503
 4103TIP3   OH212249   4.456   4.963   2.035 -0.0762  0.4417 -0.2149
 4103TIP3    H112250   4.549   4.952   2.017 -0.4452 -0.4405 -1.7469
 4103TIP3    H212251   4.441   5.057   2.023  0.4103  0.4185 -1.0886
 4104TIP3   OH212252   6.222   4.050   4.072  0.0822 -0.4531  0.5449
 4104TIP3    H112253   6.223   3.982   4.004  0.2712  0.2609 -0.1776
 4104TIP3    H212254   6.288   4.023   4.134 -1.4337 -2.1676  1.5134
 4105TIP3   OH212255   7.662   4.880   4.471  0.4202 -0.7670 -0.1972
 4105TIP3    H112256   7.679   4.812   4.406 -0.4187 -0.9233 -0.2676
 4105TIP3    H212257   7.599   4.939   4.429 -1.6449 -1.9114  1.1081
 4106TIP3   OH212258   7.436   3.276   2.212 -0.0276  0.0623  0.7482
 4106TIP3    H112259   7.406   3.363   2.185 -0.4848 -0.4218 -0.3369
 4106TIP3    H212260   7.372   3.215   2.175  0.7894 -0.8073  0.7253
 4107TIP3   OH212261   4.834   5.936   2.942 -0.5640 -0.0764  0.2500
 4107TIP3    H112262   4.929   5.929   2.951 -0.6455 -0.3595  0.9404
 4107TIP3    H212263   4.811   5.872   2.874 -0.4995 -1.6573  1.6348
 4108TIP3   OH212264   3.391   5.848   2.649  0.3286 -0.0821 -0.1186
 4108TIP3    H112265   3.397   5.919   2.585 -3.0219 -1.3381 -2.0634
 4108TIP3    H212266   3.447   5.779   2.613 -0.0873 -0.1046 -0.7383
 4109TIP3   OH212267   2.535   0.940   2.821  0.1851 -0.6140 -0.2152
 4109TIP3    H112268   2.454   0.937   2.871  0.1782  0.0330 -0.1816
 4109TIP3    H212269   2.514   0.993   2.744  0.2206 -1.5178 -0.8622
 4110TIP3   OH212270   3.569   2.978   4.233  0.1818 -0.3088  0.2124
 4110TIP3    H112271   3.499   3.032   4.195  1.7745  0.1278 -2.3206
 4110TIP3    H212272   3.551   2.890   4.200  0.9494 -0.1401 -0.6888
 4111TIP3   OH212273   4.849   1.072   4.555  0.3348  0.5311  0.5207
 4111TIP3    H112274   4.903   1.122   4.616  0.3488  0.9436  0.1767
 4111TIP3    H212275   4.844   0.984   4.593 -0.3588  0.9985  1.5607
 4112TIP3   OH212276   1.892   7.212   2.015  0.0589  0.3911 -0.4925
 4112TIP3    H112277   1.827   7.213   1.945  0.9643  1.4301 -1.3517
 4112TIP3    H212278   1.965   7.162   1.980 -0.2563 -0.7838  0.4764
 4113TIP3   OH212279   4.861   7.178   1.188 -0.2150  0.0275  0.9330
 4113TIP3    H112280   4.909   7.240   1.132 -4.5518  1.0714 -2.1060
 4113TIP3    H212281   4.791   7.229   1.227 -1.8624 -2.2343  1.1483
 4114TIP3   OH212282   4.015   4.099   3.245  0.7251 -0.1402  0.1647
 4114TIP3    H112283   3.999   4.091   3.151 -1.2417  0.0516  0.4404
 4114TIP3    H212284   4.067   4.022   3.268 -2.9216 -3.0301 -0.2856
 4115TIP3   OH212285   7.167   7.223   0.001  0.5889  0.0937 -0.2439
 4115TIP3    H112286   7.102   7.186   0.060  1.2372 -1.5451 -0.4961
 4115TIP3    H212287   7.164   7.317   0.018  0.0468 -0.2184  1.6516
 4116TIP3   OH212288   2.854   3.144   6.103 -0.3079 -0.2859 -0.0556
 4116TIP3    H112289   2.833   3.202   6.176  0.0025 -0.0024 -0.1895
 4116TIP3    H212290   2.863   3.057   6.143 -0.8456 -0.2567  0.1345
 4117TIP3   OH212291   6.171   0.606   2.197  0.1404  0.8872 -0.6111
 4117TIP3    H112292   6.127   0.543   2.255 -0.5309  1.1299 -0.8409
 4117TIP3    H212293   6.211   0.552   2.129  1.0006  0.5958  0.1139
 4118TIP3   OH212294   7.977   3.403   2.970 -0.0259 -0.2083 -0.1240
 4118TIP3    H112295   7.988   3.351   3.050  0.7247  0.2435  0.0703
 4118TIP3    H212296   7.886   3.433   2.974  0.5580  1.5588  1.6484
 4119TIP3   OH212297   0.221   2.087   6.217  0.2278  0.4838 -0.2875
 4119TIP3    H112298   0.245   2.175   6.190  1.3907 -0.0653 -1.1182
 4119TIP3    H212299   0.304   2.040   6.222 -0.1904 -0.1192  1.8577
 4120TIP3   OH212300   0.543   0.958   2.527  0.3249 -0.7958 -1.0135
 4120TIP3    H112301   0.565   0.979   2.436 -1.4190  0.0027 -1.2984
 4120TIP3    H212302   0.578   1.031   2.577 -0.1946 -0.3580 -1.2691
 4121TIP3   OH212303   3.648   7.402   0.747  0.2501 -0.5061  0.2893
 4121TIP3    H112304   3.562   7.374   0.777 -0.4613  1.0214 -0.2474
 4121TIP3    H212305   3.649   7.380   0.654 -0.2848  1.0608 -0.1201
 4122TIP3   OH212306   8.057   7.417   5.751  0.1096  0.1838 -0.2781
 4122TIP3    H112307   8.018   7.454   5.830 -1.8901 -2.1796 -0.0041
 4122TIP3    H212308   8.151   7.428   5.763 -0.2429  2.0802  1.2437
 4123TIP3   OH212309   5.189   1.223   5.482 -0.3920 -0.6047  0.7345
 4123TIP3    H112310   5.102   1.258   5.463  0.3034  1.1094  0.4626
 4123TIP3    H212311   5.188   1.204   5.575  0.1533  3.5474  1.8104
 4124TIP3   OH212312   4.419   1.348   5.270  0.2747  0.2586  0.0464
 4124TIP3    H112313   4.415   1.340   5.174  2.6352 -1.5286  0.0006
 4124TIP3    H212314   4.352   1.413   5.291 -0.4780  0.5571 -2.7871
 4125TIP3   OH212315   7.931   1.028   5.297 -0.4707 -0.2502 -0.7016
 4125TIP3    H112316   8.026   1.042   5.294 -0.7554  1.6237 -2.3834
 4125TIP3    H212317   7.898   1.099   5.352 -1.0141 -0.3022 -0.9584
 4126TIP3   OH212318   1.677   1.024   0.122 -0.2546  0.6983  0.2968
 4126TIP3    H112319   1.740   1.096   0.128  1.6605 -0.5348 -2.3477
 4126TIP3    H212320   1.636   1.036   0.037 -2.3566  0.4376  1.2270
 4127TIP3   OH212321   5.334   1.018   2.234  0.2419  0.0042  0.0748
 4127TIP3    H112322   5.274   0.980   2.170  1.0495 -0.2697 -0.5444
 4127TIP3    H212323   5.333   0.956   2.307 -0.7880  0.3865  0.3941
 4128TIP3   OH212324   2.947   6.158   6.388 -0.3094  0.5078 -0.2271
 4128TIP3    H112325   2.907   6.092   6.444 -1.2248  2.2877  1.2992
 4128TIP3    H212326   2.978   6.226   6.447  3.2227  0.2511 -1.4858
 4129TIP3   OH212327   2.315   7.440   6.717 -0.0458 -0.1856 -0.4089
 4129TIP3    H112328   2.269   7.389   6.650  0.1969 -1.0130  0.0379
 4129TIP3    H212329   2.343   7.520   6.672  0.1134 -0.7296 -1.2956
 4130TIP3   OH212330   0.627   0.273   0.261 -0.4357 -0.2388 -0.0130
 4130TIP3    H112331   0.655   0.321   0.183  1.7906  1.1332  1.5018
 4130TIP3    H212332   0.642   0.181   0.239 -0.5268  0.0628 -1.4277
 4131TIP3   OH212333   6.266   7.682   4.294 -0.7422  0.2289  0.0007
 4131TIP3    H112334   6.238   7.737   4.220 -1.9439  0.4733  0.6113
 4131TIP3    H212335   6.358   7.705   4.307 -0.7901  0.9253 -0.7821
 4132TIP3   OH212336   2.514   3.492   6.448 -0.4762  0.3083  0.3646
 4132TIP3    H112337   2.418   3.501   6.452 -0.6023 -1.1411  1.4158
 4132TIP3    H212338   2.547   3.581   6.463 -1.6374  0.4005  2.8066
 4133TIP3   OH212339   6.540   1.291   1.076 -0.2089  0.8118 -0.4584
 4133TIP3    H112340   6.460   1.238   1.078 -0.6017  1.3977  1.6053
 4133TIP3    H212341   6.551   1.315   0.984 -1.0257 -1.3142 -1.1652
 4134TIP3   OH212342   0.869   3.808   1.625 -0.3522 -0.5726 -0.0054
 4134TIP3    H112343   0.841   3.758   1.702 -0.7457 -2.0269 -1.0614
 4134TIP3    H212344   0.958   3.778   1.608 -0.3759 -0.4763 -0.3063
 4135TIP3   OH212345   5.577   2.585   1.847  0.4706 -0.1685 -0.5630
 4135TIP3    H112346   5.533   2.629   1.920  0.4946 -0.5540 -0.3190
 4135TIP3    H212347   5.665   2.567   1.879  0.1506 -1.3184 -0.2939
 4136TIP3   OH212348   6.826   2.601   2.567 -0.0968 -0.2532  0.4791
 4136TIP3    H112349   6.794   2.691   2.570  1.3232  0.3076 -0.0283
 4136TIP3    H212350   6.922   2.609   2.571  0.0984 -1.6907 -0.2859
 4137TIP3   OH212351   0.262   3.847   4.909  0.5079  0.1349  0.0395
 4137TIP3    H112352   0.187   3.903   4.893  0.0230 -0.6179 -0.3489
 4137TIP3    H212353   0.338   3.904   4.896  0.0310  0.6229 -0.6273
 4138TIP3   OH212354   8.338  -0.031   4.434 -0.2002 -0.4534 -0.5513
 4138TIP3    H112355   8.287   0.049   4.446  0.0562 -0.4271  0.4497
 4138TIP3    H212356   8.388  -0.015   4.353  0.6495  0.8518  0.1779
 4139TIP3   OH212357   2.220   6.560   5.569  0.0901 -0.3315 -0.2425
 4139TIP3    H112358   2.190   6.575   5.479  2.3903 -0.7728 -1.1397
 4139TIP3    H212359   2.173   6.481   5.597 -0.5124 -0.2980 -1.1214
 4140TIP3   OH212360   7.619   3.118   0.077  0.3107  0.4107 -0.2733
 4140TIP3    H112361   7.531   3.087   0.053  1.1687 -0.7371 -2.1341
 4140TIP3    H212362   7.666   3.122  -0.006  2.2440  0.2904  0.7754
 4141TIP3   OH212363   0.540   3.107   4.677 -0.2404  0.4055  0.2608
 4141TIP3    H112364   0.447   3.085   4.674 -0.2028  0.3379 -1.3185
 4141TIP3    H212365   0.585   3.023   4.679 -0.2070  0.4092 -0.1346
 4142TIP3   OH212366   8.369   3.690   4.101 -0.1248 -0.7801 -0.6065
 4142TIP3    H112367   8.454   3.658   4.131 -0.1631  1.1488  1.7866
 4142TIP3    H212368   8.306   3.625   4.133 -0.0089  0.4835  2.5138
 4143TIP3   OH212369   7.828   2.411   3.855 -0.1947 -0.4162 -0.1213
 4143TIP3    H112370   7.873   2.329   3.833  0.0335 -0.4300  0.3951
 4143TIP3    H212371   7.792   2.396   3.942 -0.3337 -0.0392 -0.1137
 4144TIP3   OH212372   0.286   3.380   0.771 -0.6683  0.0464  0.2140
 4144TIP3    H112373   0.203   3.424   0.788  0.6417  2.2590  1.3515
 4144TIP3    H212374   0.353   3.441   0.804  1.4482 -1.3658 -1.2201
 4145TIP3   OH212375   0.734   4.988   2.401 -0.3427  0.3296 -0.1332
 4145TIP3    H112376   0.672   5.048   2.443 -1.4436 -1.3384  0.7408
 4145TIP3    H212377   0.792   4.961   2.472 -1.1113 -1.1526 -0.0380
 4146TIP3   OH212378   6.567   7.270   0.657 -0.3308  0.4187  0.2108
 4146TIP3    H112379   6.511   7.269   0.579  0.9602  2.4300 -0.8354
 4146TIP3    H212380   6.655   7.249   0.624 -0.1370 -0.9933  1.5325
 4147TIP3   OH212381   5.915   1.871   5.859 -0.4846 -0.1859 -0.6737
 4147TIP3    H112382   5.831   1.840   5.895  0.7582 -1.4321  1.3824
 4147TIP3    H212383   5.978   1.857   5.930  1.2913  1.7453 -1.7581
 4148TIP3   OH212384   2.288   5.444   4.682 -0.0406 -0.2068 -0.2418
 4148TIP3    H112385   2.372   5.489   4.670 -0.1921  0.0036 -0.5248
 4148TIP3    H212386   2.292   5.410   4.772 -0.5929  1.8335  0.6193
 4149TIP3   OH212387   4.964   4.513   2.080  0.0030  0.0172  0.0240
 4149TIP3    H112388   5.008   4.546   2.001 -0.4710  0.2656 -0.1424
 4149TIP3    H212389   5.027   4.452   2.119  1.5141  2.1482  1.1176
 4150TIP3   OH212390   1.040   5.304   3.841  0.2700  0.0334 -0.3127
 4150TIP3    H112391   1.055   5.337   3.929 -1.6468 -0.0771  0.1034
 4150TIP3    H212392   1.008   5.214   3.854 -0.1119  0.0452 -1.1036
 4151TIP3   OH212393   6.964   0.603   4.776 -0.2276 -0.2160  0.5004
 4151TIP3    H112394   6.937   0.695   4.772  0.3047 -0.0705  0.0443
 4151TIP3    H212395   6.909   0.559   4.711  0.2230 -0.0228 -0.0260
 4152TIP3   OH212396   4.185   4.902   2.836 -0.1225 -0.0918 -0.4427
 4152TIP3    H112397   4.261   4.945   2.796  0.9762  0.7654  2.3458
 4152TIP3    H212398   4.115   4.966   2.827  0.1040  0.0928 -0.9628
 4153TIP3   OH212399   2.001   3.761   6.287 -0.3324  0.4747  0.5943
 4153TIP3    H112400   2.028   3.761   6.379  0.4137 -0.7747  0.3982
 4153TIP3    H212401   1.912   3.796   6.288  0.1714  1.8431  1.6091
 4154TIP3   OH212402   1.127   5.092   2.769 -0.5169  0.7498  0.3621
 4154TIP3    H112403   1.105   5.126   2.682  0.4963  4.4459  1.3724
 4154TIP3    H212404   1.044   5.095   2.818 -0.7583  0.1642  0.0046
 4155TIP3   OH212405   7.662   4.890   2.282 -0.5432 -0.1077 -0.3228
 4155TIP3    H112406   7.694   4.936   2.204 -0.0543  0.9157  0.4630
 4155TIP3    H212407   7.574   4.925   2.296 -0.5466 -0.1287 -0.2919
 4156TIP3   OH212408   2.257   3.495   0.681 -0.1810  0.5542  0.0327
 4156TIP3    H112409   2.275   3.437   0.607 -0.1220  2.5659 -1.6176
 4156TIP3    H212410   2.335   3.550   0.688  1.0210 -1.3140  3.4137
 4157TIP3   OH212411   3.777   0.810   1.932  0.4830  0.4447  0.2375
 4157TIP3    H112412   3.730   0.819   1.849 -0.1636  0.2935  0.5758
 4157TIP3    H212413   3.730   0.741   1.978 -0.3036  1.7435  1.4754
 4158TIP3   OH212414   3.647   3.492   0.537  0.3207 -0.9743 -0.2967
 4158TIP3    H112415   3.635   3.512   0.444 -0.7305  0.8849  0.1919
 4158TIP3    H212416   3.575   3.433   0.558  0.0528 -0.7176 -0.4776
 4159TIP3   OH212417   3.533   1.266   0.233  0.0579  0.3325  0.1447
 4159TIP3    H112418   3.515   1.275   0.139  0.1995  0.5357  0.1359
 4159TIP3    H212419   3.613   1.212   0.236 -1.5144 -2.1419  0.2322
 4160TIP3   OH212420   8.366   6.002   4.280  0.1933 -0.0904 -0.1292
 4160TIP3    H112421   8.329   5.921   4.245 -1.9265  0.3336  1.0051
 4160TIP3    H212422   8.350   5.997   4.374  0.5265  1.4203  0.0289
 4161TIP3   OH212423   5.265   7.728   6.353  0.2327 -0.1973 -0.5386
 4161TIP3    H112424   5.259   7.707   6.259  0.2334 -1.7955 -0.2209
 4161TIP3    H212425   5.249   7.644   6.396  2.5744 -0.0175  0.8295
 4162TIP3   OH212426   7.917   6.200   3.320 -0.6505 -0.3374 -0.3500
 4162TIP3    H112427   7.920   6.111   3.355  0.7197 -0.0088  0.4261
 4162TIP3    H212428   7.827   6.229   3.337 -0.4451 -0.7258  1.5893
 4163TIP3   OH212429   6.794   5.865   1.853 -0.0195  0.6673 -0.5387
 4163TIP3    H112430   6.712   5.842   1.810 -0.3762  1.9016 -0.5562
 4163TIP3    H212431   6.774   5.863   1.947  0.3140 -0.3723 -0.4719
 4164TIP3   OH212432   6.537   4.464   4.938 -0.0794 -0.1969  0.4129
 4164TIP3    H112433   6.558   4.371   4.940 -0.2804 -0.3084 -1.4117
 4164TIP3    H212434   6.621   4.508   4.954  0.0187 -0.6670  1.2573
 4165TIP3   OH212435   4.239   0.400   5.635 -0.0853  0.4688  0.2728
 4165TIP3    H112436   4.147   0.423   5.623  0.0461  1.0574  0.3372
 4165TIP3    H212437   4.266   0.360   5.553  0.0248  1.7705 -0.3428
 4166TIP3   OH212438   3.256   5.558   1.482  0.0619  0.6532 -0.2914
 4166TIP3    H112439   3.224   5.615   1.412 -1.6322 -1.1240 -1.0396
 4166TIP3    H212440   3.249   5.611   1.561  0.5424  2.1759 -1.2262
 4167TIP3   OH212441   0.916   4.921   2.621  0.0944 -0.0209  0.1621
 4167TIP3    H112442   0.911   4.913   2.716  1.1773  0.7783  0.3009
 4167TIP3    H212443   0.991   4.867   2.596  0.5204  0.6701 -0.0998
 4168TIP3   OH212444   0.012   7.629   1.972 -0.7002 -0.2456  0.0403
 4168TIP3    H112445   0.096   7.649   1.930 -0.6454  0.2610  0.3831
 4168TIP3    H212446   0.035   7.583   2.052 -0.8495 -2.3721 -1.0761
 4169TIP3   OH212447   1.705   7.655   6.751  0.2802 -0.1749 -0.2577
 4169TIP3    H112448   1.625   7.655   6.697  0.8292 -0.4669 -1.0957
 4169TIP3    H212449   1.706   7.569   6.793 -0.3185  0.1743  0.4863
 4170TIP3   OH212450   2.850   2.891   6.245  0.4254  0.4043  0.0090
 4170TIP3    H112451   2.769   2.840   6.236  1.0937 -0.6416 -0.1410
 4170TIP3    H212452   2.846   2.925   6.335 -0.5968  1.1106 -0.2834
 4171TIP3   OH212453   4.077   5.945   5.385 -0.0189 -0.4174 -0.9397
 4171TIP3    H112454   4.172   5.941   5.401  0.3214  1.5641 -2.1117
 4171TIP3    H212455   4.058   5.866   5.334  1.0282 -0.7216 -0.8846
 4172TIP3   OH212456   4.142   6.972   2.597  0.5316 -0.2154  0.7316
 4172TIP3    H112457   4.218   6.931   2.556  0.9601  1.4195 -0.2068
 4172TIP3    H212458   4.174   6.999   2.684  0.8853 -0.0120  0.5427
 4173TIP3   OH212459   2.485   7.655   3.980 -0.2694 -0.3054  0.2332
 4173TIP3    H112460   2.483   7.655   3.885  0.6594 -1.1932  0.1880
 4173TIP3    H212461   2.449   7.740   4.006  0.3826  0.3514 -0.9342
 4174TIP3   OH212462   2.618   5.646   6.770 -0.1426 -0.7038  0.4229
 4174TIP3    H112463   2.670   5.711   6.817  0.4931 -1.6986  1.1235
 4174TIP3    H212464   2.681   5.579   6.744 -0.0784  0.6279 -3.5063
 4175TIP3   OH212465   6.798   7.011   0.858  0.5792 -0.2641  0.5448
 4175TIP3    H112466   6.775   6.968   0.941 -0.9700  0.9930  0.8153
 4175TIP3    H212467   6.761   7.099   0.866  0.7842  0.0231 -1.3154
 4176TIP3   OH212468   5.238   2.162   1.779  0.1050  0.1181 -0.7269
 4176TIP3    H112469   5.305   2.194   1.839  0.5487 -1.0002 -0.5942
 4176TIP3    H212470   5.155   2.181   1.823  0.4172 -0.4333  0.1321
 4177TIP3   OH212471   5.290   7.800   3.290 -0.3637 -0.1056 -0.1509
 4177TIP3    H112472   5.367   7.856   3.290 -0.1775 -0.3483 -0.7006
 4177TIP3    H212473   5.263   7.797   3.198 -0.2217 -1.1048 -0.1697
 4178TIP3   OH212474   1.659   5.568   5.139 -0.2032 -0.4051 -0.1507
 4178TIP3    H112475   1.709   5.617   5.204 -2.6757  1.8667  0.2183
 4178TIP3    H212476   1.657   5.625   5.062 -0.0086 -1.6496 -1.1245
 4179TIP3   OH212477   7.308   7.780   0.254  0.1548 -0.3172  0.4463
 4179TIP3    H112478   7.294   7.688   0.276  0.8860 -0.5931 -0.1692
 4179TIP3    H212479   7.245   7.799   0.185 -1.3736  0.2325  1.9364
 4180TIP3   OH212480   6.845   7.763   1.929 -0.3984 -0.4440  0.4182
 4180TIP3    H112481   6.758   7.732   1.953 -0.9200  1.1734  0.7370
 4180TIP3    H212482   6.851   7.749   1.835 -1.1822 -0.1730  0.3253
 4181TIP3   OH212483   2.316   7.041   1.734 -0.1941 -0.1221  0.3104
 4181TIP3    H112484   2.287   7.065   1.646 -0.2875 -2.6961 -0.4269
 4181TIP3    H212485   2.392   7.096   1.750  0.1051  0.0753 -1.5734
 4182TIP3   OH212486   5.184   5.046   6.182  0.1218  0.7502  0.1895
 4182TIP3    H112487   5.169   5.029   6.089  0.3854  0.5105  0.1896
 4182TIP3    H212488   5.112   5.000   6.226 -1.4921  2.9242 -0.0112
 4183TIP3   OH212489   1.579   7.484   3.427 -0.2133  0.2776 -0.1917
 4183TIP3    H112490   1.662   7.532   3.419 -0.8286  2.2341  3.2153
 4183TIP3    H212491   1.605   7.394   3.447  1.2374  1.0975  2.0273
 4184TIP3   OH212492   6.572   3.039   4.076  0.5708  0.0462 -0.0099
 4184TIP3    H112493   6.594   3.043   4.170  0.6887  1.2754 -0.0748
 4184TIP3    H212494   6.620   2.962   4.044 -0.7452 -1.3841  1.2438
 4185TIP3   OH212495   2.962   5.912   0.399  0.1170  0.6547 -0.2098
 4185TIP3    H112496   2.979   5.842   0.336 -0.5939  0.6278 -0.3721
 4185TIP3    H212497   3.045   5.921   0.447  0.6543  0.6599 -1.1161
 4186TIP3   OH212498   1.448   1.001   6.525 -0.2971  0.4559 -0.1954
 4186TIP3    H112499   1.470   1.059   6.452 -0.1867  1.1667  0.3949
 4186TIP3    H212500   1.388   0.936   6.487 -1.3436  1.6417 -0.6190
 4187TIP3   OH212501   0.926   7.567   6.448  0.1363 -0.2603 -0.2839
 4187TIP3    H112502   0.960   7.589   6.361 -1.1261 -0.1371 -0.7548
 4187TIP3    H212503   0.869   7.640   6.472 -0.8223 -1.0553 -0.0667
 4188TIP3   OH212504   1.871   7.082   6.478 -0.5948 -0.5807  0.1758
 4188TIP3    H112505   1.882   7.060   6.386 -0.7192  2.1527 -0.5931
 4188TIP3    H212506   1.783   7.120   6.483  0.8154  2.9833  0.4854
 4189TIP3   OH212507   5.354   5.923   3.018  0.8340  0.3832 -0.0602
 4189TIP3    H112508   5.421   5.964   2.963  2.0661 -0.2854  0.9090
 4189TIP3    H212509   5.403   5.874   3.084 -0.5738 -1.4997 -0.3114
 4190TIP3   OH212510   0.332   6.162   2.298  0.3547 -0.3425 -0.1854
 4190TIP3    H112511   0.323   6.254   2.324  0.0092  0.2034 -2.0995
 4190TIP3    H212512   0.414   6.134   2.338  0.3132  0.6958  0.6798
 4191TIP3   OH212513   3.407   0.014   1.730  0.2656  0.4828 -0.2418
 4191TIP3    H112514   3.334  -0.043   1.706  0.2974  0.6998 -0.8723
 4191TIP3    H212515   3.365   0.089   1.773  0.1019  0.6440 -0.6713
 4192TIP3   OH212516   5.548   1.304   2.405  0.1202 -0.3514 -0.2893
 4192TIP3    H112517   5.583   1.268   2.323  0.4701  1.6741 -1.0961
 4192TIP3    H212518   5.453   1.306   2.391  0.1027 -0.8386 -0.2691
 4193TIP3   OH212519   5.882   1.138   3.736 -0.2282  0.1828  0.7327
 4193TIP3    H112520   5.896   1.176   3.650  2.3226 -0.6069  0.7250
 4193TIP3    H212521   5.895   1.211   3.797 -0.2607  0.3700  0.5178
 4194TIP3   OH212522   3.639   7.179   5.374  0.5092 -0.1256  0.1812
 4194TIP3    H112523   3.647   7.269   5.403 -0.5553  0.0493 -0.0007
 4194TIP3    H212524   3.546   7.158   5.387  0.3680 -0.6220 -1.4085
 4195TIP3   OH212525   6.688   5.631   1.042 -0.1522  0.0640 -0.1851
 4195TIP3    H112526   6.612   5.688   1.041  0.7335  1.3302  0.7450
 4195TIP3    H212527   6.652   5.542   1.039 -1.6277  0.6380 -0.2540
 4196TIP3   OH212528   5.007   4.601   2.891 -0.5220 -0.0893  0.1206
 4196TIP3    H112529   4.980   4.516   2.856  0.7146 -0.0819 -0.9063
 4196TIP3    H212530   4.947   4.664   2.851 -1.2839 -0.4327  0.6916
 4197TIP3   OH212531   0.729   5.859   0.452 -0.6838  0.2185 -0.1741
 4197TIP3    H112532   0.802   5.854   0.515 -1.7323  2.3864  1.3574
 4197TIP3    H212533   0.675   5.931   0.484 -3.4845 -1.2179 -1.3066
 4198TIP3   OH212534   4.743   1.718   3.177  0.3044  0.6037  0.0101
 4198TIP3    H112535   4.757   1.789   3.115  2.1370  0.1930 -0.1127
 4198TIP3    H212536   4.821   1.663   3.169 -1.0085 -1.4114  0.1428
 4199TIP3   OH212537   4.211   7.688   4.037 -0.0008  0.1019 -0.0505
 4199TIP3    H112538   4.195   7.603   3.995  0.2709  0.2597 -0.4847
 4199TIP3    H212539   4.159   7.750   3.986  0.2662  0.2845 -0.1020
 4200TIP3   OH212540   1.102   1.558   1.952  0.8353 -0.2772 -0.3343
 4200TIP3    H112541   1.095   1.475   1.904  0.1583 -1.7575  2.1246
 4200TIP3    H212542   1.173   1.606   1.908  1.7946 -2.4984 -1.3629
 4201TIP3   OH212543   0.884   7.843   0.703  0.2465  0.2027  0.3545
 4201TIP3    H112544   0.815   7.811   0.761 -1.3228  3.2435  0.3904
 4201TIP3    H212545   0.961   7.849   0.759 -0.3724  0.0013  1.2536
 4202TIP3   OH212546   5.566   6.086   4.682 -0.2537  0.0175  0.3824
 4202TIP3    H112547   5.623   6.067   4.757  0.5208  0.6873 -0.0247
 4202TIP3    H212548   5.484   6.115   4.722  0.4903  1.3671  0.9967
 4203TIP3   OH212549   0.116   0.353   2.260 -0.0908  0.5865  0.1419
 4203TIP3    H112550   0.101   0.440   2.225 -0.5481  0.3518 -0.2519
 4203TIP3    H212551   0.210   0.350   2.278 -0.0310  1.0638 -0.0852
 4204TIP3   OH212552   7.763   3.130   4.542 -0.0384  0.2089 -0.2754
 4204TIP3    H112553   7.710   3.172   4.611  0.1809  0.6092 -0.3465
 4204TIP3    H212554   7.700   3.104   4.476 -0.3483 -0.8986  0.4324
 4205TIP3   OH212555   8.306   4.327   0.847 -0.0625  0.0674 -0.1724
 4205TIP3    H112556   8.212   4.339   0.856  0.1549  1.8484  0.1521
 4205TIP3    H212557   8.337   4.409   0.806  1.0113 -1.5726 -2.9226
 4206TIP3   OH212558   6.951   6.109   0.914  0.2562 -0.0553 -0.8397
 4206TIP3    H112559   6.997   6.117   0.830 -0.8782  1.1002 -1.3747
 4206TIP3    H212560   6.861   6.135   0.895 -0.4765 -1.5882  0.3457
 4207TIP3   OH212561   5.552   0.563   1.733  0.1047  0.6343 -0.5397
 4207TIP3    H112562   5.613   0.629   1.700  0.8404 -0.3729 -1.2863
 4207TIP3    H212563   5.485   0.556   1.665  0.7263 -0.2702 -1.0863
 4208TIP3   OH212564   5.357   3.752   1.271  0.0566 -0.2133  0.4770
 4208TIP3    H112565   5.271   3.745   1.229  0.3764  1.3458 -0.5446
 4208TIP3    H212566   5.362   3.677   1.330 -1.7905 -0.6132  0.1737
 4209TIP3   OH212567   1.160   7.817   4.960 -0.3987  0.1776  0.0039
 4209TIP3    H112568   1.188   7.893   5.010  2.8471 -0.3370 -0.7840
 4209TIP3    H212569   1.183   7.837   4.869  0.2516 -1.5763 -0.2669
 4210TIP3   OH212570   4.376   7.837   0.809 -0.3051  0.1675  0.1244
 4210TIP3    H112571   4.442   7.861   0.874  0.7753  0.4255 -1.0410
 4210TIP3    H212572   4.374   7.741   0.812  0.1256  0.1585  0.1595
 4211TIP3   OH212573   3.397   0.013   5.160 -0.7301  0.5752 -0.0328
 4211TIP3    H112574   3.432   0.069   5.090 -2.8904 -0.4169 -2.0672
 4211TIP3    H212575   3.308   0.044   5.172 -1.0518 -0.6280  0.8116
 4212TIP3   OH212576   8.030   1.146   3.043  0.1778  0.4502  0.0762
 4212TIP3    H112577   8.082   1.097   3.107 -0.1769  0.3969  0.3272
 4212TIP3    H212578   8.080   1.141   2.962  0.6437  0.5348  0.3542
 4213TIP3   OH212579   5.054   6.170   2.512  0.3068  0.5360  0.1994
 4213TIP3    H112580   5.089   6.178   2.600 -0.2122  0.6215  0.4038
 4213TIP3    H212581   5.094   6.242   2.463  0.8262  0.3058  0.2872
 4214TIP3   OH212582   3.370   2.092   5.823  0.0549  0.3275 -0.1929
 4214TIP3    H112583   3.392   2.022   5.885  1.4108  1.7333  1.0115
 4214TIP3    H212584   3.275   2.094   5.821 -0.0219 -1.8227 -0.6143
 4215TIP3   OH212585   0.467   5.611   0.102 -0.1521  0.6190 -0.0540
 4215TIP3    H112586   0.436   5.654   0.022 -3.2299  0.5012  0.9803
 4215TIP3    H212587   0.413   5.648   0.172  1.1479 -0.6960  1.7239
 4216TIP3   OH212588   0.025   0.863   1.556 -0.4760 -0.5479 -0.1555
 4216TIP3    H112589  -0.028   0.877   1.478 -1.0963 -0.1591  0.3213
 4216TIP3    H212590   0.053   0.772   1.551 -0.8803 -0.6500 -0.6103
 4217TIP3   OH212591   1.037   2.262   5.372  0.2901 -0.6275 -0.1012
 4217TIP3    H112592   1.014   2.322   5.442 -0.0121  0.2128 -0.8975
 4217TIP3    H212593   0.953   2.235   5.334  0.4361  2.1313 -2.7545
 4218TIP3   OH212594   1.929   3.441   0.019 -0.2300  0.4926  0.2756
 4218TIP3    H112595   1.925   3.352   0.053  0.7854  0.1584 -0.4242
 4218TIP3    H212596   1.851   3.448  -0.037  0.4562 -0.5095 -0.8782
 4219TIP3   OH212597   0.323   4.561   1.905 -0.2430 -0.0516 -0.0414
 4219TIP3    H112598   0.329   4.628   1.837  0.6783  2.1758  2.0458
 4219TIP3    H212599   0.246   4.585   1.956 -0.7184 -1.4630 -0.0521
 4220TIP3   OH212600   7.822   3.440   2.305  0.2196  0.0131  0.2460
 4220TIP3    H112601   7.758   3.460   2.238  0.5255 -1.3814 -0.4905
 4220TIP3    H212602   7.770   3.426   2.385 -0.1363  1.7280  0.3633
 4221TIP3   OH212603   2.816   7.107   2.316 -0.1700  0.0353 -0.0689
 4221TIP3    H112604   2.867   7.137   2.391  0.6570  2.0765 -1.3603
 4221TIP3    H212605   2.744   7.169   2.309  0.0899  0.2415 -1.2621
 4222TIP3   OH212606   7.493   7.396   1.146  0.0276 -0.0883 -0.0838
 4222TIP3    H112607   7.491   7.470   1.207  1.3782 -0.6848  0.7361
 4222TIP3    H212608   7.402   7.380   1.124 -0.3660  1.1448  0.5526
 4223TIP3   OH212609   2.278   5.342   4.036  0.4616 -0.1480  0.3292
 4223TIP3    H112610   2.352   5.365   4.094 -0.4555  0.0028  1.4775
 4223TIP3    H212611   2.200   5.356   4.090 -0.3838 -0.9680 -0.6346
 4224TIP3   OH212612   4.869   7.822   6.574  0.5733 -0.1566  0.0204
 4224TIP3    H112613   4.800   7.807   6.639 -2.2554  2.2229 -2.1219
 4224TIP3    H212614   4.922   7.893   6.611 -1.2000  1.3981 -0.2529
 4225TIP3   OH212615   5.095   6.882   5.520  0.2523 -0.2622  0.3992
 4225TIP3    H112616   5.075   6.949   5.585  0.1749 -1.3042  1.4908
 4225TIP3    H212617   5.011   6.840   5.502  0.5191 -0.9967  0.8184
 4226TIP3   OH212618   5.682   4.308   3.294 -0.7501 -0.1846 -0.2488
 4226TIP3    H112619   5.655   4.237   3.236  0.1353  0.2385 -1.2142
 4226TIP3    H212620   5.613   4.374   3.283 -0.0399  0.3523 -1.7003
 4227TIP3   OH212621   7.123   1.134   0.425 -0.0281  0.2754  0.2767
 4227TIP3    H112622   7.096   1.091   0.344  0.0429 -0.5983  0.6936
 4227TIP3    H212623   7.041   1.154   0.471 -0.0579  0.4456  0.1495
 4228TIP3   OH212624   4.473   4.070   5.611  0.2862  0.0514  0.2674
 4228TIP3    H112625   4.377   4.073   5.605  0.2496  1.3277  1.1848
 4228TIP3    H212626   4.494   4.123   5.687  1.8268  1.2967 -0.9582
 4229TIP3   OH212627   4.265   5.347   1.731  0.3407  0.0767  0.1583
 4229TIP3    H112628   4.208   5.363   1.655  0.2694 -1.9961 -0.2877
 4229TIP3    H212629   4.209   5.300   1.793  1.0529 -0.3862  0.4663
 4230TIP3   OH212630   1.641   3.864   0.489 -0.1678 -0.2938  0.8433
 4230TIP3    H112631   1.570   3.894   0.433 -0.5116 -0.6364  1.0939
 4230TIP3    H212632   1.721   3.887   0.441 -0.3585  2.2731  1.6251
 4231TIP3   OH212633   2.212   3.024   5.083 -0.7166 -0.3236 -0.2081
 4231TIP3    H112634   2.264   2.954   5.123  0.7945 -0.3269 -2.0634
 4231TIP3    H212635   2.198   3.087   5.153  1.2335 -0.6524  0.5164
 4232TIP3   OH212636   4.984   2.210   3.006 -0.2237  0.0307  0.1409
 4232TIP3    H112637   4.960   2.229   2.916 -0.4202  0.3779  0.2641
 4232TIP3    H212638   4.929   2.136   3.031 -0.3716  0.1145  0.0652
 4233TIP3   OH212639   4.467   6.083   4.345  0.1532 -0.3902  0.5995
 4233TIP3    H112640   4.490   6.175   4.362  2.1647 -0.8845  0.8552
 4233TIP3    H212641   4.545   6.034   4.372 -0.4493 -2.0897 -0.5934
 4234TIP3   OH212642   3.153   7.856   3.999 -0.0460 -0.2631 -0.1488
 4234TIP3    H112643   3.220   7.826   3.938 -0.0143  0.3417 -0.4116
 4234TIP3    H212644   3.097   7.779   4.012  0.9247 -0.9090  0.4000
 4235TIP3   OH212645   7.362   5.313   1.140  0.0445  0.1210  0.1355
 4235TIP3    H112646   7.335   5.248   1.205  1.2808 -0.0936  0.4621
 4235TIP3    H212647   7.317   5.394   1.166 -1.1294 -0.4707  0.0052
 4236TIP3   OH212648   3.689   4.497   5.481  0.6762 -0.2485  0.3662
 4236TIP3    H112649   3.757   4.449   5.529 -0.2218 -0.9472  0.9899
 4236TIP3    H212650   3.658   4.562   5.543  0.6771 -0.0291  0.1353
 4237TIP3   OH212651   0.133   7.260   6.294 -0.5332  0.4930  0.3775
 4237TIP3    H112652   0.109   7.346   6.327 -1.4195 -0.0300  1.1702
 4237TIP3    H212653   0.109   7.200   6.365 -1.7083 -0.6036 -0.8727
 4238TIP3   OH212654   7.943   1.866   5.605 -0.4517  0.1470  0.3142
 4238TIP3    H112655   7.931   1.778   5.570 -0.5068 -0.0669  0.8659
 4238TIP3    H212656   7.913   1.924   5.535 -1.5751 -0.3006  0.4059
 4239TIP3   OH212657   7.593   6.864   5.483  0.3883 -0.4662  0.1065
 4239TIP3    H112658   7.661   6.925   5.510  0.6462  0.1036 -1.7030
 4239TIP3    H212659   7.620   6.834   5.396 -2.1827  0.6427 -1.1680
 4240TIP3   OH212660   6.475   2.731   4.392  0.2670  0.4992  0.0396
 4240TIP3    H112661   6.386   2.709   4.419  0.4640 -0.4451 -0.0497
 4240TIP3    H212662   6.465   2.768   4.304 -0.0898  0.9465  0.2639
 4241TIP3   OH212663   7.089   7.488   2.498 -0.2745  0.0771 -0.4611
 4241TIP3    H112664   7.081   7.567   2.552 -0.1202 -0.2826  0.0932
 4241TIP3    H212665   6.998   7.458   2.486 -0.3600  0.5093 -0.9411
 4242TIP3   OH212666   4.192   2.707   6.654 -0.0251  0.5172 -0.0655
 4242TIP3    H112667   4.196   2.612   6.646 -1.1260  0.4805 -0.3401
 4242TIP3    H212668   4.214   2.724   6.746 -0.4802 -0.0653  0.1633
 4243TIP3   OH212669   1.174   4.517   4.454  0.8943 -0.0903 -0.0162
 4243TIP3    H112670   1.184   4.511   4.549  1.2630 -0.8358 -0.0932
 4243TIP3    H212671   1.246   4.574   4.426 -0.0163  1.2413  0.2796
 4244TIP3   OH212672   8.303   4.411   5.866  0.5914  0.4948  0.0249
 4244TIP3    H112673   8.377   4.468   5.843 -0.2765  0.9871 -1.7317
 4244TIP3    H212674   8.335   4.360   5.941  2.8153  0.5164 -0.8160
 4245TIP3   OH212675   6.647   6.169   4.696  0.0545  0.0899 -0.2168
 4245TIP3    H112676   6.642   6.265   4.694  0.8383  0.1501  0.3616
 4245TIP3    H212677   6.574   6.143   4.751  0.0359  0.3734 -0.1019
 4246TIP3   OH212678   1.283   0.093   1.105  0.5521  0.0712  1.0440
 4246TIP3    H112679   1.198   0.083   1.062  1.1297  0.5198 -0.2509
 4246TIP3    H212680   1.290   0.187   1.121  0.9158  0.0671  0.9061
 4247TIP3   OH212681   3.298   6.179   2.609 -0.1795 -0.3315  0.0361
 4247TIP3    H112682   3.321   6.194   2.701 -1.4729  2.2572  0.0256
 4247TIP3    H212683   3.304   6.265   2.569  1.0843 -1.5157 -2.5460
 4248TIP3   OH212684   4.300   6.694   5.081  0.2758 -0.6854  0.2365
 4248TIP3    H112685   4.328   6.725   5.167 -1.0627  0.1105  0.4214
 4248TIP3    H212686   4.287   6.774   5.029 -2.1392 -0.8968  0.3685
 4249TIP3   OH212687   0.150   6.268   2.645 -0.4132 -0.2626  0.1993
 4249TIP3    H112688   0.099   6.261   2.725 -1.1754 -0.6081 -0.3040
 4249TIP3    H212689   0.100   6.219   2.580 -1.1181  2.0780 -1.1347
 4250TIP3   OH212690   4.588   1.784   0.752  0.1818 -0.0679 -0.3807
 4250TIP3    H112691   4.612   1.734   0.829 -0.6976 -1.1405 -0.7876
 4250TIP3    H212692   4.552   1.866   0.787  2.0383  0.5309  0.2756
 4251TIP3   OH212693   6.286   1.632   3.402  0.5397  0.6804 -0.3977
 4251TIP3    H112694   6.287   1.544   3.440 -0.4382 -0.0166 -1.8624
 4251TIP3    H212695   6.371   1.669   3.425  0.7003 -0.3744  0.8385
 4252TIP3   OH212696   2.667   6.015   6.141 -0.5534  0.4208 -0.1490
 4252TIP3    H112697   2.593   5.994   6.199  1.1285  2.1357  2.9011
 4252TIP3    H212698   2.730   5.945   6.155 -0.7067  0.0849 -1.0797
 4253TIP3   OH212699   3.700   5.734   1.127 -0.2029  0.0556 -0.4509
 4253TIP3    H112700   3.786   5.769   1.102 -0.2821  0.8881  0.4011
 4253TIP3    H212701   3.657   5.805   1.174 -1.9173  0.1102 -1.9967
 4254TIP3   OH212702   2.635   1.690   5.613 -0.2551 -0.5282 -0.0345
 4254TIP3    H112703   2.722   1.680   5.653  0.5641  1.8602 -1.0021
 4254TIP3    H212704   2.578   1.716   5.684  0.5871  1.0120  0.1374
 4255TIP3   OH212705   1.585   5.511   3.993 -0.0271 -0.1914  0.1715
 4255TIP3    H112706   1.508   5.455   3.979 -0.1263  0.0954 -0.4710
 4255TIP3    H212707   1.615   5.532   3.905  1.1734 -0.8129  0.4128
 4256TIP3   OH212708   6.945   1.435   0.553  0.2607 -0.4729 -0.0014
 4256TIP3    H112709   6.942   1.340   0.565  1.8312 -0.4154  1.2073
 4256TIP3    H212710   6.988   1.468   0.632  0.0089  1.2282 -0.5276
 4257TIP3   OH212711   7.292   7.413   5.255 -0.1990 -0.2329 -0.2801
 4257TIP3    H112712   7.254   7.393   5.169 -0.3038 -1.6954  0.0673
 4257TIP3    H212713   7.217   7.421   5.313 -0.1669  1.5652 -0.4596
 4258TIP3   OH212714   3.977   2.974   2.608 -0.4050  0.1441 -0.0105
 4258TIP3    H112715   4.009   2.934   2.528  0.9487  0.0323  0.5659
 4258TIP3    H212716   3.885   2.948   2.612 -0.7999  1.0493 -2.0541
 4259TIP3   OH212717   7.767   5.188   4.778 -0.4843  0.4551 -0.5468
 4259TIP3    H112718   7.743   5.095   4.784 -0.3888  0.4662  0.0385
 4259TIP3    H212719   7.852   5.194   4.821 -1.0499  1.0244  0.5252
 4260TIP3   OH212720   4.884   5.201   6.487 -0.3111  0.6410  0.0204
 4260TIP3    H112721   4.808   5.152   6.455 -1.5331  1.7615  1.1265
 4260TIP3    H212722   4.884   5.282   6.435  1.2127 -0.0980 -1.2188
 4261TIP3   OH212723   1.677   3.367   4.528 -0.1232 -0.0077 -0.3874
 4261TIP3    H112724   1.754   3.354   4.473  0.9352 -1.5361  1.3524
 4261TIP3    H212725   1.654   3.459   4.515  0.5627 -0.1033 -2.7034
 4262TIP3   OH212726   5.051   0.467   5.111 -0.1934 -0.2979 -0.4597
 4262TIP3    H112727   5.085   0.552   5.139  0.4479 -0.4854 -0.6621
 4262TIP3    H212728   4.989   0.442   5.180  1.0243 -0.5463  0.5724
 4263TIP3   OH212729   0.412   2.777   0.262 -0.5007 -0.0897 -0.5647
 4263TIP3    H112730   0.410   2.862   0.307  0.6203  0.6700 -1.8664
 4263TIP3    H212731   0.475   2.725   0.311 -1.9982 -0.5956  0.8995
 4264TIP3   OH212732   5.023   2.700   5.388  0.2611 -0.6538  0.2458
 4264TIP3    H112733   5.050   2.624   5.439  1.2573 -0.9262 -0.6689
 4264TIP3    H212734   4.927   2.692   5.384  0.0262 -0.0974  2.8417
 4265TIP3   OH212735   4.135   1.162   6.553 -0.6912 -0.0682 -0.1256
 4265TIP3    H112736   4.085   1.092   6.510  1.2508 -0.9267 -1.1299
 4265TIP3    H212737   4.083   1.241   6.538 -2.0069 -0.9877 -0.6203
 4266TIP3   OH212738   0.893   7.332   5.708 -0.4016  0.0696  0.3103
 4266TIP3    H112739   0.810   7.311   5.666  0.2387  0.8420 -1.4194
 4266TIP3    H212740   0.956   7.272   5.668  0.4793  1.7557 -0.9045
 4267TIP3   OH212741   7.076   4.221   5.293  0.0368 -0.1226  0.1356
 4267TIP3    H112742   7.010   4.276   5.334  0.7692  0.4020  0.6306
 4267TIP3    H212743   7.127   4.186   5.366  0.0038 -0.9222 -0.2102
 4268TIP3   OH212744   0.071   1.555   4.905 -0.9790 -0.3058  0.5645
 4268TIP3    H112745   0.125   1.591   4.834  1.2823  0.1230  2.3860
 4268TIP3    H212746   0.025   1.482   4.864  1.4746 -1.1174 -1.0160
 4269TIP3   OH212747   7.135   2.176   0.071  0.2776 -0.5204 -0.1456
 4269TIP3    H112748   7.067   2.217   0.017  0.3621  0.1441  0.2360
 4269TIP3    H212749   7.216   2.221   0.047  0.5090 -1.0241 -0.3005
 4270TIP3   OH212750   0.482   2.805   0.663  0.2078 -0.6918  0.1793
 4270TIP3    H112751   0.506   2.867   0.594  1.6818  0.7564  1.8752
 4270TIP3    H212752   0.494   2.854   0.745 -1.8910 -2.1873  1.4860
 4271TIP3   OH212753   1.696   5.021   0.428  0.0093  0.2602 -0.8289
 4271TIP3    H112754   1.792   5.026   0.434 -0.1158  0.5606  2.1945
 4271TIP3    H212755   1.667   5.113   0.431 -0.4094  0.1050  0.7116
 4272TIP3   OH212756   0.178   1.358   4.645 -1.0069  0.2980 -0.1150
 4272TIP3    H112757   0.115   1.325   4.709  0.5696  0.6276  1.6783
 4272TIP3    H212758   0.192   1.449   4.669  0.9745 -0.0659  0.2551
 4273TIP3   OH212759   6.544   0.693   2.357 -0.1386  0.2874  0.0633
 4273TIP3    H112760   6.536   0.600   2.333 -0.7667  0.7766 -1.7522
 4273TIP3    H212761   6.455   0.727   2.352  0.1558  1.1123  0.2274
 4274TIP3   OH212762   0.614   6.549   2.212 -0.7351 -0.7580 -0.2780
 4274TIP3    H112763   0.622   6.639   2.243 -1.0527 -0.5094 -0.9014
 4274TIP3    H212764   0.704   6.520   2.197 -0.5811 -0.8597  0.7857
 4275TIP3   OH212765   4.300   3.247   0.126  0.0736 -0.0252  0.1428
 4275TIP3    H112766   4.306   3.219   0.217  0.7210 -0.8538 -0.1364
 4275TIP3    H212767   4.367   3.195   0.081  0.0179  0.6413 -0.7393
 4276TIP3   OH212768   4.349   6.656   6.491  0.0793 -0.3340  0.3935
 4276TIP3    H112769   4.380   6.651   6.400 -1.5027  0.9709 -0.2657
 4276TIP3    H212770   4.279   6.590   6.495 -0.7977  0.5550  0.2195
 4277TIP3   OH212771   5.516   4.456   4.476  0.6925 -0.1849 -0.0473
 4277TIP3    H112772   5.476   4.481   4.393 -0.6464  3.7123  1.4900
 4277TIP3    H212773   5.608   4.482   4.468  0.8110 -0.7693 -0.6227
 4278TIP3   OH212774   2.636   5.947   5.678 -0.4072  0.2610  0.8403
 4278TIP3    H112775   2.652   5.856   5.702  0.7777  0.5299  1.1358
 4278TIP3    H212776   2.569   5.977   5.740 -1.5144 -0.6633  0.1226
 4279TIP3   OH212777   6.040   6.573   4.177 -0.6595  0.3192 -0.2682
 4279TIP3    H112778   6.106   6.575   4.246 -1.8967  1.1848  0.9406
 4279TIP3    H212779   6.004   6.484   4.181  1.3545 -0.6529 -1.9139
 4280TIP3   OH212780   5.844   1.458   1.724 -0.2349 -0.1309 -0.7148
 4280TIP3    H112781   5.821   1.378   1.772 -0.6256 -0.2053 -1.0165
 4280TIP3    H212782   5.793   1.452   1.643  0.9030 -0.3352 -1.4460
 4281TIP3   OH212783   3.972   4.005   2.097  0.7131 -0.1182  0.4430
 4281TIP3    H112784   3.899   3.946   2.073  0.5173 -0.5643  2.0186
 4281TIP3    H212785   3.930   4.077   2.143  1.1913  0.0775  0.5726
 4282TIP3   OH212786   5.499   3.036   4.868 -0.5759  0.5689  0.5260
 4282TIP3    H112787   5.433   3.105   4.882 -1.3140 -0.2997  1.5262
 4282TIP3    H212788   5.447   2.957   4.854  0.2209 -0.2684  2.0125
 4283TIP3   OH212789   2.536   0.380   0.345 -0.0316  0.0059 -0.6427
 4283TIP3    H112790   2.615   0.380   0.292 -0.9090  1.3545 -2.0495
 4283TIP3    H212791   2.544   0.303   0.401  3.0725  1.0674  0.5454
 4284TIP3   OH212792   2.195   7.189   1.474  0.3253 -0.1966 -0.0519
 4284TIP3    H112793   2.201   7.266   1.530 -0.3271 -0.2304  0.0689
 4284TIP3    H212794   2.245   7.212   1.396 -0.7418  0.7619 -0.4819
 4285TIP3   OH212795   5.986   3.078   1.593  0.1191 -0.5863  0.2246
 4285TIP3    H112796   6.077   3.078   1.622 -0.1675 -0.6970  1.1387
 4285TIP3    H212797   5.962   2.985   1.589 -1.2668 -0.5931  4.3055
 4286TIP3   OH212798   1.206   2.713   0.473 -0.1292 -0.2101  0.3092
 4286TIP3    H112799   1.162   2.675   0.397  0.0914  0.9999 -0.4540
 4286TIP3    H212800   1.293   2.673   0.472 -0.4415 -0.9257  0.5155
 4287TIP3   OH212801   7.478   6.048   5.629 -0.3436  0.0146  0.3818
 4287TIP3    H112802   7.536   6.000   5.569  0.1884 -0.9242  1.6023
 4287TIP3    H212803   7.537   6.097   5.686 -0.8667  1.4025 -0.2279
 4288TIP3   OH212804   5.157   0.864   1.617  0.6235 -0.0981 -0.6545
 4288TIP3    H112805   5.181   0.810   1.542  1.3667 -0.3694 -0.2301
 4288TIP3    H212806   5.140   0.801   1.687 -0.0669  0.1512 -0.5861
 4289TIP3   OH212807   3.975   0.394   6.699 -0.1977  0.0766 -0.0795
 4289TIP3    H112808   4.025   0.468   6.733 -1.5987  0.2894  1.6827
 4289TIP3    H212809   4.005   0.319   6.750 -2.2260  0.3722  1.7064
 4290TIP3   OH212810   0.149   3.050   5.518 -0.0206 -0.0925  0.2017
 4290TIP3    H112811   0.157   3.146   5.522  3.0172 -0.2453  0.8727
 4290TIP3    H212812   0.131   3.031   5.426 -0.7342  1.1159  0.0731
 4291TIP3   OH212813   7.394   1.864   3.754  0.1275 -0.0023  0.3163
 4291TIP3    H112814   7.475   1.819   3.779  1.2184  1.7706  0.1157
 4291TIP3    H212815   7.410   1.956   3.773 -2.0552  0.3450  0.7422
 4292TIP3   OH212816   6.291   5.669   2.554  0.1434 -0.0703 -0.1746
 4292TIP3    H112817   6.256   5.605   2.616 -0.0355  0.4599  0.2772
 4292TIP3    H212818   6.238   5.747   2.568  0.3244  0.1627 -0.7640
 4293TIP3   OH212819   1.514   4.791   6.501 -0.3448 -0.0813 -0.1510
 4293TIP3    H112820   1.515   4.820   6.592 -0.4070 -0.0422 -0.1618
 4293TIP3    H212821   1.479   4.702   6.504 -2.0622  0.5406 -0.2965
 4294TIP3   OH212822   8.253   0.071   2.765 -0.1215 -0.9955  0.3368
 4294TIP3    H112823   8.219   0.161   2.763  0.1797 -0.8795  0.4364
 4294TIP3    H212824   8.348   0.081   2.763 -0.0937 -1.3290 -0.1661
 4295TIP3   OH212825   6.283   2.610   1.955  0.0958  0.2147 -0.0215
 4295TIP3    H112826   6.353   2.544   1.963 -0.2325  0.0077  1.2444
 4295TIP3    H212827   6.297   2.669   2.029 -0.0053  1.2168 -0.7858
 4296TIP3   OH212828   7.698   3.740   4.497 -0.7217  0.3227  0.2166
 4296TIP3    H112829   7.712   3.826   4.536 -0.5324  0.2926  0.2165
 4296TIP3    H212830   7.732   3.678   4.562  1.4023  0.3481 -0.7961
 4297TIP3   OH212831   2.981   7.246   5.475 -0.0618  0.4340 -0.4036
 4297TIP3    H112832   2.939   7.210   5.554 -0.5916  0.8432 -0.4943
 4297TIP3    H212833   3.004   7.169   5.423  0.8341  0.1255  0.4137
 4298TIP3   OH212834   5.697   3.365   0.801 -0.1983 -0.5927  0.3528
 4298TIP3    H112835   5.670   3.336   0.888  0.3944 -1.9892  0.0910
 4298TIP3    H212836   5.666   3.456   0.796 -0.8192 -0.6951  1.7581
 4299TIP3   OH212837   2.227   0.601   0.124  0.0439 -0.2759 -0.3419
 4299TIP3    H112838   2.292   0.628   0.059  0.3312  1.8284  0.7387
 4299TIP3    H212839   2.145   0.596   0.074  0.2693  1.2188 -0.9175
 4300TIP3   OH212840   6.378   6.207   0.492 -0.0139 -0.6788 -0.1658
 4300TIP3    H112841   6.367   6.291   0.536 -0.5829 -0.4798 -0.6573
 4300TIP3    H212842   6.289   6.173   0.484  0.2810 -1.6595  0.6446
 4301TIP3   OH212843   4.926   4.863   6.752  0.0853  0.0099  0.2673
 4301TIP3    H112844   4.964   4.940   6.709 -0.4587 -0.1715 -0.5563
 4301TIP3    H212845   4.988   4.792   6.734 -0.3089 -0.1402 -0.5143
 4302TIP3   OH212846   4.707   2.083   5.866 -0.5589 -0.1548 -0.0024
 4302TIP3    H112847   4.754   2.058   5.786 -1.5202  0.1406 -0.6792
 4302TIP3    H212848   4.617   2.054   5.850 -1.2297  1.7350  0.1039
 4303TIP3   OH212849   3.836   7.096   2.027  0.2877 -0.2124 -0.2856
 4303TIP3    H112850   3.763   7.111   2.087  0.7954  2.5035 -0.2111
 4303TIP3    H212851   3.839   7.001   2.016 -1.9546 -0.5501  1.2891
 4304TIP3   OH212852   4.958   5.715   1.833 -0.2520 -0.0208  0.4682
 4304TIP3    H112853   4.915   5.637   1.868 -0.8250  0.3860  0.6873
 4304TIP3    H212854   4.933   5.717   1.741  0.3664 -0.4918  0.2804
 4305TIP3   OH212855   0.391   4.622   2.341 -0.0900 -0.3717 -0.0054
 4305TIP3    H112856   0.445   4.588   2.412 -0.3876 -1.8340 -0.4548
 4305TIP3    H212857   0.432   4.706   2.319 -0.0205  0.1265  1.8863
 4306TIP3   OH212858   0.645   7.868   2.438  0.0706 -0.4414 -0.2454
 4306TIP3    H112859   0.725   7.826   2.468 -0.3361 -1.0227  0.0397
 4306TIP3    H212860   0.662   7.962   2.449  0.1293 -0.6059  1.3664
 4307TIP3   OH212861   7.909   3.144   1.776 -0.2842 -1.1839  0.2864
 4307TIP3    H112862   7.892   3.182   1.689  0.8638 -0.6749  0.2539
 4307TIP3    H212863   8.004   3.127   1.775  0.0565  0.3759  2.0269
 4308TIP3   OH212864   6.752   2.133   0.793 -0.2001  0.6368  0.7026
 4308TIP3    H112865   6.777   2.145   0.885 -0.9334 -0.9566  1.1471
 4308TIP3    H212866   6.835   2.126   0.747  0.2094 -0.5231  1.5590
 4309TIP3   OH212867   1.673   1.528   3.618  0.3401 -0.1683  0.2014
 4309TIP3    H112868   1.743   1.593   3.605  0.0446  0.2979  0.8901
 4309TIP3    H212869   1.592   1.579   3.614  0.1586 -0.2408  2.1639
 4310TIP3   OH212870   0.692   0.541   4.022 -0.2629 -0.3851  0.1218
 4310TIP3    H112871   0.671   0.614   4.080  1.9005  1.5374 -1.2969
 4310TIP3    H212872   0.612   0.528   3.970 -0.3272  1.9020 -0.4507
 4311TIP3   OH212873   6.960   1.168   4.047  0.1237 -0.2891  0.1140
 4311TIP3    H112874   7.004   1.216   4.118  0.0676  0.9356 -0.6443
 4311TIP3    H212875   6.883   1.221   4.027 -0.5720 -1.3141 -0.0021
 4312TIP3   OH212876   2.551   0.653   5.794 -0.4071 -0.9110 -0.3844
 4312TIP3    H112877   2.594   0.704   5.725 -2.9299  0.4665 -1.0639
 4312TIP3    H212878   2.526   0.571   5.752 -0.1028 -0.9514 -0.4909
 4313TIP3   OH212879   4.597   6.002   1.076  0.3163 -0.1390 -0.2905
 4313TIP3    H112880   4.580   6.074   1.137  0.6107 -1.1110  1.0061
 4313TIP3    H212881   4.687   6.016   1.046  0.8418 -0.6353  0.9660
 4314TIP3   OH212882   2.754   3.572   4.327 -0.3474  0.1186  0.0108
 4314TIP3    H112883   2.676   3.525   4.356 -0.0591  0.3166  1.1855
 4314TIP3    H212884   2.728   3.664   4.324 -0.1978  0.1722  0.2908
 4315TIP3   OH212885   5.511   6.054   2.341  0.0670  0.1469  0.2418
 4315TIP3    H112886   5.520   5.972   2.389  1.3216  0.2902  0.2838
 4315TIP3    H212887   5.486   6.118   2.407  0.3548  0.0519  0.4457
 4316TIP3   OH212888   6.564   3.121   1.214  0.0171 -0.1224 -0.1885
 4316TIP3    H112889   6.573   3.082   1.301 -1.8836  1.0075  0.5800
 4316TIP3    H212890   6.627   3.194   1.214  2.1084 -1.8468 -0.8850
 4317TIP3   OH212891   3.700   3.384   3.025 -0.3542 -0.2819 -0.4398
 4317TIP3    H112892   3.625   3.363   3.080 -1.1215 -1.0113 -1.7110
 4317TIP3    H212893   3.667   3.377   2.935  1.2145 -0.6154 -1.0355
 4318TIP3   OH212894   0.707   4.101   1.549 -0.1197  0.3106  0.2759
 4318TIP3    H112895   0.794   4.061   1.547 -0.3314 -0.1347 -1.0224
 4318TIP3    H212896   0.724   4.195   1.549  0.3638  0.2287  0.1635
 4319TIP3   OH212897   1.231   1.627   2.550 -0.3723 -0.1714  0.4699
 4319TIP3    H112898   1.158   1.664   2.599  1.2174  2.4013  1.0993
 4319TIP3    H212899   1.293   1.598   2.617 -0.6106 -2.0373 -0.0579
 4320TIP3   OH212900   8.091   6.397   4.313 -0.2469 -0.1565  0.4363
 4320TIP3    H112901   8.049   6.483   4.312 -1.4795 -0.7320 -0.5925
 4320TIP3    H212902   8.058   6.354   4.392 -0.3006  0.0010  0.4973
 4321TIP3   OH212903   7.113   1.813   6.299 -0.7252 -0.4218  0.6460
 4321TIP3    H112904   7.071   1.866   6.231 -1.6128  0.2066  1.6537
 4321TIP3    H212905   7.042   1.783   6.355  0.0507 -0.0535  1.8990
 4322TIP3   OH212906   6.312   1.572   1.111  0.3985  0.6038  0.5696
 4322TIP3    H112907   6.351   1.599   1.195  1.7018  1.0535 -0.1427
 4322TIP3    H212908   6.357   1.626   1.046 -1.8145  1.5282 -0.3008
 4323TIP3   OH212909   4.096   1.875   3.880 -0.1593  0.1175  0.1681
 4323TIP3    H112910   4.188   1.902   3.875 -0.1284 -0.0925 -0.4677
 4323TIP3    H212911   4.088   1.804   3.816 -0.6679 -0.1511  0.5201
 4324TIP3   OH212912   2.913   2.345   4.090  0.1712  0.2323  0.2313
 4324TIP3    H112913   2.953   2.373   4.008 -0.9923  0.4853 -0.2711
 4324TIP3    H212914   2.965   2.270   4.118  1.9855  1.4995  0.4552
 4325TIP3   OH212915   6.243   5.185   6.414  0.0362 -0.1313 -0.5280
 4325TIP3    H112916   6.288   5.257   6.370 -0.1590 -0.5453 -1.4230
 4325TIP3    H212917   6.241   5.115   6.349 -1.1209 -0.4225 -0.1973
 4326TIP3   OH212918   4.977   5.604   5.981 -0.2319  0.4453  0.4907
 4326TIP3    H112919   4.905   5.608   5.919 -0.0631 -1.7912  0.0671
 4326TIP3    H212920   5.007   5.513   5.978  1.2580  0.8090  2.1888
 4327TIP3   OH212921   7.388   2.385   0.148  0.0255  0.0969 -0.2482
 4327TIP3    H112922   7.362   2.395   0.057 -1.0489 -2.0256 -0.2211
 4327TIP3    H212923   7.478   2.417   0.151 -1.1169  3.9266 -1.1862
 4328TIP3   OH212924   2.525   4.332   2.629  0.3068  0.0109 -0.8537
 4328TIP3    H112925   2.564   4.299   2.548  1.0664  0.3404 -0.6310
 4328TIP3    H212926   2.599   4.340   2.689 -0.5388 -2.6862  0.7502
 4329TIP3   OH212927   1.549   3.460   2.945 -0.1798 -0.3167 -0.1185
 4329TIP3    H112928   1.526   3.553   2.940 -2.0262 -0.7136  0.1672
 4329TIP3    H212929   1.637   3.455   2.908  1.5570  2.0531  3.2397
 4330TIP3   OH212930   1.679   0.144   0.849 -0.4439 -0.1796  0.0477
 4330TIP3    H112931   1.606   0.082   0.841  0.6214 -1.2881 -1.6476
 4330TIP3    H212932   1.755   0.090   0.867  0.2939  0.7629 -0.1812
 4331TIP3   OH212933   0.707   6.879   0.241  0.7183  0.2829 -0.6460
 4331TIP3    H112934   0.741   6.811   0.300  0.3842  1.2835  0.7427
 4331TIP3    H212935   0.615   6.858   0.232  0.7186  0.2668 -0.6141
 4332TIP3   OH212936   7.698   3.930   3.249 -0.2454  0.0295  0.1384
 4332TIP3    H112937   7.675   3.895   3.163  1.0864  1.4788 -0.8674
 4332TIP3    H212938   7.788   3.963   3.238 -0.5908  1.6025  1.6332
 4333TIP3   OH212939   7.987   6.639   0.759  0.2955  0.1707  0.3099
 4333TIP3    H112940   8.066   6.597   0.725 -0.2929 -1.1920  0.5545
 4333TIP3    H212941   8.009   6.732   0.764  1.2818  0.0572 -1.2977
 4334TIP3   OH212942   6.915   6.539   1.172  0.3778  0.6489  0.2363
 4334TIP3    H112943   6.953   6.457   1.139 -1.7794 -0.7942  1.0644
 4334TIP3    H212944   6.866   6.512   1.250  0.2371  2.8990  0.9803
 4335TIP3   OH212945   8.346   7.760   5.161  0.4352 -0.2068 -0.6498
 4335TIP3    H112946   8.251   7.746   5.161 -0.0422  2.4842 -0.7482
 4335TIP3    H212947   8.373   7.742   5.071 -0.8114  3.0578 -1.8376
 4336TIP3   OH212948   4.609   5.626   5.170  0.1098  0.0247 -0.7347
 4336TIP3    H112949   4.675   5.609   5.237  0.7043  0.2481 -1.2589
 4336TIP3    H212950   4.548   5.553   5.178 -1.1866  1.2253  1.6496
 4337TIP3   OH212951   3.551   3.775   4.719  0.3405 -0.0821 -0.6362
 4337TIP3    H112952   3.578   3.685   4.704  1.7667  0.2343 -0.0428
 4337TIP3    H212953   3.468   3.768   4.766  2.4189 -1.2096  3.2616
 4338TIP3   OH212954   0.968   6.387   6.365 -0.2024  0.1474 -0.2239
 4338TIP3    H112955   1.004   6.380   6.277  0.5796 -0.9895  0.1574
 4338TIP3    H212956   0.911   6.310   6.373  0.4015 -0.2335  0.5403
 4339TIP3   OH212957   7.715   7.029   4.237  0.0506  0.0818  0.4472
 4339TIP3    H112958   7.715   6.958   4.301  0.1039 -0.3623 -0.0347
 4339TIP3    H212959   7.636   7.079   4.257 -0.7710 -0.9483 -0.0961
 4340TIP3   OH212960   4.847   2.895   2.045  0.3707  0.0363  0.3150
 4340TIP3    H112961   4.815   2.984   2.061 -2.5231 -0.7762 -0.3490
 4340TIP3    H212962   4.830   2.849   2.127 -0.4429 -0.4638 -0.1220
 4341TIP3   OH212963   8.250   4.755   0.430  0.1800 -0.3527  0.7265
 4341TIP3    H112964   8.199   4.685   0.391 -0.9232  1.2591 -0.9026
 4341TIP3    H212965   8.186   4.808   0.478  0.9555 -0.3541  1.7905
 4342TIP3   OH212966   1.640   6.577   4.102 -0.0323  0.3531  0.0661
 4342TIP3    H112967   1.726   6.619   4.108 -0.4613  1.4411 -1.0266
 4342TIP3    H212968   1.656   6.497   4.052  0.0868  1.4211 -1.6818
 4343TIP3   OH212969   4.316   5.355   3.983  0.0707  0.0173 -0.0154
 4343TIP3    H112970   4.298   5.423   4.049 -0.6691 -0.3653  0.1946
 4343TIP3    H212971   4.265   5.280   4.013  0.1448 -0.3292 -0.7534
 4344TIP3   OH212972   2.718   5.879   1.131  0.2853  0.2150 -0.5639
 4344TIP3    H112973   2.649   5.828   1.089  0.6300 -0.4341 -0.3554
 4344TIP3    H212974   2.674   5.960   1.159 -0.5143 -0.4102  0.0282
 4345TIP3   OH212975   7.111   4.356   4.538 -0.1604  0.4285 -0.0419
 4345TIP3    H112976   7.067   4.319   4.614 -0.9495  1.4910  0.0359
 4345TIP3    H212977   7.183   4.407   4.575 -0.3096  0.6281 -0.0248
 4346TIP3   OH212978   1.736   0.406   6.645 -0.6844  0.2750  0.7555
 4346TIP3    H112979   1.802   0.401   6.576  0.8641  0.7781  2.1255
 4346TIP3    H212980   1.762   0.337   6.707 -1.8769  0.0099  0.9760
 4347TIP3   OH212981   4.791   0.858   4.737 -0.6203 -0.0083  0.2916
 4347TIP3    H112982   4.741   0.856   4.818 -0.6997 -0.2739  0.2366
 4347TIP3    H212983   4.881   0.876   4.764 -0.6182 -0.2578  0.4497
 4348TIP3   OH212984   3.012   5.456   5.058 -0.0516  0.1373 -0.1039
 4348TIP3    H112985   2.987   5.448   5.150 -0.2871  1.5241 -0.0184
 4348TIP3    H212986   3.056   5.541   5.052  3.1947 -1.4523 -0.6112
 4349TIP3   OH212987   7.265   2.799   0.135  0.1748 -0.1138 -0.4966
 4349TIP3    H112988   7.360   2.789   0.122  0.5078  1.7633  0.1912
 4349TIP3    H212989   7.235   2.847   0.058  0.1137  0.8035  0.0821
 4350TIP3   OH212990   5.201   2.575   1.134  0.3334  0.1585  0.0212
 4350TIP3    H112991   5.129   2.533   1.182  0.0991 -0.4663 -0.8473
 4350TIP3    H212992   5.271   2.584   1.198  0.9210 -2.8643 -0.0484
 4351TIP3   OH212993   0.984   6.865   1.628  0.0896  0.1965 -0.3021
 4351TIP3    H112994   0.989   6.838   1.720 -1.2350 -3.1098 -1.0447
 4351TIP3    H212995   1.074   6.884   1.603  0.8687 -1.4852  1.0312
 4352TIP3   OH212996   2.461   7.167   0.202 -0.6992 -0.2610  0.0143
 4352TIP3    H112997   2.436   7.259   0.207 -0.8887 -0.3288  0.4210
 4352TIP3    H212998   2.391   7.122   0.249 -1.2521 -0.7364 -1.2063
 4353TIP3   OH212999   6.305   5.411   5.821 -0.3424  0.1300 -0.7733
 4353TIP3    H113000   6.374   5.478   5.822  0.0273 -0.2449 -0.6294
 4353TIP3    H213001   6.353   5.328   5.814 -0.7546 -0.1674 -0.1400
 4354TIP3   OH213002   4.800   3.895   3.937  0.0585  0.2979  0.1329
 4354TIP3    H113003   4.736   3.885   4.007  0.2183  0.0034  0.2373
 4354TIP3    H213004   4.873   3.940   3.978  1.2941 -2.2080  0.8837
 4355TIP3   OH213005   3.756   1.003   0.640 -0.4556  0.0997 -0.1423
 4355TIP3    H113006   3.819   1.062   0.680 -0.1477  0.0613 -0.5668
 4355TIP3    H213007   3.789   0.988   0.551 -1.1664  0.2463 -0.4450
 4356TIP3   OH213008   0.995   6.692   5.111 -0.3803 -0.6804  0.1541
 4356TIP3    H113009   0.987   6.596   5.109 -1.7564 -0.5811 -0.3836
 4356TIP3    H213010   0.906   6.723   5.096  0.4738  0.7097 -2.5810
 4357TIP3   OH213011   5.549   2.506   1.133  0.0052 -0.2132  0.4810
 4357TIP3    H113012   5.533   2.563   1.058 -0.7898 -2.5564 -1.2528
 4357TIP3    H213013   5.556   2.418   1.096  0.5594 -1.3712  3.0684
 4358TIP3   OH213014   3.280   3.881   6.846  0.6095 -0.3905 -0.1057
 4358TIP3    H113015   3.221   3.842   6.782 -1.2124 -1.6784  2.1794
 4358TIP3    H213016   3.287   3.815   6.915  0.0511  1.9537  2.4117
 4359TIP3   OH213017   7.072   0.786   0.632 -0.4896  0.0372  0.6228
 4359TIP3    H113018   7.152   0.774   0.581 -0.6099 -0.7625  0.6073
 4359TIP3    H213019   7.008   0.727   0.592 -0.7148 -0.2745  1.4041
 4360TIP3   OH213020   1.858   0.304   3.995  0.0369  0.0216 -0.1241
 4360TIP3    H113021   1.810   0.321   3.915 -0.2898 -0.4791 -0.0366
 4360TIP3    H213022   1.865   0.208   4.000  2.2346  0.1026 -0.8383
 4361TIP3   OH213023   7.597   1.092   1.129  0.5989  0.4358 -0.1745
 4361TIP3    H113024   7.629   1.031   1.195 -1.3804 -0.8247 -0.2921
 4361TIP3    H213025   7.504   1.104   1.151  0.6135  2.3630 -0.9692
 4362TIP3   OH213026   3.718   5.976   3.493 -0.4026 -0.2366  0.4991
 4362TIP3    H113027   3.776   5.996   3.566 -0.3519 -1.2584  0.7612
 4362TIP3    H213028   3.683   5.889   3.513 -0.9548 -0.2209 -0.3326
 4363TIP3   OH213029   6.282   6.384   5.556 -0.2789 -0.2946  0.1768
 4363TIP3    H113030   6.375   6.405   5.559 -0.4320  0.5459 -0.5765
 4363TIP3    H213031   6.277   6.292   5.582  0.8969 -0.7417 -1.0544
 4364TIP3   OH213032   6.408   4.586   6.792 -0.5707 -0.2256 -0.2813
 4364TIP3    H113033   6.491   4.604   6.836 -0.4260  0.0835 -0.6756
 4364TIP3    H213034   6.431   4.528   6.720 -0.8058 -0.7131  0.0282
 4365TIP3   OH213035   3.446   0.330   2.242  0.1390 -0.4146  0.0058
 4365TIP3    H113036   3.428   0.244   2.203  0.7453  0.0580 -1.3911
 4365TIP3    H213037   3.489   0.379   2.172 -0.6497  1.1987  0.6104
 4366TIP3   OH213038   3.832   4.210   2.200  0.6705  0.2068  0.4340
 4366TIP3    H113039   3.814   4.160   2.279  0.2724 -1.9335 -0.9359
 4366TIP3    H213040   3.756   4.268   2.191  1.3834  1.5168  2.3189
 4367TIP3   OH213041   5.057   4.665   0.376 -0.3431 -0.8850  0.6732
 4367TIP3    H113042   5.070   4.749   0.332 -1.9699 -1.2654 -0.6215
 4367TIP3    H213043   5.131   4.658   0.437  0.4811  0.9127 -0.0593
 4368TIP3   OH213044   2.303   4.045   3.906  0.1134  0.5780 -0.0733
 4368TIP3    H113045   2.213   4.024   3.930  0.6470 -0.3162  1.3098
 4368TIP3    H213046   2.349   3.961   3.909  1.2857  1.2189  0.7089
 4369TIP3   OH213047   1.610   0.867   2.113 -0.1046  0.0705  0.4301
 4369TIP3    H113048   1.583   0.784   2.152  1.5324 -0.6491  0.1206
 4369TIP3    H213049   1.673   0.842   2.045  0.2864  1.5579  0.2094
 4370TIP3   OH213050   3.962   3.511   2.987 -0.2981  0.2014 -0.8877
 4370TIP3    H113051   3.908   3.434   3.005 -1.3370  0.5792 -2.1825
 4370TIP3    H213052   4.022   3.517   3.061 -1.1241 -1.0484 -0.0863
 4371TIP3   OH213053   3.346   5.117   3.679 -0.1896  0.0475  0.2757
 4371TIP3    H113054   3.439   5.115   3.658 -0.1946  1.3474  0.0585
 4371TIP3    H213055   3.341   5.158   3.765 -0.5149 -0.8656  0.7117
 4372TIP3   OH213056   5.605   0.799   2.014 -0.0495  0.0899 -0.4386
 4372TIP3    H113057   5.694   0.796   2.049 -0.1998 -0.4280 -0.0953
 4372TIP3    H213058   5.600   0.884   1.970  0.9211 -0.2632 -1.2906
 4373TIP3   OH213059   4.831   4.328   1.863 -0.5064 -0.0117 -0.0063
 4373TIP3    H113060   4.781   4.359   1.787 -2.6545  0.3206  1.4637
 4373TIP3    H213061   4.804   4.385   1.935  0.4076 -1.2056  1.3368
 4374TIP3   OH213062   0.150   7.693   2.870  0.1428 -0.4608  0.2545
 4374TIP3    H113063   0.173   7.786   2.879 -1.6622  0.2369 -1.4753
 4374TIP3    H213064   0.123   7.667   2.957  0.2078  0.7911  0.6745
 4375TIP3   OH213065   0.073   3.972   5.315  0.3302  0.0360  0.1009
 4375TIP3    H113066   0.115   4.016   5.241  1.5654  0.8722  1.2599
 4375TIP3    H213067   0.070   4.038   5.384 -0.1511 -0.9404  1.0488
 4376TIP3   OH213068   4.886   5.780   2.521 -0.2158  0.7644  0.0741
 4376TIP3    H113069   4.841   5.864   2.510 -0.9338  0.5747  1.3941
 4376TIP3    H213070   4.865   5.753   2.610 -0.4933 -1.1124 -0.5132
 4377TIP3   OH213071   1.916   4.451   3.467  0.3290 -0.3375 -0.8592
 4377TIP3    H113072   1.957   4.526   3.424  0.8876  0.0194  0.2631
 4377TIP3    H213073   1.951   4.374   3.420  0.4982  0.0562 -1.3867
 4378TIP3   OH213074   2.187   5.570   5.110 -0.7217 -0.2657  0.1407
 4378TIP3    H113075   2.133   5.536   5.182 -0.5696 -0.7783  0.0175
 4378TIP3    H213076   2.262   5.511   5.107  0.8864  1.5265  1.6012
 4379TIP3   OH213077   2.365   5.789   0.479  0.0110  0.6602 -0.1377
 4379TIP3    H113078   2.457   5.772   0.458 -0.6272 -2.9090 -0.6571
 4379TIP3    H213079   2.325   5.813   0.396  0.2977  1.6558 -0.0114
 4380TIP3   OH213080   6.897   7.605   3.885  0.1917  0.3105  0.5176
 4380TIP3    H113081   6.867   7.658   3.811  2.3865 -1.5203 -1.8701
 4380TIP3    H213082   6.839   7.529   3.885  0.7568 -0.1354  0.0197
 4381TIP3   OH213083   6.565   1.303   6.500 -0.5227  0.2490 -0.1107
 4381TIP3    H113084   6.591   1.246   6.573  3.2633  1.4298 -0.2919
 4381TIP3    H213085   6.624   1.378   6.506 -1.3595  1.3363 -3.2755
 4382TIP3   OH213086   1.885   5.868   0.397 -0.9565  0.0436  0.2668
 4382TIP3    H113087   1.965   5.845   0.350 -1.1524  0.0227 -0.0587
 4382TIP3    H213088   1.904   5.847   0.488 -0.0223  1.5658  0.4475
 4383TIP3   OH213089   7.317   1.862   2.002  0.0030  0.1968 -0.3323
 4383TIP3    H113090   7.277   1.797   2.060  0.0305  1.7504  1.5218
 4383TIP3    H213091   7.258   1.937   2.006  2.6238  2.3674  2.0563
 4384TIP3   OH213092   2.384   6.048   2.745  0.0008 -0.4668 -0.3881
 4384TIP3    H113093   2.430   6.128   2.773  0.2287 -0.1146 -1.6991
 4384TIP3    H213094   2.454   5.985   2.729 -0.1470 -0.7661  0.1439
 4385TIP3   OH213095   4.487   7.317   3.760 -0.6064  0.7457 -0.6525
 4385TIP3    H113096   4.507   7.347   3.671 -0.1961 -0.3517 -0.9447
 4385TIP3    H213097   4.421   7.249   3.748 -1.0767  1.0847 -0.0495
 4386TIP3   OH213098   0.832   2.627   4.360  0.4017  0.2163  0.2533
 4386TIP3    H113099   0.896   2.698   4.373  1.6473 -0.9152  0.5548
 4386TIP3    H213100   0.802   2.605   4.448  1.0653 -0.5421  0.2992
 4387TIP3   OH213101   2.611   5.286   3.249  0.1957 -0.0666  0.2012
 4387TIP3    H113102   2.569   5.323   3.326 -0.2055 -0.7561  0.3233
 4387TIP3    H213103   2.634   5.361   3.195 -1.1988  0.3372  0.1368
 4388TIP3   OH213104   6.642   4.233   4.678 -0.0088 -0.6934 -0.3065
 4388TIP3    H113105   6.613   4.207   4.765  0.6522 -1.4534 -0.2973
 4388TIP3    H213106   6.735   4.253   4.689 -0.1953  0.4020 -0.5931
 4389TIP3   OH213107   3.663   4.655   6.101 -0.4032 -0.0443  0.1140
 4389TIP3    H113108   3.569   4.664   6.113 -0.4489  0.2434 -0.4220
 4389TIP3    H213109   3.683   4.567   6.135 -0.6901  0.2831  1.1718
 4390TIP3   OH213110   1.810   1.452   5.810 -0.3459  0.1250  0.2202
 4390TIP3    H113111   1.716   1.452   5.825 -0.5729  0.1070 -1.0541
 4390TIP3    H213112   1.819   1.466   5.715  0.8801 -1.6828  0.0238
 4391TIP3   OH213113   0.303   4.709   4.218 -0.6196  0.5011 -0.1324
 4391TIP3    H113114   0.237   4.777   4.232 -2.1064 -0.7615 -0.6598
 4391TIP3    H213115   0.303   4.696   4.123 -0.2927 -0.1686 -0.0435
 4392TIP3   OH213116   5.649   6.679   5.023  0.8440 -0.1513 -0.1506
 4392TIP3    H113117   5.558   6.709   5.018  0.2396 -1.7170  0.7894
 4392TIP3    H213118   5.656   6.639   5.110  2.7687  0.9349  0.2542
 4393TIP3   OH213119   1.597   4.429   2.392  0.0550 -0.0569 -0.4578
 4393TIP3    H113120   1.664   4.364   2.411  0.4858  0.6736  0.6482
 4393TIP3    H213121   1.515   4.390   2.422  0.5644  0.6142  2.0734
 4394TIP3   OH213122   0.803   1.060   5.453 -0.0138  0.0377 -0.4554
 4394TIP3    H113123   0.721   1.108   5.443 -0.7721 -1.0839  0.1133
 4394TIP3    H213124   0.871   1.126   5.446 -1.0558  1.5899  2.2986
 4395TIP3   OH213125   6.561   0.437   2.279  0.5014  0.4022  0.4007
 4395TIP3    H113126   6.469   0.414   2.285  0.3184  0.3172 -1.8808
 4395TIP3    H213127   6.607   0.354   2.291  0.1846  0.1314 -0.2008
 4396TIP3   OH213128   4.590   7.843   1.595 -0.5222  0.4341 -0.5464
 4396TIP3    H113129   4.573   7.863   1.503 -0.8574  0.0256 -0.5742
 4396TIP3    H213130   4.658   7.905   1.621 -0.8275  0.9280 -0.9120
 4397TIP3   OH213131   0.517   1.853   2.940  0.3253 -0.5096  0.3159
 4397TIP3    H113132   0.571   1.905   3.000 -1.7417  0.2675  1.6108
 4397TIP3    H213133   0.538   1.762   2.963  0.3942 -0.2239  1.4877
 4398TIP3   OH213134   1.145   4.670   2.938 -0.0106 -0.1547  0.0759
 4398TIP3    H113135   1.077   4.618   2.981 -0.6496  1.3113  0.9407
 4398TIP3    H213136   1.181   4.612   2.871 -0.0921 -1.9979  1.5197
 4399TIP3   OH213137   0.916   7.444   6.707  0.5030 -0.0520  0.3046
 4399TIP3    H113138   0.917   7.495   6.626  0.8804 -0.4478  0.0532
 4399TIP3    H213139   0.856   7.371   6.689  1.7882 -1.0359 -0.2034
 4400TIP3   OH213140   3.839   0.235   2.962  0.0280  0.2184 -0.1314
 4400TIP3    H113141   3.767   0.297   2.976  0.9091  1.0484  0.8295
 4400TIP3    H213142   3.901   0.282   2.906  0.7048  0.2147  0.6033
 4401TIP3   OH213143   3.359   1.318   4.883  0.2163 -0.6136  0.0749
 4401TIP3    H113144   3.317   1.379   4.822  0.5980 -1.4125 -1.0281
 4401TIP3    H213145   3.451   1.345   4.883  0.1034 -0.1936  0.8447
 4402TIP3   OH213146   7.402   5.037   0.592 -0.3467  0.1873 -0.2331
 4402TIP3    H113147   7.336   4.979   0.630  1.1053 -0.8121  0.8564
 4402TIP3    H213148   7.385   5.034   0.498 -0.5243 -1.7818 -0.1796
 4403TIP3   OH213149   5.887   2.589   0.600 -0.0682 -0.8113  0.4948
 4403TIP3    H113150   5.919   2.581   0.510 -2.7469 -0.7959 -0.5455
 4403TIP3    H213151   5.883   2.499   0.632  0.4290 -0.8558  0.4487
 4404TIP3   OH213152   7.712   6.521   4.273  0.0474 -0.0469 -0.2437
 4404TIP3    H113153   7.643   6.519   4.206 -0.3283  1.0835  0.0890
 4404TIP3    H213154   7.793   6.533   4.224  0.1614 -2.2969 -0.7155
 4405TIP3   OH213155   2.943   1.988   5.618  0.0513  0.1801 -0.1215
 4405TIP3    H113156   2.922   2.072   5.579 -1.2095 -0.2677 -0.4387
 4405TIP3    H213157   3.025   1.962   5.576  0.9507  1.6396  0.6383
 4406TIP3   OH213158   2.790   6.779   5.696  0.7439 -0.5118  0.3696
 4406TIP3    H113159   2.767   6.784   5.789  0.0305 -0.8577  0.2228
 4406TIP3    H213160   2.861   6.842   5.685  0.6044 -0.2196  1.0789
 4407TIP3   OH213161   0.329   0.084   6.178 -0.6155 -0.4312  0.0896
 4407TIP3    H113162   0.277   0.068   6.099 -1.3746 -1.1034  0.7185
 4407TIP3    H213163   0.266   0.082   6.250  0.2765 -1.3401  0.8766
 4408TIP3   OH213164   5.626   2.656   1.588 -0.1153 -0.0451 -0.1425
 4408TIP3    H113165   5.619   2.620   1.677 -1.7043 -0.2273 -0.3076
 4408TIP3    H213166   5.669   2.741   1.599 -0.8855  0.2266  0.8949
 4409TIP3   OH213167   2.359   0.215   2.324 -0.3339  0.4842  0.3240
 4409TIP3    H113168   2.290   0.155   2.353  1.2463 -1.2219  0.6990
 4409TIP3    H213169   2.400   0.170   2.250 -1.1799  2.6244 -1.5812
 4410TIP3   OH213170   7.930   5.386   4.988 -0.0578  0.6929  0.4745
 4410TIP3    H113171   7.983   5.307   4.993 -0.1202  0.4897 -1.4341
 4410TIP3    H213172   7.969   5.437   4.917 -0.1326  2.3197  1.5230
 4411TIP3   OH213173   5.189   2.384   5.897 -0.0234  0.4969 -0.1346
 4411TIP3    H113174   5.283   2.367   5.900  0.0431  0.3743 -1.9003
 4411TIP3    H213175   5.182   2.479   5.900  0.1130  0.4950  0.4674
 4412TIP3   OH213176   5.020   2.205   2.212 -0.7991  0.2503  0.4615
 4412TIP3    H113177   4.943   2.247   2.249 -0.1509  1.5974  0.3392
 4412TIP3    H213178   5.093   2.263   2.234  0.0556 -0.5164 -0.2222
 4413TIP3   OH213179   4.562   6.318   5.537  0.0106 -0.0070  0.0812
 4413TIP3    H113180   4.491   6.267   5.575  0.8294  0.2599  2.1228
 4413TIP3    H213181   4.528   6.407   5.531 -0.5370 -0.2842 -0.9881
 4414TIP3   OH213182   2.432   4.843   0.080 -0.2289  0.0726 -0.1286
 4414TIP3    H113183   2.368   4.913   0.066  0.3461  0.9181  1.2465
 4414TIP3    H213184   2.418   4.815   0.170  1.5777  0.5572  0.3387
 4415TIP3   OH213185   2.055   2.157   2.651  0.6077  0.1658 -0.1005
 4415TIP3    H113186   1.994   2.151   2.579 -0.3269  0.5976  0.6341
 4415TIP3    H213187   2.008   2.123   2.727  1.2590  0.5201  0.4862
 4416TIP3   OH213188   5.588   4.334   2.287 -0.0722 -0.2171 -0.4469
 4416TIP3    H113189   5.599   4.239   2.290 -1.0150 -0.3068  0.3242
 4416TIP3    H213190   5.632   4.360   2.205 -0.3296 -1.3782 -0.9736
 4417TIP3   OH213191   0.329   4.477   2.668  0.0127 -0.6956  0.1845
 4417TIP3    H113192   0.421   4.503   2.677  0.1911 -1.1841 -0.2232
 4417TIP3    H213193   0.324   4.435   2.582 -0.2323 -2.1670  0.8863
 4418TIP3   OH213194   8.028   7.546   0.464  0.1236 -1.0235 -0.3568
 4418TIP3    H113195   8.093   7.517   0.528 -0.6618  0.7816  1.3464
 4418TIP3    H213196   7.965   7.474   0.460  0.0485 -1.0703  1.1283
 4419TIP3   OH213197   8.328   0.996   2.133  0.1029 -0.2975  0.2973
 4419TIP3    H113198   8.379   1.034   2.204  1.7361  1.9985 -1.9474
 4419TIP3    H213199   8.243   1.041   2.137 -0.1367 -0.8184  1.2766
 4420TIP3   OH213200   2.517   4.611   3.567  0.0890 -0.4905  0.3694
 4420TIP3    H113201   2.538   4.581   3.655  0.2299 -1.6398 -0.0310
 4420TIP3    H213202   2.422   4.599   3.559 -0.1408  0.8735  0.8001
 4421TIP3   OH213203   6.982   2.935   3.925  0.1425 -0.4701 -0.4633
 4421TIP3    H113204   7.027   2.903   3.847  0.0295 -0.6545 -0.4547
 4421TIP3    H213205   6.901   2.884   3.928  0.0016 -0.2434 -0.4002
 4422TIP3   OH213206   1.927   0.441   4.745 -0.5522  0.4573  0.1299
 4422TIP3    H113207   1.936   0.430   4.840 -0.6664  2.0834  0.3570
 4422TIP3    H213208   1.988   0.378   4.708 -1.9630 -1.6763  1.2035
 4423TIP3   OH213209   7.982   2.462   0.108  0.4221 -0.0837 -0.3052
 4423TIP3    H113210   7.954   2.551   0.089 -1.0841 -0.8222 -1.8210
 4423TIP3    H213211   8.074   2.471   0.134  0.8160  1.7446 -2.0383
 4424TIP3   OH213212   3.221   7.542   1.124  0.2766 -0.0509 -0.3511
 4424TIP3    H113213   3.235   7.622   1.073  0.0386 -0.5830 -1.2684
 4424TIP3    H213214   3.308   7.518   1.156  0.3231  0.6752  0.1079
 4425TIP3   OH213215   7.478   6.482   0.392 -0.1070 -0.1208 -0.1358
 4425TIP3    H113216   7.497   6.570   0.424 -0.6751 -0.2041  0.4553
 4425TIP3    H213217   7.559   6.454   0.349 -0.0601  0.8414 -0.6948
 4426TIP3   OH213218   0.640   1.298   5.482 -0.0823  0.6212 -0.7188
 4426TIP3    H113219   0.640   1.286   5.577  0.7602 -0.5880 -0.8432
 4426TIP3    H213220   0.555   1.337   5.462  1.0146  4.3245  0.8900
 4427TIP3   OH213221   3.088   3.704   0.795  0.4621 -0.2872 -0.0236
 4427TIP3    H113222   3.050   3.641   0.856  0.9876  0.1953  0.8305
 4427TIP3    H213223   3.056   3.677   0.709 -2.7488  0.7414  0.7094
 4428TIP3   OH213224   1.438   4.874   3.938 -0.1291 -0.0175 -0.6147
 4428TIP3    H113225   1.370   4.836   3.994  1.0203  1.3513  1.9118
 4428TIP3    H213226   1.512   4.814   3.947  0.1546  0.3600 -0.4091
 4429TIP3   OH213227   6.217   7.166   6.683 -0.2471  0.1491 -0.6471
 4429TIP3    H113228   6.128   7.136   6.668  0.0169 -0.2967 -1.3459
 4429TIP3    H213229   6.226   7.245   6.629 -0.5129  0.7506  0.1603
 4430TIP3   OH213230   0.949   4.365   6.328  0.0971 -0.2595  0.0886
 4430TIP3    H113231   0.983   4.454   6.335  1.1203 -0.5181 -1.3214
 4430TIP3    H213232   0.983   4.320   6.405 -0.7535  0.6516  1.0245
 4431TIP3   OH213233   5.365   3.455   4.150  0.4547 -0.0495  0.3251
 4431TIP3    H113234   5.304   3.502   4.094 -1.7012 -2.4610  0.4707
 4431TIP3    H213235   5.432   3.422   4.089 -0.8080 -1.0051 -0.6182
 4432TIP3   OH213236   2.373   5.431   5.773  0.4365 -0.0747 -0.1186
 4432TIP3    H113237   2.341   5.347   5.806  0.1230 -0.0476 -0.3528
 4432TIP3    H213238   2.402   5.413   5.684  0.1104  0.1224 -0.2685
 4433TIP3   OH213239   1.068   6.079   6.298 -0.5934  0.6971  0.0530
 4433TIP3    H113240   1.093   6.119   6.215 -0.1270 -0.2865 -0.2937
 4433TIP3    H213241   0.975   6.100   6.307 -0.6582  0.7906 -0.7362
 4434TIP3   OH213242   5.137   7.457   3.591  0.0711  0.0870  0.3396
 4434TIP3    H113243   5.066   7.495   3.643 -0.8125  0.3753 -1.0538
 4434TIP3    H213244   5.101   7.376   3.555  0.4664  0.1933 -0.3136
 4435TIP3   OH213245   4.903   6.222   3.880 -0.0669  0.0800  0.5317
 4435TIP3    H113246   4.887   6.132   3.851  0.3773  0.4399 -0.8790
 4435TIP3    H213247   4.819   6.266   3.868  0.3110  0.4202 -0.9903
 4436TIP3   OH213248   0.016   3.851   0.084  0.2026 -0.6148  0.2304
 4436TIP3    H113249   0.111   3.849   0.082  0.2252  0.0028  0.4152
 4436TIP3    H213250  -0.011   3.759   0.087  0.7585 -0.8207 -0.9428
 4437TIP3   OH213251   3.133   5.986   3.356  0.5362 -0.5275 -0.3718
 4437TIP3    H113252   3.048   6.031   3.361  1.0579  0.6444 -1.5367
 4437TIP3    H213253   3.153   5.963   3.447 -1.3379 -1.4521 -0.1417
 4438TIP3   OH213254   3.335   6.103   3.211  0.1920  0.0097  0.1839
 4438TIP3    H113255   3.391   6.115   3.288  1.0792 -0.8825 -0.3024
 4438TIP3    H213256   3.251   6.076   3.247  0.0576  1.3361  0.9264
 4439TIP3   OH213257   6.598   2.760   0.939 -0.0474 -0.2849  0.4499
 4439TIP3    H113258   6.663   2.721   0.880 -1.1376  0.1704 -1.1203
 4439TIP3    H213259   6.530   2.693   0.948 -0.0152 -0.2500  0.9925
 4440TIP3   OH213260   5.886   1.328   1.022  0.2087  0.1528  0.2384
 4440TIP3    H113261   5.857   1.318   0.931  1.1929 -0.3265 -0.0336
 4440TIP3    H213262   5.966   1.379   1.016  0.0825  0.4319  0.8753
 4441TIP3   OH213263   5.373   6.188   6.449 -0.0057 -0.0254 -0.3980
 4441TIP3    H113264   5.316   6.229   6.383 -0.2280  0.4484  0.0831
 4441TIP3    H213265   5.461   6.196   6.413 -0.0673  0.7148 -0.3927
 4442TIP3   OH213266   5.634   4.135   3.802 -0.0959  0.1329  0.5770
 4442TIP3    H113267   5.625   4.167   3.713  1.6156 -1.2820 -0.1840
 4442TIP3    H213268   5.557   4.080   3.816 -0.0190 -0.2151 -0.3096
 4443TIP3   OH213269   2.035   4.078   1.191  0.0621 -0.0138  0.1954
 4443TIP3    H113270   2.003   4.014   1.127 -0.0495 -1.4015  1.5617
 4443TIP3    H213271   2.087   4.140   1.140 -0.0768 -1.0350 -1.2389
 4444TIP3   OH213272   1.400   5.211   1.535  0.0312 -0.9299  0.0966
 4444TIP3    H113273   1.452   5.241   1.460 -0.5771 -0.1924 -0.0470
 4444TIP3    H213274   1.342   5.285   1.554 -1.5155 -2.0223 -0.2387
 4445TIP3   OH213275   4.237   7.796   5.878  0.7066  0.8426 -0.4894
 4445TIP3    H113276   4.322   7.839   5.890  0.2057  2.1336 -1.3238
 4445TIP3    H213277   4.259   7.706   5.854  1.8350  1.1188 -0.5527
 4446TIP3   OH213278   1.943   3.570   4.472  0.3933 -0.2430 -0.4309
 4446TIP3    H113279   1.939   3.476   4.452  1.0959  0.2442 -3.3714
 4446TIP3    H213280   2.036   3.589   4.482  0.4306  0.4013 -1.7106
 4447TIP3   OH213281   2.788   0.476   1.039  0.0495 -0.2204 -0.8165
 4447TIP3    H113282   2.868   0.437   1.005  0.8700 -0.3812  1.1307
 4447TIP3    H213283   2.732   0.489   0.962  0.8478 -2.6431 -1.8960
 4448TIP3   OH213284   1.831   4.708   4.865 -0.0891 -0.2482  0.0679
 4448TIP3    H113285   1.925   4.697   4.876 -0.3570 -1.5496  1.2980
 4448TIP3    H213286   1.817   4.700   4.770  1.2915  2.6192 -0.4900
 4449TIP3   OH213287   3.777   0.922   3.594 -0.6466  0.2723  0.1267
 4449TIP3    H113288   3.861   0.927   3.550 -0.3177 -0.7186  0.6244
 4449TIP3    H213289   3.777   0.837   3.638 -2.1404 -0.0068 -0.3457
 4450TIP3   OH213290   4.554   4.388   2.149 -0.4750 -0.5337 -0.5323
 4450TIP3    H113291   4.495   4.325   2.190 -2.4674  1.5554  0.0216
 4450TIP3    H213292   4.510   4.414   2.068  0.3894  0.0437 -0.8418
 4451TIP3   OH213293   4.057   0.403   2.772 -0.3999 -0.2905 -0.0651
 4451TIP3    H113294   3.999   0.479   2.762  0.3847  0.2551 -0.4978
 4451TIP3    H213295   4.073   0.372   2.683  1.8178  0.9780 -0.1642
 4452TIP3   OH213296   6.199   7.470   0.425  0.0604  0.1928  0.1133
 4452TIP3    H113297   6.178   7.563   0.432  0.3269  0.1897  1.2234
 4452TIP3    H213298   6.211   7.455   0.331  0.7250  1.4383 -0.0265
 4453TIP3   OH213299   4.771   5.297   3.262 -0.3048  0.6043  0.7824
 4453TIP3    H113300   4.754   5.277   3.169 -0.9262  0.7873  0.8533
 4453TIP3    H213301   4.770   5.211   3.305  1.0787  0.4034  0.4592
 4454TIP3   OH213302   0.577   7.452   6.403  0.0916  0.1122  0.3257
 4454TIP3    H113303   0.593   7.535   6.448 -0.0240 -0.0055  0.5811
 4454TIP3    H213304   0.482   7.447   6.394  0.1701  1.1300 -1.7884
 4455TIP3   OH213305   1.537   1.256   5.402 -0.2586  0.0157  0.3951
 4455TIP3    H113306   1.506   1.186   5.459 -2.5290  1.6135  1.2867
 4455TIP3    H213307   1.523   1.222   5.313 -0.3104 -1.0517  0.7969
 4456TIP3   OH213308   4.365   6.110   5.561 -0.0183 -0.3533  0.1455
 4456TIP3    H113309   4.302   6.153   5.504  0.3875  0.7201  0.4809
 4456TIP3    H213310   4.336   6.133   5.650 -0.9420 -2.4085  0.4536
 4457TIP3   OH213311   3.074   1.262   2.817  0.0519  0.0050 -0.6158
 4457TIP3    H113312   3.085   1.201   2.743  1.4583  0.5831 -0.9052
 4457TIP3    H213313   3.152   1.250   2.870 -0.0991  0.8964 -0.1722
 4458TIP3   OH213314   6.964   4.917   6.441  0.4943  0.2320 -0.8186
 4458TIP3    H113315   6.888   4.879   6.483  2.1004 -1.9099  0.3598
 4458TIP3    H213316   6.947   5.011   6.440 -1.7202 -0.1070  0.2452
 4459TIP3   OH213317   8.238   0.435   5.792 -0.4914  0.3884 -0.1476
 4459TIP3    H113318   8.198   0.516   5.763 -0.9979  0.8706  1.7624
 4459TIP3    H213319   8.314   0.424   5.734 -1.3694  1.2997 -1.5290
 4460TIP3   OH213320   2.412   7.674   0.886 -0.7987 -0.1682 -0.2916
 4460TIP3    H113321   2.330   7.692   0.839 -0.1676  1.9241 -0.6840
 4460TIP3    H213322   2.480   7.683   0.819 -0.1026 -0.0779  0.4160
 4461TIP3   OH213323   1.643   2.645   1.293 -0.0981  0.6551 -0.2559
 4461TIP3    H113324   1.701   2.588   1.344 -0.0827 -0.5828 -1.5731
 4461TIP3    H213325   1.655   2.732   1.330 -1.0631 -0.3405  2.7267
 4462TIP3   OH213326   1.250   2.587   3.083 -0.2424  0.2364 -0.0166
 4462TIP3    H113327   1.252   2.544   2.998 -1.2011 -1.0173  0.5599
 4462TIP3    H213328   1.158   2.611   3.096  0.3215  3.0114 -0.5367
 4463TIP3   OH213329   2.101   2.553   3.254 -0.5245  0.6258 -0.1705
 4463TIP3    H113330   2.138   2.491   3.317  1.1237  0.6823 -1.0142
 4463TIP3    H213331   2.138   2.526   3.170 -2.6096  0.6014 -1.1332
 4464TIP3   OH213332   6.788   2.572   3.411 -0.3283  0.0713 -0.0320
 4464TIP3    H113333   6.712   2.582   3.353  1.0600  1.1707 -1.7722
 4464TIP3    H213334   6.858   2.619   3.366  1.3991 -0.9059  1.5159
 4465TIP3   OH213335   7.294   4.305   6.207 -0.0675  0.1882  0.3432
 4465TIP3    H113336   7.356   4.270   6.142 -0.0614 -0.2647  0.5885
 4465TIP3    H213337   7.250   4.227   6.242 -0.1275  0.4345  0.8204
 4466TIP3   OH213338   0.021   0.415   3.791 -0.4442  0.3434  0.1567
 4466TIP3    H113339   0.086   0.375   3.849 -1.0907  0.4131  0.9452
 4466TIP3    H213340  -0.049   0.350   3.786 -0.2285  0.1701 -0.8779
 4467TIP3   OH213341   0.779   5.287   1.040 -0.0944 -0.1639  0.4779
 4467TIP3    H113342   0.688   5.313   1.025 -0.6908 -0.2286  3.5183
 4467TIP3    H213343   0.798   5.228   0.967 -1.3191  2.3524 -2.0926
 4468TIP3   OH213344   7.094   5.654   4.613  0.1237  0.4422  0.3710
 4468TIP3    H113345   7.114   5.705   4.691  1.6598 -0.5517  0.6659
 4468TIP3    H213346   7.072   5.567   4.645 -2.0727  0.7512 -0.1543
 4469TIP3   OH213347   1.081   0.388   6.604  0.4518 -0.2032 -0.3937
 4469TIP3    H113348   1.016   0.338   6.654  0.2777  1.6373  1.3885
 4469TIP3    H213349   1.151   0.326   6.586  0.1441 -1.1655  1.4768
 4470TIP3   OH213350   4.695   4.172   4.152 -0.0580 -0.6351  0.0211
 4470TIP3    H113351   4.685   4.089   4.198 -2.9539  0.1517  1.0163
 4470TIP3    H213352   4.716   4.235   4.221 -0.8342 -0.0726 -0.2364
 4471TIP3   OH213353   5.151   7.270   4.626  0.2666  0.9779  0.7087
 4471TIP3    H113354   5.106   7.351   4.648  1.1206  1.5987  0.2427
 4471TIP3    H213355   5.223   7.264   4.689 -0.3687  0.0572  1.3754
 4472TIP3   OH213356   7.633   4.353   4.382 -0.9402 -0.2359 -0.2200
 4472TIP3    H113357   7.606   4.371   4.292 -1.6313 -0.4320 -0.0587
 4472TIP3    H213358   7.635   4.439   4.424  1.6095  0.1785 -0.9786
 4473TIP3   OH213359   0.869   5.302   5.976 -0.9352  0.3919  0.3652
 4473TIP3    H113360   0.953   5.324   6.015 -0.8369  0.4563  0.1180
 4473TIP3    H213361   0.832   5.236   6.035 -0.0503 -0.7587 -0.3284
 4474TIP3   OH213362   6.032   6.728   0.226  0.3137  0.0889  0.5020
 4474TIP3    H113363   6.046   6.776   0.144  1.0383  2.4232  1.8951
 4474TIP3    H213364   6.034   6.636   0.200 -0.3069  0.7250 -2.2162
 4475TIP3   OH213365   4.179   1.956   2.996  0.3184 -0.3470 -0.0978
 4475TIP3    H113366   4.178   1.977   2.903  1.0290 -0.4277 -0.1357
 4475TIP3    H213367   4.173   1.860   2.998 -0.8334 -0.2822 -0.0098
 4476TIP3   OH213368   0.294   3.248   0.099  0.1129  0.0190 -0.2680
 4476TIP3    H113369   0.253   3.242   0.185  1.4776  1.6602  0.5527
 4476TIP3    H213370   0.235   3.200   0.041 -1.7307  0.3233  1.2567
 4477TIP3   OH213371   1.654   3.563   4.024 -0.0921 -0.3191 -0.3246
 4477TIP3    H113372   1.732   3.576   3.970 -1.4475 -0.6502 -2.4617
 4477TIP3    H213373   1.580   3.575   3.964 -1.7454  0.5861  1.7512
 4478TIP3   OH213374   2.946   1.255   3.098 -0.1192 -0.3074 -0.5881
 4478TIP3    H113375   2.850   1.257   3.092 -0.0650  2.3877 -2.0304
 4478TIP3    H213376   2.975   1.232   3.010  0.5999 -1.8387  0.0183
 4479TIP3   OH213377   1.328   5.768   3.431 -0.0223  0.5974 -0.3525
 4479TIP3    H113378   1.276   5.755   3.510  0.2938  1.5438  0.0303
 4479TIP3    H213379   1.327   5.683   3.387  0.3441 -0.1412  1.0061
 4480TIP3   OH213380   2.167   2.743   5.311 -0.1493 -0.2127  0.0591
 4480TIP3    H113381   2.162   2.669   5.371  0.4207  0.2925  0.7582
 4480TIP3    H213382   2.088   2.794   5.329  0.1396  0.0653  0.5718
 4481TIP3   OH213383   6.621   5.182   2.296 -0.5025 -0.1394  0.6504
 4481TIP3    H113384   6.542   5.146   2.257 -0.8976  2.6001 -1.2966
 4481TIP3    H213385   6.686   5.180   2.226  0.6671 -0.6928  1.6980
 4482TIP3   OH213386   5.683   5.872   4.567  0.1476  0.7645  0.3479
 4482TIP3    H113387   5.626   5.833   4.500  0.9486 -0.2455  0.2296
 4482TIP3    H213388   5.647   5.959   4.581 -1.5436  0.0967  0.4099
 4483TIP3   OH213389   3.713   2.460   1.931  0.1254 -0.3053  0.5990
 4483TIP3    H113390   3.632   2.491   1.891  1.5885  0.0899 -2.3723
 4483TIP3    H213391   3.739   2.530   1.990 -0.5924  0.6021 -0.1212
 4484TIP3   OH213392   8.356   1.041   0.841 -0.6261  0.7529 -0.0193
 4484TIP3    H113393   8.365   1.125   0.797  1.5693 -0.2262 -1.6610
 4484TIP3    H213394   8.415   0.982   0.793  0.5737 -0.8955  3.1282
 4485TIP3   OH213395   0.242   7.025   2.036  0.0541  0.4138 -0.0835
 4485TIP3    H113396   0.170   7.084   2.018 -1.4897 -1.5345 -0.6540
 4485TIP3    H213397   0.265   6.988   1.951  2.0337  1.2589  0.0220
 4486TIP3   OH213398   3.420   1.458   1.141 -0.0100 -0.0006  0.0102
 4486TIP3    H113399   3.488   1.450   1.073 -0.0962  0.6686 -0.1672
 4486TIP3    H213400   3.352   1.512   1.100  0.1347  0.7885  0.7718
 4487TIP3   OH213401   6.340   4.647   2.470 -0.5568 -0.6624 -0.3446
 4487TIP3    H113402   6.361   4.594   2.547 -2.4284  2.1725  2.3639
 4487TIP3    H213403   6.412   4.710   2.465 -0.9868 -0.1496 -0.1873
 4488TIP3   OH213404   0.986   4.438   2.550 -0.6368  0.2831 -0.3393
 4488TIP3    H113405   1.008   4.529   2.529 -0.1169  0.1335 -0.4594
 4488TIP3    H213406   1.030   4.421   2.633  1.1513 -0.5369 -1.4009
 4489TIP3   OH213407   7.048   5.201   4.859 -0.2330  0.0470 -0.2764
 4489TIP3    H113408   7.141   5.180   4.866 -0.4045 -0.5024  0.5398
 4489TIP3    H213409   7.004   5.116   4.856 -0.8167  0.2583  1.2195
 4490TIP3   OH213410   8.091   2.745   0.023  0.3668  0.1576 -0.3347
 4490TIP3    H113411   8.165   2.728   0.081  0.9300 -1.6214 -1.4974
 4490TIP3    H213412   8.128   2.743  -0.065 -0.8161  0.8243 -0.8739
 4491TIP3   OH213413   3.351   5.995   5.149 -0.0114  0.5940 -0.1142
 4491TIP3    H113414   3.407   5.924   5.118  0.4952  0.3685  1.2210
 4491TIP3    H213415   3.379   6.010   5.240  0.0406  2.6347 -0.4070
 4492TIP3   OH213416   2.888   2.232   2.950  0.0965  0.3991 -0.2572
 4492TIP3    H113417   2.828   2.290   2.997  0.2585  0.6302 -0.3321
 4492TIP3    H213418   2.975   2.269   2.967  0.0661  1.2053 -1.7543
 4493TIP3   OH213419   2.652   4.457   5.016 -0.6896  0.0818  0.3242
 4493TIP3    H113420   2.733   4.406   5.008 -0.6796  0.2437 -0.7071
 4493TIP3    H213421   2.582   4.392   5.012 -0.6713  0.1175 -0.8305
 4494TIP3   OH213422   7.280   2.676   2.679  0.3740  0.2062 -0.1659
 4494TIP3    H113423   7.353   2.619   2.704  0.4388  1.0927  1.8465
 4494TIP3    H213424   7.234   2.627   2.611  1.5623 -1.3652  0.0995
 4495TIP3   OH213425   0.543   6.853   0.591 -0.7086 -0.5153  0.0937
 4495TIP3    H113426   0.519   6.923   0.530 -1.1822 -1.0313 -0.3228
 4495TIP3    H213427   0.572   6.898   0.670 -1.6786  0.1358  0.0848
 4496TIP3   OH213428   5.508   4.113   1.661  0.0665  0.2791  0.1107
 4496TIP3    H113429   5.452   4.063   1.601  0.9247 -0.6274  0.0299
 4496TIP3    H213430   5.576   4.050   1.688 -0.3742  0.6140  2.1511
 4497TIP3   OH213431   2.569   6.913   0.987 -0.3241 -0.8181 -0.2619
 4497TIP3    H113432   2.621   6.845   0.944  0.7917 -0.4646  0.4884
 4497TIP3    H213433   2.601   6.914   1.078 -0.2891  0.7371 -0.2665
 4498TIP3   OH213434   6.726   2.920   6.476  0.7290 -0.1313  0.0359
 4498TIP3    H113435   6.782   2.998   6.474  0.2712  0.2080  0.2171
 4498TIP3    H213436   6.785   2.848   6.454  0.9213  0.4024 -1.2592
 4499TIP3   OH213437   5.461   6.811   2.252  0.1049  0.0157 -0.2862
 4499TIP3    H113438   5.471   6.899   2.288 -1.4154  0.2741 -0.4260
 4499TIP3    H213439   5.540   6.765   2.277  0.3262  1.0318  0.9388
 4500TIP3   OH213440   7.884   2.171   6.823 -0.2401  0.0217  0.1046
 4500TIP3    H113441   7.814   2.195   6.763 -0.5540 -0.4423  0.2793
 4500TIP3    H213442   7.895   2.248   6.879  1.0127  0.9999 -1.4083
 4501TIP3   OH213443   4.487   4.610   1.867 -0.0263 -0.5172 -0.0355
 4501TIP3    H113444   4.508   4.517   1.859  1.1880 -0.5820  2.8413
 4501TIP3    H213445   4.534   4.652   1.794 -1.8230 -2.2307 -2.3021
 4502TIP3   OH213446   1.102   6.737   4.830 -0.0332  0.4080 -0.0284
 4502TIP3    H113447   1.098   6.642   4.841  0.0476  0.4525  0.4359
 4502TIP3    H213448   1.087   6.771   4.918 -0.4366  0.8344 -0.2621
 4503TIP3   OH213449   0.697   4.187   5.064 -0.2843 -0.2191 -0.7717
 4503TIP3    H113450   0.758   4.192   4.990  0.0237 -0.1669 -0.5178
 4503TIP3    H213451   0.734   4.247   5.129 -1.7398  1.4586 -1.4204
 4504TIP3   OH213452   7.970   6.312   1.287 -0.1230 -0.1651 -0.1018
 4504TIP3    H113453   8.031   6.324   1.215 -0.1610 -1.2207 -0.3266
 4504TIP3    H213454   7.970   6.218   1.303 -0.7873 -0.0431  0.6895
 4505TIP3   OH213455   7.646   0.615   2.823  0.2548 -0.1107 -0.0496
 4505TIP3    H113456   7.692   0.691   2.786 -0.2998 -0.1596 -0.8526
 4505TIP3    H213457   7.609   0.570   2.747  0.3129 -1.0150  0.4493
 4506TIP3   OH213458   4.365   1.263   2.525 -0.2000 -0.1461  0.0754
 4506TIP3    H113459   4.419   1.254   2.447 -0.3500 -0.4190  0.0049
 4506TIP3    H213460   4.327   1.176   2.539  1.7789 -0.8205  1.8676
 4507TIP3   OH213461   5.013   1.083   2.891  0.0822  0.1497  0.3079
 4507TIP3    H113462   4.932   1.085   2.840 -0.6608 -0.4638  1.4270
 4507TIP3    H213463   5.033   0.989   2.901  0.3383  0.2674  0.9438
 4508TIP3   OH213464   2.357   5.712   1.871  0.0727  0.3739 -0.3646
 4508TIP3    H113465   2.389   5.798   1.896 -1.6127  0.4892  1.7124
 4508TIP3    H213466   2.264   5.725   1.852 -0.7214 -1.2328  1.9550
 4509TIP3   OH213467   1.494   0.933   4.419 -0.0499 -0.2691  0.0461
 4509TIP3    H113468   1.402   0.960   4.421  0.1210  0.3211  1.8158
 4509TIP3    H213469   1.498   0.856   4.476  0.6161 -0.0861  0.2532
 4510TIP3   OH213470   1.400   2.700   5.311  0.9667 -0.1709  0.4242
 4510TIP3    H113471   1.372   2.648   5.386  0.2832 -1.5477 -0.7351
 4510TIP3    H213472   1.466   2.645   5.268  0.4911  0.0696 -0.6279
 4511TIP3   OH213473   7.838   2.662   5.439  0.1258  0.5882  0.4518
 4511TIP3    H113474   7.814   2.681   5.530  1.0209  0.9224  0.6380
 4511TIP3    H213475   7.928   2.694   5.432  0.8710 -1.4626  0.0761
 4512TIP3   OH213476   2.114   7.724   2.688  0.1769 -0.7603 -0.2726
 4512TIP3    H113477   2.068   7.644   2.712  2.0936 -1.8616 -0.0266
 4512TIP3    H213478   2.086   7.742   2.598  1.8433 -3.4451 -1.4744
 4513TIP3   OH213479   7.825   6.573   4.577  0.3736  0.1454 -0.2323
 4513TIP3    H113480   7.792   6.652   4.535 -0.4058 -0.0568 -0.0020
 4513TIP3    H213481   7.771   6.561   4.655  1.0469 -0.1386  0.2071
 4514TIP3   OH213482   1.423   1.303   2.280 -0.7248 -0.1469 -0.1841
 4514TIP3    H113483   1.363   1.252   2.334  0.1582 -0.8813  0.1379
 4514TIP3    H213484   1.494   1.243   2.260  0.2888  0.9119  0.0885
 4515TIP3   OH213485   6.073   0.179   1.302  1.0510  0.1406 -0.6704
 4515TIP3    H113486   6.037   0.261   1.267  0.7724  0.4172  0.2574
 4515TIP3    H213487   6.139   0.206   1.366 -0.1763 -0.3176  0.8457
 4516TIP3   OH213488   3.958   3.645   3.377 -0.2387 -0.5363 -0.3107
 4516TIP3    H113489   3.885   3.642   3.314 -0.4108 -3.2737 -0.1047
 4516TIP3    H213490   4.034   3.619   3.325  0.4724  1.3242 -0.2829
 4517TIP3   OH213491   6.066   4.890   0.364  0.1879  0.0638  0.2247
 4517TIP3    H113492   6.003   4.955   0.395  1.5165  0.4798  2.2268
 4517TIP3    H213493   6.023   4.806   0.378 -0.2169  0.3719  0.8820
 4518TIP3   OH213494   7.283   5.338   5.335 -0.5910  0.1299 -0.0840
 4518TIP3    H113495   7.338   5.262   5.350 -1.9611 -0.8007  0.4883
 4518TIP3    H213496   7.308   5.401   5.403 -0.2953 -0.3166  0.2219
 4519TIP3   OH213497   6.895   7.238   3.326  0.4749 -0.6513  0.3519
 4519TIP3    H113498   6.835   7.185   3.273  0.6675 -0.0383 -0.5027
 4519TIP3    H213499   6.860   7.327   3.320  0.5234 -0.5650  1.2414
 4520TIP3   OH213500   1.110   7.651   2.134  0.3409 -0.1329  0.0351
 4520TIP3    H113501   1.126   7.733   2.180 -1.2117 -0.4477  1.2143
 4520TIP3    H213502   1.165   7.587   2.180 -1.9335 -0.6540  2.2725
 4521TIP3   OH213503   0.265   5.466   3.710 -0.1963 -0.6260  0.1680
 4521TIP3    H113504   0.359   5.480   3.702 -0.2518  0.6504  1.3888
 4521TIP3    H213505   0.242   5.409   3.636  1.5871 -1.2841  0.0796
 4522TIP3   OH213506   0.355   0.289   2.332  0.1037 -0.4843  0.2355
 4522TIP3    H113507   0.418   0.273   2.262  0.0719 -0.1059  0.1193
 4522TIP3    H213508   0.406   0.284   2.412  0.2239 -0.4746  0.1594
 4523TIP3   OH213509   3.583   3.015   5.267 -0.6064  1.0499 -0.6135
 4523TIP3    H113510   3.650   3.083   5.256 -0.1765  0.8876  0.7336
 4523TIP3    H213511   3.581   2.970   5.183  2.0384  0.1623 -0.3154
 4524TIP3   OH213512   4.343   6.339   4.906  0.3417 -0.2955 -0.2698
 4524TIP3    H113513   4.326   6.428   4.874 -1.6678  0.1145  1.6573
 4524TIP3    H213514   4.350   6.286   4.827  0.0336  1.3319 -1.4428
 4525TIP3   OH213515   5.820   0.162   3.870  0.6824  1.1305  0.1888
 4525TIP3    H113516   5.899   0.216   3.862  1.1176  0.3165 -1.5898
 4525TIP3    H213517   5.852   0.078   3.903  0.6248  0.7607 -0.6484
 4526TIP3   OH213518   2.206   1.988   6.615 -0.4537  0.2374  0.1791
 4526TIP3    H113519   2.188   1.901   6.651 -1.7751  0.2079 -0.5079
 4526TIP3    H213520   2.133   2.042   6.647 -0.9108  0.5317 -1.2990
 4527TIP3   OH213521   4.622   5.612   4.199  0.4047  0.5323  0.1325
 4527TIP3    H113522   4.600   5.672   4.270 -1.6745  1.6130 -1.3249
 4527TIP3    H213523   4.700   5.650   4.159 -0.1067  1.5518  0.0652
 4528TIP3   OH213524   5.563   1.109   2.137  0.0726 -0.2849  0.1855
 4528TIP3    H113525   5.564   1.081   2.046  0.9237 -1.1345  0.4401
 4528TIP3    H213526   5.476   1.085   2.169  0.0148 -0.5966 -0.2102
 4529TIP3   OH213527   7.079   5.832   2.234 -0.1366 -0.0007  0.0706
 4529TIP3    H113528   7.029   5.763   2.278  1.7233 -0.4830  1.5649
 4529TIP3    H213529   7.050   5.913   2.276 -1.1151 -0.0442 -0.5060
 4530TIP3   OH213530   7.030   3.455   1.108 -0.4107 -0.1178  0.0994
 4530TIP3    H113531   7.010   3.387   1.173 -0.3610  1.0832  1.4240
 4530TIP3    H213532   7.097   3.416   1.052 -2.6118 -2.3243 -1.2201
 4531TIP3   OH213533   3.814   4.807   5.376 -0.3009 -0.4108  0.2168
 4531TIP3    H113534   3.822   4.850   5.291 -1.0936 -1.4342 -0.3929
 4531TIP3    H213535   3.904   4.803   5.410  0.0887 -0.4425 -0.7993
 4532TIP3   OH213536   7.677   1.333   4.080 -0.6274  0.1133 -0.5163
 4532TIP3    H113537   7.765   1.323   4.043 -1.4469 -0.2712 -2.4525
 4532TIP3    H213538   7.693   1.366   4.169  1.4671 -0.0543 -0.7662
 4533TIP3   OH213539   2.542   0.736   6.624  0.5877 -0.0897  0.0683
 4533TIP3    H113540   2.613   0.740   6.560  1.0636  0.4416  0.6168
 4533TIP3    H213541   2.575   0.677   6.693  0.3383 -0.1488  0.1376
 4534TIP3   OH213542   3.978   0.720   6.169  0.3846 -0.1596 -0.1626
 4534TIP3    H113543   4.050   0.679   6.120  1.8919  1.8400  0.2447
 4534TIP3    H213544   3.987   0.814   6.151 -1.7598  0.2062  0.4346
 4535TIP3   OH213545   7.329   5.458   2.529  0.5226  0.5682  0.3905
 4535TIP3    H113546   7.326   5.463   2.624  0.3443  0.2182  0.4033
 4535TIP3    H213547   7.355   5.546   2.501 -1.2491  1.2194  0.6748
 4536TIP3   OH213548   5.781   2.238   4.515 -0.2732 -0.2558 -0.4765
 4536TIP3    H113549   5.863   2.207   4.477 -1.4193 -2.0754 -1.6142
 4536TIP3    H213550   5.766   2.323   4.474  1.1019  0.1818 -0.1161
 4537TIP3   OH213551   7.951   5.971   0.991  0.3706 -0.4312  0.1499
 4537TIP3    H113552   8.025   6.027   0.966  0.8739 -0.7002  0.9668
 4537TIP3    H213553   7.957   5.895   0.933 -0.2575  0.3102 -0.8964
 4538TIP3   OH213554   3.836   0.973   6.765  0.7918 -0.4371 -0.0242
 4538TIP3    H113555   3.838   1.060   6.805 -0.4222 -1.3020  2.0492
 4538TIP3    H213556   3.794   0.917   6.830 -2.7865 -1.7046 -3.0678
 4539TIP3   OH213557   6.501   4.073   1.708  0.7494  0.1463 -0.4973
 4539TIP3    H113558   6.413   4.061   1.743  1.0182 -0.1643  0.0775
 4539TIP3    H213559   6.507   4.167   1.691  0.7117  0.3648  0.5886
 4540TIP3   OH213560   4.875   7.072   1.700 -0.1519 -0.2948 -0.0628
 4540TIP3    H113561   4.943   7.046   1.762 -0.2905 -2.3623 -0.6838
 4540TIP3    H213562   4.793   7.056   1.747 -0.2664  1.4597  0.4081
 4541TIP3   OH213563   0.753   5.560   5.923  0.5357 -0.1489  0.0370
 4541TIP3    H113564   0.807   5.611   5.864 -0.4089  0.7290 -0.1129
 4541TIP3    H213565   0.795   5.474   5.928  0.2321 -0.5169 -2.5045
 4542TIP3   OH213566   2.348   1.064   5.948  0.2153 -0.4722  0.3206
 4542TIP3    H113567   2.366   1.104   5.863 -1.2438  0.1173  0.2567
 4542TIP3    H213568   2.434   1.054   5.988  0.9226 -0.6359 -1.1629
 4543TIP3   OH213569   0.487   1.884   1.257 -0.3272 -0.3326  0.4265
 4543TIP3    H113570   0.414   1.855   1.202 -0.3828 -1.3578  1.0101
 4543TIP3    H213571   0.468   1.976   1.276 -0.7397 -0.1973 -0.5657
 4544TIP3   OH213572   5.662   5.392   4.290  0.0604 -0.0462  0.3182
 4544TIP3    H113573   5.676   5.483   4.262  0.1659 -0.0952  0.2166
 4544TIP3    H213574   5.728   5.342   4.243 -1.4104 -0.4944 -1.3688
 4545TIP3   OH213575   6.115   3.305   3.952 -0.2244 -0.5070 -0.0048
 4545TIP3    H113576   6.020   3.320   3.951 -0.2643 -0.3387  2.1098
 4545TIP3    H213577   6.153   3.391   3.935 -0.4109 -0.6882 -1.5012
 4546TIP3   OH213578   2.367   3.815   5.222 -0.3139  0.6603  0.1850
 4546TIP3    H113579   2.287   3.868   5.228 -0.0923  0.8936  1.0853
 4546TIP3    H213580   2.337   3.732   5.183 -0.5399  1.6632 -1.9163
 4547TIP3   OH213581   6.892   5.682   2.331 -0.2845  0.4533 -0.6678
 4547TIP3    H113582   6.849   5.601   2.359 -3.0714  1.1000 -2.6905
 4547TIP3    H213583   6.874   5.744   2.402  1.8039 -0.5536  0.8591
 4548TIP3   OH213584   0.920   0.973   0.348 -0.1692  0.8015  0.1098
 4548TIP3    H113585   0.835   0.931   0.359 -0.0598 -0.3179 -2.4074
 4548TIP3    H213586   0.904   1.045   0.287 -0.0868  3.7254  3.2969
 4549TIP3   OH213587   5.467   6.373   3.428  0.1751 -0.6559  0.8975
 4549TIP3    H113588   5.409   6.302   3.457 -1.4398  0.5538  0.7448
 4549TIP3    H213589   5.533   6.329   3.374 -0.9948 -2.0025  0.5007
 4550TIP3   OH213590   1.613   6.099   4.146 -0.1233  0.3926  0.1885
 4550TIP3    H113591   1.596   6.005   4.149  0.7878  0.1058 -2.0496
 4550TIP3    H213592   1.542   6.138   4.198 -1.4178 -1.4142 -0.1443
 4551TIP3   OH213593   6.340   4.687   5.767 -0.0033 -0.1282  0.1748
 4551TIP3    H113594   6.355   4.756   5.702  0.0874 -0.6762 -0.3850
 4551TIP3    H213595   6.377   4.608   5.728  0.5713 -0.3448  1.1446
 4552TIP3   OH213596   1.334   4.974   4.290  0.0606 -0.6976  0.1026
 4552TIP3    H113597   1.244   4.996   4.313  0.3619  0.6622  0.0286
 4552TIP3    H213598   1.357   5.035   4.220  0.5837 -1.9599 -0.8702
 4553TIP3   OH213599   8.110   4.109   4.252  0.0779 -0.1796  0.3537
 4553TIP3    H113600   8.031   4.058   4.233  0.4140 -0.1868 -1.1234
 4553TIP3    H213601   8.176   4.043   4.274  0.2452 -0.3376 -0.5766
 4554TIP3   OH213602   4.495   3.981   4.057  0.6253 -0.1966 -0.2783
 4554TIP3    H113603   4.532   4.059   4.099  1.6538  0.3639 -2.1228
 4554TIP3    H213604   4.464   3.928   4.130 -1.4759  2.5573  1.0114
 4555TIP3   OH213605   8.130   3.529   1.202 -0.0170  0.0522  0.4549
 4555TIP3    H113606   8.160   3.505   1.290 -0.5564 -0.7362  0.4410
 4555TIP3    H213607   8.044   3.487   1.195  0.3304 -0.4877 -0.7116
 4556TIP3   OH213608   6.592   3.699   0.075 -0.4219 -0.0333 -0.0369
 4556TIP3    H113609   6.629   3.723  -0.010 -0.5342  0.1808 -0.0250
 4556TIP3    H213610   6.606   3.604   0.081  0.5371  0.1083  0.1615
 4557TIP3   OH213611   3.774   7.472   2.233 -0.4492  0.4973  0.4307
 4557TIP3    H113612   3.767   7.567   2.241 -0.2189  0.5379  0.1686
 4557TIP3    H213613   3.786   7.457   2.139  3.0365  0.4701  0.7342
 4558TIP3   OH213614   4.155   5.767   0.832 -0.2557 -0.3551 -0.1023
 4558TIP3    H113615   4.225   5.812   0.880 -0.3527 -0.5781  0.2449
 4558TIP3    H213616   4.178   5.781   0.739 -0.4226  0.6330 -0.0099
 4559TIP3   OH213617   7.550   1.083   3.518  0.5832 -0.3548  0.6448
 4559TIP3    H113618   7.479   1.040   3.469  0.1407  1.8439 -0.7616
 4559TIP3    H213619   7.512   1.100   3.604 -0.0412 -0.6452  0.4396
 4560TIP3   OH213620   6.499   2.386   2.789  0.5588 -0.0585  0.1381
 4560TIP3    H113621   6.501   2.341   2.705  0.0660  2.1785 -1.1607
 4560TIP3    H213622   6.436   2.336   2.842  0.2745 -1.0390 -1.0925
 4561TIP3   OH213623   5.180   4.100   6.225  0.2824 -0.5988 -0.0416
 4561TIP3    H113624   5.113   4.167   6.210  0.9260  0.0046 -0.2632
 4561TIP3    H213625   5.256   4.149   6.256  0.3417 -1.3700  1.0908
 4562TIP3   OH213626   3.779   1.288   5.663  0.1698  0.7108 -0.0238
 4562TIP3    H113627   3.833   1.346   5.717 -1.1588  0.4742  1.6871
 4562TIP3    H213628   3.830   1.207   5.655  1.2710  1.4757 -0.9145
 4563TIP3   OH213629   0.728   5.654   4.715  0.0209 -0.4458  0.2873
 4563TIP3    H113630   0.799   5.680   4.656  1.6832 -1.0453  1.9209
 4563TIP3    H213631   0.652   5.644   4.658  1.3208 -0.1442 -1.6029
 4564TIP3   OH213632   4.633   3.739   4.543  0.2107 -0.7997  0.4469
 4564TIP3    H113633   4.690   3.813   4.564  1.7483 -0.8232 -3.0043
 4564TIP3    H213634   4.685   3.662   4.562  0.1759 -0.8901  0.1833
 4565TIP3   OH213635   8.005   6.749   5.816  0.1854  0.2194 -0.5281
 4565TIP3    H113636   8.004   6.661   5.852 -1.2963  0.8309  1.0611
 4565TIP3    H213637   7.988   6.738   5.722 -0.4121 -1.1432 -0.2694
 4566TIP3   OH213638   2.906   4.995   4.002 -0.2892  0.5644 -0.3134
 4566TIP3    H113639   2.925   5.084   3.972  0.5910 -0.0701 -1.6886
 4566TIP3    H213640   2.854   4.956   3.932 -1.9878  0.4535  0.9498
 4567TIP3   OH213641   4.493   4.501   2.789  0.3157  0.1332  0.4518
 4567TIP3    H113642   4.514   4.523   2.699 -1.0307  1.8466  0.5060
 4567TIP3    H213643   4.442   4.575   2.821  3.3113  1.0576  3.6307
 4568TIP3   OH213644   6.432   5.015   2.175  0.1703 -0.0227  0.5791
 4568TIP3    H113645   6.344   4.989   2.204  0.0198  0.7614  0.8551
 4568TIP3    H213646   6.427   5.010   2.079  0.5198 -2.1402  0.6207
 4569TIP3   OH213647   3.666   6.581   4.558  0.6315 -0.2142  0.0355
 4569TIP3    H113648   3.630   6.624   4.636 -0.4275 -2.7136  1.0134
 4569TIP3    H213649   3.721   6.648   4.517 -0.3216  1.7907  1.8581
 4570TIP3   OH213650   0.383   5.020   0.045  0.0639 -0.2593  0.1742
 4570TIP3    H113651   0.340   4.987   0.123 -1.2450 -0.3615 -0.5603
 4570TIP3    H213652   0.332   5.097   0.020  1.4592  0.7561  0.3434
 4571TIP3   OH213653   2.031   5.098   4.335  0.1263 -0.3571  0.0234
 4571TIP3    H113654   1.957   5.158   4.350 -0.9412 -0.9554 -2.4600
 4571TIP3    H213655   2.108   5.154   4.346 -0.8078  1.3091 -1.3502
 4572TIP3   OH213656   6.545   7.637   6.658 -0.0706  0.2441 -0.1296
 4572TIP3    H113657   6.542   7.655   6.752  0.1778 -2.1804  0.3991
 4572TIP3    H213658   6.636   7.651   6.633  0.1568 -0.4311  0.3019
 4573TIP3   OH213659   0.790   3.875   3.988  0.4429 -0.8090 -0.8246
 4573TIP3    H113660   0.794   3.791   3.942  1.7983 -1.9158  1.1627
 4573TIP3    H213661   0.823   3.856   4.076  2.3826  2.1185 -0.7629
 4574TIP3   OH213662   0.716   0.470   1.169 -0.3912  0.2522  0.0737
 4574TIP3    H113663   0.801   0.505   1.193  1.2960 -2.9837 -0.5287
 4574TIP3    H213664   0.719   0.464   1.073 -1.4037  0.3776  0.0285
 4575TIP3   OH213665   0.328   5.133   4.672  0.5258 -0.7939  0.1837
 4575TIP3    H113666   0.243   5.174   4.693  1.0533  0.6936 -0.4285
 4575TIP3    H213667   0.337   5.063   4.736 -1.3792 -1.2897 -0.0165
 4576TIP3   OH213668   8.041   4.309   5.878  0.3114  0.2539  0.3565
 4576TIP3    H113669   8.129   4.331   5.910  0.2711 -0.7067  1.1740
 4576TIP3    H213670   7.986   4.311   5.957 -0.0962 -0.6859  0.1078
 4577TIP3   OH213671   2.563   5.744   0.253  0.4507  0.3096 -0.4117
 4577TIP3    H113672   2.613   5.768   0.175  2.2783 -0.7654  0.3776
 4577TIP3    H213673   2.474   5.730   0.220  1.1663 -0.1195 -2.3183
 4578TIP3   OH213674   6.479   2.358   5.383  0.4012  0.1844 -0.3036
 4578TIP3    H113675   6.549   2.322   5.438  1.0613  0.5323 -0.8947
 4578TIP3    H213676   6.409   2.381   5.444  0.3425 -1.2018  0.1855
 4579TIP3   OH213677   5.278   0.631   4.904  0.0729 -0.4504  0.2252
 4579TIP3    H113678   5.204   0.677   4.864  0.2114 -0.6800 -0.3025
 4579TIP3    H213679   5.258   0.631   4.997  0.1985  0.8995  0.2764
 4580TIP3   OH213680   2.377   2.030   4.773  0.3224 -0.0012  0.1148
 4580TIP3    H113681   2.345   1.959   4.718  0.8585 -0.7993  0.8239
 4580TIP3    H213682   2.472   2.021   4.771  0.5185  1.7596 -1.1839
 4581TIP3   OH213683   2.829   3.384   2.970 -0.7256 -0.3201  0.3176
 4581TIP3    H113684   2.838   3.446   3.042 -1.1075  0.0392  0.0697
 4581TIP3    H213685   2.836   3.439   2.891 -1.0108 -0.5983  0.0941
 4582TIP3   OH213686   1.450   3.645   3.599  0.1897 -0.4611 -0.0931
 4582TIP3    H113687   1.519   3.599   3.646  0.7768  0.1284 -0.3704
 4582TIP3    H213688   1.494   3.684   3.524 -0.4062  0.0760 -0.1697
 4583TIP3   OH213689   1.191   4.321   5.788 -0.4870  0.2416 -0.0671
 4583TIP3    H113690   1.168   4.286   5.874  0.3496 -0.7725 -0.2318
 4583TIP3    H213691   1.283   4.347   5.797 -0.2096 -0.4388 -0.8141
 4584TIP3   OH213692   5.786   4.378   4.233  0.0328  0.3628 -0.2066
 4584TIP3    H113693   5.757   4.374   4.142  0.8109 -3.1296 -0.4495
 4584TIP3    H213694   5.866   4.431   4.231  1.1335 -1.2460 -1.9948
 4585TIP3   OH213695   3.259   5.555   2.645  0.1580 -0.2666  0.1219
 4585TIP3    H113696   3.339   5.504   2.656 -0.0520 -0.4310  0.9392
 4585TIP3    H213697   3.232   5.577   2.734  0.4215  1.5715 -0.2034
 4586TIP3   OH213698   6.289   2.006   0.831 -0.4262  0.0171 -0.4972
 4586TIP3    H113699   6.338   2.014   0.749  0.6548 -0.4671  0.0773
 4586TIP3    H213700   6.242   2.089   0.840 -0.2652  0.2184 -1.4075
 4587TIP3   OH213701   1.717   5.692   3.385  0.3762  0.0926 -0.3728
 4587TIP3    H113702   1.798   5.712   3.431  0.7407 -0.6632 -0.6653
 4587TIP3    H213703   1.688   5.608   3.422 -1.5324  1.4313  1.4066
 4588TIP3   OH213704   1.987   6.399   2.330  0.4716  0.1941  0.4033
 4588TIP3    H113705   2.081   6.381   2.336  0.7593  1.1960 -0.8178
 4588TIP3    H213706   1.966   6.389   2.237 -0.9057 -1.2307  0.8319
 4589TIP3   OH213707   6.386   3.161   3.377 -0.3456 -0.0425  0.0463
 4589TIP3    H113708   6.321   3.162   3.447 -1.3163 -0.6661 -0.8220
 4589TIP3    H213709   6.398   3.253   3.354 -1.6462  0.0176 -0.4370
 4590TIP3   OH213710   2.668   2.040   4.351 -0.5467 -0.2812  0.2376
 4590TIP3    H113711   2.719   2.054   4.271 -2.9895 -0.1666 -1.3913
 4590TIP3    H213712   2.664   1.944   4.359  0.8975 -0.2980  1.0851
 4591TIP3   OH213713   7.883   4.217   3.307  0.0529 -0.7022 -0.0599
 4591TIP3    H113714   7.859   4.242   3.396 -0.6059  0.6941 -0.6000
 4591TIP3    H213715   7.915   4.127   3.315 -2.4354 -1.5731  1.2241
 4592TIP3   OH213716   0.873   5.378   4.992 -0.1032 -0.5592 -0.3865
 4592TIP3    H113717   0.922   5.458   4.977 -1.2486  0.3878  0.7485
 4592TIP3    H213718   0.851   5.347   4.905  1.2822 -0.2553 -0.8729
 4593TIP3   OH213719   1.259   6.557   3.170 -0.0846  0.1062  0.1689
 4593TIP3    H113720   1.273   6.543   3.077 -0.4579  0.8238  0.0024
 4593TIP3    H213721   1.314   6.632   3.191  1.4806 -1.1737  0.9399
 4594TIP3   OH213722   5.638   5.299   5.082 -0.4025 -0.1548 -0.0416
 4594TIP3    H113723   5.584   5.372   5.112 -0.0600  0.4337 -0.8519
 4594TIP3    H213724   5.609   5.225   5.136 -0.5914  0.6183  0.9484
 4595TIP3   OH213725   0.092   4.233   0.389 -0.8527  0.9012  0.0806
 4595TIP3    H113726   0.086   4.274   0.302 -0.7182  3.1843  1.0784
 4595TIP3    H213727   0.023   4.275   0.440 -1.5007 -1.0305  0.8935
 4596TIP3   OH213728   5.146   6.958   3.017 -0.1438  0.3420  0.3872
 4596TIP3    H113729   5.207   7.028   3.042  0.6792  0.0857 -0.8117
 4596TIP3    H213730   5.082   7.001   2.961 -0.2095  0.3335  0.4570
 4597TIP3   OH213731   2.923   0.114   3.375 -0.0300  0.3518  0.7933
 4597TIP3    H113732   2.861   0.184   3.360 -1.9318 -0.8207  2.6055
 4597TIP3    H213733   2.940   0.078   3.288 -1.5161  1.0388  0.1822
 4598TIP3   OH213734   4.974   3.081   5.903  0.4223 -0.2446  0.2494
 4598TIP3    H113735   4.934   3.075   5.816  1.5902  0.1909 -0.3443
 4598TIP3    H213736   4.901   3.099   5.962 -0.6880 -2.4218 -0.3438
 4599TIP3   OH213737   3.384   7.479   1.787 -0.2111  0.1574  0.3462
 4599TIP3    H113738   3.424   7.412   1.843  0.7027 -0.1353 -0.6031
 4599TIP3    H213739   3.290   7.464   1.794 -0.0181 -1.3146  0.0696
 4600TIP3   OH213740   8.127   5.716   1.166  0.1595 -0.3082  0.0109
 4600TIP3    H113741   8.052   5.669   1.129 -0.8492  0.4931  1.0015
 4600TIP3    H213742   8.189   5.723   1.093 -1.3562  0.3526 -1.2562
 4601TIP3   OH213743   3.156   0.755   0.304  0.4774 -0.2880 -0.4693
 4601TIP3    H113744   3.185   0.845   0.295 -0.5420  0.2378  0.9932
 4601TIP3    H213745   3.063   0.757   0.281  0.2653 -0.7936  0.2842
 4602TIP3   OH213746   7.129   7.774   5.367  0.4062 -0.4885 -0.5056
 4602TIP3    H113747   7.110   7.696   5.420 -0.7963 -0.1310 -0.3856
 4602TIP3    H213748   7.224   7.788   5.378  0.3060 -0.8112  1.0248
 4603TIP3   OH213749   5.660   3.479   1.308 -0.1124 -0.2477  0.7013
 4603TIP3    H113750   5.703   3.404   1.267 -0.6971 -0.0176 -0.3590
 4603TIP3    H213751   5.730   3.543   1.322  0.0376 -0.2059 -0.2357
 4604TIP3   OH213752   8.140   1.755   6.688  0.1699  0.3199 -0.0598
 4604TIP3    H113753   8.048   1.731   6.681 -0.1395  0.7977  1.7983
 4604TIP3    H213754   8.148   1.836   6.639 -0.2473 -0.0259 -0.7181
 4605TIP3   OH213755   5.294   4.569   3.533  0.2960 -0.2097 -0.3905
 4605TIP3    H113756   5.301   4.499   3.598  3.1785  0.6767  0.3632
 4605TIP3    H213757   5.242   4.637   3.576  0.2430 -0.5512  0.0951
 4606TIP3   OH213758   6.077   7.782   6.006 -0.0600 -0.2069 -0.1111
 4606TIP3    H113759   6.016   7.814   5.939  0.2209 -0.7048 -0.6180
 4606TIP3    H213760   6.027   7.782   6.087 -0.8695 -0.9768 -0.5896
 4607TIP3   OH213761   7.612   5.189   3.920  0.0372 -1.0231  0.4599
 4607TIP3    H113762   7.664   5.108   3.915 -1.0236 -1.7012  0.2325
 4607TIP3    H213763   7.660   5.251   3.864  0.5893 -1.6342  0.2409
 4608TIP3   OH213764   0.166   6.953   1.483 -0.1486  0.3434  0.2145
 4608TIP3    H113765   0.172   6.885   1.416 -0.0559  0.1789  0.3904
 4608TIP3    H213766   0.074   6.981   1.480 -0.5695 -0.8598  1.1968
 4609TIP3   OH213767   8.205   2.768   2.558  0.1217  0.3968 -0.0450
 4609TIP3    H113768   8.196   2.799   2.648 -0.5184  1.2498 -0.3924
 4609TIP3    H213769   8.115   2.763   2.525  0.2872 -0.6771 -0.3958
 4610TIP3   OH213770   1.544   4.420   0.278 -0.6922  0.3168 -0.4575
 4610TIP3    H113771   1.507   4.341   0.239 -0.2574  0.7353 -1.7838
 4610TIP3    H213772   1.593   4.461   0.207 -0.1981  1.3377  0.4414
 4611TIP3   OH213773   7.580   5.153   5.111  0.0311 -0.0499  0.1371
 4611TIP3    H113774   7.541   5.232   5.074  2.0714  1.0764  0.2511
 4611TIP3    H213775   7.602   5.176   5.201 -2.9504 -2.0952  1.5839
 4612TIP3   OH213776   4.379   3.823   4.250  0.4498  0.2955 -0.1185
 4612TIP3    H113777   4.411   3.823   4.340 -0.7507 -0.1886  0.3253
 4612TIP3    H213778   4.364   3.730   4.230  1.7439  0.2809 -1.2232
 4613TIP3   OH213779   5.558   6.777   4.264 -0.0742  0.3678 -0.0328
 4613TIP3    H113780   5.586   6.841   4.199  1.6487 -0.3271 -0.0317
 4613TIP3    H213781   5.630   6.772   4.326 -0.0151 -1.7311 -0.1772
 4614TIP3   OH213782   4.734   7.837   3.140 -0.2981  0.4548  0.1564
 4614TIP3    H113783   4.747   7.930   3.126 -1.2279  0.6089  0.2717
 4614TIP3    H213784   4.822   7.800   3.138 -0.0147  1.1181 -1.4587
 4615TIP3   OH213785   6.028   0.984   1.323  0.1143  0.1207  0.2358
 4615TIP3    H113786   6.080   0.925   1.378 -0.1478  0.0592  0.4195
 4615TIP3    H213787   6.000   1.054   1.382  0.4787  0.4641  0.0035
 4616TIP3   OH213788   3.073   2.650   3.639 -0.5450  0.3298 -0.1579
 4616TIP3    H113789   3.132   2.725   3.639 -0.9815  0.6738 -0.4063
 4616TIP3    H213790   3.115   2.586   3.582  0.5479 -0.1933  1.1659
 4617TIP3   OH213791   6.717   0.939   0.884 -0.1832  0.0003 -0.4006
 4617TIP3    H113792   6.798   0.965   0.840  1.1346  1.6793  2.6458
 4617TIP3    H213793   6.657   1.012   0.870  0.1424  0.4094  0.2419
 4618TIP3   OH213794   4.348   7.354   6.318 -0.3282 -0.1271 -0.0428
 4618TIP3    H113795   4.253   7.354   6.305 -0.4089  2.0225  0.2054
 4618TIP3    H213796   4.361   7.302   6.398 -1.2292 -0.7741 -0.2997
 4619TIP3   OH213797   2.660   2.972   1.786 -0.2791  0.4484  0.0720
 4619TIP3    H113798   2.664   2.882   1.817 -1.2917  0.1979 -0.5006
 4619TIP3    H213799   2.567   2.992   1.779 -0.1382  0.4814 -2.7863
 4620TIP3   OH213800   6.439   6.082   4.860  0.1865 -0.1150 -0.3235
 4620TIP3    H113801   6.430   6.067   4.954  1.2747 -2.1619 -0.4941
 4620TIP3    H213802   6.355   6.054   4.823 -0.4264  1.1655  0.0599
 4621TIP3   OH213803   7.709   5.595   0.617  0.5020  0.3083 -0.3195
 4621TIP3    H113804   7.793   5.626   0.651 -0.0535  0.8801  0.5680
 4621TIP3    H213805   7.732   5.522   0.560  1.5216 -0.2979  0.8167
 4622TIP3   OH213806   6.929   2.847   0.868 -0.4387 -0.1544 -0.2514
 4622TIP3    H113807   6.936   2.765   0.917 -1.8821 -0.2556 -0.1656
 4622TIP3    H213808   6.844   2.842   0.825  0.0707  0.6801 -1.4217
 4623TIP3   OH213809   1.861   3.077   6.091 -0.1656  0.1102  0.2510
 4623TIP3    H113810   1.776   3.113   6.065 -0.9049  0.2636  2.7096
 4623TIP3    H213811   1.851   2.983   6.080  0.2434  0.2624 -1.8455
 4624TIP3   OH213812   5.136   3.626   5.105  0.1936 -0.2972 -0.0847
 4624TIP3    H113813   5.082   3.577   5.167  1.3463 -0.2854  0.9730
 4624TIP3    H213814   5.073   3.667   5.045 -0.8929 -1.2043  0.4043
 4625TIP3   OH213815   6.157   5.926   6.306  0.1350  0.0021 -0.5274
 4625TIP3    H113816   6.235   5.870   6.301 -0.5817 -1.5102  2.5208
 4625TIP3    H213817   6.184   5.999   6.363 -0.5979 -0.5115  0.5157
 4626TIP3   OH213818   7.956   5.776   1.373  0.3594 -0.0527  0.3377
 4626TIP3    H113819   7.926   5.693   1.410 -0.8591  0.6268  0.9306
 4626TIP3    H213820   8.037   5.753   1.327  0.4690 -1.4251  1.1284
 4627TIP3   OH213821   0.013   5.093   5.219 -0.6460 -0.1792 -0.1661
 4627TIP3    H113822   0.075   5.109   5.148  0.2373  2.0549  1.0345
 4627TIP3    H213823  -0.037   5.017   5.189  0.2313  0.1599 -2.7979
 4628TIP3   OH213824   1.248   0.903   4.330  0.0631 -0.1314  0.0385
 4628TIP3    H113825   1.192   0.835   4.367  1.2744 -1.7371 -0.9237
 4628TIP3    H213826   1.289   0.861   4.255  2.5750  0.9516  0.7131
 4629TIP3   OH213827   4.523   2.677   6.078 -0.1194 -0.1284 -0.5575
 4629TIP3    H113828   4.448   2.653   6.023 -0.7617  0.3708  0.0894
 4629TIP3    H213829   4.531   2.771   6.066 -0.7855  0.1210  0.8377
 4630TIP3   OH213830   2.909   0.673   4.221  0.1384  0.7803  0.4210
 4630TIP3    H113831   2.922   0.754   4.269  0.1616  0.5059  0.8855
 4630TIP3    H213832   2.884   0.609   4.288  1.7407 -0.0050  0.3238
 4631TIP3   OH213833   1.045   6.910   3.818  0.1684  0.1430 -0.1580
 4631TIP3    H113834   1.120   6.851   3.809  1.4623  1.6288  0.4092
 4631TIP3    H213835   0.984   6.864   3.875  1.8469 -0.0310  1.5752
 4632TIP3   OH213836   1.930   1.264   4.766 -0.1507 -0.1013  0.5257
 4632TIP3    H113837   1.895   1.350   4.789 -0.3283 -0.0315 -0.0008
 4632TIP3    H213838   2.025   1.275   4.770 -0.1455  0.5053 -0.9033
 4633TIP3   OH213839   3.762   0.478   5.977 -0.2400  0.3122  0.6170
 4633TIP3    H113840   3.706   0.428   6.036 -2.5502  1.3674 -0.5112
 4633TIP3    H213841   3.758   0.429   5.894  0.4403  0.4557  0.4968
 4634TIP3   OH213842   2.277   1.212   0.887 -0.1817 -0.2628  0.4820
 4634TIP3    H113843   2.268   1.176   0.975  1.5206  1.6424  1.5195
 4634TIP3    H213844   2.262   1.306   0.898 -0.3787 -0.0406 -1.3668
 4635TIP3   OH213845   6.531   5.150   2.550 -0.0519  0.4334  0.0724
 4635TIP3    H113846   6.544   5.241   2.579  1.4841  0.1972  0.2074
 4635TIP3    H213847   6.576   5.146   2.465 -0.2132 -0.1690  0.0129
 4636TIP3   OH213848   2.882   6.241   2.010 -0.2585 -0.2004  0.2813
 4636TIP3    H113849   2.788   6.231   2.030 -0.3740  1.8734  0.9679
 4636TIP3    H213850   2.914   6.151   2.005 -2.1338 -0.9562  0.7827
 4637TIP3   OH213851   7.920   3.746   1.887  0.0378  0.0631  0.4928
 4637TIP3    H113852   7.936   3.762   1.794 -0.5805 -0.9322  0.2015
 4637TIP3    H213853   7.896   3.653   1.891  0.2125  0.0657  1.6658
 4638TIP3   OH213854   1.387   5.243   4.555 -0.6236 -0.0414 -0.0896
 4638TIP3    H113855   1.457   5.255   4.490 -1.3547  1.7668 -0.6105
 4638TIP3    H213856   1.313   5.293   4.519 -1.0053  1.1345  2.1780
 4639TIP3   OH213857   2.182   1.185   5.388  0.0249  0.3085 -0.8868
 4639TIP3    H113858   2.146   1.099   5.366 -0.0292  0.6759 -2.3464
 4639TIP3    H213859   2.135   1.211   5.467  0.5423 -1.2896  0.0048
 4640TIP3   OH213860   5.289   2.623   4.573 -0.1735  0.1652  0.1082
 4640TIP3    H113861   5.213   2.565   4.577 -1.3177  1.4566 -1.4092
 4640TIP3    H213862   5.276   2.673   4.493  1.4674  1.5540  0.6583
 4641TIP3   OH213863   8.362   6.997   5.989  0.2116 -0.1333  0.4962
 4641TIP3    H113864   8.335   7.089   5.998  1.3320  0.3224 -0.5050
 4641TIP3    H213865   8.387   6.972   6.078 -2.1851 -0.2051  1.2353
 4642TIP3   OH213866   4.992   4.221   4.707  0.1458  0.1960 -0.4198
 4642TIP3    H113867   4.949   4.235   4.792  0.7459 -0.5062  0.0127
 4642TIP3    H213868   5.063   4.159   4.726 -0.0051 -0.3402 -1.5190
 4643TIP3   OH213869   5.780   3.181   1.325 -0.1453  0.1857 -0.0999
 4643TIP3    H113870   5.747   3.097   1.355 -0.0565 -0.0973 -0.7806
 4643TIP3    H213871   5.857   3.198   1.379 -0.8077  0.3729  0.8093
 4644TIP3   OH213872   6.818   0.525   6.253 -0.0351  0.2300 -0.3158
 4644TIP3    H113873   6.753   0.591   6.230  1.7360  1.9252 -0.7601
 4644TIP3    H213874   6.843   0.485   6.169  0.0147  0.0910 -0.2364
 4645TIP3   OH213875   3.171   4.778   0.986 -0.9002 -0.0621 -0.2196
 4645TIP3    H113876   3.126   4.829   0.919  0.2879  0.4603 -0.6437
 4645TIP3    H213877   3.149   4.687   0.965 -0.5132  0.0882 -1.3677
 4646TIP3   OH213878   7.415   4.240   3.752 -0.0901 -0.1581  0.2875
 4646TIP3    H113879   7.491   4.281   3.711  0.5783  1.0589  2.5694
 4646TIP3    H213880   7.340   4.282   3.711  0.4849 -0.2777 -0.9245
 4647TIP3   OH213881   5.888   1.856   1.673  0.1118 -0.2423  0.1230
 4647TIP3    H113882   5.841   1.940   1.677  0.6617  0.2291 -2.2150
 4647TIP3    H213883   5.856   1.808   1.749  0.2489  2.3048  1.9233
 4648TIP3   OH213884   3.266   7.629   4.964 -0.1135 -0.3164  0.2837
 4648TIP3    H113885   3.335   7.568   4.937  0.0411  0.2489 -0.6750
 4648TIP3    H213886   3.239   7.599   5.050  0.4304 -1.3245  0.1171
 4649TIP3   OH213887   2.143   2.372   4.170  0.0130  0.1695  0.1128
 4649TIP3    H113888   2.168   2.361   4.262  0.6020  2.7935  0.3516
 4649TIP3    H213889   2.220   2.410   4.128 -1.1559  1.7079 -0.7714
 4650TIP3   OH213890   0.936   4.535   6.670 -0.2771  0.0069 -0.1472
 4650TIP3    H113891   0.867   4.538   6.737 -0.0281 -1.7784  0.2594
 4650TIP3    H213892   1.000   4.600   6.699 -1.8636  1.9107 -0.6763
 4651TIP3   OH213893   6.318   1.843   4.135  0.1929 -0.4585  0.3488
 4651TIP3    H113894   6.266   1.769   4.101  1.8242 -1.2454 -0.5726
 4651TIP3    H213895   6.339   1.895   4.057  1.5296 -0.6692  0.5419
 4652TIP3   OH213896   3.590   4.142   6.114 -0.0698 -0.2564 -0.4669
 4652TIP3    H113897   3.615   4.055   6.147 -1.7050 -0.5949 -0.0424
 4652TIP3    H213898   3.587   4.132   6.019 -0.8623 -0.8666 -0.3925
 4653TIP3   OH213899   6.238   2.836   5.340  0.0379  0.1747 -0.1440
 4653TIP3    H113900   6.161   2.849   5.395  1.4905 -0.0490  2.0712
 4653TIP3    H213901   6.204   2.801   5.258 -2.2013  0.0034  0.8019
 4654TIP3   OH213902   2.948   7.438   2.170  0.3410  0.3579  0.3211
 4654TIP3    H113903   2.927   7.527   2.199  1.2046 -0.0277  2.2497
 4654TIP3    H213904   3.033   7.419   2.209 -0.2958 -1.7146  0.8324
 4655TIP3   OH213905   4.955   7.570   6.221 -0.4094  0.0663  0.7508
 4655TIP3    H113906   4.972   7.478   6.243  0.3624 -0.0025 -0.0948
 4655TIP3    H213907   4.884   7.596   6.280 -0.1304 -0.8548  1.5139
 4656TIP3   OH213908   0.934   3.677   0.554  0.6857  0.4007  0.3547
 4656TIP3    H113909   0.913   3.584   0.542  0.5558  0.5748 -0.8135
 4656TIP3    H213910   0.954   3.685   0.647  0.9383 -0.8481  0.4179
 4657TIP3   OH213911   2.692   0.127   1.060 -0.1485  0.3014 -0.2243
 4657TIP3    H113912   2.733   0.175   0.988  0.0515  3.2286  1.6683
 4657TIP3    H213913   2.753   0.137   1.133 -0.4277 -2.4178  0.4695
 4658TIP3   OH213914   5.305   1.733   1.871  0.0932 -0.8004 -0.6067
 4658TIP3    H113915   5.238   1.691   1.925 -0.8818  1.0508 -0.2797
 4658TIP3    H213916   5.311   1.822   1.906  1.1137 -0.2550 -2.0751
 4659TIP3   OH213917   2.156   2.665   4.779 -0.2113  0.4974  0.0713
 4659TIP3    H113918   2.110   2.748   4.766  0.1930  0.8071  0.5778
 4659TIP3    H213919   2.162   2.657   4.874  1.8685  1.0679  0.0351
 4660TIP3   OH213920   8.307   5.688   1.760  0.2058 -0.9112 -0.5425
 4660TIP3    H113921   8.223   5.717   1.724 -0.7144  2.6204  3.6097
 4660TIP3    H213922   8.284   5.626   1.828  0.9688 -0.3271  0.2759
 4661TIP3   OH213923   8.343   0.810   0.295  0.0311  0.1889 -0.6200
 4661TIP3    H113924   8.301   0.869   0.233 -1.0089 -1.1055 -1.1828
 4661TIP3    H213925   8.395   0.751   0.241  1.7490  1.0753 -0.0040
 4662TIP3   OH213926   1.626   1.299   2.021  0.0568  0.9045 -0.2261
 4662TIP3    H113927   1.675   1.218   2.037  0.5254  1.6197  2.3879
 4662TIP3    H213928   1.547   1.289   2.074 -0.5505  1.6266 -0.9659
 4663TIP3   OH213929   2.725   4.937   6.773  0.4868 -0.1601  0.2275
 4663TIP3    H113930   2.697   4.993   6.845  0.4638 -0.8282  0.7479
 4663TIP3    H213931   2.804   4.980   6.738  0.1988  0.4401  0.3087
 4664TIP3   OH213932   2.512   0.369   1.974  0.1325  0.1285 -0.0155
 4664TIP3    H113933   2.580   0.432   1.948  0.4218 -0.6090 -1.1619
 4664TIP3    H213934   2.453   0.365   1.898  0.5438 -1.5037 -0.3077
 4665TIP3   OH213935   1.062   1.922   4.272 -1.0101 -0.1521 -0.0722
 4665TIP3    H113936   1.051   1.831   4.245  0.0567  0.1510 -1.6679
 4665TIP3    H213937   1.120   1.918   4.348 -0.8792 -0.8060 -0.2031
 4666TIP3   OH213938   1.999   4.741   3.863 -0.0231 -0.1461  0.5699
 4666TIP3    H113939   2.065   4.680   3.897 -0.5224 -0.4831  0.9587
 4666TIP3    H213940   1.952   4.690   3.796 -0.0836 -0.0053  0.5051
 4667TIP3   OH213941   7.597   0.819   2.612 -0.4575 -0.2642 -0.7628
 4667TIP3    H113942   7.530   0.751   2.621 -0.7641  0.1699  0.4636
 4667TIP3    H213943   7.562   0.894   2.660 -0.0176  0.6943 -1.8965
 4668TIP3   OH213944   8.399   0.717   1.837 -0.2678  0.0973  0.2590
 4668TIP3    H113945   8.344   0.722   1.758 -1.7497 -0.5915  1.1900
 4668TIP3    H213946   8.415   0.808   1.861 -1.1196  0.3239  0.0244
 4669TIP3   OH213947   5.966   2.785   1.559 -0.4723  0.0302  0.0994
 4669TIP3    H113948   6.016   2.738   1.493 -0.8144 -0.1897 -0.0040
 4669TIP3    H213949   5.990   2.743   1.642 -0.6916 -0.2565  0.0196
 4670TIP3   OH213950   5.889   6.343   4.236  0.1615 -0.1574  0.6882
 4670TIP3    H113951   5.820   6.378   4.179  1.4481  1.1018 -0.1945
 4670TIP3    H213952   5.857   6.357   4.325 -1.6066 -1.5426  0.3084
 4671TIP3   OH213953   4.063   3.032   5.260 -0.0970 -1.0341 -0.5991
 4671TIP3    H113954   4.130   2.986   5.311  0.2054  0.3349  0.3082
 4671TIP3    H213955   4.111   3.100   5.213 -0.7841 -0.3058 -0.2689
 4672TIP3   OH213956   6.756   7.116   4.347  0.2272 -0.1127 -0.7010
 4672TIP3    H113957   6.671   7.077   4.324  0.8327 -1.1965 -1.2240
 4672TIP3    H213958   6.734   7.193   4.400 -1.0822 -0.2236 -1.0421
 4673TIP3   OH213959   7.880   3.371   1.176  0.0566  0.5788  0.2033
 4673TIP3    H113960   7.831   3.325   1.244  0.4431  1.6275  1.2275
 4673TIP3    H213961   7.827   3.448   1.155 -1.2535 -0.9220 -2.4618
 4674TIP3   OH213962   4.733   4.969   5.609 -0.1090  0.2745  0.1539
 4674TIP3    H113963   4.688   4.921   5.678  1.8404 -2.4840 -0.3133
 4674TIP3    H213964   4.671   4.973   5.537 -0.8907 -0.0900  0.7973
 4675TIP3   OH213965   6.217   1.450   6.319 -0.2805  0.1403  0.1587
 4675TIP3    H113966   6.260   1.378   6.273  0.9141 -0.8753  2.6867
 4675TIP3    H213967   6.177   1.409   6.396 -0.6886  1.9903  0.9899
 4676TIP3   OH213968   0.372   7.713   6.049  0.0810 -0.2981 -0.2592
 4676TIP3    H113969   0.301   7.739   5.990 -2.3587 -1.7403  1.8393
 4676TIP3    H213970   0.411   7.795   6.078 -2.0726  0.6976  0.0198
 4677TIP3   OH213971   6.881   5.152   0.833  0.0262  0.0368 -0.2614
 4677TIP3    H113972   6.943   5.112   0.893  0.5711 -0.9102 -1.4243
 4677TIP3    H213973   6.796   5.113   0.857  0.3467 -0.8510 -0.5362
 4678TIP3   OH213974   0.734   4.946   2.032 -0.3549 -0.4835 -0.3304
 4678TIP3    H113975   0.807   4.980   2.084  0.0173 -1.8322  0.0755
 4678TIP3    H213976   0.740   4.993   1.949  1.8186 -1.4412 -0.8089
 4679TIP3   OH213977   5.559   1.778   2.740  0.1356 -0.1143  0.2114
 4679TIP3    H113978   5.492   1.716   2.712  0.1115  0.3558 -0.8191
 4679TIP3    H213979   5.637   1.753   2.690  0.1524  0.6254 -0.1415
 4680TIP3   OH213980   1.527   6.712   5.627  0.4292 -0.3461 -0.1932
 4680TIP3    H113981   1.549   6.715   5.720 -1.4472  0.6360  0.2731
 4680TIP3    H213982   1.555   6.796   5.593  0.4050 -0.3918 -0.3276
 4681TIP3   OH213983   5.121   2.274   6.510  0.2221 -0.2043 -0.2945
 4681TIP3    H113984   5.092   2.296   6.599  0.8697 -0.4211 -0.0277
 4681TIP3    H213985   5.046   2.298   6.455 -0.1441  0.0442  0.2911
 4682TIP3   OH213986   1.147   2.276   1.231  0.0512  0.6419 -0.3441
 4682TIP3    H113987   1.078   2.289   1.166 -0.9200 -1.0835  0.2891
 4682TIP3    H213988   1.118   2.323   1.308  0.0958  0.7772 -0.4087
 4683TIP3   OH213989   2.358   3.895   4.260  0.5497 -0.1705 -0.9045
 4683TIP3    H113990   2.418   3.952   4.310 -0.3602 -0.3201  0.4103
 4683TIP3    H213991   2.295   3.956   4.221  0.1998 -0.1868 -0.3714
 4684TIP3   OH213992   1.336   6.899   2.421 -0.5860  0.0616 -0.0525
 4684TIP3    H113993   1.367   6.878   2.333 -2.9705 -0.0493 -0.9448
 4684TIP3    H213994   1.356   6.992   2.432 -0.2210  0.0643 -0.6941
 4685TIP3   OH213995   0.760   0.346   2.402  0.0088  0.2948  0.3784
 4685TIP3    H113996   0.806   0.314   2.479 -1.0395  1.0954  1.3905
 4685TIP3    H213997   0.792   0.293   2.330  2.2044  0.5772  1.0801
 4686TIP3   OH213998   6.778   7.174   3.765  0.1807  0.2859  0.1809
 4686TIP3    H113999   6.838   7.160   3.838  0.3138 -0.0813  0.0037
 4686TIP3    H214000   6.717   7.101   3.771 -0.1884  0.5966  0.2940
 4687TIP3   OH214001   5.239   3.610   3.078  0.0061 -0.1740 -0.5443
 4687TIP3    H114002   5.207   3.593   3.167 -2.8310  0.3454 -1.3578
 4687TIP3    H214003   5.303   3.680   3.088  0.6608 -0.9568  1.1884
 4688TIP3   OH214004   3.395   3.571   5.907 -0.6004  0.6453  0.1591
 4688TIP3    H114005   3.401   3.629   5.831 -1.0610 -0.3691 -0.6716
 4688TIP3    H214006   3.376   3.485   5.870  0.7001 -0.1879  1.3148
 4689TIP3   OH214007   2.621   4.238   0.283  0.7377 -0.0920  0.4973
 4689TIP3    H114008   2.599   4.330   0.267  0.1132 -0.1458  1.0015
 4689TIP3    H214009   2.650   4.205   0.198  1.4869  0.7054  0.4332
 4690TIP3   OH214010   4.023   4.255   5.387  0.4552  0.2868 -0.0191
 4690TIP3    H114011   3.986   4.307   5.459  0.4049 -2.1474  1.8555
 4690TIP3    H214012   4.065   4.319   5.330 -0.2462  2.4302  1.7293
 4691TIP3   OH214013   6.215   3.580   1.524 -0.2259 -0.3075  0.0026
 4691TIP3    H114014   6.270   3.503   1.509  0.0137  0.1844 -1.8793
 4691TIP3    H214015   6.238   3.640   1.453 -1.6890  0.7810  0.4035
 4692TIP3   OH214016   6.287   0.057   0.659  0.5201  0.3318  0.0385
 4692TIP3    H114017   6.196   0.048   0.688  0.4279  0.1091 -0.3041
 4692TIP3    H214018   6.303  -0.022   0.608  0.9067  0.3727  0.0972
 4693TIP3   OH214019   0.865   6.565   4.197  0.2317 -0.1466 -0.0103
 4693TIP3    H114020   0.890   6.479   4.230  0.2081 -0.7131 -1.4004
 4693TIP3    H214021   0.840   6.615   4.275 -1.0664 -1.8328  0.7228
 4694TIP3   OH214022   3.606   3.689   1.091  0.5308 -0.2844 -0.5749
 4694TIP3    H114023   3.548   3.699   1.166  0.1952  0.7581 -0.9555
 4694TIP3    H214024   3.606   3.775   1.049  3.1746  0.0876  0.0027
 4695TIP3   OH214025   0.816   2.997   3.608 -0.4279 -0.0212 -0.3712
 4695TIP3    H114026   0.798   2.923   3.666 -2.1991 -0.0109 -0.8357
 4695TIP3    H214027   0.735   3.049   3.611 -0.0328  0.7096 -1.7528
 4696TIP3   OH214028   6.682   7.823   5.072 -0.4272 -0.2100 -0.1367
 4696TIP3    H114029   6.769   7.849   5.042 -0.3225  0.6493  0.8355
 4696TIP3    H214030   6.656   7.893   5.133 -2.8533  0.8921 -2.2399
 4697TIP3   OH214031   4.041   0.905   3.496  0.2117 -0.3462  0.4819
 4697TIP3    H114032   4.052   0.998   3.477  0.8997 -0.3759  0.7118
 4697TIP3    H214033   4.129   0.868   3.488 -0.0388 -0.9574  0.5019
 4698TIP3   OH214034   5.418   1.955   1.518 -0.1783 -0.1887 -0.0593
 4698TIP3    H114035   5.440   2.041   1.482 -0.4242  0.1281  0.5189
 4698TIP3    H214036   5.445   1.893   1.451 -0.1064  0.3474 -0.5388
 4699TIP3   OH214037   2.561   1.557   3.152  0.5413  0.5687  0.0128
 4699TIP3    H114038   2.593   1.470   3.176 -1.1084 -0.3095 -0.8154
 4699TIP3    H214039   2.473   1.542   3.118  0.7496  2.3820 -1.4959
 4700TIP3   OH214040   2.935   2.931   6.763 -0.0159  0.4006 -0.1196
 4700TIP3    H114041   2.965   2.840   6.769  2.3414  1.2038  3.8324
 4700TIP3    H214042   2.850   2.931   6.807  0.4383  0.2300  0.7770
 4701TIP3   OH214043   6.036   4.082   5.493  0.0261  0.4431 -0.0096
 4701TIP3    H114044   6.005   4.109   5.407  0.1545  1.2965  0.2026
 4701TIP3    H214045   6.029   3.987   5.492  0.7030  0.3818 -1.2193
 4702TIP3   OH214046   4.832   4.174   0.280  0.4396  0.0503  0.7528
 4702TIP3    H114047   4.766   4.162   0.211  0.8692 -0.5888  0.4410
 4702TIP3    H214048   4.781   4.195   0.358 -0.1425 -0.5143  0.5323
 4703TIP3   OH214049   3.165   6.171   5.008 -0.1397 -0.2744 -0.2631
 4703TIP3    H114050   3.199   6.259   4.995  0.3797 -0.4794 -0.3062
 4703TIP3    H214051   3.239   6.121   5.042 -0.4113 -0.7107 -0.3032
 4704TIP3   OH214052   1.625   2.775   5.665 -0.8516 -0.1013 -0.1763
 4704TIP3    H114053   1.592   2.820   5.743 -1.6120 -1.0160  0.0556
 4704TIP3    H214054   1.621   2.841   5.596  0.8171  1.0292  0.7574
 4705TIP3   OH214055   4.820   0.609   0.749 -0.3309 -0.3204 -0.2320
 4705TIP3    H114056   4.855   0.552   0.817 -1.1266 -0.4167  0.1100
 4705TIP3    H214057   4.862   0.579   0.668 -0.5914 -1.2758 -0.0256
 4706TIP3   OH214058   6.878   1.855   1.838  0.2953  0.1948 -0.2019
 4706TIP3    H114059   6.852   1.815   1.755 -0.6260  0.6633 -0.1592
 4706TIP3    H214060   6.890   1.947   1.816 -1.2408  0.5795  0.4142
 4707TIP3   OH214061   4.926   3.882   5.447  0.0925  0.1395  0.0385
 4707TIP3    H114062   4.836   3.908   5.467  0.2612 -0.2607  1.4485
 4707TIP3    H214063   4.917   3.815   5.379 -0.7133 -0.2191  0.4827
 4708TIP3   OH214064   2.704   0.790   4.937  0.0927  0.4028  0.4160
 4708TIP3    H114065   2.753   0.833   5.007  0.3168  2.6445 -1.0013
 4708TIP3    H214066   2.614   0.823   4.947 -0.3705 -0.9677  0.9229
 4709TIP3   OH214067   0.279   7.237   0.325 -0.3890  0.3809 -0.0599
 4709TIP3    H114068   0.365   7.242   0.284 -0.6235 -0.7556 -0.7203
 4709TIP3    H214069   0.241   7.324   0.311  0.7595  1.0094  0.5378
 4710TIP3   OH214070   5.948   2.074   6.649 -0.4347  0.3249  0.5029
 4710TIP3    H114071   5.991   2.068   6.735 -0.9330 -3.6120  0.6491
 4710TIP3    H214072   6.017   2.106   6.590  1.5206 -1.7294  1.5138
 4711TIP3   OH214073   6.016   6.233   1.502  0.0792  0.5016 -0.1904
 4711TIP3    H114074   6.038   6.252   1.593 -1.9568 -0.9096  0.6508
 4711TIP3    H214075   5.923   6.252   1.494  0.2809  0.9528 -2.1101
 4712TIP3   OH214076   3.682   0.166   2.682  0.1854  0.6399  0.2996
 4712TIP3    H114077   3.605   0.177   2.627  0.8039  1.0908 -0.5047
 4712TIP3    H214078   3.668   0.083   2.728 -0.2528  0.1453 -0.7002
 4713TIP3   OH214079   6.436   2.994   4.913  0.0974 -0.1450 -0.5254
 4713TIP3    H114080   6.483   2.938   4.851 -0.5122 -1.0491 -0.1868
 4713TIP3    H214081   6.459   3.083   4.887  1.7606 -0.5549 -0.5507
 4714TIP3   OH214082   5.110   6.420   4.450  0.0897 -0.3011 -0.4378
 4714TIP3    H114083   5.090   6.404   4.358 -0.3336  1.1902 -0.6307
 4714TIP3    H214084   5.202   6.449   4.449 -0.2976  0.9790 -0.5696
 4715TIP3   OH214085   4.452   3.758   6.223 -0.1898  0.5465 -0.1691
 4715TIP3    H114086   4.459   3.816   6.147  0.2714  1.4219  0.5211
 4715TIP3    H214087   4.541   3.756   6.259 -0.7042  1.3532  1.2172
 4716TIP3   OH214088   7.303   6.652   0.204  0.3359  0.6861 -0.1669
 4716TIP3    H114089   7.342   6.642   0.118  0.0818  0.2696 -0.2379
 4716TIP3    H214090   7.377   6.655   0.265  0.4890 -2.6052 -0.0220
 4717TIP3   OH214091   7.143   1.040   6.285  1.1372  0.0372  0.0828
 4717TIP3    H114092   7.188   1.114   6.246  0.5808  0.9231  1.0861
 4717TIP3    H214093   7.050   1.058   6.272  0.9339  0.3890  1.8383
 4718TIP3   OH214094   4.039   7.296   2.075 -0.0773 -0.0474 -0.2002
 4718TIP3    H114095   3.986   7.353   2.019 -2.9663 -2.3396  0.0019
 4718TIP3    H214096   3.983   7.221   2.094  1.9158 -0.8928  3.2085
 4719TIP3   OH214097   1.258   2.555   2.101  0.2800  0.4233 -0.5501
 4719TIP3    H114098   1.248   2.624   2.167 -1.6440  1.5654 -1.9190
 4719TIP3    H214099   1.265   2.474   2.152 -3.3196  0.9706  1.1761
 4720TIP3   OH214100   5.114   2.597   4.212  0.5879 -0.2130  0.4278
 4720TIP3    H114101   5.050   2.653   4.255  0.5517  0.0715  0.0069
 4720TIP3    H214102   5.092   2.509   4.240 -0.4482 -0.1969 -0.2833
 4721TIP3   OH214103   4.536   6.591   0.448  0.1320 -0.3496  0.6607
 4721TIP3    H114104   4.450   6.625   0.471 -0.3484 -1.3604  0.3936
 4721TIP3    H214105   4.597   6.656   0.483 -0.7411  0.5830  0.4977
 4722TIP3   OH214106   2.558   1.889   5.106  0.1433 -0.1205  0.3050
 4722TIP3    H114107   2.615   1.833   5.053 -0.8307 -1.7991  0.9615
 4722TIP3    H214108   2.590   1.878   5.196 -0.5926 -0.3165  0.5526
 4723TIP3   OH214109   5.160   1.153   6.208 -0.6054 -0.5066  0.1721
 4723TIP3    H114110   5.256   1.153   6.207 -0.5958 -1.0993 -0.5764
 4723TIP3    H214111   5.137   1.156   6.301  0.1115  0.8328  0.3382
 4724TIP3   OH214112   7.094   5.114   0.260  0.4433 -0.5077 -0.2819
 4724TIP3    H114113   7.119   5.206   0.248  2.3443 -0.9885 -0.3197
 4724TIP3    H214114   7.039   5.094   0.185 -0.1292  0.6393 -0.1881
 4725TIP3   OH214115   2.414   4.804   5.280  0.5812  0.2943  0.7610
 4725TIP3    H114116   2.429   4.773   5.369 -0.3227 -0.8774  0.5362
 4725TIP3    H214117   2.471   4.880   5.270  0.8967  0.2677  2.2383
 4726TIP3   OH214118   6.396   4.706   3.406  0.5061 -0.0148  0.0493
 4726TIP3    H114119   6.476   4.672   3.445  0.4170 -0.7006 -0.3476
 4726TIP3    H214120   6.351   4.628   3.372  0.4213  0.5287 -1.1219
 4727TIP3   OH214121   8.203   2.859   3.232 -0.6451 -0.1047  0.2578
 4727TIP3    H114122   8.121   2.811   3.245 -0.2717 -0.6168  0.7522
 4727TIP3    H214123   8.225   2.894   3.318 -0.6600  0.5522 -0.0002
 4728TIP3   OH214124   8.269   1.728   4.399 -0.0775  0.1552 -0.0333
 4728TIP3    H114125   8.321   1.693   4.471 -0.1793  0.2479  0.0852
 4728TIP3    H214126   8.232   1.809   4.432 -0.3952  0.0322 -0.0762
 4729TIP3   OH214127   1.071   0.879   1.644 -0.0469  0.4354 -0.4228
 4729TIP3    H114128   1.119   0.867   1.563  0.1572  1.3508 -0.4494
 4729TIP3    H214129   0.987   0.916   1.617 -1.0142 -1.5969 -0.4238
 4730TIP3   OH214130   6.450   6.344   6.742  0.3653 -0.3790 -0.0266
 4730TIP3    H114131   6.512   6.394   6.796 -2.0922  1.2676  1.4759
 4730TIP3    H214132   6.435   6.400   6.666 -1.0654  0.4491  0.8151
 4731TIP3   OH214133   5.584   0.275   6.200  0.3031 -0.8112  0.4698
 4731TIP3    H114134   5.551   0.250   6.113 -2.1736  1.0856  0.7787
 4731TIP3    H214135   5.671   0.311   6.182  0.6472 -2.1964 -0.9244
 4732TIP3   OH214136   1.708   4.599   5.232 -0.4159  0.1719 -0.9313
 4732TIP3    H114137   1.692   4.508   5.211 -1.3612  0.5763 -2.0577
 4732TIP3    H214138   1.796   4.617   5.197 -0.3054 -0.2442 -0.8741
 4733TIP3   OH214139   0.444   7.812   0.725 -0.0732  0.2625  0.5120
 4733TIP3    H114140   0.464   7.823   0.632 -0.9382 -1.9045  0.0234
 4733TIP3    H214141   0.515   7.757   0.758 -0.6700 -0.4008  0.7145
 4734TIP3   OH214142   1.074   3.405   6.693  0.4749  0.6421 -0.4597
 4734TIP3    H114143   1.053   3.479   6.751 -0.4735 -0.0903  0.1761
 4734TIP3    H214144   0.999   3.346   6.703  2.0690 -1.3355  0.5919
 4735TIP3   OH214145   7.070   7.191   2.857 -0.5846  0.5685  0.3578
 4735TIP3    H114146   6.983   7.230   2.865 -0.8209 -0.1240  1.4400
 4735TIP3    H214147   7.117   7.222   2.935 -1.1234 -2.0412  1.8324
 4736TIP3   OH214148   7.294   3.389   6.087  0.5551  0.0685  0.3815
 4736TIP3    H114149   7.292   3.403   5.992 -0.1318  0.7189  0.4811
 4736TIP3    H214150   7.377   3.344   6.103  0.4452 -0.4916 -0.5834
 4737TIP3   OH214151   3.599   3.969   3.978  0.1357  0.8777  0.0093
 4737TIP3    H114152   3.632   3.885   4.010  1.5473  0.8230 -1.4632
 4737TIP3    H214153   3.505   3.968   3.999  0.6555  0.2027  2.5924
 4738TIP3   OH214154   3.452   7.914   2.080 -0.4562 -0.1068  0.3253
 4738TIP3    H114155   3.442   7.861   2.159 -3.0110  1.2078  0.9925
 4738TIP3    H214156   3.544   7.941   2.080 -0.3404 -0.3398  2.7255
 4739TIP3   OH214157   1.787   0.674   1.223  0.5397  0.1779 -0.0592
 4739TIP3    H114158   1.733   0.730   1.278  2.0946  0.8349  0.8436
 4739TIP3    H214159   1.770   0.585   1.254  1.2505  0.5249  1.3780
 4740TIP3   OH214160   0.724   3.319   3.555 -0.1985 -0.1011 -0.1209
 4740TIP3    H114161   0.683   3.404   3.540  0.8555  0.5440  0.4879
 4740TIP3    H214162   0.655   3.256   3.540 -0.1571  0.5747 -4.4164
 4741TIP3   OH214163   6.812   1.090   1.492  0.0817  0.0400  0.0909
 4741TIP3    H114164   6.738   1.036   1.519  1.0113 -1.4240 -0.1773
 4741TIP3    H214165   6.779   1.141   1.418 -1.5283  1.7164  1.8620
 4742TIP3   OH214166   7.369   2.410   3.266  0.2698 -0.1553  0.1143
 4742TIP3    H114167   7.330   2.479   3.319  1.6553  0.2055  0.7096
 4742TIP3    H214168   7.301   2.386   3.203 -1.3752 -0.4758  1.9147
 4743TIP3   OH214169   1.642   7.386   5.369 -0.1842 -0.7901  0.5503
 4743TIP3    H114170   1.629   7.382   5.274  2.2413 -2.1726  0.1958
 4743TIP3    H214171   1.659   7.478   5.387 -2.4664 -0.1941 -0.0156
 4744TIP3   OH214172   3.147   5.021   2.279  0.0475  0.4422  0.0975
 4744TIP3    H114173   3.227   4.990   2.320  2.3369  1.0334 -3.4248
 4744TIP3    H214174   3.133   5.108   2.316  0.8696  0.2259  0.9522
 4745TIP3   OH214175   0.111   4.659   2.714 -0.0720  0.5466 -0.0428
 4745TIP3    H114176   0.047   4.595   2.681 -1.7123  2.0780  0.0111
 4745TIP3    H214177   0.196   4.623   2.689 -0.9756 -1.2006 -0.7874
 4746TIP3   OH214178   5.973   3.595   5.806  0.1861 -0.1404  0.7738
 4746TIP3    H114179   5.935   3.609   5.893  1.1498  0.2035  1.1628
 4746TIP3    H214180   6.040   3.528   5.820 -0.2997 -0.7664  0.1034
 4747TIP3   OH214181   4.499   7.434   4.352 -0.2795  0.4391 -0.1760
 4747TIP3    H114182   4.528   7.443   4.261 -0.2357 -1.7554 -0.4277
 4747TIP3    H214183   4.576   7.402   4.399 -0.1134  2.1495  0.8319
 4748TIP3   OH214184   1.628   6.968   5.840 -0.4463  0.2611 -0.1670
 4748TIP3    H114185   1.696   6.918   5.796 -1.0478  0.1428 -1.0008
 4748TIP3    H214186   1.644   7.059   5.813  2.0839  0.9839  3.2090
 4749TIP3   OH214187   7.694   0.406   5.924  0.0358  0.1621  0.1801
 4749TIP3    H114188   7.729   0.427   5.837  0.0272 -0.7220 -0.0472
 4749TIP3    H214189   7.648   0.323   5.912 -2.5024  1.4361  0.3654
 4750TIP3   OH214190   2.762   2.321   6.364 -0.1944  0.3147 -0.0239
 4750TIP3    H114191   2.739   2.292   6.452 -0.2006  0.5130  0.0409
 4750TIP3    H214192   2.719   2.406   6.354 -0.5830  0.0816 -0.3954
 4751TIP3   OH214193   3.899   5.066   5.920 -0.2881  0.5216  0.3240
 4751TIP3    H114194   3.853   5.148   5.937 -1.6019 -0.4151  1.5788
 4751TIP3    H214195   3.988   5.081   5.951 -1.0806  0.8323  2.6984
 4752TIP3   OH214196   1.331   7.249   4.058  0.3883  0.5201 -0.6776
 4752TIP3    H114197   1.388   7.182   4.022 -0.3436  0.0001 -0.9051
 4752TIP3    H214198   1.381   7.290   4.128  0.1550 -1.5882  0.7899
 4753TIP3   OH214199   0.302   6.818   6.751  0.5909 -0.3698 -0.0176
 4753TIP3    H114200   0.208   6.833   6.766  0.6302  0.1914 -0.3221
 4753TIP3    H214201   0.343   6.845   6.833  0.6256  0.8636 -0.4308
 4754TIP3   OH214202   1.808   5.321   3.760  0.2220  0.3029  0.2746
 4754TIP3    H114203   1.784   5.355   3.673  0.6876  0.3783  0.1706
 4754TIP3    H214204   1.759   5.240   3.768 -1.3144  1.2419  0.7449
 4755TIP3   OH214205   7.573   3.248   3.524 -0.2978  0.1508 -0.3720
 4755TIP3    H114206   7.583   3.329   3.474  0.7564 -0.1070 -0.6028
 4755TIP3    H214207   7.608   3.180   3.467 -0.4071 -0.3537  0.1531
 4756TIP3   OH214208   1.516   0.119   1.662  0.3908 -0.1340 -0.2486
 4756TIP3    H114209   1.577   0.187   1.636  0.2160 -0.6757 -2.2160
 4756TIP3    H214210   1.547   0.040   1.617 -2.2603 -0.2177 -2.1299
 4757TIP3   OH214211   7.476   3.272   6.660 -0.5648 -0.0923  0.2375
 4757TIP3    H114212   7.568   3.253   6.639 -0.0463  0.4385  1.8215
 4757TIP3    H214213   7.466   3.366   6.645 -0.8216 -0.1345  0.1407
 4758TIP3   OH214214   6.405   3.216   1.720  0.0613  0.9215 -0.1350
 4758TIP3    H114215   6.358   3.136   1.696  1.7105 -0.1387 -0.0551
 4758TIP3    H214216   6.494   3.185   1.739  0.7272  2.7937 -0.0763
 4759TIP3   OH214217   2.395   4.264   4.099 -0.3281  0.1552 -0.2219
 4759TIP3    H114218   2.322   4.303   4.147  0.8398 -0.1340  1.9212
 4759TIP3    H214219   2.370   4.172   4.090 -0.5687  0.2148 -0.1803
 4760TIP3   OH214220   1.479   0.403   0.069 -0.3524  0.1322  0.0536
 4760TIP3    H114221   1.462   0.436  -0.019 -0.3103  0.9399  0.3466
 4760TIP3    H214222   1.445   0.470   0.127 -0.0748 -0.2426  0.6569
 4761TIP3   OH214223   1.400   0.273   5.497 -0.4437  0.3586  0.5642
 4761TIP3    H114224   1.438   0.220   5.428 -1.3722  0.7842 -0.3041
 4761TIP3    H214225   1.356   0.344   5.451 -1.3434  0.4784  1.5702
 4762TIP3   OH214226   4.852   0.352   6.836  0.4486 -0.0171 -0.4951
 4762TIP3    H114227   4.837   0.370   6.743  0.9704  0.2182 -0.5361
 4762TIP3    H214228   4.936   0.393   6.855 -0.2077  0.9920  0.3778
 4763TIP3   OH214229   0.789   0.303   4.345  0.2371 -0.4338 -0.1425
 4763TIP3    H114230   0.761   0.246   4.274 -0.5109  0.7132 -0.7980
 4763TIP3    H214231   0.813   0.243   4.416  1.0164 -1.6051 -1.3455
 4764TIP3   OH214232   1.278   3.584   2.620  0.1209  0.3421  0.4826
 4764TIP3    H114233   1.242   3.496   2.613  1.0802 -0.5834  4.4189
 4764TIP3    H214234   1.373   3.572   2.608  0.1414  1.0267 -0.0561
 4765TIP3   OH214235   1.042   5.794   4.052  0.7451 -0.1448  0.6638
 4765TIP3    H114236   0.958   5.793   4.006 -0.0924  0.7265  2.1029
 4765TIP3    H214237   1.102   5.837   3.990  1.3374 -4.3778 -2.1389
 4766TIP3   OH214238   1.332   1.445   3.571 -0.2721  0.2402 -0.3734
 4766TIP3    H114239   1.264   1.489   3.520 -1.3120  0.8029  1.4011
 4766TIP3    H214240   1.355   1.368   3.519 -0.5267  1.3032 -2.1416
 4767TIP3   OH214241   2.951   0.740   5.463  0.0649  0.2997  0.1658
 4767TIP3    H114242   2.966   0.655   5.422  2.6950  0.2599  1.0469
 4767TIP3    H214243   2.959   0.803   5.391  0.8286 -0.0328 -0.0499
 4768TIP3   OH214244   7.555   2.193   3.803 -0.2166  0.0759 -0.4854
 4768TIP3    H114245   7.501   2.185   3.724  1.1704 -1.6005 -1.3191
 4768TIP3    H214246   7.640   2.222   3.772  0.0860  0.3527  0.5420
 4769TIP3   OH214247   0.948   4.397   3.227 -0.0984 -0.3155  0.2662
 4769TIP3    H114248   0.958   4.303   3.209 -0.1953 -0.2886  0.0707
 4769TIP3    H214249   0.919   4.434   3.143  0.0511 -0.0939  0.3136
 4770TIP3   OH214250   7.517   4.166   5.933  0.5912 -0.3331 -0.8173
 4770TIP3    H114251   7.427   4.138   5.948  0.6934 -0.5713 -0.6526
 4770TIP3    H214252   7.569   4.117   5.996  0.9171 -0.6776 -1.3437
 4771TIP3   OH214253   7.744   6.530   5.414 -0.0204 -0.0061  0.0672
 4771TIP3    H114254   7.816   6.478   5.378 -1.1077 -1.1850 -0.4647
 4771TIP3    H214255   7.763   6.619   5.384  2.3130  0.1286  1.6892
 4772TIP3   OH214256   7.015   5.283   5.429 -0.1973  0.3208  0.2101
 4772TIP3    H114257   6.985   5.264   5.340  0.9731  2.0096 -0.5942
 4772TIP3    H214258   7.108   5.303   5.420 -0.5035  2.6961  1.4420
 4773TIP3   OH214259   1.166   5.579   0.330 -0.1866 -0.0079  0.0461
 4773TIP3    H114260   1.095   5.589   0.393 -0.5887 -0.8042 -0.2766
 4773TIP3    H214261   1.157   5.656   0.273  0.0050  0.5661  0.7660
 4774TIP3   OH214262   6.900   4.028   2.861 -0.3632 -0.4439  0.4972
 4774TIP3    H114263   6.876   4.039   2.953  1.0847 -3.6072  1.3669
 4774TIP3    H214264   6.926   4.116   2.832 -1.0861  0.6732  3.0007
 4775TIP3   OH214265   2.274   5.787   2.345 -0.7314  0.0847 -0.0788
 4775TIP3    H114266   2.218   5.756   2.274 -0.9870 -0.4108  0.3357
 4775TIP3    H214267   2.349   5.727   2.344 -0.2487  0.6824 -0.5640
 4776TIP3   OH214268   3.666   7.648   5.897 -0.5481 -0.3254 -0.9001
 4776TIP3    H114269   3.592   7.633   5.839 -0.8246  2.3883 -1.3908
 4776TIP3    H214270   3.738   7.672   5.838 -0.4605  1.1051 -0.2637
 4777TIP3   OH214271   6.247   0.503   4.435  0.2831 -0.0435 -0.2742
 4777TIP3    H114272   6.307   0.456   4.493  2.3781  2.4665 -0.2266
 4777TIP3    H214273   6.168   0.514   4.487  2.2154  2.4634  2.4989
 4778TIP3   OH214274   4.130   0.205   3.613  0.0399  0.4794  0.1796
 4778TIP3    H114275   4.131   0.117   3.575  0.3558  0.8366 -0.6489
 4778TIP3    H214276   4.085   0.259   3.549 -0.1617  0.9287  0.6897
 4779TIP3   OH214277   2.282   6.331   0.210 -0.1318  0.4570 -0.3135
 4779TIP3    H114278   2.188   6.349   0.203 -0.2859 -0.3942 -0.5235
 4779TIP3    H214279   2.300   6.335   0.304 -0.8999 -1.7858 -0.0179
 4780TIP3   OH214280   6.424   4.656   5.185 -0.8518 -0.1459  0.3544
 4780TIP3    H114281   6.396   4.734   5.138  0.0730 -0.3619 -0.6144
 4780TIP3    H214282   6.437   4.591   5.116 -2.3435 -1.4142  1.1935
 4781TIP3   OH214283   4.708   1.636   2.148  0.4647  0.4411 -0.3559
 4781TIP3    H114284   4.767   1.709   2.129  0.7674  0.0234 -1.0611
 4781TIP3    H214285   4.753   1.559   2.113 -1.0476  0.2651 -2.0605
 4782TIP3   OH214286   3.215   1.912   3.883  0.5448 -0.1193  0.3692
 4782TIP3    H114287   3.141   1.965   3.854 -0.2230 -1.6734 -0.6777
 4782TIP3    H214288   3.292   1.966   3.866 -0.2307  0.7948 -0.3190
 4783TIP3   OH214289   1.833   7.830   5.835 -0.4103  0.5255  0.0346
 4783TIP3    H114290   1.866   7.862   5.919 -0.8350  0.2097  0.3290
 4783TIP3    H214291   1.739   7.848   5.838 -0.2644  1.5325 -0.8454
 4784TIP3   OH214292   7.240   3.182   3.739 -0.3715  0.3860 -0.8931
 4784TIP3    H114293   7.300   3.108   3.736  1.5025  1.7901 -0.4003
 4784TIP3    H214294   7.232   3.203   3.833 -1.0578  0.6757 -1.0060
 4785TIP3   OH214295   0.698   6.362   1.277  0.2906  0.0486 -0.4403
 4785TIP3    H114296   0.684   6.284   1.223 -1.3775  0.3157 -0.4427
 4785TIP3    H214297   0.610   6.388   1.305  0.8726  1.5994  0.0380
 4786TIP3   OH214298   5.252   5.874   4.774  0.0052  0.1555 -0.5491
 4786TIP3    H114299   5.238   5.877   4.679  0.1926 -1.4326 -0.6549
 4786TIP3    H214300   5.345   5.854   4.784 -0.3886 -1.7143 -0.1099
 4787TIP3   OH214301   6.756   6.411   6.114  0.7594  0.7551 -0.0329
 4787TIP3    H114302   6.797   6.480   6.062 -1.5027  2.0443 -0.2190
 4787TIP3    H214303   6.747   6.449   6.201  1.7636 -0.2711  0.5422
 4788TIP3   OH214304   3.372   1.188   0.466 -0.7309 -0.1906 -0.8643
 4788TIP3    H114305   3.323   1.261   0.504 -0.0289 -1.0059  1.8264
 4788TIP3    H214306   3.430   1.229   0.402 -1.2384  1.4338 -0.3425
 4789TIP3   OH214307   3.784   5.665   0.312  0.4216  0.5819  0.1105
 4789TIP3    H114308   3.762   5.662   0.405 -1.4694 -0.3638 -0.3163
 4789TIP3    H214309   3.874   5.699   0.309  1.3344 -1.3765  2.3872
 4790TIP3   OH214310   3.886   2.989   4.951  0.1924 -0.2163  0.8333
 4790TIP3    H114311   3.874   3.051   5.023 -2.2016 -0.5560  0.8223
 4790TIP3    H214312   3.815   3.009   4.890  1.3349 -0.8529 -0.7644
 4791TIP3   OH214313   0.098   2.764   5.177  0.0574 -0.6773  0.1260
 4791TIP3    H114314   0.015   2.803   5.207  0.8608 -0.0742  1.6760
 4791TIP3    H214315   0.164   2.829   5.200  0.8576 -0.5398 -2.3216
 4792TIP3   OH214316   2.446   1.502   6.738 -0.2207 -0.0200  0.4017
 4792TIP3    H114317   2.506   1.463   6.675  1.8536  1.6622  1.2501
 4792TIP3    H214318   2.486   1.484   6.823 -2.2492 -1.0300  1.2231
 4793TIP3   OH214319   0.234   5.864   4.390 -0.8082 -0.4150  0.6273
 4793TIP3    H114320   0.208   5.851   4.298 -0.2457  0.4987  0.3305
 4793TIP3    H214321   0.227   5.777   4.429 -0.8690 -0.8525 -0.3332
 4794TIP3   OH214322   0.718   7.139   2.233 -0.2537 -0.1752  0.4148
 4794TIP3    H114323   0.627   7.115   2.214  0.1666 -0.4060 -1.5065
 4794TIP3    H214324   0.762   7.056   2.251 -0.1436 -0.2123 -0.0104
 4795TIP3   OH214325   1.529   3.284   4.275 -0.0362  0.0075  0.1733
 4795TIP3    H114326   1.521   3.261   4.182 -1.0616  0.4415  0.1391
 4795TIP3    H214327   1.533   3.379   4.276 -0.6840  0.0348  0.6113
 4796TIP3   OH214328   7.636   4.429   6.543 -0.2049  0.9037  0.1112
 4796TIP3    H114329   7.701   4.475   6.490 -0.9317  1.4644 -0.3213
 4796TIP3    H214330   7.633   4.479   6.625  1.6037 -0.5120  1.1200
 4797TIP3   OH214331   6.867   1.502   5.386  0.0138 -0.0191  0.0968
 4797TIP3    H114332   6.851   1.564   5.315 -1.3698  0.2670  0.6375
 4797TIP3    H214333   6.851   1.552   5.466  2.1043 -0.1757  0.6658
 4798TIP3   OH214334   2.973   6.231   6.677  0.0803 -0.1507  0.2514
 4798TIP3    H114335   3.016   6.205   6.758 -0.6000  1.2401  1.1025
 4798TIP3    H214336   2.910   6.161   6.660  0.2229 -0.4561  0.9429
 4799TIP3   OH214337   2.687   6.952   1.251 -0.3410  0.0222  0.0736
 4799TIP3    H114338   2.768   6.963   1.301  0.1031  2.3425 -1.0088
 4799TIP3    H214339   2.620   6.998   1.302 -0.1090  1.4713 -0.8684
 4800TIP3   OH214340   7.162   6.293   4.309  0.3760 -0.3698 -0.0861
 4800TIP3    H114341   7.122   6.222   4.260  0.9739  0.4047 -1.7848
 4800TIP3    H214342   7.229   6.328   4.250  1.7065  0.0941  1.6187
 4801TIP3   OH214343   0.052   0.510   4.525 -0.0404 -0.7897  0.3917
 4801TIP3    H114344  -0.040   0.487   4.509  0.7458 -3.0012 -1.4676
 4801TIP3    H214345   0.062   0.596   4.485 -1.0283 -1.0629 -0.5104
 4802TIP3   OH214346   7.828   5.422   1.984 -0.3854  0.3711 -0.3200
 4802TIP3    H114347   7.860   5.370   1.910 -0.1420  0.2282 -0.1138
 4802TIP3    H214348   7.844   5.367   2.060  0.7972  1.1525  0.0111
 4803TIP3   OH214349   4.136   0.123   5.952  0.0351 -0.3453 -0.1753
 4803TIP3    H114350   4.110   0.040   5.994  0.3740 -1.0480 -1.3169
 4803TIP3    H214351   4.079   0.189   5.993 -1.7920 -1.4663 -0.7920
 4804TIP3   OH214352   2.650   6.834   2.845  0.1184 -0.1173 -0.1426
 4804TIP3    H114353   2.590   6.836   2.920  1.4134  3.2702  1.0128
 4804TIP3    H214354   2.718   6.773   2.871 -0.2798 -0.2045  0.7311
 4805TIP3   OH214355   6.933   3.322   1.921  0.1287  0.0248 -0.0451
 4805TIP3    H114356   6.864   3.261   1.951  1.4097 -1.1373  0.6416
 4805TIP3    H214357   6.887   3.382   1.862 -1.1135 -1.9431 -1.1981
 4806TIP3   OH214358   6.388   7.421   3.119  0.5468 -0.2256  0.3216
 4806TIP3    H114359   6.481   7.409   3.138  0.6627 -1.5930 -0.9719
 4806TIP3    H214360   6.347   7.339   3.144 -0.1848  0.0487  0.0503
 4807TIP3   OH214361   3.518   4.264   2.642  0.0983  0.2168  0.7542
 4807TIP3    H114362   3.546   4.326   2.709 -0.3684  0.6460  0.5607
 4807TIP3    H214363   3.598   4.237   2.598  0.3856  0.0902  1.3462
 4808TIP3   OH214364   7.391   3.878   0.650 -0.0698 -0.3937 -0.1294
 4808TIP3    H114365   7.394   3.783   0.643  0.5862 -0.3672 -0.2143
 4808TIP3    H214366   7.462   3.909   0.594  1.3069  0.0526  1.7588
 4809TIP3   OH214367   1.554   7.673   6.385  0.2728  0.2258  0.0067
 4809TIP3    H114368   1.548   7.712   6.298 -1.0583 -1.4735 -0.7213
 4809TIP3    H214369   1.463   7.661   6.412  0.6300 -1.5946  0.5257
 4810TIP3   OH214370   4.328   0.106   0.758  0.7125  0.6311  0.5593
 4810TIP3    H114371   4.417   0.073   0.762  0.9195  1.2354  3.4133
 4810TIP3    H214372   4.274   0.029   0.743  1.7167  0.4950 -3.2512
 4811TIP3   OH214373   2.932   3.531   4.539 -0.1906  0.1999 -0.4367
 4811TIP3    H114374   2.860   3.526   4.476  1.3947 -0.1610 -2.3442
 4811TIP3    H214375   2.987   3.456   4.518  1.8025  1.5853 -0.4825
 4812TIP3   OH214376   2.389   4.299   0.561  0.3594 -0.1581  0.3274
 4812TIP3    H114377   2.355   4.367   0.618 -0.1635 -0.3013  0.1934
 4812TIP3    H214378   2.458   4.342   0.510 -0.9829  0.6801 -0.8384
 4813TIP3   OH214379   3.279   7.566   4.634 -0.2039  0.0001  0.8451
 4813TIP3    H114380   3.284   7.626   4.708  0.3397  1.8598 -0.6234
 4813TIP3    H214381   3.194   7.584   4.595  0.2712  0.3818 -0.0386
 4814TIP3   OH214382   2.279   6.996   5.976  0.1058 -0.2465 -0.1473
 4814TIP3    H114383   2.224   6.922   6.004 -1.2517  0.9791  0.5392
 4814TIP3    H214384   2.270   6.997   5.880 -0.7208 -0.3334 -0.0787
 4815TIP3   OH214385   3.425   3.071   6.545  0.2744 -0.3060 -0.0721
 4815TIP3    H114386   3.415   3.145   6.485  1.1896  1.2778  1.6251
 4815TIP3    H214387   3.513   3.038   6.528  0.4035 -0.0847  0.1796
 4816TIP3   OH214388   8.030   4.089   3.677  0.1924  0.1115  0.6253
 4816TIP3    H114389   8.043   4.019   3.740 -1.3467 -2.2466 -1.4591
 4816TIP3    H214390   7.963   4.145   3.716 -1.4340 -1.8287  0.7875
 4817TIP3   OH214391   1.746   5.085   2.723 -0.7167  0.2659  0.1237
 4817TIP3    H114392   1.767   5.010   2.778 -0.8599  0.6418  0.7083
 4817TIP3    H214393   1.788   5.067   2.639  1.3544  0.6727  1.0097
 4818TIP3   OH214394   7.484   6.408   2.219  0.4855 -0.8117 -0.3320
 4818TIP3    H114395   7.484   6.455   2.135  1.7274 -0.7613 -0.3222
 4818TIP3    H214396   7.542   6.334   2.206 -0.4721 -1.6641  0.0528
 4819TIP3   OH214397   2.888   1.643   6.782 -0.6093  0.2236 -0.1082
 4819TIP3    H114398   2.941   1.585   6.837 -0.1901  0.9080  0.2418
 4819TIP3    H214399   2.900   1.609   6.693  0.4359  0.3529 -0.0381
 4820TIP3   OH214400   4.502   0.041   6.037  0.6230  0.1094  0.3038
 4820TIP3    H114401   4.513   0.090   6.118  1.6504  1.3027 -0.5101
 4820TIP3    H214402   4.453   0.100   5.980  1.3896 -0.0014 -0.4997
 4821TIP3   OH214403   6.229   1.081   5.873 -0.4833  0.4486 -0.1743
 4821TIP3    H114404   6.323   1.094   5.862 -0.0194 -1.0229  1.6513
 4821TIP3    H214405   6.209   1.001   5.825 -0.5654  0.1055  0.4242
 4822TIP3   OH214406   7.083   7.699   1.144  0.3112  0.3913 -0.3826
 4822TIP3    H114407   7.177   7.715   1.139  0.3429 -0.0682 -1.4405
 4822TIP3    H214408   7.073   7.637   1.217  0.6850  1.3856  0.5288
 4823TIP3   OH214409   4.687   3.857   6.409  0.0301 -0.1095 -0.1237
 4823TIP3    H114410   4.722   3.896   6.329 -0.1883 -0.9111 -0.6229
 4823TIP3    H214411   4.761   3.809   6.446 -0.1553 -0.6562 -0.4447
 4824TIP3   OH214412   1.440   4.989   2.678 -0.9132 -0.5081  0.2994
 4824TIP3    H114413   1.394   4.978   2.762 -0.3321 -1.4008  0.5105
 4824TIP3    H214414   1.507   5.054   2.696 -1.2038 -0.2160  0.3490
 4825TIP3   OH214415   0.131   4.426   3.732  0.2598  0.5709  0.2462
 4825TIP3    H114416   0.094   4.376   3.659 -0.1703  1.0390  0.1343
 4825TIP3    H214417   0.085   4.510   3.729  0.1255  0.5432  1.1506
 4826TIP3   OH214418   5.088   1.650   1.982  0.2136  0.0915 -0.1172
 4826TIP3    H114419   5.030   1.574   1.993 -0.6137  0.4241 -1.8025
 4826TIP3    H214420   5.052   1.716   2.043 -1.1460  0.2474 -1.0386
 4827TIP3   OH214421   4.340   1.584   3.552 -0.0300 -0.1575 -0.6778
 4827TIP3    H114422   4.371   1.534   3.627  0.5235  1.2558  0.0687
 4827TIP3    H214423   4.412   1.642   3.530 -0.7416  0.5012 -1.3461
 4828TIP3   OH214424   5.312   0.542   0.138  0.6037  0.3602  0.1480
 4828TIP3    H114425   5.401   0.547   0.103  0.4827  1.4868 -0.0331
 4828TIP3    H214426   5.272   0.626   0.114 -0.4406 -0.0481  0.4084
 4829TIP3   OH214427   1.724   3.201   5.181  0.4219 -0.2169  0.4271
 4829TIP3    H114428   1.687   3.230   5.098 -1.0928  0.3935  1.2801
 4829TIP3    H214429   1.768   3.118   5.161  1.0015  0.4484 -1.1702
 4830TIP3   OH214430   4.231   0.284   2.974 -0.6270  0.4185 -0.9652
 4830TIP3    H114431   4.311   0.325   2.941  0.1444 -1.7464 -1.9181
 4830TIP3    H214432   4.166   0.301   2.906 -0.5261  0.7015 -0.9933
 4831TIP3   OH214433   0.511   0.285   2.900 -0.4420  0.0106 -0.7689
 4831TIP3    H114434   0.444   0.352   2.910 -0.9028 -0.4868 -0.5035
 4831TIP3    H214435   0.485   0.237   2.821 -0.6102 -0.4116 -0.4650
 4832TIP3   OH214436   2.618   3.600   0.955 -0.2102  0.0236 -0.4916
 4832TIP3    H114437   2.588   3.512   0.980 -3.2860  1.2389  0.5553
 4832TIP3    H214438   2.710   3.602   0.981 -0.0448 -2.8715 -0.5611
 4833TIP3   OH214439   3.083   3.124   6.334  0.5914  0.1567  0.4326
 4833TIP3    H114440   3.066   3.210   6.295  1.4172 -1.0281 -2.8556
 4833TIP3    H214441   3.159   3.091   6.287 -1.6481 -3.7239 -0.9131
 4834TIP3   OH214442   1.415   1.263   0.869 -0.0676 -0.4572  0.1405
 4834TIP3    H114443   1.323   1.270   0.894 -0.0812 -0.9978  0.2536
 4834TIP3    H214444   1.437   1.171   0.884  0.9716  0.0126  1.8021
 4835TIP3   OH214445   4.321   2.264   5.073 -0.0567  0.2325 -0.2317
 4835TIP3    H114446   4.413   2.260   5.099 -0.3615 -1.7241  0.7471
 4835TIP3    H214447   4.301   2.175   5.046 -1.3279  0.9446 -1.7552
 4836TIP3   OH214448   2.658   5.858   0.492 -0.2054  0.0703 -0.1014
 4836TIP3    H114449   2.665   5.830   0.400 -1.4336  0.1660 -0.2489
 4836TIP3    H214450   2.726   5.810   0.537 -0.3328 -0.8775 -0.8736
 4837TIP3   OH214451   2.007   0.932   5.311 -0.2559 -0.3989  0.6050
 4837TIP3    H114452   2.015   0.878   5.232  0.8271 -0.4859  0.7597
 4837TIP3    H214453   1.913   0.934   5.329 -0.4646 -0.8496 -0.3588
 4838TIP3   OH214454   1.091   2.916   5.247  0.2065  0.3802  0.3839
 4838TIP3    H114455   1.093   2.828   5.208 -1.1509  0.5203 -0.0538
 4838TIP3    H214456   1.053   2.972   5.179  1.4982  1.4162  0.4800
 4839TIP3   OH214457   6.225   2.537   5.462  0.1596  0.0256  0.0545
 4839TIP3    H114458   6.185   2.622   5.479 -0.6662 -0.1885 -0.7164
 4839TIP3    H214459   6.184   2.478   5.526 -0.5816 -0.1392 -0.5600
 4840TIP3   OH214460   5.655   3.060   5.078 -0.2608  0.4634  0.0611
 4840TIP3    H114461   5.598   3.051   5.002  1.2618  0.1057 -1.0926
 4840TIP3    H214462   5.744   3.054   5.042  0.5136  0.8734  1.7968
 4841TIP3   OH214463   5.950   7.518   6.540 -0.1654  0.2376 -0.1436
 4841TIP3    H114464   5.878   7.483   6.594 -0.1031  1.7787  1.0244
 4841TIP3    H214465   6.018   7.540   6.604  0.4650  0.8504 -1.0124
 4842TIP3   OH214466   0.290   5.681   3.470 -0.0891 -0.0678 -0.1561
 4842TIP3    H114467   0.231   5.605   3.467  1.2233 -1.1480  0.3376
 4842TIP3    H214468   0.376   5.644   3.488  0.6107  1.5513  0.0237
 4843TIP3   OH214469   5.440   7.363   2.872 -0.4709 -0.3955  0.3109
 4843TIP3    H114470   5.508   7.404   2.818 -1.8816  0.0186 -1.2331
 4843TIP3    H214471   5.391   7.437   2.908 -1.8337 -0.6683 -0.9121
 4844TIP3   OH214472   3.935   4.623   6.083 -0.5587 -0.6883 -0.0015
 4844TIP3    H114473   3.844   4.650   6.078 -0.0655  0.8919 -1.8508
 4844TIP3    H214474   3.948   4.596   6.173 -3.1038 -1.9486  0.0620
 4845TIP3   OH214475   6.642   7.251   3.523  0.6271  0.1573  0.2039
 4845TIP3    H114476   6.599   7.290   3.599 -2.0462 -0.9272 -0.6462
 4845TIP3    H214477   6.697   7.182   3.560 -0.7493 -0.4573  1.1949
 4846TIP3   OH214478   0.692   3.793   3.670  0.2557 -0.2358 -0.1586
 4846TIP3    H114479   0.634   3.865   3.694  1.1461  0.1870  0.7601
 4846TIP3    H214480   0.776   3.835   3.652  0.1477 -0.7624 -2.1133
 4847TIP3   OH214481   2.321   6.612   1.980  0.2114  0.1585  0.2001
 4847TIP3    H114482   2.378   6.576   2.048  0.3254 -0.5891 -0.2851
 4847TIP3    H214483   2.233   6.601   2.014  0.2737 -0.1378  0.2652
 4848TIP3   OH214484   3.330   6.723   6.067 -0.2595 -0.3220  0.3493
 4848TIP3    H114485   3.350   6.801   6.119 -0.1032 -1.2020  1.6586
 4848TIP3    H214486   3.393   6.726   5.995  0.4835  0.1741  1.0040
 4849TIP3   OH214487   8.110   1.509   1.454 -0.5378  0.0935 -0.1777
 4849TIP3    H114488   8.020   1.543   1.454 -0.5755  0.1012 -2.3967
 4849TIP3    H214489   8.160   1.573   1.404  0.5890 -0.2878  0.4111
 4850TIP3   OH214490   4.274   1.530   4.597 -0.2202  0.0888 -0.7050
 4850TIP3    H114491   4.215   1.455   4.598  1.6644 -1.4675 -1.4303
 4850TIP3    H214492   4.275   1.560   4.506  2.2496 -1.7543 -1.3831
 4851TIP3   OH214493   4.666   6.966   3.285  0.1137  0.1506  0.3852
 4851TIP3    H114494   4.753   6.929   3.270 -0.3774 -0.9757  0.1485
 4851TIP3    H214495   4.647   7.017   3.206 -0.4141 -1.6369 -0.7063
 4852TIP3   OH214496   8.144   3.657   4.932  0.0601 -0.0896 -0.1842
 4852TIP3    H114497   8.064   3.681   4.980 -0.6039 -1.1539 -0.7127
 4852TIP3    H214498   8.181   3.585   4.982  0.1641 -0.2299 -0.4618
 4853TIP3   OH214499   4.536   0.938   2.096 -0.3834  0.6255  0.2410
 4853TIP3    H114500   4.562   0.990   2.020  0.9582 -0.6081 -0.1844
 4853TIP3    H214501   4.596   0.864   2.096 -1.5898 -0.3975  1.4220
 4854TIP3   OH214502   7.033   2.766   1.204  0.2917 -0.3374 -0.5130
 4854TIP3    H114503   7.059   2.830   1.270 -1.1938 -1.6713  1.4909
 4854TIP3    H214504   6.937   2.769   1.204  0.1641 -2.6646 -0.1867
 4855TIP3   OH214505   6.482   2.303   4.851  0.3407  0.0712 -0.0263
 4855TIP3    H114506   6.479   2.277   4.943  1.3681 -2.4519 -0.6030
 4855TIP3    H214507   6.574   2.290   4.826  0.4948  2.5318 -0.9783
 4856TIP3   OH214508   0.590   2.530   6.014  0.1838  0.0135  0.1576
 4856TIP3    H114509   0.642   2.497   5.940 -1.6857 -2.8795 -0.0064
 4856TIP3    H214510   0.584   2.455   6.073 -1.0395  1.3116  1.7328
 4857TIP3   OH214511   5.514   6.947   1.095  0.5590 -0.9605 -0.3977
 4857TIP3    H114512   5.491   6.974   1.006 -1.1602  0.7775  0.5052
 4857TIP3    H214513   5.534   7.029   1.141 -0.9589 -1.5343  1.4261
 4858TIP3   OH214514   1.725   5.868   2.607  0.0840 -0.3134  0.4636
 4858TIP3    H114515   1.631   5.871   2.624  0.2005  1.9637  0.9242
 4858TIP3    H214516   1.760   5.812   2.677 -0.7210  0.2656  1.3443
 4859TIP3   OH214517   4.009   5.851   6.755  0.4232 -0.0264 -0.2549
 4859TIP3    H114518   4.063   5.890   6.824 -1.1250 -0.6453  1.3898
 4859TIP3    H214519   4.026   5.757   6.760 -0.1803 -0.1416 -0.2763
 4860TIP3   OH214520   6.137   0.955   0.757 -0.5771 -0.0212 -0.3724
 4860TIP3    H114521   6.134   0.961   0.853 -1.4315  0.6498 -0.4334
 4860TIP3    H214522   6.206   0.891   0.740 -1.6731 -1.5834  0.7404
 4861TIP3   OH214523   1.144   4.018   5.299 -0.3242 -0.0111  0.0702
 4861TIP3    H114524   1.223   4.014   5.352 -0.4486  0.8166  0.3318
 4861TIP3    H214525   1.175   4.031   5.210 -0.1843  1.8531  0.3604
 4862TIP3   OH214526   7.280   3.147   6.770  0.1264 -0.1313 -0.5264
 4862TIP3    H114527   7.244   3.119   6.685 -2.0046  1.4931 -0.2393
 4862TIP3    H214528   7.349   3.209   6.747 -0.6006  0.4868 -1.1113
 4863TIP3   OH214529   0.689   6.495   5.479  0.7776 -0.3571 -0.2071
 4863TIP3    H114530   0.604   6.453   5.492  1.5964 -1.9560  0.2951
 4863TIP3    H214531   0.694   6.511   5.385 -0.1044 -0.1917 -0.2294
 4864TIP3   OH214532   7.049   7.641   2.746  0.2774 -0.3245 -0.1265
 4864TIP3    H114533   7.053   7.723   2.698 -1.1035 -0.6855 -0.8955
 4864TIP3    H214534   6.958   7.614   2.742 -0.0570 -0.1574  3.1373
 4865TIP3   OH214535   6.228   3.039   3.180 -0.0296  0.1138  0.3565
 4865TIP3    H114536   6.265   3.084   3.256  1.4136 -0.2505 -0.0962
 4865TIP3    H214537   6.304   3.018   3.126 -0.4357 -3.9671  1.0639
 4866TIP3   OH214538   2.960   3.996   1.524 -0.2271 -0.4771 -0.0927
 4866TIP3    H114539   2.977   3.957   1.438  1.6517 -2.5484  1.1111
 4866TIP3    H214540   2.968   3.923   1.586  2.5109  1.5286  2.2270
 4867TIP3   OH214541   5.585   0.975   0.993  0.4202 -0.1690 -0.3426
 4867TIP3    H114542   5.644   0.980   0.918  1.1963  0.3594  0.2886
 4867TIP3    H214543   5.615   1.045   1.051 -2.3742  1.8189 -1.0978
 4868TIP3   OH214544   6.047   2.009   4.079  0.2504  0.1168  0.1974
 4868TIP3    H114545   6.122   2.044   4.126  0.0818 -0.3347  0.8096
 4868TIP3    H214546   5.983   1.990   4.146 -0.6108  0.9513 -0.3651
 4869TIP3   OH214547   2.016   6.574   0.688 -0.1252  0.0519 -0.4392
 4869TIP3    H114548   2.100   6.590   0.730  0.2581  1.9121 -1.7562
 4869TIP3    H214549   2.015   6.480   0.670  2.2739  0.1689 -1.5633
 4870TIP3   OH214550   0.186   3.540   4.196 -0.5010  0.0752  0.7693
 4870TIP3    H114551   0.198   3.543   4.291 -1.4301  1.1070  0.8792
 4870TIP3    H214552   0.272   3.560   4.160 -0.3352  0.5383  1.4087
 4871TIP3   OH214553   4.179   1.854   2.514  0.2961  0.1031  0.1217
 4871TIP3    H114554   4.137   1.803   2.444 -0.2935  2.1039 -1.0659
 4871TIP3    H214555   4.214   1.788   2.573 -1.9141 -1.6900 -0.4086
 4872TIP3   OH214556   6.700   3.815   6.600 -0.3250 -0.5843  0.3173
 4872TIP3    H114557   6.727   3.863   6.522  1.4547  0.1688  1.3350
 4872TIP3    H214558   6.672   3.882   6.662 -0.7822 -1.0972  0.6791
 4873TIP3   OH214559   0.912   4.409   1.568 -0.1286 -0.7390 -0.0089
 4873TIP3    H114560   0.994   4.440   1.530  0.5371 -2.1914  0.1532
 4873TIP3    H214561   0.868   4.487   1.601  0.8499  0.1413 -0.7644
 4874TIP3   OH214562   3.761   4.796   5.840  0.2459  0.3691  0.0053
 4874TIP3    H114563   3.849   4.829   5.855  0.3167 -0.4922  1.7641
 4874TIP3    H214564   3.736   4.755   5.923 -1.6155  0.1394 -0.6125
 4875TIP3   OH214565   7.581   5.303   5.879  0.1636  0.6506 -0.3201
 4875TIP3    H114566   7.656   5.335   5.929 -0.4391  2.3366 -0.4025
 4875TIP3    H214567   7.617   5.275   5.795  1.2076 -2.3480  1.0195
 4876TIP3   OH214568   7.888   4.760   1.549  0.1111  0.1698 -0.1498
 4876TIP3    H114569   7.974   4.765   1.591  0.2923  0.6790 -0.5720
 4876TIP3    H214570   7.866   4.850   1.528 -1.2366  0.2111  1.3274
 4877TIP3   OH214571   5.631   0.613   5.938 -0.1947 -0.6422  0.0595
 4877TIP3    H114572   5.556   0.594   5.882 -1.6914  1.4007  1.2801
 4877TIP3    H214573   5.680   0.680   5.890 -1.6910  1.4048  1.2272
 4878TIP3   OH214574   1.718   6.546   2.488  0.1157  0.1315 -0.6021
 4878TIP3    H114575   1.643   6.507   2.444 -1.6692  1.4728  1.0667
 4878TIP3    H214576   1.689   6.558   2.579  2.2493  1.0044  0.0351
 4879TIP3   OH214577   3.846   6.984   5.278 -0.5296 -0.2055 -0.2524
 4879TIP3    H114578   3.800   6.900   5.283 -0.4284 -0.2745 -0.4590
 4879TIP3    H214579   3.866   6.995   5.185  1.0730 -0.8284 -0.0145
 4880TIP3   OH214580   7.397   5.956   0.780  0.3609 -0.3563  0.1920
 4880TIP3    H114581   7.359   5.876   0.817  0.4655 -0.8207 -0.6695
 4880TIP3    H214582   7.485   5.930   0.753  0.6931  0.2757  0.6728
 4881TIP3   OH214583   0.087   6.381   6.354 -0.3719  0.4697  0.0935
 4881TIP3    H114584   0.079   6.326   6.432  1.3224 -0.4988 -0.3657
 4881TIP3    H214585   0.026   6.453   6.369 -1.7815 -0.8783  1.2772
 4882TIP3   OH214586   7.918   6.659   0.229 -0.0481 -0.0529  0.3475
 4882TIP3    H114587   7.975   6.595   0.270  0.5860  0.1209 -0.2469
 4882TIP3    H214588   7.903   6.725   0.297  0.6445  0.0142  0.4401
 4883TIP3   OH214589   2.979   4.950   0.063  0.7297  0.1328 -0.3965
 4883TIP3    H114590   2.887   4.967   0.043  0.3516  0.1669  1.2219
 4883TIP3    H214591   3.010   4.896  -0.010 -0.7537 -0.4438 -0.6386
 4884TIP3   OH214592   4.855   0.445   2.327 -0.1253 -0.0972  0.2603
 4884TIP3    H114593   4.792   0.400   2.270 -1.2346 -1.4123  2.3725
 4884TIP3    H214594   4.889   0.516   2.273 -3.2338  0.5401 -1.1254
 4885TIP3   OH214595   2.538   6.904   3.645  0.1950 -0.3592 -0.3457
 4885TIP3    H114596   2.540   6.858   3.560  1.5575 -1.6398  0.3290
 4885TIP3    H214597   2.459   6.958   3.641  0.1786 -0.4511 -2.3940
 4886TIP3   OH214598   2.417   7.481   5.284  0.9001 -0.5580  0.0869
 4886TIP3    H114599   2.508   7.504   5.304  0.5444  0.7770  0.2364
 4886TIP3    H214600   2.424   7.415   5.215  1.9790 -0.6060  0.2143
 4887TIP3   OH214601   4.324   3.026   1.748  0.4736  0.1675 -0.0768
 4887TIP3    H114602   4.282   3.094   1.695 -2.9517 -0.6783  1.3187
 4887TIP3    H214603   4.305   3.050   1.838 -1.5303 -2.9028  0.4492
 4888TIP3   OH214604   3.919   0.092   4.046  0.3746 -0.2736 -0.7473
 4888TIP3    H114605   3.910   0.060   4.136  3.9899  0.5248  0.0460
 4888TIP3    H214606   3.979   0.166   4.053 -0.6758  1.0025 -3.6602
 4889TIP3   OH214607   2.968   1.507   0.380 -0.2362  0.2161 -0.4931
 4889TIP3    H114608   2.908   1.527   0.452 -1.4561  1.4504 -1.7806
 4889TIP3    H214609   2.946   1.417   0.355 -1.5209  0.6235 -0.8959
 4890TIP3   OH214610   0.950   3.877   2.696 -0.1505  0.3692  0.1337
 4890TIP3    H114611   1.018   3.902   2.759 -1.0784  0.0172  1.2939
 4890TIP3    H214612   0.883   3.945   2.703 -0.6843 -0.1557  0.1869
 4891TIP3   OH214613   5.464   7.487   6.821 -0.0771  0.0169 -0.2015
 4891TIP3    H114614   5.478   7.503   6.914 -1.3268  1.5775 -0.2381
 4891TIP3    H214615   5.392   7.425   6.817 -1.0659  1.1415 -0.1248
 4892TIP3   OH214616   0.922   7.031   6.518  0.1169  0.1561 -0.3203
 4892TIP3    H114617   0.963   7.028   6.432  0.9894  0.4720  0.0722
 4892TIP3    H214618   0.864   7.107   6.514 -0.1068 -0.0340 -0.7379
 4893TIP3   OH214619   3.636   7.686   3.711 -0.3327 -0.0898 -0.2883
 4893TIP3    H114620   3.710   7.721   3.663 -0.6084  0.2152 -0.4984
 4893TIP3    H214621   3.652   7.592   3.715  0.3273  0.0391  0.1338
 4894TIP3   OH214622   5.820   0.205   2.248 -0.0832  0.1972  0.0928
 4894TIP3    H114623   5.883   0.174   2.313 -0.2134 -1.7912 -0.6464
 4894TIP3    H214624   5.870   0.261   2.190  1.5886 -2.7551 -1.5576
 4895TIP3   OH214625   5.833   6.957   0.708 -0.2574  0.5553  0.5025
 4895TIP3    H114626   5.925   6.969   0.731 -0.2882  0.0021  0.9372
 4895TIP3    H214627   5.815   7.025   0.643  0.1956  1.2737  1.1138
 4896TIP3   OH214628   0.529   3.950   6.264 -0.3713 -0.0926  0.4679
 4896TIP3    H114629   0.545   3.893   6.188 -1.1669  0.2310  0.0428
 4896TIP3    H214630   0.611   3.949   6.312 -0.4403 -1.8014  0.6107
 4897TIP3   OH214631   7.720   1.528   5.368 -0.4221 -0.2699  0.2900
 4897TIP3    H114632   7.688   1.586   5.299  1.6773  0.4614 -0.1582
 4897TIP3    H214633   7.743   1.586   5.440 -0.7256 -0.8230  0.8393
 4898TIP3   OH214634   5.247   1.380   2.542 -0.4935  0.8316  0.1672
 4898TIP3    H114635   5.237   1.304   2.598  1.7591  0.6141  0.3566
 4898TIP3    H214636   5.263   1.344   2.455  0.6149  1.0383  0.2642
 4899TIP3   OH214637   6.051   4.107   1.371  0.0708 -0.0573  0.0107
 4899TIP3    H114638   6.061   4.198   1.344  1.7910 -0.5742 -1.3076
 4899TIP3    H214639   6.126   4.090   1.428 -1.0478 -0.2707  1.4747
 4900TIP3   OH214640   0.335   3.781   0.376  0.0479  0.0144  0.0438
 4900TIP3    H114641   0.393   3.850   0.409  0.0734  0.3662 -0.7109
 4900TIP3    H214642   0.248   3.820   0.377  0.2666  0.6524 -1.8892
 4901TIP3   OH214643   6.583   0.078   4.703 -0.0162  0.0846  0.1313
 4901TIP3    H114644   6.627   0.048   4.783 -1.5841 -1.4670  0.4731
 4901TIP3    H214645   6.628   0.031   4.633  0.5340  0.4750  0.2175
 4902TIP3   OH214646   7.027   6.453   5.119  0.3685 -0.4983 -0.5505
 4902TIP3    H114647   7.039   6.408   5.203 -1.5529 -0.3094 -0.1196
 4902TIP3    H214648   6.943   6.498   5.128  1.7611  2.5180 -1.2730
 4903TIP3   OH214649   1.765   5.690   4.391  0.5040 -0.4505 -0.1099
 4903TIP3    H114650   1.796   5.780   4.396  1.5894 -0.8638  1.6312
 4903TIP3    H214651   1.676   5.692   4.427  0.7460 -0.1598  0.4767
 4904TIP3   OH214652   0.126   5.153   0.499 -0.0533 -0.1293  0.0424
 4904TIP3    H114653   0.044   5.174   0.544  0.1314  2.3167 -0.6178
 4904TIP3    H214654   0.100   5.096   0.427 -0.6865 -1.9793  1.6513
 4905TIP3   OH214655   2.920   2.673   5.193 -0.6519  0.2788  0.4447
 4905TIP3    H114656   2.874   2.741   5.241  0.2383  0.9792  0.3376
 4905TIP3    H214657   2.852   2.627   5.144 -1.4211  0.2992  1.4607
 4906TIP3   OH214658   0.725   7.000   2.847 -0.1010  0.3712  0.1375
 4906TIP3    H114659   0.683   7.001   2.761  0.4888 -0.0218 -0.1606
 4906TIP3    H214660   0.652   7.010   2.909 -0.5037  0.8708 -0.4075
 4907TIP3   OH214661   4.450   7.599   0.451 -0.0236  0.2268  0.1956
 4907TIP3    H114662   4.455   7.538   0.525  1.6184 -0.6760 -0.6049
 4907TIP3    H214663   4.541   7.611   0.424 -0.6130  0.2273 -1.9309
 4908TIP3   OH214664   5.184   5.722   1.223  0.0030  0.1504  0.0899
 4908TIP3    H114665   5.158   5.633   1.249  1.4043 -1.4290 -3.3772
 4908TIP3    H214666   5.100   5.767   1.210 -0.8080 -1.3927 -0.3393
 4909TIP3   OH214667   0.031   6.558   3.752 -0.0109 -0.1288  0.3831
 4909TIP3    H114668   0.106   6.568   3.693  0.5831  4.3226  1.5438
 4909TIP3    H214669  -0.044   6.580   3.698  0.1300  0.5043  0.4403
 4910TIP3   OH214670   0.875   1.040   6.303  0.2446  0.3930 -0.1074
 4910TIP3    H114671   0.920   1.065   6.383 -0.9730  0.8378  0.4484
 4910TIP3    H214672   0.884   1.116   6.246  0.1121  0.5138  0.0340
 4911TIP3   OH214673   0.459   7.151   2.165  0.0645  0.5114  0.0762
 4911TIP3    H114674   0.465   7.218   2.097 -3.4760  0.8864 -0.0712
 4911TIP3    H214675   0.383   7.097   2.138 -1.4820  0.6713  3.6280
 4912TIP3   OH214676   5.856   2.229   1.327  0.1025 -0.1295 -0.6991
 4912TIP3    H114677   5.873   2.153   1.382 -2.5402  0.1162  0.6085
 4912TIP3    H214678   5.826   2.192   1.244  0.3045 -0.4977 -0.6098
 4913TIP3   OH214679   2.434   5.036   1.604  0.6063 -0.1590  0.0586
 4913TIP3    H114680   2.424   4.943   1.584  2.8831 -0.2444 -1.0875
 4913TIP3    H214681   2.351   5.075   1.580 -0.4001 -1.8729  0.5554
 4914TIP3   OH214682   5.586   7.918   3.619 -0.3394 -0.2929 -0.0538
 4914TIP3    H114683   5.669   7.966   3.625  0.0878 -0.8230 -1.3294
 4914TIP3    H214684   5.602   7.851   3.553 -1.4799 -1.0633  0.4223
 4915TIP3   OH214685   4.581   4.718   0.658  0.1409 -0.7322 -0.0666
 4915TIP3    H114686   4.632   4.696   0.736  0.5766 -1.1266 -0.4569
 4915TIP3    H214687   4.503   4.663   0.664  0.1351 -0.7041  0.1278
 4916TIP3   OH214688   4.775   1.899   2.475 -0.7685 -0.0438  0.3922
 4916TIP3    H114689   4.844   1.958   2.505  0.7192 -1.3852 -0.2363
 4916TIP3    H214690   4.700   1.920   2.530  0.6278  0.3274  2.2737
 4917TIP3   OH214691   8.222   6.545   0.697  0.4574  0.5512  0.3283
 4917TIP3    H114692   8.296   6.580   0.746  1.0989  1.5786 -1.3215
 4917TIP3    H214693   8.254   6.461   0.662  1.4270  1.6685 -1.6179
 4918TIP3   OH214694   7.160   5.290   2.256  0.1773 -0.7617 -0.3203
 4918TIP3    H114695   7.239   5.342   2.271  0.8099 -1.5596 -0.7483
 4918TIP3    H214696   7.096   5.352   2.222  1.6237 -0.6133 -3.0563
 4919TIP3   OH214697   4.180   2.994   4.004 -0.6178  0.2223 -0.2932
 4919TIP3    H114698   4.124   3.067   4.029 -0.0797  0.2671  0.8827
 4919TIP3    H214699   4.120   2.922   3.987 -1.0564  0.0223  1.7955
 4920TIP3   OH214700   8.299   6.813   2.530 -0.2413  0.1684 -0.4095
 4920TIP3    H114701   8.257   6.893   2.564 -0.3951 -0.1610  0.1975
 4920TIP3    H214702   8.228   6.750   2.522 -0.2027  0.2406 -1.3726
 4921TIP3   OH214703   1.336   6.483   1.428  0.4508 -0.0040  0.3344
 4921TIP3    H114704   1.275   6.554   1.406  0.9801 -0.0657 -1.5624
 4921TIP3    H214705   1.421   6.514   1.397  0.8104 -1.1652  0.1054
 4922TIP3   OH214706   5.044   7.006   0.511  0.1677 -0.3701  0.1919
 4922TIP3    H114707   4.974   6.944   0.491  1.5335 -1.3809 -1.8821
 4922TIP3    H214708   5.030   7.079   0.450  1.9052 -1.4700 -1.6669
 4923TIP3   OH214709   3.895   4.908   1.962  0.5086 -0.3796  0.2300
 4923TIP3    H114710   3.817   4.866   1.926  1.4340 -0.6276 -1.5690
 4923TIP3    H214711   3.878   5.002   1.955 -0.5009 -0.3990  1.8923
 4924TIP3   OH214712   3.240   4.881   6.005 -0.4460  0.1626 -0.2817
 4924TIP3    H114713   3.295   4.872   5.927  0.8966  1.1507  0.4970
 4924TIP3    H214714   3.152   4.892   5.972  0.1559  0.9740 -1.6855
 4925TIP3   OH214715   8.045   4.464   6.617 -0.0054  0.2155 -0.6531
 4925TIP3    H114716   8.132   4.504   6.622  0.0893 -0.1504  1.8647
 4925TIP3    H214717   7.984   4.538   6.625  0.1585  0.1550  1.8568
 4926TIP3   OH214718   7.812   1.792   0.991  0.1313 -0.3023  0.0677
 4926TIP3    H114719   7.900   1.828   1.002  0.3487 -0.7132 -0.2606
 4926TIP3    H214720   7.809   1.717   1.050  0.8213 -1.6761 -1.5411
 4927TIP3   OH214721   6.830   2.099   6.693 -0.3311  0.7010 -0.3997
 4927TIP3    H114722   6.925   2.109   6.684 -0.2133 -0.3386 -0.4503
 4927TIP3    H214723   6.796   2.188   6.696  0.8078  1.1205  1.3959
 4928TIP3   OH214724   7.340   2.133   5.288 -0.1974  0.2909 -0.1878
 4928TIP3    H114725   7.411   2.069   5.298 -0.3102  0.2815  0.5674
 4928TIP3    H214726   7.362   2.179   5.207  0.0698 -0.4703 -0.5672
 4929TIP3   OH214727   2.409   6.260   5.888  0.0177 -0.0714 -0.7269
 4929TIP3    H114728   2.484   6.219   5.847  0.2904  0.6675 -0.9762
 4929TIP3    H214729   2.365   6.188   5.935  2.7465  0.0328  2.2847
 4930TIP3   OH214730   8.293   0.725   2.145  0.1416  0.0669 -0.4188
 4930TIP3    H114731   8.344   0.683   2.214 -0.1221 -0.6334 -0.6394
 4930TIP3    H214732   8.333   0.811   2.135  1.2785 -0.4673 -0.5932
 4931TIP3   OH214733   6.959   2.497   3.776 -0.1689 -0.5819 -0.2974
 4931TIP3    H114734   6.903   2.572   3.757  2.0196  1.3289  0.2236
 4931TIP3    H214735   6.927   2.464   3.860  0.0083  1.0987  0.4886
 4932TIP3   OH214736   7.136   1.175   4.897  0.2695  1.0832  0.3762
 4932TIP3    H114737   7.043   1.197   4.887  0.2917  0.8717 -0.4124
 4932TIP3    H214738   7.154   1.189   4.990 -0.3363  1.9475  0.3818
 4933TIP3   OH214739   0.275   6.925   4.231 -0.5485  0.5196 -0.5027
 4933TIP3    H114740   0.261   6.995   4.167 -0.9524 -0.2814 -1.3182
 4933TIP3    H214741   0.359   6.947   4.272 -0.8430  1.6718 -0.4715
 4934TIP3   OH214742   5.048   3.821   3.458 -0.1935 -0.5113  0.2621
 4934TIP3    H114743   4.975   3.775   3.417  0.0861 -0.2568 -0.5391
 4934TIP3    H214744   5.007   3.896   3.502 -0.4122 -0.3110 -0.2731
 4935TIP3   OH214745   4.728   3.553   6.344 -0.2828 -0.1348  0.2548
 4935TIP3    H114746   4.715   3.493   6.418 -0.3041 -1.5806 -0.8767
 4935TIP3    H214747   4.806   3.604   6.368 -0.6420 -0.1344  1.5257
 4936TIP3   OH214748   0.369   0.433   5.600 -0.3662 -0.6456  0.0534
 4936TIP3    H114749   0.348   0.478   5.518 -1.3882 -1.9868 -0.4686
 4936TIP3    H214750   0.463   0.446   5.611  0.1263 -1.6922 -2.1893
 4937TIP3   OH214751   2.553   4.033   5.054 -0.5732 -0.6723  0.4396
 4937TIP3    H114752   2.481   3.976   5.084 -0.3054 -0.4716  1.4960
 4937TIP3    H214753   2.551   4.108   5.113  0.0016 -0.2736 -0.0339
 4938TIP3   OH214754   7.400   5.944   2.888 -0.1108  0.5566  0.6239
 4938TIP3    H114755   7.349   5.947   2.969 -2.2471  0.5932 -0.6481
 4938TIP3    H214756   7.343   5.898   2.826  1.6297  0.1841 -0.7657
 4939TIP3   OH214757   6.059   7.347   2.092 -0.1600 -0.0284 -0.2350
 4939TIP3    H114758   6.010   7.273   2.127 -0.5032  0.0872 -0.4702
 4939TIP3    H214759   6.151   7.318   2.093 -0.0451  0.2720  1.5315
 4940TIP3   OH214760   1.096   3.922   2.301 -0.2250  0.3679 -0.0030
 4940TIP3    H114761   1.126   3.837   2.333  1.3678  1.4827  1.6993
 4940TIP3    H214762   1.006   3.930   2.334  0.5636  0.4589  2.3399
 4941TIP3   OH214763   7.604   7.339   2.701 -0.0173 -0.0127 -0.7067
 4941TIP3    H114764   7.577   7.341   2.609  0.9673  1.4240 -0.9883
 4941TIP3    H214765   7.550   7.406   2.743  1.0497  0.8544 -0.6939
 4942TIP3   OH214766   1.543   3.454   3.231 -0.0714  0.0514  0.4816
 4942TIP3    H114767   1.553   3.444   3.136 -0.9682  1.4803  0.1893
 4942TIP3    H214768   1.546   3.365   3.265 -0.5115 -0.5640 -0.9826
 4943TIP3   OH214769   6.942   5.077   3.145  0.4921  0.0054  0.2295
 4943TIP3    H114770   6.942   4.994   3.192  1.1937 -0.2628 -0.2261
 4943TIP3    H214771   6.945   5.144   3.213  0.0144 -0.3439  0.5967
 4944TIP3   OH214772   7.030   7.829   2.543 -0.4044  0.2117  0.2120
 4944TIP3    H114773   7.105   7.851   2.487  0.1483  0.5053  1.0601
 4944TIP3    H214774   6.967   7.900   2.526 -0.1302  0.4451  0.1549
 4945TIP3   OH214775   5.718   5.458   2.651 -0.2145 -0.3540  0.7382
 4945TIP3    H114776   5.668   5.539   2.640 -0.3464 -0.4675  0.4894
 4945TIP3    H214777   5.653   5.391   2.672  0.0884 -0.0275  2.9490
 4946TIP3   OH214778   3.969   6.348   4.918 -0.1456  0.3571  0.3418
 4946TIP3    H114779   3.963   6.284   4.989  0.2517 -0.8879 -0.7033
 4946TIP3    H214780   3.993   6.296   4.841  0.2391  1.7793 -0.5378
 4947TIP3   OH214781   0.806   6.485   5.742  0.2236  0.7751 -0.2688
 4947TIP3    H114782   0.761   6.488   5.658 -2.7194  1.1334  1.1856
 4947TIP3    H214783   0.773   6.562   5.789  1.7471  0.5520  1.2589
 4948TIP3   OH214784   6.392   1.730   0.679 -0.0064  0.0030 -0.1140
 4948TIP3    H114785   6.429   1.754   0.764  0.0402 -1.3179  0.2593
 4948TIP3    H214786   6.461   1.680   0.636  0.4790  1.7589 -1.5151
 4949TIP3   OH214787   5.389   3.392   6.620 -0.4268  0.1783 -0.0021
 4949TIP3    H114788   5.312   3.340   6.598 -1.2878  1.1819  0.5527
 4949TIP3    H214789   5.391   3.462   6.556 -0.6282  0.7906  0.6428
 4950TIP3   OH214790   2.006   7.417   1.415 -0.4348  0.1481 -0.3864
 4950TIP3    H114791   1.922   7.445   1.377 -1.1434 -0.2997  0.7950
 4950TIP3    H214792   2.054   7.381   1.341 -2.7036 -2.8900 -0.5809
 4951TIP3   OH214793   6.960   2.505   4.381 -0.1353 -0.6838  0.3567
 4951TIP3    H114794   7.000   2.454   4.451 -0.6995 -0.1858  1.0624
 4951TIP3    H214795   6.945   2.442   4.311  4.2150 -0.4957 -1.0519
 4952TIP3   OH214796   0.130   6.246   3.657 -0.0584 -0.3716 -0.2444
 4952TIP3    H114797   0.130   6.336   3.689 -0.1109 -0.1950 -0.7200
 4952TIP3    H214798   0.161   6.253   3.567 -1.1651 -0.6760 -0.6694
 4953TIP3   OH214799   4.057   5.581   1.849  0.2618  0.2498  0.1001
 4953TIP3    H114800   3.966   5.605   1.868 -0.2490 -0.1712 -1.6441
 4953TIP3    H214801   4.056   5.554   1.758  2.0943 -0.0981  0.1477
 4954TIP3   OH214802   5.386   3.815   2.958  0.1445 -0.6163  0.3674
 4954TIP3    H114803   5.337   3.865   3.023  1.0905  2.5958 -1.1701
 4954TIP3    H214804   5.319   3.766   2.910 -1.0504  0.3215  1.0384
 4955TIP3   OH214805   7.271   1.924   0.388  0.3454 -0.0166  0.2287
 4955TIP3    H114806   7.306   2.000   0.343  0.5368 -0.1648  0.1272
 4955TIP3    H214807   7.233   1.959   0.468  0.3444  0.1982  0.1335
 4956TIP3   OH214808   3.018   5.484   2.527 -0.6366  0.0800 -0.2833
 4956TIP3    H114809   2.933   5.495   2.570 -0.0107  2.2043  0.5611
 4956TIP3    H214810   3.082   5.510   2.593  0.7844 -2.4460 -0.5681
 4957TIP3   OH214811   6.595   4.963   6.765 -0.1566 -0.1109 -0.4006
 4957TIP3    H114812   6.526   4.945   6.829  0.7786 -0.0868  0.6496
 4957TIP3    H214813   6.579   5.054   6.738  0.7347  0.6723  1.5131
 4958TIP3   OH214814   1.125   5.298   1.335 -0.5089  0.1345  0.3030
 4958TIP3    H114815   1.146   5.208   1.359 -0.6145  0.4552  1.6580
 4958TIP3    H214816   1.030   5.297   1.321 -0.4039 -0.1198 -0.4493
 4959TIP3   OH214817   5.065   0.565   4.623 -0.5485  0.0103  0.1322
 4959TIP3    H114818   5.160   0.557   4.632 -0.5504  0.8669  1.0587
 4959TIP3    H214819   5.029   0.518   4.698 -0.8654 -0.4630 -0.3130
 4960TIP3   OH214820   5.043   7.136   2.813 -0.1781 -0.1468  0.4701
 4960TIP3    H114821   4.982   7.190   2.863 -1.4562  0.3538 -1.5019
 4960TIP3    H214822   5.063   7.188   2.735  0.9701 -1.2659 -0.0123
 4961TIP3   OH214823   0.950   3.331   3.408  0.0948  0.3618 -0.5531
 4961TIP3    H114824   0.931   3.287   3.326  1.4489 -3.2761  0.9022
 4961TIP3    H214825   0.870   3.318   3.461  0.4826 -0.3529 -0.1323
 4962TIP3   OH214826   0.495   6.570   3.464  0.2504  0.7803 -0.0221
 4962TIP3    H114827   0.580   6.610   3.483 -0.0369  0.8318  1.2343
 4962TIP3    H214828   0.483   6.506   3.534  0.6517 -1.5019 -1.8830
 4963TIP3   OH214829   0.552   0.377   1.681 -0.5071 -0.2428 -0.7188
 4963TIP3    H114830   0.515   0.305   1.733  1.8873 -1.4934 -0.6045
 4963TIP3    H214831   0.578   0.336   1.599  0.6121  0.5610 -0.7813
 4964TIP3   OH214832   1.384   0.770   0.743 -0.2143 -0.0802  0.0066
 4964TIP3    H114833   1.400   0.842   0.803 -0.5984  0.0404 -0.0322
 4964TIP3    H214834   1.360   0.812   0.660  0.0613 -0.2468 -0.1632
 4965TIP3   OH214835   5.524   3.639   0.734  0.3149 -0.0605  0.1447
 4965TIP3    H114836   5.495   3.730   0.732 -0.7467 -0.2656  2.3574
 4965TIP3    H214837   5.449   3.589   0.701  0.6086 -0.1882 -0.3350
 4966TIP3   OH214838   4.216   5.087   6.406 -0.1247 -0.5314 -0.4808
 4966TIP3    H114839   4.196   5.163   6.461 -0.3417 -0.1387 -1.0750
 4966TIP3    H214840   4.220   5.013   6.466 -1.0507 -0.2318 -0.0330
 4967TIP3   OH214841   3.921   2.929   6.322  0.2096  0.4682  0.2979
 4967TIP3    H114842   3.928   3.021   6.298  0.5900  0.2371 -0.5282
 4967TIP3    H214843   3.899   2.930   6.415  2.2242  1.3979  0.8334
 4968TIP3   OH214844   4.454   6.142   0.400 -0.1182  0.0956  0.7406
 4968TIP3    H114845   4.406   6.217   0.435 -0.1036 -0.3027  1.6595
 4968TIP3    H214846   4.397   6.106   0.332 -0.5467  0.3837  0.9422
 4969TIP3   OH214847   7.081   4.855   1.721  0.0847  0.1955 -0.0410
 4969TIP3    H114848   7.056   4.766   1.747  1.2061 -0.1493 -0.0824
 4969TIP3    H214849   7.084   4.903   1.804 -0.8302  0.2913 -0.0495
 4970TIP3   OH214850   7.950   2.392   1.187 -0.0517 -0.3380  0.0867
 4970TIP3    H114851   7.930   2.460   1.252  0.8409 -2.7194  3.0906
 4970TIP3    H214852   7.885   2.324   1.203 -0.4718 -0.5818 -2.3486
 4971TIP3   OH214853   2.840   6.653   1.321  0.5126 -0.2575  0.0343
 4971TIP3    H114854   2.840   6.735   1.371  1.2621 -0.0564 -0.2696
 4971TIP3    H214855   2.872   6.587   1.383 -2.4116 -0.8627  1.0455
 4972TIP3   OH214856   6.569   1.155   5.184  0.1363  0.2300  0.3754
 4972TIP3    H114857   6.488   1.170   5.232 -1.5027 -0.3238 -2.0114
 4972TIP3    H214858   6.590   1.239   5.144 -0.1526  0.0299 -0.2207
 4973TIP3   OH214859   1.792   0.898   3.094 -0.6262  0.2945 -0.0296
 4973TIP3    H114860   1.760   0.932   3.178  0.3148  1.7204 -0.2059
 4973TIP3    H214861   1.846   0.969   3.059 -1.0921 -0.2229 -1.9075
 4974TIP3   OH214862   3.061   5.315   6.742  0.1222  0.2544 -0.0673
 4974TIP3    H114863   3.150   5.288   6.720 -0.1906 -1.7333  0.9083
 4974TIP3    H214864   3.044   5.276   6.827 -2.6391 -1.8889 -1.4272
 4975TIP3   OH214865   6.279   4.279   2.395  0.5025  0.2726 -0.1177
 4975TIP3    H114866   6.293   4.357   2.341  1.9239  0.0194 -0.1525
 4975TIP3    H214867   6.250   4.314   2.480  0.3535  0.7886 -0.3731
 4976TIP3   OH214868   2.736   1.676   0.151  0.1148  0.8243  0.3093
 4976TIP3    H114869   2.801   1.638   0.092  0.2167  1.1214  0.2263
 4976TIP3    H214870   2.757   1.770   0.153  0.5773  0.7175  1.3915
 4977TIP3   OH214871   3.256   3.570   6.668  0.4437  0.4977  0.1881
 4977TIP3    H114872   3.345   3.599   6.646  0.7968 -0.8603 -0.2634
 4977TIP3    H214873   3.269   3.491   6.721 -0.5001  0.2186  0.0186
 4978TIP3   OH214874   6.147   5.881   2.640 -0.0489 -0.2389  0.6248
 4978TIP3    H114875   6.219   5.941   2.657 -0.9977  1.1751 -0.2244
 4978TIP3    H214876   6.073   5.937   2.617 -0.4979 -1.7516 -1.9731
 4979TIP3   OH214877   0.778   5.607   4.288  0.4499 -0.3239 -0.4700
 4979TIP3    H114878   0.731   5.634   4.209 -0.1047 -0.3448 -0.1531
 4979TIP3    H214879   0.740   5.661   4.357 -0.4119 -1.6329  0.1136
 4980TIP3   OH214880   4.767   2.017   3.017  0.4780 -0.7113 -0.5240
 4980TIP3    H114881   4.750   1.947   2.955 -0.0870 -1.3276  0.3060
 4980TIP3    H214882   4.727   2.095   2.978  1.1335 -0.8219 -1.4616
 4981TIP3   OH214883   8.078   1.353   0.932 -0.0607  0.3011  0.1308
 4981TIP3    H114884   8.081   1.390   1.021  0.7299  1.0791 -0.1984
 4981TIP3    H214885   8.062   1.260   0.945 -1.6383  0.6612  1.0196
 4982TIP3   OH214886   8.117   5.591   3.374  0.1541  0.1025 -0.5150
 4982TIP3    H114887   8.037   5.556   3.334  0.4256  0.9760 -1.9219
 4982TIP3    H214888   8.087   5.634   3.454 -0.4029 -1.7954  0.3573
 4983TIP3   OH214889   0.138   0.579   2.044 -0.8266 -0.3388  0.4050
 4983TIP3    H114890   0.113   0.650   1.985  1.6548  0.0785 -0.2434
 4983TIP3    H214891   0.175   0.623   2.121 -0.8249 -0.9241  0.7491
 4984TIP3   OH214892   0.601   3.727   0.825 -0.4477  0.1435 -0.1466
 4984TIP3    H114893   0.577   3.732   0.918 -0.7022 -0.0695 -0.2008
 4984TIP3    H214894   0.690   3.694   0.825 -0.9435 -1.2420 -0.0297
 4985TIP3   OH214895   1.544   6.668   5.361  0.5305 -0.8552 -0.2185
 4985TIP3    H114896   1.484   6.739   5.339  0.6048 -1.2577 -1.8340
 4985TIP3    H214897   1.533   6.656   5.455  1.2704  1.9628  0.3195
 4986TIP3   OH214898   2.259   0.591   4.388  0.0233 -0.1432  0.3765
 4986TIP3    H114899   2.313   0.668   4.404  0.7046 -0.4332 -0.4699
 4986TIP3    H214900   2.170   0.625   4.381  0.5103  0.8345 -1.7665
 4987TIP3   OH214901   5.703   3.426   6.536 -0.4446  0.4539  0.4941
 4987TIP3    H114902   5.730   3.414   6.445  0.4660  3.3790  0.2735
 4987TIP3    H214903   5.741   3.351   6.582 -1.1149 -1.2207 -1.5097
 4988TIP3   OH214904   2.744   1.823   5.338  0.1160 -0.3993  0.1350
 4988TIP3    H114905   2.763   1.792   5.427  2.3816  1.7050  0.5085
 4988TIP3    H214906   2.815   1.789   5.285 -0.6130 -0.6972 -0.6723
 4989TIP3   OH214907   5.292   1.020   3.690  0.1912  0.1321 -0.2758
 4989TIP3    H114908   5.295   0.927   3.668  2.3397 -0.6877  2.8843
 4989TIP3    H214909   5.380   1.052   3.671  0.1462  0.9382  0.8058
 4990TIP3   OH214910   4.631   0.016   1.252 -0.3085 -0.4484  0.4269
 4990TIP3    H114911   4.544   0.050   1.273 -0.1405  1.9416 -2.2260
 4990TIP3    H214912   4.692   0.079   1.290  0.1487 -0.2825 -0.5440
 4991TIP3   OH214913   5.432   4.130   3.206  0.1719 -0.3435  0.1750
 4991TIP3    H114914   5.464   4.039   3.202 -1.2932 -0.9305  0.9332
 4991TIP3    H214915   5.352   4.125   3.260 -0.2566  1.3059 -0.2484
 4992TIP3   OH214916   3.415   7.265   0.112  0.3518 -0.7541  0.4975
 4992TIP3    H114917   3.364   7.347   0.108  1.9692  0.4091  2.2084
 4992TIP3    H214918   3.353   7.201   0.145 -1.0179 -0.3274 -1.0725
 4993TIP3   OH214919   3.379   0.374   4.368  0.1020  0.0089  0.2942
 4993TIP3    H114920   3.387   0.463   4.401  1.4975 -0.0237  0.1111
 4993TIP3    H214921   3.387   0.318   4.445 -1.8169  0.0313  0.5582
 4994TIP3   OH214922   7.819   7.382   4.889 -0.3006 -0.7764  0.1145
 4994TIP3    H114923   7.876   7.349   4.820  0.0998 -0.8121  0.4588
 4994TIP3    H214924   7.854   7.343   4.969 -0.0906  0.1343  0.4722
 4995TIP3   OH214925   5.500   4.312   1.924  0.3084  0.2732  0.5241
 4995TIP3    H114926   5.531   4.398   1.896 -0.4220  0.6090  0.7203
 4995TIP3    H214927   5.490   4.262   1.843 -0.8553  0.9187  0.2474
 4996TIP3   OH214928   6.072   4.564   4.088 -0.3554 -0.1560  0.0746
 4996TIP3    H114929   6.055   4.550   4.181 -1.6490 -0.9178 -0.2474
 4996TIP3    H214930   6.145   4.626   4.086 -1.1004  0.8446  1.5895
 4997TIP3   OH214931   6.742   3.737   5.568  0.5263 -0.0587  0.0361
 4997TIP3    H114932   6.791   3.686   5.503  1.0841 -0.4035  0.7191
 4997TIP3    H214933   6.805   3.755   5.637 -0.5372 -1.3209  1.3928
 4998TIP3   OH214934   0.494   4.486   0.429 -0.1447  0.3844 -0.4068
 4998TIP3    H114935   0.523   4.561   0.481 -2.5820  1.0867  0.0803
 4998TIP3    H214936   0.420   4.519   0.378 -0.3934 -1.3429 -1.2627
 4999TIP3   OH214937   6.994   0.438   5.654  0.1072  0.0860 -0.9955
 4999TIP3    H114938   6.918   0.486   5.685  0.0248 -1.0387  0.7209
 4999TIP3    H214939   7.049   0.428   5.732  2.3597  1.4234 -2.3107
 5000TIP3   OH214940   5.122   0.322   5.969  0.0630 -0.5231  0.2293
 5000TIP3    H114941   5.170   0.327   5.886 -0.8775  3.1033 -0.2582
 5000TIP3    H214942   5.030   0.319   5.943 -0.2890  1.5161  1.0341
 5001TIP3   OH214943   7.328   7.891   4.148 -0.3236  0.3288  0.2354
 5001TIP3    H114944   7.390   7.897   4.221  1.1910  1.7095 -1.0993
 5001TIP3    H214945   7.337   7.801   4.116  0.9003  0.4649  0.1673
 5002TIP3   OH214946   0.132   1.300   2.628  0.1495 -0.0494 -0.4530
 5002TIP3    H114947   0.141   1.388   2.665  1.4241 -0.9806  1.6106
 5002TIP3    H214948   0.052   1.305   2.575 -0.2374  2.1269  0.2285
 5003TIP3   OH214949   1.267   2.504   0.753  0.1891  0.0059  0.5660
 5003TIP3    H114950   1.220   2.537   0.829  0.0450  0.5635  0.2431
 5003TIP3    H214951   1.347   2.466   0.788 -0.3587 -0.6666  1.0920
 5004TIP3   OH214952   7.635   1.185   4.353 -0.4683 -0.3091  0.1133
 5004TIP3    H114953   7.593   1.143   4.278  1.0946  0.1111 -1.0483
 5004TIP3    H214954   7.582   1.159   4.428 -0.3923 -3.2556 -0.7178
 5005TIP3   OH214955   2.603   1.867   2.041 -0.1977  0.1323  0.0442
 5005TIP3    H114956   2.627   1.928   1.971  0.4671 -2.1767 -1.8616
 5005TIP3    H214957   2.540   1.808   2.001  1.0762 -1.9909  1.0117
 5006TIP3   OH214958   7.656   1.732   2.820  0.2579 -0.0932 -0.4025
 5006TIP3    H114959   7.722   1.669   2.792  0.9359 -0.3542  1.6349
 5006TIP3    H214960   7.574   1.684   2.817  0.8901 -1.5032  2.1345
 5007TIP3   OH214961   0.441   7.700   1.763  0.1669 -0.1026 -0.4264
 5007TIP3    H114962   0.359   7.651   1.767  1.3536 -2.2443 -0.5887
 5007TIP3    H214963   0.509   7.632   1.758  2.0285  1.5529  0.7716
 5008TIP3   OH214964   0.915   1.263   2.557  0.4532  0.4776  0.0811
 5008TIP3    H114965   0.947   1.175   2.540  1.1204  0.9360 -1.2069
 5008TIP3    H214966   0.980   1.320   2.516 -0.6699  1.5250 -0.2986
 5009TIP3   OH214967   1.433   5.852   0.444 -0.2685  0.0524  0.0775
 5009TIP3    H114968   1.370   5.799   0.493 -0.0825 -0.2141  0.0334
 5009TIP3    H214969   1.510   5.857   0.502  0.1184 -0.6334 -0.3640
 5010TIP3   OH214970   0.063   3.277   0.270 -0.1240 -0.7554  0.3674
 5010TIP3    H114971   0.123   3.350   0.284 -1.2637  0.7603 -2.0943
 5010TIP3    H214972   0.011   3.272   0.351 -0.3793  1.5204  0.4019
 5011TIP3   OH214973   6.706   5.925   2.716 -0.3290  0.1794 -0.3767
 5011TIP3    H114974   6.792   5.922   2.758  0.8927  1.6252 -2.5592
 5011TIP3    H214975   6.645   5.948   2.786  1.2520  0.3148  1.0083
 5012TIP3   OH214976   2.216   4.183   6.139 -0.5252  0.4029 -0.4239
 5012TIP3    H114977   2.121   4.170   6.145 -0.4542  0.1849  0.4340
 5012TIP3    H214978   2.245   4.117   6.076 -1.1025  1.3873 -1.7681
 5013TIP3   OH214979   7.772   3.113   2.905 -0.0543  0.3365 -0.6454
 5013TIP3    H114980   7.851   3.121   2.957 -0.9425  2.1746  0.4858
 5013TIP3    H214981   7.761   3.198   2.863 -0.3312 -0.5430 -2.4855
 5014TIP3   OH214982   4.648   2.421   1.228 -0.2598 -0.1787 -0.5107
 5014TIP3    H114983   4.666   2.407   1.321  2.0489 -1.3131 -1.0639
 5014TIP3    H214984   4.605   2.506   1.225  0.2578  0.2173  1.5467
 5015TIP3   OH214985   0.980   0.578   1.204  0.9405 -0.6907  0.1475
 5015TIP3    H114986   1.031   0.537   1.134  0.7111  1.1646 -1.1926
 5015TIP3    H214987   1.041   0.638   1.246  0.2081  0.8344 -0.8442
 5016TIP3   OH214988   0.479   6.399   0.131 -0.2889 -0.3212 -0.0677
 5016TIP3    H114989   0.440   6.471   0.081 -1.1367  0.4928  1.6637
 5016TIP3    H214990   0.573   6.416   0.128 -0.3864  0.1548 -0.7259
 5017TIP3   OH214991   7.913   2.462   6.549 -0.1334 -0.3946 -0.1356
 5017TIP3    H114992   7.866   2.453   6.466  0.1857 -0.6093 -0.2928
 5017TIP3    H214993   7.948   2.551   6.548 -0.2839 -0.3352 -0.1483
 5018TIP3   OH214994   5.331   0.941   1.289  0.5673 -0.7293 -0.4769
 5018TIP3    H114995   5.407   0.887   1.310  1.2421 -0.5139 -2.2222
 5018TIP3    H214996   5.264   0.879   1.263 -0.3041 -1.0079  2.1363
 5019TIP3   OH214997   0.887   4.150   4.871 -0.2298  0.3622  0.1263
 5019TIP3    H114998   0.841   4.088   4.813  0.4728 -0.4243  0.3887
 5019TIP3    H214999   0.949   4.195   4.813  0.2304 -0.1782  0.1884
 5020TIP3   OH215000   6.697   5.651   4.036  0.0048 -0.3906 -0.0336
 5020TIP3    H115001   6.777   5.697   4.010 -0.5382 -0.0844 -1.2150
 5020TIP3    H215002   6.660   5.704   4.106 -0.6689  1.0790 -1.4476
 5021TIP3   OH215003   8.094   6.958   2.681 -0.4845  0.0162 -0.0461
 5021TIP3    H115004   8.109   7.022   2.750  2.3489 -0.2820 -0.2785
 5021TIP3    H215005   8.097   6.873   2.726  1.6842 -0.1946 -0.5193
 5022TIP3   OH215006   0.901   4.759   4.598  0.5903  0.0229 -0.5735
 5022TIP3    H115007   0.913   4.693   4.667 -1.0191  0.1258 -0.1595
 5022TIP3    H215008   0.810   4.786   4.607  1.1391  2.1421 -0.9040
 5023TIP3   OH215009   3.434   2.367   5.377 -0.0318  0.0641 -0.2918
 5023TIP3    H115010   3.381   2.356   5.298 -1.6558 -1.9952  1.0031
 5023TIP3    H215011   3.371   2.372   5.449  1.4226  1.4311  0.9802
 5024TIP3   OH215012   7.550   0.211   6.513 -0.2876  0.0235 -0.2173
 5024TIP3    H115013   7.622   0.154   6.484 -0.8724 -1.5054  1.1678
 5024TIP3    H215014   7.587   0.257   6.588 -0.7479 -0.8418  0.5609
 5025TIP3   OH215015   0.595   2.133   0.795 -0.7048 -0.2479  0.6380
 5025TIP3    H115016   0.627   2.053   0.755  0.7275  0.7640 -0.3515
 5025TIP3    H215017   0.598   2.198   0.724 -1.6759  0.7235  1.4490
 5026TIP3   OH215018   0.313   0.102   1.364 -0.2102  0.0133  0.6470
 5026TIP3    H115019   0.239   0.163   1.370  0.9651  1.6439 -0.4179
 5026TIP3    H215020   0.301   0.042   1.437 -2.5611  0.2269  0.5156
 5027TIP3   OH215021   2.149   5.803   6.299  0.1167  0.1833  0.2682
 5027TIP3    H115022   2.100   5.754   6.233  0.7501  1.6809 -1.3793
 5027TIP3    H215023   2.112   5.891   6.298 -0.3238  0.0951  2.4594
 5028TIP3   OH215024   5.128   1.887   3.173  0.4842 -0.0371 -0.1486
 5028TIP3    H115025   5.153   1.918   3.086  2.0978 -1.3874 -0.2077
 5028TIP3    H215026   5.077   1.959   3.210  1.0770  1.1895 -1.6154
 5029TIP3   OH215027   1.318   4.263   4.498 -0.4206 -0.0352 -0.3070
 5029TIP3    H115028   1.257   4.337   4.501 -2.2611 -1.5059  0.6965
 5029TIP3    H215029   1.309   4.222   4.584  1.4795 -0.7486 -0.4035
 5030TIP3   OH215030   1.998   5.023   1.817  0.0896  0.0200  0.1944
 5030TIP3    H115031   2.049   5.039   1.896  0.2155 -1.3278  0.4105
 5030TIP3    H215032   1.954   5.106   1.799  1.9340  1.0513  0.2957
 5031TIP3   OH215033   6.593   0.218   0.315 -0.0547  0.1912 -0.1123
 5031TIP3    H115034   6.649   0.190   0.388  1.5098  1.6636 -0.6947
 5031TIP3    H215035   6.580   0.139   0.263  0.5744 -0.4164  0.6266
 5032TIP3   OH215036   4.594   5.249   6.719  0.2836 -0.1891 -0.0699
 5032TIP3    H115037   4.571   5.157   6.726 -0.3598 -0.1307 -1.0950
 5032TIP3    H215038   4.510   5.293   6.707  0.6161  0.4885  0.0403
 5033TIP3   OH215039   7.121  -0.026   5.360  0.3890 -0.1981  0.1388
 5033TIP3    H115040   7.114  -0.038   5.265 -0.9493 -1.9120  0.3952
 5033TIP3    H215041   7.131   0.068   5.372  1.2870 -0.0018 -1.7202
 5034TIP3   OH215042   3.209   4.091   4.621  0.1621  0.1539 -0.2747
 5034TIP3    H115043   3.264   4.137   4.684  2.3647 -0.6728 -1.4856
 5034TIP3    H215044   3.270   4.037   4.571 -1.7464 -0.6464 -1.8628
 5035TIP3   OH215045   4.219   1.514   6.054 -0.1744 -0.0579 -0.7910
 5035TIP3    H115046   4.271   1.542   5.979  0.9370  0.6660  0.2107
 5035TIP3    H215047   4.253   1.427   6.076 -3.1272 -2.1256 -3.4427
 5036TIP3   OH215048   6.586   7.650   5.610  0.0713  0.4079 -0.0798
 5036TIP3    H115049   6.511   7.670   5.666  1.3031  1.2687  1.3362
 5036TIP3    H215050   6.548   7.607   5.534 -1.6829 -0.9758  1.4655
 5037TIP3   OH215051   1.226   3.795   3.840 -0.1966  0.0574 -0.3662
 5037TIP3    H115052   1.160   3.859   3.869 -1.1441 -0.7263 -0.7463
 5037TIP3    H215053   1.307   3.846   3.832 -0.2001  0.6191  2.2364
 5038TIP3   OH215054   3.560   5.342   1.806  0.1833  0.3564  0.6129
 5038TIP3    H115055   3.476   5.318   1.846 -0.7106  1.1091 -0.7201
 5038TIP3    H215056   3.542   5.424   1.760  2.2727  1.8181  2.1895
 5039TIP3   OH215057   1.976   3.790   1.929  0.5533 -0.2352 -0.2109
 5039TIP3    H115058   1.962   3.883   1.943  1.0214 -0.3034  0.7692
 5039TIP3    H215059   1.911   3.766   1.863  0.1079  0.6763 -0.1243
 5040TIP3   OH215060   5.587   3.145   6.655 -0.3083  0.5410 -0.0355
 5040TIP3    H115061   5.629   3.107   6.578  0.4103  1.5913 -0.1691
 5040TIP3    H215062   5.559   3.232   6.627  0.2923  1.0815  0.9860
 5041TIP3   OH215063   6.042   5.440   3.849  0.3195 -0.5372 -0.0836
 5041TIP3    H115064   5.974   5.407   3.791 -0.6914  1.9748 -0.4746
 5041TIP3    H215065   6.124   5.411   3.810 -0.3685  0.3649 -2.3532
 5042TIP3   OH215066   2.562   4.111   5.871  0.2797  0.3846 -0.5204
 5042TIP3    H115067   2.575   4.203   5.892  2.0876 -0.0070  0.2997
 5042TIP3    H215068   2.600   4.100   5.784  1.5637  0.1109  0.0586
 5043TIP3   OH215069   1.764   5.919   5.675 -0.1266  0.4264 -0.8080
 5043TIP3    H115070   1.787   5.850   5.613  1.5160  1.4270 -1.3788
 5043TIP3    H215071   1.709   5.979   5.626 -1.6270 -0.4691 -0.2874
 5044TIP3   OH215072   6.081   1.651   5.656  0.6638 -0.2291 -0.3872
 5044TIP3    H115073   6.074   1.624   5.564  1.4571 -2.7043  0.2012
 5044TIP3    H215074   5.990   1.652   5.687  0.3612  0.9035 -1.2300
 5045TIP3   OH215075   8.051   4.585   0.635  0.0609  0.1936 -0.0700
 5045TIP3    H115076   8.106   4.626   0.702  1.6696  0.1839 -1.3266
 5045TIP3    H215077   7.987   4.653   0.613 -1.4091 -0.2654  2.3869
 5046TIP3   OH215078   1.920   4.354   5.239  0.7930 -0.5557  0.0757
 5046TIP3    H115079   1.915   4.381   5.147  2.2580  1.6139  0.5616
 5046TIP3    H215080   1.983   4.414   5.278 -2.0959  0.6929  3.2758
 5047TIP3   OH215081   5.673   6.242   3.634 -0.3689 -0.5589 -0.4141
 5047TIP3    H115082   5.638   6.165   3.679 -3.4329  1.2048  0.5270
 5047TIP3    H215083   5.657   6.226   3.542 -2.1927 -0.5482 -0.1240
 5048TIP3   OH215084   8.348   6.046   6.095  0.1991 -0.5604 -0.7325
 5048TIP3    H115085   8.422   6.033   6.154 -0.8278  1.7976  1.2102
 5048TIP3    H215086   8.371   6.124   6.044 -0.0855 -1.0414 -1.6271
 5049TIP3   OH215087   6.159   5.807   5.178  0.3015 -0.6432 -0.0750
 5049TIP3    H115088   6.254   5.819   5.189  0.0150  0.9409  1.1121
 5049TIP3    H215089   6.121   5.867   5.242 -1.5133 -1.9873  0.1562
 5050TIP3   OH215090   8.258   4.478   1.988 -0.4431 -0.3327 -0.1458
 5050TIP3    H115091   8.256   4.383   1.980 -0.5952 -0.6277  2.5064
 5050TIP3    H215092   8.177   4.500   2.034 -1.0023  1.2464 -1.7632
 5051TIP3   OH215093   6.871   2.269   5.396 -0.1064 -0.0480  0.2720
 5051TIP3    H115094   6.856   2.343   5.337 -1.3684 -0.2364  0.3332
 5051TIP3    H215095   6.963   2.275   5.419  0.0676  0.8564 -0.6029
 5052TIP3   OH215096   2.801   2.147   5.373  0.2340 -0.3474 -0.1077
 5052TIP3    H115097   2.775   2.056   5.385  0.3499 -0.4893 -0.8610
 5052TIP3    H215098   2.723   2.191   5.340 -0.2052  0.1277  1.5066
 5053TIP3   OH215099   3.681   1.296   3.911  0.4995 -0.2650  0.0824
 5053TIP3    H115100   3.640   1.223   3.957 -0.3962 -0.2330 -0.6153
 5053TIP3    H215101   3.697   1.362   3.978  0.0988 -0.5868  0.4970
 5054TIP3   OH215102   5.516   5.748   4.763  0.4626  0.0484  0.0545
 5054TIP3    H115103   5.591   5.780   4.712  0.5140  0.4431  0.3798
 5054TIP3    H215104   5.451   5.723   4.697  0.3859  0.9067 -0.1992
 5055TIP3   OH215105   2.616   5.207   2.143  0.2168  0.4074 -0.1350
 5055TIP3    H115106   2.613   5.291   2.097  0.6846  1.1675  1.1708
 5055TIP3    H215107   2.702   5.206   2.186  1.0085 -1.5742 -1.6002
 5056TIP3   OH215108   4.779   1.671   6.444  0.2435  0.0221 -0.3731
 5056TIP3    H115109   4.843   1.631   6.385  1.2753 -0.2737  0.9085
 5056TIP3    H215110   4.821   1.670   6.530 -1.3279  0.2095  0.4345
 5057TIP3   OH215111   0.072   1.501   0.198 -0.3233  0.2954  0.4334
 5057TIP3    H115112   0.019   1.503   0.278 -0.0147  0.6230  0.6285
 5057TIP3    H215113   0.134   1.572   0.208  0.4583 -0.3688  0.4112
 5058TIP3   OH215114   2.179   6.568   1.729 -0.2878  0.6917  0.5339
 5058TIP3    H115115   2.090   6.549   1.761  0.3428 -0.3574  1.7367
 5058TIP3    H215116   2.230   6.584   1.808  0.5879  1.4485 -0.1552
 5059TIP3   OH215117   5.152   4.036   5.362  0.1133  0.5861 -0.4473
 5059TIP3    H115118   5.164   4.045   5.267  0.2236  0.4066 -0.4527
 5059TIP3    H215119   5.082   3.971   5.371  0.1599  0.5414 -0.4054
 5060TIP3   OH215120   1.176   0.138   6.393 -0.1239 -0.2289  0.2046
 5060TIP3    H115121   1.244   0.117   6.329 -0.4956  0.3224 -0.3768
 5060TIP3    H215122   1.204   0.093   6.473 -0.8191 -2.8643 -0.9248
 5061TIP3   OH215123   3.147   2.073   1.685 -0.0204 -0.3788 -0.1438
 5061TIP3    H115124   3.201   2.135   1.635 -0.9417  0.6446  0.0914
 5061TIP3    H215125   3.203   1.997   1.697  0.8707  0.0968 -1.1330
 5062TIP3   OH215126   5.711   4.247   1.446 -0.0816 -0.0513  0.3787
 5062TIP3    H115127   5.787   4.193   1.428  1.2773  2.0869 -0.6889
 5062TIP3    H215128   5.723   4.276   1.536  0.3336  0.1906  0.2490
 5063TIP3   OH215129   6.481   4.443   0.373  0.5726 -0.2417  0.7682
 5063TIP3    H115130   6.467   4.522   0.425 -0.9291 -0.6907  1.1016
 5063TIP3    H215131   6.573   4.420   0.388  1.3298  1.9353 -0.0789
 5064TIP3   OH215132   7.464   1.138   3.187  0.4983 -0.2693 -0.3967
 5064TIP3    H115133   7.512   1.169   3.264 -2.0358 -1.3892  1.8114
 5064TIP3    H215134   7.442   1.217   3.139 -0.7831  0.9345  1.9514
 5065TIP3   OH215135   3.736   2.864   3.127 -0.4494  0.5373 -0.5495
 5065TIP3    H115136   3.702   2.785   3.168 -0.6017  0.3511 -1.0286
 5065TIP3    H215137   3.789   2.905   3.195 -2.1811  1.2068  0.4824
 5066TIP3   OH215138   6.088   4.007   4.838  0.1239 -0.3636  0.1015
 5066TIP3    H115139   6.010   4.001   4.892  0.1246 -0.1481  0.1259
 5066TIP3    H215140   6.058   4.045   4.756  0.3977  0.7671  0.5086
 5067TIP3   OH215141   1.692   4.194   4.026 -0.1792  0.0409  1.0383
 5067TIP3    H115142   1.677   4.168   3.935 -1.0724  0.7342  0.9701
 5067TIP3    H215143   1.636   4.135   4.077  0.1398 -0.1911  1.1182
 5068TIP3   OH215144   2.295   5.935   5.715  0.0368  0.6865  0.0222
 5068TIP3    H115145   2.318   5.848   5.682 -2.8066  0.3921 -1.4970
 5068TIP3    H215146   2.252   5.919   5.799 -1.8876  0.4054 -0.9731
 5069TIP3   OH215147   0.971   1.529   5.345 -0.1822 -0.1039 -1.1533
 5069TIP3    H115148   0.972   1.531   5.441  1.7621  2.3795 -1.1247
 5069TIP3    H215149   0.907   1.596   5.321  2.0107  2.0199 -1.4592
 5070TIP3   OH215150   4.762   2.738   0.654  0.0620 -0.1220  0.5939
 5070TIP3    H115151   4.768   2.744   0.559  0.2932 -0.1366  0.6083
 5070TIP3    H215152   4.851   2.752   0.685  0.1007 -0.7441  0.7744
 5071TIP3   OH215153   7.772   0.951   5.090 -0.0157 -0.6877 -0.2141
 5071TIP3    H115154   7.843   0.949   5.155 -0.5735 -2.4824  0.4123
 5071TIP3    H215155   7.694   0.926   5.140 -1.0275  0.7617 -1.0009
 5072TIP3   OH215156   0.478   5.374   1.706  0.1807 -0.2122 -0.1116
 5072TIP3    H115157   0.407   5.438   1.700 -1.4174 -2.0340 -1.8801
 5072TIP3    H215158   0.533   5.392   1.630  0.4575 -0.1213  0.1098
 5073TIP3   OH215159   1.718   6.602   2.759  0.3831  0.0304  0.4636
 5073TIP3    H115160   1.663   6.679   2.772  2.0492  1.2818  0.4377
 5073TIP3    H215161   1.707   6.550   2.838 -0.5178  0.4457  0.6227
 5074TIP3   OH215162   6.712   3.456   0.460  0.0214 -0.5287 -0.7949
 5074TIP3    H115163   6.715   3.516   0.534  0.0486 -1.5272  0.0290
 5074TIP3    H215164   6.626   3.414   0.467 -0.8868  0.8763 -2.5737
 5075TIP3   OH215165   3.352   3.230   5.214 -0.4416  0.4678  0.1996
 5075TIP3    H115166   3.290   3.157   5.214 -0.8562  0.8037  0.8461
 5075TIP3    H215167   3.397   3.223   5.298 -0.1366  0.6684  0.0547
 5076TIP3   OH215168   5.440   2.668   1.346  0.2785 -0.1811 -0.2132
 5076TIP3    H115169   5.499   2.669   1.421  0.8996 -1.0686 -0.6788
 5076TIP3    H215170   5.488   2.623   1.277 -1.0435 -1.1983 -0.5152
 5077TIP3   OH215171   4.411   6.728   2.235  0.0479 -0.2550 -0.6121
 5077TIP3    H115172   4.328   6.710   2.191 -0.7504  2.3609 -0.3550
 5077TIP3    H215173   4.459   6.784   2.173  0.6795  0.0296  0.1160
 5078TIP3   OH215174   0.289   6.622   5.249 -0.2552 -0.2886 -0.1357
 5078TIP3    H115175   0.200   6.659   5.247 -0.5456 -0.9454  0.4787
 5078TIP3    H215176   0.284   6.546   5.192  0.1738  0.2198 -0.8683
 5079TIP3   OH215177   7.899   6.982   2.486 -0.0854  0.0197 -0.0965
 5079TIP3    H115178   7.964   7.010   2.550 -1.9352 -0.8214  2.3021
 5079TIP3    H215179   7.902   6.886   2.488 -0.7730 -0.0250 -0.6384
 5080TIP3   OH215180   4.023   5.744   4.654 -0.4358  0.2981 -0.2630
 5080TIP3    H115181   3.939   5.702   4.673 -1.0021  1.1938 -0.7669
 5080TIP3    H215182   4.043   5.794   4.734 -0.3909  0.1203 -0.1603
 5081TIP3   OH215183   8.245   6.200   3.698 -0.5310  0.0385 -0.3128
 5081TIP3    H115184   8.237   6.215   3.603 -0.5147 -0.6729 -0.4362
 5081TIP3    H215185   8.338   6.209   3.716 -0.6619  1.2268 -0.1669
 5082TIP3   OH215186   1.994   0.199   4.970 -0.1484 -0.0124 -0.3419
 5082TIP3    H115187   1.972   0.120   4.921  0.8803 -0.4453 -0.1287
 5082TIP3    H215188   2.013   0.168   5.059  2.4626  0.1290 -0.7779
 5083TIP3   OH215189   3.792   1.185   0.310 -0.4313 -0.3536  0.2031
 5083TIP3    H115190   3.808   1.093   0.333 -1.4079 -0.3231  1.0721
 5083TIP3    H215191   3.874   1.229   0.333 -0.4471 -0.7792  1.1292
 5084TIP3   OH215192   0.015   7.729   0.471  0.4923 -0.2287  0.1055
 5084TIP3    H115193  -0.071   7.757   0.502  0.0188  1.3016 -2.3396
 5084TIP3    H215194   0.073   7.742   0.546 -1.2453 -0.6716  1.6046
 5085TIP3   OH215195   0.054   2.907   3.115 -0.1530  0.1509 -0.6584
 5085TIP3    H115196  -0.022   2.899   3.172  0.8932  0.7356  0.8660
 5085TIP3    H215197   0.106   2.828   3.132  0.2299  0.3866 -0.7160
 5086TIP3   OH215198   0.308   3.859   1.087  0.2415 -0.1271 -0.5773
 5086TIP3    H115199   0.337   3.835   1.175  0.6073  0.1082 -0.6330
 5086TIP3    H215200   0.308   3.777   1.038  1.0786 -0.0864 -0.6527
 5087TIP3   OH215201   2.002   1.798   5.007 -0.1214 -0.7267  0.6621
 5087TIP3    H115202   2.054   1.725   5.041  2.1852  0.2012 -0.6352
 5087TIP3    H215203   2.045   1.876   5.042  0.7229  0.1619 -2.0954
 5088TIP3   OH215204   3.667   0.205   3.966  0.2459 -0.3931 -0.1721
 5088TIP3    H115205   3.627   0.147   3.901  0.2766 -1.0773  0.4038
 5088TIP3    H215206   3.749   0.162   3.990  1.0968  0.7422 -0.9558
 5089TIP3   OH215207   5.853   3.289   1.702  0.2999  0.4298  0.4536
 5089TIP3    H115208   5.904   3.209   1.686 -1.5571 -1.2180  2.2548
 5089TIP3    H215209   5.771   3.258   1.740 -0.9621  3.1628  0.1780
 5090TIP3   OH215210   8.327   0.278   3.385  0.3658 -0.3629  0.1313
 5090TIP3    H115211   8.261   0.253   3.450 -0.7466  2.0054  0.0307
 5090TIP3    H215212   8.404   0.303   3.436  0.0418 -0.0146  0.4567
 5091TIP3   OH215213   5.401   5.808   3.273  0.5415  0.4676 -0.4718
 5091TIP3    H115214   5.419   5.797   3.366 -0.8151 -0.9068 -0.3252
 5091TIP3    H215215   5.305   5.807   3.267  0.6050  0.8073 -1.8468
 5092TIP3   OH215216   4.822   5.394   1.156  0.2378 -0.0111 -0.1139
 5092TIP3    H115217   4.839   5.454   1.084 -2.0949  1.4812  0.4601
 5092TIP3    H215218   4.760   5.330   1.119  0.9261 -0.7243 -0.0707
 5093TIP3   OH215219   1.885   4.999   2.485  0.3061 -0.0609 -0.1304
 5093TIP3    H115220   1.957   4.962   2.536  1.2893 -0.0661 -1.4726
 5093TIP3    H215221   1.925   5.027   2.403 -0.6721  2.7126  0.2512
 5094TIP3   OH215222   4.700   3.050   1.500  0.2356 -0.0644  0.8329
 5094TIP3    H115223   4.713   2.956   1.513  0.4651  0.0300  1.2726
 5094TIP3    H215224   4.737   3.091   1.577 -0.3530  0.3604  0.8998
 5095TIP3   OH215225   2.686   5.042   1.491  0.0150  0.0207 -0.0596
 5095TIP3    H115226   2.712   5.076   1.405 -1.4723 -0.4975 -0.7467
 5095TIP3    H215227   2.598   5.078   1.505 -0.3862 -1.1581  0.5336
 5096TIP3   OH215228   7.985   6.016   4.480 -0.0541 -0.3918  0.7662
 5096TIP3    H115229   7.974   6.090   4.541 -0.9134 -1.0359  1.4212
 5096TIP3    H215230   8.011   6.057   4.398 -1.5080  0.7534  0.8264
 5097TIP3   OH215231   4.589   4.795   1.684  0.0351  0.0933  0.1478
 5097TIP3    H115232   4.675   4.754   1.683  0.3521  0.7533 -0.2078
 5097TIP3    H215233   4.599   4.872   1.739 -0.2935  0.2438  0.0030
 5098TIP3   OH215234   1.574   6.098   6.630 -0.3297  0.4342 -0.9197
 5098TIP3    H115235   1.490   6.141   6.617  0.8844  3.1013 -0.5298
 5098TIP3    H215236   1.612   6.141   6.707  1.6563 -0.2488 -1.4450
 5099TIP3   OH215237   3.813   7.039   5.609  0.2080 -0.1324 -0.0317
 5099TIP3    H115238   3.737   7.052   5.665 -0.4343 -0.7390 -0.7412
 5099TIP3    H215239   3.887   7.032   5.670 -0.7066 -2.8189  0.9161
 5100TIP3   OH215240   0.227   4.686   5.339  0.0384  0.5549 -0.3649
 5100TIP3    H115241   0.306   4.641   5.368  0.8107  1.1691 -1.4666
 5100TIP3    H215242   0.240   4.777   5.367 -0.2011  0.6902 -0.6877
 5101TIP3   OH215243   6.257   4.294   4.837  1.1519 -0.0142  0.4589
 5101TIP3    H115244   6.289   4.308   4.747  0.3767 -0.5799  0.0873
 5101TIP3    H215245   6.293   4.209   4.862 -0.1584 -0.7453 -0.0308
 5102TIP3   OH215246   5.428   2.974   3.427 -0.1498  0.1573 -0.2089
 5102TIP3    H115247   5.465   3.051   3.470  2.2582 -1.0951  0.1037
 5102TIP3    H215248   5.366   2.938   3.490 -0.2130  1.0268  0.2279
 5103TIP3   OH215249   1.700   6.896   1.937 -0.0632 -0.0578 -0.2760
 5103TIP3    H115250   1.668   6.955   2.005 -0.2264 -1.5857  1.0049
 5103TIP3    H215251   1.660   6.929   1.856 -1.2810  0.7182  0.6153
 5104TIP3   OH215252   2.216   3.344   6.213  0.3406  0.5584 -0.3455
 5104TIP3    H115253   2.180   3.269   6.166  0.8553  0.8544 -1.2527
 5104TIP3    H215254   2.144   3.406   6.218 -0.1381 -0.0593  0.5715
 5105TIP3   OH215255   6.294   6.241   6.240  0.2259 -0.0668 -0.0827
 5105TIP3    H115256   6.364   6.222   6.178 -0.6668 -0.8956 -0.8615
 5105TIP3    H215257   6.222   6.274   6.187 -0.6773 -1.1079  0.4546
 5106TIP3   OH215258   6.392   4.006   1.111 -0.4907 -0.1441 -0.7040
 5106TIP3    H115259   6.338   4.083   1.128 -0.4848  0.1091 -1.7280
 5106TIP3    H215260   6.328   3.936   1.092 -0.4839 -0.0174 -1.2217
 5107TIP3   OH215261   0.564   5.051   5.131 -0.0368 -0.1088 -0.4464
 5107TIP3    H115262   0.599   5.139   5.142 -0.5044 -0.1452  1.7299
 5107TIP3    H215263   0.630   4.994   5.171 -1.2310 -0.4081  1.2194
 5108TIP3   OH215264   8.156   7.096   4.276  0.6691  0.3586  0.2418
 5108TIP3    H115265   8.239   7.115   4.234 -1.1045  1.2234 -3.2491
 5108TIP3    H215266   8.148   7.001   4.270  1.0694  0.3420 -0.0781
 5109TIP3   OH215267   1.304   2.714   5.649  0.4644 -0.6929 -0.5033
 5109TIP3    H115268   1.363   2.787   5.669  0.1947 -0.7535  0.6355
 5109TIP3    H215269   1.237   2.752   5.593 -0.3942  0.2964  1.1160
 5110TIP3   OH215270   4.787   2.793   3.885  0.5901 -0.2866 -0.4254
 5110TIP3    H115271   4.847   2.724   3.913 -0.6537 -1.8391 -1.4022
 5110TIP3    H215272   4.712   2.746   3.850  0.1139  1.5849 -2.0667
 5111TIP3   OH215273   3.992   7.119   0.655 -0.2314  0.0440 -0.4414
 5111TIP3    H115274   3.934   7.137   0.729 -0.7111  0.3109 -0.8767
 5111TIP3    H215275   4.059   7.187   0.660 -0.0466 -0.1696 -0.0270
 5112TIP3   OH215276   1.521   1.689   4.825 -0.6132 -0.4680  0.1741
 5112TIP3    H115277   1.589   1.695   4.892 -0.9781  0.3173  0.4869
 5112TIP3    H215278   1.443   1.725   4.868 -0.8433  0.0676 -0.6830
 5113TIP3   OH215279   3.887   6.199   1.781 -0.0325  0.4549 -0.0490
 5113TIP3    H115280   3.815   6.178   1.721 -0.5650 -0.7847  0.9895
 5113TIP3    H215281   3.910   6.290   1.760 -3.5113  1.7776  1.1873
 5114TIP3   OH215282   4.748   5.565   4.715  0.2433  0.0194  0.5458
 5114TIP3    H115283   4.675   5.627   4.715 -0.1202 -0.3989  0.0129
 5114TIP3    H215284   4.771   5.556   4.808  1.0067  1.7412  0.5455
 5115TIP3   OH215285   6.706   3.401   1.212 -0.4834 -0.2040  0.2409
 5115TIP3    H115286   6.682   3.461   1.283 -1.9944 -0.2616 -0.1893
 5115TIP3    H215287   6.671   3.443   1.133  0.4382 -0.5539 -0.3663
 5116TIP3   OH215288   0.367   4.900   5.923  0.1821 -0.2935 -0.2774
 5116TIP3    H115289   0.384   4.951   5.843  0.9330  1.1275  0.7255
 5116TIP3    H215290   0.353   4.811   5.893  0.6922  0.1673 -1.9795
 5117TIP3   OH215291   5.638   2.285   0.478  0.1755 -0.2956 -0.5416
 5117TIP3    H115292   5.672   2.286   0.388  1.8612  0.1661  0.0638
 5117TIP3    H215293   5.690   2.216   0.521  0.2320  0.3166  0.3755
 5118TIP3   OH215294   4.304   3.651   2.415 -0.0787  0.4102 -1.1150
 5118TIP3    H115295   4.328   3.699   2.494  2.5326 -0.6841 -1.1315
 5118TIP3    H215296   4.292   3.560   2.445 -0.5151  0.2545 -1.7460
 5119TIP3   OH215297   3.266   7.819   4.761 -0.6011 -0.0851  0.4917
 5119TIP3    H115298   3.224   7.869   4.690 -1.0672 -1.6938 -0.4283
 5119TIP3    H215299   3.359   7.829   4.744 -0.6653  0.8789  0.6341
 5120TIP3   OH215300   1.649   0.702   3.282 -0.0845 -0.3639  0.5178
 5120TIP3    H115301   1.597   0.782   3.285 -0.2498 -0.4906  1.6934
 5120TIP3    H215302   1.702   0.710   3.203  1.0767  1.6629  1.4323
 5121TIP3   OH215303   1.949   3.971   3.379 -0.2401 -0.4352  0.1541
 5121TIP3    H115304   1.991   3.978   3.294  0.0285 -0.3953  0.2894
 5121TIP3    H215305   1.874   4.030   3.374 -2.6262 -3.2728 -1.4519
 5122TIP3   OH215306   0.217   1.180   6.169 -0.3956 -0.3465 -1.0893
 5122TIP3    H115307   0.265   1.098   6.182  0.2385  0.3084  1.1831
 5122TIP3    H215308   0.126   1.152   6.155  0.2666 -1.5213 -3.8279
 5123TIP3   OH215309   8.096   0.612   4.052  0.0408 -0.1581 -0.1213
 5123TIP3    H115310   8.113   0.544   4.117 -0.5015 -1.4290 -1.2385
 5123TIP3    H215311   8.020   0.660   4.087 -0.5226 -1.1021 -0.0025
 5124TIP3   OH215312   7.452   2.796   4.911  0.3900 -0.0403 -0.3018
 5124TIP3    H115313   7.524   2.851   4.880  1.2161 -0.6956  0.4017
 5124TIP3    H215314   7.373   2.848   4.895  1.1021  1.1130 -0.1601
 5125TIP3   OH215315   4.921   5.039   2.695 -1.0620 -0.2354  1.0022
 5125TIP3    H115316   4.972   5.119   2.698  1.3804 -1.5956 -0.7298
 5125TIP3    H215317   4.862   5.051   2.621 -0.5953 -0.0922  0.6507
 5126TIP3   OH215318   7.309   7.403   5.749  0.2134  0.6386  0.1464
 5126TIP3    H115319   7.390   7.364   5.782  0.8530  0.3095 -1.6630
 5126TIP3    H215320   7.259   7.329   5.714 -0.4183  0.9557  0.3670
 5127TIP3   OH215321   3.762   0.357   1.098  0.0518  0.1254  0.1119
 5127TIP3    H115322   3.767   0.313   1.183 -0.1445  0.7640  0.4651
 5127TIP3    H215323   3.806   0.298   1.038  1.5539  0.3448  0.9409
 5128TIP3   OH215324   5.944   3.467   5.015 -0.3616 -0.0574 -0.3950
 5128TIP3    H115325   5.984   3.548   4.982 -0.8177  1.0320  1.5232
 5128TIP3    H215326   5.932   3.484   5.109 -2.3330 -1.5884 -0.3118
 5129TIP3   OH215327   6.401   1.057   1.922  0.5288 -0.1590  0.2608
 5129TIP3    H115328   6.326   1.116   1.924 -0.4667 -1.3205 -0.8753
 5129TIP3    H215329   6.364   0.970   1.940  1.8302 -0.5646  1.1403
 5130TIP3   OH215330   5.116   5.917   0.665  0.0959  0.2685  0.3988
 5130TIP3    H115331   5.146   5.861   0.737  0.2014  0.1240  0.2413
 5130TIP3    H215332   5.150   5.875   0.586 -1.9749 -0.8956  0.0548
 5131TIP3   OH215333   7.823   7.504   0.096 -0.2297 -0.2941 -0.1125
 5131TIP3    H115334   7.796   7.420   0.059 -0.1016 -1.4001  2.1733
 5131TIP3    H215335   7.905   7.525   0.051 -1.1550 -0.4588 -1.9867
 5132TIP3   OH215336   5.475   6.559   1.914  0.5850 -0.1975 -0.1341
 5132TIP3    H115337   5.466   6.649   1.943 -0.0325 -0.5496  0.8499
 5132TIP3    H215338   5.454   6.560   1.821 -3.8992  0.0587  0.6642
 5133TIP3   OH215339   4.262   3.161   6.456  0.1335  0.7522 -0.9886
 5133TIP3    H115340   4.209   3.234   6.425 -0.4916  0.9872  0.5263
 5133TIP3    H215341   4.219   3.133   6.537  1.5613  0.0801 -0.4217
 5134TIP3   OH215342   8.043   2.928   3.566  0.1644 -0.0437 -0.1978
 5134TIP3    H115343   7.994   2.925   3.648  0.8975  0.5102  0.2722
 5134TIP3    H215344   8.086   2.843   3.561  1.2123  0.3904  0.7091
 5135TIP3   OH215345   6.245   6.724   5.646  0.5148 -0.7080  0.3927
 5135TIP3    H115346   6.185   6.662   5.605  0.8387 -0.0780 -1.0880
 5135TIP3    H215347   6.287   6.674   5.717  0.1262 -1.9010 -0.1975
 5136TIP3   OH215348   2.415   6.447   3.851  0.2761  0.5805  0.5117
 5136TIP3    H115349   2.486   6.488   3.899  1.2441 -1.3021  0.7822
 5136TIP3    H215350   2.442   6.356   3.841 -2.5812 -0.5076  1.6339
 5137TIP3   OH215351   1.715   0.481   4.139 -0.0276 -0.3337  0.1594
 5137TIP3    H115352   1.758   0.411   4.090 -1.0773 -0.6192 -0.3882
 5137TIP3    H215353   1.773   0.556   4.129  0.1672 -0.6035 -0.8742
 5138TIP3   OH215354   7.340   5.701   6.038 -0.1964 -0.7377  0.2679
 5138TIP3    H115355   7.344   5.664   5.950 -2.9690 -1.0336  0.1700
 5138TIP3    H215356   7.404   5.652   6.088  0.7563 -1.2196 -1.3444
 5139TIP3   OH215357   4.213   1.491   6.404  0.0053 -0.1553 -0.3380
 5139TIP3    H115358   4.168   1.575   6.394 -0.1679 -0.4578 -2.8017
 5139TIP3    H215359   4.305   1.515   6.414 -0.2199  0.3556  0.6281
 5140TIP3   OH215360   6.793   4.851   5.044  0.0906 -0.3666  0.1781
 5140TIP3    H115361   6.805   4.874   5.136 -1.3958  0.6789  0.1500
 5140TIP3    H215362   6.726   4.912   5.013 -0.6712 -1.8244 -1.1512
 5141TIP3   OH215363   6.632   3.848   2.893  0.4217 -0.6284 -0.7902
 5141TIP3    H115364   6.540   3.844   2.919  0.6206 -0.9838 -0.1397
 5141TIP3    H215365   6.662   3.934   2.924  0.3304 -0.5374 -0.9499
 5142TIP3   OH215366   0.674   0.415   5.599  0.4725  0.1437 -0.6906
 5142TIP3    H115367   0.682   0.320   5.610  0.7522  0.0982 -1.2395
 5142TIP3    H215368   0.758   0.449   5.630  2.9216 -0.2714 -5.7139
 5143TIP3   OH215369   5.478   5.794   5.022  0.6325  0.4184  0.0594
 5143TIP3    H115370   5.537   5.859   5.062  1.9727 -0.7471  0.0557
 5143TIP3    H215371   5.514   5.779   4.935  0.6168 -0.6672  0.2293
 5144TIP3   OH215372   4.831   1.439   3.030  0.2302 -0.3754 -0.5277
 5144TIP3    H115373   4.922   1.431   3.057 -0.0435 -0.2546  0.4612
 5144TIP3    H215374   4.783   1.384   3.092 -0.3480 -0.6133 -1.1750
 5145TIP3   OH215375   3.911   6.646   5.748 -0.1469  0.7867  0.4701
 5145TIP3    H115376   3.864   6.660   5.666  1.4057  0.8389 -0.4542
 5145TIP3    H215377   3.954   6.730   5.765  1.8899 -0.0455 -0.2604
 5146TIP3   OH215378   7.433   2.251   4.533  0.1267  0.3856  0.2031
 5146TIP3    H115379   7.441   2.299   4.615 -0.2573  0.2409  0.3295
 5146TIP3    H215380   7.339   2.248   4.517  0.1270 -0.4942  0.3039
 5147TIP3   OH215381   1.709   0.271   4.624 -0.2568  0.1123  0.0784
 5147TIP3    H115382   1.747   0.283   4.537 -1.4515  0.4014 -0.4248
 5147TIP3    H215383   1.778   0.298   4.684  1.9569 -3.3942 -0.5889
 5148TIP3   OH215384   2.267   3.523   5.164 -0.0648  0.8573 -0.0435
 5148TIP3    H115385   2.268   3.522   5.259 -0.5349 -0.6259 -0.0315
 5148TIP3    H215386   2.355   3.495   5.138 -0.4360 -0.4149 -0.0075
 5149TIP3   OH215387   5.899   3.022   4.966 -0.1750  0.4791  0.0327
 5149TIP3    H115388   5.946   3.006   5.048 -0.0451  0.0318 -0.1288
 5149TIP3    H215389   5.958   3.079   4.916 -0.0865  0.4371  0.0887
 5150TIP3   OH215390   6.621   6.243   1.228  0.7052  0.0493 -0.0872
 5150TIP3    H115391   6.589   6.231   1.317  0.3444  1.0371 -0.0752
 5150TIP3    H215392   6.626   6.154   1.192 -0.7984 -0.2386  0.3553
 5151TIP3   OH215393   0.749   3.029   2.644 -0.3404 -0.8471  0.4760
 5151TIP3    H115394   0.765   3.012   2.737 -1.3775 -1.6962  0.5142
 5151TIP3    H215395   0.656   3.014   2.633 -0.1859 -0.9578 -0.7574
 5152TIP3   OH215396   1.394   1.285   1.654  0.1072  0.0722 -0.0381
 5152TIP3    H115397   1.335   1.236   1.711  1.3902  0.9350  2.1499
 5152TIP3    H215398   1.359   1.375   1.654  2.2653  1.0576  2.7970
 5153TIP3   OH215399   3.435   5.240   0.191  0.0284 -0.0220  0.5607
 5153TIP3    H115400   3.384   5.159   0.198 -2.3146  1.3246  0.2776
 5153TIP3    H215401   3.428   5.280   0.277  0.2035  0.4122  0.3742
 5154TIP3   OH215402   0.052   1.107   2.339 -0.3962 -0.0292 -0.0412
 5154TIP3    H115403   0.144   1.102   2.364 -0.0301  0.2405 -1.2706
 5154TIP3    H215404   0.019   1.185   2.384  0.3378  0.6513 -0.6601
 5155TIP3   OH215405   1.641   5.560   5.617  0.1000  0.4303 -0.4461
 5155TIP3    H115406   1.571   5.495   5.610  0.7530 -0.2281 -1.0218
 5155TIP3    H215407   1.615   5.630   5.557  0.2481 -0.1272 -1.1808
 5156TIP3   OH215408   3.218   2.553   6.141 -0.1443 -0.1908 -0.1582
 5156TIP3    H115409   3.181   2.612   6.208  1.5212 -0.0094  0.6481
 5156TIP3    H215410   3.143   2.501   6.111 -1.1504  0.5198  1.0315
 5157TIP3   OH215411   8.248   2.471   2.680 -0.4563  0.6452 -0.1930
 5157TIP3    H115412   8.184   2.463   2.750  0.7257  1.7614  1.0649
 5157TIP3    H215413   8.258   2.566   2.668 -1.4553  0.5163 -2.6797
 5158TIP3   OH215414   8.106   3.162   0.777  0.6076 -0.2714 -0.4529
 5158TIP3    H115415   8.058   3.239   0.808 -0.3755 -1.8325  2.2459
 5158TIP3    H215416   8.196   3.192   0.768  0.1303  1.3599 -0.1274
 5159TIP3   OH215417   2.429   5.788   1.511  0.1154 -0.0143 -0.0855
 5159TIP3    H115418   2.360   5.849   1.483 -0.1330 -0.0284  0.4788
 5159TIP3    H215419   2.494   5.792   1.441 -0.4833 -0.0464 -0.6581
 5160TIP3   OH215420   3.412   2.575   3.248  0.5466 -0.1930  0.2424
 5160TIP3    H115421   3.360   2.584   3.169 -0.4117 -0.2516  0.8470
 5160TIP3    H215422   3.499   2.607   3.224  0.5605 -1.1569 -1.1183
 5161TIP3   OH215423   3.596   0.071   1.538  0.3309  0.1608 -0.5157
 5161TIP3    H115424   3.688   0.056   1.557  0.6945  0.9804 -1.5307
 5161TIP3    H215425   3.549   0.040   1.616  1.4551 -0.2593  0.0035
 5162TIP3   OH215426   7.274   4.106   5.855 -0.1559 -0.3620 -0.0826
 5162TIP3    H115427   7.189   4.137   5.885  0.5784  0.8724  0.7737
 5162TIP3    H215428   7.300   4.168   5.786  0.0070 -0.8015 -0.4255
 5163TIP3   OH215429   2.470   5.049   5.756 -0.4232  0.8158 -0.1211
 5163TIP3    H115430   2.485   5.056   5.851  2.0145 -1.0838 -0.2719
 5163TIP3    H215431   2.513   5.126   5.719  1.3007  0.0310  0.1571
 5164TIP3   OH215432   3.456   4.999   4.705  0.4716 -0.3559 -0.3082
 5164TIP3    H115433   3.488   4.975   4.618 -0.9656  1.8814 -1.5592
 5164TIP3    H215434   3.459   5.095   4.706 -2.0950 -0.1895  1.0385
 5165TIP3   OH215435   0.410   2.130   4.240 -0.0925  0.3413  0.1761
 5165TIP3    H115436   0.438   2.038   4.246 -1.4778 -0.0766  0.8941
 5165TIP3    H215437   0.486   2.176   4.205  0.5591 -1.1208 -0.4490
 5166TIP3   OH215438   5.212   6.737   1.474 -0.2503  0.2348  0.1622
 5166TIP3    H115439   5.250   6.726   1.386 -0.6811  0.5768 -0.0717
 5166TIP3    H215440   5.278   6.786   1.522 -0.6265  1.3467 -0.4206
 5167TIP3   OH215441   2.652   4.268   1.221 -0.7465  0.1452  0.5510
 5167TIP3    H115442   2.721   4.300   1.279 -2.4945  1.2263  2.1321
 5167TIP3    H215443   2.644   4.336   1.154 -0.4315  0.1106  0.4754
 5168TIP3   OH215444   1.781   5.926   6.637 -0.0916  0.2828  0.3070
 5168TIP3    H115445   1.812   6.014   6.616 -0.1862  0.2547  0.0317
 5168TIP3    H215446   1.686   5.936   6.647 -0.0769  0.2494  0.4844
 5169TIP3   OH215447   5.538   4.249   6.724 -0.6247  0.0387  0.2780
 5169TIP3    H115448   5.576   4.336   6.709 -1.6124  0.4419  0.0764
 5169TIP3    H215449   5.609   4.188   6.702 -0.4042  0.7444 -1.0649
 5170TIP3   OH215450   4.290   6.169   3.849  0.0453 -0.4682 -0.8353
 5170TIP3    H115451   4.287   6.263   3.866  0.1790 -0.9858  2.6596
 5170TIP3    H215452   4.380   6.143   3.867 -0.1261 -1.3669 -1.1903
 5171TIP3   OH215453   0.344   2.126   0.892  0.8632 -0.2221  0.4281
 5171TIP3    H115454   0.294   2.142   0.812  0.9390 -1.5660  0.0938
 5171TIP3    H215455   0.433   2.106   0.862  0.7605 -1.2848  0.8073
 5172TIP3   OH215456   5.090   0.844   4.434  0.2610 -0.1485 -0.1203
 5172TIP3    H115457   5.108   0.754   4.463 -1.3967 -0.1349  1.1232
 5172TIP3    H215458   5.097   0.897   4.513  0.3442  0.6770 -0.6692
 5173TIP3   OH215459   4.215   7.468   5.177  0.3881 -0.6337  0.7561
 5173TIP3    H115460   4.189   7.419   5.256  0.7120 -3.1382 -0.5784
 5173TIP3    H215461   4.311   7.462   5.176  0.3120 -2.6012 -0.9051
 5174TIP3   OH215462   1.099   1.310   1.827  0.0629 -0.4418 -0.2300
 5174TIP3    H115463   1.102   1.352   1.741 -1.0463 -0.7955 -0.4581
 5174TIP3    H215464   1.105   1.216   1.808  1.1479 -0.4750  0.1840
 5175TIP3   OH215465   5.871   0.752   1.325  0.0518  0.5871 -0.1189
 5175TIP3    H115466   5.954   0.800   1.319  0.6729 -0.3813  0.5722
 5175TIP3    H215467   5.890   0.678   1.382 -1.1367  0.0162 -0.4422
 5176TIP3   OH215468   5.180   2.870   4.382 -0.3467  0.0349  0.7808
 5176TIP3    H115469   5.224   2.909   4.457 -1.8588 -1.5157  2.5828
 5176TIP3    H215470   5.247   2.863   4.315  1.0379  1.5611  1.9334
 5177TIP3   OH215471   0.747   2.257   3.174  0.1964  0.1501  0.4118
 5177TIP3    H115472   0.747   2.328   3.111  0.5281 -0.2072  0.0042
 5177TIP3    H215473   0.735   2.300   3.259  1.5212  0.8058  0.2942
 5178TIP3   OH215474   2.216   4.221   6.781 -0.3672 -0.0335  0.2082
 5178TIP3    H115475   2.288   4.185   6.729 -0.3884  0.1563  0.0485
 5178TIP3    H215476   2.211   4.313   6.756 -1.4470 -0.3195 -0.6763
 5179TIP3   OH215477   0.092   6.368   3.935  0.2942 -0.0122  0.3657
 5179TIP3    H115478   0.067   6.434   3.870 -0.5077 -0.5145  0.1439
 5179TIP3    H215479   0.012   6.353   3.985  0.1590 -1.5636 -0.2606
 5180TIP3   OH215480   0.326   1.453   1.638  1.1293  0.3999 -0.9158
 5180TIP3    H115481   0.412   1.434   1.601  1.2568 -0.9648  0.0057
 5180TIP3    H215482   0.310   1.382   1.700 -0.0952  1.3328 -0.0997
 5181TIP3   OH215483   6.663   6.547   1.642 -0.3003  0.0234 -0.7341
 5181TIP3    H115484   6.719   6.548   1.720 -0.2269 -0.2211 -0.7820
 5181TIP3    H215485   6.715   6.592   1.575 -0.9784  1.6034 -0.2329
 5182TIP3   OH215486   6.571   6.325   0.269  0.0429  0.0883  0.2510
 5182TIP3    H115487   6.492   6.303   0.319 -0.8457 -0.0715 -1.1752
 5182TIP3    H215488   6.613   6.394   0.321  0.5352 -1.7698  2.5266
 5183TIP3   OH215489   0.785   7.678   3.431  0.2878 -0.1501  0.1427
 5183TIP3    H115490   0.731   7.655   3.507  0.9524  0.1713  0.7229
 5183TIP3    H215491   0.750   7.624   3.360 -2.4431  1.7891 -0.1596
 5184TIP3   OH215492   2.273   7.150   5.147  0.6782 -0.1241  0.8107
 5184TIP3    H115493   2.186   7.113   5.136  0.0185  1.4702  0.3250
 5184TIP3    H215494   2.276   7.180   5.238  0.5428  0.2236  0.7028
 5185TIP3   OH215495   5.850   0.409   0.313  0.3164  0.2752  0.2436
 5185TIP3    H115496   5.934   0.443   0.283 -0.5146  0.0109 -2.6431
 5185TIP3    H215497   5.788   0.480   0.299 -0.2975 -0.2044  0.4517
 5186TIP3   OH215498   4.540   0.887   6.284 -0.1069 -0.1999 -0.9114
 5186TIP3    H115499   4.472   0.839   6.331 -0.0544  1.6624  1.2216
 5186TIP3    H215500   4.491   0.949   6.229 -0.1920  0.6871  0.1273
 5187TIP3   OH215501   7.739   1.237   6.552 -0.7625  0.4510 -0.1916
 5187TIP3    H115502   7.688   1.317   6.566  1.0658  1.7788 -0.6978
 5187TIP3    H215503   7.827   1.260   6.583 -0.7582 -2.2606  2.1779
 5188TIP3   OH215504   7.810   7.312   2.905  0.0186 -0.2629  0.2516
 5188TIP3    H115505   7.753   7.315   2.828 -0.7224  3.4162  0.7763
 5188TIP3    H215506   7.878   7.376   2.887  2.1149 -2.1076  1.1331
 5189TIP3   OH215507   7.499   0.585   0.334  0.5117 -0.5694 -0.2629
 5189TIP3    H115508   7.435   0.516   0.354  1.0601 -1.0532 -0.1709
 5189TIP3    H215509   7.445   0.662   0.316 -0.0851 -0.7221  0.7352
 5190TIP3   OH215510   0.103   7.580   3.127 -0.5144  0.5193 -0.1238
 5190TIP3    H115511   0.142   7.502   3.088 -0.3690 -0.0585  1.1621
 5190TIP3    H215512   0.108   7.566   3.221  0.5044  2.5655  0.1809
 5191TIP3   OH215513   4.462   5.461   1.208  0.1587 -0.1267  0.1484
 5191TIP3    H115514   4.486   5.375   1.174  0.8976  0.3637 -0.6099
 5191TIP3    H215515   4.377   5.480   1.167  0.0758 -0.4109  0.1835
 5192TIP3   OH215516   7.481   7.681   1.583  0.1583  0.3491  0.1448
 5192TIP3    H115517   7.432   7.667   1.664 -1.7142 -0.3306 -1.0330
 5192TIP3    H215518   7.555   7.736   1.609  0.8210 -1.5231  2.6885
 5193TIP3   OH215519   3.626   7.186   2.210  0.7129 -0.1482  0.5635
 5193TIP3    H115520   3.622   7.253   2.278 -0.5381  1.2397 -0.8042
 5193TIP3    H215521   3.609   7.104   2.256 -2.3674  0.9745  1.7048
 5194TIP3   OH215522   3.439   2.717   2.225  0.1822  0.2965  0.1313
 5194TIP3    H115523   3.519   2.684   2.265  0.0892 -0.9064 -0.6171
 5194TIP3    H215524   3.460   2.808   2.201  1.1621  0.1364  0.3454
 5195TIP3   OH215525   5.647   6.144   3.087  0.7840  0.1336 -0.4293
 5195TIP3    H115526   5.648   6.053   3.120 -0.5123 -0.4213 -1.8051
 5195TIP3    H215527   5.573   6.146   3.026  1.0603  2.0254 -0.7452
 5196TIP3   OH215528   1.484   4.179   0.119  0.1932 -0.5367  0.5714
 5196TIP3    H115529   1.459   4.223   0.038  0.4466 -0.1844  0.6832
 5196TIP3    H215530   1.546   4.111   0.091 -1.1933 -1.6977  0.2434
 5197TIP3   OH215531   3.699   2.962   1.498 -0.4172 -0.2883  0.0935
 5197TIP3    H115532   3.676   3.055   1.498  0.8232  0.0504 -0.1120
 5197TIP3    H215533   3.631   2.920   1.446  0.0322  0.8183 -1.4690
 5198TIP3   OH215534   6.964   4.386   6.447  0.1025  0.7316 -0.2102
 5198TIP3    H115535   7.011   4.468   6.428  1.5003  0.0040  0.0115
 5198TIP3    H215536   7.010   4.320   6.394  0.5388 -0.3314  1.4403
 5199TIP3   OH215537   2.625   0.431   6.115  0.1551  0.0337 -0.1466
 5199TIP3    H115538   2.558   0.377   6.074  1.8541 -0.8974 -1.8652
 5199TIP3    H215539   2.620   0.409   6.208 -1.8187 -0.0617 -0.2383
 5200TIP3   OH215540   6.689   0.465   0.177  0.3681 -0.6483 -0.1965
 5200TIP3    H115541   6.730   0.419   0.103  2.3997  0.5124  0.1158
 5200TIP3    H215542   6.758   0.522   0.210 -1.2435  0.6429  1.1018
 5201TIP3   OH215543   3.414   0.169   4.602 -0.0675 -0.8732  0.2798
 5201TIP3    H115544   3.361   0.128   4.670 -0.7081  1.2261  1.1120
 5201TIP3    H215545   3.385   0.127   4.521 -2.4722 -0.3691  0.7979
 5202TIP3   OH215546   6.744   7.422   6.103  0.0880 -0.5546 -0.7482
 5202TIP3    H115547   6.650   7.404   6.095 -0.4226  1.8990 -1.1388
 5202TIP3    H215548   6.749   7.494   6.165  1.3054  2.0122 -3.5755
 5203TIP3   OH215549   5.866   2.022   2.238  0.0502 -0.0829 -0.1422
 5203TIP3    H115550   5.928   2.086   2.205 -0.6228 -0.1807 -1.6665
 5203TIP3    H215551   5.917   1.968   2.299  1.1572  0.5215 -0.5151
 5204TIP3   OH215552   1.571   2.662   2.786 -0.8016  0.2070  0.7554
 5204TIP3    H115553   1.611   2.612   2.857 -1.6770 -0.7872  0.5675
 5204TIP3    H215554   1.528   2.597   2.731  1.3106  0.7246 -1.7233
 5205TIP3   OH215555   0.306   0.447   2.865 -0.0853 -0.0760  0.2787
 5205TIP3    H115556   0.236   0.488   2.916  0.0169  0.7773 -0.2479
 5205TIP3    H215557   0.262   0.379   2.814 -0.7347  1.0734 -0.7676
 5206TIP3   OH215558   4.844   4.390   5.488 -0.2946 -0.1481 -0.1826
 5206TIP3    H115559   4.832   4.330   5.415  1.9633 -1.1465  0.1934
 5206TIP3    H215560   4.765   4.379   5.541 -0.5906 -1.7165 -0.8857
 5207TIP3   OH215561   7.129   1.994   2.516  0.2066 -0.1143 -0.1947
 5207TIP3    H115562   7.042   1.998   2.477  0.2539  0.0548 -0.2847
 5207TIP3    H215563   7.133   2.071   2.573 -0.1195 -0.7253  0.6846
 5208TIP3   OH215564   6.672   7.642   6.254  0.2149  0.7128 -0.1364
 5208TIP3    H115565   6.712   7.623   6.339  0.7552  1.5703 -0.1832
 5208TIP3    H215566   6.627   7.726   6.266 -1.7392 -0.2938 -0.0511
 5209TIP3   OH215567   2.911   0.709   5.860  0.3786  0.4663 -0.2983
 5209TIP3    H115568   2.881   0.763   5.934 -0.4253 -0.4202  0.0469
 5209TIP3    H215569   2.956   0.770   5.802  0.7917  1.2296  0.7981
 5210TIP3   OH215570   4.943   7.065   4.621  0.2102 -0.0364 -0.2874
 5210TIP3    H115571   4.861   7.070   4.669  0.2544 -1.1572 -0.0674
 5210TIP3    H215572   4.996   7.136   4.657 -0.8859  1.1413 -0.9103
 5211TIP3   OH215573   5.927   7.360   1.831  0.1506  0.4352 -0.0827
 5211TIP3    H115574   5.994   7.374   1.898  0.5844  1.0134 -0.6255
 5211TIP3    H215575   5.918   7.265   1.826 -0.2010  0.3833  1.0937
 5212TIP3   OH215576   1.931   7.065   1.539 -0.4625 -0.2267 -0.3769
 5212TIP3    H115577   1.905   7.124   1.609 -1.5803 -1.6400  0.4462
 5212TIP3    H215578   2.022   7.089   1.520 -0.4053  0.7229  0.9835
 5213TIP3   OH215579   2.119   7.826   5.231  0.0973 -0.8818 -0.5539
 5213TIP3    H115580   2.069   7.756   5.274 -1.3629  0.3889 -0.0834
 5213TIP3    H215581   2.205   7.823   5.272 -0.7656 -0.7188  1.4174
 5214TIP3   OH215582   3.184   0.966   6.569  0.2385  0.2150  0.3569
 5214TIP3    H115583   3.092   0.991   6.560 -0.1047 -1.2176 -0.5114
 5214TIP3    H215584   3.189   0.919   6.652  0.0009 -0.3605  0.0560
 5215TIP3   OH215585   0.456   2.753   4.952 -0.0127  0.4203  0.2937
 5215TIP3    H115586   0.545   2.770   4.981  0.8352 -0.3044 -1.6509
 5215TIP3    H215587   0.420   2.692   5.016  1.2641 -0.0946  0.5355
 5216TIP3   OH215588   6.343   6.549   5.858 -0.1891  0.2803  0.0075
 5216TIP3    H115589   6.364   6.555   5.951 -0.6360 -0.1607  0.1386
 5216TIP3    H215590   6.352   6.456   5.837 -0.0287  0.3870 -0.4038
 5217TIP3   OH215591   6.142   6.163   1.005  0.0953 -0.2285 -0.0970
 5217TIP3    H115592   6.148   6.162   0.909  2.0897  0.6152 -0.0433
 5217TIP3    H215593   6.049   6.175   1.023 -0.4315 -1.1482 -1.8972
 5218TIP3   OH215594   5.382   2.648   3.644 -0.3417  0.0938 -0.4698
 5218TIP3    H115595   5.358   2.599   3.565 -1.2645 -1.8201  0.9255
 5218TIP3    H215596   5.300   2.688   3.673  0.3015  2.1454 -1.2969
 5219TIP3   OH215597   4.332   7.420   2.864  0.0149  0.8046  0.5397
 5219TIP3    H115598   4.407   7.361   2.867 -0.4207  0.2736  1.3827
 5219TIP3    H215599   4.322   7.442   2.772  0.4664 -0.0828  0.2729
 5220TIP3   OH215600   6.426   5.952   1.189 -0.6639 -0.0964 -0.4584
 5220TIP3    H115601   6.474   5.919   1.265 -0.9787 -1.0156 -0.6446
 5220TIP3    H215602   6.356   6.005   1.227  1.5330  2.8762 -0.2078
 5221TIP3   OH215603   5.851   0.738   6.642 -0.4542  0.1187 -0.0051
 5221TIP3    H115604   5.912   0.673   6.607  1.0825  1.6536 -0.2784
 5221TIP3    H215605   5.863   0.733   6.737  1.0425  1.2390 -0.1017
 5222TIP3   OH215606   0.853   0.577   0.215  0.1396 -1.0785 -0.0088
 5222TIP3    H115607   0.786   0.562   0.281  0.1123 -0.6286  0.0740
 5222TIP3    H215608   0.931   0.602   0.265  0.0111 -0.3566 -0.1566
 5223TIP3   OH215609   0.398   1.018   1.448  0.0862 -0.3064  0.3294
 5223TIP3    H115610   0.303   1.021   1.445  0.0893 -0.5274 -0.2803
 5223TIP3    H215611   0.418   0.960   1.522 -0.2568 -0.3400  0.3972
 5224TIP3   OH215612   5.826   3.479   5.279  0.0019 -0.3884  0.1540
 5224TIP3    H115613   5.891   3.492   5.349  0.9914 -1.3301 -0.5528
 5224TIP3    H215614   5.742   3.492   5.322  0.5783 -0.9798  1.5448
 5225TIP3   OH215615   1.337   0.617   1.308 -0.1487  0.2082 -0.1140
 5225TIP3    H115616   1.321   0.679   1.379 -0.2800  0.3052 -0.2267
 5225TIP3    H215617   1.413   0.653   1.262  0.0335  0.0598  0.0736
 5226TIP3   OH215618   1.373   6.833   2.149  0.0576 -0.2288  0.1527
 5226TIP3    H115619   1.430   6.870   2.081 -0.4864 -1.5619 -1.0969
 5226TIP3    H215620   1.290   6.880   2.138  0.0911 -0.1666  0.1647
 5227TIP3   OH215621   2.015   6.804   5.085 -0.1710  0.3288  0.6856
 5227TIP3    H115622   2.000   6.712   5.103  0.1282  0.3885  1.2736
 5227TIP3    H215623   1.939   6.849   5.122  0.8170  0.5252  2.6060
 5228TIP3   OH215624   3.328   5.324   2.293  0.7018 -0.1482  0.1862
 5228TIP3    H115625   3.386   5.396   2.270 -0.1512 -0.1282 -2.1266
 5228TIP3    H215626   3.241   5.354   2.269 -0.1718 -0.6623  2.4331
 5229TIP3   OH215627   8.109   3.002   4.126  0.5483 -0.8720 -0.1893
 5229TIP3    H115628   8.165   3.079   4.114 -1.5409  0.7459 -0.1115
 5229TIP3    H215629   8.045   3.007   4.055 -1.5759 -0.6731  1.5938
 5230TIP3   OH215630   2.034   7.619   5.388  0.2824 -0.0079  0.0821
 5230TIP3    H115631   2.113   7.622   5.442  1.6255 -0.8926 -1.7396
 5230TIP3    H215632   2.019   7.526   5.371 -0.9058  0.1774  0.0450
 5231TIP3   OH215633   2.657   0.569   0.080  0.0909  0.1140 -0.2913
 5231TIP3    H115634   2.688   0.588  -0.008  0.2543 -0.5482 -0.3760
 5231TIP3    H215635   2.648   0.655   0.121  1.6985  0.3344 -0.3702
 5232TIP3   OH215636   1.838   2.933   3.068  0.1901 -0.3763 -0.2599
 5232TIP3    H115637   1.749   2.905   3.049  0.5074 -2.9797  1.6748
 5232TIP3    H215638   1.891   2.891   3.000 -0.0540  2.3967 -2.3668
 5233TIP3   OH215639   4.869   3.616   3.673  0.1692  0.0839  0.1180
 5233TIP3    H115640   4.878   3.711   3.667 -1.3933  0.4905  2.4958
 5233TIP3    H215641   4.791   3.596   3.621  1.5274 -0.2355 -1.9123
 5234TIP3   OH215642   5.470   1.146   2.797 -0.1197 -0.0987 -0.7638
 5234TIP3    H115643   5.463   1.126   2.704 -0.4852  1.1652 -1.0229
 5234TIP3    H215644   5.557   1.184   2.807 -0.0585 -0.2830 -0.5697
 5235TIP3   OH215645   0.128   0.708   2.796 -0.3826  0.0254 -0.6774
 5235TIP3    H115646   0.182   0.783   2.770  0.5294 -0.1568  0.6128
 5235TIP3    H215647   0.151   0.640   2.733  0.4804  0.1372 -0.4994
 5236TIP3   OH215648   0.132   2.213   4.190 -0.2000 -0.0361 -0.6580
 5236TIP3    H115649   0.226   2.198   4.205 -0.8142 -2.3037  1.5554
 5236TIP3    H215650   0.106   2.145   4.129 -0.7273 -0.4976  0.0716
 5237TIP3   OH215651   4.726   7.534   0.395 -0.3928 -0.2324 -0.2069
 5237TIP3    H115652   4.782   7.588   0.451  0.0658 -1.2660  0.3808
 5237TIP3    H215653   4.787   7.470   0.357 -0.9963 -0.6763 -0.4397
 5238TIP3   OH215654   0.246   1.591   2.051 -0.0671  0.6042  0.4641
 5238TIP3    H115655   0.243   1.498   2.027 -0.5615  0.2922  1.6381
 5238TIP3    H215656   0.281   1.635   1.974 -2.0897 -0.2292 -1.0187
 5239TIP3   OH215657   6.597   6.505   3.236 -0.1620  0.3414  0.3219
 5239TIP3    H115658   6.527   6.445   3.263 -0.2490  0.6141  0.7181
 5239TIP3    H215659   6.646   6.522   3.317 -0.2161  0.8991  0.2408
 5240TIP3   OH215660   3.396   4.020   0.083 -0.3638  0.0601 -0.1539
 5240TIP3    H115661   3.400   4.006  -0.012  1.4673  0.5560 -0.1996
 5240TIP3    H215662   3.426   3.937   0.120  0.9056  0.5204 -0.1030
 5241TIP3   OH215663   4.164   4.069   2.458 -0.1739  0.2484 -0.1597
 5241TIP3    H115664   4.137   3.981   2.484  0.2300 -0.0697 -0.7723
 5241TIP3    H215665   4.239   4.088   2.515 -0.9017  0.6247  0.6841
 5242TIP3   OH215666   1.920   1.010   0.895 -0.0188  0.0039 -0.2251
 5242TIP3    H115667   1.857   0.968   0.838 -0.5011  2.0913 -1.3152
 5242TIP3    H215668   2.004   0.998   0.851 -0.0110 -0.6662 -0.0254
 5243TIP3   OH215669   3.394   0.599   2.765  0.2625  0.6755 -0.3381
 5243TIP3    H115670   3.299   0.605   2.755 -0.2718 -1.8385  2.0656
 5243TIP3    H215671   3.411   0.629   2.854  1.2314 -1.8838  0.4209
 5244TIP3   OH215672   2.734   5.768   3.710  0.0149  0.2580  0.0280
 5244TIP3    H115673   2.654   5.817   3.693 -0.0445 -0.2250 -1.1829
 5244TIP3    H215674   2.787   5.781   3.632  0.2359 -1.1039 -0.0709
 5245TIP3   OH215675   1.480   4.495   4.044 -0.7667  0.0180 -0.4683
 5245TIP3    H115676   1.463   4.425   4.108 -1.1421 -0.0021 -0.5856
 5245TIP3    H215677   1.413   4.561   4.063  0.2218  0.8257  0.3139
 5246TIP3   OH215678   6.696   5.533   1.557  0.3485 -0.4935  0.1746
 5246TIP3    H115679   6.610   5.559   1.590  0.2277 -0.5027 -0.1285
 5246TIP3    H215680   6.734   5.481   1.628  1.1375  1.5782  1.3605
 5247TIP3   OH215681   3.314   2.248   2.960  0.1179  0.2297 -0.2550
 5247TIP3    H115682   3.383   2.219   2.900  0.6518 -0.2408  0.5684
 5247TIP3    H215683   3.263   2.170   2.978 -2.4024  1.0234 -2.9730
 5248TIP3   OH215684   5.589   4.596   2.738 -0.1524  0.9037  0.5669
 5248TIP3    H115685   5.568   4.552   2.656 -1.2899 -0.6894  1.6340
 5248TIP3    H215686   5.521   4.663   2.747 -0.8468  0.1890  0.8153
 5249TIP3   OH215687   5.915   2.966   1.072  0.5539  0.8721 -0.1388
 5249TIP3    H115688   5.991   2.908   1.070  1.0742  1.5085  0.4457
 5249TIP3    H215689   5.950   3.049   1.104 -0.0238  1.7290 -1.6134
 5250TIP3   OH215690   3.422   0.504   6.745  0.2351 -0.2573 -0.1982
 5250TIP3    H115691   3.438   0.415   6.777 -1.9629 -0.7780 -0.3873
 5250TIP3    H215692   3.437   0.560   6.821 -0.3412 -1.0131  0.4835
 5251TIP3   OH215693   2.457   0.246   3.012 -0.3705  0.0591 -0.0120
 5251TIP3    H115694   2.418   0.272   3.095  0.6816 -1.3490  0.9710
 5251TIP3    H215695   2.530   0.189   3.036  0.2936  0.0377 -1.8884
 5252TIP3   OH215696   3.522   7.456   1.109  0.0528  0.2525 -0.1195
 5252TIP3    H115697   3.615   7.476   1.120  0.5928 -2.0866 -0.0304
 5252TIP3    H215698   3.504   7.471   1.016  0.9291 -0.8030 -0.4687
 5253TIP3   OH215699   7.185   6.650   1.684  0.4206  0.0362 -0.1550
 5253TIP3    H115700   7.096   6.636   1.651  0.5793  1.2587 -1.1759
 5253TIP3    H215701   7.232   6.570   1.659 -0.2813 -0.4551  0.0553
 5254TIP3   OH215702   5.628   3.831   3.057 -0.6592  0.2271  0.2259
 5254TIP3    H115703   5.545   3.822   3.010 -0.6094 -1.5695  0.4140
 5254TIP3    H215704   5.695   3.817   2.990 -0.4709  1.9703  0.0145
 5255TIP3   OH215705   8.046   4.745   6.357  0.2822 -0.2998  0.2993
 5255TIP3    H115706   7.994   4.691   6.297 -0.0702  1.3002 -0.9141
 5255TIP3    H215707   8.020   4.835   6.337  2.8964  0.5368  0.2274
 5256TIP3   OH215708   2.138   1.925   3.967  0.7150  0.3528  0.2608
 5256TIP3    H115709   2.165   1.835   3.949 -0.0767 -0.0742  1.1355
 5256TIP3    H215710   2.043   1.923   3.959  0.6919  1.1123  0.3204
 5257TIP3   OH215711   6.777   1.108   0.175 -0.3860 -0.4282 -0.2508
 5257TIP3    H115712   6.816   1.091   0.089  1.8739 -2.9617  1.1424
 5257TIP3    H215713   6.825   1.183   0.209 -1.1333  0.4381 -1.0121
 5258TIP3   OH215714   1.274   3.628   4.477 -0.0673  0.1488  0.3457
 5258TIP3    H115715   1.365   3.651   4.460 -0.3832 -0.2575 -2.3841
 5258TIP3    H215716   1.279   3.544   4.523  0.9545  0.0582  0.0953
 5259TIP3   OH215717   7.073   5.315   1.351 -0.2070 -0.0675 -0.0918
 5259TIP3    H115718   7.155   5.270   1.370  0.0430  0.7087  0.7352
 5259TIP3    H215719   7.100   5.397   1.310 -0.4562  0.9337  1.6408
 5260TIP3   OH215720   3.542   2.231   4.916 -0.0493  0.1467 -0.1272
 5260TIP3    H115721   3.607   2.240   4.847  1.2641  0.9015  1.1624
 5260TIP3    H215722   3.458   2.239   4.870  0.6698 -1.7317 -1.9468
 5261TIP3   OH215723   0.408   4.159   4.392 -0.0418  0.5097  0.6595
 5261TIP3    H115724   0.375   4.225   4.331 -1.0352  0.4827  1.1607
 5261TIP3    H215725   0.349   4.164   4.467 -1.0439 -1.9558  0.1089
 5262TIP3   OH215726   5.062   6.325   3.444 -0.3249  0.2833 -0.9589
 5262TIP3    H115727   5.022   6.281   3.369  1.1494 -0.1282 -1.5357
 5262TIP3    H215728   5.077   6.414   3.415 -0.2331  0.2642 -0.9720
 5263TIP3   OH215729   4.679   0.799   0.110  0.5330  0.3776  0.2491
 5263TIP3    H115730   4.694   0.709   0.142 -0.7531  0.1510  0.2585
 5263TIP3    H215731   4.655   0.848   0.189 -1.2370  0.1407 -0.0949
 5264TIP3   OH215732   3.861   4.134   0.600  0.6213  0.1419 -0.1837
 5264TIP3    H115733   3.877   4.168   0.688  0.4788  4.1002 -1.4959
 5264TIP3    H215734   3.769   4.107   0.601  0.4583  0.6936  0.7013
 5265TIP3   OH215735   5.466   5.537   5.181  0.1064 -0.0254 -0.6969
 5265TIP3    H115736   5.548   5.518   5.226  0.0180  0.0180 -0.5188
 5265TIP3    H215737   5.481   5.623   5.141  0.5784 -0.5369 -1.6738
 5266TIP3   OH215738   5.465   7.878   1.923  0.0562 -0.4478 -0.0432
 5266TIP3    H115739   5.437   7.860   1.833 -2.2364 -0.9795  0.6954
 5266TIP3    H215740   5.390   7.851   1.977  0.4715  1.8907  1.8765
 5267TIP3   OH215741   1.158   5.894   0.363  0.2773 -0.3900 -0.2740
 5267TIP3    H115742   1.077   5.910   0.412 -0.8706  2.4514 -2.7994
 5267TIP3    H215743   1.214   5.969   0.383  0.7002 -0.3627 -1.5102
 5268TIP3   OH215744   5.016   1.303   2.256  0.2024 -0.5586  0.0785
 5268TIP3    H115745   4.974   1.297   2.342 -0.3853 -0.1432 -0.1736
 5268TIP3    H215746   5.109   1.309   2.275  0.0934 -0.7435  0.6769
 5269TIP3   OH215747   6.933   4.657   5.485  0.4565  0.1450 -0.5209
 5269TIP3    H115748   6.915   4.608   5.566  0.4680 -0.1326 -0.6838
 5269TIP3    H215749   7.022   4.632   5.461  0.3209 -0.0595 -0.8187
 5270TIP3   OH215750   6.513   6.592   5.240 -0.1922 -0.4535 -0.0535
 5270TIP3    H115751   6.434   6.627   5.281 -0.6580 -1.6628  0.1110
 5270TIP3    H215752   6.531   6.653   5.168 -0.7575  0.3284  0.4543
 5271TIP3   OH215753   3.183   7.495   2.300  0.2868 -0.2184  0.4093
 5271TIP3    H115754   3.253   7.501   2.365 -0.1554  2.3946  0.7637
 5271TIP3    H215755   3.215   7.546   2.226  0.5383 -2.6851 -1.3088
 5272TIP3   OH215756   5.180   5.827   0.119 -0.7821  0.5296  0.2604
 5272TIP3    H115757   5.107   5.813   0.179 -0.8910  0.6961  0.1682
 5272TIP3    H215758   5.140   5.829   0.032 -0.7979  1.5411  0.2758
 5273TIP3   OH215759   5.710   7.549   1.160  0.0450 -0.6644  0.0474
 5273TIP3    H115760   5.700   7.518   1.070 -0.0654  1.6440 -0.8002
 5273TIP3    H215761   5.665   7.633   1.161 -0.4907 -0.9235  2.4554
 5274TIP3   OH215762   1.903   6.623   4.126 -0.6573 -0.1785 -1.1484
 5274TIP3    H115763   1.904   6.680   4.203 -0.3826  0.1191 -1.3704
 5274TIP3    H215764   1.955   6.546   4.153 -0.3761  0.0224 -1.1091
 5275TIP3   OH215765   0.557   1.449   2.656  0.0653  0.5223  0.0089
 5275TIP3    H115766   0.491   1.515   2.679 -1.2420 -0.5492 -0.5402
 5275TIP3    H215767   0.607   1.435   2.736 -0.8289  0.8434  0.6295
 5276TIP3   OH215768   2.899   1.928   1.596  0.1419  0.1175 -0.0239
 5276TIP3    H115769   2.924   1.841   1.628  0.7436  0.1125 -0.4959
 5276TIP3    H215770   2.968   1.986   1.627  0.2515  0.2658 -0.5430
 5277TIP3   OH215771   0.733   6.593   6.321 -0.6381 -0.4551 -0.2439
 5277TIP3    H115772   0.813   6.542   6.306 -0.3089  0.2460 -0.9395
 5277TIP3    H215773   0.761   6.663   6.380 -0.3515  0.7022 -1.7070
 5278TIP3   OH215774   7.541   3.766   0.098  0.4590 -0.2129  0.0824
 5278TIP3    H115775   7.506   3.677   0.095 -0.2481 -0.0163  1.6172
 5278TIP3    H215776   7.466   3.821   0.075  0.0762  0.1272  1.9896
 5279TIP3   OH215777   3.364   0.964   2.903  0.2654  0.0916 -0.0936
 5279TIP3    H115778   3.389   0.883   2.948 -0.3374  0.3199  0.6616
 5279TIP3    H215779   3.310   0.935   2.829  0.0462 -0.1940  0.1775
 5280TIP3   OH215780   0.272   0.809   4.696  0.0303  0.7685  0.4696
 5280TIP3    H115781   0.330   0.867   4.646  1.0177  0.0796  0.7837
 5280TIP3    H215782   0.241   0.745   4.631 -0.7297  1.3773  0.2129
 5281TIP3   OH215783   8.135   1.220   1.279 -0.1657 -0.1338 -0.3434
 5281TIP3    H115784   8.138   1.207   1.184 -0.4878  2.3154 -0.7691
 5281TIP3    H215785   8.057   1.172   1.308 -0.2979 -0.5649 -1.3713
 5282TIP3   OH215786   5.792   4.929   2.090  0.1982  0.0575 -0.3302
 5282TIP3    H115787   5.698   4.920   2.107  0.2235 -2.9691 -1.1772
 5282TIP3    H215788   5.822   4.989   2.158 -2.3521  1.2702 -0.1431
 5283TIP3   OH215789   4.640   1.161   5.226  0.3515  0.0728 -1.0796
 5283TIP3    H115790   4.549   1.164   5.195  0.1255  2.2575 -0.3972
 5283TIP3    H215791   4.677   1.244   5.197  1.6458 -0.0799  0.0766
 5284TIP3   OH215792   0.789   2.098   5.341  0.1011 -0.5894 -0.3849
 5284TIP3    H115793   0.702   2.128   5.367  0.0269 -1.1426  0.0238
 5284TIP3    H215794   0.773   2.043   5.264  0.0496 -0.9265 -0.1385
 5285TIP3   OH215795   3.561   5.038   3.917 -0.0024 -0.1850 -0.3803
 5285TIP3    H115796   3.573   5.117   3.970 -0.7282 -1.0733  1.1369
 5285TIP3    H215797   3.593   4.966   3.971  0.3275 -1.0073 -1.6091
 5286TIP3   OH215798   4.499   6.465   3.224 -0.4483  0.0952 -0.3537
 5286TIP3    H115799   4.512   6.510   3.307 -0.7161  1.4809 -1.0306
 5286TIP3    H215800   4.417   6.501   3.190 -1.4623 -1.9739 -0.2699
 5287TIP3   OH215801   3.522   0.767   2.162 -0.1170 -0.6541  0.4144
 5287TIP3    H115802   3.449   0.728   2.114 -0.5857  0.4656  0.2024
 5287TIP3    H215803   3.513   0.861   2.148  1.9780 -0.5385 -0.5032
 5288TIP3   OH215804   6.818   5.466   3.742 -0.4132  0.0966 -0.1869
 5288TIP3    H115805   6.738   5.518   3.739 -0.4010  0.1631  0.4517
 5288TIP3    H215806   6.876   5.514   3.802  0.0806  0.0211 -0.5960
 5289TIP3   OH215807   1.930   7.756   0.231  0.5749  0.8812 -0.0124
 5289TIP3    H115808   1.893   7.760   0.142  0.2096  1.2847  0.1532
 5289TIP3    H215809   1.872   7.811   0.283  0.9951  0.9363  0.4040
 5290TIP3   OH215810   0.332   3.325   3.433 -0.1298 -0.3410  0.2226
 5290TIP3    H115811   0.266   3.255   3.431 -0.6439  0.1644 -0.6824
 5290TIP3    H215812   0.342   3.345   3.526  0.0483 -1.6335  0.5074
 5291TIP3   OH215813   5.976   3.822   2.232  0.4910 -0.1170  0.3064
 5291TIP3    H115814   5.948   3.739   2.271 -0.7007  0.2948  0.3837
 5291TIP3    H215815   5.991   3.802   2.140  1.9556 -0.7908  0.6689
 5292TIP3   OH215816   0.162   4.107   4.174  0.4264 -0.0747 -0.0099
 5292TIP3    H115817   0.199   4.164   4.107 -0.7236  1.3627  0.5164
 5292TIP3    H215818   0.237   4.059   4.210  1.6840  2.1595  0.4997
 5293TIP3   OH215819   5.539   0.536   1.277 -1.0080 -0.2358  0.2163
 5293TIP3    H115820   5.559   0.447   1.245 -0.6466 -0.6795  1.6159
 5293TIP3    H215821   5.614   0.588   1.249 -1.7537 -0.0632 -1.6449
 5294TIP3   OH215822   2.164   4.215   5.090  0.2109  0.1611  0.1560
 5294TIP3    H115823   2.245   4.265   5.092 -0.3352  1.1432 -1.2327
 5294TIP3    H215824   2.107   4.263   5.030  0.5344 -3.3835 -3.4192
 5295TIP3   OH215825   7.294   7.355   4.293 -0.2287  0.4025 -0.1454
 5295TIP3    H115826   7.292   7.419   4.364  3.2947 -0.0397  0.5139
 5295TIP3    H215827   7.228   7.290   4.318  0.4694  0.5767  2.4669
 5296TIP3   OH215828   8.160   6.102   3.938 -0.3638  0.1675  0.3152
 5296TIP3    H115829   8.188   6.140   3.855  0.7247  0.2708  0.7198
 5296TIP3    H215830   8.223   6.033   3.956 -0.0751  0.7109  1.4758
 5297TIP3   OH215831   1.537   6.733   3.011 -0.7715 -0.7024 -0.0927
 5297TIP3    H115832   1.520   6.776   3.095 -1.2851 -0.6127 -0.2433
 5297TIP3    H215833   1.495   6.789   2.946 -0.1787 -0.6456 -0.4388
 5298TIP3   OH215834   4.305   0.058   4.871 -0.3259 -0.1782  0.1502
 5298TIP3    H115835   4.392   0.042   4.834 -0.8553 -1.2119 -0.7352
 5298TIP3    H215836   4.320   0.113   4.948  0.9839  0.6851 -0.6860
 5299TIP3   OH215837   3.111   4.713   2.215  0.2273 -0.2774  0.4782
 5299TIP3    H115838   3.167   4.775   2.262 -0.3266  0.7477 -0.1773
 5299TIP3    H215839   3.037   4.697   2.274  0.2129 -0.0640  0.5165
 5300TIP3   OH215840   6.356   6.217   3.490 -0.1869  0.7171  0.1053
 5300TIP3    H115841   6.321   6.128   3.488  1.0300  0.2177  0.5945
 5300TIP3    H215842   6.280   6.273   3.471 -1.3396 -0.3126  1.5084
 5301TIP3   OH215843   5.281   4.261   6.671 -0.3017  0.3978  0.4524
 5301TIP3    H115844   5.376   4.255   6.674 -0.3490 -0.4141  0.4153
 5301TIP3    H215845   5.253   4.238   6.759 -0.5562 -1.3357 -0.0592
 5302TIP3   OH215846   0.459   1.928   5.351 -0.6695  0.2877  0.0158
 5302TIP3    H115847   0.511   1.935   5.431 -0.1984 -1.0077 -0.1509
 5302TIP3    H215848   0.450   2.018   5.320  0.0618  0.6976  0.9403
 5303TIP3   OH215849   0.648   6.161   2.115  0.0557  0.5371  0.5779
 5303TIP3    H115850   0.696   6.187   2.193  1.4725 -1.2481  0.3750
 5303TIP3    H215851   0.714   6.157   2.046 -0.5939 -0.6986 -0.0131
 5304TIP3   OH215852   1.574   2.794   4.471 -0.4140  0.1971  0.1468
 5304TIP3    H115853   1.624   2.718   4.500 -0.6831 -0.0058  0.0875
 5304TIP3    H215854   1.638   2.865   4.464 -0.2418  0.0954  0.6534
 5305TIP3   OH215855   7.772   4.172   3.842 -0.2360  0.0684  0.2865
 5305TIP3    H115856   7.698   4.217   3.882 -1.9128 -0.0650 -2.3996
 5305TIP3    H215857   7.745   4.080   3.838  0.1283 -0.0087 -0.5540
 5306TIP3   OH215858   8.359   4.330   1.377 -0.3950 -0.0649  0.2373
 5306TIP3    H115859   8.352   4.348   1.283  2.8220  0.2985 -0.0517
 5306TIP3    H215860   8.443   4.284   1.386  0.4795  1.8607  3.1258
 5307TIP3   OH215861   1.580   0.021   2.338 -0.7727 -0.4899  0.3961
 5307TIP3    H115862   1.520   0.039   2.266 -0.2421  0.4925  0.1912
 5307TIP3    H215863   1.660  -0.010   2.296 -1.0268 -1.5475  0.6579
 5308TIP3   OH215864   1.119   5.237   2.262  0.2591  0.0952 -0.3384
 5308TIP3    H115865   1.199   5.275   2.225  0.6926  0.1827  0.6609
 5308TIP3    H215866   1.148   5.193   2.342 -0.0768 -2.9827 -1.7391
 5309TIP3   OH215867   2.141   6.306   0.726  0.6819 -0.0145  0.4288
 5309TIP3    H115868   2.151   6.269   0.814  1.1814 -1.1979 -0.0965
 5309TIP3    H215869   2.076   6.250   0.684 -0.5359  1.3474  0.4522
 5310TIP3   OH215870   2.867   7.214   2.593 -0.0136  0.3335 -0.5126
 5310TIP3    H115871   2.906   7.299   2.575  1.4026  0.0921  1.1612
 5310TIP3    H215872   2.804   7.230   2.663  1.1159 -0.1296  0.6571
 5311TIP3   OH215873   2.378   4.708   6.785 -0.0169  0.2057 -0.4297
 5311TIP3    H115874   2.418   4.671   6.706  1.3438  0.3781  0.1643
 5311TIP3    H215875   2.299   4.752   6.752  0.1021 -0.3796 -1.5825
 5312TIP3   OH215876   2.205   2.137   3.327  0.0975  0.1545  0.1173
 5312TIP3    H115877   2.220   2.064   3.386  1.8298  0.3303 -0.0409
 5312TIP3    H215878   2.112   2.156   3.334 -0.1280 -1.2292  1.1292
 5313TIP3   OH215879   4.561   6.685   0.098 -0.2949  0.2981 -0.1148
 5313TIP3    H115880   4.615   6.659   0.024 -0.8244 -0.6832 -0.1735
 5313TIP3    H215881   4.473   6.654   0.077 -0.5928  0.6111  0.6115
 5314TIP3   OH215882   6.344   1.632   0.186 -0.0036  0.6744 -0.2196
 5314TIP3    H115883   6.342   1.606   0.279 -0.1625 -0.0096 -0.4130
 5314TIP3    H215884   6.345   1.550   0.138  2.1121  0.9855 -0.8043
 5315TIP3   OH215885   2.964   4.391   2.281  0.0407  0.5821 -0.5061
 5315TIP3    H115886   2.898   4.434   2.228  0.9077  1.0532 -1.2335
 5315TIP3    H215887   2.934   4.403   2.371 -1.7886 -0.8018 -0.8690
 5316TIP3   OH215888   6.010   5.589   4.402  0.3147  0.5449  0.0285
 5316TIP3    H115889   6.017   5.570   4.496 -0.7670 -1.7700 -0.3001
 5316TIP3    H215890   5.985   5.505   4.363 -2.5405  2.1643 -1.9370
 5317TIP3   OH215891   5.027   2.525   6.122 -0.0219 -0.0127 -0.3865
 5317TIP3    H115892   4.973   2.571   6.187  1.4363  0.3130  0.6493
 5317TIP3    H215893   5.007   2.568   6.039 -0.6685  0.7012  0.1224
 5318TIP3   OH215894   1.645   2.557   1.920 -0.1399  0.5266  0.1152
 5318TIP3    H115895   1.716   2.614   1.890 -0.1008  0.4967  0.1495
 5318TIP3    H215896   1.689   2.475   1.943 -0.2884  0.2355 -0.6203
 5319TIP3   OH215897   1.747   7.785   2.631  0.8736  0.1021 -0.6219
 5319TIP3    H115898   1.661   7.778   2.590  0.4707  2.4381 -0.3511
 5319TIP3    H215899   1.773   7.695   2.650 -0.5731 -0.7930 -2.5766
 5320TIP3   OH215900   6.167   0.652  -0.021 -0.5681 -0.4012  0.8772
 5320TIP3    H115901   6.234   0.693   0.033  0.0228 -1.6855  1.1457
 5320TIP3    H215902   6.086   0.698   0.002 -0.1675 -0.3233  2.1761
 5321TIP3   OH215903   3.309   6.035   0.752 -0.6634 -0.2687 -0.2696
 5321TIP3    H115904   3.274   5.954   0.790  2.1900 -1.8584 -0.7786
 5321TIP3    H215905   3.349   6.081   0.825 -2.9060  1.1711  0.1636
 5322TIP3   OH215906   1.901   4.742   5.549  0.8386 -0.7027  0.3442
 5322TIP3    H115907   1.818   4.728   5.505  1.2126 -0.2725 -0.5210
 5322TIP3    H215908   1.889   4.704   5.636 -0.4486 -0.1584  0.4275
 5323TIP3   OH215909   0.265   4.205   0.599 -0.0629  0.0126 -0.3035
 5323TIP3    H115910   0.228   4.194   0.512 -0.0419 -0.8770 -0.2130
 5323TIP3    H215911   0.336   4.269   0.588 -2.3848  2.8061 -0.2528
 5324TIP3   OH215912   4.827   4.499   2.320 -0.5759 -0.0464 -0.3568
 5324TIP3    H115913   4.843   4.579   2.368  1.2400 -0.4549 -0.2220
 5324TIP3    H215914   4.859   4.517   2.231 -0.1749 -0.6026 -0.3299
 5325TIP3   OH215915   4.534   6.328   1.076 -0.1501 -0.3773  0.3175
 5325TIP3    H115916   4.459   6.374   1.114 -0.4541  0.0861 -0.8190
 5325TIP3    H215917   4.582   6.295   1.152 -2.2672 -1.9664  1.0944
 5326TIP3   OH215918   3.536   0.901   5.972 -0.0061 -0.2523 -0.0633
 5326TIP3    H115919   3.559   0.978   5.920 -0.1824  0.1713  0.4652
 5326TIP3    H215920   3.613   0.844   5.966  1.4065  1.2600  1.8955
 5327TIP3   OH215921   6.758   5.068   1.856  0.0216  0.1239  0.2489
 5327TIP3    H115922   6.807   5.046   1.777  0.5533 -1.1784  0.9095
 5327TIP3    H215923   6.709   4.988   1.877 -0.4632  0.6027  0.9772
 5328TIP3   OH215924   8.080   5.588   4.412 -0.4815  0.2030 -0.3377
 5328TIP3    H115925   8.019   5.661   4.405  0.1716  0.6724 -1.2634
 5328TIP3    H215926   8.025   5.510   4.400 -0.7155  0.6642 -2.6774
 5329TIP3   OH215927   3.300   3.322   0.293  0.8687  0.3030 -0.0944
 5329TIP3    H115928   3.310   3.246   0.350 -1.6464 -1.2135 -1.5037
 5329TIP3    H215929   3.362   3.307   0.221  0.9704 -0.0038  0.0570
 5330TIP3   OH215930   6.383   3.607   0.735  0.0419 -0.2403 -0.2518
 5330TIP3    H115931   6.290   3.600   0.758  0.0251 -1.3673 -0.6020
 5330TIP3    H215932   6.383   3.617   0.640  0.3041 -1.3680 -0.3839
 5331TIP3   OH215933   2.143   2.761   6.047 -0.2444  0.5333 -0.5051
 5331TIP3    H115934   2.233   2.776   6.074 -0.1628  2.2394 -1.5689
 5331TIP3    H215935   2.090   2.800   6.117 -0.1096  1.0457 -0.6817
 5332TIP3   OH215936   5.686   7.179   6.230 -0.2417  0.2983  0.3116
 5332TIP3    H115937   5.707   7.216   6.144  2.1191  0.7236  1.0176
 5332TIP3    H215938   5.737   7.099   6.235  1.5743  1.4941  2.2107
 5333TIP3   OH215939   4.366   5.446   4.333  0.1202  0.4533 -0.4176
 5333TIP3    H115940   4.434   5.513   4.342 -0.0166  0.7662 -1.5579
 5333TIP3    H215941   4.293   5.479   4.386  1.1163 -0.3102  1.5519
 5334TIP3   OH215942   5.828   5.941   3.695 -0.4268 -0.4335 -0.3392
 5334TIP3    H115943   5.771   5.864   3.692 -2.2548  0.8838 -2.3123
 5334TIP3    H215944   5.786   6.000   3.758  0.0071 -0.3526 -0.1207
 5335TIP3   OH215945   2.943   6.694   6.478 -0.3295  0.4902 -0.3250
 5335TIP3    H115946   2.987   6.648   6.550 -0.3864  2.2844  0.9108
 5335TIP3    H215947   2.852   6.701   6.508 -0.1196  2.2551  0.0013
 5336TIP3   OH215948   8.051   5.384   1.789 -0.5028  0.1561 -0.0140
 5336TIP3    H115949   8.110   5.332   1.734 -0.8639  1.0068 -1.2501
 5336TIP3    H215950   8.109   5.426   1.853  0.2630  1.0013 -1.2254
 5337TIP3   OH215951   5.738   7.627   5.178  0.1686  0.7769  0.2673
 5337TIP3    H115952   5.654   7.625   5.224  0.0453  0.0902  0.0093
 5337TIP3    H215953   5.803   7.641   5.248  0.1919 -2.2686  0.9818
 5338TIP3   OH215954   4.343   6.954   0.131  0.3763  0.0168 -0.1775
 5338TIP3    H115955   4.437   6.970   0.119  0.6549 -1.0793  0.3729
 5338TIP3    H215956   4.308   6.949   0.042  0.4608  2.3019 -0.4045
 5339TIP3   OH215957   1.046   1.892   4.601  0.1239 -0.1774  0.3167
 5339TIP3    H115958   1.135   1.883   4.634 -0.5272 -0.0670  2.2770
 5339TIP3    H215959   0.992   1.898   4.680 -1.6015 -0.0207 -0.8130
 5340TIP3   OH215960   3.848   0.159   1.918 -0.9550 -0.3708 -0.2807
 5340TIP3    H115961   3.820   0.091   1.856 -0.5342  1.7444 -2.9817
 5340TIP3    H215962   3.848   0.240   1.867 -1.5326  1.7614  2.8002
 5341TIP3   OH215963   0.215   2.230   2.662  0.1252  0.0556  0.3084
 5341TIP3    H115964   0.252   2.145   2.687  0.7670  0.6028  1.2972
 5341TIP3    H215965   0.292   2.284   2.641 -0.0970  1.0776  1.9479
 5342TIP3   OH215966   5.296   4.211   4.732 -0.2630  0.4089  0.0728
 5342TIP3    H115967   5.341   4.131   4.703 -3.8265 -2.2902  1.2943
 5342TIP3    H215968   5.265   4.251   4.651  0.4631 -0.1161 -0.4839
 5343TIP3   OH215969   3.147   6.824   4.088 -0.3968 -0.1978  0.0115
 5343TIP3    H115970   3.211   6.865   4.029  0.9889 -2.5900 -0.2823
 5343TIP3    H215971   3.186   6.830   4.175 -0.9475  0.4868  0.2225
 5344TIP3   OH215972   7.034   6.725   0.494 -0.0879  0.0688  0.2146
 5344TIP3    H115973   7.107   6.665   0.512 -1.2118 -1.5592 -0.3611
 5344TIP3    H215974   7.018   6.769   0.577  0.5257 -0.7222  0.7707
 5345TIP3   OH215975   4.804   0.866   3.309 -0.9160 -0.1559  0.3839
 5345TIP3    H115976   4.861   0.936   3.342 -0.9037  1.4889 -2.7762
 5345TIP3    H215977   4.864   0.796   3.285 -0.7903 -0.6750  2.0473
 5346TIP3   OH215978   4.022   4.232   6.799 -0.7081  0.1297 -0.4166
 5346TIP3    H115979   3.994   4.323   6.807 -0.6236  0.0595  0.8340
 5346TIP3    H215980   4.074   4.216   6.877  0.3871 -0.6135 -1.2650
 5347TIP3   OH215981   3.974   7.513   2.879  0.3276 -0.1548 -0.1325
 5347TIP3    H115982   3.901   7.524   2.940 -1.3452  0.4452 -2.1261
 5347TIP3    H215983   4.049   7.493   2.935 -1.0385  0.6151  2.1160
 5348TIP3   OH215984   4.810   3.156   2.115  0.6719  0.8988  0.2639
 5348TIP3    H115985   4.776   3.191   2.198 -0.5887  1.4028 -0.4481
 5348TIP3    H215986   4.897   3.195   2.107  0.6768  1.1014  1.1879
 5349TIP3   OH215987   5.869   6.159   0.994  0.0783 -0.2434  0.1781
 5349TIP3    H115988   5.798   6.119   1.045 -0.5716  0.6911  0.0313
 5349TIP3    H215989   5.899   6.090   0.936 -0.5457 -0.7284  0.4256
 5350TIP3   OH215990   1.790   5.674   2.801  0.2318 -0.1918  0.2741
 5350TIP3    H115991   1.724   5.696   2.867  1.1454  1.7366  0.6158
 5350TIP3    H215992   1.873   5.676   2.849  0.6648 -1.4969 -0.3781
 5351TIP3   OH215993   2.986   4.848   5.859  0.1050  0.0240  0.3233
 5351TIP3    H115994   2.945   4.819   5.778  3.2224 -0.7380 -1.1246
 5351TIP3    H215995   2.967   4.942   5.864  0.0782  0.1398 -1.4667
 5352TIP3   OH215996   3.271   2.048   0.978  0.1045 -0.4103  0.4121
 5352TIP3    H115997   3.290   1.994   0.902 -0.6299  1.2027 -0.9692
 5352TIP3    H215998   3.188   2.015   1.012  0.1811 -0.8031  0.2208
 5353TIP3   OH215999   5.516   5.927   0.450  0.1548  0.5299 -0.4909
 5353TIP3    H116000   5.602   5.901   0.416 -0.3383  0.3525 -1.6479
 5353TIP3    H216001   5.535   5.972   0.532  1.2344 -1.0494  0.1657
 5354TIP3   OH216002   1.123   1.869   3.728  0.0585  0.0013 -0.1506
 5354TIP3    H116003   1.071   1.815   3.669 -0.7179  0.2623  0.2784
 5354TIP3    H216004   1.109   1.830   3.814 -0.3398  0.7353  0.1350
 5355TIP3   OH216005   4.930   1.682   4.489  0.2302  0.4935  0.0797
 5355TIP3    H116006   4.917   1.597   4.449 -0.0582 -0.8481  2.8008
 5355TIP3    H216007   4.995   1.667   4.558  1.4351  2.8703 -0.4184
 5356TIP3   OH216008   1.013   4.655   4.141  0.1121  0.5134 -0.0344
 5356TIP3    H116009   0.970   4.716   4.201 -0.7349 -1.7742  1.8557
 5356TIP3    H216010   0.978   4.569   4.166  2.9388 -1.0349 -0.9821
 5357TIP3   OH216011   2.075   7.478   2.499  0.0616  0.0114 -0.5728
 5357TIP3    H116012   2.004   7.428   2.458 -2.7638  0.4473  3.2903
 5357TIP3    H216013   2.134   7.412   2.536  0.3112 -0.3443 -1.5614
 5358TIP3   OH216014   3.414   6.810   3.022  0.1633  0.0130  0.1321
 5358TIP3    H116015   3.414   6.897   3.061 -1.9025  0.4495 -0.7008
 5358TIP3    H216016   3.352   6.760   3.075  0.8195 -0.7537  0.1847
 5359TIP3   OH216017   5.168   6.944   2.144 -0.0771  0.1184 -0.7789
 5359TIP3    H116018   5.142   7.013   2.205  0.6895  0.0629 -0.3834
 5359TIP3    H216019   5.125   6.865   2.178  1.9345 -0.3363  0.8873
 5360TIP3   OH216020   6.169   6.349   6.014 -0.5583  0.1373  0.6620
 5360TIP3    H116021   6.153   6.434   5.973 -1.3772 -0.4640 -0.3187
 5360TIP3    H216022   6.242   6.312   5.964 -0.5944  0.0124  0.7024
 5361TIP3   OH216023   7.125   7.835   0.889  1.0778  0.3121  0.4187
 5361TIP3    H116024   7.035   7.812   0.865  1.5855 -0.1170 -1.2279
 5361TIP3    H216025   7.129   7.821   0.983 -0.6763  0.6852  0.5877
 5362TIP3   OH216026   7.535   0.200   5.842  0.3666  0.1321 -0.8195
 5362TIP3    H116027   7.458   0.213   5.787  0.1122 -1.8343 -0.9822
 5362TIP3    H216028   7.500   0.186   5.930  0.6424  0.8723 -0.5862
 5363TIP3   OH216029   3.689   0.139   0.502  0.1430 -0.0868 -0.1100
 5363TIP3    H116030   3.657   0.076   0.567  0.4201 -0.5716 -0.4375
 5363TIP3    H216031   3.778   0.109   0.482  0.3191  0.4706 -0.1966
 5364TIP3   OH216032   6.124   1.790   1.363  0.1412  0.1824 -0.1972
 5364TIP3    H116033   6.212   1.827   1.361  0.5702 -0.7608  0.4454
 5364TIP3    H216034   6.126   1.727   1.435 -0.5409 -1.0993 -1.2592
 5365TIP3   OH216035   6.597   2.029   3.668 -0.1107  0.7032  0.7308
 5365TIP3    H116036   6.551   2.113   3.657 -0.9976  0.3795  1.8207
 5365TIP3    H216037   6.689   2.051   3.652 -0.3799  1.7943  0.5487
 5366TIP3   OH216038   2.258   4.390   2.591 -0.3279  0.5661 -0.3716
 5366TIP3    H116039   2.239   4.475   2.631  0.1063  0.1065  0.8748
 5366TIP3    H216040   2.347   4.369   2.621  0.0464  0.2144 -1.6578
 5367TIP3   OH216041   7.118   1.905   5.969  0.0584 -0.0694 -0.2128
 5367TIP3    H116042   7.134   1.811   5.969  0.3469 -0.0338 -1.1152
 5367TIP3    H216043   7.022   1.913   5.963 -0.1255 -0.2826  1.8725
 5368TIP3   OH216044   4.926   5.593   2.125 -0.4204  0.1067 -0.4443
 5368TIP3    H116045   4.926   5.559   2.035  0.7715  0.9403 -0.7868
 5368TIP3    H216046   4.861   5.663   2.123 -0.4957  0.0348 -0.6186
 5369TIP3   OH216047   3.095   3.618   5.253  0.3110  0.1699  0.2511
 5369TIP3    H116048   3.132   3.704   5.273  1.5372 -0.5267  1.0974
 5369TIP3    H216049   3.075   3.622   5.159  1.8608  0.8417 -0.0820
 5370TIP3   OH216050   6.986   6.971   4.581 -0.1578  0.1442 -0.4460
 5370TIP3    H116051   7.044   7.030   4.533 -0.4112  0.1268 -0.7780
 5370TIP3    H216052   7.010   6.983   4.672 -1.3482  2.0373 -0.3293
 5371TIP3   OH216053   3.238   7.460   6.329  0.0960 -0.1887 -0.1186
 5371TIP3    H116054   3.157   7.496   6.292  1.2936  0.8745 -1.8639
 5371TIP3    H216055   3.257   7.515   6.405 -0.9080 -0.5801  0.4306
 5372TIP3   OH216056   5.924   6.098   2.641  0.1581  0.2363  0.6896
 5372TIP3    H116057   5.995   6.161   2.631 -0.7267  1.3204  1.0035
 5372TIP3    H216058   5.844   6.151   2.635 -0.7298 -1.2168 -1.9064
 5373TIP3   OH216059   8.242   5.663   6.288  0.1035 -0.0368 -0.0998
 5373TIP3    H116060   8.300   5.680   6.213 -0.2431  1.4695 -0.0554
 5373TIP3    H216061   8.244   5.568   6.298  0.1746 -0.2833 -2.0073
 5374TIP3   OH216062   0.030   1.431   5.388  0.0323 -0.6248  0.1755
 5374TIP3    H116063  -0.027   1.479   5.328 -2.3646 -2.1198  1.0820
 5374TIP3    H216064   0.010   1.467   5.475  0.0419 -1.5456  0.5776
 5375TIP3   OH216065   0.339   6.859   0.046 -0.1062 -0.3742  0.0176
 5375TIP3    H116066   0.391   6.891   0.119  0.6822 -1.4434 -0.0586
 5375TIP3    H216067   0.257   6.908   0.052  0.3494  0.2995  0.9883
 5376TIP3   OH216068   5.827   2.351   2.761 -0.2443 -0.4835  0.2167
 5376TIP3    H116069   5.747   2.382   2.718 -0.9809 -1.4266  0.8589
 5376TIP3    H216070   5.885   2.326   2.690 -1.2995 -1.6757 -0.2576
 5377TIP3   OH216071   7.787   2.861   5.899  0.3707 -0.1671  0.4035
 5377TIP3    H116072   7.821   2.923   5.962 -1.7636  1.0315  0.4746
 5377TIP3    H216073   7.754   2.914   5.827 -1.2772 -1.1963  0.3389
 5378TIP3   OH216074   3.971   5.160   1.759  0.0970 -0.1189 -0.2658
 5378TIP3    H116075   3.947   5.168   1.852  1.3896 -0.3046  0.0937
 5378TIP3    H216076   3.915   5.225   1.715  2.4984  3.2412  1.1834
 5379TIP3   OH216077   5.374   5.279   6.823  0.0120 -0.3744 -0.4864
 5379TIP3    H116078   5.288   5.268   6.863  0.3518  0.0074  0.3763
 5379TIP3    H216079   5.407   5.362   6.858 -0.0143  0.4221 -2.2135
 5380TIP3   OH216080   6.406   1.804   2.197 -0.4231 -0.2019  0.3886
 5380TIP3    H116081   6.342   1.733   2.195 -0.4149 -0.2222 -2.0951
 5380TIP3    H216082   6.358   1.880   2.163  0.4475  0.1333 -0.1194
 5381TIP3   OH216083   1.103   2.456   1.464 -0.2272 -0.0229 -0.1899
 5381TIP3    H116084   1.168   2.499   1.519 -0.7449  0.8798 -0.2695
 5381TIP3    H216085   1.023   2.507   1.476 -0.9681 -1.2067  0.0144
 5382TIP3   OH216086   7.581   4.704   5.818  0.3559 -0.6251 -0.5712
 5382TIP3    H116087   7.653   4.737   5.873  1.1874 -1.0314 -1.3868
 5382TIP3    H216088   7.563   4.617   5.853 -0.6117 -0.0418  0.4330
 5383TIP3   OH216089   0.408   6.761   3.681 -0.3746 -0.9076  0.4447
 5383TIP3    H116090   0.430   6.669   3.695  0.7049 -0.8162 -0.5035
 5383TIP3    H216091   0.360   6.786   3.760  1.5797 -1.5585  1.9320
 5384TIP3   OH216092   2.679   2.211   4.023  0.1718  0.4429  0.0681
 5384TIP3    H116093   2.732   2.287   4.045  1.1622 -0.7129  1.9721
 5384TIP3    H216094   2.731   2.136   4.051 -1.0420 -0.9244 -1.1471
 5385TIP3   OH216095   6.327   6.283  -0.001 -0.3002 -0.6625 -0.8152
 5385TIP3    H116096   6.277   6.306   0.077  1.4554 -2.5602  0.9669
 5385TIP3    H216097   6.374   6.363  -0.024 -1.7287  0.2527 -0.7048
 5386TIP3   OH216098   5.108   2.707   3.735 -0.5892  1.1100 -0.0294
 5386TIP3    H116099   5.090   2.729   3.826  0.9622  3.1237 -0.1376
 5386TIP3    H216100   5.024   2.721   3.690 -1.1355  0.9759  0.9307
 5387TIP3   OH216101   3.204   3.001   0.452 -0.1016 -0.5071  0.7101
 5387TIP3    H116102   3.124   2.982   0.403  0.4837 -2.7973  0.5197
 5387TIP3    H216103   3.274   2.967   0.397  0.7315 -1.5102  2.3199
 5388TIP3   OH216104   5.883   1.278   5.809  0.0238  0.4730  0.4848
 5388TIP3    H116105   5.907   1.217   5.739  1.6022  2.3382 -0.6974
 5388TIP3    H216106   5.953   1.268   5.874 -0.0038  0.6734  0.5436
 5389TIP3   OH216107   5.030   3.241   0.850 -0.2091  0.5596  0.2062
 5389TIP3    H116108   5.018   3.298   0.926  1.9835  3.5770 -1.5091
 5389TIP3    H216109   5.124   3.240   0.834 -0.5579 -0.0950 -2.3372
 5390TIP3   OH216110   4.409   2.666   0.941  1.0981 -0.3221  0.0057
 5390TIP3    H116111   4.498   2.636   0.923  0.8121 -1.9007  1.0198
 5390TIP3    H216112   4.377   2.606   1.008 -1.4248 -0.9873 -1.6796
 5391TIP3   OH216113   1.773   4.866   6.324 -0.1668 -0.4330  0.9145
 5391TIP3    H116114   1.750   4.794   6.383 -0.8717  0.4693  1.7864
 5391TIP3    H216115   1.734   4.841   6.240 -0.2086 -1.1700  1.1440
 5392TIP3   OH216116   2.807   5.450   1.110 -0.1506  0.2954  0.2150
 5392TIP3    H116117   2.847   5.455   1.024  0.5146  0.8715  0.5497
 5392TIP3    H216118   2.758   5.532   1.118  0.2560  0.5029  0.6081
 5393TIP3   OH216119   0.564   1.971   2.242 -0.0376  0.3312 -0.4162
 5393TIP3    H116120   0.520   1.906   2.186 -0.3231  0.0590  0.1123
 5393TIP3    H216121   0.495   2.000   2.303 -0.0787  1.5715 -1.0099
 5394TIP3   OH216122   4.201   2.718   1.162 -0.0822 -0.2099  0.3032
 5394TIP3    H116123   4.248   2.689   1.240  1.4407 -0.0639 -0.5183
 5394TIP3    H216124   4.122   2.760   1.196  0.6091 -0.0189  1.7759
 5395TIP3   OH216125   4.096   0.697   0.238  0.3227 -0.0871 -0.3742
 5395TIP3    H116126   4.069   0.706   0.330 -1.1584 -0.2407 -0.7712
 5395TIP3    H216127   4.166   0.762   0.227 -0.3712  0.8445  0.5363
 5396TIP3   OH216128   8.393   2.842   2.333 -0.0541 -0.0089 -0.0352
 5396TIP3    H116129   8.331   2.789   2.383  0.3104  0.9658  1.5190
 5396TIP3    H216130   8.339   2.899   2.280 -0.4658 -0.6051 -0.2568
 5397TIP3   OH216131   2.417   0.634   0.320 -0.3281 -0.4604  0.3583
 5397TIP3    H116132   2.471   0.556   0.324  1.0013  0.3926 -0.2688
 5397TIP3    H216133   2.342   0.609   0.266  0.1438 -1.2501  0.0525
 5398TIP3   OH216134   1.104   0.431   4.055 -0.4666 -0.1983  0.4002
 5398TIP3    H116135   1.028   0.466   4.101 -1.9623 -1.9322 -0.5769
 5398TIP3    H216136   1.165   0.405   4.124 -0.3836  1.9081  1.1812
 5399TIP3   OH216137   2.228   1.626   3.307 -0.2937  0.4135 -0.4776
 5399TIP3    H116138   2.255   1.614   3.398  1.5720  0.8620 -0.9214
 5399TIP3    H216139   2.160   1.694   3.311 -0.4139  0.2563  0.5912
 5400TIP3   OH216140   5.946   4.567   1.918 -0.3068 -0.6144 -0.2430
 5400TIP3    H116141   5.972   4.556   1.827  0.0456  0.8017 -0.3351
 5400TIP3    H216142   5.963   4.659   1.937 -1.7861 -0.5099  0.8065
 5401TIP3   OH216143   7.430   4.532   0.331 -0.6110  0.0193 -0.0459
 5401TIP3    H116144   7.369   4.606   0.326  1.4383  1.7412 -0.5416
 5401TIP3    H216145   7.491   4.545   0.259  0.5242 -1.5248  0.5791
 5402TIP3   OH216146   3.001   0.166   0.002 -0.3077  0.3176  0.0656
 5402TIP3    H116147   3.003   0.124   0.088 -2.4759 -1.1300 -0.5024
 5402TIP3    H216148   2.999   0.260   0.021  2.1611  0.1866  1.4455
 5403TIP3   OH216149   0.046   5.573   3.828  0.1402 -0.1956  0.4330
 5403TIP3    H116150   0.069   5.666   3.826  0.0006 -0.1713 -0.7705
 5403TIP3    H216151   0.116   5.530   3.778  0.3284 -0.7716  1.1808
 5404TIP3   OH216152   6.639   2.217   0.057  0.2018  0.3686 -0.2376
 5404TIP3    H116153   6.648   2.259   0.143 -1.3365 -0.4078  0.3427
 5404TIP3    H216154   6.578   2.273   0.009 -0.2135 -0.0628 -0.2215
 5405TIP3   OH216155   5.494   6.737   5.873 -0.3425 -0.5577 -0.3842
 5405TIP3    H116156   5.473   6.710   5.962  2.1444 -0.6848  0.2395
 5405TIP3    H216157   5.441   6.680   5.817 -1.2919 -1.0577  0.9790
 5406TIP3   OH216158   1.911   2.171   5.984 -0.8001 -0.3259 -0.3071
 5406TIP3    H116159   2.004   2.182   6.004 -0.2981 -2.6146 -1.0928
 5406TIP3    H216160   1.867   2.202   6.064  0.4919  2.0251 -0.3963
 5407TIP3   OH216161   3.047   4.533   0.447  0.0558 -0.6710 -0.1881
 5407TIP3    H116162   3.056   4.452   0.396 -0.7415 -0.7977 -0.1475
 5407TIP3    H216163   2.955   4.533   0.474  0.1574  0.0448  0.1617
 5408TIP3   OH216164   2.426   6.814   1.410 -0.6548  0.2629 -0.7858
 5408TIP3    H116165   2.467   6.893   1.445 -0.3008  0.1618 -0.9668
 5408TIP3    H216166   2.468   6.742   1.458  0.3988  0.0695 -1.9196
 5409TIP3   OH216167   5.586   4.065   2.349  0.7063 -0.4373  0.0522
 5409TIP3    H116168   5.514   4.026   2.398  0.9381 -0.1714  0.6228
 5409TIP3    H216169   5.608   4.001   2.282 -1.6825  0.5022 -1.7643
 5410TIP3   OH216170   6.184   4.564   5.273  0.2820 -0.2004 -0.3015
 5410TIP3    H116171   6.259   4.611   5.237 -0.3812 -0.2281 -1.8037
 5410TIP3    H216172   6.186   4.584   5.367 -0.7891  4.0803 -0.9978
 5411TIP3   OH216173   1.862   3.192   5.647  0.3315  0.0104  0.1035
 5411TIP3    H116174   1.770   3.164   5.645  0.4479 -0.3994  0.3798
 5411TIP3    H216175   1.911   3.117   5.613  0.7242 -0.5034  1.7008
 5412TIP3   OH216176   1.641   5.891   0.618 -0.1940  0.6257  0.1025
 5412TIP3    H116177   1.621   5.972   0.665 -0.5038  3.1107 -3.8079
 5412TIP3    H216178   1.736   5.880   0.628 -0.2458  1.0607  1.2132
 5413TIP3   OH216179   1.750   0.249   5.562  0.2156 -0.2723 -0.4697
 5413TIP3    H116180   1.750   0.164   5.518 -1.2544 -0.7378  0.3701
 5413TIP3    H216181   1.760   0.229   5.655  1.6754  0.6041 -0.4086
 5414TIP3   OH216182   3.443   7.217   1.671  0.4670  0.2980 -0.3057
 5414TIP3    H116183   3.390   7.197   1.749  1.2560  0.9426  0.4218
 5414TIP3    H216184   3.394   7.286   1.626 -0.7073 -1.0527 -1.1683
 5415TIP3   OH216185   2.600   0.719   6.065  0.2930 -0.0747  0.0627
 5415TIP3    H116186   2.581   0.692   5.975 -1.2434 -0.9650  0.6138
 5415TIP3    H216187   2.640   0.642   6.105  1.1399  0.3805  0.0978
 5416TIP3   OH216188   6.041   0.458   5.687 -0.3931  0.0941  0.0915
 5416TIP3    H116189   6.007   0.377   5.648 -2.9465  1.5745 -1.0335
 5416TIP3    H216190   6.007   0.457   5.776  0.2643 -0.4127  0.3482
 5417TIP3   OH216191   5.108   2.322   2.765 -0.3305 -0.1180 -0.5166
 5417TIP3    H116192   5.159   2.323   2.684  3.6376 -3.6817  1.4882
 5417TIP3    H216193   5.138   2.400   2.813 -0.1818  0.2167 -1.1414
 5418TIP3   OH216194   5.901   4.050   3.865  0.5636 -0.2285  0.1684
 5418TIP3    H116195   5.809   4.067   3.847  1.0914  0.5433 -2.1821
 5418TIP3    H216196   5.906   4.038   3.960 -1.9495 -0.4192  0.3284
 5419TIP3   OH216197   0.442   6.394   2.051  0.0421  0.0223  0.4507
 5419TIP3    H116198   0.477   6.314   2.090  0.5791  0.7295  1.4763
 5419TIP3    H216199   0.510   6.460   2.068 -0.8737  0.9451  0.6289
 5420TIP3   OH216200   2.607   4.844   5.493 -0.1795  0.1240 -0.2319
 5420TIP3    H116201   2.566   4.918   5.537 -1.6636 -0.1446 -1.1006
 5420TIP3    H216202   2.661   4.803   5.561 -0.8482  0.8648  0.7801
 5421TIP3   OH216203   1.464   3.783   6.274 -0.8293  0.5135 -0.3843
 5421TIP3    H116204   1.484   3.798   6.182 -0.3274  1.4396 -0.1427
 5421TIP3    H216205   1.450   3.689   6.281  2.9669 -0.2583 -0.7500
 5422TIP3   OH216206   4.866   6.328   6.497 -0.0359 -0.2643  0.3656
 5422TIP3    H116207   4.906   6.251   6.459 -0.5497 -0.7069  0.6998
 5422TIP3    H216208   4.938   6.390   6.508  0.1937 -0.2964 -0.8774
 5423TIP3   OH216209   7.434   4.567   5.568  0.6605  0.4217  0.2448
 5423TIP3    H116210   7.413   4.658   5.590  1.0585  0.3872  0.8071
 5423TIP3    H216211   7.525   4.571   5.539  0.2722  0.3945 -1.0077
 5424TIP3   OH216212   6.024   0.551   0.693 -0.2552 -0.1672  0.2078
 5424TIP3    H116213   6.019   0.523   0.785 -0.6935 -1.2862 -0.1424
 5424TIP3    H216214   6.006   0.472   0.643 -0.3719  0.5121 -0.8490
 5425TIP3   OH216215   8.361   4.015   6.373  0.0541 -0.3772  0.2681
 5425TIP3    H116216   8.457   4.011   6.378  0.2844  0.4782 -2.1218
 5425TIP3    H216217   8.340   3.984   6.285 -1.7532  0.7848  0.2293
 5426TIP3   OH216218   4.361   1.451   2.735  0.4588  0.2911 -0.0872
 5426TIP3    H116219   4.427   1.411   2.791  3.4102  2.4576 -1.7348
 5426TIP3    H216220   4.365   1.400   2.654 -0.2050  0.1728 -0.0458
 5427TIP3   OH216221   1.310   1.567   4.520 -0.2533  0.0663 -0.0856
 5427TIP3    H116222   1.237   1.508   4.507 -0.7924  0.9928 -1.5187
 5427TIP3    H216223   1.310   1.585   4.614  0.1312 -2.3945  0.4570
 5428TIP3   OH216224   2.767   5.495   2.328 -0.6668  0.1635  0.1943
 5428TIP3    H116225   2.799   5.529   2.412  0.9726  0.1166 -0.3772
 5428TIP3    H216226   2.808   5.409   2.320  0.4799  0.8113 -1.3479
 5429TIP3   OH216227   4.103   3.380   6.368 -0.2922 -0.5721 -0.8333
 5429TIP3    H116228   4.034   3.441   6.395  2.0064  1.1848  1.6649
 5429TIP3    H216229   4.173   3.436   6.334  0.3077 -2.2224 -2.5088
 5430TIP3   OH216230   6.253   0.266   4.780 -0.6127 -0.7240  0.3444
 5430TIP3    H116231   6.333   0.281   4.728 -0.1350  0.8189  1.4667
 5430TIP3    H216232   6.183   0.262   4.715 -0.2327  2.5493 -0.4454
 5431TIP3   OH216233   7.969   6.705   5.558  0.3770  0.2046  0.1423
 5431TIP3    H116234   8.041   6.643   5.554 -0.1314 -0.4021  0.1446
 5431TIP3    H216235   7.950   6.726   5.466  1.1546  1.0933  0.1696
 5432TIP3   OH216236   7.203   1.570   2.546 -0.5799 -0.2003 -0.0726
 5432TIP3    H116237   7.224   1.494   2.493  2.2604  0.2719  0.1762
 5432TIP3    H216238   7.123   1.606   2.508 -0.1353 -1.4150 -2.2886
 5433TIP3   OH216239   5.273   4.085   2.916 -0.0896 -0.1823  0.2215
 5433TIP3    H116240   5.347   4.027   2.903  0.6308  1.0268 -1.3206
 5433TIP3    H216241   5.309   4.161   2.961 -0.6301 -0.0791  0.4939
 5434TIP3   OH216242   2.214   1.595   3.905  0.2637  0.1601 -0.1251
 5434TIP3    H116243   2.119   1.592   3.917 -0.0229  2.3397 -1.3942
 5434TIP3    H216244   2.229   1.550   3.822  0.3279  0.0613 -0.0606
 5435TIP3   OH216245   5.668   5.033   0.523  0.0602  0.4391  0.3244
 5435TIP3    H116246   5.669   4.948   0.566  0.4467 -0.0096 -0.5469
 5435TIP3    H216247   5.682   5.096   0.594  2.2154 -0.3687  0.6918
 5436TIP3   OH216248   6.861   3.000   6.215  0.3339 -0.0064  0.5977
 5436TIP3    H116249   6.868   3.067   6.146  1.0415 -1.4093 -0.7736
 5436TIP3    H216250   6.873   3.048   6.297  2.7989  1.3190 -0.4136
 5437TIP3   OH216251   1.822   3.944   5.439  0.1662 -0.2070  0.2895
 5437TIP3    H116252   1.887   3.942   5.510  1.4490 -0.7505 -0.8475
 5437TIP3    H216253   1.797   3.852   5.427  0.2942 -0.1779 -0.2458
 5438TIP3   OH216254   1.173   5.414   3.620  0.0491 -0.2268  0.4515
 5438TIP3    H116255   1.134   5.364   3.692  2.1058  0.4083  2.1200
 5438TIP3    H216256   1.116   5.398   3.545 -1.8837 -1.3673  2.0794
 5439TIP3   OH216257   2.333   3.770   1.402 -0.4458 -0.8059  0.0175
 5439TIP3    H116258   2.348   3.743   1.311  0.7654 -1.1999  0.3045
 5439TIP3    H216259   2.271   3.705   1.436 -1.9080  0.0952 -0.8716
 5440TIP3   OH216260   0.505   5.446   0.676  0.3275  0.4488 -0.0558
 5440TIP3    H116261   0.522   5.504   0.602 -0.2022 -1.0481 -1.4173
 5440TIP3    H216262   0.414   5.417   0.664  0.7809 -1.1688  0.1910
 5441TIP3   OH216263   6.750   4.100   5.740  0.0224  0.2785 -0.4320
 5441TIP3    H116264   6.723   4.095   5.649 -0.6390 -1.4118 -0.1846
 5441TIP3    H216265   6.697   4.171   5.777  0.6852  1.3307 -1.4626
 5442TIP3   OH216266   6.961   0.726   5.326 -0.1572 -0.4650 -0.0454
 5442TIP3    H116267   7.043   0.771   5.345 -0.7580  0.2258  1.0176
 5442TIP3    H216268   6.940   0.752   5.236 -1.5944  3.3197  1.1780
 5443TIP3   OH216269   6.699   5.979   4.430 -0.0080 -0.1654 -0.1101
 5443TIP3    H116270   6.669   5.970   4.521  1.5081 -0.7607  0.3628
 5443TIP3    H216271   6.794   5.981   4.437  0.1072  1.1142 -1.5909
 5444TIP3   OH216272   5.066   0.661   5.910  0.5994 -0.0581 -0.3641
 5444TIP3    H116273   5.010   0.607   5.966  1.2785 -0.7689 -0.3388
 5444TIP3    H216274   5.032   0.750   5.920 -0.1631 -0.3880  0.0823
 5445TIP3   OH216275   1.984   3.457   5.092  0.7305 -0.1052  0.1633
 5445TIP3    H116276   2.041   3.533   5.084  1.5829 -0.8134 -0.7228
 5445TIP3    H216277   1.925   3.462   5.017  1.7383 -1.0557 -0.7395
 5446TIP3   OH216278   0.682   2.143   1.540 -0.2400 -0.0556  0.4316
 5446TIP3    H116279   0.660   2.211   1.604 -0.4796 -0.8790  1.2572
 5446TIP3    H216280   0.681   2.062   1.591  0.7626 -0.5983 -0.3719
 5447TIP3   OH216281   1.153   5.731   3.636  1.0265 -0.3689  0.0542
 5447TIP3    H116282   1.061   5.753   3.625  1.3438  1.2098  0.3013
 5447TIP3    H216283   1.154   5.636   3.649 -0.5956 -0.3555  0.4440
 5448TIP3   OH216284   7.217   5.469   1.654 -0.9002 -0.8073 -0.2288
 5448TIP3    H116285   7.260   5.538   1.603 -0.1843 -0.3495  0.9657
 5448TIP3    H216286   7.132   5.506   1.677 -0.7247 -0.5272 -0.0282
 5449TIP3   OH216287   5.282   2.546   5.339  0.6159  0.5492  0.3574
 5449TIP3    H116288   5.215   2.535   5.406  1.7889 -0.1692  1.4569
 5449TIP3    H216289   5.342   2.611   5.375  1.4314 -0.0737  0.1592
 5450TIP3   OH216290   5.220   6.024   0.990  0.2807 -0.3799 -0.0409
 5450TIP3    H116291   5.199   6.031   1.083 -0.4296  0.4091 -0.2471
 5450TIP3    H216292   5.291   5.960   0.986 -0.3865 -1.2255  0.9404
 5451TIP3   OH216293   1.276   1.792   5.592  0.2463  0.4070 -0.0236
 5451TIP3    H116294   1.289   1.886   5.579  1.3392  0.1814 -0.6736
 5451TIP3    H216295   1.328   1.751   5.523 -0.3410 -0.6823  0.1597
 5452TIP3   OH216296   2.277   2.973   5.810  0.8419 -0.8420 -0.3467
 5452TIP3    H116297   2.288   2.933   5.724  0.6506 -1.1439 -0.2315
 5452TIP3    H216298   2.364   2.966   5.850  1.5920  1.4610 -1.4154
 5453TIP3   OH216299   1.037   4.697   3.875  0.5278  0.6252  0.3837
 5453TIP3    H116300   1.068   4.613   3.843 -0.6956  0.7328 -1.2200
 5453TIP3    H216301   0.997   4.678   3.960 -1.7501 -0.8685 -0.9319
 5454TIP3   OH216302   0.255   3.454   2.769  0.5176  0.6635 -0.7937
 5454TIP3    H116303   0.169   3.413   2.759  0.7316  0.1880 -0.7084
 5454TIP3    H216304   0.291   3.414   2.848 -0.0227  2.3507  0.3534
 5455TIP3   OH216305   2.157   0.258   3.306  0.7866  0.0100 -0.3901
 5455TIP3    H116306   2.190   0.228   3.390  1.1444  1.2327 -0.0801
 5455TIP3    H216307   2.161   0.180   3.250  2.2217 -0.3894  0.2173
 5456TIP3   OH216308   7.156   1.678   6.703 -0.1344  0.1316  0.7504
 5456TIP3    H116309   7.100   1.753   6.721 -0.3015  0.3434 -0.5487
 5456TIP3    H216310   7.204   1.702   6.624 -2.1590 -2.1216 -1.3379
 5457TIP3   OH216311   6.183   3.092   5.087 -0.1878  0.4983  0.1806
 5457TIP3    H116312   6.243   3.046   5.028  1.5634  1.0093  1.4731
 5457TIP3    H216313   6.147   3.024   5.143 -0.4719  0.2460 -0.3020
 5458TIP3   OH216314   6.582   4.157   3.397  0.1244 -0.1740 -0.1872
 5458TIP3    H116315   6.551   4.144   3.308 -0.4507 -0.6373  0.0732
 5458TIP3    H216316   6.502   4.163   3.450  0.4187  1.2261  0.1619
 5459TIP3   OH216317   4.529   0.390   5.202  0.3520  0.0769  0.0941
 5459TIP3    H116318   4.530   0.462   5.265 -2.4903 -0.2062  0.6065
 5459TIP3    H216319   4.581   0.421   5.128 -0.8099  2.6946  0.2760
 5460TIP3   OH216320   3.788   2.415   0.353 -0.5510  0.2425  0.4504
 5460TIP3    H116321   3.704   2.441   0.391 -0.4727 -0.3014  1.0153
 5460TIP3    H216322   3.792   2.320   0.367 -0.8901 -0.1339 -1.6758
 5461TIP3   OH216323   5.615   6.839   0.409  0.4656  0.0337 -0.1159
 5461TIP3    H116324   5.689   6.899   0.404 -0.6921  1.6586  1.1813
 5461TIP3    H216325   5.613   6.796   0.323  2.0007  1.0318 -0.6835
 5462TIP3   OH216326   6.325   1.405   0.054 -0.0217  0.2505 -0.7569
 5462TIP3    H116327   6.265   1.399  -0.020 -0.1232 -0.4480 -0.6312
 5462TIP3    H216328   6.306   1.327   0.106  1.0954 -0.0648 -0.7937
 5463TIP3   OH216329   6.220   0.840   2.923  0.1260 -0.8551 -0.0669
 5463TIP3    H116330   6.227   0.917   2.867  0.3443  0.0042  1.1128
 5463TIP3    H216331   6.310   0.820   2.950 -0.0671 -0.6592  0.7548
 5464TIP3   OH216332   2.757   5.737   4.957  0.2015  0.1976 -0.4195
 5464TIP3    H116333   2.684   5.777   5.003  0.3406  0.7313 -0.6551
 5464TIP3    H216334   2.831   5.745   5.017  0.2481  0.3705 -0.4991
 5465TIP3   OH216335   0.066   1.998   3.440  0.5762 -0.0850 -0.3936
 5465TIP3    H116336   0.125   2.064   3.405 -0.5255  1.2271  0.1444
 5465TIP3    H216337   0.014   1.970   3.364  0.1288  0.6671 -0.3698
 5466TIP3   OH216338   0.518   1.396   1.834 -0.0642  0.4989  0.0215
 5466TIP3    H116339   0.600   1.391   1.883  0.6692 -0.5324 -1.2455
 5466TIP3    H216340   0.494   1.305   1.819 -0.3616  0.7824 -1.3584
 5467TIP3   OH216341   4.500   7.045   5.385 -0.7466 -0.8395  0.3129
 5467TIP3    H116342   4.475   7.111   5.449 -1.7003 -0.2393 -0.6387
 5467TIP3    H216343   4.595   7.037   5.394 -0.6749  0.3311  0.7646
 5468TIP3   OH216344   5.728   3.363   3.428  0.2498  0.4299  0.0667
 5468TIP3    H116345   5.701   3.449   3.397 -1.0406 -0.3927 -1.2136
 5468TIP3    H216346   5.703   3.303   3.358 -0.7024 -1.2400  1.7350
 5469TIP3   OH216347   2.785   7.226   4.594 -0.2447 -0.2475 -0.3798
 5469TIP3    H116348   2.819   7.311   4.566 -0.4399 -0.2985 -0.7809
 5469TIP3    H216349   2.763   7.181   4.512 -0.3142 -0.6124 -0.1623
 5470TIP3   OH216350   4.623   4.364   5.639 -0.4459 -0.0145 -0.0153
 5470TIP3    H116351   4.547   4.345   5.584 -1.9049  0.1218  1.8412
 5470TIP3    H216352   4.587   4.412   5.714  1.5928  0.6874  0.5833
 5471TIP3   OH216353   4.049   4.587   5.822  0.5075  0.4755 -0.1780
 5471TIP3    H116354   4.009   4.608   5.906 -0.8439 -0.8051 -0.4671
 5471TIP3    H216355   4.053   4.492   5.819  0.0949  0.4729 -1.7503
 5472TIP3   OH216356   7.060   0.157   5.634 -0.1436 -0.0523 -0.4553
 5472TIP3    H116357   7.122   0.161   5.707 -1.1488 -0.2233  0.4331
 5472TIP3    H216358   7.030   0.248   5.623 -2.2293 -0.4286  1.3777
 5473TIP3   OH216359   3.760   5.400   3.900  0.1395  0.0373 -0.0063
 5473TIP3    H116360   3.803   5.325   3.942  1.6701  1.2533  0.7399
 5473TIP3    H216361   3.744   5.371   3.810  1.0369 -1.0657  0.1548
 5474TIP3   OH216362   0.218   6.174   5.953 -0.3636 -0.6362  0.5610
 5474TIP3    H116363   0.183   6.176   5.864 -0.6203  0.8950  0.6760
 5474TIP3    H216364   0.303   6.217   5.947  0.2933 -1.8365  0.8129
 5475TIP3   OH216365   6.262   7.133   6.265 -0.0090 -0.1303 -0.0936
 5475TIP3    H116366   6.314   7.210   6.288 -1.1774 -0.0675  2.8155
 5475TIP3    H216367   6.175   7.168   6.244 -0.0311 -0.5343 -0.7109
 5476TIP3   OH216368   5.943   5.145   5.253 -0.1235  0.3638 -0.2545
 5476TIP3    H116369   5.953   5.192   5.170 -1.5010 -1.6120 -1.6376
 5476TIP3    H216370   5.849   5.141   5.267  0.0433 -0.4256  0.7524
 5477TIP3   OH216371   3.420   6.544   6.748  0.1908  0.8165  0.5650
 5477TIP3    H116372   3.460   6.629   6.726 -0.4948  0.9183 -0.3503
 5477TIP3    H216373   3.477   6.479   6.708 -0.5075  0.9602 -0.7066
 5478TIP3   OH216374   6.021   5.222   3.492 -0.3427  0.4244 -0.2436
 5478TIP3    H116375   5.960   5.190   3.426  0.2824  0.5520 -0.8916
 5478TIP3    H216376   5.979   5.201   3.575 -1.0139  0.0212 -0.6743
 5479TIP3   OH216377   1.994   3.730   6.572 -0.0345 -0.1265 -0.0506
 5479TIP3    H116378   2.031   3.673   6.640  1.1866  0.8363  0.1361
 5479TIP3    H216379   1.918   3.771   6.614  0.5334  0.2305  0.6528
 5480TIP3   OH216380   2.016   1.343   3.463 -0.2891  0.1245 -0.1182
 5480TIP3    H116381   2.077   1.395   3.516 -1.2775  0.1916  0.9851
 5480TIP3    H216382   1.982   1.277   3.523 -1.2317  0.0324 -0.7392
 5481TIP3   OH216383   2.570   3.995   6.398  0.6700 -0.0190 -0.1673
 5481TIP3    H116384   2.652   4.026   6.435  0.7981 -1.4485  0.8383
 5481TIP3    H216385   2.546   4.062   6.334  2.0011  1.0154  0.3528
 5482TIP3   OH216386   2.862   3.878   0.759  0.3484  0.2941 -0.3167
 5482TIP3    H116387   2.914   3.816   0.809  0.1794  0.7837  0.4805
 5482TIP3    H216388   2.920   3.953   0.745  0.0526  0.6057  0.0859
 5483TIP3   OH216389   5.515   2.492   4.653  0.0080 -0.2078  0.2109
 5483TIP3    H116390   5.434   2.529   4.618  0.7061  1.0922 -0.0748
 5483TIP3    H216391   5.488   2.408   4.692 -1.8691  1.1257  2.0066
 5484TIP3   OH216392   2.599   6.111   1.230  0.1848  0.1541 -0.2365
 5484TIP3    H116393   2.675   6.152   1.270  0.0628  2.5530 -2.2282
 5484TIP3    H216394   2.530   6.119   1.296  0.9896  0.3407  0.5890
 5485TIP3   OH216395   1.799   2.220   6.227 -0.0269 -0.1940  0.2275
 5485TIP3    H116396   1.857   2.150   6.258 -1.7976 -2.2275 -0.8464
 5485TIP3    H216397   1.718   2.209   6.277 -0.6463  0.5462 -0.5747
 5486TIP3   OH216398   0.602   5.885   1.293 -0.1307 -0.3962  0.1081
 5486TIP3    H116399   0.648   5.945   1.352 -1.0386  0.2426  0.1773
 5486TIP3    H216400   0.613   5.798   1.333 -0.7680  0.0294  1.2438
 5487TIP3   OH216401   1.549   0.241   2.732 -0.3358  0.2408 -0.5203
 5487TIP3    H116402   1.516   0.320   2.689 -0.9680  0.1596 -0.2080
 5487TIP3    H216403   1.486   0.173   2.707  0.5277 -0.3076 -1.2681
 5488TIP3   OH216404   6.223   6.881   6.667  0.1508 -0.6553  0.1267
 5488TIP3    H116405   6.271   6.963   6.680 -1.0690  0.0438  0.4728
 5488TIP3    H216406   6.143   6.893   6.718 -0.4428 -1.7251 -0.5221
 5489TIP3   OH216407   1.361   6.856   5.322  0.1011  0.1187  0.3794
 5489TIP3    H116408   1.267   6.846   5.304  0.0346 -0.0358  0.7857
 5489TIP3    H216409   1.364   6.892   5.411  0.4562 -3.2253  1.8672
 5490TIP3   OH216410   4.568   0.969   2.472  0.3087  0.5512  0.5646
 5490TIP3    H116411   4.567   1.009   2.560  0.4424  1.7631  0.0407
 5490TIP3    H216412   4.530   1.036   2.416  1.1719  0.2026 -0.4673
 5491TIP3   OH216413   1.169   4.581   0.458 -0.2434  0.1409  0.1976
 5491TIP3    H116414   1.241   4.640   0.483 -0.4425  0.7369 -0.5980
 5491TIP3    H216415   1.199   4.540   0.377 -0.4047 -0.3329  0.3751
 5492TIP3   OH216416   1.610   4.798   2.852 -0.5164  0.0762  0.2929
 5492TIP3    H116417   1.688   4.745   2.870 -0.5798  0.4946  1.9103
 5492TIP3    H216418   1.613   4.868   2.917 -2.4377 -0.1006  0.6268
 5493TIP3   OH216419   1.500   0.460   4.720  0.3430 -0.2965  0.1904
 5493TIP3    H116420   1.423   0.405   4.704 -0.3699  0.0867  2.0463
 5493TIP3    H216421   1.573   0.409   4.685 -0.3451 -2.2284  1.4045
 5494TIP3   OH216422   6.781   1.643   4.344  0.0043  0.5408  0.3289
 5494TIP3    H116423   6.795   1.656   4.250 -0.2948 -0.4893  0.1182
 5494TIP3    H216424   6.716   1.708   4.368 -0.5605  0.2506 -0.3783
 5495TIP3   OH216425   3.577   4.809   4.890  0.2952 -0.0996  0.6873
 5495TIP3    H116426   3.664   4.787   4.857  0.1869  0.5165 -0.0278
 5495TIP3    H216427   3.534   4.855   4.818  0.0588  1.3015  1.6747
 5496TIP3   OH216428   3.299   0.354   1.277  0.2493 -0.1034  0.2983
 5496TIP3    H116429   3.316   0.427   1.218 -0.1447 -0.4577 -0.2604
 5496TIP3    H216430   3.339   0.278   1.234 -2.8428 -1.0365 -1.2084
 5497TIP3   OH216431   0.008   4.822   2.963 -0.1092  0.1786 -0.3155
 5497TIP3    H116432   0.002   4.845   2.870  1.9847  0.1909 -0.4800
 5497TIP3    H216433   0.021   4.905   3.008  1.7759 -0.0531 -0.3451
 5498TIP3   OH216434   5.243   2.049   0.605 -0.3144  0.4396 -0.8397
 5498TIP3    H116435   5.247   1.997   0.525  0.1421  0.8361 -1.0825
 5498TIP3    H216436   5.225   1.986   0.675  0.9506 -0.1449 -1.0238
 5499TIP3   OH216437   2.901   2.998   6.504  0.4546 -0.3259  0.4878
 5499TIP3    H116438   2.962   3.039   6.443  0.6286 -2.3505 -0.8285
 5499TIP3    H216439   2.953   2.977   6.581  0.4091  1.5953  1.0897
 5500TIP3   OH216440   6.306   6.358   3.101 -0.1888 -1.0408 -0.1140
 5500TIP3    H116441   6.326   6.442   3.142  2.7091 -1.3336 -0.6819
 5500TIP3    H216442   6.275   6.303   3.173  2.4591 -0.8287  1.3125
 5501TIP3   OH216443   1.419   6.979   5.567 -0.1918  0.0199  0.9844
 5501TIP3    H116444   1.422   7.074   5.573  0.8208  0.0016  1.0811
 5501TIP3    H216445   1.395   6.950   5.655 -2.2369  0.2136  0.5308
 5502TIP3   OH216446   4.044   3.216   3.571 -0.2823  0.1176 -0.0276
 5502TIP3    H116447   4.090   3.245   3.492  0.5199 -1.0346 -0.0125
 5502TIP3    H216448   4.096   3.252   3.643  0.7544 -1.3530 -0.0078
 5503TIP3   OH216449   5.908   2.576   0.336  0.2749  0.0815  0.2556
 5503TIP3    H116450   5.833   2.624   0.302  0.1859 -0.5940 -0.5335
 5503TIP3    H216451   5.976   2.587   0.270 -0.3776 -2.5116 -1.0133
 5504TIP3   OH216452   7.565   6.656   4.492  0.2378  0.7986  0.0489
 5504TIP3    H116453   7.616   6.605   4.430 -0.6280 -0.3290  0.2315
 5504TIP3    H216454   7.568   6.606   4.573 -1.3295  0.5714  0.0003
 5505TIP3   OH216455   2.705   6.686   2.248 -0.0080 -0.3051 -0.3084
 5505TIP3    H116456   2.769   6.659   2.181 -1.5988 -1.5698 -1.3931
 5505TIP3    H216457   2.757   6.694   2.328  1.4483 -1.7911 -1.0372
 5506TIP3   OH216458   7.809   7.848   1.720  0.3860 -0.3987  0.1851
 5506TIP3    H116459   7.864   7.797   1.662 -1.0373 -0.8273 -0.8337
 5506TIP3    H216460   7.870   7.908   1.764  1.7659 -1.4376 -0.2284
 5507TIP3   OH216461   4.793   4.522   0.470  0.2752  0.0814  0.3937
 5507TIP3    H116462   4.856   4.584   0.432  0.5029 -0.6049 -0.3694
 5507TIP3    H216463   4.709   4.546   0.431  0.4642 -0.4541 -0.3720
 5508TIP3   OH216464   1.777   1.313   0.141 -0.5623  0.4536 -0.3286
 5508TIP3    H116465   1.804   1.347   0.056  0.7563  0.8706  0.2407
 5508TIP3    H216466   1.728   1.385   0.182 -2.5577 -0.2558 -1.3014
 5509TIP3   OH216467   4.448   4.750   1.445 -0.0093  0.2054 -0.5625
 5509TIP3    H116468   4.451   4.656   1.462 -0.6513  0.3331  0.3088
 5509TIP3    H216469   4.491   4.790   1.521  2.3589  0.5353 -1.9681
 5510TIP3   OH216470   0.756   7.489   6.222  0.0096 -0.3231  0.0921
 5510TIP3    H116471   0.669   7.477   6.260 -0.8311 -0.0416 -1.6420
 5510TIP3    H216472   0.744   7.558   6.157  1.2909 -0.9878 -0.8948
 5511TIP3   OH216473   6.706   2.080   2.799  0.0543 -0.1007 -0.1053
 5511TIP3    H116474   6.743   2.104   2.884  1.4722  1.3091 -1.0669
 5511TIP3    H216475   6.620   2.121   2.799  0.2245  0.2783  0.4706
 5512TIP3   OH216476   3.317   2.524   2.035  0.5145  0.2235 -0.2190
 5512TIP3    H116477   3.234   2.570   2.025  0.0140 -0.5138  0.4643
 5512TIP3    H216478   3.368   2.579   2.094 -0.0551 -0.0364  0.5363
 5513TIP3   OH216479   1.290   4.250   0.657 -0.0781 -0.1698  0.1692
 5513TIP3    H116480   1.371   4.202   0.671  0.0652  0.4787  1.7676
 5513TIP3    H216481   1.317   4.341   0.644 -0.5192 -0.0300  0.2052
 5514TIP3   OH216482   3.828   4.228   6.585 -0.3333 -0.1012  0.0795
 5514TIP3    H116483   3.896   4.217   6.651  1.2205 -0.9509 -1.5886
 5514TIP3    H216484   3.829   4.321   6.564 -1.6811  0.4170  2.0435
 5515TIP3   OH216485   7.778   0.166   2.493 -0.1600  0.0327 -0.1499
 5515TIP3    H116486   7.796   0.200   2.581  1.0325  0.3532 -0.5022
 5515TIP3    H216487   7.765   0.244   2.439 -0.8120 -0.1613 -0.2858
 5516TIP3   OH216488   6.823   5.340   4.290  0.2922  0.8115 -0.6004
 5516TIP3    H116489   6.838   5.337   4.196  1.7409  2.4884 -0.4846
 5516TIP3    H216490   6.910   5.351   4.328 -0.0241 -1.7874  1.1261
 5517TIP3   OH216491   0.966   5.862   1.252 -0.4137 -0.3543  0.0391
 5517TIP3    H116492   0.992   5.939   1.201 -0.6739 -0.5855 -0.4558
 5517TIP3    H216493   1.048   5.824   1.282 -0.3231  0.9493  1.5760
 5518TIP3   OH216494   6.982   2.101   3.796  0.0601 -0.3478 -0.2592
 5518TIP3    H116495   7.034   2.154   3.857 -0.3889  0.1752 -0.3245
 5518TIP3    H216496   7.017   2.013   3.806  1.0634  0.0138 -0.3990
 5519TIP3   OH216497   4.144   4.261   1.968 -0.5098  0.0315  0.2311
 5519TIP3    H116498   4.132   4.167   1.982  0.5594 -0.1797 -0.1668
 5519TIP3    H216499   4.108   4.276   1.880 -0.4259 -0.0539  0.1823
 5520TIP3   OH216500   3.661   0.255   0.117  0.4772  0.2335 -0.4279
 5520TIP3    H116501   3.618   0.226   0.197  0.5211  2.7631  0.6144
 5520TIP3    H216502   3.625   0.200   0.048 -2.9065  0.8321  0.6898
 5521TIP3   OH216503   3.130   7.839   6.755 -0.6445  0.2419  0.2710
 5521TIP3    H116504   3.219   7.869   6.775 -0.2743 -0.7289  0.1359
 5521TIP3    H216505   3.110   7.777   6.824 -1.1274  0.2669  0.1526
 5522TIP3   OH216506   0.991   3.834   0.086 -0.3113  0.9378 -0.2662
 5522TIP3    H116507   1.043   3.897   0.036  1.4440  0.0922  0.3867
 5522TIP3    H216508   1.055   3.794   0.146 -1.8993  0.4141  1.1569
 5523TIP3   OH216509   6.711   6.427   3.816  0.0368 -0.0441  0.5048
 5523TIP3    H116510   6.678   6.440   3.904  1.9990  1.4372  1.0703
 5523TIP3    H216511   6.655   6.358   3.780 -0.9563 -0.5235  2.7953
 5524TIP3   OH216512   0.699   6.076   1.494  0.3505  0.5507 -0.1778
 5524TIP3    H116513   0.651   6.151   1.531  1.9510  0.5538  2.0934
 5524TIP3    H216514   0.781   6.114   1.463  0.7831 -0.1002  0.1522
 5525TIP3   OH216515   4.646   6.792   0.900 -0.5332  0.2985 -0.2641
 5525TIP3    H116516   4.734   6.757   0.886 -0.2913  1.6025 -2.2873
 5525TIP3    H216517   4.654   6.844   0.981 -0.3646 -2.3174  1.5241
 5526TIP3   OH216518   2.685   0.522   1.284 -0.2471  0.8385 -0.0498
 5526TIP3    H116519   2.745   0.470   1.337 -0.5372  1.9329  1.4018
 5526TIP3    H216520   2.715   0.509   1.194 -0.9580 -2.6801  0.0765
 5527TIP3   OH216521   1.301   3.838   4.220  0.4498 -0.4689 -0.3830
 5527TIP3    H116522   1.237   3.768   4.205  1.3734 -1.6280  0.8589
 5527TIP3    H216523   1.254   3.903   4.272 -0.3668 -0.2236 -1.3903
 5528TIP3   OH216524   0.830   5.407   3.191 -0.0352  0.0897  0.0817
 5528TIP3    H116525   0.748   5.450   3.218  0.1704 -0.6392  2.0330
 5528TIP3    H216526   0.802   5.339   3.131 -0.9532 -0.4997  1.1352
 5529TIP3   OH216527   0.997   0.406   5.251  0.3143  0.9547  0.2519
 5529TIP3    H116528   0.912   0.362   5.258  0.2133  0.9698 -0.8511
 5529TIP3    H216529   1.021   0.399   5.159  0.9148  2.0847  0.3053
 5530TIP3   OH216530   7.177   2.204   4.881 -0.3315 -0.2378  0.4576
 5530TIP3    H116531   7.177   2.249   4.966 -1.4613 -1.3383  1.0926
 5530TIP3    H216532   7.114   2.253   4.828 -1.9186 -1.2462  1.3039
 5531TIP3   OH216533   2.111   4.824   6.720 -0.2248  0.0291 -0.1924
 5531TIP3    H116534   2.021   4.800   6.744 -0.4683 -0.5253 -1.5526
 5531TIP3    H216535   2.109   4.920   6.713  0.2313  0.4174  3.2445
 5532TIP3   OH216536   0.525   1.108   4.477  0.2955  0.1545  0.0371
 5532TIP3    H116537   0.499   1.156   4.556  0.0930 -1.3691  0.9421
 5532TIP3    H216538   0.620   1.109   4.479  0.3645 -1.8957  1.6772
 5533TIP3   OH216539   6.140   2.720   0.632 -0.0673  0.0203 -0.1440
 5533TIP3    H116540   6.083   2.682   0.698 -1.2808  0.1678 -1.0731
 5533TIP3    H216541   6.150   2.811   0.658 -2.2299  0.6290 -1.2085
 5534TIP3   OH216542   4.989   1.580   5.755  0.0570 -0.2974  0.0564
 5534TIP3    H116543   5.033   1.558   5.837  0.8735  0.8954 -0.0415
 5534TIP3    H216544   4.897   1.591   5.779 -0.1144 -2.1992  0.3765
 5535TIP3   OH216545   5.190   6.780   2.643  0.6322  0.3792  0.1374
 5535TIP3    H116546   5.257   6.715   2.619  0.0828 -0.4427  0.7797
 5535TIP3    H216547   5.206   6.854   2.584  2.6338  0.5481  0.8262
 5536TIP3   OH216548   0.708   2.056   6.305  0.6653 -0.3414 -0.6502
 5536TIP3    H116549   0.635   2.007   6.268  0.3733 -0.7102  0.4080
 5536TIP3    H216550   0.668   2.133   6.345  1.0245  0.2683 -1.4291
 5537TIP3   OH216551   0.264   0.675   4.240  0.3049 -0.0029 -0.0261
 5537TIP3    H116552   0.198   0.605   4.251  0.1358  0.0659 -0.5664
 5537TIP3    H216553   0.344   0.628   4.215  0.3752 -0.0597  0.3029
 5538TIP3   OH216554   4.294   6.222   3.124 -0.6835  0.0496 -0.7270
 5538TIP3    H116555   4.213   6.239   3.173  1.1043  2.0154  1.7976
 5538TIP3    H216556   4.309   6.128   3.135 -0.5114  0.3416  2.4378
 5539TIP3   OH216557   7.353   3.446   1.205 -0.3282  0.6481 -0.1914
 5539TIP3    H116558   7.331   3.525   1.155  0.5328  0.9978 -0.0411
 5539TIP3    H216559   7.422   3.404   1.154  0.0441  0.6208  0.3258
 5540TIP3   OH216560   6.524   2.949   5.175  0.3523 -0.0048 -0.1438
 5540TIP3    H116561   6.616   2.925   5.173 -0.3908 -3.4547  0.5718
 5540TIP3    H216562   6.497   2.951   5.083  0.4296 -2.5488 -0.2772
 5541TIP3   OH216563   1.681   4.137   3.761  0.2437 -0.0052 -0.3230
 5541TIP3    H116564   1.766   4.164   3.726  0.3271 -1.7024 -1.5563
 5541TIP3    H216565   1.622   4.143   3.686 -0.3654 -0.3797  0.1231
 5542TIP3   OH216566   5.028   6.923   5.796  0.0937 -0.3566 -0.3332
 5542TIP3    H116567   5.062   6.942   5.883 -0.9205 -1.0684  0.2348
 5542TIP3    H216568   5.054   6.833   5.778 -3.0282 -1.6573  0.9512
 5543TIP3   OH216569   3.833   7.333   4.595 -0.1238 -0.2651  0.9088
 5543TIP3    H116570   3.761   7.271   4.590 -0.2022 -0.3480  2.5859
 5543TIP3    H216571   3.870   7.334   4.507 -2.6724  0.4125 -0.2218
 5544TIP3   OH216572   0.832   2.763   1.102 -0.2192 -0.9036  0.0819
 5544TIP3    H116573   0.790   2.728   1.024 -0.2407 -0.5366 -0.0710
 5544TIP3    H216574   0.762   2.768   1.167 -1.1017  2.2115 -0.9368
 5545TIP3   OH216575   7.844   3.428   4.022 -0.2085  0.2041 -0.0233
 5545TIP3    H116576   7.791   3.370   3.967 -0.8067  0.3880  0.3507
 5545TIP3    H216577   7.782   3.491   4.058  0.7173  2.4648 -2.0803
 5546TIP3   OH216578   4.460   6.642   3.441  0.0094  0.2818  0.2785
 5546TIP3    H116579   4.429   6.647   3.531 -0.9206 -2.3667  0.2199
 5546TIP3    H216580   4.547   6.682   3.442 -1.2592  3.2882  1.5728
 5547TIP3   OH216581   1.285   6.478   0.098  0.0926 -0.1916  0.3664
 5547TIP3    H116582   1.342   6.555   0.106 -0.0072 -0.0585 -0.1594
 5547TIP3    H216583   1.232   6.479   0.178  0.5250 -0.0696  0.6541
 5548TIP3   OH216584   1.762   0.456   1.711 -0.3013 -0.5516  0.1692
 5548TIP3    H116585   1.814   0.437   1.789 -0.4254 -0.2739  0.3219
 5548TIP3    H216586   1.813   0.521   1.664  0.7200 -2.0915 -0.9714
 5549TIP3   OH216587   6.654   6.133   2.089 -0.8158  0.0271  0.3304
 5549TIP3    H116588   6.658   6.045   2.126 -0.8834  1.0926  3.1337
 5549TIP3    H216589   6.744   6.166   2.096 -1.0071  0.5589  0.3758
 5550TIP3   OH216590   7.303   7.722   1.793  0.5050  0.1833 -0.2009
 5550TIP3    H116591   7.252   7.644   1.770  1.4353 -0.6709  0.5429
 5550TIP3    H216592   7.248   7.770   1.853  1.0556 -1.4384  1.7120
 5551TIP3   OH216593   2.422   2.196   0.306  0.3231  0.1061  0.0279
 5551TIP3    H116594   2.423   2.280   0.352  0.9770 -0.3898  0.9530
 5551TIP3    H216595   2.332   2.186   0.275 -0.1009  0.5254  1.0784
 5552TIP3   OH216596   4.051   1.122   4.764 -0.1952 -0.2590 -0.2281
 5552TIP3    H116597   4.061   1.146   4.672  0.6664 -0.2335 -0.1382
 5552TIP3    H216598   3.998   1.043   4.762 -0.2037 -0.2471 -0.7497
 5553TIP3   OH216599   1.637   6.340   6.753 -0.0294  0.3036  0.0599
 5553TIP3    H116600   1.567   6.395   6.787 -2.1466 -1.1663 -1.6864
 5553TIP3    H216601   1.693   6.401   6.703 -1.4048  1.1515 -0.5083
 5554TIP3   OH216602   3.941   6.011   0.012  0.1758  0.0810  0.3843
 5554TIP3    H116603   4.018   5.960   0.034  1.4175  1.2150 -1.0770
 5554TIP3    H216604   3.885   5.951  -0.037  2.1228  0.2869 -2.3307
 5555TIP3   OH216605   2.788   0.933   3.136  0.2544 -0.0853 -0.4581
 5555TIP3    H116606   2.694   0.946   3.140 -0.3694 -3.4079 -1.2116
 5555TIP3    H216607   2.813   0.960   3.047 -0.1961 -0.2033 -0.6213
 5556TIP3   OH216608   7.361   7.088   2.507  0.5139  0.0881 -0.6213
 5556TIP3    H116609   7.445   7.055   2.478 -0.0033  0.5553 -2.8203
 5556TIP3    H216610   7.382   7.146   2.580  2.0014 -0.3427 -0.6730
 5557TIP3   OH216611   7.648   7.323   4.691  0.0400 -0.1922  0.0472
 5557TIP3    H116612   7.710   7.359   4.754 -1.0944  1.3082  0.3854
 5557TIP3    H216613   7.702   7.279   4.626  1.3134 -0.7655  1.4250
 5558TIP3   OH216614   8.141   2.444   3.173 -0.2789 -0.1190 -0.2836
 5558TIP3    H116615   8.228   2.441   3.212 -0.2999 -1.1545 -0.2941
 5558TIP3    H216616   8.098   2.365   3.204 -1.6634  0.9897  0.7203
 5559TIP3   OH216617   7.233   1.775   1.456 -0.1696  0.0257  0.2818
 5559TIP3    H116618   7.139   1.786   1.467 -0.2046  0.2166 -0.1840
 5559TIP3    H216619   7.270   1.804   1.540 -0.5124  0.1071  0.4073
 5560TIP3   OH216620   3.054   4.081   3.107  0.3780  0.6546 -0.0423
 5560TIP3    H116621   2.994   4.065   3.180  1.5811  0.1470  0.8591
 5560TIP3    H216622   3.005   4.054   3.029 -0.7023  0.6301  0.6241
 5561TIP3   OH216623   5.860   3.088   6.348 -0.3442  0.1073  0.1356
 5561TIP3    H116624   5.918   3.086   6.424  0.3813 -0.4663 -0.4247
 5561TIP3    H216625   5.834   3.180   6.341 -0.8231  0.0882  1.3656
 5562TIP3   OH216626   0.099   6.141   1.301  1.0673 -0.1937  0.4777
 5562TIP3    H116627   0.038   6.127   1.373  2.8777 -0.1409  2.1046
 5562TIP3    H216628   0.174   6.085   1.321  2.8168  1.8700  0.1722
 5563TIP3   OH216629   5.557   6.714   0.163  0.3672  0.6769 -0.4403
 5563TIP3    H116630   5.612   6.743   0.091 -0.6648  0.5229 -1.3219
 5563TIP3    H216631   5.478   6.767   0.155  0.9017  1.9114  1.6581
 5564TIP3   OH216632   6.769   4.215   6.624 -0.2995 -0.4847  0.0333
 5564TIP3    H116633   6.716   4.215   6.544 -0.0096  0.1339 -0.1662
 5564TIP3    H216634   6.737   4.289   6.674 -0.3040 -0.7175  0.3770
 5565TIP3   OH216635   5.635   4.128   0.279  0.3345 -0.1152  0.1133
 5565TIP3    H116636   5.727   4.102   0.270  0.2656 -0.3665  0.1343
 5565TIP3    H216637   5.589   4.048   0.302  0.5374  0.5383  3.1999
 5566TIP3   OH216638   6.085   5.094   4.921 -0.5832  0.2752  0.2980
 5566TIP3    H116639   6.042   5.011   4.902 -1.2374  0.7512 -0.3570
 5566TIP3    H216640   6.015   5.150   4.955 -0.6832  1.2806 -1.4405
 5567TIP3   OH216641   5.301   4.258   5.591 -0.2938  0.2519  0.7587
 5567TIP3    H116642   5.212   4.291   5.605 -0.0778  0.8578  0.7315
 5567TIP3    H216643   5.350   4.333   5.559 -0.4432 -0.7492 -2.0280
 5568TIP3   OH216644   8.049   6.962   1.235  0.4082  0.0689 -0.7263
 5568TIP3    H116645   8.090   6.969   1.149  0.8969  0.2727 -0.4812
 5568TIP3    H216646   8.111   6.912   1.288 -0.3892 -1.0262 -0.7924
 5569TIP3   OH216647   6.194   3.188   5.933 -0.3166 -0.2539 -0.1341
 5569TIP3    H116648   6.253   3.115   5.913  0.3455  0.1893  0.1541
 5569TIP3    H216649   6.176   3.181   6.026 -1.6840 -1.0698 -0.4326
 5570TIP3   OH216650   7.929   7.801   6.674 -0.0638  0.3000 -0.0604
 5570TIP3    H116651   7.976   7.755   6.744  0.4634  1.2823  0.2556
 5570TIP3    H216652   7.855   7.843   6.718  0.9678  1.9565  0.1740
 5571TIP3   OH216653   1.047   6.208   5.600 -0.0367  0.2241  0.2024
 5571TIP3    H116654   1.131   6.216   5.645  0.9275 -0.1266 -1.4386
 5571TIP3    H216655   1.049   6.121   5.560 -1.2257  0.1771  0.2062
 5572TIP3   OH216656   4.459   5.401   5.178 -0.2290  0.5343  0.0109
 5572TIP3    H116657   4.509   5.347   5.240  0.4071  0.2955 -0.7011
 5572TIP3    H216658   4.401   5.338   5.134  0.7960  0.3374 -1.1045
 5573TIP3   OH216659   7.435   3.223   5.841 -0.7612 -0.3544 -0.2127
 5573TIP3    H116660   7.458   3.197   5.931  0.0353  0.6721 -0.1066
 5573TIP3    H216661   7.342   3.202   5.834 -0.1862 -3.3471 -0.1961
 5574TIP3   OH216662   4.936   3.989   1.491  0.2990 -0.1186 -0.1259
 5574TIP3    H116663   4.919   3.907   1.538 -1.6357  0.2176 -0.1391
 5574TIP3    H216664   5.018   4.022   1.528 -0.0448 -0.9563  1.4493
 5575TIP3   OH216665   7.101   2.479   0.631  0.4810 -0.4242  0.1571
 5575TIP3    H116666   7.025   2.520   0.589  2.0569  1.0391 -1.4925
 5575TIP3    H216667   7.081   2.386   0.631 -1.3673 -0.0755 -0.0838
 5576TIP3   OH216668   1.288   7.794   1.229  0.3878 -0.2818  0.6378
 5576TIP3    H116669   1.287   7.729   1.160  2.0344  0.4692 -0.1547
 5576TIP3    H216670   1.196   7.813   1.246 -0.1312  0.7190 -2.5603
 5577TIP3   OH216671   7.179   3.173   5.795 -0.1747  0.2102  0.7514
 5577TIP3    H116672   7.109   3.236   5.810 -0.0724  0.7314 -0.8417
 5577TIP3    H216673   7.144   3.112   5.731  0.5717  0.0817  0.4491
 5578TIP3   OH216674   1.567   2.912   2.949  0.0891  0.2457 -0.4675
 5578TIP3    H116675   1.538   2.830   2.908  1.6612 -0.0019 -1.1743
 5578TIP3    H216676   1.514   2.919   3.029  0.4537 -1.8935  0.0311
 5579TIP3   OH216677   1.799   5.645   4.115  0.0676  0.0155  0.6425
 5579TIP3    H116678   1.783   5.677   4.204  0.1392  1.0497  0.2948
 5579TIP3    H216679   1.714   5.611   4.086 -0.0336 -0.0229  0.9819
 5580TIP3   OH216680   4.294   7.167   0.736 -0.0113 -0.1713  0.0034
 5580TIP3    H116681   4.330   7.122   0.812  1.0744  0.0369 -0.3678
 5580TIP3    H216682   4.294   7.100   0.667  1.3032  0.2635 -0.4596
 5581TIP3   OH216683   0.745   6.236   3.455 -0.2058  0.0596  0.2073
 5581TIP3    H116684   0.808   6.265   3.521  0.5850  0.7008 -0.7941
 5581TIP3    H216685   0.789   6.163   3.410 -0.4858  0.0137  0.0011
 5582TIP3   OH216686   8.184   6.920   1.016  0.5859  0.0803 -0.2616
 5582TIP3    H116687   8.183   6.950   0.925 -0.6330  1.4231  0.1632
 5582TIP3    H216688   8.276   6.928   1.043  0.6943  1.2061 -0.8967
 5583TIP3   OH216689   7.677   5.292   5.633 -0.1567  0.5501  0.5600
 5583TIP3    H116690   7.604   5.234   5.609  0.4068 -0.2726  0.8064
 5583TIP3    H216691   7.717   5.315   5.550 -1.9725  2.7712  0.2002
 5584TIP3   OH216692   0.737   7.696   6.016 -0.0883  0.2641  0.4911
 5584TIP3    H116693   0.730   7.790   6.037  1.8310  0.5911 -0.2060
 5584TIP3    H216694   0.657   7.678   5.966 -0.2407  1.6557  0.1670
 5585TIP3   OH216695   2.396   3.228   4.496  0.0108 -0.6665 -0.0649
 5585TIP3    H116696   2.448   3.205   4.572 -0.0836 -0.2003  0.1445
 5585TIP3    H216697   2.311   3.188   4.512  0.7271 -2.7360 -1.1161
 5586TIP3   OH216698   0.219   1.921   3.652  0.6897  0.4805  0.5037
 5586TIP3    H116699   0.222   2.009   3.690 -1.1128  0.3321  1.0816
 5586TIP3    H216700   0.178   1.933   3.567  0.7313  0.2335  0.4473
 5587TIP3   OH216701   6.590   1.484   3.416 -0.2244  0.2168  0.5461
 5587TIP3    H116702   6.577   1.459   3.508 -1.7337  0.8090  0.5254
 5587TIP3    H216703   6.683   1.505   3.410 -0.0478 -0.0519  1.8805
 5588TIP3   OH216704   7.482   3.114   1.308  0.0244  0.5057 -0.0223
 5588TIP3    H116705   7.388   3.130   1.314 -0.1507 -0.8132  1.3784
 5588TIP3    H216706   7.489   3.025   1.274  0.7496  0.3420  0.5448
 5589TIP3   OH216707   3.630   1.285   3.082  0.5001  0.2211 -0.2639
 5589TIP3    H116708   3.630   1.272   3.177 -0.8831 -0.4410 -0.3268
 5589TIP3    H216709   3.695   1.223   3.049 -0.3990 -0.9377  0.1071
 5590TIP3   OH216710   3.743   6.452   1.848 -0.7240 -0.4733 -0.2837
 5590TIP3    H116711   3.753   6.528   1.791 -3.2033 -0.6583 -1.1287
 5590TIP3    H216712   3.708   6.384   1.790 -1.0177 -1.4198  0.9697
 5591TIP3   OH216713   2.979   3.318   1.123  0.2142 -0.0655  0.3436
 5591TIP3    H116714   2.893   3.335   1.161 -0.5362 -0.5116 -1.0928
 5591TIP3    H216715   2.984   3.223   1.116  0.4632 -0.0098 -0.3449
 5592TIP3   OH216716   7.932   6.471   0.989 -0.1045  0.2485  0.2273
 5592TIP3    H116717   7.915   6.421   0.910 -1.6941 -1.6505  1.6648
 5592TIP3    H216718   7.953   6.559   0.958 -2.3219  0.0190 -2.2185
 5593TIP3   OH216719   4.548   6.723   1.209  0.1689  0.2270 -0.5728
 5593TIP3    H116720   4.576   6.802   1.163  0.2448 -1.1746 -3.1259
 5593TIP3    H216721   4.609   6.656   1.179 -1.8711 -1.4907 -1.0736
 5594TIP3   OH216722   6.120   7.636   4.877 -0.0651  0.0137 -0.3594
 5594TIP3    H116723   6.083   7.717   4.912 -0.1676  0.1861 -0.8596
 5594TIP3    H216724   6.215   7.650   4.879  0.1344 -1.1461  2.6900
 5595TIP3   OH216725   0.814   4.213   1.893 -0.2489 -0.8716  0.3624
 5595TIP3    H116726   0.832   4.226   1.986  0.3059 -0.7713  0.2482
 5595TIP3    H216727   0.785   4.299   1.862 -0.8674 -1.0141  0.5323
 5596TIP3   OH216728   7.712   5.003   1.402  0.3204  0.1673 -0.7126
 5596TIP3    H116729   7.638   5.059   1.424  0.8522  1.0823 -1.1831
 5596TIP3    H216730   7.784   5.063   1.384  2.0354 -0.7169  2.5011
 5597TIP3   OH216731   0.736   4.999   4.146 -0.5731 -0.3876 -0.6444
 5597TIP3    H116732   0.656   4.985   4.096 -0.8530 -0.5643 -0.1600
 5597TIP3    H216733   0.800   5.028   4.082 -1.2935  0.7411 -0.8902
 5598TIP3   OH216734   4.681   3.980   5.434 -0.4480 -0.0696 -0.0128
 5598TIP3    H116735   4.617   4.023   5.491 -0.8433 -0.1265 -0.4070
 5598TIP3    H216736   4.628   3.922   5.378  0.0682 -1.0208  0.4664
 5599TIP3   OH216737   3.286   1.041   0.003  0.6776  1.0591  0.4098
 5599TIP3    H116738   3.352   0.974   0.021  0.2607  0.7593  0.8188
 5599TIP3    H216739   3.236   1.049   0.084  1.6868  2.9821  0.9136
 5600TIP3   OH216740   1.896   4.465   0.550  0.3629  0.3516  0.2505
 5600TIP3    H116741   1.952   4.471   0.628  0.4469  1.2366  0.1325
 5600TIP3    H216742   1.842   4.388   0.565 -0.3029  1.0515  1.6475
 5601TIP3   OH216743   2.479   6.908   2.132 -0.0262 -0.0753  0.2476
 5601TIP3    H116744   2.540   6.847   2.173 -0.0372  0.3849  0.9476
 5601TIP3    H216745   2.414   6.851   2.090 -0.4779 -0.5556  1.5511
 5602TIP3   OH216746   7.889   1.200   0.140 -0.5778 -1.0897  0.2676
 5602TIP3    H116747   7.923   1.269   0.197 -1.3803 -1.4726  1.2368
 5602TIP3    H216748   7.901   1.119   0.190  0.5483 -1.7126 -0.9337
 5603TIP3   OH216749   2.573   7.414   3.057 -0.1273 -0.4523  0.2262
 5603TIP3    H116750   2.601   7.373   3.138 -0.2774  0.3926  0.7232
 5603TIP3    H216751   2.478   7.424   3.066 -0.1911 -0.6693 -0.1978
 5604TIP3   OH216752   6.328   7.720   5.730 -0.3667  0.9329 -0.3212
 5604TIP3    H116753   6.255   7.773   5.699 -1.1546  0.4017  0.5612
 5604TIP3    H216754   6.353   7.759   5.814 -1.1217 -0.1893  0.4654
 5605TIP3   OH216755   1.624   6.719   4.395  0.4136  0.1041 -0.0182
 5605TIP3    H116756   1.666   6.773   4.328 -0.1061  0.5253 -0.0104
 5605TIP3    H216757   1.679   6.641   4.401  1.1605  0.6225 -0.0445
 5606TIP3   OH216758   4.171   4.468   0.625  0.0457 -0.3866 -0.0455
 5606TIP3    H116759   4.187   4.378   0.598 -1.0754 -0.8142  0.6489
 5606TIP3    H216760   4.213   4.521   0.557 -1.6119 -1.3990 -1.9680
 5607TIP3   OH216761   2.843   7.402   5.760 -0.5375 -0.5022 -0.2335
 5607TIP3    H116762   2.882   7.425   5.845 -1.1857 -0.4219  0.0438
 5607TIP3    H216763   2.831   7.307   5.764 -1.2754 -0.3984  0.0657
 5608TIP3   OH216764   2.319   6.719   0.686 -0.1796 -0.3379 -0.1766
 5608TIP3    H116765   2.352   6.760   0.607 -0.3385  2.1994  0.9604
 5608TIP3    H216766   2.397   6.686   0.731  0.3501  1.3025  0.1935
 5609TIP3   OH216767   5.558   5.253   1.211 -0.3013  0.4124 -0.3603
 5609TIP3    H116768   5.480   5.202   1.190 -0.9956  0.1610  2.3695
 5609TIP3    H216769   5.541   5.286   1.300  3.8882 -2.2067  1.7405
 5610TIP3   OH216770   6.913   2.857   2.624 -0.5090  0.4736  0.1514
 5610TIP3    H116771   6.901   2.827   2.714 -1.5467 -1.0980 -0.4762
 5610TIP3    H216772   6.873   2.944   2.622 -0.8988  0.3238  1.0771
 5611TIP3   OH216773   6.656   3.244   5.221 -0.4094 -0.0250  0.0297
 5611TIP3    H116774   6.571   3.280   5.195  0.0243  0.0902 -1.2684
 5611TIP3    H216775   6.715   3.265   5.149  0.5060 -0.9525  0.4739
 5612TIP3   OH216776   5.270   3.995   0.961 -0.2565  0.0678  0.4672
 5612TIP3    H116777   5.259   4.009   1.055 -1.3263 -0.3184  0.4209
 5612TIP3    H216778   5.205   4.052   0.920  0.2097  0.2431 -0.0479
 5613TIP3   OH216779   1.578   4.624   0.081  0.2717  0.7307  0.0224
 5613TIP3    H116780   1.581   4.708   0.125  0.3995 -0.0385  1.5381
 5613TIP3    H216781   1.663   4.617   0.037  0.9628  0.6641  1.3200
 5614TIP3   OH216782   1.580   4.776   6.771 -0.3049  0.3943  0.2260
 5614TIP3    H116783   1.597   4.688   6.736 -0.8773 -0.0239  0.9744
 5614TIP3    H216784   1.586   4.765   6.866 -0.1801  1.2140  0.3188
 5615TIP3   OH216785   7.371   2.613   6.730 -0.6017 -0.2166 -0.9079
 5615TIP3    H116786   7.364   2.658   6.646 -0.2762 -0.2611 -0.9603
 5615TIP3    H216787   7.305   2.544   6.725 -2.1411  1.1468 -0.2483
 5616TIP3   OH216788   3.376   0.321   0.216 -0.0175 -0.4405 -0.3014
 5616TIP3    H116789   3.299   0.281   0.175 -0.0663 -0.0272 -0.6245
 5616TIP3    H216790   3.388   0.272   0.298 -1.6765  0.5874  0.6276
 5617TIP3   OH216791   0.099   0.486   0.801 -0.4438  0.1201  0.2590
 5617TIP3    H116792   0.043   0.491   0.724 -0.9972 -0.2791  0.6337
 5617TIP3    H216793   0.055   0.540   0.867  0.1400  0.6435  0.2393
 5618TIP3   OH216794   0.509   1.708   0.224  0.5732 -0.5016 -0.1164
 5618TIP3    H116795   0.494   1.703   0.318 -1.2415 -0.1220 -0.3470
 5618TIP3    H216796   0.580   1.771   0.215  0.4132 -0.1386  0.9729
 5619TIP3   OH216797   3.360   4.209   1.231  0.3109 -0.4791 -0.4655
 5619TIP3    H116798   3.443   4.209   1.183  0.7350  0.3981  0.2258
 5619TIP3    H216799   3.380   4.257   1.312 -0.4112 -1.7885  0.5250
 5620TIP3   OH216800   0.009   2.322   2.852 -0.7474 -0.6794  0.2514
 5620TIP3    H116801  -0.044   2.383   2.801  0.2807  0.9990  1.1008
 5620TIP3    H216802   0.068   2.282   2.789 -1.4661 -0.8641 -0.3219
 5621TIP3   OH216803   2.914   6.928   1.674  0.1226 -0.3521  0.1735
 5621TIP3    H116804   2.857   6.906   1.748 -0.0310 -1.9478 -0.3622
 5621TIP3    H216805   3.003   6.911   1.706  0.1220 -0.1237  0.2924
 5622TIP3   OH216806   2.386   4.799   0.609  0.3299 -0.3460 -0.7591
 5622TIP3    H116807   2.308   4.816   0.557  0.9805 -1.0886 -2.0361
 5622TIP3    H216808   2.370   4.843   0.692 -1.0502  0.2748 -1.3272
 5623TIP3   OH216809   7.468   3.632   2.919 -0.3615  0.6892 -0.0246
 5623TIP3    H116810   7.401   3.573   2.954 -0.5608  2.1820  2.3044
 5623TIP3    H216811   7.426   3.673   2.843 -1.0411 -0.4721 -0.2913
 5624TIP3   OH216812   6.395   3.586   5.532  0.0781 -0.2499  0.0969
 5624TIP3    H116813   6.403   3.596   5.626  0.8934  0.1225 -0.0064
 5624TIP3    H216814   6.438   3.503   5.513  0.3859 -0.0639 -0.0137
 5625TIP3   OH216815   4.252   0.016   2.750 -0.3614 -0.2353  0.1669
 5625TIP3    H116816   4.250  -0.025   2.664  1.7428  2.1274 -1.1546
 5625TIP3    H216817   4.161   0.038   2.769 -1.3181 -3.6128  0.1168
 5626TIP3   OH216818   3.462   7.138   6.309 -0.1276  0.3529  0.2794
 5626TIP3    H116819   3.512   7.202   6.258 -0.0220 -0.2622 -0.4149
 5626TIP3    H216820   3.491   7.151   6.399  1.2135  0.1059 -0.0856
 5627TIP3   OH216821   5.508   0.893   4.593 -0.6837  0.1398  0.5551
 5627TIP3    H116822   5.601   0.880   4.576 -1.0203 -1.1117 -0.4960
 5627TIP3    H216823   5.505   0.958   4.664  0.9696  0.1927  0.6093
 5628TIP3   OH216824   6.782   5.332   1.730  0.0343 -0.2942 -0.4606
 5628TIP3    H116825   6.862   5.311   1.680 -0.4362  0.8393 -1.7459
 5628TIP3    H216826   6.759   5.250   1.773  1.6319 -0.7711 -0.4384
 5629TIP3   OH216827   3.613   1.773   1.546 -0.4622  0.2785 -0.0237
 5629TIP3    H116828   3.688   1.714   1.541 -0.4979  0.1745  0.6249
 5629TIP3    H216829   3.635   1.845   1.486  0.8154  0.9787  1.2405
 5630TIP3   OH216830   1.151   7.260   1.594  0.4964 -0.2083  0.6737
 5630TIP3    H116831   1.134   7.168   1.575  1.0510 -0.0283 -0.7989
 5630TIP3    H216832   1.243   7.272   1.573  0.9394  0.2661  2.6629
 5631TIP3   OH216833   3.236   4.415   1.100  0.0661 -0.2128 -0.2591
 5631TIP3    H116834   3.252   4.334   1.150 -2.5033  0.9299  2.7633
 5631TIP3    H216835   3.269   4.485   1.157  1.3429  1.0320 -2.3859
 5632TIP3   OH216836   2.676   4.965   2.015 -0.1863  0.2111  0.1490
 5632TIP3    H116837   2.662   5.028   2.085 -1.3648 -0.9457  1.0133
 5632TIP3    H216838   2.771   4.956   2.009 -0.0648 -0.1451  2.0802
 5633TIP3   OH216839   0.626   0.540   1.981  0.0981 -0.6698 -0.7438
 5633TIP3    H116840   0.535   0.524   1.955 -0.6949  1.9263  0.0967
 5633TIP3    H216841   0.668   0.575   1.903 -0.3287  0.4149 -0.5064
 5634TIP3   OH216842   0.667   2.011   3.096  0.3398  0.1821 -0.1040
 5634TIP3    H116843   0.617   1.974   3.169  0.0589 -0.3967 -0.5787
 5634TIP3    H216844   0.707   2.090   3.132 -1.1481  0.8205  0.2302
 5635TIP3   OH216845   1.119   2.987   3.590 -0.0273  0.0485  0.0236
 5635TIP3    H116846   1.097   2.970   3.498 -0.5030  0.0469  0.1338
 5635TIP3    H216847   1.035   2.983   3.635  0.3155 -0.8172  0.5999
 5636TIP3   OH216848   2.563   1.037   1.363  0.2913  0.0281  0.5354
 5636TIP3    H116849   2.561   0.947   1.330  0.8885  0.1344  0.1842
 5636TIP3    H216850   2.513   1.034   1.444  0.3666 -0.6388  0.5646
 5637TIP3   OH216851   1.084   7.619   1.439 -0.1673  0.2471 -0.2175
 5637TIP3    H116852   1.084   7.701   1.390 -0.3972  1.0630  1.1026
 5637TIP3    H216853   1.137   7.637   1.517 -1.0554 -0.5221  0.5983
 5638TIP3   OH216854   2.985   3.233   3.246  0.2082  0.5747  0.1466
 5638TIP3    H116855   2.920   3.236   3.316  0.5457 -0.1726  0.5045
 5638TIP3    H216856   2.967   3.311   3.193  0.2289  1.3981  1.3103
 5639TIP3   OH216857   3.853   0.681   0.424 -0.5141 -0.3717 -0.0387
 5639TIP3    H116858   3.801   0.637   0.357  0.1790 -1.2943  0.0071
 5639TIP3    H216859   3.888   0.609   0.477  1.2200  0.1845 -0.3880
 5640TIP3   OH216860   6.099   3.699   6.146  0.0485  1.0073  0.1325
 5640TIP3    H116861   6.048   3.764   6.194  0.0739 -1.0552  3.2849
 5640TIP3    H216862   6.184   3.697   6.191  0.9850  0.5673 -1.5466
 5641TIP3   OH216863   7.668   0.112   0.574 -0.2123  0.1609 -0.1683
 5641TIP3    H116864   7.620   0.031   0.555  1.9049 -1.2376  0.0264
 5641TIP3    H216865   7.740   0.112   0.511  1.3893  0.4556  1.5694
 5642TIP3   OH216866   8.047   4.639   4.963 -0.6557  0.4647  0.3201
 5642TIP3    H116867   7.972   4.622   5.019 -0.4682  2.6760  1.3712
 5642TIP3    H216868   8.012   4.687   4.888 -0.5400 -0.2298 -0.1935
 5643TIP3   OH216869   3.117   7.866   3.056 -0.3552  0.7873  0.3193
 5643TIP3    H116870   3.189   7.906   3.104  0.2780 -0.3052  0.3241
 5643TIP3    H216871   3.128   7.896   2.966 -0.6311  1.6011  0.5483
 5644TIP3   OH216872   3.872   0.930   1.401 -0.2036 -0.0432  0.4409
 5644TIP3    H116873   3.890   1.000   1.464 -0.3950 -1.0805  1.6892
 5644TIP3    H216874   3.777   0.925   1.395 -0.2207  1.6402 -1.8132
 5645TIP3   OH216875   3.774   3.751   4.349  0.2046  0.1118  0.5136
 5645TIP3    H116876   3.711   3.731   4.280 -0.4775  2.1660  0.4581
 5645TIP3    H216877   3.854   3.706   4.322  0.1046  1.2320 -1.9387
 5646TIP3   OH216878   7.750   6.537   2.540  0.0068  0.3553 -0.2617
 5646TIP3    H116879   7.659   6.561   2.559 -0.5650 -0.1303 -2.1684
 5646TIP3    H216880   7.760   6.449   2.576 -0.4314  0.2153 -0.4746
 5647TIP3   OH216881   2.975   4.970   1.825 -0.9253 -0.4482 -0.3534
 5647TIP3    H116882   2.946   5.056   1.854  3.9669  1.1702  0.5829
 5647TIP3    H216883   2.978   4.917   1.904 -0.0895 -0.1575 -0.1807
 5648TIP3   OH216884   1.254   0.385   1.192 -0.1917  0.4036  0.3036
 5648TIP3    H116885   1.173   0.356   1.234  0.1042  0.0991  0.6635
 5648TIP3    H216886   1.293   0.446   1.254 -0.4133  0.9791 -0.1074
 5649TIP3   OH216887   3.977   4.606   3.990 -0.3055 -0.0694 -0.8927
 5649TIP3    H116888   4.048   4.541   3.990 -1.6506 -1.6083 -0.1562
 5649TIP3    H216889   3.954   4.616   3.898  0.1828 -0.3444 -1.0475
 5650TIP3   OH216890   6.589   0.940   1.525 -0.0474  0.7299  0.1315
 5650TIP3    H116891   6.649   0.915   1.595 -0.5513 -0.7408  0.0651
 5650TIP3    H216892   6.502   0.932   1.563 -0.2846  0.8656 -0.3751
 5651TIP3   OH216893   7.684   3.603   5.098  0.2262 -0.2123 -0.1152
 5651TIP3    H116894   7.618   3.655   5.144  0.0140 -0.7324  0.1743
 5651TIP3    H216895   7.767   3.635   5.132  0.1082  0.1249 -0.1382
 5652TIP3   OH216896   1.466   5.456   3.055 -0.4930 -0.2761  0.1154
 5652TIP3    H116897   1.519   5.394   3.004 -0.0814 -0.0640  0.2847
 5652TIP3    H216898   1.380   5.454   3.013 -1.0672 -2.4115  1.2555
 5653TIP3   OH216899   1.830   7.506   4.765  0.4901 -0.3496 -0.0297
 5653TIP3    H116900   1.797   7.580   4.715  1.3899  0.2314  0.2142
 5653TIP3    H216901   1.909   7.539   4.808  1.4601 -1.7296 -0.6835
 5654TIP3   OH216902   5.819   4.432   5.138  0.8579  0.7413  0.0995
 5654TIP3    H116903   5.791   4.359   5.082  0.5816  0.4075  0.6693
 5654TIP3    H216904   5.912   4.442   5.119  1.0847 -0.2875  0.6050
 5655TIP3   OH216905   0.865   1.892   1.485  0.3711 -0.3472  0.1178
 5655TIP3    H116906   0.863   1.887   1.390 -3.6374 -0.1886  0.0326
 5655TIP3    H216907   0.844   1.983   1.505 -4.0668 -1.3306  0.9302
 5656TIP3   OH216908   2.034   7.395   0.887  0.0535  0.8269  0.2748
 5656TIP3    H116909   2.072   7.350   0.963 -0.3988 -0.9642 -0.4937
 5656TIP3    H216910   2.052   7.336   0.814 -0.8835  1.7648 -0.7338
 5657TIP3   OH216911   2.419   1.067   5.206 -0.1945  0.4570 -0.1181
 5657TIP3    H116912   2.348   1.066   5.143 -0.6903 -0.2606  0.4396
 5657TIP3    H216913   2.376   1.079   5.291  0.3191 -0.1929  0.2472
 5658TIP3   OH216914   1.772   7.530   2.711  0.4167 -0.3854  0.1368
 5658TIP3    H116915   1.760   7.470   2.785 -0.7592 -1.6482 -1.0259
 5658TIP3    H216916   1.790   7.473   2.636  0.7242  0.8136 -0.7318
 5659TIP3   OH216917   8.288   0.525   0.532 -0.4723  0.2563 -0.1672
 5659TIP3    H116918   8.293   0.487   0.444  1.3768 -0.3362  0.1487
 5659TIP3    H216919   8.291   0.620   0.517  1.5547  0.1621 -0.7394
 5660TIP3   OH216920   3.885   3.278   0.959 -0.2275 -0.4597  0.0554
 5660TIP3    H116921   3.963   3.261   1.011 -0.3111 -0.9879  0.0123
 5660TIP3    H216922   3.812   3.267   1.020 -0.3656 -1.7282 -0.3030
 5661TIP3   OH216923   3.036   4.103   0.811 -0.0256  0.1192 -0.1203
 5661TIP3    H116924   3.117   4.095   0.761  0.3211  0.7044  0.3360
 5661TIP3    H216925   2.999   4.187   0.785 -0.9711 -0.5490 -1.0147
 5662TIP3   OH216926   3.146   5.949   0.122 -0.4145 -0.5797  0.1742
 5662TIP3    H116927   3.082   5.877   0.120 -1.3299  0.2013  0.4543
 5662TIP3    H216928   3.224   5.912   0.081 -1.0387 -1.5701 -0.1850
 5663TIP3   OH216929   3.573   6.266   4.196  0.0596  0.1079 -0.2791
 5663TIP3    H116930   3.657   6.279   4.151  0.0469 -1.6272 -0.8829
 5663TIP3    H216931   3.524   6.347   4.180  1.0630  0.5732 -1.1394
 5664TIP3   OH216932   2.839   0.982   2.865 -0.0557  0.1848  0.0392
 5664TIP3    H116933   2.860   1.024   2.782  0.3765  0.8729  0.4884
 5664TIP3    H216934   2.753   0.942   2.850  1.0856 -1.8950 -1.5340
 5665TIP3   OH216935   2.229   6.012   2.514 -0.0729  0.4930  0.6985
 5665TIP3    H116936   2.239   5.934   2.459  0.8377 -0.1031  1.6820
 5665TIP3    H216937   2.289   5.998   2.587  1.4410  2.9010  0.0402
 5666TIP3   OH216938   6.213   0.663   3.263 -0.1388 -0.0327  0.3490
 5666TIP3    H116939   6.212   0.594   3.196 -0.8046  0.9595 -0.6949
 5666TIP3    H216940   6.121   0.686   3.275  0.0632  0.5211  0.8629
 5667TIP3   OH216941   3.984   3.365   1.333  0.1667  0.1823  0.0902
 5667TIP3    H116942   3.930   3.289   1.311 -0.1684  0.6019 -0.5743
 5667TIP3    H216943   3.934   3.439   1.299  0.8822  0.6245  0.0006
 5668TIP3   OH216944   7.231   6.338   1.659  0.0375  0.1885 -0.5501
 5668TIP3    H116945   7.139   6.360   1.669  0.5029  1.9693  0.3088
 5668TIP3    H216946   7.244   6.324   1.565 -1.9586 -4.5739 -0.3808
 5669TIP3   OH216947   4.426   4.657   1.194  0.2533 -0.1482  0.6392
 5669TIP3    H116948   4.435   4.707   1.275 -0.9678  1.1381  0.0258
 5669TIP3    H216949   4.516   4.651   1.160  0.4416  1.8645  0.6293
 5670TIP3   OH216950   1.494   3.371   5.735  0.1193 -0.3437 -0.0436
 5670TIP3    H116951   1.458   3.402   5.819 -0.8946 -0.7567 -0.3156
 5670TIP3    H216952   1.432   3.305   5.705  1.3318 -1.3910 -0.3374
 5671TIP3   OH216953   8.047   2.652   3.372 -0.0554 -0.3384 -0.0581
 5671TIP3    H116954   8.081   2.591   3.306 -0.9587 -0.3014 -0.5839
 5671TIP3    H216955   8.078   2.617   3.455 -0.6901 -1.6310 -0.3412
 5672TIP3   OH216956   1.628   7.037   4.939  0.1316 -0.1910  0.5009
 5672TIP3    H116957   1.576   7.037   5.020 -1.5995 -0.5775 -0.5525
 5672TIP3    H216958   1.663   7.126   4.934 -0.0149 -0.0594  1.4997
 5673TIP3   OH216959   3.352   6.090   3.757  0.6143 -0.3809  0.5131
 5673TIP3    H116960   3.321   6.023   3.697 -0.9355 -1.6409  2.5877
 5673TIP3    H216961   3.379   6.042   3.835  0.4543  1.3309  1.6741
 5674TIP3   OH216962   2.807   0.374   3.297 -0.3559  0.1502 -0.0464
 5674TIP3    H116963   2.881   0.433   3.308 -0.2583  0.4276 -1.7917
 5674TIP3    H216964   2.730   0.429   3.309 -0.2658  0.3582 -0.4100
 5675TIP3   OH216965   0.563   0.709   2.189  0.0427  0.0328 -0.0821
 5675TIP3    H116966   0.599   0.652   2.121 -1.2064 -0.0242 -0.7241
 5675TIP3    H216967   0.576   0.660   2.270  1.9590  0.2932 -0.1711
 5676TIP3   OH216968   5.825   5.257   2.502 -0.7165  0.0550 -0.2029
 5676TIP3    H116969   5.791   5.306   2.577  1.6988 -0.8657  1.6239
 5676TIP3    H216970   5.882   5.319   2.457  1.0587 -0.4946  1.1730
 5677TIP3   OH216971   1.442   4.877   5.577 -0.1080 -0.1620 -0.4911
 5677TIP3    H116972   1.495   4.849   5.651 -0.1896 -0.7812 -0.6549
 5677TIP3    H216973   1.363   4.824   5.583  0.2656 -0.8921 -1.5185
 5678TIP3   OH216974   2.694   4.843   6.341 -0.1202 -0.5163 -0.5859
 5678TIP3    H116975   2.628   4.893   6.294 -0.1857  1.0904  1.1365
 5678TIP3    H216976   2.776   4.891   6.326  0.0353 -0.5545  0.0964
 5679TIP3   OH216977   4.810   4.701   1.372 -0.2116 -0.0364  0.3633
 5679TIP3    H116978   4.789   4.772   1.311  1.5825  0.0129 -0.2448
 5679TIP3    H216979   4.886   4.733   1.421  0.5055 -1.4448  0.2247
 5680TIP3   OH216980   7.158   3.600   2.606  0.4535 -0.0148  0.8064
 5680TIP3    H116981   7.194   3.668   2.549 -0.1396 -0.8345 -0.6046
 5680TIP3    H216982   7.165   3.636   2.694  0.0495  1.9392  0.0980
 5681TIP3   OH216983   2.177   4.551   5.275  0.3295 -0.3755  0.3735
 5681TIP3    H116984   2.179   4.622   5.339 -1.9515  0.6895 -0.6055
 5681TIP3    H216985   2.215   4.589   5.196  0.1601 -0.6200  0.1717
 5682TIP3   OH216986   6.387   6.948   5.629 -0.7582 -0.3657 -0.1103
 5682TIP3    H116987   6.306   6.898   5.627 -0.1655 -1.4457  1.0411
 5682TIP3    H216988   6.404   6.962   5.722  0.4234 -0.2562 -0.3243
 5683TIP3   OH216989   4.753   0.028   3.724  0.0049  0.3961  0.9508
 5683TIP3    H116990   4.815  -0.044   3.733  0.5132  0.8104  0.8192
 5683TIP3    H216991   4.793   0.100   3.772  0.0304  0.9263  0.1471
 5684TIP3   OH216992   4.964   1.265   5.109  0.1211  0.1022  0.6585
 5684TIP3    H116993   4.929   1.320   5.038 -1.2928  0.7491  1.8048
 5684TIP3    H216994   4.911   1.185   5.106  0.5972 -0.2042  0.4720
 5685TIP3   OH216995   3.888   7.652   4.283 -1.0659  0.3556  0.6546
 5685TIP3    H116996   3.816   7.705   4.318  0.3099  3.0181 -0.2210
 5685TIP3    H216997   3.845   7.588   4.226 -2.7469  2.1368 -0.2030
 5686TIP3   OH216998   2.263   0.587   5.656 -0.4752 -0.5609 -0.3334
 5686TIP3    H116999   2.188   0.545   5.699  0.1698 -1.6919 -0.2452
 5686TIP3    H217000   2.339   0.540   5.691  0.3364  0.9823  0.0787
 5687TIP3   OH217001   6.268   6.965   5.064 -0.5277  1.1341  0.1447
 5687TIP3    H117002   6.205   6.917   5.010  0.3835  0.6514 -0.5193
 5687TIP3    H217003   6.225   6.973   5.149 -0.6071 -1.1898  0.3923
 5688TIP3   OH217004   6.807   5.009   6.134  1.0472 -0.2938  0.3202
 5688TIP3    H117005   6.774   5.081   6.081  0.1353  0.0091  1.2488
 5688TIP3    H217006   6.873   5.048   6.190 -0.1541  0.0885  1.5361
 5689TIP3   OH217007   7.246   0.426   0.191 -0.2048  0.0172  0.2148
 5689TIP3    H117008   7.240   0.343   0.145  0.0696  0.0878  0.0528
 5689TIP3    H217009   7.155   0.451   0.207 -0.3123 -1.3122  2.0662
 5690TIP3   OH217010   2.409   2.778   0.051 -0.3539 -0.1828  0.0203
 5690TIP3    H117011   2.321   2.768   0.017  0.2410 -4.3352 -0.8207
 5690TIP3    H217012   2.404   2.749   0.142  0.1524 -0.6269 -0.0850
 5691TIP3   OH217013   1.928   5.282   1.505 -0.3236 -0.2030 -0.5236
 5691TIP3    H117014   1.875   5.205   1.487  0.3995 -1.4991  2.2343
 5691TIP3    H217015   1.945   5.321   1.419 -3.1812 -1.3867 -1.7435
 5692TIP3   OH217016   7.374   3.212   1.890 -0.1969  0.4464  0.5023
 5692TIP3    H117017   7.466   3.189   1.874 -0.7434 -0.9666 -0.8361
 5692TIP3    H217018   7.346   3.154   1.960 -0.7151 -0.8643 -0.7541
 5693TIP3   OH217019   8.240   3.529   0.644 -0.0202 -0.6116 -0.2498
 5693TIP3    H117020   8.144   3.520   0.645 -0.0271 -0.5262  0.3684
 5693TIP3    H217021   8.256   3.618   0.677  0.1638  0.6462 -3.4400
 5694TIP3   OH217022   6.816   4.124   3.573  0.4325 -0.2997 -0.4434
 5694TIP3    H117023   6.788   4.117   3.664  2.4067 -0.7630  0.1791
 5694TIP3    H217024   6.735   4.122   3.522 -0.6032 -2.4702  1.1475
 5695TIP3   OH217025   3.466   4.542   4.787  0.4152  0.2673 -0.4548
 5695TIP3    H117026   3.452   4.574   4.698  0.9632  0.8233 -0.3486
 5695TIP3    H217027   3.407   4.594   4.841  0.3771  0.2156 -0.4473
 5696TIP3   OH217028   7.962   1.109   3.699  0.0556 -0.2476  0.2811
 5696TIP3    H117029   8.025   1.112   3.627 -0.2469  1.4350  0.0446
 5696TIP3    H217030   7.948   1.015   3.715  1.8485 -0.6605 -0.3167
 5697TIP3   OH217031   1.632   7.331   4.807  0.5147  0.0872  0.3386
 5697TIP3    H117032   1.571   7.349   4.735 -0.3387 -3.4385 -0.0123
 5697TIP3    H217033   1.710   7.381   4.785  0.0055 -0.2251 -2.6891
 5698TIP3   OH217034   5.057   1.202   1.747  0.3731  0.4443  0.5468
 5698TIP3    H117035   5.014   1.191   1.832 -1.8487  3.5636  0.0171
 5698TIP3    H217036   5.127   1.265   1.764  1.8386 -1.1107  0.5187
 5699TIP3   OH217037   6.401   3.414   0.261  0.0416  0.2754 -0.2738
 5699TIP3    H117038   6.323   3.418   0.316  0.4040 -1.3406  0.4259
 5699TIP3    H217039   6.368   3.389   0.175 -0.2356 -0.2251 -0.0233
 5700TIP3   OH217040   6.643   0.919   1.228  0.1767  0.7231 -0.8655
 5700TIP3    H117041   6.630   0.934   1.322 -0.0904  0.5411 -0.8700
 5700TIP3    H217042   6.686   0.998   1.196  2.4808 -0.1656 -0.1448
 5701TIP3   OH217043   1.508   7.946   2.352  0.9698 -0.7387 -0.3428
 5701TIP3    H117044   1.559   7.870   2.324  0.8936 -1.5301  1.4643
 5701TIP3    H217045   1.422   7.909   2.376  0.6749  0.0460 -0.1753
 5702TIP3   OH217046   3.128   6.849   6.399 -0.2472  0.3679  0.4904
 5702TIP3    H117047   3.048   6.804   6.427 -0.1095 -0.8923 -0.9989
 5702TIP3    H217048   3.103   6.942   6.396 -1.2768  0.1384  1.2544
 5703TIP3   OH217049   6.139   7.705   6.645 -0.6539  0.0887 -0.1599
 5703TIP3    H117050   6.175   7.679   6.560 -0.3141  1.0406 -0.3202
 5703TIP3    H217051   6.191   7.781   6.671 -0.8144 -0.1307  0.8647
 5704TIP3   OH217052   7.231   6.694   2.973 -0.0305 -0.1320  0.3331
 5704TIP3    H117053   7.182   6.775   2.962 -0.7431 -0.7410 -1.2711
 5704TIP3    H217054   7.322   6.723   2.983 -0.4592  0.9173  1.4720
 5705TIP3   OH217055   3.061   4.474   5.053 -0.8105 -0.2359  0.0120
 5705TIP3    H117056   3.137   4.423   5.081  0.9034  1.8857 -0.5511
 5705TIP3    H217057   3.015   4.496   5.134 -0.3186 -0.7610  0.4368
 5706TIP3   OH217058   4.905   2.560   4.000 -0.2336  0.8480  0.0625
 5706TIP3    H117059   4.876   2.469   4.007  1.3701  0.2347 -0.7354
 5706TIP3    H217060   4.863   2.604   4.074  0.7348 -1.0400  1.8406
 5707TIP3   OH217061   8.369   5.761   0.623 -0.1536 -0.1472  0.5084
 5707TIP3    H117062   8.333   5.823   0.687 -0.9103  0.0622 -0.1117
 5707TIP3    H217063   8.450   5.730   0.663  0.6595  1.8322  0.4958
 5708TIP3   OH217064   6.745   3.502   5.719 -0.3269  0.4052 -0.2061
 5708TIP3    H117065   6.727   3.577   5.663  0.1484  0.0496 -0.8449
 5708TIP3    H217066   6.658   3.472   5.747 -0.6993 -0.4110 -2.0899
 5709TIP3   OH217067   5.198   6.987   6.144  0.1813  0.0775 -0.4600
 5709TIP3    H117068   5.238   7.055   6.199 -0.1693  0.5953 -0.8287
 5709TIP3    H217069   5.223   7.011   6.055 -1.0714  0.5230 -0.7189
 5710TIP3   OH217070   0.919   4.835   3.644 -0.7128  0.0372  0.1495
 5710TIP3    H117071   0.980   4.905   3.621 -2.6263  1.3974 -1.0350
 5710TIP3    H217072   0.970   4.777   3.700  1.4639  1.4387 -0.2534
 5711TIP3   OH217073   4.690   5.927   4.721  0.1085  0.0077 -0.4365
 5711TIP3    H117074   4.685   5.924   4.817  0.5548  0.8727 -0.3689
 5711TIP3    H217075   4.652   6.012   4.699  0.9746  0.2633 -0.9481
 5712TIP3   OH217076   2.692   6.218   5.599  0.0434 -0.6996 -0.8777
 5712TIP3    H117077   2.694   6.180   5.687  1.8117 -1.5289 -1.2357
 5712TIP3    H217078   2.746   6.296   5.605 -0.8394 -0.0726 -0.9519
 5713TIP3   OH217079   5.793   7.882   5.968 -0.1190  0.2296 -0.6346
 5713TIP3    H117080   5.701   7.860   5.984 -0.9994  3.2811 -0.7944
 5713TIP3    H217081   5.809   7.855   5.877 -1.1177  0.3704 -0.8619
 5714TIP3   OH217082   5.340   7.244   5.354  0.1586  0.2685 -0.2494
 5714TIP3    H117083   5.397   7.320   5.369  1.2576 -0.0593 -2.3637
 5714TIP3    H217084   5.389   7.190   5.292 -0.8498 -1.9162  0.7624
 5715TIP3   OH217085   7.437   6.832   6.093  0.2627 -0.0238  0.3459
 5715TIP3    H117086   7.513   6.795   6.046 -0.0882 -2.1881  1.3428
 5715TIP3    H217087   7.431   6.779   6.173 -1.8872  0.5621  0.6173
 5716TIP3   OH217088   1.079   6.941   2.544  0.2034 -0.2162  1.0323
 5716TIP3    H117089   1.120   7.027   2.545 -1.1721  0.5237 -0.7519
 5716TIP3    H217090   1.147   6.881   2.513  0.4384  0.6902 -0.2497
 5717TIP3   OH217091   3.342   5.627   5.711 -0.3434 -0.3667 -0.1078
 5717TIP3    H117092   3.321   5.533   5.712 -0.4582 -0.3980 -1.7386
 5717TIP3    H217093   3.313   5.659   5.796  0.9435 -2.0491  1.0317
 5718TIP3   OH217094   7.203   2.125   1.365 -0.2688  0.1718  0.1986
 5718TIP3    H117095   7.247   2.202   1.330 -0.8766  0.6626  0.5034
 5718TIP3    H217096   7.257   2.051   1.335  1.5470  0.8063  1.6527
 5719TIP3   OH217097   6.985   2.789   6.533  0.3382 -0.4142 -0.1583
 5719TIP3    H117098   6.997   2.710   6.479 -0.2094  0.2796 -1.3531
 5719TIP3    H217099   7.054   2.848   6.503  1.4380 -0.7908  1.4987
 5720TIP3   OH217100   1.984   3.058   3.246 -0.3283 -0.5540 -0.0121
 5720TIP3    H117101   1.935   3.060   3.328 -0.3708 -1.6357  0.0082
 5720TIP3    H217102   1.934   2.999   3.190 -0.6390  0.6525 -1.0562
 5721TIP3   OH217103   6.429   4.477   5.624 -0.5455  0.1429  0.6255
 5721TIP3    H117104   6.375   4.400   5.606  0.2054 -0.5586  1.2974
 5721TIP3    H217105   6.474   4.495   5.542 -1.0751  0.1607  0.3315
 5722TIP3   OH217106   5.315   4.499   2.833  0.1781  0.1494 -0.3035
 5722TIP3    H117107   5.358   4.429   2.881 -0.4096  0.4283  0.6555
 5722TIP3    H217108   5.225   4.469   2.822 -0.1953  0.9444  0.5133
 5723TIP3   OH217109   8.204   2.462   3.746 -0.3413 -0.5061  0.0253
 5723TIP3    H117110   8.226   2.554   3.730  3.4927 -1.0938  0.8116
 5723TIP3    H217111   8.188   2.457   3.840 -2.8185 -0.3708 -0.3246
 5724TIP3   OH217112   1.686   6.513   5.187  0.3008 -0.1378  0.0319
 5724TIP3    H117113   1.634   6.568   5.246  0.4681  0.3020 -0.2236
 5724TIP3    H217114   1.631   6.502   5.109  0.5108  0.1869 -0.1692
 5725TIP3   OH217115   4.050   6.156   1.354 -0.5454 -0.0887 -0.6923
 5725TIP3    H117116   3.987   6.151   1.282 -1.5725 -0.9579  0.2278
 5725TIP3    H217117   3.996   6.165   1.433  0.5632  1.7257 -0.0652
 5726TIP3   OH217118   5.946   2.347   0.752 -0.4252 -0.3161  0.3476
 5726TIP3    H117119   6.004   2.366   0.825 -0.7362 -1.3225  0.8780
 5726TIP3    H217120   6.005   2.320   0.681 -0.1675 -0.0739  0.4690
 5727TIP3   OH217121   7.895   5.378   4.442 -0.6089 -0.2815 -0.6258
 5727TIP3    H117122   7.916   5.308   4.379 -0.6106 -1.3908  0.5656
 5727TIP3    H217123   7.802   5.396   4.427 -0.4921 -0.1675 -1.2746
 5728TIP3   OH217124   0.092   6.504   3.300  0.2021 -0.3047 -0.2368
 5728TIP3    H117125   0.035   6.522   3.374  0.9620  0.1126  0.2664
 5728TIP3    H217126   0.114   6.590   3.264  0.5591 -0.4546 -0.3831
 5729TIP3   OH217127   1.891   3.318   4.365 -0.0238  0.2397  0.0263
 5729TIP3    H117128   1.967   3.270   4.397  1.0905  1.2685 -0.9630
 5729TIP3    H217129   1.897   3.310   4.269 -1.2566  0.2173 -0.0614
 5730TIP3   OH217130   3.526   1.099   6.187  0.0660 -0.6049 -0.0679
 5730TIP3    H117131   3.523   1.046   6.107 -1.8688 -0.8932  0.1394
 5730TIP3    H217132   3.492   1.041   6.255  0.8703 -0.0777  0.8068
 5731TIP3   OH217133   0.898   6.684   2.114 -0.4526 -0.5937 -0.3645
 5731TIP3    H117134   0.953   6.651   2.043 -0.9372 -1.7079 -0.2374
 5731TIP3    H217135   0.960   6.726   2.174 -0.0134  0.1922 -1.3324
 5732TIP3   OH217136   4.473   6.218   6.581 -0.0048 -0.2847 -0.9500
 5732TIP3    H117137   4.395   6.182   6.624  0.8133 -2.3818 -1.1085
 5732TIP3    H217138   4.524   6.258   6.651 -1.5715  1.9103 -0.9624
 5733TIP3   OH217139   7.310   4.847   3.022 -0.5353  0.4754  0.2638
 5733TIP3    H117140   7.367   4.793   3.076  0.5792  1.4385  0.0952
 5733TIP3    H217141   7.253   4.785   2.977 -1.2266 -0.3888  2.1941
 5734TIP3   OH217142   4.880   7.773   0.164 -0.2282 -0.5972  0.1319
 5734TIP3    H117143   4.917   7.702   0.216  0.4775 -0.4402 -0.1514
 5734TIP3    H217144   4.890   7.744   0.073  1.9318  0.7091 -0.1167
 5735TIP3   OH217145   7.626   6.878   0.017 -0.4533  0.1427  0.4595
 5735TIP3    H117146   7.570   6.947  -0.019 -3.2963 -1.9172  0.6396
 5735TIP3    H217147   7.629   6.895   0.111 -1.7893 -0.3520  0.6099
 5736TIP3   OH217148   0.472   4.145   5.291 -0.2560  0.0171  0.2409
 5736TIP3    H117149   0.507   4.215   5.237 -0.4750  0.3806  0.5599
 5736TIP3    H217150   0.533   4.139   5.365 -0.7761  0.5617  0.7289
 5737TIP3   OH217151   2.594   2.660   3.444  0.1884  0.5304  0.1588
 5737TIP3    H117152   2.620   2.583   3.393  0.4611  0.0161  1.0393
 5737TIP3    H217153   2.674   2.711   3.453  0.0532  0.8193 -0.2502
 5738TIP3   OH217154   4.095   7.199   3.956 -0.2556 -0.2083  0.3119
 5738TIP3    H117155   4.049   7.199   3.872  1.0691 -1.9021 -0.4621
 5738TIP3    H217156   4.141   7.283   3.957 -0.5913 -0.0004 -0.4677
 5739TIP3   OH217157   4.511   1.657   5.685 -0.2582  0.4201  0.6723
 5739TIP3    H117158   4.602   1.635   5.706 -0.0651  2.5793  2.4607
 5739TIP3    H217159   4.499   1.625   5.596  1.6348 -1.6006  1.0404
 5740TIP3   OH217160   8.148   1.079   4.791 -0.8202  0.3107  0.3967
 5740TIP3    H117161   8.098   1.016   4.843  2.8697 -1.8449  1.6767
 5740TIP3    H217162   8.151   1.040   4.703 -2.0610  0.9177  0.0663
 5741TIP3   OH217163   0.723   0.026   4.948  0.2496  0.5180  0.2221
 5741TIP3    H117164   0.678   0.110   4.959  1.8150  1.2002  1.7400
 5741TIP3    H217165   0.799   0.046   4.894 -1.1903 -0.6598 -2.4426
 5742TIP3   OH217166   1.090   7.229   3.245 -0.0350 -0.0279  0.1591
 5742TIP3    H117167   1.126   7.216   3.333 -0.2996 -0.6292  0.1817
 5742TIP3    H217168   1.084   7.141   3.208 -0.2978  0.1841 -0.3136
 5743TIP3   OH217169   6.773   4.184   3.851  0.4956 -0.0669 -0.1612
 5743TIP3    H117170   6.830   4.107   3.860 -1.3843 -1.7451 -1.4936
 5743TIP3    H217171   6.800   4.243   3.921  1.5493 -2.2794  1.4213
 5744TIP3   OH217172   0.884   5.102   5.108 -0.3545 -0.1547 -0.3207
 5744TIP3    H117173   0.964   5.117   5.158 -0.8233 -2.2517  1.2468
 5744TIP3    H217174   0.862   5.187   5.071  1.9238  0.7407  0.2093
 5745TIP3   OH217175   4.766   3.656   4.176 -0.6079 -0.1308 -0.4362
 5745TIP3    H117176   4.738   3.565   4.165 -2.1039  0.4196 -1.3957
 5745TIP3    H217177   4.857   3.657   4.144 -0.5530 -1.2813 -0.3701
 5746TIP3   OH217178   5.072   3.639   6.327  0.3122 -0.1084  0.6638
 5746TIP3    H117179   5.012   3.671   6.394  1.3903 -0.0173  1.6246
 5746TIP3    H217180   5.144   3.702   6.328  1.9705 -1.8881  1.8334
 5747TIP3   OH217181   4.378   2.405   4.056  0.5844  0.0392  0.1028
 5747TIP3    H117182   4.287   2.388   4.078  0.3762  1.2173  0.2138
 5747TIP3    H217183   4.403   2.332   4.000 -0.8213  0.3373 -0.9682
 5748TIP3   OH217184   2.264   1.866   1.625  0.0408  0.2014  0.0003
 5748TIP3    H117185   2.209   1.808   1.678  1.1691 -0.3769  0.5685
 5748TIP3    H217186   2.269   1.823   1.540 -1.0098  0.6548 -0.3003
 5749TIP3   OH217187   5.006   6.821   6.287 -0.2485  0.4032 -0.0917
 5749TIP3    H117188   5.044   6.821   6.375  0.4914  0.1955 -0.4035
 5749TIP3    H217189   5.065   6.876   6.235 -0.9956  0.9857 -0.3266
 5750TIP3   OH217190   5.654   0.612   2.985  0.1400 -0.0250  0.4235
 5750TIP3    H117191   5.666   0.530   3.034  0.1611  0.2828  0.9368
 5750TIP3    H217192   5.741   0.636   2.956  0.0841 -0.3795 -0.0473
 5751TIP3   OH217193   3.183   4.255   2.528  0.1976 -0.4835 -0.1624
 5751TIP3    H117194   3.117   4.196   2.492  1.0334 -2.4169  1.2843
 5751TIP3    H217195   3.137   4.337   2.544 -1.4443 -1.2737 -0.7058
 5752TIP3   OH217196   8.112   7.597   4.520  0.1580  0.2061  0.4864
 5752TIP3    H117197   8.026   7.559   4.539  0.4462 -0.0316  1.3184
 5752TIP3    H217198   8.092   7.682   4.479 -0.4698 -0.0566  0.2325
 5753TIP3   OH217199   6.712   5.560   6.473 -0.2219 -0.0036  0.3455
 5753TIP3    H117200   6.718   5.465   6.480  2.5905  0.1701  1.1942
 5753TIP3    H217201   6.723   5.577   6.379  0.3375 -0.4518  0.3269
 5754TIP3   OH217202   3.002   3.586   5.006 -0.0085 -1.0250 -0.1045
 5754TIP3    H117203   3.043   3.665   4.969  0.1424 -0.7310  0.6696
 5754TIP3    H217204   3.001   3.524   4.934 -1.8303  0.2861 -1.3050
 5755TIP3   OH217205   5.455   6.261   2.510  0.5743 -0.1573  0.3475
 5755TIP3    H117206   5.395   6.289   2.579 -0.9489 -0.6500 -0.7066
 5755TIP3    H217207   5.458   6.335   2.449 -2.3348 -1.5381 -1.7108
 5756TIP3   OH217208   3.721   6.898   2.252 -0.3570 -0.6621 -0.2864
 5756TIP3    H117209   3.782   6.882   2.325 -0.3365  0.5869 -0.0114
 5756TIP3    H217210   3.701   6.811   2.219 -0.8013 -1.3120  1.5738
 5757TIP3   OH217211   3.203   7.143   1.386 -0.1575 -0.5140 -0.0210
 5757TIP3    H117212   3.257   7.200   1.332  0.7809  0.0747  1.4822
 5757TIP3    H217213   3.172   7.200   1.457 -1.7354 -1.1541 -0.1491
 5758TIP3   OH217214   0.776   1.726   2.611  0.3109 -0.1341  0.1108
 5758TIP3    H117215   0.708   1.792   2.592  0.6044  0.1323 -0.0363
 5758TIP3    H217216   0.754   1.653   2.554  0.7462  0.3642 -0.7225
 5759TIP3   OH217217   5.236   7.231   3.990  0.7318 -0.2480  0.0529
 5759TIP3    H117218   5.254   7.152   3.939 -0.3820 -0.9978  0.7954
 5759TIP3    H217219   5.272   7.213   4.077 -0.8024 -0.5507  0.6528
 5760TIP3   OH217220   7.697   5.571   6.555  0.5463 -0.0552  0.5056
 5760TIP3    H117221   7.790   5.551   6.561  0.8541  1.1948  0.2673
 5760TIP3    H217222   7.664   5.564   6.645  0.9204 -0.2542  0.6260
 5761TIP3   OH217223   7.929   5.990   0.015  0.1210  0.0702 -0.0183
 5761TIP3    H117224   7.977   5.933   0.076  0.5900  0.5148  0.0426
 5761TIP3    H217225   7.879   5.930  -0.040 -0.3520 -0.3369  0.8418
 5762TIP3   OH217226   5.002   4.176   5.625  0.3957 -0.5626 -0.1455
 5762TIP3    H117227   4.931   4.222   5.581 -0.9890 -1.2346  1.2756
 5762TIP3    H217228   5.077   4.185   5.567 -0.6391  0.8593 -1.3153
 5763TIP3   OH217229   2.945   0.119   2.591  0.3412  0.2069 -0.0228
 5763TIP3    H117230   2.985   0.145   2.674  0.5412 -2.7325  0.9169
 5763TIP3    H217231   3.018   0.114   2.529  0.2764  1.8468 -0.2634
 5764TIP3   OH217232   7.543   3.339   4.444 -0.3967 -0.1250  0.6966
 5764TIP3    H117233   7.533   3.381   4.530  0.7596  2.7896 -0.4536
 5764TIP3    H217234   7.632   3.361   4.417 -0.8692 -0.6135 -1.4344
 5765TIP3   OH217235   0.867   7.442   1.260 -0.1060 -0.1526 -0.2376
 5765TIP3    H117236   0.867   7.500   1.336 -1.8818 -0.0723 -0.2531
 5765TIP3    H217237   0.844   7.356   1.296 -0.1237 -0.2866 -0.5658
 5766TIP3   OH217238   4.102   4.981   1.460  0.9408 -0.2155 -0.7003
 5766TIP3    H117239   4.075   4.924   1.389  0.2988 -0.4726 -0.2632
 5766TIP3    H217240   4.081   4.932   1.540  0.3232  0.6326 -0.3177
 5767TIP3   OH217241   8.010   7.470   1.177 -0.5992  0.4086 -0.2584
 5767TIP3    H117242   8.059   7.428   1.106 -0.0421  2.6506 -1.3026
 5767TIP3    H217243   7.919   7.465   1.150 -0.7684 -1.5975  0.4984
 5768TIP3   OH217244   8.389   6.180   6.535 -0.2592 -0.3829 -0.5201
 5768TIP3    H117245   8.396   6.086   6.518 -1.0328 -0.0493 -3.1750
 5768TIP3    H217246   8.304   6.190   6.578  0.0846 -0.9074  0.3280
 5769TIP3   OH217247   8.375   6.661   6.384 -0.2206 -0.5673  0.0507
 5769TIP3    H117248   8.354   6.741   6.337 -3.3280  0.0235  2.1206
 5769TIP3    H217249   8.393   6.689   6.474 -0.9194 -2.0986  0.7163
 5770TIP3   OH217250   7.027   2.738   5.788 -0.0970 -0.3348  0.1593
 5770TIP3    H117251   6.975   2.665   5.822  2.5941 -3.9261 -2.6745
 5770TIP3    H217252   6.983   2.763   5.707  0.5134 -0.8067 -0.3254
 5771TIP3   OH217253   7.214   6.986   3.018 -0.9458  0.2888  0.5492
 5771TIP3    H117254   7.136   7.025   2.977 -0.9375  0.6123  0.8315
 5771TIP3    H217255   7.283   7.051   3.004 -0.5364 -0.3315 -0.3563
 5772TIP3   OH217256   5.147   1.606   6.761  0.4026  0.6074 -0.1941
 5772TIP3    H117257   5.109   1.519   6.766  0.8000  0.3929 -0.8313
 5772TIP3    H217258   5.125   1.647   6.845  0.1474 -0.0754  0.0752
 5773TIP3   OH217259   4.681   5.657   1.284  0.1688  0.2042 -0.0902
 5773TIP3    H117260   4.620   5.729   1.271  0.8166  0.7589 -0.1057
 5773TIP3    H217261   4.629   5.578   1.265 -0.9135  0.5592  1.2392
 5774TIP3   OH217262   6.990   0.345   6.720  0.5385 -0.4092 -0.8143
 5774TIP3    H117263   7.069   0.398   6.718  1.0158 -1.1349 -1.8988
 5774TIP3    H217264   6.976   0.318   6.629 -0.7904 -0.5347 -0.5979
 5775TIP3   OH217265   4.046   6.544   3.790 -0.7484 -0.2295 -0.4158
 5775TIP3    H117266   3.976   6.480   3.777 -3.4195  2.0741  1.4914
 5775TIP3    H217267   4.007   6.627   3.763  1.9280  0.9355 -0.9797
 5776TIP3   OH217268   4.580   5.951   0.589 -0.0591 -0.1023  0.1110
 5776TIP3    H117269   4.561   5.864   0.556  1.6832 -0.3884 -0.2557
 5776TIP3    H217270   4.515   6.008   0.548 -0.5725 -1.0764 -0.4525
 5777TIP3   OH217271   3.937   7.607   3.334  0.1106  0.2294  0.0852
 5777TIP3    H117272   3.985   7.682   3.300 -1.1530  0.5374 -1.0653
 5777TIP3    H217273   3.916   7.554   3.257  0.2561 -0.8778  0.7847
 5778TIP3   OH217274   0.250   5.041   0.746 -0.1366 -0.6246 -0.5727
 5778TIP3    H117275   0.332   5.076   0.781 -0.9329  1.5351 -0.7076
 5778TIP3    H217276   0.235   4.961   0.796  1.7774 -0.8164 -0.1995
 5779TIP3   OH217277   6.731   3.781   1.996 -0.3859 -0.2181 -0.0784
 5779TIP3    H117278   6.748   3.873   1.975  0.1398 -0.2828  0.0362
 5779TIP3    H217279   6.689   3.784   2.082 -0.1137 -0.0946  0.0544
 5780TIP3   OH217280   6.661   4.305   4.106  0.0190  0.8088 -0.4823
 5780TIP3    H117281   6.692   4.279   4.192  0.0419  0.2006 -0.6721
 5780TIP3    H217282   6.581   4.254   4.092  0.6804 -0.0104 -1.3297
 5781TIP3   OH217283   1.311   5.486   0.997 -0.4882 -0.4788  0.2714
 5781TIP3    H117284   1.395   5.449   0.970 -0.5049  0.0788 -0.5949
 5781TIP3    H217285   1.253   5.411   1.004 -0.8310 -0.5779 -2.5713
 5782TIP3   OH217286   5.889   2.741   2.365  0.3357 -0.2877 -0.4309
 5782TIP3    H117287   5.932   2.679   2.424  1.3463  0.5776 -0.2348
 5782TIP3    H217288   5.818   2.778   2.417 -0.2355 -1.2051 -0.5281
 5783TIP3   OH217289   4.499   5.215   4.196  0.0494 -0.7064  0.1408
 5783TIP3    H117290   4.546   5.274   4.138 -0.0969  0.5218  1.2372
 5783TIP3    H217291   4.428   5.267   4.233 -0.0209 -1.5170  1.2222
 5784TIP3   OH217292   1.923   4.178   6.189 -0.3907  0.0728 -0.4803
 5784TIP3    H117293   1.836   4.203   6.158 -0.3767  2.1027  0.8866
 5784TIP3    H217294   1.916   4.179   6.284  0.9609 -0.4214 -0.3555
 5785TIP3   OH217295   1.046   3.702   4.593  0.1725 -0.4253 -0.1030
 5785TIP3    H117296   1.135   3.676   4.571  0.5439  0.5783  0.1407
 5785TIP3    H217297   1.025   3.771   4.531 -0.5650 -0.8662 -0.3620
 5786TIP3   OH217298   1.976   3.790   5.219 -0.0316 -0.1141  0.0943
 5786TIP3    H117299   1.983   3.799   5.124 -0.9889 -0.0780  0.0196
 5786TIP3    H217300   2.015   3.871   5.254  0.0941 -0.0156 -0.2684
 5787TIP3   OH217301   1.044   3.347   1.806 -0.4771 -0.2654  0.2535
 5787TIP3    H117302   0.951   3.322   1.813 -0.6583  0.6909  1.7426
 5787TIP3    H217303   1.059   3.403   1.882  1.0741  0.4156 -0.5155
 5788TIP3   OH217304   2.534   2.902   6.366 -0.2218 -0.2313 -0.6033
 5788TIP3    H117305   2.612   2.849   6.379 -0.8125 -1.2261 -1.0522
 5788TIP3    H217306   2.529   2.957   6.444 -0.4765 -1.9499  0.6504
 5789TIP3   OH217307   4.628   4.457   1.103 -0.2423 -0.2116  0.1648
 5789TIP3    H117308   4.722   4.451   1.090 -0.1305  2.6412 -1.0924
 5789TIP3    H217309   4.611   4.410   1.184  1.8165 -3.0972 -0.9281
 5790TIP3   OH217310   1.778   7.604   1.919  0.0505  0.7275  0.0697
 5790TIP3    H117311   1.826   7.544   1.976  1.3043  2.4586  0.9407
 5790TIP3    H217312   1.812   7.586   1.831  0.0936 -0.1285  0.2589
 5791TIP3   OH217313   2.152  -0.008   5.544 -0.2005 -0.2721 -0.1184
 5791TIP3    H117314   2.179   0.083   5.530  0.7489 -0.7789 -1.9385
 5791TIP3    H217315   2.094  -0.027   5.470 -1.2565 -0.8480  0.8289
 5792TIP3   OH217316   1.031   5.145   2.519  0.3494 -0.5411  0.1589
 5792TIP3    H117317   0.985   5.068   2.551 -0.3003 -0.5114 -0.6718
 5792TIP3    H217318   0.991   5.218   2.566  0.0283 -0.5844 -0.0432
 5793TIP3   OH217319   6.709   0.085   6.825  0.1873 -0.3700 -0.0184
 5793TIP3    H117320   6.687   0.179   6.823  1.3006 -0.0939  0.3465
 5793TIP3    H217321   6.778   0.075   6.760 -0.8287 -1.1949 -1.0056
 5794TIP3   OH217322   4.155   1.155   3.380  0.8666 -0.1164  0.0511
 5794TIP3    H117323   4.240   1.160   3.337  0.7222  1.2356 -0.1100
 5794TIP3    H217324   4.156   1.227   3.444 -0.0496 -0.2511  0.2305
 5795TIP3   OH217325   2.086   3.587   4.721  0.1569  0.4968  0.0502
 5795TIP3    H117326   2.043   3.504   4.701  0.4679 -0.7793  3.9219
 5795TIP3    H217327   2.164   3.587   4.665 -0.9437 -0.7584 -1.5826
 5796TIP3   OH217328   0.622   5.851   3.473 -0.1133  0.3446 -0.1882
 5796TIP3    H117329   0.602   5.906   3.549  2.4277 -0.9062  1.5602
 5796TIP3    H217330   0.596   5.763   3.500  0.2938 -0.0344 -1.0049
 5797TIP3   OH217331   4.931   6.771   5.035  0.1273  0.4831 -0.3782
 5797TIP3    H117332   4.937   6.866   5.023  0.1106  0.5370  0.0252
 5797TIP3    H217333   4.854   6.746   4.985 -0.3144  0.7963  0.1345
 5798TIP3   OH217334   7.947   2.198   0.937 -0.4876  0.2167 -0.2763
 5798TIP3    H117335   7.920   2.248   1.013 -0.8553  1.8980 -1.4592
 5798TIP3    H217336   7.870   2.197   0.879  0.0827 -0.1545 -1.0545
 5799TIP3   OH217337   5.358   2.269   3.160 -0.1546  0.5490  0.1201
 5799TIP3    H117338   5.277   2.308   3.194 -1.7670  0.7537 -3.5055
 5799TIP3    H217339   5.328   2.195   3.107  2.2867 -0.9463  0.6984
 5800TIP3   OH217340   8.330   0.037   1.448  0.3354 -0.0566 -0.4536
 5800TIP3    H117341   8.370   0.104   1.503  1.2115 -0.0461 -1.0705
 5800TIP3    H217342   8.241   0.068   1.431  0.2538  0.2244  0.4582
 5801TIP3   OH217343   1.550   2.390   1.654 -0.2352 -0.0815  0.4315
 5801TIP3    H117344   1.496   2.449   1.601  0.3293  0.3611  0.3384
 5801TIP3    H217345   1.551   2.431   1.740 -1.1181 -0.7793  0.7910
 5802TIP3   OH217346   7.683   1.353   4.720 -0.4605 -0.0469  0.2597
 5802TIP3    H117347   7.664   1.296   4.646 -0.7230 -0.8807  0.9536
 5802TIP3    H217348   7.776   1.375   4.710 -0.4633 -0.2473 -0.2402
 5803TIP3   OH217349   3.359   2.171   6.574 -0.0673  0.6842  0.1717
 5803TIP3    H117350   3.344   2.118   6.496 -1.1360 -0.2001  0.9503
 5803TIP3    H217351   3.311   2.252   6.558 -2.2256 -0.3940  0.8093
 5804TIP3   OH217352   0.937   7.852   2.428 -0.0608  0.4431  0.5095
 5804TIP3    H117353   0.972   7.900   2.502 -0.5808  1.0495  0.3737
 5804TIP3    H217354   0.960   7.905   2.351 -1.0078  0.7138  0.3948
 5805TIP3   OH217355   3.542   2.191   1.705  0.3481  0.4151 -0.3463
 5805TIP3    H117356   3.502   2.222   1.624 -1.8276  1.4480  1.0155
 5805TIP3    H217357   3.496   2.238   1.774  0.6770 -1.9010  1.6074
 5806TIP3   OH217358   7.025   6.001   0.302  0.2638 -0.1003  0.0477
 5806TIP3    H117359   6.949   6.056   0.324  1.5530  1.9660 -0.4206
 5806TIP3    H217360   7.028   6.002   0.207  1.4932  0.7720  0.0747
 5807TIP3   OH217361   2.855   5.968   1.418 -0.0912 -0.5696 -0.2544
 5807TIP3    H117362   2.793   6.041   1.426 -0.1138 -0.3915 -1.7616
 5807TIP3    H217363   2.941   6.008   1.436 -0.1336 -0.2192 -0.7983
 5808TIP3   OH217364   0.909   5.782   1.508  0.2554  0.3367 -0.6756
 5808TIP3    H117365   0.907   5.840   1.432  0.7152  0.1686 -0.8221
 5808TIP3    H217366   0.991   5.734   1.499 -0.1675 -0.4049 -0.6031
 5809TIP3   OH217367   5.059   0.072   2.760 -0.1156  0.4749 -0.6535
 5809TIP3    H117368   5.125   0.090   2.692  0.4536  1.0728  0.0324
 5809TIP3    H217369   5.045  -0.022   2.755  1.0555  0.2751 -0.5936
 5810TIP3   OH217370   0.670   6.837   2.018  0.3451 -0.3418 -0.2746
 5810TIP3    H117371   0.733   6.806   2.083 -0.7829  0.8058  1.4367
 5810TIP3    H217372   0.593   6.782   2.030  0.3626 -0.5902 -1.1705
 5811TIP3   OH217373   2.097   7.177   0.052  0.2473  0.3655  0.4353
 5811TIP3    H117374   2.067   7.091   0.022  1.3943 -0.1320  0.6863
 5811TIP3    H217375   2.182   7.190   0.009  1.2736  0.2516  2.3204
 5812TIP3   OH217376   6.728   7.845   2.312  0.8840 -0.1248  0.2850
 5812TIP3    H117377   6.755   7.879   2.397 -0.1344  1.0801  0.1593
 5812TIP3    H217378   6.751   7.914   2.250  0.1359 -0.2978 -0.1956
 5813TIP3   OH217379   2.073   3.537   5.891  0.0323 -0.3478 -0.3897
 5813TIP3    H117380   2.102   3.534   5.800 -0.6218 -0.3024 -0.6062
 5813TIP3    H217381   2.054   3.445   5.913  2.9336 -0.7851  0.6339
 5814TIP3   OH217382   4.316   3.732   5.791 -0.0646  0.0718  0.3192
 5814TIP3    H117383   4.315   3.684   5.708 -0.9965 -0.8629  0.8506
 5814TIP3    H217384   4.401   3.778   5.791  0.2211 -0.4250 -0.8508
 5815TIP3   OH217385   7.995   3.225   3.182  0.4616 -0.0489  0.7350
 5815TIP3    H117386   8.085   3.198   3.166 -0.1773 -1.4030 -0.7489
 5815TIP3    H217387   8.002   3.285   3.257  2.5862 -0.0248  0.5878
 5816TIP3   OH217388   4.430   3.842   5.375  0.5551 -0.1093 -0.2050
 5816TIP3    H117389   4.425   3.814   5.467 -0.1821  0.9685  0.1070
 5816TIP3    H217390   4.374   3.920   5.371  2.5549  1.3791 -0.9875
 5817TIP3   OH217391   7.776   6.623   2.253 -0.0435  0.3595  0.0474
 5817TIP3    H117392   7.777   6.570   2.333  1.1540  0.2748 -0.0057
 5817TIP3    H217393   7.799   6.562   2.183  0.7316  0.8069 -0.0995
 5818TIP3   OH217394   2.700   2.461   5.086 -0.7416  0.2424  0.4314
 5818TIP3    H117395   2.636   2.413   5.138  1.1139 -1.8833  0.9378
 5818TIP3    H217396   2.667   2.457   4.996 -1.2159 -1.0367  0.6483
 5819TIP3   OH217397   6.825   0.799   5.955 -0.0070  0.1940  0.3476
 5819TIP3    H117398   6.809   0.893   5.949  0.0286  0.1170 -1.5972
 5819TIP3    H217399   6.783   0.772   6.037 -0.1265  1.8654  0.8722
 5820TIP3   OH217400   7.342   6.557   5.918  0.1606  0.3935 -0.1046
 5820TIP3    H117401   7.400   6.544   5.993  1.6668  0.7188 -1.1588
 5820TIP3    H217402   7.339   6.653   5.907  1.0506  0.3107 -1.2485
 5821TIP3   OH217403   5.012   1.760   2.699  0.1174  0.0236 -0.2642
 5821TIP3    H117404   4.987   1.713   2.620  1.8167 -1.0520 -0.2156
 5821TIP3    H217405   4.971   1.711   2.770  2.5362 -2.0167 -0.1452
 5822TIP3   OH217406   3.563   4.110   5.036  0.3216  0.3194  0.3217
 5822TIP3    H117407   3.629   4.049   5.003 -2.5883 -2.3157 -1.0602
 5822TIP3    H217408   3.614   4.184   5.071  3.9218 -1.3971 -0.8692
 5823TIP3   OH217409   4.913   2.419   1.140  0.1356 -0.1063 -0.1000
 5823TIP3    H117410   4.818   2.419   1.151  0.1568  0.7545  0.1734
 5823TIP3    H217411   4.946   2.374   1.218 -0.0938 -1.4759 -0.7766
 5824TIP3   OH217412   6.522   6.988   2.731  0.5166 -0.3550 -0.7497
 5824TIP3    H117413   6.451   6.924   2.724  1.6869 -1.5098 -4.1282
 5824TIP3    H217414   6.480   7.072   2.711 -0.5048 -0.4141  0.9504
 5825TIP3   OH217415   2.893   3.059   2.607 -0.0723  0.3993  0.3141
 5825TIP3    H117416   2.869   3.029   2.519 -1.2686 -1.2742  1.1642
 5825TIP3    H217417   2.924   2.981   2.651 -1.1527  0.8362  1.9255
 5826TIP3   OH217418   5.102   0.925   4.693  0.2439 -0.5401 -0.1686
 5826TIP3    H117419   5.156   0.998   4.661  1.4185 -2.0475 -1.7583
 5826TIP3    H217420   5.111   0.930   4.789 -0.3064  1.8137 -0.1740
 5827TIP3   OH217421   1.521   6.925   4.581 -0.2804 -0.2573 -0.0765
 5827TIP3    H117422   1.503   6.866   4.654  0.0210  0.4308  0.5677
 5827TIP3    H217423   1.547   6.867   4.509 -2.2596 -1.0799 -0.2008
 5828TIP3   OH217424   6.135   0.385   4.995 -0.0181  0.2502 -0.2647
 5828TIP3    H117425   6.154   0.344   4.911  1.3552  0.8515 -0.2693
 5828TIP3    H217426   6.194   0.342   5.057 -0.4193  0.3994  0.2285
 5829TIP3   OH217427   1.583   7.614   0.253  0.1837 -0.0810  0.6968
 5829TIP3    H117428   1.501   7.572   0.276  0.2439  0.4633  1.9648
 5829TIP3    H217429   1.559   7.702   0.225  0.4216  0.5166  2.3006
 5830TIP3   OH217430   1.320   4.929   1.648 -0.1501 -0.1899  0.1670
 5830TIP3    H117431   1.351   5.019   1.646  1.2946 -0.6818 -0.6689
 5830TIP3    H217432   1.225   4.937   1.634 -0.3843  1.2963  2.1118
 5831TIP3   OH217433   3.668   4.045   1.717 -0.0749 -0.2968  0.4439
 5831TIP3    H117434   3.602   4.040   1.786 -1.6208  0.8025 -0.8628
 5831TIP3    H217435   3.714   4.127   1.733 -0.2232 -0.1969  0.3654
 5832TIP3   OH217436   7.678   7.661   0.987  0.1046  0.1106  0.5238
 5832TIP3    H117437   7.659   7.730   1.051  0.3059  0.9887 -0.3430
 5832TIP3    H217438   7.602   7.660   0.929 -0.6012 -1.4664  1.4074
 5833TIP3   OH217439   8.336   0.233   1.642  0.2263 -0.0528 -0.1589
 5833TIP3    H117440   8.392   0.308   1.661  0.1208  0.6744 -2.4902
 5833TIP3    H217441   8.279   0.227   1.719  0.3804  2.1193  0.2024
 5834TIP3   OH217442   0.679   1.766   5.803 -0.4370  0.0048 -0.2601
 5834TIP3    H117443   0.698   1.815   5.882  0.4229  0.9473 -1.0175
 5834TIP3    H217444   0.602   1.714   5.824  0.8578 -1.2393  1.8198
 5835TIP3   OH217445   2.722   2.066   1.460 -0.2652 -0.1153 -0.0792
 5835TIP3    H117446   2.793   2.023   1.507 -0.5590  0.2101  0.6696
 5835TIP3    H217447   2.766   2.115   1.390  0.0715 -1.6613 -1.0130
 5836TIP3   OH217448   3.932   0.198   0.934 -0.0425 -0.1369 -0.0622
 5836TIP3    H117449   4.021   0.220   0.961  0.6919 -1.8310 -0.8977
 5836TIP3    H217450   3.936   0.104   0.913 -1.9768 -0.2103 -0.3205
 5837TIP3   OH217451   6.649   7.869   5.917 -0.5742 -0.3152  0.6979
 5837TIP3    H117452   6.616   7.780   5.928 -1.3208 -0.2841 -0.9626
 5837TIP3    H217453   6.580   7.925   5.951 -0.2165 -0.3475  1.4995
 5838TIP3   OH217454   4.536   1.371   4.109  0.5474 -0.0021 -0.5404
 5838TIP3    H117455   4.624   1.394   4.080  1.0097 -1.3293 -0.2321
 5838TIP3    H217456   4.500   1.319   4.037 -0.4960  1.5789 -1.2331
 5839TIP3   OH217457   3.818   1.621   6.857  0.4838 -0.2106 -0.3037
 5839TIP3    H117458   3.794   1.539   6.815 -0.5351  0.7375 -1.6749
 5839TIP3    H217459   3.884   1.659   6.799  1.8594 -0.5909  0.9599
 5840TIP3   OH217460   8.253   1.889   5.347 -0.2271 -0.1243 -0.1675
 5840TIP3    H117461   8.326   1.893   5.409 -0.6344 -0.0205  0.3182
 5840TIP3    H217462   8.284   1.933   5.268  1.2035 -2.4309 -0.9821
 5841TIP3   OH217463   3.748   3.282   4.892 -0.1903 -0.1533 -0.5292
 5841TIP3    H117464   3.721   3.209   4.836 -0.7754  0.3321 -0.9002
 5841TIP3    H217465   3.670   3.338   4.897  0.8261  1.4849 -1.9214
 5842TIP3   OH217466   1.912   1.570   3.100  0.3491 -0.0462  0.7233
 5842TIP3    H117467   1.841   1.507   3.102  1.8503 -1.8327  0.5947
 5842TIP3    H217468   1.991   1.517   3.083  1.5533  1.9799 -0.4591
 5843TIP3   OH217469   8.277   4.820   3.815  0.2838 -0.4075 -0.0570
 5843TIP3    H117470   8.262   4.910   3.785  1.5964 -1.0600 -3.0087
 5843TIP3    H217471   8.198   4.772   3.791  0.7421 -0.6181 -1.1882
 5844TIP3   OH217472   1.064   3.463   4.375 -0.5580 -0.5289 -0.0637
 5844TIP3    H117473   1.073   3.544   4.425  0.6356 -0.9622  0.4591
 5844TIP3    H217474   1.129   3.471   4.305 -1.1966 -0.5685 -0.6706
 5845TIP3   OH217475   6.285   0.151   5.221  0.0859 -0.3675  0.1145
 5845TIP3    H117476   6.240   0.224   5.264  2.0552  1.9555 -1.4373
 5845TIP3    H217477   6.375   0.158   5.252  0.7542 -0.8401 -1.6050
 5846TIP3   OH217478   2.790   6.513   5.735  0.3199 -0.3034  0.5448
 5846TIP3    H117479   2.827   6.597   5.709 -0.0130 -0.2555  0.2183
 5846TIP3    H217480   2.700   6.534   5.760  0.2658 -0.5501  0.5538
 5847TIP3   OH217481   3.188   2.067   2.718 -0.1797 -0.2413  0.2083
 5847TIP3    H117482   3.262   2.008   2.733 -0.6826 -0.7213  0.8676
 5847TIP3    H217483   3.112   2.020   2.755 -0.6072  0.7569  0.6337
 5848TIP3   OH217484   8.153   6.380   1.469 -0.4687 -0.1005 -0.0587
 5848TIP3    H117485   8.078   6.355   1.415 -0.5699  0.4310 -0.1633
 5848TIP3    H217486   8.118   6.443   1.531 -0.3101 -0.5594  0.5103
 5849TIP3   OH217487   0.394   1.952   1.990 -0.3191 -0.1753 -0.0442
 5849TIP3    H117488   0.310   1.995   2.007 -0.2783 -0.3069  0.5005
 5849TIP3    H217489   0.370   1.871   1.946 -0.3944  0.4053 -1.0963
 5850TIP3   OH217490   6.773   3.440   3.823 -0.0128 -0.8319 -0.2098
 5850TIP3    H117491   6.858   3.403   3.845 -0.5528 -1.3681  1.0717
 5850TIP3    H217492   6.774   3.448   3.727  1.2163 -1.4316 -0.2672
 5851TIP3   OH217493   2.310   4.080   1.322  1.0016  0.8495  0.4349
 5851TIP3    H117494   2.301   3.996   1.368 -0.1817 -0.1173 -1.4499
 5851TIP3    H217495   2.352   4.058   1.239  2.0279  2.3799  0.5101
 5852TIP3   OH217496   3.905   4.660   1.090  0.2583 -0.0992 -0.3334
 5852TIP3    H117497   3.901   4.566   1.070  1.5256 -0.2723  0.1365
 5852TIP3    H217498   3.911   4.702   1.004  0.0821 -0.4807 -0.5334
 5853TIP3   OH217499   4.646   7.104   4.294  0.5146 -0.6046  0.0618
 5853TIP3    H117500   4.724   7.095   4.240 -0.0903  0.7249 -1.0954
 5853TIP3    H217501   4.574   7.105   4.231 -0.1855  1.3862  0.8058
 5854TIP3   OH217502   5.733   5.779   0.387 -0.0348  0.4784 -0.1004
 5854TIP3    H117503   5.813   5.767   0.438  0.4949  0.9894 -0.7928
 5854TIP3    H217504   5.764   5.792   0.297 -0.8976  0.6768 -0.3753
 5855TIP3   OH217505   7.468   7.868   0.866  0.5010 -0.0873 -0.9632
 5855TIP3    H117506   7.415   7.794   0.834  0.2960 -1.1874  1.6697
 5855TIP3    H217507   7.552   7.857   0.821 -0.0233 -1.0262 -1.7739
 5856TIP3   OH217508   1.356   0.579   5.610  0.0388 -0.0551 -0.0245
 5856TIP3    H117509   1.380   0.666   5.642 -0.1036 -0.2978  0.7660
 5856TIP3    H217510   1.436   0.527   5.618  1.1402  0.7813 -3.5889
 5857TIP3   OH217511   1.934   3.616   3.008 -0.0827  0.3152  0.0211
 5857TIP3    H117512   1.966   3.656   2.927  0.8050 -0.0653  0.1684
 5857TIP3    H217513   1.857   3.566   2.981 -1.9672  3.0211  0.0255
 5858TIP3   OH217514   0.708   1.888   0.685 -0.6648 -0.1532  0.7843
 5858TIP3    H117515   0.796   1.855   0.701 -1.1148 -0.5590  2.7152
 5858TIP3    H217516   0.696   1.882   0.590  1.0865 -0.8359  0.5801
 5859TIP3   OH217517   3.426   0.205   0.466 -0.0762  0.0120  0.2345
 5859TIP3    H117518   3.513   0.182   0.496 -0.4100 -1.2852  0.2799
 5859TIP3    H217519   3.386   0.121   0.441 -2.3850  0.1283  3.0181
 5860TIP3   OH217520   4.596   4.083   6.243  0.3699 -0.2506 -0.8508
 5860TIP3    H117521   4.675   4.096   6.190  1.9027 -2.4680  0.6903
 5860TIP3    H217522   4.534   4.042   6.184  2.3654 -3.5597 -0.8975
 5861TIP3   OH217523   2.828   2.331   3.501  0.2701 -0.9045  0.0355
 5861TIP3    H117524   2.919   2.303   3.501  0.2414 -1.3131  2.8939
 5861TIP3    H217525   2.780   2.258   3.541 -1.3326 -0.6772 -1.3501
 5862TIP3   OH217526   2.033   4.349   4.919 -0.1146  0.5963  0.3252
 5862TIP3    H117527   2.007   4.437   4.891 -0.9736  0.3633  0.3785
 5862TIP3    H217528   1.969   4.291   4.879 -0.2432  0.0918  1.2333
 5863TIP3   OH217529   0.057   4.637   5.917 -0.4034 -0.3456  0.5656
 5863TIP3    H117530   0.054   4.731   5.903 -0.4147 -0.4042  0.1550
 5863TIP3    H217531   0.053   4.626   6.012 -0.2592  0.0719  0.6206
 5864TIP3   OH217532   7.941   6.029   1.267 -0.1536 -0.2171  0.0631
 5864TIP3    H117533   7.966   6.004   1.178  1.1173 -2.4261  0.9777
 5864TIP3    H217534   7.945   5.948   1.317 -0.0486  1.1099  2.3332
 5865TIP3   OH217535   0.984   6.467   2.944  0.5463 -0.4820 -0.5144
 5865TIP3    H117536   0.902   6.422   2.967  0.5446  0.5315  1.6399
 5865TIP3    H217537   1.051   6.423   2.996  2.0932 -3.3110 -4.3705
 5866TIP3   OH217538   5.660   3.944   6.680  0.6516 -0.5511 -0.2462
 5866TIP3    H117539   5.739   3.982   6.720  0.2851 -0.0692  0.0293
 5866TIP3    H217540   5.648   3.861   6.725  0.9860 -0.6148 -0.2676
 5867TIP3   OH217541   5.435   4.336   3.013  0.1426  0.0056  0.0225
 5867TIP3    H117542   5.490   4.283   2.955 -0.1714 -0.1748 -0.1168
 5867TIP3    H217543   5.435   4.289   3.096  1.1580  0.6319  0.3820
 5868TIP3   OH217544   7.619   2.636   1.408  0.3863 -0.2398  0.7500
 5868TIP3    H117545   7.704   2.680   1.398  0.3983 -0.4825 -0.4635
 5868TIP3    H217546   7.593   2.654   1.498  1.9804 -0.6271  1.3299
 5869TIP3   OH217547   6.533   3.345   5.812 -0.0572 -0.1495  0.4404
 5869TIP3    H117548   6.535   3.252   5.834  0.9010 -0.1345  0.4842
 5869TIP3    H217549   6.444   3.361   5.781 -0.3176 -1.0102  0.7231
 5870TIP3   OH217550   4.174   2.438   6.711  0.0458  0.1662  0.2402
 5870TIP3    H117551   4.149   2.354   6.672  0.4421 -0.8831  2.1133
 5870TIP3    H217552   4.145   2.432   6.802 -0.9615  2.5657  0.1525
 5871TIP3   OH217553   3.508   6.416   3.421 -0.1656  0.1965  0.2525
 5871TIP3    H117554   3.594   6.438   3.457 -0.0015 -1.4912  0.9987
 5871TIP3    H217555   3.517   6.326   3.391 -1.6582  0.0159  0.2775
 5872TIP3   OH217556   2.097   5.884   5.938 -0.6096 -0.0798  0.3192
 5872TIP3    H117557   2.040   5.932   5.878 -0.5913 -0.6551 -0.1806
 5872TIP3    H217558   2.037   5.832   5.992 -0.5733 -0.7709 -0.2822
 5873TIP3   OH217559   5.481   3.440   1.081 -0.2998 -0.4609  0.1045
 5873TIP3    H117560   5.526   3.457   1.164 -0.7533  0.4771  0.1732
 5873TIP3    H217561   5.423   3.367   1.099  0.9437 -1.4905  0.0996
 5874TIP3   OH217562   1.908   2.854   1.383  0.2251  0.2077 -0.5213
 5874TIP3    H117563   1.854   2.902   1.321 -0.5943 -1.7302 -1.4085
 5874TIP3    H217564   1.938   2.777   1.334  1.4416 -0.2251  0.8141
 5875TIP3   OH217565   3.539   6.097   1.851 -0.7826  0.0717 -0.8199
 5875TIP3    H117566   3.549   6.181   1.896 -2.5608  0.1883 -0.5854
 5875TIP3    H217567   3.560   6.116   1.760  1.8383  0.0555 -0.3025
 5876TIP3   OH217568   1.739   3.552   1.838  0.2554  0.3601 -0.5085
 5876TIP3    H117569   1.793   3.487   1.791  2.1556  1.9092 -0.6275
 5876TIP3    H217570   1.715   3.508   1.919  1.4262 -0.5467 -0.6064
 5877TIP3   OH217571   3.674   0.043   3.316 -0.2514 -0.3770 -0.7752
 5877TIP3    H117572   3.637  -0.032   3.364 -0.8620  1.1003  1.2000
 5877TIP3    H217573   3.599   0.100   3.300  0.7737  2.1614  2.3255
 5878TIP3   OH217574   5.538   4.364   6.045 -0.5532  0.1826 -0.1354
 5878TIP3    H117575   5.528   4.310   6.123 -0.2064 -0.4444 -0.5035
 5878TIP3    H217576   5.620   4.332   6.005 -0.9379  0.2019 -0.9655
 5879TIP3   OH217577   5.826   6.087   5.888 -0.0003 -0.4603 -0.4630
 5879TIP3    H117578   5.773   6.163   5.911  0.1204 -0.0162 -1.6282
 5879TIP3    H217579   5.883   6.075   5.964  0.2421  0.8471 -0.4064
 5880TIP3   OH217580   2.313   0.818   3.863 -0.1618 -0.4131  0.3464
 5880TIP3    H117581   2.389   0.843   3.811  0.2946  0.1496  1.2679
 5880TIP3    H217582   2.350   0.786   3.945 -0.9266 -0.1851  0.7821
 5881TIP3   OH217583   4.423   5.473   1.478  0.0885 -0.3709 -0.3724
 5881TIP3    H117584   4.445   5.467   1.385 -1.1936 -0.3411 -0.6929
 5881TIP3    H217585   4.507   5.458   1.523  0.8196  0.0691 -1.5237
 5882TIP3   OH217586   6.115   4.228   0.790 -0.0804  0.0112  0.1055
 5882TIP3    H117587   6.204   4.252   0.765 -1.5465  3.2420 -2.8664
 5882TIP3    H217588   6.101   4.142   0.751  1.4932 -0.2039 -0.0383
 5883TIP3   OH217589   2.582   0.517   6.780 -0.0823 -0.0687 -0.0108
 5883TIP3    H117590   2.654   0.463   6.747 -0.1785  0.0217 -0.3834
 5883TIP3    H217591   2.622   0.573   6.846  0.2510  0.1774 -0.4161
 5884TIP3   OH217592   6.758   1.662   0.772 -0.3664 -0.1367  0.0933
 5884TIP3    H117593   6.753   1.706   0.857  1.3552  1.2948 -0.4794
 5884TIP3    H217594   6.739   1.730   0.708  0.7851 -0.5672 -0.7525
 5885TIP3   OH217595   0.526   0.993   3.138  0.0431  0.0173  0.4002
 5885TIP3    H117596   0.518   0.947   3.222  2.7548 -1.5261 -0.0797
 5885TIP3    H217597   0.620   1.011   3.130 -0.5387  3.0407 -0.8651
 5886TIP3   OH217598   3.685   4.046   1.330  0.3178  0.0576 -0.2128
 5886TIP3    H117599   3.657   4.084   1.247  1.0703  0.0098 -0.4949
 5886TIP3    H217600   3.604   4.035   1.380  0.1067  2.3114  0.0114
 5887TIP3   OH217601   4.738   0.316   6.531 -0.1038 -0.0839  0.0203
 5887TIP3    H117602   4.655   0.271   6.545 -0.7515  0.9658 -0.2824
 5887TIP3    H217603   4.723   0.368   6.451  1.7138 -1.8871 -1.5884
 5888TIP3   OH217604   1.399   1.418   5.588 -0.3624 -0.0899 -0.5689
 5888TIP3    H117605   1.337   1.357   5.629  1.0206 -0.2238  1.4936
 5888TIP3    H217606   1.455   1.362   5.535  0.1476 -0.4906  0.3608
 5889TIP3   OH217607   8.239   7.688   2.859  0.8835  0.3278  0.4059
 5889TIP3    H117608   8.327   7.705   2.892  0.7775  0.1259  0.7998
 5889TIP3    H217609   8.185   7.757   2.898  0.7624  0.1044  0.6390
 5890TIP3   OH217610   6.692   2.591   5.518 -0.0843  0.0138  0.0850
 5890TIP3    H117611   6.635   2.666   5.499  1.5668  1.3856  0.2989
 5890TIP3    H217612   6.681   2.533   5.442 -1.7606  0.2066  0.1437
 5891TIP3   OH217613   4.569   3.864   0.204  0.0750  0.4725 -0.1112
 5891TIP3    H117614   4.503   3.833   0.265 -0.6419  2.6654  0.3420
 5891TIP3    H217615   4.551   3.958   0.196  2.5999  0.9708 -0.6643
 5892TIP3   OH217616   8.224   0.837   1.316  0.1132  0.2492  0.5167
 5892TIP3    H117617   8.284   0.845   1.242 -0.3084  0.2413  0.1708
 5892TIP3    H217618   8.142   0.875   1.284  0.2196  1.1837  1.3133
 5893TIP3   OH217619   5.850   1.231   4.583  0.3841  0.7632 -0.1453
 5893TIP3    H117620   5.755   1.227   4.600  0.2485  0.0113 -1.0084
 5893TIP3    H217621   5.890   1.209   4.668 -0.1927  1.7936  0.4112
 5894TIP3   OH217622   8.051   5.972   1.547 -0.0518  0.4442 -0.5714
 5894TIP3    H117623   8.058   5.878   1.532  1.3899  0.4942 -0.3366
 5894TIP3    H217624   8.037   6.009   1.459 -0.9068  0.0085 -0.6305
 5895TIP3   OH217625   0.474   7.048   5.540  0.3080  0.1063 -0.0693
 5895TIP3    H117626   0.383   7.074   5.528 -0.0222 -0.6040  0.7788
 5895TIP3    H217627   0.471   6.952   5.546  1.0387  0.1092  0.5239
 5896TIP3   OH217628   2.792   4.392   5.618 -0.2690  0.2099  0.1682
 5896TIP3    H117629   2.852   4.324   5.586  0.1357  0.2242  0.8674
 5896TIP3    H217630   2.708   4.371   5.577  0.1536  0.0452 -0.6366
 5897TIP3   OH217631   1.752   3.436   2.437  0.3736  0.1012  0.4053
 5897TIP3    H117632   1.764   3.354   2.390  0.6227 -0.5717  1.5891
 5897TIP3    H217633   1.818   3.495   2.401  0.1264 -0.1819 -0.5238
 5898TIP3   OH217634   6.692   7.332   4.521  0.1940 -0.2060  0.4478
 5898TIP3    H117635   6.762   7.347   4.586 -0.4773 -1.3411  1.4635
 5898TIP3    H217636   6.657   7.420   4.504  0.9513  0.2146  0.9674
 5899TIP3   OH217637   2.208   2.745   2.555  0.2772 -0.1639  0.3807
 5899TIP3    H117638   2.189   2.803   2.480  0.6851 -1.5284 -0.8289
 5899TIP3    H217639   2.297   2.714   2.539 -0.3286 -2.0298  0.3397
 5900TIP3   OH217640   5.012   5.030   3.538  0.0643  0.0204  0.1758
 5900TIP3    H117641   5.033   5.099   3.601  0.6086 -0.6507  0.7460
 5900TIP3    H217642   4.983   4.957   3.592 -0.7411 -0.1253 -0.4384
 5901TIP3   OH217643   0.081   5.322   1.574  0.3710  0.0561  0.6255
 5901TIP3    H117644   0.153   5.374   1.539  0.8926  0.6177  2.3839
 5901TIP3    H217645   0.003   5.375   1.558  0.2499 -0.6802 -1.5411
 5902TIP3   OH217646   6.135   6.517   6.842  0.1136  0.5386  0.2504
 5902TIP3    H117647   6.054   6.568   6.831 -1.4937 -0.6723  4.2177
 5902TIP3    H217648   6.203   6.570   6.801 -2.5211  1.9977 -2.6541
 5903TIP3   OH217649   6.096   2.397   1.011  0.6286 -0.0238  0.0015
 5903TIP3    H117650   6.115   2.318   1.061  1.1015  0.4822  0.6381
 5903TIP3    H217651   6.071   2.462   1.077 -0.2733  0.2186 -0.5536
 5904TIP3   OH217652   6.662   4.562   4.100 -0.4235 -0.5012  0.6753
 5904TIP3    H117653   6.660   4.472   4.134 -0.7634 -0.5387  0.5632
 5904TIP3    H217654   6.644   4.616   4.177 -2.0013 -0.6303  0.4273
 5905TIP3   OH217655   8.233   5.205   1.223 -0.2087 -0.4637  0.3190
 5905TIP3    H117656   8.236   5.147   1.147 -1.3317 -0.4276  0.2420
 5905TIP3    H217657   8.253   5.147   1.297  0.2784 -0.6179  0.0745
 5906TIP3   OH217658   2.818   3.856   3.026 -0.4334 -0.0429 -0.2354
 5906TIP3    H117659   2.863   3.923   2.975  0.8966 -0.2512  0.6138
 5906TIP3    H217660   2.872   3.778   3.017 -0.9372 -0.4715  0.3332
 5907TIP3   OH217661   7.887   1.306   5.437  0.1626  0.0105 -0.6117
 5907TIP3    H117662   7.811   1.268   5.480  0.5492  0.8769  0.8931
 5907TIP3    H217663   7.851   1.363   5.369 -0.4454 -1.5908 -1.6802
 5908TIP3   OH217664   0.204   6.739   1.830  0.2496 -0.0099 -0.2010
 5908TIP3    H117665   0.112   6.729   1.807  0.4355 -1.0871 -0.5656
 5908TIP3    H217666   0.230   6.823   1.792 -0.8446  0.8260  0.8563
 5909TIP3   OH217667   7.799   6.939   2.874  0.2943 -0.1376  0.5085
 5909TIP3    H117668   7.755   7.009   2.923  0.5643  0.8874 -0.6573
 5909TIP3    H217669   7.853   6.985   2.810 -0.9692 -1.3993 -1.5857
 5910TIP3   OH217670   5.492   6.009   5.960 -0.3688 -0.2370 -0.0103
 5910TIP3    H117671   5.564   5.999   6.023  0.8596  0.4326 -1.2527
 5910TIP3    H217672   5.457   5.921   5.949 -1.1681 -0.2623  2.1938
 5911TIP3   OH217673   4.262   1.996   6.397 -0.0222 -0.2833  0.5587
 5911TIP3    H117674   4.267   1.939   6.474  2.0630  0.9144  1.3915
 5911TIP3    H217675   4.346   2.043   6.396 -0.1972  0.1633 -2.1330
 5912TIP3   OH217676   7.914   0.906   6.328 -0.5869  0.0273  0.5272
 5912TIP3    H117677   8.006   0.934   6.333  0.1708 -2.0339 -0.5713
 5912TIP3    H217678   7.890   0.891   6.420  0.0083  1.0466  0.8692
 5913TIP3   OH217679   8.154   5.828   5.408  0.0632 -0.1301  0.3275
 5913TIP3    H117680   8.179   5.920   5.402  0.6946 -0.3039  0.1916
 5913TIP3    H217681   8.161   5.807   5.501 -2.2938  0.5441  0.7191
 5914TIP3   OH217682   4.502   0.683   0.727 -0.1491  0.0842 -0.5416
 5914TIP3    H117683   4.419   0.701   0.771  0.2962  1.4038 -0.1814
 5914TIP3    H217684   4.502   0.589   0.711 -3.0051  0.3670 -3.1177
 5915TIP3   OH217685   6.057   3.966   0.616  0.0609 -0.3240 -0.2656
 5915TIP3    H117686   6.019   3.902   0.677 -1.2984  0.9881  0.3550
 5915TIP3    H217687   6.091   3.914   0.544  1.6613 -1.9381  1.5572
 5916TIP3   OH217688   7.521   5.685   0.250  0.3184 -0.4475 -0.1165
 5916TIP3    H117689   7.476   5.752   0.199  1.7354  0.2175 -0.5603
 5916TIP3    H217690   7.496   5.704   0.341  0.0426  0.1647 -0.3119
 5917TIP3   OH217691   6.646   5.670   3.751  0.4961 -0.2334 -0.1041
 5917TIP3    H117692   6.601   5.745   3.714  0.0576  0.2285  1.3005
 5917TIP3    H217693   6.639   5.682   3.846 -1.0389 -2.8946  0.2048
 5918TIP3   OH217694   4.569   4.746   6.107  0.5473 -0.2522 -0.6604
 5918TIP3    H117695   4.648   4.772   6.060  2.1215 -1.7000  1.0052
 5918TIP3    H217696   4.555   4.655   6.081 -0.4641 -0.0693 -0.7758
 5919TIP3   OH217697   1.533   3.153   0.814  0.3112 -0.4888 -0.4740
 5919TIP3    H117698   1.600   3.221   0.808 -0.5604  0.4997  0.3877
 5919TIP3    H217699   1.572   3.086   0.870 -0.2569  1.2548  2.2144
 5920TIP3   OH217700   7.168   5.074   2.986  0.6519 -0.1985  0.1624
 5920TIP3    H117701   7.105   5.091   3.057  0.3046 -0.1445 -0.1583
 5920TIP3    H217702   7.211   4.992   3.012  0.8986  0.0929  0.6970
 5921TIP3   OH217703   3.318   3.321   5.790 -0.6158 -0.4645  0.5529
 5921TIP3    H117704   3.268   3.302   5.869  0.3666  0.4282  1.4375
 5921TIP3    H217705   3.315   3.240   5.739  1.0464 -2.1032  2.8108
 5922TIP3   OH217706   5.721   0.454   4.017  0.0039 -0.4323 -0.2243
 5922TIP3    H117707   5.720   0.545   4.046  1.3173 -0.1820 -0.9049
 5922TIP3    H217708   5.754   0.404   4.092 -0.9937 -0.4106  0.2497
 5923TIP3   OH217709   6.022   4.410   1.660 -0.3296 -0.1338  0.3688
 5923TIP3    H117710   6.094   4.347   1.658  0.6035  0.8824  1.1964
 5923TIP3    H217711   5.943   4.355   1.660  0.4215 -1.2685 -0.3613
 5924TIP3   OH217712   7.863   5.122   0.249  0.0241 -0.0074  0.0031
 5924TIP3    H117713   7.817   5.048   0.208  0.2880  1.0345 -2.3327
 5924TIP3    H217714   7.928   5.149   0.185  0.7328  1.5393  1.2910
 5925TIP3   OH217715   7.295   7.586   3.451 -0.0919  0.0063  0.3566
 5925TIP3    H117716   7.239   7.607   3.376 -0.4016  3.4527  1.3870
 5925TIP3    H217717   7.234   7.553   3.517 -0.4498  0.7936  0.4293
 5926TIP3   OH217718   6.528   7.017   5.185 -0.2402 -0.0754  0.1054
 5926TIP3    H117719   6.452   7.027   5.127  0.6235  0.8721 -0.9171
 5926TIP3    H217720   6.529   7.097   5.237  0.7635  0.5117 -0.7807
 5927TIP3   OH217721   7.538   0.609   4.889  0.2376 -0.2806 -0.3849
 5927TIP3    H117722   7.591   0.624   4.967 -0.9674  0.3146  0.3483
 5927TIP3    H217723   7.588   0.546   4.838  1.4771  0.0043  0.4350
 5928TIP3   OH217724   5.257   4.936   1.460  0.9404  0.5335  0.3582
 5928TIP3    H117725   5.342   4.970   1.487  1.9260 -0.4079 -1.3868
 5928TIP3    H217726   5.220   5.004   1.404  2.4401 -0.6515 -2.2555
 5929TIP3   OH217727   7.834   5.519   3.303  0.0473  0.7925 -0.6409
 5929TIP3    H117728   7.850   5.428   3.278  1.5672  0.6752  0.5977
 5929TIP3    H217729   7.809   5.562   3.221  1.4294 -0.2968 -1.6983
 5930TIP3   OH217730   1.101   6.034   3.154 -0.1781  0.5708  0.2509
 5930TIP3    H117731   1.130   6.125   3.154  1.2831  0.1292  0.9266
 5930TIP3    H217732   1.097   6.009   3.246 -3.6411  0.8266  0.3010
 5931TIP3   OH217733   2.172   3.206   5.298 -0.1395 -0.5178  0.2709
 5931TIP3    H117734   2.180   3.175   5.388 -0.5304  2.5992  1.5168
 5931TIP3    H217735   2.091   3.257   5.297  1.0379  1.5054 -1.1382
 5932TIP3   OH217736   5.566   4.661   1.370 -0.1454  0.2692 -0.1502
 5932TIP3    H117737   5.503   4.661   1.442  0.2292  1.3885  0.1930
 5932TIP3    H217738   5.649   4.685   1.411  0.2609  0.0146 -0.8095
 5933TIP3   OH217739   4.415   6.932   3.421  0.0027 -0.4872  0.0316
 5933TIP3    H117740   4.401   7.015   3.375 -0.3254 -0.6621 -0.1868
 5933TIP3    H217741   4.490   6.893   3.378  1.6484  0.7500  1.6151
 5934TIP3   OH217742   5.367   1.717   6.242  0.7163 -0.2163 -0.7072
 5934TIP3    H117743   5.406   1.804   6.256  1.2516 -0.5496 -0.0836
 5934TIP3    H217744   5.424   1.675   6.177  0.6401 -0.2238 -0.7700
 5935TIP3   OH217745   6.490   1.650   4.868 -0.1845 -0.5357  0.2991
 5935TIP3    H117746   6.453   1.562   4.877 -0.6719 -0.2518  1.2240
 5935TIP3    H217747   6.416   1.708   4.881  0.0998  0.0228 -0.5092
 5936TIP3   OH217748   6.779   4.999   4.409 -0.0340  0.0501  0.1713
 5936TIP3    H117749   6.801   5.026   4.319 -0.1189 -1.8097 -0.4515
 5936TIP3    H217750   6.855   4.949   4.438 -0.9865 -1.4461  0.1898
 5937TIP3   OH217751   6.037   2.167   5.804 -0.2399 -0.6053  0.6757
 5937TIP3    H117752   5.957   2.142   5.758  1.0855 -2.0439 -0.9764
 5937TIP3    H217753   6.066   2.087   5.847  0.4560 -0.1659  1.0393
 5938TIP3   OH217754   2.534   7.668   1.137 -0.3544  0.2078 -0.6934
 5938TIP3    H117755   2.474   7.693   1.067 -2.2612 -2.7809 -0.3283
 5938TIP3    H217756   2.578   7.589   1.104  0.0430 -0.2285  0.7813
 5939TIP3   OH217757   0.304   5.327   3.252 -0.1328 -0.3279 -1.0901
 5939TIP3    H117758   0.359   5.300   3.326 -1.3740 -3.5560 -1.2137
 5939TIP3    H217759   0.329   5.268   3.181 -1.6776  0.1267 -2.0480
 5940TIP3   OH217760   7.613   0.426   3.775  0.0102  0.1582 -0.0323
 5940TIP3    H117761   7.601   0.461   3.863  3.9952 -1.3380  1.3009
 5940TIP3    H217762   7.596   0.333   3.782  3.1171 -0.5197  0.0284
 5941TIP3   OH217763   8.192   6.579   2.761  0.1316  0.0158  0.4920
 5941TIP3    H117764   8.255   6.591   2.832 -0.1460 -0.7265  0.8757
 5941TIP3    H217765   8.109   6.612   2.796 -0.0391 -0.4937  0.5792
 5942TIP3   OH217766   3.369   3.876   6.526 -0.1193 -0.1956 -0.2518
 5942TIP3    H117767   3.278   3.896   6.506  0.2512  1.7823 -0.1769
 5942TIP3    H217768   3.400   3.953   6.574  0.9488 -1.8244  1.8023
 5943TIP3   OH217769   4.715   2.682   1.813  0.1767 -0.4700 -0.2275
 5943TIP3    H117770   4.773   2.743   1.860  1.7525 -1.5305 -0.7000
 5943TIP3    H217771   4.634   2.683   1.863  0.7898  0.6554  0.8097
 5944TIP3   OH217772   4.706   7.646   3.358  0.9321  0.2291 -0.2238
 5944TIP3    H117773   4.699   7.696   3.277 -1.4264  0.2055 -0.1046
 5944TIP3    H217774   4.707   7.713   3.427 -0.8476  0.2312 -0.1383
 5945TIP3   OH217775   5.060   5.165   6.695 -0.3467 -0.1677  0.0702
 5945TIP3    H117776   5.010   5.191   6.617 -0.8141 -1.5159 -0.0994
 5945TIP3    H217777   5.143   5.133   6.661 -0.2097  0.0427  0.2008
 5946TIP3   OH217778   0.505   0.314   0.855 -0.0134  0.5474  0.1147
 5946TIP3    H117779   0.434   0.331   0.916  0.0393  2.5499 -0.3028
 5946TIP3    H217780   0.462   0.292   0.772 -0.3735  4.3996 -0.9079
 5947TIP3   OH217781   6.003   0.041   5.703 -0.1970 -0.9659  0.2912
 5947TIP3    H117782   6.068   0.090   5.752 -1.1278 -0.5321  1.1321
 5947TIP3    H217783   6.054  -0.015   5.644  0.9105  0.1306  0.1533
 5948TIP3   OH217784   7.229   6.796   4.798  0.2784 -0.1091 -0.3670
 5948TIP3    H117785   7.315   6.823   4.765  0.5639  1.7314  1.6351
 5948TIP3    H217786   7.213   6.710   4.758  2.2546  0.2696 -2.1189
 5949TIP3   OH217787   3.965   7.914   4.357 -0.0558  0.3384  0.0755
 5949TIP3    H117788   3.874   7.906   4.327  0.7500 -3.8911 -1.8837
 5949TIP3    H217789   3.969   7.857   4.434  0.7044  1.5549  0.9647
 5950TIP3   OH217790   4.426   7.297   2.423  0.1645 -0.2226 -0.4488
 5950TIP3    H117791   4.364   7.264   2.358 -0.3726  1.8331 -1.0461
 5950TIP3    H217792   4.371   7.325   2.496  0.6301 -0.8702  0.1660
 5951TIP3   OH217793   1.317   2.053   5.531 -0.1827  0.2564 -0.5632
 5951TIP3    H117794   1.396   2.062   5.584  0.0817  0.4824 -0.9900
 5951TIP3    H217795   1.347   2.067   5.441 -0.4924 -0.8415 -0.8535
 5952TIP3   OH217796   7.729   0.445   0.589  0.3213  0.1168  0.3266
 5952TIP3    H117797   7.728   0.421   0.496  2.5985 -0.5785  0.4293
 5952TIP3    H217798   7.683   0.373   0.632  1.4861 -0.8850 -0.0388
 5953TIP3   OH217799   5.442   1.368   1.663 -0.5140 -0.2929  0.2094
 5953TIP3    H117800   5.359   1.400   1.699  0.7045  1.0184  1.9818
 5953TIP3    H217801   5.481   1.445   1.621  0.6459 -0.4078  1.0389
 5954TIP3   OH217802   7.995   1.540   3.654 -0.1341  0.3117 -0.4050
 5954TIP3    H117803   7.950   1.499   3.728 -0.1097  0.8673 -0.0804
 5954TIP3    H217804   8.061   1.476   3.627  0.9019  0.7344  1.0423
 5955TIP3   OH217805   4.991   7.397   4.333  0.0406  0.1537 -0.2256
 5955TIP3    H117806   5.084   7.411   4.353  0.2477 -0.2981 -0.8510
 5955TIP3    H217807   4.990   7.365   4.243 -0.8309  1.6115 -0.7620
 5956TIP3   OH217808   0.776   6.359   0.637 -0.2883  0.4914 -0.1831
 5956TIP3    H117809   0.684   6.356   0.664 -0.6145  2.2733 -0.9660
 5956TIP3    H217810   0.773   6.386   0.545  1.0381  2.4814  0.2918
 5957TIP3   OH217811   1.895   7.122   5.963  0.0422 -0.4426  0.3206
 5957TIP3    H117812   1.963   7.183   5.934 -1.2313  0.2712 -1.2799
 5957TIP3    H217813   1.936   7.035   5.954  1.2846  0.0514  0.9858
 5958TIP3   OH217814   7.810   7.312   1.497 -0.9137 -0.0381  0.3128
 5958TIP3    H117815   7.723   7.302   1.537 -1.0992 -0.6900 -0.2241
 5958TIP3    H217816   7.805   7.260   1.417 -0.0954  0.0996  0.1656
 5959TIP3   OH217817   5.621   2.276   3.566  0.3601  0.4936 -0.4623
 5959TIP3    H117818   5.611   2.208   3.632 -0.0654  0.5608 -0.4550
 5959TIP3    H217819   5.532   2.291   3.533  0.6860 -0.2089 -1.7291
 5960TIP3   OH217820   6.905   3.446   6.086  0.3920  0.1698 -0.1603
 5960TIP3    H117821   6.941   3.533   6.102  1.6465 -0.5250  1.1213
 5960TIP3    H217822   6.822   3.445   6.135  0.6056  0.4937  0.2125
 5961TIP3   OH217823   3.534   5.547   0.145  0.2688  0.2438  0.2842
 5961TIP3    H117824   3.604   5.595   0.189 -0.5932  0.1745  1.8387
 5961TIP3    H217825   3.517   5.473   0.204  0.8728 -1.4101 -1.5351
 5962TIP3   OH217826   0.122   2.590   2.210 -0.2959  0.1749  0.2063
 5962TIP3    H117827   0.110   2.561   2.300  1.4150  0.8820  0.6970
 5962TIP3    H217828   0.111   2.685   2.213  2.9838  0.6535  0.3658
 5963TIP3   OH217829   3.845   5.938   3.240  0.1012 -0.3612  0.0576
 5963TIP3    H117830   3.880   5.849   3.238  0.9651 -0.0343  0.0305
 5963TIP3    H217831   3.795   5.943   3.321  2.1502 -0.1192  1.3906
 5964TIP3   OH217832   2.327   3.766   3.383  0.1763  0.7685 -0.3580
 5964TIP3    H117833   2.281   3.764   3.467  0.2810  1.7294 -0.2736
 5964TIP3    H217834   2.267   3.723   3.322 -0.0600  0.3962  0.1277
 5965TIP3   OH217835   5.936   6.873   0.413 -0.1599  0.2886  0.4894
 5965TIP3    H117836   5.931   6.802   0.348 -0.3352  1.8491 -1.2772
 5965TIP3    H217837   5.995   6.840   0.480  0.2411 -1.2982 -0.5900
 5966TIP3   OH217838   1.526   1.200   5.913 -0.0270  0.0431 -0.0770
 5966TIP3    H117839   1.452   1.178   5.970  0.0510  2.1040  0.9076
 5966TIP3    H217840   1.591   1.132   5.932 -0.6317 -0.2437  1.0777
 5967TIP3   OH217841   4.572   2.603   1.504 -0.1989  0.1775  0.0281
 5967TIP3    H117842   4.625   2.633   1.430  0.7777 -0.2226  0.5518
 5967TIP3    H217843   4.484   2.635   1.484  0.3315  1.3106 -0.6092
 5968TIP3   OH217844   4.543   1.723   0.125  0.2778  0.0510  0.2006
 5968TIP3    H117845   4.460   1.766   0.144  0.2587  0.5293 -0.8757
 5968TIP3    H217846   4.575   1.768   0.047  1.5935 -0.0619  0.6462
 5969TIP3   OH217847   0.249   7.357   5.806  0.1384  0.2834  0.2551
 5969TIP3    H117848   0.318   7.372   5.871  1.0629 -2.0318 -0.0698
 5969TIP3    H217849   0.169   7.351   5.858  0.6277  0.0677  1.0185
 5970TIP3   OH217850   3.525   5.827   0.433  0.1929 -0.1784 -0.1746
 5970TIP3    H117851   3.593   5.894   0.435  0.1484 -0.1373 -0.0011
 5970TIP3    H217852   3.547   5.769   0.507 -0.7599  0.6256  0.7646
 5971TIP3   OH217853   5.246   0.427   0.510 -0.6987 -0.0601 -0.3215
 5971TIP3    H117854   5.260   0.395   0.421  0.6821  2.6841 -1.2148
 5971TIP3    H217855   5.204   0.512   0.498 -1.4295 -0.0877  1.7233
 5972TIP3   OH217856   2.418   4.328   1.454 -0.3812  0.7616  0.2692
 5972TIP3    H117857   2.483   4.259   1.470  0.4287  1.3660 -0.2878
 5972TIP3    H217858   2.470   4.409   1.451 -1.4680  1.5751  2.1773
 5973TIP3   OH217859   2.614   1.742   1.589 -0.0298 -0.3054 -0.0079
 5973TIP3    H117860   2.706   1.732   1.562  0.2946  0.5752  0.7316
 5973TIP3    H217861   2.570   1.778   1.512  0.1699 -1.0035 -0.4643
 5974TIP3   OH217862   5.728   6.716   3.258  0.3671  0.3223 -0.0924
 5974TIP3    H117863   5.813   6.679   3.235 -0.1633 -1.6100  0.8413
 5974TIP3    H217864   5.747   6.775   3.331  0.9933  0.3975 -0.3080
 5975TIP3   OH217865   7.062   0.275   1.711  0.2662  0.4626  0.4928
 5975TIP3    H117866   7.143   0.286   1.761  0.5436  0.0951  0.1373
 5975TIP3    H217867   7.044   0.362   1.674  0.0412  0.7443  1.2413
 5976TIP3   OH217868   3.503   3.270   0.081  0.1173  0.5250 -0.1833
 5976TIP3    H117869   3.587   3.235   0.109  0.3130  1.4862  0.4857
 5976TIP3    H217870   3.486   3.228  -0.003  0.5901 -0.7385  0.3287
 5977TIP3   OH217871   2.555   7.013   0.708  0.5253  0.6356  0.1680
 5977TIP3    H117872   2.501   7.013   0.787  1.9736 -2.0532  1.2960
 5977TIP3    H217873   2.495   6.992   0.637 -0.2354 -0.3865  1.0970
 5978TIP3   OH217874   6.107   6.291   0.162  0.3137 -0.0301 -0.1300
 5978TIP3    H117875   6.054   6.354   0.113 -0.5223  0.4943  1.3536
 5978TIP3    H217876   6.056   6.210   0.160 -0.6519  0.4862  1.3346
 5979TIP3   OH217877   1.411   4.097   5.015 -0.0817 -0.1351  0.1807
 5979TIP3    H117878   1.439   4.010   5.043  0.8910 -0.8005 -2.5583
 5979TIP3    H217879   1.454   4.157   5.077 -0.9232 -1.5204  2.2349
 5980TIP3   OH217880   3.164   6.278   5.660 -0.0013 -0.0760 -0.2585
 5980TIP3    H117881   3.104   6.297   5.732  0.6740  1.2403 -0.0081
 5980TIP3    H217882   3.189   6.186   5.673 -2.8016 -1.0740 -1.0385
 5981TIP3   OH217883   7.232   4.062   0.768  0.1664 -0.6960  0.4456
 5981TIP3    H117884   7.177   3.993   0.804 -1.1040  0.4097  0.6880
 5981TIP3    H217885   7.294   4.016   0.711 -0.5487 -2.0376  0.7141
 5982TIP3   OH217886   1.794   5.013   5.465 -0.1671 -0.3793 -1.2288
 5982TIP3    H117887   1.716   5.018   5.519  0.6110  0.9465 -0.1487
 5982TIP3    H217888   1.766   4.968   5.385 -1.9433 -0.1710 -0.7597
 5983TIP3   OH217889   3.072   0.464   1.602  0.2276 -0.2183  0.4182
 5983TIP3    H117890   2.996   0.501   1.556  1.3474  0.6075 -0.8714
 5983TIP3    H217891   3.111   0.405   1.538  0.6162 -0.7192  1.1101
 5984TIP3   OH217892   7.560   5.922   4.304  0.2005  0.2586 -0.4929
 5984TIP3    H117893   7.539   5.893   4.393 -0.3881  0.3853 -0.5857
 5984TIP3    H217894   7.550   6.017   4.307  0.3558  0.2790 -0.6502
 5985TIP3   OH217895   4.658   3.669   3.854 -0.4216 -1.0916  0.3607
 5985TIP3    H117896   4.729   3.611   3.825 -1.0395 -1.1983 -0.9930
 5985TIP3    H217897   4.703   3.739   3.902  1.0457  0.5504 -3.0220
 5986TIP3   OH217898   2.370   2.899   2.718  0.3108  0.4144  0.1403
 5986TIP3    H117899   2.326   2.981   2.739 -0.4427  0.4551 -1.4500
 5986TIP3    H217900   2.306   2.849   2.668  0.8586 -1.0424  0.8158
 5987TIP3   OH217901   7.484   3.553   1.777 -0.1858 -0.0680 -0.1968
 5987TIP3    H117902   7.480   3.458   1.785  1.2517 -0.3013 -1.7356
 5987TIP3    H217903   7.478   3.569   1.683  1.5239  1.2248 -0.1343
 5988TIP3   OH217904   6.252   5.967   3.442 -0.4386  0.2163 -0.2868
 5988TIP3    H117905   6.266   5.885   3.393  1.3421 -0.2478  0.9052
 5988TIP3    H217906   6.259   5.941   3.534 -1.7530  1.4199  0.1845
 5989TIP3   OH217907   0.663   6.995   3.738 -0.1803 -0.9527  0.5673
 5989TIP3    H117908   0.741   7.041   3.769 -0.7373 -0.1345  0.7889
 5989TIP3    H217909   0.694   6.942   3.665  0.7878 -1.4654  1.3309
 5990TIP3   OH217910   7.418   1.368   1.200  0.1096  0.0412  0.1219
 5990TIP3    H117911   7.482   1.401   1.138  0.3974 -0.5188  0.1176
 5990TIP3    H217912   7.361   1.443   1.218 -0.4586 -0.0043 -1.4051
 5991TIP3   OH217913   7.711   7.844   0.356 -0.1290 -0.0239 -0.2544
 5991TIP3    H117914   7.716   7.782   0.283  2.0885  0.1157 -0.2691
 5991TIP3    H217915   7.638   7.902   0.334  1.5552  1.1132 -3.2657
 5992TIP3   OH217916   2.734   1.889   1.185 -0.8978 -0.7630  0.0854
 5992TIP3    H117917   2.706   1.967   1.137  1.2090  0.1493  0.2305
 5992TIP3    H217918   2.756   1.826   1.118 -0.0137 -0.2520 -0.1178
 5993TIP3   OH217919   5.113   7.322   6.045  0.5132  0.4230  0.0050
 5993TIP3    H117920   5.203   7.354   6.055  0.3559  1.5517 -1.7705
 5993TIP3    H217921   5.092   7.336   5.953 -1.0277 -1.1101  0.0645
 5994TIP3   OH217922   0.641   3.421   0.199 -0.7009 -0.0921 -0.4258
 5994TIP3    H117923   0.586   3.368   0.257 -0.3277  0.1266  0.1404
 5994TIP3    H217924   0.697   3.470   0.259  0.0405 -0.2419 -0.9961
 5995TIP3   OH217925   2.004   3.912   5.658  0.1883 -0.4048 -0.1546
 5995TIP3    H117926   2.079   3.853   5.664  1.3165  1.0650  0.8696
 5995TIP3    H217927   2.038   3.997   5.687 -2.8555 -0.5287  4.8142
 5996TIP3   OH217928   6.319   3.166   1.082 -0.2701  0.6680 -0.2013
 5996TIP3    H117929   6.408   3.146   1.114 -0.9003 -1.5041  0.4042
 5996TIP3    H217930   6.330   3.242   1.026  2.0723  0.1622 -0.5342
 5997TIP3   OH217931   4.813  -0.015   3.439  0.1803 -0.3973 -0.4858
 5997TIP3    H117932   4.786   0.068   3.399 -1.0733  0.1190  1.2867
 5997TIP3    H217933   4.806   0.001   3.533  0.9429 -2.2037 -0.0885
 5998TIP3   OH217934   2.642   2.569   6.336  0.3585  0.0684 -0.0237
 5998TIP3    H117935   2.605   2.580   6.424  1.6906 -2.4709  0.9897
 5998TIP3    H217936   2.733   2.599   6.345  0.0888  1.2345 -0.9941
 5999TIP3   OH217937   0.694   3.358   3.851 -0.1281  1.1063 -0.3878
 5999TIP3    H117938   0.727   3.447   3.862  1.8447  0.4267 -0.3761
 5999TIP3    H217939   0.682   3.348   3.757  0.2862  1.1836 -0.4509
 6000TIP3   OH217940   0.071   1.396   1.591 -0.1828 -0.4313 -0.0982
 6000TIP3    H117941   0.163   1.422   1.596 -0.3137  0.4889 -1.7492
 6000TIP3    H217942   0.028   1.469   1.546 -2.0284 -0.1323  1.9334
 6001TIP3   OH217943   6.079   4.180   5.124 -0.2748  0.2082  0.0414
 6001TIP3    H117944   6.029   4.104   5.094  1.3328 -0.7506 -0.3647
 6001TIP3    H217945   6.133   4.204   5.049  1.5296 -0.2596  1.1129
 6002TIP3   OH217946   7.031   3.262   0.675  0.1075  0.0957 -0.6858
 6002TIP3    H117947   6.950   3.271   0.726  0.2632  0.7323 -0.5372
 6002TIP3    H217948   7.093   3.219   0.733  0.1385  0.3914 -0.4989
 6003TIP3   OH217949   3.630   1.503   2.947  0.8611 -0.1064  0.3396
 6003TIP3    H117950   3.561   1.479   2.886  2.4902 -0.3393 -1.5236
 6003TIP3    H217951   3.636   1.429   3.008 -1.3953  0.5285  1.4189
 6004TIP3   OH217952   7.269   7.330   2.656  0.4813  0.1065 -0.1028
 6004TIP3    H117953   7.239   7.381   2.581  0.4202  0.4295  0.1373
 6004TIP3    H217954   7.196   7.272   2.677  0.7449 -0.4525 -0.6977
 6005TIP3   OH217955   0.663   3.326   0.602 -0.0588  0.1075  0.7598
 6005TIP3    H117956   0.709   3.353   0.681 -1.6342 -0.8456  2.0819
 6005TIP3    H217957   0.582   3.378   0.601  0.3971  0.8502 -0.8146
 6006TIP3   OH217958   3.043   6.866   5.599  0.4092  1.0106 -0.1091
 6006TIP3    H117959   3.007   6.803   5.537  0.7293  1.2823 -0.5845
 6006TIP3    H217960   3.095   6.814   5.660  0.7561  0.8317 -0.5587
 6007TIP3   OH217961   5.906   4.049   4.189 -0.9326  0.3943 -0.6334
 6007TIP3    H117962   5.977   4.111   4.182 -1.3247  0.7276 -1.7752
 6007TIP3    H217963   5.916   4.011   4.277  0.5761  0.4953 -0.7446
 6008TIP3   OH217964   2.568   3.954   3.658 -0.3043 -0.0179 -0.1079
 6008TIP3    H117965   2.505   3.976   3.590 -1.1661  0.3260  0.7684
 6008TIP3    H217966   2.519   3.900   3.720  0.9977 -2.0481 -0.7417
 6009TIP3   OH217967   7.882   6.511   0.527 -0.6746  0.3980 -0.2077
 6009TIP3    H117968   7.866   6.583   0.587  0.7441 -0.1560  0.8754
 6009TIP3    H217969   7.975   6.515   0.508 -0.5990 -1.0565 -0.2574
 6010TIP3   OH217970   6.626   6.825   5.561 -0.4205 -0.0489  0.0270
 6010TIP3    H117971   6.550   6.882   5.558  0.7591  1.6319  0.4952
 6010TIP3    H217972   6.644   6.805   5.469  0.4341  2.2100 -0.3661
 6011TIP3   OH217973   1.320   4.240   3.847  0.3093  0.0877  0.1753
 6011TIP3    H117974   1.371   4.217   3.770 -0.4519  3.2745 -1.4694
 6011TIP3    H217975   1.244   4.181   3.845  0.8610 -0.6054 -0.8622
 6012TIP3   OH217976   7.278   7.792   2.816  0.2835 -0.9045 -0.2328
 6012TIP3    H117977   7.308   7.779   2.726 -0.4737 -1.7353 -0.3728
 6012TIP3    H217978   7.197   7.743   2.822 -0.1574 -0.0979  0.6490
 6013TIP3   OH217979   7.430   2.114   1.940  0.0507 -0.4677  0.5270
 6013TIP3    H117980   7.511   2.133   1.892  0.4463 -0.5964  1.1291
 6013TIP3    H217981   7.426   2.018   1.940 -0.0501 -0.4626  0.5892
 6014TIP3   OH217982   4.644   0.776   0.954  0.2373 -0.0157 -0.1746
 6014TIP3    H117983   4.620   0.755   0.864  1.3021  0.0091 -0.4786
 6014TIP3    H217984   4.633   0.693   1.001 -0.2801 -0.0405 -0.3358
 6015TIP3   OH217985   2.106   1.911   5.660 -0.5409 -0.2075 -0.0398
 6015TIP3    H117986   2.144   1.846   5.720 -0.3917 -0.1824 -0.1051
 6015TIP3    H217987   2.108   1.993   5.709 -1.6015 -0.4322  0.3886
 6016TIP3   OH217988   6.215   1.087   3.950 -1.0426 -0.5586 -0.5225
 6016TIP3    H117989   6.245   0.997   3.965  0.2164 -0.1161 -0.2869
 6016TIP3    H217990   6.142   1.098   4.012 -0.4322 -1.0330  0.3118
 6017TIP3   OH217991   8.138   0.438   6.052 -0.3611  0.0093  0.1283
 6017TIP3    H117992   8.056   0.484   6.038 -0.8470 -0.8496  0.0777
 6017TIP3    H217993   8.184   0.445   5.968 -1.2864 -1.2385 -0.5126
 6018TIP3   OH217994   5.426   2.757   5.508 -0.2027  0.1216  0.2466
 6018TIP3    H117995   5.436   2.852   5.509 -0.5054  0.1524  0.5944
 6018TIP3    H217996   5.482   2.726   5.579  0.1258  0.0129 -0.0557
 6019TIP3   OH217997   4.171   5.463   5.347 -0.5769 -0.1892  0.0513
 6019TIP3    H117998   4.107   5.413   5.296  0.5716 -0.4973 -1.1588
 6019TIP3    H217999   4.195   5.404   5.419 -1.1219 -0.3422  0.1140
 6020TIP3   OH218000   7.992   5.050   6.710  0.3059 -0.4077  0.6169
 6020TIP3    H118001   7.935   5.054   6.787 -1.7777 -2.6478 -0.6600
 6020TIP3    H218002   8.004   4.956   6.694  1.6207  0.0086 -1.1606
 6021TIP3   OH218003   4.302   3.232   6.021 -0.1689 -0.0432 -0.4984
 6021TIP3    H118004   4.337   3.167   5.960 -0.1616 -1.2268  0.7239
 6021TIP3    H218005   4.358   3.226   6.098 -0.6970  0.8154 -0.0332
 6022TIP3   OH218006   2.497   2.168   6.273  0.9563 -0.8218  0.4484
 6022TIP3    H118007   2.410   2.185   6.309  1.6942  0.8737  1.5419
 6022TIP3    H218008   2.538   2.110   6.337  1.1074 -0.4992  0.6456
 6023TIP3   OH218009   5.279   5.866   4.511 -0.2236  0.2058  0.0619
 6023TIP3    H118010   5.283   5.958   4.484 -2.0124  0.2707 -0.0809
 6023TIP3    H218011   5.226   5.824   4.443  0.0560 -0.8025  0.4621
 6024TIP3   OH218012   4.230   7.670   1.530  0.0098 -0.6554 -0.0051
 6024TIP3    H118013   4.143   7.684   1.491  0.4958  1.7996 -0.3646
 6024TIP3    H218014   4.291   7.700   1.464  1.1195 -1.6088  0.5575
 6025TIP3   OH218015   2.683   3.297   6.399  0.1368  0.7921 -0.2009
 6025TIP3    H118016   2.601   3.345   6.412 -0.8889  0.0295 -3.1417
 6025TIP3    H218017   2.742   3.360   6.358 -0.3176  0.3580 -1.5902
 6026TIP3   OH218018   3.590   6.869   6.290 -0.1172 -0.4534 -0.0780
 6026TIP3    H118019   3.578   6.936   6.224 -0.9461 -0.2511  0.2723
 6026TIP3    H218020   3.685   6.859   6.297 -0.0066 -1.6104 -2.4202
 6027TIP3   OH218021   5.451   1.017   6.452  0.3264 -0.2811  0.6365
 6027TIP3    H118022   5.482   0.926   6.458 -1.2180 -0.8594  0.3383
 6027TIP3    H218023   5.368   1.016   6.500 -0.0699  0.8108 -0.0155
 6028TIP3   OH218024   5.232   0.189   2.282 -0.0895 -1.0604  0.4826
 6028TIP3    H118025   5.255   0.096   2.274 -1.2824 -1.3581  0.2694
 6028TIP3    H218026   5.233   0.221   2.192  0.5168 -0.8198  0.5774
 6029TIP3   OH218027   1.935   2.563   4.248 -0.2656  0.0897  0.1813
 6029TIP3    H118028   1.981   2.579   4.165  1.1840  0.1865  0.9810
 6029TIP3    H218029   1.847   2.596   4.232  0.0351  0.2805 -1.2676
 6030TIP3   OH218030   3.900   1.516   2.887  0.1524  0.2523 -0.4703
 6030TIP3    H118031   3.911   1.424   2.861  0.3333 -0.5737  2.1832
 6030TIP3    H218032   3.815   1.517   2.932  0.5579  1.1736  0.3003
 6031TIP3   OH218033   5.591   2.010   4.258 -0.3735  0.3732  0.5226
 6031TIP3    H118034   5.528   1.982   4.325  0.0351  1.0116  1.1950
 6031TIP3    H218035   5.537   2.051   4.190 -0.7996 -0.3359  0.4266
 6032TIP3   OH218036   4.220   0.435   0.801 -0.6336  0.6611 -0.1185
 6032TIP3    H118037   4.287   0.392   0.748  2.0860  1.2766  2.4984
 6032TIP3    H218038   4.203   0.374   0.873  0.3744  2.1835  1.5138
 6033TIP3   OH218039   5.132   4.866   4.730 -0.6928  0.1517  0.6478
 6033TIP3    H118040   5.173   4.900   4.650 -0.5269 -1.0746  0.2027
 6033TIP3    H218041   5.045   4.906   4.731 -1.1871 -0.8239 -0.8453
 6034TIP3   OH218042   0.237   3.185   6.004 -0.1999 -0.2168  0.2182
 6034TIP3    H118043   0.201   3.263   5.963 -1.8349 -2.0279 -2.1138
 6034TIP3    H218044   0.201   3.185   6.093 -0.5299  1.4046  0.1053
 6035TIP3   OH218045   2.436   0.988   1.604  0.7413  0.4897 -0.2182
 6035TIP3    H118046   2.463   0.904   1.640  1.2565 -0.5989 -2.9137
 6035TIP3    H218047   2.358   1.012   1.654  1.6055 -0.6716  1.8024
 6036TIP3   OH218048   7.746   7.806   0.752  0.1729  0.2774 -0.2911
 6036TIP3    H118049   7.699   7.762   0.681 -3.8805  0.4647  1.9821
 6036TIP3    H218050   7.772   7.735   0.810 -0.3959  0.4136  0.1322
 6037TIP3   OH218051   4.730   5.881   3.529  0.7097  0.7171 -0.1514
 6037TIP3    H118052   4.639   5.889   3.500  0.9364 -0.3468 -1.2305
 6037TIP3    H218053   4.741   5.950   3.594 -0.7946  1.0189 -0.1995
 6038TIP3   OH218054   6.857   1.547   5.729 -0.1285 -0.0227  0.1071
 6038TIP3    H118055   6.767   1.577   5.741 -0.3765 -0.0502 -1.5142
 6038TIP3    H218056   6.896   1.611   5.669 -0.2065 -2.0050 -2.1897
 6039TIP3   OH218057   7.316   0.591   2.105 -0.2865 -0.6114  0.1837
 6039TIP3    H118058   7.410   0.589   2.121 -0.4346  1.1142  1.4778
 6039TIP3    H218059   7.308   0.622   2.015  0.3714  1.3307  0.7593
 6040TIP3   OH218060   5.253   2.274   0.804  0.0338  0.7109  0.2429
 6040TIP3    H118061   5.194   2.343   0.835  0.3611  0.3975  1.6428
 6040TIP3    H218062   5.211   2.240   0.726 -0.1619  2.4648 -0.4691
 6041TIP3   OH218063   7.447   1.087   3.766 -0.4334  0.3342  0.3400
 6041TIP3    H118064   7.411   1.163   3.812  0.5398  0.1386  1.4587
 6041TIP3    H218065   7.502   1.043   3.830  1.5734  0.4441 -1.1697
 6042TIP3   OH218066   7.094   3.284   6.271 -0.0856 -0.0593  0.2234
 6042TIP3    H118067   7.152   3.313   6.200  0.0042 -1.4542 -0.3165
 6042TIP3    H218068   7.010   3.325   6.251 -0.8986 -2.6464 -2.4452
 6043TIP3   OH218069   3.811   5.595   4.708  0.5913  0.1447  0.1425
 6043TIP3    H118070   3.779   5.614   4.796  0.7045 -0.5469  0.3398
 6043TIP3    H218071   3.808   5.499   4.701  1.3669  0.1424 -0.3044
 6044TIP3   OH218072   4.360   1.024   6.660  0.1925  0.1120  0.5617
 6044TIP3    H118073   4.289   1.078   6.626  0.2802  0.3800  0.7905
 6044TIP3    H218074   4.406   1.082   6.721 -1.1497 -0.9174  2.6972
 6045TIP3   OH218075   3.389   0.611   4.522  0.1621  0.2821 -0.2192
 6045TIP3    H118076   3.412   0.686   4.576 -0.8725 -0.3290  1.1167
 6045TIP3    H218077   3.421   0.535   4.572 -0.1837 -0.2622 -0.8055
 6046TIP3   OH218078   1.989   0.221   2.929 -0.0348 -0.0137  0.1136
 6046TIP3    H118079   2.073   0.202   2.888 -0.3058  0.2928 -0.5982
 6046TIP3    H218080   1.961   0.137   2.966  0.5203 -0.1448  0.2455
 6047TIP3   OH218081   0.199   2.539   3.119  0.6311  0.0288  0.2016
 6047TIP3    H118082   0.275   2.531   3.060 -0.0434 -0.1044 -0.6736
 6047TIP3    H218083   0.171   2.449   3.134 -1.3610  0.1246 -2.2120
 6048TIP3   OH218084   1.752   0.311   5.021  0.0134  0.4820  0.0592
 6048TIP3    H118085   1.684   0.266   4.971  0.2874  1.4199 -1.2014
 6048TIP3    H218086   1.834   0.270   4.992  0.4291  2.7132 -2.2962
 6049TIP3   OH218087   1.303   4.567   3.251 -0.1499 -0.4481 -0.2110
 6049TIP3    H118088   1.245   4.516   3.194 -1.2312  0.6271 -0.0915
 6049TIP3    H218089   1.308   4.653   3.209  0.4789 -0.1882  0.3823
 6050TIP3   OH218090   5.609   0.322   1.550 -0.0091 -0.3625 -0.2254
 6050TIP3    H118091   5.581   0.242   1.505 -0.8401  0.1959 -0.7357
 6050TIP3    H218092   5.652   0.291   1.630  0.6942 -1.3544 -0.9511
 6051TIP3   OH218093   6.783   4.914   5.533 -0.0906  0.0805 -0.1510
 6051TIP3    H118094   6.828   4.830   5.526 -0.4462 -0.3480  2.0191
 6051TIP3    H218095   6.704   4.904   5.480  2.0320  0.7338 -3.7800
 6052TIP3   OH218096   1.476   6.726   2.657 -0.1657  0.0727  0.0200
 6052TIP3    H118097   1.399   6.716   2.601  1.6766  0.0449 -2.7048
 6052TIP3    H218098   1.494   6.820   2.655  0.6697 -0.0924 -0.5619
 6053TIP3   OH218099   5.603   3.375   2.064 -0.1992 -0.7070  0.4164
 6053TIP3    H118100   5.679   3.318   2.053 -0.7041 -1.1196 -1.1433
 6053TIP3    H218101   5.531   3.329   2.021 -0.4799  1.3658 -1.5361
 6054TIP3   OH218102   3.431   7.464   0.381 -0.0745  0.1160 -0.1985
 6054TIP3    H118103   3.504   7.525   0.391 -0.2074  0.2417 -0.0179
 6054TIP3    H218104   3.364   7.496   0.440  0.1443 -0.6418  0.4807
 6055TIP3   OH218105   3.627   5.190   6.710  0.1751  0.7348  0.2237
 6055TIP3    H118106   3.659   5.133   6.640  0.0409  0.2336  0.5640
 6055TIP3    H218107   3.566   5.249   6.667 -0.7861 -0.3156  0.1038
 6056TIP3   OH218108   0.257   6.402   5.081  0.2648  0.4346  0.6127
 6056TIP3    H118109   0.176   6.384   5.034  1.0871 -0.5970 -0.4658
 6056TIP3    H218110   0.275   6.322   5.130  0.7623  0.5753  0.6644
 6057TIP3   OH218111   8.214   6.063   4.781  0.4779 -0.0677 -0.5964
 6057TIP3    H118112   8.170   5.978   4.775  0.8738 -0.5298  1.7600
 6057TIP3    H218113   8.151   6.120   4.825  0.8450  0.3678 -0.6173
 6058TIP3   OH218114   5.947   3.524   5.534  0.1533  0.5904 -0.2142
 6058TIP3    H118115   5.914   3.435   5.552  0.4878  0.5982  0.4558
 6058TIP3    H218116   5.994   3.549   5.613  2.1820  0.4119 -1.2798
 6059TIP3   OH218117   1.282   0.803   2.347 -0.4373  0.3252 -0.0902
 6059TIP3    H118118   1.217   0.751   2.300  0.6524 -0.8753 -0.2986
 6059TIP3    H218119   1.269   0.780   2.439  0.2904 -0.6432 -0.2132
 6060TIP3   OH218120   4.246   1.446   0.071  0.4941  0.0847 -0.2786
 6060TIP3    H118121   4.261   1.385   0.143 -0.8855 -1.2477 -1.0759
 6060TIP3    H218122   4.244   1.391  -0.007 -0.1170  1.2371 -1.0954
 6061TIP3   OH218123   6.776   6.545   5.198  0.0002  0.0064 -0.1069
 6061TIP3    H118124   6.682   6.538   5.184  0.0106  1.5145 -1.1381
 6061TIP3    H218125   6.787   6.618   5.259  0.5557  0.8182 -1.1481
 6062TIP3   OH218126   5.814   7.384   3.501  0.0685 -0.4200 -0.3852
 6062TIP3    H118127   5.721   7.405   3.510 -0.0166 -0.5489 -0.9558
 6062TIP3    H218128   5.827   7.307   3.557  0.4448  1.2277  1.9592
 6063TIP3   OH218129   6.606   2.071   4.094 -0.1734  0.1964  0.3040
 6063TIP3    H118130   6.559   2.019   4.029 -0.3405  0.1969  0.4237
 6063TIP3    H218131   6.630   2.151   4.048  1.2512 -0.5198 -0.2862
 6064TIP3   OH218132   3.018   7.282   1.545 -0.3677 -0.0073 -0.0634
 6064TIP3    H118133   2.984   7.290   1.455 -0.3010  0.4991 -0.0483
 6064TIP3    H218134   2.950   7.235   1.592  0.5978 -2.4445 -0.9198
 6065TIP3   OH218135   3.509   5.416   6.810  0.7175  0.5593  0.0749
 6065TIP3    H118136   3.561   5.439   6.733  1.2962 -0.5532  0.1226
 6065TIP3    H218137   3.535   5.326   6.831 -1.6010 -0.2248 -0.2089
 6066TIP3   OH218138   7.157   5.696   5.652  0.5560  0.0885  0.4029
 6066TIP3    H118139   7.090   5.700   5.583 -0.6116 -0.7114  1.4494
 6066TIP3    H218140   7.193   5.785   5.655  0.5364  0.1678 -1.1423
 6067TIP3   OH218141   7.222   5.957   5.618 -0.0579 -0.1493 -0.1565
 6067TIP3    H118142   7.316   5.957   5.604  0.1346 -0.9036  1.0732
 6067TIP3    H218143   7.185   5.966   5.530  1.1464 -0.1161 -0.6761
 6068TIP3   OH218144   3.141   2.016   3.054  0.9217 -0.3622  0.2939
 6068TIP3    H118145   3.126   1.993   3.146 -2.4482  0.6306  0.1267
 6068TIP3    H218146   3.161   1.933   3.012  0.2986 -1.1898  1.5513
 6069TIP3   OH218147   2.778   5.503   4.140 -0.2689  0.0646  0.3302
 6069TIP3    H118148   2.700   5.454   4.117  0.7676 -0.6115 -2.0922
 6069TIP3    H218149   2.788   5.566   4.069  0.9998  0.6345  0.9801
 6070TIP3   OH218150   3.488   6.807   1.819  0.5054 -0.0442 -0.3455
 6070TIP3    H118151   3.578   6.775   1.826  0.5950  0.5832  2.7030
 6070TIP3    H218152   3.474   6.857   1.899 -2.1576  1.0111 -1.3487
 6071TIP3   OH218153   4.299   6.226   6.359 -0.4899  0.0795 -0.3927
 6071TIP3    H118154   4.373   6.256   6.307 -0.3911 -1.3265 -1.1167
 6071TIP3    H218155   4.333   6.217   6.448  0.2345 -0.6216 -0.7347
 6072TIP3   OH218156   0.148   3.978   0.404  0.1851 -0.1450 -0.2236
 6072TIP3    H118157   0.187   4.017   0.482 -2.2379  1.2622  0.3602
 6072TIP3    H218158   0.126   4.052   0.348 -0.2587 -0.9924 -1.2025
 6073TIP3   OH218159   2.460   0.027   1.852  0.2556 -0.2155 -0.2000
 6073TIP3    H118160   2.530   0.052   1.913  0.3184  1.0276 -0.7581
 6073TIP3    H218161   2.481  -0.063   1.827  1.9081  0.2714 -0.6825
 6074TIP3   OH218162   2.236   4.376   1.193 -0.2216 -0.2552  0.0297
 6074TIP3    H118163   2.276   4.461   1.170  1.7028 -0.7097  1.4826
 6074TIP3    H218164   2.165   4.365   1.129 -0.1319  2.1546 -0.5741
 6075TIP3   OH218165   4.526   3.343   1.923  0.4635  0.1470 -0.0305
 6075TIP3    H118166   4.557   3.253   1.939  0.5695 -0.0009 -1.0122
 6075TIP3    H218167   4.604   3.391   1.898 -0.0202 -0.1700 -2.2939
 6076TIP3   OH218168   5.137   6.681   5.793 -0.1882  0.1635 -0.5235
 6076TIP3    H118169   5.076   6.622   5.749 -1.4853  1.3456 -0.3902
 6076TIP3    H218170   5.161   6.635   5.873 -1.8069  0.1148 -0.0250
 6077TIP3   OH218171   5.882   3.335   0.361  0.0123  0.4619 -0.0219
 6077TIP3    H118172   5.830   3.349   0.440 -1.3669 -1.5518 -0.4869
 6077TIP3    H218173   5.820   3.297   0.298  1.8831 -1.3999 -0.8344
 6078TIP3   OH218174   6.695   0.386   4.688 -0.1633  0.2512 -0.4101
 6078TIP3    H118175   6.746   0.320   4.642 -1.3891 -0.0677 -1.3524
 6078TIP3    H218176   6.726   0.381   4.779  1.5635  0.1907 -0.9690
 6079TIP3   OH218177   4.110   4.365   6.441 -0.3599 -0.5113  0.1203
 6079TIP3    H118178   4.130   4.453   6.407 -0.4672 -0.8646 -0.8903
 6079TIP3    H218179   4.054   4.326   6.375 -0.8835 -1.1025  0.8985
 6080TIP3   OH218180   7.760   5.583   3.834  0.3960  0.0249  0.4231
 6080TIP3    H118181   7.804   5.668   3.830  1.3723 -0.4054  1.6535
 6080TIP3    H218182   7.771   5.547   3.746  2.0318  0.1855  0.5292
 6081TIP3   OH218183   7.829   5.563   1.480 -0.1307 -0.2234 -0.2225
 6081TIP3    H118184   7.812   5.531   1.391 -1.1291 -0.1443 -0.0723
 6081TIP3    H218185   7.742   5.580   1.516  0.3252  1.8648  0.0004
 6082TIP3   OH218186   2.213   0.754   6.058 -0.2986 -0.0775 -0.0441
 6082TIP3    H118187   2.137   0.711   6.098 -0.3229  0.0482  0.0475
 6082TIP3    H218188   2.267   0.781   6.133  1.0936 -2.3794 -0.1379
 6083TIP3   OH218189   2.972   4.572   1.934  0.2129 -0.0363 -0.1852
 6083TIP3    H118190   3.019   4.610   2.008 -0.0689  0.3702 -0.2154
 6083TIP3    H218191   3.034   4.509   1.896  0.1281 -0.7158  0.7687
 6084TIP3   OH218192   5.857   7.905   0.527 -0.5801 -0.2543 -0.4894
 6084TIP3    H118193   5.779   7.856   0.501 -0.0225 -0.8934 -0.9775
 6084TIP3    H218194   5.913   7.840   0.570 -0.9953  0.5312  1.3476
 6085TIP3   OH218195   1.553   5.405   0.912 -0.0398  0.0654  0.7828
 6085TIP3    H118196   1.563   5.489   0.867 -0.0594  0.3793  1.3514
 6085TIP3    H218197   1.643   5.376   0.928 -0.0329 -0.0679  0.5005
 6086TIP3   OH218198   8.216   4.749   3.131 -0.0368  0.1114 -0.0349
 6086TIP3    H118199   8.203   4.661   3.095 -0.3982  0.2443 -0.2302
 6086TIP3    H218200   8.292   4.782   3.083 -1.2375  0.7461 -1.5747
 6087TIP3   OH218201   6.275   3.349   2.244 -0.4838 -0.3119  0.5284
 6087TIP3    H118202   6.204   3.411   2.261  0.2001  0.3440  1.0604
 6087TIP3    H218203   6.231   3.266   2.229 -1.3765  0.1251  0.6443
 6088TIP3   OH218204   3.981   2.040   2.363 -0.0200  0.4608 -0.0075
 6088TIP3    H118205   3.992   1.945   2.359 -1.4659  0.1315  2.2599
 6088TIP3    H218206   3.894   2.056   2.325  0.2218  0.8977 -0.3986
 6089TIP3   OH218207   7.065   1.497   4.732 -0.0877 -0.2507  0.2090
 6089TIP3    H118208   7.110   1.573   4.696  0.6614 -0.6520  0.2743
 6089TIP3    H218209   6.997   1.476   4.667  1.7284 -1.4357 -1.4164
 6090TIP3   OH218210   6.365   7.205   2.585  0.4378  0.2589 -0.0006
 6090TIP3    H118211   6.442   7.191   2.529  1.3983  1.5304  0.9411
 6090TIP3    H218212   6.332   7.291   2.560  1.4160  1.2475  1.9267
 6091TIP3   OH218213   1.122   0.985   5.552  0.1885  0.0711 -0.3049
 6091TIP3    H118214   1.100   0.992   5.460  0.4483  0.5627 -0.3356
 6091TIP3    H218215   1.139   0.892   5.567 -2.5847 -0.4656 -0.1050
 6092TIP3   OH218216   2.647   4.719   4.234  0.2014  0.3189  0.0591
 6092TIP3    H118217   2.740   4.730   4.254 -0.0478  1.1867  0.8163
 6092TIP3    H218218   2.622   4.802   4.193 -0.1634 -0.0450 -0.4659
 6093TIP3   OH218219   2.418   0.434   3.680 -0.1030  0.1463  0.3820
 6093TIP3    H118220   2.449   0.452   3.769  0.7390 -0.1212  0.1496
 6093TIP3    H218221   2.390   0.519   3.647 -1.6375  0.0642  1.3390
 6094TIP3   OH218222   4.838   3.489   2.904 -0.0551 -0.4681  0.1607
 6094TIP3    H118223   4.834   3.544   2.825 -0.8319 -1.0853 -0.2374
 6094TIP3    H218224   4.872   3.548   2.972  0.2062  0.1913 -0.5252
 6095TIP3   OH218225   6.916   1.198   1.765 -0.3418 -0.0801  0.2772
 6095TIP3    H118226   6.876   1.279   1.734 -1.7601 -0.5110  0.8632
 6095TIP3    H218227   6.899   1.135   1.696  1.3343  0.2421 -0.4733
 6096TIP3   OH218228   5.304   6.249   3.159 -0.0328 -0.1284 -0.4614
 6096TIP3    H118229   5.263   6.164   3.144  1.8081 -1.0466 -0.4615
 6096TIP3    H218230   5.335   6.245   3.250  1.8769 -0.2876 -1.0875
 6097TIP3   OH218231   5.246   6.854   5.177  0.6571  0.0378  0.0710
 6097TIP3    H118232   5.205   6.937   5.203 -1.6447 -0.7459 -0.8188
 6097TIP3    H218233   5.190   6.787   5.215  2.2330 -1.1293  0.3981
 6098TIP3   OH218234   6.732   2.154   5.015  0.0148 -0.5502 -0.8273
 6098TIP3    H118235   6.641   2.163   5.046  0.3867 -2.2231  0.9370
 6098TIP3    H218236   6.749   2.060   5.018  1.5943 -0.3328 -1.8852
 6099TIP3   OH218237   6.107   6.011   2.090 -0.3156 -0.1758 -0.2986
 6099TIP3    H118238   6.201   5.994   2.094 -0.1913  0.7198  1.0892
 6099TIP3    H218239   6.076   5.997   2.180 -1.3312  0.4896 -0.5268
 6100TIP3   OH218240   7.794   2.943   1.212 -0.1754  0.5448  0.3897
 6100TIP3    H118241   7.812   2.938   1.118 -0.8437 -0.3770  0.2908
 6100TIP3    H218242   7.701   2.923   1.220 -0.4814  2.1203  1.1375
 6101TIP3   OH218243   2.554   6.643   4.151 -0.2956  0.2401  0.4404
 6101TIP3    H118244   2.477   6.586   4.142 -1.0712  0.8626  2.5189
 6101TIP3    H218245   2.563   6.684   4.064 -0.2364 -2.3190 -0.8446
 6102TIP3   OH218246   6.622   1.501   0.165  0.3550 -0.4497  0.1725
 6102TIP3    H118247   6.553   1.540   0.110  1.2434 -0.2699 -0.8433
 6102TIP3    H218248   6.584   1.418   0.195 -1.0425  0.5374  1.2572
 6103TIP3   OH218249   4.247   4.714   4.557 -0.6545  0.7222 -0.3108
 6103TIP3    H118250   4.210   4.759   4.481  0.4538 -0.8950 -1.8703
 6103TIP3    H218251   4.336   4.692   4.531  0.1903  1.1921  1.9463
 6104TIP3   OH218252   5.300   6.382   6.845 -0.2797 -0.3084 -0.4522
 6104TIP3    H118253   5.351   6.420   6.774 -0.7285  0.7455 -0.2340
 6104TIP3    H218254   5.274   6.296   6.814 -0.5657  0.1861 -1.6065
 6105TIP3   OH218255   7.798   0.940   2.472 -0.2222 -0.3567 -0.5573
 6105TIP3    H118256   7.884   0.902   2.454 -0.0073 -0.1476 -0.0125
 6105TIP3    H218257   7.758   0.880   2.535  1.1815  1.5991  2.4012
 6106TIP3   OH218258   5.507   4.470   2.514  0.8046 -0.2431 -0.2583
 6106TIP3    H118259   5.429   4.515   2.483  0.5308 -0.1017  0.6139
 6106TIP3    H218260   5.539   4.422   2.437 -1.1128 -1.6899 -0.2453
 6107TIP3   OH218261   2.562   3.222   4.267  0.5402  0.0978  0.7129
 6107TIP3    H118262   2.602   3.238   4.352 -1.8549 -0.7465  2.0922
 6107TIP3    H218263   2.566   3.307   4.223  1.9744  0.5021  1.5675
 6108TIP3   OH218264   4.228   5.784   1.884 -0.1113  0.3766 -0.0062
 6108TIP3    H118265   4.182   5.867   1.872  0.0823  0.1964 -2.4233
 6108TIP3    H218266   4.162   5.717   1.866  0.2241  0.0351  0.0319
 6109TIP3   OH218267   7.593   6.193   4.794  0.3368  0.1671 -0.3846
 6109TIP3    H118268   7.532   6.257   4.757  0.6284  1.8922  1.9177
 6109TIP3    H218269   7.546   6.109   4.788 -2.4286  1.4445  1.4307
 6110TIP3   OH218270   0.071   0.505   6.466  0.2848 -0.1525  0.4804
 6110TIP3    H118271   0.150   0.480   6.418 -0.5598 -0.7900 -0.6309
 6110TIP3    H218272   0.000   0.496   6.402 -0.7325  0.1180  1.5272
 6111TIP3   OH218273   1.844   7.744   5.537 -0.6989 -0.4997 -0.0939
 6111TIP3    H118274   1.758   7.733   5.498  0.1640  0.8079 -2.6288
 6111TIP3    H218275   1.901   7.685   5.488  0.0165 -0.7356  0.9777
 6112TIP3   OH218276   6.577   1.807   4.424 -0.1611 -0.3751  0.3006
 6112TIP3    H118277   6.524   1.747   4.476 -1.8529  0.4475 -0.3750
 6112TIP3    H218278   6.537   1.892   4.438  2.4128  0.7229  1.5239
 6113TIP3   OH218279   3.955   4.828   2.374  0.0144 -0.2479 -0.1909
 6113TIP3    H118280   3.997   4.838   2.288 -1.2054 -2.6399 -1.1497
 6113TIP3    H218281   4.001   4.754   2.414 -0.7682 -0.4438  0.3595
 6114TIP3   OH218282   0.415   7.722   0.142  0.1201  0.2844  0.1634
 6114TIP3    H118283   0.497   7.721   0.092  1.1883 -1.6258  1.7809
 6114TIP3    H218284   0.441   7.753   0.229 -0.2934 -2.5147  1.4078
 6115TIP3   OH218285   5.532   3.483   2.499  0.5792 -0.4479  0.1585
 6115TIP3    H118286   5.555   3.559   2.552 -1.2383  2.2246 -2.5921
 6115TIP3    H218287   5.596   3.483   2.428 -1.1997  0.3638 -1.4856
 6116TIP3   OH218288   7.074   7.306   4.632 -0.2241  0.0514 -0.1296
 6116TIP3    H118289   7.000   7.267   4.679  0.1274 -0.3692  0.0808
 6116TIP3    H218290   7.124   7.231   4.599  1.3710  0.2447  1.6744
 6117TIP3   OH218291   7.790   6.312   6.011  0.1724 -0.0503 -0.1391
 6117TIP3    H118292   7.740   6.373   5.957 -0.6719 -1.4029 -0.9372
 6117TIP3    H218293   7.870   6.295   5.960 -0.0868 -0.4281 -0.4232
 6118TIP3   OH218294   4.336   0.102   3.968 -0.2085 -0.3338  0.1419
 6118TIP3    H118295   4.364   0.010   3.964 -0.3843 -0.3794 -0.0982
 6118TIP3    H218296   4.411   0.152   3.936 -0.6655 -0.5113 -1.2758
 6119TIP3   OH218297   7.943   7.780   4.708  0.6574  0.4077  0.6085
 6119TIP3    H118298   7.945   7.784   4.613  2.3641 -0.3583  0.5842
 6119TIP3    H218299   7.892   7.702   4.728 -1.2448  1.5272  0.4046
 6120TIP3   OH218300   4.429   0.245   1.165 -0.2194 -0.1272 -0.5372
 6120TIP3    H118301   4.509   0.260   1.115 -0.5556 -2.4427 -1.9549
 6120TIP3    H218302   4.458   0.240   1.256  0.5948  2.9952 -0.5361
 6121TIP3   OH218303   6.688   7.172   4.954  0.3743  0.1937  0.0048
 6121TIP3    H118304   6.731   7.097   4.996  0.8168 -0.0995 -0.9392
 6121TIP3    H218305   6.619   7.133   4.901  0.2006  0.5154 -0.0080
 6122TIP3   OH218306   2.912   5.444   0.222 -0.3167  0.0164  0.0936
 6122TIP3    H118307   2.930   5.379   0.154  0.5858  0.7687 -0.4188
 6122TIP3    H218308   2.817   5.449   0.226 -0.4339 -1.9760  0.7942
 6123TIP3   OH218309   8.173   5.786   3.975  0.2517 -0.6438  0.1302
 6123TIP3    H118310   8.157   5.787   4.069  1.7659  1.8376  0.4482
 6123TIP3    H218311   8.266   5.806   3.966 -0.1990  0.8918 -1.9054
 6124TIP3   OH218312   2.911   5.477   5.836 -0.1396  0.1510  0.1909
 6124TIP3    H118313   2.913   5.495   5.930 -2.3982 -2.5068  0.9045
 6124TIP3    H218314   2.818   5.466   5.816  0.3704 -0.5524 -2.0867
 6125TIP3   OH218315   3.057   0.621   0.020  0.2892 -0.6751  0.3219
 6125TIP3    H118316   3.010   0.701   0.044 -1.0237 -1.3005 -0.0289
 6125TIP3    H218317   3.145   0.650  -0.002 -0.1633  0.6732  0.1920
 6126TIP3   OH218318   6.726   0.537   5.782 -0.2182 -0.4380 -0.9786
 6126TIP3    H118319   6.644   0.557   5.826 -0.8953  1.4378 -2.9471
 6126TIP3    H218320   6.791   0.594   5.823 -0.9073  1.5295 -2.5019
 6127TIP3   OH218321   6.879   3.155   1.489  0.1263  0.2888 -0.3986
 6127TIP3    H118322   6.838   3.227   1.537 -1.9421 -1.2493  0.3370
 6127TIP3    H218323   6.928   3.197   1.419  0.0855  2.4425  0.7708
 6128TIP3   OH218324   5.222   5.384   5.639  0.3470 -0.7004  0.3330
 6128TIP3    H118325   5.253   5.362   5.551 -0.6789 -2.3309  0.3343
 6128TIP3    H218326   5.275   5.329   5.697 -1.2747 -2.2216  0.4511
 6129TIP3   OH218327   1.722   0.767   6.356  0.0780  0.4815 -0.2584
 6129TIP3    H118328   1.797   0.827   6.355  0.9340 -0.5131 -2.1496
 6129TIP3    H218329   1.702   0.753   6.263 -0.5898 -1.5439  0.1504
 6130TIP3   OH218330   5.072   4.651   6.663 -0.3159 -0.6529 -0.3167
 6130TIP3    H118331   5.150   4.675   6.613  0.9911 -1.3014  1.3119
 6130TIP3    H218332   5.048   4.564   6.629  0.9619 -1.3892  0.5508
 6131TIP3   OH218333   6.526   1.394   6.012  0.1694 -0.4388 -0.8472
 6131TIP3    H118334   6.442   1.438   5.995  1.2141  1.6350 -0.8888
 6131TIP3    H218335   6.525   1.319   5.953 -0.6362  0.9218 -2.6605
 6132TIP3   OH218336   6.955   0.218   3.382 -0.2995 -0.2673  0.1476
 6132TIP3    H118337   7.021   0.270   3.427 -0.1942 -2.4152  2.7509
 6132TIP3    H218338   6.878   0.223   3.439  0.0353 -3.6170  1.0977
 6133TIP3   OH218339   4.502   2.791   0.516  0.4331  0.1534  0.1545
 6133TIP3    H118340   4.520   2.884   0.505 -0.0601  0.1482 -0.8476
 6133TIP3    H218341   4.581   2.755   0.555  0.7267  0.9488  0.2975
 6134TIP3   OH218342   7.289   1.149   1.157  0.7891  0.0366  0.1775
 6134TIP3    H118343   7.202   1.181   1.181  0.7294  0.5369 -0.6557
 6134TIP3    H218344   7.347   1.225   1.170  1.1266 -0.3267  0.8407
 6135TIP3   OH218345   7.743   2.121   2.619  0.0845  0.5210 -0.2375
 6135TIP3    H118346   7.698   2.038   2.608 -0.4997  0.7989  0.0200
 6135TIP3    H218347   7.764   2.149   2.529 -0.1720  0.3453 -0.3509
 6136TIP3   OH218348   1.617   5.087   3.991  0.0488 -0.2555  0.1727
 6136TIP3    H118349   1.544   5.031   3.965 -0.3105  1.5915 -3.4049
 6136TIP3    H218350   1.662   5.038   4.060 -1.8904 -3.5230 -0.6838
 6137TIP3   OH218351   2.229   5.781   3.685 -0.3118  0.1845  0.1218
 6137TIP3    H118352   2.243   5.715   3.618 -1.2313 -0.7283  0.8030
 6137TIP3    H218353   2.149   5.827   3.657 -0.0736  0.5513  0.0263
 6138TIP3   OH218354   1.807   7.545   6.366 -0.7758  0.0614 -0.3344
 6138TIP3    H118355   1.744   7.617   6.374 -1.2607 -0.0381 -2.7096
 6138TIP3    H218356   1.753   7.468   6.353 -0.1900 -0.2276 -1.0855
 6139TIP3   OH218357   2.845   3.001   3.620  0.3091 -0.6618  0.2663
 6139TIP3    H118358   2.852   3.074   3.560 -1.6572 -0.0488  0.7040
 6139TIP3    H218359   2.923   3.007   3.675 -0.3218  1.8044  1.0084
 6140TIP3   OH218360   5.464   5.122   3.961 -0.0735  0.0805  0.0247
 6140TIP3    H118361   5.483   5.119   4.055 -0.5837  0.0309  0.1299
 6140TIP3    H218362   5.379   5.078   3.952  0.9546 -1.8663 -0.7382
 6141TIP3   OH218363   1.809   6.406   0.222 -0.9089 -0.0630  0.6313
 6141TIP3    H118364   1.773   6.364   0.300  0.3233 -2.2218  0.1280
 6141TIP3    H218365   1.735   6.455   0.185 -2.0376 -0.6168  2.0568
 6142TIP3   OH218366   7.113   5.704   1.443  0.3201 -0.4775  0.2714
 6142TIP3    H118367   7.102   5.739   1.531 -0.0204  0.8436 -0.2580
 6142TIP3    H218368   7.031   5.726   1.398  1.0826  0.2825 -0.8073
 6143TIP3   OH218369   6.605   5.254   3.148  0.2741 -0.6587 -0.4015
 6143TIP3    H118370   6.510   5.246   3.134  0.5133 -0.0399 -2.9603
 6143TIP3    H218371   6.637   5.163   3.148 -0.1246 -0.8193 -1.5285
 6144TIP3   OH218372   5.284   6.118   6.739  0.2402  0.2958  0.1166
 6144TIP3    H118373   5.322   6.131   6.652 -1.8171  1.8961 -0.6396
 6144TIP3    H218374   5.196   6.083   6.722 -0.5866  1.5879  1.4403
 6145TIP3   OH218375   7.396   5.920   5.305  0.1213 -0.5015  0.0209
 6145TIP3    H118376   7.462   5.982   5.275 -0.4370  0.0283 -0.1207
 6145TIP3    H218377   7.432   5.885   5.387  1.8049 -2.2106 -1.3720
 6146TIP3   OH218378   4.243   4.330   5.188  1.0441  0.8395 -0.6179
 6146TIP3    H118379   4.292   4.256   5.152  1.4506  0.8682 -0.1453
 6146TIP3    H218380   4.311   4.395   5.208  0.8413  0.8217  0.1830
 6147TIP3   OH218381   3.146   4.363   1.918 -0.7759  0.1219  0.2098
 6147TIP3    H118382   3.081   4.296   1.898 -1.4734  0.9710 -0.4826
 6147TIP3    H218383   3.193   4.377   1.836 -1.7292  1.5899 -0.1388
 6148TIP3   OH218384   2.556   3.861   3.086 -0.2444 -0.3618 -0.0571
 6148TIP3    H118385   2.642   3.883   3.051  0.2381  0.4979  1.5588
 6148TIP3    H218386   2.546   3.767   3.067  0.5678 -0.2491 -1.1835
 6149TIP3   OH218387   6.156   3.673   1.253  0.0606  0.4724  0.5597
 6149TIP3    H118388   6.099   3.606   1.215  0.0778 -0.4362  2.0482
 6149TIP3    H218389   6.174   3.733   1.181  1.9781 -2.3635 -1.5329
 6150TIP3   OH218390   5.493   1.503   0.812 -0.5644 -0.5436 -0.2459
 6150TIP3    H118391   5.566   1.543   0.859 -0.7652 -0.4580 -0.0064
 6150TIP3    H218392   5.498   1.410   0.834 -1.0060 -0.4122  0.4087
 6151TIP3   OH218393   4.817   1.360   6.518  0.2537 -0.1102 -0.3328
 6151TIP3    H118394   4.722   1.363   6.524  0.3133  1.4338  0.3603
 6151TIP3    H218395   4.847   1.423   6.584  1.7814 -1.1855  0.0522
 6152TIP3   OH218396   4.033   0.275   3.372  0.2330 -0.1724  0.4617
 6152TIP3    H118397   4.031   0.346   3.307 -0.1552 -1.2663 -0.7596
 6152TIP3    H218398   4.082   0.205   3.329  0.2299 -0.8150  1.4787
 6153TIP3   OH218399   0.661   3.244   1.609 -0.2038 -0.6675 -0.0386
 6153TIP3    H118400   0.720   3.170   1.592  0.3163 -0.4398  0.7426
 6153TIP3    H218401   0.677   3.267   1.700 -1.6957 -0.7647  0.2668
 6154TIP3   OH218402   7.997   4.241   2.382 -0.7067  0.4394 -0.3439
 6154TIP3    H118403   7.997   4.175   2.452 -1.1403  0.2561 -0.5093
 6154TIP3    H218404   7.904   4.248   2.357 -0.6032  0.7926 -0.6275
 6155TIP3   OH218405   7.458   7.178   4.950  0.1945 -0.4917 -0.6910
 6155TIP3    H118406   7.550   7.185   4.975  0.0319 -0.9698  0.0598
 6155TIP3    H218407   7.449   7.090   4.914 -0.2728 -0.9955  0.5977
 6156TIP3   OH218408   3.086   6.452   2.043 -0.8442 -0.0153 -0.4961
 6156TIP3    H118409   3.151   6.455   1.973  0.1634  1.8697  0.4343
 6156TIP3    H218410   3.034   6.374   2.025  1.7340 -1.6899 -1.2336
 6157TIP3   OH218411   3.738   0.777   4.636 -0.1517  0.5501  0.2506
 6157TIP3    H118412   3.648   0.777   4.670 -0.5018  0.8758 -0.6406
 6157TIP3    H218413   3.728   0.796   4.542  0.7338 -0.8716 -0.1615
 6158TIP3   OH218414   1.450   7.786   4.151  0.1249 -0.6845  0.0628
 6158TIP3    H118415   1.428   7.878   4.143  0.3082 -0.5588  0.8878
 6158TIP3    H218416   1.416   7.746   4.071 -1.7824 -0.2482  0.6111
 6159TIP3   OH218417   2.873   7.727   5.681 -0.0302 -0.1565  0.0930
 6159TIP3    H118418   2.902   7.637   5.670  0.6717  0.0730 -0.0287
 6159TIP3    H218419   2.918   7.775   5.611  0.2441  0.4224  0.6572
 6160TIP3   OH218420   5.028   1.937   4.353  0.2215  0.1500 -0.3082
 6160TIP3    H118421   4.981   1.868   4.400  0.4075  0.5223  0.4465
 6160TIP3    H218422   5.062   1.994   4.422  0.4982  0.7189 -0.9019
 6161TIP3   OH218423   0.376   3.744   3.546  0.0474 -0.4590  0.3513
 6161TIP3    H118424   0.327   3.810   3.496  0.7452 -0.8724 -0.9245
 6161TIP3    H218425   0.374   3.776   3.636 -0.8781  0.5437  0.0012
 6162TIP3   OH218426   5.071   0.077   0.815  0.1844 -0.4096 -0.3024
 6162TIP3    H118427   4.989   0.124   0.800  0.0294  1.6694  4.8219
 6162TIP3    H218428   5.046  -0.001   0.864  1.1584 -0.4400  0.1715
 6163TIP3   OH218429   1.550   4.501   3.304 -0.1111 -0.3286  0.0173
 6163TIP3    H118430   1.461   4.535   3.292  0.8029  1.9838 -0.7442
 6163TIP3    H218431   1.566   4.449   3.226 -0.1375  0.9037 -0.8436
 6164TIP3   OH218432   0.550   0.734   3.030  0.2142 -0.6917 -0.1418
 6164TIP3    H118433   0.549   0.829   3.041 -0.5134 -0.5375 -1.3520
 6164TIP3    H218434   0.484   0.701   3.091  0.6364 -0.4500  0.4515
 6165TIP3   OH218435   7.054   7.125   1.142  0.3445  0.1169 -0.2528
 6165TIP3    H118436   6.978   7.176   1.169 -0.0269 -0.9252  0.7746
 6165TIP3    H218437   7.028   7.034   1.157  1.1762 -0.3589 -1.5099
 6166TIP3   OH218438   0.622   2.672   0.930  0.0378  0.1688  0.1224
 6166TIP3    H118439   0.590   2.699   0.844  3.0333  1.7728 -0.6634
 6166TIP3    H218440   0.544   2.658   0.982 -1.8789  1.4094 -2.2142
 6167TIP3   OH218441   6.721   1.260   4.364 -0.0354  0.7436  0.5826
 6167TIP3    H118442   6.739   1.245   4.457 -1.2540 -1.7037  0.4910
 6167TIP3    H218443   6.644   1.317   4.364  0.2536  1.1460  1.0493
 6168TIP3   OH218444   3.837   4.834   3.475 -0.4235 -0.2777 -0.0936
 6168TIP3    H118445   3.796   4.781   3.544 -0.2453 -0.4851 -0.1474
 6168TIP3    H218446   3.926   4.850   3.506 -0.2913 -0.5080 -0.3486
 6169TIP3   OH218447   0.241   2.185   3.365  0.4063 -0.4656 -0.6330
 6169TIP3    H118448   0.258   2.189   3.271  0.7004  0.4581 -0.5478
 6169TIP3    H218449   0.327   2.176   3.404  0.4135  0.5394 -0.3892
 6170TIP3   OH218450   0.215   0.263   3.932 -0.1315  0.2178 -0.3640
 6170TIP3    H118451   0.242   0.191   3.875  0.5832  1.5787 -1.8225
 6170TIP3    H218452   0.297   0.295   3.969 -0.1798  1.6015 -1.3918
 6171TIP3   OH218453   3.460   2.628   6.553 -0.8586 -0.0644  0.2199
 6171TIP3    H118454   3.408   2.565   6.503 -1.2178 -1.1757  1.8905
 6171TIP3    H218455   3.403   2.704   6.562 -1.5088 -0.5661  0.4672
 6172TIP3   OH218456   2.401   2.789   5.607  0.6107 -0.5642  0.4135
 6172TIP3    H118457   2.468   2.855   5.590 -1.4534  1.6812  0.4506
 6172TIP3    H218458   2.437   2.735   5.677  1.2449  2.3969  2.5448
 6173TIP3   OH218459   4.370   0.196   5.836 -0.2931 -0.4476  0.0628
 6173TIP3    H118460   4.287   0.157   5.864  0.5841 -2.1076  0.4531
 6173TIP3    H218461   4.345   0.281   5.799 -1.9000  0.3837  2.7200
 6174TIP3   OH218462   2.367   5.412   5.483 -0.2408 -0.9746 -0.1948
 6174TIP3    H118463   2.347   5.323   5.456  0.4744 -1.3351  0.4045
 6174TIP3    H218464   2.405   5.453   5.405 -0.0854 -1.3616 -0.3270
 6175TIP3   OH218465   6.007   4.905   3.384  0.3041  0.1861  0.0943
 6175TIP3    H118466   5.992   4.983   3.332  0.5496 -0.1783 -0.5366
 6175TIP3    H218467   6.075   4.930   3.447  1.3325  0.1171 -0.9628
 6176TIP3   OH218468   4.421   5.858   3.507 -0.0415  0.3581  0.3563
 6176TIP3    H118469   4.472   5.778   3.494  0.0472  0.5141 -0.2830
 6176TIP3    H218470   4.343   5.829   3.555  1.5192  0.4158  3.1681
 6177TIP3   OH218471   7.179   3.290   2.423  0.0319 -0.6029 -0.6902
 6177TIP3    H118472   7.247   3.230   2.390  1.3921  0.4584  0.0942
 6177TIP3    H218473   7.206   3.311   2.512 -1.2352  0.0023 -0.4282
 6178TIP3   OH218474   2.482   4.676   2.549  0.2191 -0.5230  0.4753
 6178TIP3    H118475   2.448   4.642   2.632 -4.0057 -1.3490 -1.2982
 6178TIP3    H218476   2.430   4.755   2.533  0.7416 -0.5224 -1.4523
 6179TIP3   OH218477   2.929   7.058   6.764 -0.1282 -0.3683 -0.0835
 6179TIP3    H118478   2.910   6.966   6.781  1.0589 -0.6110  0.0504
 6179TIP3    H218479   2.922   7.066   6.669  1.9824 -1.1910 -0.3839
 6180TIP3   OH218480   4.527   6.189   1.964  0.2660  0.1718 -0.3348
 6180TIP3    H118481   4.586   6.120   1.992  0.4393  0.6494  0.5082
 6180TIP3    H218482   4.582   6.251   1.917  0.0232 -0.4924 -1.5307
 6181TIP3   OH218483   1.650   5.306   6.621  0.1401  0.2094 -0.1740
 6181TIP3    H118484   1.624   5.233   6.565  0.0283  0.8836 -1.0157
 6181TIP3    H218485   1.697   5.264   6.693 -0.2376 -0.7260 -0.4456
 6182TIP3   OH218486   5.626   2.153   5.566 -0.2512 -0.4263 -0.2176
 6182TIP3    H118487   5.593   2.189   5.484 -0.0179 -1.7113 -0.8892
 6182TIP3    H218488   5.651   2.230   5.617 -1.8355  0.4646 -0.7118
 6183TIP3   OH218489   5.475   7.717   2.815  0.1604  0.3201 -0.1691
 6183TIP3    H118490   5.421   7.649   2.775  0.2081 -0.5130  1.1347
 6183TIP3    H218491   5.447   7.798   2.772 -1.1865 -0.2683 -0.4552
 6184TIP3   OH218492   7.931   1.901   1.640  0.0979  0.0639  0.1147
 6184TIP3    H118493   8.012   1.849   1.640  0.2768  0.3270  0.5231
 6184TIP3    H218494   7.921   1.928   1.732 -0.6653 -0.2840  0.1426
 6185TIP3   OH218495   0.402   1.174   4.020 -0.1012  0.7179  0.0188
 6185TIP3    H118496   0.445   1.096   3.985  0.1053  1.1346 -0.6724
 6185TIP3    H218497   0.463   1.245   4.002  0.2314  0.8898  1.6753
 6186TIP3   OH218498   8.244   4.058   4.594 -0.3296  0.4507  0.3872
 6186TIP3    H118499   8.246   3.964   4.611  1.5216  0.3988  0.1708
 6186TIP3    H218500   8.315   4.072   4.531 -2.1434  1.6606 -1.5443
 6187TIP3   OH218501   5.941   4.756   2.284  0.2472 -0.3361 -0.0107
 6187TIP3    H118502   5.853   4.771   2.250 -0.4368  0.5336  1.9997
 6187TIP3    H218503   5.976   4.844   2.298  0.6449 -0.6481  1.0822
 6188TIP3   OH218504   7.449   1.987   1.574  0.9195 -0.0885 -0.0338
 6188TIP3    H118505   7.495   1.903   1.576  0.9101 -0.0848  0.5973
 6188TIP3    H218506   7.369   1.972   1.624 -0.2288 -0.3437 -1.8522
 6189TIP3   OH218507   8.238   2.725   3.606  0.1208 -0.1304 -0.3352
 6189TIP3    H118508   8.305   2.760   3.547  1.2701 -1.0557  0.3828
 6189TIP3    H218509   8.250   2.773   3.687  1.3296 -1.6887  0.4708
 6190TIP3   OH218510   6.983   0.978   6.600  0.3622 -0.6700  0.2129
 6190TIP3    H118511   6.923   1.000   6.530  0.8571  0.3250  0.0779
 6190TIP3    H218512   6.976   0.883   6.610  0.0029 -0.7721 -0.9119
 6191TIP3   OH218513   7.422   3.747   2.679 -0.0779 -0.0115  0.1928
 6191TIP3    H118514   7.486   3.698   2.627  0.1963  1.2260 -0.6955
 6191TIP3    H218515   7.363   3.785   2.614  0.0517  1.2763  0.8035
 6192TIP3   OH218516   2.873   0.196   5.879 -0.5316 -0.2190  0.0717
 6192TIP3    H118517   2.824   0.277   5.894 -1.5794 -0.6302 -0.9241
 6192TIP3    H218518   2.811   0.139   5.832  0.7903 -0.9031 -0.9158
 6193TIP3   OH218519   6.265   0.361   3.710 -0.0143 -0.0632  0.5420
 6193TIP3    H118520   6.355   0.329   3.705  0.1991  0.6502 -0.7165
 6193TIP3    H218521   6.271   0.454   3.686 -0.9766  0.2143  1.2924
 6194TIP3   OH218522   0.493   0.484   0.347  0.7923  0.0124 -0.4309
 6194TIP3    H118523   0.546   0.406   0.330  1.2736  0.1324  0.4790
 6194TIP3    H218524   0.547   0.538   0.404 -0.4108  0.0221  0.7402
 6195TIP3   OH218525   6.486   3.539   3.055 -0.3052  0.2750 -0.4257
 6195TIP3    H118526   6.571   3.520   3.016 -0.3306 -1.3981  0.2405
 6195TIP3    H218527   6.475   3.633   3.044  1.0112  0.3086 -1.7366
 6196TIP3   OH218528   1.303   0.698   6.712 -0.8302 -0.1462  0.1771
 6196TIP3    H118529   1.305   0.633   6.641  2.3692  0.4222 -0.4060
 6196TIP3    H218530   1.356   0.659   6.781 -0.5927  0.9829  0.6483
 6197TIP3   OH218531   1.600   1.520   1.827 -0.1299  0.0146 -0.6754
 6197TIP3    H118532   1.607   1.429   1.856 -0.0720  0.4528  0.7405
 6197TIP3    H218533   1.672   1.530   1.764 -0.7748 -1.1883 -1.6499
 6198TIP3   OH218534   5.635   6.652   0.912  0.1150 -0.2749 -0.4163
 6198TIP3    H118535   5.580   6.712   0.962  0.5444  0.7034 -1.0930
 6198TIP3    H218536   5.607   6.664   0.821  0.2189 -1.0972 -0.5686
 6199TIP3   OH218537   3.185   1.516   3.386  0.3688 -0.7069  0.0741
 6199TIP3    H118538   3.203   1.446   3.323 -0.7596  0.0634 -1.1606
 6199TIP3    H218539   3.269   1.531   3.430  1.3321 -0.9293 -1.5997
 6200TIP3   OH218540   2.201   2.372   0.390  0.4091  0.6731 -0.0854
 6200TIP3    H118541   2.135   2.311   0.357  1.2504  0.3848 -1.3115
 6200TIP3    H218542   2.207   2.352   0.483  0.3121 -0.7907 -0.3691
 6201TIP3   OH218543   2.999   0.813   1.398  0.2099 -0.0338 -0.1274
 6201TIP3    H118544   3.024   0.902   1.376  1.5256 -0.1278  0.8595
 6201TIP3    H218545   2.951   0.782   1.321 -1.3356  1.8892 -0.0229
 6202TIP3   OH218546   1.713   7.320   0.635 -0.1595  0.4550 -0.0196
 6202TIP3    H118547   1.777   7.383   0.601  0.2855 -0.3028 -0.6140
 6202TIP3    H218548   1.669   7.367   0.706  3.8585 -0.2764  3.3198
 6203TIP3   OH218549   4.810   3.940   4.647  0.0191  0.2743  0.3599
 6203TIP3    H118550   4.854   3.970   4.566  0.7655 -0.6030  0.4272
 6203TIP3    H218551   4.814   4.016   4.705 -1.8301  1.4156 -0.9157
 6204TIP3   OH218552   0.442   0.282   4.072  0.1495  0.4475  0.0546
 6204TIP3    H118553   0.404   0.241   4.150  0.0072 -2.6691 -1.5119
 6204TIP3    H218554   0.534   0.255   4.074  0.2703  0.8088 -0.5883
 6205TIP3   OH218555   1.387   1.162   3.622  0.1732 -0.2348  0.7858
 6205TIP3    H118556   1.332   1.183   3.697 -0.3401  0.1372  0.3182
 6205TIP3    H218557   1.475   1.189   3.648 -0.5507  3.5872 -0.1095
 6206TIP3   OH218558   5.196  -0.010   3.990 -0.0281  0.5899  0.0745
 6206TIP3    H118559   5.244   0.072   3.977  2.6302 -0.6540  1.1875
 6206TIP3    H218560   5.190  -0.020   4.085 -0.7890 -0.2389 -0.0467
 6207TIP3   OH218561   8.128   2.185   2.764 -0.1544  0.4064  0.3911
 6207TIP3    H118562   8.052   2.137   2.730 -0.5389  1.8032 -0.8703
 6207TIP3    H218563   8.090   2.251   2.822 -0.0061  1.5465 -0.7642
 6208TIP3   OH218564   1.915   7.344   0.188  0.2133  0.7366  0.1789
 6208TIP3    H118565   1.835   7.332   0.240 -0.7376  1.3919 -1.0682
 6208TIP3    H218566   1.936   7.256   0.158  1.3337  0.1812  2.3756
 6209TIP3   OH218567   0.988   7.428   0.502 -0.4593 -0.2181 -0.0107
 6209TIP3    H118568   1.070   7.382   0.485 -0.4041 -0.9181  1.9178
 6209TIP3    H218569   1.007   7.520   0.480  0.5006 -0.5349 -0.5649
 6210TIP3   OH218570   8.205   1.567   6.474 -0.3537 -0.0400 -0.5787
 6210TIP3    H118571   8.171   1.601   6.557 -0.8649 -0.2954 -0.6754
 6210TIP3    H218572   8.127   1.561   6.418 -0.3641 -1.7240 -0.4454
 6211TIP3   OH218573   7.370   4.211   0.103  0.1525  0.4209 -0.3195
 6211TIP3    H118574   7.372   4.115   0.105 -1.9384  0.3444  1.2425
 6211TIP3    H218575   7.450   4.235   0.057  0.2727 -2.0828 -1.6083
 6212TIP3   OH218576   3.295   4.182   5.971 -0.2154  0.6243  0.0354
 6212TIP3    H118577   3.271   4.091   5.952  0.2056  0.9493 -2.4559
 6212TIP3    H218578   3.390   4.181   5.977 -0.2029  0.9159 -0.0963
 6213TIP3   OH218579   7.427   3.281   4.216  0.1064  0.3507  0.0679
 6213TIP3    H118580   7.348   3.335   4.222 -0.0603  0.0024  1.2176
 6213TIP3    H218581   7.473   3.296   4.298 -0.4905 -2.0640  0.9463
 6214TIP3   OH218582   5.586   1.916   2.233 -0.1063  0.0660 -0.4076
 6214TIP3    H118583   5.656   1.980   2.221  1.4554 -0.9598  2.1856
 6214TIP3    H218584   5.631   1.831   2.230 -1.2493 -0.6402  0.9976
 6215TIP3   OH218585   0.686   4.214   3.285  0.5529 -0.1499 -0.4647
 6215TIP3    H118586   0.684   4.299   3.241  0.8169  0.2346  0.2466
 6215TIP3    H218587   0.635   4.227   3.365 -0.4108 -1.0024 -0.9196
 6216TIP3   OH218588   8.171   1.657   5.770  0.1829 -0.5977  0.0098
 6216TIP3    H118589   8.142   1.632   5.683 -0.6517 -1.3125  0.4749
 6216TIP3    H218590   8.123   1.599   5.829  1.6025 -0.9407  0.8898
 6217TIP3   OH218591   8.222   5.213   2.433  0.4845 -1.0867  0.2034
 6217TIP3    H118592   8.142   5.164   2.414  0.0426 -0.9955  1.6809
 6217TIP3    H218593   8.287   5.146   2.455  0.7899 -1.1513 -0.8350
 6218TIP3   OH218594   3.808   4.080   5.480 -0.0840  0.5814  0.9457
 6218TIP3    H118595   3.820   4.004   5.536 -1.2655  0.3577  0.9346
 6218TIP3    H218596   3.889   4.085   5.429 -0.4046 -1.3678  0.1328
 6219TIP3   OH218597   3.484   0.316   1.529  0.2842  0.5381  0.2228
 6219TIP3    H118598   3.415   0.310   1.463 -0.5559  0.6844  1.0586
 6219TIP3    H218599   3.525   0.229   1.529  0.6899  0.7064 -0.8745
 6220TIP3   OH218600   2.071   7.075   4.580  0.0045 -0.2898 -0.7311
 6220TIP3    H118601   2.048   6.992   4.623 -0.2867  0.0977 -0.1241
 6220TIP3    H218602   1.987   7.121   4.570  0.2940  0.4220 -0.0081
 6221TIP3   OH218603   1.435   4.666   0.416  0.2544  0.8625  0.1817
 6221TIP3    H118604   1.453   4.582   0.372  0.7894  0.4276  1.2017
 6221TIP3    H218605   1.469   4.732   0.356 -0.1657  0.3572 -0.6349
 6222TIP3   OH218606   8.316   2.116   2.233 -0.2400 -0.4329  0.5072
 6222TIP3    H118607   8.312   2.180   2.304 -0.6504  3.0664 -2.3770
 6222TIP3    H218608   8.264   2.042   2.264  0.4365  0.4542  4.1544
 6223TIP3   OH218609   5.671   3.756   2.534 -0.2838 -0.2617 -0.7850
 6223TIP3    H118610   5.591   3.785   2.576 -0.3028 -0.9984 -0.2809
 6223TIP3    H218611   5.653   3.763   2.441 -0.4738  0.7833 -0.6828
 6224TIP3   OH218612   2.685   7.035   0.376  0.0999 -0.2788 -0.3600
 6224TIP3    H118613   2.686   7.126   0.345 -2.0517  0.0232  0.3179
 6224TIP3    H218614   2.768   7.025   0.423 -0.6615  2.1949  1.7606
 6225TIP3   OH218615   4.964   0.885   6.303 -0.0731  0.1022 -0.4577
 6225TIP3    H118616   5.059   0.878   6.308 -0.0002  0.3471 -1.3491
 6225TIP3    H218617   4.945   0.969   6.345  0.1361  0.1885 -0.5302
 6226TIP3   OH218618   6.066   0.560   6.552 -0.4641 -0.6657 -0.4031
 6226TIP3    H118619   6.004   0.493   6.522  1.0451 -1.4820 -1.8782
 6226TIP3    H218620   6.132   0.512   6.601 -0.4879  0.0757  0.3881
 6227TIP3   OH218621   0.276   0.061   3.760  0.7112  0.3689  0.0534
 6227TIP3    H118622   0.341   0.111   3.712  1.2427 -0.9871 -0.6995
 6227TIP3    H218623   0.312  -0.028   3.763 -1.2069 -0.4773 -0.6052
 6228TIP3   OH218624   7.872   2.110   3.841 -0.1237  0.0371 -0.3473
 6228TIP3    H118625   7.881   2.039   3.777 -0.1013  0.5743 -0.9569
 6228TIP3    H218626   7.937   2.090   3.908 -1.9389 -1.9746  0.9183
 6229TIP3   OH218627   5.335   3.432   3.536  0.4389 -0.7655  0.1707
 6229TIP3    H118628   5.352   3.396   3.449  1.5355  0.4637 -0.1517
 6229TIP3    H218629   5.264   3.377   3.571  3.0784 -4.3789  0.4298
 6230TIP3   OH218630   2.471   0.906   0.283 -0.4413  0.8526  0.1268
 6230TIP3    H118631   2.426   0.842   0.338  0.8785  0.2081  0.4806
 6230TIP3    H218632   2.483   0.861   0.199  0.0695  0.8062  0.2234
 6231TIP3   OH218633   2.444   2.528   1.639 -0.4865 -0.1310  0.3716
 6231TIP3    H118634   2.521   2.515   1.584 -0.0160 -2.8148  1.4511
 6231TIP3    H218635   2.475   2.505   1.727 -2.2180 -0.1117  1.0172
 6232TIP3   OH218636   1.332   1.108   1.434  0.2527  0.0785  0.1951
 6232TIP3    H118637   1.261   1.158   1.395 -1.9758 -2.2977  0.8996
 6232TIP3    H218638   1.357   1.158   1.512 -0.1705  1.2728 -0.4134
 6233TIP3   OH218639   1.956   4.062   2.839  0.6556 -0.0915 -0.6147
 6233TIP3    H118640   1.930   3.981   2.796  1.4449 -0.3087 -0.7091
 6233TIP3    H218641   1.887   4.080   2.903 -1.1063  0.7732 -2.6109
 6234TIP3   OH218642   6.498   6.780   5.016 -0.1186 -0.5557  0.4647
 6234TIP3    H118643   6.513   6.852   5.077 -0.3589 -1.0013  1.0542
 6234TIP3    H218644   6.559   6.797   4.944  1.3917 -0.9278  1.6168
 6235TIP3   OH218645   0.288   5.948   1.386 -0.0208 -0.0127  0.0263
 6235TIP3    H118646   0.213   5.890   1.394  1.0189 -1.2749  0.8327
 6235TIP3    H218647   0.344   5.906   1.320  0.5608  0.2652  0.3369
 6236TIP3   OH218648   4.745   1.803   0.321 -0.0760 -0.0094  0.2542
 6236TIP3    H118649   4.746   1.897   0.303  1.3283 -0.2451 -1.1885
 6236TIP3    H218650   4.684   1.766   0.256 -1.1685 -0.0404  1.2752
 6237TIP3   OH218651   7.583   7.500   0.419 -0.4724 -0.2691 -0.4188
 6237TIP3    H118652   7.556   7.546   0.339  1.2773 -1.3405 -1.7155
 6237TIP3    H218653   7.617   7.569   0.476  1.1818  0.2618 -1.9289
 6238TIP3   OH218654   0.239   5.643   0.759 -0.3815  0.1729 -0.6108
 6238TIP3    H118655   0.220   5.624   0.851 -1.2768 -0.4114 -0.9092
 6238TIP3    H218656   0.244   5.558   0.717 -3.8349  0.4188 -1.8409
 6239TIP3   OH218657   6.309   6.165   4.265 -0.1172  0.0431 -0.6656
 6239TIP3    H118658   6.245   6.163   4.195 -2.0585 -1.6874  1.0083
 6239TIP3    H218659   6.380   6.108   4.235 -1.5862 -1.8569 -0.7340
 6240TIP3   OH218660   7.228   2.448   0.370 -0.6246 -0.0927 -0.2018
 6240TIP3    H118661   7.151   2.488   0.332  2.0613  3.8801 -2.1985
 6240TIP3    H218662   7.282   2.422   0.296 -0.1676 -3.5180  1.1090
 6241TIP3   OH218663   6.058   6.070   6.602  0.0911 -0.2240 -0.1679
 6241TIP3    H118664   6.061   6.104   6.691  1.6837  2.0118 -0.9754
 6241TIP3    H218665   6.129   6.006   6.598  0.0400 -0.3003  0.1569
 6242TIP3   OH218666   4.188   1.316   1.207  0.6077  0.8467 -0.4444
 6242TIP3    H118667   4.173   1.287   1.117 -1.2463 -0.3612  0.1975
 6242TIP3    H218668   4.235   1.398   1.198 -1.2797  1.8037 -2.5989
 6243TIP3   OH218669   5.348   4.495   1.544 -0.7543  0.1316  0.3567
 6243TIP3    H118670   5.335   4.401   1.531 -1.5264 -0.0279  2.0680
 6243TIP3    H218671   5.294   4.536   1.476 -1.0046 -0.6496  0.0760
 6244TIP3   OH218672   1.143   7.194   1.287 -0.5779  0.0812  0.4385
 6244TIP3    H118673   1.129   7.099   1.286  0.2677 -0.0533 -0.7859
 6244TIP3    H218674   1.060   7.229   1.320  0.0266 -1.1666  3.6525
 6245TIP3   OH218675   7.608   1.584   3.126 -0.0276 -0.2307 -0.3700
 6245TIP3    H118676   7.692   1.607   3.087 -0.2824 -1.1071 -1.4891
 6245TIP3    H218677   7.590   1.655   3.187  0.8688  0.6723 -1.1222
 6246TIP3   OH218678   8.242   0.802   6.144  0.6542 -0.3483  0.0301
 6246TIP3    H118679   8.225   0.847   6.227 -0.0781 -0.9750  0.2303
 6246TIP3    H218680   8.171   0.829   6.086  1.7388  0.9229 -0.7636
 6247TIP3   OH218681   3.104   0.461   5.104  0.0789 -0.0719 -1.2227
 6247TIP3    H118682   3.186   0.443   5.058  0.9373  2.1548 -0.6862
 6247TIP3    H218683   3.102   0.398   5.176  2.5293  1.2109  0.1154
 6248TIP3   OH218684   1.691   4.247   0.710  0.1535 -0.0588  0.1655
 6248TIP3    H118685   1.642   4.198   0.644  0.6080 -0.5182  0.1664
 6248TIP3    H218686   1.652   4.335   0.708  0.7123  0.2019 -1.3277
 6249TIP3   OH218687   7.319   2.210   3.620  0.1728  0.5949  0.2563
 6249TIP3    H118688   7.385   2.264   3.577 -0.3479  1.2742  0.2889
 6249TIP3    H218689   7.281   2.267   3.686  1.4400 -0.6471  2.1414
 6250TIP3   OH218690   2.861   6.069   0.213 -0.2664  0.0069 -0.2074
 6250TIP3    H118691   2.889   6.020   0.290 -1.2554 -0.4743 -0.1507
 6250TIP3    H218692   2.916   6.035   0.141 -0.4913 -0.7176 -0.0424
 6251TIP3   OH218693   1.785   5.948   6.005 -0.3339 -0.0363 -0.3691
 6251TIP3    H118694   1.776   6.043   5.996  0.6179  0.0259 -0.7573
 6251TIP3    H218695   1.715   5.912   5.951 -0.3022  0.4402 -0.7338
 6252TIP3   OH218696   1.795   7.044   6.219  0.1287 -0.1951 -0.1035
 6252TIP3    H118697   1.706   7.023   6.192 -0.0373 -0.0467  0.3191
 6252TIP3    H218698   1.839   7.071   6.138 -0.0598 -0.7672 -0.4026
 6253TIP3   OH218699   4.394   7.580   0.889  0.2214  0.0618  0.1208
 6253TIP3    H118700   4.455   7.533   0.945  2.6135  2.6285 -0.0899
 6253TIP3    H218701   4.337   7.627   0.950  0.9590  0.6159  0.3947
 6254TIP3   OH218702   1.942   0.313   3.539 -0.1637  0.3061  0.0764
 6254TIP3    H118703   1.961   0.402   3.509 -1.0735  0.4054 -0.2595
 6254TIP3    H218704   2.027   0.270   3.542  0.2686  1.1324  0.0596
 6255TIP3   OH218705   3.753   5.817   5.819 -0.2588 -0.1996  0.2209
 6255TIP3    H118706   3.753   5.871   5.898 -0.3861  0.1200  0.0048
 6255TIP3    H218707   3.775   5.878   5.749 -1.1360 -0.2679 -0.1308
 6256TIP3   OH218708   6.698   1.883   1.396 -0.1020  0.0940  0.4433
 6256TIP3    H118709   6.688   1.962   1.450 -1.8168  0.2987 -0.0969
 6256TIP3    H218710   6.640   1.819   1.437  2.9444 -1.7525  2.2395
 6257TIP3   OH218711   6.566   1.575   1.893  0.3640 -0.1418 -0.1604
 6257TIP3    H118712   6.533   1.660   1.864 -1.6272 -1.3972 -1.8492
 6257TIP3    H218713   6.513   1.511   1.845  2.7170 -2.3552 -0.0119
 6258TIP3   OH218714   0.861   1.171   0.145 -0.2412  0.4203 -0.1592
 6258TIP3    H118715   0.851   1.184   0.051  3.3789  1.3164 -0.5737
 6258TIP3    H218716   0.917   1.244   0.173 -0.6786 -0.1929  2.5802
 6259TIP3   OH218717   0.487   1.061   6.575  0.1237  0.4654  0.2311
 6259TIP3    H118718   0.395   1.087   6.574  0.4499  1.6831 -1.5394
 6259TIP3    H218719   0.489   0.978   6.527  0.0948  1.0255 -0.7487
 6260TIP3   OH218720   3.109   2.796   4.964 -0.6183  0.3579 -0.0405
 6260TIP3    H118721   3.100   2.715   5.014  0.4724  0.3248  0.1316
 6260TIP3    H218722   3.024   2.838   4.971 -1.5658 -1.3015 -1.0755
 6261TIP3   OH218723   6.360   4.715   3.058  0.2949  0.2287 -0.1196
 6261TIP3    H118724   6.418   4.644   3.088  1.0790  0.9393  0.0974
 6261TIP3    H218725   6.293   4.722   3.126  0.6305  0.1739  0.2202
 6262TIP3   OH218726   6.912   3.592   0.018 -0.1779 -0.6352  0.1048
 6262TIP3    H118727   6.891   3.618   0.108 -0.5383 -1.2656  0.2118
 6262TIP3    H218728   6.942   3.501   0.026  1.7912 -0.0600 -0.1570
 6263TIP3   OH218729   4.624   7.577   2.471 -0.4566 -0.1394  0.0541
 6263TIP3    H118730   4.532   7.570   2.445 -0.3773  1.3650 -0.6750
 6263TIP3    H218731   4.673   7.545   2.396 -0.3174  1.6487 -0.6535
 6264TIP3   OH218732   4.428   3.101   3.978 -0.5646  0.0951  0.3735
 6264TIP3    H118733   4.470   3.035   4.032 -1.4697  0.1898  1.1983
 6264TIP3    H218734   4.339   3.069   3.963 -0.1450 -0.2796 -1.6735
 6265TIP3   OH218735   8.227   4.237   1.879  0.2878  0.0531  0.0166
 6265TIP3    H118736   8.173   4.306   1.840 -1.3863 -1.6875 -0.9143
 6265TIP3    H218737   8.285   4.209   1.808  0.7324  0.2815  0.2906
 6266TIP3   OH218738   3.720   5.116   2.542  0.0844  0.1729  0.0589
 6266TIP3    H118739   3.769   5.196   2.560  1.7837 -1.0031  0.9503
 6266TIP3    H218740   3.676   5.096   2.624  0.7755 -0.5110  0.2780
 6267TIP3   OH218741   3.576   0.264   3.635  0.0434 -0.2312  0.7421
 6267TIP3    H118742   3.667   0.273   3.607  0.4656  0.1366  2.1298
 6267TIP3    H218743   3.570   0.174   3.667  0.2867  0.0981  1.7764
 6268TIP3   OH218744   5.962   0.284   0.599 -0.4891  0.3537  0.4014
 6268TIP3    H118745   5.915   0.260   0.519  1.8179 -1.0407 -0.6267
 6268TIP3    H218746   6.054   0.283   0.575  0.3356 -0.5867  3.1723
 6269TIP3   OH218747   3.791   7.830   5.433 -0.1939  0.1258  0.0081
 6269TIP3    H118748   3.722   7.791   5.379 -0.0486 -1.5986  1.0086
 6269TIP3    H218749   3.860   7.764   5.436  0.6119  0.9618  0.7708
 6270TIP3   OH218750   8.260   1.262   3.810 -0.3503 -0.4898  0.1020
 6270TIP3    H118751   8.290   1.175   3.782 -1.9333 -1.2560  0.6880
 6270TIP3    H218752   8.271   1.262   3.905  0.2183  0.1963  0.0425
 6271TIP3   OH218753   8.336   6.255   1.944 -0.0499  0.1387  0.0139
 6271TIP3    H118754   8.264   6.316   1.935  0.2630  0.8257  1.8146
 6271TIP3    H218755   8.406   6.305   1.986  1.0127 -0.8666 -0.4676
 6272TIP3   OH218756   2.558   2.397   4.849 -0.1566  0.0898  0.0021
 6272TIP3    H118757   2.479   2.440   4.815 -1.0047 -1.2537  0.2136
 6272TIP3    H218758   2.533   2.306   4.859  0.8611 -0.0256  1.8602
 6273TIP3   OH218759   7.812   2.233   1.916  0.3222  0.1294 -0.2417
 6273TIP3    H118760   7.748   2.265   1.979  0.5645 -0.4710  0.3226
 6273TIP3    H218761   7.760   2.202   1.842  0.1171  2.8361 -1.3274
 6274TIP3   OH218762   3.235   3.255   2.015 -0.0747  0.9067  0.5282
 6274TIP3    H118763   3.163   3.241   1.953 -1.6317 -1.3891  2.6511
 6274TIP3    H218764   3.197   3.309   2.084  1.1868  2.1733  0.2725
 6275TIP3   OH218765   1.720   0.689   3.608 -0.1046  0.0545  0.0053
 6275TIP3    H118766   1.659   0.762   3.598  0.0273  0.1595 -0.0336
 6275TIP3    H218767   1.768   0.686   3.525  0.5455  0.5194  0.3598
 6276TIP3   OH218768   2.157   5.240   0.545 -0.4103  0.1425  0.1414
 6276TIP3    H118769   2.194   5.302   0.483 -1.3837  0.2371 -0.3483
 6276TIP3    H218770   2.160   5.286   0.629  0.9211  0.0065  0.1983
 6277TIP3   OH218771   7.881   7.213   1.974  0.6520 -0.2953  0.2822
 6277TIP3    H118772   7.938   7.191   1.901 -1.4653 -3.0944 -0.6978
 6277TIP3    H218773   7.913   7.159   2.046  1.0261  0.4122  0.6690
 6278TIP3   OH218774   7.684   3.100   1.900 -0.1430  0.3743 -0.1561
 6278TIP3    H118775   7.683   3.083   1.994  1.3093  2.0811  0.2222
 6278TIP3    H218776   7.775   3.092   1.875 -0.7273 -1.9457 -1.8704
 6279TIP3   OH218777   7.416   2.522   5.548  0.2612  0.1017 -0.3578
 6279TIP3    H118778   7.361   2.581   5.496  0.1668 -0.7769 -1.3105
 6279TIP3    H218779   7.409   2.554   5.637  1.7292  2.6847 -1.0627
 6280TIP3   OH218780   5.830   1.212   1.865  0.1060 -0.1444  0.4247
 6280TIP3    H118781   5.862   1.163   1.941  1.2736 -1.2505 -0.7386
 6280TIP3    H218782   5.735   1.197   1.865  0.2373 -1.0198  1.0417
 6281TIP3   OH218783   4.977   5.875   6.517  0.5563  0.1332 -0.1616
 6281TIP3    H118784   4.901   5.909   6.565  1.1178  0.1437  0.7429
 6281TIP3    H218785   4.942   5.850   6.432 -0.2562  1.1486 -0.1548
 6282TIP3   OH218786   7.489   3.852   2.306 -0.0693 -0.0378 -0.6150
 6282TIP3    H118787   7.513   3.933   2.260 -1.3164  0.7403  0.0548
 6282TIP3    H218788   7.565   3.833   2.362 -0.2629  1.4263  0.2062
 6283TIP3   OH218789   8.048   4.023   1.879 -0.6196  0.2513  0.2179
 6283TIP3    H118790   8.135   4.062   1.866 -0.1216 -0.8159  0.2632
 6283TIP3    H218791   7.999   4.049   1.800 -0.3587  1.0774  0.3135
 6284TIP3   OH218792   7.545   6.066   1.902 -0.4102 -0.1952 -0.1489
 6284TIP3    H118793   7.636   6.090   1.883 -0.6327 -0.5689 -1.8809
 6284TIP3    H218794   7.546   5.970   1.902 -1.0333 -0.2323 -1.6263
 6285TIP3   OH218795   7.587   4.784   1.985 -0.1761  0.4972  0.4372
 6285TIP3    H118796   7.614   4.713   1.926  1.0068  0.3975  1.0731
 6285TIP3    H218797   7.665   4.839   1.993 -1.0030  1.7482  0.1650
 6286TIP3   OH218798   5.681   6.051   1.667  0.5359 -0.0920 -0.1056
 6286TIP3    H118799   5.670   6.038   1.762  0.0637  2.2616  0.2110
 6286TIP3    H218800   5.604   6.100   1.640  0.4688 -1.0726 -1.8399
 6287TIP3   OH218801   1.539   5.477   4.682  0.4511  0.7142 -0.1682
 6287TIP3    H118802   1.629   5.469   4.714 -0.1878 -1.1866  1.3008
 6287TIP3    H218803   1.517   5.389   4.651 -1.1054  1.0076  0.0570
 6288TIP3   OH218804   2.442   2.391   6.137 -0.3251  0.0982  0.0867
 6288TIP3    H118805   2.473   2.465   6.189 -1.7126 -0.1762  1.3684
 6288TIP3    H218806   2.449   2.316   6.196  0.2759 -0.6614 -0.9204
 6289TIP3   OH218807   5.203   6.642   0.658  0.8585  0.0558  0.2514
 6289TIP3    H118808   5.241   6.579   0.597  1.1519  0.5008 -0.0320
 6289TIP3    H218809   5.276   6.666   0.716  0.5075 -0.6071  0.9932
 6290TIP3   OH218810   8.100   4.497   0.360 -0.3582  0.3158  0.6309
 6290TIP3    H118811   8.031   4.434   0.381 -0.1574 -0.1435 -0.0674
 6290TIP3    H218812   8.059   4.558   0.299  0.1477 -0.6039 -0.6689
 6291TIP3   OH218813   2.605   1.298   0.796 -0.1616 -0.1742 -0.2423
 6291TIP3    H118814   2.541   1.305   0.724  0.4443  0.2320 -0.7519
 6291TIP3    H218815   2.689   1.288   0.752  0.8344  4.1612  0.2121
 6292TIP3   OH218816   2.471   5.105   4.314  0.0450 -0.2694 -0.5547
 6292TIP3    H118817   2.515   5.051   4.249  1.1468  1.8078 -1.6553
 6292TIP3    H218818   2.397   5.052   4.343  1.3111 -2.5124 -1.1772
 6293TIP3   OH218819   0.887   3.813   3.055 -0.5677  0.1960  1.0386
 6293TIP3    H118820   0.816   3.877   3.052 -0.9325 -0.2260  0.5369
 6293TIP3    H218821   0.937   3.837   3.134 -0.8084  0.9728  0.9679
 6294TIP3   OH218822   6.557   4.090   2.639 -0.2614 -0.4122 -0.5484
 6294TIP3    H118823   6.535   4.129   2.554 -1.1535  1.7921  0.6002
 6294TIP3    H218824   6.640   4.045   2.624  0.3094  1.0843 -2.2977
 6295TIP3   OH218825   1.977   1.448   6.386  0.2097 -0.2267 -0.0804
 6295TIP3    H118826   2.033   1.376   6.358  1.0725 -0.1202  1.2443
 6295TIP3    H218827   1.909   1.453   6.320  0.1559 -2.2240 -0.2337
 6296TIP3   OH218828   7.349   6.591   3.348 -0.2078  0.1059  0.1436
 6296TIP3    H118829   7.432   6.636   3.333 -0.7484  1.3650  0.8143
 6296TIP3    H218830   7.364   6.537   3.425  0.1441 -0.1089 -0.0713
 6297TIP3   OH218831   6.391   6.247   5.886  0.4827  0.3757 -0.1441
 6297TIP3    H118832   6.399   6.187   5.812 -1.6246 -1.7066  1.1379
 6297TIP3    H218833   6.465   6.225   5.942  1.5270  1.2711 -1.1385
 6298TIP3   OH218834   7.786   6.093   2.939  0.2361  0.0393  0.3106
 6298TIP3    H118835   7.753   6.181   2.953 -0.4849 -0.1536 -0.1443
 6298TIP3    H218836   7.880   6.104   2.927  0.4650  0.5278  2.2646
 6299TIP3   OH218837   5.278   1.029   6.727 -0.1179 -0.5500  0.6889
 6299TIP3    H118838   5.293   1.110   6.776 -0.1561  0.3757 -0.7659
 6299TIP3    H218839   5.319   0.961   6.781  0.8128  0.5687  1.4542
 6300TIP3   OH218840   2.771   3.773   5.315  0.3076 -0.2026  0.3319
 6300TIP3    H118841   2.835   3.814   5.256 -0.3511 -0.2921 -0.4620
 6300TIP3    H218842   2.759   3.837   5.384 -0.6012  0.9189 -0.8222
 6301TIP3   OH218843   7.518   0.661   3.172  0.0667  0.2239  0.0496
 6301TIP3    H118844   7.542   0.606   3.097 -1.3459 -0.3708 -0.0048
 6301TIP3    H218845   7.574   0.738   3.164  1.1110 -0.5759 -0.6633
 6302TIP3   OH218846   2.875   7.112   1.984  0.1154  0.3407 -0.1937
 6302TIP3    H118847   2.838   7.122   2.071  2.3212  0.8865  0.7466
 6302TIP3    H218848   2.964   7.080   1.999  0.3204 -0.2158 -2.2851
 6303TIP3   OH218849   2.614   0.600   0.826 -0.2869 -0.3995 -0.1308
 6303TIP3    H118850   2.667   0.667   0.868  0.6578 -1.3947  0.3328
 6303TIP3    H218851   2.524   0.624   0.846 -0.0246  1.2133 -0.7455
 6304TIP3   OH218852   7.900   0.085   6.649  0.4160  0.0909  0.6855
 6304TIP3    H118853   7.987   0.079   6.608 -0.5356 -0.6799 -1.3397
 6304TIP3    H218854   7.917   0.073   6.743  2.5898  0.9031  0.4649
 6305TIP3   OH218855   5.316   7.173   4.231 -0.2800  0.0808  0.2422
 6305TIP3    H118856   5.329   7.241   4.298 -0.0030  0.4294 -0.1643
 6305TIP3    H218857   5.249   7.116   4.269 -0.2425  0.3650  0.7521
 6306TIP3   OH218858   7.390   3.020   3.161  0.4264 -0.1891 -0.0522
 6306TIP3    H118859   7.413   3.097   3.214 -3.3738  0.8999  0.3128
 6306TIP3    H218860   7.443   3.030   3.081  3.1171  0.4247  1.6642
 6307TIP3   OH218861   4.444   1.545   1.868  0.2393  0.0843 -0.1438
 6307TIP3    H118862   4.470   1.518   1.956  0.3690  0.8330  0.0552
 6307TIP3    H218863   4.349   1.555   1.873  0.1787 -0.4164 -0.2452
 6308TIP3   OH218864   6.042   0.566   3.737 -0.2614  0.1010  0.0500
 6308TIP3    H118865   5.981   0.493   3.735  0.4310 -0.5186  0.6238
 6308TIP3    H218866   6.002   0.634   3.682 -1.2620 -0.4296  0.1160
 6309TIP3   OH218867   4.549   4.596   6.629  0.1848  0.1912  0.3679
 6309TIP3    H118868   4.638   4.630   6.638  0.3170 -0.3177  1.0660
 6309TIP3    H218869   4.557   4.503   6.650 -0.4158  0.0197 -0.1408
 6310TIP3   OH218870   6.717   4.382   1.082  0.3781 -0.4866 -0.5343
 6310TIP3    H118871   6.810   4.362   1.072  0.4429 -0.0816 -0.7809
 6310TIP3    H218872   6.677   4.356   0.999  0.8040  2.2207 -1.7001
 6311TIP3   OH218873   1.163   6.836   5.499 -0.2815 -0.0661 -0.6372
 6311TIP3    H118874   1.210   6.899   5.554 -0.1314 -0.6288 -0.1122
 6311TIP3    H218875   1.116   6.780   5.562 -2.3090  0.9654 -1.1474
 6312TIP3   OH218876   4.089   7.305   0.247 -0.3651 -0.4998  0.1617
 6312TIP3    H118877   4.172   7.263   0.269 -0.4594 -0.7625  0.0093
 6312TIP3    H218878   4.024   7.257   0.298 -0.6004 -1.1705 -0.7607
 6313TIP3   OH218879   3.429   5.320   3.108 -0.5585  0.3209  0.3892
 6313TIP3    H118880   3.461   5.307   3.197  0.3087  0.0733  0.0520
 6313TIP3    H218881   3.467   5.403   3.081  0.1164 -0.1430 -0.1383
 6314TIP3   OH218882   5.374   5.888   6.377 -0.1483  0.1858 -0.1984
 6314TIP3    H118883   5.459   5.850   6.358  0.0417 -0.1615  1.2410
 6314TIP3    H218884   5.375   5.904   6.471 -1.2102  1.3518 -0.3554
 6315TIP3   OH218885   6.377   1.899   1.257  0.1015 -0.2360 -0.1783
 6315TIP3    H118886   6.299   1.933   1.214 -0.5614 -0.6616  0.6555
 6315TIP3    H218887   6.450   1.935   1.207 -0.6244 -1.3408 -2.1315
 6316TIP3   OH218888   7.629   3.435   6.159  0.0759 -0.0409 -0.6800
 6316TIP3    H118889   7.551   3.469   6.115  0.4886 -0.9134 -2.1372
 6316TIP3    H218890   7.668   3.375   6.096  1.7909  0.1682  0.1328
 6317TIP3   OH218891   2.098   0.617   0.933  0.1864 -0.5315 -0.1816
 6317TIP3    H118892   2.080   0.523   0.943  1.0747 -0.4172  3.6230
 6317TIP3    H218893   2.190   0.622   0.908  0.1344 -0.6259 -0.4018
 6318TIP3   OH218894   3.779   0.203   4.833  0.0081 -0.3029  0.5977
 6318TIP3    H118895   3.874   0.212   4.841  0.0522  0.1080 -0.2523
 6318TIP3    H218896   3.766   0.160   4.749 -0.4886 -2.4100  1.6759
 6319TIP3   OH218897   5.342   1.746   5.077  0.0999  0.4158  0.1831
 6319TIP3    H118898   5.381   1.801   5.145  0.3933  0.7628 -0.2551
 6319TIP3    H218899   5.392   1.768   4.998 -0.3924  0.1923 -0.1928
 6320TIP3   OH218900   3.205   3.638   1.532  0.2931  0.6542  0.4682
 6320TIP3    H118901   3.258   3.573   1.577 -1.0356 -0.5049  0.4091
 6320TIP3    H218902   3.210   3.613   1.439 -1.6681 -0.5188  0.6218
 6321TIP3   OH218903   1.998   1.471   0.868  0.3654  0.4365 -0.4812
 6321TIP3    H118904   2.024   1.477   0.961 -1.4029 -1.0535  0.1606
 6321TIP3    H218905   1.920   1.526   0.862  1.6713  2.2583 -1.6385
 6322TIP3   OH218906   7.175   2.884   1.799  0.0074 -0.4218  0.1280
 6322TIP3    H118907   7.102   2.824   1.782 -1.5559  1.4222  0.0396
 6322TIP3    H218908   7.135   2.971   1.799  2.0547  0.5788  1.1159
 6323TIP3   OH218909   4.433   1.534   3.844  0.0953  0.2519 -0.0800
 6323TIP3    H118910   4.514   1.561   3.887 -0.2501  0.2100  0.6121
 6323TIP3    H218911   4.430   1.439   3.856 -0.1414  0.2754  0.0538
 6324TIP3   OH218912   2.754   3.967   5.531  0.1150  0.0850 -0.0416
 6324TIP3    H118913   2.815   4.041   5.538  0.1293  0.1603 -0.8671
 6324TIP3    H218914   2.667   4.008   5.530 -0.2173 -0.1196  3.6757
 6325TIP3   OH218915   0.911   1.229   3.969 -0.0558  0.4913  0.3274
 6325TIP3    H118916   0.936   1.266   4.053  0.3071  0.4730  0.2298
 6325TIP3    H218917   0.993   1.224   3.920 -0.4937  2.1383 -0.6653
 6326TIP3   OH218918   6.242   3.063   3.966  0.3894  0.4243 -0.1988
 6326TIP3    H118919   6.301   3.064   4.041  0.1526  0.0832 -0.0050
 6326TIP3    H218920   6.191   3.144   3.974  0.8848  0.7594 -0.4123
 6327TIP3   OH218921   3.397   6.666   1.593 -0.2472 -0.3324  0.3865
 6327TIP3    H118922   3.451   6.710   1.528  1.6647 -1.5847  1.0519
 6327TIP3    H218923   3.425   6.702   1.677 -0.7090 -0.7314  0.7214
 6328TIP3   OH218924   2.813   7.388   3.356  0.5721 -0.0599  0.1289
 6328TIP3    H118925   2.886   7.332   3.383  0.8106 -0.1763 -0.7367
 6328TIP3    H218926   2.851   7.450   3.294  0.1500  0.5758  0.4898
 6329TIP3   OH218927   4.111   5.456   6.473 -0.0353  0.2192 -0.3190
 6329TIP3    H118928   4.116   5.384   6.536  0.8251 -1.5457 -2.2946
 6329TIP3    H218929   4.165   5.525   6.513 -1.2580  0.0217  1.8379
 6330TIP3   OH218930   0.325   1.398   5.989  0.2555 -0.6465 -0.8788
 6330TIP3    H118931   0.240   1.378   5.949  0.7029  0.0732 -2.2503
 6330TIP3    H218932   0.339   1.328   6.053 -1.9655 -0.0927  0.3359
 6331TIP3   OH218933   3.978   2.713   0.176  0.1929 -0.4437 -0.4024
 6331TIP3    H118934   3.914   2.644   0.158 -0.3168 -0.2466  0.6010
 6331TIP3    H218935   4.028   2.680   0.251 -1.8846  1.4240  1.9457
 6332TIP3   OH218936   6.307   3.972   3.352  0.3795  0.0688  0.4641
 6332TIP3    H118937   6.221   4.013   3.346 -0.0963 -1.0764 -1.7112
 6332TIP3    H218938   6.348   4.011   3.429 -1.6915  1.3704  0.9628
 6333TIP3   OH218939   1.751   5.617   0.440 -1.0012  0.3504  0.5108
 6333TIP3    H118940   1.666   5.616   0.397 -0.2892  0.9096 -0.9713
 6333TIP3    H218941   1.788   5.703   0.418  0.4757 -0.3794  0.0366
 6334TIP3   OH218942   1.694   1.444   1.406 -0.0737  0.0426  0.1418
 6334TIP3    H118943   1.661   1.503   1.338 -1.1497 -0.2136  0.4276
 6334TIP3    H218944   1.780   1.479   1.427  0.4672 -0.1144 -1.6379
 6335TIP3   OH218945   1.361   2.132   1.126 -0.3003 -0.0528 -0.0087
 6335TIP3    H118946   1.287   2.184   1.157 -0.6347 -0.7724  0.4412
 6335TIP3    H218947   1.421   2.130   1.201 -0.0819  0.0691 -0.1817
 6336TIP3   OH218948   7.019   4.725   1.205  0.3571 -0.0776  0.6148
 6336TIP3    H118949   7.022   4.776   1.285  1.8408  0.4717  0.2405
 6336TIP3    H218950   7.101   4.746   1.160 -0.1443 -0.8720 -0.7325
 6337TIP3   OH218951   0.426   3.825   4.493  0.3237  0.5630 -0.3236
 6337TIP3    H118952   0.339   3.809   4.530  0.9194 -2.9026 -0.0933
 6337TIP3    H218953   0.483   3.763   4.538  2.6465  1.6325 -1.6001
 6338TIP3   OH218954   7.594   2.184   2.857  0.0435 -0.4283  0.1970
 6338TIP3    H118955   7.593   2.106   2.912 -1.2713 -0.3065  0.3712
 6338TIP3    H218956   7.598   2.151   2.768  1.6086 -0.6359  0.3201
 6339TIP3   OH218957   4.653   4.350   6.749  0.7784  0.0960  0.1469
 6339TIP3    H118958   4.632   4.319   6.837  0.0161 -0.2068 -0.1342
 6339TIP3    H218959   4.640   4.274   6.693 -0.7557  0.7912 -0.5027
 6340TIP3   OH218960   6.746   0.643   6.511  0.0646 -0.3959  0.1731
 6340TIP3    H118961   6.668   0.682   6.471 -0.7305 -1.8873  0.2078
 6340TIP3    H218962   6.783   0.587   6.442  0.7646 -0.1730  0.3563
 6341TIP3   OH218963   0.044   0.665   3.140 -0.6570 -0.1724  0.4890
 6341TIP3    H118964   0.053   0.726   3.066 -1.2877  0.9642  1.3119
 6341TIP3    H218965   0.048   0.578   3.101  0.6689  0.3809 -0.6907
 6342TIP3   OH218966   5.775   6.601   2.590 -0.2279  0.2574  0.0966
 6342TIP3    H118967   5.797   6.586   2.682 -1.0103 -0.1936  0.2206
 6342TIP3    H218968   5.834   6.544   2.541  0.8643  1.2253  0.2578
 6343TIP3   OH218969   4.945   0.326   1.711 -0.3092  0.3409  1.0798
 6343TIP3    H118970   4.937   0.263   1.783  1.2032 -2.1276 -0.7465
 6343TIP3    H218971   4.904   0.283   1.636  0.7920  1.4843 -0.2414
 6344TIP3   OH218972   6.425   7.087   4.876 -0.2134 -0.1521  0.0814
 6344TIP3    H118973   6.368   7.036   4.934  1.4527 -1.4973  0.6042
 6344TIP3    H218974   6.384   7.174   4.873 -1.7301 -0.7781  1.2140
 6345TIP3   OH218975   3.265   1.354   3.674 -0.0646  0.0314  0.0830
 6345TIP3    H118976   3.294   1.348   3.765  0.7255  0.8411 -0.0939
 6345TIP3    H218977   3.284   1.268   3.637  3.6139  0.8840 -0.3985
 6346TIP3   OH218978   3.713   7.813   6.561 -0.0868  0.2824 -0.1560
 6346TIP3    H118979   3.770   7.836   6.487 -0.3636 -0.1072 -0.5021
 6346TIP3    H218980   3.770   7.763   6.620  0.2646  1.0182  0.1400
 6347TIP3   OH218981   7.111   2.506   2.557 -0.1468 -0.8993  0.2617
 6347TIP3    H118982   7.115   2.456   2.475 -2.3999  0.3134 -0.6724
 6347TIP3    H218983   7.088   2.440   2.623  2.0330 -1.9552  0.0742
 6348TIP3   OH218984   5.202   7.176   6.629  0.0931  0.4325 -0.0830
 6348TIP3    H118985   5.145   7.156   6.704 -1.3045  2.1686 -0.6224
 6348TIP3    H218986   5.210   7.271   6.630  0.0954  0.4791 -2.1191
 6349TIP3   OH218987   6.809   7.752   1.663  0.2776 -0.2593 -0.1622
 6349TIP3    H118988   6.729   7.804   1.658  0.6709  0.2416 -2.3570
 6349TIP3    H218989   6.864   7.786   1.592  1.5159 -2.1101 -0.1599
 6350TIP3   OH218990   6.367   1.909   4.886  0.2380 -0.2917  0.1169
 6350TIP3    H118991   6.393   1.958   4.808  0.2839  1.3334  1.1106
 6350TIP3    H218992   6.276   1.935   4.902  0.2531 -0.5411  0.6386
 6351TIP3   OH218993   3.199   1.605   1.024  0.1290 -0.5538 -0.4648
 6351TIP3    H118994   3.114   1.563   1.040  0.4890 -0.8079  0.9557
 6351TIP3    H218995   3.179   1.699   1.021  0.0801 -0.3269  2.7697
 6352TIP3   OH218996   2.730   7.884   6.436  0.0232 -0.2909  0.2124
 6352TIP3    H118997   2.730   7.790   6.451  1.5248 -0.2367  0.7520
 6352TIP3    H218998   2.663   7.898   6.370 -0.5832 -1.6668  0.4986
 6353TIP3   OH218999   1.326   1.587   5.073  0.2489  0.6050 -0.2357
 6353TIP3    H119000   1.267   1.612   5.144  1.1608 -0.8456  1.0969
 6353TIP3    H219001   1.277   1.607   4.993 -1.4327  0.8220  0.8075
 6354TIP3   OH219002   6.462   6.827   3.434 -0.3429  0.1384 -0.0893
 6354TIP3    H119003   6.415   6.751   3.468 -1.8019  1.1390  0.2195
 6354TIP3    H219004   6.456   6.819   3.339  1.0243 -1.0078 -0.1203
 6355TIP3   OH219005   1.935   0.463   2.421 -0.2546  1.0050  0.0661
 6355TIP3    H119006   1.933   0.401   2.493 -1.8393  1.0086  0.0609
 6355TIP3    H219007   1.856   0.442   2.369  0.3889  1.5558 -1.1794
 6356TIP3   OH219008   3.120   5.100   6.280  0.3063 -0.0432  0.4411
 6356TIP3    H119009   3.198   5.046   6.285  0.1574 -0.1897  1.3735
 6356TIP3    H219010   3.051   5.047   6.321 -0.9121 -0.9714 -2.5234
 6357TIP3   OH219011   2.519   2.098   2.557  0.0466 -0.5979  0.7933
 6357TIP3    H119012   2.606   2.109   2.520 -0.3252  0.0770  0.0940
 6357TIP3    H219013   2.531   2.111   2.651  0.4627  1.0582  0.5450
 6358TIP3   OH219014   1.579   3.854   4.303  0.0383  0.1928  0.2803
 6358TIP3    H119015   1.540   3.902   4.375 -1.2330 -1.8465  1.0153
 6358TIP3    H219016   1.507   3.804   4.265  0.6496  1.2253 -2.4836
 6359TIP3   OH219017   2.269   1.330   1.523  0.4465 -0.0037 -0.1732
 6359TIP3    H119018   2.207   1.269   1.563  0.9775 -1.2724 -1.1893
 6359TIP3    H219019   2.315   1.370   1.596 -0.8883  0.2282  0.5656
 6360TIP3   OH219020   2.354   1.394   5.751 -0.0608  0.0898 -0.3339
 6360TIP3    H119021   2.379   1.415   5.661  0.4321 -0.0465 -0.2340
 6360TIP3    H219022   2.258   1.397   5.752 -0.0340  1.9255 -0.4289
 6361TIP3   OH219023   1.038   1.900   6.016  0.1955 -0.7778 -0.3001
 6361TIP3    H119024   1.003   1.820   5.978 -0.1011 -0.1071 -1.5047
 6361TIP3    H219025   1.053   1.958   5.941 -0.1070  0.4907  0.5743
 6362TIP3   OH219026   7.021   0.009   2.993 -0.4842 -0.0331  0.1490
 6362TIP3    H119027   7.100  -0.021   2.948 -0.5323  1.4771 -1.0368
 6362TIP3    H219028   7.050   0.084   3.045 -1.0766  0.4000 -0.1264
 6363TIP3   OH219029   3.987   0.998   6.066 -0.3215 -0.7282  0.6247
 6363TIP3    H119030   3.929   1.009   5.990  1.0106 -2.7236 -0.8138
 6363TIP3    H219031   4.011   1.087   6.091 -0.8841  0.0087 -1.2547
 6364TIP3   OH219032   6.751   6.436   1.363 -0.4005 -0.5267  0.4668
 6364TIP3    H119033   6.744   6.380   1.440 -2.0048 -0.4769  0.3841
 6364TIP3    H219034   6.686   6.402   1.301  0.2998 -0.0753 -0.5624
 6365TIP3   OH219035   5.197   5.366   4.005  0.3294 -1.0831 -0.5313
 6365TIP3    H119036   5.243   5.354   3.921 -0.1985 -2.4187 -0.6562
 6365TIP3    H219037   5.267   5.381   4.068  0.8396 -1.5705 -0.9669
 6366TIP3   OH219038   6.205   1.615   2.528  0.4441 -0.7469  0.1373
 6366TIP3    H119039   6.179   1.534   2.570  2.1056 -0.8058  1.1347
 6366TIP3    H219040   6.253   1.588   2.450  1.3434 -0.7598  0.6804
 6367TIP3   OH219041   7.481   3.579   5.968  0.4980  0.1558 -0.0462
 6367TIP3    H119042   7.520   3.659   5.934 -1.3873  1.6770  1.1624
 6367TIP3    H219043   7.394   3.576   5.928 -0.7246  0.5396  2.4157
 6368TIP3   OH219044   1.794   1.736   0.663  0.0042 -0.6381  0.8316
 6368TIP3    H119045   1.716   1.755   0.716 -1.4298 -0.3328 -1.2644
 6368TIP3    H219046   1.829   1.822   0.641 -0.5209 -0.6808 -0.2328
 6369TIP3   OH219047   0.078   0.646   2.354  0.1900  0.2148 -0.1345
 6369TIP3    H119048   0.036   0.685   2.431  0.6950  1.3910 -0.4442
 6369TIP3    H219049   0.088   0.553   2.378 -1.0191  0.2546  0.6109
 6370TIP3   OH219050   4.394   0.543   2.973 -0.0632  0.1349  0.2198
 6370TIP3    H119051   4.443   0.619   2.940 -0.9383  1.4741  1.8551
 6370TIP3    H219052   4.335   0.579   3.039 -1.5279 -1.7820  0.0529
 6371TIP3   OH219053   1.141   7.205   0.876  0.4651 -0.1553  0.0472
 6371TIP3    H119054   1.106   7.118   0.898 -0.0078  0.0884  0.2966
 6371TIP3    H219055   1.118   7.217   0.784  0.2422 -0.1622  0.1008
 6372TIP3   OH219056   6.973   6.696   4.637 -0.3724 -0.5433  0.6195
 6372TIP3    H119057   6.957   6.786   4.610  1.5733 -0.1367  0.7291
 6372TIP3    H219058   7.036   6.663   4.573 -0.8763 -1.7739  0.7255
 6373TIP3   OH219059   3.696   1.817   0.550  0.4008  0.5084 -0.1908
 6373TIP3    H119060   3.708   1.791   0.459 -0.0082 -0.1743 -0.0579
 6373TIP3    H219061   3.601   1.829   0.559  0.1790 -1.6028  0.7009
 6374TIP3   OH219062   0.158   1.893   4.183 -0.2465  0.3091 -0.0769
 6374TIP3    H119063   0.176   1.860   4.095  1.6767  0.7478  0.0868
 6374TIP3    H219064   0.244   1.891   4.227 -1.2796 -0.6183  2.0525
 6375TIP3   OH219065   0.616   1.352   1.068  0.0707 -0.1212 -0.1316
 6375TIP3    H119066   0.662   1.413   1.126 -1.2439  1.3097 -0.5209
 6375TIP3    H219067   0.670   1.273   1.069  1.2728  0.6578  1.2449
 6376TIP3   OH219068   5.468   3.910   0.772 -0.3724 -0.1840 -0.1487
 6376TIP3    H119069   5.412   3.948   0.840  0.9707 -0.6304  1.2502
 6376TIP3    H219070   5.547   3.965   0.773  0.8186 -1.8462  0.6154
 6377TIP3   OH219071   6.421   0.506   6.438 -0.1333 -0.0759  0.1930
 6377TIP3    H119072   6.387   0.594   6.426  1.9628  0.4301 -3.4113
 6377TIP3    H219073   6.355   0.449   6.398 -1.0475 -0.1487  1.7057
 6378TIP3   OH219074   4.254   1.105   5.335  0.0505 -0.7948  0.2133
 6378TIP3    H119075   4.323   1.134   5.275 -0.4182  2.4337  1.0459
 6378TIP3    H219076   4.184   1.074   5.277  1.0543 -1.3920 -0.7274
 6379TIP3   OH219077   8.010   4.641   2.693  0.4373 -0.3817 -0.2171
 6379TIP3    H119078   7.924   4.599   2.685 -0.3098  0.8762  0.8243
 6379TIP3    H219079   8.071   4.568   2.696 -0.4520 -1.2732 -2.2594
 6380TIP3   OH219080   2.455   4.451   2.096  0.1826 -0.4755  0.2408
 6380TIP3    H119081   2.419   4.459   2.184  2.3797 -1.4878  1.3045
 6380TIP3    H219082   2.485   4.540   2.075 -0.0321 -0.3070  0.6338
 6381TIP3   OH219083   7.503   7.506   1.834  0.3214 -0.4503 -0.2903
 6381TIP3    H119084   7.580   7.450   1.822  1.3960  0.3134  2.2243
 6381TIP3    H219085   7.539   7.594   1.843 -0.9081  0.0211  0.1890
 6382TIP3   OH219086   0.020   4.538   5.461 -0.6801 -0.1239  0.0513
 6382TIP3    H119087   0.064   4.514   5.542  1.0648 -1.0871 -1.1158
 6382TIP3    H219088   0.068   4.615   5.430 -1.1925  0.1027 -0.2024
 6383TIP3   OH219089   6.931   5.854   6.090 -0.2700 -0.8189  0.3276
 6383TIP3    H119090   6.921   5.800   6.011 -1.6460 -1.9331  1.2100
 6383TIP3    H219091   7.020   5.835   6.120  0.8178  0.7310 -1.6916
 6384TIP3   OH219092   0.574   5.423   5.422 -0.0068 -0.0234  0.5673
 6384TIP3    H119093   0.527   5.434   5.505 -0.1984  2.0523  0.2583
 6384TIP3    H219094   0.506   5.429   5.355  0.3431 -0.0196  0.2085
 6385TIP3   OH219095   5.104   0.991   3.276  0.1543 -0.5123  0.3102
 6385TIP3    H119096   5.188   1.037   3.272  0.5955 -1.3758 -0.6165
 6385TIP3    H219097   5.128   0.898   3.278 -0.7246 -0.7463  2.0794
 6386TIP3   OH219098   6.902   5.093   1.353 -0.3450  0.1110 -0.2413
 6386TIP3    H119099   6.937   5.182   1.349  1.4170 -0.4675  0.8108
 6386TIP3    H219100   6.980   5.037   1.363 -1.5602 -1.2426  3.0211
 6387TIP3   OH219101   2.352   7.573   2.693  0.2435  0.3508 -0.3400
 6387TIP3    H119102   2.270   7.623   2.684 -0.2068 -0.3550 -0.1954
 6387TIP3    H219103   2.379   7.556   2.602 -0.0098  0.1967 -0.3879
 6388TIP3   OH219104   0.205   3.031   5.203  0.4051  0.1925  0.0493
 6388TIP3    H119105   0.245   3.007   5.120  1.6705  1.7411  0.1562
 6388TIP3    H219106   0.271   3.086   5.246 -1.0869  1.2193  1.1103
 6389TIP3   OH219107   0.900   0.673   5.089 -0.1271  0.0913  0.0862
 6389TIP3    H119108   0.936   0.679   5.178  1.2215 -0.6428 -0.3878
 6389TIP3    H219109   0.830   0.738   5.087 -0.8691 -0.5705  2.0069
 6390TIP3   OH219110   3.632   1.709   3.496 -0.1729 -0.2125 -0.5571
 6390TIP3    H119111   3.625   1.780   3.433  2.0184 -0.3887 -1.0968
 6390TIP3    H219112   3.617   1.630   3.444 -0.2863 -0.2513 -0.4633
 6391TIP3   OH219113   6.270   4.418   2.995 -0.4599  0.3215 -0.1563
 6391TIP3    H119114   6.177   4.440   2.995 -1.0546 -1.9586 -0.2238
 6391TIP3    H219115   6.291   4.403   3.088 -0.0196  1.2912 -0.0890
 6392TIP3   OH219116   6.350   6.299   1.191  0.0734  0.1184 -0.0689
 6392TIP3    H119117   6.436   6.262   1.170  0.5796  1.6063 -0.8274
 6392TIP3    H219118   6.293   6.271   1.119 -0.9897 -3.4590  1.9421
 6393TIP3   OH219119   0.072   1.070   2.770 -0.4060 -0.6944  0.1297
 6393TIP3    H119120   0.150   1.015   2.768 -0.0417 -0.2605  1.4803
 6393TIP3    H219121   0.095   1.147   2.717 -1.3794 -2.3221 -2.9024
 6394TIP3   OH219122   3.520   5.434   2.727  0.5167  0.5483 -0.5327
 6394TIP3    H119123   3.508   5.354   2.779  0.7316  0.1713 -1.0497
 6394TIP3    H219124   3.610   5.428   2.695  0.5926  1.0898 -0.4344
 6395TIP3   OH219125   8.204   1.909   5.883  0.4834  0.3906  0.9220
 6395TIP3    H119126   8.198   1.818   5.854  0.2917  0.7703 -0.2719
 6395TIP3    H219127   8.230   1.903   5.975 -0.5846 -0.9001  1.1796
 6396TIP3   OH219128   2.578   2.252   4.537 -0.0016  0.1331  0.1986
 6396TIP3    H119129   2.607   2.189   4.603 -0.7701 -1.9771 -1.3618
 6396TIP3    H219130   2.492   2.280   4.568  1.2041  2.1506  1.9880
 6397TIP3   OH219131   5.043   2.527   0.112  0.6312  0.0341 -0.6756
 6397TIP3    H119132   4.956   2.543   0.076 -0.6099 -3.2741  0.4849
 6397TIP3    H219133   5.049   2.586   0.187 -1.3629 -0.7563  0.1868
 6398TIP3   OH219134   1.148   7.684   2.571 -0.2041 -1.1157 -0.4451
 6398TIP3    H119135   1.080   7.740   2.533  0.0828  0.2294  0.9346
 6398TIP3    H219136   1.100   7.622   2.625 -0.3887 -0.7588 -0.1968
 6399TIP3   OH219137   4.218   0.916   0.380 -0.2098  0.2240 -0.1319
 6399TIP3    H119138   4.270   0.862   0.440 -0.5455  0.7731  0.6848
 6399TIP3    H219139   4.281   0.949   0.316  0.4564  0.8061  0.7812
 6400TIP3   OH219140   2.553   6.994   6.738 -0.4152  0.3379 -0.2478
 6400TIP3    H119141   2.473   7.046   6.741 -1.1961 -0.8624  1.1384
 6400TIP3    H219142   2.536   6.927   6.673  0.2356  1.1856 -1.3442
 6401TIP3   OH219143   1.004   5.566   1.042 -0.4886  0.3928 -0.8172
 6401TIP3    H119144   0.991   5.609   1.127  0.1988 -0.3239 -0.3426
 6401TIP3    H219145   0.996   5.473   1.061 -0.3193  0.2307 -1.5388
 6402TIP3   OH219146   1.936   2.431   4.863 -0.4214  0.3411 -0.0219
 6402TIP3    H119147   2.013   2.420   4.806 -1.2486  1.2505 -1.3782
 6402TIP3    H219148   1.910   2.342   4.886 -0.0531 -0.0582 -1.0730
 6403TIP3   OH219149   0.339   5.606   1.663  0.0280 -0.0337  0.0300
 6403TIP3    H119150   0.395   5.628   1.588 -1.6957 -0.8912 -1.5931
 6403TIP3    H219151   0.275   5.678   1.666 -0.6818 -0.6519 -0.1405
 6404TIP3   OH219152   3.872   0.801   3.935 -0.2030 -0.1652 -0.5831
 6404TIP3    H119153   3.926   0.741   3.987 -0.3623  0.8102  0.7457
 6404TIP3    H219154   3.797   0.748   3.908  0.0358 -0.7686 -0.0832
 6405TIP3   OH219155   6.860   3.899   1.261 -0.6824 -0.3627  0.5666
 6405TIP3    H119156   6.907   3.846   1.325  0.5540 -0.2373 -0.2020
 6405TIP3    H219157   6.868   3.989   1.294 -1.2046 -0.4378  0.9159
 6406TIP3   OH219158   6.479   5.777   2.341  0.4147 -0.4385  0.1916
 6406TIP3    H119159   6.470   5.691   2.300 -2.8628  0.4138 -1.2225
 6406TIP3    H219160   6.428   5.770   2.422 -0.2346  0.2515 -0.1445
 6407TIP3   OH219161   2.544   5.931   2.310 -0.2746  0.3490  0.4188
 6407TIP3    H119162   2.545   5.932   2.214  0.7731 -0.5650  0.3969
 6407TIP3    H219163   2.461   5.889   2.333  0.6586 -2.0237 -0.1934
 6408TIP3   OH219164   0.109   4.029   4.764  0.2179  0.1642 -0.8830
 6408TIP3    H119165   0.176   4.086   4.801  1.7389 -2.0016 -0.0744
 6408TIP3    H219166   0.116   4.043   4.670  2.5643 -0.6900 -0.9144
 6409TIP3   OH219167   3.499   0.361   3.013  0.2611 -0.5694 -0.4265
 6409TIP3    H119168   3.563   0.373   3.083  0.6280 -2.5461 -0.3554
 6409TIP3    H219169   3.543   0.394   2.934  0.8189 -0.6319 -0.1457
 6410TIP3   OH219170   3.611   1.435   4.795  0.3628  0.0941  0.5360
 6410TIP3    H119171   3.681   1.401   4.739 -0.6749  0.4392 -1.0242
 6410TIP3    H219172   3.658   1.478   4.867  1.8951  2.0179 -1.4402
 6411TIP3   OH219173   5.769   5.246   1.831  0.1133  0.1364 -0.0033
 6411TIP3    H119174   5.762   5.318   1.894 -2.9556  0.2062 -0.2774
 6411TIP3    H219175   5.701   5.264   1.767 -0.9607 -3.0983  0.0449
 6412TIP3   OH219176   7.650   1.992   4.262 -0.1084 -0.7021  0.6023
 6412TIP3    H119177   7.575   2.001   4.203  1.5498  0.2776 -1.5080
 6412TIP3    H219178   7.664   2.080   4.297  0.4650 -0.7133  0.4185
 6413TIP3   OH219179   5.812   5.906   1.438  0.2719 -0.2590 -0.0056
 6413TIP3    H119180   5.790   5.976   1.499 -0.8955  0.6560 -1.4252
 6413TIP3    H219181   5.892   5.868   1.474  1.3030  2.1934  0.4866
 6414TIP3   OH219182   5.080   4.692   2.591  0.1785  0.4201  0.0963
 6414TIP3    H119183   5.161   4.724   2.629  0.0264  1.2150 -0.2376
 6414TIP3    H219184   5.017   4.695   2.663  0.1583  0.8918  0.0584
 6415TIP3   OH219185   3.841   1.955   3.656  0.3563  0.0809  0.2869
 6415TIP3    H119186   3.898   1.896   3.608  3.0235  1.7511  1.2116
 6415TIP3    H219187   3.839   2.035   3.604 -1.5883 -0.0396  0.0679
 6416TIP3   OH219188   2.886   1.087   1.146  0.0791 -0.3967 -0.4077
 6416TIP3    H119189   2.853   1.077   1.056  0.9900 -2.3083 -0.5831
 6416TIP3    H219190   2.834   1.157   1.183 -2.3156 -1.4789 -1.5099
 6417TIP3   OH219191   2.349   2.809   4.631  0.1800 -0.5722 -0.0871
 6417TIP3    H119192   2.295   2.871   4.680  1.0685  0.5014 -0.4254
 6417TIP3    H219193   2.306   2.724   4.644 -0.9536  0.0755  0.5399
 6418TIP3   OH219194   6.584   0.295   6.465 -0.6847  0.2280 -0.2386
 6418TIP3    H119195   6.535   0.375   6.443 -0.0546 -0.1173 -3.2989
 6418TIP3    H219196   6.517   0.226   6.466 -0.6412  0.0838 -2.4305
 6419TIP3   OH219197   3.379   3.175   4.198 -0.1978 -0.2337  0.0447
 6419TIP3    H119198   3.336   3.219   4.124 -1.1362  0.1980  0.8214
 6419TIP3    H219199   3.448   3.235   4.225  1.1359 -1.0520 -1.3840
 6420TIP3   OH219200   6.998   7.236   2.191  0.2339  0.3795  0.0053
 6420TIP3    H119201   7.059   7.176   2.235 -1.2843 -2.2266 -1.1486
 6420TIP3    H219202   6.945   7.178   2.136 -0.8426  2.9647 -1.8409
 6421TIP3   OH219203   6.950   3.035   5.309 -0.5697 -0.3022 -0.0269
 6421TIP3    H119204   6.984   3.109   5.259 -0.0556 -0.8693 -0.5309
 6421TIP3    H219205   6.961   3.060   5.401  0.2042 -0.0321 -0.1928
 6422TIP3   OH219206   1.865   3.633   0.856 -0.3759 -0.2242  0.2642
 6422TIP3    H119207   1.947   3.603   0.895  0.6490  3.2140  1.1256
 6422TIP3    H219208   1.886   3.651   0.765 -0.3837 -0.1141  0.2837
 6423TIP3   OH219209   2.773   5.366   6.183  0.1523 -0.2710 -0.0965
 6423TIP3    H119210   2.858   5.368   6.227 -0.6143  0.6064  1.4392
 6423TIP3    H219211   2.709   5.358   6.254 -1.1581  1.2513 -1.0188
 6424TIP3   OH219212   7.263   1.774   5.498  0.1925 -0.8175  0.7159
 6424TIP3    H119213   7.304   1.691   5.522 -0.0587 -1.5993 -1.3449
 6424TIP3    H219214   7.228   1.759   5.410 -1.5950  0.8690  1.0710
 6425TIP3   OH219215   7.884   4.109   5.750 -0.4255  0.5251  0.4353
 6425TIP3    H119216   7.899   4.086   5.659 -3.1845  0.0734  0.0091
 6425TIP3    H219217   7.942   4.184   5.765 -0.5302  1.1758 -1.9522
 6426TIP3   OH219218   2.606   6.693   1.610 -0.0418 -0.7690 -0.2242
 6426TIP3    H119219   2.538   6.714   1.673  1.0881 -1.7595  1.4213
 6426TIP3    H219220   2.682   6.743   1.639  0.5370 -1.3496 -0.6975
 6427TIP3   OH219221   8.228   0.143   5.519 -0.1350 -0.5265 -0.6249
 6427TIP3    H119222   8.166   0.202   5.562  1.8401  0.9573  0.3286
 6427TIP3    H219223   8.257   0.085   5.589  0.9896  0.0735 -0.5718
 6428TIP3   OH219224   2.966   3.744   1.592 -0.3071  0.5010  0.0169
 6428TIP3    H119225   3.047   3.719   1.548  0.0840 -2.3246  2.0409
 6428TIP3    H219226   2.899   3.688   1.551 -0.7719  1.0212  0.0574
 6429TIP3   OH219227   4.320   0.239   2.143  0.1201 -0.0991 -0.0222
 6429TIP3    H119228   4.303   0.168   2.205 -1.8699  0.2785 -0.0616
 6429TIP3    H219229   4.234   0.258   2.104  0.7304  1.8186 -0.5579
 6430TIP3   OH219230   6.284   0.972   1.576 -0.0348  0.0835  0.2271
 6430TIP3    H119231   6.230   1.006   1.647  0.4544 -1.9611  1.6386
 6430TIP3    H219232   6.226   0.915   1.526 -0.3479  1.4282 -1.0183
 6431TIP3   OH219233   5.402   1.591   2.613 -0.2074  0.3049 -0.1696
 6431TIP3    H119234   5.377   1.502   2.588 -0.0442  0.1177  0.3062
 6431TIP3    H219235   5.420   1.636   2.530 -0.0771 -0.1716 -0.4029
 6432TIP3   OH219236   8.254   6.077   0.619  0.6029  0.3795  0.4807
 6432TIP3    H119237   8.215   6.163   0.603 -1.7874 -0.2188  2.4787
 6432TIP3    H219238   8.270   6.041   0.532 -0.9607  1.7401 -0.4197
 6433TIP3   OH219239   4.006   7.263   5.970 -0.3150 -0.1907 -0.2123
 6433TIP3    H119240   4.072   7.201   6.000 -1.4540 -1.9274 -1.0812
 6433TIP3    H219241   3.971   7.302   6.050 -0.8398 -2.0785  0.5464
 6434TIP3   OH219242   5.947   1.552   0.051 -0.2884  0.5722  0.3192
 6434TIP3    H119243   5.861   1.543   0.091 -0.4675  0.2237 -0.1329
 6434TIP3    H219244   5.966   1.465   0.015  0.0452  0.7701  0.0081
 6435TIP3   OH219245   4.778   7.207   1.485 -0.1352 -0.3614 -0.1363
 6435TIP3    H119246   4.798   7.154   1.562 -1.4681 -0.4319  0.1797
 6435TIP3    H219247   4.807   7.153   1.411  0.6167 -0.5440  0.2845
 6436TIP3   OH219248   4.561   1.711   3.435  0.0892 -0.1179 -0.1243
 6436TIP3    H119249   4.617   1.706   3.358  0.4587 -1.6379  0.2101
 6436TIP3    H219250   4.510   1.792   3.423  0.4295 -0.1112 -1.7381
 6437TIP3   OH219251   7.205   2.499   3.493  0.1495 -0.4006  0.4599
 6437TIP3    H119252   7.222   2.434   3.562  3.6233 -1.5103 -1.1868
 6437TIP3    H219253   7.258   2.574   3.518  1.1482 -0.6762 -0.7303
 6438TIP3   OH219254   8.018   0.155   6.193 -0.5658 -0.3125  0.6579
 6438TIP3    H119255   8.099   0.143   6.243  0.6952  1.9618 -0.6453
 6438TIP3    H219256   8.034   0.110   6.110 -0.6684  0.0275  0.4502
 6439TIP3   OH219257   4.746   3.882   3.152  0.2383 -0.1697  0.0167
 6439TIP3    H119258   4.813   3.814   3.162 -0.5501 -0.8608  0.7882
 6439TIP3    H219259   4.663   3.835   3.156 -0.3887  0.1751 -4.3228
 6440TIP3   OH219260   8.197   3.824   3.729 -0.4534 -0.2152  0.2256
 6440TIP3    H119261   8.280   3.786   3.756  0.3036  1.3871  0.2689
 6440TIP3    H219262   8.142   3.819   3.807 -0.6333 -1.8079  0.0323
 6441TIP3   OH219263   1.090   5.082   4.854 -0.3066  0.2020 -0.6282
 6441TIP3    H119264   1.003   5.113   4.830 -0.6371 -0.9079 -0.8883
 6441TIP3    H219265   1.134   5.068   4.770  0.5977  1.9817 -0.5091
 6442TIP3   OH219266   0.687   1.000   6.789 -0.0255  1.1310  0.2728
 6442TIP3    H119267   0.680   1.032   6.699 -0.4985  1.3311  0.3756
 6442TIP3    H219268   0.625   0.927   6.793  1.7575 -0.4739 -0.2382
 6443TIP3   OH219269   8.342   5.119   2.799  0.3434 -0.1518  0.3412
 6443TIP3    H119270   8.247   5.128   2.810  0.2016  0.9795 -1.4248
 6443TIP3    H219271   8.372   5.081   2.882 -1.3999  1.1817  1.6628
 6444TIP3   OH219272   8.165   3.515   4.208  0.3197 -0.3812  0.3602
 6444TIP3    H119273   8.083   3.510   4.257 -0.2258  1.2653 -0.2992
 6444TIP3    H219274   8.214   3.438   4.236 -1.6138 -1.6639  0.4657
 6445TIP3   OH219275   7.284   0.743   3.021 -0.1634 -0.5834  0.4981
 6445TIP3    H119276   7.250   0.657   2.997 -0.2234  0.3664 -3.6061
 6445TIP3    H219277   7.378   0.730   3.033 -0.0850 -1.1856 -0.6480
 6446TIP3   OH219278   3.017   3.275   4.205  0.1917  0.1710  0.0519
 6446TIP3    H119279   3.008   3.370   4.203  2.0773  0.3700 -0.6879
 6446TIP3    H219280   2.934   3.242   4.169 -1.5183  1.3909  2.6065
 6447TIP3   OH219281   0.123   3.757   6.087 -0.5342 -0.2917  0.0690
 6447TIP3    H119282   0.130   3.708   6.169  0.0926  1.0617  0.8648
 6447TIP3    H219283   0.089   3.694   6.024 -0.7290 -1.4553  1.2925
 6448TIP3   OH219284   3.909   1.283   1.141 -0.0356  1.1041  1.1369
 6448TIP3    H119285   3.974   1.289   1.211 -0.4807  0.2198  1.6399
 6448TIP3    H219286   3.960   1.297   1.061  0.9251 -0.2485  1.4704
 6449TIP3   OH219287   4.941   5.088   5.771 -0.0732  0.2992 -0.2916
 6449TIP3    H119288   4.939   5.004   5.727  0.2871  0.3230 -0.3561
 6449TIP3    H219289   4.913   5.151   5.705 -0.0998  0.2611 -0.3160
 6450TIP3   OH219290   3.639   6.699   2.929 -0.2831 -0.2206  0.7335
 6450TIP3    H119291   3.606   6.617   2.891 -0.0417 -0.1081  0.2702
 6450TIP3    H219292   3.560   6.744   2.959 -0.7227  0.5611 -1.4002
 6451TIP3   OH219293   5.542   7.376   3.551  0.0649  0.0569 -0.4334
 6451TIP3    H119294   5.474   7.430   3.511  0.1795  0.1073 -0.5617
 6451TIP3    H219295   5.500   7.337   3.627  0.2120  0.9526  0.1195
 6452TIP3   OH219296   2.586   5.824   5.426  0.3596  0.0419 -0.4531
 6452TIP3    H119297   2.677   5.799   5.436  0.5142  0.6166 -0.3681
 6452TIP3    H219298   2.578   5.907   5.474  0.0041  0.4365 -1.1636
 6453TIP3   OH219299   7.105   5.894   1.766  0.2551  0.1999  0.5355
 6453TIP3    H119300   7.196   5.921   1.764 -0.1069  1.4915  0.4226
 6453TIP3    H219301   7.070   5.919   1.680 -0.0363 -0.9173  0.3163
 6454TIP3   OH219302   4.410   3.347   4.091 -0.3978 -0.0574  0.3399
 6454TIP3    H119303   4.433   3.409   4.021  0.0648 -0.7355 -0.1142
 6454TIP3    H219304   4.387   3.266   4.046 -2.6151  0.2340  0.8448
 6455TIP3   OH219305   1.103   4.104   1.883  0.4236 -0.3797  0.2522
 6455TIP3    H119306   1.025   4.136   1.927 -1.1652 -1.8068 -1.3464
 6455TIP3    H219307   1.087   4.010   1.871  0.8463 -0.1663 -2.9777
 6456TIP3   OH219308   4.411   5.208   2.100 -0.3550  0.1718 -0.4427
 6456TIP3    H119309   4.369   5.166   2.175  2.0052  2.3460  2.3995
 6456TIP3    H219310   4.356   5.284   2.081 -0.4535  0.1680 -0.1808
 6457TIP3   OH219311   8.172   0.667   4.650 -0.2306  0.7463  0.2568
 6457TIP3    H119312   8.086   0.700   4.627  0.2456 -0.1442 -3.3664
 6457TIP3    H219313   8.228   0.745   4.652 -0.4612  0.9707 -1.0900
 6458TIP3   OH219314   3.394   6.179   2.276 -0.2734 -0.5914  0.2588
 6458TIP3    H119315   3.339   6.111   2.237  1.6933 -1.8411 -0.5012
 6458TIP3    H219316   3.441   6.135   2.346 -0.5482  0.5593  1.1970
 6459TIP3   OH219317   1.554   0.120   1.284  0.4750  0.0239 -0.1608
 6459TIP3    H119318   1.478   0.128   1.226 -1.4526 -2.3390  1.8672
 6459TIP3    H219319   1.547   0.032   1.321  1.2200  1.5553  4.1066
 6460TIP3   OH219320   5.434   1.796   5.379 -0.2084  0.2385 -0.1483
 6460TIP3    H119321   5.454   1.878   5.423  0.2833 -0.7496  1.5789
 6460TIP3    H219322   5.359   1.760   5.427 -0.1073 -0.5474 -0.5628
 6461TIP3   OH219323   8.008   4.344   3.861 -0.1811 -0.7609  0.0773
 6461TIP3    H119324   8.086   4.326   3.914 -0.0478 -0.0218  0.1372
 6461TIP3    H219325   7.958   4.262   3.864 -0.2338 -0.7060  1.4477
 6462TIP3   OH219326   1.559   5.329   5.295  0.6112  0.4362  0.1081
 6462TIP3    H119327   1.540   5.372   5.211 -1.2285 -1.6403 -0.6402
 6462TIP3    H219328   1.654   5.333   5.303  0.8306  0.8249 -2.0087
 6463TIP3   OH219329   0.387   2.776  -0.012  0.3300  0.3507  0.0334
 6463TIP3    H119330   0.439   2.852  -0.040  1.5099  0.2495  1.7857
 6463TIP3    H219331   0.396   2.775   0.084 -0.6962 -1.2748  0.1482
 6464TIP3   OH219332   6.887   4.129  -0.017 -0.0810 -0.7287  0.2355
 6464TIP3    H119333   6.825   4.082   0.039  1.3327 -2.1413  0.6855
 6464TIP3    H219334   6.932   4.190   0.042 -0.9336  0.2352 -0.0749
 6465TIP3   OH219335   5.944   7.235   4.134 -0.1604 -0.0549 -0.0446
 6465TIP3    H119336   5.986   7.314   4.170 -0.9704  0.4578 -0.2074
 6465TIP3    H219337   5.872   7.269   4.080 -0.3821 -0.9025 -0.2886
 6466TIP3   OH219338   1.061   7.711   6.242  0.7822 -0.7011  0.6658
 6466TIP3    H119339   1.032   7.689   6.154  0.3292 -0.9796  0.8809
 6466TIP3    H219340   1.032   7.801   6.256 -0.2101 -1.0552  0.9684
 6467TIP3   OH219341   4.705   7.599   5.374 -0.1817 -0.0434  0.4305
 6467TIP3    H119342   4.712   7.689   5.341 -0.4611  0.6505  2.1274
 6467TIP3    H219343   4.791   7.582   5.413  0.0538 -0.7387 -0.3605
 6468TIP3   OH219344   5.564   2.065   2.755  0.0665 -0.2411 -0.2563
 6468TIP3    H119345   5.556   2.049   2.661  2.9010 -1.3425 -0.4019
 6468TIP3    H219346   5.551   1.979   2.795  2.2944 -0.5229  0.0084
 6469TIP3   OH219347   0.815   3.907   0.418  0.2605  0.0508  0.1694
 6469TIP3    H119348   0.758   3.893   0.493  3.1680  1.9792  2.9904
 6469TIP3    H219349   0.877   3.834   0.421 -0.0360 -0.2660 -0.8713
 6470TIP3   OH219350   0.716   3.165   5.706 -0.2135  0.3888  0.1489
 6470TIP3    H119351   0.724   3.202   5.618 -0.0221  0.4238  0.1791
 6470TIP3    H219352   0.806   3.166   5.740 -0.1432 -0.4727 -0.0025
 6471TIP3   OH219353   1.919   2.891   5.647  0.0573 -0.0289 -0.0162
 6471TIP3    H119354   1.988   2.845   5.694  0.3845  0.4665 -0.0059
 6471TIP3    H219355   1.838   2.861   5.687  0.3788  2.2555  2.6268
 6472TIP3   OH219356   6.099   4.922   1.013  0.7458 -0.3790 -0.1387
 6472TIP3    H119357   6.087   4.905   1.106  1.9383 -0.0878  0.0799
 6472TIP3    H219358   6.013   4.907   0.975  0.4065 -1.1893  0.9028
 6473TIP3   OH219359   4.896   3.520   0.720 -0.4283  0.0290 -0.0484
 6473TIP3    H119360   4.889   3.436   0.675 -1.8343 -0.3770  0.8554
 6473TIP3    H219361   4.979   3.557   0.689 -0.7655 -0.7347 -2.0711
 6474TIP3   OH219362   5.250   4.353   5.269  0.5248  0.1352 -0.3126
 6474TIP3    H119363   5.336   4.327   5.235 -0.3989 -2.7311 -0.7504
 6474TIP3    H219364   5.191   4.342   5.194 -0.2143  2.6554 -0.1968
 6475TIP3   OH219365   7.560   1.454   6.590  0.8335  0.0173  0.0866
 6475TIP3    H119366   7.581   1.500   6.509 -1.4174  1.7822  0.4108
 6475TIP3    H219367   7.546   1.524   6.654 -1.9635 -1.0695  0.7941
 6476TIP3   OH219368   0.168   2.713   3.298 -0.4590  0.4564  0.2306
 6476TIP3    H119369   0.166   2.643   3.233  0.9039  2.0453 -1.6408
 6476TIP3    H219370   0.105   2.686   3.365  0.6826 -2.9641  0.0723
 6477TIP3   OH219371   4.580   5.509   0.788  0.2107 -0.4170  0.3456
 6477TIP3    H119372   4.568   5.562   0.867  1.7309  1.1526 -0.4018
 6477TIP3    H219373   4.493   5.504   0.749  0.0320  1.9427  0.2549
 6478TIP3   OH219374   5.811   2.588   0.954  0.8595 -0.5711 -0.4285
 6478TIP3    H119375   5.784   2.498   0.971 -2.0567  0.5685  1.7077
 6478TIP3    H219376   5.744   2.623   0.895  0.1506  1.0027  1.2028
 6479TIP3   OH219377   2.729   0.515   4.913 -0.1314 -0.7179 -0.1841
 6479TIP3    H119378   2.731   0.610   4.921 -0.3319 -0.8994  3.8101
 6479TIP3    H219379   2.820   0.490   4.899  0.0884  0.0224 -0.1169
 6480TIP3   OH219380   7.467   4.466   4.171  0.2778  0.0942  0.2135
 6480TIP3    H119381   7.400   4.400   4.187  0.9010 -0.8647 -0.9917
 6480TIP3    H219382   7.421   4.540   4.132 -0.6892  1.0683  2.9277
 6481TIP3   OH219383   2.494   7.506   6.257 -0.3054  0.7393 -0.6284
 6481TIP3    H119384   2.530   7.514   6.168  0.6925  1.1915 -0.1951
 6481TIP3    H219385   2.467   7.414   6.263  2.0283 -0.0140 -0.5355
 6482TIP3   OH219386   5.884   6.699   0.803  0.5562  0.4378  0.2359
 6482TIP3    H119387   5.840   6.758   0.741  0.7360  0.6642  0.3229
 6482TIP3    H219388   5.820   6.687   0.873  0.1541 -0.2226 -0.2298
 6483TIP3   OH219389   0.729   4.151   4.039  0.2617  0.3868 -0.2505
 6483TIP3    H119390   0.808   4.201   4.015 -0.3577  0.4565 -2.3160
 6483TIP3    H219391   0.744   4.064   4.004 -0.7768  0.5382 -1.1058
 6484TIP3   OH219392   5.672   1.576   3.601  0.3149 -0.7516  0.0071
 6484TIP3    H119393   5.728   1.580   3.679  0.8502  2.6773 -0.4184
 6484TIP3    H219394   5.621   1.496   3.613  1.0396 -0.8654  3.3965
 6485TIP3   OH219395   6.889   6.726   3.070  0.2190  0.0395  0.0160
 6485TIP3    H119396   6.888   6.783   2.993 -1.0681  1.5497  1.0911
 6485TIP3    H219397   6.882   6.785   3.144 -1.0682 -1.5121  1.1979
 6486TIP3   OH219398   7.008   6.353   0.127  0.6584  0.0862 -0.2087
 6486TIP3    H119399   6.983   6.267   0.159  1.5619  0.7140  2.4875
 6486TIP3    H219400   7.095   6.368   0.164 -0.1318  2.7672  0.8724
 6487TIP3   OH219401   3.256   6.531   0.350  0.3498  0.3087  0.3254
 6487TIP3    H119402   3.242   6.436   0.358  1.0597  0.2499  0.9458
 6487TIP3    H219403   3.329   6.549   0.408  0.4176  1.1968 -0.0290
 6488TIP3   OH219404   1.045   4.123   4.608  0.3665 -0.0018  0.6294
 6488TIP3    H119405   0.997   4.042   4.592 -0.2531  0.8028 -2.0199
 6488TIP3    H219406   1.127   4.095   4.648 -0.0778 -1.8579  0.3372
 6489TIP3   OH219407   1.157   0.860   5.093 -0.9044  0.1097  0.2656
 6489TIP3    H119408   1.134   0.798   5.162 -0.1087 -0.5822 -0.0862
 6489TIP3    H219409   1.245   0.835   5.066 -1.7112 -0.5097 -1.9691
 6490TIP3   OH219410   7.785   7.028   5.559 -0.1344 -0.0023  0.1666
 6490TIP3    H119411   7.759   7.007   5.648  1.7707  0.7560  0.9487
 6490TIP3    H219412   7.875   7.060   5.567 -0.2043  0.8680 -1.9281
 6491TIP3   OH219413   2.212   1.333   0.093  0.0088  0.3079  0.1916
 6491TIP3    H119414   2.220   1.262   0.030 -1.2753 -0.9604  1.3992
 6491TIP3    H219415   2.159   1.399   0.048 -0.1428 -0.1893 -0.3596
 6492TIP3   OH219416   4.568   6.170   1.310  0.0860  0.3627  0.0382
 6492TIP3    H119417   4.607   6.206   1.389  0.4098  0.3643 -0.1174
 6492TIP3    H219418   4.532   6.085   1.336  1.1272 -0.1147 -0.0432
 6493TIP3   OH219419   1.021   2.649   5.064 -0.0953  0.2507  0.4167
 6493TIP3    H119420   0.967   2.652   4.986  0.5357 -0.3496 -0.0519
 6493TIP3    H219421   0.959   2.644   5.137 -0.6730  0.1196 -0.0848
 6494TIP3   OH219422   4.082   7.368   0.672  0.2019  0.4617  0.7530
 6494TIP3    H119423   4.127   7.411   0.599 -1.5711 -0.7503 -1.1784
 6494TIP3    H219424   4.152   7.332   0.726  1.5891  1.0464 -0.5970
 6495TIP3   OH219425   1.920   6.765   0.954 -0.5107  0.5997  1.2572
 6495TIP3    H119426   2.004   6.768   0.908 -0.5988  1.3517  1.1327
 6495TIP3    H219427   1.855   6.757   0.885 -0.4683 -2.0789  1.4293
 6496TIP3   OH219428   6.046   4.838   5.144  0.5421 -0.4640 -0.3573
 6496TIP3    H119429   6.093   4.888   5.211  0.7073 -1.8849  0.6347
 6496TIP3    H219430   6.076   4.748   5.156  0.0101 -0.8633 -1.8745
 6497TIP3   OH219431   2.679   7.633   5.193 -0.5955  0.3880 -0.4032
 6497TIP3    H119432   2.748   7.601   5.251 -2.6663 -0.9420  1.4809
 6497TIP3    H219433   2.681   7.728   5.203 -0.6282  0.2131  1.6028
 6498TIP3   OH219434   7.510   4.106   4.454 -0.1706 -0.2501  0.0567
 6498TIP3    H119435   7.548   4.068   4.533  1.2365  1.3981  0.2525
 6498TIP3    H219436   7.536   4.199   4.457 -1.1424  0.1338 -1.7010
 6499TIP3   OH219437   4.224   6.317   1.978 -0.2271 -0.3388  0.1820
 6499TIP3    H119438   4.280   6.356   2.045  1.3997  1.3368 -1.9852
 6499TIP3    H219439   4.257   6.353   1.895 -2.0318 -2.3816 -1.5611
 6500TIP3   OH219440   3.674   1.925   5.395  0.8728 -0.0572 -0.1484
 6500TIP3    H119441   3.633   1.969   5.321 -0.8625 -1.0705  0.1434
 6500TIP3    H219442   3.750   1.980   5.417 -0.2436  1.8397 -0.8041
 6501TIP3   OH219443   6.090   7.362   0.820 -0.2331  0.2783  0.3334
 6501TIP3    H119444   6.138   7.336   0.741 -0.6226  1.5306 -0.3389
 6501TIP3    H219445   6.115   7.453   0.834  0.2953 -0.0985  2.0313
 6502TIP3   OH219446   2.166   1.175   4.390 -0.8550  0.0799  0.1699
 6502TIP3    H119447   2.247   1.186   4.440 -1.8271  1.1998  1.6072
 6502TIP3    H219448   2.178   1.094   4.341  0.8388 -0.1562  0.9194
 6503TIP3   OH219449   0.921   4.173   5.328  0.0201 -0.0740  0.6417
 6503TIP3    H119450   0.975   4.241   5.368  0.2473 -1.2680  2.5243
 6503TIP3    H219451   0.984   4.112   5.290 -0.0539 -0.5651  1.2898
 6504TIP3   OH219452   2.975   4.129   4.793 -0.3925 -0.2640  0.1384
 6504TIP3    H119453   3.022   4.121   4.710 -1.4392 -0.5888 -0.4515
 6504TIP3    H219454   3.033   4.089   4.858  1.7589  2.5532  0.1513
 6505TIP3   OH219455   0.737   7.012   4.335  0.2369 -0.5062 -0.2714
 6505TIP3    H119456   0.814   7.066   4.354  1.1335 -1.0698 -2.1079
 6505TIP3    H219457   0.695   7.001   4.420  0.4652  2.3710  0.3206
 6506TIP3   OH219458   0.758   3.698   4.478 -0.1381 -0.1385 -0.3979
 6506TIP3    H119459   0.793   3.728   4.562  1.0201  0.3392 -1.0403
 6506TIP3    H219460   0.730   3.777   4.433 -0.2852 -0.3476 -0.6791
 6507TIP3   OH219461   5.818   5.039   1.588  0.2075 -0.2836 -0.0570
 6507TIP3    H119462   5.789   5.019   1.499  0.4634 -0.4636 -0.0983
 6507TIP3    H219463   5.821   5.135   1.591 -0.7033 -0.2478  0.0466
 6508TIP3   OH219464   2.722   7.260   0.724 -0.2739 -0.9869  0.1636
 6508TIP3    H119465   2.681   7.173   0.721 -0.3054 -0.9331 -1.5007
 6508TIP3    H219466   2.665   7.316   0.671  0.4139 -0.2319  0.1942
 6509TIP3   OH219467   8.227   5.887   0.818 -0.2201 -0.2232 -0.1800
 6509TIP3    H119468   8.216   5.958   0.755 -0.4006  0.2239  0.3450
 6509TIP3    H219469   8.150   5.832   0.806 -0.6258  0.2601  0.1436
 6510TIP3   OH219470   5.621   3.221   6.143 -0.4050 -0.0490 -0.1009
 6510TIP3    H119471   5.535   3.219   6.101 -0.5909  1.6487  0.1358
 6510TIP3    H219472   5.637   3.130   6.170 -0.5918 -1.0889 -3.1274
 6511TIP3   OH219473   2.355   1.253   4.581  0.3359  0.2513 -0.1897
 6511TIP3    H119474   2.398   1.334   4.610 -2.0486  1.0652  1.3786
 6511TIP3    H219475   2.326   1.211   4.662 -1.5049 -0.3858 -1.1241
 6512TIP3   OH219476   3.990   5.355   4.289  0.1986 -0.4322 -0.2608
 6512TIP3    H119477   3.953   5.383   4.206 -0.0505 -0.2333 -0.0855
 6512TIP3    H219478   4.082   5.338   4.270  0.1030 -0.5583 -0.6145
 6513TIP3   OH219479   4.672   2.881   3.206  0.2165  0.0128  0.3769
 6513TIP3    H119480   4.729   2.848   3.137 -0.2079  1.6378 -0.8286
 6513TIP3    H219481   4.641   2.966   3.173 -4.0814 -1.3664  0.1891
 6514TIP3   OH219482   2.552   0.389   2.343 -0.3930 -0.7462  0.1367
 6514TIP3    H119483   2.568   0.372   2.436  0.4918 -0.1150  0.1109
 6514TIP3    H219484   2.468   0.347   2.325 -0.4270 -1.1346  1.1478
 6515TIP3   OH219485   2.945   6.659   5.393 -0.6969  0.3878 -0.1113
 6515TIP3    H119486   3.013   6.637   5.329  0.4771  0.2692  1.1325
 6515TIP3    H219487   2.889   6.581   5.397  0.4649 -0.4357  0.5419
 6516TIP3   OH219488   5.869   0.780   2.120  0.0184 -0.1426 -0.3732
 6516TIP3    H119489   5.932   0.714   2.092  0.6884  0.2538  0.1948
 6516TIP3    H219490   5.882   0.788   2.214 -1.6492 -0.8575 -0.0405
 6517TIP3   OH219491   5.463   0.565   5.256 -0.0038 -0.3038 -0.1230
 6517TIP3    H119492   5.475   0.529   5.344  0.4442 -1.3223 -0.5860
 6517TIP3    H219493   5.467   0.489   5.199 -1.8576  0.1520 -0.9097
 6518TIP3   OH219494   3.706   2.707   2.867 -0.1412 -0.1353  0.2630
 6518TIP3    H119495   3.664   2.623   2.886 -0.8173 -0.1149 -1.0474
 6518TIP3    H219496   3.708   2.752   2.952 -1.4181 -0.7583  0.6577
 6519TIP3   OH219497   7.248   5.852   3.452 -0.0706 -0.3574  0.4501
 6519TIP3    H119498   7.199   5.779   3.413 -0.3131 -0.2410  0.5316
 6519TIP3    H219499   7.251   5.831   3.546 -1.6354  0.5759  0.7397
 6520TIP3   OH219500   3.171   1.716   4.718  0.5352  0.6300  0.5568
 6520TIP3    H119501   3.105   1.785   4.723 -0.8959 -0.6198 -0.2579
 6520TIP3    H219502   3.221   1.737   4.639 -0.6634  0.1033 -0.3643
 6521TIP3   OH219503   5.153   5.468   0.636 -0.3029 -0.2315  0.9215
 6521TIP3    H119504   5.249   5.460   0.636 -0.2915 -0.0946  0.8127
 6521TIP3    H219505   5.122   5.385   0.672 -0.2384 -1.2765 -1.2436
 6522TIP3   OH219506   1.800   1.045   1.258 -0.2942 -0.5969  0.5844
 6522TIP3    H119507   1.860   1.042   1.183  0.4095 -0.4806  1.1377
 6522TIP3    H219508   1.729   1.101   1.229  0.8101  0.8553  0.5877
 6523TIP3   OH219509   6.424   3.884   5.669 -0.0746  0.0781 -0.0265
 6523TIP3    H119510   6.360   3.924   5.728  0.9418  0.3579  0.9231
 6523TIP3    H219511   6.440   3.797   5.706  2.2415  1.0716  1.4786
 6524TIP3   OH219512   7.987   7.830   4.420  0.2955 -1.0714 -0.6074
 6524TIP3    H119513   7.920   7.824   4.351  0.6603  0.8255 -1.1824
 6524TIP3    H219514   8.069   7.842   4.372  0.5589  0.2777  0.1214
 6525TIP3   OH219515   1.544   4.510   6.654  0.5915 -0.2489  0.2461
 6525TIP3    H119516   1.598   4.441   6.617  0.5114  0.8671 -2.1191
 6525TIP3    H219517   1.459   4.499   6.613  0.3357  0.7581  0.4696
 6526TIP3   OH219518   6.988   2.523   0.283 -0.2598  0.5433  0.3385
 6526TIP3    H119519   6.927   2.468   0.333 -0.3151  1.5803  1.4570
 6526TIP3    H219520   6.966   2.613   0.308  1.8185  0.9506  0.8830
 6527TIP3   OH219521   7.314   4.405   6.790  0.6716  1.3520  0.6525
 6527TIP3    H119522   7.379   4.367   6.849  1.1027  0.5177 -0.3213
 6527TIP3    H219523   7.234   4.409   6.842  0.2869 -1.9491  0.5396
 6528TIP3   OH219524   7.222   4.728   0.360  0.0045  0.3552 -0.1138
 6528TIP3    H119525   7.192   4.809   0.400 -0.5802  0.6771 -1.1561
 6528TIP3    H219526   7.240   4.751   0.269 -1.4339 -0.9487 -0.7885
 6529TIP3   OH219527   6.890   1.589   6.850 -0.2855 -0.3155 -0.0051
 6529TIP3    H119528   6.970   1.608   6.801 -0.8634  1.0710 -0.4501
 6529TIP3    H219529   6.875   1.667   6.903 -1.3884 -0.5290  0.0133
 6530TIP3   OH219530   3.302   1.258   1.478  0.6114 -0.4170  0.2276
 6530TIP3    H119531   3.276   1.250   1.387 -2.2130 -2.5976  1.0878
 6530TIP3    H219532   3.376   1.319   1.477  0.6155 -0.2923 -3.4474
 6531TIP3   OH219533   2.039   4.701   3.406 -0.0417  0.4599  0.1022
 6531TIP3    H119534   1.957   4.705   3.357 -0.2583  0.8974  0.4884
 6531TIP3    H219535   2.103   4.746   3.351  0.0649 -0.3306 -0.4330
 6532TIP3   OH219536   1.834   2.536   2.907 -0.2066 -0.0924 -0.2268
 6532TIP3    H119537   1.889   2.586   2.967  2.6189 -1.7040 -1.2465
 6532TIP3    H219538   1.832   2.448   2.945 -2.9409  0.0772  0.2153
 6533TIP3   OH219539   5.703   6.485   6.283  0.4219 -0.3683 -0.4652
 6533TIP3    H119540   5.792   6.501   6.313  0.2139 -1.7426  1.0304
 6533TIP3    H219541   5.690   6.391   6.297 -1.7857  0.0759  0.8812
 6534TIP3   OH219542   7.973   0.387   1.390 -0.1743 -0.3217  0.3123
 6534TIP3    H119543   7.975   0.353   1.479  0.8759  0.0487  0.4379
 6534TIP3    H219544   7.882   0.374   1.362 -0.4444 -0.7131  1.3226
 6535TIP3   OH219545   7.609   5.256   0.902  0.1823 -0.0423  0.1962
 6535TIP3    H119546   7.650   5.238   0.987 -1.2654 -1.8225  0.5775
 6535TIP3    H219547   7.541   5.321   0.922  0.2709  0.0257  0.2792
 6536TIP3   OH219548   4.415   0.157   5.108  0.7359 -0.2940 -0.3827
 6536TIP3    H119549   4.459   0.087   5.155  2.5685  0.6959 -0.5146
 6536TIP3    H219550   4.467   0.235   5.128 -1.9993  1.3496  0.8705
 6537TIP3   OH219551   3.730   1.297   6.054 -0.0409  0.2714  0.0389
 6537TIP3    H119552   3.664   1.240   6.094 -0.3445 -0.1090 -0.9708
 6537TIP3    H219553   3.684   1.341   5.983  0.2607  1.6061  0.6430
 6538TIP3   OH219554   1.596   2.605   4.802  0.1770  0.3038  0.3090
 6538TIP3    H119555   1.655   2.595   4.728 -1.1299 -1.0552 -0.5978
 6538TIP3    H219556   1.612   2.529   4.857 -0.8005 -0.1535 -0.0161
 6539TIP3   OH219557   2.272   5.138   3.633 -0.1229 -0.5899 -0.5877
 6539TIP3    H119558   2.268   5.051   3.674  0.7085 -0.3385  0.0494
 6539TIP3    H219559   2.267   5.200   3.705 -2.5861 -0.0326 -1.1709
 6540TIP3   OH219560   8.118   6.893   4.604 -0.0270 -0.4125 -0.0145
 6540TIP3    H119561   8.142   6.803   4.623 -0.8051 -0.3255  1.5190
 6540TIP3    H219562   8.027   6.901   4.634  0.6294  1.3860  1.6972
 6541TIP3   OH219563   1.948   6.310   3.529  0.5256  0.0459 -0.4054
 6541TIP3    H119564   1.860   6.274   3.544  1.0186 -0.7585  0.6968
 6541TIP3    H219565   1.998   6.284   3.606  2.4394 -1.7768 -2.1324
 6542TIP3   OH219566   4.849   7.445   2.674 -0.4554  0.1898  0.3178
 6542TIP3    H119567   4.768   7.418   2.631 -0.9204  0.4657  1.0023
 6542TIP3    H219568   4.918   7.400   2.625 -0.8849  1.1278 -1.2520
 6543TIP3   OH219569   6.437   1.292   5.426 -0.2072 -0.4799  0.5182
 6543TIP3    H119570   6.396   1.211   5.457 -0.4536 -0.3146  0.6305
 6543TIP3    H219571   6.492   1.321   5.499  2.2728 -2.1207 -0.5671
 6544TIP3   OH219572   0.334   4.620   5.878  0.0388  0.1033 -0.0289
 6544TIP3    H119573   0.239   4.630   5.873  0.2057  2.0920 -0.0070
 6544TIP3    H219574   0.358   4.586   5.792 -0.8631 -2.7437  0.7251
 6545TIP3   OH219575   2.651   3.449   6.747  0.6538  0.3054  0.7932
 6545TIP3    H119576   2.684   3.369   6.708  3.0059  1.2643  0.6194
 6545TIP3    H219577   2.563   3.460   6.711  0.1048 -2.3501  1.1396
 6546TIP3   OH219578   4.802   1.161   5.503  0.2565 -0.1738  0.2088
 6546TIP3    H119579   4.857   1.215   5.446 -0.1385  0.5637  0.5247
 6546TIP3    H219580   4.807   1.203   5.589 -1.1628  0.1771  0.1427
 6547TIP3   OH219581   4.992   2.634   2.645 -0.3412 -0.3808 -0.1106
 6547TIP3    H119582   4.917   2.632   2.704 -1.3332 -1.6798 -1.3321
 6547TIP3    H219583   5.058   2.580   2.689 -0.3622  0.2083  0.6605
 6548TIP3   OH219584   2.813   0.052   3.935 -0.5377 -0.5241  0.7368
 6548TIP3    H119585   2.809  -0.044   3.941  1.7103 -0.7083  0.3029
 6548TIP3    H219586   2.756   0.074   3.862  1.7084 -1.9713 -1.6399
 6549TIP3   OH219587   3.943   2.033   1.435 -0.2668  0.8407 -0.4490
 6549TIP3    H119588   3.863   2.003   1.392 -0.3431  0.7626 -0.2586
 6549TIP3    H219589   4.014   1.995   1.384 -0.3182 -3.1538  2.0332
 6550TIP3   OH219590   6.921   2.107   1.341 -0.0994 -0.2657  0.0384
 6550TIP3    H119591   6.920   2.036   1.405 -0.5996 -0.1156  0.2085
 6550TIP3    H219592   7.011   2.139   1.341 -0.2357  0.1911  1.2039
 6551TIP3   OH219593   4.803   2.369   2.233  0.5990  0.0514 -0.5573
 6551TIP3    H119594   4.768   2.427   2.300 -0.7552 -0.4906 -0.7740
 6551TIP3    H219595   4.748   2.384   2.156  1.3019 -0.2968 -1.1408
 6552TIP3   OH219596   2.524   0.534   1.529 -0.2759 -0.7654 -0.3835
 6552TIP3    H119597   2.478   0.452   1.545 -0.3547 -0.6609 -0.0884
 6552TIP3    H219598   2.559   0.524   1.440 -1.9190 -0.3370 -1.1054
 6553TIP3   OH219599   4.431   7.795   4.680  0.0633  0.6960  0.7385
 6553TIP3    H119600   4.454   7.790   4.587  1.5199  0.7869  1.0678
 6553TIP3    H219601   4.507   7.760   4.726 -0.4268  1.1175  1.9221
 6554TIP3   OH219602   3.873   7.341   6.826 -0.0144  0.6325  0.1874
 6554TIP3    H119603   3.913   7.425   6.804 -0.9549  1.3476  1.0984
 6554TIP3    H219604   3.876   7.291   6.745 -0.8551  2.1312 -0.8057
 6555TIP3   OH219605   5.929   7.576   0.661 -0.5686  0.0155 -0.2201
 6555TIP3    H119606   5.948   7.486   0.686  1.3214 -0.0724 -1.7788
 6555TIP3    H219607   5.930   7.625   0.743  2.2916 -0.7713  0.3027
 6556TIP3   OH219608   1.166   5.705   0.894 -0.0212 -0.1042 -0.5344
 6556TIP3    H119609   1.221   5.629   0.913 -0.7083 -0.0170  2.2202
 6556TIP3    H219610   1.089   5.693   0.950 -0.7982  1.9115 -1.0990
 6557TIP3   OH219611   2.277   0.130   0.445 -0.0585 -0.2012 -0.2617
 6557TIP3    H119612   2.233   0.048   0.423  1.3249 -0.4375 -2.3487
 6557TIP3    H219613   2.370   0.111   0.434  0.4489  1.0470  1.4440
 6558TIP3   OH219614   2.469   6.791   2.522 -0.9103  0.5385 -0.2350
 6558TIP3    H119615   2.516   6.714   2.555 -0.8766  0.0995 -1.2715
 6558TIP3    H219616   2.532   6.863   2.531 -1.3284  0.7136  1.8014
 6559TIP3   OH219617   8.169   6.160   0.123 -0.2663 -0.1386 -0.0607
 6559TIP3    H119618   8.106   6.088   0.118 -0.8252  0.1914  1.6548
 6559TIP3    H219619   8.126   6.232   0.076 -0.6467 -0.2808  0.0639
 6560TIP3   OH219620   2.634   3.244   1.941 -0.2910 -0.1585  0.3961
 6560TIP3    H119621   2.672   3.324   1.905 -0.2879 -0.5626 -0.5071
 6560TIP3    H219622   2.543   3.244   1.911  0.2095 -1.4459 -1.2669
 6561TIP3   OH219623   7.352   5.175   2.459 -0.1048  0.0355 -0.6969
 6561TIP3    H119624   7.299   5.149   2.534  1.1328  1.2818  0.6678
 6561TIP3    H219625   7.343   5.270   2.455  1.4971  0.2060 -0.8226
 6562TIP3   OH219626   2.371   1.043   6.288  0.2820  0.4070  0.0999
 6562TIP3    H119627   2.405   1.068   6.374 -1.9925 -0.8548  1.4822
 6562TIP3    H219628   2.417   0.962   6.267 -0.1379 -0.0358  0.8334
 6563TIP3   OH219629   3.997   2.928   3.604 -0.3318  0.5523 -0.3246
 6563TIP3    H119630   4.016   3.021   3.622 -1.9623  0.6436  1.3158
 6563TIP3    H219631   4.075   2.882   3.634 -1.1839  1.1107  3.2941
 6564TIP3   OH219632   5.460   2.267   0.966 -0.9762  0.1870 -0.0236
 6564TIP3    H119633   5.400   2.276   0.892 -0.0818  1.5574 -0.6211
 6564TIP3    H219634   5.547   2.258   0.925 -0.6070 -0.3482  0.8518
 6565TIP3   OH219635   4.151   1.912   1.263  0.0354 -0.8228 -0.2391
 6565TIP3    H119636   4.246   1.902   1.269 -0.0411 -1.0428  0.6042
 6565TIP3    H219637   4.132   1.903   1.169  0.9314 -0.0154 -0.5127
 6566TIP3   OH219638   2.594   7.512   3.396  0.4119 -0.2900 -0.0264
 6566TIP3    H119639   2.656   7.440   3.406  0.7919  0.1462  0.8951
 6566TIP3    H219640   2.603   7.563   3.477 -1.8988 -0.7924  0.6324
 6567TIP3   OH219641   6.345   2.076   6.260 -0.1024  0.0440  0.3490
 6567TIP3    H119642   6.432   2.041   6.278 -0.1207 -0.2435 -0.0960
 6567TIP3    H219643   6.352   2.114   6.172 -0.3054  0.4288  0.4946
 6568TIP3   OH219644   7.153   1.491   3.063 -0.5780  0.0889 -0.3559
 6568TIP3    H119645   7.094   1.561   3.090 -0.4555 -0.5601  1.7321
 6568TIP3    H219646   7.117   1.412   3.103  1.4083 -0.4108  0.5577
 6569TIP3   OH219647   7.170   6.613   6.832 -0.1289  0.0292  0.4551
 6569TIP3    H119648   7.087   6.646   6.796  0.7602  2.0979  0.1301
 6569TIP3    H219649   7.162   6.628   6.926 -0.2452 -0.0514  0.4581
 6570TIP3   OH219650   0.563   1.803   0.980 -0.1427 -0.1683 -0.2986
 6570TIP3    H119651   0.627   1.859   0.936  0.1082 -1.7823 -2.1200
 6570TIP3    H219652   0.609   1.720   0.993 -1.4258 -0.9167 -0.3707
 6571TIP3   OH219653   5.205   4.645   1.096 -0.2329  0.2490 -0.3255
 6571TIP3    H119654   5.283   4.590   1.092  0.3238  1.0667 -1.0377
 6571TIP3    H219655   5.155   4.621   1.018  0.5384  1.4681 -1.2501
 6572TIP3   OH219656   5.251   0.251   4.032 -0.4015  0.2068 -0.3563
 6572TIP3    H119657   5.206   0.330   4.002 -0.1959  1.2693  1.9223
 6572TIP3    H219658   5.261   0.264   4.127  1.5074 -1.6131 -0.2428
 6573TIP3   OH219659   3.461   4.590   5.867 -0.4868  0.7574 -0.1469
 6573TIP3    H119660   3.443   4.608   5.959  0.3846  1.4211 -0.0958
 6573TIP3    H219661   3.494   4.500   5.867 -0.2725  0.8331  0.2235
 6574TIP3   OH219662   2.174   1.064   1.716  0.0038  0.2450  0.3114
 6574TIP3    H119663   2.140   1.034   1.801 -0.1666  0.5359  0.3480
 6574TIP3    H219664   2.112   1.031   1.652 -1.1769  1.9807  0.4895
 6575TIP3   OH219665   4.021   0.737   1.557 -0.5317 -0.7494  0.1796
 6575TIP3    H119666   3.978   0.760   1.475  0.6116 -3.2936 -1.2641
 6575TIP3    H219667   4.101   0.789   1.559 -1.1871  0.2695  0.3552
 6576TIP3   OH219668   3.956   4.102   1.312 -0.0995 -0.1513  0.4416
 6576TIP3    H119669   3.974   4.088   1.405 -1.9759 -0.3746  0.8178
 6576TIP3    H219670   3.873   4.057   1.297  1.1846 -1.9422 -1.8661
 6577TIP3   OH219671   4.257   3.050   1.222 -0.3182  0.4209  0.1553
 6577TIP3    H119672   4.256   3.115   1.151 -0.0185  0.9712  0.6478
 6577TIP3    H219673   4.350   3.032   1.236 -0.3418  0.8114  0.8522
 6578TIP3   OH219674   7.114   4.284   0.161 -0.4415  0.9865  0.1083
 6578TIP3    H119675   7.199   4.241   0.168 -0.4123  0.9981 -0.1679
 6578TIP3    H219676   7.099   4.322   0.248  0.1469  1.5782 -0.0451
 6579TIP3   OH219677   3.577   2.857   6.849 -0.1201 -0.0147 -0.2598
 6579TIP3    H119678   3.553   2.765   6.865  2.8699 -0.6915  0.8949
 6579TIP3    H219679   3.586   2.862   6.754 -0.1786 -0.9799 -0.3331
 6580TIP3   OH219680   2.009   5.129   5.628  0.1990  0.4902 -0.0486
 6580TIP3    H119681   1.924   5.099   5.596  1.2863 -1.6815 -1.1499
 6580TIP3    H219682   2.023   5.213   5.586 -1.5933  1.1116  0.5385
 6581TIP3   OH219683   4.008   3.655   0.206  0.3037  0.0629  0.5451
 6581TIP3    H119684   3.999   3.638   0.300  0.9695 -0.1119  0.5774
 6581TIP3    H219685   4.037   3.572   0.169  1.2456  0.4659  0.3669
 6582TIP3   OH219686   4.766   6.010   1.774  0.2594  0.6658 -0.4628
 6582TIP3    H119687   4.845   6.012   1.720  0.5044  1.1519 -0.0885
 6582TIP3    H219688   4.796   6.037   1.861  0.1319 -1.3890  0.2711
 6583TIP3   OH219689   2.959   3.843   3.774 -0.2904 -0.3980 -0.2565
 6583TIP3    H119690   2.996   3.769   3.727 -0.0698 -0.1710 -0.4460
 6583TIP3    H219691   2.907   3.890   3.709 -0.1018 -0.1655 -0.2459
 6584TIP3   OH219692   5.646   2.972   6.859 -0.3261 -0.2497  0.0185
 6584TIP3    H119693   5.645   3.037   6.788 -0.0984  2.1849  2.1103
 6584TIP3    H219694   5.559   2.933   6.857  0.3415 -1.9749 -2.9527
 6585TIP3   OH219695   1.894   6.331   4.721  0.6780 -0.0826 -0.2804
 6585TIP3    H119696   1.822   6.393   4.707  1.0007  0.0594 -1.3645
 6585TIP3    H219697   1.943   6.368   4.795 -0.2804 -0.1149  0.3815
 6586TIP3   OH219698   4.955   0.932   2.548 -0.8057 -0.4164 -0.6463
 6586TIP3    H119699   4.898   0.934   2.625 -0.4185 -0.6895 -0.3462
 6586TIP3    H219700   4.897   0.908   2.475 -1.2026 -0.0013 -0.4706
 6587TIP3   OH219701   0.616   3.748   4.772  0.8594  0.0303  0.5255
 6587TIP3    H119702   0.545   3.793   4.817 -0.7190 -1.9971  0.1681
 6587TIP3    H219703   0.681   3.731   4.840  0.1050  0.1509  1.2788
 6588TIP3   OH219704   5.930   6.812   2.279 -0.0743 -0.0947  0.7209
 6588TIP3    H119705   5.880   6.891   2.257 -0.4099 -0.3888  0.4039
 6588TIP3    H219706   6.017   6.845   2.303 -0.6018  0.4746  1.9375
 6589TIP3   OH219707   0.195   3.915   1.757  0.1860 -0.3133  0.0166
 6589TIP3    H119708   0.288   3.908   1.778 -0.1267  0.7077  1.9269
 6589TIP3    H219709   0.151   3.872   1.830 -0.8663 -0.0894 -0.4729
 6590TIP3   OH219710   2.444   1.084   4.291 -0.5913  0.2993 -0.3542
 6590TIP3    H119711   2.456   1.179   4.288 -1.1906  0.5084  1.8556
 6590TIP3    H219712   2.442   1.063   4.385  0.1341 -1.9884 -0.7910
 6591TIP3   OH219713   6.094   4.558   2.377 -0.1552 -0.3588 -0.4679
 6591TIP3    H119714   6.171   4.596   2.420  1.5680 -1.6232 -2.2839
 6591TIP3    H219715   6.039   4.633   2.357  0.7687  0.6384  0.5502
 6592TIP3   OH219716   5.815   3.182   3.019  0.1595  0.1916 -0.7190
 6592TIP3    H119717   5.749   3.211   2.956 -0.2072  0.7509 -0.1015
 6592TIP3    H219718   5.894   3.229   2.995 -0.2698  1.2700 -0.1068
 6593TIP3   OH219719   2.600   3.855   1.503  0.3465  0.0583  0.5411
 6593TIP3    H119720   2.505   3.842   1.492  0.2412  0.1532  1.3187
 6593TIP3    H219721   2.627   3.900   1.423 -0.8883  3.1980  1.7397
 6594TIP3   OH219722   5.231   2.381   4.888 -0.1540  0.0407  0.1459
 6594TIP3    H119723   5.195   2.462   4.853 -2.7915 -0.8236  0.6321
 6594TIP3    H219724   5.242   2.324   4.812  1.7430  0.8113 -0.2009
 6595TIP3   OH219725   4.723   3.505   5.607  0.6245 -0.5642 -0.4899
 6595TIP3    H119726   4.786   3.513   5.679 -0.1741 -0.9717  0.2717
 6595TIP3    H219727   4.646   3.465   5.648 -0.3076  0.3792 -1.3009
 6596TIP3   OH219728   3.067   1.728   0.504  0.5851  0.4845 -0.0275
 6596TIP3    H119729   3.026   1.663   0.446 -0.0593 -0.1325  1.1015
 6596TIP3    H219730   3.100   1.677   0.578  0.1691  1.4220  0.8246
 6597TIP3   OH219731   0.858   2.438   6.727  0.2127  0.0520  0.1068
 6597TIP3    H119732   0.933   2.496   6.738 -0.5678  1.2015 -0.4429
 6597TIP3    H219733   0.811   2.443   6.810  0.2289  0.0704  0.1150
 6598TIP3   OH219734   4.160   1.805   1.727 -0.1543 -0.5790 -0.4370
 6598TIP3    H119735   4.117   1.721   1.739  0.1769 -1.0340 -2.0897
 6598TIP3    H219736   4.089   1.869   1.724 -0.5898 -1.0787 -1.1837
 6599TIP3   OH219737   5.107   3.873   0.131 -0.8401 -0.6434  0.1366
 6599TIP3    H119738   5.053   3.947   0.103 -0.7398 -1.1248 -1.4377
 6599TIP3    H219739   5.049   3.822   0.189 -1.3362 -0.0199  0.2039
 6600TIP3   OH219740   7.959   3.980   6.139  0.1773  0.2333  0.7553
 6600TIP3    H119741   7.925   3.965   6.051  0.4717  0.6703  0.5613
 6600TIP3    H219742   7.940   3.899   6.186  1.0360 -0.4490 -0.0350
 6601TIP3   OH219743   0.869   7.284   4.195  0.6064  0.1388 -0.4399
 6601TIP3    H119744   0.915   7.206   4.164 -1.1254 -0.9810 -0.2963
 6601TIP3    H219745   0.885   7.287   4.289 -1.5689 -1.7182  0.0891
 6602TIP3   OH219746   6.949   5.727   0.794 -0.1132  0.0483 -0.4128
 6602TIP3    H119747   6.974   5.645   0.750  1.1206 -0.1076  0.5286
 6602TIP3    H219748   7.017   5.741   0.860 -1.4701  0.7106  0.9070
 6603TIP3   OH219749   3.277   3.690   4.756 -0.1063  0.5445  0.3836
 6603TIP3    H119750   3.240   3.668   4.671 -0.7534  0.2545  0.7328
 6603TIP3    H219751   3.254   3.616   4.812  0.9354  0.4063  0.6337
 6604TIP3   OH219752   7.024   4.200   5.825  0.4173 -0.6963  0.0164
 6604TIP3    H119753   6.961   4.134   5.795 -1.3637  1.5645 -1.6027
 6604TIP3    H219754   6.972   4.258   5.881  1.1803  0.8623 -0.8309
 6605TIP3   OH219755   2.188   0.943   0.821 -0.3089  0.2043 -0.3232
 6605TIP3    H119756   2.204   1.037   0.818  1.2920 -0.0488 -0.5507
 6605TIP3    H219757   2.245   0.911   0.890 -1.7397 -0.4690  0.6030
 6606TIP3   OH219758   2.936   5.103   5.929 -0.4336 -0.0096 -0.1317
 6606TIP3    H119759   3.005   5.132   5.989 -1.5046 -1.4435  1.9237
 6606TIP3    H219760   2.857   5.099   5.983 -1.4506 -1.4698 -1.6063
 6607TIP3   OH219761   2.174   5.513   1.109  0.5377  0.1265 -0.5822
 6607TIP3    H119762   2.245   5.539   1.167 -1.0109 -0.3407  1.6603
 6607TIP3    H219763   2.127   5.594   1.091  0.9496  0.2515 -1.1467
 6608TIP3   OH219764   0.197   6.718   5.907 -0.4096  0.4102  0.4615
 6608TIP3    H119765   0.234   6.737   5.821  0.9830 -0.9317  0.7162
 6608TIP3    H219766   0.200   6.802   5.953 -1.3330  1.1833 -0.8250
 6609TIP3   OH219767   2.018   2.869   0.898  0.1078 -0.2670 -0.1028
 6609TIP3    H119768   1.959   2.942   0.911  0.8310  0.3499 -0.2209
 6609TIP3    H219769   1.961   2.794   0.880 -0.5689  0.6502 -1.9162
 6610TIP3   OH219770   1.124   1.593   4.782 -0.0421 -0.3319  0.2858
 6610TIP3    H119771   1.046   1.600   4.728 -0.0884 -0.3604  0.3483
 6610TIP3    H219772   1.115   1.509   4.827  1.0006 -1.2956 -1.2227
 6611TIP3   OH219773   7.466   4.924   0.107  0.3416 -0.1369 -0.2900
 6611TIP3    H119774   7.390   4.867   0.106  0.9110 -0.9293  0.1968
 6611TIP3    H219775   7.448   4.989   0.039 -0.9760 -0.0133  0.1587
 6612TIP3   OH219776   7.916   4.542   3.734 -0.2989 -0.0126  0.4581
 6612TIP3    H119777   7.843   4.581   3.782  1.5433  1.9804  1.8730
 6612TIP3    H219778   7.954   4.479   3.796 -0.8798 -1.1376 -0.3163
 6613TIP3   OH219779   7.618   3.277   3.924 -0.5513 -0.2744 -0.2650
 6613TIP3    H119780   7.564   3.332   3.867  0.3979 -1.1473 -2.0730
 6613TIP3    H219781   7.560   3.256   3.998 -1.7350  1.1005 -0.7541
 6614TIP3   OH219782   2.614   3.278   0.119 -0.7301 -0.1697 -0.1720
 6614TIP3    H119783   2.573   3.196   0.143 -0.7532  0.1625  1.0172
 6614TIP3    H219784   2.649   3.263   0.031  2.1186 -2.5815  1.1725
 6615TIP3   OH219785   4.490   6.938   4.422  0.0737 -0.2083  0.1951
 6615TIP3    H119786   4.531   6.852   4.421 -0.4517 -0.4942 -1.9257
 6615TIP3    H219787   4.559   6.997   4.392 -0.0085 -0.1413  0.1367
 6616TIP3   OH219788   3.085   0.794   2.082  0.2466 -0.4968  0.6030
 6616TIP3    H119789   3.050   0.819   1.997  1.4303  1.3470  0.5796
 6616TIP3    H219790   3.009   0.774   2.136 -0.7691  1.7796  0.1064
 6617TIP3   OH219791   1.500   7.044   4.169  0.3720  0.3140 -0.5102
 6617TIP3    H119792   1.595   7.051   4.159  0.2122  0.6857 -1.9931
 6617TIP3    H219793   1.476   7.117   4.225  0.9244  0.4419 -0.4404
 6618TIP3   OH219794   6.309   3.861   0.876  0.1295 -0.5445  0.0450
 6618TIP3    H119795   6.280   3.813   0.798 -0.7284 -0.1190  0.0861
 6618TIP3    H219796   6.229   3.873   0.927  0.8097 -1.5806  1.4250
 6619TIP3   OH219797   6.532   3.373   5.482  0.0186  0.4582 -0.2152
 6619TIP3    H119798   6.486   3.291   5.498  1.6537 -0.3352  0.7013
 6619TIP3    H219799   6.601   3.350   5.420  1.5899  0.6876  1.3600
 6620TIP3   OH219800   5.603   3.588   5.418  0.0868  0.0978 -0.3343
 6620TIP3    H119801   5.517   3.587   5.377  0.4741 -0.9831 -1.1587
 6620TIP3    H219802   5.589   3.552   5.505  0.1243 -2.6808 -1.4023
 6621TIP3   OH219803   4.994   1.476   6.353  0.2648 -0.3653 -0.1914
 6621TIP3    H119804   5.003   1.455   6.260  0.0229  1.9778 -0.8095
 6621TIP3    H219805   4.920   1.423   6.383 -0.6482 -0.0200 -1.7461
 6622TIP3   OH219806   0.773   0.478   3.217 -0.0387  0.2351  0.0799
 6622TIP3    H119807   0.734   0.410   3.272 -0.3427 -0.6951 -1.2225
 6622TIP3    H219808   0.793   0.433   3.135 -1.8338  2.0948 -1.4950
 6623TIP3   OH219809   0.168   5.838   1.680  0.0410  0.1746 -0.2163
 6623TIP3    H119810   0.126   5.907   1.731 -2.9335 -2.5108  1.3104
 6623TIP3    H219811   0.111   5.826   1.604 -0.0248 -1.1321  0.0082
 6624TIP3   OH219812   4.551   2.149   4.287 -0.0566  0.0391  0.2042
 6624TIP3    H119813   4.567   2.132   4.195 -0.8256  0.6607 -0.0583
 6624TIP3    H219814   4.522   2.066   4.323 -1.1523  0.1288 -0.4421
 6625TIP3   OH219815   5.898   0.485   5.923  0.0758  0.0066  0.7183
 6625TIP3    H119816   5.817   0.503   5.875  0.5776  2.9016  0.7709
 6625TIP3    H219817   5.869   0.459   6.010 -0.7937 -0.7042  0.2313
 6626TIP3   OH219818   6.720   3.075   4.329 -0.0820  0.1631 -0.2055
 6626TIP3    H119819   6.685   3.162   4.347  1.7122  0.7029  0.9822
 6626TIP3    H219820   6.679   3.018   4.394 -0.5712  0.2801 -0.4047
 6627TIP3   OH219821   4.853   1.358   3.663 -0.0531  0.5000 -0.1156
 6627TIP3    H119822   4.935   1.314   3.689 -0.2052  0.2382 -0.0726
 6627TIP3    H219823   4.874   1.400   3.580 -0.0097  0.0365 -0.3432
 6628TIP3   OH219824   5.409   4.837   0.304  0.4090 -1.0647  0.2810
 6628TIP3    H119825   5.384   4.826   0.396  2.3722 -2.4745  0.7102
 6628TIP3    H219826   5.402   4.931   0.289 -2.4149 -1.0505  1.0745
 6629TIP3   OH219827   6.395   6.661   6.685  0.2017  0.5526  0.1348
 6629TIP3    H119828   6.481   6.703   6.691  0.8445 -0.1582 -2.5957
 6629TIP3    H219829   6.332   6.732   6.698  1.2405  1.6299 -0.4717
 6630TIP3   OH219830   1.570   4.833   2.025  0.1279 -0.1373  0.4621
 6630TIP3    H119831   1.542   4.810   1.937 -1.5452 -1.5835  1.3044
 6630TIP3    H219832   1.651   4.785   2.039 -0.9663 -2.0225  0.5838
 6631TIP3   OH219833   4.147   2.816  -0.028 -0.1479  0.2417 -0.8095
 6631TIP3    H119834   4.083   2.771   0.027  1.0792 -0.2699  0.2540
 6631TIP3    H219835   4.212   2.850   0.034  1.1627 -0.1584 -1.9102
 6632TIP3   OH219836   7.151   6.169   4.608 -0.4461 -0.6324 -0.5460
 6632TIP3    H119837   7.127   6.254   4.571 -0.6983 -0.7013 -0.5463
 6632TIP3    H219838   7.130   6.176   4.701  0.6025 -0.3099 -0.3280
 6633TIP3   OH219839   3.659   3.429   1.402 -0.3747  0.3536  0.0650
 6633TIP3    H119840   3.749   3.436   1.373 -0.3003  0.5192  0.3325
 6633TIP3    H219841   3.623   3.517   1.391  0.5341  1.3008  3.3443
 6634TIP3   OH219842   5.574   7.262   2.006  0.1277 -0.3586 -0.5481
 6634TIP3    H119843   5.526   7.340   1.978 -0.5355 -0.8521 -0.8146
 6634TIP3    H219844   5.651   7.296   2.052 -0.2066  0.4489 -0.5754
 6635TIP3   OH219845   4.688   5.549   6.429  0.1643  0.3032 -0.3996
 6635TIP3    H119846   4.685   5.471   6.373  0.7413  0.8629 -1.2296
 6635TIP3    H219847   4.706   5.621   6.369 -1.2578  1.2170  0.2173
 6636TIP3   OH219848   3.327   5.424   4.095 -0.6497 -0.4168  0.1925
 6636TIP3    H119849   3.351   5.442   4.185 -2.3602  1.0634  0.4204
 6636TIP3    H219850   3.378   5.486   4.043  0.8789 -1.7497  0.0153
 6637TIP3   OH219851   6.064   2.051   3.260  1.1685 -0.6898 -0.5864
 6637TIP3    H119852   6.034   2.003   3.183  0.9350  0.3925 -1.1969
 6637TIP3    H219853   6.159   2.044   3.258  1.1405 -0.9958 -0.7570
 6638TIP3   OH219854   1.601   6.151   0.693 -0.4529 -0.2955 -0.1412
 6638TIP3    H119855   1.620   6.240   0.665 -0.5059 -0.3158 -0.2426
 6638TIP3    H219856   1.541   6.160   0.766 -1.8871 -0.2968 -1.2812
 6639TIP3   OH219857   5.448   5.235   0.883 -0.0998 -0.1156  0.1060
 6639TIP3    H119858   5.372   5.250   0.826  0.0159  1.2689  0.2758
 6639TIP3    H219859   5.412   5.184   0.956 -0.6125 -0.4594 -0.3728
 6640TIP3   OH219860   5.961   3.192   0.103  0.0535  0.1252  0.2212
 6640TIP3    H119861   6.008   3.238   0.173  0.4886 -0.4005  0.2756
 6640TIP3    H219862   5.971   3.100   0.123  2.9853 -0.2735 -2.2221
 6641TIP3   OH219863   4.937   4.556   4.748  0.4643  0.8803 -0.3799
 6641TIP3    H119864   4.909   4.648   4.749  2.2267  1.4599  0.5667
 6641TIP3    H219865   5.019   4.557   4.699  0.2546 -0.2849 -0.7779
 6642TIP3   OH219866   6.263   3.626  -0.012  0.3707 -0.0276 -0.4436
 6642TIP3    H119867   6.246   3.614   0.082 -0.3505  1.7528 -0.3159
 6642TIP3    H219868   6.358   3.614  -0.021  0.4764 -0.0214  0.5421
 6643TIP3   OH219869   5.104   0.137   0.397  0.1095 -0.4013 -1.0272
 6643TIP3    H119870   5.149   0.143   0.481 -1.6247 -0.1521 -0.0732
 6643TIP3    H219871   5.156   0.191   0.338  1.0957 -0.1997 -0.0047
 6644TIP3   OH219872   2.811   1.231   6.685 -0.0867  0.3347  0.1712
 6644TIP3    H119873   2.803   1.282   6.766 -0.7254  0.9953 -0.2922
 6644TIP3    H219874   2.818   1.140   6.714 -1.6249  0.4265  0.9411
 6645TIP3   OH219875   0.779   0.524   4.912  0.0413  0.3892  0.1471
 6645TIP3    H119876   0.837   0.552   4.982 -0.0811 -0.6212  0.6702
 6645TIP3    H219877   0.695   0.565   4.932  0.2313  0.8043  0.1025
 6646TIP3   OH219878   7.951   4.863   4.833 -0.1209 -0.0849 -0.2272
 6646TIP3    H119879   7.951   4.851   4.738 -0.3549  2.3388 -0.6115
 6646TIP3    H219880   7.859   4.880   4.855  0.1933  1.3011  0.0996
 6647TIP3   OH219881   0.258   5.700   0.262 -0.1449  0.3923 -0.5394
 6647TIP3    H119882   0.199   5.774   0.243  0.4170  0.5631 -1.7371
 6647TIP3    H219883   0.212   5.650   0.329 -0.8309  1.4896 -0.1454
 6648TIP3   OH219884   5.967   4.114   2.256  0.2938  0.4706  0.2419
 6648TIP3    H119885   5.949   4.021   2.243  0.7550  0.4206 -0.0728
 6648TIP3    H219886   6.063   4.119   2.264  0.1215  0.5749  3.1063
 6649TIP3   OH219887   0.023   6.184   5.130 -0.2858 -0.6581 -0.6382
 6649TIP3    H119888   0.021   6.175   5.035  2.8166 -0.9814 -0.8020
 6649TIP3    H219889   0.112   6.156   5.154 -0.9019 -0.3856  2.3409
 6650TIP3   OH219890   2.956   7.416   2.939  0.1843  0.1147 -0.1863
 6650TIP3    H119891   2.954   7.490   3.000 -1.3339  0.9015 -1.1185
 6650TIP3    H219892   3.005   7.449   2.864 -0.8549  0.3640 -0.7808
 6651TIP3   OH219893   7.349   7.763   1.111  0.1612 -0.5374 -0.2715
 6651TIP3    H119894   7.416   7.708   1.151  1.0258 -0.0838 -1.0627
 6651TIP3    H219895   7.398   7.823   1.054 -0.5985  1.9321  1.4930
 6652TIP3   OH219896   0.815   7.207   0.545  0.1807 -0.3013  0.4752
 6652TIP3    H119897   0.873   7.276   0.513  1.0967 -0.9442  0.7050
 6652TIP3    H219898   0.872   7.130   0.555 -0.6462 -0.8647  1.0104
 6653TIP3   OH219899   5.548   0.152   5.583 -0.0684  1.3609 -0.3967
 6653TIP3    H119900   5.518   0.139   5.493  0.2367 -2.0106 -0.1421
 6653TIP3    H219901   5.640   0.174   5.574  0.3814 -0.5279 -0.9681
 6654TIP3   OH219902   1.936   5.304   3.287  0.1377 -0.5114  0.4781
 6654TIP3    H119903   2.023   5.292   3.250 -0.6185 -1.4253 -1.1225
 6654TIP3    H219904   1.949   5.302   3.382  2.1392  1.6888  0.3369
 6655TIP3   OH219905   0.928   7.663   2.998  0.1548 -0.2260  0.3309
 6655TIP3    H119906   0.988   7.720   3.045  0.1514 -1.2950  1.6762
 6655TIP3    H219907   0.928   7.581   3.047  0.1318 -1.3936 -1.5280
 6656TIP3   OH219908   0.857   0.710   3.331 -0.2513 -0.3695  0.2312
 6656TIP3    H119909   0.822   0.647   3.268  0.3329 -2.5608  1.9630
 6656TIP3    H219910   0.784   0.728   3.391 -0.3448  0.4447 -0.1152
 6657TIP3   OH219911   5.725   5.011   6.057 -0.3490 -0.1191  0.3050
 6657TIP3    H119912   5.737   5.102   6.084 -1.4691 -0.3147  1.5731
 6657TIP3    H219913   5.727   4.962   6.139 -0.7575 -1.1181 -0.2746
 6658TIP3   OH219914   7.327   4.315   5.682  0.3998 -0.5100  0.2504
 6658TIP3    H119915   7.265   4.366   5.735  0.6309 -0.3031  0.3189
 6658TIP3    H219916   7.375   4.381   5.631 -0.3098 -0.7345 -0.7618
 6659TIP3   OH219917   1.872   1.670   6.542  0.1982 -0.7379 -0.0852
 6659TIP3    H119918   1.952   1.631   6.507 -0.5292 -1.4264 -1.0227
 6659TIP3    H219919   1.803   1.641   6.482 -0.7769 -0.2733  0.7885
 6660TIP3   OH219920   5.103   0.709   0.841 -0.0257  0.0214  1.0034
 6660TIP3    H119921   5.180   0.766   0.848 -0.7377  1.0433  0.8499
 6660TIP3    H219922   5.051   0.749   0.771  0.0443 -1.5631  0.0144
 6661TIP3   OH219923   8.394   5.738   6.672 -0.0995 -0.0776  0.0223
 6661TIP3    H119924   8.308   5.780   6.674 -0.2403 -0.3936  0.9143
 6661TIP3    H219925   8.376   5.647   6.647  0.1816  0.3091 -1.6796
 6662TIP3   OH219926   7.183   4.338   4.003 -0.1737  0.5099  0.0958
 6662TIP3    H119927   7.100   4.345   4.051 -0.7943  1.1181 -1.0138
 6662TIP3    H219928   7.165   4.380   3.919 -0.0771 -3.1842 -1.9336
 6663TIP3   OH219929   7.303   0.365   2.405 -0.5199 -0.0750  0.2880
 6663TIP3    H119930   7.287   0.436   2.342 -3.3601 -0.1682  0.7898
 6663TIP3    H219931   7.231   0.304   2.392  1.1798 -2.3215  0.7329
 6664TIP3   OH219932   5.096   1.444   3.128 -0.4099  0.2567  0.7269
 6664TIP3    H119933   5.103   1.374   3.193 -0.8352 -0.9790 -0.5244
 6664TIP3    H219934   5.185   1.458   3.097 -0.3435  0.1771  0.8828
 6665TIP3   OH219935   5.068   0.955   0.599  0.2993 -0.2313 -0.5010
 6665TIP3    H119936   5.034   0.935   0.512  1.0355  0.5179 -0.9821
 6665TIP3    H219937   4.995   0.995   0.645  0.1197  0.0715 -1.0405
 6666TIP3   OH219938   2.398   5.222   2.984  0.0533  0.0981  0.0097
 6666TIP3    H119939   2.427   5.301   2.938  1.3577 -0.7495 -0.6937
 6666TIP3    H219940   2.472   5.199   3.041  0.5393 -1.7278 -1.2877
 6667TIP3   OH219941   2.255   3.835   1.752  0.6940 -0.1959 -0.4745
 6667TIP3    H119942   2.302   3.919   1.756 -0.0173  0.1650  0.4562
 6667TIP3    H219943   2.186   3.843   1.817 -0.5149 -0.8181 -1.6395
 6668TIP3   OH219944   4.513   7.095   5.869 -0.6826 -0.6744  0.2575
 6668TIP3    H119945   4.586   7.071   5.811 -1.2690  0.2854 -0.9181
 6668TIP3    H219946   4.478   7.176   5.831  1.3748  2.3552  4.1441
 6669TIP3   OH219947   4.902   1.441   2.032 -0.4887  0.1676 -0.6272
 6669TIP3    H119948   4.874   1.356   1.997 -0.6614 -0.6820  1.3887
 6669TIP3    H219949   4.947   1.419   2.114 -2.1501  2.0880  0.9273
 6670TIP3   OH219950   0.024   2.324   3.139 -0.4891  0.3350 -0.6219
 6670TIP3    H119951   0.020   2.230   3.158  0.0774  0.2977 -0.6716
 6670TIP3    H219952   0.015   2.329   3.044 -0.5467  0.3282 -0.6164
 6671TIP3   OH219953   5.711   0.196   0.403  0.3795 -0.0040 -0.7376
 6671TIP3    H119954   5.652   0.166   0.333 -1.1736  0.8781  0.1433
 6671TIP3    H219955   5.737   0.284   0.376 -2.3838  1.4631  0.9790
 6672TIP3   OH219956   3.129   4.598   0.691  0.0844  0.2943 -0.2524
 6672TIP3    H119957   3.108   4.573   0.601 -0.7822  0.2485 -0.0476
 6672TIP3    H219958   3.069   4.670   0.710 -3.2834 -2.7511  1.8991
 6673TIP3   OH219959   0.725   0.014   5.957 -0.3329 -0.5533  0.1055
 6673TIP3    H119960   0.694   0.042   6.043  1.4432  3.8299 -0.4215
 6673TIP3    H219961   0.646   0.008   5.904 -1.1852 -0.2860  1.2981
 6674TIP3   OH219962   0.772   2.485   2.997 -0.2634  0.1000 -0.2287
 6674TIP3    H119963   0.849   2.522   3.039  0.2168 -0.3623 -0.6897
 6674TIP3    H219964   0.799   2.470   2.907 -0.8846 -0.0942 -0.3844
 6675TIP3   OH219965   1.287   5.513   1.282 -0.3899  0.3462 -0.0964
 6675TIP3    H119966   1.238   5.431   1.275 -0.9829  0.5117  1.6452
 6675TIP3    H219967   1.306   5.538   1.191 -1.1161 -1.1604 -0.6921
 6676TIP3   OH219968   1.610   5.519   1.450 -0.4259 -0.1054 -0.2057
 6676TIP3    H119969   1.574   5.464   1.379 -1.1297  1.2561 -0.9437
 6676TIP3    H219970   1.682   5.567   1.409  0.8426 -1.1623  0.6983
 6677TIP3   OH219971   4.638   4.587   5.043  0.2797  0.2421 -1.0725
 6677TIP3    H119972   4.611   4.678   5.052 -0.5079 -0.0166 -0.6818
 6677TIP3    H219973   4.690   4.585   4.963 -0.5360  0.8554 -1.6357
 6678TIP3   OH219974   0.208   7.143   1.273  0.3928  0.3081 -0.6831
 6678TIP3    H119975   0.302   7.133   1.261  0.3815 -0.2617 -0.2829
 6678TIP3    H219976   0.193   7.126   1.366 -0.3185 -1.3106 -1.0627
 6679TIP3   OH219977   6.098   5.407   3.296 -0.1702  0.1448  0.3172
 6679TIP3    H119978   6.093   5.358   3.378 -1.2155 -0.4593 -0.0807
 6679TIP3    H219979   6.026   5.469   3.300 -0.5908 -0.2820 -0.3790
 6680TIP3   OH219980   0.453   4.398   4.867 -0.3007 -0.4191 -0.1219
 6680TIP3    H119981   0.517   4.410   4.797 -0.9929 -1.2480 -0.9181
 6680TIP3    H219982   0.371   4.432   4.831 -0.6050 -0.5824  0.3964
 6681TIP3   OH219983  -0.002   2.937   3.440 -0.6812  0.0639  0.1746
 6681TIP3    H119984   0.086   2.917   3.409 -0.4240  2.3255 -0.7389
 6681TIP3    H219985  -0.006   3.032   3.442 -3.0890  0.0317  0.2641
 6682TIP3   OH219986   2.320   7.079   3.327  0.1661  0.3194 -0.2973
 6682TIP3    H119987   2.332   7.014   3.396  1.8139  0.6372 -0.2294
 6682TIP3    H219988   2.407   7.119   3.317 -0.7291  2.3409 -0.4855
 6683TIP3   OH219989   5.783   1.301   0.015 -0.0867  0.3423  0.4627
 6683TIP3    H119990   5.850   1.310   0.082 -0.4122  0.7390  0.7388
 6683TIP3    H219991   5.710   1.258   0.060 -0.0270 -0.0598  0.1729
 6684TIP3   OH219992   1.534   5.940   5.053  0.4614  0.0537  0.1685
 6684TIP3    H119993   1.495   5.853   5.059 -0.4551  0.1405 -3.0365
 6684TIP3    H219994   1.460   6.000   5.050  1.0220  0.7575  0.0920
 6685TIP3   OH219995   2.382   1.275   3.482  0.7081 -0.6961 -0.1667
 6685TIP3    H119996   2.316   1.341   3.502 -1.4082 -2.4818 -0.9245
 6685TIP3    H219997   2.449   1.287   3.549 -1.2498  0.0426  1.7594
 6686TIP3   OH219998   2.659   6.949   2.610 -0.1541  0.6009 -0.3930
 6686TIP3    H119999   2.754   6.946   2.598  0.0251  1.2105  0.7178
 6686TIP3    H220000   2.646   6.930   2.702 -1.0875  0.9492 -0.4427
 6687TIP3   OH220001   6.188   2.028   1.090  0.3647  0.2257 -0.3523
 6687TIP3    H120002   6.231   2.003   1.008 -1.4878 -0.1054 -1.2632
 6687TIP3    H220003   6.104   1.983   1.089 -1.1921  2.8980  0.0996
 6688TIP3   OH220004   4.350   4.209   2.744 -0.0693 -0.2688 -0.1754
 6688TIP3    H120005   4.304   4.127   2.764  0.5948 -0.4076  0.8562
 6688TIP3    H220006   4.283   4.276   2.751 -0.5364 -0.6749 -0.6392
 6689TIP3   OH220007   7.725   5.694   4.177  0.0276  0.7203 -0.1878
 6689TIP3    H120008   7.647   5.747   4.189  0.1327  0.9891 -0.6792
 6689TIP3    H220009   7.694   5.613   4.137 -0.1507  0.3490  0.6874
 6690TIP3   OH220010   8.158   3.035   6.477  0.2422 -0.7800  0.2623
 6690TIP3    H120011   8.078   3.064   6.431  1.1742  1.5287 -0.0143
 6690TIP3    H220012   8.197   2.971   6.417 -0.2098 -0.1727 -0.7219
 6691TIP3   OH220013   2.102   6.282   6.360  0.4159  0.0051  0.3126
 6691TIP3    H120014   2.039   6.350   6.380  0.9660  0.5015  0.3693
 6691TIP3    H220015   2.121   6.241   6.445 -0.8756 -1.0899  0.1146
 6692TIP3   OH220016   0.443   2.872   4.311 -0.7176 -0.1689  0.3818
 6692TIP3    H120017   0.400   2.948   4.273  0.3221 -0.1254 -0.7735
 6692TIP3    H220018   0.426   2.801   4.250  0.3301 -0.2861  0.2033
 6693TIP3   OH220019   3.937   1.096   3.238 -0.2690 -0.5180 -0.5870
 6693TIP3    H120020   4.022   1.115   3.278  0.0235  1.7902 -2.1036
 6693TIP3    H220021   3.874   1.106   3.309  0.5743 -0.6796  0.2084
 6694TIP3   OH220022   1.587   5.577   6.263  0.6388  0.7613 -0.1035
 6694TIP3    H120023   1.657   5.562   6.327 -1.3178 -0.4934  1.8485
 6694TIP3    H220024   1.529   5.640   6.305 -1.5762 -1.3473  0.1818
 6695TIP3   OH220025   7.119   1.251   5.171  0.2959  0.0458  0.3789
 6695TIP3    H120026   7.117   1.252   5.267  2.4181  0.3562  0.4757
 6695TIP3    H220027   7.085   1.336   5.144  0.5744  0.3321  0.9149
 6696TIP3   OH220028   3.329   0.607   5.269 -0.3814  0.2691 -0.3140
 6696TIP3    H120029   3.363   0.518   5.269  0.6646  0.6536 -0.2928
 6696TIP3    H220030   3.330   0.634   5.361 -1.3722  0.0651 -0.2324
 6697TIP3   OH220031   5.962   2.635   3.647  0.2050 -0.1492  0.4263
 6697TIP3    H120032   6.049   2.603   3.668  0.0833 -0.4639  0.4459
 6697TIP3    H220033   5.907   2.606   3.720 -0.1845 -1.1038 -0.2339
 6698TIP3   OH220034   4.269   2.508   2.404 -1.0814  0.2215  0.5344
 6698TIP3    H120035   4.238   2.470   2.486  2.0080 -1.7968  0.9349
 6698TIP3    H220036   4.284   2.432   2.347 -0.1384  1.3191 -0.7363
 6699TIP3   OH220037   4.008   6.193   6.816 -0.8138 -0.1262 -0.1984
 6699TIP3    H120038   3.937   6.150   6.767 -0.5877 -0.4971 -0.2058
 6699TIP3    H220039   3.980   6.187   6.907 -1.9991  1.9640 -0.3600
 6700TIP3   OH220040   5.345   0.850   0.893  0.8966 -0.8625 -0.1811
 6700TIP3    H120041   5.352   0.789   0.967 -0.6919  0.7392  1.3746
 6700TIP3    H220042   5.410   0.918   0.912 -0.0151 -0.0652  0.1732
 6701TIP3   OH220043   7.533   0.499   5.567  0.3656  0.3494  0.7545
 6701TIP3    H120044   7.476   0.435   5.610  1.3584 -0.1523  1.3696
 6701TIP3    H220045   7.506   0.583   5.602 -0.5758  0.2303  0.3682
 6702TIP3   OH220046   4.902   5.650   3.541  0.7119  0.4034  0.6297
 6702TIP3    H120047   4.837   5.719   3.532  0.4204 -0.1250 -1.9962
 6702TIP3    H220048   4.851   5.569   3.539  1.2418  0.0308  1.4585
 6703TIP3   OH220049   1.156   4.006   2.904 -0.7356 -0.2419 -0.2977
 6703TIP3    H120050   1.206   3.933   2.868 -1.9278 -1.1794 -0.1107
 6703TIP3    H220051   1.126   3.975   2.989  1.4880  1.6966  1.3253
 6704TIP3   OH220052   0.298   0.849   1.892  0.0385  0.1484 -0.2384
 6704TIP3    H120053   0.228   0.912   1.878 -0.9941 -0.7337  0.7172
 6704TIP3    H220054   0.306   0.842   1.987 -0.4279 -1.6953 -0.2951
 6705TIP3   OH220055   5.601   4.202   2.847  0.0052 -0.0941  0.1513
 6705TIP3    H120056   5.680   4.256   2.856 -0.4505  0.3873  1.4460
 6705TIP3    H220057   5.634   4.112   2.840  0.7121  0.2164 -0.7083
 6706TIP3   OH220058   6.717   5.859   2.132  0.1782 -0.4799  0.0014
 6706TIP3    H120059   6.638   5.806   2.135  1.0928 -2.5190 -4.3176
 6706TIP3    H220060   6.779   5.812   2.189 -0.5623 -1.1014  0.3108
 6707TIP3   OH220061   4.058   4.576   2.448 -0.1507  0.2059  0.4609
 6707TIP3    H120062   3.971   4.541   2.471  0.0267 -0.8811 -0.4516
 6707TIP3    H220063   4.089   4.519   2.378  1.2116  0.7315  0.6105
 6708TIP3   OH220064   4.307   0.981   1.301  0.4810 -0.2797  0.0251
 6708TIP3    H120065   4.351   0.943   1.225 -0.5949 -1.6493  0.0370
 6708TIP3    H220066   4.225   1.015   1.266  0.5669  0.2839  0.3622
 6709TIP3   OH220067   3.643   4.303   4.503  0.0901  0.4055 -0.2388
 6709TIP3    H120068   3.656   4.218   4.545 -0.2400 -0.5972 -2.0726
 6709TIP3    H220069   3.599   4.283   4.420 -1.8591  2.5607  0.1680
 6710TIP3   OH220070   4.672   6.268   0.294  0.2851 -0.5332 -0.3683
 6710TIP3    H120071   4.696   6.341   0.351  1.3031 -1.0904 -0.0566
 6710TIP3    H220072   4.599   6.226   0.339 -1.1648  0.9979 -1.1714
 6711TIP3   OH220073   0.059   6.943   5.585  0.4779  0.2216  0.2457
 6711TIP3    H120074   0.094   7.031   5.591 -0.5353  0.5289  3.0306
 6711TIP3    H220075   0.134   6.888   5.564  1.5504  1.4713  0.6911
 6712TIP3   OH220076   6.749   6.598   4.173  0.1934  0.4707  0.1021
 6712TIP3    H120077   6.687   6.654   4.220 -4.2486 -1.7736 -2.4510
 6712TIP3    H220078   6.758   6.521   4.228  0.9961  0.8938  0.5820
 6713TIP3   OH220079   7.218   0.943   2.813  0.1993  0.3108 -0.5952
 6713TIP3    H120080   7.290   1.004   2.799  0.3161  0.3560  0.1297
 6713TIP3    H220081   7.253   0.878   2.874 -0.3713  0.3454 -0.2137
 6714TIP3   OH220082   1.800   4.466   4.081 -0.5734  0.3924  0.6495
 6714TIP3    H120083   1.745   4.388   4.072 -1.9274  1.4418 -0.6552
 6714TIP3    H220084   1.851   4.468   4.000 -0.4537  0.7911  0.7344
 6715TIP3   OH220085   5.465   3.116   2.318  0.4787 -0.2868 -0.1233
 6715TIP3    H120086   5.395   3.180   2.317 -1.1360 -1.9077  1.1687
 6715TIP3    H220087   5.432   3.044   2.264  0.2080 -1.8863  2.0213
 6716TIP3   OH220088   0.492   7.909   4.419  0.1978  0.4328 -0.2457
 6716TIP3    H120089   0.408   7.956   4.420  0.6866  1.3608  1.5992
 6716TIP3    H220090   0.469   7.820   4.390 -1.7240  0.2183  1.6284
 6717TIP3   OH220091   2.429   6.349   6.632  0.0028 -0.1042  0.4547
 6717TIP3    H120092   2.455   6.343   6.724 -1.0801  0.3355  0.8102
 6717TIP3    H220093   2.469   6.273   6.590 -0.0229 -0.6654  1.4279
 6718TIP3   OH220094   6.996   6.278   0.438 -0.1152 -0.0898 -0.4460
 6718TIP3    H120095   6.928   6.270   0.371 -0.6234 -0.2125  0.0778
 6718TIP3    H220096   7.047   6.354   0.411 -0.4264 -0.0270 -0.8745
 6719TIP3   OH220097   0.212   2.235   5.696 -0.2626  0.2086 -0.1177
 6719TIP3    H120098   0.156   2.177   5.748 -0.4736 -0.2961 -0.8857
 6719TIP3    H220099   0.163   2.317   5.690 -0.3583  0.1805  0.2434
 6720TIP3   OH220100   3.344   5.585   0.703  0.0959 -0.2778 -0.2150
 6720TIP3    H120101   3.414   5.588   0.769 -0.2260 -2.2265  0.2609
 6720TIP3    H220102   3.350   5.497   0.666 -1.3326 -0.0456 -1.0374
 6721TIP3   OH220103   1.455   1.695   1.983 -0.5145 -0.4141  0.0900
 6721TIP3    H120104   1.400   1.633   2.030 -1.1597  0.2501  0.2347
 6721TIP3    H220105   1.526   1.642   1.947  0.1673 -0.9180  2.0325
 6722TIP3   OH220106   2.106   5.083   0.863 -0.0613 -0.0614 -0.5143
 6722TIP3    H120107   2.126   4.990   0.853  0.2797 -0.0849  0.3041
 6722TIP3    H220108   2.023   5.095   0.817 -0.3191 -0.8598 -0.2674
 6723TIP3   OH220109   0.300   4.421   1.662 -0.2220 -0.5240  0.3164
 6723TIP3    H120110   0.268   4.339   1.625 -0.4115 -0.2260 -0.1947
 6723TIP3    H220111   0.253   4.489   1.614  2.5989  0.0324 -1.9152
 6724TIP3   OH220112   4.928   0.100   4.405  0.0617  0.1896 -0.5211
 6724TIP3    H120113   4.945   0.013   4.368  0.4436 -0.1238  0.3775
 6724TIP3    H220114   5.000   0.115   4.465 -0.4059  0.8134 -0.1115
 6725TIP3   OH220115   2.076   3.529   3.801 -0.2697 -0.0800  0.0611
 6725TIP3    H120116   2.168   3.507   3.791 -0.0038  1.2178 -0.6468
 6725TIP3    H220117   2.066   3.556   3.892  0.6033  1.9640 -0.3831
 6726TIP3   OH220118   8.298   1.063   0.209 -0.0166 -0.9971  0.0538
 6726TIP3    H120119   8.393   1.057   0.193 -0.0093 -1.1285  0.1501
 6726TIP3    H220120   8.290   1.079   0.303 -0.0902 -0.9958  0.0473
 6727TIP3   OH220121   0.346   4.888   0.275  0.2718 -0.2229  0.2440
 6727TIP3    H120122   0.285   4.922   0.341 -0.1604 -2.7785  1.3190
 6727TIP3    H220123   0.337   4.792   0.282  2.1372 -0.6245 -1.7542
 6728TIP3   OH220124   3.533   6.998   4.917  0.2494  0.1911  0.3395
 6728TIP3    H120125   3.523   6.929   4.982 -1.4923 -0.4588 -0.5583
 6728TIP3    H220126   3.464   6.981   4.853 -0.1469  2.6635  0.0090
 6729TIP3   OH220127   1.046   2.618   6.757  0.3038  0.4234  0.6226
 6729TIP3    H120128   1.136   2.612   6.791  0.3499  0.0574  0.4452
 6729TIP3    H220129   1.009   2.695   6.800  1.0639  1.2402 -0.1472
 6730TIP3   OH220130   7.496   1.001   5.193 -0.2503  0.1949 -0.1949
 6730TIP3    H120131   7.432   1.048   5.246 -0.3694  1.5196 -1.4637
 6730TIP3    H220132   7.446   0.969   5.118  0.0729 -0.9905  0.0701
 6731TIP3   OH220133   4.669   6.136   3.652  0.5242 -0.1359  0.4278
 6731TIP3    H120134   4.675   6.226   3.684 -1.4822  0.0216  0.4602
 6731TIP3    H220135   4.626   6.143   3.567  1.2794 -1.0035 -0.0490
 6732TIP3   OH220136   4.564   4.876   0.324  0.7765 -0.4318 -0.1895
 6732TIP3    H120137   4.599   4.792   0.351  0.5220  0.2476  2.4666
 6732TIP3    H220138   4.641   4.934   0.319  0.6596 -0.2211  0.4387
 6733TIP3   OH220139   5.021   2.967   1.364  0.7004 -0.2191  0.1218
 6733TIP3    H120140   5.098   2.924   1.402  2.5423  2.3520 -0.4378
 6733TIP3    H220141   4.985   3.019   1.436 -0.1891 -0.9225  0.2076
 6734TIP3   OH220142   1.286   5.574   2.653  0.1930  1.0305  0.2231
 6734TIP3    H120143   1.205   5.619   2.629 -0.3871 -0.2274 -0.2933
 6734TIP3    H220144   1.346   5.592   2.580 -1.0504 -1.4767 -1.6124
 6735TIP3   OH220145   8.032   6.024   4.202 -0.4407  0.2175  0.8739
 6735TIP3    H120146   7.951   6.000   4.158 -0.6147 -0.4007  1.5143
 6735TIP3    H220147   8.067   6.096   4.149 -1.8134  1.0579  1.0549
 6736TIP3   OH220148   3.707   2.895   0.672  0.2447 -0.4613 -0.4081
 6736TIP3    H120149   3.783   2.919   0.725  0.6669 -1.0808 -0.7259
 6736TIP3    H220150   3.677   2.811   0.708  0.4561 -0.8240 -1.0578
 6737TIP3   OH220151   1.188   6.069   6.009  0.1058  0.2205  0.3747
 6737TIP3    H120152   1.093   6.059   5.999 -0.0915 -0.3185  2.3211
 6737TIP3    H220153   1.223   5.980   5.999  0.3232  0.3009  0.4070
 6738TIP3   OH220154   7.221   1.299   2.000  0.0860 -0.3677  0.1482
 6738TIP3    H120155   7.193   1.362   2.067 -0.0963 -0.6641  0.3560
 6738TIP3    H220156   7.162   1.224   2.012 -0.8122  0.0845 -1.1950
 6739TIP3   OH220157   3.931   3.546   2.515  0.3239 -0.0839 -0.0973
 6739TIP3    H120158   3.892   3.563   2.429  0.2329  1.1817  0.1753
 6739TIP3    H220159   3.858   3.553   2.576  0.8342  1.8160  0.3608
 6740TIP3   OH220160   8.236   3.463   1.737 -0.0862 -0.0748  0.4200
 6740TIP3    H120161   8.331   3.459   1.725  0.0590  1.2146  0.9513
 6740TIP3    H220162   8.220   3.419   1.821  0.0391 -0.2699  0.3422
 6741TIP3   OH220163   0.734   4.577   3.987 -0.0802  0.1464  0.4967
 6741TIP3    H120164   0.665   4.580   3.920  0.4685 -2.6595 -0.3148
 6741TIP3    H220165   0.696   4.624   4.061 -0.5840  3.7215 -1.7536
 6742TIP3   OH220166   2.084   7.180   6.175  0.2037  0.5165  0.0426
 6742TIP3    H120167   2.097   7.174   6.081 -0.8320 -0.5420 -0.0555
 6742TIP3    H220168   2.060   7.272   6.190  2.5166  1.2788 -0.3874
 6743TIP3   OH220169   3.053   7.564   1.668  0.4252 -0.0959  0.3245
 6743TIP3    H120170   3.125   7.571   1.606 -0.0963 -0.3973 -0.3349
 6743TIP3    H220171   3.012   7.480   1.648  0.8335 -0.6465  1.7351
 6744TIP3   OH220172   0.960   3.492   2.025  0.4792 -0.2042 -0.2886
 6744TIP3    H120173   1.050   3.488   2.057  1.1912  0.5503 -2.0994
 6744TIP3    H220174   0.909   3.520   2.101  2.0958  1.4973  0.2284
 6745TIP3   OH220175   7.367   4.548   0.886 -0.0508  0.4660 -0.4922
 6745TIP3    H120176   7.351   4.470   0.939 -0.7550  0.1695 -1.1191
 6745TIP3    H220177   7.415   4.515   0.810 -0.0446  0.6998 -0.5876
 6746TIP3   OH220178   1.179   5.519   5.598 -0.1388 -0.5876 -0.5199
 6746TIP3    H120179   1.229   5.532   5.518  0.0542  1.8682 -0.0847
 6746TIP3    H220180   1.120   5.446   5.578  0.3024 -0.4193 -2.6766
 6747TIP3   OH220181   0.555   0.024   1.236  0.2041  0.1399  0.2518
 6747TIP3    H120182   0.589  -0.042   1.297 -0.0372 -0.2201 -0.0020
 6747TIP3    H220183   0.464   0.037   1.262 -0.4770 -1.4176 -1.2111
 6748TIP3   OH220184   0.114   4.837   4.586 -0.2999  0.0860 -0.0030
 6748TIP3    H120185   0.086   4.849   4.677  1.3192 -1.0936  0.7077
 6748TIP3    H220186   0.040   4.793   4.544 -0.4577 -0.8490  1.1941
 6749TIP3   OH220187   8.051   3.980   2.180 -0.2828 -0.4241  0.2383
 6749TIP3    H120188   8.086   3.956   2.266 -0.2507 -1.1419  0.0307
 6749TIP3    H220189   8.088   4.066   2.163  1.6668 -1.2550 -0.0838
 6750TIP3   OH220190   6.989   7.243   3.608 -0.0716  0.4587 -0.7097
 6750TIP3    H120191   6.934   7.225   3.532 -2.4197 -0.9066  1.1909
 6750TIP3    H220192   6.935   7.219   3.683  2.6972  0.2245  1.3611
 6751TIP3   OH220193   2.564   5.687   6.501 -0.4859  0.0903  0.0733
 6751TIP3    H120194   2.571   5.664   6.594 -0.8466 -1.8625 -0.3365
 6751TIP3    H220195   2.654   5.686   6.469 -0.5047 -1.2216 -0.0003
 6752TIP3   OH220196   7.605   3.209   3.127 -0.5377 -0.8064  0.9074
 6752TIP3    H120197   7.662   3.163   3.065 -1.4770 -0.2659 -0.3903
 6752TIP3    H220198   7.651   3.201   3.211  1.1069 -0.9748  0.0463
 6753TIP3   OH220199   2.656   5.238   5.637 -0.2405  0.1277 -0.4144
 6753TIP3    H120200   2.692   5.317   5.595 -1.0450 -0.0179 -1.4064
 6753TIP3    H220201   2.734   5.189   5.665  0.3502  0.1208 -1.9644
 6754TIP3   OH220202   5.835   5.171   4.013 -0.0724  0.0559 -0.3857
 6754TIP3    H120203   5.752   5.212   3.991 -1.1313 -2.0174 -0.4700
 6754TIP3    H220204   5.812   5.095   4.066  1.9053  0.3831  1.0768
 6755TIP3   OH220205   0.882   6.652   6.067  0.3608 -0.0490 -0.3009
 6755TIP3    H120206   0.834   6.625   6.146  1.4317  2.1010  1.1680
 6755TIP3    H220207   0.816   6.694   6.012 -0.7800 -3.0533 -1.4836
 6756TIP3   OH220208   3.522   3.844   4.231 -0.5910  0.4226 -0.0041
 6756TIP3    H120209   3.457   3.880   4.171  1.6556  3.4342 -0.8783
 6756TIP3    H220210   3.496   3.879   4.317 -1.4938 -0.4914  0.1135
 6757TIP3   OH220211   7.566   7.298   5.956 -0.7360  0.0323  0.2903
 6757TIP3    H120212   7.619   7.261   5.886 -1.2815  0.3267 -0.2918
 6757TIP3    H220213   7.614   7.278   6.036  0.3067  0.4014 -0.2275
 6758TIP3   OH220214   1.815   4.680   4.602 -0.6503  0.1144  0.8364
 6758TIP3    H120215   1.874   4.639   4.538  0.3532  0.8074  1.2826
 6758TIP3    H220216   1.727   4.658   4.572 -0.1681 -0.6483 -0.0565
 6759TIP3   OH220217   0.220   1.528   6.504  0.0771 -0.2053 -0.4371
 6759TIP3    H120218   0.242   1.505   6.414  2.8342 -1.1432  0.3609
 6759TIP3    H220219   0.241   1.621   6.512 -1.1718  0.1478 -0.9784
 6760TIP3   OH220220   5.254   5.086   4.194 -0.3712  0.9938  0.7398
 6760TIP3    H120221   5.231   5.051   4.108 -1.4204  1.7595  0.6879
 6760TIP3    H220222   5.182   5.145   4.216 -0.5728  0.1553  2.5315
 6761TIP3   OH220223   4.025   3.943   5.317  0.1052 -0.3188 -0.1391
 6761TIP3    H120224   3.978   3.860   5.320  0.7445 -0.7013 -0.6002
 6761TIP3    H220225   4.085   3.934   5.244  0.3634  0.4563 -0.0315
 6762TIP3   OH220226   7.707   6.087   6.845 -0.0688  0.4065  0.4488
 6762TIP3    H120227   7.782   6.034   6.816 -0.8027 -0.4467  0.0672
 6762TIP3    H220228   7.657   6.104   6.766  0.2710  1.8981  0.5321
 6763TIP3   OH220229   5.919   5.353   1.407 -0.3378 -0.6006 -0.0010
 6763TIP3    H120230   5.980   5.328   1.338 -0.0984  0.0559 -0.0324
 6763TIP3    H220231   5.974   5.398   1.472 -0.8843  0.6091 -0.3472
 6764TIP3   OH220232   7.084   0.702   3.236  0.0826 -0.5544 -0.3886
 6764TIP3    H120233   7.176   0.682   3.215 -0.2341 -1.6124 -0.8260
 6764TIP3    H220234   7.037   0.622   3.215 -0.8108 -0.3638  0.8007
 6765TIP3   OH220235   5.524   1.465   5.074  0.3693 -0.0150  0.0410
 6765TIP3    H120236   5.582   1.392   5.096 -0.1350 -0.2952  0.4520
 6765TIP3    H220237   5.441   1.424   5.052  0.4343  0.3558 -0.9662
 6766TIP3   OH220238   6.558   5.867   1.432  0.0519 -0.5108  0.3152
 6766TIP3    H120239   6.626   5.915   1.384  0.5290 -0.4563  1.0359
 6766TIP3    H220240   6.599   5.843   1.515 -0.2024 -2.0976  0.0168
 6767TIP3   OH220241   2.079   2.435   2.748 -0.4388 -0.3097  0.2979
 6767TIP3    H120242   2.093   2.464   2.838 -0.2413  1.0715 -0.1532
 6767TIP3    H220243   2.009   2.492   2.715  2.6360  2.5840 -1.8798
 6768TIP3   OH220244   6.373   2.243   2.102 -0.4218 -0.0240  0.6574
 6768TIP3    H120245   6.433   2.313   2.076 -1.0018  0.0471 -0.5958
 6768TIP3    H220246   6.420   2.194   2.170  1.2712 -0.2598 -0.6140
 6769TIP3   OH220247   2.758   0.796   3.374  0.3185 -0.1058  0.1404
 6769TIP3    H120248   2.692   0.726   3.368 -1.0092  1.0719  0.3845
 6769TIP3    H220249   2.783   0.812   3.283  0.8755 -1.1009  0.1063
 6770TIP3   OH220250   5.930   5.906   5.005 -0.4547 -0.3109  0.2630
 6770TIP3    H120251   6.017   5.876   5.033 -0.4407  1.0737  1.8136
 6770TIP3    H220252   5.878   5.906   5.086 -1.6759 -0.3310 -0.5068
 6771TIP3   OH220253   7.193   6.607   1.366  0.4327 -0.5208  0.1049
 6771TIP3    H120254   7.268   6.590   1.424 -0.6491 -0.1076  1.6961
 6771TIP3    H220255   7.142   6.526   1.370 -0.4663  0.0720  1.0486
 6772TIP3   OH220256   8.307   5.486   1.139 -0.2448  0.1963  0.3804
 6772TIP3    H120257   8.246   5.559   1.136 -0.5411 -0.0692 -0.2372
 6772TIP3    H220258   8.262   5.419   1.191 -0.8242 -0.2971 -0.7333
 6773TIP3   OH220259   1.782   1.078   2.696  0.1467 -0.0831  0.1749
 6773TIP3    H120260   1.772   1.022   2.620  0.3609  1.5560 -1.1269
 6773TIP3    H220261   1.792   1.166   2.660  0.6061  0.7091  2.0871
 6774TIP3   OH220262   4.422   1.580   5.450 -0.5499 -0.3547 -0.1152
 6774TIP3    H120263   4.331   1.600   5.430 -1.0456  0.2289  2.4568
 6774TIP3    H220264   4.436   1.492   5.415 -2.2321 -0.6373 -0.1294
 6775TIP3   OH220265   2.294   5.797   4.709 -0.1827  0.1159  0.0076
 6775TIP3    H120266   2.314   5.823   4.799 -0.8795 -2.1011  0.8863
 6775TIP3    H220267   2.367   5.740   4.684 -0.0586  0.6187 -0.8030
 6776TIP3   OH220268   8.022   0.931   0.172  0.5090  0.3015 -0.1516
 6776TIP3    H120269   8.086   1.003   0.165  1.3344 -0.2031  1.5752
 6776TIP3    H220270   8.048   0.870   0.103  0.8289  0.8873 -0.5669
 6777TIP3   OH220271   1.852   1.077   6.185  0.0887 -0.0342  0.4274
 6777TIP3    H120272   1.870   1.043   6.272  2.2069  1.8572  0.7982
 6777TIP3    H220273   1.938   1.097   6.148 -0.8637  1.9542 -0.9266
 6778TIP3   OH220274   6.660   6.729   2.609  0.3802  0.4853  0.3571
 6778TIP3    H120275   6.678   6.724   2.515  0.4211  0.9051  0.3412
 6778TIP3    H220276   6.591   6.794   2.617 -0.8639 -0.8091  0.4585
 6779TIP3   OH220277   4.870   1.011   3.702  0.4152  0.0230 -0.3855
 6779TIP3    H120278   4.775   1.024   3.705  0.5427  0.9371  1.8379
 6779TIP3    H220279   4.894   0.993   3.793  2.6407  1.9382 -0.5200
 6780TIP3   OH220280   3.635   2.182   6.651 -0.0570  0.0098 -0.1993
 6780TIP3    H120281   3.610   2.242   6.721  0.0394 -0.4798  0.2649
 6780TIP3    H220282   3.552   2.149   6.617 -0.1019  0.1654 -0.2418
 6781TIP3   OH220283   3.557   5.758   0.855 -0.1402  0.2418  0.0862
 6781TIP3    H120284   3.507   5.824   0.902  0.1596  0.1058  0.6153
 6781TIP3    H220285   3.582   5.695   0.923  1.0641  0.5028 -0.0901
 6782TIP3   OH220286   1.648   1.663   6.363 -0.4274 -0.4865  0.2661
 6782TIP3    H120287   1.566   1.665   6.413 -1.1273 -1.3910 -0.8018
 6782TIP3    H220288   1.665   1.754   6.339 -2.2014 -0.4846 -1.1865
 6783TIP3   OH220289   8.369   7.305   0.186  0.1968  0.6466  0.3521
 6783TIP3    H120290   8.454   7.338   0.155  0.6712 -0.1480  0.7691
 6783TIP3    H220291   8.315   7.383   0.195  0.1884  0.9774 -1.9653
 6784TIP3   OH220292   6.289   6.711   5.331  0.2485 -0.0499 -0.3371
 6784TIP3    H120293   6.282   6.725   5.425  0.0455  0.1713 -0.3856
 6784TIP3    H220294   6.290   6.799   5.293 -0.7379 -0.1521 -0.6196
 6785TIP3   OH220295   2.973   5.439   0.916 -0.7138  0.2155  0.0573
 6785TIP3    H120296   3.050   5.468   0.965 -1.9051  0.6187  1.7951
 6785TIP3    H220297   2.993   5.458   0.824  0.5339  1.9508  0.6507
 6786TIP3   OH220298   2.614   5.137   6.556  0.3096  0.8172  0.1974
 6786TIP3    H120299   2.570   5.053   6.541 -0.5893  1.4957 -1.2255
 6786TIP3    H220300   2.632   5.138   6.650 -1.7119  0.0073  0.6557
 6787TIP3   OH220301   3.416   7.545   0.836 -0.0319  0.2390 -0.1896
 6787TIP3    H120302   3.374   7.610   0.891  0.0414 -0.2095  0.4034
 6787TIP3    H220303   3.400   7.576   0.747  1.8948  2.2728  0.0789
 6788TIP3   OH220304   6.143   5.408   2.045 -0.0847  0.3957  0.1740
 6788TIP3    H120305   6.141   5.365   1.960 -0.2893 -1.3540  1.0104
 6788TIP3    H220306   6.052   5.408   2.074  0.1444 -0.1625  0.9173
 6789TIP3   OH220307   1.591   7.741   3.612  0.0123  0.4440  0.4022
 6789TIP3    H120308   1.674   7.725   3.567  0.1014 -0.2114  0.7937
 6789TIP3    H220309   1.569   7.832   3.591 -0.3936 -0.0869 -1.7111
 6790TIP3   OH220310   4.955   1.176   3.137 -0.5219  0.2559  0.0599
 6790TIP3    H120311   5.005   1.123   3.198 -0.3821  0.0082 -0.2683
 6790TIP3    H220312   4.993   1.157   3.051 -0.1195  1.2735 -0.0049
 6791TIP3   OH220313   4.291   1.532   5.793  0.4381 -0.3850 -0.1713
 6791TIP3    H120314   4.373   1.576   5.773 -0.7840  1.6866 -1.0199
 6791TIP3    H220315   4.290   1.454   5.737  1.3485  0.1400 -0.9226
 6792TIP3   OH220316   4.889   0.487   3.004  0.1013 -0.0497 -0.2579
 6792TIP3    H120317   4.894   0.392   3.009 -0.3315 -0.1353 -1.1768
 6792TIP3    H220318   4.843   0.504   2.921 -0.6009  0.9391  0.3196
 6793TIP3   OH220319   6.121   6.332   5.320  0.3524 -0.0503  0.1765
 6793TIP3    H120320   6.207   6.357   5.352  0.6058 -0.6913  0.0100
 6793TIP3    H220321   6.071   6.311   5.399  0.7860 -1.0299  0.1970
 6794TIP3   OH220322   0.770   6.754   5.745 -0.2992  0.0590  0.1693
 6794TIP3    H120323   0.687   6.772   5.788  1.1337  1.2249  2.6605
 6794TIP3    H220324   0.784   6.830   5.688 -0.4083  0.4248  0.6243
 6795TIP3   OH220325   4.974   6.433   2.128 -0.1198  0.1781 -0.5685
 6795TIP3    H120326   5.004   6.522   2.107 -0.1547  0.7654  1.5878
 6795TIP3    H220327   4.968   6.389   2.043 -0.8237  2.4445 -1.7846
 6796TIP3   OH220328   4.209   0.427   1.270 -0.1149  1.0580  0.5153
 6796TIP3    H120329   4.277   0.365   1.243 -0.9391  0.0430  0.6999
 6796TIP3    H220330   4.255   0.510   1.281  1.1577  0.3052  1.0142
 6797TIP3   OH220331   6.091   3.948   1.636 -0.3491 -0.0209 -0.4198
 6797TIP3    H120332   6.116   3.894   1.562 -0.0350 -0.9959  0.3779
 6797TIP3    H220333   6.007   3.913   1.665 -0.8153  0.8070 -0.7389
 6798TIP3   OH220334   6.642   0.512   1.715  0.0420  0.1394 -0.5155
 6798TIP3    H120335   6.548   0.527   1.722  0.0248 -0.1709 -0.0184
 6798TIP3    H220336   6.678   0.547   1.797  0.2535 -0.5139 -0.3245
 6799TIP3   OH220337   0.359   1.678   0.469 -0.1846 -0.1012 -0.1773
 6799TIP3    H120338   0.363   1.726   0.551  2.6871  0.0046 -0.2763
 6799TIP3    H220339   0.402   1.594   0.487  3.3698  1.0778 -2.1411
 6800TIP3   OH220340   4.241   2.795   0.571  0.0521 -0.8427 -0.6045
 6800TIP3    H120341   4.211   2.735   0.638  0.8656 -1.1677 -0.5218
 6800TIP3    H220342   4.336   2.790   0.574  0.1136 -1.2168 -2.0982
 6801TIP3   OH220343   3.564   0.027   3.780  0.1160  0.0355  0.6100
 6801TIP3    H120344   3.584  -0.065   3.798  0.2466 -0.3841 -1.4004
 6801TIP3    H220345   3.479   0.042   3.821  1.4604 -0.0368  3.6306
 6802TIP3   OH220346   6.821   0.854   1.671 -0.1275  0.5045  0.0346
 6802TIP3    H120347   6.821   0.873   1.765  0.4745  1.1406 -0.0886
 6802TIP3    H220348   6.911   0.831   1.651 -0.0722  1.2013 -0.5482
 6803TIP3   OH220349   3.479   4.536   6.430  0.3289  0.2738 -0.0757
 6803TIP3    H120350   3.535   4.494   6.496 -1.6624  0.9582  2.1669
 6803TIP3    H220351   3.456   4.464   6.370  0.0278 -1.0193  1.5157
 6804TIP3   OH220352   6.276   5.676   4.608 -0.2210  0.1122 -0.2791
 6804TIP3    H120353   6.233   5.592   4.626 -1.0345  0.9236  1.7848
 6804TIP3    H220354   6.366   5.662   4.638  0.3225 -0.7296 -2.1417
 6805TIP3   OH220355   8.190   7.385   4.971  0.1481 -0.5810  0.3281
 6805TIP3    H120356   8.167   7.422   5.056 -1.1554 -0.0819 -0.2215
 6805TIP3    H220357   8.181   7.458   4.909  0.8413 -0.9972 -0.2876
 6806TIP3   OH220358   2.395   7.178   5.401 -0.2470  0.2516  0.0561
 6806TIP3    H120359   2.355   7.209   5.482 -0.2271  1.2227 -0.2919
 6806TIP3    H220360   2.489   7.190   5.414 -0.1647 -0.5815  0.2832
 6807TIP3   OH220361   4.933   5.594   0.145  0.2810 -0.0068 -0.2949
 6807TIP3    H120362   4.988   5.566   0.218  0.9268  0.4313 -0.6005
 6807TIP3    H220363   4.882   5.516   0.123 -1.2012  0.3396  1.7209
 6808TIP3   OH220364   7.863   6.793   6.157  0.2796  0.8399  0.1261
 6808TIP3    H120365   7.909   6.721   6.199 -1.6042 -0.5443 -0.0724
 6808TIP3    H220366   7.933   6.848   6.120  1.8137  0.0760  1.7666
 6809TIP3   OH220367   0.645   7.216   1.091 -0.4907  0.0001  0.2435
 6809TIP3    H120368   0.682   7.129   1.077  1.5801  0.9611 -0.8624
 6809TIP3    H220369   0.635   7.252   1.003 -2.3007  0.5379  0.6319
 6810TIP3   OH220370   3.940   2.094   6.299 -0.3260  0.2156  0.0673
 6810TIP3    H120371   4.033   2.106   6.283 -0.1686 -0.6954  0.2822
 6810TIP3    H220372   3.921   2.151   6.374 -0.5160  2.4293 -1.5337
 6811TIP3   OH220373   1.700   1.533   0.255 -0.1162 -0.1098 -0.5013
 6811TIP3    H120374   1.754   1.563   0.182  0.4996 -0.1138 -0.0522
 6811TIP3    H220375   1.738   1.574   0.332 -0.4787 -0.4735 -0.1227
 6812TIP3   OH220376   8.087   4.514   3.003 -0.3460 -0.2576 -0.1556
 6812TIP3    H120377   8.086   4.482   2.913  0.2781 -0.2300 -0.1797
 6812TIP3    H220378   8.000   4.494   3.037 -0.7632  0.1983 -0.9230
 6813TIP3   OH220379   8.121   3.257   4.545  0.1964  0.4683 -0.0454
 6813TIP3    H120380   8.178   3.332   4.528  0.0393  0.5093 -0.4103
 6813TIP3    H220381   8.036   3.296   4.567  0.9830  0.5060  3.3863
 6814TIP3   OH220382   2.604   2.528   0.204  0.0310  0.5579  0.0183
 6814TIP3    H120383   2.648   2.454   0.246 -2.0092 -0.4045  0.5820
 6814TIP3    H220384   2.571   2.494   0.122 -0.4993  0.9720  0.0531
 6815TIP3   OH220385   6.113   7.197   5.964  0.2493  0.9034  0.8657
 6815TIP3    H120386   6.103   7.212   6.058 -1.6091 -1.0545  1.0548
 6815TIP3    H220387   6.133   7.104   5.956 -1.8619  0.5008 -0.7218
 6816TIP3   OH220388   8.001   6.696   6.435  0.8368  0.3278  0.6411
 6816TIP3    H120389   7.949   6.642   6.495  2.1466 -0.7265  0.8768
 6816TIP3    H220390   8.017   6.639   6.360  1.6467  0.6258  0.5827
 6817TIP3   OH220391   1.251   0.564   6.486 -0.1002  0.0364 -0.7199
 6817TIP3    H120392   1.314   0.513   6.435  0.9032  0.8994 -0.3975
 6817TIP3    H220393   1.193   0.499   6.524  2.3296 -1.1193  1.3350
 6818TIP3   OH220394   1.759   3.865   6.248  0.7111 -0.5121 -0.8527
 6818TIP3    H120395   1.715   3.940   6.287  0.7634 -0.1949 -1.3859
 6818TIP3    H220396   1.694   3.829   6.187  1.0913 -0.1926 -1.4559
 6819TIP3   OH220397   2.835   5.982   0.877 -0.2291  0.1259  0.5369
 6819TIP3    H120398   2.811   5.915   0.940  0.2747 -0.9214 -0.3536
 6819TIP3    H220399   2.757   6.037   0.868 -0.4869 -0.0479  1.6311
 6820TIP3   OH220400   5.033   4.324   4.126  0.0331  0.1348  0.1907
 6820TIP3    H120401   5.121   4.359   4.121  0.2565 -0.3096  0.7944
 6820TIP3    H220402   4.977   4.393   4.090  0.4804  1.0252  1.1264
 6821TIP3   OH220403   3.280   0.252   1.725  0.2404 -0.5382  0.2800
 6821TIP3    H120404   3.208   0.255   1.661 -0.5816 -1.2899  1.1305
 6821TIP3    H220405   3.340   0.320   1.697 -2.2232  2.2518  1.2325
 6822TIP3   OH220406   1.289   0.821   3.406  0.1087 -0.5255  0.8725
 6822TIP3    H120407   1.322   0.731   3.404  0.0974 -0.5381  1.1668
 6822TIP3    H220408   1.241   0.827   3.489 -0.8063 -0.5660  0.3564
 6823TIP3   OH220409   3.927   4.932   4.078 -0.4119 -0.0887  0.4624
 6823TIP3    H120410   3.912   4.862   4.016 -0.4960  0.0822  0.2879
 6823TIP3    H220411   3.975   4.891   4.150 -1.3671 -0.5698  0.8523
 6824TIP3   OH220412   4.987   3.962   1.149  0.5078  0.2961  0.6272
 6824TIP3    H120413   4.958   3.925   1.065  1.5782  2.8180 -0.9715
 6824TIP3    H220414   4.952   3.902   1.215 -2.8140 -0.2715 -1.4396
 6825TIP3   OH220415   2.474   5.373   6.262  0.0345  0.2028  0.0412
 6825TIP3    H120416   2.475   5.467   6.277 -1.1115  0.2117  0.1722
 6825TIP3    H220417   2.404   5.340   6.319 -0.1757 -0.5953 -0.6517
 6826TIP3   OH220418   2.533   7.129   5.995  0.7325 -0.0054 -0.4997
 6826TIP3    H120419   2.467   7.066   5.966  0.6233 -0.5386  0.8274
 6826TIP3    H220420   2.487   7.213   5.996  0.5606 -0.0837 -1.2072
 6827TIP3   OH220421   5.178   5.843   2.499 -0.4875 -0.2967 -0.4764
 6827TIP3    H120422   5.168   5.889   2.416  0.7768  1.2223  0.1655
 6827TIP3    H220423   5.095   5.858   2.545  0.5540  3.3263  0.5883
 6828TIP3   OH220424   8.303   7.598   3.624 -0.1343 -0.7451  0.6198
 6828TIP3    H120425   8.235   7.662   3.604 -1.4391 -2.0849  0.5953
 6828TIP3    H220426   8.326   7.615   3.716 -0.5847 -0.3790  0.6666
 6829TIP3   OH220427   5.500   6.647   3.418 -0.1289 -0.2058  0.2198
 6829TIP3    H120428   5.486   6.552   3.425  2.0672 -0.7015 -1.0807
 6829TIP3    H220429   5.565   6.656   3.349 -0.0617  2.2639  0.5271
 6830TIP3   OH220430   2.951   2.870   1.633 -0.5489 -0.2102  0.6145
 6830TIP3    H120431   3.010   2.928   1.586 -0.4623 -0.2085  0.7243
 6830TIP3    H220432   2.869   2.872   1.583 -0.1927 -0.8739 -0.0221
 6831TIP3   OH220433   6.241   6.127   3.210 -0.1051 -0.2769  0.3349
 6831TIP3    H120434   6.213   6.062   3.274 -2.3709 -0.9857 -1.2370
 6831TIP3    H220435   6.295   6.078   3.147 -1.4960 -0.6072 -0.6392
 6832TIP3   OH220436   7.407   7.006   5.891 -0.0852 -0.3729 -0.0302
 6832TIP3    H120437   7.359   7.083   5.920  1.3394 -0.0220  1.6150
 6832TIP3    H220438   7.409   6.949   5.968  2.9686  0.1005  0.3455
 6833TIP3   OH220439   6.512   2.433   1.733 -0.0799 -0.1545  0.1768
 6833TIP3    H120440   6.596   2.407   1.770 -0.5971  1.0795  2.3568
 6833TIP3    H220441   6.535   2.483   1.654  1.1606 -0.8887  0.0555
 6834TIP3   OH220442   5.374   5.899   1.494 -0.0620  0.3453  0.5417
 6834TIP3    H120443   5.288   5.861   1.508 -0.0806  0.1327 -0.1371
 6834TIP3    H220444   5.433   5.846   1.548 -0.1047 -0.5920 -0.3083
 6835TIP3   OH220445   8.122   1.153   1.940  0.3934 -0.5591 -0.2267
 6835TIP3    H120446   8.118   1.213   2.014 -1.0011 -0.2048 -0.5735
 6835TIP3    H220447   8.052   1.089   1.956  0.9124 -1.2385 -0.6020
 6836TIP3   OH220448   8.307   5.372   0.753  0.4561  0.0228 -0.0498
 6836TIP3    H120449   8.219   5.344   0.777 -0.1916  2.4303  0.7237
 6836TIP3    H220450   8.297   5.415   0.668  0.8958  0.1509 -0.0408
 6837TIP3   OH220451   4.370   4.977   0.735  0.5353 -0.2425  1.0172
 6837TIP3    H120452   4.283   4.945   0.760 -1.0061  0.8970 -2.3556
 6837TIP3    H220453   4.418   4.898   0.710 -0.0034 -0.7534  1.5455
 6838TIP3   OH220454   1.339   6.811   0.911 -0.0280 -0.2582  0.2404
 6838TIP3    H120455   1.390   6.884   0.876 -1.4846  1.1324  0.9037
 6838TIP3    H220456   1.343   6.744   0.842  1.9013  0.1361 -0.0861
 6839TIP3   OH220457   8.222   4.535   6.393  0.3632  0.1646 -0.0749
 6839TIP3    H120458   8.187   4.619   6.363  0.3509  0.3100  0.3435
 6839TIP3    H220459   8.149   4.494   6.440  0.6131  0.2767  0.4217
 6840TIP3   OH220460   7.044   4.231   4.300 -0.5323  0.1902 -0.0009
 6840TIP3    H120461   6.984   4.175   4.349 -1.1340  0.3753 -0.5256
 6840TIP3    H220462   7.073   4.297   4.364 -0.5997 -0.1160  0.3474
 6841TIP3   OH220463   5.546   3.048   0.199 -0.2328 -0.3793  0.0977
 6841TIP3    H120464   5.455   3.028   0.221 -0.6471  0.6642 -0.5991
 6841TIP3    H220465   5.595   3.025   0.279 -1.2916  0.4493  1.0179
 6842TIP3   OH220466   2.465   7.907   5.011 -0.0438 -0.5768  0.2579
 6842TIP3    H120467   2.455   7.812   5.009  0.6741 -0.6625  0.3315
 6842TIP3    H220468   2.554   7.921   5.042 -0.1980  0.1275  0.4001
 6843TIP3   OH220469   5.381   0.749   1.841  0.2687  0.3159 -0.2865
 6843TIP3    H120470   5.453   0.689   1.825  0.6337 -0.2143  2.7550
 6843TIP3    H220471   5.420   0.836   1.832  0.0293  0.1973 -3.4734
 6844TIP3   OH220472   6.891   5.191   6.511 -0.8140  0.2778 -0.7332
 6844TIP3    H120473   6.945   5.271   6.510  0.2271 -0.3700  0.5414
 6844TIP3    H220474   6.803   5.222   6.491 -0.6396  1.9194  0.7607
 6845TIP3   OH220475   7.991   6.612   6.742 -0.0325  0.2762 -0.2987
 6845TIP3    H120476   7.938   6.570   6.674  0.6860 -0.2897 -0.5198
 6845TIP3    H220477   7.998   6.545   6.811  1.4543 -0.1523 -0.8203
 6846TIP3   OH220478   5.778   0.855   4.556  0.3866  0.0607 -0.4701
 6846TIP3    H120479   5.822   0.809   4.485 -0.8741 -0.8064 -0.7192
 6846TIP3    H220480   5.847   0.906   4.598  1.4950 -0.7759 -1.2266
 6847TIP3   OH220481   3.822   6.030   5.395  0.3640  0.2990  0.1349
 6847TIP3    H120482   3.791   5.948   5.356  0.7241 -0.0999  0.6782
 6847TIP3    H220483   3.916   6.019   5.403  0.5256  1.0859 -0.5101
 6848TIP3   OH220484   7.870   0.741   1.865 -0.1832 -0.1089  0.0882
 6848TIP3    H120485   7.820   0.737   1.783  2.5849  0.4004 -1.7914
 6848TIP3    H220486   7.962   0.744   1.836  0.9140  0.0987  3.2497
 6849TIP3   OH220487   4.103   1.224   0.948 -0.0120  0.1862  0.0298
 6849TIP3    H120488   4.107   1.138   0.905  1.0647 -0.9540  2.2458
 6849TIP3    H220489   4.163   1.279   0.898  0.2067 -0.6882 -0.6975
 6850TIP3   OH220490   0.618   6.157   0.272 -0.0539  0.5358  0.0190
 6850TIP3    H120491   0.581   6.222   0.212 -1.1088  0.6281  0.7430
 6850TIP3    H220492   0.586   6.073   0.239 -0.2543  0.5460  0.1891
 6851TIP3   OH220493   0.995   0.741   6.434 -0.6374 -0.5753  0.0204
 6851TIP3    H120494   1.069   0.801   6.436 -0.1070 -1.1758 -0.7203
 6851TIP3    H220495   0.951   0.761   6.351  0.3678 -2.1199 -0.9491
 6852TIP3   OH220496   4.255   0.973   2.188  0.4647 -0.0420  0.0009
 6852TIP3    H120497   4.270   1.062   2.154  0.9723  0.0033  0.3510
 6852TIP3    H220498   4.340   0.930   2.183  0.0037 -0.8825 -1.2104
 6853TIP3   OH220499   1.606   0.815   6.642 -0.8411 -0.1005  0.0395
 6853TIP3    H120500   1.550   0.885   6.609 -2.0484 -0.6319  0.8303
 6853TIP3    H220501   1.651   0.781   6.565 -1.1291  0.7687 -0.5284
 6854TIP3   OH220502   7.531   3.573   2.486  0.3116 -0.0789  0.0790
 6854TIP3    H120503   7.550   3.480   2.499  2.8152  0.1985 -1.0084
 6854TIP3    H220504   7.526   3.584   2.391  2.8766  1.3156  0.0279
 6855TIP3   OH220505   1.962   3.209   2.107  0.3671  0.1917 -0.3130
 6855TIP3    H120506   1.898   3.280   2.120  0.0243  0.0250 -1.0791
 6855TIP3    H220507   2.028   3.248   2.050 -1.1709 -0.8658 -2.9980
 6856TIP3   OH220508   0.061   4.202   6.060  0.6169 -0.1788  0.2808
 6856TIP3    H120509   0.058   4.106   6.056 -0.8599 -0.1406 -0.3027
 6856TIP3    H220510  -0.017   4.226   6.110  0.2877  0.7508 -0.6364
 6857TIP3   OH220511   1.403   6.169   0.882 -0.7183 -0.0619 -0.0577
 6857TIP3    H120512   1.386   6.077   0.903 -0.3099 -0.1256  0.0128
 6857TIP3    H220513   1.478   6.192   0.937 -0.9035  0.3528  0.0212
 6858TIP3   OH220514   1.946   2.942   5.355  0.0459 -0.2503  0.0405
 6858TIP3    H120515   1.906   2.909   5.435 -0.5885 -1.8443 -0.8780
 6858TIP3    H220516   2.009   3.008   5.384 -1.6835  0.7686  1.6780
 6859TIP3   OH220517   5.430   3.787   2.629 -0.1444  0.0473  0.2962
 6859TIP3    H120518   5.386   3.867   2.599  0.3292 -0.1416 -0.9356
 6859TIP3    H220519   5.362   3.740   2.677 -0.4560  1.1385  0.9795
 6860TIP3   OH220520   8.248   0.797   2.848  0.6386 -0.2528  0.4574
 6860TIP3    H120521   8.237   0.757   2.935 -0.2429  0.4719  0.6974
 6860TIP3    H220522   8.261   0.722   2.789  2.3181 -0.7057  1.3345
 6861TIP3   OH220523   2.587   1.469   2.500 -0.4847  0.9916 -0.3982
 6861TIP3    H120524   2.665   1.441   2.451  0.1956 -0.1950  1.2880
 6861TIP3    H220525   2.606   1.560   2.525 -0.3336  1.2192 -1.2851
 6862TIP3   OH220526   2.295   6.045   1.206 -0.0778  0.3399  0.2141
 6862TIP3    H120527   2.234   6.039   1.132  0.7429 -0.3972 -0.4263
 6862TIP3    H220528   2.381   6.027   1.168  0.1734 -1.8902  1.6034
 6863TIP3   OH220529   6.311   0.253   5.539 -0.6533 -0.3677 -0.1015
 6863TIP3    H120530   6.310   0.213   5.626  1.5801  1.6554  0.9598
 6863TIP3    H220531   6.394   0.224   5.500 -1.1932 -0.4958 -1.1987
 6864TIP3   OH220532   3.175   7.349   6.662 -0.0806  0.3405 -0.3952
 6864TIP3    H120533   3.207   7.392   6.741 -1.7533 -0.9159  1.0302
 6864TIP3    H220534   3.206   7.259   6.669 -0.0979  0.2527 -1.2782
 6865TIP3   OH220535   5.031   3.139   4.455  0.1778  0.2826  0.4946
 6865TIP3    H120536   4.979   3.079   4.508  0.3251 -0.2318  0.0618
 6865TIP3    H220537   5.026   3.104   4.366 -0.7753  1.5900 -0.0099
 6866TIP3   OH220538   3.976   0.999   2.733 -0.3319  0.7402  0.1059
 6866TIP3    H120539   4.030   0.922   2.721 -1.5566 -0.3336  1.2019
 6866TIP3    H220540   4.033   1.072   2.708  1.1811 -0.4205  0.0012
 6867TIP3   OH220541   2.022  -0.011   0.064  0.3864 -0.3675 -0.7204
 6867TIP3    H120542   1.941   0.015   0.021 -0.6508 -0.1922  1.2637
 6867TIP3    H220543   2.054   0.068   0.106  0.6821 -0.8144 -0.0880
 6868TIP3   OH220544   0.766   1.187   4.551  0.5314 -0.0103  0.6120
 6868TIP3    H120545   0.838   1.132   4.580  0.0978 -0.2365  1.2929
 6868TIP3    H220546   0.746   1.243   4.627  0.4971  0.5836  0.1716
 6869TIP3   OH220547   6.807   5.429   0.822  0.4714 -0.5043 -0.0768
 6869TIP3    H120548   6.804   5.333   0.827  0.4691 -0.4564  1.2717
 6869TIP3    H220549   6.860   5.455   0.898  0.5664  0.5631 -0.4943
 6870TIP3   OH220550   6.060   6.177   4.429 -0.1806 -0.2206 -0.2215
 6870TIP3    H120551   6.066   6.179   4.334  1.7564  1.0139 -0.1454
 6870TIP3    H220552   6.079   6.086   4.452 -3.0347 -1.1199 -1.0332
 6871TIP3   OH220553   5.856   2.847   4.750  0.4347 -0.4219  0.0013
 6871TIP3    H120554   5.773   2.803   4.769 -1.0346  1.5744 -1.3923
 6871TIP3    H220555   5.855   2.925   4.806  1.7496 -0.7244  0.4968
 6872TIP3   OH220556   5.302   4.366   4.017 -0.5265  0.1481  0.4145
 6872TIP3    H120557   5.259   4.281   4.004  0.5321 -0.5105  1.0267
 6872TIP3    H220558   5.358   4.377   3.940  0.1401 -0.2340  0.8305
 6873TIP3   OH220559   4.953   4.277   3.781  0.4648 -0.4793  0.2485
 6873TIP3    H120560   5.028   4.242   3.733  0.4089 -1.4335  0.8380
 6873TIP3    H220561   4.963   4.372   3.774  0.5029 -0.5774 -1.5750
 6874TIP3   OH220562   5.795   3.133   2.018 -0.1581  0.2331  0.0142
 6874TIP3    H120563   5.757   3.091   1.941 -0.4357 -1.9465  1.2623
 6874TIP3    H220564   5.872   3.179   1.984 -0.4129 -0.4493 -1.5980
 6875TIP3   OH220565   5.054   3.143   1.829  0.5819  0.0183  0.1778
 6875TIP3    H120566   5.065   3.138   1.734  1.3777  1.0743  0.1999
 6875TIP3    H220567   4.959   3.138   1.842  0.3858  0.9320 -0.7583
 6876TIP3   OH220568   7.471   5.058   4.334  0.4151  0.4494 -0.0544
 6876TIP3    H120569   7.452   4.973   4.295 -0.1371  0.7218 -0.3887
 6876TIP3    H220570   7.392   5.081   4.382  0.3518  1.0281 -0.4291
 6877TIP3   OH220571   7.605   2.471   6.646  0.4992  0.0932  0.7509
 6877TIP3    H120572   7.688   2.507   6.616  0.8552 -0.3007  1.2338
 6877TIP3    H220573   7.555   2.547   6.676  0.8175  0.2962  0.7738
 6878TIP3   OH220574   2.715   4.641   6.818  0.5198  0.0681  0.0398
 6878TIP3    H120575   2.801   4.629   6.858  0.8579  1.0238 -0.3868
 6878TIP3    H220576   2.713   4.733   6.792 -1.9943  1.1552  3.3302
 6879TIP3   OH220577   6.543   4.873   4.486 -0.0801  0.0234  0.0148
 6879TIP3    H120578   6.606   4.943   4.467  0.2505 -0.2948 -0.0958
 6879TIP3    H220579   6.575   4.833   4.567  1.0058 -1.3931 -1.0577
 6880TIP3   OH220580   7.707   7.128   0.237  0.5319  0.1876 -0.4834
 6880TIP3    H120581   7.754   7.150   0.156 -0.9741  1.4873 -1.0619
 6880TIP3    H220582   7.636   7.192   0.241 -1.3658 -1.8409  0.2146
 6881TIP3   OH220583   4.310   7.168   6.537 -0.1066  0.0136 -0.1270
 6881TIP3    H120584   4.242   7.163   6.605  1.2123 -2.2355  1.1495
 6881TIP3    H220585   4.389   7.137   6.580  1.1591  0.0380 -2.3010
 6882TIP3   OH220586   3.331   7.296   4.568  0.2121 -0.3670 -0.3835
 6882TIP3    H120587   3.313   7.389   4.584  3.1782  0.2943 -0.4003
 6882TIP3    H220588   3.272   7.273   4.496 -0.6970  1.4518 -0.2913
 6883TIP3   OH220589   5.322   1.074   1.547 -0.0453 -0.3692  0.6749
 6883TIP3    H120590   5.324   1.046   1.455  1.5754 -1.5228  1.0239
 6883TIP3    H220591   5.268   1.009   1.591  0.4404 -0.7014  0.7903
 6884TIP3   OH220592   5.374   4.648   5.238 -0.0731 -0.2957 -0.1196
 6884TIP3    H120593   5.389   4.566   5.190  1.9206  0.7186 -1.3581
 6884TIP3    H220594   5.286   4.675   5.212 -0.5380 -1.7358 -0.1437
 6885TIP3   OH220595   2.119   5.365   6.319 -0.1449  0.3322 -0.8157
 6885TIP3    H120596   2.186   5.338   6.382 -0.9232 -1.8308 -0.8064
 6885TIP3    H220597   2.166   5.373   6.236  0.3404  0.0046 -0.5825
 6886TIP3   OH220598   1.951   6.750   6.857  0.0914  0.3370 -0.5255
 6886TIP3    H120599   1.950   6.803   6.777  1.0799  1.5930  0.2482
 6886TIP3    H220600   2.041   6.757   6.889 -0.3448  0.0702  0.8337
 6887TIP3   OH220601   0.952   4.410   4.279 -0.3912 -0.0881  0.0025
 6887TIP3    H120602   1.020   4.446   4.336  1.9481 -0.8550 -2.1347
 6887TIP3    H220603   0.918   4.335   4.326 -1.3777  1.5522  2.0629
 6888TIP3   OH220604   0.881   3.549   3.025  1.0212 -0.0473 -0.1982
 6888TIP3    H120605   0.937   3.581   2.954 -0.1931  0.0441 -1.1603
 6888TIP3    H220606   0.852   3.629   3.070 -0.0330  0.0990 -1.0657
 6889TIP3   OH220607   2.343   6.112   6.787 -0.5680  0.2714  0.2481
 6889TIP3    H120608   2.257   6.109   6.831  0.2184  0.3151  1.8477
 6889TIP3    H220609   2.341   6.039   6.726 -1.0962 -0.8129  1.5265
 6890TIP3   OH220610   4.389   2.601   4.635  0.1503  0.3108  0.0517
 6890TIP3    H120611   4.414   2.537   4.702 -0.7117  0.1267  0.2035
 6890TIP3    H220612   4.296   2.587   4.622  0.1539  0.8777 -0.6316
 6891TIP3   OH220613   4.024   7.533   6.545  0.0830 -0.8500 -0.4933
 6891TIP3    H120614   3.951   7.534   6.607  1.8553  0.3277  1.7215
 6891TIP3    H220615   4.003   7.602   6.482 -1.3195 -1.4355 -0.7029
 6892TIP3   OH220616   0.342   0.299   3.271 -0.0646  0.1524 -0.1183
 6892TIP3    H120617   0.434   0.278   3.287 -0.2629  0.4355  1.6251
 6892TIP3    H220618   0.293   0.224   3.306 -0.5550  1.0685  1.2921
 6893TIP3   OH220619   0.328   3.619   5.887 -0.2553 -0.2447 -0.6733
 6893TIP3    H120620   0.332   3.536   5.839  0.4499  0.3135 -1.6187
 6893TIP3    H220621   0.285   3.597   5.969  1.1007 -1.8319 -0.3336
 6894TIP3   OH220622   1.394   2.767   1.003 -0.4220  0.4056 -0.4290
 6894TIP3    H120623   1.379   2.848   1.052 -0.6393  0.4640 -0.5878
 6894TIP3    H220624   1.347   2.781   0.920 -2.3345 -0.7411  0.3899
 6895TIP3   OH220625   2.329   6.693   5.147  0.5657 -0.8249 -0.7657
 6895TIP3    H120626   2.373   6.773   5.177  0.4378  0.1302 -2.8942
 6895TIP3    H220627   2.243   6.723   5.117  0.0804 -1.9667 -0.5724
 6896TIP3   OH220628   3.125   7.589   3.889  0.0847  0.4834  0.0037
 6896TIP3    H120629   3.093   7.654   3.826  0.6955 -0.2326 -1.0932
 6896TIP3    H220630   3.081   7.508   3.863 -1.1354  0.5635  1.7325
 6897TIP3   OH220631   0.537   0.544   3.618  0.2416  1.0737 -0.1158
 6897TIP3    H120632   0.540   0.634   3.585 -1.4001  2.0518  2.1391
 6897TIP3    H220633   0.628   0.519   3.630  0.7536  2.0202 -1.7271
 6898TIP3   OH220634   1.613   4.811   6.084 -0.0190 -0.2284  0.0452
 6898TIP3    H120635   1.540   4.854   6.129 -1.2413 -0.8334 -1.2728
 6898TIP3    H220636   1.604   4.837   5.993  1.0361 -0.8468 -0.2503
 6899TIP3   OH220637   5.329   2.090   5.808  0.1036  0.7791 -0.1023
 6899TIP3    H120638   5.272   2.028   5.853 -1.2820  3.9088  2.8806
 6899TIP3    H220639   5.399   2.108   5.871  0.8874  1.7098 -1.1983
 6900TIP3   OH220640   2.343   4.101   1.718  0.7544 -1.0751  0.3856
 6900TIP3    H120641   2.364   4.188   1.751 -0.2908 -0.9039  0.6079
 6900TIP3    H220642   2.390   4.095   1.634 -2.6434  1.4829 -1.9841
 6901TIP3   OH220643   4.318   7.693   1.262  0.0693  0.4015  0.2487
 6901TIP3    H120644   4.399   7.741   1.245 -0.4530  0.9723 -0.7334
 6901TIP3    H220645   4.249   7.758   1.247 -0.6470 -0.6126 -1.0478
 6902TIP3   OH220646   7.172   3.919   2.872 -0.3139 -0.2800  0.0676
 6902TIP3    H120647   7.182   3.824   2.860 -1.6042 -0.6052  1.3583
 6902TIP3    H220648   7.079   3.935   2.861 -0.6451  0.3094  2.9652
 6903TIP3   OH220649   6.564   7.366   5.089  0.2163  0.6968 -0.0554
 6903TIP3    H120650   6.605   7.331   5.169 -1.1805 -1.0835 -0.0576
 6903TIP3    H220651   6.579   7.299   5.023 -1.3202  0.7099 -0.4498
 6904TIP3   OH220652   8.338   2.353   0.663 -0.2383 -0.1904 -0.7435
 6904TIP3    H120653   8.287   2.434   0.669 -0.9755 -0.7328  1.3456
 6904TIP3    H220654   8.280   2.286   0.700  0.8644 -1.4194 -1.1712
 6905TIP3   OH220655   8.336   2.697   2.862 -0.4977 -0.1813  0.1271
 6905TIP3    H120656   8.359   2.636   2.932  0.3973  1.1819  1.0851
 6905TIP3    H220657   8.418   2.711   2.815 -0.8880 -0.3733 -0.6262
 6906TIP3   OH220658   6.740   5.471   5.684  0.2487  0.0930  0.2515
 6906TIP3    H120659   6.771   5.517   5.606  0.5268 -0.6412 -0.0835
 6906TIP3    H220660   6.672   5.528   5.720  1.2187  1.1932  0.3770
 6907TIP3   OH220661   6.299   3.285   0.649 -0.0108  0.1622  0.7452
 6907TIP3    H120662   6.384   3.242   0.636 -0.3779 -0.8222  1.5364
 6907TIP3    H220663   6.299   3.309   0.742 -0.7984 -0.2792  0.8624
 6908TIP3   OH220664   4.260   2.727   3.425 -0.3179  0.2416  0.8563
 6908TIP3    H120665   4.262   2.634   3.404 -2.9666 -0.5305  3.4450
 6908TIP3    H220666   4.221   2.768   3.348  1.6406 -0.5393 -0.6723
 6909TIP3   OH220667   6.718   5.353   2.877  1.4352 -0.1971  0.2699
 6909TIP3    H120668   6.808   5.373   2.903  0.8223  0.4389  2.0984
 6909TIP3    H220669   6.669   5.356   2.959 -0.3305 -0.0986 -0.7479
 6910TIP3   OH220670   3.120   5.267   4.341 -0.1632 -0.2801 -0.1052
 6910TIP3    H120671   3.079   5.183   4.320  0.0293 -0.3874 -0.0551
 6910TIP3    H220672   3.200   5.244   4.387 -0.4294 -0.0490  0.4807
 6911TIP3   OH220673   0.107   2.372   2.068  0.0536  0.6058 -0.1998
 6911TIP3    H120674   0.023   2.362   2.023 -0.1769  0.4105  0.2598
 6911TIP3    H220675   0.108   2.465   2.094  0.2018  0.7249 -0.6353
 6912TIP3   OH220676   5.208   4.352   4.975 -0.4058  0.0660  0.1296
 6912TIP3    H120677   5.297   4.383   4.993  0.0302 -1.7649  1.4517
 6912TIP3    H220678   5.218   4.288   4.905 -0.9309  0.9338 -0.7667
 6913TIP3   OH220679   7.388   3.870   5.601 -0.3022 -0.4726 -0.4805
 6913TIP3    H120680   7.391   3.781   5.637 -1.8328 -0.6703 -0.7873
 6913TIP3    H220681   7.476   3.904   5.616  0.0779 -1.7429  0.3912
 6914TIP3   OH220682   7.202   6.371   2.011 -0.0219  0.5415  0.4061
 6914TIP3    H120683   7.151   6.378   1.930  0.2485  3.0362  0.3727
 6914TIP3    H220684   7.195   6.279   2.036  0.5121 -0.5180 -2.8380
 6915TIP3   OH220685   7.825   6.426   5.003  0.1829  0.5666  0.6058
 6915TIP3    H120686   7.764   6.376   5.058  0.2539  0.0464  0.2230
 6915TIP3    H220687   7.821   6.382   4.918  1.5818  0.1337  0.7541
 6916TIP3   OH220688   7.500   1.951   2.652  0.3637 -0.3009 -0.3800
 6916TIP3    H120689   7.449   2.001   2.715  0.2635  1.3115 -1.6637
 6916TIP3    H220690   7.488   1.860   2.677 -1.0515  0.2030  0.8712
 6917TIP3   OH220691   0.809   4.392   1.313  0.5719 -0.2669 -0.1487
 6917TIP3    H120692   0.829   4.382   1.406 -1.4437  0.7857  0.4560
 6917TIP3    H220693   0.827   4.485   1.295 -1.5734  0.2062 -0.0860
 6918TIP3   OH220694   4.055   1.587   2.547  0.3599  0.5244 -0.4853
 6918TIP3    H120695   4.131   1.582   2.605 -0.7292  0.1137  0.9394
 6918TIP3    H220696   4.017   1.499   2.549 -0.5400  0.8979 -0.6547
 6919TIP3   OH220697   3.698   0.261   5.232  0.4122 -0.4320 -0.2915
 6919TIP3    H120698   3.611   0.291   5.259  1.3876  1.8840  0.5438
 6919TIP3    H220699   3.708   0.175   5.273 -0.8028  0.0424  1.0800
 6920TIP3   OH220700   4.116   7.830   2.048 -0.0113 -0.3150 -0.0312
 6920TIP3    H120701   4.153   7.918   2.052  0.4769 -0.5132 -0.1005
 6920TIP3    H220702   4.178   7.775   2.096 -1.5769 -0.2207  2.2583
 6921TIP3   OH220703   4.388   0.617   5.613  0.1206  0.3723 -0.5015
 6921TIP3    H120704   4.336   0.671   5.672  0.8508  1.4961 -0.8612
 6921TIP3    H220705   4.341   0.533   5.610 -0.1340  0.4136  1.3502
 6922TIP3   OH220706   4.199   0.306   6.534  0.4432 -0.3267  0.4956
 6922TIP3    H120707   4.262   0.235   6.548 -0.9961 -1.5721  0.9751
 6922TIP3    H220708   4.153   0.313   6.617  0.6520  1.3234  0.5091
 6923TIP3   OH220709   2.585   7.160   2.064 -0.2620  0.4629  0.3180
 6923TIP3    H120710   2.546   7.075   2.080 -0.1732  0.3403 -0.0897
 6923TIP3    H220711   2.590   7.202   2.150 -0.4366  0.1140  0.4971
 6924TIP3   OH220712   4.316   5.725   1.588  0.1332 -0.1481 -0.2380
 6924TIP3    H120713   4.379   5.748   1.657 -0.3340  0.7122 -0.0981
 6924TIP3    H220714   4.311   5.629   1.592 -0.2461 -0.0851  1.2542
 6925TIP3   OH220715   1.485   2.138   0.898 -0.2846  0.3564 -0.1439
 6925TIP3    H120716   1.432   2.141   0.978 -0.4258 -0.9405 -0.1610
 6925TIP3    H220717   1.428   2.095   0.834  0.4398 -0.1824 -0.4365
 6926TIP3   OH220718   3.316   5.053   2.070 -0.7171  0.4379  0.1456
 6926TIP3    H120719   3.404   5.041   2.106 -0.5622  2.3210  0.4812
 6926TIP3    H220720   3.258   5.050   2.147 -0.8328  0.3186  0.0548
 6927TIP3   OH220721   6.495   5.170   0.169 -0.3830  0.0845  0.1518
 6927TIP3    H120722   6.485   5.209   0.256  0.0711  4.0023 -1.3487
 6927TIP3    H220723   6.412   5.187   0.126  0.1986  0.3622 -0.8925
 6928TIP3   OH220724   0.952   2.440   2.538  0.4983 -0.5908 -0.3476
 6928TIP3    H120725   0.959   2.417   2.630 -1.2532 -0.9285 -0.2688
 6928TIP3    H220726   0.985   2.364   2.491  0.4313 -0.8292 -0.0093
 6929TIP3   OH220727   1.273   6.167   0.508  0.0137 -0.3265 -0.5457
 6929TIP3    H120728   1.313   6.236   0.562 -3.6453  2.6120 -1.1858
 6929TIP3    H220729   1.191   6.148   0.552 -0.3653 -2.2187 -2.0019
 6930TIP3   OH220730   0.667   2.664   1.610 -0.4346 -0.0080 -0.3804
 6930TIP3    H120731   0.700   2.578   1.584  0.3536  0.7658 -2.0510
 6930TIP3    H220732   0.577   2.666   1.577 -0.1194  0.1858 -1.2333
 6931TIP3   OH220733   2.896   6.085   5.480 -0.7032  0.3515 -0.0075
 6931TIP3    H120734   2.912   6.166   5.432  3.0165  0.5795  1.3002
 6931TIP3    H220735   2.836   6.110   5.550 -1.0563  1.5134 -0.6926
 6932TIP3   OH220736   2.676   0.029   4.550 -0.3546 -0.1413 -0.1216
 6932TIP3    H120737   2.682   0.063   4.640 -1.0266 -1.2087  0.3522
 6932TIP3    H220738   2.738  -0.043   4.548 -1.6625 -1.3163  0.0815
 6933TIP3   OH220739   2.592   2.147   5.004  0.1044  0.1585  0.0987
 6933TIP3    H120740   2.598   2.060   5.044  0.0012  0.3310  0.4860
 6933TIP3    H220741   2.552   2.202   5.071  0.9381  0.7012  0.1696
 6934TIP3   OH220742   1.692   1.281   0.831 -0.0968  0.3241 -0.2919
 6934TIP3    H120743   1.730   1.302   0.916  0.6641 -2.5891  0.1948
 6934TIP3    H220744   1.598   1.273   0.847  0.1632 -1.4702  0.6631
 6935TIP3   OH220745   2.196   7.810   3.793  0.7413 -0.3743  0.2174
 6935TIP3    H120746   2.271   7.851   3.836  1.4899 -2.0748  0.6200
 6935TIP3    H220747   2.231   7.774   3.712 -0.0153  0.2177 -0.3881
 6936TIP3   OH220748   6.463   1.666   6.811  0.0374  0.1588 -0.3127
 6936TIP3    H120749   6.469   1.753   6.851 -0.6947 -0.2362  0.7103
 6936TIP3    H220750   6.522   1.670   6.735 -0.5532  1.7755 -0.7293
 6937TIP3   OH220751   1.635   6.035   5.440  0.0343 -0.5332  0.0736
 6937TIP3    H120752   1.622   6.114   5.492  1.4829 -0.0044 -0.3318
 6937TIP3    H220753   1.635   6.065   5.349 -3.6920 -1.5997 -0.4701
 6938TIP3   OH220754   7.510   0.195   5.385  0.0754  0.0522  0.1976
 6938TIP3    H120755   7.478   0.264   5.327 -1.5503 -0.6601  0.1595
 6938TIP3    H220756   7.602   0.185   5.363 -0.5342 -0.3906 -2.5329
 6939TIP3   OH220757   7.185   0.502   3.042 -0.0351  0.6487  0.0184
 6939TIP3    H120758   7.185   0.416   3.084  0.6985 -0.1524 -1.5344
 6939TIP3    H220759   7.093   0.521   3.025 -0.2164  0.2466  0.5330
 6940TIP3   OH220760   6.847   6.428   6.709  0.3576 -0.2349 -0.3345
 6940TIP3    H120761   6.809   6.360   6.654  1.0135 -0.7070 -0.2198
 6940TIP3    H220762   6.790   6.433   6.785  0.3652 -0.7339 -0.2948
 6941TIP3   OH220763   2.650   3.431   5.412  0.4096 -0.1508  0.3183
 6941TIP3    H120764   2.596   3.354   5.393 -0.2647  0.4539 -0.3315
 6941TIP3    H220765   2.594   3.505   5.387  1.2513  0.5283  0.4110
 6942TIP3   OH220766   3.719   7.485   4.144 -0.4053 -0.0150 -0.4468
 6942TIP3    H120767   3.708   7.424   4.071 -1.1425  1.5554 -1.7230
 6942TIP3    H220768   3.630   7.502   4.175 -0.4099  1.6613 -1.2532
 6943TIP3   OH220769   0.598   1.401   6.051 -0.2102  0.0985  0.1316
 6943TIP3    H120770   0.679   1.449   6.066  0.4617 -1.1544  0.6856
 6943TIP3    H220771   0.547   1.414   6.130 -0.4775  0.7388 -0.1431
 6944TIP3   OH220772   7.657   7.347   2.171 -0.6806 -0.4387 -0.3982
 6944TIP3    H120773   7.729   7.399   2.135 -1.4543 -0.1615 -1.5875
 6944TIP3    H220774   7.659   7.265   2.122 -1.6614 -0.1125 -1.0026
 6945TIP3   OH220775   0.065   1.580   3.412 -0.4597  0.5929 -0.2067
 6945TIP3    H120776   0.053   1.600   3.505 -0.7875  4.4821 -0.9299
 6945TIP3    H220777  -0.007   1.519   3.391 -0.6165 -0.0396  1.9529
 6946TIP3   OH220778   2.022   4.593   4.429 -0.0595  0.8943 -0.5413
 6946TIP3    H120779   2.117   4.582   4.425  0.3988  2.7692  2.0212
 6946TIP3    H220780   1.988   4.538   4.359  2.4994 -4.2474  1.6971
 6947TIP3   OH220781   3.010   5.998   1.990  0.0316  0.0166 -0.6195
 6947TIP3    H120782   3.105   6.007   1.982 -0.1733  3.4462 -0.7375
 6947TIP3    H220783   2.997   5.957   2.076  1.5765 -0.6894 -0.6871
 6948TIP3   OH220784   6.640   6.859   1.069 -0.1543  0.0349 -0.2154
 6948TIP3    H120785   6.558   6.903   1.091 -0.1537 -0.9899  2.0189
 6948TIP3    H220786   6.696   6.873   1.145  0.2423 -2.7922  0.1201
 6949TIP3   OH220787   4.972   2.726   4.648  0.2713  0.0153 -0.7190
 6949TIP3    H120788   4.971   2.819   4.669 -1.4681 -0.1900  0.3911
 6949TIP3    H220789   5.021   2.686   4.720  1.8648  0.1314 -1.6994
 6950TIP3   OH220790   4.385   7.314   4.966 -0.0217  0.7031  0.3807
 6950TIP3    H120791   4.407   7.397   4.925  0.2450  0.2309 -0.4409
 6950TIP3    H220792   4.289   7.316   4.974 -0.0471  0.9244  0.0154
 6951TIP3   OH220793   3.713   2.644   5.733  0.4158 -0.8473 -0.2046
 6951TIP3    H120794   3.725   2.550   5.744 -0.5741 -1.0877 -1.0794
 6951TIP3    H220795   3.756   2.665   5.650 -0.9794 -0.8901 -0.9760
 6952TIP3   OH220796   0.563   6.304   1.622 -0.0250 -0.2153 -0.1020
 6952TIP3    H120797   0.583   6.361   1.547  1.0066  0.5396  0.7268
 6952TIP3    H220798   0.467   6.308   1.630 -0.1924 -0.5137 -1.5107
 6953TIP3   OH220799   0.270   5.393   2.743 -0.0596 -0.0726  0.1742
 6953TIP3    H120800   0.181   5.379   2.712 -0.6231  0.2847  1.5811
 6953TIP3    H220801   0.310   5.449   2.677 -1.0961  0.3333 -0.1171
 6954TIP3   OH220802   2.162   6.811   4.421  0.2796  0.9965 -0.3006
 6954TIP3    H120803   2.231   6.745   4.417  1.5945  2.3973 -1.2922
 6954TIP3    H220804   2.203   6.887   4.462 -1.8093  0.5981  2.9330
 6955TIP3   OH220805   5.917   3.834   0.898 -0.6169  0.3514  0.3489
 6955TIP3    H120806   5.901   3.911   0.952  0.5815  0.8927 -0.0380
 6955TIP3    H220807   5.831   3.792   0.891 -0.9655  0.7514  1.9005
 6956TIP3   OH220808   3.323   3.080   6.166  0.3818  0.4811 -0.7902
 6956TIP3    H120809   3.416   3.098   6.174  0.6363  0.4005 -3.0506
 6956TIP3    H220810   3.315   3.027   6.087 -1.6059  0.6663 -0.7666
 6957TIP3   OH220811   7.447   3.175   6.127 -0.3608 -0.5418  0.3753
 6957TIP3    H120812   7.491   3.184   6.211  0.2206 -1.6918  0.2236
 6957TIP3    H220813   7.387   3.102   6.139 -0.7292 -0.3058 -0.0239
 6958TIP3   OH220814   0.119   5.538   5.707  0.2798 -0.4369 -0.2752
 6958TIP3    H120815   0.175   5.577   5.774  0.1836  0.6912 -0.8457
 6958TIP3    H220816   0.178   5.484   5.654  0.6454 -0.0376 -0.2761
 6959TIP3   OH220817   4.936   6.929   2.677  0.0024 -0.1177  0.0699
 6959TIP3    H120818   4.976   7.005   2.720  1.4734 -1.1892  0.7005
 6959TIP3    H220819   5.004   6.861   2.681 -1.2062 -1.4187 -0.6200
 6960TIP3   OH220820   7.626   2.369   2.086  0.5392  0.3950  0.7170
 6960TIP3    H120821   7.663   2.407   2.166 -1.4611  1.1627  1.3510
 6960TIP3    H220822   7.592   2.445   2.037  1.5253 -0.0825 -0.7899
 6961TIP3   OH220823   2.009   1.008   1.460 -0.2759  0.1292  0.0938
 6961TIP3    H120824   1.951   1.041   1.391  0.6532 -1.0047 -1.2951
 6961TIP3    H220825   1.969   0.926   1.488 -1.1937  1.0718  1.6893
 6962TIP3   OH220826   0.834   2.409   1.639 -0.2831  0.0323 -0.2837
 6962TIP3    H120827   0.907   2.381   1.694 -0.4088  0.5600  0.1647
 6962TIP3    H220828   0.756   2.390   1.690 -0.3441  2.1370  0.5346
 6963TIP3   OH220829   5.592   6.781   3.009 -0.2964  0.8124 -0.2596
 6963TIP3    H120830   5.555   6.724   2.942 -1.2220  2.7493 -1.4890
 6963TIP3    H220831   5.612   6.722   3.082 -0.0372 -1.2355 -1.8885
 6964TIP3   OH220832   1.549   7.655   2.076 -0.3091  0.4480  0.1620
 6964TIP3    H120833   1.621   7.640   2.015 -1.0606 -2.6742 -0.1417
 6964TIP3    H220834   1.590   7.658   2.162  0.4086  1.4234 -0.1932
 6965TIP3   OH220835   0.613   7.142   5.212  0.0076 -0.1136 -0.0458
 6965TIP3    H120836   0.706   7.143   5.187 -0.6685 -1.3676 -3.0222
 6965TIP3    H220837   0.599   7.055   5.249  0.0031  0.1024  0.4726
 6966TIP3   OH220838   3.771   0.546   3.427  0.0281  0.2124 -0.2463
 6966TIP3    H120839   3.795   0.568   3.517  0.4370 -0.5366 -0.1622
 6966TIP3    H220840   3.677   0.525   3.432 -0.3287  1.7185 -0.3016
 6967TIP3   OH220841   8.260   0.048   6.293 -0.1467  0.1534 -0.3074
 6967TIP3    H120842   8.348   0.085   6.303 -0.8191  1.7941 -0.0040
 6967TIP3    H220843   8.241   0.008   6.378 -0.2013  1.0436  0.1174
 6968TIP3   OH220844   7.930   5.893   5.730  0.1010 -0.1744  0.0111
 6968TIP3    H120845   7.892   5.847   5.804 -0.1539  0.7682  0.4773
 6968TIP3    H220846   7.948   5.824   5.666 -1.7144 -0.7437  0.0568
 6969TIP3   OH220847   6.188   2.348   6.084 -0.8845  0.1307  0.5899
 6969TIP3    H120848   6.222   2.263   6.055 -0.9292  0.3905 -0.2690
 6969TIP3    H220849   6.263   2.408   6.075 -1.3746  0.5829 -0.7444
 6970TIP3   OH220850   0.812   1.623   2.898  0.2401 -0.8260 -0.1150
 6970TIP3    H120851   0.784   1.648   2.810 -1.6727 -2.0240  0.0808
 6970TIP3    H220852   0.845   1.534   2.888  1.6845 -0.3464  0.1255
 6971TIP3   OH220853   8.091   2.749   5.593 -0.2937  0.3303  0.2767
 6971TIP3    H120854   8.156   2.766   5.660  1.6754  1.6474 -1.8308
 6971TIP3    H220855   8.096   2.654   5.578  1.7423  0.4851 -0.3398
 6972TIP3   OH220856   4.325   1.710   6.216  0.1674 -0.1213 -0.4724
 6972TIP3    H120857   4.282   1.632   6.181  1.7278 -1.6099  0.7977
 6972TIP3    H220858   4.258   1.751   6.272  0.4835 -2.8769  2.1862
 6973TIP3   OH220859   2.436   4.778   1.504  0.2040 -0.3539 -0.0810
 6973TIP3    H120860   2.364   4.714   1.500  1.4012 -1.7294 -0.6143
 6973TIP3    H220861   2.515   4.724   1.508  1.2252  1.1257  0.2395
 6974TIP3   OH220862   4.220   4.260   5.701 -0.6694  0.1697  0.2636
 6974TIP3    H120863   4.223   4.263   5.605  0.4567 -0.6009  0.2491
 6974TIP3    H220864   4.164   4.184   5.720  0.5622 -0.7880  0.1743
 6975TIP3   OH220865   1.990   2.692   1.622 -0.1060  0.0764 -0.2771
 6975TIP3    H120866   1.961   2.709   1.532 -0.4143  0.2558 -0.1483
 6975TIP3    H220867   2.061   2.754   1.636 -1.2385  1.3057  0.1956
 6976TIP3   OH220868   7.324   5.207   4.892 -0.1802  0.4340 -0.0157
 6976TIP3    H120869   7.417   5.184   4.891 -0.0142  0.7093  2.7228
 6976TIP3    H220870   7.295   5.187   4.981 -2.5950  0.9881 -0.6060
 6977TIP3   OH220871   0.580   1.356   1.520 -0.2089  0.0508 -0.5078
 6977TIP3    H120872   0.650   1.292   1.527 -0.4493 -0.1697 -0.1247
 6977TIP3    H220873   0.618   1.426   1.466 -0.2771 -0.8515 -1.7716
 6978TIP3   OH220874   1.671   1.515   6.808  0.6981  0.2939  0.5370
 6978TIP3    H120875   1.674   1.428   6.848 -0.0450  0.5132  1.0771
 6978TIP3    H220876   1.683   1.576   6.880 -1.5892  0.7268  0.6269
 6979TIP3   OH220877   0.929   4.393   3.699 -0.4097 -0.2953 -0.4614
 6979TIP3    H120878   0.960   4.303   3.686 -0.5017 -0.7612  1.9708
 6979TIP3    H220879   0.969   4.443   3.628  2.6936 -1.6041  0.2031
 6980TIP3   OH220880   5.793   2.072   1.084  0.0369 -0.0496 -0.1889
 6980TIP3    H120881   5.712   2.023   1.099 -0.9914  1.4030 -0.6979
 6980TIP3    H220882   5.812   2.061   0.991 -0.7362  1.2228 -0.5273
 6981TIP3   OH220883   4.510   4.619   2.523  0.5061  0.2631 -0.0754
 6981TIP3    H120884   4.544   4.694   2.572  1.3739 -0.3414  0.2699
 6981TIP3    H220885   4.546   4.631   2.435  2.3375 -0.7813  0.4775
 6982TIP3   OH220886   2.964   3.902   5.197  0.5981 -0.6241 -0.2425
 6982TIP3    H120887   2.970   3.979   5.140 -0.6481  0.1369  0.6125
 6982TIP3    H220888   3.056   3.878   5.213  1.1379  1.8297  0.9657
 6983TIP3   OH220889   5.124   4.336   4.492  0.5704  0.0797  0.2359
 6983TIP3    H120890   5.124   4.432   4.483  0.4916  0.3960  2.8521
 6983TIP3    H220891   5.069   4.319   4.569  0.0067 -2.1482 -0.5836
 6984TIP3   OH220892   0.664   5.920   6.625  0.1944 -0.3159 -0.0118
 6984TIP3    H120893   0.607   5.962   6.690  1.4476  0.5621  0.5641
 6984TIP3    H220894   0.750   5.958   6.641  0.9516 -1.6064 -0.8622
 6985TIP3   OH220895   5.434   7.014   4.712 -0.6838 -0.1212  0.1912
 6985TIP3    H120896   5.467   7.051   4.631 -0.3104 -1.3297 -0.2265
 6985TIP3    H220897   5.427   6.920   4.695 -0.0508 -0.4772  1.7402
 6986TIP3   OH220898   5.145   4.017   1.659 -0.3656  0.5150 -0.2667
 6986TIP3    H120899   5.240   4.002   1.662 -0.5835 -0.9666  1.4152
 6986TIP3    H220900   5.130   4.090   1.719 -0.3309  0.3258 -0.0233
 6987TIP3   OH220901   5.861   0.564   1.803 -0.0405  0.0818 -0.1901
 6987TIP3    H120902   5.908   0.535   1.881 -0.3039 -0.4740 -0.2357
 6987TIP3    H220903   5.777   0.517   1.807 -1.5420  2.6439  1.0682
 6988TIP3   OH220904   6.932   5.764   0.169 -0.9723  0.1469  0.2822
 6988TIP3    H120905   6.925   5.813   0.251 -0.6926  1.2581 -0.3332
 6988TIP3    H220906   6.872   5.809   0.109 -1.6403 -1.0296  0.0352
 6989TIP3   OH220907   2.427   0.171   0.894 -0.2042  0.3789 -0.0921
 6989TIP3    H120908   2.417   0.139   0.804  1.0873 -1.2642  0.2921
 6989TIP3    H220909   2.520   0.190   0.902 -0.0250 -0.9355  1.3186
 6990TIP3   OH220910   6.174   5.522   1.340 -0.4567 -0.2783 -0.0764
 6990TIP3    H120911   6.250   5.580   1.350  0.3989 -1.6418  1.7986
 6990TIP3    H220912   6.121   5.564   1.272  0.9808  1.7631 -0.0235
 6991TIP3   OH220913   0.262   0.616   0.444 -0.2395  0.4791 -0.5988
 6991TIP3    H120914   0.182   0.581   0.403 -0.1638 -0.9958  0.4358
 6991TIP3    H220915   0.332   0.561   0.409  0.1030  0.6355 -0.1593
 6992TIP3   OH220916   6.563   1.603   0.530  0.2935 -0.2963  0.3551
 6992TIP3    H120917   6.593   1.512   0.538  2.6614  0.5240  1.9135
 6992TIP3    H220918   6.637   1.649   0.491 -1.0136  0.9394 -0.7683
 6993TIP3   OH220919   2.738   1.345   1.803 -0.3894  0.4422  0.4143
 6993TIP3    H120920   2.832   1.364   1.810 -0.3613  0.5185 -0.1025
 6993TIP3    H220921   2.733   1.250   1.794 -0.1460  0.5944 -2.2985
 6994TIP3   OH220922   5.556   1.054   3.627 -0.4987  0.2268 -0.4146
 6994TIP3    H120923   5.631   1.047   3.687 -0.7147 -0.5495 -0.2220
 6994TIP3    H220924   5.590   1.103   3.552  0.6352 -1.3151 -0.9665
 6995TIP3   OH220925   5.019   0.755   4.906 -0.2030 -0.4230  0.4822
 6995TIP3    H120926   4.978   0.681   4.862  1.4308 -0.8554 -0.4005
 6995TIP3    H220927   4.992   0.747   4.997 -2.3034 -0.4775 -0.0936
 6996TIP3   OH220928   7.605   6.574   3.664 -0.8237  0.0856  0.1143
 6996TIP3    H120929   7.607   6.669   3.655 -1.4976  0.1317  0.4403
 6996TIP3    H220930   7.697   6.549   3.676 -0.4836  0.5568 -1.3254
 6997TIP3   OH220931   0.248   1.420   5.054 -0.3048  0.1752  0.0743
 6997TIP3    H120932   0.213   1.333   5.037  0.4740  0.1558 -1.7476
 6997TIP3    H220933   0.191   1.479   5.005 -1.0119  0.7494  1.5454
 6998TIP3   OH220934   6.042   4.852   1.989  0.1967 -0.2667  0.0703
 6998TIP3    H120935   5.964   4.846   2.045 -0.2712 -0.0478 -0.5472
 6998TIP3    H220936   6.022   4.924   1.928  1.3651  0.5838  0.6502
 6999TIP3   OH220937   6.969   5.925   2.465  0.1143  0.4431  0.2322
 6999TIP3    H120938   7.004   5.905   2.552  0.5425  0.4624  0.0688
 6999TIP3    H220939   6.911   5.999   2.479  0.0159  0.3115  0.5360
 7000TIP3   OH220940   5.708   2.921   3.721 -0.5358  0.2614 -0.0568
 7000TIP3    H120941   5.738   2.860   3.655  0.3953  0.7987 -0.1398
 7000TIP3    H220942   5.674   2.996   3.671  0.4686  0.8093  0.0591
 7001TIP3   OH220943   0.913   6.033   6.660 -0.8223  0.8037  0.0969
 7001TIP3    H120944   0.988   6.003   6.711 -0.4243 -1.9790 -1.8801
 7001TIP3    H220945   0.918   6.129   6.664  2.5327  0.7268  0.4937
 7002TIP3   OH220946   2.073   0.980   3.324 -0.4088  0.1945 -0.6125
 7002TIP3    H120947   2.055   0.940   3.239 -0.2760  0.2683 -0.6756
 7002TIP3    H220948   1.987   1.003   3.359 -0.4294  0.7247 -0.9951
 7003TIP3   OH220949   0.266   5.910   5.738  0.5881 -0.0346 -0.2764
 7003TIP3    H120950   0.200   5.977   5.755 -1.9415 -2.2033 -1.0239
 7003TIP3    H220951   0.283   5.870   5.823 -1.6221 -1.6342 -0.5118
 7004TIP3   OH220952   5.414   0.842   2.687  0.4702 -0.3406 -0.3159
 7004TIP3    H120953   5.413   0.923   2.637 -1.7719  0.9845  1.6732
 7004TIP3    H220954   5.473   0.859   2.760 -0.3739 -0.2920  0.3704
 7005TIP3   OH220955   5.153   0.460   3.076  0.2711  0.4194 -0.3769
 7005TIP3    H120956   5.073   0.491   3.033  0.9117 -0.7111 -2.5434
 7005TIP3    H220957   5.129   0.377   3.116 -0.1239  1.0849  0.8140
 7006TIP3   OH220958   5.907   1.194   6.264 -0.6907 -0.0166  0.5977
 7006TIP3    H120959   5.840   1.191   6.332 -0.9490 -2.3263  0.3028
 7006TIP3    H220960   5.861   1.169   6.184 -0.0240  1.0555 -0.1534
 7007TIP3   OH220961   8.249   3.497   3.733  0.3990 -0.1216  0.5456
 7007TIP3    H120962   8.343   3.481   3.740  0.2655 -0.8737  0.6869
 7007TIP3    H220963   8.213   3.466   3.817  0.0589  0.4122  0.6017
 7008TIP3   OH220964   6.592   4.843   5.364  0.3801  0.3984  0.0837
 7008TIP3    H120965   6.612   4.755   5.331  1.3269  0.4484  0.4718
 7008TIP3    H220966   6.543   4.885   5.294  0.4164 -0.2500 -0.3393
 7009TIP3   OH220967   3.572   0.958   2.416  0.4085  0.1059 -0.0792
 7009TIP3    H120968   3.523   0.972   2.335  0.9050  0.4000 -0.3352
 7009TIP3    H220969   3.651   1.011   2.405  1.1554 -0.9675  0.0053
 7010TIP3   OH220970   3.718   2.179   2.274  0.3089 -0.5741 -0.4580
 7010TIP3    H120971   3.751   2.266   2.295 -1.8040 -0.1896  1.6941
 7010TIP3    H220972   3.685   2.186   2.185  1.5208  0.3707 -0.8557
 7011TIP3   OH220973   7.940   0.363   5.005  0.0955 -0.0509  0.5418
 7011TIP3    H120974   7.939   0.445   5.055  1.1633  0.2173  0.1297
 7011TIP3    H220975   8.011   0.312   5.044  0.0430 -0.4053  0.1777
 7012TIP3   OH220976   3.934   2.224   6.790 -0.3713 -0.3476  0.2671
 7012TIP3    H120977   3.888   2.277   6.725 -0.5987 -1.0228 -0.1257
 7012TIP3    H220978   3.970   2.288   6.852  0.0854  0.3174 -0.6714
 7013TIP3   OH220979   6.782   1.693   5.235 -0.1269 -0.2775  0.1667
 7013TIP3    H120980   6.832   1.708   5.155  1.1035 -1.4568  0.6753
 7013TIP3    H220981   6.696   1.665   5.204  0.2034 -0.3286 -0.7361
 7014TIP3   OH220982   7.591   2.984   5.114  0.2324  0.1436 -0.1257
 7014TIP3    H120983   7.582   3.008   5.021 -1.3985 -0.6948 -0.2245
 7014TIP3    H220984   7.507   3.009   5.153  0.8917  0.4582  1.1300
 7015TIP3   OH220985   6.792   5.513   0.285  0.5747  0.3716  0.3367
 7015TIP3    H120986   6.797   5.608   0.281  1.7850  0.3313  0.6209
 7015TIP3    H220987   6.864   5.487   0.343  0.3292 -0.7244  0.1783
 7016TIP3   OH220988   4.050   6.487   1.681  0.6950  0.3588  0.1895
 7016TIP3    H120989   4.121   6.431   1.650  0.0155 -0.4429  0.0369
 7016TIP3    H220990   4.024   6.538   1.604  0.8029  0.3141  0.1239
 7017TIP3   OH220991   6.490   4.886   2.556  0.0576 -0.0128  0.5549
 7017TIP3    H120992   6.575   4.855   2.587  0.2416  0.0617  0.1241
 7017TIP3    H220993   6.500   4.981   2.550  0.3203 -0.1010 -0.6100
 7018TIP3   OH220994   1.451   2.290   0.184  0.7594  0.3910  0.3869
 7018TIP3    H120995   1.437   2.316   0.275  0.1367  1.6605 -0.0409
 7018TIP3    H220996   1.497   2.363   0.145  0.7759 -0.0224 -0.3867
 7019TIP3   OH220997   1.616   1.582   5.209  0.3960  0.3565  0.2506
 7019TIP3    H120998   1.563   1.560   5.133  0.2271  0.0526  0.4544
 7019TIP3    H220999   1.564   1.554   5.284  0.0858  1.6409  0.5378
 7020TIP3   OH221000   3.807   7.123   0.437  0.2111 -0.5744 -0.3471
 7020TIP3    H121001   3.742   7.053   0.448 -0.3776  0.1579  1.2545
 7020TIP3    H221002   3.860   7.119   0.517  1.2281 -0.2309 -0.9841
 7021TIP3   OH221003   7.608   2.110   4.784 -0.0566  0.0965 -0.2305
 7021TIP3    H121004   7.612   2.079   4.693  1.5379 -0.7166  0.0854
 7021TIP3    H221005   7.624   2.032   4.837  0.9202  0.8816  0.6770
 7022TIP3   OH221006   4.536   2.687   2.782  0.5379 -0.2770  0.0383
 7022TIP3    H121007   4.617   2.734   2.762  1.0520 -0.9629  0.4788
 7022TIP3    H221008   4.496   2.672   2.696  0.3472  0.9781 -0.1048
 7023TIP3   OH221009   5.127   7.635   1.279 -0.0952 -0.4029  0.3624
 7023TIP3    H121010   5.162   7.570   1.218  1.1254  0.9617 -0.4468
 7023TIP3    H221011   5.033   7.615   1.284 -0.1451 -0.8421 -1.6280
 7024TIP3   OH221012   1.636   4.861   2.403 -0.6186 -0.4217  0.4565
 7024TIP3    H121013   1.663   4.932   2.345  1.1512 -1.1045  0.3845
 7024TIP3    H221014   1.679   4.880   2.486 -0.6074 -1.0819  0.6096
 7025TIP3   OH221015   7.817   3.567   4.725 -0.0797 -0.4991 -0.2352
 7025TIP3    H121016   7.907   3.537   4.719  0.4583  0.1066  3.1752
 7025TIP3    H221017   7.774   3.504   4.784 -1.3103  0.4051 -0.1113
 7026TIP3   OH221018   1.060   5.272   4.549  0.5696  0.3337 -0.0599
 7026TIP3    H121019   1.071   5.206   4.480 -0.2394  0.5094 -0.3707
 7026TIP3    H221020   1.053   5.355   4.502  1.3701  0.6211  0.3182
 7027TIP3   OH221021   7.156   3.666   0.825 -0.2884  0.6586  0.1610
 7027TIP3    H121022   7.130   3.707   0.908 -0.5021  0.2059  0.3220
 7027TIP3    H221023   7.207   3.589   0.851  0.4273  1.0214 -0.1438
 7028TIP3   OH221024   2.394   3.317   1.851 -0.3393  0.1971 -0.1446
 7028TIP3    H121025   2.388   3.299   1.758 -1.4865 -0.5443  0.0500
 7028TIP3    H221026   2.363   3.407   1.861 -2.3872 -0.4396 -0.2688
 7029TIP3   OH221027   2.830   4.143   6.468  0.5041 -0.3086  0.2208
 7029TIP3    H121028   2.800   4.134   6.377  1.8274 -0.5249 -0.2178
 7029TIP3    H221029   2.862   4.233   6.474 -1.6420  0.4572  1.1553
 7030TIP3   OH221030   5.092   2.872   6.020 -0.2284 -0.2403 -0.0417
 7030TIP3    H121031   5.063   2.955   5.981 -0.1643 -0.0638  0.2792
 7030TIP3    H221032   5.139   2.898   6.100  1.0149 -0.4970 -0.6517
 7031TIP3   OH221033   3.871   3.653   4.601  0.5905  0.4087 -0.0427
 7031TIP3    H121034   3.842   3.718   4.537 -0.0912 -2.1996 -2.6319
 7031TIP3    H221035   3.944   3.608   4.558  1.2028 -0.3953  1.7360
 7032TIP3   OH221036   0.872   2.430   4.186 -0.3795 -0.3144 -0.2707
 7032TIP3    H121037   0.879   2.514   4.231 -0.1595  1.3636 -3.1718
 7032TIP3    H221038   0.959   2.414   4.150 -0.4965 -1.6807 -0.0309
 7033TIP3   OH221039   3.914   7.652   1.493 -0.0416  0.4016  0.2386
 7033TIP3    H121040   3.942   7.728   1.543  1.8094 -0.9915  1.5047
 7033TIP3    H221041   3.903   7.583   1.559  1.6837 -1.2903 -1.1149
 7034TIP3   OH221042   5.996   4.796   6.659  0.0675  0.0223 -0.1189
 7034TIP3    H121043   6.032   4.874   6.702  1.3045 -0.7336  0.2464
 7034TIP3    H221044   6.072   4.742   6.639 -0.8047 -1.3144  0.0625
 7035TIP3   OH221045   7.282   7.450   2.322  0.1721 -0.0663 -0.3723
 7035TIP3    H121046   7.189   7.465   2.341  0.0450  0.6156 -1.4767
 7035TIP3    H221047   7.301   7.506   2.247  1.2952 -0.7631 -0.6338
 7036TIP3   OH221048   3.579   6.856   3.832 -0.3659  0.2749 -0.3161
 7036TIP3    H121049   3.628   6.812   3.762  0.6775 -2.0456  1.7086
 7036TIP3    H221050   3.497   6.806   3.838  0.1007 -0.3819  0.9004
 7037TIP3   OH221051   0.201   7.423   5.154  0.2128  0.5119  0.5395
 7037TIP3    H121052   0.202   7.464   5.067 -1.0235  1.1953  0.8223
 7037TIP3    H221053   0.264   7.351   5.148  1.0017  1.2692 -0.5652
 7038TIP3   OH221054   2.067   2.721   5.777  0.0002  0.5903 -0.2290
 7038TIP3    H121055   2.117   2.745   5.855 -1.3047  0.1994  0.7705
 7038TIP3    H221056   1.985   2.684   5.812 -0.6813  0.5610 -1.7870
 7039TIP3   OH221057   4.057   2.208   2.577  0.3514  0.1123  0.5633
 7039TIP3    H121058   4.027   2.160   2.500  1.1105 -0.7142  0.7650
 7039TIP3    H221059   4.069   2.140   2.644  0.0341  0.7740  1.3100
 7040TIP3   OH221060   6.769   1.435   1.749  0.8153  0.0528 -0.1777
 7040TIP3    H121061   6.709   1.371   1.711  0.2124 -0.9916  2.3605
 7040TIP3    H221062   6.717   1.482   1.814  1.9948  1.1760  0.0021
 7041TIP3   OH221063   5.212   6.923   1.017  0.3074  0.3952  0.7669
 7041TIP3    H121064   5.231   6.945   1.108 -2.8524  0.8279  1.4388
 7041TIP3    H221065   5.125   6.960   1.001  0.3027 -0.6122 -2.1136
 7042TIP3   OH221066   5.963   4.134   4.630 -0.0980 -0.3327  0.3014
 7042TIP3    H121067   6.031   4.162   4.569  0.8606  0.7131  1.7752
 7042TIP3    H221068   5.902   4.208   4.633 -0.3613 -0.5496  0.3103
 7043TIP3   OH221069   6.838   0.814   4.046 -0.5516 -0.1530  0.0591
 7043TIP3    H121070   6.838   0.871   4.123  0.1459  2.1071 -1.5183
 7043TIP3    H221071   6.749   0.820   4.012 -1.0839 -1.7675  1.0427
 7044TIP3   OH221072   2.902   3.794   6.146 -0.3228  0.0075  0.3310
 7044TIP3    H121073   2.829   3.856   6.143 -1.1012 -0.7016  2.3922
 7044TIP3    H221074   2.940   3.797   6.059 -2.5721  0.6964 -0.6999
 7045TIP3   OH221075   2.702   2.766   0.315 -0.0240 -0.1053 -0.8579
 7045TIP3    H121076   2.697   2.682   0.269 -0.7251 -1.6429  1.8127
 7045TIP3    H221077   2.610   2.790   0.330  0.1812  0.3714 -0.3524
 7046TIP3   OH221078   6.084   3.808   0.376 -0.2621  0.3448  0.4008
 7046TIP3    H121079   6.124   3.881   0.328  1.0627  0.7031  1.9384
 7046TIP3    H221080   6.058   3.746   0.308 -0.6118  1.8406 -0.8994
 7047TIP3   OH221081   6.819   0.983   6.385 -0.2076  0.1759  0.0537
 7047TIP3    H121082   6.835   0.909   6.328 -0.2339  1.1815 -1.3062
 7047TIP3    H221083   6.724   0.983   6.399  0.0649 -1.7041  2.4406
 7048TIP3   OH221084   4.170   6.477   6.522  0.3843  0.3714 -0.7814
 7048TIP3    H121085   4.138   6.387   6.516 -1.0838  0.8135  0.1232
 7048TIP3    H221086   4.125   6.523   6.451 -0.0790  0.7257 -0.2662
 7049TIP3   OH221087   0.601   1.307   5.768 -0.1674 -0.1828  0.1713
 7049TIP3    H121088   0.646   1.228   5.796  2.9765  0.9309 -1.2576
 7049TIP3    H221089   0.553   1.337   5.845  2.2935 -1.0314  2.1478
 7050TIP3   OH221090   6.776   2.271   6.006 -0.3585 -0.6936 -0.2423
 7050TIP3    H121091   6.828   2.261   5.926 -1.2449 -0.7075 -0.8270
 7050TIP3    H221092   6.709   2.336   5.983  0.4072  0.6165  1.0169
 7051TIP3   OH221093   8.089   3.222   0.122  0.3236  0.1225 -0.3329
 7051TIP3    H121094   8.084   3.128   0.135  1.2243  0.1036 -0.0019
 7051TIP3    H221095   8.179   3.238   0.094  0.0097  0.8188 -0.9926
 7052TIP3   OH221096   6.841   3.418   1.597  0.6972  0.7190  0.0999
 7052TIP3    H121097   6.932   3.448   1.585  1.0809  0.9035  2.7969
 7052TIP3    H221098   6.796   3.495   1.633 -0.0688  0.1210  0.4374
 7053TIP3   OH221099   7.665   2.507   0.318 -0.2116  0.1732 -0.0353
 7053TIP3    H121100   7.606   2.580   0.333 -0.7157 -0.0986 -0.6323
 7053TIP3    H221101   7.749   2.547   0.296 -0.4852  0.5762 -0.3556
 7054TIP3   OH221102   4.247   7.630   4.963  0.1973 -0.2619 -0.1970
 7054TIP3    H121103   4.219   7.567   5.029 -0.8413  0.2527 -0.1171
 7054TIP3    H221104   4.273   7.707   5.014  0.6722 -0.3368 -0.3289
 7055TIP3   OH221105   7.471   1.021   0.881 -0.4820 -0.5366 -0.0993
 7055TIP3    H121106   7.439   0.936   0.909  1.3319 -1.6396 -1.1691
 7055TIP3    H221107   7.541   1.042   0.944 -1.1314  0.3513  0.3569
 7056TIP3   OH221108   5.099   2.134   4.826  0.7660 -0.5835 -0.7261
 7056TIP3    H121109   5.179   2.132   4.878  1.6273  1.4234 -1.8590
 7056TIP3    H221110   5.028   2.131   4.891  1.7736 -0.3230  0.4181
 7057TIP3   OH221111   5.252   2.899   3.187 -0.1584  0.1506 -0.1508
 7057TIP3    H121112   5.187   2.967   3.166 -0.8927 -1.1159 -2.3797
 7057TIP3    H221113   5.289   2.926   3.271 -2.9559  1.3908  0.8086
 7058TIP3   OH221114   7.765   0.190   5.472  0.3687  0.5733  0.0408
 7058TIP3    H121115   7.843   0.203   5.525  0.6308 -1.1725  0.1306
 7058TIP3    H221116   7.793   0.135   5.399 -1.1890 -2.4111  1.4629
 7059TIP3   OH221117   1.523   2.224   5.334 -0.2617 -0.5033  0.1931
 7059TIP3    H121118   1.449   2.245   5.277 -0.5861  0.3147  0.8815
 7059TIP3    H221119   1.560   2.309   5.358  2.3044 -0.9266 -1.8625
 7060TIP3   OH221120   7.179   4.594   3.798 -0.1828 -0.1268 -0.1687
 7060TIP3    H121121   7.206   4.564   3.711 -1.3233  1.9684 -1.3089
 7060TIP3    H221122   7.085   4.607   3.790 -1.1102 -3.6632  2.6073
 7061TIP3   OH221123   4.846   1.906   0.535 -0.1201  0.4025  0.3073
 7061TIP3    H121124   4.876   1.847   0.604 -1.2015 -0.2133  0.2776
 7061TIP3    H221125   4.817   1.848   0.464  1.1017  1.0235 -0.7454
 7062TIP3   OH221126   5.237   5.431   0.986  0.4625  0.4174  0.2048
 7062TIP3    H121127   5.328   5.401   0.982  0.1514 -0.7053  0.9639
 7062TIP3    H221128   5.204   5.395   1.069 -0.2625  1.9933  0.6253
 7063TIP3   OH221129   1.756   4.425   5.000 -0.2537 -0.5607  0.5023
 7063TIP3    H121130   1.709   4.506   4.979 -1.6078 -1.4289  0.0215
 7063TIP3    H221131   1.770   4.383   4.915  1.9923 -0.0502  0.5649
 7064TIP3   OH221132   1.356   2.279   5.040  0.1777 -0.2958  0.1742
 7064TIP3    H121133   1.313   2.322   4.966  1.6906  0.9516 -0.0434
 7064TIP3    H221134   1.312   2.313   5.118  0.5716  0.7767 -0.0541
 7065TIP3   OH221135   3.482   3.271   5.454 -0.1589 -0.0474  0.4881
 7065TIP3    H121136   3.545   3.344   5.461 -1.0529  0.7941  0.0432
 7065TIP3    H221137   3.493   3.222   5.535 -0.4994  1.4013  1.4595
 7066TIP3   OH221138   0.743   1.604   0.950 -0.2737 -0.3148 -0.3320
 7066TIP3    H121139   0.685   1.528   0.959  0.4361 -0.6878  1.6128
 7066TIP3    H221140   0.806   1.594   1.021  0.2125  1.7925 -0.4089
 7067TIP3   OH221141   4.995   3.507   5.316 -0.9443 -0.4193  0.2884
 7067TIP3    H121142   4.956   3.420   5.309 -3.0174  0.4108  0.5809
 7067TIP3    H221143   5.027   3.511   5.407 -0.6608 -0.9299  0.2155
 7068TIP3   OH221144   0.542   4.888   3.979 -0.5687  0.3725  0.4500
 7068TIP3    H121145   0.583   4.852   3.901 -1.5132 -1.0012  0.5620
 7068TIP3    H221146   0.460   4.927   3.948 -1.0829 -0.4264  0.7806
 7069TIP3   OH221147   6.021   5.168   2.848 -0.6237  0.3269  0.1173
 7069TIP3    H121148   6.068   5.217   2.915 -1.2727 -0.5755  1.2661
 7069TIP3    H221149   6.090   5.126   2.796  0.0162  3.2215 -1.5996
 7070TIP3   OH221150   3.261   2.448   6.447  0.3895  0.5756  0.3639
 7070TIP3    H121151   3.177   2.464   6.491  0.9908  0.5950  1.5357
 7070TIP3    H221152   3.236   2.412   6.362 -0.8404  1.8032  0.1625
 7071TIP3   OH221153   7.863   5.871   6.422 -0.5442 -0.2395 -0.1255
 7071TIP3    H121154   7.875   5.783   6.387  2.7836  0.2205 -0.4805
 7071TIP3    H221155   7.942   5.918   6.398 -0.6826  1.8948  2.8938
 7072TIP3   OH221156   8.351   4.809   6.629 -0.4522  0.9077  1.0230
 7072TIP3    H121157   8.412   4.865   6.677  0.3341  0.1274  0.9487
 7072TIP3    H221158   8.371   4.721   6.659 -0.0504  0.4177 -0.5979
 7073TIP3   OH221159   6.373   7.392   1.545  0.0949  0.0212 -0.1964
 7073TIP3    H121160   6.443   7.327   1.552 -0.0801 -0.2954 -1.2036
 7073TIP3    H221161   6.305   7.360   1.605  0.9260  0.5127  1.0441
 7074TIP3   OH221162   3.109   3.837   4.911  0.2516  0.2655 -0.1966
 7074TIP3    H121163   3.038   3.858   4.851 -1.1411  1.0481  1.6242
 7074TIP3    H221164   3.181   3.810   4.854 -1.2877 -0.0002 -2.1395
 7075TIP3   OH221165   2.870   2.225   0.985 -0.1010 -0.6807 -0.3446
 7075TIP3    H121166   2.927   2.180   0.922  1.3688 -2.0345  1.7954
 7075TIP3    H221167   2.791   2.172   0.987  0.4688 -1.5397  0.0522
 7076TIP3   OH221168   2.767   4.615   0.341  0.0399 -0.1308 -0.1467
 7076TIP3    H121169   2.853   4.606   0.300 -0.1648 -0.6585 -0.4725
 7076TIP3    H221170   2.709   4.564   0.285 -0.6578  0.9473 -0.4393
 7077TIP3   OH221171   5.185   3.729   2.790 -0.4186  0.3021 -0.2463
 7077TIP3    H121172   5.164   3.651   2.740 -1.6700  1.2293 -1.2390
 7077TIP3    H221173   5.101   3.774   2.802  0.1241  1.0402  1.1030
 7078TIP3   OH221174   0.585   6.169   5.276 -0.6627 -0.3752 -0.1202
 7078TIP3    H121175   0.563   6.091   5.226 -0.5555 -0.3458 -0.2128
 7078TIP3    H221176   0.672   6.153   5.311  0.5064  0.7493 -2.2941
 7079TIP3   OH221177   1.795   7.834   2.056  0.3943  0.1443 -0.3723
 7079TIP3    H121178   1.805   7.753   2.007  0.3079  0.4114 -0.8328
 7079TIP3    H221179   1.808   7.808   2.147  0.3040 -0.3969 -0.5102
 7080TIP3   OH221180   0.482   7.328   1.967  0.3501 -0.7087 -0.1830
 7080TIP3    H121181   0.495   7.289   1.880  1.4885 -0.2647 -0.2326
 7080TIP3    H221182   0.553   7.391   1.975 -0.2676 -0.1146  0.7257
 7081TIP3   OH221183   7.826   4.048   0.638 -0.2976  0.4080  0.4765
 7081TIP3    H121184   7.832   4.130   0.589  0.0210 -0.2779 -0.6985
 7081TIP3    H221185   7.779   4.070   0.718 -0.5706  1.6417 -0.0048
 7082TIP3   OH221186   1.498   3.948   1.408 -0.0190 -0.3299  0.2701
 7082TIP3    H121187   1.470   3.943   1.317  1.5866 -0.0452 -0.2656
 7082TIP3    H221188   1.477   4.038   1.435 -1.7434 -0.8048  0.6478
 7083TIP3   OH221189   7.737   4.018   2.603  0.5695  0.3074 -0.2995
 7083TIP3    H121190   7.684   3.997   2.680 -1.6915 -0.9972 -2.0705
 7083TIP3    H221191   7.789   3.939   2.587 -0.4881 -0.2230 -1.2350
 7084TIP3   OH221192   0.051   7.086   2.617 -0.6070 -0.2006  0.2227
 7084TIP3    H121193   0.067   7.062   2.708  1.0933  0.4796  0.1293
 7084TIP3    H221194   0.006   7.171   2.622  1.5118  0.9703  0.4409
 7085TIP3   OH221195   2.214   4.130   0.707  0.5126 -0.6205 -0.7702
 7085TIP3    H121196   2.265   4.175   0.640 -1.3516  1.3802 -0.9627
 7085TIP3    H221197   2.123   4.144   0.682 -0.2326 -0.5681  1.6734
 7086TIP3   OH221198   5.728   0.865   0.709  0.3412 -0.3334 -0.2585
 7086TIP3    H121199   5.778   0.851   0.628  0.3286  0.4207 -0.4068
 7086TIP3    H221200   5.785   0.834   0.779  1.3728  1.2438 -0.3530
 7087TIP3   OH221201   0.037   5.004   2.447  0.0644  0.2215  0.3542
 7087TIP3    H121202   0.119   4.964   2.418  0.5574  0.9720  0.6671
 7087TIP3    H221203  -0.020   4.930   2.466  0.7061 -0.3198  0.2382
 7088TIP3   OH221204   5.698   3.290   2.633 -0.4023  0.4614  0.0965
 7088TIP3    H121205   5.619   3.302   2.581 -0.3329 -1.5810 -0.5677
 7088TIP3    H221206   5.666   3.262   2.719 -0.4166  0.6814  0.1645
 7089TIP3   OH221207   7.487   0.842   2.020 -0.3185 -0.0503 -0.0321
 7089TIP3    H121208   7.536   0.904   2.075  1.7868 -1.2737 -0.4345
 7089TIP3    H221209   7.431   0.795   2.082  0.2815  0.1978  0.7187
 7090TIP3   OH221210   4.263   5.840   0.593  0.4926  0.1704  0.0343
 7090TIP3    H121211   4.245   5.907   0.527  1.2436 -0.0368 -0.4006
 7090TIP3    H221212   4.343   5.797   0.561  0.3002 -0.5913  0.5711
 7091TIP3   OH221213   4.235   5.844   2.967  0.2932 -1.4607  0.7234
 7091TIP3    H121214   4.271   5.897   3.038 -2.0126  1.4315 -0.0961
 7091TIP3    H221215   4.219   5.759   3.007  2.5767 -1.1276  2.5775
 7092TIP3   OH221216   0.375   2.788   3.771  0.1773  1.0122 -0.0834
 7092TIP3    H121217   0.308   2.756   3.831  0.2210  0.9449 -0.0687
 7092TIP3    H221218   0.384   2.718   3.706 -1.3163  1.9462 -1.3569
 7093TIP3   OH221219   2.917   3.027   1.851  0.4268  0.5938  0.6501
 7093TIP3    H121220   2.945   2.954   1.796 -0.4208  0.9996 -0.3533
 7093TIP3    H221221   2.822   3.031   1.839  0.5259  2.2476  0.1866
 7094TIP3   OH221222   1.422   2.164   6.592 -0.3092  0.2587  0.0118
 7094TIP3    H121223   1.389   2.080   6.559 -0.9712  0.1228  0.9760
 7094TIP3    H221224   1.501   2.180   6.541 -0.7764 -0.3986 -0.9705
 7095TIP3   OH221225   7.101   0.709   2.261 -0.1130  0.5590 -0.3213
 7095TIP3    H121226   7.060   0.700   2.175 -0.4546  0.9519 -0.2008
 7095TIP3    H221227   7.189   0.672   2.249  0.3106  1.7716 -1.1974
 7096TIP3   OH221228   2.899   6.719   2.462 -0.1681 -0.2483 -0.9266
 7096TIP3    H121229   2.961   6.647   2.457  0.8839  0.6135 -0.7601
 7096TIP3    H221230   2.860   6.711   2.548 -0.5764 -1.0183 -1.1746
 7097TIP3   OH221231   2.245   7.559   1.515 -0.0010  0.4503 -0.1347
 7097TIP3    H121232   2.159   7.544   1.475 -0.6370  3.7266 -0.2827
 7097TIP3    H221233   2.305   7.507   1.461 -1.7016 -0.8633 -0.8668
 7098TIP3   OH221234   4.287   5.372   3.449 -0.5056 -0.3063  0.0270
 7098TIP3    H121235   4.378   5.398   3.433 -0.8929  0.2335 -1.5055
 7098TIP3    H221236   4.262   5.418   3.530  0.0846  0.8866 -0.4416
 7099TIP3   OH221237   5.274   2.915   1.000  0.2662  0.6017  0.2933
 7099TIP3    H121238   5.194   2.956   1.033 -0.7672 -1.5221  0.6341
 7099TIP3    H221239   5.328   2.902   1.078 -0.5905 -1.0591  0.6687
 7100TIP3   OH221240   1.356   7.370   0.926  0.4768  0.0375 -0.3414
 7100TIP3    H121241   1.396   7.322   0.998 -0.1580 -1.0616 -0.6939
 7100TIP3    H221242   1.270   7.330   0.915 -0.8674  2.4867  0.5509
 7101TIP3   OH221243   5.507   1.965   6.242 -0.0579 -0.8692  0.3145
 7101TIP3    H121244   5.602   1.956   6.238 -0.1159 -1.3422 -0.0714
 7101TIP3    H221245   5.485   2.019   6.166 -0.1631 -1.3485  0.0003
 7102TIP3   OH221246   3.385   4.292   0.580  0.1774 -0.2060  0.3758
 7102TIP3    H121247   3.348   4.378   0.562 -0.6551 -0.0952  2.3110
 7102TIP3    H221248   3.476   4.298   0.550 -0.2482  0.8775 -0.7728
 7103TIP3   OH221249   7.799   2.984   5.302  0.2389  0.1558 -0.8843
 7103TIP3    H121250   7.741   2.997   5.376  1.1990 -1.4153  0.2098
 7103TIP3    H221251   7.742   2.954   5.231 -0.4411 -0.1666 -0.2028
 7104TIP3   OH221252   1.496   1.658   5.474 -0.5119  0.0532 -0.2587
 7104TIP3    H121253   1.485   1.586   5.536  0.0584  0.8079  0.7348
 7104TIP3    H221254   1.555   1.719   5.517 -1.2146  1.2725 -0.9542
 7105TIP3   OH221255   4.127   3.123   6.683  0.5276  0.3641  0.0932
 7105TIP3    H121256   4.132   3.218   6.696  1.7423  0.4424 -0.6988
 7105TIP3    H221257   4.204   3.089   6.729 -0.8092 -0.4591  1.8304
 7106TIP3   OH221258   4.859   5.162   3.842 -0.2157 -0.1120 -0.5865
 7106TIP3    H121259   4.845   5.130   3.931 -0.0500 -1.6196 -1.0698
 7106TIP3    H221260   4.917   5.237   3.852 -2.4181  1.5459  0.7941
 7107TIP3   OH221261   2.007   1.629   5.524 -0.1383  0.1166  0.4143
 7107TIP3    H121262   1.974   1.710   5.484  0.8324 -0.1124 -0.9390
 7107TIP3    H221263   2.040   1.655   5.610 -1.5555  0.7904  0.7758
 7108TIP3   OH221264   4.845   4.688   5.268  0.8228  0.1649  0.0003
 7108TIP3    H121265   4.804   4.647   5.344  1.2728 -1.8686 -0.7965
 7108TIP3    H221266   4.805   4.645   5.192  0.1276  2.3704 -1.0000
 7109TIP3   OH221267   6.517   5.125   1.379 -0.2506 -0.4339 -0.5730
 7109TIP3    H121268   6.529   5.091   1.290 -0.6381 -1.1147 -0.3666
 7109TIP3    H221269   6.498   5.218   1.366 -0.6508 -0.5982 -1.2240
 7110TIP3   OH221270   3.698   1.046   2.703  0.0692  0.0583  0.4852
 7110TIP3    H121271   3.769   1.036   2.766 -0.4195  1.4095  1.2971
 7110TIP3    H221272   3.649   0.964   2.708  0.4958 -0.1572  1.2832
 7111TIP3   OH221273   2.844   5.591   6.419  0.2013  0.0065  0.2580
 7111TIP3    H121274   2.902   5.532   6.372  0.0991 -0.0687  0.2278
 7111TIP3    H221275   2.838   5.554   6.507 -0.6165 -0.5553 -0.0222
 7112TIP3   OH221276   7.969   0.890   4.885  0.0922 -0.5840  0.1506
 7112TIP3    H121277   7.939   0.834   4.813 -0.6981 -1.3126  1.0324
 7112TIP3    H221278   7.891   0.904   4.939  0.8562 -0.7477  1.3301
 7113TIP3   OH221279   8.086   0.218   3.507 -0.2636  0.2418  0.3048
 7113TIP3    H121280   8.015   0.162   3.475  0.7904 -0.9073 -0.1121
 7113TIP3    H221281   8.092   0.198   3.601 -0.3812  0.2169  0.3070
 7114TIP3   OH221282   0.562   5.158   2.579 -0.0075  0.1519 -0.2115
 7114TIP3    H121283   0.497   5.089   2.566 -0.3955  0.2115  1.1928
 7114TIP3    H221284   0.594   5.144   2.669  2.1780 -0.0717 -0.9553
 7115TIP3   OH221285   2.731   5.122   0.971 -0.3213  0.5042  0.3207
 7115TIP3    H121286   2.780   5.106   1.052 -0.6304  1.2991  0.6704
 7115TIP3    H221287   2.664   5.186   0.995 -0.9956  0.0784 -0.3540
 7116TIP3   OH221288   0.553   0.595   5.067 -0.4239  0.4477 -0.3050
 7116TIP3    H121289   0.574   0.559   5.153  0.5947  1.0910 -0.2708
 7116TIP3    H221290   0.474   0.548   5.041 -0.1552 -0.5160  0.5147
 7117TIP3   OH221291   6.742   5.338   4.548 -0.2893  0.6668  0.2283
 7117TIP3    H121292   6.764   5.260   4.600  0.2177  1.1837  0.8130
 7117TIP3    H221293   6.750   5.310   4.457  1.2730  0.3922  0.4195
 7118TIP3   OH221294   5.641   2.299   2.029  0.2971  0.6893  0.2296
 7118TIP3    H121295   5.685   2.287   1.945 -1.3096  0.1385 -0.5551
 7118TIP3    H221296   5.548   2.299   2.009 -0.1779 -0.5317  2.1359
 7119TIP3   OH221297   0.526   3.924   6.592  0.1847 -0.4563 -0.2017
 7119TIP3    H121298   0.537   3.920   6.687 -1.1865  1.3863  0.0896
 7119TIP3    H221299   0.597   3.869   6.557  1.2850 -0.4228  1.8393
 7120TIP3   OH221300   2.664   2.711   1.886 -0.0416  0.0697 -0.5272
 7120TIP3    H121301   2.759   2.701   1.895  0.3931  0.9162 -3.2701
 7120TIP3    H221302   2.631   2.622   1.873  0.6700 -0.0627 -1.5386
 7121TIP3   OH221303   7.396   6.814   5.659  0.1338 -0.4116 -0.2563
 7121TIP3    H121304   7.462   6.805   5.590 -0.4756 -0.3200 -0.8634
 7121TIP3    H221305   7.428   6.887   5.713 -0.3123  0.7909 -1.5397
 7122TIP3   OH221306   3.873   1.623   5.385 -0.2057  0.1956  0.0997
 7122TIP3    H121307   3.809   1.689   5.358 -0.0363  1.1356  1.8358
 7122TIP3    H221308   3.935   1.672   5.440  1.5384 -0.8595 -0.8423
 7123TIP3   OH221309   3.076   2.456   5.419  0.2624 -0.1184 -0.2579
 7123TIP3    H121310   3.170   2.464   5.437  0.6573  1.6752 -2.5341
 7123TIP3    H221311   3.039   2.539   5.447 -1.0376 -1.3897  2.1098
 7124TIP3   OH221312   6.538   6.017   4.190 -0.4932 -0.5775 -0.4090
 7124TIP3    H121313   6.585   5.980   4.265 -0.8916 -0.3697 -0.0466
 7124TIP3    H221314   6.598   6.008   4.117 -1.2457 -3.6825 -0.7855
 7125TIP3   OH221315   7.383   7.580   6.496  0.8248  0.2422  0.0349
 7125TIP3    H121316   7.300   7.612   6.461  0.4027 -0.2086  0.6054
 7125TIP3    H221317   7.363   7.551   6.585  1.3911 -0.7269 -0.1329
 7126TIP3   OH221318   1.024   6.908   5.253  0.8942 -0.3581  0.1074
 7126TIP3    H121319   1.036   6.893   5.347  1.1582  0.6420  0.2395
 7126TIP3    H221320   1.014   6.820   5.217  0.5514 -0.7488  1.0988
 7127TIP3   OH221321   7.470   0.256   0.334 -0.9831  0.3485  0.1655
 7127TIP3    H121322   7.521   0.252   0.416 -0.3590  0.5469 -0.2034
 7127TIP3    H221323   7.469   0.166   0.302  0.3467  0.5543 -0.5345
 7128TIP3   OH221324   8.040   4.287   0.930  0.2296  0.0811  0.1400
 7128TIP3    H121325   7.995   4.265   1.011  0.4671  0.0978  0.2755
 7128TIP3    H221326   7.971   4.285   0.863  0.4529 -2.6056 -0.1451
 7129TIP3   OH221327   5.649   5.753   0.970  0.0871 -0.2744  0.3620
 7129TIP3    H121328   5.572   5.696   0.966 -0.4364  0.3556  1.1772
 7129TIP3    H221329   5.656   5.777   1.063 -1.3425  3.1991 -0.3175
 7130TIP3   OH221330   2.689   1.257   4.565 -0.6017 -0.2545 -0.0420
 7130TIP3    H121331   2.769   1.279   4.613  0.6627 -1.9026 -1.2714
 7130TIP3    H221332   2.624   1.240   4.633  0.6404 -0.7489  1.0707
 7131TIP3   OH221333   0.969   6.684   0.402  0.1035  0.1415 -0.6298
 7131TIP3    H121334   1.017   6.733   0.469 -0.5202 -0.5652  0.3662
 7131TIP3    H221335   0.905   6.633   0.452  0.5013 -1.4139 -1.6573
 7132TIP3   OH221336   5.865   7.486   4.248  0.0071 -0.0652 -0.1500
 7132TIP3    H121337   5.960   7.483   4.242 -0.0443  0.8234 -2.2453
 7132TIP3    H221338   5.841   7.576   4.224 -1.3135  0.1158  1.6348
 7133TIP3   OH221339   5.049   2.453   1.750 -0.3425  0.4535  0.7363
 7133TIP3    H121340   4.964   2.467   1.708  0.7291  0.4517 -1.5535
 7133TIP3    H221341   5.034   2.381   1.811 -1.6384 -0.5605 -0.7248
 7134TIP3   OH221342   4.881   7.482   2.295 -0.4076 -0.0953 -0.0476
 7134TIP3    H121343   4.861   7.534   2.217  0.2937  0.9457  0.4460
 7134TIP3    H221344   4.940   7.414   2.263  1.9755  1.8285 -0.0477
 7135TIP3   OH221345   0.775   7.168   1.934  0.0168 -0.5770 -0.2090
 7135TIP3    H121346   0.738   7.170   2.022 -0.9441  0.1408 -0.6016
 7135TIP3    H221347   0.702   7.139   1.879  0.8214 -1.7633 -0.6865
 7136TIP3   OH221348   4.608   4.122   6.539 -0.3358  0.1915  0.0515
 7136TIP3    H121349   4.599   4.096   6.447 -1.0710 -0.0601  0.1882
 7136TIP3    H221350   4.642   4.044   6.582  1.5886  0.7976 -0.2675
 7137TIP3   OH221351   6.427   1.585   4.236  0.4321 -0.2942  0.0453
 7137TIP3    H121352   6.479   1.557   4.161 -1.1697 -1.0033 -0.8602
 7137TIP3    H221353   6.445   1.678   4.244  2.5014 -0.6758  0.3540
 7138TIP3   OH221354   1.491   6.234   3.256  0.7105 -0.0623  0.6926
 7138TIP3    H121355   1.579   6.198   3.247  1.3237  1.7790 -1.6925
 7138TIP3    H221356   1.487   6.305   3.192 -2.1426  0.6862  1.5355
 7139TIP3   OH221357   7.835   0.076   3.131 -0.2591  0.2936 -0.0063
 7139TIP3    H121358   7.758   0.131   3.119 -1.3454 -1.1142  0.1551
 7139TIP3    H221359   7.854   0.043   3.043 -0.5429 -0.2413  0.1292
 7140TIP3   OH221360   0.844   7.408   4.523  0.4690  0.0865  0.0975
 7140TIP3    H121361   0.786   7.477   4.492 -0.2763 -0.8666 -0.6849
 7140TIP3    H221362   0.854   7.425   4.617 -2.5852 -0.7427  0.6784
 7141TIP3   OH221363   4.982   7.026   4.981  0.2017  0.0053 -0.0946
 7141TIP3    H121364   5.021   7.078   5.051 -0.7363 -0.4397  0.7958
 7141TIP3    H221365   5.051   7.020   4.914  1.0182  0.6882  0.6546
 7142TIP3   OH221366   4.548   2.144   6.463  0.1838  0.3147 -0.3784
 7142TIP3    H121367   4.487   2.205   6.421 -1.0480 -0.6825 -0.0809
 7142TIP3    H221368   4.607   2.201   6.513 -1.2170  1.2735  0.2513
 7143TIP3   OH221369   7.673   1.099   1.761 -0.6979 -0.2382  0.2802
 7143TIP3    H121370   7.614   1.044   1.710 -1.4462  1.3341 -0.6422
 7143TIP3    H221371   7.759   1.086   1.720 -1.2097  0.6698 -1.1760
 7144TIP3   OH221372   3.247   6.803   2.349  0.2071  0.1386  0.5364
 7144TIP3    H121373   3.317   6.852   2.393  0.6400 -0.4818  0.5486
 7144TIP3    H221374   3.174   6.864   2.347 -0.1733 -0.1082  3.0429
 7145TIP3   OH221375   4.466   6.378   4.365 -0.0313  0.1497  0.0613
 7145TIP3    H121376   4.454   6.449   4.302  0.0244 -0.1721 -0.3137
 7145TIP3    H221377   4.503   6.421   4.442  1.6756  0.2648 -0.7810
 7146TIP3   OH221378   4.403   1.764   1.581  0.2742  0.2829  0.4660
 7146TIP3    H121379   4.329   1.778   1.641 -1.8966  0.2053 -2.0128
 7146TIP3    H221380   4.402   1.669   1.565  0.8585  0.2976  0.3418
 7147TIP3   OH221381   1.559   4.554   5.760 -0.5988  0.2121 -0.9820
 7147TIP3    H121382   1.579   4.623   5.697 -0.4708  0.4432 -0.6936
 7147TIP3    H221383   1.640   4.546   5.812 -1.4555  1.6803  0.6979
 7148TIP3   OH221384   2.816   1.737   0.949  0.4874  0.1410  0.5136
 7148TIP3    H121385   2.862   1.653   0.938  0.7847  0.3401  0.1974
 7148TIP3    H221386   2.724   1.716   0.937  0.6872  0.1217 -1.1988
 7149TIP3   OH221387   4.053   6.358   0.957 -0.6049 -0.6788  0.4949
 7149TIP3    H121388   4.071   6.274   0.915 -0.2912 -0.4409  0.1468
 7149TIP3    H221389   3.970   6.344   1.003 -0.1396 -1.4217  1.1154
 7150TIP3   OH221390   7.284   5.908   3.157 -0.2924 -0.8473 -0.9453
 7150TIP3    H121391   7.226   5.849   3.206 -1.7280  0.8840 -0.4456
 7150TIP3    H221392   7.356   5.927   3.218 -2.2096  1.5188  0.7526
 7151TIP3   OH221393   0.228   7.436   0.134  0.0194 -0.1577  0.0489
 7151TIP3    H121394   0.229   7.504   0.067 -0.8454 -0.7649 -0.6076
 7151TIP3    H221395   0.228   7.484   0.217 -2.7419  0.7833 -0.3816
 7152TIP3   OH221396   0.350   4.714   1.361  0.9936 -0.2235  0.0720
 7152TIP3    H121397   0.291   4.787   1.375  1.1790 -0.1376  0.4461
 7152TIP3    H221398   0.433   4.743   1.399  1.3296 -0.2687 -0.6152
 7153TIP3   OH221399   2.643   1.429   0.416  0.3299 -0.1886 -0.1148
 7153TIP3    H121400   2.662   1.466   0.330  0.6500 -1.2214 -0.4969
 7153TIP3    H221401   2.678   1.493   0.478  0.8978  0.1373 -0.7644
 7154TIP3   OH221402   0.051   0.523   6.150  0.0168 -0.4935 -0.1312
 7154TIP3    H121403  -0.041   0.514   6.177 -0.0252  0.6554  0.1605
 7154TIP3    H221404   0.046   0.550   6.058  0.0161  0.3724  0.1065
 7155TIP3   OH221405   1.984   2.821   2.878 -0.5124 -0.3341  0.2721
 7155TIP3    H121406   1.994   2.815   2.783 -0.9505  2.2539 -0.0098
 7155TIP3    H221407   2.070   2.848   2.909 -0.7696  0.3501  0.4074
 7156TIP3   OH221408   0.226   5.452   6.598  0.1852 -0.0628  0.0075
 7156TIP3    H121409   0.179   5.508   6.536  0.6646  1.0714  0.6412
 7156TIP3    H221410   0.200   5.485   6.684  2.0719  0.5904  0.3865
 7157TIP3   OH221411   8.263   3.441   5.075  0.3882  0.0313 -0.5424
 7157TIP3    H121412   8.291   3.361   5.120 -1.3085 -0.2524  0.0598
 7157TIP3    H221413   8.335   3.503   5.091  1.2912 -1.0749 -0.2109
 7158TIP3   OH221414   0.926   5.658   5.723  0.2195 -0.1309 -0.5422
 7158TIP3    H121415   1.011   5.630   5.687  0.1010 -1.5513  0.1991
 7158TIP3    H221416   0.867   5.657   5.649  0.6217 -0.1775 -0.8664
 7159TIP3   OH221417   7.317   4.308   2.349 -0.0943 -0.1750  0.3699
 7159TIP3    H121418   7.387   4.371   2.330 -0.5761  0.4368  0.5486
 7159TIP3    H221419   7.265   4.351   2.417 -0.8418 -0.4642 -0.0062
 7160TIP3   OH221420   1.944   2.621   0.147  0.3293 -0.0262  0.1047
 7160TIP3    H121421   1.964   2.604   0.239  0.6676  0.7844  0.1913
 7160TIP3    H221422   1.926   2.535   0.110 -0.2293 -0.3154  1.0269
 7161TIP3   OH221423   0.895   7.622   5.714  0.4285  0.1704 -0.3757
 7161TIP3    H121424   0.911   7.532   5.741  0.0106  0.2403  0.1184
 7161TIP3    H221425   0.804   7.624   5.686  0.8827  0.0774 -1.9371
 7162TIP3   OH221426   7.346   2.741   5.397  0.0280 -0.4898 -0.7195
 7162TIP3    H121427   7.280   2.782   5.342  0.9498  0.2881 -1.2792
 7162TIP3    H221428   7.335   2.782   5.483 -0.2366 -0.3772 -0.8075
 7163TIP3   OH221429   3.074   0.253   2.815  0.0805 -0.3698  0.2461
 7163TIP3    H121430   3.143   0.309   2.780 -0.3980  0.3770  0.4817
 7163TIP3    H221431   3.030   0.307   2.881  0.3006 -1.3845  1.2545
 7164TIP3   OH221432   5.688   6.000   6.159 -0.3014 -0.0803 -0.3475
 7164TIP3    H121433   5.781   5.996   6.137  0.1892  1.1824  1.2968
 7164TIP3    H221434   5.675   5.930   6.223 -0.1276  0.6224  0.4828
 7165TIP3   OH221435   7.388   7.608   0.820 -0.1506 -0.1982 -0.4868
 7165TIP3    H121436   7.304   7.583   0.860 -0.6904  0.1710 -1.3597
 7165TIP3    H221437   7.395   7.552   0.742  0.7016 -0.6345 -0.1118
 7166TIP3   OH221438   8.248   7.114   0.796  0.0244  0.3525  0.5787
 7166TIP3    H121439   8.280   7.168   0.724 -2.1159  1.9107  0.7113
 7166TIP3    H221440   8.190   7.172   0.846 -2.1330 -1.9566  0.9342
 7167TIP3   OH221441   4.966   4.594   6.072 -0.3172  0.1079 -0.8573
 7167TIP3    H121442   4.909   4.658   6.029 -0.5175 -1.7517 -3.6801
 7167TIP3    H221443   4.919   4.511   6.064  1.2379 -0.8955 -0.1138
 7168TIP3   OH221444   7.866   0.058   1.626  0.2735  0.2923 -0.6025
 7168TIP3    H121445   7.906  -0.011   1.679  0.3574 -0.0850 -1.1521
 7168TIP3    H221446   7.870   0.025   1.536  0.8707  1.2640 -0.9509
 7169TIP3   OH221447   2.751   7.817   5.396  0.3929 -0.1315  0.3934
 7169TIP3    H121448   2.711   7.805   5.483 -0.5778  1.8420  0.2961
 7169TIP3    H221449   2.702   7.890   5.358 -0.0440 -1.7363 -2.3590
 7170TIP3   OH221450   2.846   7.762   3.326  0.5708 -0.2491 -0.0551
 7170TIP3    H121451   2.782   7.786   3.393  0.7867 -0.7619  0.3381
 7170TIP3    H221452   2.921   7.729   3.374  1.0837  0.2134 -0.5230
 7171TIP3   OH221453   4.484   6.206   5.896  0.2284 -0.5206 -0.2621
 7171TIP3    H121454   4.408   6.219   5.839  0.0840  1.9292  0.4056
 7171TIP3    H221455   4.495   6.289   5.942  1.9318 -1.5677  1.3781
 7172TIP3   OH221456   0.707   4.454   1.791  0.4129  0.4705  0.4872
 7172TIP3    H121457   0.718   4.545   1.820 -0.8322  0.7177  0.2534
 7172TIP3    H221458   0.675   4.462   1.701 -1.8973 -0.1096  1.1892
 7173TIP3   OH221459   7.774   2.218   0.725 -0.1802  0.0116  0.5582
 7173TIP3    H121460   7.798   2.309   0.709  0.1299 -0.3048 -0.9288
 7173TIP3    H221461   7.830   2.168   0.665  0.7562 -1.2879  2.3972
 7174TIP3   OH221462   4.493   0.219   6.244 -0.2310  0.0894  0.0923
 7174TIP3    H121463   4.552   0.189   6.313 -0.0150  1.0128  0.3125
 7174TIP3    H221464   4.406   0.196   6.276 -0.1116  0.2454  0.5344
 7175TIP3   OH221465   0.280   3.779   5.367  0.6312 -0.0843 -0.1997
 7175TIP3    H121466   0.217   3.845   5.338 -0.4225 -1.5338 -1.3471
 7175TIP3    H221467   0.294   3.799   5.459 -1.2755  0.4867  0.0191
 7176TIP3   OH221468   3.122   3.541   1.824 -0.2730  0.5595  0.2126
 7176TIP3    H121469   3.113   3.565   1.732  1.4009  0.7379  0.0637
 7176TIP3    H221470   3.104   3.447   1.826 -0.0467  0.5005 -0.3385
 7177TIP3   OH221471   8.345   3.207   3.196  0.3285 -0.0713 -0.0607
 7177TIP3    H121472   8.327   3.189   3.288  1.0280  1.4375  0.4026
 7177TIP3    H221473   8.302   3.291   3.179  0.8641  0.0485 -0.8982
 7178TIP3   OH221474   3.765   1.010   5.024  0.5857  0.4097  0.6845
 7178TIP3    H121475   3.704   0.966   5.083  1.1783 -0.0430  0.9671
 7178TIP3    H221476   3.794   0.941   4.964 -0.2426  0.9303 -0.3390
 7179TIP3   OH221477   4.749   7.319   3.886 -0.2826 -0.2929 -0.1527
 7179TIP3    H121478   4.656   7.340   3.883 -0.3535 -0.3258  1.1907
 7179TIP3    H221479   4.753   7.225   3.873 -0.5784 -0.5151  1.1687
 7180TIP3   OH221480   4.003   3.810   3.879 -0.8771  0.0032 -0.5635
 7180TIP3    H121481   3.921   3.818   3.927 -0.0777  0.0426  0.8690
 7180TIP3    H221482   4.060   3.876   3.919  0.2505 -0.8978 -0.6562
 7181TIP3   OH221483   4.169   4.868   3.231 -0.8283 -0.7812 -0.1450
 7181TIP3    H121484   4.250   4.817   3.226 -0.3052 -0.2801  2.2780
 7181TIP3    H221485   4.190   4.941   3.288 -2.2797  0.8451 -1.5816
 7182TIP3   OH221486   8.013   1.812   0.458  0.5476 -0.2914 -0.2243
 7182TIP3    H121487   7.963   1.798   0.377 -0.1808 -0.8827  0.3147
 7182TIP3    H221488   8.105   1.806   0.431  0.3480  0.8268 -1.2336
 7183TIP3   OH221489   2.647   5.690   2.840 -0.2015  1.2836 -0.0145
 7183TIP3    H121490   2.725   5.737   2.870 -0.1247  1.0950  0.0827
 7183TIP3    H221491   2.597   5.755   2.790 -0.7617  1.8612  1.2479
 7184TIP3   OH221492   3.855   5.580   2.440  0.2363 -0.3470  0.0672
 7184TIP3    H121493   3.835   5.669   2.468  1.0835 -0.8704  2.6049
 7184TIP3    H221494   3.906   5.591   2.359 -0.9653  1.3580 -0.5243
 7185TIP3   OH221495   1.902   2.891   0.117 -0.7010  0.6163 -0.2811
 7185TIP3    H121496   1.924   2.799   0.131  0.7652  0.7565 -1.4232
 7185TIP3    H221497   1.806   2.892   0.111 -0.8431 -0.5990  1.1840
 7186TIP3   OH221498   7.726   7.147   6.857 -0.2304  0.3893  0.2157
 7186TIP3    H121499   7.711   7.114   6.769 -0.1301 -0.4772  0.5126
 7186TIP3    H221500   7.797   7.212   6.847 -1.0524  1.2007 -0.5045
 7187TIP3   OH221501   7.984   0.478   6.518 -0.2179  0.2409  0.2817
 7187TIP3    H121502   7.941   0.393   6.507  1.0240 -0.1863 -2.0128
 7187TIP3    H221503   7.922   0.541   6.481  0.0182 -0.0645 -0.6805
 7188TIP3   OH221504   1.863   1.436   6.076  0.5941 -0.1712  0.4586
 7188TIP3    H121505   1.843   1.423   5.983  0.8178  0.8519  0.2567
 7188TIP3    H221506   1.779   1.423   6.121  0.5578 -1.0280  0.1591
 7189TIP3   OH221507   5.493   0.256   1.886  0.1686 -0.3025 -0.2851
 7189TIP3    H121508   5.526   0.346   1.882  0.6181 -0.5010 -3.3898
 7189TIP3    H221509   5.562   0.204   1.844 -1.5181 -1.5643 -1.6558
 7190TIP3   OH221510   8.276   1.764   0.293  0.1103  0.1820  0.0891
 7190TIP3    H121511   8.347   1.765   0.229  0.0648  0.0070  0.0362
 7190TIP3    H221512   8.199   1.735   0.244 -0.3027  1.6358 -0.1675
 7191TIP3   OH221513   4.072   0.974   5.153 -0.4157 -0.0118 -0.0228
 7191TIP3    H121514   4.144   0.961   5.091  0.4098 -0.8675  1.0760
 7191TIP3    H221515   3.997   0.997   5.098  0.5617  0.3719 -1.2361
 7192TIP3   OH221516   4.107   5.381   2.419 -0.5250 -0.1363 -0.7012
 7192TIP3    H121517   4.042   5.347   2.480 -0.0123 -3.0706 -1.6276
 7192TIP3    H221518   4.066   5.371   2.333  1.3843 -3.2107 -1.4380
 7193TIP3   OH221519   5.028   0.487   1.220  0.0521  0.4322  0.4507
 7193TIP3    H121520   5.115   0.446   1.222  0.1954  0.7114  0.0405
 7193TIP3    H221521   4.979   0.442   1.289  0.0988 -0.6545 -0.2085
 7194TIP3   OH221522   5.582   2.260   3.993 -0.0484  0.2889  0.1771
 7194TIP3    H121523   5.603   2.181   3.944  0.8707  0.4241  0.3248
 7194TIP3    H221524   5.538   2.317   3.930 -1.2576 -0.5611  0.2287
 7195TIP3   OH221525   4.325   1.293   5.663  0.3691  0.2546 -0.8088
 7195TIP3    H121526   4.263   1.296   5.589 -0.3922 -1.3724 -0.2772
 7195TIP3    H221527   4.409   1.272   5.623  0.3728  1.3494 -1.4163
 7196TIP3   OH221528   3.465   3.988   1.511  0.5380 -0.9486 -0.0739
 7196TIP3    H121529   3.384   4.038   1.517  0.2214 -1.2987 -1.1432
 7196TIP3    H221530   3.528   4.036   1.566 -0.3505 -0.6057  0.6555
 7197TIP3   OH221531   1.215   5.241   3.186  0.3509 -0.1946 -0.2860
 7197TIP3    H121532   1.244   5.172   3.127 -1.1912  1.1729 -2.8255
 7197TIP3    H221533   1.168   5.302   3.130  0.1610  2.0578  2.1332
 7198TIP3   OH221534   4.524   1.867   4.370 -0.0772 -0.6947 -0.5600
 7198TIP3    H121535   4.446   1.878   4.424 -0.2682 -1.0735 -0.7543
 7198TIP3    H221536   4.503   1.793   4.313  0.0863 -0.2351 -1.2233
 7199TIP3   OH221537   5.569   4.507   1.713 -0.1860 -0.1417 -0.2911
 7199TIP3    H121538   5.617   4.588   1.694  0.8708 -1.1150 -1.9963
 7199TIP3    H221539   5.496   4.507   1.650 -1.0812  0.1701  0.7062
 7200TIP3   OH221540   0.294   0.919   6.155 -0.1555 -0.2704 -0.0863
 7200TIP3    H121541   0.298   0.878   6.068 -2.0834 -1.7199  0.4339
 7200TIP3    H221542   0.268   0.848   6.214 -0.1400  0.9600  1.4759
 7201TIP3   OH221543   3.294   7.772   0.995  0.4017 -0.6403 -0.5028
 7201TIP3    H121544   3.341   7.855   1.005 -0.6974 -0.1531  0.9480
 7201TIP3    H221545   3.202   7.796   1.001  0.0845 -2.1012  1.1632
 7202TIP3   OH221546   4.057   7.378   6.285 -0.7063 -0.1208 -0.1785
 7202TIP3    H121547   4.044   7.424   6.368  2.0818 -0.4949  0.5683
 7202TIP3    H221548   4.045   7.446   6.218 -0.8391  0.7078  0.6581
 7203TIP3   OH221549   7.110   5.350   4.330  0.3391 -0.0510  0.1864
 7203TIP3    H121550   7.175   5.409   4.292 -0.9938  1.2801 -0.0963
 7203TIP3    H221551   7.141   5.336   4.420  0.0581  2.1023  0.6732
 7204TIP3   OH221552   6.986   2.171   2.184 -0.1680 -0.4000  0.7104
 7204TIP3    H121553   6.995   2.252   2.236 -1.4258  0.2103  0.0444
 7204TIP3    H221554   6.897   2.177   2.148 -0.8965 -2.8353  1.8895
 7205TIP3   OH221555   3.623   6.369   0.399  0.3899  0.0721  0.1686
 7205TIP3    H121556   3.536   6.348   0.434 -0.4305  1.1572 -1.0840
 7205TIP3    H221557   3.607   6.444   0.341  2.0596 -0.1369 -0.6109
 7206TIP3   OH221558   3.949   4.638   2.074 -0.3781  0.3500  0.5732
 7206TIP3    H121559   4.022   4.578   2.086 -0.9564  0.0096  2.9377
 7206TIP3    H221560   3.989   4.720   2.046  0.9752  0.2082  1.9571
 7207TIP3   OH221561   1.286   0.248   1.729  0.2339 -0.3628 -0.2250
 7207TIP3    H121562   1.236   0.268   1.649 -0.9267  0.5314  0.6864
 7207TIP3    H221563   1.360   0.195   1.698  0.0414  0.2974 -1.9457
 7208TIP3   OH221564   7.590   5.985   3.117  0.5042  0.3139  0.3077
 7208TIP3    H121565   7.558   6.052   3.176  0.0334 -0.9846  1.5773
 7208TIP3    H221566   7.656   5.937   3.168  1.1399  0.0627 -0.7115
 7209TIP3   OH221567   3.931   7.209   2.471  0.2460 -0.2862 -0.1248
 7209TIP3    H121568   4.020   7.205   2.435  0.1235  0.4176 -0.5199
 7209TIP3    H221569   3.899   7.120   2.464  1.8301 -1.2019  2.4290
 7210TIP3   OH221570   3.426   0.481   0.517 -0.5279 -0.0014 -0.2615
 7210TIP3    H121571   3.453   0.391   0.499  0.2074 -0.5907  3.0312
 7210TIP3    H221572   3.333   0.482   0.497  0.1059 -0.3802 -3.7711
 7211TIP3   OH221573   6.369   5.922   0.489  0.0806 -0.7286  0.2408
 7211TIP3    H121574   6.344   5.953   0.576 -0.8409 -0.7367 -0.0080
 7211TIP3    H221575   6.369   6.001   0.435 -1.7217 -1.0279 -0.2710
 7212TIP3   OH221576   1.068   0.680   2.243  0.4914 -0.1438 -1.0121
 7212TIP3    H121577   0.990   0.677   2.187  0.9044 -0.8393 -1.5612
 7212TIP3    H221578   1.034   0.666   2.332  0.1676 -2.2498 -1.4347
 7213TIP3   OH221579   4.804   0.208   6.147  0.1714 -0.3799  0.1195
 7213TIP3    H121580   4.858   0.138   6.182 -0.8896 -1.3657 -0.1381
 7213TIP3    H221581   4.715   0.188   6.178 -0.1104  1.0098  0.2750
 7214TIP3   OH221582   5.490   6.560   6.127 -0.5850  0.5992 -0.1745
 7214TIP3    H121583   5.457   6.648   6.140 -0.0232  0.9653 -1.1043
 7214TIP3    H221584   5.572   6.557   6.175 -0.0459  0.9539 -1.0583
 7215TIP3   OH221585   0.297   1.707   3.354 -0.0710 -0.1405  0.5216
 7215TIP3    H121586   0.217   1.655   3.354  0.2705 -0.7489 -1.1962
 7215TIP3    H221587   0.343   1.679   3.433 -0.1947 -2.0436 -0.0088
 7216TIP3   OH221588   3.338   6.662   3.852 -0.2200 -0.2638 -0.1663
 7216TIP3    H121589   3.254   6.697   3.821 -1.3091 -2.3486  0.2012
 7216TIP3    H221590   3.355   6.587   3.795  1.9600  0.7076 -0.8713
 7217TIP3   OH221591   2.184   3.750   3.656 -0.3152 -0.6260  0.1792
 7217TIP3    H121592   2.103   3.700   3.649 -0.6504  0.0490 -1.1475
 7217TIP3    H221593   2.199   3.759   3.750 -0.5120 -2.7550  0.4621
 7218TIP3   OH221594   4.660   6.383   0.023 -0.0870 -0.1803 -0.2502
 7218TIP3    H121595   4.643   6.354   0.113 -0.0203  0.6751  0.0406
 7218TIP3    H221596   4.750   6.415   0.025 -0.3363  0.5362 -0.4399
 7219TIP3   OH221597   6.303   2.131   0.056  0.2731 -0.0075 -0.4375
 7219TIP3    H121598   6.230   2.075   0.030  0.2683 -0.2879  0.1623
 7219TIP3    H221599   6.364   2.072   0.101  0.0604  0.5290  0.5935
 7220TIP3   OH221600   0.123   7.781   0.721  0.7034  0.0844  0.8941
 7220TIP3    H121601   0.075   7.804   0.801  0.5922  0.8034  0.6303
 7220TIP3    H221602   0.213   7.805   0.740  0.5227  1.1492  0.4771
 7221TIP3   OH221603   7.706   1.470   4.336  0.6674 -0.2059 -0.1495
 7221TIP3    H121604   7.652   1.516   4.401  0.3768 -1.0797  0.2410
 7221TIP3    H221605   7.700   1.378   4.361  2.2498 -0.3402 -0.1754
 7222TIP3   OH221606   8.164   2.057   6.717 -0.2792  0.5456 -0.4962
 7222TIP3    H121607   8.092   2.094   6.769 -0.3779  0.5113 -0.6082
 7222TIP3    H221608   8.214   2.133   6.689 -0.0715  0.5467 -0.1266
 7223TIP3   OH221609   7.263   0.083   0.123  0.0645 -0.1505 -0.1556
 7223TIP3    H121610   7.338   0.060   0.179 -1.2494 -0.5463  1.5236
 7223TIP3    H221611   7.195   0.019   0.146 -1.0531  0.6404 -1.1170
 7224TIP3   OH221612   8.137   1.517   4.729 -0.0670 -0.2294 -0.1006
 7224TIP3    H121613   8.085   1.528   4.649 -0.4784 -1.0759  0.0437
 7224TIP3    H221614   8.165   1.606   4.752 -1.7042  0.2811 -0.0011
 7225TIP3   OH221615   4.030   2.313   3.212  0.1378  0.4614  0.5235
 7225TIP3    H121616   3.952   2.325   3.158 -0.3415  0.5088  1.2177
 7225TIP3    H221617   4.024   2.222   3.242  1.4326 -0.2058 -1.0946
 7226TIP3   OH221618   0.960   7.939   5.387  0.0025  0.3956  0.2720
 7226TIP3    H121619   1.030   7.874   5.375 -0.2728  0.2144 -0.3676
 7226TIP3    H221620   0.880   7.887   5.393  0.0651  0.4529  2.8348
 7227TIP3   OH221621   5.214   3.171   4.724 -0.7735 -0.2185 -0.2952
 7227TIP3    H121622   5.160   3.110   4.774 -2.7162  2.0227  0.5578
 7227TIP3    H221623   5.156   3.204   4.655 -0.2740  1.6287  0.1084
 7228TIP3   OH221624   7.118   1.839   3.771  0.5889  0.1161 -0.1694
 7228TIP3    H121625   7.190   1.826   3.832  0.3825 -1.9741 -0.3153
 7228TIP3    H221626   7.158   1.883   3.696  1.8224 -1.3266 -0.4034
 7229TIP3   OH221627   3.678   2.243   5.496 -0.4820 -0.7241  0.3734
 7229TIP3    H121628   3.653   2.221   5.585 -1.8024 -1.2674 -0.0963
 7229TIP3    H221629   3.606   2.297   5.463  0.5475  0.4837  0.0086
 7230TIP3   OH221630   2.252   6.824   6.838  0.1873 -0.0935  0.5897
 7230TIP3    H121631   2.260   6.917   6.815  0.1428 -0.1585  0.3041
 7230TIP3    H221632   2.341   6.790   6.830  0.2083 -0.0711  0.7197
 7231TIP3   OH221633   2.623   4.458   3.368 -0.6300  0.7128 -0.1148
 7231TIP3    H121634   2.709   4.460   3.327  0.2776 -1.5670  1.5133
 7231TIP3    H221635   2.629   4.519   3.442 -0.1560  0.0423  0.4100
 7232TIP3   OH221636   1.396   2.991   4.592  0.4334 -0.3964 -0.0983
 7232TIP3    H121637   1.464   2.929   4.566 -0.1940 -0.3483 -2.0319
 7232TIP3    H221638   1.359   3.022   4.509 -0.1333  1.6108  0.8409
 7233TIP3   OH221639   7.546   1.249   1.945 -0.0574 -0.6824  0.6091
 7233TIP3    H121640   7.454   1.236   1.923  0.2143 -0.8822 -0.4673
 7233TIP3    H221641   7.593   1.191   1.886  0.8561  0.6487 -0.0246
 7234TIP3   OH221642   6.306   2.347   1.261  0.1322  0.3946 -1.1047
 7234TIP3    H121643   6.339   2.278   1.319  3.2734  2.3822 -0.2577
 7234TIP3    H221644   6.368   2.346   1.187 -0.4221  1.6034 -1.5955
 7235TIP3   OH221645   7.838   3.692   3.365  0.3706  0.3335 -0.3124
 7235TIP3    H121646   7.845   3.751   3.440 -3.4524 -0.2999  0.7261
 7235TIP3    H221647   7.784   3.740   3.301  1.5436 -0.0934 -1.6796
 7236TIP3   OH221648   6.051   6.820   1.369 -0.0569  0.0517 -0.0776
 7236TIP3    H121649   5.979   6.882   1.382 -1.5467 -1.8238  1.1678
 7236TIP3    H221650   6.011   6.744   1.327  1.4335 -0.6044 -0.3781
 7237TIP3   OH221651   2.097   3.616   6.800  0.0685  0.1692 -0.9435
 7237TIP3    H121652   2.061   3.543   6.849  2.1266 -1.0346 -1.1385
 7237TIP3    H221653   2.192   3.611   6.813  0.9032 -0.7264 -5.5311
 7238TIP3   OH221654   1.062   5.166   0.544  0.4403  0.1995  0.3659
 7238TIP3    H121655   0.979   5.166   0.496  0.0603 -1.0508  0.9991
 7238TIP3    H221656   1.121   5.219   0.489 -0.1766 -0.5949 -1.1138
 7239TIP3   OH221657   6.386   6.507   1.677  0.0708 -0.1519  0.0230
 7239TIP3    H121658   6.370   6.426   1.726 -2.0347 -0.9487 -1.7850
 7239TIP3    H221659   6.470   6.493   1.635  1.0407 -0.2121  1.8962
 7240TIP3   OH221660   0.327   7.428   1.555  0.1390  0.4441 -0.0786
 7240TIP3    H121661   0.418   7.399   1.559  0.0566 -0.1822 -1.8634
 7240TIP3    H221662   0.277   7.360   1.600  0.5156  0.7022  0.7494
 7241TIP3   OH221663   4.127   4.591   1.642 -0.0193 -0.3748  0.1876
 7241TIP3    H121664   4.101   4.585   1.550  0.3534  0.1576  0.0395
 7241TIP3    H221665   4.089   4.674   1.671 -0.4467 -0.7150  0.6241
 7242TIP3   OH221666   4.950   3.231   5.334  0.9640 -0.7608 -0.2336
 7242TIP3    H121667   4.990   3.144   5.328 -0.1572 -1.1659 -3.4555
 7242TIP3    H221668   4.858   3.215   5.352  1.1259 -0.0808  1.3764
 7243TIP3   OH221669   1.206   3.344   6.186 -0.5539  0.1810 -0.2322
 7243TIP3    H121670   1.168   3.381   6.265 -1.3309 -0.8847 -0.0866
 7243TIP3    H221671   1.143   3.277   6.158  0.3984 -0.4453 -0.9416
 7244TIP3   OH221672   2.952   7.642   3.107  0.0945 -0.4648  0.2651
 7244TIP3    H121673   3.020   7.705   3.085 -0.1185 -0.3257 -0.0041
 7244TIP3    H221674   2.902   7.684   3.177 -0.0269 -0.3502  0.1089
 7245TIP3   OH221675   5.384   3.188   3.809 -0.3762  0.1235  0.2339
 7245TIP3    H121676   5.316   3.236   3.760 -1.0774  0.6521  1.6532
 7245TIP3    H221677   5.335   3.124   3.860  0.6545 -3.7270 -3.1202
 7246TIP3   OH221678   3.488   6.216   0.617 -0.0745 -0.0574  0.3590
 7246TIP3    H121679   3.474   6.228   0.711 -0.5383  0.7218  0.2026
 7246TIP3    H221680   3.417   6.159   0.589  0.0773 -0.3092  0.4832
 7247TIP3   OH221681   6.407   2.948   0.829  0.7729  0.4937  0.4636
 7247TIP3    H121682   6.466   2.875   0.851 -1.0805 -0.9085  1.0226
 7247TIP3    H221683   6.387   2.989   0.913 -0.0581  0.1273  0.4542
 7248TIP3   OH221684   6.060   2.671   0.082  0.1606 -0.4173 -0.4149
 7248TIP3    H121685   6.153   2.665   0.062  0.4376 -0.5130  0.7718
 7248TIP3    H221686   6.016   2.646   0.001  1.1282  0.9859 -1.4259
 7249TIP3   OH221687   3.165   3.864   2.001 -0.5134 -0.5612 -0.4372
 7249TIP3    H121688   3.198   3.912   1.925  0.2068 -0.5471 -0.1178
 7249TIP3    H221689   3.079   3.904   2.019 -0.5550 -0.3636 -1.0552
 7250TIP3   OH221690   1.052   1.533   3.843 -0.2129 -0.2983 -0.7956
 7250TIP3    H121691   1.088   1.553   3.756  1.6803  0.9060  0.2109
 7250TIP3    H221692   1.081   1.443   3.861 -1.2061 -0.8159 -1.6585
 7251TIP3   OH221693   7.806   6.344   2.927 -0.3847 -0.2553  0.7884
 7251TIP3    H121694   7.743   6.416   2.923 -1.1245 -0.9544 -0.7362
 7251TIP3    H221695   7.876   6.378   2.983 -0.3941  1.9003 -0.3726
 7252TIP3   OH221696   6.177   2.299   3.530 -0.3029 -0.7211  0.2055
 7252TIP3    H121697   6.227   2.281   3.450 -1.4561 -2.0386 -0.2481
 7252TIP3    H221698   6.197   2.225   3.587 -1.5338 -1.1285  0.1159
 7253TIP3   OH221699   3.295   6.388   5.284 -0.0600  0.0730  0.1358
 7253TIP3    H121700   3.381   6.382   5.241 -0.3598 -0.3569 -0.4084
 7253TIP3    H221701   3.311   6.358   5.374  0.8202  2.0692  0.7027
 7254TIP3   OH221702   7.524   5.510   0.826 -0.1901 -0.2208  0.4544
 7254TIP3    H121703   7.580   5.523   0.750 -2.4995 -0.6482 -1.4107
 7254TIP3    H221704   7.457   5.450   0.797 -1.5861  0.1681  2.6287
 7255TIP3   OH221705   4.337   5.530   2.794  0.1879 -0.5695 -0.5605
 7255TIP3    H121706   4.281   5.604   2.771 -0.0382 -0.5899 -0.0914
 7255TIP3    H221707   4.362   5.492   2.710 -0.2336 -0.3608 -0.7841
 7256TIP3   OH221708   8.272   6.680   6.795  0.4041 -0.4582  0.5160
 7256TIP3    H121709   8.204   6.638   6.742 -0.3335 -0.3504  1.3748
 7256TIP3    H221710   8.351   6.629   6.775  0.1904 -0.3214 -0.8142
 7257TIP3   OH221711   3.292   1.449   5.665  0.1395  0.0895  0.0201
 7257TIP3    H121712   3.276   1.405   5.748 -0.2982  0.2768  0.0316
 7257TIP3    H221713   3.384   1.430   5.646  0.3008  0.2238  0.6463
 7258TIP3   OH221714   2.278   1.949   3.519 -0.3931 -0.0547  0.4666
 7258TIP3    H121715   2.196   1.900   3.527 -0.6078  0.4403  1.3052
 7258TIP3    H221716   2.310   1.959   3.609  0.2573  0.3221  0.2048
 7259TIP3   OH221717   4.151   0.595   5.996  0.0655 -0.2139 -0.1853
 7259TIP3    H121718   4.168   0.642   5.915 -1.8817  1.3601  0.2517
 7259TIP3    H221719   4.238   0.566   6.026  0.8997 -0.0789 -2.3445
 7260TIP3   OH221720   0.068   4.656   3.334  0.1570 -0.1168 -0.1076
 7260TIP3    H121721   0.097   4.607   3.256 -0.4282 -0.3332 -0.1938
 7260TIP3    H221722  -0.011   4.611   3.362 -0.2860  0.6677 -0.0691
 7261TIP3   OH221723   0.671   7.311   0.829  0.2535 -0.3339 -0.1551
 7261TIP3    H121724   0.752   7.361   0.818  1.7062 -2.8252 -2.1771
 7261TIP3    H221725   0.605   7.361   0.780  1.0503  0.7616 -0.1409
 7262TIP3   OH221726   1.560   6.152   2.532 -0.5442  0.2098 -0.6008
 7262TIP3    H121727   1.522   6.093   2.597  0.7737 -0.6678 -0.5996
 7262TIP3    H221728   1.648   6.170   2.564 -0.2198  0.5588 -1.6406
 7263TIP3   OH221729   4.661   3.351   6.506 -0.0503 -0.9515 -0.5890
 7263TIP3    H121730   4.622   3.272   6.543 -1.2797 -0.9245 -1.7495
 7263TIP3    H221731   4.633   3.421   6.565 -0.8943 -1.0835 -0.8189
 7264TIP3   OH221732   3.911   1.610   0.367  0.3970 -0.1006 -0.1335
 7264TIP3    H121733   3.852   1.686   0.372  0.5199  0.0214 -0.5137
 7264TIP3    H221734   3.852   1.534   0.367  0.3103 -0.0737  1.5324
 7265TIP3   OH221735   3.108   5.234   2.437 -0.8123 -0.6973 -0.0671
 7265TIP3    H121736   3.199   5.245   2.409 -0.6001 -0.8248  0.5675
 7265TIP3    H221737   3.086   5.315   2.483 -1.0599 -0.6186 -0.3171
 7266TIP3   OH221738   4.556   3.878   5.788  0.0193 -0.2706  0.4179
 7266TIP3    H121739   4.532   3.926   5.710 -1.0158 -2.1130 -0.4734
 7266TIP3    H221740   4.650   3.861   5.779 -0.2523 -1.2014 -0.8876
 7267TIP3   OH221741   3.877   5.213   1.099 -0.1972  0.3949  0.0470
 7267TIP3    H121742   3.846   5.202   1.189 -0.6373  0.4414 -0.0929
 7267TIP3    H221743   3.904   5.305   1.095 -0.6370  0.5257 -0.0001
 7268TIP3   OH221744   7.423   7.235   6.599 -0.1431  0.1331 -0.3826
 7268TIP3    H121745   7.508   7.195   6.618 -0.4074 -0.2991 -0.1021
 7268TIP3    H221746   7.428   7.321   6.640  1.1964  1.2566 -2.6724
 7269TIP3   OH221747   3.894   5.921   4.264  0.0915  0.2536 -0.4438
 7269TIP3    H121748   3.937   5.982   4.324  0.8787 -0.5549 -0.1689
 7269TIP3    H221749   3.865   5.849   4.321 -1.2255  0.5583 -0.6941
 7270TIP3   OH221750   6.407   4.968   0.686 -0.3141  0.2431 -0.1319
 7270TIP3    H121751   6.361   5.008   0.612 -0.8623 -0.4790 -0.1938
 7270TIP3    H221752   6.475   5.032   0.709  0.0957  0.3298 -1.4736
 7271TIP3   OH221753   7.093   6.480   2.893  0.4872 -0.2731 -0.8703
 7271TIP3    H121754   7.136   6.553   2.938 -2.3985  0.5687  0.7944
 7271TIP3    H221755   7.149   6.404   2.911  2.1623  1.0127 -0.3691
 7272TIP3   OH221756   5.437   1.924   0.366 -1.2549  0.2321  0.0746
 7272TIP3    H121757   5.466   1.892   0.281 -1.3226  0.1536  0.0820
 7272TIP3    H221758   5.396   2.008   0.347  1.0170  1.4965  0.3059
 7273TIP3   OH221759   6.483   5.425   5.193 -0.0143  0.4030 -0.5367
 7273TIP3    H121760   6.425   5.367   5.144  0.3080  1.3658 -2.1233
 7273TIP3    H221761   6.476   5.509   5.149 -0.1594  1.4924  1.4754
 7274TIP3   OH221762   4.907   6.755   0.358 -0.5375 -0.6835  0.0784
 7274TIP3    H121763   4.818   6.791   0.365 -0.1305  0.5656 -0.7917
 7274TIP3    H221764   4.906   6.677   0.413 -1.7866  0.0791  1.1842
 7275TIP3   OH221765   6.995   3.017   0.507 -0.2281  0.7053 -0.3181
 7275TIP3    H121766   6.963   3.106   0.517  1.3650  1.2232  0.4324
 7275TIP3    H221767   7.062   3.007   0.574  1.4939 -0.1600 -2.0670
 7276TIP3   OH221768   2.265   0.874   5.766  0.0190  0.1698  0.1219
 7276TIP3    H121769   2.330   0.877   5.837 -0.2721  0.8371  0.3710
 7276TIP3    H221770   2.181   0.887   5.810 -0.2290 -0.1079 -0.2682
 7277TIP3   OH221771   7.774   6.745   1.686 -0.5500 -0.4544  0.0313
 7277TIP3    H121772   7.750   6.828   1.645  0.4461  0.1723  0.6789
 7277TIP3    H221773   7.692   6.695   1.687 -2.0247  1.7269  2.5196
 7278TIP3   OH221774   5.989   4.214   6.623  0.1535  0.8190  0.5872
 7278TIP3    H121775   6.036   4.235   6.543  0.1184 -0.3301  0.2467
 7278TIP3    H221776   5.980   4.119   6.622  0.0825  0.7845  1.9171
 7279TIP3   OH221777   5.705   0.729   4.106 -0.1489 -0.5720  0.0334
 7279TIP3    H121778   5.627   0.766   4.148  1.2970  1.6766  0.9348
 7279TIP3    H221779   5.774   0.737   4.171  1.4509  0.0555 -1.6339
 7280TIP3   OH221780   6.703   4.367   3.305  0.1451 -0.5665  0.1095
 7280TIP3    H121781   6.668   4.287   3.344 -0.2940 -0.5393 -0.2146
 7280TIP3    H221782   6.688   4.435   3.371  0.7832 -0.8001  0.5048
 7281TIP3   OH221783   1.396   7.017   6.399 -0.2942  0.2178 -0.7104
 7281TIP3    H121784   1.304   6.992   6.405 -0.4672  0.6668 -1.4188
 7281TIP3    H221785   1.404   7.061   6.315 -0.2694  3.7078  0.9751
 7282TIP3   OH221786   3.282   4.218   6.764 -0.9699 -0.6262 -0.1270
 7282TIP3    H121787   3.244   4.184   6.845 -0.0110 -0.9215  0.2081
 7282TIP3    H221788   3.210   4.264   6.722 -1.8021 -1.4929  0.3110
 7283TIP3   OH221789   7.416   4.207   0.469 -0.3799 -0.2359 -0.2082
 7283TIP3    H121790   7.470   4.266   0.415  0.5861  0.1035  1.0810
 7283TIP3    H221791   7.479   4.156   0.519 -1.2186 -2.0125 -0.8935
 7284TIP3   OH221792   0.291   7.467   6.498  0.4022 -0.4116 -0.2188
 7284TIP3    H121793   0.217   7.406   6.501  0.2946 -0.2622  2.5112
 7284TIP3    H221794   0.358   7.426   6.554  2.7626 -0.8849 -3.1272
 7285TIP3   OH221795   6.522   1.529   2.799 -0.2203 -0.0144  0.3124
 7285TIP3    H121796   6.559   1.579   2.726 -1.9440 -0.6697 -1.0641
 7285TIP3    H221797   6.580   1.454   2.809  0.2772  0.3082 -0.0872
 7286TIP3   OH221798   2.368   1.376   2.357 -0.0546  0.6701 -0.0520
 7286TIP3    H121799   2.340   1.437   2.288 -2.8831  1.5795  1.7319
 7286TIP3    H221800   2.443   1.420   2.398 -0.2428  1.5590 -0.6249
 7287TIP3   OH221801   2.777   2.596   4.176 -0.1422  0.5376  0.2495
 7287TIP3    H121802   2.730   2.552   4.247  1.0746  1.0825  1.4493
 7287TIP3    H221803   2.852   2.539   4.159  1.1281  1.7725  1.4189
 7288TIP3   OH221804   3.171   2.744   6.339 -0.6457 -0.4375 -0.0319
 7288TIP3    H121805   3.223   2.809   6.291 -0.6438 -0.2552  0.2178
 7288TIP3    H221806   3.204   2.748   6.428 -0.4861 -0.9499 -0.0648
 7289TIP3   OH221807   3.638   4.953   4.440  0.1474  0.7530 -0.2595
 7289TIP3    H121808   3.728   4.930   4.466  0.1123  1.2445  0.3393
 7289TIP3    H221809   3.649   5.032   4.386  0.1943 -0.0915 -1.5144
 7290TIP3   OH221810   0.634   1.266   0.368  0.4712  0.3540 -0.4350
 7290TIP3    H121811   0.707   1.251   0.429 -0.0559 -0.3040  0.0431
 7290TIP3    H221812   0.670   1.244   0.282  0.0472 -2.8199  0.0978
 7291TIP3   OH221813   4.061   0.867   6.447  0.0016 -0.1890 -0.5609
 7291TIP3    H121814   4.081   0.774   6.432 -2.3240 -0.7035 -0.8606
 7291TIP3    H221815   3.999   0.890   6.378  0.6478  1.6631 -0.5790
 7292TIP3   OH221816   5.673   1.111   6.703  0.1570  0.3893  0.2719
 7292TIP3    H121817   5.688   1.103   6.609  0.4604  0.8471  0.2788
 7292TIP3    H221818   5.660   1.205   6.717  2.3374  0.6420  0.9956
 7293TIP3   OH221819   1.835   5.950   4.281 -0.7714 -0.2706 -0.0751
 7293TIP3    H121820   1.886   5.955   4.200  0.1770 -1.2166  0.4226
 7293TIP3    H221821   1.750   5.986   4.259  0.5210  2.7620 -0.5902
 7294TIP3   OH221822   5.089   3.072   6.651  0.1473  0.2346  0.3075
 7294TIP3    H121823   5.175   3.065   6.694  0.9077 -0.3195 -1.2295
 7294TIP3    H221824   5.046   2.989   6.670  0.6974 -0.2285 -0.4085
 7295TIP3   OH221825   2.595   4.072   4.790 -0.2538  0.0766 -0.3305
 7295TIP3    H121826   2.629   3.985   4.767 -1.0093 -0.6110  0.9634
 7295TIP3    H221827   2.577   4.065   4.884  0.5955  1.9681 -0.0002
 7296TIP3   OH221828   0.738   4.762   6.260 -0.0240 -0.4169  0.1707
 7296TIP3    H121829   0.672   4.739   6.325  0.2175 -2.0927 -0.1182
 7296TIP3    H221830   0.699   4.737   6.176  0.3041  0.1950 -0.1750
 7297TIP3   OH221831   6.158   7.084   2.721  0.3644  0.3040 -0.2963
 7297TIP3    H121832   6.244   7.119   2.698  0.6130 -0.8773 -1.2999
 7297TIP3    H221833   6.173   7.033   2.801  0.4040  0.8210  0.0311
 7298TIP3   OH221834   6.246   3.377   0.925  0.4903  0.0471  0.2528
 7298TIP3    H121835   6.174   3.398   0.866  0.7453  0.5541  0.1140
 7298TIP3    H221836   6.232   3.434   1.000 -0.3215 -1.2082  1.0866
 7299TIP3   OH221837   1.455   4.916   3.623 -0.7637 -0.4852 -0.3329
 7299TIP3    H121838   1.522   4.874   3.677  0.4382  2.1537  0.3846
 7299TIP3    H221839   1.475   4.888   3.534  0.2100 -1.1109  0.0595
 7300TIP3   OH221840   7.359   6.032   6.789 -0.5727  0.4687 -0.3296
 7300TIP3    H121841   7.388   6.073   6.707 -1.6041  0.8938 -0.4910
 7300TIP3    H221842   7.289   5.973   6.763 -0.9373  0.6377  0.2545
 7301TIP3   OH221843   6.786   5.779   4.714 -0.0124  0.3677  0.0928
 7301TIP3    H121844   6.758   5.729   4.791  0.5111 -1.0776 -0.6183
 7301TIP3    H221845   6.811   5.865   4.749  1.0953 -0.5461  1.6901
 7302TIP3   OH221846   3.002   6.472   4.744  0.1287 -0.2710  0.1024
 7302TIP3    H121847   2.916   6.431   4.746  1.1813 -2.7160 -0.6935
 7302TIP3    H221848   3.030   6.473   4.836 -1.0088  1.2421  0.4623
 7303TIP3   OH221849   3.839   2.236   3.577  0.1809 -0.3054 -0.1199
 7303TIP3    H121850   3.903   2.237   3.648  0.8783  1.6826 -0.7086
 7303TIP3    H221851   3.887   2.201   3.502  1.2002  2.7471 -1.0099
 7304TIP3   OH221852   6.174   2.699   6.454  0.1542  0.4594  0.4554
 7304TIP3    H121853   6.171   2.704   6.550 -0.9338 -0.8407  0.5257
 7304TIP3    H221854   6.086   2.722   6.427 -0.0266 -0.8069 -0.1098
 7305TIP3   OH221855   1.057   1.720   1.557  0.0703 -0.2624 -0.4327
 7305TIP3    H121856   1.125   1.783   1.579  1.5829 -1.2839 -1.9098
 7305TIP3    H221857   0.978   1.772   1.546  0.8759  1.1227  0.1154
 7306TIP3   OH221858   7.635   6.780   6.631 -0.2995 -0.8713 -0.0374
 7306TIP3    H121859   7.571   6.847   6.653  0.9651  0.2935  0.2479
 7306TIP3    H221860   7.677   6.811   6.551  0.3477 -1.2796  0.1257
 7307TIP3   OH221861   5.159   5.665   0.851 -0.1240 -0.3477 -0.5041
 7307TIP3    H121862   5.065   5.648   0.860 -0.1552 -0.7476 -1.4624
 7307TIP3    H221863   5.201   5.589   0.891 -0.1519  0.7445  1.7432
 7308TIP3   OH221864   6.342   4.552   0.154 -0.6043 -0.3017 -0.3258
 7308TIP3    H121865   6.324   4.630   0.208 -1.8125  0.1273 -1.3001
 7308TIP3    H221866   6.390   4.493   0.212  0.7687  1.3561  0.3021
 7309TIP3   OH221867   5.695   7.522   1.778  0.4187  0.4893 -0.2576
 7309TIP3    H121868   5.746   7.577   1.719  0.0044  1.0743 -0.0772
 7309TIP3    H221869   5.760   7.466   1.820  0.6331 -0.5676 -1.9129
 7310TIP3   OH221870   4.233   3.990   6.265  0.2496  0.7938  0.3074
 7310TIP3    H121871   4.283   4.023   6.340  2.3618 -0.1994 -0.5772
 7310TIP3    H221872   4.231   3.895   6.278  1.8510  0.4509 -1.5305
 7311TIP3   OH221873   2.262   4.540   3.523  0.0248 -0.1829  0.2883
 7311TIP3    H121874   2.171   4.568   3.512  0.4365  0.8336 -0.6488
 7311TIP3    H221875   2.262   4.448   3.495 -0.5350  0.0875 -0.6380
 7312TIP3   OH221876   2.624   1.109   0.985  0.0232  0.3416  0.0628
 7312TIP3    H121877   2.626   1.184   0.925 -1.1512 -0.0029 -0.4299
 7312TIP3    H221878   2.638   1.148   1.072  1.2344  0.9044 -0.3646
 7313TIP3   OH221879   2.768   2.225   2.141 -0.3467 -0.2160  0.0504
 7313TIP3    H121880   2.787   2.161   2.072 -1.4663 -0.2936 -0.2036
 7313TIP3    H221881   2.679   2.204   2.169  0.5162 -0.9967  2.4321
 7314TIP3   OH221882   7.591   1.965   0.695  0.2136 -0.3214 -0.3726
 7314TIP3    H121883   7.613   1.942   0.605  0.0236 -0.3935 -0.4013
 7314TIP3    H221884   7.593   2.061   0.697 -0.1989 -0.3055 -0.5614
 7315TIP3   OH221885   7.245   1.064   2.309  0.5985 -0.0597 -0.3779
 7315TIP3    H121886   7.262   1.134   2.372  1.1590 -1.1262  0.6951
 7315TIP3    H221887   7.150   1.052   2.312  0.7350 -1.0748  1.4088
 7316TIP3   OH221888   8.290   4.214   2.172 -0.3847 -0.0482  0.2199
 7316TIP3    H121889   8.266   4.175   2.087  0.0736 -0.9850  0.5039
 7316TIP3    H221890   8.385   4.212   2.173 -0.1900  3.1549 -0.6631
 7317TIP3   OH221891   6.800   4.555   5.217  0.4011  0.4757 -0.1416
 7317TIP3    H121892   6.873   4.599   5.261 -0.0897  1.7740 -0.5744
 7317TIP3    H221893   6.751   4.513   5.287  1.0830  0.3202  0.2467
 7318TIP3   OH221894   3.740   7.592   3.106 -0.6294  0.1199  0.2262
 7318TIP3    H121895   3.697   7.547   3.179 -1.7658  1.7081  0.5914
 7318TIP3    H221896   3.756   7.680   3.139  1.4520  0.0573 -0.5018
 7319TIP3   OH221897   4.970   5.490   3.911 -0.1265 -0.2092  1.1097
 7319TIP3    H121898   4.953   5.533   3.995 -1.7052 -0.0566  0.7453
 7319TIP3    H221899   5.050   5.439   3.926  0.1894  0.6071  2.3906
 7320TIP3   OH221900   7.534   1.346   5.234  0.1725  0.2279 -0.5134
 7320TIP3    H121901   7.593   1.359   5.308 -0.4081  3.7583 -0.4927
 7320TIP3    H221902   7.496   1.260   5.249  2.8613 -0.8035  1.1925
 7321TIP3   OH221903   4.040   3.039   4.699 -0.6206 -0.3068 -0.1841
 7321TIP3    H121904   4.121   2.989   4.696  0.3488  1.2305 -0.5556
 7321TIP3    H221905   4.000   3.015   4.783  0.1706 -1.1281 -0.0277
 7322TIP3   OH221906   1.334   7.546   2.271  0.2911  0.5894  0.1386
 7322TIP3    H121907   1.375   7.548   2.358 -0.6575  0.0333  0.6086
 7322TIP3    H221908   1.407   7.550   2.210  0.9280  3.2815  0.9191
 7323TIP3   OH221909   4.665   3.319   3.746  0.6832 -0.1510  0.5506
 7323TIP3    H121910   4.622   3.254   3.690 -0.4469  0.6861  0.3942
 7323TIP3    H221911   4.602   3.336   3.816  1.9610 -0.9670  1.9683
 7324TIP3   OH221912   1.809   0.232   5.896 -0.0677  0.7631 -0.1417
 7324TIP3    H121913   1.749   0.181   5.951 -0.1447 -0.2296 -1.1094
 7324TIP3    H221914   1.847   0.167   5.837  1.8298  1.3971  0.3167
 7325TIP3   OH221915   5.439   4.511   1.155  0.4974 -0.0145 -0.1970
 7325TIP3    H121916   5.475   4.552   1.234  1.2426 -0.5259 -0.2574
 7325TIP3    H221917   5.455   4.417   1.167 -0.4114 -0.2152 -0.4461
 7326TIP3   OH221918   7.696   4.199   1.824  0.1138 -0.2231  0.1395
 7326TIP3    H121919   7.631   4.188   1.754  0.2269 -0.4892  0.0748
 7326TIP3    H221920   7.772   4.149   1.794  0.2920 -0.0468  0.2913
 7327TIP3   OH221921   5.030   1.869   6.660  0.4733  0.0196 -0.6371
 7327TIP3    H121922   5.095   1.913   6.604  1.7966 -1.6402 -0.4593
 7327TIP3    H221923   5.058   1.778   6.662 -1.0722 -0.4585  0.6286
 7328TIP3   OH221924   6.046   7.704   3.691 -0.1174 -0.0504 -0.1739
 7328TIP3    H121925   6.110   7.633   3.690 -1.4750 -1.3354 -1.5292
 7328TIP3    H221926   5.980   7.677   3.755  0.3230  0.9701  0.7556
 7329TIP3   OH221927   5.667   2.448   5.571 -0.0160  0.1644  0.8463
 7329TIP3    H121928   5.598   2.420   5.511  0.1254 -1.2527  1.3115
 7329TIP3    H221929   5.630   2.523   5.616 -0.1168  1.3062 -1.0209
 7330TIP3   OH221930   5.588   1.555   4.484 -0.0918 -0.3036 -0.3284
 7330TIP3    H121931   5.515   1.565   4.423  0.0265  0.0745 -0.4104
 7330TIP3    H221932   5.637   1.637   4.477  0.2186 -0.4677 -0.1128
 7331TIP3   OH221933   0.969   5.542   2.903 -0.4054  0.4638  0.6257
 7331TIP3    H121934   0.908   5.538   2.977 -0.2913 -0.8007  0.6699
 7331TIP3    H221935   0.958   5.630   2.867 -2.2980  0.2451  0.5996
 7332TIP3   OH221936   3.673   1.951   1.761  0.3004  0.4718 -0.6179
 7332TIP3    H121937   3.638   2.039   1.752 -0.6341  0.2732  0.7168
 7332TIP3    H221938   3.618   1.897   1.704 -1.2101  0.2731  0.9538
 7333TIP3   OH221939   3.801   6.115   4.063  0.5418  1.3032  0.3844
 7333TIP3    H121940   3.879   6.168   4.048  1.2335  1.2232  3.1387
 7333TIP3    H221941   3.812   6.081   4.152 -1.4563 -0.7762 -0.0607
 7334TIP3   OH221942   0.941   5.883   2.300  0.0121 -0.1754 -0.4030
 7334TIP3    H121943   0.952   5.867   2.206  1.4057  1.3748 -0.5556
 7334TIP3    H221944   1.031   5.893   2.333 -0.4404 -0.9700  1.1623
 7335TIP3   OH221945   2.886   7.372   6.314  0.7658  0.3289 -0.1728
 7335TIP3    H121946   2.809   7.327   6.279 -0.1061  3.1765 -2.3212
 7335TIP3    H221947   2.857   7.409   6.397  0.7934 -1.0588  0.4798
 7336TIP3   OH221948   7.345   2.712   1.973 -0.2912 -0.3759 -0.5006
 7336TIP3    H121949   7.278   2.670   2.027 -1.4527  1.0980 -0.7295
 7336TIP3    H221950   7.296   2.756   1.903  0.9515  0.2963 -0.9820
 7337TIP3   OH221951   6.870   1.971   3.256  0.4861  0.1388  0.2467
 7337TIP3    H121952   6.920   1.908   3.307  0.7524  1.0716  1.1481
 7337TIP3    H221953   6.811   1.916   3.203  1.1231 -0.8838  0.5598
 7338TIP3   OH221954   7.667   6.825   3.574 -0.1666 -0.1014  0.2833
 7338TIP3    H121955   7.685   6.897   3.635 -1.1560  0.2374  0.1894
 7338TIP3    H221956   7.599   6.859   3.516 -0.6848 -1.1279  0.2641
 7339TIP3   OH221957   7.525   3.986   2.771 -0.2112  0.4464 -0.1254
 7339TIP3    H121958   7.490   3.903   2.738 -2.9012  1.2350  0.4978
 7339TIP3    H221959   7.477   4.053   2.721  0.6937  1.6317  0.5585
 7340TIP3   OH221960   4.967   5.072   5.099  0.1862  0.4409  0.0473
 7340TIP3    H121961   5.032   5.143   5.100 -1.4000  2.1127  3.4588
 7340TIP3    H221962   4.946   5.058   5.191 -3.9213 -0.3148 -0.8148
 7341TIP3   OH221963   1.908   2.466   5.622  0.0702  0.2459 -0.3430
 7341TIP3    H121964   1.820   2.497   5.600 -0.1433 -0.9256 -1.2587
 7341TIP3    H221965   1.915   2.479   5.717 -1.7335 -1.1057  0.0477
 7342TIP3   OH221966   8.265   7.029   6.572  0.1563  0.2174 -0.3097
 7342TIP3    H121967   8.237   6.982   6.651  1.1559  0.8622  0.4404
 7342TIP3    H221968   8.316   7.103   6.604  0.3581  0.6438 -1.5592
 7343TIP3   OH221969   7.414   3.877   4.647  0.4070 -0.0041 -0.1120
 7343TIP3    H121970   7.337   3.919   4.685  1.2694  1.8766 -0.3055
 7343TIP3    H221971   7.478   3.876   4.718 -0.2263 -3.0427  0.5567
 7344TIP3   OH221972   0.193   7.773   5.847  0.0012  0.4905 -0.4065
 7344TIP3    H121973   0.114   7.801   5.893  0.3777 -0.6510  0.9728
 7344TIP3    H221974   0.163   7.711   5.782 -0.2606  0.1730  0.0168
 7345TIP3   OH221975   6.150   7.692   4.604 -0.1167 -0.3390  0.3478
 7345TIP3    H121976   6.245   7.690   4.597 -0.0745  0.5708  0.5643
 7345TIP3    H221977   6.131   7.666   4.694 -0.0768 -0.4987  0.3106
 7346TIP3   OH221978   3.392   5.084   1.260  0.4461 -0.6351  0.0636
 7346TIP3    H121979   3.409   5.012   1.199 -1.0639 -1.0121  0.0275
 7346TIP3    H221980   3.355   5.041   1.337 -0.9966  0.1060 -0.1657
 7347TIP3   OH221981   4.470   5.465   6.179  0.1247  0.1229  0.3909
 7347TIP3    H121982   4.412   5.541   6.180  0.9195  0.7446  1.4938
 7347TIP3    H221983   4.530   5.482   6.106 -1.3256 -0.7721 -1.0991
 7348TIP3   OH221984   4.426   3.487   3.876  0.1440  0.3144 -0.0048
 7348TIP3    H121985   4.498   3.546   3.855  0.6167  0.0873  0.9233
 7348TIP3    H221986   4.347   3.541   3.866  0.5551  1.0725  0.6676
 7349TIP3   OH221987   0.707   6.720   1.223 -0.2341 -0.2894  0.5134
 7349TIP3    H121988   0.671   6.752   1.307 -1.3055  1.7039 -0.6184
 7349TIP3    H221989   0.800   6.705   1.242  0.1149  2.4181  1.5655
 7350TIP3   OH221990   5.861   0.513   4.975 -0.3082 -0.1299  0.4071
 7350TIP3    H121991   5.857   0.532   5.068  0.0916  2.0126  0.0536
 7350TIP3    H221992   5.949   0.477   4.961 -0.2336 -0.1009  0.8074
 7351TIP3   OH221993   2.829   5.514   1.907  0.0446 -0.3036  0.0944
 7351TIP3    H121994   2.872   5.557   1.832 -0.2216 -0.7887 -0.3417
 7351TIP3    H221995   2.810   5.586   1.967 -1.2082  0.3538 -1.0245
 7352TIP3   OH221996   1.518   3.210   4.016  0.5971 -0.1658 -0.0622
 7352TIP3    H121997   1.437   3.200   3.964 -0.3986  3.5174  0.4889
 7352TIP3    H221998   1.584   3.236   3.952  0.2751  0.8802  0.0238
 7353TIP3   OH221999   3.023   7.041   2.909 -0.4131 -0.0826  0.0348
 7353TIP3    H122000   3.003   6.960   2.955 -0.4565  0.2992  0.6975
 7353TIP3    H222001   3.027   7.016   2.817 -0.4547 -0.8303  0.2308
 7354TIP3   OH222002   2.394   7.241   6.307 -0.0416  0.0036 -0.0539
 7354TIP3    H122003   2.448   7.196   6.372 -3.0178 -0.4625  2.3721
 7354TIP3    H222004   2.336   7.173   6.272 -0.8837  0.9165 -0.4962
 7355TIP3   OH222005   3.724   0.742   0.714  0.2222 -0.2360  0.3467
 7355TIP3    H122006   3.811   0.703   0.703  0.0563 -0.3766 -0.5122
 7355TIP3    H222007   3.734   0.832   0.683  0.2812  0.0253  1.1062
 7356TIP3   OH222008   3.358   4.593   1.270  0.0384 -0.2097  0.1162
 7356TIP3    H122009   3.439   4.640   1.249  1.2733 -1.9284  0.7772
 7356TIP3    H222010   3.319   4.643   1.342  0.8547  0.2910  0.2260
 7357TIP3   OH222011   2.114   7.649   6.376 -0.3312 -0.0372 -0.1056
 7357TIP3    H122012   2.082   7.684   6.459 -0.2952 -0.9771  0.3150
 7357TIP3    H222013   2.035   7.618   6.331 -0.1906 -1.0685  0.3230
 7358TIP3   OH222014   3.238   5.908   3.594  0.3409  0.1377 -0.0708
 7358TIP3    H122015   3.205   5.896   3.683  0.2591  0.1662 -0.0970
 7358TIP3    H222016   3.270   5.822   3.568 -0.6317 -0.1302 -0.4195
 7359TIP3   OH222017   1.016   4.346   2.845  0.2326 -0.8148 -0.2756
 7359TIP3    H122018   0.957   4.280   2.807  0.0754 -0.6319 -0.3547
 7359TIP3    H222019   0.957   4.411   2.883  0.3855 -1.2739  0.7830
 7360TIP3   OH222020   6.930   4.270   6.093 -0.3306 -0.2882 -0.2592
 7360TIP3    H122021   6.951   4.182   6.125  0.5951  0.7703  2.3197
 7360TIP3    H222022   6.839   4.283   6.119  0.0587  0.1203  0.9728
 7361TIP3   OH222023   2.110   0.227   5.924  0.3600  0.4428  0.3444
 7361TIP3    H122024   2.082   0.146   5.967 -0.0529 -1.4361 -3.1171
 7361TIP3    H222025   2.030   0.277   5.912 -0.3188 -1.0201 -1.8902
 7362TIP3   OH222026   5.010   1.516   6.065  0.0604  0.3477  0.4462
 7362TIP3    H122027   5.062   1.593   6.089  0.6398  0.4406 -1.0409
 7362TIP3    H222028   4.923   1.552   6.048  0.6236  0.9234 -1.4858
 7363TIP3   OH222029   1.732   2.083   5.471 -0.1735 -0.6133  0.3694
 7363TIP3    H122030   1.761   2.135   5.547  1.1338  0.1952 -0.6370
 7363TIP3    H222031   1.648   2.121   5.447 -0.6445 -0.9243  1.4329
 7364TIP3   OH222032   7.243   5.509   6.288 -0.4960 -0.0662 -0.1599
 7364TIP3    H122033   7.282   5.585   6.330 -0.1525 -0.0645 -0.4803
 7364TIP3    H222034   7.286   5.434   6.330 -2.5533 -0.2002  1.9218
 7365TIP3   OH222035   5.877   1.695   3.150  0.1245  0.4777  0.1607
 7365TIP3    H122036   5.821   1.755   3.101 -0.3732  0.0079  0.1515
 7365TIP3    H222037   5.965   1.714   3.118 -0.1913  0.1787 -0.9363
 7366TIP3   OH222038   3.816   2.418   2.393  0.1604  0.0647  0.4561
 7366TIP3    H122039   3.771   2.435   2.476 -0.2007  1.0601  0.0676
 7366TIP3    H222040   3.908   2.436   2.412  0.2141 -0.6209  0.8814
 7367TIP3   OH222041   1.215   4.378   3.063 -0.6305 -0.4530 -0.2704
 7367TIP3    H122042   1.287   4.383   3.000 -0.1320 -2.3597  0.0731
 7367TIP3    H222043   1.148   4.326   3.019 -0.7576 -0.8034  0.3155
 7368TIP3   OH222044   2.435   1.171   2.206  0.3104 -0.3256 -0.0697
 7368TIP3    H122045   2.410   1.247   2.258 -1.6680 -0.7080 -0.3744
 7368TIP3    H222046   2.479   1.113   2.268  1.3447  0.8066  0.2877
 7369TIP3   OH222047   2.586   6.718   6.078  0.9085  0.1651  0.2005
 7369TIP3    H122048   2.650   6.754   6.139 -0.5062  0.7311  1.4117
 7369TIP3    H222049   2.561   6.634   6.116 -0.8842  1.0629  1.1379
 7370TIP3   OH222050   5.527   5.717   4.335  0.2300  0.9558 -0.0241
 7370TIP3    H122051   5.544   5.704   4.242  0.1468  1.4922 -0.1176
 7370TIP3    H222052   5.445   5.766   4.338  0.4774  1.3640  0.3123
 7371TIP3   OH222053   3.668   6.280   0.845  0.0072 -0.3954 -0.3770
 7371TIP3    H122054   3.725   6.203   0.847 -0.0295 -0.4170  1.3873
 7371TIP3    H222055   3.703   6.334   0.775  2.1302 -0.4900  0.5329
 7372TIP3   OH222056   5.384   3.963   0.120  0.4577  0.0348 -0.4904
 7372TIP3    H122057   5.356   4.023   0.051 -0.1967  1.8547  1.2419
 7372TIP3    H222058   5.304   3.920   0.148  0.3722  0.7237  0.3740
 7373TIP3   OH222059   5.329   6.161   4.753  0.2933 -0.0481  0.1417
 7373TIP3    H122060   5.264   6.123   4.812  0.3611 -1.2043 -0.5225
 7373TIP3    H222061   5.287   6.240   4.718 -1.2251 -1.3895 -1.1684
 7374TIP3   OH222062   2.731   7.325   3.747  0.1063 -0.8192  0.3992
 7374TIP3    H122063   2.729   7.230   3.738 -0.3212 -0.9163  1.3167
 7374TIP3    H222064   2.687   7.341   3.831  1.8914  0.0466  1.2281
 7375TIP3   OH222065   0.883   1.406   1.649  0.2309  0.5713 -0.0823
 7375TIP3    H122066   0.968   1.445   1.667  1.2974 -1.6989  0.2556
 7375TIP3    H222067   0.823   1.480   1.641  2.3436  2.2964 -1.0476
 7376TIP3   OH222068   0.625   0.877   0.167  0.6539 -0.0401  0.0800
 7376TIP3    H122069   0.653   0.806   0.224 -0.2666  0.3722  1.0805
 7376TIP3    H222070   0.703   0.931   0.156  0.8975 -0.2355  0.7895
 7377TIP3   OH222071   1.497   6.439   0.336 -1.0538  0.7438  0.3597
 7377TIP3    H122072   1.402   6.433   0.344 -1.0661  0.7960  0.2477
 7377TIP3    H222073   1.511   6.490   0.257 -0.9235 -0.0662 -0.1539
 7378TIP3   OH222074   6.921   4.561   1.596  0.0125  0.0077 -0.0522
 7378TIP3    H122075   6.840   4.609   1.577  0.5133  1.4074  1.1881
 7378TIP3    H222076   6.955   4.538   1.509 -0.0981  2.1901 -0.7380
 7379TIP3   OH222077   8.147   4.413   2.734  1.1273 -0.0468 -0.3152
 7379TIP3    H122078   8.228   4.368   2.758 -0.1178 -1.3993  1.6287
 7379TIP3    H222079   8.080   4.345   2.736 -0.2488  1.2362 -0.8202
 7380TIP3   OH222080   6.625   3.712   4.894  0.2753 -0.1689  0.5541
 7380TIP3    H122081   6.720   3.708   4.909  0.7254  3.1626 -0.5487
 7380TIP3    H222082   6.591   3.758   4.971  0.0315  1.2744 -0.3898
 7381TIP3   OH222083   1.586   7.676   5.402  0.1441  0.3482 -0.1472
 7381TIP3    H122084   1.503   7.655   5.359 -0.2678  1.3263  0.1377
 7381TIP3    H222085   1.563   7.743   5.466  1.0480  0.1476  0.4055
 7382TIP3   OH222086   5.146   0.707   3.270  1.0085 -0.0105  0.3121
 7382TIP3    H122087   5.180   0.657   3.196 -1.5244  0.0225 -0.9641
 7382TIP3    H222088   5.094   0.645   3.321 -0.2305  0.7536  0.0216
 7383TIP3   OH222089   4.171   5.286   3.116  0.1449 -0.8323 -0.5286
 7383TIP3    H122090   4.123   5.364   3.144  1.0135 -0.6385  0.4894
 7383TIP3    H222091   4.103   5.223   3.092 -0.7074 -1.0624  2.1857
 7384TIP3   OH222092   2.560   6.388   0.125 -0.5808 -0.0192  0.2385
 7384TIP3    H122093   2.558   6.476   0.087  0.5306 -0.2811 -0.4799
 7384TIP3    H222094   2.472   6.374   0.159  0.0007  2.6107  3.3009
 7385TIP3   OH222095   0.173   2.434   1.206  0.2019 -0.5864  0.0366
 7385TIP3    H122096   0.170   2.342   1.183 -1.4301 -0.7346  0.6492
 7385TIP3    H222097   0.114   2.477   1.143 -0.9708 -0.3757  1.2181
 7386TIP3   OH222098   4.461   1.934   5.804  0.0176 -0.3097  0.7605
 7386TIP3    H122099   4.489   1.877   5.875  0.1848 -0.4593  0.5769
 7386TIP3    H222100   4.471   1.880   5.725  0.3531  0.0328  0.5651
 7387TIP3   OH222101   7.643   5.262   1.488 -0.6686  0.0984  0.3366
 7387TIP3    H122102   7.591   5.333   1.450 -0.7834 -0.3086 -0.2832
 7387TIP3    H222103   7.676   5.298   1.571  0.2623  1.2864 -0.5148
 7388TIP3   OH222104   7.377   1.156   5.388  0.7266 -0.5785  0.2283
 7388TIP3    H122105   7.290   1.196   5.387  1.4898  1.1844 -0.5779
 7388TIP3    H222106   7.388   1.121   5.476 -0.8711 -1.0531  0.2630
 7389TIP3   OH222107   1.576   7.014   3.583 -0.0329  0.3072 -0.3946
 7389TIP3    H122108   1.537   6.944   3.532 -0.7166  1.1935 -1.1343
 7389TIP3    H222109   1.505   7.048   3.638  0.1529  0.7428 -0.4138
 7390TIP3   OH222110   7.255   7.466   6.747 -0.4290 -0.0258  0.2454
 7390TIP3    H122111   7.308   7.407   6.801 -0.8131 -1.0312 -0.4579
 7390TIP3    H222112   7.203   7.515   6.810 -0.3231 -0.6494  0.8328
 7391TIP3   OH222113   1.813   5.409   4.774  0.7275 -0.3440 -0.5035
 7391TIP3    H122114   1.881   5.358   4.731 -0.6901 -2.4507 -0.3858
 7391TIP3    H222115   1.801   5.366   4.859 -1.4173 -0.7051 -0.9263
 7392TIP3   OH222116   7.407   5.533   4.632 -0.0246  0.2060  0.2956
 7392TIP3    H122117   7.370   5.568   4.713  1.2120 -0.6007  1.2448
 7392TIP3    H222118   7.412   5.609   4.573  1.1688  1.3167  1.7700
 7393TIP3   OH222119   3.830   4.259   1.761  0.2600 -0.0579 -0.4387
 7393TIP3    H122120   3.801   4.344   1.793 -0.7416 -0.2763 -0.7282
 7393TIP3    H222121   3.924   4.269   1.747  0.9808 -0.1493  3.2514
 7394TIP3   OH222122   0.659   4.365   3.720  0.0800 -0.3681 -0.3765
 7394TIP3    H122123   0.755   4.363   3.718  0.1041 -0.0536  0.1076
 7394TIP3    H222124   0.637   4.455   3.695 -0.1774 -0.9721 -2.4916
 7395TIP3   OH222125   6.966   7.845   4.909  0.2659  0.1754 -0.1081
 7395TIP3    H122126   7.011   7.904   4.848  0.4470  1.1159  0.8985
 7395TIP3    H222127   7.030   7.776   4.925 -0.7331 -1.5620 -2.9763
 7396TIP3   OH222128   2.893   5.010   6.417 -0.4346 -0.2216 -0.2319
 7396TIP3    H122129   2.835   5.085   6.411  0.0465  0.1890  0.1824
 7396TIP3    H222130   2.925   5.011   6.507  0.9103  0.0955 -0.6866
 7397TIP3   OH222131   4.763   6.673   4.834  0.3580  0.0026  0.2530
 7397TIP3    H122132   4.772   6.674   4.739 -2.1912  0.6439 -0.0597
 7397TIP3    H222133   4.700   6.742   4.853 -2.0366 -2.4536  2.0257
 7398TIP3   OH222134   1.833   7.082   0.612 -0.5812  0.5517  0.7762
 7398TIP3    H122135   1.916   7.094   0.657 -0.5348 -0.6789  1.0477
 7398TIP3    H222136   1.795   7.170   0.608  0.4663  1.0332  1.1492
 7399TIP3   OH222137   4.068   5.368   6.190 -0.2427  0.4208  0.0742
 7399TIP3    H122138   4.130   5.295   6.191 -1.5572 -0.7455  0.8902
 7399TIP3    H222139   4.072   5.404   6.278  0.3505  1.3347 -0.3063
 7400TIP3   OH222140   0.887   1.261   0.830 -0.8188 -0.5978  0.3355
 7400TIP3    H122141   0.889   1.253   0.925 -2.1355 -0.5311  0.3855
 7400TIP3    H222142   0.837   1.185   0.800 -1.3981 -0.0220 -0.1995
 7401TIP3   OH222143   6.130   4.569   3.607  0.5079 -0.2129 -0.1114
 7401TIP3    H122144   6.098   4.619   3.682  0.7750 -0.2911  0.0537
 7401TIP3    H222145   6.050   4.539   3.563  0.3494 -0.3344  0.2543
 7402TIP3   OH222146   5.893   6.551   2.835  0.1388  1.0058 -0.3320
 7402TIP3    H122147   5.950   6.626   2.850  0.0453  0.7544  1.4679
 7402TIP3    H222148   5.950   6.475   2.841 -0.2205  0.8002  0.6266
 7403TIP3   OH222149   1.604   6.270   5.565 -0.5293 -0.3089  0.0268
 7403TIP3    H122150   1.528   6.328   5.552 -0.6640 -0.6045 -0.5255
 7403TIP3    H222151   1.665   6.323   5.616 -1.1920 -0.1351  0.6621
 7404TIP3   OH222152   7.591   5.735   6.300  0.3775 -0.9147 -0.5519
 7404TIP3    H122153   7.499   5.735   6.326  0.3935  0.5731 -0.4107
 7404TIP3    H222154   7.639   5.721   6.382  0.2891 -2.4843 -0.7338
 7405TIP3   OH222155   5.678   3.807   4.602  0.5536 -0.3174 -0.3086
 7405TIP3    H122156   5.684   3.732   4.543  0.0339 -0.1226 -0.6214
 7405TIP3    H222157   5.714   3.776   4.685 -0.8878 -1.3669 -0.0205
 7406TIP3   OH222158   8.234   0.258   2.225  0.5405 -0.0073 -0.0741
 7406TIP3    H122159   8.175   0.210   2.166  2.6166  0.6503 -2.8940
 7406TIP3    H222160   8.178   0.326   2.264 -0.9866 -0.6082 -1.0996
 7407TIP3   OH222161   4.195   0.031   5.253 -0.0983 -0.8750  0.1978
 7407TIP3    H122162   4.275   0.069   5.218 -0.1661 -2.0378 -1.3415
 7407TIP3    H222163   4.124   0.084   5.216 -0.1265 -1.4163 -0.5352
 7408TIP3   OH222164   6.569   1.138   1.714  0.1044  0.0043 -0.7822
 7408TIP3    H122165   6.495   1.114   1.658 -0.0317 -0.1072 -0.5587
 7408TIP3    H222166   6.540   1.115   1.803  0.9351 -1.3507 -0.8195
 7409TIP3   OH222167   7.621   3.293   2.471 -0.1950  0.3806 -0.2491
 7409TIP3    H122168   7.561   3.283   2.398 -0.4182  0.0408 -0.0262
 7409TIP3    H222169   7.675   3.214   2.468 -0.2396  0.3388 -0.0220
 7410TIP3   OH222170   4.753   0.872   2.295 -0.0377 -0.3964 -0.3237
 7410TIP3    H122171   4.674   0.885   2.348 -1.3573  0.0488 -2.2946
 7410TIP3    H222172   4.762   0.952   2.244  1.0981 -0.8781 -0.9176
 7411TIP3   OH222173   2.354   0.605   3.079 -0.1986 -0.2608 -0.3508
 7411TIP3    H122174   2.286   0.549   3.042  0.8072 -1.4675 -0.4100
 7411TIP3    H222175   2.314   0.692   3.082 -1.6717 -0.9023 -0.5645
 7412TIP3   OH222176   2.190   2.939   3.713 -0.1821  0.7208 -0.1256
 7412TIP3    H122177   2.100   2.909   3.701 -1.2546  2.6754  2.2412
 7412TIP3    H222178   2.191   3.027   3.675  0.8916  0.5290 -0.5743
 7413TIP3   OH222179   6.887   0.474   5.283 -0.2086 -0.1319 -0.4000
 7413TIP3    H122180   6.947   0.548   5.294  0.1366 -0.6452  1.4424
 7413TIP3    H222181   6.900   0.447   5.192 -1.0659  2.6533 -1.4497
 7414TIP3   OH222182   8.230   0.199   3.766 -0.5365 -0.6137 -0.4369
 7414TIP3    H122183   8.277   0.136   3.710  0.7559 -0.7255  0.7124
 7414TIP3    H222184   8.205   0.148   3.843  1.2658  0.3887  0.9047
 7415TIP3   OH222185   6.693   6.754   1.453 -0.8386 -0.3106  0.4648
 7415TIP3    H122186   6.619   6.716   1.405 -0.3571 -0.5092 -0.1351
 7415TIP3    H222187   6.747   6.794   1.385  0.2623 -1.2840  0.7338
 7416TIP3   OH222188   5.891   5.531   4.737  0.1459  0.4266  0.4986
 7416TIP3    H122189   5.930   5.540   4.824 -0.4205  1.3792  0.6736
 7416TIP3    H222190   5.872   5.621   4.710 -2.5174  0.0192  0.7188
 7417TIP3   OH222191   4.180   3.767   1.666  0.3836 -0.1458 -0.0189
 7417TIP3    H122192   4.143   3.700   1.724  0.3160  0.4439  0.6357
 7417TIP3    H222193   4.174   3.848   1.717  0.1922  0.4141 -0.9103
 7418TIP3   OH222194   7.945   2.798   2.582  0.8364  0.8064 -0.5912
 7418TIP3    H122195   7.903   2.720   2.546 -0.0036  1.5015 -1.1538
 7418TIP3    H222196   7.907   2.808   2.669 -1.4962  2.3432 -1.6748
 7419TIP3   OH222197   4.494   7.723   3.994  0.3160 -0.5232  0.3632
 7419TIP3    H122198   4.402   7.723   4.018  0.0133  0.6666 -0.6876
 7419TIP3    H222199   4.521   7.815   4.002  1.0718 -0.6496 -0.5371
 7420TIP3   OH222200   2.347   5.839   4.985  0.1285 -0.2259 -0.0546
 7420TIP3    H122201   2.297   5.776   5.037 -0.1691 -0.0726 -0.1476
 7420TIP3    H222202   2.429   5.850   5.032 -0.2348  0.0957  0.5155
 7421TIP3   OH222203   2.131   2.204   2.222  0.3917  0.4745 -0.2213
 7421TIP3    H122204   2.044   2.173   2.244 -0.2942  1.8328 -0.9023
 7421TIP3    H222205   2.190   2.141   2.264 -0.8800  0.2326  1.2970
 7422TIP3   OH222206   5.972   3.681   4.716 -0.1264 -0.4585  0.5730
 7422TIP3    H122207   6.032   3.752   4.694 -1.5722  1.0457  1.2506
 7422TIP3    H222208   6.014   3.602   4.682  0.4807  0.9774 -2.3434
 7423TIP3   OH222209   4.504   1.810   6.041 -0.5372 -0.6444  0.1045
 7423TIP3    H122210   4.560   1.858   6.102  0.5373 -0.2830 -1.1241
 7423TIP3    H222211   4.440   1.765   6.097  0.0939  0.0724  1.4465
 7424TIP3   OH222212   1.111   2.271   5.853 -0.3175 -0.2766 -0.2605
 7424TIP3    H122213   1.090   2.284   5.945  1.5973 -0.9891  0.3146
 7424TIP3    H222214   1.081   2.182   5.834  0.2856 -0.5422 -0.0000
 7425TIP3   OH222215   4.967   5.296   5.538  0.1061 -0.2836  0.3632
 7425TIP3    H122216   5.055   5.301   5.575  1.0565 -0.9647 -1.6364
 7425TIP3    H222217   4.963   5.368   5.475  0.5887 -2.2842 -2.1005
 7426TIP3   OH222218   2.928   3.792   4.045 -0.1922  0.2961  0.2861
 7426TIP3    H122219   2.951   3.870   4.094 -0.1748  1.0070 -0.8163
 7426TIP3    H222220   2.927   3.820   3.953 -0.3251 -0.9589 -0.1231
 7427TIP3   OH222221   6.093   4.371   2.135 -0.1642  0.0782  0.4109
 7427TIP3    H122222   6.075   4.431   2.207  0.2663 -0.1051  0.6763
 7427TIP3    H222223   6.016   4.314   2.131 -0.4198  0.4253  0.3806
 7428TIP3   OH222224   6.892   1.204   6.156 -0.2246  0.0109  0.1130
 7428TIP3    H122225   6.874   1.287   6.112 -1.6103 -0.6518 -0.6275
 7428TIP3    H222226   6.808   1.178   6.193  1.1926  1.6873  5.4320
 7429TIP3   OH222227   2.299   2.518   0.839  0.2115  0.3317 -0.0407
 7429TIP3    H122228   2.287   2.589   0.902 -1.5774 -0.0970  0.1377
 7429TIP3    H222229   2.391   2.492   0.849  0.4071  1.4202  1.1535
 7430TIP3   OH222230   1.867   4.529   3.734 -0.0749 -0.6449 -0.0915
 7430TIP3    H122231   1.911   4.509   3.652  0.7376  0.7708 -0.0329
 7430TIP3    H222232   1.787   4.476   3.732  0.5713 -1.6276 -1.1795
 7431TIP3   OH222233   7.418   6.612   5.424 -0.6460  0.1616  0.2348
 7431TIP3    H122234   7.484   6.615   5.355 -0.2944  0.6417  0.5801
 7431TIP3    H222235   7.467   6.581   5.501 -0.6951  1.0301  0.6260
 7432TIP3   OH222236   5.173   3.604   1.097 -1.1681  0.0479 -0.2900
 7432TIP3    H122237   5.098   3.548   1.077 -0.8786 -1.1589  1.6923
 7432TIP3    H222238   5.246   3.564   1.048 -1.0874 -1.0249  0.6493
 7433TIP3   OH222239   1.675   7.483   0.030  0.3424  0.2153  0.2404
 7433TIP3    H122240   1.644   7.505   0.118  0.7890  0.3510  0.3625
 7433TIP3    H222241   1.770   7.489   0.035  0.5735 -2.2626  0.4314
 7434TIP3   OH222242   0.503   2.201   3.467 -0.3226  0.5633 -0.0013
 7434TIP3    H122243   0.537   2.121   3.508 -1.7133  0.1137  0.3398
 7434TIP3    H222244   0.531   2.272   3.525  0.9670  0.3599 -0.3330
 7435TIP3   OH222245   3.665   2.577   3.149 -0.3092  0.3913  0.1789
 7435TIP3    H122246   3.685   2.524   3.072  0.4184  0.5057  0.2839
 7435TIP3    H222247   3.734   2.557   3.211 -0.4860  0.8457  0.5323
 7436TIP3   OH222248   1.677   7.239   3.465 -0.1227 -0.1802  0.2328
 7436TIP3    H122249   1.627   7.182   3.523  0.0174 -1.1384 -0.5544
 7436TIP3    H222250   1.721   7.179   3.404 -0.1773  0.7815 -0.7912
 7437TIP3   OH222251   7.699   3.003   6.154 -0.3661  0.7716  0.7387
 7437TIP3    H122252   7.635   3.070   6.127 -0.4786 -0.5682 -2.8422
 7437TIP3    H222253   7.646   2.933   6.192 -0.4068  1.8261  2.7854
 7438TIP3   OH222254   0.268   2.393   0.257 -0.0487 -0.3724  0.5171
 7438TIP3    H122255   0.318   2.402   0.338  1.6982 -1.2748 -0.3898
 7438TIP3    H222256   0.323   2.432   0.189 -1.2235 -0.1198 -0.3369
 7439TIP3   OH222257   0.147   3.981   2.636  0.0837 -0.2544  0.0560
 7439TIP3    H122258   0.163   3.944   2.722  1.7057 -2.4592 -1.1037
 7439TIP3    H222259   0.124   3.906   2.581  3.4653  0.2675 -2.4043
 7440TIP3   OH222260   1.170   2.406   3.293  0.3152 -0.1121  0.3090
 7440TIP3    H122261   1.256   2.445   3.301  0.2360 -0.2252  2.3094
 7440TIP3    H222262   1.120   2.442   3.366 -0.6613 -1.6537  0.4624
 7441TIP3   OH222263   7.285   6.211   0.856 -0.0342 -0.0017 -0.5200
 7441TIP3    H122264   7.228   6.216   0.779  0.0773  0.0286 -0.6009
 7441TIP3    H222265   7.319   6.122   0.856 -1.0659 -0.4097  0.2378
 7442TIP3   OH222266   2.967   6.688   5.963  0.0527  0.1090  0.2598
 7442TIP3    H122267   2.938   6.618   6.022 -0.2812  0.2883  0.3060
 7442TIP3    H222268   2.923   6.766   5.995 -0.4595  0.1322 -0.4876
 7443TIP3   OH222269   4.372   0.758   2.507 -0.8226 -0.1295  0.3540
 7443TIP3    H122270   4.378   0.688   2.572 -0.4629 -0.0727  0.3801
 7443TIP3    H222271   4.457   0.800   2.508 -0.3061 -1.0365 -1.1718
 7444TIP3   OH222272   2.657   6.942   6.455 -0.6750  0.1036  0.3807
 7444TIP3    H122273   2.563   6.934   6.441 -0.6203 -2.2067  0.9238
 7444TIP3    H222274   2.676   6.881   6.527  1.4440 -0.7571 -0.8146
 7445TIP3   OH222275   7.594   1.914   0.399 -0.3579 -0.2046  0.2134
 7445TIP3    H122276   7.560   1.830   0.367  1.4017 -1.1855  0.7522
 7445TIP3    H222277   7.535   1.980   0.362 -1.3767 -1.6253 -0.8047
 7446TIP3   OH222278   5.228   6.573   6.016 -0.1877 -0.5075 -0.4320
 7446TIP3    H122279   5.300   6.528   6.062  0.3551 -0.1854 -0.9498
 7446TIP3    H222280   5.149   6.529   6.047  0.3050 -1.6074 -0.6759
 7447TIP3   OH222281   6.189   2.683   1.404  0.0891  0.2414 -0.8017
 7447TIP3    H122282   6.264   2.644   1.359 -0.9104 -2.2029 -0.5088
 7447TIP3    H222283   6.152   2.611   1.456 -0.6405  2.1446  1.5206
 7448TIP3   OH222284   7.629   2.921   0.260 -0.1794  0.2759 -0.0845
 7448TIP3    H122285   7.637   2.964   0.174  0.5532 -0.5191 -0.4236
 7448TIP3    H222286   7.634   2.993   0.323  1.9792  0.6428 -0.6034
 7449TIP3   OH222287   7.808   1.565   1.198  0.9205 -0.3547  0.4017
 7449TIP3    H122288   7.810   1.535   1.289 -1.6469  1.6304  1.2114
 7449TIP3    H222289   7.785   1.486   1.148  2.3025 -1.4612  1.4276
 7450TIP3   OH222290   4.442   2.840   5.244 -0.7544 -0.3720  0.1132
 7450TIP3    H122291   4.458   2.746   5.237 -2.2779 -0.6227 -0.2834
 7450TIP3    H222292   4.494   2.879   5.173 -1.3411 -1.0892 -0.7338
 7451TIP3   OH222293   3.073   6.122   1.031 -0.3392  0.2024  0.3750
 7451TIP3    H122294   3.056   6.031   1.058 -0.3528  0.4475  1.2098
 7451TIP3    H222295   3.159   6.142   1.067  0.3563  0.0432 -1.0982
 7452TIP3   OH222296   3.621   1.286   1.253 -0.3098  0.1397 -0.1019
 7452TIP3    H122297   3.561   1.360   1.241  0.0464  0.9014  2.3419
 7452TIP3    H222298   3.704   1.317   1.216 -0.4290  0.5744 -0.0154
 7453TIP3   OH222299   0.791   3.050   4.071  0.1208 -0.6501  0.0019
 7453TIP3    H122300   0.713   2.999   4.046 -1.2728  1.8005 -0.9437
 7453TIP3    H222301   0.858   3.024   4.008 -0.1984 -2.0407  0.1921
 7454TIP3   OH222302   2.320   5.708   2.989  0.1597 -0.2293  0.2852
 7454TIP3    H122303   2.332   5.735   2.898 -2.3568 -1.1688 -0.4022
 7454TIP3    H222304   2.347   5.784   3.040  0.7160  0.6615 -1.2550
 7455TIP3   OH222305   2.798   1.830   0.566  0.3333 -0.0398  0.1880
 7455TIP3    H122306   2.866   1.762   0.562 -0.5309 -0.9454  0.3477
 7455TIP3    H222307   2.830   1.899   0.508  1.0674 -0.7477 -0.2814
 7456TIP3   OH222308   7.720   5.981   5.446  0.0618 -0.5172 -0.3024
 7456TIP3    H122309   7.777   5.905   5.456  1.6490  0.5579 -0.7773
 7456TIP3    H222310   7.690   5.977   5.355  1.3866  0.2221 -0.7937
 7457TIP3   OH222311   4.934   5.415   4.551  0.3796 -0.0445 -0.3399
 7457TIP3    H122312   4.877   5.465   4.610 -1.2954 -1.4590 -0.6508
 7457TIP3    H222313   4.888   5.417   4.467  2.1969  1.0453 -1.3789
 7458TIP3   OH222314   6.963   4.486   2.592  0.9346 -0.0420  0.7953
 7458TIP3    H122315   6.930   4.566   2.633  0.3218 -0.3375  0.8841
 7458TIP3    H222316   6.909   4.475   2.514  0.8130 -0.5398  0.9470
 7459TIP3   OH222317   5.615   4.607   0.047  0.0130  0.2269  0.6946
 7459TIP3    H122318   5.530   4.642   0.074 -2.1919 -2.9070 -1.4811
 7459TIP3    H222319   5.649   4.563   0.125 -0.8787  0.5555  1.2812
 7460TIP3   OH222320   1.735   5.792   1.051  0.0256  0.1898 -0.6344
 7460TIP3    H122321   1.769   5.863   0.996 -1.1008  0.8468 -0.5064
 7460TIP3    H222322   1.806   5.727   1.052  1.0987  1.3185 -0.7180
 7461TIP3   OH222323   2.041   3.044   1.911  0.0118 -0.3881 -0.1708
 7461TIP3    H122324   2.026   3.095   1.831  0.4902 -0.1585 -0.1183
 7461TIP3    H222325   1.964   3.063   1.966  0.1303  0.1868 -0.1985
 7462TIP3   OH222326   4.044   7.836   3.903 -0.4371 -0.2715 -0.1855
 7462TIP3    H122327   3.965   7.872   3.943  1.3304  2.3713  1.2449
 7462TIP3    H222328   4.030   7.845   3.809 -2.3885 -1.2961 -0.0456
 7463TIP3   OH222329   2.150   6.452   6.060 -0.2684  0.4631  0.0737
 7463TIP3    H122330   2.172   6.451   6.154 -0.1444  1.1283  0.0551
 7463TIP3    H222331   2.109   6.367   6.044  0.4103  0.0285  0.5694
 7464TIP3   OH222332   7.826   6.152   4.937 -0.2350  0.1560  0.2787
 7464TIP3    H122333   7.819   6.079   4.998 -1.6711 -0.1883 -0.2577
 7464TIP3    H222334   7.748   6.145   4.882  0.2343  1.3683 -0.5908
 7465TIP3   OH222335   1.565   1.185   3.340  0.4429 -0.2475 -0.1494
 7465TIP3    H122336   1.476   1.215   3.318  0.1174 -1.4963 -0.5875
 7465TIP3    H222337   1.585   1.230   3.422  1.0598  3.3206 -2.0552
 7466TIP3   OH222338   5.664   2.827   2.472  0.2230 -0.3769  0.2437
 7466TIP3    H122339   5.598   2.882   2.514 -0.0786 -1.6879  1.5593
 7466TIP3    H222340   5.627   2.805   2.386 -1.3120 -1.4992  1.1584
 7467TIP3   OH222341   4.595   5.138   1.479  0.1605 -0.3354  0.3110
 7467TIP3    H122342   4.577   5.092   1.562  0.9330 -1.1331  0.0509
 7467TIP3    H222343   4.690   5.132   1.469  0.4813  2.5465  0.9338
 7468TIP3   OH222344   8.069   7.713   2.646 -0.2934 -0.3784 -0.5820
 7468TIP3    H122345   8.072   7.809   2.648 -2.1236 -0.2988  0.2805
 7468TIP3    H222346   8.129   7.686   2.716  0.4991  0.1158 -1.0618
 7469TIP3   OH222347   0.863   6.967   3.191 -1.0772 -0.0080 -0.6512
 7469TIP3    H122348   0.956   6.978   3.169 -1.3959  0.8583 -1.6402
 7469TIP3    H222349   0.816   7.009   3.119 -2.2263  0.5491  0.3887
 7470TIP3   OH222350   2.259   3.266   5.748  0.0627 -0.1509 -0.3744
 7470TIP3    H122351   2.207   3.322   5.690  0.6625 -0.2817 -1.0374
 7470TIP3    H222352   2.211   3.267   5.831 -0.3448  0.7264 -0.6129
 7471TIP3   OH222353   1.773   1.914   4.810 -0.0549 -0.4746 -0.1903
 7471TIP3    H122354   1.690   1.961   4.798  1.0393  1.4013 -0.9704
 7471TIP3    H222355   1.756   1.852   4.880 -1.8414  0.5483  0.3457
 7472TIP3   OH222356   2.549   7.694   3.161  0.3380  0.5219  0.1240
 7472TIP3    H122357   2.555   7.613   3.109 -2.6414 -0.1464  0.6238
 7472TIP3    H222358   2.594   7.674   3.243  1.7347  0.2588 -0.6740
 7473TIP3   OH222359   4.700   3.293   2.303  0.7843  0.3533  0.1791
 7473TIP3    H122360   4.694   3.379   2.346 -0.3766 -0.3525  1.5076
 7473TIP3    H222361   4.612   3.278   2.268  1.2363  0.1091 -0.8806
 7474TIP3   OH222362   5.535   2.797   0.524  0.2892 -0.2541 -0.5482
 7474TIP3    H122363   5.527   2.711   0.483 -0.8637 -1.0728  1.2623
 7474TIP3    H222364   5.563   2.855   0.453  1.0311 -2.0861 -1.8398
 7475TIP3   OH222365   3.271   7.374   6.048 -0.7970  0.1571 -0.1617
 7475TIP3    H122366   3.181   7.341   6.042  0.3119 -2.9902 -1.1988
 7475TIP3    H222367   3.269   7.432   6.124 -3.4279 -0.8146  0.6347
 7476TIP3   OH222368   1.084   4.847   6.550  0.3457 -0.3139  0.1848
 7476TIP3    H122369   1.119   4.809   6.630  1.3575 -1.0569 -0.5803
 7476TIP3    H222370   0.990   4.855   6.566  0.1091 -2.8754  0.5361
 7477TIP3   OH222371   7.354   4.372   1.125  0.3129 -0.6204  0.0956
 7477TIP3    H122372   7.274   4.396   1.172 -0.9218  0.1575 -2.2148
 7477TIP3    H222373   7.411   4.448   1.135  0.0001 -0.3977  0.2238
 7478TIP3   OH222374   4.112   1.545   0.552  0.1103 -0.3866 -0.2838
 7478TIP3    H122375   4.182   1.609   0.546  0.3607 -0.6721 -0.3964
 7478TIP3    H222376   4.049   1.572   0.485 -0.0289  0.0361  0.0083
 7479TIP3   OH222377   4.939   7.383   5.008  0.1620 -0.6195 -0.0347
 7479TIP3    H122378   4.980   7.398   4.923  1.0974 -0.3825  0.4367
 7479TIP3    H222379   4.991   7.435   5.069 -0.6849 -0.5390  0.6418
 7480TIP3   OH222380   1.810   2.775   2.285 -0.3194  0.6206  0.0219
 7480TIP3    H122381   1.859   2.829   2.347  0.3938  0.8298 -0.7073
 7480TIP3    H222382   1.853   2.790   2.201 -0.9319 -0.0788 -0.4288
 7481TIP3   OH222383   2.379   4.384   5.016  0.3473 -0.1595 -0.2590
 7481TIP3    H122384   2.398   4.326   4.941 -1.8940  1.2424 -2.0277
 7481TIP3    H222385   2.346   4.464   4.976 -1.3436  0.4951  2.2627
 7482TIP3   OH222386   2.729   1.337   6.256 -0.0111 -0.2388 -0.3618
 7482TIP3    H122387   2.752   1.390   6.179 -1.7657 -1.1069 -1.5443
 7482TIP3    H222388   2.812   1.324   6.302  0.9438  1.0105 -1.6529
 7483TIP3   OH222389   7.129   6.916   4.227 -0.1522 -0.1467 -0.1920
 7483TIP3    H122390   7.103   6.825   4.236  0.6689 -0.2659  1.2217
 7483TIP3    H222391   7.224   6.915   4.238 -0.3026  1.0622  1.7165
 7484TIP3   OH222392   0.706   7.650   0.835  0.1268 -0.7468 -0.3499
 7484TIP3    H122393   0.713   7.636   0.930 -0.5982  1.2457  0.0537
 7484TIP3    H222394   0.777   7.598   0.798  2.1322  0.4733  1.5236
 7485TIP3   OH222395   0.819   0.920   1.866 -0.4785 -0.8385  0.3510
 7485TIP3    H122396   0.824   1.012   1.890  0.4653 -0.5979 -0.6766
 7485TIP3    H222397   0.791   0.920   1.774 -0.3333 -1.5645  0.2975
 7486TIP3   OH222398   8.160   7.531   3.938  0.0199 -0.7493  0.0975
 7486TIP3    H122399   8.188   7.441   3.921  0.6832 -0.3501 -1.0941
 7486TIP3    H222400   8.065   7.527   3.943  0.1292 -1.9397  2.9047
 7487TIP3   OH222401   2.280   2.333   4.438  0.0365 -0.5607  0.1285
 7487TIP3    H122402   2.344   2.320   4.368 -0.2348 -0.2056 -0.1912
 7487TIP3    H222403   2.240   2.247   4.449  1.1401 -1.0005  0.9121
 7488TIP3   OH222404   3.833   0.459   2.546  0.0078 -0.4364 -0.3991
 7488TIP3    H122405   3.875   0.518   2.483  2.1441 -1.3249  0.1045
 7488TIP3    H222406   3.741   0.486   2.546  0.5031  1.5052 -1.7068
 7489TIP3   OH222407   3.109   0.720   4.033 -0.0822 -0.1127 -0.1170
 7489TIP3    H122408   3.028   0.706   4.081  0.0933  0.3395  0.3218
 7489TIP3    H222409   3.178   0.690   4.092  0.0358 -1.1024 -0.7430
 7490TIP3   OH222410   6.452   5.761   0.999  0.0449  0.1255  0.0040
 7490TIP3    H122411   6.456   5.833   1.061  3.4630  0.6445 -0.5869
 7490TIP3    H222412   6.423   5.800   0.916 -1.5954  0.0219  0.4944
 7491TIP3   OH222413   4.116   3.987   1.865 -0.0261  0.7517 -0.5275
 7491TIP3    H122414   4.039   3.992   1.921 -0.0779  1.8467 -0.6732
 7491TIP3    H222415   4.184   3.950   1.922 -0.3123  1.0158 -0.0072
 7492TIP3   OH222416   7.262   3.177   3.996  0.5784  0.5399  0.5445
 7492TIP3    H122417   7.178   3.214   4.022  0.6178  0.0408  1.4118
 7492TIP3    H222418   7.326   3.227   4.047  0.9334  1.7759 -1.0263
 7493TIP3   OH222419   2.949   2.980   2.143 -0.0317  0.1850  0.3543
 7493TIP3    H122420   3.041   2.963   2.159  0.1807  2.2820  1.6980
 7493TIP3    H222421   2.940   2.975   2.048  1.7229  1.1467  0.1106
 7494TIP3   OH222422   5.279   1.360   6.611 -0.4770 -0.3840  0.0763
 7494TIP3    H122423   5.206   1.357   6.673 -0.9578 -0.8027 -0.4985
 7494TIP3    H222424   5.277   1.450   6.577 -0.4522 -0.2666  0.3829
 7495TIP3   OH222425   1.065   1.568   5.596  0.2696  0.7835  0.2425
 7495TIP3    H122426   1.002   1.634   5.626 -0.8637  0.0373 -0.4308
 7495TIP3    H222427   1.150   1.605   5.619 -0.3785  2.0236  0.7824
 7496TIP3   OH222428   2.593   6.495   4.733  0.0746 -0.3298  0.6334
 7496TIP3    H122429   2.657   6.426   4.715 -1.9068 -2.2092  0.4516
 7496TIP3    H222430   2.577   6.536   4.648  1.7683  0.9293  0.8506
 7497TIP3   OH222431   6.968   4.830   3.272 -0.6088 -0.2252  0.0389
 7497TIP3    H122432   7.044   4.773   3.255 -1.1952 -0.9200 -0.3079
 7497TIP3    H222433   6.978   4.854   3.364 -1.4798 -2.7001  0.8793
 7498TIP3   OH222434   6.317   6.143   2.363 -0.0354 -0.2278 -0.6023
 7498TIP3    H122435   6.344   6.127   2.453 -2.5362  2.4537  0.8179
 7498TIP3    H222436   6.238   6.090   2.352  0.2070 -0.4708 -1.2194
 7499TIP3   OH222437   4.690   6.939   1.133  0.3193  0.7420  0.1194
 7499TIP3    H122438   4.718   6.932   1.225 -0.5451  0.0923  0.3430
 7499TIP3    H222439   4.659   7.029   1.125 -1.3207  0.2948  0.9864
 7500TIP3   OH222440   6.111   3.421   4.543 -0.3915  0.3404 -0.0043
 7500TIP3    H122441   6.181   3.360   4.566 -0.0163  1.0645  0.8730
 7500TIP3    H222442   6.084   3.395   4.455  2.6434  1.5291 -1.4419
 7501TIP3   OH222443   2.113   6.637   5.333  0.3487  0.1087 -0.3592
 7501TIP3    H122444   2.027   6.614   5.369  0.0485  1.2435 -0.3137
 7501TIP3    H222445   2.112   6.601   5.245 -0.2293  0.2328 -0.4101
 7502TIP3   OH222446   5.777   4.703   5.660 -0.0801 -0.4577  0.3401
 7502TIP3    H122447   5.717   4.633   5.687  0.1084 -1.7159 -2.1841
 7502TIP3    H222448   5.821   4.668   5.582 -0.5471  2.7800 -1.5360
 7503TIP3   OH222449   5.041   5.249   2.458 -0.2957  0.1344  0.3276
 7503TIP3    H122450   4.946   5.243   2.445 -0.1913 -0.5080 -0.1247
 7503TIP3    H222451   5.067   5.325   2.405 -0.6883  0.9275  1.2235
 7504TIP3   OH222452   2.025   2.391   1.141  0.4303 -0.2119  0.4605
 7504TIP3    H122453   2.042   2.358   1.229  0.5581  0.6249  0.7586
 7504TIP3    H222454   2.088   2.345   1.085  0.6103 -0.4593  0.8647
 7505TIP3   OH222455   0.924   2.619   6.089 -0.1564  0.0418  0.1553
 7505TIP3    H122456   0.952   2.599   6.000 -1.5694  0.7632 -0.4627
 7505TIP3    H222457   0.895   2.535   6.125  1.1832 -0.4101  0.2551
 7506TIP3   OH222458   2.298   2.144   5.218  0.9987 -0.0604  0.1333
 7506TIP3    H122459   2.287   2.108   5.306  0.5733  1.2067  0.6340
 7506TIP3    H222460   2.289   2.069   5.160  0.6343 -0.8266  1.1419
 7507TIP3   OH222461   4.640   2.675   4.531  0.5099 -0.2133  0.5082
 7507TIP3    H122462   4.558   2.653   4.575  0.6862  1.7909  2.0041
 7507TIP3    H222463   4.690   2.594   4.531 -0.6751 -0.9757  1.4063
 7508TIP3   OH222464   0.582   6.568   0.898 -0.0378  0.2171 -0.1815
 7508TIP3    H122465   0.537   6.564   0.983 -0.6086 -0.3316 -0.5093
 7508TIP3    H222466   0.671   6.596   0.920 -0.7582  2.2251  0.3859
 7509TIP3   OH222467   3.094   6.311   2.931 -0.4808 -0.8007  0.1903
 7509TIP3    H122468   3.028   6.358   2.880 -1.0066 -0.4559  1.1572
 7509TIP3    H222469   3.043   6.249   2.983 -0.0848 -0.3487  1.1402
 7510TIP3   OH222470   0.041   1.519   2.807  0.3587 -0.0762  0.1525
 7510TIP3    H122471   0.027   1.589   2.743 -1.0908  0.1514  0.6791
 7510TIP3    H222472  -0.036   1.523   2.864  0.1348 -2.2340  0.0760
 7511TIP3   OH222473   6.642   2.223   4.386 -0.2930 -0.9413  0.1501
 7511TIP3    H122474   6.644   2.247   4.293  0.7998  0.2406  0.4417
 7511TIP3    H222475   6.582   2.287   4.426  2.1005  1.0480  0.8183
 7512TIP3   OH222476   0.032   6.900   0.727  0.8030  0.9657  0.8507
 7512TIP3    H122477  -0.031   6.967   0.750  0.2605  0.8067 -0.1063
 7512TIP3    H222478   0.041   6.907   0.632 -1.1279 -1.8743  0.3187
 7513TIP3   OH222479   2.652   3.752   4.053 -0.0121  0.3107  0.2813
 7513TIP3    H122480   2.666   3.817   4.122  2.1790  0.6504 -0.3886
 7513TIP3    H222481   2.741   3.724   4.029 -0.8546 -2.5030  0.1219
 7514TIP3   OH222482   8.113   0.313   3.178 -0.0028  0.1900  0.2267
 7514TIP3    H122483   8.059   0.235   3.185 -0.5880  0.5761  0.0528
 7514TIP3    H222484   8.179   0.304   3.248 -0.3910 -0.2003  0.5416
 7515TIP3   OH222485   2.423   3.712   0.429  0.2517  0.4671 -0.0026
 7515TIP3    H122486   2.475   3.731   0.507 -0.5291  0.3189  0.5654
 7515TIP3    H222487   2.475   3.647   0.381  1.3691  1.5228 -0.2917
 7516TIP3   OH222488   5.096   2.405   3.757  0.4539 -0.2816 -0.1225
 7516TIP3    H122489   5.142   2.419   3.840 -1.1772  1.2495  0.6012
 7516TIP3    H222490   5.080   2.493   3.724 -2.2801 -0.6628 -0.0786
 7517TIP3   OH222491   0.445   6.723   5.472  0.1948  0.2616 -0.4400
 7517TIP3    H122492   0.540   6.710   5.467  0.3843  0.6710  1.5730
 7517TIP3    H222493   0.417   6.727   5.380  1.9627 -0.8720 -1.0888
 7518TIP3   OH222494   0.873   7.590   5.043  0.0597 -0.1044  0.5330
 7518TIP3    H122495   0.961   7.620   5.066  0.1941  0.2859 -0.4262
 7518TIP3    H222496   0.823   7.671   5.029  0.0114 -0.3050 -0.5602
 7519TIP3   OH222497   1.400   4.920   5.269  0.1288 -0.1378 -0.1474
 7519TIP3    H122498   1.418   5.012   5.253  1.2318  0.2117  2.4896
 7519TIP3    H222499   1.439   4.903   5.355  0.3273 -3.1758 -0.7270
 7520TIP3   OH222500   7.119   2.168   2.961  0.4811  0.0640 -0.1384
 7520TIP3    H122501   7.214   2.170   2.972  0.4997  0.1117 -0.3083
 7520TIP3    H222502   7.096   2.075   2.967  0.6720 -0.0702 -1.2194
 7521TIP3   OH222503   2.974   6.019   3.879  0.4553  0.5470 -0.3198
 7521TIP3    H122504   2.989   6.045   3.970  1.0219 -0.4407 -0.1157
 7521TIP3    H222505   3.028   5.941   3.868 -0.5157 -0.0222 -1.1578
 7522TIP3   OH222506   5.205   0.851   2.450 -0.1055 -0.3655  1.0023
 7522TIP3    H122507   5.201   0.759   2.427 -0.6232 -0.4266  1.3221
 7522TIP3    H222508   5.115   0.874   2.473  0.0882  0.1170  1.3026
 7523TIP3   OH222509   1.697   4.756   3.734 -0.1126  0.0455 -0.5478
 7523TIP3    H122510   1.727   4.666   3.720 -0.7458 -0.5604  1.5374
 7523TIP3    H222511   1.673   4.758   3.827 -1.2583  2.0372 -0.8462
 7524TIP3   OH222512   2.500   1.916   0.812  0.1024 -0.5640 -0.6913
 7524TIP3    H122513   2.516   1.961   0.729 -0.0171  0.4903 -0.1504
 7524TIP3    H222514   2.583   1.872   0.831  0.1366 -0.8109 -1.3531
 7525TIP3   OH222515   1.710   4.866   1.759  0.2247 -0.2431  0.1162
 7525TIP3    H122516   1.647   4.808   1.716  1.2198 -0.8145 -0.5920
 7525TIP3    H222517   1.677   4.954   1.741 -1.2095 -0.5475  1.0639
 7526TIP3   OH222518   6.349   5.206   3.082 -0.6014 -0.2666 -0.4282
 7526TIP3    H122519   6.343   5.181   3.174  0.2683  0.3109 -0.1961
 7526TIP3    H222520   6.312   5.132   3.034 -2.4375  0.0454  0.4433
 7527TIP3   OH222521   3.341   1.504   6.099 -0.8468  0.0671 -0.6681
 7527TIP3    H122522   3.375   1.452   6.172  0.0245 -0.7262 -1.6043
 7527TIP3    H222523   3.276   1.562   6.139  0.2644  0.3006  0.8801
 7528TIP3   OH222524   3.385   2.555   2.547  0.8299 -0.2787 -0.7872
 7528TIP3    H122525   3.345   2.485   2.599 -0.8035  0.6283 -0.7407
 7528TIP3    H222526   3.336   2.556   2.466  1.9271 -0.2419 -1.4701
 7529TIP3   OH222527   6.799   1.770   4.080  0.2249  0.2544 -0.7504
 7529TIP3    H122528   6.791   1.703   4.013 -1.9165 -0.6917  0.3608
 7529TIP3    H222529   6.761   1.849   4.041  1.1542  0.3867 -1.4336
 7530TIP3   OH222530   3.238   7.282   4.307  0.1138 -0.3091  0.3073
 7530TIP3    H122531   3.281   7.219   4.248  2.1876  1.4373 -0.1477
 7530TIP3    H222532   3.175   7.328   4.251  0.1792 -0.4530  0.1149
 7531TIP3   OH222533   4.845   6.803   5.478 -0.3338  0.5270 -0.3354
 7531TIP3    H122534   4.817   6.834   5.564 -0.7603  0.9270 -0.6171
 7531TIP3    H222535   4.813   6.869   5.417  0.1147  0.3305 -0.7887
 7532TIP3   OH222536   3.308   1.287   3.231  0.1859 -0.2552 -0.0962
 7532TIP3    H122537   3.268   1.302   3.146 -1.1877  0.1540  0.5971
 7532TIP3    H222538   3.347   1.200   3.225  3.0688  1.0249 -2.2277
 7533TIP3   OH222539   3.535   0.062   2.969  0.5235  0.2590 -0.5815
 7533TIP3    H122540   3.572   0.035   3.053  0.5073 -0.1079 -0.6892
 7533TIP3    H222541   3.513   0.155   2.981  0.1113  0.0980 -0.0368
 7534TIP3   OH222542   3.469   4.134   6.574 -0.3316  0.0961 -0.3021
 7534TIP3    H122543   3.435   4.192   6.506  0.5121  0.8761 -0.0802
 7534TIP3    H222544   3.413   4.150   6.650 -0.0461  0.6857 -0.2156
 7535TIP3   OH222545   2.724   0.888   4.088  0.2335 -0.0484  0.0140
 7535TIP3    H122546   2.727   0.941   4.168 -0.7485 -0.2110  0.1737
 7535TIP3    H222547   2.805   0.909   4.042 -0.3629  2.0113 -0.1896
 7536TIP3   OH222548   4.194   0.196   1.005 -0.0140 -0.6125 -0.0795
 7536TIP3    H122549   4.222   0.151   0.926 -0.2829 -2.1725  0.6671
 7536TIP3    H222550   4.275   0.215   1.052  0.1119 -0.1721 -0.4727
 7537TIP3   OH222551   6.926   3.358   4.133 -0.3822  0.2452 -0.0374
 7537TIP3    H122552   6.994   3.392   4.076 -0.9166  0.9312 -0.2756
 7537TIP3    H222553   6.877   3.296   4.079 -1.0522  1.0886 -0.4322
 7538TIP3   OH222554   2.117   1.374   5.886 -0.7050 -0.3184  0.3840
 7538TIP3    H122555   2.043   1.369   5.948  0.2114 -0.2274  1.5237
 7538TIP3    H222556   2.192   1.398   5.941  0.2981 -1.0250 -0.6414
 7539TIP3   OH222557   1.642   5.296   2.933  0.9082  0.7978  0.2137
 7539TIP3    H122558   1.582   5.251   2.872 -0.1550 -0.1071  1.8531
 7539TIP3    H222559   1.729   5.261   2.910  0.5073  0.3148 -0.6421
 7540TIP3   OH222560   2.118   6.182   4.250  0.4048 -0.1851 -0.1293
 7540TIP3    H122561   2.060   6.169   4.325 -0.3359  0.3449 -0.6017
 7540TIP3    H222562   2.159   6.096   4.236  1.9310  0.0995  1.9735
 7541TIP3   OH222563   2.717   7.323   2.816  0.2776 -0.1946 -0.2358
 7541TIP3    H122564   2.647   7.356   2.873 -0.3130 -1.8576  0.0658
 7541TIP3    H222565   2.798   7.350   2.859 -0.1714 -0.4537  0.8083
 7542TIP3   OH222566   7.964   3.254   6.792  0.3519 -0.4583 -0.0287
 7542TIP3    H122567   8.030   3.223   6.855  1.6848 -0.5369 -1.4054
 7542TIP3    H222568   8.002   3.335   6.756 -0.7248 -0.0201 -0.2059
 7543TIP3   OH222569   1.015   5.229   1.898 -0.5996 -0.2749 -0.1612
 7543TIP3    H122570   1.045   5.177   1.824  1.0589  0.6348 -0.1888
 7543TIP3    H222571   1.058   5.191   1.974 -0.6687  0.0523  0.0473
 7544TIP3   OH222572   7.523   4.175   6.533  0.2178 -0.2794 -0.5803
 7544TIP3    H122573   7.574   4.254   6.515  1.4667 -1.1982 -1.3188
 7544TIP3    H222574   7.437   4.206   6.558  1.6201  1.4521  2.5820
 7545TIP3   OH222575   2.588   0.979   6.052  0.1491 -0.2372 -0.0478
 7545TIP3    H122576   2.681   1.003   6.058  0.2383  0.0887 -2.1364
 7545TIP3    H222577   2.589   0.884   6.044  0.4515 -0.1085 -1.8691
 7546TIP3   OH222578   0.041   7.190   6.753  0.0906 -0.3247  0.4488
 7546TIP3    H122579   0.117   7.246   6.771  0.8023 -0.7914 -0.9488
 7546TIP3    H222580   0.036   7.132   6.829  0.5287  0.3525  1.0129
 7547TIP3   OH222581   8.064   5.265   6.228  0.5792 -0.4382  0.1704
 7547TIP3    H122582   8.029   5.181   6.199  0.6466 -0.0820 -0.9966
 7547TIP3    H222583   8.037   5.272   6.320 -1.3603 -0.7357 -0.3391
 7548TIP3   OH222584   1.173   1.756   1.219 -0.3589 -0.1919 -0.2912
 7548TIP3    H122585   1.123   1.834   1.244 -1.0807 -0.4867 -0.8111
 7548TIP3    H222586   1.240   1.788   1.159 -0.8083 -0.0126 -0.6926
 7549TIP3   OH222587   1.135   0.240   5.591  0.2046 -0.1146 -0.0138
 7549TIP3    H122588   1.122   0.146   5.606  0.8354 -0.4202 -1.3057
 7549TIP3    H222589   1.209   0.246   5.532  0.3433  1.2259  0.2489
 7550TIP3   OH222590   7.886   5.217   4.185 -0.7354  0.3448 -0.0019
 7550TIP3    H122591   7.863   5.150   4.121  1.4614 -0.4806  0.0139
 7550TIP3    H222592   7.910   5.293   4.132 -1.1609  0.4331 -0.0738
 7551TIP3   OH222593   7.906   3.206   2.614 -0.5175  0.1670  0.0134
 7551TIP3    H122594   7.984   3.158   2.644 -1.8686 -0.0874  3.5994
 7551TIP3    H222595   7.856   3.141   2.564 -0.0121 -0.6782  0.5794
 7552TIP3   OH222596   6.775   1.651   1.224 -0.2988 -0.0529 -0.0861
 7552TIP3    H122597   6.737   1.608   1.301 -0.2397 -0.2304 -0.1564
 7552TIP3    H222598   6.778   1.744   1.248  1.0405 -0.2577  0.6951
 7553TIP3   OH222599   0.689   7.305   3.621 -0.7405 -0.2545 -0.0533
 7553TIP3    H122600   0.753   7.257   3.568 -0.7372  0.4315 -0.6860
 7553TIP3    H222601   0.605   7.266   3.599 -0.6371 -0.5882  0.1380
 7554TIP3   OH222602   0.549   5.510   3.255 -0.0955 -0.7385 -0.3280
 7554TIP3    H122603   0.454   5.518   3.261 -0.1616 -0.6487 -1.3495
 7554TIP3    H222604   0.578   5.499   3.346 -1.2594 -2.7973 -0.1493
 7555TIP3   OH222605   7.807   2.393   2.815 -0.0240  0.7767  0.2555
 7555TIP3    H122606   7.797   2.320   2.753  1.8587 -0.2754  1.1035
 7555TIP3    H222607   7.732   2.385   2.874 -0.5053  0.2801 -0.4089
 7556TIP3   OH222608   7.079   3.340   2.893 -0.1090  0.3321 -0.1489
 7556TIP3    H122609   7.096   3.258   2.939 -1.3080  1.0935  1.7389
 7556TIP3    H222610   7.008   3.319   2.831 -1.5199  0.2551  1.4318
 7557TIP3   OH222611   2.418   1.871   6.499 -0.1718 -0.1524 -0.0983
 7557TIP3    H122612   2.445   1.802   6.559  0.8575  1.4065  1.3447
 7557TIP3    H222613   2.337   1.906   6.537  0.1890  0.4844  0.1031
 7558TIP3   OH222614   5.337   1.982   2.008  0.1210  0.3890  0.0942
 7558TIP3    H122615   5.408   2.008   2.066 -0.7557  0.1413  1.3086
 7558TIP3    H222616   5.260   1.974   2.065 -0.8384  0.4251 -1.1392
 7559TIP3   OH222617   0.544   5.130   6.390  0.0167  0.4665 -0.0886
 7559TIP3    H122618   0.472   5.066   6.394 -1.6670  2.2373 -0.3257
 7559TIP3    H222619   0.504   5.212   6.420  2.1710  1.3627  0.4855
 7560TIP3   OH222620   0.116   7.286   2.359 -0.4639 -0.4609  0.4692
 7560TIP3    H122621   0.055   7.254   2.292  0.5692 -1.0050 -0.2311
 7560TIP3    H222622   0.067   7.356   2.404 -0.9667  0.3620 -1.2597
 7561TIP3   OH222623   3.735   5.788   2.147 -0.0283 -0.8797  0.3192
 7561TIP3    H122624   3.705   5.786   2.056 -0.2851 -1.1167  0.4072
 7561TIP3    H222625   3.819   5.833   2.143  1.3148 -3.2689 -0.4507
 7562TIP3   OH222626   7.451   7.170   4.628  0.4759  0.2848 -0.4047
 7562TIP3    H122627   7.503   7.245   4.656  4.9659 -1.9940 -1.6423
 7562TIP3    H222628   7.478   7.099   4.685 -1.4737 -1.0780 -1.0605
 7563TIP3   OH222629   6.182   3.352   5.014  0.1020 -0.3867 -0.1958
 7563TIP3    H122630   6.198   3.270   5.060 -0.6843 -0.9486 -0.8966
 7563TIP3    H222631   6.087   3.365   5.019  0.2112  0.4474 -0.1503
 7564TIP3   OH222632  -0.016   2.267   0.400 -0.0779  0.0989  0.7939
 7564TIP3    H122633  -0.052   2.295   0.484  0.7803  1.7413  0.6349
 7564TIP3    H222634   0.078   2.263   0.414  0.0367 -0.0422  0.0188
 7565TIP3   OH222635   4.668   1.635   3.953  0.0166 -0.0843 -0.4140
 7565TIP3    H122636   4.681   1.612   3.861 -0.6783 -0.3039 -0.4662
 7565TIP3    H222637   4.727   1.576   4.001  1.3826  0.9469 -0.7749
 7566TIP3   OH222638   8.157   7.113   2.901  0.1939 -0.2874 -0.2799
 7566TIP3    H122639   8.214   7.188   2.919 -0.8740  0.3934  0.4151
 7566TIP3    H222640   8.085   7.123   2.964  0.3776 -2.2968  0.3218
 7567TIP3   OH222641   5.042   3.310   6.821 -0.2520  0.0634 -0.1256
 7567TIP3    H122642   5.136   3.292   6.816 -0.0184  0.7625  1.3707
 7567TIP3    H222643   5.002   3.238   6.771  1.0574 -0.2433 -0.7907
 7568TIP3   OH222644   3.558   5.560   5.512 -0.0655 -0.0903 -0.1675
 7568TIP3    H122645   3.519   5.496   5.453 -2.0887 -0.2959  1.2923
 7568TIP3    H222646   3.494   5.571   5.582  0.7885  2.5791  0.3290
 7569TIP3   OH222647   2.903   3.519   0.950  0.2313 -0.1546  0.3666
 7569TIP3    H122648   2.853   3.455   0.900 -1.4577  0.5149  1.1091
 7569TIP3    H222649   2.970   3.468   0.995 -0.4972 -1.2670  0.2280
 7570TIP3   OH222650   3.804   5.740   4.462  0.1072 -0.3549  0.3723
 7570TIP3    H122651   3.805   5.731   4.557  0.0174 -1.5364  0.2757
 7570TIP3    H222652   3.713   5.722   4.437  0.0973  0.0914  0.0713
 7571TIP3   OH222653   6.305   0.813   2.331 -0.0456 -0.2063  0.4154
 7571TIP3    H122654   6.259   0.787   2.251  0.9610 -0.3443 -0.1266
 7571TIP3    H222655   6.238   0.806   2.399 -0.6422 -1.1363 -0.2340
 7572TIP3   OH222656   2.918   5.779   2.876 -0.1712 -0.0183  0.2448
 7572TIP3    H122657   2.950   5.703   2.829 -0.7918 -0.9310  1.2491
 7572TIP3    H222658   2.995   5.835   2.887  1.4788 -2.5126  3.3313
 7573TIP3   OH222659   0.167   4.312   0.984  0.8298  0.3243 -0.8452
 7573TIP3    H122660   0.072   4.305   0.998  1.1459  0.8950  2.3087
 7573TIP3    H222661   0.191   4.229   0.943 -0.9268 -0.1527 -1.0039
 7574TIP3   OH222662   1.479   3.543   4.246 -0.0279  0.2083 -0.1012
 7574TIP3    H122663   1.526   3.582   4.173 -0.9938  2.9839  0.6065
 7574TIP3    H222664   1.388   3.536   4.215 -0.1251 -0.1755  0.2635
 7575TIP3   OH222665   2.182   4.510   1.997 -0.1785  0.4215  0.1769
 7575TIP3    H122666   2.215   4.574   1.935  0.7855 -0.9517 -0.7783
 7575TIP3    H222667   2.261   4.468   2.033 -0.7953 -0.7961  0.1532
 7576TIP3   OH222668   4.503   1.591   6.409  0.3031 -0.1612  0.6073
 7576TIP3    H122669   4.582   1.635   6.439 -0.1722  0.6211  0.7446
 7576TIP3    H222670   4.468   1.648   6.341 -0.1264 -0.5188  0.5225
 7577TIP3   OH222671   4.663   6.536   6.457  0.3408  0.0216  0.0358
 7577TIP3    H122672   4.653   6.553   6.551  1.1360  0.4481  0.0525
 7577TIP3    H222673   4.709   6.453   6.452 -2.7482 -1.8431 -0.0396
 7578TIP3   OH222674   1.952   3.642   2.378  0.0915 -0.2056 -0.3022
 7578TIP3    H122675   2.008   3.584   2.430 -1.2133 -1.7043 -0.5091
 7578TIP3    H222676   2.009   3.674   2.308  0.5960 -2.1324 -0.8323
 7579TIP3   OH222677   2.519   5.255   3.758  0.4315  0.6518  0.0415
 7579TIP3    H122678   2.504   5.198   3.833  1.9470  1.3761  0.9691
 7579TIP3    H222679   2.465   5.332   3.775  1.2972  1.1232  0.8125
 7580TIP3   OH222680   2.490   3.337   1.063  0.0681  0.3984  0.7364
 7580TIP3    H122681   2.428   3.300   0.999 -1.3209  2.6839  0.6419
 7580TIP3    H222682   2.507   3.265   1.124 -0.3383 -1.1803 -0.9081
 7581TIP3   OH222683   1.273   2.739   5.035 -0.6147 -0.1428 -0.7499
 7581TIP3    H122684   1.188   2.697   5.049 -0.7486  0.4318  0.2440
 7581TIP3    H222685   1.324   2.717   5.112  0.4763 -1.2347 -1.7472
 7582TIP3   OH222686   0.101   2.830   1.500  0.0409 -0.3056  0.1446
 7582TIP3    H122687   0.081   2.800   1.412 -0.2423  3.0900 -1.1189
 7582TIP3    H222688   0.188   2.870   1.493 -0.1806  0.4314  1.2751
 7583TIP3   OH222689   4.668   0.231   0.995  0.3914  0.0321 -0.1382
 7583TIP3    H122690   4.718   0.310   1.015 -0.6279  0.3830  1.2122
 7583TIP3    H222691   4.731   0.172   0.954  1.9931  0.3364  1.7474
 7584TIP3   OH222692   6.310   1.173   6.237  0.2222 -0.4280  0.0141
 7584TIP3    H122693   6.252   1.114   6.189  0.5367  0.2136 -1.1999
 7584TIP3    H222694   6.286   1.161   6.329 -1.3225 -0.7113 -0.3936
 7585TIP3   OH222695   8.120   0.666   3.120  0.0499  0.3569  0.0965
 7585TIP3    H122696   8.197   0.610   3.126  0.3582  0.8227  0.6424
 7585TIP3    H222697   8.048   0.612   3.151  0.0703 -0.2302 -0.8544
 7586TIP3   OH222698   6.895   6.623   3.695 -0.1463 -0.0480  0.2408
 7586TIP3    H122699   6.938   6.658   3.773  1.4711  0.6134 -0.9092
 7586TIP3    H222700   6.845   6.548   3.728  0.3225  0.3298  1.9395
 7587TIP3   OH222701   0.342   1.675   1.439  0.0004 -0.3152 -0.2191
 7587TIP3    H122702   0.405   1.735   1.399 -1.6635  2.1284  0.5829
 7587TIP3    H222703   0.383   1.648   1.521  0.7883 -0.3401 -0.6068
 7588TIP3   OH222704   7.403   3.149   1.608 -0.0862  0.1719  0.1588
 7588TIP3    H122705   7.409   3.063   1.567 -0.0588  0.9591 -1.6167
 7588TIP3    H222706   7.319   3.147   1.655  0.6853 -1.3533  1.5647
 7589TIP3   OH222707   3.880   7.706   3.598  0.1108 -0.0951  0.3057
 7589TIP3    H122708   3.920   7.647   3.535  0.4135 -0.2597  0.6447
 7589TIP3    H222709   3.912   7.793   3.573 -2.6774  0.3706 -2.0299
 7590TIP3   OH222710   6.133   0.801   6.427  0.2768  0.0422  0.0887
 7590TIP3    H122711   6.092   0.869   6.480  0.6841 -0.3832  0.9631
 7590TIP3    H222712   6.119   0.720   6.477 -1.3969 -0.7816 -1.5629
 7591TIP3   OH222713   3.433   0.733   3.706  0.0899 -0.0497  0.2646
 7591TIP3    H122714   3.350   0.779   3.719  0.1409  0.5299 -1.2557
 7591TIP3    H222715   3.468   0.721   3.794 -1.2482  0.3580  0.8752
 7592TIP3   OH222716   6.735   6.514   0.679 -0.2180  0.3645 -0.1341
 7592TIP3    H122717   6.756   6.603   0.704  0.9418 -0.1578  0.8475
 7592TIP3    H222718   6.664   6.488   0.738  0.8542 -0.0339  1.0375
 7593TIP3   OH222719   3.703   5.379   3.570 -0.1431  0.1995  0.4800
 7593TIP3    H122720   3.752   5.297   3.560 -1.2590 -0.6610  1.8242
 7593TIP3    H222721   3.769   5.442   3.602  0.8545  0.0365 -1.1195
 7594TIP3   OH222722   7.493   6.940   1.779  0.1897 -0.0359  0.1896
 7594TIP3    H122723   7.566   7.001   1.771  0.7260 -0.4355  1.7928
 7594TIP3    H222724   7.449   6.966   1.860  0.3479 -1.6991  0.8257
 7595TIP3   OH222725   3.522   1.614   0.773 -0.8265  0.2403  0.1450
 7595TIP3    H122726   3.570   1.620   0.855 -2.2697  1.9447  0.9248
 7595TIP3    H222727   3.506   1.705   0.747 -0.5744 -0.2562 -1.9390
 7596TIP3   OH222728   3.207   4.282   3.434  0.2959 -0.0367 -0.2725
 7596TIP3    H122729   3.120   4.254   3.465  0.7242 -0.6804  0.3959
 7596TIP3    H222730   3.249   4.319   3.511  0.4499  0.7086 -0.7082
 7597TIP3   OH222731   4.977   1.100   1.480  0.0225 -0.2890  0.0692
 7597TIP3    H122732   4.926   1.179   1.501 -1.0449 -1.0629  0.4893
 7597TIP3    H222733   5.057   1.108   1.532 -0.3639  0.2156  0.5959
 7598TIP3   OH222734   8.013   5.387   2.645  0.2896  0.4265  0.3877
 7598TIP3    H122735   7.929   5.367   2.602  0.3779  0.2731  0.2852
 7598TIP3    H222736   8.073   5.321   2.611  0.7115  1.1505 -0.3092
 7599TIP3   OH222737   0.698   3.737   6.484  0.6123  0.1637 -0.1421
 7599TIP3    H122738   0.738   3.786   6.412  0.2220 -0.0185 -0.4879
 7599TIP3    H222739   0.695   3.647   6.452  0.2231  0.1213  0.0046
 7600TIP3   OH222740   5.018   4.914   6.408 -0.8750 -0.6259 -0.0458
 7600TIP3    H122741   4.984   4.825   6.403 -2.3309 -0.1178  0.3788
 7600TIP3    H222742   4.942   4.968   6.429  0.2300  0.5401  1.2060
 7601TIP3   OH222743   1.464   1.370   0.312  0.0328 -0.2385 -0.3285
 7601TIP3    H122744   1.538   1.430   0.305  1.2997 -1.7225 -0.3598
 7601TIP3    H222745   1.487   1.312   0.385 -0.0400 -2.0638 -1.6684
 7602TIP3   OH222746   3.630   5.529   3.345  0.1405 -0.3475 -0.5721
 7602TIP3    H122747   3.619   5.483   3.428 -0.1167 -0.3046 -0.5817
 7602TIP3    H222748   3.701   5.591   3.360 -0.1123 -0.1230 -0.2918
 7603TIP3   OH222749   0.617   5.232   2.178 -0.0365 -0.0814 -0.3265
 7603TIP3    H122750   0.687   5.168   2.186  0.5729  0.6786  0.5703
 7603TIP3    H222751   0.593   5.230   2.085  1.7178  0.2225 -0.8169
 7604TIP3   OH222752   6.870   5.562   2.666  0.1997  0.0880 -0.4515
 7604TIP3    H122753   6.877   5.498   2.738 -0.8973  0.2327 -0.1922
 7604TIP3    H222754   6.919   5.523   2.594 -1.2332 -1.5334 -0.6127
 7605TIP3   OH222755   8.311   5.405   0.086 -0.2130  0.2153 -0.2798
 7605TIP3    H122756   8.391   5.423   0.038 -1.4198  1.2103 -2.0207
 7605TIP3    H222757   8.286   5.489   0.124  0.1880 -0.3526  1.3086
 7606TIP3   OH222758   4.120   2.590   0.423 -0.6234 -0.1264  0.0367
 7606TIP3    H122759   4.162   2.659   0.474  0.3165 -0.0644 -0.7969
 7606TIP3    H222760   4.038   2.572   0.470 -0.3858  0.8147  0.8414
 7607TIP3   OH222761   7.148   0.522   3.797 -0.2974  0.5360 -0.1468
 7607TIP3    H122762   7.169   0.597   3.742  1.1538  0.4979  0.3228
 7607TIP3    H222763   7.053   0.511   3.787  0.1138 -1.0373 -4.6594
 7608TIP3   OH222764   5.329   2.856   5.089 -0.0083 -0.1477 -0.2407
 7608TIP3    H122765   5.373   2.772   5.072  0.5884 -0.3837  2.1056
 7608TIP3    H222766   5.381   2.919   5.039 -0.1404 -1.0653 -1.6176
 7609TIP3   OH222767   7.525   1.459   0.958  0.5597 -0.0649  0.2640
 7609TIP3    H122768   7.612   1.433   0.927  0.6079 -0.0701  0.4039
 7609TIP3    H222769   7.497   1.526   0.895 -0.3053 -1.6577 -1.1226
 7610TIP3   OH222770   7.511   6.571   2.819 -0.4638  0.3173  0.0691
 7610TIP3    H122771   7.492   6.662   2.797 -1.7021 -0.1196 -0.8037
 7610TIP3    H222772   7.553   6.575   2.905 -0.7431  1.6894  0.1655
 7611TIP3   OH222773   4.273   6.044   1.695 -0.0032  0.1281 -0.1905
 7611TIP3    H122774   4.332   5.991   1.748  0.3062 -0.2006 -0.8463
 7611TIP3    H222775   4.189   6.039   1.740  0.3859  0.3289  0.5742
 7612TIP3   OH222776   2.838   0.349   2.519  0.0718 -0.0743 -0.2116
 7612TIP3    H122777   2.879   0.263   2.511  1.7677  0.6685 -0.0565
 7612TIP3    H222778   2.777   0.340   2.591  0.1199 -1.1890 -0.2985
 7613TIP3   OH222779   5.564   7.075   3.635  0.1296 -0.6412  0.7953
 7613TIP3    H122780   5.622   7.131   3.686  0.1384 -0.9986  1.1838
 7613TIP3    H222781   5.555   6.996   3.687  0.1756 -1.0337  0.2204
 7614TIP3   OH222782   2.672   5.517   4.827  0.4267 -0.4287 -0.2484
 7614TIP3    H122783   2.711   5.596   4.863  0.5903 -1.4907  2.0655
 7614TIP3    H222784   2.744   5.454   4.821  0.1530 -0.6597 -1.3413
 7615TIP3   OH222785   8.353   1.515   1.275 -0.2482 -0.2295  0.1217
 7615TIP3    H122786   8.404   1.595   1.262  0.5532 -1.0357 -2.3253
 7615TIP3    H222787   8.419   1.446   1.288 -0.8157 -0.8717 -0.3202
 7616TIP3   OH222788   1.491   7.336   6.734 -0.8461  0.2089 -0.3498
 7616TIP3    H122789   1.413   7.372   6.691 -0.0661  0.0857 -1.9808
 7616TIP3    H222790   1.552   7.410   6.736 -0.3593 -0.1776 -0.7886
 7617TIP3   OH222791   7.560   6.541   1.955  0.4876  0.2047  0.5767
 7617TIP3    H122792   7.540   6.634   1.964  2.7922  1.2734 -3.0391
 7617TIP3    H222793   7.494   6.509   1.893  1.2334  0.1138 -0.1822
 7618TIP3   OH222794   7.665   3.099   0.510 -0.4616 -0.0641  0.1683
 7618TIP3    H122795   7.585   3.148   0.492 -1.5009 -0.5409  2.9859
 7618TIP3    H222796   7.736   3.160   0.489 -1.6455  1.5176  0.5764
 7619TIP3   OH222797   6.690   1.927   0.625 -0.5410  0.0674 -0.4362
 7619TIP3    H122798   6.785   1.917   0.619 -0.6483 -0.2086 -2.0562
 7619TIP3    H222799   6.678   2.005   0.680  0.5946 -0.1092  0.1118
 7620TIP3   OH222800   6.036   4.169   2.773  0.1656 -0.1252 -0.0376
 7620TIP3    H122801   5.977   4.156   2.698  0.9557 -1.4634 -0.4761
 7620TIP3    H222802   6.041   4.264   2.784 -0.3055  0.0900 -1.4296
 7621TIP3   OH222803   0.562   1.982   5.582  0.1190 -0.0190  0.3764
 7621TIP3    H122804   0.646   2.011   5.618 -0.4680 -1.6756  3.3931
 7621TIP3    H222805   0.504   2.058   5.592  0.5937  0.2960  0.7535
 7622TIP3   OH222806   4.699   6.614   2.102  0.8001 -0.2686  0.2154
 7622TIP3    H122807   4.712   6.530   2.057  1.6968  0.0870 -0.2200
 7622TIP3    H222808   4.716   6.594   2.194 -0.1197 -0.8018  0.2838
 7623TIP3   OH222809   2.934   1.492   3.981 -0.7771 -0.2328 -0.2149
 7623TIP3    H122810   2.978   1.407   3.983  0.7104  0.5058  0.5462
 7623TIP3    H222811   2.981   1.542   3.914  0.6170  1.0538  1.5857
 7624TIP3   OH222812   2.272   4.375   5.482  0.1463 -0.4389  0.1144
 7624TIP3    H122813   2.227   4.412   5.406 -1.1034 -1.3887  0.3413
 7624TIP3    H222814   2.326   4.447   5.516 -0.2963  0.3933 -0.8909
 7625TIP3   OH222815   4.829   0.799   1.245  0.1770  0.3869  0.1280
 7625TIP3    H122816   4.828   0.728   1.309  0.6596  0.4485  0.2084
 7625TIP3    H222817   4.743   0.795   1.203  0.6173 -1.0039 -0.7071
 7626TIP3   OH222818   0.288   3.242   6.293  0.3407 -0.2042  0.0289
 7626TIP3    H122819   0.238   3.202   6.364 -2.3834  1.6586 -0.6943
 7626TIP3    H222820   0.378   3.211   6.307 -0.9280 -3.7340  1.4295
 7627TIP3   OH222821   6.822   2.739   6.277 -0.2141  0.1769 -0.7721
 7627TIP3    H122822   6.832   2.833   6.262  3.0845 -0.0895 -1.1153
 7627TIP3    H222823   6.800   2.703   6.190 -0.1282  0.5092 -0.9335
 7628TIP3   OH222824   4.303   7.672   3.604  0.0739 -0.6150 -0.1882
 7628TIP3    H122825   4.225   7.620   3.620 -0.0675 -0.2254  0.4559
 7628TIP3    H222826   4.285   7.756   3.647  0.7753 -0.4613 -0.1786
 7629TIP3   OH222827   2.319   0.953   2.962 -0.9408  0.2243 -0.1880
 7629TIP3    H122828   2.294   1.044   2.978 -2.4472  0.2050 -2.0898
 7629TIP3    H222829   2.236   0.907   2.950 -0.2612 -1.6272  1.5885
 7630TIP3   OH222830   1.898   3.001   5.097  0.2855 -0.2307  0.3382
 7630TIP3    H122831   1.984   3.025   5.064  0.9107 -2.6812  0.0105
 7630TIP3    H222832   1.912   2.977   5.189 -0.5408  1.7020  1.0221
 7631TIP3   OH222833   8.003   6.865   3.115 -0.1383 -0.4965  0.0447
 7631TIP3    H122834   8.093   6.883   3.143 -0.0895 -0.6493 -0.0095
 7631TIP3    H222835   7.960   6.950   3.116  0.0091 -0.4209  0.0648
 7632TIP3   OH222836   6.066   7.037   3.732 -0.2345 -0.3622  0.4170
 7632TIP3    H122837   6.099   6.971   3.671  0.4183 -0.3445  0.7448
 7632TIP3    H222838   6.144   7.075   3.772 -0.6523 -0.3259  1.2212
 7633TIP3   OH222839   1.766   0.360   2.944 -0.0334 -0.3068 -0.2639
 7633TIP3    H122840   1.847   0.310   2.936 -1.1987 -2.6685  1.3969
 7633TIP3    H222841   1.792   0.440   2.990  1.1430 -1.8727  1.9938
 7634TIP3   OH222842   5.452   0.839   0.380  0.1612 -0.3037 -0.0966
 7634TIP3    H122843   5.546   0.848   0.362  0.4938 -0.2989  1.4954
 7634TIP3    H222844   5.448   0.809   0.470 -1.4085  1.8063  0.6142
 7635TIP3   OH222845   7.404   7.656   5.004  0.7857  0.2716  0.6578
 7635TIP3    H122846   7.381   7.745   5.031 -0.5679 -0.1162  0.8500
 7635TIP3    H222847   7.442   7.617   5.082  1.0183  0.5561  0.6895
 7636TIP3   OH222848   4.009   0.362   6.046 -0.0708  0.5393 -0.0647
 7636TIP3    H122849   4.059   0.444   6.044 -0.1895  0.6242 -2.2336
 7636TIP3    H222850   3.921   0.387   6.019 -0.3390 -0.1744  0.1387
 7637TIP3   OH222851   0.431   6.080   2.650  0.1858 -0.2404 -0.0075
 7637TIP3    H122852   0.477   6.164   2.646  1.3702 -0.8461  0.3975
 7637TIP3    H222853   0.342   6.103   2.675  0.2708  0.9699 -0.7370
 7638TIP3   OH222854   7.170   0.438   5.880 -1.0911  0.1122 -0.4077
 7638TIP3    H122855   7.217   0.451   5.962 -2.4033 -1.1890  0.6097
 7638TIP3    H222856   7.213   0.497   5.818  0.4347  0.5580  0.9990
 7639TIP3   OH222857   4.204   5.006   5.996 -0.1527 -0.0693  0.5016
 7639TIP3    H122858   4.275   5.069   5.993 -2.2599  2.4413 -1.2265
 7639TIP3    H222859   4.219   4.948   5.922  0.5795 -0.1816  0.7317
 7640TIP3   OH222860   8.114   0.127   4.423 -0.0248 -0.5135  0.3529
 7640TIP3    H122861   8.042   0.065   4.417 -0.3666 -0.1094  0.1717
 7640TIP3    H222862   8.078   0.200   4.474  0.1263 -0.1332 -0.0825
 7641TIP3   OH222863   8.161   1.780   4.813  0.4453 -0.1706  0.1300
 7641TIP3    H122864   8.247   1.820   4.802  0.2953 -0.0382 -0.6097
 7641TIP3    H222865   8.162   1.745   4.902  0.8180  0.9002  0.5522
 7642TIP3   OH222866   4.076   4.631   3.532  0.2994 -0.0772 -0.0975
 7642TIP3    H122867   4.138   4.704   3.537 -1.3168  1.2780  2.2557
 7642TIP3    H222868   4.118   4.560   3.581  0.9900  0.0057 -0.5614
 7643TIP3   OH222869   4.225   6.270   1.552 -0.0371  0.5047 -0.3865
 7643TIP3    H122870   4.189   6.244   1.467 -0.7036  0.2861 -0.0448
 7643TIP3    H222871   4.230   6.188   1.602 -0.5579  0.7724  0.1144
 7644TIP3   OH222872   5.283   6.164   0.429  0.1238  0.1989 -0.2292
 7644TIP3    H122873   5.328   6.106   0.490  0.9753 -0.8095 -1.7636
 7644TIP3    H222874   5.312   6.136   0.343 -1.7635  0.9726 -1.1749
 7645TIP3   OH222875   6.293   1.430   6.580  0.2026  0.6853 -0.2761
 7645TIP3    H122876   6.302   1.526   6.578  0.9565  0.6543  0.5836
 7645TIP3    H222877   6.380   1.398   6.553  0.1746  0.2548  0.1363
 7646TIP3   OH222878   1.622   4.323   3.535  0.2317 -0.1053  0.3415
 7646TIP3    H122879   1.610   4.402   3.482 -2.5458 -1.3947 -1.2193
 7646TIP3    H222880   1.614   4.353   3.625 -0.7574  1.4140 -0.2081
 7647TIP3   OH222881   8.156   2.549   1.370 -0.6302  0.3743  0.4220
 7647TIP3    H122882   8.233   2.566   1.317 -0.2637 -1.8364  0.1350
 7647TIP3    H222883   8.094   2.618   1.346  0.6326  1.2011 -0.5918
 7648TIP3   OH222884   6.168   3.189   6.219 -0.1600 -0.1189  0.3509
 7648TIP3    H122885   6.122   3.273   6.223 -2.5260 -1.3364  0.7904
 7648TIP3    H222886   6.241   3.198   6.279 -0.6411  1.4943  0.7334
 7649TIP3   OH222887   3.349   3.523   0.072 -0.5341  1.0003  0.1276
 7649TIP3    H122888   3.401   3.457   0.026 -1.1335  1.0316 -0.6353
 7649TIP3    H222889   3.259   3.507   0.042 -0.7030  2.0975 -0.0010
 7650TIP3   OH222890   1.703   2.162   5.112 -0.1116  0.3233  0.2708
 7650TIP3    H122891   1.791   2.127   5.130 -0.0502  0.8567  1.0814
 7650TIP3    H222892   1.654   2.143   5.192 -0.5944  0.4670  0.0076
 7651TIP3   OH222893   7.903   1.869   3.114 -0.2483 -0.2146  0.3634
 7651TIP3    H122894   7.884   1.776   3.127 -0.4962  0.0701  2.2720
 7651TIP3    H222895   7.881   1.910   3.197  0.5139  1.4620 -0.2197
 7652TIP3   OH222896   6.984   2.896   4.757 -0.6582  0.3793 -0.2618
 7652TIP3    H122897   7.001   2.969   4.698  1.1807  0.4538  0.2933
 7652TIP3    H222898   6.965   2.822   4.698  0.8260  0.5281 -0.9891
 7653TIP3   OH222899   8.063   6.003   6.101  0.5959 -0.4452 -0.3499
 7653TIP3    H122900   8.153   6.034   6.114  0.3418 -0.9923  4.8246
 7653TIP3    H222901   8.072   5.912   6.075  1.8508 -1.5093  3.1782
 7654TIP3   OH222902   6.125   2.810   4.727  0.0330  0.6459  0.3313
 7654TIP3    H122903   6.151   2.753   4.799 -0.3786  1.0768  0.8301
 7654TIP3    H222904   6.030   2.821   4.738  0.0671  1.2246  0.0971
 7655TIP3   OH222905   6.932   3.240   1.240 -0.3852  0.1642  0.6894
 7655TIP3    H122906   6.901   3.170   1.182 -0.4754  1.7307 -1.2397
 7655TIP3    H222907   6.860   3.302   1.243  0.4447  1.1386  0.7656
 7656TIP3   OH222908   0.341   5.151   1.611  0.3742 -0.5075  0.6095
 7656TIP3    H122909   0.254   5.189   1.604 -0.4772 -2.4839 -0.1875
 7656TIP3    H222910   0.397   5.224   1.637 -1.6393  0.6318  1.9998
 7657TIP3   OH222911   3.213   0.805   5.141  0.0927  0.2960  0.2345
 7657TIP3    H122912   3.260   0.875   5.185 -0.2656  0.1612  0.8433
 7657TIP3    H222913   3.253   0.725   5.175  2.2274  0.1413 -2.2862
 7658TIP3   OH222914   4.422   4.313   5.461  0.0636 -0.2502 -0.0978
 7658TIP3    H122915   4.399   4.364   5.383  2.5127  1.8691  0.4402
 7658TIP3    H222916   4.442   4.225   5.428 -1.9433 -0.2974 -1.3697
 7659TIP3   OH222917   8.007   3.227   2.350 -0.0620 -0.7267  0.2816
 7659TIP3    H122918   8.029   3.220   2.443  2.5657 -0.7341 -0.2555
 7659TIP3    H222919   7.930   3.284   2.347  0.2480 -0.1183  2.4128
 7660TIP3   OH222920   4.599   7.816   1.277 -0.5582 -0.3525  0.0067
 7660TIP3    H122921   4.647   7.739   1.309 -3.2657 -1.6411  1.2571
 7660TIP3    H222922   4.601   7.807   1.182  0.6103 -1.0207  0.0749
 7661TIP3   OH222923   7.054   2.969   1.384  0.4084 -0.8456 -0.1332
 7661TIP3    H122924   7.111   3.042   1.361 -1.0152 -0.3232 -2.3117
 7661TIP3    H222925   6.978   3.010   1.425  0.5254 -1.3351  0.6041
 7662TIP3   OH222926   2.111   0.576   6.461  0.4433  0.6930 -0.2473
 7662TIP3    H122927   2.159   0.594   6.542  0.1323  0.6053 -0.0408
 7662TIP3    H222928   2.092   0.482   6.465  1.2694  0.4851 -0.8899
 7663TIP3   OH222929   6.021   3.882   3.012  0.1977 -0.1934 -0.3215
 7663TIP3    H122930   5.962   3.826   2.962  0.2594 -0.6873  0.1424
 7663TIP3    H222931   6.047   3.828   3.087  1.5868 -0.1465 -0.7490
 7664TIP3   OH222932   7.898   6.921   4.071  0.0344  0.0907  0.4788
 7664TIP3    H122933   7.947   6.894   4.148  0.1408  1.0888  0.7802
 7664TIP3    H222934   7.815   6.953   4.105 -0.6153 -1.0449  0.0192
 7665TIP3   OH222935   6.203   1.248   1.970  0.0828  0.0328 -0.1290
 7665TIP3    H122936   6.222   1.288   2.055 -2.6466 -0.3413  0.7818
 7665TIP3    H222937   6.113   1.275   1.952  0.6090  0.1298 -2.9760
 7666TIP3   OH222938   5.226   2.243   4.398  0.0093  0.3450  0.5828
 7666TIP3    H122939   5.145   2.254   4.347  0.0670  1.4498  0.7031
 7666TIP3    H222940   5.296   2.251   4.333  0.0340 -0.6426  0.4737
 7667TIP3   OH222941   4.439   7.524   1.680  0.1138 -0.3386  0.0339
 7667TIP3    H122942   4.360   7.533   1.626 -0.3711  0.3757  0.8521
 7667TIP3    H222943   4.505   7.490   1.619 -0.4725  0.2652 -0.9718
 7668TIP3   OH222944   5.015   5.930   0.335  0.2188  0.8144 -0.3140
 7668TIP3    H122945   5.020   6.014   0.382 -0.6291 -0.1429  1.6141
 7668TIP3    H222946   4.935   5.938   0.282 -1.2351  0.4012  1.7117
 7669TIP3   OH222947   8.290   5.695   0.153 -0.1412  0.3608  0.0118
 7669TIP3    H122948   8.359   5.744   0.199  0.9701 -0.1208 -1.0874
 7669TIP3    H222949   8.217   5.756   0.148 -0.7857  0.0923  3.3917
 7670TIP3   OH222950   7.821   4.996   3.262 -0.1981 -0.4629 -0.2938
 7670TIP3    H122951   7.862   4.917   3.228  0.0115  0.0969 -1.3758
 7670TIP3    H222952   7.734   4.967   3.291  1.2165 -1.9053  3.1046
 7671TIP3   OH222953   5.996   5.101   6.523  0.0403  0.4103 -0.0137
 7671TIP3    H122954   5.959   5.171   6.469  0.1759  0.5527  0.0781
 7671TIP3    H222955   6.091   5.115   6.519  0.0173  1.0644  1.1046
 7672TIP3   OH222956   0.970   7.627   4.075  0.5983  0.0624 -0.4264
 7672TIP3    H122957   0.949   7.654   3.985 -1.1841 -0.5833 -0.2573
 7672TIP3    H222958   0.888   7.638   4.122  1.8202  1.6102  1.4783
 7673TIP3   OH222959   3.904   3.875   0.906 -0.1513 -0.6072 -0.0920
 7673TIP3    H122960   3.927   3.788   0.940  0.2678  0.1845  1.7865
 7673TIP3    H222961   3.968   3.890   0.836 -0.3887 -1.8946 -0.6159
 7674TIP3   OH222962   3.657   0.465   4.900  0.4372 -0.2403 -0.0685
 7674TIP3    H122963   3.706   0.384   4.889  0.4096 -0.2671  0.0026
 7674TIP3    H222964   3.699   0.509   4.974  0.5585 -0.1100 -0.2157
 7675TIP3   OH222965   0.041   5.067   3.111 -0.0530 -0.1370 -0.0981
 7675TIP3    H122966   0.011   5.142   3.162  0.9711  0.6489 -0.6331
 7675TIP3    H222967   0.101   5.021   3.171  0.6865  0.4594 -0.3575
 7676TIP3   OH222968   4.034   0.388   5.299 -0.1921  0.3474 -0.5061
 7676TIP3    H122969   4.007   0.337   5.375  2.0272  0.1511  0.2233
 7676TIP3    H222970   4.012   0.479   5.322 -1.9714  0.0224 -0.8054
 7677TIP3   OH222971   0.955   6.692   1.372  0.5146  0.2371  0.3799
 7677TIP3    H122972   0.967   6.601   1.400  1.1400  0.5530  1.1839
 7677TIP3    H222973   0.969   6.743   1.451  0.6985  1.0652 -0.1766
 7678TIP3   OH222974   4.285   6.595   4.427 -0.4262  0.2167 -0.0127
 7678TIP3    H122975   4.280   6.689   4.444 -0.5842  0.3969 -1.0148
 7678TIP3    H222976   4.199   6.562   4.451 -0.2757  0.2718  0.6276
 7679TIP3   OH222977   4.748   7.312   4.466 -0.1095  0.1510  0.5501
 7679TIP3    H122978   4.713   7.234   4.424 -0.6247  1.1476 -0.9768
 7679TIP3    H222979   4.830   7.329   4.420 -1.5452  2.2868 -1.4835
 7680TIP3   OH222980   5.892   3.659   1.381 -0.0348  0.2314  0.2198
 7680TIP3    H122981   5.878   3.710   1.460 -0.7991  0.6456 -0.1684
 7680TIP3    H222982   5.983   3.674   1.358  0.5477 -0.8380  1.6638
 7681TIP3   OH222983   0.444   6.931   3.233 -0.3875  0.0329  0.1732
 7681TIP3    H122984   0.533   6.929   3.268 -0.0317 -0.4538 -0.7320
 7681TIP3    H222985   0.455   6.931   3.138 -1.3528 -0.1438  0.0461
 7682TIP3   OH222986   5.552   7.495   3.233  0.7522  0.0135  0.1474
 7682TIP3    H122987   5.490   7.477   3.304  1.6337  0.8642  1.1643
 7682TIP3    H222988   5.499   7.489   3.153 -0.2481 -1.0375  0.8560
 7683TIP3   OH222989   1.361   5.798   6.860 -0.2527 -0.0077  0.2028
 7683TIP3    H122990   1.299   5.870   6.852  0.1983  0.3224 -0.4167
 7683TIP3    H222991   1.380   5.773   6.769 -1.5422 -1.9083  0.3891
 7684TIP3   OH222992   2.242   4.914   3.784  0.1416  0.9016  0.3150
 7684TIP3    H122993   2.178   4.884   3.848  1.0256  0.8311  1.1800
 7684TIP3    H222994   2.309   4.846   3.783  0.4012  1.1550 -0.3140
 7685TIP3   OH222995   0.721   3.058   2.915 -0.0933 -0.0299 -0.2247
 7685TIP3    H122996   0.726   3.153   2.901 -0.4502 -0.0084 -0.2313
 7685TIP3    H222997   0.767   3.044   2.997 -0.3232  0.1945 -0.0546
 7686TIP3   OH222998   4.278   2.334   4.509  0.3597  0.1535  0.3441
 7686TIP3    H122999   4.324   2.296   4.434 -2.6471 -0.5062 -1.3344
 7686TIP3    H223000   4.246   2.258   4.558 -1.0432  0.5174  0.0380
 7687TIP3   OH223001   8.234   2.381   1.553  0.1799 -0.0542  0.5980
 7687TIP3    H123002   8.307   2.412   1.607  1.3704 -2.4346  0.4761
 7687TIP3    H223003   8.221   2.450   1.488  2.6761  0.2384  0.3123
 7688TIP3   OH223004   6.578   2.486   5.887  0.3723  0.1485  0.4146
 7688TIP3    H123005   6.522   2.412   5.864 -1.0302  1.0199  0.8795
 7688TIP3    H223006   6.572   2.546   5.813 -1.5203  1.4546  1.5191
 7689TIP3   OH223007   6.612   5.867   3.321  0.2493 -0.8216  0.4510
 7689TIP3    H123008   6.569   5.887   3.238  0.1529 -0.4343  0.5921
 7689TIP3    H223009   6.655   5.949   3.346  0.4411 -0.9924  0.6851
 7690TIP3   OH223010   3.165   4.829   1.644  0.1422 -0.0325 -0.0303
 7690TIP3    H123011   3.236   4.844   1.707 -1.1635 -0.2545  1.5947
 7690TIP3    H223012   3.109   4.906   1.654 -0.8515 -0.7649  0.2022
 7691TIP3   OH223013   2.209   2.517   2.977 -0.3663 -0.2043 -0.5435
 7691TIP3    H123014   2.263   2.461   3.034 -1.3024 -0.0904  0.4867
 7691TIP3    H223015   2.260   2.597   2.969 -0.2752 -0.1628  0.2831
 7692TIP3   OH223016   4.737   0.672   0.401  0.1237 -0.0541 -0.2263
 7692TIP3    H123017   4.756   0.582   0.427 -0.1543  0.0371  0.3105
 7692TIP3    H223018   4.643   0.681   0.412 -0.0253 -0.0461 -1.4091
 7693TIP3   OH223019   7.907   1.501   0.625 -0.4620  0.0003  0.4086
 7693TIP3    H123020   7.994   1.539   0.634 -0.1137 -0.7758  0.4176
 7693TIP3    H223021   7.919   1.429   0.563 -1.0695 -0.1993  0.5162
 7694TIP3   OH223022   5.021   4.590   1.810 -0.4514 -0.6187 -0.1719
 7694TIP3    H123023   4.998   4.522   1.747 -0.1469  1.5863 -2.8650
 7694TIP3    H223024   5.116   4.582   1.821 -0.6350 -1.6321  0.8649
 7695TIP3   OH223025   5.879   3.465   2.728 -0.3235  0.2177 -0.2860
 7695TIP3    H123026   5.933   3.410   2.786 -0.9994 -0.7794 -0.5711
 7695TIP3    H223027   5.804   3.410   2.706 -0.8072  1.1140 -0.9446
 7696TIP3   OH223028   7.034   6.811   1.108  0.3955 -0.2897 -0.1313
 7696TIP3    H123029   6.990   6.726   1.101 -0.9223  0.3504  0.0932
 7696TIP3    H223030   7.124   6.789   1.132  0.6767 -1.7281 -2.2393
 7697TIP3   OH223031   1.274   1.890   2.774  0.7937  0.3999  0.0537
 7697TIP3    H123032   1.202   1.857   2.720  1.8980  0.1431 -1.3449
 7697TIP3    H223033   1.275   1.834   2.851  0.5059 -0.6474 -0.6791
 7698TIP3   OH223034   4.263   4.070   0.948 -0.0577 -0.0483 -0.1780
 7698TIP3    H123035   4.295   4.160   0.945  2.0344 -0.7473 -0.4568
 7698TIP3    H223036   4.326   4.024   1.004 -1.9825 -1.0387  1.2999
 7699TIP3   OH223037   4.361   4.782   4.080  0.5014  0.0499 -0.1082
 7699TIP3    H123038   4.419   4.858   4.069  0.5444 -0.0171 -0.3673
 7699TIP3    H223039   4.295   4.810   4.143 -1.4658  1.4835 -2.6036
 7700TIP3   OH223040   4.461   3.386   1.056  0.0048  0.9013 -0.2645
 7700TIP3    H123041   4.542   3.369   1.105 -0.1521  1.1493  0.0840
 7700TIP3    H223042   4.446   3.480   1.067 -1.4551  0.5167  1.4195
 7701TIP3   OH223043   7.072   1.316   6.333  0.4856  0.0637  0.0932
 7701TIP3    H123044   7.002   1.254   6.310  2.1879 -1.0959 -2.4685
 7701TIP3    H223045   7.043   1.399   6.297 -0.0771 -0.1449  0.0557
 7702TIP3   OH223046   6.964   0.537   4.475  0.1301 -0.1644  0.6120
 7702TIP3    H123047   6.954   0.442   4.480  0.3880 -0.2734 -0.5203
 7702TIP3    H223048   6.957   0.557   4.381  1.6351  0.7398  0.6491
 7703TIP3   OH223049   6.484   2.796   6.392  0.1373 -0.0904 -0.2022
 7703TIP3    H123050   6.566   2.837   6.421  0.1953 -1.0123  1.0227
 7703TIP3    H223051   6.415   2.845   6.437  0.1029 -0.1313 -0.2098
 7704TIP3   OH223052   1.191   6.456   0.956  0.2382  0.2074 -0.4610
 7704TIP3    H123053   1.171   6.514   1.029 -0.3351 -1.8828  1.1436
 7704TIP3    H223054   1.256   6.395   0.990 -0.4657 -1.1793 -1.4752
 7705TIP3   OH223055   7.019   3.679   0.587  0.1247 -0.0236 -0.7101
 7705TIP3    H123056   7.073   3.720   0.518  0.6626 -0.4310 -0.5376
 7705TIP3    H223057   7.075   3.680   0.664 -0.5742  0.6793 -0.1925
 7706TIP3   OH223058   3.096   2.266   3.503 -0.0044 -0.2564 -0.1815
 7706TIP3    H123059   3.162   2.323   3.542 -0.1061  0.5725 -1.1644
 7706TIP3    H223060   3.142   2.219   3.433  0.3515 -2.2574  1.3250
 7707TIP3   OH223061   7.699   2.370   5.395  0.0337  0.1696 -0.2869
 7707TIP3    H123062   7.687   2.323   5.477 -2.6457  0.5344 -0.3607
 7707TIP3    H223063   7.723   2.459   5.421  0.3250 -0.0034  0.0428
 7708TIP3   OH223064   4.599   6.146   3.395  0.1447 -0.1731 -0.4129
 7708TIP3    H123065   4.515   6.191   3.399  0.5800  0.5631  1.0113
 7708TIP3    H223066   4.657   6.207   3.348  0.4892  0.3976  0.7077
 7709TIP3   OH223067   4.053   5.304   4.561  0.3574  0.2474 -0.1572
 7709TIP3    H123068   4.045   5.309   4.466  1.1663  0.8172 -0.2009
 7709TIP3    H223069   3.962   5.310   4.592 -0.0795 -1.6006 -0.9324
 7710TIP3   OH223070   6.348   6.618   3.142  0.4239 -0.5882  0.0739
 7710TIP3    H123071   6.326   6.610   3.049  0.8378 -1.5344  0.0414
 7710TIP3    H223072   6.442   6.636   3.142  0.9375 -2.8799  0.3201
 7711TIP3   OH223073   5.371   3.884   2.248 -0.4211 -0.5466 -0.6075
 7711TIP3    H123074   5.314   3.914   2.319 -0.8282  0.4773 -1.3391
 7711TIP3    H223075   5.321   3.903   2.168  1.2121  1.0458 -1.3092
 7712TIP3   OH223076   2.655   6.248   6.305 -0.2913 -0.2473  0.1771
 7712TIP3    H123077   2.630   6.190   6.376 -1.4008 -1.5720 -1.2231
 7712TIP3    H223078   2.677   6.190   6.232 -0.8297  1.0500 -1.0787
 7713TIP3   OH223079   3.775   7.517   1.123 -0.2756 -0.1135  0.0515
 7713TIP3    H123080   3.792   7.478   1.209 -2.0549  0.8804  0.9089
 7713TIP3    H223081   3.845   7.581   1.111 -0.0323 -0.2318  0.7820
 7714TIP3   OH223082   8.257   1.542   0.439 -0.1382 -0.3490  0.0327
 7714TIP3    H123083   8.235   1.541   0.532 -2.0981 -1.0636 -0.3963
 7714TIP3    H223084   8.264   1.635   0.417  0.4570 -0.1756  0.9033
 7715TIP3   OH223085   0.221   6.516   2.571  0.2749  0.1868  0.1911
 7715TIP3    H123086   0.206   6.438   2.626 -0.6047 -1.0786 -1.7247
 7715TIP3    H223087   0.288   6.488   2.509 -1.3850  0.2334 -1.7343
 7716TIP3   OH223088   3.727   7.867   3.910 -0.5415 -0.0862  0.2660
 7716TIP3    H123089   3.675   7.925   3.855 -0.3013 -0.5597 -0.4713
 7716TIP3    H223090   3.722   7.782   3.867  0.3652 -0.2701  0.4952
 7717TIP3   OH223091   7.373   6.843   6.870 -0.3869  0.2629  0.0783
 7717TIP3    H123092   7.314   6.776   6.906 -0.7675  0.5437 -0.0250
 7717TIP3    H223093   7.361   6.836   6.775 -0.9560  0.9538  0.0930
 7718TIP3   OH223094   7.042   0.039   4.404 -0.2072  0.1632 -0.4726
 7718TIP3    H123095   6.954   0.021   4.371 -0.7468 -0.7005  1.3002
 7718TIP3    H223096   7.081  -0.048   4.416  0.7261  0.5242 -0.8182
 7719TIP3   OH223097   4.230   6.841   3.612 -0.1703 -0.3570  0.6017
 7719TIP3    H123098   4.154   6.880   3.570 -0.4039  0.8529  2.0408
 7719TIP3    H223099   4.303   6.858   3.552  0.0497  3.7398  1.6945
 7720TIP3   OH223100   8.242   0.535   1.630  0.3535 -0.6535 -0.4834
 7720TIP3    H123101   8.213   0.444   1.625 -0.1720 -0.4502 -1.4864
 7720TIP3    H223102   8.304   0.545   1.559 -0.2710 -0.0041 -0.9591
 7721TIP3   OH223103   1.842   7.002   3.595 -0.2372 -0.7478 -0.4675
 7721TIP3    H123104   1.751   7.027   3.608  0.1890 -0.3571  2.5593
 7721TIP3    H223105   1.885   7.082   3.564 -0.3968  0.0228  1.1919
 7722TIP3   OH223106   7.171   0.121   4.806  0.3450  0.1799 -0.1461
 7722TIP3    H123107   7.257   0.161   4.792  1.4142 -1.7640  0.5514
 7722TIP3    H223108   7.185   0.028   4.788 -0.9792 -0.5956  2.4505
 7723TIP3   OH223109   5.439   4.222   2.640 -0.0381 -0.0973 -0.0603
 7723TIP3    H123110   5.504   4.212   2.710 -0.1807  1.3152  0.3122
 7723TIP3    H223111   5.451   4.312   2.609 -1.0558 -0.1843 -0.7585
 7724TIP3   OH223112   7.516   5.810   1.818 -0.3447 -0.2906  0.0411
 7724TIP3    H123113   7.495   5.729   1.864 -2.7932  0.5131  0.4972
 7724TIP3    H223114   7.469   5.804   1.735  0.1573  0.3039 -0.2975
 7725TIP3   OH223115   4.744   5.717   0.368 -0.3405 -0.2546 -0.0032
 7725TIP3    H123116   4.816   5.682   0.421  0.4480 -1.6847 -1.9293
 7725TIP3    H223117   4.780   5.795   0.326 -0.1815 -0.5144 -0.3463
 7726TIP3   OH223118   0.308   3.138   1.209 -0.1814  0.2803  0.0478
 7726TIP3    H123119   0.303   3.212   1.149  0.0439  1.5298  1.5056
 7726TIP3    H223120   0.368   3.167   1.278 -1.0270 -0.7814  1.2824
 7727TIP3   OH223121   1.358   1.887   4.156  0.6192  0.1379 -0.1169
 7727TIP3    H123122   1.355   1.864   4.249 -0.8659 -1.7459 -0.5781
 7727TIP3    H223123   1.267   1.891   4.129  1.0453 -0.9274 -1.8428
 7728TIP3   OH223124   5.095   1.059   3.940  0.9038  0.0032  0.2894
 7728TIP3    H123125   5.115   1.006   4.017  0.0612  0.2652  0.6990
 7728TIP3    H223126   5.158   1.030   3.874  1.0273 -0.8825  0.7801
 7729TIP3   OH223127   5.420   4.653   3.095  0.0350 -0.2598  0.1537
 7729TIP3    H123128   5.384   4.739   3.073 -2.5344 -1.4896 -0.8022
 7729TIP3    H223129   5.496   4.644   3.036 -2.5530 -0.5601 -3.4574
 7730TIP3   OH223130   0.519   5.458   5.989  0.2413  0.3844  0.1080
 7730TIP3    H123131   0.600   5.483   5.945 -0.9220  1.4363 -1.5529
 7730TIP3    H223132   0.512   5.364   5.976  0.5188  0.4989 -0.9685
 7731TIP3   OH223133   6.193   7.621   0.812 -0.2706 -0.5323  0.3714
 7731TIP3    H123134   6.223   7.710   0.829  0.0581 -0.6242  0.2777
 7731TIP3    H223135   6.198   7.611   0.717  0.3857 -0.8909  0.4404
 7732TIP3   OH223136   4.161   6.711   0.291  0.4564  0.0555 -0.4476
 7732TIP3    H123137   4.148   6.806   0.290 -1.9948 -0.1698  0.9479
 7732TIP3    H223138   4.166   6.689   0.384 -1.3650 -1.3752 -0.6187
 7733TIP3   OH223139   8.049   4.048   4.821 -0.3805  0.4718  0.6498
 7733TIP3    H123140   8.070   4.103   4.897  1.8813 -1.4478  1.5365
 7733TIP3    H223141   8.127   3.996   4.807 -2.0270 -1.8153 -0.7587
 7734TIP3   OH223142   2.702   5.004   0.008  0.2452  0.1985  0.3987
 7734TIP3    H123143   2.688   5.091   0.046  1.6581  0.3705  0.5723
 7734TIP3    H223144   2.653   4.945   0.065 -1.6628  0.9471 -0.3405
 7735TIP3   OH223145   0.776   3.587   1.824  0.0819 -0.3795 -0.4073
 7735TIP3    H123146   0.841   3.574   1.893  0.2455  0.1633 -0.4553
 7735TIP3    H223147   0.697   3.544   1.858  0.3329 -0.6441 -0.1503
 7736TIP3   OH223148   1.861   0.445   1.992  0.0390 -0.1797  0.2291
 7736TIP3    H123149   1.873   0.366   2.044 -0.0004 -0.8868 -0.8191
 7736TIP3    H223150   1.791   0.492   2.037  0.5005 -0.4181  1.2229
 7737TIP3   OH223151   0.608   2.308   1.725 -0.0946 -0.3203 -1.0138
 7737TIP3    H123152   0.538   2.347   1.673  0.1143  0.9395 -0.3868
 7737TIP3    H223153   0.567   2.285   1.808  0.3140  0.9893 -0.4055
 7738TIP3   OH223154   7.159   1.375   1.717 -0.0165 -0.2974  0.8631
 7738TIP3    H123155   7.155   1.312   1.788 -2.0142 -1.6736 -0.3419
 7738TIP3    H223156   7.158   1.461   1.759  2.7719 -0.9878  2.5487
 7739TIP3   OH223157   3.839   5.125   0.329  0.2756  0.1031 -0.4403
 7739TIP3    H123158   3.788   5.048   0.304 -0.1317 -0.3121  1.5189
 7739TIP3    H223159   3.876   5.103   0.415  1.6594  1.3985 -0.6537
 7740TIP3   OH223160   7.981   0.421   1.071  0.0871 -0.9346 -0.3693
 7740TIP3    H123161   7.892   0.386   1.060  0.1661 -1.2174 -0.1251
 7740TIP3    H223162   7.976   0.510   1.037 -0.1905 -1.0852 -0.7253
 7741TIP3   OH223163   3.627   2.570   6.751  0.2943 -0.4679 -0.2753
 7741TIP3    H123164   3.564   2.588   6.682 -0.7629 -2.3151  0.1462
 7741TIP3    H223165   3.709   2.552   6.706 -0.4410 -1.8954 -1.0853
 7742TIP3   OH223166   0.777   4.036   6.365  0.6188 -0.1006 -0.2800
 7742TIP3    H123167   0.798   4.056   6.457  0.8406  0.9117 -0.5461
 7742TIP3    H223168   0.779   4.120   6.321  0.2689 -0.5542 -1.1794
 7743TIP3   OH223169   4.897   2.271   6.355 -0.2681  0.1079  0.6003
 7743TIP3    H123170   4.844   2.265   6.275 -1.4443  2.0490  1.1659
 7743TIP3    H223171   4.838   2.308   6.420  1.1321  0.0887  1.9314
 7744TIP3   OH223172   3.635   6.614   4.919  0.0389 -0.0921  0.3978
 7744TIP3    H123173   3.606   6.648   5.004 -1.0696 -0.9516  0.3886
 7744TIP3    H223174   3.559   6.627   4.861 -0.3892 -2.3816  0.3528
 7745TIP3   OH223175   4.651   4.220   0.491 -0.5294  0.1802  0.1432
 7745TIP3    H123176   4.658   4.262   0.576  0.0812  3.8367 -1.5111
 7745TIP3    H223177   4.557   4.210   0.477 -0.6439 -0.0562  1.0110
 7746TIP3   OH223178   0.928   1.743   0.755  0.1522  0.1122  0.1172
 7746TIP3    H123179   1.003   1.745   0.815  1.3072  0.4680 -1.2812
 7746TIP3    H223180   0.900   1.651   0.755  0.8360 -0.1047  0.3740
 7747TIP3   OH223181   0.872   3.991   5.685 -0.2700 -0.0986  0.2419
 7747TIP3    H123182   0.819   4.012   5.762 -0.4437 -0.1434  0.1375
 7747TIP3    H223183   0.962   4.010   5.710 -0.4285  0.8033  0.1379
 7748TIP3   OH223184   5.561   0.805   2.320 -0.5031 -0.2748 -0.4527
 7748TIP3    H123185   5.549   0.785   2.228  1.6488 -1.2364 -0.5885
 7748TIP3    H223186   5.551   0.721   2.365 -0.6526  0.0175  0.0760
 7749TIP3   OH223187   6.294   3.485   1.939  0.1321 -0.1384  0.3310
 7749TIP3    H123188   6.333   3.528   1.862 -0.0693 -1.1819 -0.3793
 7749TIP3    H223189   6.298   3.552   2.008 -0.7537  1.2430 -0.8945
 7750TIP3   OH223190   6.347   1.005   2.734 -0.0399 -0.0047  0.5479
 7750TIP3    H123191   6.390   0.945   2.673  0.1829  1.3889 -0.7153
 7750TIP3    H223192   6.418   1.062   2.764 -0.8130  1.8621 -1.0018
 7751TIP3   OH223193   6.762   3.187   0.796  0.8930 -0.1845  0.1440
 7751TIP3    H123194   6.774   3.131   0.873 -2.3848 -1.3481 -0.0174
 7751TIP3    H223195   6.698   3.253   0.824 -0.9373 -1.0653 -1.6666
 7752TIP3   OH223196   8.054   6.683   2.471 -0.0533 -0.4640  0.5050
 7752TIP3    H123197   8.079   6.642   2.388 -0.8239  1.3549 -0.6741
 7752TIP3    H223198   8.007   6.614   2.518 -0.7635 -1.1407 -1.1221
 7753TIP3   OH223199   7.689   3.368   5.444  0.1019 -0.3638  0.2602
 7753TIP3    H123200   7.744   3.324   5.379  0.0471  0.5771 -0.4504
 7753TIP3    H223201   7.740   3.365   5.525  1.2006  0.4758 -0.3806
 7754TIP3   OH223202   6.068   7.283   4.897 -0.5465  0.1957 -0.9881
 7754TIP3    H123203   5.979   7.312   4.875 -0.5723  3.1211  2.1874
 7754TIP3    H223204   6.062   7.257   4.989  1.5967 -1.1085 -1.1638
 7755TIP3   OH223205   2.853   5.798   5.451  0.1495  0.2925 -0.5145
 7755TIP3    H123206   2.912   5.758   5.515 -1.4444 -2.2985 -0.5444
 7755TIP3    H223207   2.853   5.891   5.475 -0.3791 -0.5024  3.3438
 7756TIP3   OH223208   5.441   6.771   1.285  0.1626  0.3720  0.1290
 7756TIP3    H123209   5.492   6.820   1.221 -0.5568 -0.1864 -0.8908
 7756TIP3    H223210   5.437   6.828   1.362  2.6854  0.2475  0.4228
 7757TIP3   OH223211   6.535   1.359   5.691  0.5432  0.1356 -0.0122
 7757TIP3    H123212   6.490   1.289   5.738 -0.7961  0.5584 -0.5918
 7757TIP3    H223213   6.472   1.431   5.689  0.5973  0.1929 -2.2638
 7758TIP3   OH223214   2.734   1.536   6.084  0.0556  1.0083  0.2782
 7758TIP3    H123215   2.751   1.630   6.087  0.4166  0.9327  0.6788
 7758TIP3    H223216   2.688   1.523   6.001 -1.2861  1.7294  0.8860
 7759TIP3   OH223217   6.869   2.977   2.365 -0.1057  0.7473  0.6581
 7759TIP3    H123218   6.937   2.912   2.382  0.0996  0.6567 -0.4181
 7759TIP3    H223219   6.900   3.023   2.287 -0.9551  1.1645  0.5604
 7760TIP3   OH223220   1.885   3.678   0.182  0.6650  0.0086  0.0085
 7760TIP3    H123221   1.807   3.627   0.160  1.0278 -1.2422  1.4132
 7760TIP3    H223222   1.947   3.613   0.217  0.4257  1.5538  3.8450
 7761TIP3   OH223223   7.428   2.408   4.121  0.3815 -0.0240 -0.1989
 7761TIP3    H123224   7.376   2.420   4.201  0.8969  0.2529  0.0968
 7761TIP3    H223225   7.432   2.494   4.081  1.4788  0.1897  0.3222
 7762TIP3   OH223226   7.494   4.444   0.645 -0.7780  0.1440 -0.1569
 7762TIP3    H123227   7.578   4.422   0.603  0.3936 -0.2531  2.2148
 7762TIP3    H223228   7.442   4.364   0.637 -0.0550 -0.3865  0.3110
 7763TIP3   OH223229   4.074   7.484   2.296 -0.4916  0.4047 -0.1958
 7763TIP3    H123230   4.099   7.442   2.214  0.5306 -0.2535  0.4210
 7763TIP3    H223231   3.978   7.481   2.297 -0.4637 -1.9532 -0.1850
 7764TIP3   OH223232   7.858   2.789   1.852 -0.5022 -0.5766  0.2049
 7764TIP3    H123233   7.830   2.773   1.761  1.6241 -1.2701 -0.3863
 7764TIP3    H223234   7.939   2.840   1.843  0.4847 -1.8267  1.6414
 7765TIP3   OH223235   4.593   5.670   6.664 -0.4470 -0.1066  0.7217
 7765TIP3    H123236   4.641   5.620   6.598  0.3720  1.0654  0.4067
 7765TIP3    H223237   4.506   5.681   6.627  0.1716  1.0440 -0.4682
 7766TIP3   OH223238   7.960   7.152   3.086  0.7626  0.1445 -0.3576
 7766TIP3    H123239   7.938   7.163   3.178 -0.2605  0.1169 -0.5779
 7766TIP3    H223240   7.890   7.199   3.039  3.6389  4.1662 -1.1027
 7767TIP3   OH223241   3.930   2.449   0.106  0.2910 -0.3005 -0.4089
 7767TIP3    H123242   3.875   2.439   0.183  0.4085  1.6735 -0.0143
 7767TIP3    H223243   4.019   2.437   0.138  0.2421 -1.0812 -0.5624
 7768TIP3   OH223244   8.172   5.933   6.395  0.8360  0.2852  0.3909
 7768TIP3    H123245   8.253   5.983   6.406  0.9083  0.5260 -0.9820
 7768TIP3    H223246   8.186   5.882   6.315  0.0947 -0.6174  0.8150
 7769TIP3   OH223247   4.672   7.448   4.998 -0.0896  0.2008  0.0612
 7769TIP3    H123248   4.763   7.465   5.022 -0.3554  4.3856 -1.1562
 7769TIP3    H223249   4.673   7.442   4.903 -0.9931 -1.1171  0.1012
 7770TIP3   OH223250   3.634   2.525   5.085  1.0670 -0.3521  0.1270
 7770TIP3    H123251   3.647   2.430   5.078  2.1640 -0.2029 -0.1361
 7770TIP3    H223252   3.722   2.561   5.072  0.9788  0.6125  1.8965
 7771TIP3   OH223253   8.019   1.285   6.723  0.7050 -1.0924 -0.4956
 7771TIP3    H123254   8.071   1.255   6.797  2.7877  1.6752 -0.6641
 7771TIP3    H223255   7.965   1.356   6.758 -0.8557 -2.0074 -0.9627
 7772TIP3   OH223256   6.789   1.215   3.697  0.6058  0.1336  0.4368
 7772TIP3    H123257   6.745   1.134   3.725  3.6447 -1.8108  0.0675
 7772TIP3    H223258   6.733   1.250   3.628 -0.6536 -1.8701  0.3630
 7773TIP3   OH223259   3.963   1.811   0.662 -0.7851  0.4919  0.2610
 7773TIP3    H123260   3.876   1.785   0.631 -1.0810  0.2292  1.2742
 7773TIP3    H223261   4.021   1.743   0.630 -1.4789 -1.2466  2.4580
 7774TIP3   OH223262   0.319   2.384   6.197  0.4304  0.5293  0.6348
 7774TIP3    H123263   0.339   2.450   6.263 -1.6852  1.2318  0.6506
 7774TIP3    H223264   0.236   2.413   6.158  1.2788 -0.1760 -1.9195
 7775TIP3   OH223265   8.226   4.844   0.048  0.4947 -0.5514 -0.5085
 7775TIP3    H123266   8.216   4.910   0.116  0.7335  0.7053 -1.6518
 7775TIP3    H223267   8.320   4.827   0.044  0.5263 -0.3292 -0.7769
 7776TIP3   OH223268   2.064   5.175   5.069  0.4915  0.2039 -0.0963
 7776TIP3    H123269   2.088   5.142   5.156 -1.7154 -1.9561 -0.1720
 7776TIP3    H223270   1.971   5.198   5.077  0.6918  1.6642 -1.4612
 7777TIP3   OH223271   7.643   2.751   4.055  0.1652 -0.6622 -0.4192
 7777TIP3    H123272   7.571   2.743   4.118 -0.5159 -0.2083 -1.1245
 7777TIP3    H223273   7.713   2.792   4.105 -0.1675 -0.8138  0.1949
 7778TIP3   OH223274   4.226   0.791   3.991 -0.0556 -0.1115  0.7124
 7778TIP3    H123275   4.296   0.754   4.044  1.1091  0.7189 -0.2012
 7778TIP3    H223276   4.159   0.723   3.989  1.0580 -1.2603  0.9292
 7779TIP3   OH223277   1.213   0.776   2.770 -0.1745  0.8081 -0.3325
 7779TIP3    H123278   1.228   0.857   2.721 -1.1429  2.2870  1.6791
 7779TIP3    H223279   1.130   0.791   2.817 -0.5424 -1.4782 -0.1301
 7780TIP3   OH223280   0.080   7.240   1.996  0.3304  0.3423 -0.2382
 7780TIP3    H123281   0.029   7.314   1.965 -0.5620 -0.5266 -0.9009
 7780TIP3    H223282   0.027   7.203   2.067  0.1293 -0.4190 -0.7678
 7781TIP3   OH223283   8.049   0.901   5.596  0.1814 -0.3696  0.2056
 7781TIP3    H123284   8.112   0.958   5.641 -0.4886 -0.0817  0.8161
 7781TIP3    H223285   8.098   0.863   5.523  1.1240 -0.3367  0.7980
 7782TIP3   OH223286   7.411   4.663   6.699 -0.8672 -0.1104  0.2599
 7782TIP3    H123287   7.427   4.714   6.778  2.4939  0.7256 -0.8047
 7782TIP3    H223288   7.376   4.580   6.731  1.7937 -0.3989  2.8451
 7783TIP3   OH223289   4.873   6.161   2.812 -0.2982 -0.3455 -0.1655
 7783TIP3    H123290   4.840   6.098   2.876  0.0918 -1.1317 -0.7181
 7783TIP3    H223291   4.796   6.214   2.789 -0.9315 -1.4076 -0.5775
 7784TIP3   OH223292   8.334   5.993   3.355 -1.2071 -0.1568  0.3293
 7784TIP3    H123293   8.427   5.990   3.378 -1.0479 -0.4399 -0.3410
 7784TIP3    H223294   8.328   5.945   3.273 -1.9321 -0.0353  0.3056
 7785TIP3   OH223295   3.312   1.735   4.469 -0.0568  0.1342 -0.0696
 7785TIP3    H123296   3.375   1.792   4.426  0.8502 -1.0955 -0.4466
 7785TIP3    H223297   3.337   1.647   4.441 -0.7565 -0.5348  1.3069
 7786TIP3   OH223298   6.291   0.479   3.068  0.9245  0.0091 -0.1905
 7786TIP3    H123299   6.254   0.411   3.011  0.7985  1.5826 -2.0793
 7786TIP3    H223300   6.375   0.502   3.027  2.2246 -0.7725  1.8736
 7787TIP3   OH223301   4.676   4.935   2.288  0.2155  0.2684 -0.3497
 7787TIP3    H123302   4.641   4.846   2.285  2.6694 -0.9416  2.1101
 7787TIP3    H223303   4.695   4.956   2.197 -0.3912 -1.7534 -0.9960
 7788TIP3   OH223304   4.260   6.257   5.750  0.4191 -0.3777  0.6940
 7788TIP3    H123305   4.256   6.353   5.745  0.9395 -0.3743  0.1753
 7788TIP3    H223306   4.172   6.228   5.728  0.5592 -0.0418 -0.3817
 7789TIP3   OH223307   5.654   7.087   0.211  0.3329  0.1134 -0.2890
 7789TIP3    H123308   5.705   7.124   0.283  0.2845 -1.2040  0.4604
 7789TIP3    H223309   5.708   7.101   0.134 -0.0486  2.4203 -0.1849
 7790TIP3   OH223310   1.713   1.361   3.108  0.1876 -0.0049  0.3513
 7790TIP3    H123311   1.714   1.364   3.203 -0.3395  2.1974  0.3315
 7790TIP3    H223312   1.622   1.341   3.085  0.4955 -1.4221  0.2922
 7791TIP3   OH223313   2.455   2.183   5.952 -0.2834  0.1356  0.5537
 7791TIP3    H123314   2.455   2.243   6.027 -0.5908 -1.7159  2.1401
 7791TIP3    H223315   2.543   2.145   5.953  0.1903  1.1482 -0.9595
 7792TIP3   OH223316   5.288   2.577   1.580  0.1413 -0.0540  0.1888
 7792TIP3    H123317   5.234   2.506   1.617 -0.5118  0.0580 -0.5136
 7792TIP3    H223318   5.376   2.559   1.612 -0.0943 -0.9375  0.3851
 7793TIP3   OH223319   8.225   5.007   1.416  0.4599 -0.2637  0.3635
 7793TIP3    H123320   8.151   4.962   1.376 -1.6362  0.7279  2.8741
 7793TIP3    H223321   8.297   4.944   1.410 -0.9208 -1.8219 -0.9072
 7794TIP3   OH223322   3.656   7.265   5.124 -0.0322 -0.1023  0.0717
 7794TIP3    H123323   3.635   7.172   5.117  1.2504 -0.6607  2.6293
 7794TIP3    H223324   3.679   7.278   5.216  1.2923  2.4328 -0.5237
 7795TIP3   OH223325   2.626   6.144   3.491  0.1045 -0.2654 -0.4046
 7795TIP3    H123326   2.624   6.233   3.525 -1.4539 -0.0552 -0.9804
 7795TIP3    H223327   2.591   6.090   3.562 -2.0783  0.0313 -1.1914
 7796TIP3   OH223328   7.336   7.307   1.720 -0.0709  0.3515  0.1974
 7796TIP3    H123329   7.403   7.367   1.751  1.3607 -1.3133  0.5118
 7796TIP3    H223330   7.302   7.266   1.800 -0.5396  0.2537 -0.0458
 7797TIP3   OH223331   3.139   7.630   5.252 -0.1599  0.0368 -0.4664
 7797TIP3    H123332   3.097   7.583   5.324 -1.5186 -0.9281 -1.8292
 7797TIP3    H223333   3.229   7.597   5.252  0.7487  2.1354  2.4883
 7798TIP3   OH223334   1.458   2.650   3.509  0.3637 -0.1677  0.3719
 7798TIP3    H123335   1.524   2.699   3.461  0.3194 -0.1197  0.3591
 7798TIP3    H223336   1.375   2.680   3.472  0.3721 -1.0200 -0.3677
 7799TIP3   OH223337   4.415   2.020   3.099 -0.8120  0.1173  0.6806
 7799TIP3    H123338   4.322   2.010   3.083 -0.8329 -1.2771  1.4874
 7799TIP3    H223339   4.442   2.092   3.042 -1.5238 -2.1997 -2.8924
 7800TIP3   OH223340   1.061   0.263   0.244  0.0986 -0.1335  0.0615
 7800TIP3    H123341   1.017   0.251   0.160 -0.6091 -3.4999  0.7727
 7800TIP3    H223342   1.154   0.250   0.224  0.3201  2.0733 -0.6121
 7801TIP3   OH223343   3.525   6.367   4.475 -0.1156 -0.7163  0.1921
 7801TIP3    H123344   3.551   6.360   4.383 -0.4228 -0.1549  0.0516
 7801TIP3    H223345   3.568   6.446   4.506 -0.0625 -0.8716  0.5125
 7802TIP3   OH223346   8.029   0.053   0.787 -0.3465 -0.0967  0.6642
 7802TIP3    H123347   8.009   0.111   0.712  1.5763 -0.6589 -0.3377
 7802TIP3    H223348   8.044   0.113   0.860 -0.5584  0.5466  0.1944
 7803TIP3   OH223349   2.159   0.771   5.076 -0.2293  0.1746 -0.0485
 7803TIP3    H123350   2.088   0.708   5.089  1.0181 -1.4780 -0.7531
 7803TIP3    H223351   2.220   0.726   5.017  0.0808  2.6112 -1.7262
 7804TIP3   OH223352   6.468   3.234   4.785 -0.2041  0.1002 -0.2353
 7804TIP3    H123353   6.556   3.216   4.752  0.8993  1.3912  1.8344
 7804TIP3    H223354   6.469   3.326   4.809 -1.9607  0.0050  0.3784
 7805TIP3   OH223355   1.138   4.934   4.607 -0.2238 -0.2621  0.6395
 7805TIP3    H123356   1.135   4.957   4.514 -1.2601  1.1973  1.0059
 7805TIP3    H223357   1.050   4.901   4.626 -0.3761  0.5452  1.3663
 7806TIP3   OH223358   8.308   5.763   4.701  0.1987 -0.3399 -0.7336
 7806TIP3    H123359   8.314   5.671   4.677 -0.0811  0.0432 -2.4510
 7806TIP3    H223360   8.214   5.783   4.696  0.3997  0.4045 -2.0410
 7807TIP3   OH223361   2.559   6.246   2.569 -0.2918  0.4530 -0.2120
 7807TIP3    H123362   2.625   6.196   2.618 -1.0261  0.4310  0.7838
 7807TIP3    H223363   2.478   6.197   2.583 -1.1031  2.0655  1.0666
 7808TIP3   OH223364   1.883   3.978   2.414  0.1478  0.8323 -0.5237
 7808TIP3    H123365   1.923   3.960   2.329 -0.8798 -1.1713 -0.6429
 7808TIP3    H223366   1.950   3.953   2.478  0.8883  2.2561 -0.6984
 7809TIP3   OH223367   2.020   0.863   1.200 -0.1987  0.4694 -0.5037
 7809TIP3    H123368   1.950   0.798   1.204  0.3255 -0.0568  0.1802
 7809TIP3    H223369   2.035   0.876   1.106  0.4719 -1.2452 -0.6532
 7810TIP3   OH223370   3.684   1.905   3.859  0.4537  1.3403  0.2724
 7810TIP3    H123371   3.752   1.916   3.793  0.6278 -1.7671 -0.2254
 7810TIP3    H223372   3.632   1.831   3.827 -0.7226  1.0678  2.6116
 7811TIP3   OH223373   1.140   6.985   4.324 -0.2655  0.6393  0.4003
 7811TIP3    H123374   1.117   6.960   4.414 -1.1642  1.4993  0.4243
 7811TIP3    H223375   1.209   6.924   4.299 -2.3316 -1.8947  0.4671
 7812TIP3   OH223376   1.379   4.313   2.505  0.4154 -0.0056  0.5556
 7812TIP3    H123377   1.331   4.299   2.587  1.6181 -0.3688  1.2201
 7812TIP3    H223378   1.349   4.242   2.448  0.8797 -0.8363  1.3113
 7813TIP3   OH223379   2.464   4.020   0.897 -0.0259  0.0828 -0.2644
 7813TIP3    H123380   2.416   3.960   0.954  1.6511 -0.5549  0.5569
 7813TIP3    H223381   2.402   4.089   0.877 -0.9578 -0.1465  1.6222
 7814TIP3   OH223382   1.506   5.488   0.523  0.3658  0.0192 -0.6054
 7814TIP3    H123383   1.535   5.500   0.614 -0.3399 -0.6900 -0.2701
 7814TIP3    H223384   1.423   5.536   0.518 -1.0122 -2.1522 -0.0614
 7815TIP3   OH223385   3.996   1.619   4.849  0.2700  0.3637 -0.2445
 7815TIP3    H123386   3.927   1.605   4.785  0.1171 -0.0612  0.0137
 7815TIP3    H223387   4.023   1.531   4.876  0.5444  0.5339  0.0504
 7816TIP3   OH223388   7.505   2.270   0.882 -0.6399  0.3114 -0.3985
 7816TIP3    H123389   7.581   2.273   0.825 -0.4852  0.5548 -0.1871
 7816TIP3    H223390   7.460   2.354   0.867  0.7838  1.5541  1.6704
 7817TIP3   OH223391   0.451   5.999   6.808 -0.3100  0.2582 -0.4172
 7817TIP3    H123392   0.357   5.996   6.789 -1.2123  0.3101  3.3461
 7817TIP3    H223393   0.468   5.922   6.861  1.9666 -0.0268 -1.4274
 7818TIP3   OH223394   5.635   0.238   1.202  0.3709  0.2636 -0.0835
 7818TIP3    H123395   5.659   0.155   1.244 -1.1323  0.6291  1.6245
 7818TIP3    H223396   5.541   0.245   1.215  0.0521  1.1001 -2.4012
 7819TIP3   OH223397   6.011   4.316   5.376 -0.2781  0.3010 -0.3884
 7819TIP3    H123398   6.063   4.293   5.299 -1.0486  1.1570 -1.1904
 7819TIP3    H223399   5.930   4.266   5.367 -1.2039  1.8608 -1.2103
 7820TIP3   OH223400   4.501   5.661   3.191 -0.2437 -0.1094  0.4148
 7820TIP3    H123401   4.461   5.748   3.186  0.3814  0.1474 -0.1835
 7820TIP3    H223402   4.581   5.674   3.242  0.3729 -0.1229 -0.5174
 7821TIP3   OH223403   0.416   5.732   5.512  0.1861 -0.2351 -0.3329
 7821TIP3    H123404   0.321   5.723   5.504  0.2176 -0.6213 -0.2938
 7821TIP3    H223405   0.436   5.692   5.597  0.3824 -0.1364 -0.3325
 7822TIP3   OH223406   5.444   0.164   5.303 -0.0988  0.0691  0.6199
 7822TIP3    H123407   5.369   0.217   5.277 -0.8091 -0.8218  0.7763
 7822TIP3    H223408   5.497   0.156   5.225 -2.1499 -2.5064 -0.6900
 7823TIP3   OH223409   2.412   7.894   4.621  0.8237 -0.6971 -0.0157
 7823TIP3    H123410   2.436   7.816   4.572 -4.1454 -1.4035 -1.9906
 7823TIP3    H223411   2.343   7.865   4.681  0.0563  1.8073  0.4637
 7824TIP3   OH223412   4.372   6.992   0.946  0.0250  0.1652  0.7537
 7824TIP3    H123413   4.389   7.004   1.039 -0.5442 -0.1418  0.8987
 7824TIP3    H223414   4.277   6.988   0.939  0.0316  0.9548  0.0665
 7825TIP3   OH223415   6.646   0.999   3.772  0.3207  0.7346  0.5535
 7825TIP3    H123416   6.560   1.014   3.733  0.3315  0.6068  0.4800
 7825TIP3    H223417   6.627   0.969   3.861  0.1490 -2.4891 -0.4174
 7826TIP3   OH223418   0.077   4.533   1.549 -0.1798  0.2063  0.2266
 7826TIP3    H123419   0.047   4.465   1.489 -0.9091  1.4468 -0.8570
 7826TIP3    H223420  -0.001   4.554   1.601 -0.1328  0.6499  0.1207
 7827TIP3   OH223421   5.691   5.482   5.324 -0.1185 -0.0550 -0.3885
 7827TIP3    H123422   5.740   5.536   5.386  1.7294 -0.5830 -1.3194
 7827TIP3    H223423   5.682   5.398   5.369  1.3670 -0.4911 -0.8239
 7828TIP3   OH223424   4.388   6.652   0.867 -0.7443 -0.1885 -0.3938
 7828TIP3    H123425   4.412   6.743   0.848 -0.1858 -0.2618 -0.0597
 7828TIP3    H223426   4.470   6.611   0.894 -1.6246  0.2561  3.6591
 7829TIP3   OH223427   2.927   5.044   1.165  0.2265  0.1994 -0.3015
 7829TIP3    H123428   2.908   5.105   1.236 -2.3116 -1.3337  0.4666
 7829TIP3    H223429   2.994   4.986   1.200 -1.2651 -0.7694  1.0633
 7830TIP3   OH223430   8.389   5.624   2.884  0.4454  0.0579 -0.5764
 7830TIP3    H123431   8.449   5.561   2.924 -0.7789 -1.3227 -0.8331
 7830TIP3    H223432   8.305   5.609   2.927 -0.0072  1.1502 -1.0375
 7831TIP3   OH223433   4.797   2.475   1.645 -0.0591 -0.6500 -0.3412
 7831TIP3    H123434   4.754   2.499   1.563 -0.8209  0.0129  0.2460
 7831TIP3    H223435   4.755   2.529   1.711  0.3644 -1.3757  0.5338
 7832TIP3   OH223436   6.208   4.980   1.559  0.0080  0.4115  0.9357
 7832TIP3    H123437   6.147   4.907   1.574  2.0707 -1.6783 -0.1912
 7832TIP3    H223438   6.171   5.027   1.484  0.1566 -1.3236 -0.2846
 7833TIP3   OH223439   1.773   5.302   4.097  0.0008  0.1166  0.2684
 7833TIP3    H123440   1.735   5.381   4.058 -0.2420  0.2415  0.7533
 7833TIP3    H223441   1.725   5.230   4.056  1.8673  0.0732 -2.0160
 7834TIP3   OH223442   0.174   1.403   4.361  0.4478 -1.0434 -0.5134
 7834TIP3    H123443   0.222   1.321   4.372  2.9639  0.3407 -0.1958
 7834TIP3    H223444   0.124   1.413   4.442  2.0598 -1.1219  0.5375
 7835TIP3   OH223445   7.647   3.887   1.227 -0.1778  0.2330  0.1215
 7835TIP3    H123446   7.683   3.946   1.294  1.5181 -1.1581  0.5008
 7835TIP3    H223447   7.629   3.806   1.273 -1.8957  0.1977 -0.5301
 7836TIP3   OH223448   6.178   0.154   3.115  0.0595 -0.0737 -0.1304
 7836TIP3    H123449   6.209   0.173   3.204  0.4794  0.2108 -0.3278
 7836TIP3    H223450   6.088   0.187   3.113 -0.0576 -0.3656  0.2818
 7837TIP3   OH223451   4.448   2.962   0.856  0.2073 -0.7990  0.7558
 7837TIP3    H123452   4.422   2.872   0.875  1.0788 -0.9086  1.4920
 7837TIP3    H223453   4.544   2.960   0.856  0.2419 -0.0175  0.0232
 7838TIP3   OH223454   3.520   2.207   0.974 -0.1627  0.2935 -0.4406
 7838TIP3    H123455   3.537   2.209   0.880  0.6855 -1.0920 -0.3360
 7838TIP3    H223456   3.458   2.136   0.986 -0.2859  0.4804  0.0486
 7839TIP3   OH223457   4.054   1.749   6.412 -0.1717  0.2011  0.1369
 7839TIP3    H123458   4.090   1.811   6.476 -1.7996 -1.1796  2.5895
 7839TIP3    H223459   3.982   1.797   6.370  0.8852  1.1144 -0.6762
 7840TIP3   OH223460   4.858   4.695   6.334  0.1741 -0.8550  0.2236
 7840TIP3    H123461   4.851   4.602   6.357  1.2085 -1.1321 -0.4710
 7840TIP3    H223462   4.835   4.698   6.241  0.4525 -0.4760  0.1640
 7841TIP3   OH223463   6.601   5.510   2.268 -0.9983 -0.3434  0.0532
 7841TIP3    H123464   6.541   5.447   2.228 -2.2454  0.7054  0.1989
 7841TIP3    H223465   6.680   5.460   2.287 -1.2847 -1.4405 -1.4658
 7842TIP3   OH223466   3.266   6.047   1.627  0.1903  0.2761  0.2797
 7842TIP3    H123467   3.198   6.017   1.566  2.2414 -0.2967 -1.8625
 7842TIP3    H223468   3.249   5.997   1.707 -1.2395 -0.6647 -0.5569
 7843TIP3   OH223469   7.768   7.428   1.761  0.6946 -0.2533  0.0298
 7843TIP3    H123470   7.815   7.450   1.841 -0.2152 -0.3240  0.5943
 7843TIP3    H223471   7.836   7.426   1.694  1.2228  1.6304  0.4368
 7844TIP3   OH223472   5.570   0.836   6.077 -0.2872 -0.1954 -0.1519
 7844TIP3    H123473   5.476   0.838   6.056 -0.2392 -0.0868 -0.3571
 7844TIP3    H223474   5.610   0.786   6.006 -0.2859 -0.8977  0.3298
 7845TIP3   OH223475   7.652   3.036   2.192 -0.3110  0.1461  0.3652
 7845TIP3    H123476   7.575   3.081   2.226 -0.4867 -0.1228  0.3283
 7845TIP3    H223477   7.624   2.945   2.181  0.8340 -0.6226  3.0355
 7846TIP3   OH223478   3.911   2.985   3.313 -0.2654 -0.2777 -0.6953
 7846TIP3    H123479   3.938   3.011   3.401 -1.0537 -1.8190  0.0473
 7846TIP3    H223480   3.925   3.063   3.260  0.7555  0.5245  0.6704
 7847TIP3   OH223481   1.161   0.926   6.759  0.0217 -0.0128 -0.0264
 7847TIP3    H123482   1.168   0.940   6.853 -0.5712  0.1080  0.0035
 7847TIP3    H223483   1.208   0.844   6.743  0.8752  0.4225  0.2432
 7848TIP3   OH223484   1.317   6.509   2.905 -0.3468 -0.5338  0.0219
 7848TIP3    H123485   1.268   6.449   2.849 -0.2618 -0.1453 -0.4698
 7848TIP3    H223486   1.363   6.567   2.844 -0.1154 -0.2219  0.4900
 7849TIP3   OH223487   4.084   7.715   1.804  0.2302  0.3326  0.0038
 7849TIP3    H123488   4.168   7.705   1.759 -0.4412  1.8995 -1.7118
 7849TIP3    H223489   4.106   7.754   1.889  1.1535  2.1894 -1.0338
 7850TIP3   OH223490   7.008   7.628   4.290 -0.2488 -0.6752 -0.1710
 7850TIP3    H123491   6.993   7.595   4.379  0.7217 -1.3470 -0.2438
 7850TIP3    H223492   6.969   7.562   4.233  0.3216 -0.9313 -0.2730
 7851TIP3   OH223493   7.485   4.649   3.157 -0.0411  0.7620  0.4536
 7851TIP3    H123494   7.499   4.616   3.068  0.9596  1.4694  0.3279
 7851TIP3    H223495   7.450   4.574   3.205 -0.4073  0.3124 -0.4852
 7852TIP3   OH223496   6.127   0.448   0.214  0.1184  0.1427 -0.1956
 7852TIP3    H123497   6.199   0.479   0.270 -0.6154  2.0435 -0.2073
 7852TIP3    H223498   6.120   0.514   0.145 -0.4240 -1.0137 -1.2846
 7853TIP3   OH223499   3.055   3.464   4.769 -0.4962  0.2509  0.2697
 7853TIP3    H123500   3.076   3.384   4.720 -0.8532 -0.4661  1.2560
 7853TIP3    H223501   2.993   3.511   4.713 -0.2668 -0.1378 -0.3275
 7854TIP3   OH223502   2.690   4.156   0.784  0.7022 -0.0765 -0.0714
 7854TIP3    H123503   2.618   4.152   0.721  1.1847 -0.1215 -0.6226
 7854TIP3    H223504   2.655   4.113   0.863 -0.3804  1.2294  0.1838
 7855TIP3   OH223505   4.760   1.258   5.755 -0.2490 -1.0397 -0.8941
 7855TIP3    H123506   4.707   1.192   5.801  0.0141 -0.2267  0.6512
 7855TIP3    H223507   4.846   1.252   5.796 -0.4782  0.8853 -0.0520
 7856TIP3   OH223508   6.820   7.345   4.793 -0.3642  0.7499 -0.1368
 7856TIP3    H123509   6.888   7.383   4.849 -0.9727  0.6685  0.6714
 7856TIP3    H223510   6.761   7.301   4.854 -1.4445  1.2776 -0.7803
 7857TIP3   OH223511   1.725   3.462   2.132  0.2960  0.5272 -0.1544
 7857TIP3    H123512   1.661   3.393   2.110  1.2350  0.3869 -2.7205
 7857TIP3    H223513   1.671   3.536   2.159 -1.0063  0.3185 -1.9882
 7858TIP3   OH223514   4.774   2.436   6.530 -0.0625 -0.3549  0.5015
 7858TIP3    H123515   4.718   2.501   6.488 -0.6668 -0.3333  1.3118
 7858TIP3    H223516   4.836   2.488   6.581  1.3045 -0.3466 -1.0779
 7859TIP3   OH223517   1.954   4.734   0.077  0.4275  0.0564  0.5384
 7859TIP3    H123518   1.908   4.765  -0.002  1.4515 -0.7591 -0.4081
 7859TIP3    H223519   2.011   4.807   0.100  1.4149 -0.3445 -0.5436
 7860TIP3   OH223520   7.579   3.766   0.376 -0.3916  0.6293 -0.0079
 7860TIP3    H123521   7.634   3.696   0.411 -1.4304  1.0022  2.6259
 7860TIP3    H223522   7.616   3.785   0.290  1.0071 -1.9082 -0.0595
 7861TIP3   OH223523   7.781   5.425   6.296  0.0889  0.2032  0.0776
 7861TIP3    H123524   7.742   5.409   6.382 -0.8477  0.5894 -0.2632
 7861TIP3    H223525   7.836   5.503   6.309 -2.3603  2.0962 -0.3168
 7862TIP3   OH223526   7.104   5.022   2.189  0.9736  0.0390 -0.3322
 7862TIP3    H123527   7.133   4.981   2.270 -1.1476  1.2587  1.1652
 7862TIP3    H223528   7.129   5.114   2.198 -0.5490  0.4856 -0.3528
 7863TIP3   OH223529   1.792   4.648   2.979  0.1530 -0.1903  0.6014
 7863TIP3    H123530   1.835   4.567   2.953 -1.8634 -0.9375 -0.7101
 7863TIP3    H223531   1.809   4.656   3.072  1.0467 -1.7141  0.6017
 7864TIP3   OH223532   4.125   7.016   1.358  0.2045 -0.3841  0.3292
 7864TIP3    H123533   4.104   7.096   1.406  0.8836 -0.2361  0.3978
 7864TIP3    H223534   4.083   6.946   1.408 -0.3837 -0.0696  0.2734
 7865TIP3   OH223535   3.585   2.453   4.763  0.1988 -0.5304  0.2644
 7865TIP3    H123536   3.632   2.471   4.845  0.5060  0.6231 -0.1394
 7865TIP3    H223537   3.499   2.492   4.776 -0.4411 -2.0831  0.7644
 7866TIP3   OH223538   1.030   2.151   4.526 -0.5001  0.0005  0.0655
 7866TIP3    H123539   1.024   2.061   4.558  0.4519 -0.5335 -1.1842
 7866TIP3    H223540   0.941   2.185   4.531 -0.8105 -0.9023  0.8444
 7867TIP3   OH223541   3.399   2.315   2.209 -0.0837  0.2778 -0.2064
 7867TIP3    H123542   3.376   2.381   2.143 -1.0381  1.8209  1.5667
 7867TIP3    H223543   3.317   2.269   2.226  0.1190 -0.0000  0.0250
 7868TIP3   OH223544   2.364   5.628   6.316  0.4212 -0.0960  0.1729
 7868TIP3    H123545   2.295   5.694   6.322  0.9884  0.4829  0.2738
 7868TIP3    H223546   2.428   5.653   6.381  1.7716  0.5811 -1.3512
 7869TIP3   OH223547   2.443   5.615   5.304 -0.0897 -0.2251  0.4357
 7869TIP3    H123548   2.508   5.669   5.350  0.1598 -0.6509  0.5821
 7869TIP3    H223549   2.487   5.587   5.224 -0.8089  1.2264 -0.5186
 7870TIP3   OH223550   6.973   3.372   2.610 -0.2849  0.0038 -0.2404
 7870TIP3    H123551   6.994   3.335   2.525 -1.2202 -0.8408 -0.1231
 7870TIP3    H223552   7.016   3.457   2.611  0.2365 -0.2372 -1.3117
 7871TIP3   OH223553   7.581   2.573   4.528  0.7913  0.0606 -0.3856
 7871TIP3    H123554   7.664   2.525   4.531  1.2534  0.8729  2.2746
 7871TIP3    H223555   7.526   2.531   4.593 -0.7373 -0.1096 -1.7343
 7872TIP3   OH223556   1.913   5.738   6.483  0.3221 -0.0864  0.0185
 7872TIP3    H123557   1.840   5.679   6.463  0.8234 -0.7702  0.2068
 7872TIP3    H223558   1.877   5.801   6.546 -0.3100  0.0279 -0.4477
 7873TIP3   OH223559   3.333   0.519   5.964 -0.5031  0.1772 -0.1284
 7873TIP3    H123560   3.302   0.587   5.904 -0.1750 -0.4848 -1.0771
 7873TIP3    H223561   3.356   0.446   5.907  0.7651 -0.1187  0.7187
 7874TIP3   OH223562   4.037   2.792   1.792 -0.1937  0.6945  0.2014
 7874TIP3    H123563   4.030   2.885   1.813  2.4908  1.2591 -0.9724
 7874TIP3    H223564   4.071   2.751   1.871 -1.2638  0.6794  0.6784
 7875TIP3   OH223565   5.846   4.945   2.599  0.0989  0.3286  0.4151
 7875TIP3    H123566   5.892   4.914   2.520 -0.3506 -0.7197  0.5487
 7875TIP3    H223567   5.813   5.031   2.574 -1.2930 -0.5791 -1.0835
 7876TIP3   OH223568   3.355   2.938   2.917 -0.6750 -0.3955  0.5733
 7876TIP3    H123569   3.276   2.990   2.933 -1.2585 -0.4253 -1.8329
 7876TIP3    H223570   3.426   2.991   2.954 -1.5612  0.7696  0.6790
 7877TIP3   OH223571   4.471   0.760   3.743 -0.4528  0.1982 -0.1613
 7877TIP3    H123572   4.398   0.782   3.686 -0.6500 -3.7104 -1.7067
 7877TIP3    H223573   4.440   0.686   3.795  1.3491  0.5898  1.5943
 7878TIP3   OH223574   7.618   3.807   5.935 -0.4889 -0.0293  0.0116
 7878TIP3    H123575   7.578   3.869   5.995 -0.5856  0.1650 -0.2503
 7878TIP3    H223576   7.703   3.846   5.913 -1.3465  0.9988 -1.6755
 7879TIP3   OH223577   8.138   1.555   1.731  0.0829 -0.1767 -0.7749
 7879TIP3    H123578   8.134   1.533   1.638 -0.3677 -1.8261 -0.3905
 7879TIP3    H223579   8.214   1.507   1.764 -1.8627 -2.6370  0.4077
 7880TIP3   OH223580   2.425   1.720   5.800 -0.4051  0.2692 -0.2436
 7880TIP3    H123581   2.407   1.682   5.886 -1.1702  0.8968 -0.1082
 7880TIP3    H223582   2.380   1.662   5.738  1.2761 -0.9560 -0.3683
 7881TIP3   OH223583   7.131   6.392   1.036 -0.4739 -0.2551 -0.3028
 7881TIP3    H123584   7.185   6.336   0.981 -0.3678  1.5919 -2.2306
 7881TIP3    H223585   7.130   6.476   0.990 -1.5082  1.0093  1.8781
 7882TIP3   OH223586   7.442   6.126   6.554  0.6006 -0.2958 -0.1107
 7882TIP3    H123587   7.460   6.220   6.560  0.5991 -0.3897  3.0626
 7882TIP3    H223588   7.508   6.093   6.493  0.5816  1.7191 -1.3418
 7883TIP3   OH223589   4.259   0.703   3.182  0.1547  0.1406 -0.1128
 7883TIP3    H123590   4.197   0.755   3.130  1.2627  0.6182 -0.9911
 7883TIP3    H223591   4.320   0.767   3.218 -0.1525 -0.2716  1.1818
 7884TIP3   OH223592   5.866   6.977   1.108  0.6928 -0.4216 -0.1240
 7884TIP3    H123593   5.887   7.066   1.080 -0.2055  0.1273  0.8778
 7884TIP3    H223594   5.811   6.942   1.038 -1.5499  0.9349  0.8809
 7885TIP3   OH223595   5.676   1.157   3.402 -0.0123 -0.2857  0.3261
 7885TIP3    H123596   5.667   1.229   3.340 -0.8410 -1.1591 -0.5886
 7885TIP3    H223597   5.731   1.093   3.358  0.6578 -0.2578  1.1031
 7886TIP3   OH223598   5.049   7.694   1.658 -0.1184 -0.5715  0.1513
 7886TIP3    H123599   4.962   7.664   1.629 -0.8096  0.5118  1.0353
 7886TIP3    H223600   5.063   7.650   1.741  1.4606 -2.9439 -1.2361
 7887TIP3   OH223601   3.693   1.772   0.281 -0.2540 -1.0354 -0.1232
 7887TIP3    H123602   3.730   1.707   0.221 -0.0284 -1.3524  0.3503
 7887TIP3    H223603   3.655   1.839   0.224  0.8256 -0.8250 -0.6153
 7888TIP3   OH223604   4.042   6.174   2.647  0.0903  0.1258  0.1235
 7888TIP3    H123605   4.106   6.120   2.692  0.2843 -0.3425 -0.6955
 7888TIP3    H223606   4.039   6.139   2.558  0.8767  2.0166 -0.6994
 7889TIP3   OH223607   4.269   0.548   2.358  0.2249  0.4132 -0.4481
 7889TIP3    H123608   4.336   0.492   2.320  0.0866  0.4577 -0.7577
 7889TIP3    H223609   4.317   0.621   2.397  0.2686  1.2552 -2.0097
 7890TIP3   OH223610   7.647   7.118   3.034 -0.1468  0.0573  0.7632
 7890TIP3    H123611   7.631   7.206   3.065 -3.0910  0.5183 -1.5840
 7890TIP3    H223612   7.594   7.062   3.091 -2.0151  0.4191 -0.5145
 7891TIP3   OH223613   2.632   0.288   0.746  0.0303 -0.0749  0.0675
 7891TIP3    H123614   2.608   0.377   0.773  0.5400 -0.1159  0.6910
 7891TIP3    H223615   2.725   0.281   0.768  0.0313 -0.7099 -0.1260
 7892TIP3   OH223616   7.476   0.526   6.114  0.0379  0.2937 -0.3257
 7892TIP3    H123617   7.544   0.557   6.054  0.4689  1.0246  0.5164
 7892TIP3    H223618   7.520   0.463   6.170 -0.1794  0.1755 -0.2871
 7893TIP3   OH223619   0.167   0.111   6.405  0.0231  0.2284 -0.6492
 7893TIP3    H123620   0.136   0.095   6.494 -2.3633 -0.6061 -1.5479
 7893TIP3    H223621   0.189   0.204   6.403 -0.3579  0.3614  0.6712
 7894TIP3   OH223622   4.911   7.411   1.774 -0.2165 -0.7351 -0.8827
 7894TIP3    H123623   4.853   7.447   1.707 -0.3711 -2.3392 -1.6618
 7894TIP3    H223624   4.851   7.369   1.836 -0.3034  2.8197  1.7462
 7895TIP3   OH223625   1.584   0.651   5.810 -0.4617  0.2387  0.3894
 7895TIP3    H123626   1.520   0.722   5.806 -1.5793 -0.6568  1.5095
 7895TIP3    H223627   1.556   0.598   5.885 -1.3737 -2.9539 -2.0024
 7896TIP3   OH223628   5.908   0.044   4.550 -0.1119  0.1867  0.6103
 7896TIP3    H123629   5.860   0.016   4.472  1.2135  2.1703 -1.0229
 7896TIP3    H223630   5.841   0.085   4.606 -0.6771  1.1518 -0.7254
 7897TIP3   OH223631   4.528   0.609   5.358 -0.6975 -0.3438  0.2212
 7897TIP3    H123632   4.476   0.622   5.437 -0.3367 -0.5865  0.5002
 7897TIP3    H223633   4.526   0.695   5.314 -2.7684 -0.7835 -0.6784
 7898TIP3   OH223634   6.852   2.591   0.540 -0.2720  0.1338  0.2659
 7898TIP3    H123635   6.821   2.679   0.560 -1.2406  0.1467 -1.1444
 7898TIP3    H223636   6.776   2.535   0.552 -1.4537  0.3173 -4.2951
 7899TIP3   OH223637   3.784   6.057   5.661 -0.3891  0.2130 -0.0599
 7899TIP3    H123638   3.799   6.062   5.567  1.3028  1.4536  0.2137
 7899TIP3    H223639   3.689   6.052   5.671 -0.7408  2.1697 -1.7692
 7900TIP3   OH223640   3.895   2.039   1.990 -0.4339 -0.0743  0.5354
 7900TIP3    H123641   3.906   1.987   1.910  0.3766 -0.8453  1.1343
 7900TIP3    H223642   3.801   2.056   1.994 -0.6292 -0.9323 -0.0363
 7901TIP3   OH223643   4.080   6.544   5.140 -0.4938  0.2184  0.2546
 7901TIP3    H123644   4.154   6.604   5.138  0.0903 -0.5291 -1.1109
 7901TIP3    H223645   4.047   6.551   5.230 -0.3000  2.3886  0.2132
 7902TIP3   OH223646   3.321   5.725   1.846  0.3440  0.4328 -0.4367
 7902TIP3    H123647   3.297   5.728   1.938  0.5256  1.8308 -0.4194
 7902TIP3    H223648   3.252   5.775   1.802  1.8079  2.3207 -0.6849
 7903TIP3   OH223649   4.590   3.665   2.151  0.4100 -0.0163  0.2974
 7903TIP3    H123650   4.574   3.753   2.186 -2.3631  0.0914 -0.9175
 7903TIP3    H223651   4.658   3.678   2.085  0.3142  1.1814  0.4078
 7904TIP3   OH223652   1.654   6.495   0.871 -0.3919 -0.0071 -0.0352
 7904TIP3    H123653   1.657   6.532   0.783 -0.5173  0.3369  0.1032
 7904TIP3    H223654   1.738   6.452   0.883  0.8649  2.4525  0.7653
 7905TIP3   OH223655   0.374   0.429   1.932 -0.1417 -0.5721  0.3046
 7905TIP3    H123656   0.335   0.346   1.957  1.6204 -0.2570  4.9764
 7905TIP3    H223657   0.323   0.495   1.979 -0.0522  0.8298 -1.4503
 7906TIP3   OH223658   2.138   4.480   6.761  0.1592 -0.1369 -0.0170
 7906TIP3    H123659   2.045   4.479   6.782 -0.2257  2.0588 -1.3270
 7906TIP3    H223660   2.152   4.564   6.715  2.8310 -0.2515  0.4194
 7907TIP3   OH223661   2.195   0.859   6.454 -0.3419  0.2517  0.1540
 7907TIP3    H123662   2.190   0.764   6.453  0.7798  0.1828 -0.1064
 7907TIP3    H223663   2.262   0.881   6.390  0.4369  1.1318  1.2223
 7908TIP3   OH223664   0.342   7.184   3.318  0.0447  0.6036 -0.1674
 7908TIP3    H123665   0.376   7.095   3.314  1.1199  1.0006  0.0855
 7908TIP3    H223666   0.386   7.230   3.246 -2.6477  0.2342 -2.2224
 7909TIP3   OH223667   5.759   4.410   6.645 -0.8247 -0.3653 -0.3979
 7909TIP3    H123668   5.774   4.493   6.690 -0.9180 -0.8695  0.6016
 7909TIP3    H223669   5.840   4.362   6.656 -0.3405  0.0384 -2.0166
 7910TIP3   OH223670   6.570   2.245   2.570 -0.5482  0.2022  0.0716
 7910TIP3    H123671   6.613   2.285   2.495  1.3278 -0.5221  0.7127
 7910TIP3    H223672   6.522   2.171   2.532 -0.5955  0.5423 -0.5528
 7911TIP3   OH223673   3.647   4.067   2.933  0.4344 -0.5818  0.6693
 7911TIP3    H123674   3.601   4.148   2.954 -2.1506 -1.5042 -0.8161
 7911TIP3    H223675   3.634   4.011   3.010  0.2064 -0.3640  0.7891
 7912TIP3   OH223676   1.870   1.559   1.662  0.1004 -0.0534 -0.1121
 7912TIP3    H123677   1.906   1.632   1.712 -1.6443  0.5555  0.3249
 7912TIP3    H223678   1.927   1.485   1.682  0.3160  0.5380  1.6143
 7913TIP3   OH223679   6.632   6.252   2.533  0.1480 -0.1705 -0.0910
 7913TIP3    H123680   6.726   6.258   2.551  0.0559  0.9020  0.1126
 7913TIP3    H223681   6.620   6.163   2.498  1.1910 -0.4084  0.1089
 7914TIP3   OH223682   1.639   5.126   4.577  0.4744  0.8440  0.1048
 7914TIP3    H123683   1.571   5.117   4.643  1.3583 -0.4312  0.8914
 7914TIP3    H223684   1.708   5.066   4.605  1.9322  2.0818 -0.6512
 7915TIP3   OH223685   7.435   4.710   0.575 -0.0694 -0.4733 -0.3502
 7915TIP3    H123686   7.418   4.617   0.560 -2.7321 -0.0007 -0.8062
 7915TIP3    H223687   7.427   4.750   0.488 -0.9785  0.4205  0.1233
 7916TIP3   OH223688   3.035   3.291   2.513 -0.2505  0.5899 -0.8100
 7916TIP3    H123689   2.979   3.268   2.439 -0.6955  0.6808 -0.5046
 7916TIP3    H223690   3.083   3.210   2.533  0.0897  0.6467 -1.3818
 7917TIP3   OH223691   3.749   7.738   2.292  0.2658  1.0963 -0.1999
 7917TIP3    H123692   3.656   7.753   2.309  0.2107 -0.8848  1.5941
 7917TIP3    H223693   3.761   7.765   2.201 -2.3489  0.2071 -0.8957
 7918TIP3   OH223694   5.035   1.357   2.753  0.1604  0.5592 -0.2549
 7918TIP3    H123695   5.053   1.306   2.833 -0.7826  0.3553 -0.1586
 7918TIP3    H223696   5.112   1.413   2.743  0.8058 -0.2152  0.1615
 7919TIP3   OH223697   0.327   4.840   2.925 -0.0370  0.3104 -0.1067
 7919TIP3    H123698   0.252   4.782   2.910 -0.6989  0.6127  1.8305
 7919TIP3    H223699   0.321   4.905   2.854 -0.9823 -0.2991 -0.6009
 7920TIP3   OH223700   2.362   3.460   3.494  0.1149  0.0131 -0.2000
 7920TIP3    H123701   2.416   3.464   3.573  0.5075  0.7989 -0.5019
 7920TIP3    H223702   2.403   3.520   3.433 -0.9171  0.3954 -0.5479
 7921TIP3   OH223703   4.363   6.503   1.204  0.3026  0.1156  0.4002
 7921TIP3    H123704   4.269   6.519   1.197  0.3263  0.1291  0.0955
 7921TIP3    H223705   4.403   6.588   1.186  0.3731  0.1065  0.5149
 7922TIP3   OH223706   3.602   0.568   6.446 -0.3262  0.4380  0.3338
 7922TIP3    H123707   3.684   0.528   6.419 -1.4213 -1.8778  0.2141
 7922TIP3    H223708   3.626   0.657   6.473  2.1020  0.0012 -0.2018
 7923TIP3   OH223709   4.967   1.490   3.464 -0.1109 -0.2072 -0.2986
 7923TIP3    H123710   4.954   1.580   3.433 -0.2511 -0.4365 -0.9100
 7923TIP3    H223711   5.054   1.466   3.433  0.5466  0.2239  1.1224
 7924TIP3   OH223712   8.028   2.102   2.415 -0.6022 -0.8681 -0.3036
 7924TIP3    H123713   8.057   2.019   2.376 -0.0005 -1.1158  0.6296
 7924TIP3    H223714   8.110   2.149   2.433 -0.9070 -0.4221 -0.0738
 7925TIP3   OH223715   0.703   1.452   4.441  0.4634  0.1328 -0.2329
 7925TIP3    H123716   0.631   1.423   4.386  0.6982 -1.4325  0.2328
 7925TIP3    H223717   0.758   1.374   4.452  1.1333  0.7589  1.0913
 7926TIP3   OH223718   5.129   3.570   5.562  0.0377  0.1953  0.3766
 7926TIP3    H123719   5.186   3.494   5.575  0.2161  0.1251 -0.7680
 7926TIP3    H223720   5.189   3.645   5.556 -0.1506  0.5063  1.8129
 7927TIP3   OH223721   7.523   3.549   6.543 -0.0061 -0.5983  0.1397
 7927TIP3    H123722   7.560   3.555   6.631  1.2522  0.5029 -0.4354
 7927TIP3    H223723   7.598   3.552   6.485 -0.9164  0.9149 -1.0534
 7928TIP3   OH223724   2.892   5.161   0.512  0.2865 -0.0124 -0.0725
 7928TIP3    H123725   2.899   5.128   0.602 -0.0307 -0.0724 -0.0692
 7928TIP3    H223726   2.868   5.084   0.460  0.4058  0.0357 -0.1992
 7929TIP3   OH223727   7.930   3.451   0.165 -0.0049 -0.1476  0.3903
 7929TIP3    H123728   7.972   3.365   0.155  0.6200  0.2848 -0.8707
 7929TIP3    H223729   7.933   3.489   0.078 -1.2110  0.7445  0.7254
 7930TIP3   OH223730   3.752   4.411   6.154  0.7547  0.2904  0.2134
 7930TIP3    H123731   3.695   4.344   6.193 -0.4992  1.6742  0.8761
 7930TIP3    H223732   3.840   4.374   6.160  0.1986 -0.9350  1.3597
 7931TIP3   OH223733   7.111   3.552   2.238  0.2983 -0.5497 -0.2641
 7931TIP3    H123734   7.105   3.461   2.268  0.1551 -0.7664 -0.9272
 7931TIP3    H223735   7.057   3.601   2.300  0.7018 -0.8486  0.3414
 7932TIP3   OH223736   2.448   4.381   6.397 -0.2822  0.4047 -0.6189
 7932TIP3    H123737   2.519   4.438   6.368 -0.1499 -0.3422 -1.7918
 7932TIP3    H223738   2.393   4.439   6.451  0.3371  1.3997 -1.0177
 7933TIP3   OH223739   0.700   0.144   0.570 -0.6480  0.9345  0.2722
 7933TIP3    H123740   0.761   0.205   0.530  0.1094 -0.1590 -0.2729
 7933TIP3    H223741   0.633   0.129   0.503  0.7411 -1.0727 -0.7571
 7934TIP3   OH223742   5.734   5.328   0.460 -0.0340 -0.1828  0.3333
 7934TIP3    H123743   5.767   5.371   0.381 -0.6259  0.8155  0.6108
 7934TIP3    H223744   5.788   5.249   0.468  0.9588  0.3971 -0.2988
 7935TIP3   OH223745   7.013   2.474   6.089 -0.0801 -0.2209 -0.5730
 7935TIP3    H123746   6.998   2.405   6.025 -2.0364  0.4526 -0.9284
 7935TIP3    H223747   6.944   2.538   6.071  1.6342  1.8373 -0.2654
 7936TIP3   OH223748   4.198   1.524   5.082 -0.2788 -0.1313  0.5773
 7936TIP3    H123749   4.234   1.561   5.001 -0.8060  0.2549  0.5112
 7936TIP3    H223750   4.128   1.466   5.052 -1.0896  0.7195  0.7902
 7937TIP3   OH223751   5.039   1.349   6.803  0.3954  0.3495  0.1863
 7937TIP3    H123752   4.956   1.362   6.850  0.2737 -0.8720  0.3421
 7937TIP3    H223753   5.029   1.264   6.760  1.5704  0.1785  0.2175
 7938TIP3   OH223754   2.104   2.602   3.626 -0.0238 -0.0863  0.1615
 7938TIP3    H123755   2.149   2.524   3.593 -1.1779 -0.2986 -0.9598
 7938TIP3    H223756   2.134   2.609   3.717  0.6854 -1.3990  0.0627
 7939TIP3   OH223757   6.340   3.829   1.977 -0.4300 -0.0154  0.0257
 7939TIP3    H123758   6.347   3.790   1.889 -1.6015  1.1884 -0.6515
 7939TIP3    H223759   6.430   3.842   2.005  0.0051 -2.7636  0.1112
 7940TIP3   OH223760   0.473   7.225   4.856  0.2010  0.5461 -0.3843
 7940TIP3    H123761   0.418   7.200   4.781  1.3846 -0.2219 -1.0069
 7940TIP3    H223762   0.549   7.169   4.851 -0.0766 -0.1398  1.9325
 7941TIP3   OH223763   3.882   5.921   0.599 -0.8186  0.0504  0.1496
 7941TIP3    H123764   3.830   5.844   0.624 -3.4771  1.5181 -0.4859
 7941TIP3    H223765   3.825   5.969   0.538  0.9317  2.3053  0.1842
 7942TIP3   OH223766   4.236   4.256   3.307 -0.1611  0.0475  0.8490
 7942TIP3    H123767   4.142   4.235   3.300  0.2394 -1.4310 -2.1863
 7942TIP3    H223768   4.260   4.283   3.218  1.9998  2.0107  1.9432
 7943TIP3   OH223769   2.125   2.902   0.322  0.6082  0.3286  0.0796
 7943TIP3    H123770   2.117   2.960   0.397  1.4503 -1.3080  1.5092
 7943TIP3    H223771   2.041   2.910   0.276 -0.2775  0.7258  1.6898
 7944TIP3   OH223772   2.907   6.080   4.927 -0.5941 -0.2734 -0.1737
 7944TIP3    H123773   2.992   6.115   4.954 -0.5463 -1.0256  0.7085
 7944TIP3    H223774   2.927   6.027   4.850 -0.2620 -0.4453  0.0255
 7945TIP3   OH223775   1.714   7.121   3.958  0.0203  0.3536  0.0481
 7945TIP3    H123776   1.752   7.033   3.955 -1.8096 -0.4733 -0.2105
 7945TIP3    H223777   1.729   7.157   3.870  1.6757  0.7494  0.4528
 7946TIP3   OH223778   0.757   3.031   0.971 -0.3619  0.0816  0.0102
 7946TIP3    H123779   0.825   3.056   0.908 -1.4785 -0.9680 -1.7003
 7946TIP3    H223780   0.806   3.003   1.049  1.0619  1.6147 -0.2756
 7947TIP3   OH223781   4.954   6.878   6.805 -0.1768  0.4805  0.0445
 7947TIP3    H123782   4.971   6.971   6.820  0.5205  0.6281 -1.4550
 7947TIP3    H223783   4.875   6.859   6.854  0.8402  1.3433  2.1218
 7948TIP3   OH223784   6.588   6.957   3.769  0.3565  0.4818  0.2744
 7948TIP3    H123785   6.612   6.900   3.843  2.2807  0.3421 -0.4059
 7948TIP3    H223786   6.498   6.932   3.749  0.4750 -0.9264  1.2687
 7949TIP3   OH223787   7.586   0.299   6.253  0.4890  0.2535 -0.2231
 7949TIP3    H123788   7.677   0.319   6.232  1.2784 -1.5802  1.1896
 7949TIP3    H223789   7.588   0.263   6.342 -1.9275  2.2608  0.7684
 7950TIP3   OH223790   5.249   3.092   5.840  0.6662 -0.2387 -0.5648
 7950TIP3    H123791   5.160   3.102   5.874  0.5183 -0.6338 -0.8255
 7950TIP3    H223792   5.254   3.155   5.768  0.0268 -1.3841 -1.6443
 7951TIP3   OH223793   1.900   1.093   6.635  0.0802 -0.1644 -0.7435
 7951TIP3    H123794   1.846   1.171   6.629  0.2680  0.3175  2.0528
 7951TIP3    H223795   1.883   1.059   6.723  2.6158 -1.2466 -0.5649
 7952TIP3   OH223796   2.106   0.223   1.368 -0.5669 -0.4372  0.1289
 7952TIP3    H123797   2.071   0.309   1.345 -0.9660 -0.2406  1.3705
 7952TIP3    H223798   2.030   0.164   1.359 -0.7894 -0.3171  1.1119
 7953TIP3   OH223799   5.311   6.969   5.897  0.1829 -0.0692  0.0437
 7953TIP3    H123800   5.371   6.896   5.900  2.7561  1.9218  0.3062
 7953TIP3    H223801   5.321   7.005   5.809 -0.2359  0.5853  0.2539
 7954TIP3   OH223802   0.305   6.297   3.428 -0.1657 -0.4017  0.1798
 7954TIP3    H123803   0.333   6.236   3.360  1.6971  0.3927  0.1689
 7954TIP3    H223804   0.300   6.382   3.384  0.8269  0.0766  0.9405
 7955TIP3   OH223805   6.899   4.984   4.134  0.4937  0.3113  0.5950
 7955TIP3    H123806   6.910   4.898   4.093 -0.7984 -0.1436  1.1467
 7955TIP3    H223807   6.989   5.014   4.151  1.1141  0.5219 -2.4634
 7956TIP3   OH223808   6.429   4.967   1.917 -0.0601  0.1887 -0.4324
 7956TIP3    H123809   6.391   4.922   1.841  1.3200 -0.0112 -1.0363
 7956TIP3    H223810   6.510   4.918   1.936 -0.3668  0.2510  1.1624
 7957TIP3   OH223811   0.637   4.133   5.845  0.0484 -0.6394 -0.2065
 7957TIP3    H123812   0.653   4.187   5.922 -0.7996 -0.9866  0.2216
 7957TIP3    H223813   0.604   4.050   5.880 -1.4980 -0.3764 -0.9915
 7958TIP3   OH223814   6.203   2.455   0.623 -0.4246 -0.0944  0.3099
 7958TIP3    H123815   6.214   2.428   0.532 -0.7379 -0.7215  0.4496
 7958TIP3    H223816   6.192   2.550   0.619  0.5141  0.0073 -0.2168
 7959TIP3   OH223817   6.016   1.675   2.805 -0.1544 -0.3370 -0.5748
 7959TIP3    H123818   6.107   1.653   2.790  0.2970 -0.0432  1.4702
 7959TIP3    H223819   6.018   1.763   2.844 -1.2547 -0.5337 -0.0049
 7960TIP3   OH223820   3.593   2.653   6.028  0.1860  0.0493 -0.1733
 7960TIP3    H123821   3.499   2.660   6.012 -0.2240 -4.3677 -1.0115
 7960TIP3    H223822   3.633   2.671   5.942  0.0469  0.7840 -0.0915
 7961TIP3   OH223823   6.022   7.269   6.212  0.1951  0.0111  0.4080
 7961TIP3    H123824   5.931   7.251   6.239 -0.4661  1.3645 -0.7952
 7961TIP3    H223825   6.043   7.352   6.255  0.9522 -0.3755  0.8110
 7962TIP3   OH223826   3.235   6.748   4.885 -0.0340  0.2560  0.4298
 7962TIP3    H123827   3.247   6.826   4.831  2.0923  0.0971  0.6210
 7962TIP3    H223828   3.146   6.757   4.920 -0.2762  1.9556 -0.5261
 7963TIP3   OH223829   4.703   7.465   4.708 -0.3220 -0.8957  0.0998
 7963TIP3    H123830   4.728   7.404   4.638 -1.4070 -0.1619 -0.9815
 7963TIP3    H223831   4.609   7.479   4.695 -0.4397 -0.3718  1.4264
 7964TIP3   OH223832   0.927   1.761   3.092  0.0338  0.8107  0.2255
 7964TIP3    H123833   1.020   1.740   3.091 -0.4073 -1.6588  1.7734
 7964TIP3    H223834   0.892   1.713   3.016 -0.0288  1.5604 -0.2270
 7965TIP3   OH223835   1.344   3.166   2.538 -0.3824 -0.6215 -0.3381
 7965TIP3    H123836   1.331   3.227   2.611 -1.2405 -1.9265  0.6594
 7965TIP3    H223837   1.436   3.138   2.546  0.2322  1.0232 -1.2406
 7966TIP3   OH223838   3.746   3.110   4.376  0.1863  0.1977  0.0635
 7966TIP3    H123839   3.692   3.080   4.304 -1.5719 -0.2115  1.4766
 7966TIP3    H223840   3.833   3.075   4.358 -0.1498  0.3046 -1.9405
 7967TIP3   OH223841   0.512   0.811   5.752 -0.1499 -0.8799  0.3937
 7967TIP3    H123842   0.529   0.769   5.668 -1.0450 -0.8580  0.1828
 7967TIP3    H223843   0.456   0.886   5.730  0.7576 -0.0490  0.8514
 7968TIP3   OH223844   7.097   0.550   0.797 -0.0872  0.5283 -0.1560
 7968TIP3    H123845   7.063   0.580   0.881 -0.3874 -0.8217  0.2200
 7968TIP3    H223846   7.104   0.630   0.745  2.4654  1.8436  1.9237
 7969TIP3   OH223847   1.488   6.036   2.932  0.2400  0.1097 -0.3410
 7969TIP3    H123848   1.575   6.030   2.893  0.9660  1.7013  0.8856
 7969TIP3    H223849   1.504   6.074   3.018 -1.5718 -0.7080  0.4013
 7970TIP3   OH223850   6.282   1.466   3.061 -0.6432  0.2978  0.1477
 7970TIP3    H123851   6.363   1.416   3.074  0.4802  1.5366 -1.6689
 7970TIP3    H223852   6.234   1.454   3.142  0.8448 -1.4129  0.8525
 7971TIP3   OH223853   1.414   2.368   4.296  0.4388  0.2705  0.2542
 7971TIP3    H123854   1.420   2.362   4.392  0.8222 -1.3445  0.1594
 7971TIP3    H223855   1.330   2.326   4.275  0.2996  0.7304 -0.1172
 7972TIP3   OH223856   7.324   2.924   5.624  0.7540  0.5466  0.1679
 7972TIP3    H123857   7.235   2.924   5.659  0.5081  1.0454 -0.4334
 7972TIP3    H223858   7.374   2.871   5.686 -0.3985 -1.5583 -0.6081
 7973TIP3   OH223859   6.056   6.113   3.705 -0.1093  0.6780 -0.4006
 7973TIP3    H123860   6.143   6.074   3.713  0.0918  0.8614 -1.5250
 7973TIP3    H223861   5.999   6.039   3.681 -0.2503  0.5783  0.2230
 7974TIP3   OH223862   3.891   2.151   1.099  0.0354  0.1797 -0.2431
 7974TIP3    H123863   3.837   2.182   1.172  1.2561  0.0674  0.7408
 7974TIP3    H223864   3.866   2.207   1.025 -0.3983  1.0692  0.5575
 7975TIP3   OH223865   3.172   7.558   4.192  0.0871  0.3555  0.0774
 7975TIP3    H123866   3.198   7.553   4.100  1.1719 -1.0895  0.4264
 7975TIP3    H223867   3.092   7.506   4.197 -0.1103  0.6434 -0.0987
 7976TIP3   OH223868   5.846   4.191   2.547 -0.0243  0.4440 -0.4497
 7976TIP3    H123869   5.859   4.285   2.535  1.2413  0.2532 -0.6835
 7976TIP3    H223870   5.836   4.157   2.458  1.4069  0.1113 -0.4996
 7977TIP3   OH223871   0.967   7.090   6.251  0.1593  0.4473  0.2515
 7977TIP3    H123872   0.916   7.087   6.171 -1.2267 -1.2748  1.1270
 7977TIP3    H223873   1.004   7.178   6.253 -0.5409  0.8328 -1.7764
 7978TIP3   OH223874   3.425   0.743   5.503 -0.2371 -0.2919 -0.1849
 7978TIP3    H123875   3.513   0.742   5.540 -1.0396 -0.7685  1.8244
 7978TIP3    H223876   3.402   0.836   5.498  0.3033 -0.1714 -0.6014
 7979TIP3   OH223877   4.574   3.824   4.918 -0.2751 -0.0959 -0.1102
 7979TIP3    H123878   4.576   3.778   5.002 -0.5452 -0.0330 -0.0686
 7979TIP3    H223879   4.544   3.912   4.941  0.0563  0.0454 -0.2145
 7980TIP3   OH223880   3.447   1.664   6.654  0.7253  0.0535 -0.0339
 7980TIP3    H123881   3.502   1.618   6.590  0.0976  1.8086 -1.9345
 7980TIP3    H223882   3.509   1.715   6.706  1.3313 -2.0969  1.4400
 7981TIP3   OH223883   1.382   7.138   1.746 -0.1490 -0.2869  0.7610
 7981TIP3    H123884   1.419   7.050   1.740  0.4747 -0.0642  1.2517
 7981TIP3    H223885   1.377   7.168   1.655  0.3037 -0.5597  0.6417
 7982TIP3   OH223886   5.667   1.361   4.061 -0.4117 -0.2459  0.1966
 7982TIP3    H123887   5.587   1.353   4.008 -0.6147 -0.0929  0.4743
 7982TIP3    H223888   5.727   1.410   4.006  0.1071 -1.8137 -0.6962
 7983TIP3   OH223889   6.144   3.986   5.767 -0.3556 -0.2705  0.3635
 7983TIP3    H123890   6.143   3.918   5.699  0.2776 -1.6086  1.6256
 7983TIP3    H223891   6.072   3.963   5.825 -1.3442  1.2748 -0.1820
 7984TIP3   OH223892   6.445   1.104   0.792  0.0908  0.2383 -0.1566
 7984TIP3    H123893   6.395   1.179   0.825 -0.3693 -0.1719  0.0838
 7984TIP3    H223894   6.421   1.032   0.850 -0.3005 -0.3653 -1.0543
 7985TIP3   OH223895   6.771   3.543   4.613 -0.5658  0.1819 -0.2978
 7985TIP3    H123896   6.772   3.505   4.701  2.1493  0.3246 -0.1828
 7985TIP3    H223897   6.718   3.622   4.621 -1.8437 -0.7368  0.7350
 7986TIP3   OH223898   1.471   0.625   2.187 -0.3306  0.1188 -0.5491
 7986TIP3    H123899   1.393   0.592   2.142 -1.3888  0.2246  1.1191
 7986TIP3    H223900   1.437   0.669   2.265  1.2250  2.5228 -1.1078
 7987TIP3   OH223901   0.254   4.657   3.937  0.0227 -0.1973  0.3017
 7987TIP3    H123902   0.270   4.563   3.932 -0.2631 -0.2243 -0.2283
 7987TIP3    H223903   0.159   4.665   3.943  0.0089  0.0745 -0.2064
 7988TIP3   OH223904   4.581   3.062   1.883 -0.8075  0.1091 -0.1192
 7988TIP3    H123905   4.561   3.002   1.811  2.0793  0.3135 -1.2071
 7988TIP3    H223906   4.595   3.005   1.958  0.9707 -0.5922 -0.9189
 7989TIP3   OH223907   0.523   4.723   0.547 -0.4157 -0.3492 -0.0925
 7989TIP3    H123908   0.449   4.770   0.509  0.0093  0.3226 -0.1005
 7989TIP3    H223909   0.528   4.754   0.638 -0.4492 -0.7739  0.0613
 7990TIP3   OH223910   8.413   5.157   4.664  0.3796  0.3417  0.3564
 7990TIP3    H123911   8.357   5.081   4.681  1.2433 -0.7588 -1.4096
 7990TIP3    H223912   8.352   5.228   4.646 -0.4450  0.1113  2.0279
 7991TIP3   OH223913   0.026   3.687   2.514 -0.5674 -0.1466  0.1745
 7991TIP3    H123914  -0.051   3.729   2.476  0.2862  0.8970 -0.4813
 7991TIP3    H223915   0.068   3.642   2.440 -1.6576 -2.5489  0.9301
 7992TIP3   OH223916   6.191   0.339   1.831  0.1543 -0.2894 -0.7161
 7992TIP3    H123917   6.102   0.317   1.858  0.8694 -1.3198  0.9621
 7992TIP3    H223918   6.195   0.314   1.738 -0.9896 -1.2190 -0.5386
 7993TIP3   OH223919   3.243   2.526   6.824 -0.2955  0.1747 -0.6004
 7993TIP3    H123920   3.311   2.473   6.782  0.8811  1.3804 -0.3042
 7993TIP3    H223921   3.163   2.506   6.775  0.3327 -1.0139 -1.1952
 7994TIP3   OH223922   2.504   5.451   2.832  0.0209  0.0282 -0.0579
 7994TIP3    H123923   2.411   5.466   2.849  0.0002  0.3740 -0.4654
 7994TIP3    H223924   2.546   5.534   2.854  0.1363  0.1130 -0.5952
 7995TIP3   OH223925   3.431   1.833   5.503  0.3992 -0.4910  0.1363
 7995TIP3    H123926   3.452   1.746   5.471  0.2424 -0.3583 -0.3373
 7995TIP3    H223927   3.508   1.886   5.481  1.2661 -0.8974  2.0410
 7996TIP3   OH223928   7.838   2.729   0.252  0.6181 -0.2780  0.0115
 7996TIP3    H123929   7.769   2.791   0.274  0.4822 -0.9507  1.6484
 7996TIP3    H223930   7.911   2.783   0.222 -0.4539  0.4668 -1.3270
 7997TIP3   OH223931   1.954   2.005   6.327 -0.1514  0.2873 -0.1557
 7997TIP3    H123932   1.958   1.919   6.285 -0.0030  0.2905 -0.1490
 7997TIP3    H223933   1.897   1.992   6.403 -2.3187  0.8009 -1.5848
 7998TIP3   OH223934   2.205   6.288   2.093 -0.0861 -0.0608 -0.6878
 7998TIP3    H123935   2.205   6.246   2.179  0.1684  0.7723 -0.2682
 7998TIP3    H223936   2.115   6.277   2.062 -0.4389  0.4547  0.1095
 7999TIP3   OH223937   4.750   6.283   4.492  0.3920 -0.0632  0.3689
 7999TIP3    H123938   4.745   6.285   4.397 -0.6146  0.2636  0.4197
 7999TIP3    H223939   4.815   6.215   4.511 -1.5362 -2.3078 -0.5161
 8000TIP3   OH223940   5.907   7.718   5.392  0.4572 -0.1241  0.0668
 8000TIP3    H123941   5.983   7.672   5.428  0.3626 -0.3303  0.0043
 8000TIP3    H223942   5.873   7.769   5.466  0.0670 -0.8062  0.3702
 8001TIP3   OH223943   1.348   7.111   6.813 -0.1546  1.0297  0.6272
 8001TIP3    H123944   1.278   7.083   6.754 -1.2442  2.1977  1.2928
 8001TIP3    H223945   1.381   7.192   6.774  1.8941 -0.2505 -0.4619
 8002TIP3   OH223946   8.211   7.838   4.257 -0.4689  0.0787  0.7723
 8002TIP3    H123947   8.201   7.897   4.182 -1.3154 -1.0524 -0.0367
 8002TIP3    H223948   8.219   7.897   4.332 -0.9503  1.2361 -0.0447
 8003TIP3   OH223949   7.122   2.041   1.995  0.1809  0.0922  0.0775
 8003TIP3    H123950   7.160   2.118   1.952  0.3301  0.7467  1.3264
 8003TIP3    H223951   7.061   2.078   2.059 -1.6317 -0.9118 -0.9933
 8004TIP3   OH223952   0.168   4.968   6.720 -0.1375 -0.0598  0.1542
 8004TIP3    H123953   0.155   5.052   6.677 -1.2679 -0.3091 -0.0129
 8004TIP3    H223954   0.263   4.961   6.731  0.0353  0.8052 -0.6903
 8005TIP3   OH223955   5.513   6.040   3.746  0.0281 -0.2093  0.3818
 8005TIP3    H123956   5.567   6.030   3.824  2.0141  3.0096 -0.3507
 8005TIP3    H223957   5.442   6.098   3.773  0.9268  1.2190 -0.1640
 8006TIP3   OH223958   7.853   4.360   3.557 -0.2366  0.3345 -0.2630
 8006TIP3    H123959   7.901   4.399   3.630 -0.5990  2.6186 -1.1454
 8006TIP3    H223960   7.762   4.360   3.586 -0.3458  1.0035 -0.5602
 8007TIP3   OH223961   5.333   2.838   1.720 -0.0826  0.4644  0.5087
 8007TIP3    H123962   5.280   2.841   1.800  1.7849 -0.9650  1.8749
 8007TIP3    H223963   5.328   2.747   1.691 -0.4987  0.9024 -0.8836
 8008TIP3   OH223964   1.553   1.015   2.808  0.0209  0.4283 -0.3077
 8008TIP3    H123965   1.553   0.919   2.809  0.4659  0.4315 -0.2392
 8008TIP3    H223966   1.634   1.039   2.763 -0.4886  0.7659 -1.0771
 8009TIP3   OH223967   3.959   2.572   3.213 -0.3834 -0.5792  0.4564
 8009TIP3    H123968   3.973   2.478   3.223  0.1410 -0.4117  1.4598
 8009TIP3    H223969   3.991   2.592   3.125 -0.0675 -1.2618  0.4112
 8010TIP3   OH223970   2.174   2.369   5.129 -0.1163 -0.2245 -0.6225
 8010TIP3    H123971   2.103   2.380   5.192 -0.8155 -1.2909 -1.1901
 8010TIP3    H223972   2.221   2.291   5.160  0.4702  0.1477 -0.5645
 8011TIP3   OH223973   0.452   0.846   1.655 -0.0417 -0.2551 -0.3063
 8011TIP3    H123974   0.395   0.839   1.732 -0.2788  0.2743 -0.4335
 8011TIP3    H223975   0.462   0.756   1.625 -0.3957 -0.4066  0.0203
 8012TIP3   OH223976   5.337   4.387   5.866 -0.7960 -0.3928  0.3989
 8012TIP3    H123977   5.289   4.305   5.849 -0.4385 -0.3226 -1.0567
 8012TIP3    H223978   5.395   4.365   5.940 -0.2745 -1.6512 -0.3433
 8013TIP3   OH223979   0.521   1.702   6.118  0.7292 -0.4561 -0.5725
 8013TIP3    H123980   0.557   1.650   6.189 -0.6416  0.8754  1.1867
 8013TIP3    H223981   0.464   1.643   6.070  0.4324 -0.9876  0.4181
 8014TIP3   OH223982   5.977   2.956   5.230 -0.4890 -0.1505  0.2926
 8014TIP3    H123983   6.006   3.026   5.289  0.4327 -0.5087  0.2860
 8014TIP3    H223984   5.888   2.936   5.259 -0.0516 -0.3405  1.5992
 8015TIP3   OH223985   7.330   1.845   2.409 -0.0684 -0.6685  0.0903
 8015TIP3    H123986   7.241   1.880   2.417  0.4597  0.3286  2.0169
 8015TIP3    H223987   7.387   1.920   2.423  1.0868 -1.5612  0.2998
 8016TIP3   OH223988   1.750   7.197   2.856  0.0490 -0.6389  0.6727
 8016TIP3    H123989   1.718   7.283   2.882  2.3119  0.3206  0.4649
 8016TIP3    H223990   1.755   7.201   2.760  0.2351 -0.9842  0.6663
 8017TIP3   OH223991   2.132   0.977   2.690  0.1978 -0.4189 -0.2978
 8017TIP3    H123992   2.225   1.001   2.693  0.6692 -1.9206 -1.5104
 8017TIP3    H223993   2.100   1.015   2.608  0.0942 -1.0413 -0.5503
 8018TIP3   OH223994   1.928   0.942   6.423  1.0741  0.3422 -0.2064
 8018TIP3    H123995   1.915   0.981   6.509  0.4927 -3.1901  1.4608
 8018TIP3    H223996   2.018   0.911   6.424  0.9656 -0.0061 -0.7487
 8019TIP3   OH223997   2.192   2.648   1.944  0.3844  0.0290 -0.3913
 8019TIP3    H123998   2.261   2.682   2.001 -1.7219  0.4378  2.1097
 8019TIP3    H223999   2.188   2.555   1.965  0.4266 -0.0693 -0.8166
 8020TIP3   OH224000   3.748   6.999   1.766 -0.0732  0.4697 -0.1895
 8020TIP3    H124001   3.750   7.086   1.807 -1.2527  0.3178  0.2438
 8020TIP3    H224002   3.798   6.943   1.825 -0.1758  0.6519  0.0759
 8021TIP3   OH224003   5.080   1.742   6.207 -0.3210 -0.0759 -0.2686
 8021TIP3    H124004   5.056   1.833   6.188 -0.4855  0.1926  1.0985
 8021TIP3    H224005   5.173   1.746   6.230 -0.0885 -0.4119 -1.1132
 8022TIP3   OH224006   6.358   3.777   3.007  0.6015 -0.1981  0.1395
 8022TIP3    H124007   6.303   3.756   3.083  1.0503  1.2513  0.9076
 8022TIP3    H224008   6.299   3.768   2.932  0.2000 -1.8673  0.6128
 8023TIP3   OH224009   0.018   3.777   5.732 -0.2549  0.0058  0.3172
 8023TIP3    H124010   0.099   3.827   5.748 -1.1214  1.3377  0.7235
 8023TIP3    H224011  -0.030   3.830   5.669 -1.3185 -0.1727  0.9557
 8024TIP3   OH224012   5.591   4.277   3.554  0.4026  0.0919  0.3824
 8024TIP3    H124013   5.553   4.344   3.498  0.5151  1.0864  1.4378
 8024TIP3    H224014   5.636   4.217   3.495  0.4928  1.0871 -0.5737
 8025TIP3   OH224015   1.669   0.406   5.301 -0.0951 -0.3801  0.1462
 8025TIP3    H124016   1.712   0.365   5.376  0.7693  0.7051  0.2803
 8025TIP3    H224017   1.689   0.349   5.227 -0.3408 -1.0757  0.6079
 8026TIP3   OH224018   1.316   5.919   5.668  0.0956  0.0184 -0.7975
 8026TIP3    H124019   1.338   5.856   5.736 -2.2876  1.1578  1.2328
 8026TIP3    H224020   1.358   6.000   5.696  0.2550  0.1596 -1.4431
 8027TIP3   OH224021   7.390   1.253   0.671 -0.0799  0.1388 -0.4726
 8027TIP3    H124022   7.439   1.193   0.727 -0.5553  0.1408 -0.0440
 8027TIP3    H224023   7.329   1.297   0.730 -0.2901  0.4626 -0.9197
 8028TIP3   OH224024   4.199   4.572   1.074  0.0431 -0.5550 -0.3143
 8028TIP3    H124025   4.176   4.639   1.009 -0.3649 -0.4599 -0.0764
 8028TIP3    H224026   4.278   4.605   1.116 -0.6240  0.1923  0.3826
 8029TIP3   OH224027   6.038   3.806   5.538 -0.4903  0.2418  0.3423
 8029TIP3    H124028   6.057   3.736   5.476  2.0681  1.9529 -0.9516
 8029TIP3    H224029   5.963   3.773   5.588 -0.9670 -2.3389 -1.8255
 8030TIP3   OH224030   1.397   2.866   1.708 -0.0654  0.4845  0.3332
 8030TIP3    H124031   1.305   2.856   1.686  0.1172 -0.1911 -0.1762
 8030TIP3    H224032   1.404   2.838   1.799 -0.3815  0.6342  0.4024
 8031TIP3   OH224033   2.250   3.011   0.871  0.2034 -0.2892 -0.1377
 8031TIP3    H124034   2.158   2.983   0.874  0.3687 -0.8712  2.8605
 8031TIP3    H224035   2.299   2.937   0.907  1.7984  0.3088 -0.9626
 8032TIP3   OH224036   6.780   2.268   6.315  0.0542  0.1658  0.5759
 8032TIP3    H124037   6.734   2.350   6.327 -1.1872 -0.1135 -1.6714
 8032TIP3    H224038   6.776   2.251   6.221  2.7133 -1.0986  0.5758
 8033TIP3   OH224039   6.192   6.420   3.691 -0.0571  0.0176 -0.2707
 8033TIP3    H124040   6.163   6.333   3.664 -2.3035  0.2997  0.9338
 8033TIP3    H224041   6.132   6.444   3.762  3.2135  0.7600  2.5218
 8034TIP3   OH224042   2.953   1.501   0.987 -0.7246 -0.0021  0.1498
 8034TIP3    H124043   2.916   1.462   1.066  0.9843  1.5078  1.8015
 8034TIP3    H224044   2.995   1.429   0.941  0.8719 -0.4561  2.2146
 8035TIP3   OH224045   2.633   7.227   6.496 -0.0182 -0.2192 -0.2182
 8035TIP3    H124046   2.691   7.264   6.562  0.1544  0.5287 -0.7816
 8035TIP3    H224047   2.651   7.133   6.498  2.1244  0.1198 -1.2494
 8036TIP3   OH224048   3.612   1.194   0.907 -0.5303 -0.0770 -0.2177
 8036TIP3    H124049   3.564   1.133   0.851 -0.3355 -0.5868  0.1578
 8036TIP3    H224050   3.560   1.200   0.987  0.3535 -1.1988  0.4872
 8037TIP3   OH224051   4.867   1.619   0.608  0.2257 -0.1316  0.9569
 8037TIP3    H124052   4.890   1.558   0.678  0.6958 -1.1480 -0.0534
 8037TIP3    H224053   4.774   1.601   0.590  0.9407 -2.3855 -1.0123
 8038TIP3   OH224054   1.746   1.440   1.035 -0.5941  0.2130  1.0300
 8038TIP3    H124055   1.699   1.524   1.036 -1.0964 -0.0626  0.9295
 8038TIP3    H224056   1.831   1.460   1.074  0.1624  1.2883 -0.9893
 8039TIP3   OH224057   3.052   1.690   0.195  0.4776  0.4629 -0.4373
 8039TIP3    H124058   3.052   1.611   0.249  0.5171  0.0478 -1.0295
 8039TIP3    H224059   3.019   1.660   0.110  2.0147  0.7365 -1.1588
 8040TIP3   OH224060   2.823   1.915   3.868 -0.0008  0.2712 -0.6182
 8040TIP3    H124061   2.735   1.945   3.847 -0.7038 -1.3774 -0.2262
 8040TIP3    H224062   2.880   1.988   3.845 -1.2855  0.7382 -2.5923
 8041TIP3   OH224063   5.392   2.332   4.165  0.1830  0.0622 -1.1412
 8041TIP3    H124064   5.465   2.306   4.108  0.3443 -0.3388 -0.7534
 8041TIP3    H224065   5.417   2.418   4.197  1.3364 -0.7916  0.3747
 8042TIP3   OH224066   4.498   3.515   0.235 -0.2388  0.6395 -0.1027
 8042TIP3    H124067   4.576   3.515   0.290 -1.2993 -1.4488  1.5167
 8042TIP3    H224068   4.425   3.522   0.296 -1.4312 -0.8452 -1.2995
 8043TIP3   OH224069   5.819   6.021   6.481  0.2976  0.3406 -0.7177
 8043TIP3    H124070   5.909   6.041   6.506  0.6937 -0.2556 -1.6088
 8043TIP3    H224071   5.811   5.927   6.495  0.0093  0.2901 -1.1891
 8044TIP3   OH224072   7.938   1.772   6.223  1.1863 -0.1350  0.2394
 8044TIP3    H124073   8.017   1.745   6.177  2.3953  1.3899  1.3274
 8044TIP3    H224074   7.932   1.866   6.208  0.2554 -0.0267  1.1744
 8045TIP3   OH224075   4.804   0.216   3.030 -0.3583  0.1540 -0.5789
 8045TIP3    H124076   4.798   0.128   2.994 -0.2275 -0.5983  1.1472
 8045TIP3    H224077   4.727   0.262   2.996 -0.0526 -0.3733 -2.0675
 8046TIP3   OH224078   5.836   7.013   1.382  0.1560 -0.6897  0.3902
 8046TIP3    H124079   5.865   7.101   1.356 -0.8876 -0.0458  1.2795
 8046TIP3    H224080   5.821   6.967   1.299  0.0579  0.2048 -0.1031
 8047TIP3   OH224081   4.276   2.583   6.250 -0.3356 -0.0748 -1.1693
 8047TIP3    H124082   4.276   2.626   6.165  0.6139 -0.3983 -1.3388
 8047TIP3    H224083   4.223   2.641   6.306  0.7245  1.2131 -1.4408
 8048TIP3   OH224084   8.318   5.312   5.349 -0.5393  0.4683 -0.8475
 8048TIP3    H124085   8.334   5.310   5.444  0.9750  3.6843 -0.8748
 8048TIP3    H224086   8.355   5.230   5.317  0.0943 -0.1197  1.2021
 8049TIP3   OH224087   3.800   0.623   1.068  0.9873  0.0773  0.5762
 8049TIP3    H124088   3.791   0.528   1.075 -0.7335  0.0736 -0.8174
 8049TIP3    H224089   3.775   0.642   0.977 -0.2307  2.0088  1.2667
 8050TIP3   OH224090   7.346   5.478   2.788 -0.2430  0.8807  0.1724
 8050TIP3    H124091   7.341   5.544   2.858  1.3539 -1.1516  2.3583
 8050TIP3    H224092   7.440   5.465   2.774 -0.3973 -2.2377  1.2562
 8051TIP3   OH224093   3.486   2.200   0.676 -0.1488  0.6014  0.7417
 8051TIP3    H124094   3.456   2.110   0.690  0.0568  0.3006 -0.5984
 8051TIP3    H224095   3.577   2.190   0.648 -0.3026  1.1828  0.0090
 8052TIP3   OH224096   0.960   7.451   1.661 -0.4716 -0.2367 -0.3462
 8052TIP3    H124097   1.016   7.375   1.679 -1.6157 -0.9939  0.0734
 8052TIP3    H224098   0.988   7.481   1.574  3.0314  1.6085  1.2163
 8053TIP3   OH224099   7.926   0.015   2.864  1.0609 -0.3408  0.1621
 8053TIP3    H124100   7.898   0.098   2.825  1.3023  1.1516  2.9155
 8053TIP3    H224101   7.874  -0.052   2.820 -0.2978  1.4422 -1.0430
 8054TIP3   OH224102   7.936   4.987   6.279 -1.0435  0.4787 -0.2779
 8054TIP3    H124103   7.861   5.032   6.318  0.0680  1.6348  0.6096
 8054TIP3    H224104   7.906   4.963   6.191 -2.7931 -0.0405  0.3954
 8055TIP3   OH224105   0.970   0.171   6.744  0.2991  0.7593  0.0867
 8055TIP3    H124106   0.972   0.202   6.834 -2.0462  1.1126  0.0879
 8055TIP3    H224107   1.040   0.106   6.738 -0.9231 -0.9515  2.8070
 8056TIP3   OH224108   1.047   4.495   3.475 -0.0420  0.0297  0.3736
 8056TIP3    H124109   1.109   4.564   3.452 -0.3044  0.2019  0.1827
 8056TIP3    H224110   1.019   4.459   3.391 -0.5024  0.2219  0.4443
 8057TIP3   OH224111   4.524   6.821   2.010  0.3802  0.3204  0.2207
 8057TIP3    H124112   4.562   6.733   2.022 -1.3082 -0.6322 -0.9755
 8057TIP3    H224113   4.596   6.881   2.028  2.3637 -1.3623 -1.5899
 8058TIP3   OH224114   1.150   2.753   1.708  0.2313  0.3811  0.5910
 8058TIP3    H124115   1.159   2.680   1.770  0.2903 -0.5967 -0.5384
 8058TIP3    H224116   1.057   2.775   1.712  0.0381 -0.3398  0.3223
 8059TIP3   OH224117   4.462   1.153   6.342  0.5210  0.4495 -0.4722
 8059TIP3    H124118   4.489   1.223   6.402 -1.1584 -0.7728  1.8929
 8059TIP3    H224119   4.368   1.168   6.329  0.2245 -1.0928 -0.2583
 8060TIP3   OH224120   5.609   5.087   3.154  0.7024 -0.1172 -0.4474
 8060TIP3    H124121   5.652   5.101   3.069  1.1838  2.9139  0.1863
 8060TIP3    H224122   5.530   5.140   3.149 -1.4489 -3.0378 -0.3621
 8061TIP3   OH224123   0.909   2.421   1.111  0.3116 -0.3593  0.0139
 8061TIP3    H124124   0.894   2.398   1.203  4.0696 -1.8289  0.4277
 8061TIP3    H224125   0.857   2.358   1.061 -2.1417  0.7428  0.9873
 8062TIP3   OH224126   0.475   4.872   1.079 -0.2593  0.0130 -0.1546
 8062TIP3    H124127   0.437   4.784   1.090  0.0150 -0.5677 -2.9682
 8062TIP3    H224128   0.400   4.929   1.065 -0.3612 -0.3968 -1.4928
 8063TIP3   OH224129   4.781   2.206   0.873  0.1275  0.4234  0.4480
 8063TIP3    H124130   4.818   2.136   0.926  0.0549 -0.1576 -0.2600
 8063TIP3    H224131   4.725   2.255   0.934 -2.0746 -1.7741  0.3738
 8064TIP3   OH224132   7.096   6.108   0.666  0.1045 -0.2301 -0.1510
 8064TIP3    H124133   7.039   6.031   0.670  0.9466 -0.9528 -1.2411
 8064TIP3    H224134   7.073   6.149   0.582  0.4397  0.0744 -0.0910
 8065TIP3   OH224135   4.111   4.227   0.547  0.8256  0.0130 -0.1458
 8065TIP3    H124136   4.121   4.136   0.518 -0.3147 -0.3193  0.4559
 8065TIP3    H224137   4.017   4.237   0.561  0.6987  1.8193 -1.8943
 8066TIP3   OH224138   7.520   7.582   5.243 -0.0418  0.2172  0.1961
 8066TIP3    H124139   7.444   7.526   5.259 -0.6407  0.5510 -1.3448
 8066TIP3    H224140   7.595   7.523   5.255 -0.6650 -1.1202 -1.8187
 8067TIP3   OH224141   7.220   0.141   5.893 -0.3081 -0.2389 -0.1981
 8067TIP3    H124142   7.155   0.210   5.905  0.6061  0.9538 -1.7297
 8067TIP3    H224143   7.275   0.146   5.971 -1.3910 -0.5767  0.6219
 8068TIP3   OH224144   0.592   5.814   4.430 -0.0075  0.8846  0.0754
 8068TIP3    H124145   0.519   5.755   4.452 -0.0046  0.4885 -0.9467
 8068TIP3    H224146   0.570   5.848   4.344  2.4900 -1.6810 -1.7528
 8069TIP3   OH224147   8.288   2.897   3.819 -0.4436  0.1149 -0.1441
 8069TIP3    H124148   8.380   2.917   3.802 -0.6009 -0.7694 -2.4062
 8069TIP3    H224149   8.243   2.981   3.809 -0.0289  0.3285 -0.2326
 8070TIP3   OH224150   2.311   2.027   3.775  0.1345  0.1118 -0.6425
 8070TIP3    H124151   2.287   2.115   3.746  0.2938 -0.0149 -1.1519
 8070TIP3    H224152   2.244   2.005   3.840 -0.3519  0.2989 -1.0766
 8071TIP3   OH224153   4.560   4.584   0.269 -0.2842  0.3536 -0.0039
 8071TIP3    H124154   4.548   4.632   0.187  0.5898  0.6049  0.0106
 8071TIP3    H224155   4.585   4.496   0.243 -0.8924  0.1764 -0.0126
 8072TIP3   OH224156   7.693   7.123   1.741 -0.7200  0.1137  0.3152
 8072TIP3    H124157   7.758   7.083   1.798  0.8284  2.0804  0.0089
 8072TIP3    H224158   7.692   7.215   1.765 -0.9896  0.7487 -1.9097
 8073TIP3   OH224159   4.006   4.254   3.873  0.3731 -0.7313 -0.1695
 8073TIP3    H124160   3.912   4.249   3.893  0.1582  1.8910 -0.0496
 8073TIP3    H224161   4.039   4.320   3.934  1.9599 -0.4702 -1.2559
 8074TIP3   OH224162   8.337   3.152   4.027 -0.0607  0.5725 -0.0439
 8074TIP3    H124163   8.275   3.167   3.956 -1.2219 -0.9356  0.5908
 8074TIP3    H224164   8.414   3.115   3.984 -0.8451 -0.5565 -0.5282
 8075TIP3   OH224165   2.442   0.210   1.206  0.5603  0.3640  0.2493
 8075TIP3    H124166   2.348   0.223   1.217  0.4947 -0.7664  1.3452
 8075TIP3    H224167   2.458   0.223   1.113 -0.6272  0.9089  0.1103
 8076TIP3   OH224168   3.201   3.318   1.608  0.8904 -0.3373 -0.1972
 8076TIP3    H124169   3.167   3.265   1.679  0.8969  2.1937  1.8248
 8076TIP3    H224170   3.282   3.274   1.582  0.9464 -1.2643  1.4384
 8077TIP3   OH224171   5.600   0.330   2.791  0.3160 -0.4763 -0.0188
 8077TIP3    H124172   5.523   0.310   2.845  0.7135 -2.1279 -0.0164
 8077TIP3    H224173   5.587   0.421   2.765  0.3265  0.5812  3.1880
 8078TIP3   OH224174   3.674   3.498   0.253  0.4508 -0.3409 -0.0864
 8078TIP3    H124175   3.675   3.403   0.257 -0.3914 -0.3328  0.7647
 8078TIP3    H224176   3.742   3.521   0.189 -0.2908 -1.5489 -1.3571
 8079TIP3   OH224177   0.404   1.092   5.375 -0.5971 -0.0284 -0.1045
 8079TIP3    H124178   0.401   1.091   5.470  0.1382 -1.6079 -0.0676
 8079TIP3    H224179   0.319   1.126   5.348 -1.0580 -0.1862  1.1091
 8080TIP3   OH224180   3.169   1.943   0.188  0.6612 -0.2544  0.0670
 8080TIP3    H124181   3.132   1.855   0.193 -0.8467  0.3586  0.2334
 8080TIP3    H224182   3.254   1.931   0.147  0.3006 -1.7386 -0.2997
 8081TIP3   OH224183   1.883   0.806   3.784 -0.0538  0.7990 -0.2021
 8081TIP3    H124184   1.964   0.842   3.747  0.1324 -0.4517 -1.0845
 8081TIP3    H224185   1.841   0.761   3.710 -1.0145  0.5090  0.4981
 8082TIP3   OH224186   3.375   5.309   0.627 -0.3033  0.3691  0.6517
 8082TIP3    H124187   3.344   5.282   0.714  0.5660 -0.9312  0.5753
 8082TIP3    H224188   3.313   5.269   0.566 -0.0752  0.0490  0.6236
 8083TIP3   OH224189   5.308   6.288   2.793 -0.1155 -0.5512  0.4319
 8083TIP3    H124190   5.269   6.376   2.795 -0.2954 -0.6073 -0.4898
 8083TIP3    H224191   5.244   6.232   2.836  0.4747 -0.0650  2.0386
 8084TIP3   OH224192   3.650   6.592   0.982 -0.1562  0.1279  0.1381
 8084TIP3    H124193   3.599   6.641   0.918  1.5136  0.9165 -0.6287
 8084TIP3    H224194   3.737   6.583   0.943  0.5650 -0.4280  1.7686
 8085TIP3   OH224195   2.163   6.964   2.393  0.0976  0.0107 -0.1324
 8085TIP3    H124196   2.189   6.891   2.337 -2.0593 -1.6387  0.8892
 8085TIP3    H224197   2.246   6.999   2.426  1.3139 -0.2068 -2.7158
 8086TIP3   OH224198   5.781   1.965   6.116 -0.4220  0.3966  0.1629
 8086TIP3    H124199   5.863   1.917   6.125 -0.8847 -0.2588  1.0055
 8086TIP3    H224200   5.802   2.055   6.142 -0.0419  0.1656  0.6543
 8087TIP3   OH224201   0.015   6.737   3.459 -0.0387  0.6501 -0.1245
 8087TIP3    H124202   0.068   6.808   3.495  0.2041  0.8270 -0.8156
 8087TIP3    H224203  -0.066   6.738   3.511  0.4040  0.7241  0.5843
 8088TIP3   OH224204   3.325   6.978   6.142  0.3756  0.0436 -0.1504
 8088TIP3    H124205   3.231   6.993   6.149  0.3932 -0.1221  0.4674
 8088TIP3    H224206   3.363   7.028   6.214  0.8430  0.7573 -0.8663
 8089TIP3   OH224207   0.717   1.100   1.405  0.5175  0.1244  0.1835
 8089TIP3    H124208   0.728   1.035   1.474  0.8445  0.7132  0.6872
 8089TIP3    H224209   0.662   1.056   1.340 -1.2828  0.1699  1.6094
 8090TIP3   OH224210   5.635   6.196   6.351 -0.5181  0.0902 -0.2264
 8090TIP3    H124211   5.631   6.154   6.265 -0.6847 -0.7178  0.1660
 8090TIP3    H224212   5.688   6.137   6.404 -0.2924  0.6565  0.1858
 8091TIP3   OH224213   6.213   4.180   4.489  0.3064 -0.1002 -0.2044
 8091TIP3    H124214   6.231   4.091   4.518 -1.2744  0.1224  1.6867
 8091TIP3    H224215   6.276   4.235   4.537  0.4276 -0.0866 -0.3784
 8092TIP3   OH224216   5.461   1.097   5.053 -0.6252  0.2379 -0.0038
 8092TIP3    H124217   5.409   1.136   5.123 -0.2427  0.8358 -0.0376
 8092TIP3    H224218   5.467   1.005   5.075 -1.0451  0.3090  0.4123
 8093TIP3   OH224219   4.499   5.173   5.586 -0.7730 -0.6633  0.1367
 8093TIP3    H124220   4.493   5.077   5.590 -1.8356 -0.5805  1.1537
 8093TIP3    H224221   4.484   5.202   5.676  2.6989  0.3671  0.5413
 8094TIP3   OH224222   2.013   4.934   4.948 -0.2010  0.3446  0.4077
 8094TIP3    H124223   2.061   4.946   4.866  2.4406  1.4366  1.9890
 8094TIP3    H224224   2.030   5.013   4.998 -2.0396 -0.1377  1.9179
 8095TIP3   OH224225   2.563   2.349   3.816 -0.5974 -0.2794 -0.0568
 8095TIP3    H124226   2.641   2.398   3.792  0.2570 -1.6826 -0.3019
 8095TIP3    H224227   2.589   2.301   3.895 -1.7074  0.3744  0.7170
 8096TIP3   OH224228   0.360   0.843   0.208  0.0266  0.0921 -0.3477
 8096TIP3    H124229   0.442   0.859   0.161 -0.3373  1.9760 -0.3987
 8096TIP3    H224230   0.387   0.831   0.299  0.3384  1.1027 -0.2995
 8097TIP3   OH224231   3.682   5.217   4.397  0.0759 -0.2946  0.0476
 8097TIP3    H124232   3.656   5.282   4.333 -0.4330  0.9220  1.4229
 8097TIP3    H224233   3.778   5.220   4.398  0.0554  0.6008  0.2339
 8098TIP3   OH224234   4.812   5.425   6.757  0.3277  0.3712  0.1502
 8098TIP3    H124235   4.880   5.454   6.696  1.2190 -2.2222 -0.1896
 8098TIP3    H224236   4.752   5.374   6.704 -1.3401  1.6866  0.6750
 8099TIP3   OH224237   1.319   3.338   2.774 -0.4386 -0.9142 -0.3137
 8099TIP3    H124238   1.260   3.364   2.845 -1.2299 -1.9591 -0.5564
 8099TIP3    H224239   1.405   3.334   2.815 -1.1007 -3.0561  1.0488
 8100TIP3   OH224240   5.413   2.368   3.816 -0.7401  0.0294 -0.0386
 8100TIP3    H124241   5.371   2.282   3.812 -0.8777  0.0083  1.3733
 8100TIP3    H224242   5.340   2.430   3.815 -0.6415  0.1550 -1.0559
 8101TIP3   OH224243   0.315   0.165   4.275  0.8277 -0.3078 -0.4959
 8101TIP3    H124244   0.292   0.211   4.356  1.2850  1.5736 -1.3895
 8101TIP3    H224245   0.231   0.136   4.239  0.3038  1.5900 -0.8982
 8102TIP3   OH224246   4.687   3.551   2.409 -0.3433 -0.4680 -0.2944
 8102TIP3    H124247   4.731   3.622   2.455 -1.9330 -0.3926  1.1861
 8102TIP3    H224248   4.654   3.591   2.329 -0.4374  0.2359  0.0914
 8103TIP3   OH224249   0.002   6.909   4.332 -0.3162  0.2078 -0.6904
 8103TIP3    H124250  -0.025   6.826   4.291 -0.2879 -0.1584  0.0133
 8103TIP3    H224251   0.097   6.902   4.339 -0.3625  0.0695 -0.1545
 8104TIP3   OH224252   1.213   7.185   2.546  0.5398  0.3680 -0.2848
 8104TIP3    H124253   1.301   7.205   2.513 -0.1011  1.1796 -1.5803
 8104TIP3    H224254   1.156   7.248   2.502 -0.9637 -1.4050 -0.9700
 8105TIP3   OH224255   2.600   2.505   4.369  0.3670 -0.1756 -0.0366
 8105TIP3    H124256   2.579   2.431   4.427  1.8205 -0.3335  0.3236
 8105TIP3    H224257   2.568   2.582   4.416  0.0152 -0.4504  0.1832
 8106TIP3   OH224258   3.249   5.684   5.949 -0.2275  0.5885  0.3390
 8106TIP3    H124259   3.171   5.637   5.979  1.3269 -0.6866  2.7365
 8106TIP3    H224260   3.285   5.722   6.029  1.6712  1.0340 -0.6863
 8107TIP3   OH224261   7.930   7.065   3.801  0.7681 -0.1033  0.1720
 8107TIP3    H124262   7.913   7.036   3.890  0.1172 -2.2460 -0.5925
 8107TIP3    H224263   8.003   7.127   3.809  2.7971 -2.5338  1.8750
 8108TIP3   OH224264   0.300   6.195   5.247 -0.0751  0.6835  0.2541
 8108TIP3    H124265   0.232   6.188   5.314  0.8097  0.2134  1.1211
 8108TIP3    H224266   0.382   6.182   5.294  0.5298 -0.4112 -1.0220
 8109TIP3   OH224267   8.138   0.018   2.513 -0.7850  0.4034  0.0708
 8109TIP3    H124268   8.130   0.101   2.467 -0.4326 -0.2153 -1.1559
 8109TIP3    H224269   8.166   0.042   2.601 -0.6424  1.5787 -0.2793
 8110TIP3   OH224270   1.227   3.402   5.528 -0.3318  0.2582  0.3309
 8110TIP3    H124271   1.320   3.394   5.505 -0.0007 -1.8903  2.0821
 8110TIP3    H224272   1.181   3.392   5.445  0.9776  1.2875 -0.5588
 8111TIP3   OH224273   3.529   4.680   0.745 -0.0317 -0.0817 -0.8738
 8111TIP3    H124274   3.448   4.669   0.795 -0.9444  0.7221 -2.1236
 8111TIP3    H224275   3.584   4.606   0.773 -0.4220  0.4157  1.3907
 8112TIP3   OH224276   5.685   6.678   2.331  0.1183 -0.2449 -0.2778
 8112TIP3    H124277   5.758   6.724   2.289 -0.4105  0.0957 -0.8549
 8112TIP3    H224278   5.711   6.671   2.423  0.2934  1.0874 -0.1947
 8113TIP3   OH224279   0.254   5.536   6.279 -0.3682 -0.1617  0.3537
 8113TIP3    H124280   0.222   5.449   6.253 -1.4380  0.9430 -2.3965
 8113TIP3    H224281   0.340   5.543   6.239 -0.4375  0.1838  0.2684
 8114TIP3   OH224282   5.216   3.024   3.916  0.5298 -0.1857 -0.2465
 8114TIP3    H124283   5.216   2.942   3.966 -1.8393 -0.3114 -0.3136
 8114TIP3    H224284   5.136   3.019   3.863  1.4667  1.2283 -1.9019
 8115TIP3   OH224285   0.734   4.875   5.936  0.2569 -0.0293 -0.5078
 8115TIP3    H124286   0.798   4.804   5.937  1.6217  1.1383 -0.7409
 8115TIP3    H224287   0.684   4.861   5.856 -0.3203 -1.4107  0.0794
 8116TIP3   OH224288   2.531   7.164   1.067  0.0329  0.3787 -0.0590
 8116TIP3    H124289   2.573   7.085   1.032  2.7060  1.8404 -0.4217
 8116TIP3    H224290   2.453   7.175   1.013 -1.5867 -3.0550  1.3306
 8117TIP3   OH224291   3.393   0.070   2.177 -0.3867  0.2901 -0.2364
 8117TIP3    H124292   3.342   0.018   2.114  0.1767 -1.2740  0.5354
 8117TIP3    H224293   3.467   0.014   2.199 -1.5332 -0.1182  3.2767
 8118TIP3   OH224294   0.213   7.398   1.183  0.7060  0.2502  0.1707
 8118TIP3    H124295   0.204   7.306   1.208 -1.7078  0.4250  0.1882
 8118TIP3    H224296   0.244   7.395   1.092 -0.1891 -0.6094 -0.1146
 8119TIP3   OH224297   5.154   3.602   3.334 -0.1498 -0.6647  0.0520
 8119TIP3    H124298   5.099   3.673   3.367  1.0523  0.0044  0.7292
 8119TIP3    H224299   5.171   3.548   3.411  0.8381 -0.3651  0.0564
 8120TIP3   OH224300   0.880   7.389   3.111 -0.2375 -0.0894 -0.0096
 8120TIP3    H124301   0.917   7.372   3.198  2.5780  0.7848 -0.9162
 8120TIP3    H224302   0.939   7.345   3.050 -1.7431 -0.1040 -1.5486
 8121TIP3   OH224303   3.595   3.243   1.164  0.2782 -0.3822 -0.6607
 8121TIP3    H124304   3.516   3.226   1.113 -0.2792 -1.1971  0.4410
 8121TIP3    H224305   3.575   3.322   1.214  1.1483  0.9378 -2.2943
 8122TIP3   OH224306   6.669   7.258   0.904  0.0093 -0.1609  0.0352
 8122TIP3    H124307   6.652   7.317   0.831  1.9235 -0.5069 -0.7519
 8122TIP3    H224308   6.590   7.262   0.957 -0.9783  0.9827 -1.4444
 8123TIP3   OH224309   7.705   7.820   3.657 -0.0006 -0.1075  0.0761
 8123TIP3    H124310   7.786   7.802   3.703  0.2488  1.4411  0.2777
 8123TIP3    H224311   7.638   7.772   3.706  0.3786  0.8446  1.5843
 8124TIP3   OH224312   3.785   3.740   0.609 -0.1587  0.1669  0.2663
 8124TIP3    H124313   3.737   3.658   0.598  0.3318 -0.2672  1.2174
 8124TIP3    H224314   3.826   3.732   0.696  2.0512  0.2810 -0.7027
 8125TIP3   OH224315   3.789   6.153   2.269 -0.8060 -0.9031  0.6998
 8125TIP3    H124316   3.820   6.234   2.309 -0.2749 -0.9929  0.4787
 8125TIP3    H224317   3.798   6.168   2.174 -0.7418 -1.1997  0.6567
 8126TIP3   OH224318   5.499   3.929   3.927 -0.2353 -0.4389 -0.3835
 8126TIP3    H124319   5.561   3.953   3.996 -0.7802  0.9186 -0.3280
 8126TIP3    H224320   5.539   3.854   3.883  0.8929 -0.3039  0.3699
 8127TIP3   OH224321   7.117   7.488   1.719  0.7810 -0.3688  0.3378
 8127TIP3    H124322   7.076   7.481   1.806 -0.1681  0.5927 -0.0139
 8127TIP3    H224323   7.186   7.422   1.720 -0.5080 -1.7731  1.1029
 8128TIP3   OH224324   5.174   3.752   0.856  0.3138  0.4134 -0.4808
 8128TIP3    H124325   5.220   3.835   0.866 -1.9349  1.8869 -1.2935
 8128TIP3    H224326   5.160   3.721   0.945  0.0491  1.6288 -0.0738
 8129TIP3   OH224327   1.993   1.490   1.139  0.0999  0.3172 -0.1758
 8129TIP3    H124328   2.037   1.408   1.115 -1.5803 -0.4140 -0.9253
 8129TIP3    H224329   2.039   1.520   1.217  2.6732  0.2239 -1.5485
 8130TIP3   OH224330   8.360   0.893   2.532  0.2894  0.0938  0.4869
 8130TIP3    H124331   8.365   0.919   2.623 -1.0160  1.2508  0.2535
 8130TIP3    H224332   8.399   0.966   2.484  2.1705 -1.0620  0.1612
 8131TIP3   OH224333   4.292   7.521   0.125  0.5696 -0.1927  0.1929
 8131TIP3    H124334   4.312   7.461   0.197  0.9422  0.2557  0.4687
 8131TIP3    H224335   4.356   7.499   0.057  1.1636  0.3460  0.5620
 8132TIP3   OH224336   8.337   3.706   1.379 -0.3222  0.1963 -0.5117
 8132TIP3    H124337   8.354   3.756   1.299  1.0321 -0.5195 -0.7096
 8132TIP3    H224338   8.285   3.764   1.433 -0.9994  0.8195 -1.7847
 8133TIP3   OH224339   3.082   3.609   5.694 -0.1201 -0.1986  0.3443
 8133TIP3    H124340   3.109   3.533   5.642  0.1386 -0.0223  0.2161
 8133TIP3    H224341   2.992   3.626   5.667  0.1784  0.2121 -0.4421
 8134TIP3   OH224342   1.201   6.116   0.164 -0.1919  0.1051  0.4692
 8134TIP3    H124343   1.114   6.153   0.180 -0.1852  0.4934 -0.3625
 8134TIP3    H224344   1.205   6.039   0.220 -0.7001  0.6297  1.2491
 8135TIP3   OH224345   0.677   3.936   4.372  0.2822 -0.1333  0.4350
 8135TIP3    H124346   0.590   3.966   4.399  0.0670  0.4515 -0.8165
 8135TIP3    H224347   0.670   3.926   4.277  1.3783 -0.7894  0.4078
 8136TIP3   OH224348   0.989   2.211   2.373 -0.0108  0.2628  0.0902
 8136TIP3    H124349   1.021   2.142   2.314  0.8659  2.7595 -2.5846
 8136TIP3    H224350   0.949   2.163   2.446 -1.6056 -3.0750 -2.6957
 8137TIP3   OH224351   1.997   3.802   4.229 -0.3373 -0.2452 -0.4257
 8137TIP3    H124352   2.003   3.718   4.185 -1.6298  0.2812 -1.7017
 8137TIP3    H224353   1.965   3.780   4.317 -0.5593 -1.0945 -0.7053
 8138TIP3   OH224354   4.225   5.437   2.069 -0.1722 -0.3765 -0.0733
 8138TIP3    H124355   4.212   5.470   1.981 -0.6103  0.3492  0.2511
 8138TIP3    H224356   4.151   5.472   2.119  0.0329 -0.8299  0.5637
 8139TIP3   OH224357   7.103   6.109   6.050  0.2088  0.4001 -0.1516
 8139TIP3    H124358   7.050   6.030   6.064  1.3878 -1.0688 -3.0909
 8139TIP3    H224359   7.157   6.115   6.129 -0.6807 -1.0730  0.6254
 8140TIP3   OH224360   3.036   7.113   0.220 -0.0287 -0.4235 -0.1686
 8140TIP3    H124361   3.115   7.167   0.233  0.9579 -1.8658  0.0970
 8140TIP3    H224362   3.021   7.072   0.305 -0.4734 -0.9361 -0.4908
 8141TIP3   OH224363   4.542   6.727   6.309 -0.0439 -0.3414  0.6622
 8141TIP3    H124364   4.587   6.658   6.358  1.7606  0.5275  0.2980
 8141TIP3    H224365   4.598   6.804   6.319 -1.1737  0.6402 -0.2981
 8142TIP3   OH224366   7.527   2.511   2.704 -0.0988  0.1387  0.8766
 8142TIP3    H124367   7.574   2.587   2.740  2.1872 -1.0936  0.7016
 8142TIP3    H224368   7.506   2.458   2.781  0.5784 -0.2400  0.8089
 8143TIP3   OH224369   1.114   3.687   2.422  0.1195 -0.3667 -0.2835
 8143TIP3    H124370   1.169   3.702   2.498 -1.5161 -0.4815  0.9825
 8143TIP3    H224371   1.121   3.593   2.405  0.5450 -0.3284 -0.3301
 8144TIP3   OH224372   2.367   2.554   1.162  0.4387  0.0084 -0.4321
 8144TIP3    H124373   2.295   2.581   1.106  0.2425 -0.8342 -0.6079
 8144TIP3    H224374   2.340   2.577   1.251  0.2975  0.4029 -0.5771
 8145TIP3   OH224375   1.157   5.945   4.500  0.2487  0.0315 -0.3104
 8145TIP3    H124376   1.236   5.990   4.471  0.5019  0.6731  1.2467
 8145TIP3    H224377   1.177   5.916   4.589 -1.0340 -0.3835 -0.1294
 8146TIP3   OH224378   5.292   7.402   0.201 -0.0554 -0.0735 -0.5758
 8146TIP3    H124379   5.353   7.347   0.251  0.7901  0.6581 -0.7657
 8146TIP3    H224380   5.295   7.365   0.112  0.6212  0.3551 -0.7375
 8147TIP3   OH224381   8.398   3.172   1.468 -0.0685 -0.2670 -0.6531
 8147TIP3    H124382   8.381   3.162   1.374 -2.9025 -0.2569 -0.2124
 8147TIP3    H224383   8.343   3.106   1.510  0.9689 -0.1162  1.0555
 8148TIP3   OH224384   0.098   7.030   2.866  0.1644  0.2577 -0.1368
 8148TIP3    H124385   0.091   7.036   2.961 -1.6129  2.1123 -0.3135
 8148TIP3    H224386   0.067   6.942   2.845 -1.2241  0.4643  0.9064
 8149TIP3   OH224387   2.629   1.752   2.366  0.4727  0.2064 -0.0561
 8149TIP3    H124388   2.674   1.766   2.449 -0.3175  1.0020  0.2515
 8149TIP3    H224389   2.621   1.840   2.328 -0.6857  0.0692 -0.1700
 8150TIP3   OH224390   2.468   6.442   6.092  0.3385  0.5597 -0.0630
 8150TIP3    H124391   2.505   6.368   6.139 -2.7909  0.0522  1.8288
 8150TIP3    H224392   2.397   6.405   6.040  0.2807  1.9170 -1.0089
 8151TIP3   OH224393   3.397   1.660   4.072 -0.0731  0.3329 -0.2824
 8151TIP3    H124394   3.469   1.723   4.077 -1.1761  1.6642 -0.6751
 8151TIP3    H224395   3.322   1.706   4.109 -0.2672 -1.8401  2.3761
 8152TIP3   OH224396   4.703   5.747   2.141  0.1975 -0.2783 -0.2794
 8152TIP3    H124397   4.625   5.730   2.088  0.7411  2.4632 -2.1431
 8152TIP3    H224398   4.670   5.799   2.215  0.0683 -0.1548 -0.4216
 8153TIP3   OH224399   7.990   7.373   3.366  0.3214 -0.0975 -0.2128
 8153TIP3    H124400   8.076   7.344   3.337  0.1591  0.5227 -1.3754
 8153TIP3    H224401   7.943   7.394   3.285 -1.0535 -0.7754  0.3738
 8154TIP3   OH224402   8.266   1.838   2.822  0.2339  0.0862  0.1048
 8154TIP3    H124403   8.214   1.884   2.889  2.5827  0.6070  1.7003
 8154TIP3    H224404   8.314   1.908   2.777  0.8601 -0.4933 -0.1401
 8155TIP3   OH224405   1.306   1.532   2.154 -0.2278 -0.3566 -0.4374
 8155TIP3    H124406   1.352   1.450   2.171 -0.8472 -0.8655 -1.1251
 8155TIP3    H224407   1.229   1.506   2.104  0.3693  0.7992 -2.0474
 8156TIP3   OH224408   8.212   1.068   5.285  0.2853 -0.5628  0.2380
 8156TIP3    H124409   8.219   1.121   5.205 -1.0511 -0.4138  0.1898
 8156TIP3    H224410   8.286   1.008   5.281  1.4735  0.8692 -0.0377
 8157TIP3   OH224411   2.473   5.242   1.324  0.0815  0.3695 -0.4976
 8157TIP3    H124412   2.502   5.331   1.345  1.6589 -0.8942  3.7074
 8157TIP3    H224413   2.396   5.229   1.380  0.8733 -1.3804  0.2435
 8158TIP3   OH224414   2.584   4.642   0.760  0.0886  0.6694  0.1257
 8158TIP3    H124415   2.509   4.687   0.721 -0.8244 -1.0567 -0.2473
 8158TIP3    H224416   2.561   4.632   0.852  1.2643  2.8092  0.7023
 8159TIP3   OH224417   7.538   7.357   2.423 -0.3648  0.4657  0.0964
 8159TIP3    H124418   7.448   7.384   2.405 -0.6250 -1.2060 -1.5338
 8159TIP3    H224419   7.575   7.339   2.336  0.2916 -2.4888  0.8708
 8160TIP3   OH224420   0.878   6.759   4.008 -0.0149 -0.8926 -0.3546
 8160TIP3    H124421   0.887   6.692   4.076 -0.2610 -2.8619 -2.1855
 8160TIP3    H224422   0.784   6.782   4.009  0.0620 -0.5657  0.2374
 8161TIP3   OH224423   5.564   1.353   6.602 -0.7509  0.1927 -0.0631
 8161TIP3    H124424   5.471   1.329   6.610 -1.0260  1.4867  0.7985
 8161TIP3    H224425   5.573   1.433   6.652  0.8329  0.1526 -0.2349
 8162TIP3   OH224426   3.441   7.640   2.897  0.1362 -0.9118 -0.5510
 8162TIP3    H124427   3.532   7.636   2.870  0.9993 -2.1389  2.2490
 8162TIP3    H224428   3.434   7.722   2.947  0.1427 -1.5642  0.5501
 8163TIP3   OH224429   2.765   0.556   1.991 -0.0473  0.4981  0.4482
 8163TIP3    H124430   2.769   0.546   2.086  0.3063  0.7786  0.4636
 8163TIP3    H224431   2.846   0.516   1.959 -0.7401 -0.7280  0.1628
 8164TIP3   OH224432   7.556   1.787   2.115  0.3618  0.3824 -0.2977
 8164TIP3    H124433   7.598   1.704   2.092 -0.7387 -0.1682 -0.3800
 8164TIP3    H224434   7.466   1.778   2.082  0.2745  1.6728 -0.4484
 8165TIP3   OH224435   3.386   7.383   5.547  0.0000  0.0220 -0.0418
 8165TIP3    H124436   3.470   7.356   5.582  0.2448  0.7545 -0.0483
 8165TIP3    H224437   3.341   7.301   5.527 -0.7675 -0.5408  3.3466
 8166TIP3   OH224438   3.818   2.822   1.087  0.5216 -0.7394 -0.4058
 8166TIP3    H124439   3.865   2.869   1.156  0.5511 -0.9898 -0.2530
 8166TIP3    H224440   3.792   2.739   1.128 -1.9896  0.2688  0.2382
 8167TIP3   OH224441   2.072   6.353   5.673 -0.1505  0.3673 -0.2134
 8167TIP3    H124442   2.058   6.339   5.767 -1.0665 -2.1647 -0.6359
 8167TIP3    H224443   1.989   6.385   5.640 -0.6876 -1.2413 -0.5183
 8168TIP3   OH224444   1.699   0.498   0.302  0.3348  0.5251  0.1978
 8168TIP3    H124445   1.674   0.526   0.214 -0.6887 -0.5548  0.1232
 8168TIP3    H224446   1.617   0.468   0.342  0.7214  1.2879  1.6394
 8169TIP3   OH224447   5.961   5.345   1.086 -0.2867  0.1322 -0.3407
 8169TIP3    H124448   6.012   5.292   1.025  0.0700  1.8077 -1.5663
 8169TIP3    H224449   5.922   5.413   1.032  0.5620  2.0756  1.3757
 8170TIP3   OH224450   6.301   1.115   0.226 -0.1345  0.7848 -0.1759
 8170TIP3    H124451   6.313   1.031   0.271  1.4131 -0.1036 -2.1071
 8170TIP3    H224452   6.367   1.172   0.266 -0.2017  0.6500  0.1339
 8171TIP3   OH224453   6.282   3.753   4.819 -0.0363  0.0612  0.1543
 8171TIP3    H124454   6.351   3.813   4.847  0.3393 -1.1470  1.9924
 8171TIP3    H224455   6.232   3.735   4.899 -1.2019 -0.7166 -0.7165
 8172TIP3   OH224456   5.529   4.947   2.149  1.0572  0.1689 -0.0155
 8172TIP3    H124457   5.472   4.870   2.138  2.5621 -1.2119  1.3031
 8172TIP3    H224458   5.472   5.014   2.185  0.6065 -1.8900  3.5697
 8173TIP3   OH224459   0.896   6.033   4.736 -0.5247  0.4422  0.1425
 8173TIP3    H124460   0.874   6.071   4.651 -1.7301 -2.7407 -1.1317
 8173TIP3    H224461   0.812   6.021   4.780 -0.0309  0.7764  1.2177
 8174TIP3   OH224462   3.129   4.497   5.440  0.2902 -0.4679 -0.4169
 8174TIP3    H124463   3.206   4.446   5.416  0.5548  0.2267 -1.0746
 8174TIP3    H224464   3.126   4.492   5.536  1.4356 -0.0876 -0.3488
 8175TIP3   OH224465   0.987  -0.028   6.286  0.6735  0.3139 -0.5370
 8175TIP3    H124466   0.907   0.017   6.313 -0.2612 -0.2584 -2.1776
 8175TIP3    H224467   1.058   0.022   6.325 -0.2527  3.4941 -2.5740
 8176TIP3   OH224468   5.226   2.821   1.440  0.0835 -0.1397  0.1801
 8176TIP3    H124469   5.248   2.825   1.533  0.5940 -0.3305  0.0764
 8176TIP3    H224470   5.286   2.755   1.405 -2.3305 -2.6025  0.3220
 8177TIP3   OH224471   1.718   3.905   2.724 -0.3152 -0.0393 -0.2291
 8177TIP3    H124472   1.692   3.996   2.737  0.2722 -0.0016  0.7744
 8177TIP3    H224473   1.685   3.883   2.637 -0.7068  1.0415 -0.3705
 8178TIP3   OH224474   5.222   7.156   0.021 -0.0615 -0.0917 -0.1453
 8178TIP3    H124475   5.142   7.113   0.053 -0.3530  0.3988 -0.2019
 8178TIP3    H224476   5.276   7.168   0.099 -0.8330  1.2358  0.2048
 8179TIP3   OH224477   1.898   0.764   1.994 -0.3940 -0.7811 -0.1677
 8179TIP3    H124478   1.892   0.668   1.992  1.9311 -0.9863 -1.0266
 8179TIP3    H224479   1.983   0.783   1.955 -0.1976  1.5946  1.2199
 8180TIP3   OH224480   7.566   6.230   0.585 -0.4080  0.0746 -0.2708
 8180TIP3    H124481   7.541   6.164   0.521 -0.4769  0.3493 -0.5255
 8180TIP3    H224482   7.569   6.312   0.536  3.3580 -0.2243 -0.8830
 8181TIP3   OH224483   7.956   4.537   6.099  0.0215 -0.2970  0.4605
 8181TIP3    H124484   7.864   4.560   6.087  0.2512  1.0150  1.0062
 8181TIP3    H224485   7.956   4.443   6.118 -0.9230 -0.9950 -2.4606
 8182TIP3   OH224486   4.056   5.056   3.677  0.3474  0.0315  0.1767
 8182TIP3    H124487   4.035   5.105   3.597  1.1097 -0.1830 -0.1647
 8182TIP3    H224488   4.142   5.088   3.702  0.5595 -0.6508  0.3291
 8183TIP3   OH224489   0.828   2.865   4.507  0.1207  0.0382 -0.1227
 8183TIP3    H124490   0.922   2.878   4.495  0.0902  1.6168  1.0865
 8183TIP3    H224491   0.787   2.938   4.461 -0.3742  0.7474  1.3790
 8184TIP3   OH224492   6.925   0.042   6.667 -0.2895  0.2783  0.5649
 8184TIP3    H124493   7.003  -0.010   6.686  0.0094  0.0973 -1.0269
 8184TIP3    H224494   6.935   0.067   6.575 -0.3412  3.2687  1.2687
 8185TIP3   OH224495   2.613   7.731   0.669 -0.2343 -0.1939  0.5437
 8185TIP3    H124496   2.671   7.799   0.701 -0.2398  0.7471 -1.3005
 8185TIP3    H224497   2.581   7.764   0.585  0.5609 -2.8874 -0.9548
 8186TIP3   OH224498   3.547   4.108   5.411  0.4452 -0.5519  0.2544
 8186TIP3    H124499   3.554   4.021   5.370  0.2594 -0.2818 -0.3549
 8186TIP3    H224500   3.638   4.131   5.432  0.3781 -1.4966  1.7128
 8187TIP3   OH224501   6.463   5.587   0.236 -0.6534 -0.3400 -0.1552
 8187TIP3    H124502   6.481   5.655   0.301  0.0567 -1.4485  0.8432
 8187TIP3    H224503   6.535   5.593   0.174  0.1757 -1.0741  0.7101
 8188TIP3   OH224504   1.174   1.702   0.865 -0.5072  0.1444 -0.4672
 8188TIP3    H124505   1.247   1.642   0.850 -1.2281 -0.8135 -0.1975
 8188TIP3    H224506   1.212   1.774   0.915  0.5079  0.2422 -1.3469
 8189TIP3   OH224507   4.599   6.212   4.713 -0.5527  0.6794  0.1734
 8189TIP3    H124508   4.675   6.231   4.768 -1.1370  0.9111  0.9209
 8189TIP3    H224509   4.627   6.234   4.624  1.0497 -1.5222  0.0611
 8190TIP3   OH224510   0.778   0.271   1.874 -0.7406 -0.3055 -0.0093
 8190TIP3    H124511   0.808   0.217   1.801  2.7506 -0.4363  1.3289
 8190TIP3    H224512   0.758   0.356   1.835 -1.1202 -1.0096 -1.3967
 8191TIP3   OH224513   0.525   7.295   0.191  0.1866  0.3545 -0.1337
 8191TIP3    H124514   0.598   7.234   0.179 -0.9802 -1.3280  0.8581
 8191TIP3    H224515   0.552   7.374   0.144  2.6646 -0.1596  0.2669
 8192TIP3   OH224516   0.192   4.782   0.814 -0.1251 -0.0873  0.0717
 8192TIP3    H124517   0.170   4.690   0.826  0.7616 -0.2048  0.8791
 8192TIP3    H224518   0.151   4.827   0.888 -0.2683  0.1296 -0.1347
 8193TIP3   OH224519   6.214   1.991   2.066 -0.3567  0.2275 -0.6283
 8193TIP3    H124520   6.229   2.081   2.093  0.4022  0.1090 -0.6288
 8193TIP3    H224521   6.245   1.987   1.976  0.6589 -0.2965 -0.2688
 8194TIP3   OH224522   4.811   7.605   2.032  0.2704  0.6332  0.0480
 8194TIP3    H124523   4.824   7.684   2.084  0.3641  0.9588 -0.4712
 8194TIP3    H224524   4.768   7.635   1.952  1.3450  0.3306 -0.6618
 8195TIP3   OH224525   7.271   0.969   4.294  0.1423 -0.2197  0.3975
 8195TIP3    H124526   7.314   1.051   4.270  0.4115 -0.7293 -0.9770
 8195TIP3    H224527   7.254   0.926   4.210 -3.3296  0.0732  0.7860
 8196TIP3   OH224528   6.204   0.527   3.962  0.1057  0.1116 -0.4696
 8196TIP3    H124529   6.223   0.434   3.951 -0.6674 -0.2451  0.9569
 8196TIP3    H224530   6.143   0.548   3.891 -0.9635 -0.8802  0.1192
 8197TIP3   OH224531   4.622   1.159   1.634  0.4566 -0.3400 -0.1833
 8197TIP3    H124532   4.610   1.123   1.546 -0.5562  0.6325 -0.4688
 8197TIP3    H224533   4.714   1.187   1.636  0.5034 -0.4206 -0.9167
 8198TIP3   OH224534   7.170   3.107   3.031  0.2442  0.3828  0.0106
 8198TIP3    H124535   7.101   3.041   3.033 -1.2068  1.7977  2.8459
 8198TIP3    H224536   7.240   3.069   3.083  0.6477 -0.0400 -0.8085
 8199TIP3   OH224537   0.188   7.481   4.107  0.5967  0.2384  0.2476
 8199TIP3    H124538   0.217   7.412   4.166  1.1176 -0.6256 -0.9596
 8199TIP3    H224539   0.126   7.533   4.158  1.0784 -0.4323  1.5441
 8200TIP3   OH224540   3.454   1.055   2.193  0.0511 -0.3811 -0.2485
 8200TIP3    H124541   3.364   1.064   2.160  0.2598  0.0897 -0.7058
 8200TIP3    H224542   3.493   1.141   2.178 -0.0543  0.0913  1.8936
 8201TIP3   OH224543   6.069   0.241   4.286 -0.3413 -0.2708 -0.5829
 8201TIP3    H124544   6.090   0.177   4.354 -0.3061 -0.6527 -0.9568
 8201TIP3    H224545   6.126   0.219   4.213 -1.0188 -0.4270 -1.0749
 8202TIP3   OH224546   6.642   2.640   4.597  0.1319 -0.6062  0.8949
 8202TIP3    H124547   6.603   2.696   4.530  1.6905  0.8675  1.1430
 8202TIP3    H224548   6.581   2.646   4.671 -0.8887 -1.1299  0.1282
 8203TIP3   OH224549   2.900   2.630   6.370 -0.2991  0.7639  0.4946
 8203TIP3    H124550   2.979   2.684   6.367  1.0159 -1.1125 -0.9464
 8203TIP3    H224551   2.890   2.597   6.280 -1.8806 -0.2254  0.9890
 8204TIP3   OH224552   4.956   4.445   3.428 -0.2808 -0.0607 -0.3329
 8204TIP3    H124553   4.983   4.437   3.520 -0.8642  4.6128  0.4836
 8204TIP3    H224554   4.865   4.415   3.428 -1.0587  2.0076  1.2862
 8205TIP3   OH224555   7.886   0.044   4.211 -0.1587  0.3419 -0.9837
 8205TIP3    H124556   7.825   0.039   4.138 -0.9786  0.0894 -0.2980
 8205TIP3    H224557   7.901   0.137   4.225 -0.2744  0.3992 -1.2494
 8206TIP3   OH224558   5.218   3.314   0.361 -0.5433  0.5234  0.3661
 8206TIP3    H124559   5.130   3.282   0.340 -0.3303  0.1317  0.0724
 8206TIP3    H224560   5.263   3.238   0.399 -0.5454  0.9011  1.1453
 8207TIP3   OH224561   0.213   4.268   2.459  0.3593 -0.6203 -0.0389
 8207TIP3    H124562   0.138   4.241   2.406 -1.2115 -0.7393  2.1076
 8207TIP3    H224563   0.238   4.189   2.506  1.7223 -0.5138 -0.5471
 8208TIP3   OH224564   4.606   0.567   1.569 -0.3875 -0.1744  0.2483
 8208TIP3    H124565   4.517   0.531   1.573 -0.6031  0.4778  1.8351
 8208TIP3    H224566   4.593   0.661   1.557  0.0819 -0.0208  0.9350
 8209TIP3   OH224567   2.761   2.481   2.736 -0.6817 -0.0365  0.3935
 8209TIP3    H124568   2.832   2.491   2.799 -0.0993  3.0035 -0.6224
 8209TIP3    H224569   2.796   2.422   2.670 -0.8760 -2.2987  2.1522
 8210TIP3   OH224570   7.684   7.813   5.079  0.2528  0.2931  0.2444
 8210TIP3    H124571   7.728   7.860   5.150 -0.8743  2.6166 -0.5202
 8210TIP3    H224572   7.648   7.735   5.121  0.6638  0.9815  1.9481
 8211TIP3   OH224573   5.842   4.002   1.079 -0.2878 -0.5508  0.0395
 8211TIP3    H124574   5.757   3.978   1.117  0.7713  0.3137  3.2487
 8211TIP3    H224575   5.856   4.092   1.106  1.9412 -0.8894  0.1835
 8212TIP3   OH224576   2.082   7.875   2.978  0.2554 -0.2283 -0.9041
 8212TIP3    H124577   2.158   7.878   3.037 -0.2999 -1.8595 -0.0433
 8212TIP3    H224578   2.117   7.900   2.893  1.4509  0.4465 -0.2567
 8213TIP3   OH224579   4.551   0.105   1.668  0.2092  0.2135  0.6884
 8213TIP3    H124580   4.484   0.103   1.736 -0.0153 -1.6416  0.4868
 8213TIP3    H224581   4.624   0.154   1.706  0.1912 -0.9735  2.3989
 8214TIP3   OH224582   8.191   4.937   4.906 -0.9337  0.2038 -0.1170
 8214TIP3    H124583   8.103   4.912   4.876 -1.4365  0.3962  1.1508
 8214TIP3    H224584   8.250   4.881   4.855 -1.8176 -0.3281 -0.5862
 8215TIP3   OH224585   5.144   1.282   3.346  0.1059 -0.0853 -0.6769
 8215TIP3    H124586   5.214   1.248   3.290  0.4927  0.3208 -0.4420
 8215TIP3    H224587   5.146   1.225   3.424  0.5351  0.2662 -0.4296
 8216TIP3   OH224588   3.289   2.229   4.002 -0.2074  0.9428  0.7676
 8216TIP3    H124589   3.360   2.277   4.043 -0.9153  1.9921  0.8052
 8216TIP3    H224590   3.301   2.242   3.908  0.5880 -0.2723  0.6753
 8217TIP3   OH224591   3.694   7.924   4.163 -0.5122  0.0871  0.3049
 8217TIP3    H124592   3.643   7.849   4.194  1.4777 -0.9379  1.3132
 8217TIP3    H224593   3.721   7.899   4.075  1.0448 -0.9363  1.0260
 8218TIP3   OH224594   0.346   5.366   4.490  0.9299 -0.2518  0.3745
 8218TIP3    H124595   0.324   5.279   4.522  0.5955 -0.1058  0.5475
 8218TIP3    H224596   0.318   5.366   4.398 -1.5015  0.5172  1.0515
 8219TIP3   OH224597   7.946   4.701   6.855  0.1558 -0.6284 -0.3733
 8219TIP3    H124598   7.993   4.716   6.773  0.1830  0.8184 -0.1219
 8219TIP3    H224599   7.900   4.783   6.871 -3.1494 -2.1915 -1.0132
 8220TIP3   OH224600   2.942   6.248   5.261  0.2246  0.0411 -0.0890
 8220TIP3    H124601   2.908   6.279   5.177  2.8920  1.3664 -0.8106
 8220TIP3    H224602   3.009   6.183   5.237  0.7034  0.0994  1.0250
 8221TIP3   OH224603   3.477   4.287   3.815 -0.2995  0.6113  0.2359
 8221TIP3    H124604   3.484   4.289   3.911  0.8956  2.1852  0.1640
 8221TIP3    H224605   3.401   4.232   3.798  1.1987 -2.2956  1.9859
 8222TIP3   OH224606   0.436   1.848   0.707  0.6145 -0.0693  0.2359
 8222TIP3    H124607   0.529   1.862   0.688  0.3584  1.3999 -0.0669
 8222TIP3    H224608   0.433   1.833   0.802  1.0539  1.0465  0.4411
 8223TIP3   OH224609   6.538   3.098   0.104 -0.1995  0.0259  0.0658
 8223TIP3    H124610   6.594   3.175   0.114 -1.2640  0.5348  2.9936
 8223TIP3    H224611   6.568   3.037   0.172 -2.1094 -0.3441  0.6217
 8224TIP3   OH224612   5.055   3.475   1.694  0.5820 -0.2546 -0.0715
 8224TIP3    H124613   5.150   3.479   1.703  0.6582 -0.1322 -0.8589
 8224TIP3    H224614   5.027   3.566   1.690  0.3213 -0.2603  1.0527
 8225TIP3   OH224615   0.148   4.158   5.078  1.1369  0.7282  0.0681
 8225TIP3    H124616   0.243   4.157   5.087  1.4227 -1.0596 -2.2415
 8225TIP3    H224617   0.127   4.245   5.044  2.1719  0.5561 -1.0630
 8226TIP3   OH224618   5.705   3.643   4.021 -0.6201 -0.3705  0.3433
 8226TIP3    H124619   5.683   3.667   3.931 -0.7460 -1.8307 -0.0363
 8226TIP3    H224620   5.781   3.697   4.042 -0.8710  0.3205 -0.4743
 8227TIP3   OH224621   3.174   7.784   6.301 -0.0960 -0.2039 -0.2276
 8227TIP3    H124622   3.138   7.849   6.240  1.2541 -0.9647 -1.9277
 8227TIP3    H224623   3.199   7.710   6.245  1.1435 -0.9870  1.2782
 8228TIP3   OH224624   1.548   3.219   4.707 -0.0544 -0.3161 -0.5149
 8228TIP3    H124625   1.494   3.156   4.659  1.4569 -1.9733 -0.1285
 8228TIP3    H224626   1.601   3.262   4.639 -1.3908  0.9137 -0.8290
 8229TIP3   OH224627   4.437   3.977   0.702  0.3060  0.4518 -0.3881
 8229TIP3    H124628   4.342   3.979   0.689  0.4346 -0.0333 -1.4566
 8229TIP3    H224629   4.460   4.068   0.722 -0.1261  0.9799 -2.1645
 8230TIP3   OH224630   7.122   3.814   0.126 -0.9728  0.3702  0.4571
 8230TIP3    H124631   7.117   3.757   0.050  0.8659  0.1498  0.4719
 8230TIP3    H224632   7.209   3.799   0.162 -1.7158  0.6309  2.4906
 8231TIP3   OH224633   2.127   3.982   3.151 -0.3041 -0.6129  0.0661
 8231TIP3    H124634   2.146   3.902   3.200 -0.9609 -1.2351 -0.6640
 8231TIP3    H224635   2.187   3.979   3.076 -0.2863 -0.3780  0.0679
 8232TIP3   OH224636   4.239   6.041   4.228  0.4712  0.4360  0.2450
 8232TIP3    H124637   4.332   6.048   4.248  0.6559 -0.6054 -0.1627
 8232TIP3    H224638   4.202   5.992   4.302  0.1245  1.3995  0.7167
 8233TIP3   OH224639   3.972   2.851   4.506  0.5544  0.2248 -0.0515
 8233TIP3    H124640   4.062   2.823   4.522  0.4562 -0.7500 -1.0418
 8233TIP3    H224641   3.957   2.924   4.567  1.6739 -0.2553  0.8173
 8234TIP3   OH224642   8.325   3.862   3.036 -0.2424 -0.0432  0.0257
 8234TIP3    H124643   8.377   3.841   3.114 -1.2559 -0.8290  0.5124
 8234TIP3    H224644   8.369   3.816   2.965 -0.1616 -0.5590  0.4026
 8235TIP3   OH224645   0.103   4.893   4.202 -0.4604  0.3805  0.2415
 8235TIP3    H124646   0.088   4.941   4.283 -0.1219 -0.8306  1.0518
 8235TIP3    H224647   0.128   4.960   4.138 -0.7367  1.3540  1.1307
 8236TIP3   OH224648   1.805   2.742   5.926 -0.2977  0.4215  0.2319
 8236TIP3    H124649   1.805   2.647   5.939 -0.5813  0.3195 -0.4825
 8236TIP3    H224650   1.778   2.778   6.011  0.5814 -0.0940  0.7395
 8237TIP3   OH224651   7.742   0.238   2.003  0.1519  0.4210 -0.7165
 8237TIP3    H124652   7.761   0.332   1.997  1.4035  0.2553  0.2049
 8237TIP3    H224653   7.647   0.233   2.011  0.1233  1.6586 -0.0574
 8238TIP3   OH224654   2.158   6.320   6.629  0.3873  0.3644  0.5119
 8238TIP3    H124655   2.251   6.318   6.607  0.2791  0.3794  0.0330
 8238TIP3    H224656   2.129   6.408   6.606 -0.7288 -0.8363 -3.6874
 8239TIP3   OH224657   2.196   6.295   5.293 -0.3964 -0.1414  0.0596
 8239TIP3    H124658   2.170   6.252   5.375  2.3702 -0.8462  0.6408
 8239TIP3    H224659   2.184   6.228   5.226 -2.2265  0.2967 -0.1255
 8240TIP3   OH224660   5.414   3.410   4.420  0.0136 -0.5739  0.1564
 8240TIP3    H124661   5.415   3.427   4.326  0.8248 -0.1760  0.2261
 8240TIP3    H224662   5.361   3.331   4.430  0.5519 -1.0668 -0.7198
 8241TIP3   OH224663   0.150   2.816   4.491  0.2903 -0.1311 -0.0649
 8241TIP3    H124664   0.062   2.782   4.506  0.1576  0.0619 -0.3982
 8241TIP3    H224665   0.204   2.738   4.478  0.0122 -0.2249 -0.7054
 8242TIP3   OH224666   8.069   1.505   2.900  0.2041  0.5905  0.2011
 8242TIP3    H124667   8.081   1.536   2.810  1.9668 -1.5421 -0.3760
 8242TIP3    H224668   7.992   1.447   2.895 -0.6420  1.6643  0.4337
 8243TIP3   OH224669   2.442   3.242   5.289 -0.0490 -0.2564  0.0745
 8243TIP3    H124670   2.359   3.194   5.283  0.7031 -1.5978 -0.0004
 8243TIP3    H224671   2.488   3.220   5.207  0.6899 -0.1309  0.4504
 8244TIP3   OH224672   2.486   4.189   6.187  0.0124 -0.2801 -0.0313
 8244TIP3    H124673   2.412   4.130   6.188 -0.2593  0.0006 -1.3265
 8244TIP3    H224674   2.464   4.257   6.251 -0.6362 -0.4575 -0.0618
 8245TIP3   OH224675   7.150   0.320   4.155 -0.0291  0.3632  0.3525
 8245TIP3    H124676   7.173   0.300   4.246 -1.2098  0.8976  0.7895
 8245TIP3    H224677   7.084   0.389   4.161 -1.2783 -0.6656 -0.8430
 8246TIP3   OH224678   6.273   6.122   1.570  0.1706 -0.2112 -0.3978
 8246TIP3    H124679   6.263   6.045   1.626  0.2934 -0.4363 -0.6835
 8246TIP3    H224680   6.184   6.144   1.544 -0.7631  3.3205  4.3792
 8247TIP3   OH224681   0.452   1.841   4.236  0.5853 -0.1093  0.2483
 8247TIP3    H124682   0.417   1.755   4.212  0.9721  0.3064 -2.1021
 8247TIP3    H224683   0.547   1.828   4.240  1.0288  0.7163 -3.3638
 8248TIP3   OH224684   5.345   7.241   2.587 -0.8031  0.5471  0.0724
 8248TIP3    H124685   5.393   7.159   2.582 -0.6907  0.6664 -1.0101
 8248TIP3    H224686   5.355   7.269   2.678  1.2543  0.6051 -0.1343
 8249TIP3   OH224687   0.701   2.973   1.803  0.1448  0.2752 -0.1420
 8249TIP3    H124688   0.774   2.987   1.862  0.0518  0.2643 -0.0245
 8249TIP3    H224689   0.623   2.989   1.856  0.0711  0.9401 -0.4425
 8250TIP3   OH224690   5.985   3.709   1.976  0.2628 -0.6789  0.5254
 8250TIP3    H124691   5.893   3.702   1.949 -0.4243 -0.1284  2.4725
 8250TIP3    H224692   6.034   3.658   1.912 -1.3233 -0.4531 -0.9335
 8251TIP3   OH224693   0.376   3.667   2.983 -0.1604  0.2509 -0.0865
 8251TIP3    H124694   0.455   3.647   2.933  0.6376  2.5612  0.1219
 8251TIP3    H224695   0.408   3.697   3.068 -1.2915  0.7221  0.1968
 8252TIP3   OH224696   3.176   2.596   2.858  0.5898 -0.4811 -0.2884
 8252TIP3    H124697   3.119   2.551   2.921 -0.8042  0.4228 -0.8465
 8252TIP3    H224698   3.188   2.532   2.787 -1.5715  0.0070 -1.1928
 8253TIP3   OH224699   2.437   0.101   3.813 -0.0259 -0.0752 -0.2443
 8253TIP3    H124700   2.362   0.157   3.834 -0.1427 -0.9445  1.8826
 8253TIP3    H224701   2.513   0.150   3.844  0.0405 -0.2471 -0.1290
 8254TIP3   OH224702   6.036   0.361   4.624 -0.0282  0.3466  0.0578
 8254TIP3    H124703   5.960   0.414   4.650  0.0149  0.2229  0.4462
 8254TIP3    H224704   6.005   0.309   4.550 -0.6695 -0.5251  0.9063
 8255TIP3   OH224705   2.049   5.736   2.922  0.3564  0.0136  0.0309
 8255TIP3    H124706   2.067   5.826   2.896 -0.8890 -0.1699 -1.6545
 8255TIP3    H224707   2.135   5.699   2.944  0.9916  1.3111 -0.1831
 8256TIP3   OH224708   7.374   7.435   0.609 -0.0166  0.2291 -0.6824
 8256TIP3    H124709   7.349   7.382   0.534  0.5500  1.9032 -2.1100
 8256TIP3    H224710   7.465   7.460   0.593 -0.5869  2.5902 -0.7094
 8257TIP3   OH224711   6.852   2.776   3.167 -0.1255  0.1219  0.3524
 8257TIP3    H124712   6.850   2.868   3.193  0.9602  0.3910 -0.4106
 8257TIP3    H224713   6.909   2.734   3.231 -0.5234 -0.0039  0.6291
 8258TIP3   OH224714   6.589   5.250   6.752 -0.1519 -0.5725 -0.2041
 8258TIP3    H124715   6.521   5.318   6.743 -0.9682 -0.9441  2.3375
 8258TIP3    H224716   6.615   5.255   6.844  1.2586 -2.3633 -0.4592
 8259TIP3   OH224717   8.274   7.542   4.739 -0.0495 -0.1869  0.0104
 8259TIP3    H124718   8.305   7.452   4.742 -1.0345 -0.5547 -0.4413
 8259TIP3    H224719   8.231   7.550   4.653  0.1341  0.7457 -0.0061
 8260TIP3   OH224720   8.254   2.620   6.677 -0.0083  0.2339 -0.0283
 8260TIP3    H124721   8.179   2.675   6.654  0.1162  1.2726  1.8988
 8260TIP3    H224722   8.294   2.663   6.752  0.4234 -2.1886  1.2566
 8261TIP3   OH224723   3.224   1.694   4.974 -0.0110  0.4073  0.5742
 8261TIP3    H124724   3.229   1.674   4.880  0.2249  0.2164  0.6269
 8261TIP3    H224725   3.172   1.774   4.979  0.3291  0.6518  0.2507
 8262TIP3   OH224726   2.668   0.794   5.581  0.3242  0.3309  0.4994
 8262TIP3    H124727   2.671   0.878   5.535 -1.6324  0.4198  0.4843
 8262TIP3    H224728   2.740   0.743   5.541  1.2136  1.7907  0.1664
 8263TIP3   OH224729   8.292   6.241   4.569  0.4655 -0.3399 -0.3055
 8263TIP3    H124730   8.244   6.215   4.647  2.6432 -1.3225  0.7980
 8263TIP3    H224731   8.336   6.162   4.539 -0.1320  0.0683 -2.4389
 8264TIP3   OH224732   6.419   3.048   5.451  0.5918  0.0551 -0.4601
 8264TIP3    H124733   6.393   2.966   5.410  0.3451  0.5764 -1.3594
 8264TIP3    H224734   6.512   3.037   5.471 -0.0751 -1.5829  2.2221
 8265TIP3   OH224735   7.869   1.331   2.905  0.1090  0.0330  0.2016
 8265TIP3    H124736   7.903   1.271   2.839  3.1388  1.1516  0.6014
 8265TIP3    H224737   7.847   1.274   2.980 -2.5493 -1.1292 -1.3063
 8266TIP3   OH224738   3.864   5.796   2.922 -0.0594  0.2407  0.5480
 8266TIP3    H124739   3.874   5.885   2.955  0.6929  0.8347 -1.1694
 8266TIP3    H224740   3.775   5.793   2.887 -0.3008  0.1078  1.1605
 8267TIP3   OH224741   7.528  -0.011   3.993 -0.1782 -0.0918 -0.2223
 8267TIP3    H124742   7.496   0.011   3.905 -2.2043 -2.1079 -0.0734
 8267TIP3    H224743   7.508   0.067   4.046 -0.2436  0.5905 -1.2201
 8268TIP3   OH224744   6.434   0.849   3.314  0.0334 -0.6657  0.9344
 8268TIP3    H124745   6.378   0.808   3.248 -0.9963  1.4871  0.4048
 8268TIP3    H224746   6.373   0.881   3.380  0.6113  1.4825  0.4891
 8269TIP3   OH224747   3.018   5.236   3.192 -0.8952  0.0681  0.0968
 8269TIP3    H124748   2.973   5.152   3.205 -1.0690 -0.0177 -0.9708
 8269TIP3    H224749   3.111   5.213   3.188 -1.0409 -0.2893 -1.7161
 8270TIP3   OH224750   4.365   4.707   2.986 -0.1312 -0.0284  0.0481
 8270TIP3    H124751   4.359   4.699   3.081 -1.2828  1.4634  0.1172
 8270TIP3    H224752   4.284   4.749   2.959  0.9146  1.1937 -1.4064
 8271TIP3   OH224753   2.579   5.635   1.674  0.5191  0.0419 -0.4794
 8271TIP3    H124754   2.547   5.681   1.596  1.1367  2.6082  0.6814
 8271TIP3    H224755   2.502   5.630   1.732  0.2273 -1.2938 -0.9221
 8272TIP3   OH224756   1.854   1.881   5.901  0.0344 -0.4750 -0.1908
 8272TIP3    H124757   1.773   1.886   5.851  0.4969 -0.2622 -0.9358
 8272TIP3    H224758   1.883   1.972   5.910 -0.0188 -0.5107  0.4435
 8273TIP3   OH224759   7.986   2.084   0.549  0.3433 -0.0497 -0.7664
 8273TIP3    H124760   7.994   1.990   0.534 -1.4314 -0.2815 -0.4952
 8273TIP3    H224761   7.964   2.120   0.463  0.3845  0.0256 -0.7449
 8274TIP3   OH224762   2.967   3.534   4.147  0.3203 -0.1330  0.5711
 8274TIP3    H124763   2.919   3.539   4.230 -0.3790  1.3251  0.1107
 8274TIP3    H224764   2.961   3.623   4.111  1.5994 -0.4598 -0.4978
 8275TIP3   OH224765   1.312   5.439   5.360 -0.8636  0.7074  0.4718
 8275TIP3    H124766   1.394   5.392   5.375 -1.2954  0.5215  2.5781
 8275TIP3    H224767   1.321   5.476   5.273  0.4426 -1.3469 -0.3288
 8276TIP3   OH224768   3.390   6.861   6.472 -0.7167  0.2377 -0.1558
 8276TIP3    H124769   3.301   6.855   6.437  0.4687 -3.1137 -3.1810
 8276TIP3    H224770   3.440   6.903   6.402  0.7669 -1.7740 -0.3833
 8277TIP3   OH224771   8.155   4.728   2.154  0.1658  0.3409 -0.0297
 8277TIP3    H124772   8.182   4.644   2.191 -1.2371 -0.5433 -0.9330
 8277TIP3    H224773   8.114   4.774   2.227  0.4916  0.0371  0.3479
 8278TIP3   OH224774   0.223   4.658   5.045  0.1613  0.1552  0.1708
 8278TIP3    H124775   0.309   4.633   5.079  0.6133  1.1590 -0.2316
 8278TIP3    H224776   0.174   4.685   5.123  0.8015  1.2969  0.1872
 8279TIP3   OH224777   2.526   2.519   6.569  0.1556 -1.0017  0.5998
 8279TIP3    H124778   2.519   2.555   6.657 -0.5944  0.4775 -0.0315
 8279TIP3    H224779   2.573   2.436   6.580  1.8474  0.1052  2.1333
 8280TIP3   OH224780   5.971   0.035   0.123  0.3160 -0.0374  0.6001
 8280TIP3    H124781   5.883   0.064   0.099  0.2819  1.4538  2.2969
 8280TIP3    H224782   6.011   0.112   0.164  1.6961 -1.2615  1.6715
 8281TIP3   OH224783   6.412   7.647   4.594 -0.1812  0.2519  0.1739
 8281TIP3    H124784   6.435   7.617   4.506  1.3103 -1.7331  1.1628
 8281TIP3    H224785   6.466   7.726   4.606 -0.2104  0.3996 -0.5822
 8282TIP3   OH224786   7.852   7.029   3.395  0.0011  0.2891 -0.4183
 8282TIP3    H124787   7.921   6.979   3.438  0.9402  1.9315  0.0720
 8282TIP3    H224788   7.812   7.080   3.466 -1.3102 -0.1583 -0.8038
 8283TIP3   OH224789   0.911   6.422   5.104 -0.3005  0.7429 -0.3896
 8283TIP3    H124790   0.889   6.336   5.069 -0.3047  1.5702 -2.5818
 8283TIP3    H224791   0.970   6.404   5.178 -0.2380 -1.1091 -0.8527
 8284TIP3   OH224792   3.064   4.302   0.323 -0.3204 -0.2602 -0.3822
 8284TIP3    H124793   3.011   4.366   0.277  0.8291  1.2062  0.2456
 8284TIP3    H224794   3.128   4.272   0.259 -1.3108 -1.3622 -0.8843
 8285TIP3   OH224795   0.595   2.343   3.684 -0.2256  0.3760 -0.0162
 8285TIP3    H124796   0.665   2.402   3.714  0.3032 -0.1881 -0.1241
 8285TIP3    H224797   0.520   2.365   3.739  0.0250  1.0123  0.0785
 8286TIP3   OH224798   0.966   1.360   4.247  0.4018  0.0469  0.7843
 8286TIP3    H124799   1.023   1.433   4.270  0.2876 -0.3857  2.5984
 8286TIP3    H224800   1.002   1.285   4.294 -1.0522 -0.4483  1.1731
 8287TIP3   OH224801   6.010   5.089   1.865  0.7509 -0.2431  0.0138
 8287TIP3    H124802   5.928   5.139   1.868  0.3755 -0.7067 -1.5153
 8287TIP3    H224803   6.067   5.142   1.809  0.9718 -0.6557 -0.1477
 8288TIP3   OH224804   3.020   2.816   3.006 -0.0449  0.2283  0.4758
 8288TIP3    H124805   3.105   2.859   2.994 -0.3014  0.4383 -0.6304
 8288TIP3    H224806   2.977   2.868   3.074 -0.2595  1.6184 -0.6768
 8289TIP3   OH224807   1.294   2.080   0.691  0.4762 -0.3471 -0.5396
 8289TIP3    H124808   1.270   2.163   0.651 -0.3324 -0.4837 -0.3667
 8289TIP3    H224809   1.333   2.029   0.620  0.0038 -0.2024 -0.9116
 8290TIP3   OH224810   4.237   6.439   3.932  0.4228 -0.0172  0.0393
 8290TIP3    H124811   4.252   6.513   3.991 -1.0589 -0.0799  0.5237
 8290TIP3    H224812   4.181   6.474   3.863  0.6385 -0.4193 -0.3479
 8291TIP3   OH224813   2.324   1.628   4.163  0.0932 -0.0524 -0.4258
 8291TIP3    H124814   2.250   1.649   4.220  2.1947  0.5429  2.2894
 8291TIP3    H224815   2.285   1.616   4.076 -3.0858  0.6274  0.7774
 8292TIP3   OH224816   5.630   3.878   6.133  0.5146 -0.3067  0.3878
 8292TIP3    H124817   5.648   3.873   6.227 -0.8317  2.1923  0.8469
 8292TIP3    H224818   5.540   3.910   6.126  0.6400 -0.2281 -1.7648
 8293TIP3   OH224819   6.213   5.757   0.194 -0.3280  0.1013 -0.0315
 8293TIP3    H124820   6.296   5.727   0.230 -0.6324  0.1073  0.7131
 8293TIP3    H224821   6.236   5.828   0.134  0.1382  0.7887  0.9312
 8294TIP3   OH224822   0.519   3.946   2.665  0.1340  0.8583 -0.0052
 8294TIP3    H124823   0.522   3.859   2.704  3.7793 -0.3338 -2.3508
 8294TIP3    H224824   0.594   3.992   2.703 -0.9347  2.5423  0.1862
 8295TIP3   OH224825   2.904   5.642   4.651  0.4899  0.4282  0.7244
 8295TIP3    H124826   2.984   5.661   4.601 -0.8420 -0.1231 -1.7566
 8295TIP3    H224827   2.906   5.547   4.663 -0.1753  0.2986 -0.1056
 8296TIP3   OH224828   7.166   1.570   4.391  0.0834 -0.4695 -0.1267
 8296TIP3    H124829   7.143   1.661   4.373 -0.0537 -0.7454 -1.4798
 8296TIP3    H224830   7.166   1.528   4.305 -0.4644 -1.8899  0.5324
 8297TIP3   OH224831   2.688   0.172   1.351 -0.1582  0.4924  0.2280
 8297TIP3    H124832   2.629   0.225   1.297  0.2483 -0.7247 -1.5165
 8297TIP3    H224833   2.640   0.155   1.431 -2.9684 -1.8627 -1.7687
 8298TIP3   OH224834   3.982   6.618   2.429 -0.1892 -0.1020  0.1893
 8298TIP3    H124835   3.977   6.561   2.505 -1.6087  0.1830  0.3321
 8298TIP3    H224836   3.996   6.706   2.465  0.0380 -0.0843  0.0648
 8299TIP3   OH224837   5.590   1.196   3.081 -0.1987  0.1249 -0.7284
 8299TIP3    H124838   5.628   1.255   3.146 -1.5361  0.0548  0.1650
 8299TIP3    H224839   5.652   1.197   3.008  0.7856  1.0785  0.0872
 8300TIP3   OH224840   1.114   6.043   0.754 -0.3145 -0.5136  0.8663
 8300TIP3    H124841   1.076   6.093   0.826  0.7050  1.3104  0.1892
 8300TIP3    H224842   1.205   6.073   0.749 -0.1080 -1.2886 -0.6049
 8301TIP3   OH224843   4.222   5.620   6.163  0.3302 -0.0415  0.6183
 8301TIP3    H124844   4.194   5.530   6.151 -0.3129 -0.2035  2.8750
 8301TIP3    H224845   4.201   5.663   6.080  0.2773 -1.8487 -0.3555
 8302TIP3   OH224846   0.862   3.322   4.155  0.0216  0.2666 -0.4701
 8302TIP3    H124847   0.786   3.356   4.203  1.6977  0.4018  2.3123
 8302TIP3    H224848   0.835   3.235   4.126 -0.9260 -0.0776  1.3026
 8303TIP3   OH224849   7.717   4.351   0.500 -0.3238  0.4889 -0.5886
 8303TIP3    H124850   7.744   4.439   0.473  0.7946  0.1760 -0.5360
 8303TIP3    H224851   7.714   4.301   0.418  1.7104 -0.1041 -0.3463
 8304TIP3   OH224852   1.632   5.073   0.084  0.3833  0.4146  0.1078
 8304TIP3    H124853   1.630   5.073  -0.011  0.1624  1.4901  0.1053
 8304TIP3    H224854   1.541   5.062   0.110  0.4385  0.1620  0.1982
 8305TIP3   OH224855   1.739   0.933   2.455  0.3296  0.4778 -0.0190
 8305TIP3    H124856   1.681   0.860   2.476  1.2517  0.4523  2.9647
 8305TIP3    H224857   1.803   0.897   2.395 -1.1793 -0.1840 -1.3097
 8306TIP3   OH224858   0.262   1.853   5.186 -0.1636  0.3573 -0.9069
 8306TIP3    H124859   0.298   1.920   5.130  1.2629  0.5274  0.1558
 8306TIP3    H224860   0.325   1.845   5.258  1.0496 -3.7492 -2.1302
 8307TIP3   OH224861   3.275   3.398   2.415  0.0291 -0.4297 -0.0462
 8307TIP3    H124862   3.263   3.452   2.337 -0.2901  1.9718  1.5333
 8307TIP3    H224863   3.192   3.352   2.426 -0.8285  1.1024  0.1622
 8308TIP3   OH224864   3.915   2.308   1.855 -0.6142  0.1492 -0.4159
 8308TIP3    H124865   3.837   2.363   1.864 -0.3117  0.4618  0.4553
 8308TIP3    H224866   3.893   2.228   1.904  0.0883  0.7884  1.0002
 8309TIP3   OH224867   3.911   1.256   3.516  0.4785  0.1934 -0.0424
 8309TIP3    H124868   3.979   1.307   3.559 -0.1115  0.6483  0.3620
 8309TIP3    H224869   3.830   1.304   3.533  0.1771  0.1782 -1.3246
 8310TIP3   OH224870   4.608   1.181   4.463  0.0306 -0.7712 -0.6699
 8310TIP3    H124871   4.619   1.267   4.504 -0.5616  0.0725 -2.1846
 8310TIP3    H224872   4.684   1.131   4.491 -0.9197 -0.6973  2.3941
 8311TIP3   OH224873   3.069   5.331   1.545 -0.0660  0.3464  0.3478
 8311TIP3    H124874   3.120   5.412   1.537 -1.5696  1.3320  0.2116
 8311TIP3    H224875   2.978   5.361   1.550 -0.8388 -1.4031 -1.5305
 8312TIP3   OH224876   7.983   6.408   3.154 -0.0076  0.1773  0.0753
 8312TIP3    H124877   8.077   6.407   3.136 -0.0550 -0.2802 -0.1560
 8312TIP3    H224878   7.966   6.326   3.199 -0.4052 -0.0420 -0.4586
 8313TIP3   OH224879   4.565   2.705   2.256  0.1483 -0.5292  0.0932
 8313TIP3    H124880   4.559   2.623   2.207 -0.1535 -0.1546 -0.5053
 8313TIP3    H224881   4.656   2.733   2.247  0.0152 -0.2915 -0.5388
 8314TIP3   OH224882   1.770   6.738   3.479  0.0823  0.0740 -0.0217
 8314TIP3    H124883   1.857   6.703   3.498  0.2650  1.3044  1.5739
 8314TIP3    H224884   1.775   6.830   3.505 -1.3400  0.4783 -1.0754
 8315TIP3   OH224885   0.439   4.778   3.354  0.4828 -0.0055 -0.3045
 8315TIP3    H124886   0.470   4.827   3.430 -0.7792  1.7381 -0.8388
 8315TIP3    H224887   0.361   4.825   3.326 -0.1045 -1.6621 -1.6195
 8316TIP3   OH224888   7.230   6.556   4.000 -0.1477  0.0761 -0.2333
 8316TIP3    H124889   7.311   6.597   3.969 -0.4870  0.3473 -0.7706
 8316TIP3    H224890   7.258   6.471   4.033  0.5485  0.6649  0.7550
 8317TIP3   OH224891   4.634   0.427   5.577  0.1627  0.2684  0.5604
 8317TIP3    H124892   4.570   0.471   5.633  1.7866  1.3084  1.7243
 8317TIP3    H224893   4.679   0.499   5.533 -0.5227 -0.5114 -1.5018
 8318TIP3   OH224894   2.506   3.075   6.590  0.5178  0.0010 -0.0205
 8318TIP3    H124895   2.565   3.142   6.553  0.8336 -1.1288 -1.7087
 8318TIP3    H224896   2.481   3.110   6.675  1.8866  1.5532 -0.1868
 8319TIP3   OH224897   2.765   4.514   2.101 -0.3963  0.1863 -0.1714
 8319TIP3    H124898   2.807   4.556   2.025 -0.7875  1.4028  0.2582
 8319TIP3    H224899   2.682   4.561   2.111 -1.2785 -1.3040 -0.1972
 8320TIP3   OH224900   5.953   3.998   3.597  0.5266  0.5232  0.6061
 8320TIP3    H124901   5.943   4.005   3.692  1.0002  0.4570  0.6594
 8320TIP3    H224902   6.030   3.943   3.585 -0.5842 -1.0072  0.1754
 8321TIP3   OH224903   6.991   2.910   0.069  0.4485  0.3897 -0.0188
 8321TIP3    H124904   6.964   2.996   0.036  2.2805  0.2536 -2.0299
 8321TIP3    H224905   7.015   2.861  -0.009  1.0582 -1.3968  1.2462
 8322TIP3   OH224906   0.632   0.579   6.724  0.5842  0.6475 -0.4815
 8322TIP3    H124907   0.646   0.487   6.700  1.3099  0.8584 -0.9026
 8322TIP3    H224908   0.702   0.626   6.679  0.7127  1.3126  0.4043
 8323TIP3   OH224909   2.824   6.445   3.215 -0.5577  0.0616 -0.4416
 8323TIP3    H124910   2.886   6.518   3.219  0.3826 -0.6339 -1.6201
 8323TIP3    H224911   2.851   6.386   3.286  0.0837 -0.1867 -0.8823
 8324TIP3   OH224912   0.063   1.685   1.807  0.4954  0.0163  0.3187
 8324TIP3    H124913   0.046   1.708   1.716 -0.8769 -1.4982  0.1449
 8324TIP3    H224914   0.052   1.590   1.810 -0.2450  0.1200  2.2020
 8325TIP3   OH224915   4.496   6.359   6.232 -0.3558  0.0135  0.6437
 8325TIP3    H124916   4.506   6.391   6.143  0.1551  0.7466  0.9547
 8325TIP3    H224917   4.566   6.401   6.281 -1.3131  0.5223  1.6328
 8326TIP3   OH224918   7.358   1.790   4.220  0.1688 -0.1912  0.0340
 8326TIP3    H124919   7.292   1.755   4.161 -0.7108  0.7568  0.4311
 8326TIP3    H224920   7.433   1.731   4.210 -0.8294 -1.4436 -0.2072
 8327TIP3   OH224921   2.664   6.541   6.349 -0.5931  0.0701  0.3787
 8327TIP3    H124922   2.655   6.446   6.356 -1.5491 -0.0751 -1.9607
 8327TIP3    H224923   2.685   6.570   6.438 -1.1046 -2.2304  1.3114
 8328TIP3   OH224924   7.097   7.522   3.638  0.0350  1.2538 -0.2626
 8328TIP3    H124925   7.032   7.572   3.589  0.7211  1.1151 -1.3632
 8328TIP3    H224926   7.049   7.448   3.673 -0.3048  0.8433 -1.5369
 8329TIP3   OH224927   2.997   7.331   5.995 -0.1882 -0.1391  0.5573
 8329TIP3    H124928   2.929   7.280   6.039 -1.4210 -0.0830 -1.1949
 8329TIP3    H224929   3.042   7.268   5.940  0.3195  0.0971  0.6922
 8330TIP3   OH224930   3.898   2.997   6.623  0.3335  0.0375 -0.0631
 8330TIP3    H124931   3.894   2.927   6.688  2.0419  0.6044  0.7061
 8330TIP3    H224932   3.985   3.035   6.634  0.6669  0.2047 -2.6330
 8331TIP3   OH224933   7.416   6.356   5.739 -0.7589 -0.5569  0.0788
 8331TIP3    H124934   7.384   6.421   5.801  0.9582 -2.3325  3.1044
 8331TIP3    H224935   7.349   6.287   5.740 -1.2613 -0.0969 -0.9608
 8332TIP3   OH224936   1.954   7.475   4.174 -0.3950 -0.6669  0.0246
 8332TIP3    H124937   1.871   7.450   4.134 -0.1461  0.9773 -1.6157
 8332TIP3    H224938   2.020   7.455   4.108  0.1136  1.3989 -0.1584
 8333TIP3   OH224939   6.285   6.576   0.924  0.1570  0.0693 -0.5570
 8333TIP3    H124940   6.325   6.642   0.868  0.3462 -0.6086 -1.2292
 8333TIP3    H224941   6.217   6.624   0.973 -0.3950  0.5646 -1.7696
 8334TIP3   OH224942   7.109   3.438   3.941  0.0083 -0.3173 -0.1803
 8334TIP3    H124943   7.125   3.434   3.847 -0.3042  0.2142 -0.2597
 8334TIP3    H224944   7.134   3.527   3.966  2.1649 -1.1078  0.6380
 8335TIP3   OH224945   6.337   7.342   4.867  0.0570 -0.3413 -0.0592
 8335TIP3    H124946   6.242   7.352   4.865  0.1640  0.7707  0.0234
 8335TIP3    H224947   6.371   7.428   4.842  1.0394 -1.0677 -1.3265
 8336TIP3   OH224948   0.565   1.781   6.440 -0.6947  0.5124 -0.2901
 8336TIP3    H124949   0.597   1.694   6.415 -1.1008  0.1056  0.5358
 8336TIP3    H224950   0.529   1.768   6.528  0.3926  1.7894  0.3749
 8337TIP3   OH224951   4.189   3.684   0.770 -0.3704  0.6207  0.5130
 8337TIP3    H124952   4.190   3.777   0.794 -1.1909  1.0160 -0.8493
 8337TIP3    H224953   4.146   3.683   0.684 -0.7232 -1.0630  0.6882
 8338TIP3   OH224954   2.631   2.108   1.036  0.0796  0.0396  0.4013
 8338TIP3    H124955   2.591   2.122   0.951  1.9667  3.2110 -0.1121
 8338TIP3    H224956   2.569   2.148   1.098  0.6189  1.5488  0.0102
 8339TIP3   OH224957   1.449   3.962   0.288 -0.4743 -0.0230 -0.6093
 8339TIP3    H124958   1.361   3.961   0.328 -0.5222 -0.3987 -0.7226
 8339TIP3    H224959   1.440   4.019   0.212 -0.1272  1.5795  0.4803
 8340TIP3   OH224960   0.285   1.336   1.989 -0.3793 -0.4632 -0.0723
 8340TIP3    H124961   0.288   1.247   1.953  0.6881 -0.2385 -0.5952
 8340TIP3    H224962   0.375   1.352   2.020 -0.4070  0.6497 -0.5394
 8341TIP3   OH224963   8.072   0.857   2.487  0.7592 -0.6447 -0.0112
 8341TIP3    H124964   8.058   0.792   2.556  0.5740  0.5904  1.1675
 8341TIP3    H224965   8.163   0.885   2.499  0.3388  0.5228  0.6181
 8342TIP3   OH224966   0.416   3.832   1.356  0.2335 -0.0795  0.4540
 8342TIP3    H124967   0.355   3.797   1.422 -0.1008 -2.5704 -1.0290
 8342TIP3    H224968   0.502   3.805   1.386 -0.0675 -3.2058 -1.0436
 8343TIP3   OH224969   0.840   4.983   5.525 -0.2197  0.3661 -0.3814
 8343TIP3    H124970   0.887   4.993   5.608  3.2667  0.7843 -2.2077
 8343TIP3    H224971   0.788   5.063   5.518  2.1284  2.0573 -0.0270
 8344TIP3   OH224972   4.516   1.169   2.301 -0.1865 -0.0154 -0.0342
 8344TIP3    H124973   4.611   1.182   2.293  0.0076 -1.4235 -0.3143
 8344TIP3    H224974   4.495   1.107   2.231 -1.3501  0.4119 -0.0783
 8345TIP3   OH224975   7.656   2.597   5.972 -0.4028 -0.3896  0.0178
 8345TIP3    H124976   7.743   2.556   5.968  0.1013  0.6722 -0.4366
 8345TIP3    H224977   7.671   2.679   6.019 -1.7060 -1.4499  2.4932
 8346TIP3   OH224978   0.595   5.272   4.091 -0.1238 -0.2396  0.1994
 8346TIP3    H124979   0.654   5.233   4.156  1.2224  0.4946 -0.5390
 8346TIP3    H224980   0.526   5.314   4.143  1.4100  1.1172  1.2364
 8347TIP3   OH224981   5.887   7.739   2.045 -0.0125 -0.4087 -0.4446
 8347TIP3    H124982   5.970   7.692   2.051  0.3190  0.1296 -0.7974
 8347TIP3    H224983   5.899   7.816   2.101 -0.3987 -0.5068 -0.2203
 8348TIP3   OH224984   5.962   2.909   3.208 -0.1443  0.1981  0.6770
 8348TIP3    H124985   6.016   2.988   3.210 -1.3924  1.1106 -0.2057
 8348TIP3    H224986   5.885   2.934   3.157 -0.8296 -1.4314  0.8601
 8349TIP3   OH224987   4.492   2.488   1.764 -0.2393 -0.2859 -0.2849
 8349TIP3    H124988   4.401   2.493   1.734 -0.2658 -0.1967 -0.1928
 8349TIP3    H224989   4.539   2.549   1.707 -0.4073  0.3867  0.2802
 8350TIP3   OH224990   5.745   2.262   0.228  0.4598  0.2931 -0.7998
 8350TIP3    H124991   5.768   2.171   0.209 -0.3617 -0.0616 -0.1825
 8350TIP3    H224992   5.829   2.308   0.229  0.9245 -0.5211 -0.7999
 8351TIP3   OH224993   3.878   5.490   1.020 -0.2048  0.1590 -0.2847
 8351TIP3    H124994   3.917   5.493   0.933  1.4752  1.5204  0.4573
 8351TIP3    H224995   3.807   5.554   1.017  0.5843  1.0484 -0.3425
 8352TIP3   OH224996   2.493   0.062   2.602 -0.8905 -0.1066 -0.3128
 8352TIP3    H124997   2.564   0.047   2.539 -0.4079  0.7292  0.0206
 8352TIP3    H224998   2.525   0.131   2.659 -0.5289 -2.0785  2.0768
 8353TIP3   OH224999   7.835   0.627   2.498 -0.4833 -0.9523 -0.0613
 8353TIP3    H125000   7.821   0.673   2.415 -0.9833 -0.8844  0.0533
 8353TIP3    H225001   7.746   0.609   2.529 -0.3683  1.1343  1.6516
 8354TIP3   OH225002   5.016   1.427   4.380  0.5297 -0.7248  0.3858
 8354TIP3    H125003   5.006   1.412   4.474 -1.5157 -0.0501  0.3273
 8354TIP3    H225004   4.975   1.350   4.340 -0.5431 -0.0207  0.0841
 8355TIP3   OH225005   1.533   5.078   6.463 -0.2290 -0.0073 -0.5057
 8355TIP3    H125006   1.442   5.105   6.453 -0.2465 -0.9656 -4.1689
 8355TIP3    H225007   1.530   4.982   6.458  0.9007 -0.1005  0.3640
 8356TIP3   OH225008   0.282   6.750   2.193 -0.3638 -0.1765  0.0744
 8356TIP3    H125009   0.225   6.818   2.156  1.4979  1.4832  0.0735
 8356TIP3    H225010   0.278   6.765   2.287  0.5620  0.4202  0.0354
 8357TIP3   OH225011   1.998   3.063   0.506 -0.3497 -0.1960 -0.2063
 8357TIP3    H125012   1.947   2.986   0.531  0.6711 -2.1921 -3.5173
 8357TIP3    H225013   1.933   3.130   0.486 -1.3047 -0.4267  1.9269
 8358TIP3   OH225014   0.941   1.893   6.273 -0.5890 -0.0808 -0.2167
 8358TIP3    H125015   0.970   1.885   6.182  0.0571  0.0667 -0.0270
 8358TIP3    H225016   0.892   1.976   6.275 -0.0937  0.2158 -0.2992
 8359TIP3   OH225017   8.075   3.979   0.774  0.3472 -0.5349 -0.2648
 8359TIP3    H125018   7.984   3.985   0.747  0.3899  0.1512 -0.2847
 8359TIP3    H225019   8.116   4.057   0.736  0.9248 -0.8033 -0.2008
 8360TIP3   OH225020   0.546   6.465   4.389  0.4847  0.1714 -0.1101
 8360TIP3    H125021   0.489   6.521   4.441 -0.3513 -0.7552 -0.0108
 8360TIP3    H225022   0.507   6.465   4.302  0.5213 -0.1875 -0.1300
 8361TIP3   OH225023   1.328   5.663   5.778 -0.5297  0.4783 -0.5423
 8361TIP3    H125024   1.253   5.633   5.727  0.4634  0.0274 -1.7818
 8361TIP3    H225025   1.391   5.590   5.774  0.6306  1.4700 -0.9240
 8362TIP3   OH225026   7.836   3.489   1.776 -0.2172  0.4086  0.2283
 8362TIP3    H125027   7.767   3.432   1.811  0.9828 -0.8123  0.7005
 8362TIP3    H225028   7.830   3.477   1.681  0.5396 -1.1848  0.3531
 8363TIP3   OH225029   4.440   1.134   1.055  0.0797  0.5036  0.3488
 8363TIP3    H125030   4.525   1.089   1.051  0.9197  1.9450  1.1376
 8363TIP3    H225031   4.406   1.129   0.966  1.3326  0.5067 -0.1500
 8364TIP3   OH225032   5.414   3.965   3.621 -0.3164 -0.1759 -0.0889
 8364TIP3    H125033   5.504   3.955   3.588  0.3906  3.1757  0.4569
 8364TIP3    H225034   5.370   4.015   3.553 -1.7336 -1.4512 -0.1625
 8365TIP3   OH225035   2.539   6.778   3.394  0.0229 -0.4750 -0.1790
 8365TIP3    H125036   2.509   6.705   3.341 -1.0460  0.6604 -1.2154
 8365TIP3    H225037   2.615   6.813   3.347  0.1051 -0.4790 -0.0523
 8366TIP3   OH225038   1.291   7.872   4.735 -0.5783 -0.4651 -0.3669
 8366TIP3    H125039   1.270   7.961   4.706 -0.5510 -0.5725 -0.7217
 8366TIP3    H225040   1.374   7.881   4.782 -1.7793  0.1084  1.7918
 8367TIP3   OH225041   1.322   2.820   0.739 -0.0504 -0.6130  0.3888
 8367TIP3    H125042   1.287   2.903   0.706  1.3965  0.3297  1.1022
 8367TIP3    H225043   1.293   2.754   0.677 -0.6315  0.5426 -0.5944
 8368TIP3   OH225044   2.525   3.945   3.359 -0.3150 -0.6519 -0.0666
 8368TIP3    H125045   2.541   3.945   3.265 -0.7462 -1.4324 -0.1442
 8368TIP3    H225046   2.457   3.880   3.372 -1.3559  0.5274  0.6091
 8369TIP3   OH225047   2.107   3.107   6.815  0.3062 -0.2028 -0.9484
 8369TIP3    H125048   2.167   3.127   6.743  0.8878  0.3719 -0.3208
 8369TIP3    H225049   2.071   3.021   6.793  1.2465 -0.4917 -1.4097
 8370TIP3   OH225050   0.219   0.144   2.929  0.1439  0.4044 -0.5527
 8370TIP3    H125051   0.233   0.108   3.016 -0.9621 -0.2225 -0.6162
 8370TIP3    H225052   0.159   0.218   2.944 -2.4561 -1.4524 -1.0241
 8371TIP3   OH225053   8.044   7.280   0.851 -0.0834 -0.1912  0.0908
 8371TIP3    H125054   7.988   7.281   0.929  0.6260  0.4081  0.6157
 8371TIP3    H225055   7.985   7.255   0.780 -0.9398  0.0584  0.6823
 8372TIP3   OH225056   2.126   3.799   3.959  0.1858  0.1012 -0.2113
 8372TIP3    H125057   2.121   3.718   4.008  2.6786  0.7928  1.3453
 8372TIP3    H225058   2.110   3.868   4.024  2.1194  0.9846 -0.6061
 8373TIP3   OH225059   3.827   0.698   2.821  0.4473  0.7018 -0.1313
 8373TIP3    H125060   3.891   0.734   2.760 -0.6977  0.3815 -1.5837
 8373TIP3    H225061   3.742   0.717   2.780 -0.3904  0.9122  1.6168
 8374TIP3   OH225062   3.095   3.491   5.981 -0.2961  0.0759 -0.5942
 8374TIP3    H125063   3.049   3.550   5.921 -1.3186  0.7024  0.7532
 8374TIP3    H225064   3.159   3.547   6.026 -0.0835 -0.2214 -0.5183
 8375TIP3   OH225065   7.463   5.140   2.783  0.2746 -0.0274 -0.2876
 8375TIP3    H125066   7.552   5.129   2.750  0.0941 -1.9839 -0.2465
 8375TIP3    H225067   7.471   5.124   2.877 -0.1502 -0.4526 -0.3216
 8376TIP3   OH225068   3.317   7.036   5.871 -0.3534  0.4541 -0.2997
 8376TIP3    H125069   3.334   7.003   5.960 -1.1014  1.8130  0.3929
 8376TIP3    H225070   3.316   7.131   5.881 -1.4084  0.6118 -1.5825
 8377TIP3   OH225071   6.167   6.039   5.330 -0.3811 -0.0097  0.0412
 8377TIP3    H125072   6.123   6.119   5.303  1.3171  0.2819 -2.1523
 8377TIP3    H225073   6.254   6.068   5.358 -0.1755 -0.9764  0.4524
 8378TIP3   OH225074   2.752   0.435   5.824  0.0260 -0.0805  0.0647
 8378TIP3    H125075   2.790   0.523   5.817  1.0529 -0.5108 -0.0177
 8378TIP3    H225076   2.709   0.435   5.910  0.1667  0.4450  0.1429
 8379TIP3   OH225077   3.385   0.581   0.181 -0.5335  0.2107 -0.4378
 8379TIP3    H125078   3.312   0.611   0.236 -0.7879  0.1709 -0.7462
 8379TIP3    H225079   3.375   0.486   0.178 -0.4141  0.1978 -0.4020
 8380TIP3   OH225080   5.728   7.766   2.936 -0.4956  0.0005  0.0511
 8380TIP3    H125081   5.710   7.781   3.029  0.4121 -0.3308  0.2888
 8380TIP3    H225082   5.648   7.726   2.903 -0.5188 -0.6916  0.8904
 8381TIP3   OH225083   5.684   4.687   4.159 -0.2865  0.0757  0.2897
 8381TIP3    H125084   5.701   4.705   4.252  2.3783  1.3654 -0.3445
 8381TIP3    H225085   5.602   4.639   4.159 -0.2520 -0.2047  3.3360
 8382TIP3   OH225086   7.201   0.448   5.473  0.3954 -0.9843 -0.0317
 8382TIP3    H125087   7.223   0.541   5.466  2.7194 -1.3914  0.6887
 8382TIP3    H225088   7.150   0.441   5.553  1.1045 -0.4257  0.4858
 8383TIP3   OH225089   4.786   2.214   1.729 -0.1854 -0.0313 -0.0389
 8383TIP3    H125090   4.806   2.303   1.700  0.3212 -0.3489 -0.6798
 8383TIP3    H225091   4.723   2.181   1.665  1.4817 -0.9897 -1.2241
 8384TIP3   OH225092   7.152   4.969   1.375 -0.4634  0.6889  0.2869
 8384TIP3    H125093   7.183   5.020   1.450  0.2482  1.6608 -0.6349
 8384TIP3    H225094   7.209   4.995   1.303  0.5580 -2.1319 -0.0532
 8385TIP3   OH225095   5.262   7.446   6.615 -0.1374  0.2467  0.3676
 8385TIP3    H125096   5.308   7.448   6.531 -0.6953  1.2856  0.0702
 8385TIP3    H225097   5.221   7.532   6.622 -0.0986  0.1829  1.7108
 8386TIP3   OH225098   7.907   3.792   1.518 -0.1914 -0.4030 -0.4100
 8386TIP3    H125099   7.944   3.849   1.451  1.4198  0.2530  0.9402
 8386TIP3    H225100   7.977   3.784   1.583 -1.3333 -1.8031  0.7094
 8387TIP3   OH225101   0.136   1.648   2.560  0.0397  0.1823 -0.5577
 8387TIP3    H125102   0.174   1.616   2.478 -2.0956 -1.5352 -0.9759
 8387TIP3    H225103   0.068   1.709   2.532 -0.6865 -0.3946 -0.0939
 8388TIP3   OH225104   0.532   1.433   5.023 -0.1707 -0.0503  0.3169
 8388TIP3    H125105   0.440   1.410   5.035 -0.1979 -0.3896 -0.4180
 8388TIP3    H225106   0.580   1.372   5.080 -0.4370  0.7543  1.4193
 8389TIP3   OH225107   6.607   1.095   2.096 -0.5218  0.1523 -0.0950
 8389TIP3    H125108   6.539   1.082   2.031 -2.8748  0.8556  2.0712
 8389TIP3    H225109   6.610   1.013   2.145 -0.0431  0.2572  0.0657
 8390TIP3   OH225110   3.987   1.043   3.763  0.0374  0.0125  0.2619
 8390TIP3    H125111   3.996   1.014   3.673 -0.2993 -0.9510  0.5284
 8390TIP3    H225112   3.923   0.984   3.802  2.2550 -1.4608  1.9216
 8391TIP3   OH225113   0.179   7.835   1.302 -0.4879 -0.1837  0.6096
 8391TIP3    H125114   0.089   7.805   1.311 -0.5844  0.0227  0.3738
 8391TIP3    H225115   0.171   7.922   1.262 -0.3194  1.0029  2.9998
 8392TIP3   OH225116   4.896   3.691   2.628 -0.1218 -0.0732  0.4166
 8392TIP3    H125117   4.801   3.679   2.636 -0.2115 -0.8182 -1.2973
 8392TIP3    H225118   4.906   3.783   2.603 -0.4051 -0.0456  0.3975
 8393TIP3   OH225119   5.877   3.870  -0.004 -0.8358 -0.1394 -0.4575
 8393TIP3    H125120   5.783   3.885   0.009 -0.7506 -0.4687  0.6404
 8393TIP3    H225121   5.918   3.954   0.015 -0.8246 -0.2793  0.1587
 8394TIP3   OH225122   3.639   3.061   4.779 -0.0659 -0.7332  0.3003
 8394TIP3    H125123   3.574   3.049   4.709  0.1896 -0.4779  0.0123
 8394TIP3    H225124   3.595   3.033   4.859 -0.6900 -0.1164  0.1741
 8395TIP3   OH225125   3.858   2.300   4.849 -0.0321  0.2000 -0.2348
 8395TIP3    H125126   3.905   2.276   4.769  1.9281  0.9725  0.6037
 8395TIP3    H225127   3.865   2.396   4.853  2.9999  0.0706  2.4612
 8396TIP3   OH225128   1.120   0.323   6.143  0.4724 -0.1686  0.3170
 8396TIP3    H125129   1.122   0.280   6.229 -0.5047  1.7425  1.3520
 8396TIP3    H225130   1.194   0.384   6.145 -0.1895  0.6528  0.2438
 8397TIP3   OH225131   7.403   7.150   0.894  0.0630  0.3524 -0.0584
 8397TIP3    H125132   7.435   7.232   0.931  0.2733  0.0140  0.5210
 8397TIP3    H225133   7.469   7.085   0.919  0.5453  0.2133 -1.5504
 8398TIP3   OH225134   6.992   5.991   2.759 -0.1610 -0.1041  0.1308
 8398TIP3    H125135   7.036   5.906   2.751  1.5742  0.7318  0.2793
 8398TIP3    H225136   6.993   6.010   2.853 -0.4777  0.1196  0.0909
 8399TIP3   OH225137   4.123   2.027   0.713  0.0898 -0.3596  0.2506
 8399TIP3    H125138   4.060   2.099   0.724  0.4530  0.2987 -1.5830
 8399TIP3    H225139   4.070   1.955   0.678  0.5144  0.8006 -3.2111
 8400TIP3   OH225140   5.183   7.671   4.346  0.0928  0.0777  0.1657
 8400TIP3    H125141   5.155   7.729   4.274  0.9100  0.0248 -0.2007
 8400TIP3    H225142   5.121   7.690   4.416  0.0052  1.0030 -0.1423
 8401TIP3   OH225143   3.935   4.236   5.892  0.7257  0.3586 -0.7801
 8401TIP3    H125144   4.020   4.233   5.935  1.0974  0.1809 -1.5170
 8401TIP3    H225145   3.896   4.150   5.909  0.6137  0.5082 -0.2830
 8402TIP3   OH225146   4.893   1.188   4.318  0.3524 -0.6165 -0.4642
 8402TIP3    H125147   4.881   1.134   4.396 -0.7151 -1.5042 -1.2074
 8402TIP3    H225148   4.950   1.136   4.261 -0.6380 -0.9850 -1.1606
 8403TIP3   OH225149   6.832   7.514   6.442 -0.0142  0.3286  0.5259
 8403TIP3    H125150   6.828   7.424   6.473  0.9308 -0.1953 -0.8033
 8403TIP3    H225151   6.889   7.559   6.505 -0.5163  0.0177  1.2103
 8404TIP3   OH225152   7.708   5.465   0.363  0.1467  0.4056 -0.5881
 8404TIP3    H125153   7.679   5.556   0.359  0.8277  0.5991 -2.5179
 8404TIP3    H225154   7.630   5.413   0.344  0.0617  0.6650 -0.9490
 8405TIP3   OH225155   0.879   5.483   1.979 -0.1031 -0.5852  0.4045
 8405TIP3    H125156   0.893   5.467   2.073 -2.8012 -0.1973  0.9695
 8405TIP3    H225157   0.925   5.412   1.935  1.6155 -0.5135  1.9766
 8406TIP3   OH225158   4.170   2.889   1.554 -0.5164 -0.5324 -0.1129
 8406TIP3    H125159   4.100   2.954   1.551 -1.9177 -1.6824  3.0504
 8406TIP3    H225160   4.220   2.911   1.633  0.0269 -2.2634  0.0637
 8407TIP3   OH225161   4.520   4.338   4.919  0.3472  0.0994  0.1338
 8407TIP3    H125162   4.549   4.411   4.974 -0.9732 -0.3994  1.5646
 8407TIP3    H225163   4.510   4.376   4.832 -0.5868  1.7354  0.8991
 8408TIP3   OH225164   5.852   2.063   1.933  0.3309  0.7780  0.2582
 8408TIP3    H125165   5.927   2.097   1.982  0.6463  1.1011 -0.4323
 8408TIP3    H225166   5.821   2.138   1.882 -0.4027  0.6197  0.4568
 8409TIP3   OH225167   3.503   0.457   3.437 -0.1175  0.4712 -0.0295
 8409TIP3    H125168   3.421   0.432   3.396  0.4889 -0.4123 -0.7297
 8409TIP3    H225169   3.518   0.390   3.504  1.1720 -0.7236 -1.4567
 8410TIP3   OH225170   5.670   5.101   5.284  0.2812 -0.2115  0.7220
 8410TIP3    H125171   5.669   5.136   5.372 -0.2255 -1.9237  1.4470
 8410TIP3    H225172   5.644   5.009   5.294  0.7856 -0.6125 -1.1308
 8411TIP3   OH225173   0.635   2.666   4.189 -0.6118 -0.7590 -0.6609
 8411TIP3    H125174   0.710   2.641   4.242 -0.7801  0.3847  0.1584
 8411TIP3    H225175   0.637   2.762   4.188 -1.8133 -0.7159 -0.9781
 8412TIP3   OH225176   3.468   2.458   1.386 -0.4792  0.1990  0.0231
 8412TIP3    H125177   3.475   2.487   1.295  0.5147  2.0038  0.6158
 8412TIP3    H225178   3.559   2.446   1.414 -0.7841 -0.6621  0.7006
 8413TIP3   OH225179   7.957   3.403   0.768 -0.6583 -0.6092  0.1189
 8413TIP3    H125180   7.957   3.499   0.772  0.8858 -0.5849  0.0625
 8413TIP3    H225181   7.874   3.377   0.809 -1.3835  0.7617 -0.4315
 8414TIP3   OH225182   0.463   2.590   4.708  0.3229 -0.1586 -0.0894
 8414TIP3    H125183   0.433   2.630   4.790  2.5507  0.7431  0.3752
 8414TIP3    H225184   0.497   2.663   4.657  0.9035 -0.9835 -0.9101
 8415TIP3   OH225185   1.785   6.882   3.017  0.4789  0.4838 -0.0513
 8415TIP3    H125186   1.815   6.882   2.926 -1.0252 -0.1828 -0.5842
 8415TIP3    H225187   1.696   6.848   3.013 -0.6546  3.0286  1.3460
 8416TIP3   OH225188   0.252   4.267   5.857  0.2644  0.0474 -0.2635
 8416TIP3    H125189   0.189   4.251   5.928 -0.1456 -0.6807 -0.7743
 8416TIP3    H225190   0.335   4.235   5.891 -0.2846 -2.1133 -0.7698
 8417TIP3   OH225191   6.491   5.373   5.473  0.1163  0.2594  0.0361
 8417TIP3    H125192   6.469   5.373   5.380  2.2967 -2.4524 -0.6346
 8417TIP3    H225193   6.564   5.435   5.480 -1.3140  1.9761  0.4043
 8418TIP3   OH225194   4.811   1.432   4.054  0.3763  0.2174 -0.0579
 8418TIP3    H125195   4.872   1.403   3.986  0.5706 -0.6236  0.4593
 8418TIP3    H225196   4.845   1.392   4.135 -0.6321  0.0594  0.2971
 8419TIP3   OH225197   0.195   5.253   6.274 -0.2479  0.0210  0.3976
 8419TIP3    H125198   0.258   5.193   6.233  0.6645 -0.4842  2.3980
 8419TIP3    H225199   0.184   5.219   6.363 -1.5438  1.4871  0.8417
 8420TIP3   OH225200   2.779   0.593   3.975  0.4620  0.2699  0.2287
 8420TIP3    H125201   2.755   0.665   4.032 -0.1107  0.3467 -0.0959
 8420TIP3    H225202   2.844   0.542   4.025  0.1145  0.4397  0.8582
 8421TIP3   OH225203   1.587   4.154   2.697  0.1807  0.1626 -0.0592
 8421TIP3    H125204   1.527   4.226   2.718 -1.0293 -0.6935 -0.4570
 8421TIP3    H225205   1.639   4.187   2.624  0.0614  0.8578  0.1673
 8422TIP3   OH225206   4.260   1.018   3.837  0.3607 -0.0264 -0.2168
 8422TIP3    H125207   4.259   0.955   3.908 -0.1358  0.2379  0.0218
 8422TIP3    H225208   4.169   1.022   3.807  0.5653 -0.1538 -0.8894
 8423TIP3   OH225209   6.590   2.060   0.419 -0.4270 -0.1685  0.1571
 8423TIP3    H125210   6.618   1.994   0.483 -1.2489  0.2941  1.0064
 8423TIP3    H225211   6.655   2.053   0.348 -1.0651 -2.5930 -0.2832
 8424TIP3   OH225212   0.035   1.028   4.254  0.2015  0.7161  0.2856
 8424TIP3    H125213   0.042   0.963   4.184 -0.1022  1.5310 -0.5207
 8424TIP3    H225214   0.119   1.074   4.252 -0.3858  1.7797 -0.6085
 8425TIP3   OH225215   2.708   4.373   2.855  0.2030 -0.4493 -0.0062
 8425TIP3    H125216   2.799   4.356   2.834  0.2116  0.6382 -0.9928
 8425TIP3    H225217   2.708   4.462   2.891 -0.5591 -0.0560 -0.9236
 8426TIP3   OH225218   7.991   0.603   5.144 -0.4117 -0.0254 -0.1155
 8426TIP3    H125219   8.065   0.657   5.114 -0.0781  0.5820  1.7139
 8426TIP3    H225220   7.935   0.664   5.192  0.8726 -1.5038  3.6367
 8427TIP3   OH225221   3.459   3.871   0.424  0.3933 -0.2597  0.6847
 8427TIP3    H125222   3.450   3.783   0.388  1.7736 -0.3151  0.4390
 8427TIP3    H225223   3.410   3.927   0.364 -0.6221 -0.8579  0.9273
 8428TIP3   OH225224   5.822   3.293   5.622 -0.1195 -0.0936 -0.3965
 8428TIP3    H125225   5.751   3.356   5.634 -0.4833 -0.6528  0.4422
 8428TIP3    H225226   5.849   3.270   5.711 -0.0834 -1.2306 -0.6920
 8429TIP3   OH225227   5.339   6.341   1.488  0.3019 -0.3701 -0.3274
 8429TIP3    H125228   5.372   6.264   1.442  1.8421  0.6694 -1.1048
 8429TIP3    H225229   5.312   6.400   1.417 -0.7588 -0.1489  0.2489
 8430TIP3   OH225230   4.395   3.799   1.472 -0.0305 -0.1937  0.2591
 8430TIP3    H125231   4.362   3.712   1.447 -1.3020  0.5012 -0.5898
 8430TIP3    H225232   4.337   3.827   1.542  0.4839 -0.0975  0.6469
 8431TIP3   OH225233   7.035   5.631   1.763 -0.2013 -0.1168  0.5072
 8431TIP3    H125234   7.049   5.725   1.756 -0.8433 -0.0738 -0.5589
 8431TIP3    H225235   6.962   5.622   1.825 -0.2611  0.1061  0.4703
 8432TIP3   OH225236   1.368   0.600   3.564  0.2825  0.1512 -0.5235
 8432TIP3    H125237   1.362   0.505   3.572 -1.5096  0.1788 -1.0342
 8432TIP3    H225238   1.387   0.631   3.652  0.4905 -0.6594 -0.2800
 8433TIP3   OH225239   7.436   2.140   0.311  0.4908 -0.1654 -0.0959
 8433TIP3    H125240   7.378   2.211   0.284  0.7823 -0.4976 -1.6487
 8433TIP3    H225241   7.517   2.184   0.339  0.5783  0.1248 -0.8061
 8434TIP3   OH225242   7.537   3.637   0.646 -0.4317  0.4494  0.2405
 8434TIP3    H125243   7.490   3.577   0.587 -0.8372  3.5487 -2.9557
 8434TIP3    H225244   7.627   3.635   0.615 -0.3188  0.9946  0.5231
 8435TIP3   OH225245   2.217   2.388   2.002  0.3731  0.0630  0.4128
 8435TIP3    H125246   2.185   2.303   2.033  1.2160 -0.7080 -0.7732
 8435TIP3    H225247   2.264   2.368   1.921  1.5946  1.5059  0.7336
 8436TIP3   OH225248   2.021   3.573   5.425 -0.0387  0.1284  0.1206
 8436TIP3    H125249   2.023   3.658   5.381  2.2997  0.1384  0.1441
 8436TIP3    H225250   1.967   3.518   5.368 -1.2560  1.4798 -0.0943
 8437TIP3   OH225251   3.117   3.193   4.803  0.5038  0.4461 -0.6068
 8437TIP3    H125252   3.208   3.206   4.828  0.0912  2.2101  0.0851
 8437TIP3    H225253   3.070   3.187   4.886 -0.0335 -0.5066 -0.9578
 8438TIP3   OH225254   0.675   4.244   0.194 -0.1922  0.3843 -0.0700
 8438TIP3    H125255   0.675   4.153   0.161  1.3949  0.1691  0.4423
 8438TIP3    H225256   0.766   4.271   0.189 -0.3238  1.2599  1.7200
 8439TIP3   OH225257   5.548   7.761   1.267 -0.1208 -0.2131  0.0953
 8439TIP3    H125258   5.567   7.819   1.341  2.1111  1.7713 -1.8449
 8439TIP3    H225259   5.466   7.795   1.231 -0.2395  0.0167  0.5753
 8440TIP3   OH225260   3.691   6.777   5.261  0.6622 -0.5741 -0.1317
 8440TIP3    H125261   3.616   6.784   5.202  0.1913  0.6879  0.5763
 8440TIP3    H225262   3.685   6.688   5.297 -1.2598 -0.1040  0.8736
 8441TIP3   OH225263   2.706   5.372   0.537 -0.1865  0.2581 -0.5487
 8441TIP3    H125264   2.653   5.328   0.604  1.0785  0.6881  0.8089
 8441TIP3    H225265   2.775   5.310   0.516  1.1591  1.2032  0.8126
 8442TIP3   OH225266   2.108   4.499   2.937 -0.3434  0.3661  0.1288
 8442TIP3    H125267   2.127   4.412   2.973  1.5604  1.0012  0.8256
 8442TIP3    H225268   2.090   4.553   3.014 -0.2366  0.8562 -0.1843
 8443TIP3   OH225269   3.041   0.132   6.605 -0.0784  0.0217 -0.1873
 8443TIP3    H125270   3.084   0.179   6.533 -0.1383  1.3580  0.6229
 8443TIP3    H225271   3.110   0.119   6.670 -0.7231  1.7627  0.9135
 8444TIP3   OH225272   3.215   2.378   2.686 -0.4264  0.2505 -0.5195
 8444TIP3    H125273   3.193   2.370   2.593 -0.2872 -0.3600 -0.5031
 8444TIP3    H225274   3.196   2.292   2.723 -2.0718  0.9210  0.3657
 8445TIP3   OH225275   1.147   0.503   0.970  0.0660  0.2721  0.1115
 8445TIP3    H125276   1.210   0.452   1.021  0.4793 -0.4760 -1.1060
 8445TIP3    H225277   1.169   0.594   0.990  1.1329  0.0154  0.1987
 8446TIP3   OH225278   0.721   1.689   3.542  0.4068 -0.4548 -0.2798
 8446TIP3    H125279   0.732   1.707   3.449  0.2387 -1.1561 -0.4446
 8446TIP3    H225280   0.685   1.770   3.579  0.0147 -0.3374 -0.9119
 8447TIP3   OH225281   3.353   0.107   3.944 -0.0628  0.0859 -0.2614
 8447TIP3    H125282   3.334   0.120   4.037  1.0990  0.7429 -0.1029
 8447TIP3    H225283   3.267   0.106   3.902 -0.5131  3.0835  0.3977
 8448TIP3   OH225284   3.838   7.602   6.745 -0.4230 -0.1430 -0.2164
 8448TIP3    H125285   3.841   7.673   6.808  0.1013  0.5946 -1.0437
 8448TIP3    H225286   3.749   7.568   6.750 -0.5614  0.3185  0.4643
 8449TIP3   OH225287   3.553   7.012   0.744  0.4167  0.3337  0.1788
 8449TIP3    H125288   3.536   6.919   0.757 -0.3319  0.4528  0.0970
 8449TIP3    H225289   3.566   7.046   0.832  0.5244  0.1860  0.2215
 8450TIP3   OH225290   7.128   4.636   3.164 -0.1928  0.1755 -0.3031
 8450TIP3    H125291   7.079   4.559   3.194  0.5838 -0.2986 -0.2002
 8450TIP3    H225292   7.151   4.616   3.074  0.6278 -0.0457 -0.0554
 8451TIP3   OH225293   7.891   4.364   0.728  0.5611  0.0929  0.7336
 8451TIP3    H125294   7.814   4.366   0.671  0.3554  0.1460  1.0153
 8451TIP3    H225295   7.951   4.427   0.688  1.0238 -0.9393 -0.2765
 8452TIP3   OH225296   6.219   3.678   5.322 -0.0846  0.0776 -0.1165
 8452TIP3    H125297   6.278   3.669   5.397  0.9147  0.8577 -0.7979
 8452TIP3    H225298   6.154   3.608   5.336 -0.7856  1.0864  2.2253
 8453TIP3   OH225299   8.026   4.012   2.518  0.5735 -0.1011  0.3595
 8453TIP3    H125300   8.022   3.919   2.542  1.2214  0.0751  1.1965
 8453TIP3    H225301   8.044   4.057   2.600 -0.4854  0.8454  0.0940
 8454TIP3   OH225302   3.693   1.740   3.058 -0.0042  0.3576  0.2244
 8454TIP3    H125303   3.716   1.725   3.150 -1.3417 -0.8949  0.3800
 8454TIP3    H225304   3.670   1.654   3.024  0.9247  0.7275 -1.4417
 8455TIP3   OH225305   7.114   2.237   2.674 -0.2343  0.1303 -0.4531
 8455TIP3    H125306   7.122   2.252   2.768 -0.3407  0.0115 -0.4250
 8455TIP3    H225307   7.024   2.209   2.661 -0.2224  0.1503 -0.5916
 8456TIP3   OH225308   1.743   5.888   6.308 -0.1223  0.2502  0.1313
 8456TIP3    H125309   1.813   5.844   6.357  0.5175 -0.2057 -1.1541
 8456TIP3    H225310   1.772   5.885   6.217 -1.4088  0.8588 -0.3160
 8457TIP3   OH225311   5.249   0.313   0.241 -0.1059  0.4600 -0.3380
 8457TIP3    H125312   5.263   0.405   0.218  2.4629  0.2161  0.0129
 8457TIP3    H225313   5.232   0.270   0.158  0.9219  0.9090 -0.7983
 8458TIP3   OH225314   1.549   7.678   4.389 -0.5055  0.1469  0.0726
 8458TIP3    H125315   1.467   7.674   4.440 -0.1113 -0.4857  0.6723
 8458TIP3    H225316   1.520   7.690   4.299 -1.4193 -3.1731 -0.1946
 8459TIP3   OH225317   7.101   5.139   1.065  0.5022 -0.0083  0.2776
 8459TIP3    H125318   7.167   5.102   1.007 -1.1585 -0.1539 -1.6489
 8459TIP3    H225319   7.047   5.064   1.090  0.3935  0.2711  0.8872
 8460TIP3   OH225320   4.446   5.631   4.640 -0.6046 -0.3663 -0.4345
 8460TIP3    H125321   4.379   5.612   4.574 -0.4755 -2.1392 -0.1197
 8460TIP3    H225322   4.406   5.605   4.723  0.1753 -0.6979 -0.1533
 8461TIP3   OH225323   8.272   3.832   0.474  0.6100 -0.2768  0.2509
 8461TIP3    H125324   8.313   3.897   0.418  0.4631  1.4054  1.9848
 8461TIP3    H225325   8.180   3.857   0.476  0.4290 -0.9333  0.4436
 8462TIP3   OH225326   3.171   7.605   2.858 -0.5102 -0.5148 -0.4444
 8462TIP3    H125327   3.266   7.605   2.857 -0.4972 -0.4320 -1.7609
 8462TIP3    H225328   3.147   7.695   2.837 -0.9078 -0.2501  1.0422
 8463TIP3   OH225329   6.377   7.551   2.273  0.5916  0.1427  0.0392
 8463TIP3    H125330   6.434   7.598   2.212  0.3204  1.6402  0.8676
 8463TIP3    H225331   6.382   7.603   2.353 -0.7692 -0.5470  0.5877
 8464TIP3   OH225332   3.383   6.624   6.326  0.0766 -0.1975  0.1274
 8464TIP3    H125333   3.420   6.712   6.323 -1.1336  0.3597  0.8008
 8464TIP3    H225334   3.402   6.593   6.415  0.7919 -0.7623 -0.2130
 8465TIP3   OH225335   3.161   5.922   5.526  0.5471  0.2780 -0.0936
 8465TIP3    H125336   3.197   5.940   5.613 -1.4567  0.0795  0.8439
 8465TIP3    H225337   3.070   5.951   5.532  0.0602 -0.7862 -1.7696
 8466TIP3   OH225338   4.562   2.146   1.556  0.2433  0.0224 -0.1141
 8466TIP3    H125339   4.529   2.178   1.640 -0.4529  0.0798 -0.4054
 8466TIP3    H225340   4.484   2.124   1.506  0.5662 -4.7821  0.9987
 8467TIP3   OH225341   4.021   4.105   2.945 -0.2419  0.2498 -0.7000
 8467TIP3    H125342   4.039   4.022   2.900  1.5620 -1.1061  2.1679
 8467TIP3    H225343   4.075   4.169   2.900  1.0922 -0.9294 -0.8534
 8468TIP3   OH225344   2.211   4.082   5.536  0.3493  0.4410  0.7019
 8468TIP3    H125345   2.279   4.080   5.603 -0.1292  1.7723  1.2624
 8468TIP3    H225346   2.167   4.166   5.549  0.4087  0.8560 -1.4430
 8469TIP3   OH225347   5.381   5.231   5.798 -0.2380 -0.3365  0.0777
 8469TIP3    H125348   5.322   5.178   5.853 -0.8708  0.1483 -0.1340
 8469TIP3    H225349   5.456   5.248   5.855 -0.4998 -0.5754  0.5056
 8470TIP3   OH225350   0.631   5.243   5.820  0.5937 -0.0910 -0.0503
 8470TIP3    H125351   0.579   5.165   5.839 -0.6803  0.9646  1.0307
 8470TIP3    H225352   0.715   5.228   5.864 -0.1511 -0.2752  1.3629
 8471TIP3   OH225353   2.720   4.023   2.170 -0.7255 -0.1398  0.5608
 8471TIP3    H125354   2.804   4.068   2.169 -0.2459 -0.9976 -0.3171
 8471TIP3    H225355   2.743   3.930   2.164 -1.7198 -0.4318  1.0864
 8472TIP3   OH225356   2.154   7.394   3.999  0.1508  0.7804  0.1151
 8472TIP3    H125357   2.249   7.381   4.000  0.0214 -0.2753  0.4362
 8472TIP3    H225358   2.134   7.416   3.909  0.4583 -1.2180 -0.4871
 8473TIP3   OH225359   5.213   1.158   4.667 -0.7718  0.4038 -0.2046
 8473TIP3    H125360   5.236   1.149   4.759  0.1955  0.7928 -0.3930
 8473TIP3    H225361   5.185   1.249   4.657  0.3876  0.7351 -0.5443
 8474TIP3   OH225362   3.825   1.748   5.779  0.3804  0.2864 -0.4403
 8474TIP3    H125363   3.851   1.769   5.869 -1.2430  1.7678 -0.2597
 8474TIP3    H225364   3.731   1.767   5.777  0.2267 -0.5120 -2.2460
 8475TIP3   OH225365   2.652   6.619   5.259 -0.1036 -0.0535  0.0969
 8475TIP3    H125366   2.662   6.696   5.314 -0.3431 -0.1608  0.2925
 8475TIP3    H225367   2.718   6.629   5.191  1.5345 -0.8717  1.4919
 8476TIP3   OH225368   1.370   0.505   6.214 -0.0673  0.3380 -0.3109
 8476TIP3    H125369   1.418   0.438   6.166  0.0815 -0.0547  0.3788
 8476TIP3    H225370   1.424   0.524   6.290 -1.0894 -0.2884  0.6160
 8477TIP3   OH225371   2.487   1.009   2.429  0.0420 -0.3513  0.1824
 8477TIP3    H125372   2.407   0.956   2.432  0.1912 -0.6542 -0.8508
 8477TIP3    H225373   2.551   0.959   2.480  0.3855 -1.5319 -1.3575
 8478TIP3   OH225374   5.822   2.503   1.929 -0.5467  0.6158 -0.4796
 8478TIP3    H125375   5.864   2.421   1.905 -2.1990 -0.1763 -0.7308
 8478TIP3    H225376   5.838   2.512   2.023  0.8530  0.7525 -0.7079
 8479TIP3   OH225377   4.304   6.125   4.725  0.2905  0.1871  0.6845
 8479TIP3    H125378   4.362   6.060   4.764 -0.7998 -2.2840 -1.4627
 8479TIP3    H225379   4.347   6.148   4.642 -0.4263  0.4633  0.3846
 8480TIP3   OH225380   8.413   3.114   4.476  0.4076 -0.2937 -0.7125
 8480TIP3    H125381   8.422   3.019   4.474 -0.2716 -0.3725 -0.3084
 8480TIP3    H225382   8.337   3.130   4.532  1.2115  0.5379  0.1871
 8481TIP3   OH225383   4.323   3.590   6.596  0.2812 -0.0315  0.1993
 8481TIP3    H125384   4.340   3.684   6.607 -1.1509  0.3693 -0.7135
 8481TIP3    H225385   4.304   3.581   6.502 -2.4272 -0.7063  0.7251
 8482TIP3   OH225386   6.950   0.376   0.272  0.0640 -0.1999 -0.4716
 8482TIP3    H125387   6.932   0.293   0.317  0.6038 -0.2447 -0.3347
 8482TIP3    H225388   6.923   0.360   0.181  0.9258 -0.7967 -0.6308
 8483TIP3   OH225389   8.295   7.529   0.861  0.3034 -0.2612 -0.2835
 8483TIP3    H125390   8.282   7.514   0.955 -0.6291  2.4732  0.1282
 8483TIP3    H225391   8.380   7.572   0.855  0.2196 -0.1424 -0.6461
 8484TIP3   OH225392   3.818   2.295   2.715 -0.2924  0.1820 -0.5374
 8484TIP3    H125393   3.880   2.287   2.643 -1.5913  1.0888 -1.8059
 8484TIP3    H225394   3.774   2.379   2.699  0.7994  1.4801  2.4517
 8485TIP3   OH225395   2.331   5.155   3.333  0.6252 -0.4706 -0.2294
 8485TIP3    H125396   2.304   5.160   3.425 -0.7909  2.3493 -0.6950
 8485TIP3    H225397   2.424   5.177   3.334  0.7089 -0.8127  0.5296
 8486TIP3   OH225398   8.097   2.803   4.293 -0.2353  0.3254  0.4363
 8486TIP3    H125399   8.134   2.745   4.227 -0.4630 -0.0877  0.6635
 8486TIP3    H225400   8.110   2.891   4.258  1.6197  0.2409  0.8588
 8487TIP3   OH225401   1.002   3.546   3.758 -0.0286  0.5677  0.3010
 8487TIP3    H125402   1.071   3.613   3.752 -0.4587  1.0459  0.5628
 8487TIP3    H225403   0.989   3.516   3.668  0.4201  0.5853  0.2312
 8488TIP3   OH225404   7.547   3.043   4.376  0.0016  0.2598 -0.3147
 8488TIP3    H125405   7.498   3.088   4.444 -0.8594  0.5535 -1.1029
 8488TIP3    H225406   7.490   2.973   4.347  1.1389 -1.0870  0.5684
 8489TIP3   OH225407   1.320   6.209   6.594 -0.2709 -0.1284 -0.1620
 8489TIP3    H125408   1.285   6.257   6.519  1.9780  0.4832 -0.9001
 8489TIP3    H225409   1.312   6.270   6.667  1.4945  1.0101 -0.8542
 8490TIP3   OH225410   7.200   0.450   6.193  0.1568  0.5783  0.0504
 8490TIP3    H125411   7.205   0.408   6.279  0.1396  1.8962  0.7343
 8490TIP3    H225412   7.290   0.480   6.177 -0.0431  1.2283  0.1001
 8491TIP3   OH225413   6.526   5.423   2.537  0.3243  0.7723  0.2124
 8491TIP3    H125414   6.562   5.438   2.449 -1.7178  2.8776 -0.3628
 8491TIP3    H225415   6.519   5.511   2.575 -1.5377  0.1921  1.3373
 8492TIP3   OH225416   5.474   4.326   0.210  0.0368 -0.4769  0.0526
 8492TIP3    H125417   5.542   4.265   0.235 -0.4546 -1.0744 -0.0548
 8492TIP3    H225418   5.414   4.275   0.157  0.4778  0.4862 -1.4417
 8493TIP3   OH225419   2.750   1.456   3.783  0.5450 -0.5349  0.2566
 8493TIP3    H125420   2.800   1.434   3.705  0.6519  1.5664 -0.3251
 8493TIP3    H225421   2.817   1.478   3.848  0.4094 -0.4425  0.3630
 8494TIP3   OH225422   6.062   6.614   5.932 -0.2291  0.0661  0.3537
 8494TIP3    H125423   6.007   6.690   5.913 -1.8384  0.8819  6.2484
 8494TIP3    H225424   6.143   6.630   5.883 -2.2383  2.9118 -2.4622
 8495TIP3   OH225425   5.294   6.050   6.149  0.1202  0.3117  0.2442
 8495TIP3    H125426   5.368   6.035   6.089 -0.0327 -0.5216  0.2566
 8495TIP3    H225427   5.320   6.007   6.230 -0.0057  0.7803  0.5360
 8496TIP3   OH225428   4.150   2.021   6.128  0.1052  0.2884 -0.1189
 8496TIP3    H125429   4.220   2.069   6.083 -1.0868  3.0574  0.7232
 8496TIP3    H225430   4.187   2.002   6.215 -0.1231  1.7973  0.3481
 8497TIP3   OH225431   2.689   6.474   2.994 -0.3377  0.2696  0.2335
 8497TIP3    H125432   2.733   6.470   3.079 -1.0129 -1.8184  0.5340
 8497TIP3    H225433   2.758   6.500   2.933  0.2645  1.3569  1.3201
 8498TIP3   OH225434   4.031   0.967   2.349  0.2876  0.4715 -0.0146
 8498TIP3    H125435   4.093   0.940   2.281  0.5170 -1.3301  0.8347
 8498TIP3    H225436   4.084   0.967   2.430 -0.7718 -1.0903  0.7273
 8499TIP3   OH225437   5.618   5.748   6.280  0.1887 -0.3066  0.1132
 8499TIP3    H125438   5.656   5.703   6.204 -0.4332 -1.3710  0.4160
 8499TIP3    H225439   5.689   5.750   6.345  0.6380  0.3686 -0.3758
 8500TIP3   OH225440   7.441   2.445   6.298  0.4871 -0.3271  0.7929
 8500TIP3    H125441   7.370   2.408   6.245 -0.2475  0.1815  1.3981
 8500TIP3    H225442   7.495   2.370   6.322  0.2034 -0.7104  0.2554
 8501TIP3   OH225443   7.931   7.486   5.467 -0.5522  0.0246  0.0351
 8501TIP3    H125444   7.904   7.535   5.545 -0.0685 -1.5878  1.2863
 8501TIP3    H225445   7.979   7.411   5.502  1.6082  0.3890 -1.9168
 8502TIP3   OH225446   5.919   1.983   1.415 -0.2076 -0.1557  0.1068
 8502TIP3    H125447   5.971   1.907   1.390 -0.8156 -0.8716  0.9690
 8502TIP3    H225448   5.970   2.027   1.483 -1.0219 -1.2903  1.5182
 8503TIP3   OH225449   2.299   2.457   3.863  0.0703  0.2713 -0.1366
 8503TIP3    H125450   2.380   2.415   3.832 -0.1838 -0.8927  0.7094
 8503TIP3    H225451   2.327   2.510   3.937  0.3981  1.6773 -1.2283
 8504TIP3   OH225452   1.311   5.703   0.643  0.2773  0.0718 -0.4344
 8504TIP3    H125453   1.293   5.683   0.735  1.0173  0.3925 -0.2102
 8504TIP3    H225454   1.228   5.686   0.598 -0.5482  1.3534  0.5301
 8505TIP3   OH225455   1.297   1.976   3.156  0.1240  0.0890 -0.5622
 8505TIP3    H125456   1.285   2.046   3.092  1.4616  0.7051 -0.1618
 8505TIP3    H225457   1.266   2.014   3.238  0.1073 -0.0685 -0.4961
 8506TIP3   OH225458   4.532   3.716   0.797  0.2407 -0.4208  0.7237
 8506TIP3    H125459   4.512   3.808   0.786 -0.1616 -0.5936 -0.0170
 8506TIP3    H225460   4.462   3.682   0.853 -0.2383 -0.5182  0.0686
 8507TIP3   OH225461   0.362   2.904   6.394  0.5457  0.6453 -0.2876
 8507TIP3    H125462   0.291   2.885   6.333 -0.0546 -0.8579  0.8120
 8507TIP3    H225463   0.319   2.911   6.479  1.6423  0.2913  0.3125
 8508TIP3   OH225464   8.018   5.430   4.668 -0.0568  0.3582 -0.3550
 8508TIP3    H125465   7.983   5.514   4.699 -0.6205 -0.1181  0.3125
 8508TIP3    H225466   7.962   5.406   4.595  0.0432  0.5077 -0.4829
 8509TIP3   OH225467   5.633   2.062   3.751  0.2221  0.0742  0.1376
 8509TIP3    H125468   5.552   2.011   3.753  1.1037 -1.3567  1.1107
 8509TIP3    H225469   5.687   2.025   3.820  0.4461  3.2103  1.8633
 8510TIP3   OH225470   3.508   4.596   5.072 -0.5324 -0.0377  0.2724
 8510TIP3    H125471   3.524   4.666   5.008 -1.9238 -0.2360 -0.3494
 8510TIP3    H225472   3.588   4.592   5.124  0.4497  0.5036 -1.1151
 8511TIP3   OH225473   0.175   3.303   5.039 -0.3706 -0.0113  0.7149
 8511TIP3    H125474   0.150   3.244   5.110 -2.7554  0.8342  0.6945
 8511TIP3    H225475   0.121   3.275   4.965  0.7350  0.2708 -0.2224
 8512TIP3   OH225476   8.197   1.858   2.242 -0.8670  0.3943  0.1851
 8512TIP3    H125477   8.112   1.866   2.199 -1.3036 -1.3664  0.6412
 8512TIP3    H225478   8.257   1.831   2.172 -0.9425  0.4697  0.0922
 8513TIP3   OH225479   2.729   5.825   4.167  0.6171  0.1965 -0.3348
 8513TIP3    H125480   2.689   5.883   4.231 -0.6337 -2.5070  1.5696
 8513TIP3    H225481   2.657   5.771   4.135  1.9051 -1.4125 -0.6977
 8514TIP3   OH225482   2.314   2.136   1.356  1.2525 -0.1128  0.1480
 8514TIP3    H125483   2.351   2.048   1.347 -1.8257 -1.6524  0.9552
 8514TIP3    H225484   2.256   2.145   1.281 -0.4834  0.0621  1.4536
 8515TIP3   OH225485   5.878   6.011   3.442 -0.4773  0.1131  0.6083
 8515TIP3    H125486   5.911   5.941   3.386  1.9746  0.7192  1.1956
 8515TIP3    H225487   5.861   5.968   3.526  0.1884  0.0531  0.7154
 8516TIP3   OH225488   6.101   3.464   6.288  0.2487 -0.7329  0.8890
 8516TIP3    H125489   6.162   3.494   6.356  0.7480  1.0481 -0.2677
 8516TIP3    H225490   6.084   3.542   6.235 -1.8132 -1.5608  0.2199
 8517TIP3   OH225491   7.091   4.807   5.942  0.4601  0.4628 -0.0809
 8517TIP3    H125492   7.077   4.805   6.037  2.6561 -0.6837  0.2871
 8517TIP3    H225493   7.126   4.894   5.924 -1.0600  1.1177 -0.0826
 8518TIP3   OH225494   3.618   7.722   0.317 -0.1785 -0.0602  0.2024
 8518TIP3    H125495   3.621   7.671   0.236  1.2806  0.4511 -0.0835
 8518TIP3    H225496   3.709   7.746   0.334 -0.7418  1.9222  0.6520
 8519TIP3   OH225497   7.371   0.321   2.711  0.3967  0.0839 -0.5253
 8519TIP3    H125498   7.283   0.327   2.676  1.1060  3.7785 -2.1332
 8519TIP3    H225499   7.420   0.272   2.645  0.1047  0.2829 -0.8893
 8520TIP3   OH225500   6.801   5.993   1.282 -0.1880 -0.1625 -0.0221
 8520TIP3    H125501   6.825   5.901   1.270 -0.8402 -0.1688 -1.6027
 8520TIP3    H225502   6.883   6.041   1.269 -0.0751 -0.4545 -0.4038
 8521TIP3   OH225503   1.765   7.669   4.228  0.2575  0.1876 -0.4089
 8521TIP3    H125504   1.845   7.618   4.239  0.8935  1.1471 -0.5538
 8521TIP3    H225505   1.711   7.616   4.170  0.1551 -1.1652  0.8491
 8522TIP3   OH225506   3.201   0.482   3.799  0.0144 -0.8032  0.1716
 8522TIP3    H125507   3.207   0.560   3.744 -0.7621 -1.3593 -0.7265
 8522TIP3    H225508   3.292   0.465   3.825  0.2268  0.2264  0.1536
 8523TIP3   OH225509   4.343   6.698   6.118 -0.5458  0.1324 -0.1832
 8523TIP3    H125510   4.353   6.783   6.074 -0.5612  0.4722  0.4638
 8523TIP3    H225511   4.406   6.700   6.190 -0.5699 -0.3950 -0.1418
 8524TIP3   OH225512   0.907   0.296   0.466  0.2384 -0.0812 -0.4181
 8524TIP3    H125513   0.897   0.391   0.476  1.8543  0.1823 -0.9097
 8524TIP3    H225514   0.950   0.286   0.381  0.6230 -1.2052 -0.1026
 8525TIP3   OH225515   4.810   6.544   1.353 -0.3872  0.2513  0.0850
 8525TIP3    H125516   4.877   6.611   1.363  1.9820 -1.9026 -0.5248
 8525TIP3    H225517   4.803   6.531   1.259 -2.5310  1.1729  0.0536
 8526TIP3   OH225518   6.552   5.660   2.040 -0.0425 -0.3862 -0.0222
 8526TIP3    H125519   6.573   5.604   2.115 -1.0528 -1.0689 -0.2271
 8526TIP3    H225520   6.456   5.661   2.037 -0.0566  1.4442  0.0281
 8527TIP3   OH225521   2.142   5.502   2.671 -0.5046  0.4467 -0.4055
 8527TIP3    H125522   2.109   5.445   2.741  0.3436 -0.6317 -0.8557
 8527TIP3    H225523   2.064   5.546   2.638 -1.5818 -2.1125 -1.5264
 8528TIP3   OH225524   7.173   4.868   5.421  0.5410 -0.6275 -0.0121
 8528TIP3    H125525   7.265   4.894   5.417  1.0109 -2.3286 -1.2804
 8528TIP3    H225526   7.175   4.773   5.433 -1.0829 -0.4883  1.8260
 8529TIP3   OH225527   3.291   2.820   2.666 -0.0982  0.0230  0.2423
 8529TIP3    H125528   3.324   2.734   2.639  1.9224  0.7247  0.3354
 8529TIP3    H225529   3.289   2.816   2.761  0.8272  0.3401  0.2864
 8530TIP3   OH225530   6.572   1.944   5.301 -0.1506 -0.0551 -0.0482
 8530TIP3    H125531   6.658   1.973   5.273  0.4082 -0.4105  1.2358
 8530TIP3    H225532   6.587   1.857   5.339 -1.2538 -0.5928 -0.7646
 8531TIP3   OH225533   4.149   3.138   2.179 -0.5157 -0.0132  0.1321
 8531TIP3    H125534   4.230   3.115   2.224 -0.7451 -1.7622 -0.2608
 8531TIP3    H225535   4.125   3.223   2.215  0.7746 -0.0741  1.2345
 8532TIP3   OH225536   2.365   0.269   4.712 -0.8925 -0.0049  0.1484
 8532TIP3    H125537   2.337   0.223   4.791 -0.5128 -0.1870  0.1795
 8532TIP3    H225538   2.422   0.339   4.744  0.1372 -0.7366 -0.0248
 8533TIP3   OH225539   1.199   0.358   4.661  0.2608 -0.0539  0.1696
 8533TIP3    H125540   1.143   0.425   4.700  1.1668 -0.3613  2.1047
 8533TIP3    H225541   1.158   0.339   4.577 -2.3875 -0.0661  1.3673
 8534TIP3   OH225542   4.232   3.055   5.734 -0.0076  0.2744 -0.0717
 8534TIP3    H125543   4.229   2.981   5.794 -1.5747 -0.2011 -0.6764
 8534TIP3    H225544   4.141   3.067   5.707  0.2792  2.1395 -0.3394
 8535TIP3   OH225545   5.096   1.802   0.929  0.2270  0.1117  0.2584
 8535TIP3    H125546   5.168   1.865   0.924 -0.0737  0.4028 -0.4690
 8535TIP3    H225547   5.055   1.805   0.843 -2.7289  2.4291  1.5588
 8536TIP3   OH225548   7.545   3.786   5.314 -0.1781 -0.0202 -0.2995
 8536TIP3    H125549   7.627   3.780   5.363  0.3823 -0.2197 -1.2498
 8536TIP3    H225550   7.520   3.879   5.320  0.1667  0.0599 -0.1059
 8537TIP3   OH225551   4.264   2.914   0.208  0.3108 -0.2649 -0.2813
 8537TIP3    H125552   4.343   2.876   0.247 -0.1953 -0.4952  0.5353
 8537TIP3    H225553   4.239   2.984   0.268  0.1237  0.0837 -0.7579
 8538TIP3   OH225554   4.678   0.185   3.297  0.7592 -0.1117 -0.5413
 8538TIP3    H125555   4.721   0.238   3.230  1.7238 -0.8693 -0.5429
 8538TIP3    H225556   4.598   0.153   3.255  0.1414  1.3518 -0.5253
 8539TIP3   OH225557   2.847   6.814   3.695 -0.2931  0.4331  0.9862
 8539TIP3    H125558   2.796   6.752   3.643  0.7707 -0.5884  1.1170
 8539TIP3    H225559   2.840   6.897   3.648 -2.0194  0.3131  0.9789
 8540TIP3   OH225560   0.627   1.935   2.527  0.1506 -0.3036 -0.1949
 8540TIP3    H125561   0.546   1.887   2.542  0.3055 -0.5972 -0.2878
 8540TIP3    H225562   0.605   2.000   2.461 -0.1187 -0.0970  0.0964
 8541TIP3   OH225563   2.839   5.507   3.517  0.2760 -0.5336 -0.2457
 8541TIP3    H125564   2.824   5.495   3.611 -0.6685 -1.4207 -0.4890
 8541TIP3    H225565   2.754   5.492   3.477  0.8764 -1.2405 -1.3318
 8542TIP3   OH225566   5.354   3.904   6.105  0.1645 -0.0455 -0.2354
 8542TIP3    H125567   5.363   3.871   6.195 -0.1584 -0.2991 -0.2957
 8542TIP3    H225568   5.304   3.985   6.114  0.3113  0.0363 -0.1632
 8543TIP3   OH225569   6.208   1.191   0.616 -0.3078  0.5894  0.7292
 8543TIP3    H125570   6.201   1.096   0.609  0.5591  0.5249  0.5096
 8543TIP3    H225571   6.255   1.206   0.698  1.5850  0.6952 -0.3133
 8544TIP3   OH225572   2.947   2.398   2.239 -0.0533  0.4168 -0.0267
 8544TIP3    H125573   2.898   2.334   2.187  0.6942  0.4090 -0.7364
 8544TIP3    H225574   2.943   2.478   2.188 -0.8088  0.9097  0.7605
 8545TIP3   OH225575   7.591   1.661   6.770  0.4088  0.3418 -0.0928
 8545TIP3    H125576   7.654   1.733   6.769  0.1041  0.6093 -0.1678
 8545TIP3    H225577   7.540   1.674   6.849 -0.8633  1.2852 -1.0221
 8546TIP3   OH225578   1.652   5.116   0.747 -0.5648 -0.0831  0.0848
 8546TIP3    H125579   1.703   5.159   0.815 -1.1825  1.8000 -0.5553
 8546TIP3    H225580   1.602   5.048   0.793  1.1381 -0.7791  0.9928
 8547TIP3   OH225581   5.025   1.274   5.943  0.2357 -0.1063  0.3571
 8547TIP3    H125582   5.066   1.247   6.026  3.6230  1.6071 -0.5358
 8547TIP3    H225583   4.984   1.358   5.964 -0.3237 -0.4488  0.6417
 8548TIP3   OH225584   0.271   2.552   4.461  0.4664 -0.0631  0.3756
 8548TIP3    H125585   0.339   2.526   4.399 -0.7447 -0.5777 -0.7627
 8548TIP3    H225586   0.314   2.546   4.546  2.3403  1.2231 -0.4130
 8549TIP3   OH225587   6.572   6.806   0.417  0.0696 -0.2548  0.1987
 8549TIP3    H125588   6.491   6.836   0.376 -0.7689 -1.1360  1.1558
 8549TIP3    H225589   6.640   6.857   0.375 -0.9463  0.2578 -0.8859
 8550TIP3   OH225590   5.720   7.704   2.540  0.0655 -0.1695 -0.0766
 8550TIP3    H125591   5.773   7.657   2.475 -0.2625 -1.2589  0.4269
 8550TIP3    H225592   5.644   7.649   2.553  1.0346 -0.9964  2.6900
 8551TIP3   OH225593   3.347   3.964   2.199  0.1688  0.3920 -0.3300
 8551TIP3    H125594   3.305   3.939   2.281  1.4615 -1.1769 -0.0860
 8551TIP3    H225595   3.292   3.925   2.131  0.7306 -0.9694 -0.0440
 8552TIP3   OH225596   6.082   0.871   0.458 -0.2528 -0.0461 -0.2917
 8552TIP3    H125597   6.063   0.788   0.501  0.1725  0.2634  0.5178
 8552TIP3    H225598   6.053   0.937   0.521 -1.4422  0.4330 -1.3054
 8553TIP3   OH225599   2.525   5.263   1.051  0.1076 -0.6047 -0.4485
 8553TIP3    H125600   2.438   5.257   1.012 -0.4398  1.2534  0.3495
 8553TIP3    H225601   2.511   5.244   1.144  0.2026  1.3786  0.0122
 8554TIP3   OH225602   4.561   1.682   0.499 -0.8197 -0.5789 -0.5583
 8554TIP3    H125603   4.619   1.728   0.438 -1.0159 -1.6478 -1.6010
 8554TIP3    H225604   4.562   1.735   0.578 -1.2437  1.3508 -1.7827
 8555TIP3   OH225605   6.327   6.902   1.232 -0.0585 -0.0058  0.0522
 8555TIP3    H125606   6.265   6.842   1.273  0.5247 -1.3913 -1.0228
 8555TIP3    H225607   6.275   6.980   1.213 -1.4547 -1.0569 -0.6744
 8556TIP3   OH225608  -0.003   1.686   2.119 -0.1220  0.1623 -0.0550
 8556TIP3    H125609   0.087   1.677   2.149 -0.0749 -0.5424 -0.4024
 8556TIP3    H225610  -0.004   1.645   2.032 -0.8832 -0.2470  0.1433
 8557TIP3   OH225611   5.259   3.649  -0.024 -0.4905  0.4323  0.2594
 8557TIP3    H125612   5.293   3.638   0.064  0.1486  1.7989  0.2146
 8557TIP3    H225613   5.164   3.645  -0.015 -0.4003 -0.8922  0.7738
 8558TIP3   OH225614   2.822   4.603   2.985  0.3636  0.0022 -0.1104
 8558TIP3    H125615   2.774   4.685   2.993 -1.8741 -1.0193 -2.0721
 8558TIP3    H225616   2.906   4.627   2.947  0.7363  1.6046  1.5817
 8559TIP3   OH225617   0.182   5.622   2.340 -0.1209 -0.4048 -0.2103
 8559TIP3    H125618   0.123   5.572   2.397  1.6151  0.0659  2.1226
 8559TIP3    H225619   0.269   5.607   2.376  0.9413  0.8679 -2.0844
 8560TIP3   OH225620   2.474   2.426   0.432  0.9186 -0.1944 -0.0499
 8560TIP3    H125621   2.419   2.477   0.491  0.7925 -0.3933  0.0014
 8560TIP3    H225622   2.508   2.491   0.370 -1.6930 -0.4477 -1.9082
 8561TIP3   OH225623   3.180   5.812   3.853 -0.0219 -0.1674 -0.0652
 8561TIP3    H125624   3.205   5.720   3.848  1.2692  0.1189  0.7059
 8561TIP3    H225625   3.235   5.849   3.922  0.9228  1.6284 -1.6656
 8562TIP3   OH225626   0.057   6.407   4.839  0.2119 -0.6239 -0.0911
 8562TIP3    H125627   0.101   6.357   4.770  0.6099 -2.9449  1.7468
 8562TIP3    H225628   0.050   6.496   4.803  0.5827 -1.6715 -3.0136
 8563TIP3   OH225629   1.749   4.183   3.336  0.0238  0.1667  0.2334
 8563TIP3    H125630   1.704   4.214   3.415 -1.2658 -0.6574 -0.1452
 8563TIP3    H225631   1.682   4.134   3.288  0.6874  0.8935 -1.5216
 8564TIP3   OH225632   4.445   6.503   2.102  0.1216 -0.0494 -0.0921
 8564TIP3    H125633   4.477   6.576   2.156  1.0892 -1.3792  1.2065
 8564TIP3    H225634   4.525   6.460   2.071 -0.4395 -0.8470 -0.4542
 8565TIP3   OH225635   0.592   4.816   2.690  0.1625  0.2032  0.4530
 8565TIP3    H125636   0.515   4.853   2.648 -0.6895  0.0597  1.8205
 8565TIP3    H225637   0.607   4.733   2.644 -1.3680 -0.4541  1.0701
 8566TIP3   OH225638   5.987   5.420   2.367  0.3706  0.0855  0.0441
 8566TIP3    H125639   6.080   5.406   2.347  0.7454  1.0935  0.9522
 8566TIP3    H225640   5.979   5.515   2.378 -0.9073  0.0777 -0.6227
 8567TIP3   OH225641   1.186   4.583   4.910  0.3057 -0.1700  0.0134
 8567TIP3    H125642   1.210   4.646   4.978  1.2663 -0.3546 -0.1409
 8567TIP3    H225643   1.162   4.504   4.958  1.9326 -0.6222  0.1355
 8568TIP3   OH225644   7.435   2.980   6.573 -0.3754 -0.2059 -0.5113
 8568TIP3    H125645   7.489   2.904   6.554 -0.2924  0.1165 -1.6768
 8568TIP3    H225646   7.487   3.055   6.542 -0.0612  0.4299  1.4307
 8569TIP3   OH225647   3.639   2.290   6.382 -0.0333  0.0594 -0.0031
 8569TIP3    H125648   3.604   2.378   6.395  0.7715  0.4525 -0.3781
 8569TIP3    H225649   3.654   2.257   6.470  0.7580  0.7684  0.1466
 8570TIP3   OH225650   8.035   7.714   1.585  0.7136 -0.1194  0.1618
 8570TIP3    H125651   8.022   7.634   1.534  2.4413 -0.2311 -0.1754
 8570TIP3    H225652   8.078   7.685   1.665 -0.7845  0.2203  1.1236
 8571TIP3   OH225653   1.814   7.554   0.983 -0.0822 -0.1400  0.1529
 8571TIP3    H125654   1.843   7.644   0.997 -0.8494  0.0695  0.4460
 8571TIP3    H225655   1.887   7.512   0.938 -0.5886  1.2358 -2.1252
 8572TIP3   OH225656   4.004   1.479   5.748 -0.4599 -0.7443  0.6613
 8572TIP3    H125657   4.093   1.511   5.756 -0.0811 -1.7641  0.6943
 8572TIP3    H225658   3.951   1.557   5.736  0.4870 -0.1649  0.1837
 8573TIP3   OH225659   3.527   5.507   6.077 -0.1154 -0.5125 -0.4834
 8573TIP3    H125660   3.592   5.541   6.015 -0.1842 -0.7452 -0.6845
 8573TIP3    H225661   3.487   5.585   6.116  0.4503 -0.3644 -0.1814
 8574TIP3   OH225662   5.815   4.959   4.603  0.3612 -0.2716  0.3969
 8574TIP3    H125663   5.737   4.964   4.659  1.1430  2.2359  1.3871
 8574TIP3    H225664   5.795   4.890   4.540 -1.2657 -2.0895  2.7043
 8575TIP3   OH225665   3.046   1.253   3.931  0.6274  0.5330  0.1736
 8575TIP3    H125666   3.041   1.224   3.840  1.5018 -1.0773  0.6187
 8575TIP3    H225667   3.138   1.244   3.955 -0.0629 -2.4882  2.2493
 8576TIP3   OH225668   0.960   1.754   0.428  0.6582  0.3638 -0.5986
 8576TIP3    H125669   0.942   1.812   0.502 -1.2276 -0.0133 -0.7153
 8576TIP3    H225670   1.042   1.787   0.392  1.9565  0.2020  1.9743
 8577TIP3   OH225671   3.645   4.756   1.439  0.0088  0.1050 -0.4844
 8577TIP3    H125672   3.679   4.821   1.501 -1.0655 -0.4252  0.6986
 8577TIP3    H225673   3.703   4.681   1.451  0.3732  0.3252 -0.8192
 8578TIP3   OH225674   7.262   6.067   1.358  0.3413 -0.2172  0.5090
 8578TIP3    H125675   7.229   6.126   1.290 -0.2697 -0.4184  0.6245
 8578TIP3    H225676   7.308   5.999   1.310 -0.2198 -0.4415  0.2761
 8579TIP3   OH225677   6.186   2.097   3.722 -0.1194  0.2860 -0.3356
 8579TIP3    H125678   6.109   2.078   3.775  0.8580  0.4349  1.1943
 8579TIP3    H225679   6.191   2.024   3.660 -1.7236  0.5087 -0.7890
 8580TIP3   OH225680   8.051   4.538   4.462 -0.3984  0.0728  0.1528
 8580TIP3    H125681   8.090   4.533   4.375 -0.8030 -1.0441  0.0212
 8580TIP3    H225682   8.076   4.456   4.504  1.4945  1.4415  1.8561
 8581TIP3   OH225683   5.590   3.371   0.440  0.0355 -0.8566 -0.6394
 8581TIP3    H125684   5.525   3.377   0.511  0.1666 -0.2037 -0.5735
 8581TIP3    H225685   5.571   3.287   0.398 -3.1018  0.6835 -2.7583
 8582TIP3   OH225686   6.976   2.060   6.257 -0.5954 -0.4058 -0.1133
 8582TIP3    H125687   7.053   2.077   6.311  0.2071 -0.0308 -1.3277
 8582TIP3    H225688   6.916   2.132   6.277 -1.8195 -2.0272  2.7719
 8583TIP3   OH225689   6.925  -0.017   1.262  0.1223  0.0239 -0.4726
 8583TIP3    H125690   6.916   0.054   1.199  2.9509  0.0635 -0.9849
 8583TIP3    H225691   6.934   0.026   1.347 -0.8947  0.1133 -0.4023
 8584TIP3   OH225692   2.105   5.196   3.854  0.1019  0.0996  0.0309
 8584TIP3    H125693   2.033   5.146   3.894 -0.7231  0.0720 -1.4164
 8584TIP3    H225694   2.154   5.231   3.928 -1.3858  0.0836  1.0706
 8585TIP3   OH225695   0.989   3.534   4.050  0.4450 -0.2062  0.2265
 8585TIP3    H125696   0.950   3.460   4.096 -0.9134  1.2464  1.5409
 8585TIP3    H225697   0.953   3.528   3.961  0.2786 -1.0583  0.3423
 8586TIP3   OH225698   7.586   3.992   4.196  0.0045  0.4372 -0.3696
 8586TIP3    H125699   7.584   4.008   4.290 -1.0209  1.1994 -0.4993
 8586TIP3    H225700   7.522   4.054   4.160  0.3912  0.1669 -1.5667
 8587TIP3   OH225701   0.230   6.617   4.423 -0.0817 -0.3715 -0.0400
 8587TIP3    H125702   0.256   6.709   4.436  0.5680 -0.5044 -0.3452
 8587TIP3    H225703   0.240   6.603   4.328 -1.5425 -0.3551 -0.2083
 8588TIP3   OH225704   3.646   6.935   0.501 -0.0959  0.3157 -0.3881
 8588TIP3    H125705   3.674   6.857   0.548  0.2695  0.6685 -0.0099
 8588TIP3    H225706   3.601   6.988   0.568 -1.1092  0.0472 -0.8352
 8589TIP3   OH225707   1.574   4.298   5.230 -0.0389  0.7267  0.2634
 8589TIP3    H125708   1.648   4.239   5.215 -0.7337  0.1768 -1.0998
 8589TIP3    H225709   1.583   4.324   5.322  1.4581  0.1463  0.3085
 8590TIP3   OH225710   1.697   7.706   3.188  0.3151  0.2599 -0.3598
 8590TIP3    H125711   1.754   7.670   3.256  0.1202  1.1714  0.3100
 8590TIP3    H225712   1.744   7.690   3.106  0.8055 -0.3767  0.0383
 8591TIP3   OH225713   1.469   1.296   4.478  0.2091 -0.1016  0.2840
 8591TIP3    H125714   1.433   1.289   4.566 -1.4587 -0.1067 -0.3730
 8591TIP3    H225715   1.518   1.379   4.478 -0.4479  0.2922  0.9779
 8592TIP3   OH225716   0.741   1.727   4.868  0.1787  0.1921  0.0817
 8592TIP3    H125717   0.739   1.659   4.935  0.7708 -1.7449 -1.7447
 8592TIP3    H225718   0.831   1.759   4.869  0.1941  0.1460  0.2149
 8593TIP3   OH225719   2.083   4.620   2.440 -0.0482 -0.2699  0.2761
 8593TIP3    H125720   2.059   4.664   2.358 -1.3060 -1.9223 -0.3017
 8593TIP3    H225721   2.160   4.568   2.417  0.1565 -0.0270  0.4022
 8594TIP3   OH225722   2.174   7.527   3.667 -0.2513  0.4309 -0.1609
 8594TIP3    H125723   2.194   7.605   3.615 -1.4301  1.9099  1.4772
 8594TIP3    H225724   2.099   7.488   3.624 -2.1733  2.4789  1.1215
 8595TIP3   OH225725   3.863   6.767   4.404  0.3392 -0.0483 -0.0251
 8595TIP3    H125726   3.798   6.833   4.381  0.5028 -0.1021 -0.6810
 8595TIP3    H225727   3.910   6.751   4.322  1.1005 -0.0942  0.4069
 8596TIP3   OH225728   3.228   3.301   0.729  0.3742 -0.2882 -0.1972
 8596TIP3    H125729   3.236   3.373   0.667  0.9590 -0.0213  0.1838
 8596TIP3    H225730   3.188   3.339   0.807  0.6214 -0.3890 -0.0193
 8597TIP3   OH225731   1.286   5.152   5.071  0.4920  0.8892 -0.2537
 8597TIP3    H125732   1.242   5.138   4.988  2.0850  2.2796 -1.4182
 8597TIP3    H225733   1.216   5.158   5.135 -0.6969 -1.9535 -1.1635
 8598TIP3   OH225734   6.091   1.230   4.358  0.3577 -0.2860  0.1984
 8598TIP3    H125735   6.104   1.263   4.269  0.4236 -0.0359  0.3021
 8598TIP3    H225736   6.066   1.138   4.346 -1.1461  0.1444 -0.1441
 8599TIP3   OH225737   5.323   5.264   0.642 -0.7530  0.3991  0.6090
 8599TIP3    H125738   5.386   5.307   0.584  1.3576 -0.2573  2.2910
 8599TIP3    H225739   5.284   5.195   0.588  1.2438 -0.2948 -0.0432
 8600TIP3   OH225740   7.024   4.428   3.303  0.1793  0.9179 -0.2131
 8600TIP3    H125741   7.016   4.458   3.393 -0.6052 -0.1718  0.1014
 8600TIP3    H225742   6.947   4.372   3.289  0.1178  1.3087 -1.6537
 8601TIP3   OH225743   0.773   4.902   1.075  0.0268 -0.1684  0.3162
 8601TIP3    H125744   0.682   4.911   1.049  0.0484  4.2394  0.9062
 8601TIP3    H225745   0.770   4.879   1.168 -0.6628  1.8987  0.8624
 8602TIP3   OH225746   8.069   6.093   1.777  0.4146 -0.7424  0.4000
 8602TIP3    H125747   8.074   6.032   1.704 -1.8348 -1.6277  0.9086
 8602TIP3    H225748   8.074   6.039   1.855 -3.7540 -0.7895  0.9091
 8603TIP3   OH225749   3.721   3.891   2.095 -0.0817  0.2481 -0.0704
 8603TIP3    H125750   3.722   3.796   2.080  0.3282  0.4108 -1.1722
 8603TIP3    H225751   3.676   3.902   2.178  0.6118 -0.9777  0.4940
 8604TIP3   OH225752   2.158   3.069   6.084  0.1722  0.4193 -0.2717
 8604TIP3    H125753   2.191   3.070   5.995 -1.7070  0.4535 -1.0289
 8604TIP3    H225754   2.067   3.041   6.075  0.4200 -1.3381  1.8214
 8605TIP3   OH225755   4.751   2.363   4.093 -0.0686 -1.1863  0.3053
 8605TIP3    H125756   4.697   2.290   4.064 -0.4044 -0.8279  0.0113
 8605TIP3    H225757   4.720   2.382   4.181 -1.1084 -0.3630 -0.2103
 8606TIP3   OH225758   3.148   5.609   2.912  0.7635  0.5834  0.1534
 8606TIP3    H125759   3.129   5.677   2.976  0.8946  2.0987 -1.3483
 8606TIP3    H225760   3.075   5.547   2.921 -0.4265  1.9322  0.2633
 8607TIP3   OH225761   3.999   7.904   5.178 -0.4946  0.0571 -0.3537
 8607TIP3    H125762   4.020   7.982   5.229 -3.0599  0.4606  0.1914
 8607TIP3    H225763   4.040   7.832   5.228  1.3659  0.9178 -0.5448
 8608TIP3   OH225764   6.764   6.242   4.097  0.2144 -0.6715  0.4016
 8608TIP3    H125765   6.685   6.295   4.084  2.1537  1.8976 -2.2233
 8608TIP3    H225766   6.751   6.165   4.042 -0.4413 -0.2237 -0.0936
 8609TIP3   OH225767   2.235   7.584   3.229 -0.4827  0.0892 -0.3315
 8609TIP3    H125768   2.199   7.498   3.248  2.3570 -1.1168  0.0413
 8609TIP3    H225769   2.264   7.578   3.138 -0.7269  0.8559 -0.4695
 8610TIP3   OH225770   4.406   4.722   3.276  0.1271  0.1198  0.8162
 8610TIP3    H125771   4.442   4.754   3.359  2.6380  2.5461 -1.0093
 8610TIP3    H225772   4.483   4.709   3.220 -1.5384  0.0640 -1.6091
 8611TIP3   OH225773   6.696   3.989   4.238 -0.0283 -0.0796  0.2549
 8611TIP3    H125774   6.607   3.960   4.255 -0.1251 -0.5716 -1.0346
 8611TIP3    H225775   6.727   4.021   4.323 -1.0668 -0.8594  0.9496
 8612TIP3   OH225776   4.893   3.708   6.528  0.3588  0.6758  0.2393
 8612TIP3    H125777   4.974   3.725   6.575 -0.1843  2.1232  0.7009
 8612TIP3    H225778   4.824   3.732   6.589 -0.3652  2.8160 -1.2775
 8613TIP3   OH225779   4.309   6.957   4.983  0.0311 -0.4182  0.1571
 8613TIP3    H125780   4.271   7.033   5.028  1.3793  0.3244  0.0881
 8613TIP3    H225781   4.354   6.995   4.907  2.9152 -0.9363  1.4953
 8614TIP3   OH225782   3.786   0.369   0.691  0.0228 -0.2882 -0.1615
 8614TIP3    H125783   3.712   0.423   0.719 -0.7050 -0.5827 -1.4266
 8614TIP3    H225784   3.755   0.279   0.699  0.7314 -0.4778  0.5840
 8615TIP3   OH225785   2.149   7.485   4.370  0.3867  0.0697 -0.1715
 8615TIP3    H125786   2.179   7.394   4.364 -0.3417 -0.1503 -0.7294
 8615TIP3    H225787   2.074   7.489   4.310  0.5612  1.1013 -0.3382
 8616TIP3   OH225788   1.013   7.365   6.181  0.1989 -0.1619 -0.4874
 8616TIP3    H125789   1.027   7.356   6.087  0.0151  0.8537 -0.6216
 8616TIP3    H225790   0.928   7.409   6.188  0.6999  0.7307  0.1202
 8617TIP3   OH225791   3.274   0.107   0.059  0.5682 -0.5129  0.1961
 8617TIP3    H125792   3.193   0.136   0.017  1.1159  0.3711 -0.2926
 8617TIP3    H225793   3.251   0.024   0.102 -0.8271  0.2023  0.8849
 8618TIP3   OH225794   1.413   0.858   5.708  0.4140 -0.3240  0.5503
 8618TIP3    H125795   1.340   0.911   5.739  0.5343  0.5160 -0.5306
 8618TIP3    H225796   1.472   0.921   5.666  0.4817 -1.3008 -0.9116
 8619TIP3   OH225797   5.317   4.542   4.681  0.0014  0.0176 -0.1806
 8619TIP3    H125798   5.376   4.512   4.612  0.7104  0.9825 -0.0092
 8619TIP3    H225799   5.247   4.588   4.634  0.0919  0.0379 -0.2946
 8620TIP3   OH225800   1.244   2.365   3.664  0.1767 -0.2827  0.4399
 8620TIP3    H125801   1.246   2.269   3.665 -0.0541 -0.3102 -0.5868
 8620TIP3    H225802   1.336   2.391   3.671  0.3972 -0.6334 -0.7710
 8621TIP3   OH225803   7.549   4.366   3.543  0.0766 -0.0890  0.2960
 8621TIP3    H125804   7.512   4.449   3.515 -0.0909 -0.0530  0.6218
 8621TIP3    H225805   7.510   4.301   3.484 -0.0014  0.0288  0.2185
 8622TIP3   OH225806   4.296   5.079   3.360  0.2048  0.4419  0.3259
 8622TIP3    H125807   4.375   5.069   3.413 -1.3903 -0.6096  2.6303
 8622TIP3    H225808   4.272   5.171   3.368 -0.0471  0.2844  1.5378
 8623TIP3   OH225809   0.750   7.442   3.851  0.5077  0.0324  0.5703
 8623TIP3    H125810   0.719   7.399   3.772  0.1915  0.6898  0.3246
 8623TIP3    H225811   0.825   7.390   3.879 -0.0688 -0.8639  0.4806
 8624TIP3   OH225812   0.901   5.387   0.097  0.5486 -1.3293 -0.3611
 8624TIP3    H125813   0.977   5.351   0.051  1.9522  0.6136  0.3042
 8624TIP3    H225814   0.873   5.461   0.043  0.7305 -0.4947  0.6625
 8625TIP3   OH225815   4.143   0.292   3.871 -0.7050  1.1266  0.7661
 8625TIP3    H125816   4.212   0.249   3.922 -0.3550  1.7757  0.8459
 8625TIP3    H225817   4.139   0.242   3.790 -0.6000  0.6792  1.0296
 8626TIP3   OH225818   3.030   2.740   0.150  0.0570  0.2071  0.4437
 8626TIP3    H125819   3.042   2.654   0.191 -0.4697  0.2789  0.7609
 8626TIP3    H225820   2.940   2.764   0.172  0.6501  1.5045  1.6209
 8627TIP3   OH225821   3.481   5.280   6.236  0.1797  0.1193 -0.4023
 8627TIP3    H125822   3.509   5.367   6.208 -1.9169  1.0972  0.3834
 8627TIP3    H225823   3.426   5.248   6.164 -1.0762  0.5189  0.3526
 8628TIP3   OH225824   3.010   1.686   1.643 -0.3406 -0.0598 -0.0620
 8628TIP3    H125825   3.102   1.663   1.646 -0.1753  0.5648 -0.2102
 8628TIP3    H225826   2.964   1.606   1.669  0.2049 -0.5733 -0.6658
 8629TIP3   OH225827   7.000   6.196   1.193 -0.0407 -0.3070 -0.0836
 8629TIP3    H125828   6.976   6.143   1.117  1.6425 -0.3150 -0.6480
 8629TIP3    H225829   7.055   6.266   1.157  0.2189  0.0864  1.0318
 8630TIP3   OH225830   3.045   2.245   5.219 -0.1682 -0.2143  0.3031
 8630TIP3    H125831   2.965   2.242   5.166  0.6255 -1.0449 -0.9028
 8630TIP3    H225832   3.015   2.267   5.307 -1.4972  1.5571 -0.5329
 8631TIP3   OH225833   7.844   3.196   5.670 -0.4627  0.0568 -0.7082
 8631TIP3    H125834   7.882   3.124   5.619  0.1301 -0.0919 -0.0864
 8631TIP3    H225835   7.766   3.158   5.711 -1.1430  0.2801 -1.7685
 8632TIP3   OH225836   1.743   3.107   2.780  0.1962 -0.0360 -0.1106
 8632TIP3    H125837   1.672   3.132   2.722  0.9121  0.6311 -0.7179
 8632TIP3    H225838   1.733   3.012   2.791 -1.2748  0.1678  0.5045
 8633TIP3   OH225839   5.982   5.363   6.369 -0.7007 -0.6903  0.5683
 8633TIP3    H125840   5.983   5.453   6.401  0.6833 -0.3033 -0.5008
 8633TIP3    H225841   6.063   5.354   6.319 -0.2787 -2.8502  1.5138
 8634TIP3   OH225842   4.505   2.155   6.862  0.4090 -0.1388  0.1328
 8634TIP3    H125843   4.469   2.244   6.869  1.5005  0.1805  2.4253
 8634TIP3    H225844   4.566   2.160   6.788 -0.2173  0.7493 -0.3492
 8635TIP3   OH225845   0.332   0.344   5.994 -0.5083  0.4556 -0.1894
 8635TIP3    H125846   0.372   0.424   6.027 -0.9237  0.1426  1.1034
 8635TIP3    H225847   0.293   0.303   6.070 -1.9550 -0.0328 -1.1437
 8636TIP3   OH225848   3.636   4.818   4.066 -0.2978 -0.6658 -1.0785
 8636TIP3    H125849   3.607   4.732   4.098 -1.0553  0.2856  0.9964
 8636TIP3    H225850   3.691   4.852   4.136 -0.9642  1.0211 -1.3406
 8637TIP3   OH225851   1.571   3.553   2.594  0.0668 -0.2112  0.3349
 8637TIP3    H125852   1.621   3.493   2.539  1.4589 -0.2888  1.6204
 8637TIP3    H225853   1.594   3.640   2.561  0.5754 -0.2741  0.5111
 8638TIP3   OH225854   1.917   0.332   0.276  0.1985  0.0798 -0.1022
 8638TIP3    H125855   1.842   0.391   0.281 -0.7722 -1.1973  1.9618
 8638TIP3    H225856   1.878   0.245   0.265  1.5433 -0.3591 -1.8560
 8639TIP3   OH225857   6.489   2.912   0.541 -0.1215  0.0344  0.2232
 8639TIP3    H125858   6.432   2.937   0.615 -0.2700 -2.6033  1.0936
 8639TIP3    H225859   6.437   2.932   0.464 -1.2516 -0.0730  0.9323
 8640TIP3   OH225860   5.847   1.115   1.496  0.3770  0.3654 -1.1064
 8640TIP3    H125861   5.925   1.153   1.537  0.1872 -0.9424  0.5746
 8640TIP3    H225862   5.822   1.044   1.555 -1.2808 -0.1258 -2.3539
 8641TIP3   OH225863   3.235   7.890   3.434 -0.2413  0.1686 -0.6404
 8641TIP3    H125864   3.287   7.889   3.515 -0.4285  2.5988 -0.4032
 8641TIP3    H225865   3.273   7.961   3.383 -2.5851  1.3183 -0.9333
 8642TIP3   OH225866   7.010   3.743   6.190 -0.3758  0.0647  0.0328
 8642TIP3    H125867   6.978   3.736   6.280  0.2604  1.6722  0.4270
 8642TIP3    H225868   7.102   3.716   6.196 -0.9092 -2.0618 -0.6090
 8643TIP3   OH225869   6.443   4.509   1.829  0.0924 -0.0764  1.0144
 8643TIP3    H125870   6.456   4.472   1.742 -1.1602 -2.6303  1.8335
 8643TIP3    H225871   6.395   4.442   1.877 -0.4486  1.8147  3.2860
 8644TIP3   OH225872   2.495   2.034   0.552 -0.0296  0.0598 -0.3582
 8644TIP3    H125873   2.463   2.095   0.485  2.7282  0.3405 -1.5683
 8644TIP3    H225874   2.522   1.956   0.503 -1.5382 -1.3465  0.9335
 8645TIP3   OH225875   5.752   6.909   6.496  0.0524 -0.4627  0.2360
 8645TIP3    H125876   5.713   6.997   6.502  0.1920 -0.3566 -0.3034
 8645TIP3    H225877   5.759   6.880   6.586 -1.0913 -0.3997  0.3675
 8646TIP3   OH225878   2.474   1.854   2.903 -0.4751  0.5130 -0.8831
 8646TIP3    H125879   2.396   1.886   2.948 -0.9463 -0.5976 -0.8839
 8646TIP3    H225880   2.547   1.896   2.948 -1.0470  1.1844 -0.5637
 8647TIP3   OH225881   5.364   5.166   2.216 -0.0363  0.2416 -0.4523
 8647TIP3    H125882   5.284   5.137   2.173 -0.7627  0.1874  0.8965
 8647TIP3    H225883   5.339   5.182   2.307  1.0517  2.1236 -0.4337
 8648TIP3   OH225884   0.151   4.428   6.833  0.2016  0.3251 -0.2520
 8648TIP3    H125885   0.125   4.478   6.911  0.8031  0.1583  0.0671
 8648TIP3    H225886   0.215   4.484   6.789  0.0303  0.3209 -0.5084
 8649TIP3   OH225887   5.824   6.289   2.975  0.5261 -0.4772  0.4086
 8649TIP3    H125888   5.870   6.310   3.056 -1.4084  2.3961  0.9461
 8649TIP3    H225889   5.755   6.228   3.001  1.2322 -1.2751  0.4550
 8650TIP3   OH225890   7.775   2.633   2.077 -0.4797 -0.1776 -0.7361
 8650TIP3    H125891   7.814   2.693   2.140  1.0825 -0.8407 -0.9975
 8650TIP3    H225892   7.790   2.675   1.992  1.6690 -1.3673 -1.0292
 8651TIP3   OH225893   5.421   3.173   1.957 -0.2990  0.0971  0.0851
 8651TIP3    H125894   5.470   3.112   1.902  0.1406  0.5224 -0.0011
 8651TIP3    H225895   5.372   3.227   1.895 -0.2584  0.1952  0.1390
 8652TIP3   OH225896   4.114   5.593   0.209  0.4255 -0.3467 -0.4088
 8652TIP3    H125897   4.039   5.562   0.158  0.4703  1.0412 -1.3853
 8652TIP3    H225898   4.076   5.654   0.272  0.6272 -0.3287 -0.3056
 8653TIP3   OH225899   1.529   3.056   5.326  0.4435 -0.0628  0.5589
 8653TIP3    H125900   1.487   3.088   5.246 -1.6322 -2.1630  0.7008
 8653TIP3    H225901   1.571   2.974   5.300 -0.8351 -1.1320  1.6838
 8654TIP3   OH225902   2.576   3.091   2.820  0.6814  0.2049 -0.1149
 8654TIP3    H125903   2.603   3.080   2.911 -1.5679  0.6915  0.6883
 8654TIP3    H225904   2.588   3.184   2.802  0.9196  0.1491 -0.2460
 8655TIP3   OH225905   6.136   7.168   2.383  0.0300  0.0059 -0.2372
 8655TIP3    H125906   6.145   7.263   2.380  1.0880 -0.1101 -1.4077
 8655TIP3    H225907   6.153   7.145   2.475 -1.8439  1.0593  0.4176
 8656TIP3   OH225908   3.148   3.917   5.662  0.1449 -0.5489  0.5978
 8656TIP3    H125909   3.189   3.839   5.625  1.0687  0.3649 -0.3955
 8656TIP3    H225910   3.194   3.990   5.619 -0.2307  0.5417  1.9881
 8657TIP3   OH225911   6.877   5.176   2.688 -0.0862 -0.7936  0.3917
 8657TIP3    H125912   6.936   5.213   2.755  1.1173 -2.2787  0.2121
 8657TIP3    H225913   6.790   5.187   2.725  0.3317  0.8390  0.9938
 8658TIP3   OH225914   4.992   4.058   4.025 -0.8920  0.3024  0.1610
 8658TIP3    H125915   4.951   4.106   3.953 -2.1486 -0.9023  0.0192
 8658TIP3    H225916   5.014   4.125   4.090 -0.4051  1.3188 -1.0274
 8659TIP3   OH225917   5.843   0.811   0.967  0.3277  0.4633  0.1642
 8659TIP3    H125918   5.764   0.775   1.007 -0.8897 -1.2332 -3.3620
 8659TIP3    H225919   5.905   0.738   0.965  0.4359  0.5632 -0.7403
 8660TIP3   OH225920   4.675   2.554   2.973  0.3019  0.2549  0.1436
 8660TIP3    H125921   4.763   2.591   2.960 -0.0101  0.9403 -0.0587
 8660TIP3    H225922   4.624   2.587   2.899 -0.3111  0.4405  0.6410
 8661TIP3   OH225923   7.232   4.794   1.054  0.2948 -0.5542  0.2017
 8661TIP3    H125924   7.299   4.731   1.028  0.4443  0.5334 -2.3576
 8661TIP3    H225925   7.280   4.871   1.084  0.1230 -0.9747  1.6261
 8662TIP3   OH225926   3.507   2.228   2.770  0.0837 -0.5658  1.0303
 8662TIP3    H125927   3.495   2.141   2.731  1.0255  0.6923 -2.3415
 8662TIP3    H225928   3.555   2.278   2.705 -0.1805  2.4771  2.9651
 8663TIP3   OH225929   4.641   4.639   4.763  0.1043 -1.0392 -0.4025
 8663TIP3    H125930   4.589   4.582   4.706 -0.2049 -0.5231 -0.6394
 8663TIP3    H225931   4.703   4.682   4.703 -0.6861  0.0374 -0.4645
 8664TIP3   OH225932   6.630   4.012   6.761 -0.1914  0.6250  0.4697
 8664TIP3    H125933   6.682   4.071   6.706  0.4439  0.1664  0.5694
 8664TIP3    H225934   6.542   4.050   6.759 -0.1236  0.7626 -0.6463
 8665TIP3   OH225935   4.312   6.184  -0.001 -0.1078  0.2850  0.1055
 8665TIP3    H125936   4.275   6.219   0.080  1.3032  3.2935 -0.4184
 8665TIP3    H225937   4.236   6.159  -0.053 -1.1627  0.9971  1.2453
 8666TIP3   OH225938   5.548   5.515   2.296  0.1231 -0.3556  0.3426
 8666TIP3    H125939   5.571   5.538   2.386  0.5629  0.9916 -0.0974
 8666TIP3    H225940   5.459   5.480   2.302 -0.1703  0.5024  1.2027
 8667TIP3   OH225941   4.687   2.861   0.927 -0.8826  0.0725  0.6433
 8667TIP3    H125942   4.717   2.797   0.862 -0.8249  0.7813 -0.0457
 8667TIP3    H225943   4.708   2.822   1.011  1.6365  0.3411  0.2170
 8668TIP3   OH225944   2.156   4.224   2.988 -0.3995  0.1075  0.3938
 8668TIP3    H125945   2.231   4.208   3.045 -0.3180  0.6462  0.4447
 8668TIP3    H225946   2.100   4.147   3.000 -0.2084  0.0433  0.9228
 8669TIP3   OH225947   7.573   0.807   4.701 -0.0015  0.1968  0.2257
 8669TIP3    H125948   7.560   0.734   4.763 -3.0751  0.4544  0.0464
 8669TIP3    H225949   7.563   0.885   4.755  3.4273  0.6326  0.4416
 8670TIP3   OH225950   6.758   7.610   2.776 -0.0164 -0.0248  0.1304
 8670TIP3    H125951   6.689   7.639   2.836 -0.6412  0.1254 -0.6307
 8670TIP3    H225952   6.712   7.599   2.692  0.4720 -1.8736  0.0622
 8671TIP3   OH225953   2.039   6.652   0.359  0.1930  0.5371 -0.2694
 8671TIP3    H125954   2.107   6.593   0.390  0.8467  1.8634  0.9413
 8671TIP3    H225955   2.075   6.689   0.279  0.4316  0.4204 -0.2184
 8672TIP3   OH225956   6.804   4.010   0.957  0.1994  0.3683 -0.0021
 8672TIP3    H125957   6.741   3.958   0.907  0.2417 -1.9976  2.2100
 8672TIP3    H225958   6.750   4.076   1.001 -1.1431 -2.3669  2.8360
 8673TIP3   OH225959   2.146   6.351   4.854 -0.1006  0.1025  0.2709
 8673TIP3    H125960   2.216   6.321   4.911  0.5570  1.1614  0.0364
 8673TIP3    H225961   2.185   6.421   4.802 -1.0186 -0.0438 -0.6535
 8674TIP3   OH225962   6.399   6.358   2.617  0.0260  0.2204 -0.1198
 8674TIP3    H125963   6.429   6.425   2.679  1.2425  0.9463 -1.4314
 8674TIP3    H225964   6.474   6.300   2.605 -0.6058 -0.6496  0.0223
 8675TIP3   OH225965   7.102   0.411   3.504 -0.5515  0.2540 -0.0037
 8675TIP3    H125966   7.036   0.440   3.567  0.3720  0.4076  0.9211
 8675TIP3    H225967   7.156   0.489   3.489 -0.6888  0.1820 -0.8928
 8676TIP3   OH225968   5.419   2.594   4.259  0.3125  0.1404  0.2105
 8676TIP3    H125969   5.323   2.599   4.255  0.3260  0.0294 -0.4338
 8676TIP3    H225970   5.448   2.685   4.263  0.1728  0.1689  0.5488
 8677TIP3   OH225971   6.518   2.470   2.064  0.5772  0.2350 -0.4191
 8677TIP3    H125972   6.545   2.554   2.101  0.3036 -0.1829  0.7840
 8677TIP3    H225973   6.586   2.449   2.000  0.2025  1.7668 -1.3866
 8678TIP3   OH225974   3.316   6.501   3.600 -0.5287 -0.4840 -0.2536
 8678TIP3    H125975   3.369   6.481   3.523 -0.7798  0.1648 -0.6028
 8678TIP3    H225976   3.326   6.425   3.657  0.5525 -0.4973 -0.4392
 8679TIP3   OH225977   5.886   2.658   3.931 -0.2681  0.0826 -0.1020
 8679TIP3    H125978   5.807   2.705   3.903 -0.4134 -0.8419 -1.3421
 8679TIP3    H225979   5.852   2.586   3.984 -0.3294 -0.7198 -1.2073
 8680TIP3   OH225980   6.535   4.247   0.085 -0.7334 -0.3837  0.1422
 8680TIP3    H125981   6.617   4.284   0.116 -0.8474  0.8068 -0.8849
 8680TIP3    H225982   6.550   4.153   0.082  0.0861 -0.3051  1.3654
 8681TIP3   OH225983   0.629   6.792   6.121  0.0861 -0.1442  0.2673
 8681TIP3    H125984   0.558   6.735   6.092  0.1609  0.0510 -0.3147
 8681TIP3    H225985   0.618   6.798   6.215 -1.5514  1.0420  0.0390
 8682TIP3   OH225986   2.959   3.772   2.357  0.3189  0.5649 -0.2645
 8682TIP3    H125987   2.896   3.752   2.427  1.4887 -0.4941  0.5237
 8682TIP3    H225988   2.906   3.770   2.277 -0.3535 -2.5990  0.0916
 8683TIP3   OH225989   2.311   6.538   4.784 -0.2219  0.4168  0.7992
 8683TIP3    H125990   2.406   6.550   4.783 -0.5302  4.0834  1.3097
 8683TIP3    H225991   2.278   6.606   4.843 -3.2622  0.2610 -0.4880
 8684TIP3   OH225992   7.672   2.386   0.046 -0.1400  0.1895 -0.2013
 8684TIP3    H125993   7.714   2.378  -0.039 -0.5352 -3.3961 -0.2090
 8684TIP3    H225994   7.741   2.416   0.105  0.2138  2.3745 -1.6414
 8685TIP3   OH225995   7.149   7.649   4.906  0.0354 -0.3461  0.8103
 8685TIP3    H125996   7.176   7.699   4.829 -1.4610  0.6442  0.8983
 8685TIP3    H225997   7.228   7.601   4.931  1.5101  1.7777  0.5798
 8686TIP3   OH225998   5.790   1.462   1.437  0.3239 -0.1556  0.1109
 8686TIP3    H125999   5.713   1.446   1.382  0.9190 -0.5538 -0.6310
 8686TIP3    H226000   5.788   1.556   1.454  1.2172  0.3801 -2.3227
 8687TIP3   OH226001   6.425   0.401   4.203 -0.5155  0.4111  0.3025
 8687TIP3    H126002   6.352   0.442   4.249 -0.9877 -1.4827  1.3318
 8687TIP3    H226003   6.499   0.409   4.263 -0.3961  0.4899  0.1462
 8688TIP3   OH226004   8.105   7.262   5.338 -0.3143 -0.9526  0.5468
 8688TIP3    H126005   8.051   7.215   5.274 -0.6060 -0.4283  0.3943
 8688TIP3    H226006   8.076   7.229   5.423  0.3227 -1.9098  0.4003
 8689TIP3   OH226007   4.025   5.507   0.795  0.0262 -0.1126 -0.0936
 8689TIP3    H126008   4.061   5.595   0.808  0.5488 -0.2065 -0.8695
 8689TIP3    H226009   4.102   5.451   0.785 -0.3214 -0.5162 -0.5167
 8690TIP3   OH226010   2.467   4.747   3.889 -0.1398 -0.1187 -0.1697
 8690TIP3    H126011   2.463   4.652   3.876  1.6814 -0.2649  0.1050
 8690TIP3    H226012   2.440   4.760   3.979  1.4255 -0.5905  0.3928
 8691TIP3   OH226013   6.338   2.135   5.984 -0.5712 -0.2124  0.0278
 8691TIP3    H126014   6.283   2.073   5.936  0.3925 -1.1307  0.0635
 8691TIP3    H226015   6.417   2.142   5.930 -0.1645  0.0221  0.6545
 8692TIP3   OH226016   5.467   7.750   6.768  0.4532 -0.4516  0.3903
 8692TIP3    H126017   5.473   7.661   6.733  1.6597  0.1950 -1.1790
 8692TIP3    H226018   5.529   7.750   6.841 -0.4414 -1.2028  1.1798
 8693TIP3   OH226019   1.441   0.091   5.698 -0.7272 -0.0767 -0.2798
 8693TIP3    H126020   1.417   0.158   5.634 -2.0256 -1.3647 -1.1971
 8693TIP3    H226021   1.367   0.087   5.758  0.6171  1.3487  1.5692
 8694TIP3   OH226022   5.572   2.576   2.292  0.3511  0.1304 -0.3700
 8694TIP3    H126023   5.539   2.596   2.204  0.8060  1.3878 -0.2748
 8694TIP3    H226024   5.664   2.553   2.278  0.0530 -1.1277 -0.3747
 8695TIP3   OH226025   0.020   6.028   2.596  0.1958 -0.4710 -0.4877
 8695TIP3    H126026   0.058   5.977   2.668 -0.5596  0.2365  0.4302
 8695TIP3    H226027   0.019   5.967   2.522  0.9601 -1.2212  0.1013
 8696TIP3   OH226028   5.727   0.738   3.260  0.4174 -0.2666  0.2918
 8696TIP3    H126029   5.686   0.677   3.198  1.5344  0.0142 -0.7652
 8696TIP3    H226030   5.659   0.757   3.324 -0.6267 -0.9517 -0.5850
 8697TIP3   OH226031   8.017   4.834   1.293  0.0563 -0.0840 -0.1156
 8697TIP3    H126032   7.984   4.769   1.355  2.1684 -1.6603 -0.5277
 8697TIP3    H226033   8.006   4.793   1.207  0.1982  0.6767 -0.5089
 8698TIP3   OH226034   8.253   3.831   5.338  0.0228  0.4629 -1.1278
 8698TIP3    H126035   8.314   3.903   5.324  0.7249  0.0829 -0.1337
 8698TIP3    H226036   8.304   3.752   5.322  0.2281  0.0885  1.0425
 8699TIP3   OH226037   7.438   0.386   0.725 -0.0504 -0.1910 -0.2892
 8699TIP3    H126038   7.477   0.309   0.767 -1.7708 -1.7796 -1.4459
 8699TIP3    H226039   7.345   0.381   0.748 -0.2643  1.3702 -0.6893
 8700TIP3   OH226040   7.007   6.062   0.035  0.3407  0.4268 -0.4705
 8700TIP3    H126041   6.981   5.980  -0.008  0.9523 -0.9369  1.6054
 8700TIP3    H226042   7.092   6.083  -0.004 -0.6684  1.1887 -2.3937
 8701TIP3   OH226043   5.718   5.906   2.534  0.4450 -0.7010  0.0827
 8701TIP3    H126044   5.775   5.972   2.575  0.3053  0.2893 -1.2422
 8701TIP3    H226045   5.642   5.900   2.592 -0.0512  1.1451 -0.3092
 8702TIP3   OH226046   0.452   6.555   1.518 -0.0490 -0.2826 -0.1662
 8702TIP3    H126047   0.450   6.645   1.486  2.1076 -0.9560 -2.4749
 8702TIP3    H226048   0.396   6.556   1.596 -0.0240  3.0398 -0.0698
 8703TIP3   OH226049   5.778   7.142   2.785  0.2957 -0.0084 -0.1379
 8703TIP3    H126050   5.841   7.089   2.832  0.7606  0.0838 -0.6483
 8703TIP3    H226051   5.695   7.125   2.829  0.0032 -2.7660 -1.5119
 8704TIP3   OH226052   5.440   7.777   1.684  0.1020 -0.2185  0.7686
 8704TIP3    H126053   5.465   7.844   1.621 -1.1542 -0.9206 -0.5419
 8704TIP3    H226054   5.397   7.709   1.631  0.1510 -1.4339  2.2187
 8705TIP3   OH226055   4.435   1.226   1.379  0.5469 -0.1130 -0.3330
 8705TIP3    H126056   4.413   1.150   1.324  1.2240 -0.3572 -0.2792
 8705TIP3    H226057   4.448   1.298   1.317 -2.1336  0.5249 -0.2823
 8706TIP3   OH226058   1.778   1.819   2.455  0.7101 -0.4382 -0.4960
 8706TIP3    H126059   1.841   1.748   2.442  0.4413 -1.1203  1.6226
 8706TIP3    H226060   1.693   1.776   2.459  0.5221  0.0108  0.5988
 8707TIP3   OH226061   0.819   3.416   0.830 -0.5724  0.8104 -0.0424
 8707TIP3    H126062   0.908   3.446   0.846 -0.5323  0.7013 -0.0636
 8707TIP3    H226063   0.783   3.401   0.918 -0.0657 -0.6444 -0.0595
 8708TIP3   OH226064   2.760   4.130   6.207 -0.4580 -0.1392 -0.3786
 8708TIP3    H126065   2.676   4.175   6.197 -1.1320  0.0127  3.9415
 8708TIP3    H226066   2.804   4.142   6.123 -3.0993  3.2480 -1.5235
 8709TIP3   OH226067   4.726   1.385   4.599  0.1997  0.0175 -0.3488
 8709TIP3    H126068   4.726   1.447   4.526  1.5746  1.1490  0.5690
 8709TIP3    H226069   4.654   1.414   4.655 -1.1378 -1.1074 -1.3944
 8710TIP3   OH226070   7.182   3.242   6.532 -0.1229  0.0863 -0.4401
 8710TIP3    H126071   7.173   3.303   6.458  0.5355 -0.8247 -1.3014
 8710TIP3    H226072   7.144   3.288   6.606 -3.7011 -0.0716 -1.9353
 8711TIP3   OH226073   5.132   1.644   4.011  0.0671  0.2305  0.2833
 8711TIP3    H126074   5.098   1.562   4.046 -2.2142  1.6991  1.7349
 8711TIP3    H226075   5.121   1.636   3.916  0.8478 -1.4871  0.2926
 8712TIP3   OH226076   1.695   4.161   1.063  0.9548  0.4860 -0.1253
 8712TIP3    H126077   1.762   4.211   1.016  0.7152  1.3336  0.4151
 8712TIP3    H226078   1.717   4.172   1.155 -1.4427  3.1146  0.2624
 8713TIP3   OH226079   1.090   0.693   5.297  0.4978  0.6772 -0.3591
 8713TIP3    H126080   1.120   0.706   5.388  1.8417 -0.3134 -0.6287
 8713TIP3    H226081   1.072   0.600   5.291  0.4311  0.7383 -1.1156
 8714TIP3   OH226082   5.617   2.082   4.651  0.0127 -0.1451  0.4335
 8714TIP3    H126083   5.681   2.143   4.613 -0.3269 -0.0147  0.0765
 8714TIP3    H226084   5.671   2.018   4.698  0.4923 -0.9604 -1.1859
 8715TIP3   OH226085   0.164   1.641   5.980 -0.2371  0.2634  0.1219
 8715TIP3    H126086   0.245   1.640   5.929 -0.0347 -2.5280  0.3435
 8715TIP3    H226087   0.184   1.695   6.056  1.2187  0.1508 -0.1499
 8716TIP3   OH226088   0.906   3.585   0.235 -0.2414  0.1480  0.5402
 8716TIP3    H126089   0.994   3.621   0.230 -0.2921  0.3284  0.9323
 8716TIP3    H226090   0.910   3.523   0.308 -0.1886 -0.5507 -0.0406
 8717TIP3   OH226091   0.076   5.990   2.147 -0.4827  0.0038 -0.2853
 8717TIP3    H126092   0.160   6.016   2.185  0.2487 -3.1872  0.6339
 8717TIP3    H226093   0.076   6.028   2.059  1.0915  1.5359  0.3148
 8718TIP3   OH226094   0.312   1.758   1.800 -0.0453  0.5943  0.2962
 8718TIP3    H126095   0.224   1.721   1.804 -0.2270  1.0428  0.5174
 8718TIP3    H226096   0.306   1.829   1.736  0.1508  0.6301  0.3148
 8719TIP3   OH226097   1.197   0.288   3.801 -0.1827 -0.1918  0.7691
 8719TIP3    H126098   1.179   0.332   3.884  2.0715 -0.1097  1.2752
 8719TIP3    H226099   1.288   0.309   3.782 -0.8103  0.3103 -2.0736
 8720TIP3   OH226100   4.875   0.726   6.499 -0.4958  0.0053  0.3430
 8720TIP3    H126101   4.872   0.790   6.428  0.4400 -0.9233 -0.5587
 8720TIP3    H226102   4.948   0.669   6.477  0.3063  0.1367  2.4450
 8721TIP3   OH226103   3.107   2.032   5.885 -0.0169 -0.0315  0.1102
 8721TIP3    H126104   3.056   2.018   5.805 -0.6414  0.0976  0.4813
 8721TIP3    H226105   3.110   1.946   5.927 -0.2182  0.0295  0.2534
 8722TIP3   OH226106   6.442   1.942   5.705  0.4839 -0.6335  0.4539
 8722TIP3    H126107   6.484   2.028   5.706  0.9489 -0.8284  3.0110
 8722TIP3    H226108   6.356   1.956   5.743 -0.4410 -0.8988 -1.4316
 8723TIP3   OH226109   7.501   5.394   4.999  0.4564 -0.2991  0.0955
 8723TIP3    H126110   7.517   5.369   4.908  1.4812  0.5445  0.0254
 8723TIP3    H226111   7.408   5.418   5.000  0.6893  0.7664 -1.0156
 8724TIP3   OH226112   0.938   0.600   0.637  0.4108 -0.0438 -0.2994
 8724TIP3    H126113   0.967   0.555   0.716 -1.6705 -0.6205  0.2142
 8724TIP3    H226114   0.963   0.692   0.651  1.2384 -0.3617  0.4153
 8725TIP3   OH226115   7.455   4.390   5.019 -0.1009  0.2902  0.1484
 8725TIP3    H126116   7.449   4.484   5.000  0.1395  0.1996 -0.3858
 8725TIP3    H226117   7.536   4.362   4.977  0.4979  0.0964  1.3971
 8726TIP3   OH226118   0.765   6.839   5.461 -0.2751 -0.4994  0.2704
 8726TIP3    H126119   0.779   6.746   5.482  1.6828 -0.4489 -0.5854
 8726TIP3    H226120   0.738   6.838   5.369 -0.0163 -0.2230  0.1905
 8727TIP3   OH226121   4.952   3.452   5.745  0.4507 -0.6555  0.3172
 8727TIP3    H126122   4.986   3.517   5.683 -0.0310  0.3440  1.0797
 8727TIP3    H226123   5.030   3.404   5.773  0.9335  0.1363  0.3657
 8728TIP3   OH226124   6.852   7.256   6.541 -0.1012 -0.6408  0.4024
 8728TIP3    H126125   6.865   7.226   6.451 -0.5967  1.3322 -0.3646
 8728TIP3    H226126   6.764   7.226   6.563 -0.3647 -0.2623 -0.1290
 8729TIP3   OH226127   0.960   2.202   6.547  0.0545 -0.4785  0.2357
 8729TIP3    H126128   0.960   2.108   6.561  1.0922 -0.5787 -0.3482
 8729TIP3    H226129   0.892   2.235   6.606 -1.1039 -1.6961 -0.3612
 8730TIP3   OH226130   0.634   1.042   5.207 -0.5317  0.7970 -0.0588
 8730TIP3    H126131   0.682   0.973   5.254  0.9991  1.3041 -0.7964
 8730TIP3    H226132   0.556   1.058   5.260  0.5859  0.5931  1.7189
 8731TIP3   OH226133   5.756   4.935   6.335 -0.6850 -0.3635 -0.3279
 8731TIP3    H126134   5.729   5.026   6.353 -0.8816 -0.7194  1.4138
 8731TIP3    H226135   5.824   4.918   6.400 -0.5960 -1.4509 -0.6957
 8732TIP3   OH226136   4.202   3.950   0.482  0.5658 -0.3378  0.0044
 8732TIP3    H126137   4.227   3.954   0.390  0.0113  1.8427 -0.1068
 8732TIP3    H226138   4.144   3.874   0.488  1.1009 -0.8773 -1.2970
 8733TIP3   OH226139   2.540   4.861   6.564  0.0978 -0.4173  0.3087
 8733TIP3    H126140   2.591   4.844   6.643  0.1253  0.1381  0.4130
 8733TIP3    H226141   2.605   4.864   6.494  0.3708  1.3325  0.5810
 8734TIP3   OH226142   0.327   3.491   4.876  0.0668 -0.0248  0.4124
 8734TIP3    H126143   0.408   3.523   4.915  0.0905  0.7973 -0.2818
 8734TIP3    H226144   0.289   3.434   4.943  0.2817  1.0538  1.4931
 8735TIP3   OH226145   2.355   7.237   0.553  0.2162 -0.6631  0.2500
 8735TIP3    H126146   2.299   7.243   0.475 -0.6471  0.4857  0.9369
 8735TIP3    H226147   2.434   7.287   0.530 -0.8929  1.4460  0.7923
 8736TIP3   OH226148   5.346   3.316   3.257  0.2955  0.0140  0.2841
 8736TIP3    H126149   5.407   3.242   3.265  1.3180  0.9307  1.2170
 8736TIP3    H226150   5.370   3.358   3.175 -0.9656 -1.2492 -0.7799
 8737TIP3   OH226151   4.305   5.400   0.684  0.0674  0.1757  0.1483
 8737TIP3    H126152   4.317   5.393   0.590 -2.4940  0.7481 -0.2835
 8737TIP3    H226153   4.366   5.336   0.721  0.7768 -0.3831 -1.9120
 8738TIP3   OH226154   0.778   0.521   3.753  0.0785  0.0986 -0.5034
 8738TIP3    H126155   0.760   0.550   3.842 -1.0926  1.6759 -1.1972
 8738TIP3    H226156   0.818   0.598   3.711 -1.2095  0.0707 -1.8533
 8739TIP3   OH226157   5.216   7.794   2.058  0.1397 -0.2672  0.6127
 8739TIP3    H126158   5.166   7.723   2.019  1.6139 -0.0613 -1.8393
 8739TIP3    H226159   5.267   7.753   2.127 -0.9240 -1.0733  0.9402
 8740TIP3   OH226160   2.418   5.648   3.447  0.4438 -0.1376  0.2222
 8740TIP3    H126161   2.353   5.716   3.429  0.4196  0.3828  2.0727
 8740TIP3    H226162   2.477   5.687   3.511  0.2509 -1.9008  1.5701
 8741TIP3   OH226163   2.004   7.448   6.142 -0.5723 -0.2603 -0.0429
 8741TIP3    H126164   2.002   7.542   6.122 -1.2373 -0.1654  0.3990
 8741TIP3    H226165   1.926   7.435   6.197  1.6994 -0.2328  3.5065
 8742TIP3   OH226166   4.311   4.165   6.482  0.2968  0.0244  0.0765
 8742TIP3    H126167   4.267   4.232   6.430  1.3889  2.0478  1.6192
 8742TIP3    H226168   4.405   4.183   6.472  0.6040 -0.8852  1.0286
 8743TIP3   OH226169   1.273   4.518   3.840 -0.2725 -0.2688  0.5211
 8743TIP3    H126170   1.289   4.564   3.758 -0.5274  1.1318  1.2189
 8743TIP3    H226171   1.328   4.440   3.836  0.8036  0.5110 -0.3625
 8744TIP3   OH226172   3.114   5.840   3.121 -0.3972  0.1689 -0.4643
 8744TIP3    H126173   3.026   5.805   3.133 -1.6120  2.1328 -2.7367
 8744TIP3    H226174   3.137   5.879   3.205 -0.6489 -2.3764  0.8696
 8745TIP3   OH226175   3.082   1.431   6.202  0.0382 -0.5875  0.4288
 8745TIP3    H126176   3.031   1.361   6.242  0.3520 -0.0154  1.9125
 8745TIP3    H226177   3.124   1.475   6.276  0.9102  0.3351 -0.5748
 8746TIP3   OH226178   2.293   4.624   2.759  0.0111  0.4754  0.4046
 8746TIP3    H126179   2.236   4.690   2.718  0.7831  1.5533  0.9959
 8746TIP3    H226180   2.243   4.591   2.833  0.8512  2.9621  2.2265
 8747TIP3   OH226181   4.237   2.504   1.651 -0.1620  0.2811  0.0998
 8747TIP3    H126182   4.236   2.597   1.628  1.3369  0.0411 -1.1545
 8747TIP3    H226183   4.198   2.461   1.575 -2.2138 -0.0672  1.2805
 8748TIP3   OH226184   5.798   0.962   2.942  1.0333  0.7087  0.0926
 8748TIP3    H126185   5.856   0.988   2.870 -0.0589 -1.9573 -1.9221
 8748TIP3    H226186   5.849   0.898   2.992  0.0812 -1.4165 -1.5092
 8749TIP3   OH226187   7.897   1.000   2.022  0.3728 -0.3341 -0.0943
 8749TIP3    H126188   7.951   0.949   2.084 -3.0940 -2.2498  1.6723
 8749TIP3    H226189   7.852   0.933   1.970  1.2858  1.2301 -3.1241
 8750TIP3   OH226190   4.653   0.575   4.758  0.9158  0.1942  0.1648
 8750TIP3    H126191   4.629   0.492   4.717 -2.2180  1.1488 -0.2575
 8750TIP3    H226192   4.659   0.637   4.685  2.1997  0.5573  0.5612
 8751TIP3   OH226193   6.313   0.830   0.318  0.3718 -0.0788  0.0269
 8751TIP3    H126194   6.333   0.739   0.338 -0.2282  0.0300  1.2096
 8751TIP3    H226195   6.242   0.853   0.377  1.2364  1.4759  0.5233
 8752TIP3   OH226196   2.975   0.915   4.373  0.9324  0.3978  0.3023
 8752TIP3    H126197   3.026   0.970   4.432 -0.0011  0.7741  0.7740
 8752TIP3    H226198   2.900   0.969   4.348  0.7594 -0.1443 -0.3740
 8753TIP3   OH226199   3.391   2.684   5.056 -0.2532 -0.2035  0.0418
 8753TIP3    H126200   3.310   2.646   5.089  0.0395 -0.7351  0.1481
 8753TIP3    H226201   3.456   2.615   5.067  0.2693  0.3086  0.1897
 8754TIP3   OH226202   6.754   0.282   2.978 -0.2007  0.1013 -0.6830
 8754TIP3    H126203   6.802   0.220   3.034  0.4619  0.5672 -0.7175
 8754TIP3    H226204   6.671   0.238   2.960 -0.2586 -0.2332  0.3207
 8755TIP3   OH226205   1.401   6.749   1.172  0.2923  0.3027  0.3615
 8755TIP3    H126206   1.425   6.813   1.240  2.3469  0.7377 -0.6974
 8755TIP3    H226207   1.408   6.797   1.090  0.0453 -0.8107 -0.3270
 8756TIP3   OH226208   2.548   6.225   1.526  0.0123  0.2671  0.0160
 8756TIP3    H126209   2.590   6.305   1.495 -0.8410  1.2067  1.2019
 8756TIP3    H226210   2.461   6.253   1.554 -0.5128 -1.1857 -0.0632
 8757TIP3   OH226211   0.356   5.718   1.201 -0.1854  0.0852 -0.0149
 8757TIP3    H126212   0.424   5.727   1.135 -0.3402 -0.3697 -0.2383
 8757TIP3    H226213   0.292   5.658   1.162 -0.5857  0.3099  0.2945
 8758TIP3   OH226214   3.591   3.810   5.896 -0.2712  0.4858 -0.1661
 8758TIP3    H126215   3.531   3.879   5.870 -1.2396 -0.7094 -1.2930
 8758TIP3    H226216   3.608   3.762   5.815 -0.1517 -0.9716  0.6806
 8759TIP3   OH226217   8.350   2.632   6.411  0.5210 -0.1768 -0.3463
 8759TIP3    H126218   8.298   2.633   6.491  0.3602  1.8020 -0.4320
 8759TIP3    H226219   8.439   2.615   6.441  0.0721 -2.3546 -0.0819
 8760TIP3   OH226220   0.192   4.513   0.762 -0.3382 -0.0747 -0.7159
 8760TIP3    H126221   0.258   4.468   0.708 -1.5608 -0.7334 -1.7090
 8760TIP3    H226222   0.191   4.465   0.844  1.7614  1.1140  0.1013
 8761TIP3   OH226223   1.638   3.716   2.929 -0.9119  0.1601 -0.1599
 8761TIP3    H126224   1.645   3.757   3.015  0.6522  0.7242 -0.5256
 8761TIP3    H226225   1.681   3.778   2.870  2.0740 -2.1706 -0.6683
 8762TIP3   OH226226   2.459   3.152   5.908 -0.4029 -0.5260 -0.0628
 8762TIP3    H126227   2.386   3.200   5.867  0.8312  0.4945 -1.1402
 8762TIP3    H226228   2.459   3.182   5.998  0.1591  1.3418 -0.6427
 8763TIP3   OH226229   7.466   1.897   0.048  0.5667 -0.2518 -0.2022
 8763TIP3    H126230   7.426   1.926  -0.034 -0.4063 -0.8160  0.0554
 8763TIP3    H226231   7.442   1.805   0.056  0.6263 -0.2033  0.7250
 8764TIP3   OH226232   2.253   3.121   2.048 -0.3416 -0.1430  0.1301
 8764TIP3    H126233   2.254   3.207   2.005  1.4520 -0.9781 -1.6560
 8764TIP3    H226234   2.177   3.076   2.010 -2.0631  1.0168  2.0133
 8765TIP3   OH226235   4.730   5.810   5.520 -0.2407 -0.3012  0.3856
 8765TIP3    H126236   4.728   5.900   5.553  0.1505  0.2631 -1.0230
 8765TIP3    H226237   4.645   5.797   5.479 -0.5182 -0.7933  1.1038
 8766TIP3   OH226238   1.231   6.934   1.491  0.3984  0.0746  0.3281
 8766TIP3    H126239   1.179   6.923   1.412  0.7287 -2.5833  0.3747
 8766TIP3    H226240   1.320   6.947   1.459  0.3693  0.0842  0.2499
 8767TIP3   OH226241   3.704   7.026   4.715  0.3259  0.6304  0.1923
 8767TIP3    H126242   3.641   7.044   4.645 -1.6032  0.9830  1.9477
 8767TIP3    H226243   3.655   7.037   4.796  1.8377 -2.0646  1.6384
 8768TIP3   OH226244   3.380   0.772   1.731 -0.1714 -0.8372 -0.1093
 8768TIP3    H126245   3.315   0.841   1.744  1.1297  0.5326 -0.5941
 8768TIP3    H226246   3.374   0.751   1.638  0.8956  0.1920 -0.4369
 8769TIP3   OH226247   7.085   1.410   5.887  0.2753 -0.4281 -0.4525
 8769TIP3    H126248   7.095   1.479   5.821 -0.2502 -1.9094 -2.1766
 8769TIP3    H226249   7.004   1.433   5.933  1.3090  1.3103  0.5994
 8770TIP3   OH226250   4.871   6.370   5.873  0.1485 -0.1357  0.8447
 8770TIP3    H126251   4.927   6.379   5.796 -3.3231  1.7094 -1.8143
 8770TIP3    H226252   4.831   6.283   5.864 -0.8157  0.3700  0.0586
 8771TIP3   OH226253   3.586   4.676   5.650 -1.0389  0.3545  0.0834
 8771TIP3    H126254   3.501   4.671   5.694 -0.1515  0.6809  1.9422
 8771TIP3    H226255   3.648   4.694   5.721  0.7585 -1.1156 -1.0510
 8772TIP3   OH226256   8.205   7.779   4.840 -0.2946 -0.0853 -0.2854
 8772TIP3    H126257   8.123   7.785   4.791  0.3347  0.6846 -1.2563
 8772TIP3    H226258   8.247   7.699   4.808 -1.2145 -1.1744  1.1091
 8773TIP3   OH226259   6.171   4.607   4.569 -0.0486  0.1047  0.8203
 8773TIP3    H126260   6.251   4.615   4.621 -0.2496  1.8899  0.9065
 8773TIP3    H226261   6.180   4.674   4.501  0.2954 -2.2845 -1.6464
 8774TIP3   OH226262   4.673   4.424   0.064  0.0261  0.1574  0.1114
 8774TIP3    H126263   4.747   4.483   0.075  0.4549 -0.4720  0.6368
 8774TIP3    H226264   4.601   4.481   0.039  0.2945  0.9794  1.1378
 8775TIP3   OH226265   3.263   1.712   2.320  0.0461  0.0640 -0.6260
 8775TIP3    H126266   3.278   1.694   2.413 -0.1344  1.0479 -0.4041
 8775TIP3    H226267   3.181   1.761   2.318  0.9998  1.6919 -1.1310
 8776TIP3   OH226268   1.873   1.270   5.133  0.0931  0.2689  0.3936
 8776TIP3    H126269   1.901   1.321   5.209 -0.8821  0.2652  0.7720
 8776TIP3    H226270   1.793   1.313   5.103  0.5594  0.3776 -0.7532
 8777TIP3   OH226271   4.726   4.334   3.340 -0.8718  0.4693  0.1104
 8777TIP3    H126272   4.718   4.257   3.283  0.2587  2.2968 -2.6986
 8777TIP3    H226273   4.636   4.355   3.364 -1.2165 -1.5934  0.8313
 8778TIP3   OH226274   3.631   1.670   4.310  0.1532  0.4358 -0.3420
 8778TIP3    H126275   3.580   1.745   4.278  0.8085  0.2934 -1.8136
 8778TIP3    H226276   3.643   1.688   4.403 -1.6946  0.9787 -0.1599
 8779TIP3   OH226277   7.001   1.318   2.555 -0.2847  0.3181 -0.0546
 8779TIP3    H126278   7.020   1.254   2.486  0.1494  1.6147 -1.1983
 8779TIP3    H226279   7.080   1.322   2.608 -1.0611 -1.6046  1.3415
 8780TIP3   OH226280   8.416   5.328   2.617 -0.5759 -0.6545 -0.2311
 8780TIP3    H126281   8.403   5.260   2.683 -0.8380  0.4936  0.9523
 8780TIP3    H226282   8.357   5.304   2.545 -0.8115 -1.5566  0.2522
 8781TIP3   OH226283   7.439   6.896   4.171  0.1052  0.8728  0.1017
 8781TIP3    H126284   7.452   6.975   4.223 -2.4838  1.3813  0.1066
 8781TIP3    H226285   7.445   6.824   4.235  0.2057  1.2382  0.5086
 8782TIP3   OH226286   4.915   7.476   6.725 -0.3647  0.2631 -0.2236
 8782TIP3    H126287   4.832   7.470   6.772  0.3023 -0.3243  0.9249
 8782TIP3    H226288   4.909   7.409   6.657 -1.0687  0.6457 -0.5482
 8783TIP3   OH226289   6.939   4.379   3.615  0.3942 -0.1879 -0.3295
 8783TIP3    H126290   6.874   4.309   3.603  0.3187 -0.3236  0.7769
 8783TIP3    H226291   6.909   4.426   3.693  0.9767  0.4902 -0.5078
 8784TIP3   OH226292   1.957   2.426   5.298 -0.5089  0.2881  0.0701
 8784TIP3    H126293   1.907   2.408   5.378  1.7793 -1.0961  1.2943
 8784TIP3    H226294   1.893   2.461   5.236 -2.1168  3.1021  3.0182
 8785TIP3   OH226295   4.763   2.737   0.363 -0.3600  0.0348 -0.0062
 8785TIP3    H126296   4.821   2.661   0.357 -1.1189 -0.5911  0.4435
 8785TIP3    H226297   4.777   2.784   0.281  1.2755  0.2715  0.3535
 8786TIP3   OH226298   8.130   4.537   5.494 -0.3296 -0.2785 -0.0386
 8786TIP3    H126299   8.223   4.527   5.470 -0.1454  0.9801  0.0577
 8786TIP3    H226300   8.118   4.632   5.501 -1.7024 -0.4221 -0.3144
 8787TIP3   OH226301   7.728   3.186   1.357 -0.5973 -0.0972  0.0829
 8787TIP3    H126302   7.638   3.152   1.356 -0.0909 -1.6493 -2.6569
 8787TIP3    H226303   7.782   3.112   1.331  1.6464  0.5948  2.3910
 8788TIP3   OH226304   0.779   4.063   0.706  0.3080 -0.2955  0.4954
 8788TIP3    H126305   0.863   4.063   0.753  0.7788  0.8016 -0.3234
 8788TIP3    H226306   0.798   4.103   0.621 -0.8446 -0.9244 -0.0857
 8789TIP3   OH226307   8.321   3.948   6.109 -0.8668 -0.0288 -0.2153
 8789TIP3    H126308   8.235   3.936   6.067 -1.3703 -0.0928  0.7946
 8789TIP3    H226309   8.371   3.871   6.081 -1.5268 -0.5890  0.0863
 8790TIP3   OH226310   5.757   5.180   1.012 -0.2357  0.0525 -0.0378
 8790TIP3    H126311   5.823   5.229   1.061 -0.2298  1.2842 -1.2286
 8790TIP3    H226312   5.676   5.191   1.061  0.1631 -0.3858  0.7354
 8791TIP3   OH226313   1.239   7.131   3.448  0.4662 -0.0616 -0.3346
 8791TIP3    H126314   1.263   7.038   3.447 -0.9619 -0.4781 -2.2529
 8791TIP3    H226315   1.214   7.148   3.539 -0.9708 -2.0747 -0.2800
 8792TIP3   OH226316   1.337   4.711   5.820 -0.3515 -0.0095 -0.0074
 8792TIP3    H126317   1.364   4.793   5.862 -1.3838  1.7087 -2.4860
 8792TIP3    H226318   1.418   4.661   5.811  0.2961  0.7024  1.5616
 8793TIP3   OH226319   5.715   2.652   5.143 -0.2451 -0.3953 -0.1264
 8793TIP3    H126320   5.763   2.599   5.207  1.7662 -1.1640 -2.1379
 8793TIP3    H226321   5.765   2.644   5.062 -1.8950  1.6667 -1.4829
 8794TIP3   OH226322   0.243   3.465   6.126  0.4250 -0.7720 -0.2848
 8794TIP3    H126323   0.313   3.520   6.163 -1.8552  1.3303  1.2657
 8794TIP3    H226324   0.259   3.378   6.163  0.7652  0.2685  2.2513
 8795TIP3   OH226325   4.282   0.512   4.860 -0.0201 -0.4392 -0.2810
 8795TIP3    H126326   4.312   0.533   4.949  2.8626 -1.5462 -0.8698
 8795TIP3    H226327   4.343   0.557   4.803 -1.3970 -0.3317 -1.7336
 8796TIP3   OH226328   3.117   6.674   3.531 -0.1441 -0.2631  0.0059
 8796TIP3    H126329   3.189   6.613   3.549 -0.8520 -0.7657  1.3076
 8796TIP3    H226330   3.130   6.745   3.594 -0.4077 -0.0258 -0.2067
 8797TIP3   OH226331   8.320   2.648   0.156  0.5067 -0.3971 -0.4391
 8797TIP3    H126332   8.360   2.584   0.097  0.2408 -1.4606  0.4791
 8797TIP3    H226333   8.392   2.706   0.182  1.0336 -1.0758 -0.3516
 8798TIP3   OH226334   4.417   2.553   3.153 -0.5366 -0.9025  0.1670
 8798TIP3    H126335   4.497   2.598   3.124 -1.2019 -0.2034 -0.6352
 8798TIP3    H226336   4.365   2.544   3.073 -2.5953  1.3742  1.1288
 8799TIP3   OH226337   6.538   5.873   3.605 -0.3127 -0.0857 -0.0113
 8799TIP3    H126338   6.611   5.930   3.630  1.3041 -2.7357  1.7566
 8799TIP3    H226339   6.548   5.861   3.511  0.0617  1.4295 -0.2043
 8800TIP3   OH226340   0.921   0.026   2.712 -0.3961 -0.2032  0.7795
 8800TIP3    H126341   0.909  -0.054   2.764  0.6430 -2.6010 -2.3192
 8800TIP3    H226342   1.007   0.059   2.739 -0.5841 -0.4233  1.6952
 8801TIP3   OH226343   7.576   3.845   1.873 -0.4159 -0.1556  0.5491
 8801TIP3    H126344   7.552   3.865   1.782  0.7714  1.0077  0.4515
 8801TIP3    H226345   7.575   3.750   1.878  0.4525 -0.2804 -0.9794
 8802TIP3   OH226346   6.848   6.569   5.907  0.3790 -0.0264  0.2150
 8802TIP3    H126347   6.913   6.510   5.869 -0.8037 -2.1149  1.2048
 8802TIP3    H226348   6.797   6.600   5.832  0.8467 -0.5224 -0.3200
 8803TIP3   OH226349   0.349   5.763   2.102 -0.0648  0.3044 -0.0381
 8803TIP3    H126350   0.368   5.669   2.110  2.1604  0.8096  1.8688
 8803TIP3    H226351   0.274   5.777   2.159 -0.9062 -0.4170 -0.9413
 8804TIP3   OH226352   1.852   1.614   0.059 -0.8320  0.6228 -0.1448
 8804TIP3    H126353   1.916   1.560   0.012 -1.0685  0.0599  0.1641
 8804TIP3    H226354   1.834   1.687   0.000 -0.1160  0.6350 -0.3496
 8805TIP3   OH226355   4.928   5.451   1.910 -0.5386  0.0967  0.2809
 8805TIP3    H126356   4.987   5.380   1.935 -0.6073  0.7638  2.6429
 8805TIP3    H226357   4.840   5.415   1.922 -0.5733  0.4921  1.3302
 8806TIP3   OH226358   7.492   6.781   2.999  0.2541  0.2456 -0.0016
 8806TIP3    H126359   7.532   6.825   3.073 -0.0568  1.0409 -0.2989
 8806TIP3    H226360   7.497   6.844   2.927  0.5699 -0.5203 -0.6653
 8807TIP3   OH226361   8.254   1.553   2.311 -0.2066 -0.1647 -0.2369
 8807TIP3    H126362   8.313   1.623   2.283  1.1043 -1.6387 -1.4235
 8807TIP3    H226363   8.170   1.573   2.270 -0.4074  1.6507  0.9676
 8808TIP3   OH226364   1.042   5.406   5.275 -0.4848  0.3617 -0.2295
 8808TIP3    H126365   1.124   5.450   5.300 -1.2361  0.8786  1.5317
 8808TIP3    H226366   1.025   5.436   5.186  1.0755  0.4664 -0.5338
 8809TIP3   OH226367   5.245   1.857   2.483 -0.5533  0.4035 -0.2927
 8809TIP3    H126368   5.207   1.783   2.436 -0.2767  0.7960 -1.1692
 8809TIP3    H226369   5.213   1.848   2.572 -0.8908 -0.5142 -0.4896
 8810TIP3   OH226370   5.131   6.367   3.719 -0.7835 -0.3791  0.0336
 8810TIP3    H126371   5.129   6.344   3.627 -0.5891  3.3521 -1.0648
 8810TIP3    H226372   5.041   6.356   3.749 -1.5681  1.2746 -1.5210
 8811TIP3   OH226373   5.306   1.235   0.114  0.5581  0.7377  0.3220
 8811TIP3    H126374   5.316   1.247   0.208 -3.0757  2.9464  0.6015
 8811TIP3    H226375   5.304   1.141   0.102 -1.0113  0.3621  2.8227
 8812TIP3   OH226376   0.634   3.761   1.494 -0.2061 -0.2386  0.7627
 8812TIP3    H126377   0.690   3.824   1.539  0.9380 -1.2716  0.8347
 8812TIP3    H226378   0.680   3.677   1.502  0.2062 -0.4524 -2.5373
 8813TIP3   OH226379   1.606   2.817   0.746  0.4229  0.7542  0.4433
 8813TIP3    H126380   1.512   2.817   0.730  0.8546  0.8246 -2.5133
 8813TIP3    H226381   1.614   2.834   0.840 -2.4678  1.6709  0.6079
 8814TIP3   OH226382   3.266   4.744   5.165  0.2079  0.0997  0.5617
 8814TIP3    H126383   3.290   4.740   5.257  0.7611  0.0644  0.4198
 8814TIP3    H226384   3.330   4.689   5.120  1.2162  1.6870 -0.0795
 8815TIP3   OH226385   4.321   4.081   1.584 -0.2040 -0.1076 -0.0571
 8815TIP3    H126386   4.287   4.071   1.673 -0.0224  0.1630  0.0443
 8815TIP3    H226387   4.416   4.067   1.593 -0.2999 -1.0716 -0.3704
 8816TIP3   OH226388   3.847   0.122   6.594  0.3595  0.6711 -0.1250
 8816TIP3    H126389   3.923   0.164   6.553  0.2559  1.8453  0.8243
 8816TIP3    H226390   3.792   0.195   6.623 -1.0934 -0.1520 -0.6833
 8817TIP3   OH226391   5.736   2.709   0.141 -0.3050  0.2532 -0.0229
 8817TIP3    H126392   5.750   2.744   0.053 -1.3166 -0.0330 -0.3094
 8817TIP3    H226393   5.641   2.709   0.152 -0.3212 -2.0105  0.1439
 8818TIP3   OH226394   5.752   7.242   0.825 -0.2151 -0.4551 -0.7939
 8818TIP3    H126395   5.732   7.335   0.835  1.0170  0.0353 -2.5208
 8818TIP3    H226396   5.747   7.226   0.731  0.5180 -1.9191 -0.6097
 8819TIP3   OH226397   0.504   3.265   0.362  0.2300  0.4655  0.1495
 8819TIP3    H126398   0.452   3.258   0.442 -0.0427  2.2792  0.1815
 8819TIP3    H226399   0.515   3.175   0.332 -2.6649 -0.0380  0.3159
 8820TIP3   OH226400   0.534   4.722   3.105 -0.4492 -0.5162  0.5799
 8820TIP3    H126401   0.524   4.711   3.199 -2.1278  0.3318  0.5411
 8820TIP3    H226402   0.445   4.716   3.070  0.1720 -1.1579 -1.0044
 8821TIP3   OH226403   0.351   1.303   3.418 -0.1785  0.4604  0.2108
 8821TIP3    H126404   0.270   1.284   3.467  0.7739 -0.4872  1.4944
 8821TIP3    H226405   0.415   1.326   3.486  0.6742  1.0647 -0.7728
 8822TIP3   OH226406   1.894   1.320   1.766  0.3930 -0.1194 -0.2779
 8822TIP3    H126407   1.817   1.287   1.720  0.8559  0.2212 -1.3277
 8822TIP3    H226408   1.879   1.296   1.858 -0.8709 -0.2079 -0.4858
 8823TIP3   OH226409   7.733   2.392   1.403 -0.3893  0.1055 -0.5153
 8823TIP3    H126410   7.673   2.319   1.416 -1.9370  1.4914  0.6905
 8823TIP3    H226411   7.680   2.459   1.360  0.1920  1.4655  0.7986
 8824TIP3   OH226412   6.795   1.370   2.783 -0.1161 -0.4293  0.0355
 8824TIP3    H126413   6.857   1.328   2.724  1.0875  2.3397 -0.8227
 8824TIP3    H226414   6.840   1.448   2.814 -2.5802  0.8384  0.6904
 8825TIP3   OH226415   6.071   1.587   0.743  0.1584  0.3821  0.2763
 8825TIP3    H126416   6.081   1.604   0.836 -2.5389  0.1539  0.6724
 8825TIP3    H226417   6.034   1.499   0.738  0.6725  0.2177 -1.0404
 8826TIP3   OH226418   6.637   6.031   0.741  0.6518  0.3919  0.6590
 8826TIP3    H126419   6.641   6.085   0.820  1.5014  2.1300 -0.4933
 8826TIP3    H226420   6.723   5.990   0.736 -0.3373 -2.0199  2.0941
 8827TIP3   OH226421   1.655   0.103   2.974 -0.1231 -0.2574  0.8130
 8827TIP3    H126422   1.672   0.185   2.927 -0.8004 -0.0518  0.9260
 8827TIP3    H226423   1.675   0.035   2.910 -0.1998  0.0033  0.5068
 8828TIP3   OH226424   2.838   2.044   0.761  0.7057 -0.3126 -0.1798
 8828TIP3    H126425   2.837   1.972   0.698  0.7102 -1.0100  0.6139
 8828TIP3    H226426   2.749   2.081   0.756  0.3997 -0.9983  0.1236
 8829TIP3   OH226427   4.677   4.469   2.972  0.9208  0.2287  0.3824
 8829TIP3    H126428   4.605   4.490   2.912 -0.5113  2.9360  2.7740
 8829TIP3    H226429   4.719   4.393   2.934 -0.5475  1.1087 -3.4131
 8830TIP3   OH226430   1.694   2.832   6.177  0.1331  0.2768  0.1432
 8830TIP3    H126431   1.655   2.763   6.231 -0.2127 -1.0246 -1.6828
 8830TIP3    H226432   1.620   2.888   6.153 -0.2177 -0.7214 -1.1998
 8831TIP3   OH226433   7.286   2.439   1.729  0.4301 -0.0173 -0.2020
 8831TIP3    H126434   7.382   2.441   1.720  0.4114  1.1319 -0.3526
 8831TIP3    H226435   7.256   2.516   1.680 -0.5651 -0.2931 -0.0448
 8832TIP3   OH226436   4.799   5.398   4.298 -0.0502  0.3274  0.0475
 8832TIP3    H126437   4.737   5.342   4.345 -1.5194  2.5603  0.9131
 8832TIP3    H226438   4.752   5.480   4.284  1.6155  1.0151 -2.1871
 8833TIP3   OH226439   3.839   3.411   4.173  0.0814  0.3836  0.1772
 8833TIP3    H126440   3.876   3.346   4.233 -0.3575 -0.5938 -0.5924
 8833TIP3    H226441   3.897   3.486   4.181  1.8558 -0.8620 -0.4928
 8834TIP3   OH226442   2.548   1.635   3.591  0.1364  0.7718 -0.8691
 8834TIP3    H126443   2.572   1.671   3.505 -1.0342 -0.3818 -1.7296
 8834TIP3    H226444   2.461   1.598   3.577 -1.2354  2.8359  1.5062
 8835TIP3   OH226445   0.421   7.305   3.555  0.2232 -0.0208  0.5509
 8835TIP3    H126446   0.412   7.388   3.508 -0.0382 -0.0703  0.5125
 8835TIP3    H226447   0.420   7.238   3.487 -0.3179 -0.1032  0.6378
 8836TIP3   OH226448   3.303   4.920   0.688  0.7154  0.0178 -0.4244
 8836TIP3    H126449   3.230   4.915   0.627  0.3260 -1.0906  0.1026
 8836TIP3    H226450   3.323   4.829   0.709  1.6482  0.3415  0.1497
 8837TIP3   OH226451   0.914   2.037   2.545  0.1515 -0.3370 -0.0679
 8837TIP3    H126452   0.915   1.949   2.507 -1.9708 -1.9754  3.1773
 8837TIP3    H226453   0.841   2.035   2.608  0.8669  3.3363  1.1137
 8838TIP3   OH226454   1.665   5.607   3.700  0.1684 -0.2738  0.3518
 8838TIP3    H126455   1.588   5.550   3.694  0.2301 -0.3203 -0.0045
 8838TIP3    H226456   1.730   5.566   3.643  0.3835 -0.1158  0.4829
 8839TIP3   OH226457   6.734   0.970   5.039 -0.2724  0.6086 -0.4319
 8839TIP3    H126458   6.662   0.910   5.020  0.2979 -0.2212 -0.0084
 8839TIP3    H226459   6.696   1.035   5.098 -0.1068 -1.2271  1.8398
 8840TIP3   OH226460   7.605   7.754   1.871  0.0020 -0.5168 -0.0153
 8840TIP3    H126461   7.553   7.831   1.891 -1.0686 -0.5894 -2.2422
 8840TIP3    H226462   7.674   7.786   1.813  0.9102 -0.8900  0.8186
 8841TIP3   OH226463   3.792   2.607   1.257  0.6757 -0.0998 -0.5233
 8841TIP3    H126464   3.883   2.585   1.237  0.5071  0.9334 -2.8118
 8841TIP3    H226465   3.783   2.592   1.351  2.5335 -2.4737 -0.6530
 8842TIP3   OH226466   4.906   7.807   2.193  0.7462 -0.8041 -0.5784
 8842TIP3    H126467   4.901   7.895   2.155 -0.2848 -0.2507  0.7416
 8842TIP3    H226468   4.968   7.816   2.265 -0.2137 -0.8417  0.2843
 8843TIP3   OH226469   3.752   7.392   1.405  0.5389  0.0880 -0.2759
 8843TIP3    H126470   3.725   7.452   1.474 -0.5819 -1.8124  1.0571
 8843TIP3    H226471   3.830   7.348   1.440  0.7451  0.0282 -0.7925
 8844TIP3   OH226472   4.586   3.277   0.726  0.8169 -0.0016 -0.3413
 8844TIP3    H126473   4.654   3.212   0.710 -0.5214 -1.5707  0.0724
 8844TIP3    H226474   4.516   3.229   0.770 -1.7886  0.8081 -3.1825
 8845TIP3   OH226475   2.457   3.048   0.132  0.2467  0.0321 -0.5047
 8845TIP3    H126476   2.487   2.960   0.107 -0.9748 -1.0441  1.5308
 8845TIP3    H226477   2.408   3.078   0.056 -0.9614 -1.9056 -0.5729
 8846TIP3   OH226478   5.093   4.276   2.762  0.8902  0.6317  0.1194
 8846TIP3    H126479   5.042   4.247   2.838  0.7751  1.3669  0.3283
 8846TIP3    H226480   5.154   4.204   2.745  1.5140  0.8328  1.4517
 8847TIP3   OH226481   8.383   0.801   1.079 -0.6236  0.3481  0.4165
 8847TIP3    H126482   8.403   0.829   0.990 -0.4657 -1.2542 -0.0850
 8847TIP3    H226483   8.345   0.714   1.069 -0.8392  0.2426  1.9039
 8848TIP3   OH226484   8.216   3.386   2.798 -0.1287  0.0434 -0.1657
 8848TIP3    H126485   8.129   3.420   2.822 -1.3619 -2.4046 -0.8303
 8848TIP3    H226486   8.222   3.302   2.844  2.5008  0.7144  0.9114
 8849TIP3   OH226487   4.491   5.298   2.702 -0.1753 -0.0308  0.0987
 8849TIP3    H126488   4.564   5.353   2.731 -0.6379  0.6480  0.0098
 8849TIP3    H226489   4.461   5.340   2.621  0.7166 -1.5580 -1.0836
 8850TIP3   OH226490   7.670   0.858   1.249 -0.4487  0.4886  0.0627
 8850TIP3    H126491   7.738   0.795   1.272  0.5819  1.4993 -0.1182
 8850TIP3    H226492   7.598   0.840   1.309  0.5985  0.4274  1.3393
 8851TIP3   OH226493   6.750   4.410   2.420 -0.3840 -0.3929  0.0991
 8851TIP3    H126494   6.700   4.387   2.498 -0.9752 -0.8437 -0.4053
 8851TIP3    H226495   6.691   4.390   2.347 -0.3698  1.3157 -0.4232
 8852TIP3   OH226496   7.126   3.435   0.501 -0.2214 -0.0737  0.1562
 8852TIP3    H126497   7.068   3.509   0.519  1.0344  0.7319  1.1664
 8852TIP3    H226498   7.102   3.369   0.566  1.4500  1.1748  2.2197
 8853TIP3   OH226499   6.544   7.732   2.145  0.1531 -0.6725  0.2419
 8853TIP3    H126500   6.543   7.788   2.067 -0.4764 -0.4859  0.3801
 8853TIP3    H226501   6.622   7.759   2.193  0.4197 -0.6263 -0.2041
 8854TIP3   OH226502   7.205   1.947   1.713 -0.5399 -0.1291  0.2050
 8854TIP3    H126503   7.127   1.968   1.661 -0.5923  1.2475  0.7728
 8854TIP3    H226504   7.201   2.009   1.786  1.4416  0.4448 -0.1267
 8855TIP3   OH226505   6.993   1.300   4.515 -0.0944  0.6101  0.0311
 8855TIP3    H126506   6.985   1.326   4.424  0.8312 -1.8710 -0.8213
 8855TIP3    H226507   6.903   1.291   4.545 -0.4252 -0.0376 -1.1094
 8856TIP3   OH226508   6.209   0.919   3.454  0.0491 -0.5238 -0.1428
 8856TIP3    H126509   6.140   0.859   3.428 -0.9999  0.5200  0.1730
 8856TIP3    H226510   6.227   0.897   3.546  0.0166 -0.6711 -0.1720
 8857TIP3   OH226511   1.950   1.185   3.683 -0.2434 -0.2143 -0.6925
 8857TIP3    H126512   1.953   1.258   3.745  0.4908 -0.7788 -0.0548
 8857TIP3    H226513   2.022   1.128   3.708 -1.2032 -1.5112 -0.7549
 8858TIP3   OH226514   0.524   0.136   1.823  0.3926  0.0694  0.2213
 8858TIP3    H126515   0.531   0.054   1.775  0.2544  1.0737 -1.5979
 8858TIP3    H226516   0.614   0.160   1.843  0.5653  0.3704 -0.8616
 8859TIP3   OH226517   2.925   6.865   0.142  0.3902  0.0223 -0.1245
 8859TIP3    H126518   2.965   6.951   0.130 -0.3622  0.5606  1.0027
 8859TIP3    H226519   2.960   6.833   0.225 -0.5882 -0.0066  0.2946
 8860TIP3   OH226520   1.376   3.515   0.062  0.1517 -0.0121 -0.5314
 8860TIP3    H126521   1.351   3.423   0.065  3.0203 -0.8684  0.8295
 8860TIP3    H226522   1.415   3.528  -0.024  1.8060 -0.7621  0.0613
 8861TIP3   OH226523   1.411   1.660   3.713 -0.6738  0.3959  0.2352
 8861TIP3    H126524   1.388   1.650   3.805 -0.0297 -0.5828  0.3010
 8861TIP3    H226525   1.378   1.581   3.671 -0.3583  0.5224 -0.2601
 8862TIP3   OH226526   1.316   5.031   2.425  0.1745  0.4754 -0.3948
 8862TIP3    H126527   1.395   5.083   2.413  0.1942  0.2379 -1.4624
 8862TIP3    H226528   1.310   5.016   2.519  1.8409 -0.1893 -0.3672
 8863TIP3   OH226529   7.300   2.896   4.577  0.2686 -0.1997 -0.1036
 8863TIP3    H126530   7.289   2.965   4.512 -1.9510  1.7917  2.1726
 8863TIP3    H226531   7.271   2.816   4.531 -0.5720  0.9900 -1.7754
 8864TIP3   OH226532   1.666   6.261   2.139 -0.4765  0.0341  0.1007
 8864TIP3    H126533   1.609   6.318   2.191 -1.8927 -1.3976  0.1920
 8864TIP3    H226534   1.633   6.173   2.155  2.7258 -1.0657  1.3433
 8865TIP3   OH226535   4.278   3.403   5.292  0.0552 -0.5082 -0.7346
 8865TIP3    H126536   4.297   3.471   5.227 -0.9172  0.3375 -0.1533
 8865TIP3    H226537   4.212   3.347   5.250 -0.7270  0.1586 -0.4029
 8866TIP3   OH226538   0.788   1.910   6.624  0.6379  0.4891  0.0497
 8866TIP3    H126539   0.876   1.876   6.613  0.9579  1.6470 -1.2425
 8866TIP3    H226540   0.738   1.872   6.551  0.5104  1.1535 -0.2230
 8867TIP3   OH226541   4.027   6.182   0.501  0.3136  0.1165  0.0123
 8867TIP3    H126542   3.942   6.169   0.542  0.4255  1.0101  0.5513
 8867TIP3    H226543   4.087   6.197   0.574  0.5105  1.7570 -0.4499
 8868TIP3   OH226544   0.986   4.641   6.331  0.2331 -0.3917 -0.0624
 8868TIP3    H126545   0.911   4.678   6.285 -0.1230 -1.2300 -0.1681
 8868TIP3    H226546   1.022   4.715   6.381  0.8579  0.6333 -1.9217
 8869TIP3   OH226547   1.732   6.257   6.343 -0.2859 -0.4364 -0.0600
 8869TIP3    H126548   1.749   6.164   6.363 -0.1642  0.1310  2.9491
 8869TIP3    H226549   1.780   6.305   6.411 -0.5859  1.8494 -1.3670
 8870TIP3   OH226550   0.515   3.678   2.099 -0.2902  0.0605 -0.1056
 8870TIP3    H126551   0.559   3.748   2.147 -0.9890  0.7208 -0.3970
 8870TIP3    H226552   0.427   3.675   2.138  0.0022 -1.2665  0.5086
 8871TIP3   OH226553   0.815   6.500   1.035  0.2851 -0.0474  0.1150
 8871TIP3    H126554   0.782   6.411   1.024 -3.0962  1.1864 -1.2085
 8871TIP3    H226555   0.775   6.531   1.116 -0.6705  1.0159 -0.7207
 8872TIP3   OH226556   3.118   4.686   2.521 -0.2819  0.4489 -0.1022
 8872TIP3    H126557   3.131   4.746   2.595 -2.4934  0.3250  0.4625
 8872TIP3    H226558   3.190   4.705   2.462  0.5063  1.8693  1.2340
 8873TIP3   OH226559   1.557   1.107   5.631 -0.3537  0.3593 -0.4340
 8873TIP3    H126560   1.647   1.073   5.629 -0.7926 -1.1380  1.6275
 8873TIP3    H226561   1.549   1.147   5.718 -1.9032 -0.2304 -0.2904
 8874TIP3   OH226562   2.641   1.545   6.469 -0.2272 -0.0603  0.0901
 8874TIP3    H126563   2.576   1.479   6.494  0.5271 -0.9964 -0.3617
 8874TIP3    H226564   2.719   1.494   6.446  0.2546  0.9716 -0.6165
 8875TIP3   OH226565   5.997   2.343   0.100 -0.7759 -0.0575  0.4177
 8875TIP3    H126566   6.093   2.344   0.093 -0.6976  0.6819  1.2770
 8875TIP3    H226567   5.970   2.266   0.051  0.0862  0.9194 -1.7173
 8876TIP3   OH226568   4.527   6.718   1.516 -0.2129  0.5052 -0.1452
 8876TIP3    H126569   4.561   6.691   1.431 -0.6547  0.2217 -0.2328
 8876TIP3    H226570   4.444   6.671   1.525  0.1080  0.0799  0.6961
 8877TIP3   OH226571   2.240   5.222   1.470 -0.8704  0.4122  0.1529
 8877TIP3    H126572   2.181   5.221   1.395 -0.6291 -0.4881 -0.0395
 8877TIP3    H226573   2.245   5.314   1.496 -1.7568  0.5933 -0.2964
 8878TIP3   OH226574   1.710   7.410   5.966 -0.5710 -0.1305  0.2662
 8878TIP3    H126575   1.679   7.332   5.920  0.0082 -0.9627  1.2262
 8878TIP3    H226576   1.720   7.381   6.057  0.5503  0.8008  0.4629
 8879TIP3   OH226577   4.558   4.693   2.256 -0.4909 -0.3802  0.2016
 8879TIP3    H126578   4.480   4.705   2.201 -1.2942 -0.0080  1.3777
 8879TIP3    H226579   4.597   4.611   2.225 -1.2470 -0.4767 -0.5280
 8880TIP3   OH226580   5.030   4.091   0.852  0.2860  0.0626  0.0445
 8880TIP3    H126581   4.983   4.019   0.893  0.4685 -1.2718 -1.9378
 8880TIP3    H226582   4.962   4.142   0.808  0.3723 -0.1533 -0.3447
 8881TIP3   OH226583   4.443   0.802   4.197 -0.0681  0.1553  0.0910
 8881TIP3    H126584   4.468   0.889   4.230 -1.4641  1.3476 -1.8290
 8881TIP3    H226585   4.523   0.769   4.157  1.0311 -0.3599  2.5274
 8882TIP3   OH226586   6.165   5.083   2.343 -0.4861  0.9306  0.1633
 8882TIP3    H126587   6.165   5.026   2.420  0.4425  1.1457  0.3253
 8882TIP3    H226588   6.220   5.158   2.367  0.5500  0.5853 -1.0063
 8883TIP3   OH226589   5.948   3.533   3.201  0.3719 -0.0573 -0.0690
 8883TIP3    H126590   5.980   3.508   3.115 -1.3768 -1.0896 -0.4674
 8883TIP3    H226591   5.977   3.463   3.259  1.2035  0.4369  0.1372
 8884TIP3   OH226592   5.485   5.373   2.048  0.4214 -0.0165  0.1383
 8884TIP3    H126593   5.506   5.461   2.079  0.9192 -0.2604  0.5016
 8884TIP3    H226594   5.444   5.330   2.124  0.7161 -0.2863  0.1458
 8885TIP3   OH226595   5.809   4.288   5.968 -0.5383  0.1803  0.5129
 8885TIP3    H126596   5.827   4.325   6.055 -1.9144  1.6011  0.2372
 8885TIP3    H226597   5.866   4.338   5.909  1.4762 -1.7469  0.6861
 8886TIP3   OH226598   7.226   7.769   4.382  0.0083 -0.0162  0.3052
 8886TIP3    H126599   7.211   7.808   4.295 -2.2312  1.5401  1.2795
 8886TIP3    H226600   7.228   7.675   4.365 -0.6754  0.2277 -1.4296
 8887TIP3   OH226601   0.308   4.049   3.471  0.2584 -0.7498 -0.1927
 8887TIP3    H126602   0.352   4.010   3.395  0.9363  1.0602 -0.7613
 8887TIP3    H226603   0.345   4.137   3.479  0.6004 -1.0361  2.5613
 8888TIP3   OH226604   3.878   5.661   3.329 -0.3772 -0.0614 -0.0696
 8888TIP3    H126605   3.946   5.599   3.303  1.4010  1.4289  0.7583
 8888TIP3    H226606   3.893   5.675   3.422 -2.3411 -0.2263  0.3295
 8889TIP3   OH226607   4.635   3.603   2.682 -0.2163 -0.3552 -0.2576
 8889TIP3    H126608   4.599   3.575   2.766 -0.2357 -0.1121 -0.1846
 8889TIP3    H226609   4.638   3.523   2.630 -1.9805 -0.1780 -0.6766
 8890TIP3   OH226610   8.158   7.476   2.095  0.5708  0.0381 -0.3788
 8890TIP3    H126611   8.174   7.413   2.165 -1.1066 -1.9126 -1.6430
 8890TIP3    H226612   8.204   7.440   2.019 -0.5938  0.2147 -1.1877
 8891TIP3   OH226613   8.341   1.342   4.802 -0.2557  0.9331 -0.1291
 8891TIP3    H126614   8.288   1.413   4.767 -1.7018  0.9598  1.9634
 8891TIP3    H226615   8.292   1.263   4.782  1.3034  0.4335 -2.3691
 8892TIP3   OH226616   7.978   0.868   0.433 -0.0329 -0.3662 -0.0353
 8892TIP3    H126617   8.004   0.865   0.340 -0.7672 -0.0070 -0.2593
 8892TIP3    H226618   7.886   0.844   0.433 -0.5558  1.4334  0.3758
 8893TIP3   OH226619   4.790   7.256   1.983  0.0258 -0.4246 -0.3211
 8893TIP3    H126620   4.779   7.165   2.009 -0.1499 -0.0489  1.0013
 8893TIP3    H226621   4.701   7.289   1.974  0.0890 -0.3713 -0.8103
 8894TIP3   OH226622   7.039   4.466   1.175 -0.4944  0.3368 -0.2933
 8894TIP3    H126623   7.029   4.468   1.079 -1.1931  0.6491 -0.2169
 8894TIP3    H226624   7.025   4.557   1.202 -0.5735  0.1963  0.1341
 8895TIP3   OH226625   6.691   6.774   0.673 -0.0196 -0.1528  0.3878
 8895TIP3    H126626   6.692   6.788   0.578 -0.4212 -0.3355  0.3545
 8895TIP3    H226627   6.766   6.825   0.705 -0.3393  0.5497  0.0565
 8896TIP3   OH226628   1.644   4.334   2.986 -0.3753 -0.0375  0.8093
 8896TIP3    H126629   1.618   4.245   3.010 -0.1491 -0.4226 -0.3141
 8896TIP3    H226630   1.732   4.344   3.023  0.0475 -0.6891  0.0208
 8897TIP3   OH226631   1.874   7.109   1.035  0.4661 -0.4973 -0.2654
 8897TIP3    H126632   1.872   7.064   1.120  0.8245  0.1873  0.1142
 8897TIP3    H226633   1.848   7.198   1.055  1.8482  0.0222 -0.6422
 8898TIP3   OH226634   4.636   2.138   3.994 -0.1916 -0.3185 -0.2947
 8898TIP3    H126635   4.618   2.045   4.008 -1.3747 -0.0795 -0.1482
 8898TIP3    H226636   4.609   2.154   3.904 -2.3878  0.4126  0.4392
 8899TIP3   OH226637   3.787   5.360   0.449 -0.3220 -0.1516 -0.4091
 8899TIP3    H126638   3.864   5.370   0.505 -0.5446  2.0522 -0.3875
 8899TIP3    H226639   3.809   5.290   0.389  1.4826  0.0467 -0.0259
 8900TIP3   OH226640   5.157   6.383   2.347  0.1267 -1.0173 -0.2510
 8900TIP3    H126641   5.222   6.453   2.340  0.1072 -0.8827  0.7906
 8900TIP3    H226642   5.095   6.402   2.276 -0.7774  1.0031  0.9741
 8901TIP3   OH226643   0.418   7.492   4.461 -0.1136  0.0749 -0.1639
 8901TIP3    H126644   0.449   7.544   4.535 -0.0039 -1.4252  0.8883
 8901TIP3    H226645   0.450   7.538   4.383  0.3841  1.2880  0.7365
 8902TIP3   OH226646   5.264   0.345   2.031  0.1104 -0.0494  0.0837
 8902TIP3    H126647   5.233   0.423   1.985  0.8779  1.2870  1.6919
 8902TIP3    H226648   5.321   0.301   1.969 -2.7202 -1.1113 -1.9814
 8903TIP3   OH226649   7.433   6.959   5.179 -0.1511  0.4588  0.3296
 8903TIP3    H126650   7.408   6.916   5.260 -0.8404 -0.7217 -0.4890
 8903TIP3    H226651   7.432   7.053   5.201 -0.7914  0.1898  1.5507
 8904TIP3   OH226652   1.167   5.341   6.062  0.1827  0.1022 -0.2072
 8904TIP3    H126653   1.208   5.298   5.986 -1.4491  0.1625 -1.1822
 8904TIP3    H226654   1.215   5.423   6.072  0.5568 -0.0001 -1.0535
 8905TIP3   OH226655   3.309   7.102   6.622  0.2313 -0.5840 -0.4528
 8905TIP3    H126656   3.362   7.148   6.557 -0.4293 -0.3475 -0.8309
 8905TIP3    H226657   3.333   7.010   6.612  2.1548 -0.2873  0.8430
 8906TIP3   OH226658   7.487   5.947   4.756  0.2675  0.3853  0.6152
 8906TIP3    H126659   7.412   5.936   4.815  1.1430 -1.2255  1.4822
 8906TIP3    H226660   7.549   5.880   4.782  2.3563  2.1075  0.3706
 8907TIP3   OH226661   3.458   3.888   2.801  0.5791 -0.4670  0.0544
 8907TIP3    H126662   3.533   3.933   2.841 -0.3757  0.5422  0.7809
 8907TIP3    H226663   3.403   3.863   2.876  1.0383 -2.8505 -0.3217
 8908TIP3   OH226664   2.030   5.402   4.147 -0.1377 -0.5023  0.5627
 8908TIP3    H126665   2.005   5.452   4.225  0.3259 -0.4435  0.6823
 8908TIP3    H226666   1.957   5.343   4.131 -0.5499 -0.0131  0.6189
 8909TIP3   OH226667   7.681   6.882   5.055  0.1817 -0.1048 -0.4408
 8909TIP3    H126668   7.610   6.930   5.096 -0.0504  0.3604 -1.3492
 8909TIP3    H226669   7.649   6.861   4.967  1.7183  1.5279 -1.4721
 8910TIP3   OH226670   6.571   7.243   1.340  0.3773  0.5038 -0.0629
 8910TIP3    H126671   6.485   7.205   1.356 -0.9313  3.5203  0.6580
 8910TIP3    H226672   6.617   7.235   1.424  0.9646 -1.3405 -0.5193
 8911TIP3   OH226673   0.783   2.880   0.050  0.5021 -0.3098  0.3048
 8911TIP3    H126674   0.707   2.937   0.049  1.0433  0.4224  0.0660
 8911TIP3    H226675   0.804   2.866  -0.043  2.5230  2.0713  0.2881
 8912TIP3   OH226676   8.367   3.193   5.852  0.1435 -0.2493  0.0527
 8912TIP3    H126677   8.380   3.177   5.945 -0.6990 -0.6781  0.1102
 8912TIP3    H226678   8.371   3.106   5.812 -0.1433 -0.1376 -0.2216
 8913TIP3   OH226679   1.866   1.085   1.992 -0.1079 -0.4724  0.3764
 8913TIP3    H126680   1.890   1.108   2.081  2.0898  1.3388 -0.5855
 8913TIP3    H226681   1.902   0.997   1.979  0.5214 -0.2985  0.9208
 8914TIP3   OH226682   0.988   2.653   1.300 -0.2972  0.3979 -0.3010
 8914TIP3    H126683   1.057   2.591   1.272 -0.5603  0.4103 -1.0019
 8914TIP3    H226684   0.934   2.664   1.222 -1.3244  0.0943  0.3546
 8915TIP3   OH226685   2.791   7.753   0.104 -0.4496 -0.0231  0.5553
 8915TIP3    H126686   2.833   7.727   0.186 -1.0463  1.0052  1.2075
 8915TIP3    H226687   2.859   7.741   0.038  0.2962 -0.1100  1.3198
 8916TIP3   OH226688   4.834   4.347   5.967 -0.4372 -0.1783  0.3002
 8916TIP3    H126689   4.783   4.275   6.004 -1.6180 -0.2655 -1.3652
 8916TIP3    H226690   4.917   4.307   5.942 -0.7096 -0.7374  0.2740
 8917TIP3   OH226691   3.028   6.995   6.118 -0.1208 -0.2379 -0.0756
 8917TIP3    H126692   2.942   6.956   6.133 -0.5981  0.1931 -1.4994
 8917TIP3    H226693   3.031   7.071   6.176 -1.2115  0.4287 -0.8438
 8918TIP3   OH226694   5.909   5.224   4.625 -0.0326  0.7651  0.1077
 8918TIP3    H126695   5.902   5.131   4.601 -2.0333  0.6627  0.9454
 8918TIP3    H226696   5.984   5.256   4.574 -0.1511 -0.9637 -1.2460
 8919TIP3   OH226697   6.785   4.976   5.828 -0.1783 -0.3189  0.1873
 8919TIP3    H126698   6.815   4.945   5.914 -0.8925 -1.8907 -0.0936
 8919TIP3    H226699   6.690   4.976   5.835 -0.2228  1.9887  0.1833
 8920TIP3   OH226700   2.314   1.287   1.964  0.3814 -0.2948 -0.6235
 8920TIP3    H126701   2.332   1.226   1.892  4.4450  0.3278 -0.3781
 8920TIP3    H226702   2.357   1.247   2.040  0.0946  1.2266  0.3777
 8921TIP3   OH226703   3.182   6.470   1.603  0.4460 -0.1026  0.3278
 8921TIP3    H126704   3.205   6.404   1.538 -0.1406  1.0122 -1.1024
 8921TIP3    H226705   3.266   6.508   1.630  0.6890 -0.4371  0.0481
 8922TIP3   OH226706   2.414   0.954   6.817 -0.2257  0.0363  0.4659
 8922TIP3    H126707   2.427   1.011   6.893  0.8970  2.0514 -1.1396
 8922TIP3    H226708   2.334   0.986   6.777  0.1279  0.1484 -0.1570
 8923TIP3   OH226709   7.072   3.244   3.492 -0.1803 -0.2467 -0.1432
 8923TIP3    H126710   7.123   3.208   3.565  2.1858  0.3425 -1.4080
 8923TIP3    H226711   7.127   3.231   3.415 -1.8989  0.6079 -1.6003
 8924TIP3   OH226712   2.823   2.265   2.515 -0.4934  0.4540  0.6468
 8924TIP3    H126713   2.853   2.181   2.550  0.8634  0.8455  0.4638
 8924TIP3    H226714   2.870   2.276   2.433  0.9490  2.3100  1.6280
 8925TIP3   OH226715   7.813   7.527   3.510  0.4753  0.3417  0.2686
 8925TIP3    H126716   7.718   7.521   3.498  0.2783 -1.0648  2.0656
 8925TIP3    H226717   7.848   7.447   3.471  0.7256  0.0374  1.0919
 8926TIP3   OH226718   3.262   2.279   3.235 -0.2326  0.1636  0.3729
 8926TIP3    H126719   3.267   2.257   3.142 -2.7371 -2.7867  0.7798
 8926TIP3    H226720   3.313   2.212   3.279  0.8791  1.4982  1.2076
 8927TIP3   OH226721   3.387   6.921   5.615  0.1768 -0.2467 -0.1016
 8927TIP3    H126722   3.409   6.828   5.626 -1.0690 -0.5824 -0.2741
 8927TIP3    H226723   3.382   6.956   5.704  1.4554 -0.1174 -0.0512
 8928TIP3   OH226724   5.463   0.777   0.643 -0.1697  0.9020 -0.0405
 8928TIP3    H126725   5.549   0.802   0.677 -0.0742  0.3589  0.1312
 8928TIP3    H226726   5.415   0.745   0.719  0.6668 -2.0691 -0.6018
 8929TIP3   OH226727   0.497   4.601   5.427  0.3579 -0.0433 -0.4465
 8929TIP3    H126728   0.588   4.577   5.414  0.6075  1.0039 -0.7331
 8929TIP3    H226729   0.459   4.528   5.476  1.5953 -0.0143  0.6049
 8930TIP3   OH226730   8.197   0.490   4.861 -0.0301  1.1150  0.5692
 8930TIP3    H126731   8.186   0.559   4.796  0.0863  1.6914  1.1389
 8930TIP3    H226732   8.114   0.443   4.862  0.9103 -0.8661 -2.1282
 8931TIP3   OH226733   7.703   1.630   4.759 -0.0509 -0.3562  0.6203
 8931TIP3    H126734   7.644   1.591   4.693 -1.8938  0.0009  1.9685
 8931TIP3    H226735   7.790   1.617   4.723 -0.9379 -0.7976 -1.5650
 8932TIP3   OH226736   7.567   6.065   5.167  0.6983 -0.8245  0.0897
 8932TIP3    H126737   7.536   6.022   5.088  1.1070 -1.5719  0.3324
 8932TIP3    H226738   7.574   6.158   5.142  0.2397 -0.9558 -0.5608
 8933TIP3   OH226739   0.849   1.184   1.845 -0.2781 -0.3386 -0.5048
 8933TIP3    H126740   0.824   1.206   1.755 -1.1705 -3.0656 -1.0206
 8933TIP3    H226741   0.905   1.256   1.873 -0.5822  0.9565 -2.9749
 8934TIP3   OH226742   5.159   3.454   4.868  0.4410 -0.1626  0.5156
 8934TIP3    H126743   5.172   3.467   4.774 -1.0902 -0.5512  0.2240
 8934TIP3    H226744   5.210   3.377   4.890  0.8067 -0.0665  0.0043
 8935TIP3   OH226745   7.083   3.642   3.198  0.5102 -0.9984  0.0367
 8935TIP3    H126746   7.153   3.682   3.249  0.3026  0.6543 -0.8844
 8935TIP3    H226747   7.002   3.665   3.244  0.3774 -0.1826 -0.5860
 8936TIP3   OH226748   1.732   7.668   0.508  0.2682 -0.3984  0.2077
 8936TIP3    H126749   1.661   7.605   0.513  0.2758 -0.3065  1.6964
 8936TIP3    H226750   1.699   7.736   0.448 -1.6121  0.5057  2.1345
 8937TIP3   OH226751   1.861   6.026   0.888 -0.7918  0.6317 -0.8564
 8937TIP3    H126752   1.814   6.089   0.834  1.0341  2.1549 -0.7785
 8937TIP3    H226753   1.910   6.079   0.950 -3.1760 -1.0289  2.8024
 8938TIP3   OH226754   1.474   5.190   5.977  0.6102  0.2616  0.5903
 8938TIP3    H126755   1.570   5.182   5.975  0.7223  1.4275  0.3252
 8938TIP3    H226756   1.455   5.222   6.066  0.3472 -1.0293  1.0244
 8939TIP3   OH226757   3.283   5.172   1.836 -0.2512  0.3749  0.5129
 8939TIP3    H126758   3.250   5.259   1.857 -0.1557  0.4779  0.2511
 8939TIP3    H226759   3.273   5.121   1.916 -0.6238  0.5313  0.5690
 8940TIP3   OH226760   1.420   6.134   6.333  0.1753  0.1418  0.3305
 8940TIP3    H126761   1.499   6.165   6.378 -1.2799  2.5724  1.4440
 8940TIP3    H226762   1.415   6.186   6.253 -2.2768  3.2610  2.2061
 8941TIP3   OH226763   0.698   5.306   3.704  0.2227 -0.3931  0.0953
 8941TIP3    H126764   0.746   5.268   3.630 -1.6384 -1.8022 -0.4590
 8941TIP3    H226765   0.676   5.394   3.675 -0.3152 -0.8627 -0.9635
 8942TIP3   OH226766   7.005   4.015   3.846  0.0285 -0.3248  0.2646
 8942TIP3    H126767   7.021   3.999   3.939  1.0172 -2.5372 -0.2053
 8942TIP3    H226768   7.092   4.019   3.807 -0.3740 -0.6913 -0.7197
 8943TIP3   OH226769   0.330   2.056   6.567  0.0031  0.6656  0.5508
 8943TIP3    H126770   0.321   2.088   6.477  0.1072  0.5529  0.4990
 8943TIP3    H226771   0.245   2.073   6.607 -0.7067 -0.9926 -0.1305
 8944TIP3   OH226772   3.003   4.445   2.570  0.2357  0.6160 -0.2134
 8944TIP3    H126773   3.028   4.529   2.532 -1.4746  1.3062  0.0941
 8944TIP3    H226774   2.910   4.454   2.588  0.0741 -1.2712  0.0637
 8945TIP3   OH226775   2.526   0.011   3.380 -0.0492  0.6147  0.1862
 8945TIP3    H126776   2.444  -0.028   3.409  0.0426  1.2302  1.3225
 8945TIP3    H226777   2.531   0.094   3.427  1.8567 -0.0127  1.2015
 8946TIP3   OH226778   2.486   6.226   2.023  0.1243 -0.1160 -0.5654
 8946TIP3    H126779   2.524   6.230   2.110 -1.9042  0.3082  0.3558
 8946TIP3    H226780   2.407   6.280   2.029  0.3504  0.5918 -2.9044
 8947TIP3   OH226781   7.638   1.174   4.994 -0.0677 -0.7872 -0.3260
 8947TIP3    H126782   7.604   1.127   5.070  1.0810 -2.6034 -0.8630
 8947TIP3    H226783   7.729   1.146   4.987  0.0020 -0.2565 -2.0439
 8948TIP3   OH226784   4.381   1.982   0.615 -0.8013 -0.7818 -0.2744
 8948TIP3    H126785   4.392   2.018   0.526 -0.8142  1.7620  0.6648
 8948TIP3    H226786   4.290   2.003   0.637 -0.7730 -1.3429  0.3662
 8949TIP3   OH226787   0.092   0.582   1.401 -0.1989  0.3530  0.4280
 8949TIP3    H126788   0.146   0.585   1.322 -0.4716  3.1574  0.2460
 8949TIP3    H226789   0.004   0.564   1.370  0.2764 -2.6460  0.5732
 8950TIP3   OH226790   6.617   4.243   1.946  0.8021  0.7001 -0.0490
 8950TIP3    H126791   6.522   4.247   1.941  0.7339  1.6762  1.3253
 8950TIP3    H226792   6.640   4.162   1.900 -0.7684 -0.0750  0.4363
 8951TIP3   OH226793   6.259   2.249   2.479 -0.5485  0.0296 -1.1240
 8951TIP3    H126794   6.338   2.198   2.495 -0.5955  0.2149 -0.2683
 8951TIP3    H226795   6.290   2.334   2.447 -0.3665  0.2824 -0.3086
 8952TIP3   OH226796   2.796   1.723   4.371 -0.0814 -0.3463  0.5068
 8952TIP3    H126797   2.877   1.674   4.357 -0.2860 -0.8747  1.1066
 8952TIP3    H226798   2.773   1.757   4.285 -1.3829 -3.5555 -0.5609
 8953TIP3   OH226799   1.037   5.289   5.533  0.0585  0.3777  0.2860
 8953TIP3    H126800   1.002   5.319   5.449  0.3109  0.5444  0.2383
 8953TIP3    H226801   0.961   5.283   5.590  0.0025  1.1250  0.2975
 8954TIP3   OH226802   6.620   4.993   6.335  0.2400 -0.8506 -0.6032
 8954TIP3    H126803   6.663   4.915   6.370  1.4766  0.0605 -0.0502
 8954TIP3    H226804   6.666   5.010   6.252  2.7761  1.5486  1.1318
 8955TIP3   OH226805   7.247   4.448   1.733  0.0949  0.7805  0.3257
 8955TIP3    H126806   7.268   4.389   1.805 -0.4226 -0.5979 -0.6138
 8955TIP3    H226807   7.168   4.494   1.762 -0.3972 -0.1277  0.4585
 8956TIP3   OH226808   3.209   1.829   4.148 -1.3614 -0.0096  0.1294
 8956TIP3    H126809   3.210   1.864   4.059 -0.2147 -0.3168 -0.0042
 8956TIP3    H226810   3.208   1.906   4.205 -0.9284  0.2090 -0.1549
 8957TIP3   OH226811   1.495   5.872   4.044  0.2145 -0.3358  0.0091
 8957TIP3    H126812   1.455   5.849   3.961  1.5194  0.7739 -0.9645
 8957TIP3    H226813   1.477   5.797   4.101 -3.7060  0.2824 -0.1312
 8958TIP3   OH226814   6.206   4.923   2.575  0.1533  0.4253 -0.3520
 8958TIP3    H126815   6.154   4.888   2.646 -1.7417 -0.9338 -2.3027
 8958TIP3    H226816   6.291   4.880   2.584 -0.4256 -0.5984  0.4250
 8959TIP3   OH226817   2.513   4.675   2.927 -0.2108  0.1122 -0.0222
 8959TIP3    H126818   2.438   4.633   2.886  0.2924 -0.5576 -0.2906
 8959TIP3    H226819   2.504   4.767   2.905 -1.3642  0.1570  0.6166
 8960TIP3   OH226820   2.094   7.006   5.642 -0.2130 -1.1837  0.0374
 8960TIP3    H126821   2.107   6.996   5.547  1.8876  0.4129  0.0840
 8960TIP3    H226822   2.160   6.948   5.681  1.7810  1.1800  0.4096
 8961TIP3   OH226823   7.309   7.717   6.131  0.7025 -0.8202 -0.5310
 8961TIP3    H126824   7.264   7.766   6.062 -1.3217 -2.5284 -0.5236
 8961TIP3    H226825   7.346   7.641   6.086 -0.6875 -1.9814  0.2438
 8962TIP3   OH226826   6.879   7.713   6.772  0.4826  0.0195  0.1726
 8962TIP3    H126827   6.882   7.649   6.843 -1.3590 -2.2336 -1.6114
 8962TIP3    H226828   6.957   7.695   6.720 -0.1062 -0.9501 -0.4065
 8963TIP3   OH226829   1.553   5.788   0.187  0.2007  0.4995 -0.2980
 8963TIP3    H126830   1.485   5.824   0.130 -0.8206 -0.7521  0.0644
 8963TIP3    H226831   1.526   5.815   0.275 -0.8354 -1.4117  0.0289
 8964TIP3   OH226832   7.144   1.675   5.761  0.1657  0.2697  0.3977
 8964TIP3    H126833   7.162   1.758   5.716 -1.0191  1.7683  2.5089
 8964TIP3    H226834   7.214   1.617   5.732  2.3135  2.6482  0.4345
 8965TIP3   OH226835   1.059   1.949   6.513 -0.2095 -0.0286 -0.0806
 8965TIP3    H126836   1.009   1.936   6.433 -0.3045 -0.5749  0.0619
 8965TIP3    H226837   1.138   1.995   6.485 -0.0047 -0.6603 -0.5662
 8966TIP3   OH226838   7.221   6.146   2.603  0.1770  0.1679 -0.1330
 8966TIP3    H126839   7.152   6.138   2.668  0.2703 -1.1532 -0.1674
 8966TIP3    H226840   7.255   6.235   2.614 -0.8645  0.4957  0.5357
 8967TIP3   OH226841   3.403   2.927   0.290  0.5899 -0.2027 -0.3984
 8967TIP3    H126842   3.466   2.977   0.342  1.8384 -0.4991 -1.5474
 8967TIP3    H226843   3.430   2.836   0.301 -1.0925 -0.5914  0.9251
 8968TIP3   OH226844   5.333   0.966   0.167  0.5383  0.2050  0.6931
 8968TIP3    H126845   5.257   0.916   0.138  1.0738  0.1363 -0.6840
 8968TIP3    H226846   5.363   0.920   0.245 -1.6855  1.1181  2.1818
 8969TIP3   OH226847   1.063   4.876   5.036  0.4089  0.2783 -0.0096
 8969TIP3    H126848   0.997   4.937   5.070 -0.8212 -0.0842 -1.6541
 8969TIP3    H226849   1.104   4.923   4.963  0.9360 -0.0678  0.0571
 8970TIP3   OH226850   5.570   3.196   5.320  0.2610 -0.2007 -0.6094
 8970TIP3    H126851   5.586   3.137   5.247 -0.7552  1.1014 -1.9431
 8970TIP3    H226852   5.485   3.236   5.301  0.7155  1.3723  0.4376
 8971TIP3   OH226853   4.621   4.256   3.889 -0.0072 -0.5008  0.1437
 8971TIP3    H126854   4.657   4.228   3.973  0.5843  2.4426  1.0087
 8971TIP3    H226855   4.697   4.279   3.837 -0.4149  1.8908  0.4900
 8972TIP3   OH226856   2.950   6.893   2.223 -0.1613  0.3709  0.1959
 8972TIP3    H126857   2.901   6.972   2.247  0.5470  0.8112  0.2362
 8972TIP3    H226858   2.945   6.837   2.300 -0.6994  0.3589  0.1541
 8973TIP3   OH226859   7.785   3.121   3.323  0.0527 -0.3007 -0.0617
 8973TIP3    H126860   7.862   3.167   3.290 -1.5131  1.0959 -2.0593
 8973TIP3    H226861   7.810   3.029   3.325  1.4151 -0.0101 -1.7748
 8974TIP3   OH226862   3.647   3.744   6.838  0.3511  0.2021  0.7382
 8974TIP3    H126863   3.588   3.689   6.889 -0.8805  0.7639 -0.0405
 8974TIP3    H226864   3.623   3.728   6.747  1.7117  0.1112  0.3614
 8975TIP3   OH226865   0.901   6.930   1.907 -1.0091 -0.2876 -0.0265
 8975TIP3    H126866   0.858   7.015   1.906 -0.9102 -0.2369 -0.0221
 8975TIP3    H226867   0.830   6.866   1.910 -1.0730 -0.1864  1.0107
 8976TIP3   OH226868   8.188   6.837   0.005  0.3294 -0.3245 -0.5933
 8976TIP3    H126869   8.196   6.785  -0.075  1.6071 -1.0007 -0.0621
 8976TIP3    H226870   8.156   6.775   0.071  1.7986 -0.4526  0.0291
 8977TIP3   OH226871   7.488   0.211   3.432  0.2308 -0.3982 -0.1091
 8977TIP3    H126872   7.527   0.299   3.438 -1.3529  0.2764  0.8689
 8977TIP3    H226873   7.520   0.177   3.348  2.5710  0.2412  0.4364
 8978TIP3   OH226874   2.600   7.085   1.788 -0.6577 -0.2453 -0.1995
 8978TIP3    H126875   2.600   7.109   1.880 -1.2205 -1.4642  0.1339
 8978TIP3    H226876   2.639   6.997   1.785  1.0191  0.4823 -1.3372
 8979TIP3   OH226877   3.764   3.674   2.902 -0.1597  0.1436  0.1203
 8979TIP3    H126878   3.846   3.643   2.938  0.0869  0.7062  0.0520
 8979TIP3    H226879   3.739   3.607   2.838 -0.0998 -0.3597  0.6190
 8980TIP3   OH226880   6.977   1.549   6.225  0.1233 -0.7317  0.2681
 8980TIP3    H126881   6.887   1.529   6.250 -0.3975 -0.0993 -1.0015
 8980TIP3    H226882   6.969   1.604   6.147  1.5730  0.6164  1.0000
 8981TIP3   OH226883   3.320   4.026   3.119  0.2409  0.5701  0.3692
 8981TIP3    H126884   3.320   3.939   3.079  1.5994  1.1151 -0.8793
 8981TIP3    H226885   3.228   4.041   3.143 -0.2091 -0.7368 -0.4346
 8982TIP3   OH226886   0.223   7.597   2.641  0.0501 -0.4085  0.0986
 8982TIP3    H126887   0.211   7.676   2.588  0.2521 -0.4892 -0.0705
 8982TIP3    H226888   0.203   7.625   2.730  0.2864 -0.1217  0.0645
 8983TIP3   OH226889   8.041   4.667   0.157  1.1425  0.4952  0.3870
 8983TIP3    H126890   7.980   4.741   0.159  1.4369  0.8142  3.5001
 8983TIP3    H226891   8.121   4.703   0.119  0.0284  0.5247 -2.1399
 8984TIP3   OH226892   6.669   2.507   6.350  0.7183 -0.4334  0.1810
 8984TIP3    H126893   6.615   2.519   6.429 -2.4432 -0.1345 -1.8684
 8984TIP3    H226894   6.715   2.591   6.340 -0.0685  0.0892  0.8135
 8985TIP3   OH226895   5.815   3.389   6.010 -0.3063 -0.8196 -0.1591
 8985TIP3    H126896   5.810   3.484   6.016  0.5270 -0.7481 -0.4901
 8985TIP3    H226897   5.728   3.359   6.036 -1.0716  0.0933 -1.5870
 8986TIP3   OH226898   0.356   1.617   4.156  0.6159 -0.1369  0.5136
 8986TIP3    H126899   0.318   1.580   4.076 -0.7776  1.0945  0.5644
 8986TIP3    H226900   0.296   1.591   4.226  0.4417  0.9111  0.7704
 8987TIP3   OH226901   0.503   1.910   3.290 -0.0593  0.3506 -0.0698
 8987TIP3    H126902   0.521   1.893   3.383 -1.6224  3.0518  0.8574
 8987TIP3    H226903   0.423   1.861   3.271  0.8297 -1.0290 -0.3145
 8988TIP3   OH226904   3.733   4.161   6.854 -0.4093  0.2249  0.3117
 8988TIP3    H126905   3.655   4.208   6.886 -0.3639  1.7428 -1.6159
 8988TIP3    H226906   3.732   4.176   6.759  0.9201 -1.7885 -0.0612
 8989TIP3   OH226907   7.438   5.060   2.050 -0.5215 -0.2401 -0.4113
 8989TIP3    H126908   7.472   5.021   1.969 -1.3057  1.1313 -1.4452
 8989TIP3    H226909   7.437   5.154   2.033 -0.1701  0.1377  1.4340
 8990TIP3   OH226910   2.965   7.377   3.852  0.1663 -0.0515 -0.2793
 8990TIP3    H126911   2.944   7.375   3.945 -0.4818 -1.0997 -0.4302
 8990TIP3    H226912   2.881   7.363   3.808  0.4449  0.5505 -1.0225
 8991TIP3   OH226913   4.475   1.983   0.881  0.1942 -0.6403  0.1322
 8991TIP3    H126914   4.474   2.066   0.928  1.4805 -0.5944  0.1033
 8991TIP3    H226915   4.421   1.998   0.804 -1.3991 -0.5156  1.2179
 8992TIP3   OH226916   2.512   0.958   3.142  0.4119  0.4612  0.1491
 8992TIP3    H126917   2.458   0.940   3.065 -0.1146  0.5124  0.5062
 8992TIP3    H226918   2.483   1.044   3.172  1.0470  0.7171  0.0418
 8993TIP3   OH226919   7.471   0.130   4.518  0.0533  0.9247  0.4258
 8993TIP3    H126920   7.512   0.044   4.522  0.5286  1.0613 -0.9881
 8993TIP3    H226921   7.434   0.143   4.606 -0.3458 -0.8570  0.5693
 8994TIP3   OH226922   7.388   5.065   5.319  0.2785  0.1319 -0.7286
 8994TIP3    H126923   7.419   5.036   5.404  1.4525  2.3321 -0.3158
 8994TIP3    H226924   7.438   5.014   5.256 -1.3314 -2.2709 -0.2073
 8995TIP3   OH226925   2.847   5.211   2.780 -0.5151  0.4104  0.1098
 8995TIP3    H126926   2.825   5.145   2.846  1.9690 -0.5185  0.1014
 8995TIP3    H226927   2.916   5.264   2.821 -1.4376  2.1241 -0.4426
 8996TIP3   OH226928   2.135   4.001   3.573 -0.3375  0.0572 -0.5723
 8996TIP3    H126929   2.061   3.972   3.519  0.7475 -0.4683 -1.8054
 8996TIP3    H226930   2.172   3.921   3.610 -1.4697  0.4372  1.5989
 8997TIP3   OH226931   4.772   5.613   5.742 -0.2132  0.1314 -0.1720
 8997TIP3    H126932   4.864   5.601   5.721 -0.3539 -2.6227  0.3293
 8997TIP3    H226933   4.738   5.669   5.673  1.4295 -0.4464 -1.5166
 8998TIP3   OH226934   8.141   5.644   2.251 -0.4859 -0.1495  0.6432
 8998TIP3    H126935   8.174   5.712   2.193  1.0901 -1.8717 -0.5826
 8998TIP3    H226936   8.213   5.626   2.311 -0.9044 -0.6547  1.0051
 8999TIP3   OH226937   2.803   4.240   4.970 -0.0522 -0.1241 -0.5683
 8999TIP3    H126938   2.732   4.177   4.981  1.3896 -1.6466  0.4475
 8999TIP3    H226939   2.846   4.213   4.888 -0.4935  0.6678 -1.0750
 9000TIP3   OH226940   4.186   1.270   1.489 -0.4205  0.6209  0.4476
 9000TIP3    H126941   4.159   1.280   1.398 -2.0106 -1.8287  0.5571
 9000TIP3    H226942   4.275   1.236   1.484 -0.9194 -0.6588 -0.2747
 9001TIP3   OH226943   7.949   4.900   2.952 -0.0025 -0.7973 -0.6309
 9001TIP3    H126944   8.013   4.851   3.003  1.0406  1.5334  0.4252
 9001TIP3    H226945   7.988   4.909   2.865  0.4929 -0.5256 -0.3808
 9002TIP3   OH226946   0.277   6.561   4.154  0.2769  0.0257 -0.2968
 9002TIP3    H126947   0.207   6.617   4.119  0.7672  1.6582  1.2030
 9002TIP3    H226948   0.248   6.472   4.135 -1.7415  0.6969 -0.5847
 9003TIP3   OH226949   1.909   0.748   5.944 -0.4222 -0.2803 -0.0758
 9003TIP3    H126950   1.817   0.740   5.970 -0.6320 -2.1063 -1.1946
 9003TIP3    H226951   1.950   0.668   5.977  0.4334 -0.1805 -0.8439
 9004TIP3   OH226952   1.030   5.968   5.502  0.0262 -0.1375 -0.3729
 9004TIP3    H126953   1.012   5.968   5.408  1.8210  2.1220 -0.8045
 9004TIP3    H226954   1.104   5.909   5.511 -0.1419 -0.3495 -0.3687
 9005TIP3   OH226955   1.989   5.528   0.525 -0.7119 -0.4968 -0.0201
 9005TIP3    H126956   1.898   5.526   0.498 -0.4001 -1.0561 -1.0648
 9005TIP3    H226957   1.987   5.506   0.618 -1.6615 -0.1958  0.0404
 9006TIP3   OH226958   6.194   7.053   3.045 -0.1706 -0.3279 -0.1380
 9006TIP3    H126959   6.283   7.086   3.033 -1.1820  2.7620  0.1168
 9006TIP3    H226960   6.206   6.969   3.089  2.6406 -0.8463 -1.6258
 9007TIP3   OH226961   5.921   5.692   0.658  0.3168  0.0536 -0.4480
 9007TIP3    H126962   5.954   5.758   0.720 -0.0596 -0.3538  0.1987
 9007TIP3    H226963   5.998   5.667   0.607  0.5143  0.8236 -0.5460
 9008TIP3   OH226964   0.846   5.241   1.313 -0.1850  0.0477  0.2044
 9008TIP3    H126965   0.814   5.259   1.224 -2.1924 -0.6550  0.7483
 9008TIP3    H226966   0.865   5.147   1.313  0.4786  0.1752  0.3367
 9009TIP3   OH226967   2.899   0.912   2.582  0.3088  0.6059 -0.2652
 9009TIP3    H126968   2.927   0.822   2.594 -1.0531  0.2774  0.7381
 9009TIP3    H226969   2.812   0.905   2.543 -0.6917  1.3740  1.6664
 9010TIP3   OH226970   6.757   7.797   4.464  0.0464  0.0044  0.6458
 9010TIP3    H126971   6.828   7.757   4.513  0.8299 -0.3737 -0.7526
 9010TIP3    H226972   6.800   7.845   4.393 -1.1123 -1.4122 -1.0881
 9011TIP3   OH226973   4.696   6.582   5.901 -0.0448 -0.1046  0.2382
 9011TIP3    H126974   4.758   6.644   5.938 -0.2995  0.1448  0.2502
 9011TIP3    H226975   4.748   6.503   5.883  0.0818 -0.2248  1.1005
 9012TIP3   OH226976   1.780   6.674   0.658  0.7770 -0.2785  0.3783
 9012TIP3    H126977   1.786   6.701   0.566 -0.6548  0.5713  0.5023
 9012TIP3    H226978   1.864   6.632   0.676  1.0632 -0.5275 -1.3354
 9013TIP3   OH226979   5.599   3.144   3.604  0.3471  0.4407  0.1161
 9013TIP3    H126980   5.530   3.145   3.671  1.9070  0.5449  1.7957
 9013TIP3    H226981   5.608   3.235   3.578 -0.4999  0.3548 -0.5111
 9014TIP3   OH226982   1.689   2.600   4.122  0.8015 -0.1382 -0.1512
 9014TIP3    H126983   1.619   2.640   4.172  0.7926 -0.7554  0.3448
 9014TIP3    H226984   1.685   2.507   4.144  0.8001 -0.4349 -1.2990
 9015TIP3   OH226985   8.273   7.610   1.408  0.0836  0.0151 -0.0017
 9015TIP3    H126986   8.248   7.687   1.356  0.1169 -0.2177 -0.3644
 9015TIP3    H226987   8.190   7.564   1.423 -0.0380  0.4780  0.8007
 9016TIP3   OH226988   3.920   1.390   3.223 -0.3704  0.3623 -0.6257
 9016TIP3    H126989   3.988   1.393   3.290 -0.8752  0.9154 -0.1251
 9016TIP3    H226990   3.884   1.302   3.229 -0.3420  0.3770 -0.2433
 9017TIP3   OH226991   7.397   0.950   6.371 -0.1536 -0.0181 -0.6490
 9017TIP3    H126992   7.392   0.927   6.464  0.3604 -0.9438 -0.8395
 9017TIP3    H226993   7.306   0.954   6.343 -0.3036 -0.0148 -0.1772
 9018TIP3   OH226994   0.799   2.325   3.462  0.3003 -0.1760 -0.6935
 9018TIP3    H126995   0.859   2.251   3.461 -1.0331 -1.2998 -0.3788
 9018TIP3    H226996   0.754   2.319   3.546  0.7956  1.5437 -0.2594
 9019TIP3   OH226997   5.948  -0.038   0.445 -0.5633 -0.3173  0.7320
 9019TIP3    H126998   5.926   0.022   0.374  0.0893 -0.5126  0.3504
 9019TIP3    H226999   5.956   0.017   0.522  2.0142  0.4549  0.0217
 9020TIP3   OH227000   2.974   6.847   4.937 -0.5562  0.0931 -0.0496
 9020TIP3    H127001   2.973   6.845   4.841  0.2282  0.2175 -0.0677
 9020TIP3    H227002   2.888   6.882   4.961 -0.7298  0.1353 -0.7070
 9021TIP3   OH227003   5.995   0.607   6.196  0.2656  0.2182  0.3476
 9021TIP3    H127004   6.073   0.653   6.227 -0.3429  1.5347  0.0362
 9021TIP3    H227005   5.922   0.661   6.229 -0.4522  0.2650 -1.2114
 9022TIP3   OH227006   4.506   5.628   3.933  0.1469  0.5152 -0.3881
 9022TIP3    H127007   4.574   5.693   3.915  0.0289  0.9570  0.7174
 9022TIP3    H227008   4.513   5.611   4.027 -0.2549 -0.5930 -0.5453
 9023TIP3   OH227009   2.081   5.614   4.620  0.0100 -0.2436  0.2487
 9023TIP3    H127010   2.148   5.561   4.665  0.4103 -0.5990 -0.7458
 9023TIP3    H227011   2.039   5.553   4.560 -0.9625  0.0746  0.5906
 9024TIP3   OH227012   5.607   7.722   4.865  0.2539  0.3313  0.2985
 9024TIP3    H127013   5.638   7.716   4.774 -0.3331 -1.4684  0.1750
 9024TIP3    H227014   5.637   7.641   4.906  0.3900  1.0598  1.6924
 9025TIP3   OH227015   7.452   7.357   4.058 -0.0057 -0.1056  0.1018
 9025TIP3    H127016   7.419   7.388   3.973  0.0595  0.0819  0.1438
 9025TIP3    H227017   7.382   7.380   4.119 -0.2166 -0.5798  0.0415
 9026TIP3   OH227018   7.281   4.428   4.766  0.6701  0.4666  0.3545
 9026TIP3    H127019   7.321   4.359   4.819 -0.6537 -0.1292  0.6255
 9026TIP3    H227020   7.210   4.462   4.820 -0.1776  0.4188 -0.6855
 9027TIP3   OH227021   5.355   7.176   3.051 -0.0531  0.4397 -0.0339
 9027TIP3    H127022   5.360   7.238   2.978 -1.4639 -0.4401 -0.9221
 9027TIP3    H227023   5.436   7.126   3.045 -1.0917 -1.1118 -2.4356
 9028TIP3   OH227024   7.390   5.295   0.709  0.2718  0.6298 -0.1917
 9028TIP3    H127025   7.454   5.240   0.663  1.0769  0.9077  0.5608
 9028TIP3    H227026   7.307   5.249   0.700  0.3895  0.7164 -1.9858
 9029TIP3   OH227027   6.256   2.613   5.973 -0.1122 -0.2447  0.0689
 9029TIP3    H127028   6.181   2.643   6.024 -0.3737  0.6142 -0.7883
 9029TIP3    H227029   6.329   2.611   6.035 -0.7631 -0.7715  0.8329
 9030TIP3   OH227030   3.881   2.557   0.570 -0.1248  0.4295  0.4611
 9030TIP3    H127031   3.839   2.497   0.509 -0.1307  0.6980  0.1969
 9030TIP3    H227032   3.809   2.605   0.610 -0.1446 -0.0256  0.9761
 9031TIP3   OH227033   3.244   5.470   0.969 -0.5276 -0.6299 -0.5136
 9031TIP3    H127034   3.232   5.390   1.019 -0.9046  0.3879  1.0744
 9031TIP3    H227035   3.338   5.471   0.949 -0.1548 -0.5579  1.0992
 9032TIP3   OH227036   7.165   3.359   4.265  0.2069 -0.1658  0.2757
 9032TIP3    H127037   7.140   3.445   4.233  0.6107 -0.5962 -1.2729
 9032TIP3    H227038   7.085   3.307   4.261  0.7405 -0.8947 -2.4571
 9033TIP3   OH227039   1.847   1.827   3.170 -0.1020 -0.1330  0.1057
 9033TIP3    H127040   1.756   1.846   3.149 -0.4068  0.1441  1.6192
 9033TIP3    H227041   1.859   1.735   3.148 -0.6020 -0.0426 -0.5589
 9034TIP3   OH227042   0.984   7.827   1.262  0.2154 -0.1492  0.6093
 9034TIP3    H127043   0.905   7.795   1.306  0.3737 -0.9890  0.2992
 9034TIP3    H227044   0.973   7.922   1.258 -1.8370 -0.3718 -1.3745
 9035TIP3   OH227045   3.685   4.417   3.611  0.9138  0.1271 -0.1621
 9035TIP3    H127046   3.617   4.350   3.598 -0.2180  0.6661  2.2609
 9035TIP3    H227047   3.751   4.397   3.545 -1.2565 -0.8503 -2.2333
 9036TIP3   OH227048   6.540   0.494   3.591  0.6608 -0.1342 -0.5659
 9036TIP3    H127049   6.584   0.574   3.620  1.7603  0.1491 -2.7543
 9036TIP3    H227050   6.448   0.519   3.583  0.7148  0.4095  0.3770
 9037TIP3   OH227051   6.035   1.432   4.838 -0.4636 -0.4825  0.5812
 9037TIP3    H127052   5.944   1.429   4.808 -1.2069 -0.0696  2.6289
 9037TIP3    H227053   6.036   1.377   4.917  1.4047 -1.6028 -0.1573
 9038TIP3   OH227054   4.072   7.695   0.936 -0.4373  0.3630 -0.2518
 9038TIP3    H127055   4.051   7.679   1.028 -1.5018 -1.2733 -0.7296
 9038TIP3    H227056   4.038   7.618   0.890  2.6348 -0.2803 -1.7042
 9039TIP3   OH227057   0.452   4.184   6.566 -0.4477 -0.1715 -0.2247
 9039TIP3    H127058   0.482   4.093   6.569  2.0013  0.5741  0.4663
 9039TIP3    H227059   0.496   4.221   6.489 -0.4872  0.7055  0.1634
 9040TIP3   OH227060   5.122   2.265   5.158  0.1560 -0.0742  0.2310
 9040TIP3    H127061   5.179   2.188   5.169 -1.0812 -1.4508 -2.1477
 9040TIP3    H227062   5.034   2.228   5.149 -1.3915  2.0092  4.2297
 9041TIP3   OH227063   5.219   4.651   5.828  0.3214  0.0244 -0.1181
 9041TIP3    H127064   5.247   4.560   5.832  1.5736  0.3887 -0.0049
 9041TIP3    H227065   5.268   4.688   5.754 -0.9161  0.3755 -0.7856
 9042TIP3   OH227066   8.061   0.659   5.802 -0.0931 -0.3606 -0.1524
 9042TIP3    H127067   8.090   0.750   5.803  0.4082 -0.4977 -0.9913
 9042TIP3    H227068   7.993   0.655   5.869  0.2883  0.4894  0.3139
 9043TIP3   OH227069   4.968   4.582   4.021 -0.1378  0.0924 -0.0362
 9043TIP3    H127070   5.052   4.619   4.047  0.5631 -1.8225  0.6170
 9043TIP3    H227071   4.903   4.643   4.057  0.9292  1.6157 -0.5772
 9044TIP3   OH227072   7.785   5.357   1.714 -0.1470  0.1978  0.4032
 9044TIP3    H127073   7.737   5.439   1.719 -1.3962 -0.4782  0.0283
 9044TIP3    H227074   7.876   5.381   1.727 -0.4445  1.6822 -0.1439
 9045TIP3   OH227075   1.101   7.258   6.793 -0.5903  0.0321  0.1121
 9045TIP3    H127076   1.043   7.330   6.767  2.1258  1.7569 -1.6977
 9045TIP3    H227077   1.118   7.272   6.885 -2.4313 -0.1400  0.5214
 9046TIP3   OH227078   7.393   5.950   2.541  0.2521  0.7141  0.0934
 9046TIP3    H127079   7.415   5.980   2.453 -1.2839 -2.3314 -1.4803
 9046TIP3    H227080   7.309   5.992   2.561  0.4140  1.1095 -0.0632
 9047TIP3   OH227081   3.432   2.061   3.761 -0.1486  0.1465 -0.4912
 9047TIP3    H127082   3.519   2.031   3.786  0.3262  1.9714  0.1981
 9047TIP3    H227083   3.444   2.152   3.736 -1.9909  0.6575  0.3210
 9048TIP3   OH227084   2.561   3.118   4.717 -0.9550 -0.1300  0.0767
 9048TIP3    H127085   2.556   3.168   4.798  2.3279  1.5134 -0.5633
 9048TIP3    H227086   2.611   3.040   4.740  1.8028  1.3147 -0.6337
 9049TIP3   OH227087   0.525   2.825   4.574  0.0588 -0.1366  0.1685
 9049TIP3    H127088   0.479   2.836   4.491 -0.4071 -1.7211  0.1777
 9049TIP3    H227089   0.618   2.823   4.549  0.1046  2.0775  0.0362
 9050TIP3   OH227090   5.714   7.161   0.536 -0.5329  0.6298  0.2841
 9050TIP3    H127091   5.715   7.233   0.472 -2.8078 -1.4832 -2.3690
 9050TIP3    H227092   5.625   7.128   0.534  0.1130 -1.5015  2.3677
 9051TIP3   OH227093   7.611   0.452   2.593 -0.4641  0.4904 -0.4263
 9051TIP3    H127094   7.590   0.360   2.607  0.6931  0.2233 -0.3285
 9051TIP3    H227095   7.553   0.480   2.522 -2.6741  0.4214  1.2559
 9052TIP3   OH227096   0.286   4.355   5.379 -0.2964  0.9472 -0.1206
 9052TIP3    H127097   0.289   4.416   5.305 -1.7897  0.2656 -0.7902
 9052TIP3    H227098   0.324   4.274   5.344 -0.3924  0.8261  0.0564
 9053TIP3   OH227099   5.460   0.022   3.085  0.1032 -0.0067  0.5958
 9053TIP3    H127100   5.455   0.074   3.165  1.3675  0.1538  0.5905
 9053TIP3    H227101   5.429  -0.065   3.110  1.7395 -0.3447  1.6274
 9054TIP3   OH227102   4.723   5.768   2.741  0.6953  0.0761  0.6655
 9054TIP3    H127103   4.697   5.730   2.825  2.8501 -0.7652  1.0136
 9054TIP3    H227104   4.641   5.773   2.691 -0.7229  0.9647  2.8977
 9055TIP3   OH227105   2.130   0.232   2.113 -0.3866 -0.2472 -0.4211
 9055TIP3    H127106   2.177   0.306   2.152  1.5528 -1.6093 -0.0715
 9055TIP3    H227107   2.071   0.202   2.183 -0.8688  0.6555 -0.4205
 9056TIP3   OH227108   6.050   1.559   1.012 -0.2221  0.1979  0.4038
 9056TIP3    H127109   6.029   1.650   1.030  0.6762  0.1081  2.2827
 9056TIP3    H227110   6.132   1.544   1.061 -0.0725 -1.4639 -0.2872
 9057TIP3   OH227111   5.739   1.026   2.334 -0.4294 -0.6953  0.4740
 9057TIP3    H127112   5.717   1.073   2.254 -0.1904 -1.1994  0.1132
 9057TIP3    H227113   5.704   0.938   2.322  0.0189 -0.9131  0.7235
 9058TIP3   OH227114   8.243   5.469   5.735  0.7177  0.7051 -0.4668
 9058TIP3    H127115   8.335   5.493   5.727  0.4411  2.2721  0.6420
 9058TIP3    H227116   8.244   5.385   5.780  1.5907  1.4027  0.8645
 9059TIP3   OH227117   6.560   4.128   6.254 -0.1435  0.1107  0.3293
 9059TIP3    H127118   6.523   4.069   6.188 -0.8909 -0.1443  0.9551
 9059TIP3    H227119   6.564   4.213   6.210  0.2688 -0.2517 -0.3494
 9060TIP3   OH227120   2.308   0.511   1.217 -0.4113  0.4237  0.1205
 9060TIP3    H127121   2.318   0.454   1.294 -0.2033  1.5260  0.9243
 9060TIP3    H227122   2.214   0.525   1.209 -0.3990  0.6948  0.4587
 9061TIP3   OH227123   1.532   0.640   5.365 -0.6868  0.2071 -0.9615
 9061TIP3    H127124   1.464   0.596   5.416 -0.0688 -0.3051 -0.5610
 9061TIP3    H227125   1.578   0.569   5.321 -0.1261  0.5084 -0.8667
 9062TIP3   OH227126   7.824   1.503   6.718 -0.1476  0.2256 -0.0594
 9062TIP3    H127127   7.732   1.532   6.720  0.1172  1.0710  0.2067
 9062TIP3    H227128   7.865   1.556   6.650 -0.1943 -1.2692 -1.3214
 9063TIP3   OH227129   7.750   5.360   2.624 -0.3103 -0.1463 -0.2780
 9063TIP3    H127130   7.718   5.399   2.706  0.0145 -0.5798  0.0606
 9063TIP3    H227131   7.738   5.266   2.636  0.6793 -0.2898 -0.3138
 9064TIP3   OH227132   0.161   5.568   1.042  0.2048 -0.0861  0.2166
 9064TIP3    H127133   0.088   5.625   1.016 -0.5628 -0.5944  1.1625
 9064TIP3    H227134   0.121   5.506   1.103  1.3752 -0.5917  0.4857
 9065TIP3   OH227135   3.156   0.226   1.472  0.4394 -0.4233  0.5149
 9065TIP3    H127136   3.192   0.270   1.395  0.1106  0.4327  0.8408
 9065TIP3    H227137   3.170   0.133   1.455  2.4769 -0.1529  0.4709
 9066TIP3   OH227138   8.161   5.218   4.314  0.2929 -0.3122 -0.0595
 9066TIP3    H127139   8.174   5.287   4.249 -3.1728 -0.3787 -1.0071
 9066TIP3    H227140   8.161   5.137   4.263  1.1258 -0.7524  0.6043
 9067TIP3   OH227141   5.326   0.694   4.516  0.1723 -0.1682 -0.1464
 9067TIP3    H127142   5.359   0.770   4.564  0.4899 -0.6184  0.3602
 9067TIP3    H227143   5.344   0.620   4.574 -0.0124 -0.6441 -0.6930
 9068TIP3   OH227144   2.734   6.726   0.870 -0.2217 -0.2166 -0.5036
 9068TIP3    H127145   2.826   6.754   0.871 -0.0333 -0.7155 -1.5691
 9068TIP3    H227146   2.729   6.657   0.935  0.5289 -1.2017 -1.4548
 9069TIP3   OH227147   8.097   5.243   0.907  0.1813  0.7328 -0.2227
 9069TIP3    H127148   8.032   5.184   0.868  2.6512 -0.4945 -2.8600
 9069TIP3    H227149   8.055   5.274   0.987 -3.1017 -0.9580 -1.0729
 9070TIP3   OH227150   8.261   4.288   2.418  0.3566 -0.3476 -0.2390
 9070TIP3    H127151   8.264   4.279   2.322  0.9986 -2.5124 -0.0812
 9070TIP3    H227152   8.168   4.295   2.438  0.1526 -0.8168 -0.9808
 9071TIP3   OH227153   5.474   6.406   4.982  0.2365  0.2362 -0.4947
 9071TIP3    H127154   5.396   6.452   5.013  1.0933  0.7355  1.0095
 9071TIP3    H227155   5.493   6.445   4.897 -0.5213  0.8768 -0.3807
 9072TIP3   OH227156   6.314   4.165   1.514 -0.4017 -0.1470 -0.0442
 9072TIP3    H127157   6.401   4.203   1.524 -0.4317  0.3453 -1.4210
 9072TIP3    H227158   6.330   4.073   1.494 -0.2292 -0.2585  0.6074
 9073TIP3   OH227159   7.444   4.664   3.557  0.6801  0.0250 -0.4818
 9073TIP3    H127160   7.477   4.739   3.508  0.8318  0.4535  0.2587
 9073TIP3    H227161   7.503   4.656   3.632  0.1789 -0.3278 -0.1148
 9074TIP3   OH227162   5.275   4.762   1.682  0.2232 -0.3017  0.3707
 9074TIP3    H127163   5.366   4.732   1.679 -0.0818 -1.3472  0.9476
 9074TIP3    H227164   5.229   4.704   1.621 -0.2415 -0.5291  0.9254
 9075TIP3   OH227165   2.940   5.150   0.781  0.5648 -0.1577 -0.4816
 9075TIP3    H127166   2.859   5.150   0.833 -0.4133  3.1496 -1.7418
 9075TIP3    H227167   2.990   5.224   0.815  1.6425 -0.2926 -1.7040
 9076TIP3   OH227168   0.468   6.160   6.373 -0.3375 -0.1574 -0.2798
 9076TIP3    H127169   0.389   6.172   6.426  0.7066 -2.2068  1.9459
 9076TIP3    H227170   0.489   6.249   6.343 -1.0405  1.2158  2.8180
 9077TIP3   OH227171   1.839   7.627   1.642  0.4398  0.1188  0.3342
 9077TIP3    H127172   1.904   7.676   1.591  0.0307 -0.8778 -1.2046
 9077TIP3    H227173   1.796   7.571   1.578 -1.2908  0.0538  1.4913
 9078TIP3   OH227174   5.947   2.482   5.046  0.0119  0.1982  0.0747
 9078TIP3    H127175   6.029   2.447   5.082  0.2053  1.2503  0.6951
 9078TIP3    H227176   5.965   2.496   4.953  0.7465  0.9955  0.3287
 9079TIP3   OH227177   2.950   5.411   2.979 -0.2607 -0.3895  0.2621
 9079TIP3    H127178   2.964   5.359   3.058 -0.4250  1.4700  1.5840
 9079TIP3    H227179   2.869   5.459   2.996 -0.1619  0.2344 -0.9280
 9080TIP3   OH227180   2.875   7.719   4.131 -0.3100  0.0300  0.2769
 9080TIP3    H127181   2.887   7.624   4.135  0.9797  0.1294 -0.6656
 9080TIP3    H227182   2.804   7.732   4.068  0.4659 -0.2714 -0.6829
 9081TIP3   OH227183   2.498   3.216   3.446 -0.6932 -0.3191 -0.4931
 9081TIP3    H127184   2.561   3.269   3.398 -1.4753  0.1467 -1.0416
 9081TIP3    H227185   2.424   3.276   3.462 -1.2065 -0.9827 -0.3283
 9082TIP3   OH227186   2.975   3.286   6.578  0.1554  0.4009  0.2005
 9082TIP3    H127187   3.047   3.255   6.523 -0.5065 -2.0557  0.6125
 9082TIP3    H227188   2.900   3.291   6.520  0.1354  0.7857  0.2553
 9083TIP3   OH227189   7.312   6.265   5.068  0.5489  0.2579  0.0886
 9083TIP3    H127190   7.315   6.348   5.021  1.1334  0.8232  1.0882
 9083TIP3    H227191   7.324   6.289   5.160 -2.2639 -0.6319  0.7795
 9084TIP3   OH227192   3.324   0.233   2.661  0.4265 -0.5957 -0.9847
 9084TIP3    H127193   3.351   0.291   2.733 -1.3822 -1.3489  0.3777
 9084TIP3    H227194   3.328   0.288   2.583  0.1853  0.9574  0.0458
 9085TIP3   OH227195   4.356   7.285   1.466  0.3867 -0.2736  0.9950
 9085TIP3    H127196   4.437   7.330   1.443  1.0153 -0.9000  1.9139
 9085TIP3    H227197   4.381   7.224   1.535 -0.7410 -0.9563  0.8293
 9086TIP3   OH227198   4.852   5.086   5.363 -0.4095  0.1452  0.1886
 9086TIP3    H127199   4.847   5.021   5.432  2.3263 -0.0112  0.3396
 9086TIP3    H227200   4.902   5.158   5.401  0.7152  0.2731 -1.4369
 9087TIP3   OH227201   0.139   0.437   1.676  0.1561  0.1002 -0.4868
 9087TIP3    H127202   0.110   0.506   1.735  2.1752  1.1471 -0.6137
 9087TIP3    H227203   0.234   0.450   1.668  0.7163 -2.9011 -0.2502
 9088TIP3   OH227204   6.392   6.021   2.602  0.0852 -0.3687  0.3624
 9088TIP3    H127205   6.474   6.007   2.556  0.4967 -1.2048  1.2964
 9088TIP3    H227206   6.413   6.003   2.694 -0.5507  1.8220  0.9812
 9089TIP3   OH227207   5.353   1.323   0.396  0.4324  0.6793  0.1183
 9089TIP3    H127208   5.347   1.236   0.434  0.4970  0.2295 -0.8566
 9089TIP3    H227209   5.437   1.358   0.427  0.7586  0.0854 -0.0832
 9090TIP3   OH227210   5.479   7.105   6.730 -0.3281 -0.6839 -0.8085
 9090TIP3    H127211   5.410   7.109   6.664  1.1857  2.3181 -2.4341
 9090TIP3    H227212   5.557   7.137   6.684  0.8372  1.4799  2.3870
 9091TIP3   OH227213   3.289   3.116   4.568  0.3790  0.2132  0.6397
 9091TIP3    H127214   3.266   3.206   4.547  0.8393  0.1276 -0.3046
 9091TIP3    H227215   3.230   3.092   4.640 -1.5591  0.4251 -0.8048
 9092TIP3   OH227216   5.336   0.868   4.004  0.1718 -0.0029  0.5272
 9092TIP3    H127217   5.335   0.886   3.910 -0.8408  1.7884  0.8288
 9092TIP3    H227218   5.394   0.935   4.040  0.0028 -0.2432  1.2594
 9093TIP3   OH227219   6.416   0.636   5.528  0.5881  0.1608  0.3531
 9093TIP3    H127220   6.362   0.566   5.492  1.8754 -1.1370  0.8632
 9093TIP3    H227221   6.491   0.641   5.469  0.2353  1.5436 -0.0166
 9094TIP3   OH227222   0.681   5.911   6.237  0.1299 -0.1054 -0.0891
 9094TIP3    H127223   0.586   5.918   6.235  0.2281  2.5108  1.1292
 9094TIP3    H227224   0.698   5.830   6.286 -1.4855  0.0214  0.7398
 9095TIP3   OH227225   4.064   3.120   6.002  0.5029  0.8526 -0.7747
 9095TIP3    H127226   4.012   3.123   6.082  0.4326  0.1320 -0.7861
 9095TIP3    H227227   4.136   3.181   6.018  0.8456  0.2311  0.1038
 9096TIP3   OH227228   0.391   4.524   3.253  0.6874  0.2650  0.2004
 9096TIP3    H127229   0.398   4.602   3.308 -0.9419 -0.8528  2.1292
 9096TIP3    H227230   0.308   4.535   3.206 -0.2139 -0.8472  1.4712
 9097TIP3   OH227231   3.019   4.337   3.859  0.0419  0.3148 -0.3669
 9097TIP3    H127232   3.010   4.349   3.954  1.4476 -1.2794  0.0175
 9097TIP3    H227233   2.994   4.421   3.822  3.5776  2.5064  1.6943
 9098TIP3   OH227234   4.158   7.126   5.179 -0.1874 -0.0247  0.2455
 9098TIP3    H127235   4.189   7.203   5.229 -0.9552  1.1087 -0.9674
 9098TIP3    H227236   4.157   7.055   5.243 -0.9347  1.3271  1.8073
 9099TIP3   OH227237   2.862   4.752   2.336  0.6199  0.2426  0.1617
 9099TIP3    H127238   2.815   4.670   2.351  0.8258  0.1717  0.4133
 9099TIP3    H227239   2.796   4.820   2.347  0.9050  0.2513  2.1230
 9100TIP3   OH227240   0.243   2.702   5.429  0.2669  0.1649 -0.0115
 9100TIP3    H127241   0.308   2.771   5.412  1.5295 -0.2591  2.5670
 9100TIP3    H227242   0.271   2.629   5.375 -0.4508  1.2542 -1.9556
 9101TIP3   OH227243   4.527   1.198   5.498 -0.0001  0.4110 -0.3255
 9101TIP3    H127244   4.617   1.170   5.484 -1.2999 -2.8765 -3.3380
 9101TIP3    H227245   4.510   1.259   5.426 -0.1072  1.3836  0.5035
 9102TIP3   OH227246   6.888   6.511   2.343 -0.4361  0.4595 -0.0639
 9102TIP3    H127247   6.885   6.607   2.348  1.8374  0.5496  0.9759
 9102TIP3    H227248   6.935   6.493   2.261 -1.2442  0.2109 -0.4767
 9103TIP3   OH227249   0.901   0.479   6.393 -0.5489 -0.0210 -0.0344
 9103TIP3    H127250   0.961   0.431   6.451 -1.9005 -0.3849  1.1251
 9103TIP3    H227251   0.932   0.569   6.396 -0.2377 -0.1459  0.8060
 9104TIP3   OH227252   6.282   2.800   6.150  0.1570 -0.0554 -0.3795
 9104TIP3    H127253   6.338   2.758   6.216  0.6760 -0.5429 -1.1095
 9104TIP3    H227254   6.205   2.829   6.199  1.0676  0.7012  0.6656
 9105TIP3   OH227255   7.276   7.498   4.537 -0.3654  0.6369 -0.5859
 9105TIP3    H127256   7.317   7.492   4.623  0.7021  1.3912 -1.0069
 9105TIP3    H227257   7.198   7.443   4.542 -0.0789  0.3338  0.7178
 9106TIP3   OH227258   4.890   7.482   3.699  0.6719 -0.4126 -0.5690
 9106TIP3    H127259   4.829   7.414   3.729  0.6701 -0.2263 -0.1466
 9106TIP3    H227260   4.838   7.562   3.700  1.0977 -0.1290  0.4502
 9107TIP3   OH227261   6.821   0.887   1.938  0.2961 -0.3915 -0.0720
 9107TIP3    H127262   6.861   0.968   1.970  0.3904  0.0639 -1.2811
 9107TIP3    H227263   6.737   0.881   1.985  0.7609 -0.1581  0.8003
 9108TIP3   OH227264   0.410   7.728   3.959 -0.3697 -0.1183 -0.1841
 9108TIP3    H127265   0.338   7.791   3.949  0.5212  0.8868 -0.4161
 9108TIP3    H227266   0.384   7.654   3.904 -0.3606  1.0406 -1.8242
 9109TIP3   OH227267   3.141   0.611   4.659  0.4763 -0.0352 -0.5395
 9109TIP3    H127268   3.169   0.702   4.654  0.5492 -0.0462 -0.3609
 9109TIP3    H227269   3.222   0.563   4.676  0.0232  0.2335  3.2930
 9110TIP3   OH227270   1.831   2.901   4.800  0.2758 -0.0831 -0.2509
 9110TIP3    H127271   1.771   2.954   4.851 -0.7966 -1.5926  0.1456
 9110TIP3    H227272   1.870   2.841   4.863 -1.0243 -1.9333 -1.1004
 9111TIP3   OH227273   1.532   2.479   3.876 -0.5940  0.8779  0.1872
 9111TIP3    H127274   1.442   2.497   3.901 -0.6331  0.6061  0.2356
 9111TIP3    H227275   1.576   2.456   3.958 -0.6942  0.1090  0.0309
 9112TIP3   OH227276   2.571   7.426   0.531  0.4107  0.4113  0.5816
 9112TIP3    H127277   2.637   7.416   0.462  0.6137  0.5061  0.7615
 9112TIP3    H227278   2.517   7.500   0.502 -2.4718 -2.3444 -1.8799
 9113TIP3   OH227279   2.189   7.305   3.182 -0.4850 -0.0256 -0.0910
 9113TIP3    H127280   2.167   7.255   3.103 -3.4261 -1.2396  1.3218
 9113TIP3    H227281   2.234   7.242   3.238  1.4431  0.7855 -0.6470
 9114TIP3   OH227282   5.423   7.715   2.354 -0.7515 -0.2739 -0.0171
 9114TIP3    H127283   5.440   7.782   2.421  0.8858  1.3021 -1.8842
 9114TIP3    H227284   5.444   7.633   2.398 -0.4057  0.6387  1.6247
 9115TIP3   OH227285   6.609   1.792   2.389  0.4452 -0.5080  0.3618
 9115TIP3    H127286   6.548   1.783   2.316 -0.1738 -0.0685  0.8193
 9115TIP3    H227287   6.636   1.702   2.409  0.1548 -0.6801 -0.0167
 9116TIP3   OH227288   0.441   3.395   6.548 -0.1722 -0.3875  0.3958
 9116TIP3    H127289   0.429   3.329   6.617  0.5039 -0.7997  0.1247
 9116TIP3    H227290   0.464   3.344   6.471 -0.2644  0.1279  0.0264
 9117TIP3   OH227291   0.966   3.000   1.146 -0.6532  0.1618  0.3088
 9117TIP3    H127292   1.045   3.004   1.199 -1.5754 -0.1273  1.7838
 9117TIP3    H227293   0.965   2.912   1.108 -1.2370 -0.5738  1.9320
 9118TIP3   OH227294   7.694   1.140   5.500  0.6709 -0.5372 -0.3583
 9118TIP3    H127295   7.743   1.113   5.578  0.4819 -0.3387 -0.1677
 9118TIP3    H227296   7.629   1.071   5.487  1.3391 -1.0813 -0.9314
 9119TIP3   OH227297   4.726   6.734   0.609 -0.7973  0.0110  0.2142
 9119TIP3    H127298   4.812   6.697   0.628 -0.9045  0.1195  0.9595
 9119TIP3    H227299   4.684   6.741   0.695 -1.6205 -0.2213 -0.1584
 9120TIP3   OH227300   1.313   1.612   5.794  0.0100 -0.4668  0.2029
 9120TIP3    H127301   1.313   1.697   5.751 -3.2220 -0.4253  0.0501
 9120TIP3    H227302   1.324   1.549   5.723  2.9635 -0.2919  0.3711
 9121TIP3   OH227303   4.316   5.213   1.017  0.1469 -0.2389  0.1486
 9121TIP3    H127304   4.392   5.181   1.067 -0.7946 -1.9806  0.5501
 9121TIP3    H227305   4.346   5.213   0.926  0.7357 -0.6155  0.3355
 9122TIP3   OH227306   7.674   1.159   2.360  0.7952 -0.2038  0.3695
 9122TIP3    H127307   7.698   1.072   2.393  0.0218 -0.7648 -0.4993
 9122TIP3    H227308   7.745   1.216   2.388  2.1091 -1.4179 -0.3868
 9123TIP3   OH227309   3.246   0.205   4.159 -0.1830  0.1211  0.6628
 9123TIP3    H127310   3.173   0.265   4.141 -0.5843 -0.3936  0.5173
 9123TIP3    H227311   3.268   0.221   4.251 -0.3847  0.3883  0.6674
 9124TIP3   OH227312   5.495   4.648   6.366  0.0465  0.4842 -0.0174
 9124TIP3    H127313   5.583   4.639   6.331 -0.0464  0.7180 -0.3162
 9124TIP3    H227314   5.440   4.668   6.290 -0.2038  0.7115  0.2194
 9125TIP3   OH227315   2.221   7.363   1.936  0.1191  0.2644  0.5031
 9125TIP3    H127316   2.152   7.395   1.879  1.2551  0.0627 -1.0701
 9125TIP3    H227317   2.263   7.442   1.970 -0.3856  0.3901  0.8399
 9126TIP3   OH227318   7.029   6.874   0.260  0.3038  0.1825  0.0994
 9126TIP3    H127319   7.024   6.814   0.335  1.7235  0.9696  0.8872
 9126TIP3    H227320   7.123   6.889   0.249  0.2307 -0.9006 -2.7052
 9127TIP3   OH227321   1.386   5.144   1.150 -0.2560 -0.1963 -0.3942
 9127TIP3    H127322   1.327   5.089   1.201 -1.0306 -0.4168 -1.4965
 9127TIP3    H227323   1.335   5.170   1.073  0.8040  0.2942 -0.9587
 9128TIP3   OH227324   3.480   6.304   0.133  0.4545 -0.7548 -0.1172
 9128TIP3    H127325   3.565   6.276   0.168  0.2486  0.7227  1.7326
 9128TIP3    H227326   3.416   6.247   0.175  0.2357  0.8167  1.8514
 9129TIP3   OH227327   4.543   3.398   3.159 -0.0491 -0.1783 -0.5804
 9129TIP3    H127328   4.485   3.461   3.202 -0.5571 -0.2208 -1.1952
 9129TIP3    H227329   4.631   3.435   3.169 -0.3695  0.7411 -1.1406
 9130TIP3   OH227330   7.611   7.370   3.185  0.3558  0.0687 -0.1503
 9130TIP3    H127331   7.611   7.372   3.280 -1.2334  0.1693 -0.1287
 9130TIP3    H227332   7.700   7.397   3.160  0.7738  0.0735  1.2799
 9131TIP3   OH227333   6.382   7.063   0.723  0.4609  0.2909  0.2469
 9131TIP3    H127334   6.464   7.112   0.718  0.2559  0.7219  0.9693
 9131TIP3    H227335   6.316   7.124   0.689  0.4488 -0.1031 -0.4614
 9132TIP3   OH227336   4.865   0.812   6.779  0.2375  0.3494 -0.1363
 9132TIP3    H127337   4.805   0.767   6.837  0.8012  0.5770  0.6436
 9132TIP3    H227338   4.809   0.862   6.720 -0.3807 -1.0572 -0.7695
 9133TIP3   OH227339   0.770   7.499   0.172 -0.1177 -0.3741 -0.0851
 9133TIP3    H127340   0.806   7.583   0.143  0.4920 -0.5147  0.2486
 9133TIP3    H227341   0.754   7.510   0.266  0.4929 -0.8087  0.0751
 9134TIP3   OH227342   1.315   3.970   0.861  0.3232  0.0061 -0.2674
 9134TIP3    H127343   1.353   4.050   0.897  0.4739  0.4877 -1.4656
 9134TIP3    H227344   1.390   3.912   0.846  0.1325 -0.7780  1.5100
 9135TIP3   OH227345   0.782   0.970   5.730  0.0980  0.6078  0.4916
 9135TIP3    H127346   0.809   0.983   5.639 -0.7312  1.7204  0.3887
 9135TIP3    H227347   0.688   0.988   5.731 -0.3519 -1.5294  1.1729
 9136TIP3   OH227348   0.596   3.035   0.553 -0.6224  0.1392 -0.7538
 9136TIP3    H127349   0.659   3.100   0.584  1.0717 -1.4001 -0.7941
 9136TIP3    H227350   0.510   3.077   0.564  0.2049  1.3649  1.7320
 9137TIP3   OH227351   2.166   4.715   0.387  0.0333 -0.2934  0.0256
 9137TIP3    H127352   2.142   4.625   0.365  1.9053 -0.6828 -0.5575
 9137TIP3    H227353   2.116   4.768   0.325  0.0870 -1.0242 -0.6637
 9138TIP3   OH227354   0.847   5.711   6.122 -0.4863 -0.8455  0.1419
 9138TIP3    H127355   0.834   5.651   6.049  0.3157 -1.4309  0.4670
 9138TIP3    H227356   0.762   5.755   6.133 -0.7798 -1.1708 -0.7578
 9139TIP3   OH227357   6.553   3.080   5.858  0.1873  0.0428 -0.8918
 9139TIP3    H127358   6.466   3.042   5.844  0.2193 -0.4446  0.1128
 9139TIP3    H227359   6.579   3.049   5.945  0.7042  1.4470 -0.5183
 9140TIP3   OH227360   1.183   7.268   4.657 -0.3803  0.7964 -0.0715
 9140TIP3    H127361   1.119   7.297   4.722  0.6773  0.9487  0.9152
 9140TIP3    H227362   1.213   7.183   4.689 -0.1007  0.7145 -0.5451
 9141TIP3   OH227363   5.229   5.081   3.376  0.2281  0.1152  0.6266
 9141TIP3    H127364   5.244   4.992   3.345  0.7578  0.0033  1.1830
 9141TIP3    H227365   5.150   5.076   3.429  0.8209 -0.2415  1.5006
 9142TIP3   OH227366   7.983   3.609   3.694 -0.4924  0.8908  0.6168
 9142TIP3    H127367   8.061   3.653   3.727  0.0581 -0.3506  1.0050
 9142TIP3    H227368   7.939   3.675   3.640  1.5007  1.2184 -0.7042
 9143TIP3   OH227369   6.743   2.777   1.688  0.0996 -0.1172  0.2246
 9143TIP3    H127370   6.726   2.693   1.647 -0.4055  1.2091 -2.4878
 9143TIP3    H227371   6.839   2.782   1.694  0.3346  0.2789 -2.4780
 9144TIP3   OH227372   5.773   4.397   2.782 -0.3073 -0.2033 -0.1525
 9144TIP3    H127373   5.690   4.444   2.778 -0.9765 -1.3901 -0.5771
 9144TIP3    H227374   5.808   4.401   2.693  0.3865  0.7636  0.1403
 9145TIP3   OH227375   4.743   5.778   3.281  0.1952 -0.4867 -0.1253
 9145TIP3    H127376   4.714   5.855   3.232 -0.5827 -0.6978 -0.0115
 9145TIP3    H227377   4.795   5.813   3.353  0.9803 -0.1488 -0.8360
 9146TIP3   OH227378   7.773   4.618   0.449 -0.1466  0.3398  0.1438
 9146TIP3    H127379   7.765   4.661   0.534  1.5848  1.5306 -0.2458
 9146TIP3    H227380   7.689   4.635   0.406 -0.7785  0.3150  1.3221
 9147TIP3   OH227381   5.825   5.422   6.138 -0.1835  0.4639 -0.4762
 9147TIP3    H127382   5.833   5.385   6.226  0.0546  1.1025 -0.2237
 9147TIP3    H227383   5.858   5.353   6.080  0.1708  0.2396 -0.0189
 9148TIP3   OH227384   5.826   2.275   1.763  0.6200 -0.1877  0.3336
 9148TIP3    H127385   5.879   2.216   1.710 -0.2038  0.2294 -0.9871
 9148TIP3    H227386   5.822   2.356   1.713  0.2289  0.3857  1.2671
 9149TIP3   OH227387   5.007   5.363   2.701 -0.4161  0.5295  0.7291
 9149TIP3    H127388   5.004   5.328   2.612  0.6830 -0.2358  0.9688
 9149TIP3    H227389   5.039   5.453   2.690  1.2904 -0.0702  0.4361
 9150TIP3   OH227390   3.678   0.444   2.841  0.8701 -0.0665  0.2357
 9150TIP3    H127391   3.702   0.400   2.759 -0.1199  0.4655 -0.3579
 9150TIP3    H227392   3.698   0.536   2.826 -0.9381  0.3066 -0.0745
 9151TIP3   OH227393   8.284   1.394   4.420 -0.0287 -0.2371  0.3923
 9151TIP3    H127394   8.319   1.426   4.337  1.1596 -2.0063  0.1768
 9151TIP3    H227395   8.189   1.392   4.407 -0.1213  2.1994  0.1063
 9152TIP3   OH227396   1.243   3.558   4.117 -0.4623 -0.8506  0.3445
 9152TIP3    H127397   1.158   3.542   4.076 -0.8230  1.1085  0.2445
 9152TIP3    H227398   1.301   3.580   4.044 -0.6569  0.8362  0.6604
 9153TIP3   OH227399   3.635   0.429   1.743 -0.4896  0.4436 -0.1026
 9153TIP3    H127400   3.689   0.495   1.701 -0.0689 -0.7542 -1.5380
 9153TIP3    H227401   3.605   0.373   1.672 -0.2809 -1.3170  1.1139
 9154TIP3   OH227402   8.012   6.247   4.797 -0.2397 -0.1312 -0.2981
 9154TIP3    H127403   7.945   6.217   4.857  0.8500 -1.1747  0.4524
 9154TIP3    H227404   8.057   6.318   4.844 -0.4714  0.2027 -0.5780
 9155TIP3   OH227405   1.805   3.761   1.678 -0.2989  0.0493 -0.3072
 9155TIP3    H127406   1.743   3.785   1.609 -0.7427  1.5623  0.5982
 9155TIP3    H227407   1.753   3.708   1.739  0.2471 -1.8539 -1.3824
 9156TIP3   OH227408   4.551   3.498   0.596 -0.2295  0.3297  0.1965
 9156TIP3    H127409   4.551   3.411   0.634 -0.5389 -0.9717 -2.5755
 9156TIP3    H227410   4.570   3.556   0.669  0.6305 -2.0961  2.0117
 9157TIP3   OH227411   7.162   3.861   6.621 -0.6910 -0.6341  0.0534
 9157TIP3    H127412   7.115   3.939   6.651 -0.5622 -0.8217  0.7602
 9157TIP3    H227413   7.213   3.891   6.546 -1.0372 -0.1607 -0.0023
 9158TIP3   OH227414   4.878   3.130   6.410 -0.0228  0.0872 -0.4131
 9158TIP3    H127415   4.884   3.187   6.486 -0.1546  0.6409 -0.8069
 9158TIP3    H227416   4.870   3.190   6.336  0.2188 -0.4386 -0.8741
 9159TIP3   OH227417   0.407   3.861   2.434 -0.2211  0.2658 -0.4924
 9159TIP3    H127418   0.391   3.770   2.461  0.4292  0.3637  0.2350
 9159TIP3    H227419   0.436   3.905   2.514 -1.4998  1.3622 -0.6105
 9160TIP3   OH227420   3.001   0.421   1.879  0.3522  0.2306  0.3847
 9160TIP3    H127421   3.023   0.344   1.931 -0.1311 -1.0600 -1.2479
 9160TIP3    H227422   3.071   0.427   1.813 -0.3768  0.3119 -0.3980
 9161TIP3   OH227423   0.389   6.033   5.483 -0.4305 -0.1842  0.8895
 9161TIP3    H127424   0.359   6.025   5.573 -0.9277 -0.3761  0.7133
 9161TIP3    H227425   0.476   5.994   5.482 -0.8446 -1.1392  1.0703
 9162TIP3   OH227426   7.954   3.543   5.961 -0.2476  0.5390 -0.3962
 9162TIP3    H127427   7.984   3.624   5.919  2.2312 -1.5815 -3.2069
 9162TIP3    H227428   7.875   3.519   5.912  0.6100 -0.0816 -1.5423
 9163TIP3   OH227429   6.656   0.414   3.815 -0.4289  0.3776 -0.3339
 9163TIP3    H127430   6.590   0.447   3.876 -1.5831  0.0771 -1.3766
 9163TIP3    H227431   6.618   0.430   3.728  0.4184 -0.7486 -0.9378
 9164TIP3   OH227432   3.669   3.846   3.120 -0.3497 -0.7478 -0.0370
 9164TIP3    H127433   3.617   3.809   3.191 -1.4564  0.4141 -0.2167
 9164TIP3    H227434   3.694   3.770   3.067 -1.0527 -1.4282  0.5805
 9165TIP3   OH227435   0.428   2.630   3.552  0.0088  0.0338 -0.0133
 9165TIP3    H127436   0.423   2.714   3.507  0.5576  0.6863  1.0903
 9165TIP3    H227437   0.456   2.568   3.485 -2.2823  0.3160 -1.3166
 9166TIP3   OH227438   3.482   0.307   5.392  0.2186 -0.3489  0.2922
 9166TIP3    H127439   3.405   0.256   5.417 -0.2640  0.6584  0.9277
 9166TIP3    H227440   3.510   0.349   5.473 -0.5849  1.9605 -0.5502
 9167TIP3   OH227441   6.361   7.537   1.912 -0.3381 -0.2661 -0.3338
 9167TIP3    H127442   6.293   7.552   1.847 -1.5748 -0.7022  0.8276
 9167TIP3    H227443   6.329   7.579   1.991 -0.0368 -1.8668  0.6840
 9168TIP3   OH227444   0.386   6.626   4.932  0.5045 -0.2451  0.3466
 9168TIP3    H127445   0.459   6.565   4.922  1.0490  0.4341  0.1364
 9168TIP3    H227446   0.313   6.570   4.958  0.9576 -1.0107  0.0408
 9169TIP3   OH227447   3.094   6.709   1.207 -0.0382  0.4948 -1.1685
 9169TIP3    H127448   3.145   6.757   1.272 -1.2330 -1.6126  1.5644
 9169TIP3    H227449   3.005   6.709   1.242 -0.3756 -2.3602 -1.7494
 9170TIP3   OH227450   7.495   5.476   3.328 -0.2054  0.2398 -0.1731
 9170TIP3    H127451   7.557   5.404   3.341 -0.7597 -0.3754 -0.8697
 9170TIP3    H227452   7.425   5.458   3.391 -0.6828 -0.2283 -0.8258
 9171TIP3   OH227453   5.158   6.382   4.717  0.1129  0.2801  0.1644
 9171TIP3    H127454   5.108   6.390   4.635  0.1367 -0.5703  0.0661
 9171TIP3    H227455   5.105   6.430   4.781  1.4294  3.4105 -0.8796
 9172TIP3   OH227456   3.372   0.612   6.241  0.1362 -0.4914 -0.0052
 9172TIP3    H127457   3.463   0.616   6.271  0.4220 -1.6365 -0.6529
 9172TIP3    H227458   3.377   0.564   6.158 -0.9370  0.3461 -0.5769
 9173TIP3   OH227459   7.447   7.556   2.109  0.0574 -0.1553 -0.4256
 9173TIP3    H127460   7.516   7.501   2.146  0.7495 -0.2944 -1.8771
 9173TIP3    H227461   7.439   7.527   2.018 -1.2763  0.4937 -0.5374
 9174TIP3   OH227462   0.605   7.284   4.067  0.1831 -0.1095  0.0505
 9174TIP3    H127463   0.567   7.371   4.063 -1.3299 -0.6492  1.5614
 9174TIP3    H227464   0.681   7.293   4.125  2.3222  0.8858 -2.6640
 9175TIP3   OH227465   0.489   5.342   4.900  0.4092 -0.0908  0.3686
 9175TIP3    H127466   0.549   5.316   4.830  0.6461  0.6689  0.2807
 9175TIP3    H227467   0.533   5.313   4.980  1.3940  1.3521  0.3779
 9176TIP3   OH227468   1.511   0.365   3.390  0.2404  0.3253  0.8761
 9176TIP3    H127469   1.515   0.460   3.393 -0.8693  0.4788 -0.9807
 9176TIP3    H227470   1.441   0.342   3.451  0.6690  0.6667  1.5058
 9177TIP3   OH227471   8.077   4.254   4.492 -0.1781  0.3980  0.2877
 9177TIP3    H127472   8.071   4.204   4.411 -1.0891  0.9885 -0.0214
 9177TIP3    H227473   8.129   4.198   4.551 -0.0783 -0.3276 -0.4719
 9178TIP3   OH227474   5.582   4.130   5.502 -0.0235 -0.6058 -0.2456
 9178TIP3    H127475   5.494   4.167   5.498  0.1542 -0.0784  0.4857
 9178TIP3    H227476   5.607   4.138   5.594  0.9411 -0.4023 -0.5140
 9179TIP3   OH227477   1.840   6.287   3.285  0.3381 -0.3009  0.1170
 9179TIP3    H127478   1.798   6.371   3.270 -0.6674 -0.5682  1.2209
 9179TIP3    H227479   1.884   6.296   3.370  0.6022 -0.7421  0.0351
 9180TIP3   OH227480   1.975   4.069   3.967  1.0045 -0.6318 -0.0618
 9180TIP3    H127481   1.906   4.003   3.963  1.6183 -1.2392 -1.3179
 9180TIP3    H227482   1.931   4.151   3.945  0.1885 -0.5328  1.7324
 9181TIP3   OH227483   3.752   6.369   1.361  0.1013  0.2763 -0.0304
 9181TIP3    H127484   3.705   6.451   1.350 -2.4101 -1.1697 -0.8283
 9181TIP3    H227485   3.781   6.345   1.273 -0.2341 -0.2892  0.0125
 9182TIP3   OH227486   5.209   2.675   0.881 -0.8227  0.1406  0.4480
 9182TIP3    H127487   5.235   2.757   0.924 -0.0428 -0.2987  0.8298
 9182TIP3    H227488   5.205   2.611   0.953  1.5051 -0.8508 -0.2196
 9183TIP3   OH227489   5.574   0.813   1.244 -0.2596  0.0420  0.2668
 9183TIP3    H127490   5.548   0.876   1.176  0.9148 -1.9050 -2.1482
 9183TIP3    H227491   5.670   0.810   1.237 -0.2486 -1.5245  0.7401
 9184TIP3   OH227492   7.864   5.903   6.686 -0.4654 -1.0336 -0.0113
 9184TIP3    H127493   7.804   5.844   6.731 -2.1677 -0.2446 -1.1618
 9184TIP3    H227494   7.850   5.886   6.593  3.1793 -2.8399 -0.4169
 9185TIP3   OH227495   5.356   0.670   1.099 -0.0328 -0.0268  0.2435
 9185TIP3    H127496   5.432   0.707   1.143  0.1683 -0.3229  0.1463
 9185TIP3    H227497   5.359   0.577   1.120 -2.1807  0.4122  2.9712
 9186TIP3   OH227498   0.288   2.148   1.174 -0.1372 -0.1733  0.4862
 9186TIP3    H127499   0.304   2.117   1.085  1.2081 -2.1341  1.3303
 9186TIP3    H227500   0.213   2.097   1.204  1.1155 -1.5969  1.3550
 9187TIP3   OH227501   3.057   0.983   4.933  0.7221  0.4816 -0.7850
 9187TIP3    H127502   3.065   0.942   4.846  2.6039 -1.2431  0.1205
 9187TIP3    H227503   3.140   1.027   4.946  0.6622  0.2740  0.3588
 9188TIP3   OH227504   1.736   3.659   6.404  0.2057  0.5213 -0.0607
 9188TIP3    H127505   1.687   3.676   6.484  0.0397  0.1609 -0.0814
 9188TIP3    H227506   1.742   3.744   6.360  0.0605  0.6662  0.1994
 9189TIP3   OH227507   5.118   0.653   0.472 -0.1337  0.3867  0.7241
 9189TIP3    H127508   5.060   0.668   0.397 -1.1987 -1.5641  1.0979
 9189TIP3    H227509   5.155   0.739   0.491  0.2810  0.9176 -2.1034
 9190TIP3   OH227510   4.832   3.685   1.945 -0.0799 -0.0501  0.0563
 9190TIP3    H127511   4.882   3.677   2.027  1.2523  0.2696 -0.6883
 9190TIP3    H227512   4.830   3.779   1.927 -0.5191 -0.1035 -0.1948
 9191TIP3   OH227513   6.467   2.558   4.138  0.0887  0.1416  0.0902
 9191TIP3    H127514   6.411   2.636   4.144  0.3958  0.3501  0.2829
 9191TIP3    H227515   6.497   2.558   4.047 -1.4671 -0.8498 -0.4555
 9192TIP3   OH227516   2.810   7.719   1.225  0.6510 -0.0485  0.0337
 9192TIP3    H127517   2.818   7.624   1.225  0.7085 -0.0663  1.3729
 9192TIP3    H227518   2.752   7.738   1.152 -0.3794 -1.2186  0.5061
 9193TIP3   OH227519   1.845   1.185   4.328  0.5299  0.2071  0.1051
 9193TIP3    H127520   1.796   1.163   4.249  1.2324 -1.9153  0.1712
 9193TIP3    H227521   1.809   1.127   4.395  2.2454 -0.5311  0.4500
 9194TIP3   OH227522   1.754   6.122   3.593 -0.3374 -0.1345 -0.2078
 9194TIP3    H127523   1.694   6.087   3.526  0.2759 -1.4989 -0.0878
 9194TIP3    H227524   1.707   6.111   3.675 -0.1298 -0.7711 -0.1651
 9195TIP3   OH227525   4.701   5.248   4.948  0.1527 -0.8260 -0.2286
 9195TIP3    H127526   4.719   5.155   4.965  1.1281 -0.7792 -0.9214
 9195TIP3    H227527   4.615   5.263   4.986  0.4866 -1.7249  0.9401
 9196TIP3   OH227528   5.067   1.858   3.566 -0.0232  0.4218 -0.2156
 9196TIP3    H127529   5.002   1.836   3.633 -0.3400  1.9914  0.0185
 9196TIP3    H227530   5.017   1.905   3.499  0.5590  0.0966 -0.8885
 9197TIP3   OH227531   4.875   6.622   0.127 -0.4775 -0.5621 -0.5201
 9197TIP3    H127532   4.875   6.659   0.215 -0.8306 -0.1156 -0.6971
 9197TIP3    H227533   4.820   6.683   0.076 -0.8458 -1.1860 -0.8851
 9198TIP3   OH227534   6.463   5.345   3.789  0.0765  0.1800 -0.1329
 9198TIP3    H127535   6.382   5.316   3.747  1.5000 -2.4141 -1.3763
 9198TIP3    H227536   6.527   5.346   3.717  1.4253  0.9988  1.0315
 9199TIP3   OH227537   0.431   0.599   6.095  0.0613 -0.0450 -0.0925
 9199TIP3    H127538   0.480   0.677   6.068 -0.1208  0.5319  1.1525
 9199TIP3    H227539   0.393   0.623   6.180 -1.8648 -0.6863 -0.7101
 9200TIP3   OH227540   4.248   4.738   3.824 -0.4407  0.6959  0.2231
 9200TIP3    H127541   4.273   4.731   3.916 -2.4383 -0.1680  0.7747
 9200TIP3    H227542   4.152   4.744   3.826 -0.5045  1.0982 -1.7858
 9201TIP3   OH227543   6.398   3.426   4.115  0.6609 -0.2920 -0.2241
 9201TIP3    H127544   6.442   3.507   4.141 -0.2829 -0.2828  1.4992
 9201TIP3    H227545   6.435   3.405   4.029  0.2087  2.5194 -1.2199
 9202TIP3   OH227546   5.043   3.009   3.410  0.1086 -0.0824 -0.2848
 9202TIP3    H127547   4.967   3.023   3.467 -0.2740  2.2293 -1.2677
 9202TIP3    H227548   5.020   2.930   3.360 -0.9200 -0.3522  0.5658
 9203TIP3   OH227549   4.718   7.023   5.709  0.5931 -0.0429  0.5949
 9203TIP3    H127550   4.705   6.934   5.742 -0.7321  0.6698  2.1274
 9203TIP3    H227551   4.662   7.029   5.632  1.2695 -0.7476  0.0322
 9204TIP3   OH227552   6.474   4.159   6.516  0.4632  0.3813 -0.3736
 9204TIP3    H127553   6.528   4.147   6.438  1.0854  1.0682 -0.0512
 9204TIP3    H227554   6.393   4.112   6.495  0.5909  0.6089 -1.4597
 9205TIP3   OH227555   5.019   6.042   1.640 -0.1379 -0.9409 -0.3677
 9205TIP3    H127556   5.072   5.969   1.609  0.6297 -0.3899 -0.3604
 9205TIP3    H227557   5.079   6.096   1.692 -0.6714 -0.2518 -0.4437
 9206TIP3   OH227558   5.540   3.716   5.111 -0.4650  0.3489  0.2317
 9206TIP3    H127559   5.465   3.721   5.052  0.3898 -1.2241 -1.0624
 9206TIP3    H227560   5.509   3.662   5.184 -1.4838  2.1952  1.2557
 9207TIP3   OH227561   6.114   6.783   4.045  0.1815 -0.1379  0.6729
 9207TIP3    H127562   6.047   6.846   4.072  0.0413 -0.6254  1.4999
 9207TIP3    H227563   6.078   6.698   4.070 -0.0501 -0.6575 -1.2859
 9208TIP3   OH227564   3.020   2.214   6.763 -0.2705 -0.2056  0.1665
 9208TIP3    H127565   3.012   2.136   6.708  2.0651 -1.5333  1.5801
 9208TIP3    H227566   2.958   2.199   6.835  1.6425 -1.8641  1.5641
 9209TIP3   OH227567   7.371   3.442   1.525 -0.0826 -0.7947 -0.6600
 9209TIP3    H127568   7.363   3.496   1.447 -1.9970  0.7291  0.5053
 9209TIP3    H227569   7.420   3.365   1.496  1.0981  0.6721 -2.8349
 9210TIP3   OH227570   6.198   6.830   3.203 -0.5539 -0.0786  0.1149
 9210TIP3    H127571   6.110   6.794   3.194 -1.3785  1.8332  0.2080
 9210TIP3    H227572   6.256   6.756   3.185 -2.1353 -1.8916  1.9586
 9211TIP3   OH227573   4.321   6.948   5.969 -0.0145  0.1976 -0.3811
 9211TIP3    H127574   4.238   6.950   5.921  0.2579 -0.3454 -0.8832
 9211TIP3    H227575   4.374   7.016   5.926 -0.4478  1.0623  0.4174
 9212TIP3   OH227576   7.988   4.828   0.474 -0.0017 -0.2002 -0.2132
 9212TIP3    H127577   7.924   4.826   0.402 -1.3870 -0.9927  0.9836
 9212TIP3    H227578   8.017   4.919   0.477 -1.2689  0.2511 -0.6416
 9213TIP3   OH227579   0.566   6.951   6.627 -0.0340  0.1525  0.3112
 9213TIP3    H127580   0.563   6.924   6.719 -0.0169 -1.1680 -0.0503
 9213TIP3    H227581   0.501   7.021   6.620  1.0779  1.3725  1.6469
 9214TIP3   OH227582   1.584   5.581   2.652 -0.1751 -0.7883  0.0940
 9214TIP3    H127583   1.662   5.628   2.682  0.5305 -1.6430 -0.3561
 9214TIP3    H227584   1.522   5.587   2.725 -0.3436  1.3198 -0.1521
 9215TIP3   OH227585   1.559   2.661   3.120 -0.5096  0.0816 -0.6560
 9215TIP3    H127586   1.578   2.574   3.154  0.4836  0.6130  0.2090
 9215TIP3    H227587   1.465   2.661   3.106 -0.9418 -0.2987  1.7875
 9216TIP3   OH227588   0.265   1.614   4.715  0.1607  0.1318 -0.1504
 9216TIP3    H127589   0.274   1.676   4.642 -0.2060  2.2148  1.4920
 9216TIP3    H227590   0.346   1.623   4.764  0.2618 -1.0149 -0.0728
 9217TIP3   OH227591   7.020   7.413   4.954 -0.1501  0.2290 -0.2957
 9217TIP3    H127592   7.085   7.348   4.980 -0.3960 -0.0502 -0.3869
 9217TIP3    H227593   7.072   7.490   4.929  0.1759 -0.2825 -1.1928
 9218TIP3   OH227594   0.267   6.886   3.890  0.2132  0.0752 -0.0598
 9218TIP3    H127595   0.199   6.887   3.957  1.0525  1.8681  0.8425
 9218TIP3    H227596   0.305   6.974   3.893  4.3787 -1.4995  1.4258
 9219TIP3   OH227597   4.936   0.894   0.374  0.1682  0.1982  0.0503
 9219TIP3    H127598   4.894   0.980   0.369 -1.0077 -0.1540  2.5084
 9219TIP3    H227599   4.864   0.832   0.387  1.1069 -1.0164 -0.2913
 9220TIP3   OH227600   1.659   1.960   4.336 -0.2015 -0.7605 -0.2759
 9220TIP3    H127601   1.610   2.012   4.400  0.8974 -0.4794  0.3748
 9220TIP3    H227602   1.724   1.912   4.389  1.8531  0.7419 -1.2937
 9221TIP3   OH227603   5.410   1.651   6.673 -0.2003 -0.2464 -0.1125
 9221TIP3    H127604   5.366   1.639   6.589 -2.5379  2.7870  0.5149
 9221TIP3    H227605   5.345   1.625   6.738  0.4091  0.4623  0.8026
 9222TIP3   OH227606   4.312   0.301   5.390  0.3629  0.1748  0.1381
 9222TIP3    H127607   4.220   0.305   5.364  0.6366  0.3521 -0.8868
 9222TIP3    H227608   4.358   0.351   5.321  1.2252  0.0299  0.5934
 9223TIP3   OH227609   3.773   0.579   6.806  0.3209 -0.6315  0.0525
 9223TIP3    H127610   3.724   0.520   6.863  2.2079  0.0338  2.5732
 9223TIP3    H227611   3.839   0.524   6.765  1.8400 -0.4939  2.1143
 9224TIP3   OH227612   0.110   3.668   0.554 -0.2051 -0.2189  0.5215
 9224TIP3    H127613   0.030   3.721   0.550  0.4247  0.7993  1.0145
 9224TIP3    H227614   0.157   3.702   0.630  1.8082  0.8012 -1.0955
 9225TIP3   OH227615   0.517   2.214   2.949 -0.6546  0.1443  0.1949
 9225TIP3    H127616   0.591   2.165   2.985 -0.5598  1.5457  2.0077
 9225TIP3    H227617   0.491   2.164   2.871  0.7220 -1.6301  0.8133
 9226TIP3   OH227618   0.963   3.823   3.551 -0.5114 -0.3965 -0.4674
 9226TIP3    H127619   0.969   3.739   3.506 -0.1888 -0.5475 -0.1491
 9226TIP3    H227620   0.939   3.885   3.482  2.2969 -0.1986 -1.3981
 9227TIP3   OH227621   0.603   6.421   5.214  0.0061  0.2413  0.0916
 9227TIP3    H127622   0.590   6.327   5.205 -0.7797  0.3161  0.2902
 9227TIP3    H227623   0.564   6.458   5.135 -1.8460  0.5324  1.0660
 9228TIP3   OH227624   8.357   4.089   6.707 -0.1357  0.0560 -0.3105
 9228TIP3    H127625   8.292   4.149   6.670  0.2304  0.3536 -0.4851
 9228TIP3    H227626   8.438   4.112   6.661 -0.0238 -0.6821 -0.4900
 9229TIP3   OH227627   3.452   2.184   6.171  0.0927 -0.3996 -0.2643
 9229TIP3    H127628   3.524   2.244   6.187 -0.3093  0.1471 -0.4722
 9229TIP3    H227629   3.408   2.219   6.093  0.5677 -1.6453 -1.1250
 9230TIP3   OH227630   7.656   5.025   0.752  0.2965  0.1756 -0.0425
 9230TIP3    H127631   7.634   5.100   0.808  1.6813  1.0736 -0.6553
 9230TIP3    H227632   7.578   5.013   0.697 -0.6680 -0.0571  1.3205
 9231TIP3   OH227633   1.006   1.837   4.881 -0.1757  0.5142 -0.0379
 9231TIP3    H127634   1.043   1.894   4.948 -1.2314  0.6815  0.4088
 9231TIP3    H227635   1.069   1.765   4.874 -0.7355 -0.2662  2.1877
 9232TIP3   OH227636   1.834   3.220   6.696  0.1514  0.2870 -0.0131
 9232TIP3    H127637   1.857   3.222   6.603 -0.4731  2.4744 -0.1680
 9232TIP3    H227638   1.739   3.217   6.698  0.1626  0.1052  0.5598
 9233TIP3   OH227639   8.377   5.159   6.114 -0.0768  0.2965  0.1504
 9233TIP3    H127640   8.322   5.101   6.167 -1.7696  0.1194 -1.7064
 9233TIP3    H227641   8.454   5.174   6.169 -0.3329 -2.3273  1.4012
 9234TIP3   OH227642   5.601   5.310   5.950  0.2706  0.0872  0.5326
 9234TIP3    H127643   5.633   5.348   6.032  1.3809  1.5065 -0.5071
 9234TIP3    H227644   5.680   5.273   5.909 -0.2139 -0.3467 -0.0148
 9235TIP3   OH227645   2.677   4.564   5.269  0.0004 -0.5224  0.4705
 9235TIP3    H127646   2.768   4.585   5.292 -0.0687  1.6070 -0.8203
 9235TIP3    H227647   2.682   4.534   5.178 -0.5014 -1.2682  0.6822
 9236TIP3   OH227648   0.098   0.268   3.153  0.4321  0.3756  0.0258
 9236TIP3    H127649   0.048   0.251   3.232  0.4882  1.5434  0.3374
 9236TIP3    H227650   0.181   0.303   3.184  0.9575 -0.3486 -0.5238
 9237TIP3   OH227651   7.270   1.632   1.209 -0.2724  0.5271 -0.4091
 9237TIP3    H127652   7.276   1.667   1.297  1.0136  1.3614 -0.8060
 9237TIP3    H227653   7.222   1.700   1.160 -1.8062 -0.3449 -0.1684
 9238TIP3   OH227654   5.144   5.603   4.545 -0.1985 -0.1155 -0.4415
 9238TIP3    H127655   5.078   5.538   4.520  0.4313 -0.6633 -0.7013
 9238TIP3    H227656   5.113   5.636   4.629 -0.6138 -0.6399 -0.3779
 9239TIP3   OH227657   7.937   5.226   5.922  0.0516 -0.1844  0.5235
 9239TIP3    H127658   8.029   5.239   5.898 -0.2049 -0.9227 -0.9326
 9239TIP3    H227659   7.915   5.141   5.886 -0.9200 -0.5136  1.8157
 9240TIP3   OH227660   4.450   4.511   5.258 -0.5816  0.3747  0.1945
 9240TIP3    H127661   4.497   4.555   5.187 -1.7956  3.9497  1.4145
 9240TIP3    H227662   4.490   4.544   5.338 -3.6669  2.0052  1.2347
 9241TIP3   OH227663   7.625   0.726   5.716  0.2989  0.5444  0.2479
 9241TIP3    H127664   7.584   0.797   5.667  0.0737  0.0343 -0.3226
 9241TIP3    H227665   7.671   0.769   5.787 -0.4829  1.2002  0.3675
 9242TIP3   OH227666   5.659   6.013   4.000  0.0526 -0.2130  0.3403
 9242TIP3    H127667   5.723   6.084   3.997 -1.6022  1.3356 -1.0037
 9242TIP3    H227668   5.627   6.014   4.090  0.5730  0.2534  0.5297
 9243TIP3   OH227669   7.444   6.414   3.517  0.1123  0.1508  0.0837
 9243TIP3    H127670   7.391   6.352   3.567 -1.5043  0.1779 -1.4901
 9243TIP3    H227671   7.515   6.439   3.576  0.3947 -2.5964  1.0305
 9244TIP3   OH227672   4.568   7.498   4.105 -0.5278  0.4638 -0.2230
 9244TIP3    H127673   4.628   7.468   4.036 -0.1082 -0.4272  0.4965
 9244TIP3    H227674   4.535   7.582   4.074  1.0988  0.9757 -0.6419
 9245TIP3   OH227675   4.761   0.125   5.169 -0.5253 -0.2140 -0.3177
 9245TIP3    H127676   4.681   0.083   5.199 -0.3647 -1.0092 -0.9974
 9245TIP3    H227677   4.831   0.063   5.189 -0.0541  0.5049  0.3456
 9246TIP3   OH227678   2.608   2.020   2.270  0.2376 -0.4373 -0.3059
 9246TIP3    H127679   2.517   2.041   2.290  0.2982 -1.3388  1.0213
 9246TIP3    H227680   2.604   1.974   2.186 -0.6862 -1.5883  0.3449
 9247TIP3   OH227681   5.471   1.654   2.338  0.0043  0.4354  0.2745
 9247TIP3    H127682   5.472   1.747   2.313  0.3440  0.0180 -1.4100
 9247TIP3    H227683   5.563   1.628   2.332 -0.1813 -0.1727  0.0393
 9248TIP3   OH227684   6.711   3.476   2.889 -0.1815 -0.5084 -0.2449
 9248TIP3    H127685   6.773   3.532   2.936 -0.3153 -0.3202 -0.2919
 9248TIP3    H227686   6.712   3.509   2.799  0.8760 -1.5381 -0.6437
 9249TIP3   OH227687   0.315   1.527   5.614 -0.5853  0.2631  0.5004
 9249TIP3    H127688   0.343   1.496   5.528 -1.0250 -1.2435  0.8695
 9249TIP3    H227689   0.220   1.525   5.612 -0.6888  2.8219  0.1494
 9250TIP3   OH227690   3.495   7.035   3.130  0.1757  0.0801  0.1688
 9250TIP3    H127691   3.539   7.063   3.211 -0.1986  0.5694  0.2126
 9250TIP3    H227692   3.547   7.075   3.060 -0.4257  1.0205  0.2357
 9251TIP3   OH227693   1.434   1.408   6.672 -0.2481  0.2158  0.0693
 9251TIP3    H127694   1.426   1.314   6.692  0.0826  0.2506  0.3648
 9251TIP3    H227695   1.510   1.437   6.722  0.3799  0.3898 -0.9574
 9252TIP3   OH227696   7.146   7.768   0.012 -0.3561  0.3902  0.3241
 9252TIP3    H127697   7.148   7.678   0.043 -0.2778  0.9652  2.0914
 9252TIP3    H227698   7.061   7.802   0.042 -1.0736  0.4865 -1.6628
 9253TIP3   OH227699   6.279   6.422   1.974 -0.2450  0.0724 -0.3345
 9253TIP3    H127700   6.197   6.458   2.011  0.5251 -0.2237  1.8143
 9253TIP3    H227701   6.329   6.395   2.051  1.8392  0.1323 -1.6134
 9254TIP3   OH227702   7.114   0.231   3.143 -0.7184 -0.2006  0.1557
 9254TIP3    H127703   7.177   0.162   3.164 -3.3076 -2.3832  1.2709
 9254TIP3    H227704   7.068   0.247   3.225 -0.9387  2.1387 -0.3550
 9255TIP3   OH227705   5.704   7.174   6.523  0.6164  0.3056 -0.3903
 9255TIP3    H127706   5.673   7.187   6.434 -1.0653  2.7739  0.4381
 9255TIP3    H227707   5.736   7.260   6.550  1.8963 -0.5858  1.1435
 9256TIP3   OH227708   2.348   7.422   0.759 -0.3304  0.3202  0.3086
 9256TIP3    H127709   2.329   7.378   0.676 -0.8219  2.4911 -0.8207
 9256TIP3    H227710   2.432   7.465   0.744  0.9413 -1.4697  1.9497
 9257TIP3   OH227711   4.024   1.528   3.926  0.3779 -0.4206  0.3247
 9257TIP3    H127712   4.090   1.495   3.986 -0.0857  0.5426  1.4131
 9257TIP3    H227713   4.019   1.463   3.856 -0.3948 -2.5460  2.2590
 9258TIP3   OH227714   4.356   1.240   0.543  0.1966 -0.3414  0.6547
 9258TIP3    H127715   4.415   1.170   0.569  0.2405 -0.8571 -0.7486
 9258TIP3    H227716   4.408   1.320   0.550  0.5434 -0.5999  1.0312
 9259TIP3   OH227717   5.845   5.406   0.069  0.3229 -0.1363  0.7569
 9259TIP3    H127718   5.863   5.316   0.041  0.5550  0.1934 -0.2003
 9259TIP3    H227719   5.931   5.447   0.076  0.1909  0.1609  0.6766
 9260TIP3   OH227720   5.386   6.423   0.528 -0.0721 -0.1666 -0.0319
 9260TIP3    H127721   5.344   6.467   0.454  0.4224  0.5853  0.1163
 9260TIP3    H227722   5.390   6.331   0.503  2.8800  0.4418 -2.3837
 9261TIP3   OH227723   7.225   2.931   2.571 -0.4837 -0.1436 -0.6199
 9261TIP3    H127724   7.174   2.992   2.624 -0.7945  0.6626 -1.8127
 9261TIP3    H227725   7.203   2.845   2.606  0.0949  0.3902  1.2193
 9262TIP3   OH227726   0.897   3.980   3.323  0.2810 -0.8010 -0.5298
 9262TIP3    H127727   0.983   3.998   3.286  0.8151 -1.7658  0.1835
 9262TIP3    H227728   0.835   4.025   3.265  1.1385 -1.5075 -2.0263
 9263TIP3   OH227729   3.215   3.737   4.191 -0.4060 -0.0523  0.0006
 9263TIP3    H127730   3.172   3.687   4.122 -1.7660  0.1793  0.6373
 9263TIP3    H227731   3.148   3.799   4.221  0.1142 -0.1796  1.5533
 9264TIP3   OH227732   8.257   5.924   1.279 -0.4323  0.4905  0.1976
 9264TIP3    H127733   8.248   6.004   1.227  0.9966 -0.0827 -1.0306
 9264TIP3    H227734   8.208   5.858   1.230  0.3133  0.1100 -0.0590
 9265TIP3   OH227735   2.454   5.999   4.573 -0.0727 -0.1967  0.2670
 9265TIP3    H127736   2.380   5.942   4.594 -0.8071  0.3603 -0.6907
 9265TIP3    H227737   2.460   6.059   4.648 -0.1267 -0.7067  0.6826
 9266TIP3   OH227738   4.334   1.190   2.060  0.1883 -0.3574  0.0128
 9266TIP3    H127739   4.379   1.271   2.084 -2.8754  1.8357 -0.9352
 9266TIP3    H227740   4.313   1.201   1.967 -0.9688 -1.9008  0.0488
 9267TIP3   OH227741   6.598   6.035   6.781  0.7399 -0.5781  0.1272
 9267TIP3    H127742   6.594   5.958   6.838 -0.4739 -2.0529 -1.8656
 9267TIP3    H227743   6.507   6.052   6.757  1.2063  0.1094 -1.2318
 9268TIP3   OH227744   4.585   5.367   3.909  0.2360  0.5592  0.1808
 9268TIP3    H127745   4.495   5.334   3.917 -0.4142  2.2482  0.1638
 9268TIP3    H227746   4.576   5.462   3.911  1.8002  0.8301 -1.9443
 9269TIP3   OH227747   7.179   0.843   5.648 -0.1741  0.1875 -0.1628
 9269TIP3    H127748   7.083   0.844   5.650 -0.1830  0.4959 -0.5711
 9269TIP3    H227749   7.201   0.804   5.564  0.0768 -1.3589  0.5912
 9270TIP3   OH227750   0.337   7.516   5.379  0.4095  0.5524  0.3272
 9270TIP3    H127751   0.417   7.469   5.357  0.0760 -0.4080  1.1339
 9270TIP3    H227752   0.276   7.493   5.309  0.0282 -0.7908  1.0761
 9271TIP3   OH227753   5.066   3.030   2.313  0.2822 -0.0029  0.0258
 9271TIP3    H127754   5.083   3.079   2.233  0.4668 -0.7711 -0.4205
 9271TIP3    H227755   5.023   2.949   2.283 -0.6455  0.1886  0.8039
 9272TIP3   OH227756   1.215   3.918   5.807 -0.2195 -0.3189  0.7800
 9272TIP3    H127757   1.131   3.877   5.825 -0.1003 -0.4066  1.1341
 9272TIP3    H227758   1.197   3.978   5.734  0.0936 -2.7171 -1.4041
 9273TIP3   OH227759   5.473   0.809   5.084  0.2986  0.2480 -0.6185
 9273TIP3    H127760   5.484   0.744   5.154 -0.2639  0.5701 -0.2257
 9273TIP3    H227761   5.423   0.763   5.016  0.0592  0.2133 -0.4196
 9274TIP3   OH227762   3.012   1.408   3.602  0.1089 -0.6404 -0.4757
 9274TIP3    H127763   3.051   1.446   3.524 -0.1291  3.1551  1.0206
 9274TIP3    H227764   3.086   1.384   3.657  0.3305 -0.0350 -0.4994
 9275TIP3   OH227765   4.571   2.934   4.984  0.1305  0.3202  0.4972
 9275TIP3    H127766   4.584   2.889   4.901  0.6370 -0.2490  0.8727
 9275TIP3    H227767   4.659   2.941   5.021 -0.2615 -0.9646  1.7589
 9276TIP3   OH227768   3.980   3.259   5.761  0.2326 -0.3021 -0.4355
 9276TIP3    H127769   3.935   3.185   5.720 -0.3950 -0.0173 -0.2680
 9276TIP3    H227770   4.007   3.226   5.847  1.9573 -1.0512 -1.2106
 9277TIP3   OH227771   6.426   2.779   1.700  0.4892  0.2341 -0.1969
 9277TIP3    H127772   6.506   2.730   1.684  0.6766  0.6409 -0.5323
 9277TIP3    H227773   6.374   2.723   1.758  0.9433 -0.1013 -0.1110
 9278TIP3   OH227774   5.394   7.689   0.111  0.1289  0.0814  0.5834
 9278TIP3    H127775   5.408   7.745   0.035  0.0758  1.2259  1.3885
 9278TIP3    H227776   5.305   7.656   0.101 -0.3730  1.3096  0.8170
 9279TIP3   OH227777   2.512   5.387   3.468 -0.0086 -0.8038 -0.7887
 9279TIP3    H127778   2.464   5.470   3.465  0.7215 -0.3913 -2.0355
 9279TIP3    H227779   2.518   5.366   3.561 -0.5290  0.3619 -0.4678
 9280TIP3   OH227780   1.263   4.474   2.300 -1.1699 -0.1168  0.1689
 9280TIP3    H127781   1.339   4.531   2.305 -0.8327 -0.4827 -0.6048
 9280TIP3    H227782   1.251   4.442   2.390  1.0117 -1.8604 -0.0803
 9281TIP3   OH227783   1.600   2.355   4.931 -0.1114  0.0178  0.4387
 9281TIP3    H127784   1.631   2.277   4.977 -1.9129 -1.5584 -0.8501
 9281TIP3    H227785   1.505   2.351   4.940 -0.2464  2.1279  0.3640
 9282TIP3   OH227786   0.717   5.582   0.223  0.4312  0.1661  0.1031
 9282TIP3    H127787   0.637   5.595   0.172  0.8698 -0.3491 -0.7322
 9282TIP3    H227788   0.756   5.502   0.187  0.4853 -0.5152  1.5998
 9283TIP3   OH227789   8.275   1.085   1.742  0.4129 -0.6638 -0.4129
 9283TIP3    H127790   8.237   1.131   1.816  1.6914  0.9094 -0.6787
 9283TIP3    H227791   8.239   1.129   1.665  1.9416  0.2285 -0.6667
 9284TIP3   OH227792   2.544   7.052   1.497 -0.3012  0.5688 -0.1303
 9284TIP3    H127793   2.561   7.063   1.590 -0.9759 -1.3273  0.2591
 9284TIP3    H227794   2.528   7.141   1.465 -1.0866  1.1624  1.7696
 9285TIP3   OH227795   2.685   3.719   3.471 -0.3098 -0.0883  0.0419
 9285TIP3    H127796   2.667   3.657   3.401  3.0844  0.2468 -1.3329
 9285TIP3    H227797   2.638   3.798   3.446 -1.2629 -0.7817 -0.4273
 9286TIP3   OH227798   0.697   7.537   2.014 -0.2804 -0.0771  0.1149
 9286TIP3    H127799   0.689   7.541   2.110  0.9958 -3.4566  0.5095
 9286TIP3    H227800   0.791   7.545   1.999 -0.3884 -0.5005 -0.7896
 9287TIP3   OH227801   4.713   1.595   3.683  0.0045 -0.0964 -0.4513
 9287TIP3    H127802   4.747   1.506   3.673 -1.8508 -0.8077 -0.8189
 9287TIP3    H227803   4.637   1.598   3.625 -0.0076  1.7352 -0.4087
 9288TIP3   OH227804   0.033   2.024   4.554  0.3349  0.2002  0.4630
 9288TIP3    H127805  -0.028   2.036   4.481  1.5888 -0.5246 -0.7479
 9288TIP3    H227806   0.103   2.087   4.537  0.6165  0.0672  1.0887
 9289TIP3   OH227807   5.951   0.320   6.467  0.0487  0.1453  0.1633
 9289TIP3    H127808   5.863   0.289   6.486 -0.0796  0.3534 -0.0877
 9289TIP3    H227809   6.009   0.257   6.510 -0.2372  0.7655  1.5010
 9290TIP3   OH227810   2.441   6.907   5.279 -0.3877  0.4513 -0.1212
 9290TIP3    H127811   2.532   6.893   5.303  0.3960  0.7510 -2.6217
 9290TIP3    H227812   2.427   7.001   5.292 -0.4915  0.3285  0.6836
 9291TIP3   OH227813   3.515   7.587   4.450 -0.6106  0.3328  0.2177
 9291TIP3    H127814   3.513   7.565   4.357  0.2017  2.2764 -0.3069
 9291TIP3    H227815   3.424   7.581   4.478 -1.2664  2.0180 -1.3182
 9292TIP3   OH227816   2.659   6.235   4.131  0.6708  0.0718  0.0718
 9292TIP3    H127817   2.617   6.198   4.053 -0.6479 -0.0323  0.8023
 9292TIP3    H227818   2.615   6.192   4.204  0.8899  1.2253  0.8997
 9293TIP3   OH227819   5.897   3.730   3.386  0.1805  0.2664 -0.3335
 9293TIP3    H127820   5.909   3.814   3.342  3.1891 -0.1828 -0.5652
 9293TIP3    H227821   5.914   3.665   3.319  0.2773 -0.4964  0.4186
 9294TIP3   OH227822   2.711   0.599   3.719  0.0555 -0.3452  0.2683
 9294TIP3    H127823   2.734   0.616   3.811 -0.7145  0.2005  0.3707
 9294TIP3    H227824   2.760   0.521   3.696  0.7404 -0.1316  0.9621
 9295TIP3   OH227825   7.415   6.503   1.483 -0.0665  0.0568 -0.1841
 9295TIP3    H127826   7.435   6.557   1.560 -2.4838 -0.0326  0.5814
 9295TIP3    H227827   7.500   6.468   1.456  0.9438  0.5757  2.0798
 9296TIP3   OH227828   7.911   1.200   4.926  0.2328  0.2747  0.3681
 9296TIP3    H127829   7.976   1.134   4.902  0.4658  0.4098  0.6188
 9296TIP3    H227830   7.963   1.276   4.951 -0.0394  0.6623 -0.2179
 9297TIP3   OH227831   1.205   5.786   1.377 -0.3103  0.1580  0.3649
 9297TIP3    H127832   1.230   5.773   1.468  1.4376  2.0553  0.2413
 9297TIP3    H227833   1.250   5.715   1.330  2.6310  1.7629  0.5235
 9298TIP3   OH227834   0.121   6.316   1.632 -0.1529  0.9406 -0.4749
 9298TIP3    H127835   0.051   6.251   1.640  0.5678  0.3634  2.2284
 9298TIP3    H227836   0.201   6.263   1.627  0.2630  1.6272 -1.4705
 9299TIP3   OH227837   2.714   3.791   4.931  0.8599  0.2667  0.1536
 9299TIP3    H127838   2.684   3.704   4.957 -1.6010 -0.1551 -3.3320
 9299TIP3    H227839   2.652   3.851   4.970  1.5883  0.3520  1.2139
 9300TIP3   OH227840   5.517   7.196   1.379 -0.1990 -0.3024  0.1578
 9300TIP3    H127841   5.450   7.182   1.446  0.0490 -3.0371 -0.0510
 9300TIP3    H227842   5.599   7.197   1.427 -0.1007 -1.2820  0.0407
 9301TIP3   OH227843   4.976   7.130   5.649 -0.0767 -0.1122 -0.2428
 9301TIP3    H127844   4.882   7.114   5.642  0.2121 -1.2894 -2.0520
 9301TIP3    H227845   5.006   7.066   5.714 -0.2221 -1.2907 -1.2967
 9302TIP3   OH227846   8.086   2.632   5.322  0.4185  0.3960 -0.2185
 9302TIP3    H127847   8.027   2.576   5.271 -1.7611  0.7013  1.8195
 9302TIP3    H227848   8.155   2.572   5.352 -0.6462 -0.7443  0.0512
 9303TIP3   OH227849   2.281   0.822   2.447 -0.3116 -0.0548 -0.0857
 9303TIP3    H127850   2.228   0.754   2.405  0.0280 -0.5587  0.2920
 9303TIP3    H227851   2.267   0.808   2.541 -2.0010  1.7971 -0.0042
 9304TIP3   OH227852   1.834   3.741   4.679  0.1607  0.4725  0.1298
 9304TIP3    H127853   1.812   3.691   4.758 -0.3748  1.9494  0.9487
 9304TIP3    H227854   1.851   3.674   4.613 -0.3712 -0.7940  1.2230
 9305TIP3   OH227855   6.244   3.180   4.648 -0.2741  0.0891  0.0719
 9305TIP3    H127856   6.275   3.133   4.571  0.4947  0.2127  0.2919
 9305TIP3    H227857   6.323   3.193   4.701 -1.0311 -1.7082  1.8216
 9306TIP3   OH227858   2.807   6.332   5.058 -0.3123 -0.1028 -0.3054
 9306TIP3    H127859   2.796   6.427   5.058 -0.6168 -0.1334 -0.7918
 9306TIP3    H227860   2.807   6.308   4.965  1.6197 -0.3813 -0.2652
 9307TIP3   OH227861   3.868   7.831   0.353  0.0774  0.3212 -0.3356
 9307TIP3    H127862   3.909   7.848   0.438  0.1049 -0.5976 -0.1567
 9307TIP3    H227863   3.928   7.872   0.290 -0.0378  1.1711  0.0861
 9308TIP3   OH227864   3.229   5.789   0.841  0.8450 -0.1208 -0.2585
 9308TIP3    H127865   3.134   5.794   0.827  1.0814 -0.6733 -2.4576
 9308TIP3    H227866   3.256   5.709   0.794  2.3833 -0.0682  0.4759
 9309TIP3   OH227867   5.150   3.801   4.717  0.1795  0.2439  0.6097
 9309TIP3    H127868   5.188   3.808   4.629 -1.7060  0.5798 -0.2157
 9309TIP3    H227869   5.083   3.733   4.709 -0.4669  0.7401  1.6122
 9310TIP3   OH227870   7.937   6.970   6.538  0.0769  0.0734  0.1333
 9310TIP3    H127871   7.992   6.941   6.611 -0.6526 -1.0411  0.2626
 9310TIP3    H227872   7.945   6.900   6.472 -0.2531  0.4663 -0.3308
 9311TIP3   OH227873   5.366   3.861   3.309  0.8618  0.6484 -0.1771
 9311TIP3    H127874   5.349   3.781   3.358  2.1302  0.4500 -0.0114
 9311TIP3    H227875   5.302   3.924   3.342  0.2227 -0.1246  0.0985
 9312TIP3   OH227876   2.094   1.162   3.975 -0.0683 -0.5900  0.1145
 9312TIP3    H127877   2.145   1.155   3.894  0.8721 -0.0111  0.6354
 9312TIP3    H227878   2.028   1.092   3.968  1.2671 -1.8731 -0.2534
 9313TIP3   OH227879   4.558   3.708   5.169  0.4758 -0.0874  0.0378
 9313TIP3    H127880   4.498   3.746   5.233 -0.7170 -1.0163 -0.4818
 9313TIP3    H227881   4.618   3.655   5.220 -0.4630 -0.8184  0.3981
 9314TIP3   OH227882   5.878   6.208   3.906 -0.3025 -0.0211  0.2298
 9314TIP3    H127883   5.864   6.302   3.897 -0.8330 -0.1268 -0.1427
 9314TIP3    H227884   5.906   6.179   3.819  0.4645 -0.1095  0.5056
 9315TIP3   OH227885   2.654   7.416   1.061  0.0993 -0.0136  0.3594
 9315TIP3    H127886   2.739   7.386   1.094 -0.3532 -1.2527  0.4396
 9315TIP3    H227887   2.603   7.336   1.050 -1.4207  0.7893  1.2890
 9316TIP3   OH227888   3.689   6.057   0.455 -0.4231 -0.1318  0.2187
 9316TIP3    H127889   3.640   6.132   0.489  0.1584  0.8504 -1.0204
 9316TIP3    H227890   3.676   6.061   0.360  0.0851 -1.2787  0.0832
 9317TIP3   OH227891   1.032   1.359   3.209  0.4187 -0.0254 -0.1031
 9317TIP3    H127892   0.949   1.347   3.254  0.5544 -1.9056 -0.2595
 9317TIP3    H227893   1.051   1.453   3.216 -1.4014  0.3300  0.4430
 9318TIP3   OH227894   6.819   6.206   1.541 -0.9074  0.1436  0.2978
 9318TIP3    H127895   6.768   6.197   1.622 -0.9367 -1.0450  0.1681
 9318TIP3    H227896   6.779   6.144   1.480 -1.3913  1.6001 -0.9103
 9319TIP3   OH227897   5.535   5.332   2.831  0.1669  0.5144  0.0045
 9319TIP3    H127898   5.473   5.260   2.820  0.2732  0.5367 -0.7446
 9319TIP3    H227899   5.614   5.289   2.866  0.5406  0.1134 -1.2825
 9320TIP3   OH227900   3.730   5.764   4.915 -0.7354  0.3590  0.3699
 9320TIP3    H127901   3.687   5.801   4.838 -0.5557 -1.2235 -0.5279
 9320TIP3    H227902   3.780   5.837   4.952 -1.3326  1.3091 -0.6288
 9321TIP3   OH227903   3.749   1.894   3.289  0.2272  0.0325 -0.0204
 9321TIP3    H127904   3.703   1.978   3.285  0.9837  0.4013 -1.4907
 9321TIP3    H227905   3.842   1.917   3.285  0.4384 -0.8790 -0.6492
 9322TIP3   OH227906   3.090   1.317   0.793 -0.5345  0.1481  0.0974
 9322TIP3    H127907   3.091   1.224   0.768 -0.7191 -0.0091  0.6537
 9322TIP3    H227908   3.182   1.341   0.798 -0.4726 -0.1528  0.4669
 9323TIP3   OH227909   7.892   0.548   5.995 -0.0409 -0.3174 -0.2835
 9323TIP3    H127910   7.821   0.484   5.986  0.0420 -0.4919  0.2840
 9323TIP3    H227911   7.852   0.622   6.042  0.2286 -0.5352  0.2883
 9324TIP3   OH227912   0.921   6.240   0.030 -0.3737  0.3778  0.3579
 9324TIP3    H127913   0.969   6.298  -0.029 -0.8277  0.3369 -0.0637
 9324TIP3    H227914   0.959   6.153   0.015  1.2376  0.7620  1.9812
 9325TIP3   OH227915   0.439   1.281   4.644 -0.6340  0.3493  0.2751
 9325TIP3    H127916   0.494   1.357   4.625  0.1353 -0.7515 -2.3566
 9325TIP3    H227917   0.351   1.317   4.655 -0.1728  1.6846 -0.2154
 9326TIP3   OH227918   2.208   2.741   1.045 -0.7935 -0.1169 -0.8678
 9326TIP3    H127919   2.143   2.779   0.986 -0.1966 -0.5227 -1.8185
 9326TIP3    H227920   2.165   2.739   1.130 -0.9777  2.2952 -0.8564
 9327TIP3   OH227921   3.183   0.048   4.665 -0.2913  0.5598 -0.8322
 9327TIP3    H127922   3.212  -0.012   4.597  0.8670  1.4302 -1.1399
 9327TIP3    H227923   3.126  -0.004   4.721  0.5559 -0.7733 -1.1783
 9328TIP3   OH227924   6.337   4.282   1.960  0.1891 -0.2237  0.0856
 9328TIP3    H127925   6.252   4.268   1.920 -0.1740  1.4064  0.2243
 9328TIP3    H227926   6.341   4.217   2.030  0.8354 -3.1398 -2.4125
 9329TIP3   OH227927   2.166   5.788   0.803 -0.7131 -0.1042  0.4325
 9329TIP3    H127928   2.176   5.708   0.751  1.3687 -0.6115  1.5064
 9329TIP3    H227929   2.218   5.854   0.758 -0.0994 -0.1518  1.0498
 9330TIP3   OH227930   7.477   5.738   6.746  0.6329 -0.7325  0.2942
 9330TIP3    H127931   7.556   5.765   6.792  0.6747 -0.2061 -0.0797
 9330TIP3    H227932   7.481   5.642   6.745  1.6350 -0.6874 -0.3854
 9331TIP3   OH227933   7.355   1.510   5.624 -0.1213  0.0060  0.1552
 9331TIP3    H127934   7.384   1.424   5.657 -0.6718 -0.6367 -0.9555
 9331TIP3    H227935   7.272   1.491   5.580  0.2691  0.9190 -1.0190
 9332TIP3   OH227936   0.976   2.122   3.486  0.0789  0.3543  0.6620
 9332TIP3    H127937   0.967   2.078   3.402  1.2941  0.9692  0.1944
 9332TIP3    H227938   1.007   2.054   3.546  0.6601  0.2580  0.2576
 9333TIP3   OH227939   7.850   6.479   3.679 -0.0313 -0.1204  0.2322
 9333TIP3    H127940   7.871   6.438   3.594 -0.1828  0.9285 -0.3274
 9333TIP3    H227941   7.910   6.437   3.740  1.1604  0.1654 -0.6788
 9334TIP3   OH227942   8.238   1.401   6.172 -0.5549  0.6888 -0.1545
 9334TIP3    H127943   8.154   1.370   6.207 -0.1624  0.8004  0.9333
 9334TIP3    H227944   8.290   1.420   6.250  0.0485  1.8283 -0.8119
 9335TIP3   OH227945   3.247   2.882   0.036 -0.7049  0.3514 -0.1719
 9335TIP3    H127946   3.293   2.902   0.118 -1.2218  1.4099 -0.1307
 9335TIP3    H227947   3.178   2.821   0.061  1.9307 -3.1682 -0.5544
 9336TIP3   OH227948   7.811   2.559   1.617  0.1934 -0.3238  0.4235
 9336TIP3    H127949   7.812   2.643   1.570  0.2778  1.0023  2.6438
 9336TIP3    H227950   7.817   2.493   1.548 -1.8387  1.3989 -1.5825
 9337TIP3   OH227951   1.352   5.178   2.889 -0.1994 -0.1275 -0.3022
 9337TIP3    H127952   1.360   5.237   2.814 -1.8682 -0.7046 -0.9882
 9337TIP3    H227953   1.276   5.123   2.869  0.1302 -1.2227  1.1982
 9338TIP3   OH227954   7.456   1.424   3.573 -0.1334  0.8588 -0.1560
 9338TIP3    H127955   7.387   1.418   3.639 -1.0253 -0.7615 -1.1683
 9338TIP3    H227956   7.531   1.379   3.612 -1.2886 -1.9161 -0.9307
 9339TIP3   OH227957   4.521   7.322   2.072 -0.1274 -0.5724 -0.4083
 9339TIP3    H127958   4.456   7.346   2.006  1.0716 -0.2175 -1.4801
 9339TIP3    H227959   4.513   7.227   2.080  1.6142 -1.0432 -3.1732
 9340TIP3   OH227960   3.964   5.088   2.356 -0.2727 -0.0087 -0.0415
 9340TIP3    H127961   3.869   5.099   2.352 -0.2005  0.4612 -0.9100
 9340TIP3    H227962   3.977   5.002   2.396 -1.0328  0.3815  1.0964
 9341TIP3   OH227963   4.343   1.562   1.182  0.0281  0.0120 -0.3146
 9341TIP3    H127964   4.342   1.655   1.206 -0.5442  0.0649 -0.5258
 9341TIP3    H227965   4.430   1.531   1.207 -0.1796  0.3259  0.8422
 9342TIP3   OH227966   2.923   4.652   1.386 -0.6455  0.2786 -0.4222
 9342TIP3    H127967   2.928   4.682   1.296  0.0011  1.6331  0.0445
 9342TIP3    H227968   2.893   4.728   1.436 -0.6580 -0.3433  0.5574
 9343TIP3   OH227969   6.552   1.413   3.753 -0.4936 -0.1200 -0.0932
 9343TIP3    H127970   6.467   1.374   3.773 -0.4756 -0.2148 -0.2034
 9343TIP3    H227971   6.588   1.437   3.839 -1.8357  2.5299 -0.1927
 9344TIP3   OH227972   5.251   7.014   3.815 -0.1515 -0.2092  0.2624
 9344TIP3    H127973   5.228   6.922   3.805  0.4950 -0.2718 -0.7758
 9344TIP3    H227974   5.184   7.062   3.767 -1.8325  0.0566  2.6995
 9345TIP3   OH227975   4.124   5.111   5.250  0.0259 -0.7020 -0.1253
 9345TIP3    H127976   4.101   5.201   5.272 -0.1975 -0.9212  0.5549
 9345TIP3    H227977   4.098   5.101   5.159  2.6775  0.8161 -1.1666
 9346TIP3   OH227978   8.195   0.936   6.410  0.1619 -0.1428 -0.1866
 9346TIP3    H127979   8.262   0.981   6.461 -2.4207  1.1675  2.3704
 9346TIP3    H227980   8.152   0.877   6.473 -1.8645  0.0219 -1.3216
 9347TIP3   OH227981   1.105   3.566   1.268 -0.1136  0.4301  0.0108
 9347TIP3    H127982   1.127   3.477   1.242  0.9547  1.3802 -2.6807
 9347TIP3    H227983   1.189   3.608   1.286 -0.4222  1.4442 -0.8247
 9348TIP3   OH227984   8.024   7.170   5.575  0.9290  0.6178  0.0853
 9348TIP3    H127985   8.039   7.241   5.637  1.1905 -1.2680  2.3028
 9348TIP3    H227986   8.090   7.105   5.597 -0.5089 -1.1380 -0.5529
 9349TIP3   OH227987   1.235   0.048   6.655 -0.2813  0.2076 -0.3917
 9349TIP3    H127988   1.303   0.105   6.690  0.8140 -0.3439 -1.5181
 9349TIP3    H227989   1.253  -0.037   6.694  0.9353 -0.4058 -2.1314
 9350TIP3   OH227990   7.018   4.174   0.989 -0.0770  0.5630  0.2013
 9350TIP3    H127991   7.005   4.225   0.909 -1.0496  1.8855  1.1752
 9350TIP3    H227992   6.956   4.101   0.981  2.2449 -1.4061 -1.8274
 9351TIP3   OH227993   5.685   7.031   1.740 -0.1385 -0.0182 -0.2102
 9351TIP3    H127994   5.764   7.038   1.793  0.2230  0.1417 -0.7600
 9351TIP3    H227995   5.614   7.057   1.798  0.2866  0.4650  0.0954
 9352TIP3   OH227996   2.940   4.905   2.092  0.0965  0.0794  0.2412
 9352TIP3    H127997   2.936   4.824   2.142 -1.0950  0.9812  1.7385
 9352TIP3    H227998   2.997   4.962   2.145  1.5539  0.0133 -1.1823
 9353TIP3   OH227999   3.984   6.271   6.489  0.5725 -0.1050 -0.0554
 9353TIP3    H128000   4.053   6.206   6.472 -0.0972 -1.4826  2.1489
 9353TIP3    H228001   3.954   6.252   6.577 -2.5362  0.5698 -0.8525
 9354TIP3   OH228002   4.939   0.280   4.158 -0.3808  0.4089  0.1626
 9354TIP3    H128003   4.986   0.342   4.212  0.9605 -0.2653 -0.1738
 9354TIP3    H228004   4.917   0.208   4.217  0.6566 -0.1070 -0.0592
 9355TIP3   OH228005   8.225   5.201   2.095  0.1459 -0.0045  0.2296
 9355TIP3    H128006   8.304   5.241   2.132  0.7532  0.7537 -1.7662
 9355TIP3    H228007   8.233   5.215   2.001 -2.0098 -0.6173 -0.0894
 9356TIP3   OH228008   5.457   5.607   1.337  0.0324 -0.0443  0.0294
 9356TIP3    H128009   5.530   5.662   1.308 -0.0670  0.1902  0.2211
 9356TIP3    H228010   5.386   5.668   1.354 -0.5870 -0.3619 -1.2581
 9357TIP3   OH228011   6.970   6.072   4.199 -0.5174  0.1787  0.5016
 9357TIP3    H128012   6.985   6.048   4.290  0.4695 -0.1476  0.2718
 9357TIP3    H228013   6.900   6.137   4.202 -1.1870 -0.5556  1.4021
 9358TIP3   OH228014   6.488   7.045   2.121 -0.0125  0.3153 -0.2408
 9358TIP3    H128015   6.469   6.984   2.050 -0.0265 -0.7184  0.6123
 9358TIP3    H228016   6.584   7.053   2.121  0.1295 -0.9340  0.5716
 9359TIP3   OH228017   0.847   0.527   6.120 -0.4781  0.1479 -0.2574
 9359TIP3    H128018   0.840   0.480   6.203 -0.2221  0.7005  0.0847
 9359TIP3    H228019   0.856   0.619   6.145  0.8509  0.2004 -0.8580
 9360TIP3   OH228020   6.034   1.270   0.163  0.2525 -0.1798 -0.8083
 9360TIP3    H128021   6.107   1.208   0.162 -0.3526 -0.9259 -0.0292
 9360TIP3    H228022   6.045   1.319   0.244  1.1285  1.2485 -1.7587
 9361TIP3   OH228023   3.049   1.906   6.175 -0.8627 -0.5301 -0.6841
 9361TIP3    H128024   3.002   1.824   6.161 -0.7336 -0.9716  1.2536
 9361TIP3    H228025   2.982   1.967   6.205 -0.4490 -0.8805  1.0846
 9362TIP3   OH228026   6.691   3.054   5.461 -0.0251 -0.5469  0.7384
 9362TIP3    H128027   6.774   3.021   5.493  0.8605 -0.0029 -0.9079
 9362TIP3    H228028   6.714   3.119   5.394 -1.7554 -0.4408  0.1784
 9363TIP3   OH228029   6.016   6.307   3.207 -0.0989 -0.5068 -0.5486
 9363TIP3    H128030   6.090   6.247   3.206 -0.0476 -0.4433 -1.4821
 9363TIP3    H228031   5.976   6.296   3.293  0.0815 -1.6545 -0.6079
 9364TIP3   OH228032   1.922   6.230   2.051 -0.3306 -0.1719  0.5028
 9364TIP3    H128033   1.920   6.189   1.964  1.3852 -1.3047  0.9331
 9364TIP3    H228034   1.831   6.234   2.078 -0.6747 -3.0413  0.0802
 9365TIP3   OH228035   6.061   4.100   3.339  0.0866 -0.2931  0.0243
 9365TIP3    H128036   6.020   4.089   3.424  1.6330 -0.2502  0.8129
 9365TIP3    H228037   6.003   4.160   3.292 -0.0918  0.8058  1.5623
 9366TIP3   OH228038   3.823   5.331   4.716 -0.0111  0.1594 -0.0210
 9366TIP3    H128039   3.743   5.279   4.723  0.0967  0.0080  0.0951
 9366TIP3    H228040   3.871   5.313   4.797  2.3460 -3.3551 -1.9489
 9367TIP3   OH228041   1.242   5.506   4.452  0.1519 -0.6074  0.6126
 9367TIP3    H128042   1.158   5.532   4.415  0.0956 -2.1255 -0.4196
 9367TIP3    H228043   1.260   5.571   4.520 -0.6750  1.1448 -0.7919
 9368TIP3   OH228044   6.905   0.186   1.070  0.3704  0.0158 -0.4853
 9368TIP3    H128045   6.886   0.265   1.020  0.8358  0.5824  0.2073
 9368TIP3    H228046   6.902   0.115   1.006 -0.6890  0.5095 -0.9940
 9369TIP3   OH228047   3.456   0.807   0.079  0.4212 -0.5106  0.3178
 9369TIP3    H128048   3.509   0.777   0.005  1.9927 -0.0580  1.2206
 9369TIP3    H228049   3.414   0.728   0.112 -0.3951 -0.7092 -1.0834
 9370TIP3   OH228050   2.083   1.648   5.797  0.5376 -0.0015  0.5217
 9370TIP3    H128051   2.019   1.579   5.814  2.1275 -2.0311 -1.1078
 9370TIP3    H228052   2.119   1.671   5.882 -0.0853 -1.1576  1.1096
 9371TIP3   OH228053   1.004   3.609   2.787 -0.6570 -0.1490 -0.3432
 9371TIP3    H128054   0.992   3.698   2.755 -2.2719 -0.2677 -0.1376
 9371TIP3    H228055   0.938   3.557   2.740 -0.4886 -1.0182  0.3534
 9372TIP3   OH228056   5.782   5.655   1.694 -0.1424  0.0137 -0.0592
 9372TIP3    H128057   5.809   5.718   1.761 -0.0835  0.7885 -0.7835
 9372TIP3    H228058   5.687   5.648   1.704  0.1705 -2.5103  2.3209
 9373TIP3   OH228059   6.156   2.719   3.924 -0.0914  0.1224  0.0914
 9373TIP3    H128060   6.064   2.691   3.929  0.4967 -1.9662  0.1698
 9373TIP3    H228061   6.195   2.660   3.859  0.7637  2.3576 -1.5627
 9374TIP3   OH228062   7.462   0.428   3.013 -0.7695  0.4531  0.1023
 9374TIP3    H128063   7.463   0.471   2.927  1.8803 -0.9797 -0.6897
 9374TIP3    H228064   7.370   0.433   3.040 -1.5920  1.5503 -2.4958
 9375TIP3   OH228065   1.542   1.556   4.373  0.3886 -0.3608 -0.5208
 9375TIP3    H128066   1.567   1.608   4.297  0.3537 -0.9538 -0.9429
 9375TIP3    H228067   1.447   1.568   4.380  0.3948 -0.2907 -0.5561
 9376TIP3   OH228068   6.305   2.941   6.525  0.1711 -1.3935  0.5396
 9376TIP3    H128069   6.220   2.899   6.513 -0.0600 -0.4716 -1.4494
 9376TIP3    H228070   6.313   2.954   6.620 -1.9864 -1.3414  0.7472
 9377TIP3   OH228071   2.933   0.993   3.975 -0.1871 -0.0817 -0.2094
 9377TIP3    H128072   2.984   1.070   3.948  0.2219 -0.2469  0.0773
 9377TIP3    H228073   2.989   0.918   3.953 -0.2273 -0.2568  0.2761
 9378TIP3   OH228074   6.933   0.083   6.401  0.7324  0.0705 -0.2406
 9378TIP3    H128075   6.958   0.073   6.309  0.3738 -0.3963 -0.2908
 9378TIP3    H228076   6.947   0.176   6.420  1.5035  0.0311 -0.5614
 9379TIP3   OH228077   8.228   2.285   2.447 -0.0936  0.1242  0.5852
 9379TIP3    H128078   8.195   2.347   2.383 -1.0942  0.0372  0.9944
 9379TIP3    H228079   8.222   2.332   2.531  0.8912  0.1219  0.6790
 9380TIP3   OH228080   6.599   2.045   6.415  0.4905  0.3878 -0.6681
 9380TIP3    H128081   6.637   1.957   6.410 -1.7137 -0.6775  0.2322
 9380TIP3    H228082   6.674   2.103   6.405  2.1502 -1.5840 -0.3937
 9381TIP3   OH228083   6.933   7.911   6.011 -1.0647  0.5832 -0.5977
 9381TIP3    H128084   6.846   7.883   5.984 -1.2357  0.6152 -0.0981
 9381TIP3    H228085   6.933   7.899   6.106 -0.5072  0.5356 -0.6033
 9382TIP3   OH228086   6.235   0.379   0.857  0.0428  0.3004 -0.0227
 9382TIP3    H128087   6.315   0.381   0.805  0.2647  0.8569  0.3237
 9382TIP3    H228088   6.234   0.464   0.903 -0.3332 -0.0218  0.5859
 9383TIP3   OH228089   0.241   6.661   1.053  0.1814 -0.1003  0.0737
 9383TIP3    H128090   0.315   6.708   1.015  0.2345  0.5674  0.9497
 9383TIP3    H228091   0.270   6.570   1.059  0.8558  0.1176  0.1978
 9384TIP3   OH228092   6.520   4.321   2.954  0.8071 -0.6622 -0.1535
 9384TIP3    H128093   6.491   4.232   2.933  0.4245 -0.3414 -1.0058
 9384TIP3    H228094   6.440   4.367   2.979  0.8544 -0.2823 -0.6983
 9385TIP3   OH228095   3.097   4.521   2.941 -0.3150 -0.3186  0.3971
 9385TIP3    H128096   3.167   4.585   2.926 -0.3661 -0.5104 -0.6739
 9385TIP3    H228097   3.131   4.466   3.012  0.5991 -0.3696 -0.0612
 9386TIP3   OH228098   4.339   4.163   4.283 -0.2003 -0.0431  0.3079
 9386TIP3    H128099   4.423   4.152   4.327  0.1700 -0.5802 -0.4990
 9386TIP3    H228100   4.353   4.237   4.224 -0.2340 -0.2342  0.0561
 9387TIP3   OH228101   6.610   1.452   4.066 -0.1462 -0.5865  0.1053
 9387TIP3    H128102   6.693   1.435   4.023 -0.3805 -1.4630 -0.0192
 9387TIP3    H228103   6.578   1.366   4.093 -0.8925 -0.2390  0.3827
 9388TIP3   OH228104   7.623   2.728   3.570  0.0057  0.3643  0.5053
 9388TIP3    H128105   7.705   2.680   3.565  1.2498  2.4975 -0.6807
 9388TIP3    H228106   7.611   2.767   3.483 -0.6626  2.5782  1.5149
 9389TIP3   OH228107   1.991   0.789   6.686  0.2849 -0.2434 -0.4777
 9389TIP3    H128108   1.910   0.738   6.690 -1.3290  2.0767 -1.1962
 9389TIP3    H228109   2.023   0.777   6.597 -0.4544  0.4535 -0.8536
 9390TIP3   OH228110   3.086   7.140   5.066  0.2488  0.1248  0.0631
 9390TIP3    H128111   3.052   7.077   5.003  1.0396  0.5529 -0.8072
 9390TIP3    H228112   3.051   7.224   5.037  2.2677  0.6234 -1.0510
 9391TIP3   OH228113   2.114   6.577   6.588  0.2144 -0.3256  0.0648
 9391TIP3    H128114   2.180   6.647   6.587  0.1882 -0.2982 -0.8230
 9391TIP3    H228115   2.043   6.611   6.533 -0.0712 -0.7959  0.1425
 9392TIP3   OH228116   0.122   0.116   0.757  0.1507 -0.6419 -0.0255
 9392TIP3    H128117   0.152   0.169   0.831 -2.1348 -0.9929  1.2637
 9392TIP3    H228118   0.199   0.105   0.703  1.5808  0.8777  1.5545
 9393TIP3   OH228119   4.467   0.274   1.437 -0.5048 -0.0767 -0.0353
 9393TIP3    H128120   4.432   0.350   1.482 -0.2137  0.4847 -0.7259
 9393TIP3    H228121   4.512   0.224   1.505  0.4910  1.0840  0.2020
 9394TIP3   OH228122   5.211   3.068   6.184  0.5116  0.4893  0.5174
 9394TIP3    H128123   5.274   3.111   6.126 -0.3408  2.3273  0.8755
 9394TIP3    H228124   5.265   3.029   6.253  1.3837  0.1445 -0.3434
 9395TIP3   OH228125   6.093   7.674   0.213  0.5567  0.3898 -0.0946
 9395TIP3    H128126   6.032   7.640   0.278 -0.0359  0.3791 -0.6433
 9395TIP3    H228127   6.139   7.597   0.180  0.4180  0.3194 -0.1254
 9396TIP3   OH228128   2.238   1.870   5.971 -0.5383  0.1039 -0.4082
 9396TIP3    H128129   2.200   1.802   6.027  1.1133  1.5292  2.6845
 9396TIP3    H228130   2.178   1.944   5.979 -0.7863  0.0128 -1.3425
 9397TIP3   OH228131   1.290   0.811   6.412  0.2865 -0.1824  0.1095
 9397TIP3    H128132   1.294   0.734   6.468  1.8880  0.0810  0.4025
 9397TIP3    H228133   1.307   0.778   6.324 -1.2765 -0.4568 -0.1189
 9398TIP3   OH228134   5.713   0.170   6.459 -0.4014 -0.2850 -0.2133
 9398TIP3    H128135   5.678   0.254   6.427 -1.2516 -0.6934 -0.3986
 9398TIP3    H228136   5.650   0.105   6.428  0.5703 -1.0622 -0.5810
 9399TIP3   OH228137   3.788   6.390   0.603 -0.0211 -0.0813 -0.2368
 9399TIP3    H128138   3.747   6.357   0.523 -0.0829 -2.5109  0.7249
 9399TIP3    H228139   3.881   6.398   0.580  0.0596 -1.3166 -0.4363
 9400TIP3   OH228140   6.752   1.182   1.239 -0.1702  0.5654 -0.0062
 9400TIP3    H128141   6.673   1.213   1.193  0.5776 -0.2926 -1.9552
 9400TIP3    H228142   6.815   1.254   1.228  0.2415  0.0725 -1.0035
 9401TIP3   OH228143   6.623   6.836   6.063 -0.4144  0.4267 -0.1469
 9401TIP3    H128144   6.634   6.789   5.981 -0.1028 -1.4691  0.9202
 9401TIP3    H228145   6.708   6.878   6.078  0.5143 -1.5907  0.5691
 9402TIP3   OH228146   3.751   1.654   0.031  0.0654  0.0400 -0.4530
 9402TIP3    H128147   3.792   1.575   0.066 -0.4656 -0.7509 -1.5409
 9402TIP3    H228148   3.822   1.718   0.028  0.0544  0.2856  2.3360
 9403TIP3   OH228149   0.439   2.272   0.584  0.3622  0.1258  0.0566
 9403TIP3    H128150   0.418   2.365   0.573  0.3360  0.0118 -1.0032
 9403TIP3    H228151   0.358   2.233   0.618  0.1093  0.3611 -0.2697
 9404TIP3   OH228152   6.076   1.273   6.010 -0.1388 -0.4564  0.1717
 9404TIP3    H128153   6.027   1.229   6.080 -0.3004 -1.2877 -0.4401
 9404TIP3    H228154   6.129   1.203   5.972  1.0880  0.3076  0.4368
 9405TIP3   OH228155   0.035   4.789   1.396  0.2480  0.2946 -0.2896
 9405TIP3    H128156   0.058   4.696   1.406  1.4571  0.6134  0.0396
 9405TIP3    H228157   0.119   4.833   1.384 -0.1335  1.5864  1.4534
 9406TIP3   OH228158   7.370   3.397   3.053 -0.0654  0.3052 -0.0403
 9406TIP3    H128159   7.342   3.405   3.145 -2.1996 -1.0400 -0.4987
 9406TIP3    H228160   7.430   3.323   3.052  1.4653  1.4979  0.5324
 9407TIP3   OH228161   6.772   7.362   0.044  0.3047 -0.6301  0.6843
 9407TIP3    H128162   6.694   7.307   0.039 -1.8750  2.1544  1.0206
 9407TIP3    H228163   6.791   7.384  -0.047 -0.7944  0.4657  0.6798
 9408TIP3   OH228164   6.794   5.436   3.234 -1.0683  0.5740  0.4599
 9408TIP3    H128165   6.721   5.380   3.205 -1.1582  0.3637  1.0694
 9408TIP3    H228166   6.778   5.448   3.328 -1.1054  1.7179  0.3148
 9409TIP3   OH228167   4.999   4.124   5.905 -0.2214  0.0600 -0.3593
 9409TIP3    H128168   4.994   4.134   5.810 -0.0267  0.5752 -0.3176
 9409TIP3    H228169   5.075   4.067   5.919 -0.1806  0.0793 -0.5033
 9410TIP3   OH228170   7.932   3.002   0.641  0.1670  0.1923  0.7010
 9410TIP3    H128171   7.932   3.032   0.550 -1.4145  1.5815  1.1205
 9410TIP3    H228172   7.993   3.061   0.686  0.3520  0.0002  0.7053
 9411TIP3   OH228173   5.262   1.514   4.536 -0.3824 -0.1357  0.1754
 9411TIP3    H128174   5.168   1.496   4.547 -0.3738 -0.3691 -0.1275
 9411TIP3    H228175   5.289   1.551   4.620 -0.4266 -1.3816  0.7592
 9412TIP3   OH228176   4.592   0.003   4.745 -0.1942  0.2365 -0.8844
 9412TIP3    H128177   4.647   0.042   4.812 -0.6522  2.3265 -1.6413
 9412TIP3    H228178   4.614   0.051   4.665 -0.3570 -1.5199 -2.0384
 9413TIP3   OH228179   0.089   2.494   2.511 -0.5366 -0.7855  0.1942
 9413TIP3    H128180   0.006   2.475   2.555 -0.3260  3.0567  2.6810
 9413TIP3    H228181   0.144   2.418   2.531 -2.3743 -1.8579  1.4599
 9414TIP3   OH228182   4.929   6.816   3.154 -0.3075  0.3538  0.1713
 9414TIP3    H128183   4.963   6.837   3.241 -0.4431  1.3639  0.0032
 9414TIP3    H228184   4.997   6.847   3.094  0.7751 -2.2506 -0.0744
 9415TIP3   OH228185   7.766   7.461   5.252  0.0923 -0.1900  1.0243
 9415TIP3    H128186   7.834   7.503   5.201  1.3018 -2.6123  0.4965
 9415TIP3    H228187   7.810   7.430   5.331 -0.3809 -1.5910  0.7869
 9416TIP3   OH228188   5.916   5.926   5.421  0.0057  0.0973  0.0040
 9416TIP3    H128189   5.982   5.986   5.385 -0.3339  1.1477  1.0628
 9416TIP3    H228190   5.927   5.934   5.516  0.0836 -1.6907  0.1649
 9417TIP3   OH228191   4.824   0.358   5.318 -0.0375 -0.6570  0.0513
 9417TIP3    H128192   4.791   0.301   5.249  1.3280 -0.3778 -0.8643
 9417TIP3    H228193   4.749   0.413   5.341 -0.5963 -0.9580 -0.9995
 9418TIP3   OH228194   4.058   2.406   6.401  0.2084 -0.2196 -0.0388
 9418TIP3    H128195   4.121   2.372   6.464 -0.0688 -0.1911  0.2590
 9418TIP3    H228196   4.111   2.445   6.332  0.5977 -2.4936 -1.1184
 9419TIP3   OH228197   3.238   4.386   1.668 -0.0515 -0.6884  0.2235
 9419TIP3    H128198   3.324   4.425   1.683 -0.9062  1.3579  0.1249
 9419TIP3    H228199   3.203   4.434   1.592 -1.3305 -1.3813  0.3513
 9420TIP3   OH228200   7.384   3.426   0.610  0.1274  0.4050 -0.0907
 9420TIP3    H128201   7.289   3.430   0.600 -0.0455  1.0214  1.4692
 9420TIP3    H228202   7.410   3.348   0.561 -1.4572 -1.0827  1.2830
 9421TIP3   OH228203   2.448   7.105   2.489 -0.6650 -0.3523 -0.0255
 9421TIP3    H128204   2.525   7.049   2.501  0.0186  0.7424  0.9618
 9421TIP3    H228205   2.454   7.136   2.399  0.6952  0.5786  0.3438
 9422TIP3   OH228206   2.332   4.585   4.713 -0.1593 -0.6425 -0.4037
 9422TIP3    H128207   2.387   4.563   4.639 -0.3217  1.2689 -1.1559
 9422TIP3    H228208   2.393   4.610   4.782 -0.0347 -0.4092 -0.5962
 9423TIP3   OH228209   0.054   6.182   5.719  0.2767 -0.2853  1.1189
 9423TIP3    H128210  -0.028   6.178   5.669 -0.2243  0.1395  1.8891
 9423TIP3    H228211   0.120   6.206   5.654 -0.0166 -1.6416  0.2798
 9424TIP3   OH228212   1.754   1.955   1.054  0.0637  0.7154 -0.4476
 9424TIP3    H128213   1.711   1.962   1.139  2.2018  0.1781  0.7620
 9424TIP3    H228214   1.711   1.880   1.012 -0.0975  0.0933  0.7677
 9425TIP3   OH228215   3.999   0.474   0.571 -0.4087 -0.1008 -0.5656
 9425TIP3    H128216   4.061   0.467   0.643 -1.2586 -0.5284  0.1408
 9425TIP3    H228217   3.913   0.458   0.610 -0.9153 -0.1516 -1.6338
 9426TIP3   OH228218   4.504   5.218   0.734  0.0131 -0.0653 -0.0197
 9426TIP3    H128219   4.475   5.127   0.729 -0.0125  0.0123 -1.7024
 9426TIP3    H228220   4.564   5.229   0.661 -1.8953  1.9153 -1.4287
 9427TIP3   OH228221   6.866   3.023   3.277 -0.3447  0.7236 -0.6312
 9427TIP3    H128222   6.791   3.009   3.335 -0.4683 -1.8969 -1.2855
 9427TIP3    H228223   6.867   3.118   3.262 -2.1855  1.0984  1.1189
 9428TIP3   OH228224   5.361   3.010   6.391 -0.0463 -0.9261  0.3252
 9428TIP3    H128225   5.434   2.971   6.344  0.1242 -0.6189  0.3358
 9428TIP3    H228226   5.368   2.975   6.480 -0.7530 -2.0263 -0.0260
 9429TIP3   OH228227   5.118   2.160   1.532 -0.2841  0.0235  0.2274
 9429TIP3    H128228   5.063   2.084   1.555 -0.0189  0.2285  1.6324
 9429TIP3    H228229   5.181   2.167   1.604  1.4621 -0.0549 -1.2163
 9430TIP3   OH228230   6.321   7.426   5.179  0.0761  0.1891  0.3706
 9430TIP3    H128231   6.413   7.417   5.155  0.1407  0.5793  0.4568
 9430TIP3    H228232   6.283   7.476   5.107 -0.2605 -0.7071 -0.0846
 9431TIP3   OH228233   3.385   6.009   4.544 -0.2750  0.3635  0.2178
 9431TIP3    H128234   3.342   6.084   4.585 -2.6636  0.2691 -1.8303
 9431TIP3    H228235   3.342   5.933   4.582  0.2389  0.1180  0.3198
 9432TIP3   OH228236   5.326   7.943   3.982  0.4874 -0.1875  0.1450
 9432TIP3    H128237   5.395   7.878   3.993 -0.1637 -1.0066 -0.4457
 9432TIP3    H228238   5.248   7.901   4.018  0.1662  0.4982  0.2723
 9433TIP3   OH228239   2.776   5.422   3.757 -0.2881  0.0568  0.2970
 9433TIP3    H128240   2.783   5.471   3.839 -0.1338  0.1517  0.2270
 9433TIP3    H228241   2.692   5.376   3.763 -0.7403  0.8440  0.0833
 9434TIP3   OH228242   7.992   3.686   5.501  0.1751  0.3427 -0.6569
 9434TIP3    H128243   8.030   3.661   5.417  0.5187  1.4302 -0.8362
 9434TIP3    H228244   7.993   3.604   5.552  0.6443 -0.1628 -1.4461
 9435TIP3   OH228245   3.137   2.323   4.910  0.1808 -0.1460 -0.3346
 9435TIP3    H128246   3.060   2.267   4.919  1.2602 -1.7019 -0.4063
 9435TIP3    H228247   3.138   2.348   4.818  0.1879 -0.7850 -0.5147
 9436TIP3   OH228248   4.706   1.567   0.924  0.3338 -0.3534  0.1190
 9436TIP3    H128249   4.636   1.501   0.920 -0.3022  0.3390 -0.5568
 9436TIP3    H228250   4.677   1.629   0.991 -1.3615  1.6984 -2.3151
 9437TIP3   OH228251   3.857   6.936   2.499  0.1091 -0.5132 -0.5812
 9437TIP3    H128252   3.936   6.950   2.551 -0.2876 -0.0444 -0.0986
 9437TIP3    H228253   3.797   6.890   2.558 -0.7149  0.8944 -0.2805
 9438TIP3   OH228254   6.383   3.468   3.726 -0.1128  0.6512 -0.0065
 9438TIP3    H128255   6.444   3.406   3.767 -1.5034 -0.7442  0.0623
 9438TIP3    H228256   6.432   3.504   3.652  0.2058 -1.9284 -1.1563
 9439TIP3   OH228257   6.307   2.524   2.480 -0.4362  0.1182 -0.2536
 9439TIP3    H128258   6.399   2.511   2.457 -0.2594 -1.6592  1.2746
 9439TIP3    H228259   6.309   2.573   2.562 -0.8766  0.0547 -0.2001
 9440TIP3   OH228260   2.948   4.979   3.293 -0.4519 -0.5440  0.0106
 9440TIP3    H128261   2.917   4.889   3.278  1.1231 -1.0223 -0.5064
 9440TIP3    H228262   3.039   4.969   3.321  0.2885  0.9385 -1.6741
 9441TIP3   OH228263   3.085   4.357   3.152  0.1851 -0.2471 -0.1964
 9441TIP3    H128264   3.141   4.371   3.228 -0.5098 -1.7842  0.6417
 9441TIP3    H228265   3.087   4.262   3.138  0.4692  0.0331 -2.2470
 9442TIP3   OH228266   6.544   3.300   3.925  0.0581  0.4170 -0.2681
 9442TIP3    H128267   6.536   3.211   3.958  1.0065  0.4754  0.1704
 9442TIP3    H228268   6.638   3.310   3.907 -0.1654  1.0448 -1.1233
 9443TIP3   OH228269   6.041   6.854   4.958  0.0621 -0.0164  0.1771
 9443TIP3    H128270   5.965   6.900   4.993  0.7542  0.9122  0.5005
 9443TIP3    H228271   6.042   6.770   5.005  0.8772  1.1260  2.3468
 9444TIP3   OH228272   5.776   4.999   4.243  0.1162  0.2854  0.0998
 9444TIP3    H128273   5.750   4.934   4.307  1.0779 -0.0845  0.1271
 9444TIP3    H228274   5.710   5.068   4.251  1.0212  0.9839  2.5724
 9445TIP3   OH228275   6.298   6.599   4.973 -0.2584  0.1432 -0.1751
 9445TIP3    H128276   6.362   6.669   4.984 -0.5600  0.4628 -0.4530
 9445TIP3    H228277   6.239   6.607   5.048  0.6932 -0.8743  0.7220
 9446TIP3   OH228278   8.151   5.665   3.024  0.2424  0.2433 -0.1063
 9446TIP3    H128279   8.083   5.730   3.040  0.2124  0.2484 -0.2581
 9446TIP3    H228280   8.115   5.583   3.058  0.5432  0.4277  0.7025
 9447TIP3   OH228281   2.821   7.730   5.960  0.2902  0.0411  0.1717
 9447TIP3    H128282   2.914   7.723   5.938  0.0572  0.6450 -1.0829
 9447TIP3    H228283   2.790   7.805   5.909 -1.0294 -0.5613  0.0604
 9448TIP3   OH228284   5.914   4.675   1.146 -0.5357  0.1692 -0.0032
 9448TIP3    H128285   5.949   4.591   1.114 -0.5034  0.4926 -0.8502
 9448TIP3    H228286   5.968   4.697   1.222  0.5713  0.2572 -0.7995
 9449TIP3   OH228287   2.189   0.991   2.209 -0.7473  0.3979  0.0970
 9449TIP3    H128288   2.174   0.994   2.303  0.9511 -0.3036  0.4352
 9449TIP3    H228289   2.282   1.015   2.199 -0.3824 -1.3626 -1.2127
 9450TIP3   OH228290   5.709   2.884   1.367 -0.1476 -0.3448 -0.4727
 9450TIP3    H128291   5.759   2.865   1.446 -0.5306  0.9965  0.1340
 9450TIP3    H228292   5.702   2.801   1.321 -0.8802 -1.4151  1.4645
 9451TIP3   OH228293   2.040   1.087   2.437  0.1506  0.1665 -0.7300
 9451TIP3    H128294   2.041   1.183   2.434 -0.7331  0.2070 -0.0442
 9451TIP3    H228295   1.976   1.062   2.370 -0.5767  0.1096 -0.0197
 9452TIP3   OH228296   0.900   2.154   4.830 -0.3211  0.1592 -0.5638
 9452TIP3    H128297   0.961   2.112   4.890 -0.2017  0.3105 -0.5788
 9452TIP3    H228298   0.870   2.232   4.878 -0.9932 -0.2507 -0.2939
 9453TIP3   OH228299   8.235   2.594   0.478 -0.3887  0.0517  0.1385
 9453TIP3    H128300   8.147   2.629   0.492 -1.5325 -3.0103  1.5660
 9453TIP3    H228301   8.224   2.525   0.413  0.9591 -0.3301  0.2772
 9454TIP3   OH228302   2.773   1.063   0.216  0.2021  0.6773  0.2335
 9454TIP3    H128303   2.769   1.044   0.310 -0.8731  1.8737  0.4576
 9454TIP3    H228304   2.685   1.041   0.184  0.5307  0.3833 -0.4771
 9455TIP3   OH228305   5.026   0.925   5.986 -0.0715  0.5353 -0.0532
 9455TIP3    H128306   5.118   0.950   5.995 -0.2724  1.5724 -0.7427
 9455TIP3    H228307   4.994   0.920   6.076  0.7185 -0.1289  0.2098
 9456TIP3   OH228308   4.994   7.080   3.614  0.1626  0.1211  0.1104
 9456TIP3    H128309   4.918   7.124   3.575  0.9257  1.0478 -0.3690
 9456TIP3    H228310   5.067   7.105   3.558  0.7078 -1.3747  0.1280
 9457TIP3   OH228311   5.609   1.065   0.134 -0.6123 -0.5015 -0.0533
 9457TIP3    H128312   5.516   1.043   0.126 -1.1626  1.6994 -0.2745
 9457TIP3    H228313   5.642   1.062   0.044 -1.1877  1.4266 -0.3765
 9458TIP3   OH228314   2.304   3.901   6.315  0.1187 -0.1057 -0.0633
 9458TIP3    H128315   2.385   3.877   6.271  0.1595 -1.3538  0.6443
 9458TIP3    H228316   2.239   3.840   6.280 -0.2601  0.1421  0.2003
 9459TIP3   OH228317   4.622   7.262   0.336  0.1836 -0.1525 -0.4436
 9459TIP3    H128318   4.648   7.344   0.377  1.6407 -0.8198  0.0462
 9459TIP3    H228319   4.679   7.196   0.375  0.5506 -1.0687 -2.3919
 9460TIP3   OH228320   2.765   0.305   2.939 -0.0825 -0.2625 -0.1484
 9460TIP3    H128321   2.843   0.353   2.966  1.4048 -1.5746 -1.8617
 9460TIP3    H228322   2.743   0.251   3.015 -0.4517  1.4013  0.9908
 9461TIP3   OH228323   6.983   7.740   1.429  0.5831 -0.0776  0.4150
 9461TIP3    H128324   7.064   7.786   1.453  0.1381  0.5094  0.8013
 9461TIP3    H228325   7.011   7.650   1.412  1.5942  0.4694 -1.0935
 9462TIP3   OH228326   2.529   3.541   6.156 -0.6319  0.9732 -0.5258
 9462TIP3    H128327   2.549   3.539   6.250 -1.0155  0.0541 -0.4477
 9462TIP3    H228328   2.521   3.449   6.132 -1.0380  1.2161 -1.3555
 9463TIP3   OH228329   3.335   5.208   1.567 -0.1472 -0.4508 -0.5920
 9463TIP3    H128330   3.308   5.202   1.659 -1.0887  0.7111 -0.7616
 9463TIP3    H228331   3.255   5.230   1.520  0.4878 -0.1838 -1.5772
 9464TIP3   OH228332   1.122   5.815   0.100 -0.1763  0.1627 -0.1892
 9464TIP3    H128333   1.053   5.879   0.078  0.1440  1.1503  1.5102
 9464TIP3    H228334   1.152   5.842   0.186  2.3278 -0.2879 -0.8605
 9465TIP3   OH228335   5.554   6.296   4.329  0.3462  0.7668 -0.6820
 9465TIP3    H128336   5.514   6.366   4.381  1.5512  1.3777 -0.5369
 9465TIP3    H228337   5.607   6.342   4.264 -0.5474 -0.0016 -1.9907
 9466TIP3   OH228338   1.156   3.934   3.218 -0.2568  0.2471 -0.1392
 9466TIP3    H128339   1.223   3.882   3.262 -0.0700 -0.3964 -1.1519
 9466TIP3    H228340   1.188   4.024   3.223  1.5181 -0.2026 -1.9720
 9467TIP3   OH228341   3.431   6.008   6.402 -0.4631  0.3006  0.1422
 9467TIP3    H128342   3.345   6.004   6.360 -1.0392  1.1407  1.1595
 9467TIP3    H228343   3.425   5.946   6.474  0.0745 -0.2264 -0.2639
 9468TIP3   OH228344   1.088   6.389   1.755  0.0883 -0.2818  1.1005
 9468TIP3    H128345   1.107   6.351   1.669  0.5207  2.3265 -0.0378
 9468TIP3    H228346   1.144   6.339   1.815  0.8889 -1.2045 -0.3411
 9469TIP3   OH228347   7.782   6.191   1.821  0.0776 -0.0343  0.1891
 9469TIP3    H128348   7.768   6.286   1.820 -0.8872 -0.1004  2.1697
 9469TIP3    H228349   7.876   6.180   1.834  0.2336  0.6296 -0.3205
 9470TIP3   OH228350   6.261   2.255   5.605 -0.2337 -0.0326 -0.0926
 9470TIP3    H128351   6.236   2.182   5.549 -0.3146  0.4560 -0.7009
 9470TIP3    H228352   6.210   2.243   5.685 -0.2560 -0.6306 -0.1910
 9471TIP3   OH228353   1.070   4.467   5.246 -0.0512 -0.0231  0.1061
 9471TIP3    H128354   1.074   4.450   5.340  1.0715  1.8885  0.4590
 9471TIP3    H228355   1.160   4.452   5.215 -0.3852 -0.5363 -0.6659
 9472TIP3   OH228356   5.107   0.771   3.850  0.4827 -0.7468 -0.1807
 9472TIP3    H128357   5.071   0.749   3.936 -1.2304 -1.2922 -0.9900
 9472TIP3    H228358   5.167   0.699   3.830  0.7810 -0.6899  0.4631
 9473TIP3   OH228359   0.369   7.513   3.361 -0.6755 -0.1255 -0.8811
 9473TIP3    H128360   0.386   7.564   3.440  2.7744 -0.9166 -0.9218
 9473TIP3    H228361   0.359   7.577   3.291 -1.9137  0.5348 -0.1258
 9474TIP3   OH228362   1.112   0.210   1.940 -0.0782  0.0555 -0.1075
 9474TIP3    H128363   1.166   0.203   1.861  0.5187 -0.9587  0.3628
 9474TIP3    H228364   1.081   0.300   1.940 -0.5489 -0.0572 -1.7905
 9475TIP3   OH228365   4.125   1.424   3.582 -0.3012 -0.2099 -0.0023
 9475TIP3    H128366   4.054   1.488   3.575  0.1593  0.3930  0.6835
 9475TIP3    H228367   4.202   1.470   3.548 -0.3492 -1.0752 -1.3431
 9476TIP3   OH228368   5.884   1.847   3.656 -0.1800 -0.3316 -0.1204
 9476TIP3    H128369   5.869   1.783   3.726 -0.6042 -0.1257 -0.0196
 9476TIP3    H228370   5.853   1.804   3.577  0.7793 -0.7696 -0.2811
 9477TIP3   OH228371   5.876   5.891   0.872  0.0198  0.6728  0.3930
 9477TIP3    H128372   5.794   5.844   0.884  0.9135 -1.3171 -0.8068
 9477TIP3    H228373   5.925   5.876   0.953 -0.3341  0.8886  0.6476
 9478TIP3   OH228374   7.792   3.411   4.389 -0.0695 -0.5258  0.2240
 9478TIP3    H128375   7.848   3.336   4.367  1.0788  0.4909 -0.4473
 9478TIP3    H228376   7.854   3.480   4.413 -1.0753  0.4791 -0.0209
 9479TIP3   OH228377   3.363   1.366   0.791  0.3872 -0.3587  0.1360
 9479TIP3    H128378   3.423   1.435   0.764 -0.7977  1.1643  1.2543
 9479TIP3    H228379   3.414   1.311   0.851  1.7522 -1.3293 -1.7985
 9480TIP3   OH228380   3.970   1.088   1.857 -0.4943  0.5301 -0.9934
 9480TIP3    H128381   3.882   1.102   1.892  0.4880  2.4621  0.9374
 9480TIP3    H228382   4.008   1.021   1.915 -0.9557 -1.0547 -2.4396
 9481TIP3   OH228383   2.011   5.224   3.535 -0.2096 -0.3356 -0.0742
 9481TIP3    H128384   2.103   5.207   3.554 -0.1878 -0.9039 -0.6409
 9481TIP3    H228385   1.963   5.162   3.591 -0.3095  0.6952  1.0342
 9482TIP3   OH228386   7.530   3.913   3.459 -0.8357 -1.1913  0.2765
 9482TIP3    H128387   7.455   3.963   3.426 -0.3281 -0.9824 -0.5843
 9482TIP3    H228388   7.592   3.912   3.387  0.8522  0.3216  1.6358
 9483TIP3   OH228389   0.410   7.141   3.796 -0.2088  0.5563 -0.0918
 9483TIP3    H128390   0.485   7.086   3.773  0.4772  1.6624 -0.5854
 9483TIP3    H228391   0.398   7.198   3.720  0.6210  2.7032  1.2933
 9484TIP3   OH228392   1.791   5.487   6.471 -0.0076  0.6752  0.1683
 9484TIP3    H128393   1.733   5.439   6.531 -2.8221 -0.3190 -3.0010
 9484TIP3    H228394   1.862   5.426   6.453 -1.1481 -0.5649 -0.3290
 9485TIP3   OH228395   0.502   3.007   0.868  0.3452 -0.0995 -0.4211
 9485TIP3    H128396   0.584   3.023   0.917 -0.1754 -0.2493  0.5267
 9485TIP3    H228397   0.460   3.093   0.865  1.8154  0.6259 -3.3896
 9486TIP3   OH228398   0.615   0.972   2.260  0.2238  0.0113 -0.2146
 9486TIP3    H128399   0.598   0.889   2.215  0.9178 -0.6575  0.7006
 9486TIP3    H228400   0.703   0.997   2.232 -0.0063  0.4813 -0.5340
 9487TIP3   OH228401   7.675   2.033   0.947 -0.7024 -0.2010  0.3605
 9487TIP3    H128402   7.629   1.998   0.871  1.0696 -0.1749 -0.7683
 9487TIP3    H228403   7.704   1.956   0.995 -1.3150 -0.2198  0.7116
 9488TIP3   OH228404   4.652   4.702   3.438 -0.0348  0.7172  0.2615
 9488TIP3    H128405   4.671   4.635   3.503 -0.8237  0.7046  0.4783
 9488TIP3    H228406   4.685   4.665   3.356  0.1027  0.3366  0.4864
 9489TIP3   OH228407   3.907   6.653   2.954  0.0298  0.7591  0.9978
 9489TIP3    H128408   3.932   6.726   2.896  1.4163  0.4049  1.1186
 9489TIP3    H228409   3.811   6.655   2.954  0.0175  1.6619 -0.1714
 9490TIP3   OH228410   5.256   4.799   4.964  0.3773 -0.1005  0.7685
 9490TIP3    H128411   5.201   4.813   4.887  0.8105 -0.0838  0.4564
 9490TIP3    H228412   5.205   4.742   5.021  0.5942 -1.2043 -0.1193
 9491TIP3   OH228413   0.513   6.777   5.825  0.2164 -0.5206 -0.2660
 9491TIP3    H128414   0.450   6.705   5.825  0.0833 -0.4221 -1.5480
 9491TIP3    H228415   0.464   6.852   5.859  1.0509 -1.5381  3.6658
 9492TIP3   OH228416   3.637   1.194   3.382 -0.6259 -0.0511 -0.9138
 9492TIP3    H128417   3.564   1.150   3.339 -1.9310  0.3105  0.8292
 9492TIP3    H228418   3.618   1.189   3.476  0.7406  1.5081 -0.4878
 9493TIP3   OH228419   2.293   0.654   1.576 -0.7666 -0.3023 -0.2663
 9493TIP3    H128420   2.269   0.730   1.524 -0.9888  0.0750  0.3772
 9493TIP3    H228421   2.374   0.623   1.537 -0.1406  0.8538  0.0673
 9494TIP3   OH228422   3.990   1.286   6.024 -0.0442 -0.5602 -0.7748
 9494TIP3    H128423   3.896   1.280   6.040  0.1693  0.3951  1.1328
 9494TIP3    H228424   4.003   1.375   5.991  0.2869 -0.3616 -0.1240
 9495TIP3   OH228425   6.001   4.679   0.095 -0.1987 -0.1333 -0.2619
 9495TIP3    H128426   5.996   4.682   0.190 -2.7906  0.3487 -0.3221
 9495TIP3    H228427   6.076   4.734   0.072  1.8480 -2.0042  1.5012
 9496TIP3   OH228428   7.901   0.996   1.554  0.4432  0.0878  0.9430
 9496TIP3    H128429   7.854   0.913   1.554  1.1094 -0.3076 -0.1685
 9496TIP3    H228430   7.869   1.043   1.477  0.3915  0.6883  1.3195
 9497TIP3   OH228431   4.556   5.015   4.032 -0.0424  0.4216 -0.2756
 9497TIP3    H128432   4.645   5.017   4.067 -0.0441 -1.0780 -0.1096
 9497TIP3    H228433   4.507   5.074   4.088  0.9987  1.8958 -0.8550
 9498TIP3   OH228434   6.706   6.922   3.522  0.0249 -0.0051 -0.0010
 9498TIP3    H128435   6.619   6.898   3.491 -0.1371  0.4043  0.1317
 9498TIP3    H228436   6.703   6.911   3.617 -0.3061  1.2938  0.1569
 9499TIP3   OH228437   3.772   0.509   5.400 -0.1226  0.5064 -0.4323
 9499TIP3    H128438   3.759   0.421   5.365 -1.2421  0.0708  0.9915
 9499TIP3    H228439   3.705   0.563   5.357 -0.6942  0.2368  0.1078
 9500TIP3   OH228440   3.840   6.729   0.242  0.1975  0.4461  0.1905
 9500TIP3    H128441   3.926   6.722   0.200 -0.0849 -1.1879 -0.2119
 9500TIP3    H228442   3.859   6.745   0.335  0.8928  1.3192 -0.0942
 9501TIP3   OH228443   2.279   2.986   0.583  0.0884  0.0673 -0.4960
 9501TIP3    H128444   2.283   2.988   0.679 -1.5948 -1.5255 -0.3535
 9501TIP3    H228445   2.187   2.997   0.563  0.2068 -1.2465 -1.8672
 9502TIP3   OH228446   1.557   0.555   6.425  0.1157 -0.0378  0.9885
 9502TIP3    H128447   1.626   0.620   6.433 -0.5759  0.8409  0.1695
 9502TIP3    H228448   1.593   0.475   6.463  1.4711  0.4722  0.8040
 9503TIP3   OH228449   1.608   7.175   6.506 -0.0698 -0.0455  0.6163
 9503TIP3    H128450   1.568   7.221   6.580  0.9550  0.2023  1.0366
 9503TIP3    H228451   1.569   7.087   6.509 -0.4212  0.1179  1.1386
 9504TIP3   OH228452   8.071   2.900   0.345  0.3641 -0.0602  0.1758
 9504TIP3    H128453   8.071   2.912   0.250  2.2354 -1.6881 -0.0869
 9504TIP3    H228454   8.162   2.913   0.371  0.3150 -1.8409  1.4235
 9505TIP3   OH228455   0.202   5.653   4.571 -0.3455 -0.0008  0.0122
 9505TIP3    H128456   0.254   5.584   4.530  0.1068  0.1227  0.3740
 9505TIP3    H228457   0.124   5.607   4.603 -0.3031 -0.2476 -0.2340
 9506TIP3   OH228458   1.770   1.432   5.530 -0.0734  0.6405 -0.6398
 9506TIP3    H128459   1.758   1.346   5.490  0.1257 -0.0017  0.6524
 9506TIP3    H228460   1.701   1.486   5.491 -1.3784 -0.5893 -0.1218
 9507TIP3   OH228461   1.634   4.600   6.271  0.3250  0.3109 -0.3251
 9507TIP3    H128462   1.583   4.532   6.228 -0.1135  1.6890 -2.1257
 9507TIP3    H228463   1.635   4.673   6.208  0.8030  1.9562  1.4852
 9508TIP3   OH228464   6.946   7.045   5.113 -0.2511 -0.2164 -0.6220
 9508TIP3    H128465   6.931   7.068   5.205 -1.3383 -0.8105 -0.6351
 9508TIP3    H228466   6.935   6.950   5.110 -0.3926 -0.1817 -1.3932
 9509TIP3   OH228467   8.107   4.438   1.676  0.0723 -0.0026 -0.2687
 9509TIP3    H128468   8.161   4.517   1.682  0.1973 -0.1838  1.4709
 9509TIP3    H228469   8.049   4.443   1.751  0.7076 -2.0141  0.4215
 9510TIP3   OH228470   1.761   5.065   3.241 -0.5462  0.4223 -0.5089
 9510TIP3    H128471   1.733   5.018   3.320  0.8607  0.1511 -0.1480
 9510TIP3    H228472   1.783   5.153   3.272 -2.6514  1.2374 -1.0970
 9511TIP3   OH228473   0.359   6.431   1.755 -0.3188  0.1628  0.3974
 9511TIP3    H128474   0.371   6.407   1.847  0.3597 -0.1800  0.2216
 9511TIP3    H228475   0.274   6.394   1.732 -0.0600 -0.5852  0.6188
 9512TIP3   OH228476   3.659   5.482   2.176 -0.0492  0.5526  0.0346
 9512TIP3    H128477   3.572   5.498   2.213  0.3087  1.1162  0.6535
 9512TIP3    H228478   3.711   5.559   2.201  0.3088  0.8057 -1.3493
 9513TIP3   OH228479   5.681   7.870   5.061  0.6818 -0.8305  0.0816
 9513TIP3    H128480   5.707   7.801   5.122  1.2155 -0.3580  0.4010
 9513TIP3    H228481   5.641   7.824   4.988  0.2793 -1.4220  0.6674
 9514TIP3   OH228482   2.375   7.489   0.254 -0.1246  0.8227 -0.4816
 9514TIP3    H128483   2.282   7.512   0.246 -0.6915 -0.9001  0.6350
 9514TIP3    H228484   2.407   7.544   0.326 -0.4850  0.8709 -0.3551
 9515TIP3   OH228485   6.549   1.212   2.816  0.0873 -0.2307  0.3375
 9515TIP3    H128486   6.641   1.232   2.799 -0.1117  0.4927  0.0705
 9515TIP3    H228487   6.525   1.269   2.889 -0.5046  0.6000 -0.4741
 9516TIP3   OH228488   6.967   1.902   0.582 -0.3495  0.4908 -0.3186
 9516TIP3    H128489   6.989   1.949   0.501  0.7338  0.4211 -0.0748
 9516TIP3    H228490   7.051   1.878   0.620 -0.8681 -1.2654 -0.1892
 9517TIP3   OH228491   6.325   3.002   0.341  0.3540  0.0038  0.4014
 9517TIP3    H128492   6.270   3.071   0.377 -1.0646 -0.6882 -0.3716
 9517TIP3    H228493   6.343   3.029   0.251  0.3398 -0.3141  0.2993
 9518TIP3   OH228494   7.959   5.846   3.059  0.1950  0.7833  0.0340
 9518TIP3    H128495   7.881   5.846   3.115  0.0904  0.9901 -0.1105
 9518TIP3    H228496   7.993   5.935   3.065  0.9116  0.4730  0.7705
 9519TIP3   OH228497   8.204   2.031   1.695 -0.5591 -0.0693  0.1868
 9519TIP3    H128498   8.238   1.989   1.616  1.4587  0.8269  0.5043
 9519TIP3    H228499   8.236   1.977   1.767  0.4072  0.8933  0.5068
 9520TIP3   OH228500   1.753   0.417   1.275  0.5975  0.8834  0.7941
 9520TIP3    H128501   1.744   0.391   1.184 -0.0241  0.4743  0.9659
 9520TIP3    H228502   1.771   0.335   1.322  1.1428  1.1219  1.0100
 9521TIP3   OH228503   5.053   6.370   4.122  0.1525  0.4212 -0.2593
 9521TIP3    H128504   5.017   6.343   4.038 -1.9408  0.8403  0.4605
 9521TIP3    H228505   5.071   6.287   4.168 -0.8983  0.1963 -0.2378
 9522TIP3   OH228506   7.756   7.656   6.012 -0.3312  0.2602 -0.4118
 9522TIP3    H128507   7.788   7.738   6.048  0.8693  0.2774 -1.4367
 9522TIP3    H228508   7.835   7.610   5.982 -0.8748 -1.6318  0.8550
 9523TIP3   OH228509   7.601   4.832   0.316 -0.0886  0.0362 -0.2230
 9523TIP3    H128510   7.560   4.862   0.235  0.7324  1.2230 -0.2199
 9523TIP3    H228511   7.604   4.910   0.372 -0.4158 -0.7116  0.8625
 9524TIP3   OH228512   4.787   0.425   0.509  0.3988  0.1366  0.0994
 9524TIP3    H128513   4.783   0.340   0.465  0.8010  0.8680 -1.4242
 9524TIP3    H228514   4.877   0.432   0.540  0.8164  0.6539 -1.1784
 9525TIP3   OH228515   2.314   7.916   5.609 -0.2544 -0.0955  0.1044
 9525TIP3    H128516   2.326   7.887   5.519  2.6706 -1.1703  0.7503
 9525TIP3    H228517   2.278   7.840   5.654  2.1418 -0.9842  0.6299
 9526TIP3   OH228518   2.517   3.597   3.021  0.0383 -0.2576  0.2390
 9526TIP3    H128519   2.525   3.520   2.963 -2.1565 -0.5305  0.2119
 9526TIP3    H228520   2.545   3.565   3.107 -0.4296 -0.9706  0.1335
 9527TIP3   OH228521   0.565   3.098   3.541 -0.7766  0.2179 -0.1727
 9527TIP3    H128522   0.481   3.079   3.583 -1.1412 -0.4236 -1.1356
 9527TIP3    H228523   0.557   3.058   3.454  0.9693 -0.8873  0.1263
 9528TIP3   OH228524   8.049   0.296   0.603 -0.1316  0.2567  0.4121
 9528TIP3    H128525   8.037   0.360   0.534  0.6911  0.2402  0.2459
 9528TIP3    H228526   8.126   0.246   0.577 -0.8827 -0.9505  0.4258
 9529TIP3   OH228527   8.339   4.204   2.696  0.8656  0.4517  0.6809
 9529TIP3    H128528   8.381   4.241   2.618  0.7700 -0.6284  0.0921
 9529TIP3    H228529   8.378   4.118   2.706 -0.4769 -0.1869  0.6966
 9530TIP3   OH228530   3.610   1.454   0.399 -0.5004 -0.3497  0.5233
 9530TIP3    H128531   3.549   1.527   0.393 -1.2829 -1.1156 -2.0179
 9530TIP3    H228532   3.587   1.397   0.326  3.1113 -0.7912 -0.4746
 9531TIP3   OH228533   2.360   5.975   0.182 -0.6455  0.1816 -0.4171
 9531TIP3    H128534   2.447   6.012   0.192 -1.4708  2.1491 -0.1585
 9531TIP3    H228535   2.334   5.998   0.093 -2.0063  2.2043  0.4357
 9532TIP3   OH228536   1.957   5.474   4.406  0.1772  0.4904  0.5902
 9532TIP3    H128537   1.898   5.548   4.419 -0.0979  0.2889  0.4831
 9532TIP3    H228538   1.900   5.398   4.401  0.3684  0.4006 -0.4728
 9533TIP3   OH228539   4.981   2.992   3.741 -0.3966  0.1284 -0.3650
 9533TIP3    H128540   4.908   3.023   3.687 -0.4752  0.7530  0.0879
 9533TIP3    H228541   4.943   2.926   3.798 -0.1068 -1.3258 -1.7529
 9534TIP3   OH228542   8.153   0.449   5.298  0.1046 -0.4195  0.0040
 9534TIP3    H128543   8.150   0.474   5.391 -0.2986 -1.1877  0.2088
 9534TIP3    H228544   8.093   0.509   5.255  1.1639  0.7202  0.0278
 9535TIP3   OH228545   1.073   4.106   0.804  0.6893 -0.0340 -0.3314
 9535TIP3    H128546   1.113   4.184   0.765  0.5707  0.7032  0.9811
 9535TIP3    H228547   1.131   4.082   0.876  1.7344 -2.2893 -1.7839
 9536TIP3   OH228548   6.109   3.506   2.401  0.0772 -0.0070  0.5946
 9536TIP3    H128549   6.036   3.445   2.397 -1.2622  1.5546 -0.3541
 9536TIP3    H228550   6.075   3.582   2.448  1.3187  0.4859  0.7409
 9537TIP3   OH228551   5.595   2.711   6.228  0.2402  0.5075 -0.0035
 9537TIP3    H128552   5.628   2.801   6.221  0.8539  0.1513 -2.5053
 9537TIP3    H228553   5.655   2.659   6.174 -0.1493 -1.4244  1.3281
 9538TIP3   OH228554   3.454   0.400   3.890 -0.9136  0.0110 -0.2041
 9538TIP3    H128555   3.464   0.320   3.941  1.5566  0.5319  0.3097
 9538TIP3    H228556   3.490   0.378   3.804 -0.4764  0.4594 -0.1438
 9539TIP3   OH228557   2.987   4.161   2.145  0.6804 -0.1730  0.0930
 9539TIP3    H128558   2.994   4.169   2.050  2.8058 -0.2741  0.1907
 9539TIP3    H228559   2.975   4.251   2.176  1.7163  0.0771 -0.1940
 9540TIP3   OH228560   5.232   6.240   5.156 -0.2047 -0.0486  0.2679
 9540TIP3    H128561   5.223   6.173   5.089  1.6061  0.6469 -0.7640
 9540TIP3    H228562   5.228   6.323   5.108  1.1827  0.4625  0.9742
 9541TIP3   OH228563   2.080   7.277   5.610 -0.4246 -0.0808  0.8702
 9541TIP3    H128564   2.110   7.206   5.667  1.4792 -1.0005 -1.1369
 9541TIP3    H228565   2.083   7.355   5.665 -0.7844 -1.2468  2.6212
 9542TIP3   OH228566   4.594   4.171   2.902 -0.4079 -0.1970 -0.1240
 9542TIP3    H128567   4.603   4.083   2.867 -0.7319  0.3603 -1.6736
 9542TIP3    H228568   4.524   4.211   2.850  0.4102  1.3015 -0.1332
 9543TIP3   OH228569   5.613   6.276   2.226 -0.1492 -0.5442  0.1728
 9543TIP3    H128570   5.557   6.345   2.261 -0.2599 -0.3896 -0.2958
 9543TIP3    H228571   5.581   6.196   2.268  0.4870 -0.2241  1.3063
 9544TIP3   OH228572   8.374   7.702   3.898  0.1582  0.5077  0.1887
 9544TIP3    H128573   8.290   7.660   3.917 -0.4424 -0.5248 -3.7992
 9544TIP3    H228574   8.439   7.633   3.911 -0.3467 -0.4947 -2.1252
 9545TIP3   OH228575   6.773   3.619   0.669  0.5462 -0.0664  0.7075
 9545TIP3    H128576   6.796   3.620   0.761  1.0778 -1.0565  0.5925
 9545TIP3    H228577   6.856   3.625   0.622  0.3168 -0.0663  0.2881
 9546TIP3   OH228578   7.887   7.767   3.961  0.0333  0.5732  0.0629
 9546TIP3    H128579   7.957   7.832   3.961  0.0638  0.5403 -0.5461
 9546TIP3    H228580   7.896   7.720   3.878  0.3818 -0.6226  0.7546
 9547TIP3   OH228581   0.582   2.570   6.607  0.1824 -0.4753 -0.1183
 9547TIP3    H128582   0.648   2.508   6.575  0.1196 -0.4685 -0.2591
 9547TIP3    H228583   0.554   2.618   6.529  2.5676  2.0106  0.3701
 9548TIP3   OH228584   1.990   5.582   3.428 -0.5040 -0.0703  0.2694
 9548TIP3    H128585   2.019   5.542   3.511  1.5047 -0.3468 -0.5038
 9548TIP3    H228586   1.967   5.507   3.373  0.6382 -0.0488 -0.2609
 9549TIP3   OH228587   7.463   3.402   3.724  0.0076 -0.4357 -0.5807
 9549TIP3    H128588   7.501   3.364   3.645 -1.1417 -0.9640 -0.8911
 9549TIP3    H228589   7.382   3.354   3.738 -1.1841  1.4704 -0.6286
 9550TIP3   OH228590   3.601   0.771   2.671 -0.5244 -0.3554  0.3488
 9550TIP3    H128591   3.516   0.726   2.672 -0.0033 -1.4608 -1.3822
 9550TIP3    H228592   3.603   0.816   2.587  0.3145  0.2731  0.6950
 9551TIP3   OH228593   1.688   0.657   2.458  0.2291 -0.2808 -0.0601
 9551TIP3    H128594   1.782   0.642   2.470  0.1925  0.0584  0.6728
 9551TIP3    H228595   1.647   0.602   2.524 -0.2039 -2.0344 -1.6904
 9552TIP3   OH228596   1.367   0.366   5.825  0.4073 -0.0124  0.4735
 9552TIP3    H128597   1.322   0.446   5.851 -0.0092 -0.4131  1.0210
 9552TIP3    H228598   1.332   0.346   5.738  2.6161  1.9294 -0.9690
 9553TIP3   OH228599   7.936   6.866   0.971  0.6335 -0.5947 -0.6307
 9553TIP3    H128600   7.904   6.951   1.002 -0.0116 -0.9092 -0.4083
 9553TIP3    H228601   8.027   6.863   0.999  1.6528  1.3012 -3.2548
 9554TIP3   OH228602   6.845   6.067   3.288 -0.5321  0.3356 -0.6039
 9554TIP3    H128603   6.767   6.122   3.294 -0.6376  0.1770 -0.5207
 9554TIP3    H228604   6.918   6.127   3.301 -0.6965  0.1888  1.2412
 9555TIP3   OH228605   5.869   6.982   6.274 -0.6929 -1.0125 -0.2671
 9555TIP3    H128606   5.848   6.947   6.360 -0.3281  0.0261  0.2685
 9555TIP3    H228607   5.943   6.929   6.244 -0.7036 -1.2640  0.1404
 9556TIP3   OH228608   3.018   6.750   4.658 -0.2797  0.0353  0.2996
 9556TIP3    H128609   3.090   6.704   4.614 -1.0271  0.2486 -1.2033
 9556TIP3    H228610   2.939   6.712   4.621 -0.9221  1.3488  0.2621
 9557TIP3   OH228611   6.453   2.546   5.161  0.2110  0.2271  0.6905
 9557TIP3    H128612   6.493   2.523   5.244  1.5267  1.6663  0.5043
 9557TIP3    H228613   6.525   2.545   5.098 -0.6086 -0.0354 -0.2704
 9558TIP3   OH228614   7.907   1.809   3.688  0.2936  0.4850  0.3215
 9558TIP3    H128615   7.936   1.848   3.605 -0.1067 -0.2048 -0.1542
 9558TIP3    H228616   7.936   1.718   3.684  1.3667  0.7419  1.5030
 9559TIP3   OH228617   6.733   7.142   5.888 -0.5370  0.2241  0.3970
 9559TIP3    H128618   6.738   7.079   5.960  3.6397  1.0432  1.0646
 9559TIP3    H228619   6.695   7.220   5.928 -1.2206 -0.3224  0.8412
 9560TIP3   OH228620   3.268   1.304   1.760 -0.3405 -0.0531  0.1721
 9560TIP3    H128621   3.266   1.287   1.666  0.2118  0.7758  0.0064
 9560TIP3    H228622   3.279   1.398   1.768  1.9032 -0.3266  1.0425
 9561TIP3   OH228623   1.956   2.602   6.353 -0.0250 -0.0500  0.2889
 9561TIP3    H128624   1.922   2.561   6.274 -1.5720  0.6474  0.5549
 9561TIP3    H228625   1.891   2.583   6.421 -0.0402  1.5237  0.7653
 9562TIP3   OH228626   1.229   4.834   3.379 -0.0068  0.6459 -0.2856
 9562TIP3    H128627   1.189   4.824   3.293 -1.0891 -0.6309  0.3131
 9562TIP3    H228628   1.319   4.859   3.361 -1.1078  4.2310 -1.7016
 9563TIP3   OH228629   6.012   5.850   3.232 -0.7555  0.8715 -0.2957
 9563TIP3    H128630   6.080   5.865   3.166  1.6808  1.2518  2.1336
 9563TIP3    H228631   5.987   5.758   3.221  2.4777 -0.2391  0.6935
 9564TIP3   OH228632   3.662   5.022   5.178 -0.2064  0.0922  0.1993
 9564TIP3    H128633   3.716   4.949   5.147  1.5467  1.9116 -1.2555
 9564TIP3    H228634   3.580   5.013   5.129 -0.8443 -1.9739  1.5050
 9565TIP3   OH228635   4.312   5.524   4.853  0.0121  0.8837 -0.3544
 9565TIP3    H128636   4.334   5.434   4.878  0.6330  0.5814 -1.8720
 9565TIP3    H228637   4.305   5.571   4.936  0.4050 -0.4041  0.4357
 9566TIP3   OH228638   8.064   0.780   3.450 -0.0560  0.0605  0.0985
 9566TIP3    H128639   8.044   0.874   3.453  1.0678  0.4424 -2.4461
 9566TIP3    H228640   7.991   0.742   3.402  0.1997 -0.1647 -0.1068
 9567TIP3   OH228641   0.500   5.645   1.427 -0.0052 -0.0978  0.4638
 9567TIP3    H128642   0.433   5.695   1.382 -0.4325 -0.8008  0.3070
 9567TIP3    H228643   0.530   5.703   1.497 -2.3896 -0.5966  2.0039
 9568TIP3   OH228644   2.735   3.455   0.592 -0.0062  0.2902 -0.0433
 9568TIP3    H128645   2.728   3.383   0.529 -0.3094 -0.4782  0.8494
 9568TIP3    H228646   2.750   3.412   0.676 -4.1299  0.9245  1.2647
 9569TIP3   OH228647   3.076   4.390   5.850  0.4807 -0.3643 -0.3472
 9569TIP3    H128648   2.990   4.421   5.880  0.8173  1.3375 -1.0717
 9569TIP3    H228649   3.063   4.296   5.834 -0.9609 -0.3461  0.5249
 9570TIP3   OH228650   6.089   5.040   4.123 -0.2820  0.1902 -0.6061
 9570TIP3    H128651   6.003   5.075   4.145 -0.6376 -0.9780 -0.0610
 9570TIP3    H228652   6.149   5.083   4.184 -0.8628 -0.9212  0.8009
 9571TIP3   OH228653   4.487   1.392   0.952 -0.5847 -0.3848 -0.3211
 9571TIP3    H128654   4.483   1.325   1.020 -1.8474  1.5723  1.6497
 9571TIP3    H228655   4.397   1.421   0.940 -0.1006  0.8449 -1.2486
 9572TIP3   OH228656   2.335   2.318   3.153 -0.2658  0.1042 -0.1879
 9572TIP3    H128657   2.398   2.358   3.212  1.0534  0.1204 -1.5372
 9572TIP3    H228658   2.284   2.259   3.208 -0.6767  1.8515  1.3808
 9573TIP3   OH228659   4.026   7.612   0.147 -0.7070 -0.8104  0.0184
 9573TIP3    H128660   4.029   7.660   0.230  0.7903 -0.5293 -0.1742
 9573TIP3    H228661   4.086   7.539   0.160 -1.2195 -1.3359 -0.4935
 9574TIP3   OH228662   0.950   2.536   4.801 -0.3579  0.3019  0.2405
 9574TIP3    H128663   0.872   2.488   4.776  0.4993 -1.2386  0.3857
 9574TIP3    H228664   1.015   2.514   4.733  0.3047  0.5882  0.7625
 9575TIP3   OH228665   6.376   1.184   4.446 -0.4770 -0.3894  0.0414
 9575TIP3    H128666   6.285   1.206   4.423 -0.2042  0.5478 -0.1846
 9575TIP3    H228667   6.383   1.206   4.538  0.1960  1.9773 -0.5049
 9576TIP3   OH228668   6.311   4.947   2.937 -0.2294 -0.4196  0.2110
 9576TIP3    H128669   6.266   4.938   2.853 -0.8156 -3.0116  0.7098
 9576TIP3    H228670   6.319   4.857   2.970  0.7374  0.4318  2.5436
 9577TIP3   OH228671   6.479   2.702   4.796 -0.4530 -0.8126  0.4290
 9577TIP3    H128672   6.391   2.678   4.826  0.5473 -4.3317  1.0180
 9577TIP3    H228673   6.537   2.659   4.859  1.7587  1.8223  0.3459
 9578TIP3   OH228674   7.336   5.729   4.457  0.0244  0.1023  0.5622
 9578TIP3    H128675   7.345   5.823   4.472 -0.7927  1.1366 -3.8244
 9578TIP3    H228676   7.244   5.710   4.473 -0.0401  0.3172  0.4485
 9579TIP3   OH228677   1.618   6.130   1.050  0.3021 -0.5536 -0.0805
 9579TIP3    H128678   1.676   6.188   1.099 -2.3311  1.1366  1.2190
 9579TIP3    H228679   1.592   6.062   1.113 -1.5825  0.5416  0.3992
 9580TIP3   OH228680   1.602   7.240   5.779  0.2362  0.1557  0.3501
 9580TIP3    H128681   1.523   7.239   5.726  0.2171  0.9896  0.3428
 9580TIP3    H228682   1.673   7.254   5.717  0.3122  0.1579  0.4370
 9581TIP3   OH228683   6.211   5.253   3.728  0.8870 -0.3736 -0.5730
 9581TIP3    H128684   6.182   5.231   3.639 -0.2663 -1.5087  0.0432
 9581TIP3    H228685   6.197   5.173   3.778  0.6341  0.5161  0.8411
 9582TIP3   OH228686   5.437   4.015   6.538 -0.7448  0.7489 -0.3716
 9582TIP3    H128687   5.514   3.999   6.592 -0.4737  1.3871 -0.5633
 9582TIP3    H228688   5.383   4.075   6.590 -0.0691  2.0835 -1.1555
 9583TIP3   OH228689   4.232   6.728   6.758  0.0932  0.6385 -0.2570
 9583TIP3    H128690   4.221   6.663   6.828 -2.9270  0.5985 -0.6416
 9583TIP3    H228691   4.221   6.677   6.677 -1.7520  1.4913 -0.5766
 9584TIP3   OH228692   7.321   6.334   1.245 -0.2377  0.2203  0.2465
 9584TIP3    H128693   7.321   6.374   1.332 -2.5078 -0.1756  0.4784
 9584TIP3    H228694   7.260   6.388   1.195  0.8543  0.2890 -1.0680
 9585TIP3   OH228695   2.904   4.740   3.679  0.4273  0.0978  0.2013
 9585TIP3    H128696   2.828   4.780   3.721 -0.4214 -1.0307 -0.2174
 9585TIP3    H228697   2.971   4.809   3.680  0.0662  0.4758  2.3214
 9586TIP3   OH228698   0.469   2.453   1.515 -0.0596  0.2712  0.7672
 9586TIP3    H128699   0.504   2.488   1.433 -0.0406  0.8546  1.0211
 9586TIP3    H228700   0.424   2.527   1.556  0.0230  0.0137  1.3343
 9587TIP3   OH228701   4.865   2.753   3.005  0.2496 -0.2576  0.2310
 9587TIP3    H128702   4.944   2.755   3.059 -0.7625  0.2192  1.7415
 9587TIP3    H228703   4.861   2.840   2.965 -0.6762  0.5256  1.9408
 9588TIP3   OH228704   3.322   0.918   1.222 -0.3254 -0.3344 -0.4091
 9588TIP3    H128705   3.300   0.862   1.147 -1.0739 -2.1706  1.0722
 9588TIP3    H228706   3.417   0.923   1.222 -0.3425  1.4412 -2.6217
 9589TIP3   OH228707   1.051   5.258   3.428 -0.2890  0.1042 -0.0540
 9589TIP3    H128708   1.098   5.252   3.344  1.1416  3.1866  0.3847
 9589TIP3    H228709   1.103   5.205   3.488 -0.1280 -0.4197 -0.6452
 9590TIP3   OH228710   8.050   2.634   5.897 -0.1752  0.3319 -0.5529
 9590TIP3    H128711   8.118   2.701   5.890  1.7608 -1.3424  0.7945
 9590TIP3    H228712   7.969   2.678   5.874  0.8324  3.3870  1.2618
 9591TIP3   OH228713   1.621   3.680   0.999 -0.4753  0.4624 -0.1914
 9591TIP3    H128714   1.685   3.619   0.962  0.1780  0.9113  0.1770
 9591TIP3    H228715   1.598   3.737   0.926  1.1008  1.5904  0.1451
 9592TIP3   OH228716   7.751   6.770   0.826 -0.6143  0.6832  0.3809
 9592TIP3    H128717   7.796   6.838   0.875  1.8719  0.4109 -1.3178
 9592TIP3    H228718   7.801   6.690   0.845 -1.6536 -0.0776  0.0107
 9593TIP3   OH228719   2.315   1.587   5.492  0.0457 -0.0166  0.1922
 9593TIP3    H128720   2.351   1.668   5.455 -0.4644 -0.0619 -0.4200
 9593TIP3    H228721   2.221   1.592   5.474 -0.3585  0.3238  2.2196
 9594TIP3   OH228722   8.347   3.821   6.571 -0.1055 -0.0800 -0.1584
 9594TIP3    H128723   8.402   3.865   6.636 -0.8300  1.3938 -0.4998
 9594TIP3    H228724   8.325   3.889   6.507 -2.9594 -0.3631  0.3740
 9595TIP3   OH228725   6.416   4.591   4.720 -0.5491 -0.7449  0.5178
 9595TIP3    H128726   6.468   4.671   4.713 -1.4716 -0.2171 -0.8694
 9595TIP3    H228727   6.446   4.549   4.800  1.6064 -0.1884  0.0624
 9596TIP3   OH228728   2.991   5.734   5.745  0.6031 -0.0115  0.1772
 9596TIP3    H128729   2.959   5.647   5.766  1.1879 -0.1397  0.5661
 9596TIP3    H228730   3.086   5.724   5.741  0.8401  0.9655  2.0883
 9597TIP3   OH228731   5.305   6.490   0.961  0.2727  0.2421  0.0195
 9597TIP3    H128732   5.333   6.574   0.923  0.2869  0.3653  0.2979
 9597TIP3    H228733   5.361   6.425   0.919  0.6230  0.4309  0.1866
 9598TIP3   OH228734   4.219   0.841   2.868 -0.4246  0.1219 -0.4202
 9598TIP3    H128735   4.304   0.804   2.889 -0.3581 -1.6712 -3.2689
 9598TIP3    H228736   4.161   0.765   2.859 -2.0370  1.2176  0.2480
 9599TIP3   OH228737   1.134   0.979   3.141 -0.0609  0.3067  0.5377
 9599TIP3    H128738   1.090   1.063   3.126 -0.1308 -0.1542 -2.2044
 9599TIP3    H228739   1.223   0.992   3.108  0.1147 -0.5221  0.6658
 9600TIP3   OH228740   1.420   0.571   3.157  0.2018  0.5508  0.0356
 9600TIP3    H128741   1.447   0.542   3.070  0.4595 -2.6233  1.0649
 9600TIP3    H228742   1.497   0.618   3.191  0.0008  2.0717 -1.4536
 9601TIP3   OH228743   8.365   1.524   3.684  0.5829  0.3286 -0.2509
 9601TIP3    H128744   8.430   1.456   3.666 -1.2945 -1.2733 -1.3989
 9601TIP3    H228745   8.300   1.480   3.740  0.1822  1.7002  0.3970
 9602TIP3   OH228746   6.276   2.665   4.979  0.0681 -0.4956  0.4053
 9602TIP3    H128747   6.338   2.632   5.043  0.6755 -0.1286  0.0132
 9602TIP3    H228748   6.197   2.685   5.030  0.0985 -1.4076  0.8245
 9603TIP3   OH228749   1.604   1.901   1.740  0.0567 -0.0926  0.4657
 9603TIP3    H128750   1.519   1.943   1.727 -0.2135 -0.3211  1.4540
 9603TIP3    H228751   1.612   1.890   1.835  0.1782 -2.1294  0.2593
 9604TIP3   OH228752   6.833   1.847   2.687 -0.1897 -0.1760 -0.1729
 9604TIP3    H128753   6.797   1.919   2.739 -0.1786 -0.0372 -0.3570
 9604TIP3    H228754   6.848   1.885   2.600 -0.6764 -0.5424 -0.4184
 9605TIP3   OH228755   7.081   6.100   1.572  0.5235  0.4556 -0.0294
 9605TIP3    H128756   7.004   6.156   1.558  0.6372  0.5954 -0.1050
 9605TIP3    H228757   7.124   6.099   1.487 -0.2753 -0.9612 -0.4463
 9606TIP3   OH228758   6.199   5.723   5.883 -0.6086  0.0188 -0.3477
 9606TIP3    H128759   6.281   5.686   5.849 -0.3913  1.3194 -1.3215
 9606TIP3    H228760   6.138   5.716   5.809 -0.8978  0.5363 -0.1616
 9607TIP3   OH228761   1.515   0.731   2.882 -0.1489  0.1110  0.2931
 9607TIP3    H128762   1.436   0.689   2.850  0.7567 -1.0937 -0.4537
 9607TIP3    H228763   1.581   0.662   2.882  0.6967  0.8544  1.7706
 9608TIP3   OH228764   1.451   7.579   3.181  0.0628 -0.3480 -0.0414
 9608TIP3    H128765   1.469   7.533   3.263 -0.2431  0.1705  0.3210
 9608TIP3    H228766   1.521   7.644   3.173  0.7876 -1.1988 -0.8109
 9609TIP3   OH228767   6.212   7.596   3.907 -0.7830  0.4083 -0.0280
 9609TIP3    H128768   6.187   7.504   3.903 -1.5714  0.6596 -2.5980
 9609TIP3    H228769   6.304   7.597   3.880 -0.3279  0.2768  1.4310
 9610TIP3   OH228770   4.359   1.605   6.814 -0.2074 -0.5380  0.0399
 9610TIP3    H128771   4.294   1.573   6.876  0.3511 -0.1094  0.8738
 9610TIP3    H228772   4.362   1.539   6.745 -0.6505 -1.1624  0.6074
 9611TIP3   OH228773   1.221   3.704   6.076  0.0323 -0.1964 -0.6992
 9611TIP3    H128774   1.299   3.656   6.103 -0.5732 -2.0584 -2.0587
 9611TIP3    H228775   1.151   3.668   6.131  0.1338  1.7494  0.7991
 9612TIP3   OH228776   5.542   3.329   3.993  0.5964 -0.0375  0.0122
 9612TIP3    H128777   5.494   3.290   3.921 -1.4110 -0.7734  1.6308
 9612TIP3    H228778   5.634   3.319   3.970  0.0278 -1.2075 -1.9187
 9613TIP3   OH228779   1.726   3.040   0.373 -0.2146 -0.0247  0.0082
 9613TIP3    H128780   1.631   3.043   0.376 -0.1948  0.7797 -0.0198
 9613TIP3    H228781   1.751   2.975   0.439 -0.8349 -1.3677 -1.0243
 9614TIP3   OH228782   4.093   2.539   5.465 -0.0713 -0.1654  0.0202
 9614TIP3    H128783   4.133   2.495   5.390 -0.8260  0.0122 -0.4974
 9614TIP3    H228784   4.093   2.473   5.534 -1.6149 -1.1850 -0.8899
 9615TIP3   OH228785   7.111   3.909   1.498  0.0644 -0.2762  0.3435
 9615TIP3    H128786   7.205   3.923   1.491 -0.0806  0.3695 -0.5395
 9615TIP3    H228787   7.091   3.845   1.429 -0.4966  1.4775 -1.1881
 9616TIP3   OH228788   5.033   2.610   0.693  0.0846  0.6462 -0.4832
 9616TIP3    H128789   5.003   2.527   0.730  1.3643 -0.2536 -1.3483
 9616TIP3    H228790   5.095   2.644   0.758  0.2368  0.4645 -0.5313
 9617TIP3   OH228791   7.291   3.953   5.306 -0.0693  0.2002  0.0516
 9617TIP3    H128792   7.221   3.976   5.367 -1.4642 -0.1160 -1.3821
 9617TIP3    H228793   7.316   3.864   5.332 -0.2120  0.3038  0.5565
 9618TIP3   OH228794   3.079   5.981   4.726 -0.3437 -0.1776 -0.0453
 9618TIP3    H128795   3.112   5.947   4.643  0.3855 -0.3083  0.2936
 9618TIP3    H228796   3.074   5.904   4.784  0.4213  0.1232  0.4353
 9619TIP3   OH228797   1.119   1.351   0.681 -0.0931  0.3916 -0.4755
 9619TIP3    H128798   1.038   1.340   0.730  0.6993 -1.7301  0.4956
 9619TIP3    H228799   1.156   1.433   0.713 -0.4207 -0.1146  1.2889
 9620TIP3   OH228800   5.928   3.940   5.047  0.4986  0.0976 -0.1482
 9620TIP3    H128801   5.895   3.907   5.130 -0.7951  1.6516  0.0001
 9620TIP3    H228802   5.874   3.897   4.981 -1.5872  2.2307  0.0701
 9621TIP3   OH228803   2.255   4.878   3.285  0.0847 -0.3394 -0.3183
 9621TIP3    H128804   2.347   4.861   3.306  0.5948  2.4741  0.1197
 9621TIP3    H228805   2.255   4.966   3.247 -2.3606 -0.5407 -0.9659
 9622TIP3   OH228806   3.161   3.790   0.408 -1.0610  0.0142  0.1023
 9622TIP3    H128807   3.154   3.886   0.411 -1.7632 -0.0471  1.4272
 9622TIP3    H228808   3.235   3.771   0.466  0.4317 -0.1714 -1.7696
 9623TIP3   OH228809   1.794   2.424   3.440  0.2534  0.3188  0.1163
 9623TIP3    H128810   1.712   2.453   3.479 -1.1393  0.9137 -2.9609
 9623TIP3    H228811   1.848   2.504   3.435 -0.6328  0.8501 -1.5368
 9624TIP3   OH228812   6.155   0.782   1.459  0.4442  0.3638  0.4252
 9624TIP3    H128813   6.245   0.764   1.430  0.2501  0.6067 -0.3496
 9624TIP3    H228814   6.136   0.713   1.521  1.5853  0.9601  1.4889
 9625TIP3   OH228815   2.939   6.216   4.113 -0.4158  0.3403  0.3445
 9625TIP3    H128816   2.851   6.190   4.140 -0.1007 -0.4112  0.6644
 9625TIP3    H228817   2.926   6.298   4.066 -1.3015  0.1938  0.3143
 9626TIP3   OH228818   2.797   1.631   1.881  0.0988  0.5175 -0.1772
 9626TIP3    H128819   2.754   1.701   1.833 -2.0171  0.0554  0.9412
 9626TIP3    H228820   2.791   1.555   1.822 -1.1246  0.3253  0.1843
 9627TIP3   OH228821   7.517   7.902   2.652  0.1523  0.7171  0.3711
 9627TIP3    H128822   7.611   7.883   2.644 -0.2835 -3.7425  2.6756
 9627TIP3    H228823   7.507   7.937   2.740 -0.5431 -2.2916  1.6138
 9628TIP3   OH228824   4.630   1.844   1.434 -0.3892  0.4456 -0.4493
 9628TIP3    H128825   4.556   1.821   1.490 -1.1687  0.8703 -1.2893
 9628TIP3    H228826   4.676   1.913   1.483 -2.6581  2.8830 -1.4815
 9629TIP3   OH228827   4.078   3.801   2.502  0.4173 -0.2870 -0.0190
 9629TIP3    H128828   4.142   3.738   2.469 -0.2327 -1.1294  0.2878
 9629TIP3    H228829   4.023   3.751   2.562 -0.5549  0.3967 -0.2980
 9630TIP3   OH228830   4.697   2.416   5.602 -0.2083 -0.0205  0.2321
 9630TIP3    H128831   4.609   2.413   5.639  0.3091 -2.1984  1.5068
 9630TIP3    H228832   4.755   2.418   5.678  0.8530 -2.4020 -0.3942
 9631TIP3   OH228833   7.650   0.432   4.391  0.1924 -0.1872  0.0912
 9631TIP3    H128834   7.705   0.510   4.403  0.1995  0.0577 -1.3612
 9631TIP3    H228835   7.643   0.394   4.479  3.2298 -0.5928  0.2675
 9632TIP3   OH228836   0.892   3.372   4.962  0.7373  0.0473  0.5402
 9632TIP3    H128837   0.957   3.426   5.006  1.6265 -0.5744  0.0278
 9632TIP3    H228838   0.870   3.421   4.882 -0.6378  1.0203  1.4756
 9633TIP3   OH228839   5.609   7.436   0.130 -0.9850  0.1810 -0.3735
 9633TIP3    H128840   5.549   7.403   0.063 -1.0051  0.9341 -0.7299
 9633TIP3    H228841   5.657   7.506   0.088  0.8265 -0.9905 -0.3758
 9634TIP3   OH228842   1.144   1.399   1.091 -0.3970 -0.0781 -0.1736
 9634TIP3    H128843   1.200   1.452   1.147 -0.2595  0.5567 -0.9021
 9634TIP3    H228844   1.063   1.450   1.081  0.1625  0.5563 -1.7934
 9635TIP3   OH228845   7.715   5.135   6.304  0.1555 -0.2829 -0.4366
 9635TIP3    H128846   7.704   5.198   6.376  1.4308 -1.5234  0.9084
 9635TIP3    H228847   7.755   5.186   6.233 -1.1480  0.9711 -0.3343
 9636TIP3   OH228848   6.840   1.287   4.900  0.3572  0.0704 -0.0292
 9636TIP3    H128849   6.894   1.361   4.928 -1.4139  1.4705 -0.1499
 9636TIP3    H228850   6.774   1.279   4.969 -1.2965  0.6162 -1.4963
 9637TIP3   OH228851   1.255   2.758   3.687 -0.5864  0.2412 -0.7176
 9637TIP3    H128852   1.348   2.773   3.704 -0.1817 -0.8651 -1.7709
 9637TIP3    H228853   1.216   2.845   3.684  0.5534  0.7556 -0.9756
 9638TIP3   OH228854   2.562   5.859   5.151  0.0247 -0.0728 -0.3455
 9638TIP3    H128855   2.638   5.915   5.170 -0.1209 -0.5648  1.9574
 9638TIP3    H228856   2.537   5.823   5.236 -0.4047 -3.0169 -1.6166
 9639TIP3   OH228857   7.348   6.818   4.444 -0.2995 -0.4022  0.5087
 9639TIP3    H128858   7.274   6.759   4.437 -0.0185 -0.6800 -0.3008
 9639TIP3    H228859   7.412   6.771   4.497 -0.4942 -0.3756  0.7688
 9640TIP3   OH228860   1.282   4.548   2.691  0.0331  0.6358 -0.0293
 9640TIP3    H128861   1.332   4.511   2.764 -1.1998  0.2279  0.6285
 9640TIP3    H228862   1.345   4.606   2.647  1.0071  0.3427  0.9198
 9641TIP3   OH228863   0.336   3.370   3.718  0.2108 -0.3535  0.8590
 9641TIP3    H128864   0.377   3.450   3.753  1.9616 -0.6812 -0.2982
 9641TIP3    H228865   0.385   3.298   3.759 -2.0514 -0.9451  2.7301
 9642TIP3   OH228866   1.398   0.948   0.546 -0.8221 -0.6331  0.5221
 9642TIP3    H128867   1.387   1.042   0.559 -1.0891 -0.5985  0.0689
 9642TIP3    H228868   1.491   0.932   0.559 -0.1867  0.1884 -2.3775
 9643TIP3   OH228869   7.611   5.074   6.724 -0.2793 -0.1247  0.5587
 9643TIP3    H128870   7.552   5.131   6.774 -1.0599  1.1497 -1.6846
 9643TIP3    H228871   7.624   5.119   6.641  0.5056 -2.4047 -0.6549
 9644TIP3   OH228872   5.447   4.500   4.969 -0.3604  0.1168 -0.3449
 9644TIP3    H128873   5.529   4.546   4.984 -0.2819 -0.3809  0.9135
 9644TIP3    H228874   5.403   4.551   4.901  0.5051  1.0091 -0.2644
 9645TIP3   OH228875   2.948   4.821   4.654 -0.1142  0.1050  0.1487
 9645TIP3    H128876   3.021   4.882   4.658 -0.7168  1.1080 -2.4103
 9645TIP3    H228877   2.987   4.737   4.631  0.3813  0.2384  0.4928
 9646TIP3   OH228878   1.044   7.079   4.066 -0.0673  0.2876 -0.2075
 9646TIP3    H128879   1.121   7.061   4.120  0.9167  2.5214 -0.7845
 9646TIP3    H228880   1.030   6.998   4.016  1.4359 -0.4064  0.4420
 9647TIP3   OH228881   5.101   7.308   2.556  0.2504  0.0097  0.0610
 9647TIP3    H128882   5.189   7.277   2.579 -0.1064  0.1306  1.7420
 9647TIP3    H228883   5.116   7.393   2.514  0.9607 -0.1847 -0.0922
 9648TIP3   OH228884   3.977   4.807   3.779 -0.1389  0.6303  0.1997
 9648TIP3    H128885   3.882   4.801   3.769  0.0974 -0.7378 -1.8132
 9648TIP3    H228886   3.993   4.901   3.788 -1.4920  1.2827 -2.7580
 9649TIP3   OH228887   6.693   0.198   2.260  0.1394 -0.3334  0.6896
 9649TIP3    H128888   6.650   0.126   2.214  0.7627 -0.4660  0.3127
 9649TIP3    H228889   6.728   0.158   2.340  1.2122 -0.6328  0.0782
 9650TIP3   OH228890   4.706   2.824   2.610  0.7243  0.0815  0.7524
 9650TIP3    H128891   4.769   2.894   2.621  1.3769  0.0555 -1.9919
 9650TIP3    H228892   4.641   2.859   2.548  0.0740 -1.1218  0.7064
 9651TIP3   OH228893   3.716   1.407   6.734  0.2865  0.1833 -0.3314
 9651TIP3    H128894   3.650   1.428   6.801  1.2516 -0.0562  0.7263
 9651TIP3    H228895   3.667   1.362   6.665 -0.6771  0.1109  0.3786
 9652TIP3   OH228896   5.330   0.719   2.983 -0.5521 -0.7122  0.2743
 9652TIP3    H128897   5.384   0.798   2.986 -1.0207 -0.3555 -0.3549
 9652TIP3    H228898   5.381   0.653   3.029 -0.1765 -0.0258  0.8622
 9653TIP3   OH228899   0.198   5.274   5.497 -0.3782  0.6250 -0.0576
 9653TIP3    H128900   0.131   5.280   5.565 -0.6418 -1.2130 -0.1131
 9653TIP3    H228901   0.181   5.191   5.453  1.4373  0.5015 -0.6146
 9654TIP3   OH228902   2.129   0.925   1.938  0.6812 -0.4656 -0.3927
 9654TIP3    H128903   2.152   0.983   2.011  1.4941 -1.5340  0.2329
 9654TIP3    H228904   2.211   0.881   1.915  0.3110 -0.5682 -1.5803
 9655TIP3   OH228905   3.660   6.883   1.553  0.2103 -0.0428 -0.3896
 9655TIP3    H128906   3.587   6.928   1.510 -1.5778 -1.4463  0.9761
 9655TIP3    H228907   3.676   6.935   1.632  0.0634 -0.2259 -0.2381
 9656TIP3   OH228908   4.525   2.049   4.898 -0.3702 -0.5001 -0.1196
 9656TIP3    H128909   4.452   1.994   4.927 -0.0158 -0.6279  0.5604
 9656TIP3    H228910   4.521   2.125   4.956  1.3704 -1.5279  1.4595
 9657TIP3   OH228911   5.102   7.062   4.404  0.1030 -0.1268  0.1390
 9657TIP3    H128912   5.038   6.991   4.417 -2.2354  1.5864 -1.2258
 9657TIP3    H228913   5.088   7.121   4.478  0.3851  0.0561  0.0480
 9658TIP3   OH228914   0.199   3.552   2.317 -0.0939 -0.3624 -0.4595
 9658TIP3    H128915   0.148   3.580   2.241 -0.0625  1.3717  0.1301
 9658TIP3    H228916   0.255   3.482   2.283 -0.3230  0.1394 -1.9548
 9659TIP3   OH228917   7.401   4.386   3.257  0.4413  0.1370  0.3971
 9659TIP3    H128918   7.490   4.353   3.261  0.3451  0.0200  2.2209
 9659TIP3    H228919   7.347   4.309   3.238  0.5516 -0.1277  1.1552
 9660TIP3   OH228920   3.274   4.704   6.460  1.1191 -0.1032 -0.3429
 9660TIP3    H128921   3.333   4.631   6.439 -0.1290 -1.6088  1.0742
 9660TIP3    H228922   3.195   4.686   6.410  0.3444 -0.4602  0.9518
 9661TIP3   OH228923   0.721   1.649   1.516  0.0090 -0.2847 -0.4738
 9661TIP3    H128924   0.765   1.732   1.495  1.7807 -1.0286  0.0838
 9661TIP3    H228925   0.677   1.665   1.599  0.3296  0.1078 -0.3756
 9662TIP3   OH228926   5.412   2.870   4.187 -0.3949 -0.2154 -0.3920
 9662TIP3    H128927   5.420   2.848   4.095  0.2327  2.9209 -1.1906
 9662TIP3    H228928   5.436   2.962   4.193 -0.1202 -0.3466  2.9700
 9663TIP3   OH228929   7.039   4.614   1.830  0.0051 -0.5443 -0.2147
 9663TIP3    H128930   6.998   4.591   1.747  0.0055  1.2560 -0.7690
 9663TIP3    H228931   6.977   4.586   1.897 -1.3766  0.5641 -0.9630
 9664TIP3   OH228932   0.020   1.355   6.502  0.5557 -0.2087  0.1613
 9664TIP3    H128933   0.098   1.410   6.502 -0.1339  0.8048  1.1601
 9664TIP3    H228934  -0.053   1.416   6.515 -0.2531 -1.3269  1.0832
 9665TIP3   OH228935   5.373   7.144   0.239  0.5404  0.2860 -0.2598
 9665TIP3    H128936   5.371   7.125   0.332  1.6444 -0.2512 -0.3321
 9665TIP3    H228937   5.460   7.117   0.210 -0.1521 -0.6075 -1.6621
 9666TIP3   OH228938   1.684   1.242   3.574 -0.1060 -0.5041 -0.6864
 9666TIP3    H128939   1.668   1.330   3.608 -0.7400 -0.6222 -0.6634
 9666TIP3    H228940   1.765   1.214   3.617  1.3528  0.9170 -2.3620
 9667TIP3   OH228941   3.446   3.844   0.720 -0.1086  0.3572 -0.4575
 9667TIP3    H128942   3.448   3.831   0.625  2.0116  1.4860 -0.6404
 9667TIP3    H228943   3.492   3.768   0.755 -1.9473 -0.6823 -0.1856
 9668TIP3   OH228944   2.856   0.747   1.191  0.3744 -0.3902 -0.1813
 9668TIP3    H128945   2.786   0.812   1.183  1.8409  1.1564 -1.2927
 9668TIP3    H228946   2.818   0.666   1.157 -0.7810  0.4931 -1.0914
 9669TIP3   OH228947   4.070   4.327   1.687 -0.5118 -0.4449 -0.2509
 9669TIP3    H128948   4.098   4.418   1.684  0.5499 -0.7258  0.3439
 9669TIP3    H228949   4.101   4.289   1.605 -0.5118 -0.3935 -0.2747
 9670TIP3   OH228950   0.878   1.037   2.185  0.4391  0.6028 -0.1953
 9670TIP3    H128951   0.924   1.120   2.201 -0.3480  0.6684  2.0670
 9670TIP3    H228952   0.925   0.997   2.111  1.5137  2.5430 -0.6175
 9671TIP3   OH228953   5.997   2.258   2.561  0.2261  0.0185  0.5973
 9671TIP3    H128954   5.965   2.167   2.565  1.0641 -0.2818  0.5950
 9671TIP3    H228955   6.092   2.250   2.551  0.2718  0.8952  0.2100
 9672TIP3   OH228956   0.944   6.166   1.384  0.6381  0.0680 -0.0916
 9672TIP3    H128957   0.990   6.125   1.311  2.0601  2.7173 -0.8086
 9672TIP3    H228958   1.011   6.216   1.430 -0.8017  0.8572  1.2487
 9673TIP3   OH228959   2.535   3.533   5.692 -0.0833  0.0473 -0.0868
 9673TIP3    H128960   2.507   3.554   5.781 -0.5378 -0.8937  0.0091
 9673TIP3    H228961   2.589   3.607   5.665 -0.8787  0.8744  0.5511
 9674TIP3   OH228962   4.775   4.027   5.093 -0.1798  0.1650 -0.7014
 9674TIP3    H128963   4.741   4.078   5.019  1.1474  1.3005 -0.5756
 9674TIP3    H228964   4.810   4.093   5.153 -0.1443 -0.8134  0.3874
 9675TIP3   OH228965   3.852   6.038   6.632  0.0866 -0.1249 -0.3385
 9675TIP3    H128966   3.836   6.033   6.537  1.3792  3.0731 -0.8228
 9675TIP3    H228967   3.906   5.961   6.651  2.0455  0.5328 -2.7570
 9676TIP3   OH228968   8.285   1.640   3.032 -0.1370  0.1626 -0.1083
 9676TIP3    H128969   8.206   1.586   3.039  0.3702 -0.7164 -0.8996
 9676TIP3    H228970   8.261   1.711   2.972 -0.7364  0.7112  0.7552
 9677TIP3   OH228971   6.040   3.403   2.949 -0.1890  0.3547 -0.1733
 9677TIP3    H128972   6.116   3.456   2.925 -0.7582  0.6823 -1.3267
 9677TIP3    H228973   6.069   3.312   2.935  0.2963  0.4249  0.3441
 9678TIP3   OH228974   6.130   6.214   0.685  0.5453 -0.1699  0.1179
 9678TIP3    H128975   6.103   6.304   0.704  1.0517 -0.3256  1.7894
 9678TIP3    H228976   6.082   6.191   0.606 -0.7609  1.0682  0.4909
 9679TIP3   OH228977   4.777   0.904   5.627 -0.0002 -0.0064  0.4178
 9679TIP3    H128978   4.747   0.945   5.708 -1.4717  1.7196 -0.9337
 9679TIP3    H228979   4.809   0.977   5.574  0.3315 -1.0260 -0.8278
 9680TIP3   OH228980   3.854   6.094   0.820 -0.2411  0.2675  0.3724
 9680TIP3    H128981   3.946   6.119   0.819 -0.2379  0.2463 -0.2969
 9680TIP3    H228982   3.854   6.000   0.801 -0.4053  0.3038  0.1811
 9681TIP3   OH228983   2.357   3.489   5.452  0.5028  0.1906 -0.1997
 9681TIP3    H128984   2.392   3.496   5.541  0.9396  1.3725 -0.4488
 9681TIP3    H228985   2.368   3.397   5.429  1.2462  0.0638  0.6154
 9682TIP3   OH228986   2.150   5.837  -0.019  0.5988 -0.5470  0.4187
 9682TIP3    H128987   2.089   5.911  -0.023  0.4137 -0.7103  0.1615
 9682TIP3    H228988   2.171   5.828   0.074  0.0708 -0.6165  0.5347
 9683TIP3   OH228989   4.824   0.442   1.050  0.2849  0.2203 -0.7444
 9683TIP3    H128990   4.766   0.486   1.113  0.0614 -1.1843  0.0624
 9683TIP3    H228991   4.912   0.458   1.083  0.1594 -0.6969  0.0833
 9684TIP3   OH228992   1.842   1.001   5.577 -0.5770 -1.0019 -0.1741
 9684TIP3    H128993   1.879   0.954   5.651 -1.1090 -1.6867 -0.3369
 9684TIP3    H228994   1.900   1.076   5.565 -0.0377 -1.3153  0.4334
 9685TIP3   OH228995   0.523   6.543   4.053  0.2021  0.3149  0.6224
 9685TIP3    H128996   0.440   6.563   4.095  1.0999 -0.4194  2.8945
 9685TIP3    H228997   0.559   6.628   4.029  1.2772  1.2185  4.7369
 9686TIP3   OH228998   5.336   3.198   1.693 -0.0053  0.3379 -0.4506
 9686TIP3    H128999   5.320   3.292   1.692  1.2624  0.5968  0.8023
 9686TIP3    H229000   5.399   3.184   1.622 -0.8872  0.2786 -1.2355
 9687TIP3   OH229001   1.921   6.188   0.613  0.3360  0.1257 -0.6512
 9687TIP3    H129002   1.891   6.114   0.560  0.1314  0.7936 -1.4776
 9687TIP3    H229003   1.855   6.255   0.600 -0.6183 -0.2426  1.7649
 9688TIP3   OH229004   3.093   7.202   6.291 -0.1691 -0.0868 -0.4174
 9688TIP3    H129005   3.027   7.271   6.294 -0.1289 -0.0776  0.4558
 9688TIP3    H229006   3.177   7.248   6.288 -0.0883 -0.0602  1.2621
 9689TIP3   OH229007   2.373   4.850   4.434 -0.5006  0.4054 -0.2755
 9689TIP3    H129008   2.310   4.851   4.507  0.7963 -1.9341  0.9979
 9689TIP3    H229009   2.453   4.815   4.473  0.1982 -1.0890 -2.8725
 9690TIP3   OH229010  -0.013   5.175   1.836 -0.0918 -0.1644  0.5089
 9690TIP3    H129011   0.062   5.205   1.888 -0.1236 -0.4616  0.7273
 9690TIP3    H229012  -0.010   5.229   1.757 -0.1252  0.3855  0.8752
 9691TIP3   OH229013   1.017   3.283   6.411  0.1969 -0.5720 -0.2062
 9691TIP3    H129014   1.105   3.269   6.447  0.3531 -0.7678 -0.6473
 9691TIP3    H229015   0.959   3.237   6.471  0.4113 -0.5614  0.0114
 9692TIP3   OH229016   7.721   6.329   1.428 -0.3540 -0.2345  0.2242
 9692TIP3    H129017   7.702   6.240   1.458 -2.1038  0.2637  0.7164
 9692TIP3    H229018   7.783   6.318   1.357  0.0752 -1.7917  0.8067
 9693TIP3   OH229019   6.093   1.341   0.423  0.1859 -0.3639 -0.1231
 9693TIP3    H129020   6.154   1.414   0.433  0.0210 -0.1134 -0.8610
 9693TIP3    H229021   6.113   1.282   0.496 -0.0005  0.6496  0.7798
 9694TIP3   OH229022   7.898   4.261   1.328 -0.4494  0.0022 -0.0015
 9694TIP3    H129023   7.984   4.239   1.365 -0.1731 -0.7972 -1.0549
 9694TIP3    H229024   7.841   4.271   1.404  0.8586  1.9113  0.7866
 9695TIP3   OH229025   1.928   6.830   4.622 -0.0395 -0.3283 -0.9523
 9695TIP3    H129026   1.896   6.820   4.533 -0.2902 -1.9529 -0.7074
 9695TIP3    H229027   1.949   6.741   4.651 -0.2539  0.1136  0.7055
 9696TIP3   OH229028   4.702   3.115   5.282  0.2241 -0.3532  0.0503
 9696TIP3    H129029   4.694   3.177   5.210  1.6016  0.7767  0.8297
 9696TIP3    H229030   4.614   3.111   5.320 -0.6575 -1.3357 -1.9226
 9697TIP3   OH229031   6.437   5.356   2.132  0.6894 -0.8848 -0.4201
 9697TIP3    H129032   6.452   5.308   2.051 -0.3873 -0.7964 -0.6836
 9697TIP3    H229033   6.350   5.395   2.121  0.2955 -1.3019  0.9734
 9698TIP3   OH229034   2.463   3.202   4.968  0.3707 -0.3282  0.2438
 9698TIP3    H129035   2.473   3.297   4.970 -0.7641 -0.2056  2.5634
 9698TIP3    H229036   2.369   3.188   4.960  0.5796 -1.2876 -0.7194
 9699TIP3   OH229037   5.191   3.469   4.591  0.4890  0.3572  0.2514
 9699TIP3    H129038   5.284   3.453   4.576  0.3551  0.8451 -1.1933
 9699TIP3    H229039   5.151   3.462   4.505 -0.4017  2.8277  0.3869
 9700TIP3   OH229040   1.902   5.433   6.148  0.9106 -0.3057  0.0401
 9700TIP3    H129041   1.928   5.431   6.240  0.1987 -0.2884  0.2516
 9700TIP3    H229042   1.888   5.342   6.124  0.0002 -0.2436  0.2852
 9701TIP3   OH229043   1.872   0.062   0.346 -0.2652  0.3985  0.0382
 9701TIP3    H129044   1.860   0.066   0.440  0.4469  1.1377  0.1112
 9701TIP3    H229045   1.810  -0.005   0.316  0.6866 -1.0569  1.2128
 9702TIP3   OH229046   4.191   5.933   3.972 -0.1912  0.3428 -0.0337
 9702TIP3    H129047   4.241   6.004   3.932 -1.2262  1.2443  0.2261
 9702TIP3    H229048   4.201   5.948   4.066  0.9622 -0.8608  0.0668
 9703TIP3   OH229049   7.111   5.969   3.808 -0.1605 -0.1991 -0.6858
 9703TIP3    H129050   7.070   6.016   3.736  0.8902 -0.1355 -1.2573
 9703TIP3    H229051   7.139   5.886   3.770 -1.0684 -0.8623  0.0594
 9704TIP3   OH229052   5.026   3.214   1.524 -0.8014 -0.3684 -0.3848
 9704TIP3    H129053   4.957   3.222   1.459 -0.3384 -0.5595 -0.9062
 9704TIP3    H229054   5.038   3.303   1.558  0.1613  0.0748 -1.8239
 9705TIP3   OH229055   8.029   4.184   6.610  0.2884  0.0642  0.3904
 9705TIP3    H129056   8.034   4.279   6.606  3.1259 -0.0154 -0.3294
 9705TIP3    H229057   8.019   4.156   6.519  1.7003 -0.3384  0.3376
 9706TIP3   OH229058   7.982   1.520   5.250  0.7672  0.5879 -0.1715
 9706TIP3    H129059   8.024   1.523   5.335  0.8780 -1.6476 -0.1039
 9706TIP3    H229060   7.890   1.538   5.267  1.1916  2.9705 -0.0050
 9707TIP3   OH229061   0.848   4.639   0.989 -0.0429  0.2694 -0.1826
 9707TIP3    H129062   0.770   4.694   0.980 -0.8374 -0.7637  0.2216
 9707TIP3    H229063   0.871   4.646   1.082 -0.6630 -0.7319  0.0623
 9708TIP3   OH229064   1.652   6.533   6.253  0.0892 -0.4126 -0.0725
 9708TIP3    H129065   1.561   6.526   6.282 -0.2919 -0.2410 -1.1944
 9708TIP3    H229066   1.691   6.449   6.276  0.3839  0.4241  2.8228
 9709TIP3   OH229067   4.549   7.542   3.573  0.3296 -0.0650 -0.1823
 9709TIP3    H129068   4.592   7.572   3.492 -0.9250 -0.0828 -0.8807
 9709TIP3    H229069   4.469   7.594   3.577 -0.9963 -2.0116 -0.4362
 9710TIP3   OH229070   5.201   6.020   5.002 -0.1610 -0.2432 -0.0427
 9710TIP3    H129071   5.190   5.944   5.058 -3.8480 -0.6575 -1.0258
 9710TIP3    H229072   5.194   5.985   4.913  0.8153  0.9696 -0.6323
 9711TIP3   OH229073   3.965  -0.000   2.816  0.1100  0.6099 -0.7075
 9711TIP3    H129074   3.904  -0.024   2.746 -0.6102 -1.5966  0.5583
 9711TIP3    H229075   3.917   0.064   2.869 -0.1188  0.7731 -1.1098
 9712TIP3   OH229076   6.358   2.318   6.688  0.1838  0.3922  0.6521
 9712TIP3    H129077   6.418   2.323   6.762 -0.8007  2.1128  1.3844
 9712TIP3    H229078   6.411   2.344   6.612  0.5343  1.2578  1.1846
 9713TIP3   OH229079   2.910   0.585   6.609 -0.1649 -0.0326  0.2667
 9713TIP3    H129080   2.900   0.533   6.689  0.7591  0.3905  0.6762
 9713TIP3    H229081   3.004   0.594   6.598 -0.2981  0.7046 -0.3596
 9714TIP3   OH229082   1.456   0.482   5.089 -0.1110 -0.2165 -0.0358
 9714TIP3    H129083   1.552   0.485   5.082 -0.1590 -0.7661 -0.9967
 9714TIP3    H229084   1.432   0.398   5.051 -0.9028 -0.5958  1.2481
 9715TIP3   OH229085   3.846   6.737   3.631 -0.0473  0.4257  0.0252
 9715TIP3    H129086   3.799   6.656   3.613 -0.0791  0.8679 -2.1121
 9715TIP3    H229087   3.886   6.762   3.547  0.3437  2.3661  0.7234
 9716TIP3   OH229088   6.763   3.618   1.774 -0.6386 -0.3125 -0.1509
 9716TIP3    H129089   6.734   3.695   1.725 -1.2488 -0.0191  0.6615
 9716TIP3    H229090   6.763   3.645   1.865 -2.3116 -1.6907  0.3078
 9717TIP3   OH229091   4.617   1.850   1.749 -0.1500 -0.3027 -0.1848
 9717TIP3    H129092   4.540   1.829   1.696  0.4635 -1.4739 -0.6431
 9717TIP3    H229093   4.581   1.874   1.834 -1.2033  2.1749 -1.2151
 9718TIP3   OH229094   2.605   2.769   4.484  0.4238 -0.0706  0.6417
 9718TIP3    H129095   2.599   2.812   4.399 -1.4041 -2.3237 -0.4879
 9718TIP3    H229096   2.517   2.778   4.522  0.6183 -0.9051  1.3185
 9719TIP3   OH229097   4.986   3.733   0.353 -0.4101  0.0205 -0.0707
 9719TIP3    H129098   4.894   3.708   0.343 -0.4513 -0.3220  1.0464
 9719TIP3    H229099   4.985   3.801   0.421  0.3448 -1.4379  1.4668
 9720TIP3   OH229100   2.982   7.206   0.765  0.0663 -0.7182  0.3031
 9720TIP3    H129101   2.886   7.212   0.771  0.0864 -1.1990  1.4526
 9720TIP3    H229102   3.013   7.265   0.834  0.6364  0.1745 -0.6858
 9721TIP3   OH229103   2.647   3.154   3.746  0.4245  0.7608 -0.2327
 9721TIP3    H129104   2.713   3.093   3.712 -0.4053 -0.0372 -0.4597
 9721TIP3    H229105   2.606   3.108   3.818 -1.0853  0.5012 -1.2086
 9722TIP3   OH229106   8.351   1.800   6.411  0.3268  0.1217  0.0490
 9722TIP3    H129107   8.271   1.851   6.421  0.8187  0.6423  1.5766
 9722TIP3    H229108   8.326   1.711   6.438  0.3608  0.3817  0.9622
 9723TIP3   OH229109   6.235   1.112   6.493 -0.3703  0.1339 -0.0911
 9723TIP3    H129110   6.174   1.054   6.539 -1.7525  1.7456  0.2518
 9723TIP3    H229111   6.305   1.129   6.557 -1.5157  1.1802  0.9685
 9724TIP3   OH229112   6.205   3.415   5.769  0.1811  0.0138  0.1918
 9724TIP3    H129113   6.195   3.365   5.850  0.7239 -1.2461 -0.5025
 9724TIP3    H229114   6.193   3.351   5.699 -0.9333  1.2055 -0.7524
 9725TIP3   OH229115   0.038   2.053   1.176  0.1001 -0.0930  0.4393
 9725TIP3    H129116  -0.034   2.072   1.236 -0.8642 -2.5983  0.2054
 9725TIP3    H229117  -0.003   2.053   1.089  1.0813  1.5826 -0.0521
 9726TIP3   OH229118   2.103   0.950   3.736  0.2439  0.1513  0.1480
 9726TIP3    H129119   2.148   0.979   3.657  1.1325  1.7224  1.1968
 9726TIP3    H229120   2.173   0.923   3.795 -0.1366  2.2367  1.6509
 9727TIP3   OH229121   5.684   6.353   5.170  0.4203  0.4276  0.8661
 9727TIP3    H129122   5.639   6.347   5.254 -0.3890  0.4875  0.4564
 9727TIP3    H229123   5.614   6.371   5.107  1.0429  0.6204  0.2139
 9728TIP3   OH229124   6.193   6.969   5.319 -0.3232  0.1921 -0.2456
 9728TIP3    H129125   6.196   7.057   5.356 -0.8434  0.4896 -0.8930
 9728TIP3    H229126   6.102   6.942   5.328 -0.4670  0.2764 -1.2867
 9729TIP3   OH229127   8.117   3.151   1.328 -0.0611 -0.2599 -0.2547
 9729TIP3    H129128   8.181   3.190   1.268  0.6041 -1.7230 -0.5426
 9729TIP3    H229129   8.160   3.072   1.360 -1.8647 -1.4700 -0.7076
 9730TIP3   OH229130   5.133   4.924   1.105 -0.2468  0.1065 -0.9093
 9730TIP3    H129131   5.101   4.844   1.146 -0.6996  0.6377 -0.1971
 9730TIP3    H229132   5.058   4.985   1.109  0.0405  0.5218 -1.5680
 9731TIP3   OH229133   4.053   2.227   3.763 -0.8360  0.1647 -0.2272
 9731TIP3    H129134   4.088   2.154   3.712  0.1170  0.1495  0.4012
 9731TIP3    H229135   4.094   2.305   3.724 -1.5567  0.3314 -0.6582
 9732TIP3   OH229136   4.819   2.043   3.586  0.6196 -0.1746 -0.1490
 9732TIP3    H129137   4.843   1.981   3.655 -1.9354  1.1084  2.1047
 9732TIP3    H229138   4.799   2.124   3.633 -1.0452  0.8417 -2.4230
 9733TIP3   OH229139   6.939   6.066   4.506 -0.4651 -0.0484  0.2466
 9733TIP3    H129140   7.014   6.115   4.539  0.7166  0.5533 -2.9402
 9733TIP3    H229141   6.884   6.051   4.583  1.2780  2.3955  2.1310
 9734TIP3   OH229142   7.289   7.112   0.636  0.1426 -0.3373 -0.5268
 9734TIP3    H129143   7.196   7.106   0.660  0.6859 -0.4441  1.6887
 9734TIP3    H229144   7.335   7.122   0.719  2.1310 -0.1924 -1.5949
 9735TIP3   OH229145   6.715   6.927   4.569  0.5974 -0.0885 -0.1650
 9735TIP3    H129146   6.784   6.993   4.583  0.7570 -0.1201 -0.7691
 9735TIP3    H229147   6.636   6.967   4.606  0.6782  0.4781 -0.5912
 9736TIP3   OH229148   2.873   4.065   2.865 -0.2454 -0.3292 -0.1683
 9736TIP3    H129149   2.904   4.153   2.844 -2.5739  0.5197 -0.3761
 9736TIP3    H229150   2.829   4.035   2.786 -2.4066 -0.2507  0.9118
 9737TIP3   OH229151   7.684   2.416   1.073  0.4421 -0.0326  0.0262
 9737TIP3    H129152   7.711   2.328   1.097  2.6209 -0.3771 -3.1439
 9737TIP3    H229153   7.588   2.414   1.080  0.4958 -2.3059  0.9369
 9738TIP3   OH229154   6.398   1.397   4.872  0.4927 -0.3977  0.0819
 9738TIP3    H129155   6.396   1.342   4.793  0.3060  0.0027 -0.1920
 9738TIP3    H229156   6.342   1.351   4.934 -0.0960 -0.2434 -0.3305
 9739TIP3   OH229157   8.177   3.147   3.772 -0.1048  0.1992 -0.0435
 9739TIP3    H129158   8.129   3.220   3.811 -0.3288 -0.0599  0.1752
 9739TIP3    H229159   8.110   3.097   3.725  0.5309  1.8589 -2.9191
 9740TIP3   OH229160   0.967   3.048   1.915 -0.2239 -0.6181  0.3999
 9740TIP3    H129161   1.055   3.068   1.946  0.1569 -1.0193 -0.3713
 9740TIP3    H229162   0.961   2.952   1.922 -0.6966 -0.5689  0.6958
 9741TIP3   OH229163   4.669   0.607   3.638  0.2787 -0.3032 -0.3416
 9741TIP3    H129164   4.613   0.677   3.671  0.8584  1.1433 -2.2219
 9741TIP3    H229165   4.755   0.647   3.628  1.0739 -1.8034  0.1828
 9742TIP3   OH229166   0.147   0.694   0.118  0.1315  0.3981  0.0881
 9742TIP3    H129167   0.185   0.606   0.127 -0.7443  0.1999  3.2039
 9742TIP3    H229168   0.220   0.753   0.137  0.2864  0.2562 -0.0623
 9743TIP3   OH229169   1.030   4.413   5.520 -0.2275  0.0399 -0.3139
 9743TIP3    H129170   0.956   4.378   5.569  0.6292  0.1196  1.0859
 9743TIP3    H229171   1.103   4.413   5.583  1.2563 -1.0578 -1.9335
 9744TIP3   OH229172   8.002   2.213   5.515 -0.1172 -0.1342  0.5083
 9744TIP3    H129173   8.016   2.169   5.431 -1.7164 -0.5230  0.4138
 9744TIP3    H229174   7.917   2.182   5.544 -0.3328  1.2856  1.4815
 9745TIP3   OH229175   7.251   3.891   2.018 -0.7660 -0.3859 -0.0485
 9745TIP3    H129176   7.266   3.937   2.101  0.6664 -0.2846 -0.3333
 9745TIP3    H229177   7.334   3.847   2.000 -1.0272 -0.3361 -1.4720
 9746TIP3   OH229178   8.230   6.241   3.412  0.4390 -0.4017 -0.2352
 9746TIP3    H129179   8.168   6.270   3.344 -0.0860 -1.7598 -0.3612
 9746TIP3    H229180   8.258   6.154   3.384 -0.0113 -1.1261  1.4127
 9747TIP3   OH229181   7.957   7.261   5.080 -0.0188  0.3282 -0.5320
 9747TIP3    H129182   7.966   7.167   5.096 -0.0323  0.1161 -1.7149
 9747TIP3    H229183   8.043   7.289   5.052 -0.3612  0.3645 -1.6017
 9748TIP3   OH229184   7.734   7.360   6.179  0.1895  0.3093  0.5837
 9748TIP3    H129185   7.773   7.445   6.159  0.3732  0.3828  1.2023
 9748TIP3    H229186   7.658   7.381   6.233 -2.2842  0.3371 -2.6557
 9749TIP3   OH229187   5.009   2.031   2.609 -0.9145 -0.6874 -0.1926
 9749TIP3    H129188   4.973   2.082   2.682 -0.2134 -0.4699  0.0082
 9749TIP3    H229189   5.000   1.940   2.637 -1.8875 -0.6738 -0.4199
 9750TIP3   OH229190   0.874   1.810   5.597 -0.4840  0.5397 -0.4554
 9750TIP3    H129191   0.812   1.777   5.662 -0.1660  1.2234  0.2085
 9750TIP3    H229192   0.832   1.791   5.513 -1.1198  0.0673 -0.0452
 9751TIP3   OH229193   0.108   6.260   3.182 -0.6473 -0.4748 -0.2906
 9751TIP3    H129194   0.198   6.230   3.193  0.1811  1.9197  0.0463
 9751TIP3    H229195   0.099   6.332   3.245 -2.3151  0.3270 -1.3770
 9752TIP3   OH229196   7.512   6.186   5.980  0.1780  0.4730 -0.4188
 9752TIP3    H129197   7.439   6.212   5.923 -0.9598  0.9627  1.2087
 9752TIP3    H229198   7.585   6.173   5.919 -1.0297  0.7569 -2.0188
 9753TIP3   OH229199   4.813   7.061   4.089 -0.6159 -0.0008 -0.5707
 9753TIP3    H129200   4.803   7.061   3.994 -0.6817 -0.1499 -0.5647
 9753TIP3    H229201   4.893   7.111   4.105 -0.3651 -0.3450 -0.7316
 9754TIP3   OH229202   2.455   2.746   2.056  0.2099  0.4144  0.1856
 9754TIP3    H129203   2.450   2.840   2.073 -1.4031  0.5475 -0.7615
 9754TIP3    H229204   2.516   2.738   1.983 -0.2736  0.8281 -0.2748
 9755TIP3   OH229205   3.410   0.523   4.779  0.2288  0.2774  0.2423
 9755TIP3    H129206   3.498   0.493   4.802  0.3030  0.0815 -0.2713
 9755TIP3    H229207   3.419   0.617   4.764  0.5039  0.1372 -0.5069
 9756TIP3   OH229208   2.831   6.452   6.784  0.2751  0.1350  0.3124
 9756TIP3    H129209   2.787   6.508   6.721  0.1065 -0.6057 -0.2447
 9756TIP3    H229210   2.889   6.396   6.732 -0.0915 -0.6980  0.7621
 9757TIP3   OH229211   3.089   6.010   5.226  0.3886  0.1964 -0.0692
 9757TIP3    H129212   3.157   6.027   5.161  0.6093 -1.2721 -0.2502
 9757TIP3    H229213   3.136   6.007   5.310  0.7751 -1.8711 -0.3031
 9758TIP3   OH229214   8.170   1.676   6.095 -0.5992 -0.6950 -0.1633
 9758TIP3    H129215   8.140   1.594   6.055  0.4199 -1.1872  0.0540
 9758TIP3    H229216   8.265   1.667   6.098 -0.4424  0.6725 -0.5083
 9759TIP3   OH229217   1.848   0.584   0.529 -0.2906 -0.0965  0.5568
 9759TIP3    H129218   1.878   0.500   0.566 -0.9496 -0.7163 -0.2641
 9759TIP3    H229219   1.802   0.559   0.448  1.0352  1.1888 -0.6648
 9760TIP3   OH229220   1.655   7.241   0.345  0.2120 -0.2602 -1.1913
 9760TIP3    H129221   1.656   7.287   0.429  0.3465 -0.3004 -1.1705
 9760TIP3    H229222   1.577   7.273   0.301  0.3467  0.0463 -1.2093
 9761TIP3   OH229223   2.712   6.948   4.992 -0.0975  0.0771 -0.0901
 9761TIP3    H129224   2.658   7.012   4.945 -0.0752 -0.1267 -0.3958
 9761TIP3    H229225   2.658   6.870   4.996  0.3062 -0.2443 -0.7168
 9762TIP3   OH229226   4.295   7.843   2.373  0.1890  0.2388  0.4674
 9762TIP3    H129227   4.249   7.799   2.445 -1.3815  0.7384 -0.1719
 9762TIP3    H229228   4.328   7.772   2.318 -0.8658 -0.1777  0.3323
 9763TIP3   OH229229   5.390   1.436   2.908  0.5867  0.1802 -0.3037
 9763TIP3    H129230   5.335   1.366   2.943  1.0714 -0.0945 -0.0825
 9763TIP3    H229231   5.463   1.391   2.865  2.2487  0.5205  1.9664
 9764TIP3   OH229232   6.486   0.847   2.940  0.1618  0.9835 -0.0772
 9764TIP3    H129233   6.528   0.854   2.855 -1.5934  2.8127 -0.8788
 9764TIP3    H229234   6.549   0.885   3.001  0.2236  2.5626 -1.0599
 9765TIP3   OH229235   0.512   3.222   1.378 -0.3884 -0.0549  0.0931
 9765TIP3    H129236   0.542   3.241   1.467 -0.6508 -0.5131  0.2801
 9765TIP3    H229237   0.589   3.188   1.333 -0.1751  0.4781  0.0520
 9766TIP3   OH229238   2.836   4.434   3.198  0.0908 -0.0210 -0.0024
 9766TIP3    H129239   2.820   4.497   3.128  0.0507 -0.1505 -0.1113
 9766TIP3    H229240   2.914   4.386   3.169  2.2958  2.2679  1.6716
 9767TIP3   OH229241   8.357   4.115   0.097  0.4586  0.1238  0.0920
 9767TIP3    H129242   8.415   4.133   0.023  2.3151 -0.2690  1.3798
 9767TIP3    H229243   8.358   4.020   0.106 -1.7554 -0.0549 -0.8442
 9768TIP3   OH229244   1.364   0.081   5.266 -0.2817 -0.3617 -0.2678
 9768TIP3    H129245   1.419   0.006   5.288  0.0055 -0.5386 -1.5321
 9768TIP3    H229246   1.413   0.128   5.198  0.1082  1.6504  1.3174
 9769TIP3   OH229247   6.210   7.917   3.697  1.0352  0.1312 -0.3916
 9769TIP3    H129248   6.159   7.840   3.719 -1.2941  1.6551 -0.0998
 9769TIP3    H229249   6.254   7.942   3.778 -1.1417  1.1493  0.5361
 9770TIP3   OH229250   6.578   2.537   2.404 -0.0483 -0.1504 -0.5427
 9770TIP3    H129251   6.623   2.562   2.485  0.9424 -0.7618 -0.8859
 9770TIP3    H229252   6.626   2.460   2.372 -2.5738 -2.1164  0.1048
 9771TIP3   OH229253   5.229   6.116   1.300 -0.6688 -0.4517 -0.3648
 9771TIP3    H129254   5.263   6.050   1.361 -1.4903  0.7862  1.5345
 9771TIP3    H229255   5.136   6.123   1.321 -0.4307  1.9933  0.2652
 9772TIP3   OH229256   2.505   0.049   6.537  0.0466 -0.1513 -0.4701
 9772TIP3    H129257   2.459  -0.026   6.573 -0.4454 -1.4689 -3.5485
 9772TIP3    H229258   2.598   0.027   6.546 -0.0665 -0.5320 -0.2157
 9773TIP3   OH229259   7.229   5.801   2.013 -0.4903 -0.1299 -0.5938
 9773TIP3    H129260   7.184   5.770   1.934 -1.8633  0.4200 -0.0506
 9773TIP3    H229261   7.167   5.785   2.084  0.1664  0.6717  0.1848
 9774TIP3   OH229262   1.718   7.326   6.231  0.0952  0.2231 -0.5704
 9774TIP3    H129263   1.642   7.348   6.285 -0.8703  0.3058 -1.9054
 9774TIP3    H229264   1.724   7.231   6.234 -0.4849  0.1672 -0.9875
 9775TIP3   OH229265   8.300   0.543   1.027 -0.5498  0.1972  0.2524
 9775TIP3    H129266   8.355   0.481   1.075  1.5876  1.5236 -0.3288
 9775TIP3    H229267   8.242   0.488   0.974  1.7607 -1.3868 -0.8193
 9776TIP3   OH229268   1.034   2.556   1.947 -0.2532 -0.1792  0.7216
 9776TIP3    H129269   0.974   2.489   1.979  0.5660 -1.6575 -0.7117
 9776TIP3    H229270   1.115   2.541   1.996 -0.6028  0.9744  1.7066
 9777TIP3   OH229271   6.209   1.328   6.851 -0.3518 -0.0901 -0.1719
 9777TIP3    H129272   6.222   1.384   6.775  1.9395  1.4637  1.2507
 9777TIP3    H229273   6.241   1.242   6.824  0.1042  0.3522 -1.0639
 9778TIP3   OH229274   5.937   5.774   6.214 -0.8001  0.5940  0.1243
 9778TIP3    H129275   5.955   5.729   6.296 -0.4815  0.6900  0.1087
 9778TIP3    H229276   5.984   5.857   6.222  0.5299 -0.0330 -0.7885
 9779TIP3   OH229277   7.421   4.980   2.300 -0.0866  0.0190  0.0065
 9779TIP3    H129278   7.419   5.002   2.207  0.9544 -1.2706 -0.3594
 9779TIP3    H229279   7.391   5.059   2.345  0.4217  1.0207 -1.3665
 9780TIP3   OH229280   2.088   3.288   0.802 -0.6432  0.1101  0.3577
 9780TIP3    H129281   2.090   3.348   0.727  0.5854 -1.6138 -1.0651
 9780TIP3    H229282   2.180   3.281   0.828 -0.9730  0.0632  1.5443
 9781TIP3   OH229283   5.572   1.958   0.835 -0.7142 -0.1109 -0.1344
 9781TIP3    H129284   5.579   1.929   0.926  0.6903  2.8667  0.8285
 9781TIP3    H229285   5.489   2.006   0.831 -1.6735 -1.7636 -0.9726
 9782TIP3   OH229286   4.593   2.425   0.363 -0.4884 -0.3229  0.0494
 9782TIP3    H129287   4.548   2.345   0.336 -2.6200  0.5008  0.8895
 9782TIP3    H229288   4.644   2.400   0.440  0.5044 -1.2749 -0.8931
 9783TIP3   OH229289   6.237   4.873   5.990 -0.1448  0.1397 -0.6880
 9783TIP3    H129290   6.228   4.789   5.945 -0.2161  0.6349 -1.6099
 9783TIP3    H229291   6.250   4.937   5.920 -0.1647  0.9125  0.0002
 9784TIP3   OH229292   7.981   4.777   1.950 -0.1547  0.6329  0.4257
 9784TIP3    H129293   7.906   4.826   1.985 -0.1809  1.0130 -0.1561
 9784TIP3    H229294   8.032   4.753   2.028 -2.5233 -2.4906  1.2363
 9785TIP3   OH229295   4.115   6.023   6.341 -0.2201 -0.1239 -0.1869
 9785TIP3    H129296   4.175   5.950   6.354 -0.0910 -0.0145 -0.1622
 9785TIP3    H229297   4.173   6.099   6.329 -0.3557  0.1377  0.7395
 9786TIP3   OH229298   6.504   5.252   1.907 -0.1780  0.2022  0.4749
 9786TIP3    H129299   6.460   5.197   1.842  1.0077  0.8505 -0.9342
 9786TIP3    H229300   6.591   5.214   1.917  0.4179  1.3698  0.0007
 9787TIP3   OH229301   7.969   5.238   3.268  0.4617  0.2194  0.3237
 9787TIP3    H129302   8.036   5.193   3.319 -0.0124 -0.4285  0.3843
 9787TIP3    H229303   7.916   5.168   3.230  1.6885  0.6144 -2.2959
 9788TIP3   OH229304   5.602   1.816   5.691 -0.1153 -0.8054 -0.5439
 9788TIP3    H129305   5.596   1.800   5.785  0.2074  0.7276 -0.2346
 9788TIP3    H229306   5.519   1.857   5.669  1.2573  2.6129 -0.0543
 9789TIP3   OH229307   7.818   1.859   4.452  0.0004  0.5108  0.3004
 9789TIP3    H129308   7.777   1.924   4.395  0.4287  1.7330  1.3593
 9789TIP3    H229309   7.789   1.882   4.540 -0.4644 -1.2153  0.6437
 9790TIP3   OH229310   6.948   6.270   2.454 -0.3500 -0.4172  0.3789
 9790TIP3    H129311   7.027   6.227   2.422  1.0955  1.6731  0.9913
 9790TIP3    H229312   6.918   6.324   2.381  0.4567  0.9939  1.0635
 9791TIP3   OH229313   4.263   7.148   2.077 -0.1723 -0.8728 -0.4491
 9791TIP3    H129314   4.182   7.199   2.084  0.7343  0.4228  1.7609
 9791TIP3    H229315   4.235   7.057   2.085 -1.6497 -0.6754 -2.5633
 9792TIP3   OH229316   2.568   6.033   4.853 -0.2010  0.8266 -0.2476
 9792TIP3    H129317   2.526   6.102   4.801  0.9000  1.5676 -0.1934
 9792TIP3    H229318   2.586   6.074   4.937  0.1851  0.3821 -0.1070
 9793TIP3   OH229319   5.768   1.744   1.467  0.0079 -0.5492 -0.3076
 9793TIP3    H129320   5.794   1.832   1.441  0.9877 -0.5483  0.6167
 9793TIP3    H229321   5.779   1.742   1.562 -0.5123 -1.5119 -0.2471
 9794TIP3   OH229322   3.053   3.255   5.125  0.3232 -0.0929 -0.1587
 9794TIP3    H129323   3.080   3.318   5.192 -1.9451  1.9721 -1.0329
 9794TIP3    H229324   3.112   3.181   5.137  3.2492  2.2017  0.8499
 9795TIP3   OH229325   3.847   2.394   5.729 -0.0168 -0.0630 -0.3063
 9795TIP3    H129326   3.830   2.301   5.743  2.3250 -0.4150  0.7031
 9795TIP3    H229327   3.834   2.406   5.635 -3.4569 -0.6110 -0.0345
 9796TIP3   OH229328   7.706   4.244   2.356 -0.0647 -0.1128 -0.2675
 9796TIP3    H129329   7.671   4.330   2.376 -0.3930  0.0745 -1.6032
 9796TIP3    H229330   7.657   4.184   2.413 -1.6784  0.2938 -1.1803
 9797TIP3   OH229331   2.454   5.781   6.122  0.8227  0.0665 -0.9514
 9797TIP3    H129332   2.449   5.724   6.198  0.7653  1.9616  0.5655
 9797TIP3    H229333   2.412   5.732   6.051 -0.9847 -0.9934  0.7624
 9798TIP3   OH229334   3.744   6.895   1.278  0.6322  0.2457  0.6919
 9798TIP3    H129335   3.691   6.819   1.253 -1.5837  1.2008  2.1938
 9798TIP3    H229336   3.696   6.935   1.350  2.1621  2.6320  0.4885
 9799TIP3   OH229337   4.925   6.370   6.798 -0.1490  0.8747  0.1642
 9799TIP3    H129338   4.970   6.418   6.728  2.0762 -1.2673  0.0112
 9799TIP3    H229339   4.960   6.407   6.879 -0.6019  1.4311  0.1107
 9800TIP3   OH229340   1.349   1.908   6.441  0.0216  0.0399 -0.2594
 9800TIP3    H129341   1.338   1.891   6.348 -1.2153 -1.5549  0.1240
 9800TIP3    H229342   1.398   1.832   6.473 -0.6950 -0.0757  0.5942
 9801TIP3   OH229343   3.751   0.629   3.712  0.4807  0.2647  0.2437
 9801TIP3    H129344   3.811   0.556   3.727  0.1413 -0.1708 -0.4627
 9801TIP3    H229345   3.688   0.624   3.784 -0.4579 -1.1022 -0.6287
 9802TIP3   OH229346   3.642   4.609   0.422 -0.5564  0.0311 -0.0485
 9802TIP3    H129347   3.657   4.516   0.404  1.3774  0.2645  0.1396
 9802TIP3    H229348   3.549   4.614   0.445 -1.3569 -1.4333 -2.5662
 9803TIP3   OH229349   5.446   7.600   4.375 -0.0756 -0.0043 -0.1728
 9803TIP3    H129350   5.359   7.633   4.400 -0.2807 -0.1334 -0.7098
 9803TIP3    H229351   5.507   7.663   4.414 -0.3846 -0.1989  0.6511
 9804TIP3   OH229352   7.884   4.568   1.362  0.2563  0.2134 -0.7804
 9804TIP3    H129353   7.825   4.641   1.381 -0.8585 -0.4186 -1.6800
 9804TIP3    H229354   7.881   4.513   1.440 -0.5536  0.0641 -0.9091
 9805TIP3   OH229355   7.551   2.265   5.624 -0.2854 -0.1061 -0.4299
 9805TIP3    H129356   7.553   2.287   5.717 -2.2694 -0.2587 -0.3023
 9805TIP3    H229357   7.498   2.334   5.584  0.0479 -0.3680 -1.3637
 9806TIP3   OH229358   3.147   2.120   2.157  0.2083  0.1792  0.0554
 9806TIP3    H129359   3.130   2.175   2.080 -0.4068  0.5933  0.4764
 9806TIP3    H229360   3.068   2.128   2.210 -0.5631 -2.3312 -0.5746
 9807TIP3   OH229361   4.034   6.002   1.837  0.7378  0.7304  0.6004
 9807TIP3    H129362   3.988   6.085   1.832  2.3369  1.5899 -1.4004
 9807TIP3    H229363   3.969   5.937   1.812 -0.4161  1.4080  1.7608
 9808TIP3   OH229364   5.622   5.347   4.002 -0.6758  0.2929  0.5402
 9808TIP3    H129365   5.667   5.420   3.958  0.9342 -1.6952 -1.3377
 9808TIP3    H229366   5.565   5.310   3.935  0.5963 -1.8005  0.5011
 9809TIP3   OH229367   0.350   0.463   4.879  0.2588 -0.3807  0.0182
 9809TIP3    H129368   0.378   0.414   4.956  0.0768  1.2249  1.1546
 9809TIP3    H229369   0.262   0.495   4.902  0.8997  1.5754 -0.1093
 9810TIP3   OH229370   0.049   0.496   2.599  1.0636  0.4359  0.0285
 9810TIP3    H129371  -0.038   0.474   2.632  0.9250  1.2088  0.1862
 9810TIP3    H229372   0.104   0.422   2.625  0.0839 -0.9692 -1.6807
 9811TIP3   OH229373   0.353   4.139   4.827 -0.2658  0.2302  0.4154
 9811TIP3    H129374   0.406   4.063   4.850 -1.0298  0.4238  3.0722
 9811TIP3    H229375   0.405   4.215   4.855 -0.7229  0.5566  0.3921
 9812TIP3   OH229376   2.108   0.256   4.629  0.2705  0.6181 -0.4785
 9812TIP3    H129377   2.196   0.264   4.666 -0.2606 -1.9000  1.6152
 9812TIP3    H229378   2.113   0.181   4.570 -0.8344 -0.6918  1.0332
 9813TIP3   OH229379   0.864   7.139   1.342  0.1488 -0.0897 -0.7472
 9813TIP3    H129380   0.826   7.094   1.267  0.1769  0.3730 -1.0451
 9813TIP3    H229381   0.830   7.093   1.418 -0.4902 -0.0868 -1.0269
 9814TIP3   OH229382   0.220   3.507   5.344  0.9645 -0.1824  0.4660
 9814TIP3    H129383   0.184   3.506   5.256  0.7401  0.2336  0.5505
 9814TIP3    H229384   0.260   3.594   5.353 -0.4933  0.4334  1.3574
 9815TIP3   OH229385   5.070   7.576   5.449  0.2870 -0.2199 -0.1369
 9815TIP3    H129386   5.058   7.482   5.464  1.8071 -0.3557  0.4135
 9815TIP3    H229387   5.037   7.591   5.361 -0.5066 -1.1611 -0.0155
 9816TIP3   OH229388   7.600   1.397   1.642  0.3480 -0.0728  0.0501
 9816TIP3    H129389   7.600   1.458   1.716 -1.6755 -0.2410  0.2481
 9816TIP3    H229390   7.576   1.313   1.682 -0.8299 -0.1526 -0.7652
 9817TIP3   OH229391   0.401   1.782   2.585  0.5037  0.1512  0.1286
 9817TIP3    H129392   0.381   1.730   2.662  1.4325 -0.4030  0.0069
 9817TIP3    H229393   0.322   1.777   2.531  0.3420 -0.5610  0.4296
 9818TIP3   OH229394   7.171   1.825   2.746 -0.0773  0.2637 -0.8460
 9818TIP3    H129395   7.098   1.858   2.694 -0.9229  0.9416  0.7105
 9818TIP3    H229396   7.223   1.773   2.685 -2.5251 -1.3012 -1.7269
 9819TIP3   OH229397   3.863   7.452   2.617 -0.2860  0.0370 -0.2547
 9819TIP3    H129398   3.907   7.448   2.702 -0.8692  1.3146  0.1304
 9819TIP3    H229399   3.891   7.372   2.572 -2.4527 -2.4573  2.3574
 9820TIP3   OH229400   2.713   0.931   4.664 -0.1312  0.1507  0.2313
 9820TIP3    H129401   2.745   0.889   4.584 -2.3959 -0.8570 -0.2267
 9820TIP3    H229402   2.724   0.866   4.733  1.0246  0.7063  0.5938
 9821TIP3   OH229403   7.686   6.227   3.856 -0.0098 -0.4279  0.0599
 9821TIP3    H129404   7.645   6.177   3.786  1.5765 -0.6373 -0.7696
 9821TIP3    H229405   7.775   6.243   3.825  0.4827  0.1842  1.6889
 9822TIP3   OH229406   1.710   2.949   2.030 -0.5962  0.1939  0.1885
 9822TIP3    H129407   1.721   3.034   1.986  0.1381  0.3319  0.6203
 9822TIP3    H229408   1.746   2.885   1.969  1.0986  0.4595  0.8459
 9823TIP3   OH229409   2.732   5.207   2.533  0.4714  0.1779  0.0794
 9823TIP3    H129410   2.764   5.204   2.624 -0.9243 -0.2071  0.5797
 9823TIP3    H229411   2.666   5.276   2.534  0.0907 -0.1741 -0.5181
 9824TIP3   OH229412   2.073   3.721   1.564 -0.3089  0.0797 -0.2619
 9824TIP3    H129413   1.994   3.755   1.606  0.0147 -1.7265  2.0445
 9824TIP3    H229414   2.144   3.776   1.598 -0.3563  0.4543 -0.7655
 9825TIP3   OH229415   7.095   2.656   6.288 -0.1451  0.0034 -0.2751
 9825TIP3    H129416   7.073   2.597   6.216  1.0804 -1.3470  0.4329
 9825TIP3    H229417   7.025   2.722   6.286 -0.8860 -0.7769 -1.8242
 9826TIP3   OH229418   2.214   0.476   2.614  0.4649 -0.2236  0.2113
 9826TIP3    H129419   2.271   0.452   2.686  0.3182 -0.8640  0.1206
 9826TIP3    H229420   2.220   0.403   2.553  0.6375  0.3378 -0.4560
 9827TIP3   OH229421   7.835   2.597   3.646 -0.7336  0.3188  0.1985
 9827TIP3    H129422   7.895   2.669   3.664 -1.0548  1.1894 -1.8651
 9827TIP3    H229423   7.805   2.568   3.732  0.1377  2.0083  1.1203
 9828TIP3   OH229424   6.218   4.304   5.579  0.3138 -0.1908 -0.0135
 9828TIP3    H129425   6.254   4.216   5.592  1.4696  0.2359 -0.1869
 9828TIP3    H229426   6.147   4.291   5.516  0.7260 -0.9436 -0.3405
 9829TIP3   OH229427   1.147   6.523   3.670 -0.0798 -0.5487  0.0020
 9829TIP3    H129428   1.154   6.580   3.594  1.3124 -1.9661 -0.9891
 9829TIP3    H229429   1.178   6.576   3.743 -0.9242  0.6526 -0.4883
 9830TIP3   OH229430   3.966   5.944   2.107  0.3231  0.3127  0.3567
 9830TIP3    H129431   4.028   5.929   2.035 -0.7004  1.5977 -0.8413
 9830TIP3    H229432   3.915   6.020   2.080 -0.5160  0.4605  2.1874
 9831TIP3   OH229433   2.339   0.722   1.885  0.1776  0.0707 -0.3220
 9831TIP3    H129434   2.401   0.706   1.814 -1.2043 -1.3677 -1.2572
 9831TIP3    H229435   2.267   0.661   1.870 -0.8185  0.6747  1.5471
 9832TIP3   OH229436   3.613   0.129   5.680  0.6901  0.3397  0.5118
 9832TIP3    H129437   3.520   0.104   5.686  0.5294  1.0469  1.0455
 9832TIP3    H229438   3.640   0.099   5.594  0.0899 -0.3044  0.5384
 9833TIP3   OH229439   2.151   1.664   2.031 -0.1521 -0.4870  0.0153
 9833TIP3    H129440   2.125   1.574   2.052 -0.1013 -0.5433 -0.1582
 9833TIP3    H229441   2.236   1.675   2.075 -0.9292  0.0428  1.4533
 9834TIP3   OH229442   3.143   3.013   1.486  0.0701 -0.0351  0.1295
 9834TIP3    H129443   3.235   3.039   1.493 -0.3143  1.1233  1.2401
 9834TIP3    H229444   3.116   3.042   1.399  0.5052  0.4687  0.1605
 9835TIP3   OH229445   5.319   4.793   6.866 -0.1644  0.2162  0.8012
 9835TIP3    H129446   5.358   4.873   6.831 -0.5198  0.2779  0.5429
 9835TIP3    H229447   5.332   4.728   6.797 -0.9734  0.3679  0.4971
 9836TIP3   OH229448   3.346   5.773   6.173  0.2315 -0.3173  0.1606
 9836TIP3    H129449   3.440   5.789   6.178  0.2166 -0.5298  1.7326
 9836TIP3    H229450   3.320   5.756   6.264 -0.7722 -3.2529 -0.5440
 9837TIP3   OH229451   1.905   4.225   3.647  0.0647 -0.4432 -0.2994
 9837TIP3    H129452   1.898   4.276   3.567 -0.2894  1.4418  0.8717
 9837TIP3    H229453   1.994   4.240   3.679 -0.0396 -0.5590  0.0605
 9838TIP3   OH229454   7.035   1.480   5.022 -0.2099  0.6493  0.3296
 9838TIP3    H129455   7.015   1.573   5.034 -0.1262  0.8356 -0.8918
 9838TIP3    H229456   7.098   1.477   4.951 -0.3487 -0.3640  0.2267
 9839TIP3   OH229457   1.370   4.807   4.676 -0.6589  0.0426 -0.2289
 9839TIP3    H129458   1.281   4.843   4.674 -0.6248  0.2205 -3.1747
 9839TIP3    H229459   1.377   4.756   4.595  1.2271 -1.8153  1.0086
 9840TIP3   OH229460   3.476   5.755   6.600 -0.4968  0.0238 -0.2496
 9840TIP3    H129461   3.539   5.685   6.581 -0.1892 -0.1423  1.2283
 9840TIP3    H229462   3.506   5.791   6.684 -1.0993  1.4247 -0.6122
 9841TIP3   OH229463   6.724   6.804   5.269  0.3473 -0.0254  0.4184
 9841TIP3    H129464   6.676   6.870   5.218  1.1501 -0.8405 -1.5062
 9841TIP3    H229465   6.792   6.855   5.314  0.8642  0.5306 -0.9194
 9842TIP3   OH229466   2.488   5.944   2.010  0.0925  0.0086  0.2289
 9842TIP3    H129467   2.469   6.031   2.046 -0.7561 -0.1270  0.1386
 9842TIP3    H229468   2.568   5.956   1.960 -0.4733  0.9587 -0.4905
 9843TIP3   OH229469   5.772   3.796   4.885  0.5612 -0.1932 -0.2328
 9843TIP3    H129470   5.696   3.738   4.893  0.8643 -0.3575  1.8550
 9843TIP3    H229471   5.827   3.754   4.818 -0.1378 -1.2696 -0.1591
 9844TIP3   OH229472   0.016   6.611   4.675  0.3643 -0.2606 -0.0046
 9844TIP3    H129473  -0.063   6.619   4.620 -0.4745 -2.9236  0.6758
 9844TIP3    H229474   0.088   6.604   4.612 -0.1779  0.1529 -0.6861
 9845TIP3   OH229475   5.969   6.688   4.615  0.3185 -0.0169 -0.2349
 9845TIP3    H129476   6.058   6.722   4.626  1.2450 -2.0858 -0.7761
 9845TIP3    H229477   5.943   6.660   4.702  0.1726  0.6369 -0.0662
 9846TIP3   OH229478   5.931   7.107   6.680 -0.7558 -0.1343  0.8084
 9846TIP3    H129479   5.861   7.136   6.622 -0.7070 -0.1235  0.7553
 9846TIP3    H229480   5.907   7.018   6.705  0.1173 -0.8104 -0.6258
 9847TIP3   OH229481   1.372   5.199   4.130 -0.1550 -0.1238  0.1588
 9847TIP3    H129482   1.460   5.195   4.168 -0.0479  2.4780  0.3414
 9847TIP3    H229483   1.374   5.275   4.072 -2.2079 -0.1328  0.0026
 9848TIP3   OH229484   8.367   6.307   0.271 -0.8493  0.0072 -0.4417
 9848TIP3    H129485   8.392   6.360   0.195 -1.9726  1.4784  0.1610
 9848TIP3    H229486   8.305   6.243   0.237 -2.0401  1.2286 -0.6527
 9849TIP3   OH229487   3.258   0.518   3.093 -0.3177 -0.8961 -0.5680
 9849TIP3    H129488   3.281   0.611   3.088 -2.0115 -0.4661 -1.0701
 9849TIP3    H229489   3.321   0.475   3.035 -0.4657  0.1572 -1.5596
 9850TIP3   OH229490   0.814   3.560   1.293 -0.0133  0.1265  0.5504
 9850TIP3    H129491   0.802   3.544   1.387 -0.1146  3.2987  1.2118
 9850TIP3    H229492   0.906   3.540   1.277 -0.3590 -1.9542  0.9062
 9851TIP3   OH229493   3.646   4.417   2.155 -0.3933  0.0765  0.2232
 9851TIP3    H129494   3.570   4.389   2.103 -1.5653  1.1199  1.3166
 9851TIP3    H229495   3.610   4.477   2.220  1.2106 -0.2987  1.5203
 9852TIP3   OH229496   5.165   1.413   3.702  0.2981 -0.2010 -0.1078
 9852TIP3    H129497   5.148   1.330   3.656 -0.8297  0.2866 -0.6122
 9852TIP3    H229498   5.214   1.466   3.639 -0.6569  0.2157 -0.5154
 9853TIP3   OH229499   3.624   5.872   4.683 -0.3882 -0.3598 -0.0993
 9853TIP3    H129500   3.606   5.822   4.603 -0.3111 -1.2353  0.4202
 9853TIP3    H229501   3.593   5.961   4.663  0.8627 -0.2059 -1.5949
 9854TIP3   OH229502   1.512   7.659   2.882 -0.0722  0.0515 -0.7242
 9854TIP3    H129503   1.498   7.742   2.929  0.3660 -0.3427  0.1300
 9854TIP3    H229504   1.581   7.679   2.819 -0.2220  0.4271 -0.7729
 9855TIP3   OH229505   6.114   1.974   4.997  0.0381  0.1499 -0.5538
 9855TIP3    H129506   6.045   1.910   5.013  3.7899 -3.7997  2.0200
 9855TIP3    H229507   6.105   2.037   5.069 -1.7727  0.7427 -1.2439
 9856TIP3   OH229508   5.331   3.229   1.096 -0.0080 -0.0807  0.1766
 9856TIP3    H129509   5.395   3.158   1.099  0.9959  0.7379 -0.9558
 9856TIP3    H229510   5.247   3.186   1.112  0.7640 -1.2344  1.3373
 9857TIP3   OH229511   2.570   6.276   2.295  0.0735  0.2756 -0.4330
 9857TIP3    H129512   2.650   6.223   2.288  1.4492  2.2091 -0.0483
 9857TIP3    H229513   2.550   6.278   2.388  0.3092  0.8405 -0.3942
 9858TIP3   OH229514   1.665   6.782   0.118 -0.0873  0.1582  0.7294
 9858TIP3    H129515   1.674   6.875   0.096 -0.0236  0.4024  1.7759
 9858TIP3    H229516   1.737   6.739   0.071 -0.3183  0.5777 -0.0349
 9859TIP3   OH229517   6.093   7.333   2.818 -0.1043  0.1144  0.0163
 9859TIP3    H129518   6.002   7.313   2.796 -0.0391 -0.7238  0.4657
 9859TIP3    H229519   6.143   7.258   2.785  0.2111 -0.2702  1.2943
 9860TIP3   OH229520   5.131   3.623   0.622 -0.1326 -0.2085  0.3129
 9860TIP3    H129521   5.092   3.690   0.566  0.3135  0.5698  0.9311
 9860TIP3    H229522   5.153   3.668   0.703 -0.0522 -1.1557  0.8345
 9861TIP3   OH229523   7.893   4.105   1.661 -0.6206  0.0209  0.6667
 9861TIP3    H129524   7.866   4.027   1.614 -0.3455 -0.9011  1.9799
 9861TIP3    H229525   7.864   4.178   1.607 -1.6056 -0.9834 -0.1806
 9862TIP3   OH229526   4.180   2.734   4.916 -0.1739 -0.1836  0.0431
 9862TIP3    H129527   4.217   2.648   4.935  0.4123 -0.0198 -0.3308
 9862TIP3    H229528   4.135   2.760   4.996  1.5678  0.1581  0.9513
 9863TIP3   OH229529   0.729   1.725   3.275  1.0428 -0.3178 -0.4550
 9863TIP3    H129530   0.648   1.773   3.258  0.6630 -1.1637 -1.1341
 9863TIP3    H229531   0.781   1.736   3.196  1.4768 -0.0261 -0.1360
 9864TIP3   OH229532   4.558   0.144   3.549 -0.0459 -0.1525  0.2111
 9864TIP3    H129533   4.612   0.091   3.608  0.1105 -0.4367 -0.1816
 9864TIP3    H229534   4.604   0.141   3.465 -0.9470 -0.8531 -0.2727
 9865TIP3   OH229535   2.292   1.988   3.077 -0.1830  0.0907 -0.1809
 9865TIP3    H129536   2.299   2.081   3.055 -1.2703  0.3862  0.6211
 9865TIP3    H229537   2.354   1.975   3.148  0.1661  0.1351 -0.4740
 9866TIP3   OH229538   3.201   1.038   2.079  0.5685  0.0549  0.5106
 9866TIP3    H129539   3.165   0.951   2.097  0.1437  0.0535 -0.2798
 9866TIP3    H229540   3.123   1.093   2.066  0.8271  0.0812 -1.1051
 9867TIP3   OH229541   2.848   2.239   5.019 -0.1990  0.1956  0.0445
 9867TIP3    H129542   2.832   2.333   5.018 -1.2598  0.0250 -0.0730
 9867TIP3    H229543   2.767   2.200   4.986  0.5225 -0.7195 -0.7520
 9868TIP3   OH229544   1.306   0.434   5.313  0.0638  0.0031 -0.0122
 9868TIP3    H129545   1.357   0.457   5.235  0.0512 -1.5072 -0.5049
 9868TIP3    H229546   1.215   0.443   5.285  0.0537  0.4244  0.1463
 9869TIP3   OH229547   2.487   6.678   0.246 -0.2463 -0.2145  0.2479
 9869TIP3    H129548   2.444   6.692   0.330 -0.8428  0.0028 -0.0871
 9869TIP3    H229549   2.570   6.636   0.268  0.2915  1.2204  1.0550
 9870TIP3   OH229550   4.401   4.553   5.766  0.0265 -0.9399 -0.2566
 9870TIP3    H129551   4.352   4.484   5.721 -0.2896 -1.0047  0.1829
 9870TIP3    H229552   4.345   4.578   5.839 -0.0660  0.0986 -0.6628
 9871TIP3   OH229553   7.987   6.627   5.040 -0.5106  0.4660  0.1776
 9871TIP3    H129554   7.933   6.556   5.005  0.5498 -1.3553  2.0734
 9871TIP3    H229555   7.975   6.699   4.977 -0.0902 -1.9648 -2.9211
 9872TIP3   OH229556   4.082   0.589   6.825  0.3179 -0.1977  0.1379
 9872TIP3    H129557   4.177   0.591   6.835  0.3478 -2.1152  0.6938
 9872TIP3    H229558   4.058   0.680   6.808  2.3389  0.1894 -0.9953
 9873TIP3   OH229559   2.132   5.880   0.284  0.6030  0.1259 -0.3624
 9873TIP3    H129560   2.217   5.909   0.250 -0.3318  1.7147 -1.4601
 9873TIP3    H229561   2.092   5.960   0.319 -1.9271  0.2783 -3.1667
 9874TIP3   OH229562   5.182   3.453   6.181  0.8839 -0.0446  0.0337
 9874TIP3    H129563   5.229   3.511   6.121 -0.7855 -0.3407 -1.6772
 9874TIP3    H229564   5.129   3.513   6.234  1.9773  0.1880  0.8958
 9875TIP3   OH229565   0.899   0.020   5.459 -0.0703 -0.2445  0.2537
 9875TIP3    H129566   0.912  -0.072   5.437 -1.0864 -0.3576  0.0777
 9875TIP3    H229567   0.961   0.067   5.403  2.7239 -0.9506  2.5456
 9876TIP3   OH229568   5.128   1.930   2.207 -0.1461  0.2458 -0.8029
 9876TIP3    H129569   5.174   1.922   2.291  0.4442 -0.2083 -1.1634
 9876TIP3    H229570   5.083   2.014   2.213 -0.4487  0.0378  0.1301
 9877TIP3   OH229571   6.948   1.738   6.495  0.0625 -0.2567 -0.1347
 9877TIP3    H129572   6.983   1.649   6.501 -0.1032 -0.2964  0.3714
 9877TIP3    H229573   6.949   1.769   6.586  0.6531  0.4707 -0.3862
 9878TIP3   OH229574   4.704   1.865   5.196  0.3448  0.9445  0.0895
 9878TIP3    H129575   4.701   1.772   5.216  4.7172  0.8714  1.3945
 9878TIP3    H229576   4.688   1.908   5.280  0.6500  1.3053 -0.0341
 9879TIP3   OH229577   5.858   6.474   3.867  0.0181  0.5698 -0.0931
 9879TIP3    H129578   5.926   6.539   3.852  0.3649  0.3442  0.4939
 9879TIP3    H229579   5.782   6.508   3.820  0.4933  0.8848 -0.6440
 9880TIP3   OH229580   2.854   1.507   1.259 -0.3598 -0.0238 -0.0749
 9880TIP3    H129581   2.880   1.580   1.315 -1.9019 -0.6384  1.5418
 9880TIP3    H229582   2.872   1.429   1.312  1.9537 -0.9676 -2.0406
 9881TIP3   OH229583   0.043   1.839   0.048 -0.3062 -0.3643  0.6347
 9881TIP3    H129584   0.123   1.808   0.090  0.4331 -0.2564 -0.6418
 9881TIP3    H229585   0.045   1.934   0.060  0.7411 -0.1457 -0.9816
 9882TIP3   OH229586   7.004   2.482   1.915 -0.3939 -0.1314  0.3755
 9882TIP3    H129587   7.062   2.416   1.952 -1.3800 -1.8926 -1.0925
 9882TIP3    H229588   6.918   2.440   1.911 -1.6742  2.1280  1.7451
 9883TIP3   OH229589   1.731   0.383   3.698  0.0893  0.1838  0.6935
 9883TIP3    H129590   1.790   0.359   3.626 -0.0989 -1.3302  1.0061
 9883TIP3    H229591   1.717   0.477   3.687  1.4910  0.3199 -0.1738
 9884TIP3   OH229592   2.606   5.614   5.728 -0.3056 -0.1728  0.3467
 9884TIP3    H129593   2.663   5.566   5.669 -0.2032 -0.9501  1.0667
 9884TIP3    H229594   2.519   5.610   5.686  0.3048  1.9204 -1.2911
 9885TIP3   OH229595   0.331   0.121   0.094 -0.7553 -0.3004  0.4099
 9885TIP3    H129596   0.393   0.054   0.064 -1.1609 -0.5205  0.0485
 9885TIP3    H229597   0.250   0.101   0.047 -1.2008 -0.2159  1.1257
 9886TIP3   OH229598   3.752   3.386   5.514  0.3781 -0.1777  0.0583
 9886TIP3    H129599   3.760   3.293   5.534 -0.0655 -0.2772 -0.2227
 9886TIP3    H229600   3.842   3.418   5.513  0.5192 -0.5492  0.4033
 9887TIP3   OH229601   7.034   0.674   1.973  0.0202 -0.5287  0.5091
 9887TIP3    H129602   6.983   0.745   1.934 -1.4935 -0.9591  1.6489
 9887TIP3    H229603   7.122   0.685   1.936 -0.6077  0.8935 -0.6453
 9888TIP3   OH229604   8.354   3.015   0.887 -0.0874  0.1722  0.2227
 9888TIP3    H129605   8.393   2.934   0.919  0.3134 -0.2971 -1.3671
 9888TIP3    H229606   8.410   3.084   0.921  0.2914 -0.2958  0.5513
 9889TIP3   OH229607   1.093   1.657  -0.022 -0.5919 -0.1013  1.3796
 9889TIP3    H129608   1.019   1.684   0.031 -1.1087 -1.4776  1.3896
 9889TIP3    H229609   1.167   1.653   0.039 -1.3326 -2.3725  2.2090
 9890TIP3   OH229610   2.742   7.887   5.062 -0.4492  0.2814 -0.0040
 9890TIP3    H129611   2.786   7.971   5.078  0.1662 -0.1134  0.4400
 9890TIP3    H229612   2.810   7.832   5.023 -0.9823  0.1292 -0.7391
 9891TIP3   OH229613   3.516   6.876   0.278 -0.2244 -0.0164 -0.1683
 9891TIP3    H129614   3.549   6.893   0.367 -1.0493 -0.9605  0.3352
 9891TIP3    H229615   3.423   6.859   0.290 -0.6998  1.4956 -1.4313
 9892TIP3   OH229616   6.805   3.406   6.869  0.7379 -0.3233 -0.5204
 9892TIP3    H129617   6.830   3.495   6.895 -0.2937 -0.0625 -0.3677
 9892TIP3    H229618   6.786   3.413   6.775  1.1038 -0.4834 -0.6055
 9893TIP3   OH229619   4.956  -0.020   5.916 -0.3316  0.2967 -0.0184
 9893TIP3    H129620   4.905   0.046   5.869 -0.0350  0.0505 -0.6963
 9893TIP3    H229621   4.975   0.021   6.001 -1.3515  0.5205  0.1126
 9894TIP3   OH229622   0.236   1.440   6.260 -0.4277 -0.2663  0.2007
 9894TIP3    H129623   0.211   1.503   6.193  0.9327 -0.6103 -0.6833
 9894TIP3    H229624   0.231   1.355   6.216 -0.2325 -0.5755  0.7563
 9895TIP3   OH229625   1.774   4.681   4.255 -0.2034  0.3353 -0.0704
 9895TIP3    H129626   1.687   4.659   4.287 -0.6811  3.2410  0.9346
 9895TIP3    H229627   1.807   4.600   4.216 -1.9069 -1.8605  2.6522
 9896TIP3   OH229628   6.617   2.019   1.834  0.5507 -0.0975 -0.3696
 9896TIP3    H129629   6.638   1.957   1.904 -1.4575 -1.1445 -0.6350
 9896TIP3    H229630   6.671   2.096   1.855  0.2009 -0.4464  2.2189
 9897TIP3   OH229631   6.799   3.396   6.325  0.5365  0.4984  0.0841
 9897TIP3    H129632   6.853   3.433   6.395 -0.6280 -1.3960  2.0946
 9897TIP3    H229633   6.713   3.435   6.338  0.4110  0.4597 -0.5926
 9898TIP3   OH229634   7.027   0.106   1.512  0.2249 -0.0585  0.3205
 9898TIP3    H129635   6.999   0.167   1.443 -1.0606 -0.3987  0.5109
 9898TIP3    H229636   7.049   0.162   1.586 -0.7532  0.1975  0.4269
 9899TIP3   OH229637   2.920   4.438   6.441 -0.0532 -0.1040 -0.1979
 9899TIP3    H129638   2.976   4.491   6.384  2.2740 -4.2075 -2.2329
 9899TIP3    H229639   2.970   4.426   6.521 -0.4925  0.5958  0.1853
 9900TIP3   OH229640   6.505   6.008   2.862 -0.5202 -0.2346  0.0096
 9900TIP3    H129641   6.498   5.968   2.949  1.2702 -1.1851 -0.2305
 9900TIP3    H229642   6.520   6.101   2.880  1.1747 -0.6070  0.8249
 9901TIP3   OH229643   7.411   2.430   5.918 -0.2409 -0.1403 -0.0676
 9901TIP3    H129644   7.446   2.343   5.899 -0.2468 -0.4352  1.1688
 9901TIP3    H229645   7.488   2.483   5.940 -0.3966 -0.3529  1.0427
 9902TIP3   OH229646   3.418   6.299   5.546  0.0030 -0.4295 -0.7532
 9902TIP3    H129647   3.476   6.347   5.604  0.3372 -0.6670 -0.8876
 9902TIP3    H229648   3.332   6.303   5.589  0.2380 -0.5667 -0.2626
 9903TIP3   OH229649   1.310   0.332   4.256 -0.3326 -0.0476 -0.1024
 9903TIP3    H129650   1.395   0.308   4.219 -0.2400  0.2034 -0.0529
 9903TIP3    H229651   1.323   0.420   4.291 -1.1129  0.7484 -1.7121
 9904TIP3   OH229652   2.210   4.268   3.570 -0.1454  0.3359  0.1631
 9904TIP3    H129653   2.186   4.176   3.576 -3.0141  1.0203  0.9280
 9904TIP3    H229654   2.284   4.279   3.630 -1.3289 -1.0293  1.9362
 9905TIP3   OH229655   2.241   0.197   1.866  0.5252  0.2338  0.2920
 9905TIP3    H129656   2.324   0.151   1.850  0.5018  0.0675  0.6304
 9905TIP3    H229657   2.229   0.190   1.961 -0.1815 -0.2748  0.1680
 9906TIP3   OH229658   1.832   4.953   4.723 -0.1007  0.0174 -0.0861
 9906TIP3    H129659   1.886   4.949   4.801  1.2369 -1.2951 -1.0353
 9906TIP3    H229660   1.825   4.862   4.693 -0.0874  0.5472 -1.8195
 9907TIP3   OH229661   0.811   0.173   0.841 -0.3562  0.1699 -0.4858
 9907TIP3    H129662   0.748   0.144   0.907  0.9674 -0.6571  0.4510
 9907TIP3    H229663   0.763   0.169   0.759 -1.4232 -0.7969  0.1592
 9908TIP3   OH229664   0.022   1.140   3.181  0.6096  0.4827 -0.0217
 9908TIP3    H129665  -0.006   1.178   3.099  0.3273 -0.3390 -0.3151
 9908TIP3    H229666   0.112   1.171   3.192  0.5774  0.7677 -0.5282
 9909TIP3   OH229667   1.159   3.014   2.359  0.0198 -0.5937  0.3425
 9909TIP3    H129668   1.202   3.060   2.430  0.6549 -1.1436  0.3232
 9909TIP3    H229669   1.068   3.005   2.387 -0.1137  0.6213  0.3634
 9910TIP3   OH229670   7.988   7.262   4.691 -0.4402 -0.0989 -0.7099
 9910TIP3    H129671   8.063   7.210   4.719  0.3341  0.6910 -1.2824
 9910TIP3    H229672   8.007   7.286   4.601 -1.3686  0.1446 -0.8543
 9911TIP3   OH229673   7.389   1.580   0.060  0.2992  0.3493 -0.0953
 9911TIP3    H129674   7.298   1.576   0.091  0.1408  1.1887 -0.4289
 9911TIP3    H229675   7.392   1.514  -0.010  0.2547 -0.4689  0.6574
 9912TIP3   OH229676   0.523   2.479   4.341  0.2073  0.2932 -0.1893
 9912TIP3    H129677   0.569   2.397   4.319 -1.0887 -0.5672  0.2035
 9912TIP3    H229678   0.566   2.545   4.288  2.0946 -0.4125  0.3696
 9913TIP3   OH229679   0.621   5.468   2.735 -0.2604  0.4503  0.4138
 9913TIP3    H129680   0.591   5.384   2.769 -0.4457  0.0888 -0.6278
 9913TIP3    H229681   0.651   5.515   2.813 -3.2746  0.7632  1.5194
 9914TIP3   OH229682   5.255   2.506   3.426 -0.4314 -0.1344  0.2755
 9914TIP3    H129683   5.298   2.423   3.448 -0.4615 -0.0607  0.6051
 9914TIP3    H229684   5.299   2.534   3.346 -0.3882 -0.4444  0.1881
 9915TIP3   OH229685   6.300   5.636   2.096 -0.9485  0.3310  0.0009
 9915TIP3    H129686   6.235   5.704   2.080 -1.0825  0.0552 -0.6303
 9915TIP3    H229687   6.256   5.554   2.073 -0.9429 -0.0300  1.1759
 9916TIP3   OH229688   3.804   0.958   4.152 -0.1163 -1.1398  0.1531
 9916TIP3    H129689   3.721   0.974   4.108 -0.6517  0.7364  1.7014
 9916TIP3    H229690   3.865   0.937   4.081 -1.2946  0.1260 -1.3120
 9917TIP3   OH229691   4.495   4.956   5.928  0.1526 -0.1774 -0.3440
 9917TIP3    H129692   4.500   4.880   5.987  1.2115 -0.2001 -0.4481
 9917TIP3    H229693   4.479   4.918   5.841 -0.1957 -0.2188 -0.2640
 9918TIP3   OH229694   7.463   0.410   1.776  0.4997 -0.3145 -0.2140
 9918TIP3    H129695   7.532   0.408   1.710  0.8243  0.0923  0.1100
 9918TIP3    H229696   7.500   0.462   1.848 -0.5773  0.9207 -0.5225
 9919TIP3   OH229697   0.754   5.093   1.816  0.4546  0.3559  0.4525
 9919TIP3    H129698   0.811   5.167   1.839  1.2732 -0.0964 -0.0767
 9919TIP3    H229699   0.771   5.078   1.723 -1.0001  0.5991  0.1164
 9920TIP3   OH229700   0.369   3.156   2.507  0.1676 -0.3428  0.9141
 9920TIP3    H129701   0.407   3.098   2.572  0.1458 -0.0931  1.1514
 9920TIP3    H229702   0.302   3.205   2.555 -0.0315 -0.3463  0.6430
 9921TIP3   OH229703   0.489   4.712   5.113 -0.4002 -0.5354  0.1110
 9921TIP3    H129704   0.571   4.695   5.066  0.2243 -1.2603  1.4068
 9921TIP3    H229705   0.516   4.743   5.199 -1.4669 -1.2553  0.7417
 9922TIP3   OH229706   3.121   5.804   4.530  0.6891 -0.0534  0.2126
 9922TIP3    H129707   3.139   5.715   4.499  1.0099 -0.1560  0.6737
 9922TIP3    H229708   3.055   5.838   4.470 -0.6035 -1.1689  0.9258
 9923TIP3   OH229709   5.305   7.116   1.578 -0.0537  0.3211  0.4156
 9923TIP3    H129710   5.289   7.182   1.645 -1.7868 -0.0300  0.4123
 9923TIP3    H229711   5.222   7.110   1.530  1.7700  2.1868 -3.3149
 9924TIP3   OH229712   7.808   7.759   4.220 -0.0006  0.6346 -1.0389
 9924TIP3    H129713   7.763   7.677   4.201  0.2214  0.1760  0.3023
 9924TIP3    H229714   7.854   7.781   4.139 -1.4226  0.3436 -1.9587
 9925TIP3   OH229715   1.637   7.879   1.469 -0.2706  0.4023 -0.1483
 9925TIP3    H129716   1.697   7.924   1.529 -0.0479 -0.3429  0.2038
 9925TIP3    H229717   1.555   7.926   1.477  0.1269  1.1220 -0.2468
 9926TIP3   OH229718   0.502   5.163   1.914 -0.3708 -0.0353  0.4053
 9926TIP3    H129719   0.577   5.123   1.870  0.4239  0.4851  1.2492
 9926TIP3    H229720   0.470   5.229   1.852 -0.0796 -0.1966  0.0787
 9927TIP3   OH229721   0.314   5.637   4.001  0.0900  0.4813  0.2175
 9927TIP3    H129722   0.343   5.608   3.915 -1.4227 -1.4022  0.2611
 9927TIP3    H229723   0.353   5.724   4.012  1.2596  0.2803 -1.8535
 9928TIP3   OH229724   1.068   0.632   0.395 -0.1338  0.2073  0.2209
 9928TIP3    H129725   1.041   0.680   0.473 -5.3715 -1.6990  0.0147
 9928TIP3    H229726   1.097   0.547   0.428 -2.4016 -0.6195  0.2888
 9929TIP3   OH229727   1.317   4.950   5.946 -0.2637  1.1053 -1.2614
 9929TIP3    H129728   1.236   4.944   5.996  0.8105  0.3644  0.5066
 9929TIP3    H229729   1.359   5.029   5.980  0.6240  0.4246 -0.7243
 9930TIP3   OH229730   8.109   2.510   4.581  0.2217  0.5649  0.5735
 9930TIP3    H129731   8.131   2.566   4.655  0.5275  1.0856  0.1000
 9930TIP3    H229732   8.193   2.471   4.556  0.0869  0.2483  0.6191
 9931TIP3   OH229733   3.995   6.950   3.939 -0.2220 -0.5350  0.5322
 9931TIP3    H129734   4.084   6.918   3.948 -0.1201  0.0898  1.8734
 9931TIP3    H229735   3.999   7.043   3.961 -0.9208 -0.0884 -1.0595
 9932TIP3   OH229736   1.720   6.926   1.474  0.3614 -0.4493 -0.4356
 9932TIP3    H129737   1.742   6.854   1.534 -1.3677  0.1391  0.9952
 9932TIP3    H229738   1.790   6.990   1.486  0.1884 -0.4693  0.7767
 9933TIP3   OH229739   1.807   1.861   4.090  0.3546 -0.3148  0.1450
 9933TIP3    H129740   1.784   1.935   4.034 -1.1828 -1.0990 -0.3426
 9933TIP3    H229741   1.797   1.894   4.179  0.4011  0.2618 -0.0568
 9934TIP3   OH229742   2.725   5.129   5.347  0.7237 -0.3038 -0.1978
 9934TIP3    H129743   2.713   5.160   5.437  2.1979 -4.0294  1.5012
 9934TIP3    H229744   2.803   5.175   5.315  0.6245  0.5084  0.6966
 9935TIP3   OH229745   5.191   7.530   4.988 -0.7969 -0.4448  0.2789
 9935TIP3    H129746   5.228   7.444   4.966 -0.8691 -0.6565  0.9486
 9935TIP3    H229747   5.194   7.533   5.084  0.2713  0.7884  0.2190
 9936TIP3   OH229748   6.233   5.578   5.594  0.6267 -0.1490  0.2213
 9936TIP3    H129749   6.261   5.492   5.625 -0.2459  0.4283  2.8242
 9936TIP3    H229750   6.177   5.559   5.518  0.8672 -1.8333  0.4312
 9937TIP3   OH229751   0.535   2.324   5.109  0.0565  0.6142  0.4145
 9937TIP3    H129752   0.509   2.234   5.088 -0.7131  1.0793 -0.7047
 9937TIP3    H229753   0.460   2.378   5.081  0.6652  1.6376  0.7146
 9938TIP3   OH229754   8.157   2.810   1.137 -0.2821  0.1662  0.4881
 9938TIP3    H129755   8.153   2.847   1.049  0.0554  0.6960  0.6862
 9938TIP3    H229756   8.069   2.778   1.154 -0.0505 -1.1142 -0.5303
 9939TIP3   OH229757   7.778   2.180   1.152 -0.5461 -0.1322 -0.2442
 9939TIP3    H129758   7.808   2.111   1.211  0.8929  0.8068  0.1729
 9939TIP3    H229759   7.717   2.135   1.092 -0.6035 -1.4829  0.7698
 9940TIP3   OH229760   1.439   4.067   5.976 -0.2754  0.3612 -0.3572
 9940TIP3    H129761   1.472   4.143   5.928 -0.3715  1.2894  0.9758
 9940TIP3    H229762   1.366   4.035   5.923 -1.4698  2.3795 -0.0491
 9941TIP3   OH229763   2.379   4.499   2.352 -0.5457  0.1058  0.4815
 9941TIP3    H129764   2.326   4.458   2.420 -0.5316  1.0083  1.0661
 9941TIP3    H229765   2.415   4.577   2.395 -0.9639  0.9841 -0.7241
 9942TIP3   OH229766   8.169   5.570   3.779  0.3595  0.1029  0.4845
 9942TIP3    H129767   8.256   5.544   3.747  0.4022  0.7379  0.0583
 9942TIP3    H229768   8.187   5.634   3.847  0.2386 -0.3968  0.9945
 9943TIP3   OH229769   5.278   1.743   3.675  0.5696  0.0890 -0.7371
 9943TIP3    H129770   5.191   1.770   3.648 -0.4865 -1.2878  1.0492
 9943TIP3    H229771   5.306   1.681   3.608 -0.2044 -0.1116 -0.8821
 9944TIP3   OH229772   3.906   0.244   5.494  0.3275  0.2329  0.4023
 9944TIP3    H129773   3.855   0.195   5.429 -0.2342 -0.8921  1.6283
 9944TIP3    H229774   3.942   0.176   5.552 -1.9143  1.2487  3.2108
 9945TIP3   OH229775   5.617   7.489   6.399  0.3669 -0.0717  0.4784
 9945TIP3    H129776   5.527   7.458   6.384  0.8788 -1.3051 -0.1486
 9945TIP3    H229777   5.656   7.489   6.312  2.0878 -3.1388  1.1158
 9946TIP3   OH229778   5.270   7.119   4.930  0.4414  0.5868  0.0880
 9946TIP3    H129779   5.305   7.205   4.909 -1.1565  1.4301  0.6963
 9946TIP3    H229780   5.332   7.057   4.892  0.7328  2.0007 -1.8527
 9947TIP3   OH229781   6.320   3.257   0.035 -0.4677  0.0153 -0.3219
 9947TIP3    H129782   6.278   3.201  -0.029 -0.6983  0.5156 -0.6171
 9947TIP3    H229783   6.386   3.202   0.077 -0.9731 -0.5860 -0.3162
 9948TIP3   OH229784   0.377   0.746   0.743 -0.0066 -0.2949  0.3256
 9948TIP3    H129785   0.377   0.834   0.705 -3.8894 -0.1755  0.1468
 9948TIP3    H229786   0.378   0.687   0.668  1.9579 -0.4502  0.4307
 9949TIP3   OH229787   1.773   1.435   3.367  0.8523  0.3291 -0.1265
 9949TIP3    H129788   1.722   1.399   3.439 -0.0458 -0.5593 -1.1583
 9949TIP3    H229789   1.850   1.378   3.362  0.1115 -0.6409 -0.8771
 9950TIP3   OH229790   2.002   5.946   3.259  0.1078 -0.0032 -0.1169
 9950TIP3    H129791   1.957   5.864   3.238  1.3858 -0.7973  0.1316
 9950TIP3    H229792   2.019   5.986   3.174  1.3150 -1.0346 -0.3925
 9951TIP3   OH229793   2.269   4.858   2.091  0.2365  0.9380  0.3897
 9951TIP3    H129794   2.247   4.907   2.011 -0.2446 -0.1845 -0.1944
 9951TIP3    H229795   2.200   4.791   2.097  2.5873 -1.7649 -0.6659
 9952TIP3   OH229796   2.550   5.383   2.569  0.2873 -0.0287 -0.0955
 9952TIP3    H129797   2.541   5.389   2.664  2.3771  0.3425  0.1392
 9952TIP3    H229798   2.461   5.373   2.536 -0.4459 -0.4367  1.9168
 9953TIP3   OH229799   2.604   5.190   4.567 -0.6047 -0.0070  0.0470
 9953TIP3    H129800   2.681   5.155   4.612 -0.0024  0.1071 -0.8609
 9953TIP3    H229801   2.533   5.179   4.629 -0.1202 -1.3777  0.4018
 9954TIP3   OH229802   5.857   4.839   0.908 -0.3204  0.2861  0.3523
 9954TIP3    H129803   5.843   4.762   0.963  0.8328 -0.5417 -0.4509
 9954TIP3    H229804   5.771   4.879   0.900 -0.7840 -0.4207  1.5042
 9955TIP3   OH229805   1.185   5.574   4.162 -0.5497 -0.2525  0.0097
 9955TIP3    H129806   1.274   5.606   4.175 -0.6669 -0.0773  0.4139
 9955TIP3    H229807   1.141   5.644   4.113  0.2785 -1.5116 -2.6940
 9956TIP3   OH229808   3.335  -0.003   2.798  0.0789  0.4081  0.1744
 9956TIP3    H129809   3.410   0.021   2.853 -0.4511  0.6598  0.8117
 9956TIP3    H229810   3.324   0.071   2.739  0.9922 -0.1004 -0.6651
 9957TIP3   OH229811   3.493   1.922   3.132 -0.3117  0.2923 -0.0471
 9957TIP3    H129812   3.570   1.866   3.121  0.1354  1.3465 -3.7590
 9957TIP3    H229813   3.419   1.863   3.124  0.1148 -0.2966  0.2730
 9958TIP3   OH229814   6.400   4.338   4.622  0.1900 -0.3731  0.1263
 9958TIP3    H129815   6.487   4.302   4.608  0.0091 -0.6990 -0.1775
 9958TIP3    H229816   6.415   4.430   4.644  0.6391 -0.5546  0.6021
 9959TIP3   OH229817   5.968   2.705   6.092 -0.2716 -0.7010 -0.5558
 9959TIP3    H129818   5.996   2.786   6.134  0.7582 -1.2746 -0.1066
 9959TIP3    H229819   5.920   2.657   6.159 -0.8178 -0.5164 -0.8007
 9960TIP3   OH229820   7.920   1.214   3.927 -0.1398  0.3265 -0.4507
 9960TIP3    H129821   7.949   1.305   3.916  0.8434 -0.0831 -1.3887
 9960TIP3    H229822   7.943   1.172   3.845 -2.5775 -0.2766 -0.9112
 9961TIP3   OH229823   5.073   7.305   5.435  1.1417  0.1257  1.1675
 9961TIP3    H129824   5.054   7.265   5.520  0.3697 -0.9596  0.5153
 9961TIP3    H229825   5.166   7.289   5.421  1.0499 -0.5968  1.3536
 9962TIP3   OH229826   5.651   6.696   5.593  0.0412 -0.1491 -0.1942
 9962TIP3    H129827   5.638   6.787   5.619  1.2730  0.5247 -1.7802
 9962TIP3    H229828   5.565   6.655   5.604 -0.1857  0.7789  2.0086
 9963TIP3   OH229829   3.387   6.181   1.336  0.5476  0.3453  0.0730
 9963TIP3    H129830   3.406   6.238   1.411  0.7630 -0.8844  0.9757
 9963TIP3    H229831   3.354   6.241   1.269  1.5362  1.6466  0.7006
 9964TIP3   OH229832   5.190   7.362   1.671  0.1702 -0.1994 -0.1713
 9964TIP3    H129833   5.111   7.371   1.724  1.0991  2.7567  0.9077
 9964TIP3    H229834   5.167   7.399   1.586  0.3941  0.7201  0.1633
 9965TIP3   OH229835   0.995   1.286   2.163  0.6646  0.9521  0.4774
 9965TIP3    H129836   1.070   1.263   2.109  0.3147  0.1658  0.3290
 9965TIP3    H229837   1.033   1.331   2.238  1.2434  0.9940  0.1607
 9966TIP3   OH229838   6.661   1.832   2.046 -0.1684 -0.3331 -0.0061
 9966TIP3    H129839   6.612   1.778   2.109  0.3426  0.8579  1.4685
 9966TIP3    H229840   6.733   1.775   2.017 -0.2188 -0.8018  0.7509
 9967TIP3   OH229841   6.023   5.954   4.028  0.6379 -0.2528 -0.0617
 9967TIP3    H129842   5.995   5.917   3.945 -0.5402 -1.9071  1.0134
 9967TIP3    H229843   6.032   5.878   4.086 -1.0546  1.0348  2.0191
 9968TIP3   OH229844   3.192   1.587   6.422 -0.2024 -0.4495 -0.2115
 9968TIP3    H129845   3.281   1.553   6.423  0.5519  1.1765 -2.2924
 9968TIP3    H229846   3.201   1.678   6.449 -1.6214 -0.8156  1.7163
 9969TIP3   OH229847   5.242   4.530   2.404 -0.3624  0.0045 -0.1358
 9969TIP3    H129848   5.175   4.572   2.457 -1.2155 -0.6416 -0.6860
 9969TIP3    H229849   5.213   4.440   2.395  0.3610 -0.1780 -0.7569
 9970TIP3   OH229850   4.064   0.182   1.262 -0.6775 -0.0706  0.6088
 9970TIP3    H129851   4.123   0.139   1.201 -0.5940 -0.7746  1.1778
 9970TIP3    H229852   4.092   0.274   1.262 -0.6391 -0.0786 -0.3473
 9971TIP3   OH229853   2.615   1.483   4.024  0.3081  0.2210  0.6542
 9971TIP3    H129854   2.576   1.568   4.006  0.4339  0.2334  0.4413
 9971TIP3    H229855   2.634   1.446   3.938 -2.0004 -1.0848  0.6239
 9972TIP3   OH229856   3.905   4.744   0.841 -0.1741  0.1057  0.1731
 9972TIP3    H129857   3.891   4.655   0.808  0.3138 -0.5307  1.6095
 9972TIP3    H229858   3.842   4.798   0.792  0.1530 -0.8546 -1.3744
 9973TIP3   OH229859   1.835   7.547   1.253 -0.1997 -0.6050  0.1201
 9973TIP3    H129860   1.752   7.583   1.284 -1.0901 -0.7125 -1.9479
 9973TIP3    H229861   1.818   7.523   1.162  2.5479  0.8448 -0.8932
 9974TIP3   OH229862   4.422   5.953   1.447 -0.6797  0.3469  0.4843
 9974TIP3    H129863   4.475   6.005   1.507  0.1665 -1.3976  1.3110
 9974TIP3    H229864   4.370   5.895   1.503 -1.0580 -0.2175 -0.4225
 9975TIP3   OH229865   5.764   7.524   6.177  0.2747 -0.4378 -0.1745
 9975TIP3    H129866   5.802   7.461   6.116  0.8051 -0.6697  0.3895
 9975TIP3    H229867   5.729   7.593   6.121  0.7595 -0.6425 -0.7434
 9976TIP3   OH229868   0.224   5.942   3.447 -0.1428  0.4569  0.2466
 9976TIP3    H129869   0.245   5.849   3.451  0.1541  0.3105 -2.6344
 9976TIP3    H229870   0.287   5.978   3.384 -1.2570  2.2872  0.0997
 9977TIP3   OH229871   2.501   4.392   5.834 -0.3254  0.0860 -0.3295
 9977TIP3    H129872   2.485   4.449   5.759  2.3223  1.0461 -0.3026
 9977TIP3    H229873   2.501   4.451   5.909  1.5084 -0.0395 -0.1836
 9978TIP3   OH229874   3.744   2.874   0.022 -0.2020  0.1086 -0.4848
 9978TIP3    H129875   3.729   2.966   0.043  1.4810  0.1724  0.5794
 9978TIP3    H229876   3.805   2.876  -0.052 -0.1721 -0.1550 -0.4678
 9979TIP3   OH229877   0.042   2.581   4.276  0.7574 -0.7742  0.3719
 9979TIP3    H129878   0.120   2.554   4.323  1.5599  0.0704 -0.4376
 9979TIP3    H229879   0.063   2.667   4.241 -0.5592 -0.4991  0.1898
 9980TIP3   OH229880   4.725   4.957   2.008 -0.0274 -0.5278 -0.6202
 9980TIP3    H129881   4.796   5.009   1.969  0.7643  0.0366  1.4405
 9980TIP3    H229882   4.732   4.872   1.965  1.5214 -0.2877 -0.9020
 9981TIP3   OH229883   4.093   7.050   4.367  0.2868 -0.5113  0.1488
 9981TIP3    H129884   4.010   7.072   4.325  0.0661 -1.3431  0.1172
 9981TIP3    H229885   4.152   7.121   4.344  0.4793 -1.4263 -2.4393
 9982TIP3   OH229886   1.792   0.647   2.987  0.5892 -0.1037  0.0118
 9982TIP3    H129887   1.778   0.729   3.035  1.0429 -0.7895  1.3643
 9982TIP3    H229888   1.823   0.675   2.900 -0.3165  1.1706  0.0766
 9983TIP3   OH229889   4.348   5.897   5.371  0.1699 -0.8373 -0.1346
 9983TIP3    H129890   4.379   5.973   5.421  0.1102 -1.0729  0.2644
 9983TIP3    H229891   4.390   5.822   5.413 -0.2234 -1.0752 -0.1664
 9984TIP3   OH229892   7.955   1.337   6.209 -0.4124 -0.6292 -0.3877
 9984TIP3    H129893   7.997   1.314   6.292  1.7299 -1.8673 -1.7337
 9984TIP3    H229894   7.915   1.256   6.178 -1.0478 -0.2202 -0.6659
 9985TIP3   OH229895   5.844   5.370   2.147 -0.4426 -0.1389  0.9461
 9985TIP3    H129896   5.826   5.276   2.157  0.1079 -0.1188  2.3379
 9985TIP3    H229897   5.843   5.404   2.236 -1.6193  1.3845  0.3937
 9986TIP3   OH229898   1.443   7.531   6.113  0.0688  0.3078 -0.1638
 9986TIP3    H129899   1.520   7.582   6.138 -0.2327  1.2082 -1.0140
 9986TIP3    H229900   1.451   7.520   6.018 -0.0235 -1.0017 -0.0420
 9987TIP3   OH229901   5.512   0.460   5.516 -0.6312  0.4906 -0.3038
 9987TIP3    H129902   5.504   0.372   5.554 -2.2365  1.5217  1.9907
 9987TIP3    H229903   5.595   0.493   5.551 -0.2884  0.0981 -0.7348
 9988TIP3   OH229904   0.829   3.484   2.613  1.0735 -0.0990 -0.0511
 9988TIP3    H129905   0.746   3.436   2.615  0.5769  0.7660  1.4507
 9988TIP3    H229906   0.894   3.418   2.586 -0.1155 -0.7120 -1.5899
 9989TIP3   OH229907   3.422   5.812   3.092 -0.8038  0.1551  0.5406
 9989TIP3    H129908   3.379   5.897   3.097  0.0770  0.5482  2.0287
 9989TIP3    H229909   3.385   5.762   3.165 -0.2120 -0.2086  0.5962
 9990TIP3   OH229910   3.203   7.073   0.659 -0.0696 -0.0532  0.4080
 9990TIP3    H129911   3.279   7.071   0.718  0.7575 -0.2447 -0.6275
 9990TIP3    H229912   3.141   7.132   0.702  0.9228  0.6165  0.9764
 9991TIP3   OH229913   7.111   2.268   1.604 -0.1707  0.3444 -0.5439
 9991TIP3    H129914   7.159   2.254   1.523 -1.1281  0.2471 -1.1131
 9991TIP3    H229915   7.159   2.336   1.650  0.7283 -0.0338 -0.9080
 9992TIP3   OH229916   0.121   6.026   5.385 -0.2629  0.3525  0.0344
 9992TIP3    H129917   0.112   5.936   5.416  1.9201 -0.3892 -1.2198
 9992TIP3    H229918   0.201   6.058   5.427 -0.7236  1.5234  0.0502
 9993TIP3   OH229919   6.602   2.503   0.578  0.2008  0.3177 -0.0615
 9993TIP3    H129920   6.538   2.464   0.518  0.6041 -0.2672 -0.1251
 9993TIP3    H229921   6.589   2.456   0.661  0.3326  0.4115  0.0131
 9994TIP3   OH229922   2.807   1.725   2.174 -0.0585 -0.2591 -0.3850
 9994TIP3    H129923   2.736   1.721   2.110 -0.1840  0.2401 -0.2810
 9994TIP3    H229924   2.768   1.692   2.255 -1.3951  3.5710  0.7426
 9995TIP3   OH229925   8.224   7.716   1.781 -1.0324 -0.0034 -0.2440
 9995TIP3    H129926   8.301   7.763   1.747 -0.4887 -0.3104  0.5563
 9995TIP3    H229927   8.255   7.670   1.858 -1.7136 -1.2110 -0.6638
 9996TIP3   OH229928   0.242   3.615   0.978  0.0380  0.0529  0.2231
 9996TIP3    H129929   0.155   3.602   1.015 -0.1788 -1.5510 -0.7562
 9996TIP3    H229930   0.227   3.670   0.901  0.1650  1.3457  1.1002
 9997TIP3   OH229931   4.239   1.990   4.984  0.1393 -0.4067  0.1867
 9997TIP3    H129932   4.241   1.899   4.956 -0.6365 -0.4758  0.3456
 9997TIP3    H229933   4.171   1.994   5.050  0.0110  0.3341  0.0200
 9998TIP3   OH229934   2.740   7.121   5.222 -0.2591  0.0579 -0.2667
 9998TIP3    H129935   2.748   7.205   5.177  0.5899 -0.4273 -1.0443
 9998TIP3    H229936   2.741   7.055   5.152  3.4456 -0.8949  0.4459
 9999TIP3   OH229937   5.073   6.258   1.872  0.4192 -0.1362  0.2359
 9999TIP3    H129938   5.064   6.168   1.903 -0.9502  0.3681  1.4238
 9999TIP3    H229939   5.158   6.287   1.904  0.8194 -0.9694 -0.0635
10000TIP3   OH229940   3.475   5.584   3.946  0.3303  0.8340  0.5081
10000TIP3    H129941   3.487   5.507   3.891 -1.8829  1.2955 -0.7586
10000TIP3    H229942   3.549   5.641   3.924  0.4259  0.2619 -0.7077
10001TIP3   OH229943   6.686   6.558   0.391 -0.7621  0.2750  0.3205
10001TIP3    H129944   6.709   6.551   0.484  0.5616 -1.4173 -0.0842
10001TIP3    H229945   6.613   6.620   0.389 -1.0441  0.0999  2.5215
10002TIP3   OH229946   5.446   0.364   6.450 -0.4600  0.2235 -0.5308
10002TIP3    H129947   5.413   0.310   6.522 -1.7116  0.0534 -1.1953
10002TIP3    H229948   5.457   0.303   6.377 -0.5693  0.6234 -0.8846
10003TIP3   OH229949   4.610   2.570   3.917 -0.1376  0.4719  0.0556
10003TIP3    H129950   4.532   2.550   3.969 -0.7269 -0.2148 -1.0517
10003TIP3    H229951   4.683   2.539   3.971 -0.6945  0.2213  0.6870
10004TIP3   OH229952   1.745   2.227   1.886 -0.1465 -0.1062 -0.1449
10004TIP3    H129953   1.710   2.239   1.797 -0.0130 -0.3497 -0.2304
10004TIP3    H229954   1.749   2.132   1.897 -0.8715 -0.0875  0.3991
10005TIP3   OH229955   5.266   2.020   5.186  0.2074 -0.3918 -0.0252
10005TIP3    H129956   5.287   2.047   5.097  0.0622  0.6810  0.2540
10005TIP3    H229957   5.348   2.033   5.234  0.2355 -0.8032  0.0449
10006TIP3   OH229958   3.527   7.871   3.014  0.4358  0.2670 -0.0340
10006TIP3    H129959   3.475   7.940   3.055 -2.3510 -1.2471 -0.7521
10006TIP3    H229960   3.560   7.818   3.087  0.7258  1.0526  0.4200
10007TIP3   OH229961   7.499   5.282   0.354  0.3777 -0.1059  0.1685
10007TIP3    H129962   7.447   5.331   0.418  1.6016 -0.2231  1.3082
10007TIP3    H229963   7.459   5.195   0.353  0.0185  0.0538  0.3877
10008TIP3   OH229964   4.537   2.913   4.407 -0.0687 -0.0169 -0.3206
10008TIP3    H129965   4.530   2.913   4.312 -0.5707 -0.3557 -0.2841
10008TIP3    H229966   4.583   2.832   4.429  0.2912  0.1917 -0.2869
10009TIP3   OH229967   0.735   2.671   6.833  0.6718  0.0325  0.3697
10009TIP3    H129968   0.802   2.740   6.833 -0.3716  1.0827  1.2420
10009TIP3    H229969   0.690   2.682   6.749  1.8245 -0.9629 -0.4231
10010TIP3   OH229970   4.643   7.881   0.999 -0.4518  0.4118  0.6588
10010TIP3    H129971   4.719   7.829   0.971  0.3306  1.2262  1.2118
10010TIP3    H229972   4.670   7.972   0.987 -1.9948  0.7244 -0.7852
10011TIP3   OH229973   0.313   4.442   4.297 -0.1708  0.1194 -0.2491
10011TIP3    H129974   0.243   4.449   4.361  1.2323 -1.6628  1.5901
10011TIP3    H229975   0.313   4.527   4.253 -2.3902  0.7420  0.7807
10012TIP3   OH229976   6.197   0.664   4.934 -0.0248 -0.1734 -0.1109
10012TIP3    H129977   6.278   0.651   4.884  0.1332 -0.0536  0.1097
10012TIP3    H229978   6.154   0.579   4.931 -0.4563  0.0683 -1.2051
10013TIP3   OH229979   7.612   1.945   3.002 -0.0911 -0.1103  0.1504
10013TIP3    H129980   7.568   1.923   3.084 -1.8644  0.1546 -0.6678
10013TIP3    H229981   7.619   1.862   2.955 -1.2830  0.0799 -0.4076
10014TIP3   OH229982   5.722   3.708   1.895  0.5145  0.8950  0.3633
10014TIP3    H129983   5.703   3.632   1.840  2.2974  0.5793  0.1484
10014TIP3    H229984   5.639   3.756   1.898 -0.1148 -0.0410 -1.0874
10015TIP3   OH229985   2.157   6.104   4.682 -0.1767 -0.4020 -0.0532
10015TIP3    H129986   2.212   6.159   4.626  1.0868 -0.5764  0.9647
10015TIP3    H229987   2.098   6.165   4.725  0.4392  0.0317  0.1934
10016TIP3   OH229988   6.996   3.147   4.618  0.3749  0.2247 -0.4057
10016TIP3    H129989   7.043   3.231   4.619  2.9026 -1.0672 -1.1038
10016TIP3    H229990   6.993   3.122   4.526  0.5481 -0.8853 -0.1285
10017TIP3   OH229991   2.195   2.199   6.032  0.2520 -0.4999  0.6010
10017TIP3    H129992   2.185   2.295   6.031 -0.7327 -0.5856 -0.1412
10017TIP3    H229993   2.289   2.185   6.020  0.3010  0.3810 -0.2686
10018TIP3   OH229994   6.777   0.979   2.712 -0.1171 -0.7585  0.3608
10018TIP3    H129995   6.840   1.041   2.747  1.2456 -0.8485 -1.7528
10018TIP3    H229996   6.821   0.894   2.715 -1.0698 -1.2481  1.0655
10019TIP3   OH229997   4.451   2.694   0.259 -0.1239  0.3797 -0.5368
10019TIP3    H129998   4.504   2.615   0.255  0.9744  1.1000 -0.6674
10019TIP3    H229999   4.464   2.727   0.348  0.3123  0.9886 -0.8154
10020TIP3   OH230000   3.503   0.012   4.225 -0.1352  0.3183 -0.5054
10020TIP3    H130001   3.479   0.001   4.133 -0.5398 -0.5384 -0.3010
10020TIP3    H230002   3.424   0.045   4.267  0.0872  0.8303 -0.4826
10021TIP3   OH230003   7.775   3.994   0.168 -0.0605 -0.2171 -0.2398
10021TIP3    H130004   7.698   3.945   0.138  0.2482 -0.8073 -0.0949
10021TIP3    H230005   7.843   3.927   0.178  0.6767  0.3908 -1.0254
10022TIP3   OH230006   7.423   1.907   5.100  0.1724 -0.0027 -0.2119
10022TIP3    H130007   7.498   1.966   5.085 -0.0093  0.5575  0.9170
10022TIP3    H230008   7.380   1.900   5.015 -0.3918  2.3464 -0.1880
10023TIP3   OH230009   5.675   5.473   0.830 -0.5675 -0.3077  0.1076
10023TIP3    H130010   5.589   5.443   0.858 -0.8841 -0.8375 -1.3271
10023TIP3    H230011   5.657   5.525   0.751  0.5585 -2.2116 -1.5066
10024TIP3   OH230012   5.770   1.999   0.197 -0.0990 -0.0700 -0.5267
10024TIP3    H130013   5.836   1.938   0.164  0.3814  0.0911  0.1171
10024TIP3    H230014   5.687   1.959   0.173  0.2056 -1.0649  0.0411
10025TIP3   OH230015   1.340   4.040   2.006  0.5048 -0.0847 -0.1989
10025TIP3    H130016   1.273   4.059   1.941  0.4804 -0.2939 -0.2337
10025TIP3    H230017   1.393   3.971   1.967 -1.7268 -2.9448  1.4929
10026TIP3   OH230018   0.638   2.229   2.494  0.2393  0.2036  0.1610
10026TIP3    H130019   0.554   2.194   2.464  1.4343 -0.2191 -3.0736
10026TIP3    H230020   0.697   2.153   2.495  1.1233  0.8701  0.1160
10027TIP3   OH230021   4.802   1.337   3.291 -0.7502  0.7277  0.5517
10027TIP3    H130022   4.868   1.286   3.245 -0.4484  0.9668  0.7055
10027TIP3    H230023   4.853   1.391   3.352 -0.8922  2.6075 -0.9235
10028TIP3   OH230024   8.301   4.621   1.744  0.0312  0.2619 -0.0888
10028TIP3    H130025   8.356   4.699   1.744 -0.8643  0.9248 -0.6835
10028TIP3    H230026   8.296   4.595   1.836  0.1625  1.0522  0.1535
10029TIP3   OH230027   8.353   1.417   1.861 -0.5081 -0.2213  0.1275
10029TIP3    H130028   8.396   1.397   1.777  1.9994  1.6856  0.8457
10029TIP3    H230029   8.410   1.378   1.927 -1.4414 -0.0686  1.0490
10030TIP3   OH230030   1.915   5.087   0.103 -0.1766  0.3198  0.0533
10030TIP3    H130031   1.819   5.085   0.097 -0.3390  2.0000  1.4266
10030TIP3    H230032   1.942   5.140   0.028 -0.0203 -2.4897 -2.0608
10031TIP3   OH230033   5.608   5.378   6.646  0.3283  0.9361 -0.0268
10031TIP3    H130034   5.513   5.362   6.650  0.0276  2.6494  0.5763
10031TIP3    H230035   5.625   5.399   6.555  0.3717 -0.5790 -0.3959
10032TIP3   OH230036   2.404   1.198   3.221  0.3816  0.4369 -0.5360
10032TIP3    H130037   2.404   1.219   3.315  0.9687 -0.8568 -0.2208
10032TIP3    H230038   2.319   1.228   3.190  0.3708  1.3320  0.3037
10033TIP3   OH230039   7.152   2.288   4.027 -0.2909  0.4254  0.1430
10033TIP3    H130040   7.198   2.257   4.105 -2.0241 -1.1989  0.6272
10033TIP3    H230041   7.089   2.353   4.061 -2.4381 -1.7021  0.5546
10034TIP3   OH230042   7.312   3.738   0.310 -0.0210 -0.2793 -0.3158
10034TIP3    H130043   7.407   3.726   0.313  0.4208  2.6619  0.3996
10034TIP3    H230044   7.278   3.682   0.381  1.3536 -0.0901  0.5226
10035TIP3   OH230045   4.820   3.328   2.577 -0.2870  0.0252 -0.3161
10035TIP3    H130046   4.782   3.351   2.492 -0.7562  0.6019  0.0381
10035TIP3    H230047   4.847   3.237   2.567 -1.5091 -0.3231 -0.6821
10036TIP3   OH230048   0.469   7.364   3.098 -0.1652  0.6163  0.3741
10036TIP3    H130049   0.394   7.423   3.103  0.1903  1.0825  0.2714
10036TIP3    H230050   0.529   7.406   3.036 -1.1044 -1.2374 -1.9456
10037TIP3   OH230051   1.363   6.702   4.719 -0.5570  0.5333  0.2359
10037TIP3    H130052   1.273   6.710   4.751 -1.1389  0.0813 -1.1748
10037TIP3    H230053   1.353   6.691   4.624  0.9486 -0.2885  0.1423
10038TIP3   OH230054   6.232   2.673   4.492  0.4368 -0.0400 -0.5498
10038TIP3    H130055   6.188   2.720   4.563  0.1667 -2.1500  0.7690
10038TIP3    H230056   6.164   2.662   4.426 -0.3156 -0.9436  0.3328
10039TIP3   OH230057   2.945   5.825   2.509  0.0130 -0.6792  0.2504
10039TIP3    H130058   2.855   5.795   2.514 -0.0894 -0.3132  0.6423
10039TIP3    H230059   2.956   5.884   2.584  1.3523 -2.7381  1.7818
10040TIP3   OH230060   6.590   3.852   5.130  0.4759  0.5317 -0.4995
10040TIP3    H130061   6.580   3.800   5.210  1.4677 -0.2123 -0.8371
10040TIP3    H230062   6.521   3.918   5.135  0.0696  0.0397  0.6161
10041TIP3   OH230063   6.535   1.259   0.276 -0.7059  0.2421  0.1653
10041TIP3    H130064   6.546   1.303   0.360 -0.2356  1.4636 -0.5178
10041TIP3    H230065   6.619   1.217   0.259 -0.0639  1.8103 -0.6905
10042TIP3   OH230066   4.418   1.755   4.132  0.1820 -0.2927  0.6477
10042TIP3    H130067   4.493   1.777   4.077 -0.1226 -0.2778  0.2310
10042TIP3    H230068   4.342   1.781   4.080 -0.1103 -0.2280  1.0998
10043TIP3   OH230069   7.776   1.566   0.141  0.2547  0.2574 -0.0791
10043TIP3    H130070   7.825   1.643   0.112  0.4475 -0.3837 -1.5244
10043TIP3    H230071   7.842   1.497   0.151 -0.0995 -0.1051 -0.1971
10044TIP3   OH230072   6.991   3.674   3.729  0.3105 -0.5609  0.7306
10044TIP3    H130073   7.040   3.694   3.809 -0.1487 -0.3186  0.9594
10044TIP3    H230074   6.899   3.681   3.755  0.1458  0.7232 -0.1028
10045TIP3   OH230075   4.168   6.614   3.422 -0.8831 -0.3050 -0.0355
10045TIP3    H130076   4.252   6.574   3.398 -0.1634  1.9080 -1.5047
10045TIP3    H230077   4.190   6.677   3.491 -1.2689  0.4255 -0.5669
10046TIP3   OH230078   3.885   4.308   5.629 -0.4588  0.0460 -0.1919
10046TIP3    H130079   3.931   4.264   5.701  0.2245 -0.6846 -1.0371
10046TIP3    H230080   3.852   4.236   5.575  1.2019  0.4875 -1.9342
10047TIP3   OH230081   1.686   0.249   0.142  0.0924 -0.3456  0.3864
10047TIP3    H130082   1.617   0.301   0.101  1.4024  1.1329 -0.0554
10047TIP3    H230083   1.651   0.223   0.227 -1.0484  0.2259  0.0969
10048TIP3   OH230084   5.207   4.999   5.496  0.0536 -0.1985 -0.5467
10048TIP3    H130085   5.208   5.054   5.417 -0.5589  0.4875 -0.0925
10048TIP3    H230086   5.141   4.932   5.478 -2.0411  1.5074  0.3623
10049TIP3   OH230087   3.917   5.359   2.207 -0.0880  0.2975 -0.4987
10049TIP3    H130088   3.863   5.389   2.281  1.6823 -0.3872  1.1591
10049TIP3    H230089   3.854   5.343   2.137 -1.8128  1.3376  0.7221
10050TIP3   OH230090   2.437   1.805   5.383 -0.0420 -0.4868 -0.1461
10050TIP3    H130091   2.520   1.792   5.428 -0.6177  0.7809  1.3706
10050TIP3    H230092   2.446   1.890   5.340  0.5583 -1.7391 -2.6884
10051TIP3   OH230093   6.073   2.735   5.146  0.3430 -0.0703 -0.1181
10051TIP3    H130094   6.008   2.672   5.178  0.7845  0.8026  2.7403
10051TIP3    H230095   6.031   2.820   5.158  1.0518  0.3600 -0.6674
10052TIP3   OH230096   5.569   5.457   6.362 -0.6155 -0.0408  0.4327
10052TIP3    H130097   5.522   5.522   6.415 -0.0825  0.8066 -0.1015
10052TIP3    H230098   5.537   5.470   6.273 -1.3937 -1.3562  0.5015
10053TIP3   OH230099   0.948   1.129   5.897 -0.3055 -0.1526  0.3149
10053TIP3    H130100   0.876   1.090   5.847 -1.6977  3.3781 -0.6912
10053TIP3    H230101   0.965   1.212   5.854  3.4588 -0.1838  1.4647
10054TIP3   OH230102   2.972   0.030   3.634  0.8186  0.1575  0.1327
10054TIP3    H130103   2.977   0.052   3.540 -0.8478 -0.3961 -0.1252
10054TIP3    H230104   2.882   0.053   3.658  0.9239 -0.6598  1.3510
10055TIP3   OH230105   1.535   2.924   1.354 -0.6412  0.2339  0.0253
10055TIP3    H130106   1.456   2.871   1.361 -0.1947 -0.6495 -1.3395
10055TIP3    H230107   1.503   3.012   1.335 -1.3081 -0.6013 -3.2196
10056TIP3   OH230108   1.857   4.991   6.578  0.3741  0.1194  0.1101
10056TIP3    H130109   1.797   4.979   6.504 -0.8445 -1.4607  1.2778
10056TIP3    H230110   1.908   5.069   6.555 -0.8146  0.4064 -1.8076
10057TIP3   OH230111   2.979   2.900   1.257  0.6082  0.5010 -0.4008
10057TIP3    H130112   2.925   2.889   1.179  0.2419 -0.9258  0.0292
10057TIP3    H230113   3.054   2.842   1.244 -0.4397 -1.2764  1.1385
10058TIP3   OH230114   5.077   4.010   4.886  0.2637 -0.4545 -0.2477
10058TIP3    H130115   5.086   3.946   4.816  0.0742  0.6465 -1.3093
10058TIP3    H230116   5.003   3.979   4.938 -1.1314 -0.0448 -1.9270
10059TIP3   OH230117   4.225   2.390   1.025 -0.2043 -0.0339 -0.3805
10059TIP3    H130118   4.156   2.453   1.003 -0.6353 -0.6971 -0.9610
10059TIP3    H230119   4.190   2.342   1.100 -0.1843 -0.0736 -0.3970
10060TIP3   OH230120   7.494   7.413   6.298  0.5043 -0.1013 -0.4491
10060TIP3    H130121   7.460   7.323   6.302  1.4330 -0.4445  0.1750
10060TIP3    H230122   7.444   7.461   6.363  0.6601 -0.4021 -0.1064
10061TIP3   OH230123   8.034   0.596   6.789 -0.0456  0.3184 -0.2209
10061TIP3    H130124   8.096   0.656   6.747  1.7034 -1.1682  0.0772
10061TIP3    H230125   8.000   0.542   6.718 -0.7555  0.9111 -0.3383
10062TIP3   OH230126   2.662   6.294   0.712  0.1183 -0.0536 -0.9566
10062TIP3    H130127   2.626   6.230   0.651 -1.4979  0.8006 -0.9456
10062TIP3    H230128   2.649   6.254   0.798 -0.1169 -0.0806 -1.0035
10063TIP3   OH230129   7.722   5.078   2.735  0.0780 -0.7095  0.3302
10063TIP3    H130130   7.761   5.001   2.693  0.6481 -1.3750  1.9876
10063TIP3    H230131   7.757   5.077   2.824  1.1428  2.2364  0.0467
10064TIP3   OH230132   3.315   4.630   3.357  0.3612  0.2186 -0.2677
10064TIP3    H130133   3.257   4.632   3.433  2.2123  0.0973  1.2269
10064TIP3    H230134   3.264   4.671   3.287 -1.0128  1.4012  1.3322
10065TIP3   OH230135   4.327   4.812   0.195  0.5522 -0.3071 -0.0802
10065TIP3    H130136   4.381   4.852   0.263 -0.5339  1.7931 -0.3550
10065TIP3    H230137   4.377   4.823   0.115  0.5593 -0.0991 -0.0488
10066TIP3   OH230138   5.960   6.571   5.347  0.0290 -0.4203  0.3421
10066TIP3    H130139   5.983   6.578   5.440 -0.6473 -1.0989  0.5713
10066TIP3    H230140   5.995   6.486   5.320 -1.2830 -1.0216  0.4428
10067TIP3   OH230141   7.673   7.601   2.962 -0.1140  0.2787 -0.3984
10067TIP3    H130142   7.637   7.666   3.022 -1.4978  0.6891 -1.6292
10067TIP3    H230143   7.598   7.568   2.914  0.8288 -0.8207 -1.1647
10068TIP3   OH230144   2.064   6.525   5.071  0.0510 -0.5516 -0.3778
10068TIP3    H130145   2.003   6.463   5.112 -0.9741 -0.0593 -1.1085
10068TIP3    H230146   2.099   6.477   4.996  2.3720 -1.6648  1.2952
10069TIP3   OH230147   6.829   7.297   2.866  0.4389  0.6061  0.6126
10069TIP3    H130148   6.814   7.361   2.936  0.6916 -0.3121  1.5245
10069TIP3    H230149   6.742   7.279   2.830  0.2593  0.7925  0.9508
10070TIP3   OH230150   0.484   7.365   6.672  0.0640  0.6629  0.8773
10070TIP3    H130151   0.578   7.384   6.669 -0.0467  1.0967 -0.2934
10070TIP3    H230152   0.448   7.433   6.729  0.4214  0.5926  1.1995
10071TIP3   OH230153   6.057   4.610   5.525 -0.5158 -0.3695  0.4722
10071TIP3    H130154   6.012   4.564   5.454 -0.2525  0.5406 -0.3047
10071TIP3    H230155   6.076   4.541   5.589 -0.2625 -1.3235 -0.5791
10072TIP3   OH230156   4.802   7.020   3.821  0.9202  0.4311  0.2738
10072TIP3    H130157   4.750   6.959   3.768  0.9150  0.3257  0.3996
10072TIP3    H230158   4.886   7.026   3.775  0.4673  1.3555 -0.4630
10073TIP3   OH230159   3.237   2.507   3.459  0.1658  0.1867  0.4457
10073TIP3    H130160   3.293   2.547   3.526 -0.3350 -0.2618  1.1392
10073TIP3    H230161   3.290   2.511   3.379  1.7454 -1.3735  1.3272
10074TIP3   OH230162   8.114   2.269   1.792 -0.1107  0.2052  0.1592
10074TIP3    H130163   8.124   2.176   1.772 -1.6239 -0.2597  1.3371
10074TIP3    H230164   8.146   2.314   1.714 -0.7852 -1.3497 -1.0693
10075TIP3   OH230165   8.046   4.633   4.050 -0.7391  0.2162 -0.3449
10075TIP3    H130166   8.019   4.548   4.085 -0.5265  1.3713  3.0369
10075TIP3    H230167   8.141   4.635   4.064 -0.4897  0.4106 -1.9347
10076TIP3   OH230168   7.626   6.584   4.778  0.2338 -0.7455  0.5930
10076TIP3    H130169   7.584   6.666   4.752 -0.6378 -0.8509  1.6073
10076TIP3    H230170   7.580   6.558   4.857  0.0726 -2.5592 -0.0655
10077TIP3   OH230171   0.633   4.414   2.170 -0.2177  0.3157 -0.6796
10077TIP3    H130172   0.702   4.372   2.221  1.2760 -0.2604 -3.0454
10077TIP3    H230173   0.643   4.507   2.187  1.9515  0.3465 -1.8840
10078TIP3   OH230174   5.804   1.715   2.622  0.1505 -0.0175 -0.0764
10078TIP3    H130175   5.892   1.680   2.634 -0.1270 -0.3087  1.1905
10078TIP3    H230176   5.755   1.644   2.580  0.5351  0.1895 -0.9009
10079TIP3   OH230177   1.286   3.063   0.621 -0.1489  0.4172  0.0295
10079TIP3    H130178   1.322   3.098   0.702  0.7010  1.6618 -0.8434
10079TIP3    H230179   1.205   3.112   0.607  0.3911  1.1637 -0.5431
10080TIP3   OH230180   0.334   5.125   3.059 -0.1538  0.3627  0.1237
10080TIP3    H130181   0.397   5.068   3.103  0.2534 -1.0047 -2.0571
10080TIP3    H230182   0.257   5.069   3.045 -0.2879  0.7641 -0.8074
10081TIP3   OH230183   1.205   4.234   6.857 -0.2105  0.6212  0.0550
10081TIP3    H130184   1.295   4.224   6.826 -0.0352  1.0090  0.4429
10081TIP3    H230185   1.152   4.221   6.778  0.0808 -1.5046  0.1501
10082TIP3   OH230186   5.270   1.367   5.927  0.5572 -0.0212  0.2855
10082TIP3    H130187   5.180   1.334   5.922  0.7589 -0.4061 -2.1448
10082TIP3    H230188   5.324   1.288   5.920  1.0718  0.3706 -0.2358
10083TIP3   OH230189   7.726   3.573   1.106  0.0276 -0.2304  0.4738
10083TIP3    H130190   7.673   3.615   1.039  0.4888 -1.6382 -0.8051
10083TIP3    H230191   7.713   3.628   1.184 -0.9546  1.1144 -0.5872
10084TIP3   OH230192   2.129   2.382   6.721 -0.1705  0.6127  0.2496
10084TIP3    H130193   2.218   2.364   6.748 -0.4925  1.5388  2.0756
10084TIP3    H230194   2.134   2.465   6.672  0.2403 -0.4549 -1.6043
10085TIP3   OH230195   6.460   4.985   5.101  0.8691  0.3126  0.1052
10085TIP3    H130196   6.509   5.067   5.103  1.0502  0.2079 -0.0030
10085TIP3    H230197   6.387   5.002   5.041  1.7502 -0.0758 -1.1078
10086TIP3   OH230198   2.396   7.646   0.489  0.0119 -0.2804 -0.4623
10086TIP3    H130199   2.443   7.725   0.460 -1.8313  0.5922 -1.2269
10086TIP3    H230200   2.320   7.679   0.536  0.9183 -1.6759  2.1460
10087TIP3   OH230201   1.522   0.076   4.524  0.7818 -0.3888  0.2383
10087TIP3    H130202   1.563   0.006   4.473  0.8946 -0.3775  0.3144
10087TIP3    H230203   1.591   0.142   4.534  0.0650  0.7827 -1.7703
10088TIP3   OH230204   4.438   0.494   6.179 -0.4462  0.0602  0.2832
10088TIP3    H130205   4.456   0.532   6.093 -0.3719 -0.2472  0.1632
10088TIP3    H230206   4.461   0.402   6.170 -1.3041 -0.1753  0.3565
10089TIP3   OH230207   6.515   7.305   5.984 -0.0773  0.5342  0.0829
10089TIP3    H130208   6.463   7.225   5.977  0.4143  0.2907 -1.0334
10089TIP3    H230209   6.481   7.362   5.915  1.1764  0.3250 -0.7439
10090TIP3   OH230210   6.713   5.664   3.101  0.2349  0.3437 -0.0128
10090TIP3    H130211   6.711   5.603   3.174 -0.5468  0.5665  0.1623
10090TIP3    H230212   6.623   5.695   3.093  0.4322  0.7661 -0.6946
10091TIP3   OH230213   3.281   5.105   3.226  0.5691  0.1506 -0.4195
10091TIP3    H130214   3.249   5.061   3.305  0.4723 -0.9377 -1.0396
10091TIP3    H230215   3.324   5.184   3.258 -0.2715  0.2020  0.6495
10092TIP3   OH230216   3.526   3.940   5.645  0.0687 -0.0679  0.2768
10092TIP3    H130217   3.593   3.966   5.582 -0.4694  1.4873  0.2922
10092TIP3    H230218   3.455   3.906   5.591 -0.6813  1.9094 -0.0862
10093TIP3   OH230219   6.459   3.887   4.319  0.1219  0.0811 -0.4400
10093TIP3    H130220   6.478   3.793   4.321 -1.8662 -0.3416  0.5128
10093TIP3    H230221   6.388   3.899   4.382  0.0579  2.1770 -0.8336
10094TIP3   OH230222   4.912   5.783   1.182 -0.0563 -0.3927 -0.0664
10094TIP3    H130223   4.887   5.847   1.248 -1.5803 -1.6115  0.5978
10094TIP3    H230224   4.831   5.735   1.162  0.6617 -0.9934 -1.7914
10095TIP3   OH230225   7.980   3.943   3.275  0.0009 -0.0304  0.1271
10095TIP3    H130226   8.001   3.919   3.365 -0.7751 -0.3508  0.2304
10095TIP3    H230227   8.049   3.903   3.223 -0.5902 -1.4873  0.4087
10096TIP3   OH230228   2.126   5.573   6.552 -0.3581 -0.3290  0.0876
10096TIP3    H130229   2.051   5.624   6.522 -0.2295  0.1487  0.5626
10096TIP3    H230230   2.169   5.544   6.472 -0.8035 -0.2424 -0.1872
10097TIP3   OH230231   3.822   1.094   2.993 -0.5809 -0.1347 -0.9601
10097TIP3    H130232   3.863   1.080   3.079 -1.1887 -0.9255 -0.7925
10097TIP3    H230233   3.892   1.134   2.941 -0.4798  1.2342  0.1553
10098TIP3   OH230234   0.579   5.844   1.588 -0.7803 -0.0865 -0.2620
10098TIP3    H130235   0.612   5.931   1.566  0.4925 -0.4614  0.0686
10098TIP3    H230236   0.531   5.856   1.670 -0.2910  0.2472 -0.0209
10099TIP3   OH230237   2.262   2.814   1.682  0.8992 -0.0606 -1.0253
10099TIP3    H130238   2.328   2.872   1.720 -0.4404  0.5002  0.5567
10099TIP3    H230239   2.214   2.780   1.757 -0.8742 -0.1177 -2.1312
10100TIP3   OH230240   8.282   5.519   6.579 -0.4668  0.1805 -0.3356
10100TIP3    H130241   8.215   5.451   6.573 -2.3145  1.9123 -0.4101
10100TIP3    H230242   8.260   5.581   6.510  1.4527  0.6546 -0.5879
10101TIP3   OH230243   5.581   3.643   0.314 -0.0436  0.0905  0.3179
10101TIP3    H130244   5.583   3.559   0.360 -2.2569  0.9726  2.2079
10101TIP3    H230245   5.493   3.649   0.278 -0.1267  1.8260  0.7130
10102TIP3   OH230246   5.107   7.852   2.387 -0.3742 -0.6706  0.0666
10102TIP3    H130247   5.196   7.860   2.419 -0.4333 -0.4091  0.1691
10102TIP3    H230248   5.058   7.918   2.436 -0.7677 -1.2882  0.5221
10103TIP3   OH230249   6.326   2.211   4.067  0.4885 -0.2591  0.9024
10103TIP3    H130250   6.385   2.139   4.088 -1.7345 -1.4332  3.7539
10103TIP3    H230251   6.348   2.279   4.131 -0.5521 -0.3350  1.3599
10104TIP3   OH230252   8.123   4.230   5.037 -0.1601  0.2602 -0.0332
10104TIP3    H130253   8.155   4.220   5.126 -0.0010 -0.5263 -0.1701
10104TIP3    H230254   8.081   4.316   5.036  0.6465  0.6732  0.5388
10105TIP3   OH230255   4.563   4.097   4.411  0.3040  0.2816 -0.6870
10105TIP3    H130256   4.555   4.062   4.500 -1.3138  0.8187 -0.5756
10105TIP3    H230257   4.603   4.026   4.361 -1.4798 -1.1906 -0.1445
10106TIP3   OH230258   3.056   3.219   5.836 -0.1549  0.4732  0.0859
10106TIP3    H130259   3.058   3.300   5.887 -1.7619 -0.5750  1.9196
10106TIP3    H230260   2.974   3.176   5.861  1.2872 -2.4095  0.2321
10107TIP3   OH230261   0.342   6.743   6.479 -0.4290 -0.3201 -0.3857
10107TIP3    H130262   0.321   6.768   6.569 -1.7638  0.2174 -0.8157
10107TIP3    H230263   0.431   6.709   6.483  0.3073  1.5809  0.8028
10108TIP3   OH230264   2.661   0.981   0.461 -0.7611 -0.4027  0.5855
10108TIP3    H130265   2.612   0.921   0.404 -2.1404  1.3918 -0.2245
10108TIP3    H230266   2.642   0.950   0.549  2.0106 -3.6980  0.2190
10109TIP3   OH230267   4.024   6.957   3.504 -0.2078  0.6226 -0.0503
10109TIP3    H130268   4.011   6.965   3.598  2.5300  0.1723  0.4511
10109TIP3    H230269   3.997   7.041   3.468 -0.1425  1.2459  1.3042
10110TIP3   OH230270   8.369   1.023   3.946 -0.2602 -0.1131 -0.1095
10110TIP3    H130271   8.376   0.942   3.997 -2.6014 -0.3621 -0.1138
10110TIP3    H230272   8.350   0.994   3.857  0.9230  0.4254 -0.5646
10111TIP3   OH230273   7.854   1.429   1.851  0.3772 -0.5928  0.0060
10111TIP3    H130274   7.848   1.367   1.923 -1.7070 -2.0545 -1.3140
10111TIP3    H230275   7.872   1.376   1.774  1.0485  0.7576 -0.8183
10112TIP3   OH230276   7.585   7.308   5.585 -0.2466 -0.1553 -0.2164
10112TIP3    H130277   7.636   7.378   5.626 -1.8849  0.2529  1.2716
10112TIP3    H230278   7.631   7.228   5.607  1.0513  0.3489 -0.9977
10113TIP3   OH230279   0.398   7.717   3.153 -0.2401 -0.0216  0.0015
10113TIP3    H130280   0.416   7.809   3.173  0.2968 -0.2004  0.3803
10113TIP3    H230281   0.448   7.699   3.074  1.1741 -0.4637  0.9422
10114TIP3   OH230282   7.857   3.044   6.361  0.1777 -0.1171 -0.9818
10114TIP3    H130283   7.850   3.139   6.358  1.7882  0.0318 -2.8763
10114TIP3    H230284   7.841   3.016   6.270 -0.7307 -1.7143 -0.3771
10115TIP3   OH230285   1.651   6.288   4.876  0.3688  0.4086 -0.1543
10115TIP3    H130286   1.567   6.297   4.922  0.2572 -0.8519 -0.0719
10115TIP3    H230287   1.640   6.338   4.796 -0.5576  0.0854 -0.2457
10116TIP3   OH230288   3.762   3.629   2.307  0.7090  0.1676 -0.0209
10116TIP3    H130289   3.760   3.591   2.220  0.8045  0.5024 -0.1713
10116TIP3    H230290   3.707   3.707   2.301 -1.5994 -1.2781  0.9472
10117TIP3   OH230291   2.006   2.802   2.065 -0.2198 -0.4051 -0.3017
10117TIP3    H130292   2.070   2.743   2.025 -0.7290 -0.2590 -1.3646
10117TIP3    H230293   1.985   2.866   1.997 -0.8047  0.1111  0.3351
10118TIP3   OH230294   1.286   7.784   3.028  0.0174  0.4455  0.1324
10118TIP3    H130295   1.244   7.812   2.947 -1.2860 -0.6508  0.3787
10118TIP3    H230296   1.236   7.827   3.097  0.5376  0.6561  0.3786
10119TIP3   OH230297   3.522   6.081   5.848  0.3800 -0.3965 -0.1540
10119TIP3    H130298   3.516   6.013   5.781  0.8525 -1.2153  0.6308
10119TIP3    H230299   3.589   6.050   5.909  0.0323  0.3869  0.6506
10120TIP3   OH230300   1.660   0.955   5.954 -0.4195  0.4402 -0.2247
10120TIP3    H130301   1.649   0.866   5.990 -0.5399  0.0263 -1.2555
10120TIP3    H230302   1.747   0.982   5.984 -0.2378 -0.1699 -0.1843
10121TIP3   OH230303   1.745   2.484   5.114 -0.1791 -0.9019  0.6070
10121TIP3    H130304   1.810   2.491   5.044 -1.1696  1.9078 -0.1862
10121TIP3    H230305   1.667   2.448   5.071 -0.6815  0.5114  0.2712
10122TIP3   OH230306   1.876   4.832   1.043  0.0479 -0.0430  0.9830
10122TIP3    H130307   1.809   4.801   0.982  2.1519  1.0609 -2.1255
10122TIP3    H230308   1.836   4.908   1.086 -0.4745  1.2390 -1.5716
10123TIP3   OH230309   8.172   7.512   6.597  0.3495 -0.2493 -0.7370
10123TIP3    H130310   8.187   7.582   6.534  0.9319 -0.9118 -1.3572
10123TIP3    H230311   8.156   7.557   6.680 -1.3054  0.6646 -1.5025
10124TIP3   OH230312   0.787   4.059   3.570 -0.1021  0.5235 -0.1073
10124TIP3    H130313   0.822   4.022   3.489  1.1332  0.7416  0.2955
10124TIP3    H230314   0.713   4.112   3.542  0.7342  1.1774 -1.2028
10125TIP3   OH230315   6.366   5.431   6.778  0.1634  0.4211  0.0522
10125TIP3    H130316   6.412   5.496   6.830 -0.9027  1.9263 -0.7969
10125TIP3    H230317   6.275   5.437   6.808 -0.1422  0.0750 -0.7876
10126TIP3   OH230318   3.787   3.245   4.601  0.2065  0.1118 -0.3381
10126TIP3    H130319   3.765   3.224   4.511 -1.5621 -0.4687  0.1816
10126TIP3    H230320   3.761   3.168   4.651 -0.0781  0.9162  0.8060
10127TIP3   OH230321   5.059   6.404   0.204 -0.4210  0.1925 -0.1384
10127TIP3    H130322   5.107   6.462   0.263  1.0876 -1.9581  0.8801
10127TIP3    H230323   4.989   6.459   0.168  1.3628  2.8208  0.1431
10128TIP3   OH230324   3.916   5.179   3.966 -0.0740  0.6783 -0.1696
10128TIP3    H130325   3.907   5.085   3.981 -2.4271  0.5494 -1.9015
10128TIP3    H230326   3.979   5.186   3.894 -0.5579  0.3865 -0.6181
10129TIP3   OH230327   3.518   1.200   1.878  0.7169 -0.2857  0.3116
10129TIP3    H130328   3.570   1.198   1.798  1.1066  0.6875  0.5250
10129TIP3    H230329   3.430   1.225   1.850  1.2428  1.8322  0.3399
10130TIP3   OH230330   5.247   6.164   3.889 -0.2638 -0.3439 -0.2354
10130TIP3    H130331   5.162   6.207   3.884 -0.5740 -0.9639 -0.3970
10130TIP3    H230332   5.308   6.233   3.918 -0.5022  0.5405 -1.7451
10131TIP3   OH230333   7.562   1.694   3.567  0.3813 -0.6287 -0.3622
10131TIP3    H130334   7.593   1.736   3.648  1.7552 -0.5994 -0.8960
10131TIP3    H230335   7.512   1.618   3.598 -0.3110  0.1600  0.5466
10132TIP3   OH230336   3.812   5.355   2.621 -0.0915 -0.0018 -0.6875
10132TIP3    H130337   3.805   5.430   2.561  1.0199  0.2220 -0.5541
10132TIP3    H230338   3.898   5.364   2.661 -1.2906  0.5417  1.9176
10133TIP3   OH230339   8.086   5.249   0.128  0.3585 -0.0758 -0.1428
10133TIP3    H130340   8.153   5.317   0.134  0.4749 -0.2895  1.3360
10133TIP3    H230341   8.026   5.281   0.060  1.6954  0.3261 -1.1796
10134TIP3   OH230342   1.402   6.847   3.220 -0.1113 -0.2840  0.3608
10134TIP3    H130343   1.390   6.873   3.311 -0.5183 -1.2294  0.5893
10134TIP3    H230344   1.331   6.890   3.172  1.1018  1.6112  0.1839
10135TIP3   OH230345   0.810   5.566   2.587 -0.2864  0.1244 -0.6245
10135TIP3    H130346   0.748   5.532   2.651 -0.1830  2.4331  0.8335
10135TIP3    H230347   0.756   5.598   2.515 -0.6217  0.0874 -0.3911
10136TIP3   OH230348   6.344   3.222   5.256  0.1883  0.2218 -0.2616
10136TIP3    H130349   6.313   3.165   5.185  0.8888  0.5919 -0.8861
10136TIP3    H230350   6.379   3.161   5.321 -1.3568 -0.1772  0.2436
10137TIP3   OH230351   1.940   2.487   5.904 -0.2125  0.0501 -0.3739
10137TIP3    H130352   1.909   2.473   5.994  0.8670  0.3072  0.0681
10137TIP3    H230353   2.035   2.501   5.914 -0.1780  0.7556 -1.4857
10138TIP3   OH230354   7.585   0.789   4.405  0.3397  0.5069 -0.4534
10138TIP3    H130355   7.566   0.782   4.498  0.1679 -1.7559 -0.6087
10138TIP3    H230356   7.535   0.719   4.364  1.3384  0.6934 -2.1150
10139TIP3   OH230357   6.646   1.785   0.194 -0.3406  0.0860 -0.0999
10139TIP3    H130358   6.625   1.701   0.153 -0.5335  0.7756 -1.5057
10139TIP3    H230359   6.678   1.763   0.281 -0.9274 -1.3981 -0.2374
10140TIP3   OH230360   2.226   2.083   0.807 -0.4749 -0.2076 -0.9532
10140TIP3    H130361   2.316   2.049   0.809 -0.4593 -0.4760 -3.3715
10140TIP3    H230362   2.172   2.009   0.834  0.0471  0.3619  1.9652
10141TIP3   OH230363   3.150   2.786   0.839  0.3657 -0.0459 -0.0652
10141TIP3    H130364   3.079   2.738   0.798 -1.9530  0.6460  2.7922
10141TIP3    H230365   3.163   2.863   0.784  0.2369 -1.0986 -1.6203
10142TIP3   OH230366   4.881   6.838   4.458 -0.1703 -0.0019  0.2903
10142TIP3    H130367   4.878   6.760   4.514 -0.3570  0.1289  0.4607
10142TIP3    H230368   4.884   6.912   4.519  0.2514  0.1177  0.1291
10143TIP3   OH230369   6.745   0.173   0.542 -0.4531 -0.7722 -0.5468
10143TIP3    H130370   6.839   0.153   0.540  0.0434  1.2912 -1.5626
10143TIP3    H230371   6.740   0.259   0.586 -2.0708 -1.5914  0.9954
10144TIP3   OH230372   0.682   3.109   5.183 -0.1778 -0.1594 -0.6219
10144TIP3    H130373   0.753   3.152   5.231 -1.7525  0.6797  1.0700
10144TIP3    H230374   0.688   3.145   5.095  1.5648 -0.2170 -0.5591
10145TIP3   OH230375   1.628   1.429   6.203  0.4221 -0.5753 -0.4223
10145TIP3    H130376   1.532   1.427   6.201  0.4114  0.0793 -1.4723
10145TIP3    H230377   1.649   1.496   6.269  0.1766 -1.1842  0.2858
10146TIP3   OH230378   5.411   0.088   6.675 -0.5522 -0.1648 -0.1266
10146TIP3    H130379   5.452   0.030   6.611  0.6894  0.0053  0.5045
10146TIP3    H230380   5.435   0.052   6.760 -2.1237 -0.3427  0.2825
10147TIP3   OH230381   8.406   5.583   5.374 -0.5770  0.5946  0.3337
10147TIP3    H130382   8.404   5.491   5.347  0.8876  0.4857  0.5400
10147TIP3    H230383   8.314   5.611   5.370 -0.8226 -0.3293 -1.5696
10148TIP3   OH230384   4.208   7.269   5.410 -0.3695 -0.3402  0.1839
10148TIP3    H130385   4.253   7.217   5.477  0.4681 -0.1877 -0.2525
10148TIP3    H230386   4.202   7.357   5.447  0.4036 -0.1727 -0.0708
10149TIP3   OH230387   0.350   2.983   4.005  0.0381 -0.3404  0.0588
10149TIP3    H130388   0.289   2.986   4.080  0.6938  0.1439  0.5856
10149TIP3    H230389   0.399   3.065   4.011  0.7220 -0.7132 -0.3829
10150TIP3   OH230390   1.964   6.042   0.014  0.1237  0.6536  0.2488
10150TIP3    H130391   1.949   6.134  -0.007  0.2006  0.5950 -0.0624
10150TIP3    H230392   1.973   6.040   0.109 -1.6555  0.7212  0.4411
10151TIP3   OH230393   5.359   7.459   6.317 -0.1077  0.3341 -0.3617
10151TIP3    H130394   5.365   7.512   6.237  0.2827 -1.4824 -1.5964
10151TIP3    H230395   5.299   7.388   6.293  0.1771 -0.3513  0.9099
10152TIP3   OH230396   7.789   3.793   6.632  0.2598  0.0819  0.1407
10152TIP3    H130397   7.883   3.810   6.638  0.4499 -0.6689 -0.5307
10152TIP3    H230398   7.780   3.701   6.658 -0.1364 -0.2106 -0.9738
10153TIP3   OH230399   5.642   0.638   2.571  0.7900 -0.6360  0.1570
10153TIP3    H130400   5.685   0.722   2.558  0.5119 -0.7979 -2.3757
10153TIP3    H230401   5.608   0.642   2.660  1.6733  1.4943  0.4674
10154TIP3   OH230402   7.708   3.106   4.171 -0.2359 -0.0910 -0.2079
10154TIP3    H130403   7.659   3.110   4.253  1.6030  0.2438  0.9319
10154TIP3    H230404   7.746   3.018   4.170  1.0614  0.4335  0.1455
10155TIP3   OH230405   5.502   7.494   1.362 -0.5356  0.5688  0.3718
10155TIP3    H130406   5.524   7.582   1.330 -1.4785  0.5204 -0.4917
10155TIP3    H230407   5.580   7.442   1.345 -0.0684  1.1830  0.6255
10156TIP3   OH230408   3.915   7.187   3.422 -0.0087 -0.1475 -0.2923
10156TIP3    H130409   3.820   7.179   3.416  0.1624 -3.0602 -0.9200
10156TIP3    H230410   3.944   7.204   3.332  0.0840  1.1816 -0.0336
10157TIP3   OH230411   6.753   5.092   4.662 -0.2331  0.5703  0.2240
10157TIP3    H130412   6.739   5.069   4.570  0.1897 -1.2467  0.5825
10157TIP3    H230413   6.822   5.032   4.691  0.2326  1.6860  1.5166
10158TIP3   OH230414   0.226   0.289   0.929 -0.1659 -0.1533  0.2606
10158TIP3    H130415   0.176   0.359   0.887 -1.5932 -2.2703 -1.7829
10158TIP3    H230416   0.192   0.286   1.019 -1.9634  0.1095 -0.3786
10159TIP3   OH230417   4.989   3.920   2.919  0.6143 -0.1611  0.6684
10159TIP3    H130418   4.995   4.000   2.972 -2.0866  0.0500  0.7988
10159TIP3    H230419   4.979   3.850   2.984  2.1980 -0.5457  0.5285
10160TIP3   OH230420   4.178   7.513   3.071 -0.3536  0.2806 -0.3393
10160TIP3    H130421   4.239   7.505   2.998 -0.6711 -1.2228 -0.4768
10160TIP3    H230422   4.234   7.525   3.148  0.0187  0.9519 -0.7073
10161TIP3   OH230423   1.372   2.328   5.819 -0.0653 -0.6081  0.9019
10161TIP3    H130424   1.281   2.298   5.817 -0.1511 -0.2964 -0.4522
10161TIP3    H230425   1.394   2.328   5.912 -1.1362 -1.6065  1.1834
10162TIP3   OH230426   4.161   7.695   4.329 -0.5094 -0.8258  0.1814
10162TIP3    H130427   4.066   7.694   4.317 -0.5411  0.5345  0.1422
10162TIP3    H230428   4.195   7.717   4.243 -0.3648  1.8879  0.8340
10163TIP3   OH230429   3.622   2.957   6.099  0.6782  0.0485  0.5125
10163TIP3    H130430   3.570   2.882   6.129  1.3142  0.1532  1.9879
10163TIP3    H230431   3.708   2.920   6.079  0.7344  0.2463  0.3850
10164TIP3   OH230432   7.900   3.745   0.222  0.6100  0.0878  0.1173
10164TIP3    H130433   7.880   3.652   0.207 -1.0886  0.4936 -0.4602
10164TIP3    H230434   7.929   3.749   0.313  2.6888 -1.2605 -0.4105
10165TIP3   OH230435   5.657   0.201   5.110  0.1872  0.2538 -0.1455
10165TIP3    H130436   5.642   0.291   5.083 -1.0483  0.6578  1.7239
10165TIP3    H230437   5.744   0.201   5.149  0.5888  0.3915 -1.0098
10166TIP3   OH230438   6.998   3.087   1.803 -0.0158 -0.0397 -0.5921
10166TIP3    H130439   7.019   3.175   1.835  1.4040 -1.3941  2.5972
10166TIP3    H230440   6.924   3.100   1.743  1.5203  3.5231 -1.9718
10167TIP3   OH230441   6.784   1.177   4.626  0.2021 -0.0548  0.4754
10167TIP3    H130442   6.820   1.220   4.704 -0.7558 -0.4716  1.1802
10167TIP3    H230443   6.707   1.130   4.659 -1.3888  1.3356 -1.0724
10168TIP3   OH230444   0.613   6.074   4.822 -0.3500  0.1469 -0.2075
10168TIP3    H130445   0.570   5.991   4.844  0.8964  0.1813  2.8753
10168TIP3    H230446   0.551   6.141   4.851 -0.0361  0.2299  0.2915
10169TIP3   OH230447   7.139   3.367   3.232  0.4459  0.1884  0.2015
10169TIP3    H130448   7.086   3.446   3.247 -0.5986 -0.6654  1.1430
10169TIP3    H230449   7.113   3.338   3.145  2.0184  1.7296 -0.8669
10170TIP3   OH230450   1.194   1.694   5.267  0.5084 -0.4080 -0.7105
10170TIP3    H130451   1.175   1.783   5.297  0.6604 -0.2425 -1.0991
10170TIP3    H230452   1.115   1.644   5.288  0.3737 -0.1537 -0.6067
10171TIP3   OH230453   2.860   0.044   2.173 -0.3425  0.3538  0.0130
10171TIP3    H130454   2.810   0.125   2.182  1.5690  1.5360  0.7191
10171TIP3    H230455   2.915   0.057   2.096  0.1509 -0.1552  0.2648
10172TIP3   OH230456   8.363   0.205   4.126  0.0728 -0.0027 -0.4012
10172TIP3    H130457   8.381   0.205   4.032 -0.5072 -0.3232 -0.5136
10172TIP3    H230458   8.272   0.233   4.133 -0.2476 -1.1019 -0.0114
10173TIP3   OH230459   3.906   7.832   6.091 -0.0852  0.1348  0.6548
10173TIP3    H130460   3.811   7.826   6.101 -0.1631  1.1827  0.6432
10173TIP3    H230461   3.921   7.822   5.997 -0.0278 -1.6160  0.8090
10174TIP3   OH230462   4.729   7.315   5.503 -0.1346  0.0990 -0.2756
10174TIP3    H130463   4.682   7.357   5.432  0.3540  1.0304 -0.0761
10174TIP3    H230464   4.722   7.377   5.576 -0.3216 -0.6726  0.3796
10175TIP3   OH230465   0.914   2.796   1.915 -0.3451  0.3407  0.3345
10175TIP3    H130466   0.822   2.769   1.909 -0.4629  0.8199 -0.1648
10175TIP3    H230467   0.963   2.714   1.918 -0.7349  0.0608 -0.4731
10176TIP3   OH230468   0.343   3.375   1.069  0.2531 -0.3947  0.6226
10176TIP3    H130469   0.426   3.392   1.113  0.4157  2.1119 -0.4823
10176TIP3    H230470   0.316   3.461   1.035 -0.2296 -1.9774 -3.4951
10177TIP3   OH230471   5.628   6.666   6.552 -0.4019  0.4211 -0.1870
10177TIP3    H130472   5.590   6.608   6.486  0.1325 -0.7744  0.5270
10177TIP3    H230473   5.659   6.742   6.503 -0.2668 -0.3180 -1.2693
10178TIP3   OH230474   3.176   1.927   5.507 -0.6062 -0.0804  0.0376
10178TIP3    H130475   3.135   1.856   5.456  1.6730  0.2863 -2.5283
10178TIP3    H230476   3.268   1.903   5.511 -0.2221  1.4769  1.4423
10179TIP3   OH230477   3.078   3.815   6.378  0.8283 -0.0122 -0.8186
10179TIP3    H130478   3.153   3.843   6.325  1.3420 -0.2022 -0.2021
10179TIP3    H230479   3.012   3.791   6.313  1.9552 -1.6660 -1.4568
10180TIP3   OH230480   7.611   5.289   6.497  0.0669 -0.4989 -0.3584
10180TIP3    H130481   7.615   5.383   6.510 -0.1493 -0.2554 -1.8428
10180TIP3    H230482   7.517   5.268   6.501  0.0835 -0.5868 -0.4202
10181TIP3   OH230483   1.871   2.099   2.427  0.6769  0.2855 -0.5877
10181TIP3    H130484   1.827   2.119   2.344 -2.5442  1.1924  1.1724
10181TIP3    H230485   1.834   2.015   2.454  0.3323  0.8427  0.7404
10182TIP3   OH230486   1.428   5.397   5.723  0.0714 -0.3846  0.3665
10182TIP3    H130487   1.456   5.329   5.785 -0.2998 -1.8546 -1.0096
10182TIP3    H230488   1.345   5.366   5.689 -1.8458  2.4004  2.0778
10183TIP3   OH230489   0.702   4.997   3.337 -0.3347  0.0743  0.5901
10183TIP3    H130490   0.616   5.012   3.376  0.1056  1.5030  1.1102
10183TIP3    H230491   0.716   4.903   3.343 -2.3229 -0.3253 -0.5393
10184TIP3   OH230492   6.910   2.377   3.548 -0.9996 -0.2710  0.5370
10184TIP3    H130493   6.951   2.418   3.625  0.6731  0.6178 -0.7656
10184TIP3    H230494   6.881   2.451   3.495  0.1544 -0.7831 -0.8642
10185TIP3   OH230495   3.322   5.346   5.594  0.8332  0.3774  0.8344
10185TIP3    H130496   3.414   5.335   5.617  0.6931  1.6143  2.1125
10185TIP3    H230497   3.275   5.340   5.677 -0.3879 -1.3866  0.0862
10186TIP3   OH230498   7.954   7.814   6.140  0.4401  0.2526 -0.0797
10186TIP3    H130499   7.919   7.861   6.216  0.1458 -0.0128 -0.0499
10186TIP3    H230500   7.999   7.738   6.177  1.1505  0.6518 -0.1106
10187TIP3   OH230501   7.692   2.288   4.065  0.4146 -0.1528  0.0942
10187TIP3    H130502   7.637   2.215   4.036 -0.6750  0.1584  1.2443
10187TIP3    H230503   7.630   2.361   4.074  1.6883  1.3773 -2.4029
10188TIP3   OH230504   6.439   5.623   5.016 -0.5415 -0.1562  0.0846
10188TIP3    H130505   6.464   5.704   5.059  2.1033  0.3184 -2.0701
10188TIP3    H230506   6.368   5.648   4.957 -0.0793  0.5121 -0.2008
10189TIP3   OH230507   3.667   6.979   4.350  0.1920  0.0270 -0.4444
10189TIP3    H130508   3.611   7.045   4.390  1.0503  0.3322  0.2961
10189TIP3    H230509   3.609   6.927   4.295 -0.9745 -0.1868  0.9400
10190TIP3   OH230510   4.179   1.623   5.352  0.3459 -0.2084 -0.3100
10190TIP3    H130511   4.186   1.618   5.256 -0.0868 -0.0737 -0.3491
10190TIP3    H230512   4.104   1.568   5.374  0.6625 -0.5312 -0.0111
10191TIP3   OH230513   3.054   1.648   4.304  0.0323 -0.2598  0.9893
10191TIP3    H130514   3.104   1.654   4.223  1.6494 -0.5023  1.9165
10191TIP3    H230515   3.077   1.562   4.340 -0.4303 -0.0416  1.8428
10192TIP3   OH230516   4.215   7.947   0.621  0.0602  0.0647  0.1268
10192TIP3    H130517   4.267   7.889   0.678 -1.0953 -0.7262  0.4198
10192TIP3    H230518   4.150   7.889   0.581 -0.6399  1.0372 -0.1824
10193TIP3   OH230519   0.995   1.293   5.498  0.4388 -0.1944  0.3682
10193TIP3    H130520   1.049   1.221   5.467 -1.3196 -0.3650 -2.6103
10193TIP3    H230521   1.012   1.365   5.438 -2.9038 -0.4313 -1.0867
10194TIP3   OH230522   2.765   6.669   0.060 -0.2929 -0.5591 -0.3297
10194TIP3    H130523   2.828   6.740   0.048  1.6117 -2.1982 -0.5969
10194TIP3    H230524   2.765   6.652   0.154  0.8573 -1.5379 -0.4845
10195TIP3   OH230525   7.398   5.273   6.222  0.2420 -0.1066 -0.3081
10195TIP3    H130526   7.371   5.229   6.303  0.3396 -0.0735 -0.2583
10195TIP3    H230527   7.405   5.202   6.158 -3.4023  0.1703 -1.2862
10196TIP3   OH230528   0.853   7.039   5.611  0.3576 -0.3471 -0.1860
10196TIP3    H130529   0.778   7.074   5.658  0.9065 -0.2038  0.6094
10196TIP3    H230530   0.815   6.982   5.544 -0.5027  0.8779 -0.7782
10197TIP3   OH230531   6.285   5.340   2.391  0.6870  0.1492 -0.0098
10197TIP3    H130532   6.344   5.338   2.315  0.5619 -0.0712 -0.1021
10197TIP3    H230533   6.332   5.390   2.457  1.2622 -0.5866  0.1499
10198TIP3   OH230534   0.192   3.791   6.749 -0.0679 -0.8694 -0.0554
10198TIP3    H130535   0.276   3.808   6.792 -1.3058 -1.5506  2.8164
10198TIP3    H230536   0.204   3.707   6.704  1.2549 -0.1353 -1.1560
10199TIP3   OH230537   6.677   3.073   3.475  0.4401 -0.1095  0.1838
10199TIP3    H130538   6.692   3.163   3.507  0.6222 -0.5760  1.4734
10199TIP3    H230539   6.585   3.071   3.451  0.1222  0.0914  1.3309
10200TIP3   OH230540   1.984   2.860   6.261  0.1712 -0.1800  0.1574
10200TIP3    H130541   1.895   2.886   6.287  0.3322  0.5572 -0.0066
10200TIP3    H230542   1.997   2.776   6.304 -0.9607 -0.7720 -0.5911
10201TIP3   OH230543   7.942   7.458   6.000 -0.3049  0.4847 -0.0055
10201TIP3    H130544   7.921   7.371   6.034  0.0959  0.9186  1.3921
10201TIP3    H230545   7.976   7.506   6.075 -2.1673  2.4197 -0.2990
10202TIP3   OH230546   2.206   1.079   5.022 -0.6272 -0.0184  0.3282
10202TIP3    H130547   2.152   1.000   5.028  0.1539 -0.5472  0.7133
10202TIP3    H230548   2.235   1.080   4.931 -0.6916 -0.1474  0.3047
10203TIP3   OH230549   3.339   3.631   6.152  0.5231 -0.2136 -0.1531
10203TIP3    H130550   3.311   3.722   6.157 -0.7643 -0.6449  1.3553
10203TIP3    H230551   3.372   3.621   6.062  0.1895  1.5765 -0.5144
10204TIP3   OH230552   7.296   5.012   6.147  0.3334  0.2634 -0.3655
10204TIP3    H130553   7.370   4.960   6.178 -0.1351 -0.1779  0.0391
10204TIP3    H230554   7.220   4.956   6.163 -0.2322  1.2259  0.4593
10205TIP3   OH230555   7.047   1.094   4.318  0.0224 -0.0312 -0.0497
10205TIP3    H130556   7.118   1.030   4.317  2.1096  2.1532 -1.3671
10205TIP3    H230557   7.047   1.129   4.407 -1.0881 -1.6869  0.6618
10206TIP3   OH230558   0.135   6.964   0.438  0.2577  0.5524  0.5122
10206TIP3    H130559   0.215   6.915   0.420  1.2345  2.1296  0.2910
10206TIP3    H230560   0.155   7.053   0.408 -1.8320  0.8442 -0.1784
10207TIP3   OH230561   4.517   0.019   4.319 -0.6262 -0.3727  0.1998
10207TIP3    H130562   4.518  -0.075   4.302 -0.4886 -0.4642  0.7212
10207TIP3    H230563   4.559   0.057   4.242  0.3027 -0.8158  0.4712
10208TIP3   OH230564   1.311   5.705   6.579  0.2653  0.1060 -0.3967
10208TIP3    H130565   1.220   5.715   6.549  0.3306 -0.9866 -1.0371
10208TIP3    H230566   1.357   5.781   6.544 -0.5330  1.0396  0.5265
10209TIP3   OH230567   4.999   4.034   6.632  0.7763  0.4687  0.1042
10209TIP3    H130568   4.948   4.023   6.713  1.2755  1.5383  0.5886
10209TIP3    H230569   5.088   4.007   6.656  0.5665 -0.9566 -0.6154
10210TIP3   OH230570   8.047   2.461   5.622  0.1172  0.0235 -0.0714
10210TIP3    H130571   8.021   2.392   5.561  1.0740  0.4820 -1.0405
10210TIP3    H230572   8.079   2.414   5.699 -2.1673 -0.5505  0.5924
10211TIP3   OH230573   5.475   7.716   4.123  0.5238 -0.4058  0.1394
10211TIP3    H130574   5.465   7.681   4.211  0.1001 -0.3920  0.1001
10211TIP3    H230575   5.452   7.643   4.065 -0.1378 -0.1428  0.0563
10212TIP3   OH230576   2.516   4.262   3.019 -0.2547 -0.1363 -0.2353
10212TIP3    H130577   2.570   4.307   2.953 -2.0753 -0.5667 -2.1217
10212TIP3    H230578   2.477   4.332   3.070 -0.8721  0.3442 -1.3369
10213TIP3   OH230579   4.768   3.205   1.751 -0.6612  0.3689 -0.1225
10213TIP3    H130580   4.782   3.290   1.791  0.2385 -0.8599  2.3547
10213TIP3    H230581   4.707   3.160   1.810 -0.9643 -0.7941 -1.2778
10214TIP3   OH230582   6.377   3.192   6.391  0.3290 -0.1548  0.2888
10214TIP3    H130583   6.436   3.219   6.461  1.6147 -1.4809 -0.2320
10214TIP3    H230584   6.338   3.111   6.422 -1.0754  0.5696  0.5126
10215TIP3   OH230585   6.353   4.701   3.713  0.3477 -0.0552 -0.3761
10215TIP3    H130586   6.306   4.650   3.647 -0.5796 -1.8637  1.5929
10215TIP3    H230587   6.390   4.636   3.772  5.2563  1.2459 -1.6004
10216TIP3   OH230588   2.755   5.231   4.282  0.3514  1.2066  0.2534
10216TIP3    H130589   2.828   5.170   4.272 -1.9275 -1.4227 -2.6670
10216TIP3    H230590   2.774   5.301   4.219  1.4649  1.8855  1.3099
10217TIP3   OH230591   7.992   1.865   5.322  0.4247 -0.2665  0.3331
10217TIP3    H130592   8.077   1.849   5.362  0.2344  0.7004  1.1532
10217TIP3    H230593   8.013   1.906   5.238  0.7694 -0.0945  0.5000
10218TIP3   OH230594   0.451   0.298   4.701 -0.3413 -0.3761 -0.1225
10218TIP3    H130595   0.421   0.315   4.790  0.4929  0.8443 -0.0431
10218TIP3    H230596   0.495   0.213   4.705 -0.8725 -0.6276  0.4728
10219TIP3   OH230597   4.755   1.048   6.160 -0.3067  0.4731 -0.5234
10219TIP3    H130598   4.801   1.080   6.238  0.1350 -1.1673 -0.0871
10219TIP3    H230599   4.663   1.045   6.186 -0.2520  0.6095 -0.3108
10220TIP3   OH230600   6.004   5.160   0.436  0.8912 -0.2142  0.3086
10220TIP3    H130601   6.023   5.245   0.397 -1.1504 -0.0879 -0.5436
10220TIP3    H230602   6.017   5.174   0.530  1.7459  0.6861  0.0732
10221TIP3   OH230603   0.177   6.999   5.314 -0.3230 -0.0881  0.4052
10221TIP3    H130604   0.179   7.094   5.326 -3.4629 -0.1332  2.2759
10221TIP3    H230605   0.085   6.975   5.324  0.0402 -3.1508 -2.1112
10222TIP3   OH230606   0.090   3.605   3.047  0.1557  0.0527 -0.3078
10222TIP3    H130607   0.186   3.609   3.056  0.1306 -0.1053  0.0576
10222TIP3    H230608   0.075   3.612   2.953  0.5365 -0.0684 -0.3817
10223TIP3   OH230609   8.178   0.962   3.169  0.4243  0.5357 -0.2882
10223TIP3    H130610   8.181   0.868   3.156 -2.0043  0.3798 -0.2358
10223TIP3    H230611   8.269   0.990   3.166  1.1434 -1.6863 -1.1164
10224TIP3   OH230612   7.885   6.650   3.236 -0.1256 -0.5579  0.1894
10224TIP3    H130613   7.909   6.566   3.197 -0.5318 -0.3884 -0.4566
10224TIP3    H230614   7.930   6.715   3.182 -0.0613 -0.3509  0.4929
10225TIP3   OH230615   7.773   4.556   2.590 -0.3621  0.7035 -0.0534
10225TIP3    H130616   7.686   4.595   2.594 -0.6957  0.2753 -1.9247
10225TIP3    H230617   7.757   4.461   2.597 -0.3604  0.4324 -2.7320
10226TIP3   OH230618   1.914   7.486   2.173  0.3948 -0.1169  0.3385
10226TIP3    H130619   1.984   7.545   2.144  1.2205 -1.7982 -1.3286
10226TIP3    H230620   1.857   7.541   2.228  2.0908  1.7257  0.3661
10227TIP3   OH230621   4.659   3.166   6.847  0.2131  0.5469 -0.1186
10227TIP3    H130622   4.610   3.182   6.766  0.8526  0.3027 -0.5616
10227TIP3    H230623   4.670   3.253   6.886  0.4530  0.7467 -0.6198
10228TIP3   OH230624   5.162   5.744   3.655  0.3468 -0.2424 -0.1179
10228TIP3    H130625   5.168   5.837   3.632  1.0143 -0.2427  0.0272
10228TIP3    H230626   5.077   5.716   3.622  0.6709  0.1096 -1.2729
10229TIP3   OH230627   5.281   6.712   2.930 -0.1567 -0.7515  0.0269
10229TIP3    H130628   5.238   6.779   2.876 -0.0853 -0.4524  0.3358
10229TIP3    H230629   5.290   6.753   3.016  0.9979 -0.7023 -0.1018
10230TIP3   OH230630   3.236   6.865   3.244  0.1783  0.8350  0.2784
10230TIP3    H130631   3.218   6.871   3.338 -0.6678  1.0013  0.1117
10230TIP3    H230632   3.233   6.955   3.213  2.2138  0.9840  0.3826
10231TIP3   OH230633   0.878   3.758   5.561  0.1191  0.5471  0.3262
10231TIP3    H130634   0.970   3.782   5.555  0.3675 -0.4069  0.1677
10231TIP3    H230635   0.837   3.830   5.610  1.1281  0.4923  1.2798
10232TIP3   OH230636   2.257   2.994   6.385  0.3069  0.1415  0.8909
10232TIP3    H130637   2.229   3.023   6.298 -0.0459 -0.5487  0.7652
10232TIP3    H230638   2.346   2.961   6.372 -0.5596 -2.1030  0.2970
10233TIP3   OH230639   1.606   2.085   0.524 -0.2548 -0.2196 -0.0197
10233TIP3    H130640   1.520   2.047   0.505 -0.3437 -0.4793  0.8602
10233TIP3    H230641   1.638   2.036   0.600  1.0902 -0.7571 -0.8941
10234TIP3   OH230642   5.176   7.490   0.516 -0.3306  0.2417  0.2019
10234TIP3    H130643   5.212   7.575   0.541 -1.8069  0.4529  1.8246
10234TIP3    H230644   5.252   7.432   0.510  0.5375  1.2899  0.6962
10235TIP3   OH230645   3.782   1.554   3.802  0.4162  0.1943 -0.0744
10235TIP3    H130646   3.841   1.594   3.867  0.0840  0.8659 -0.1712
10235TIP3    H230647   3.780   1.461   3.824  0.9801  0.2807  0.3485
10236TIP3   OH230648   0.758   3.982   0.148 -0.2619  0.4707 -0.0172
10236TIP3    H130649   0.771   3.958   0.240 -0.1627  1.2813  0.1926
10236TIP3    H230650   0.837   3.953   0.103 -0.1303  0.4444  0.2307
10237TIP3   OH230651   7.284   3.370   2.682  0.1984 -0.3911 -0.0607
10237TIP3    H130652   7.240   3.357   2.766 -0.7483  0.0730 -0.4630
10237TIP3    H230653   7.238   3.444   2.642  0.2183 -0.9953 -1.2449
10238TIP3   OH230654   2.980   5.027   6.690  0.1962 -0.1620 -0.2900
10238TIP3    H130655   3.059   4.987   6.725  0.3151  0.2194 -0.1222
10238TIP3    H230656   2.996   5.121   6.694 -0.5936 -0.0515  0.5376
10239TIP3   OH230657   0.112   7.725   2.407 -0.3279  0.3914  0.1497
10239TIP3    H130658   0.032   7.778   2.412 -0.0121  0.9447 -0.5261
10239TIP3    H230659   0.172   7.776   2.353  0.6863  0.2279  1.0667
10240TIP3   OH230660   3.670   1.684   4.646 -0.3290 -0.2197  0.0331
10240TIP3    H130661   3.643   1.612   4.703 -0.3185  0.1569  0.5199
10240TIP3    H230662   3.626   1.761   4.682 -0.0222  0.0854 -0.2384
10241TIP3   OH230663   0.586   6.189   2.939  0.2419  0.0845  0.0977
10241TIP3    H130664   0.541   6.111   2.905 -0.8712  1.3024 -1.3694
10241TIP3    H230665   0.668   6.155   2.975 -0.3262 -1.7987 -0.2548
10242TIP3   OH230666   4.406   4.340   1.928 -0.5714  0.4720  0.0209
10242TIP3    H130667   4.320   4.350   1.969 -0.4292  0.5372  0.3066
10242TIP3    H230668   4.413   4.247   1.909  0.2773  0.0299  2.2024
10243TIP3   OH230669   1.471   4.617   4.858 -0.7804 -0.3898  0.6443
10243TIP3    H130670   1.442   4.687   4.800 -0.0069 -1.5592 -1.2578
10243TIP3    H230671   1.457   4.651   4.946 -0.8514  1.9511 -0.2076
10244TIP3   OH230672   5.732   7.293   5.183 -0.1359 -0.0777  0.3115
10244TIP3    H130673   5.679   7.325   5.256 -0.7193  0.9332 -0.5186
10244TIP3    H230674   5.815   7.340   5.192 -0.0199 -0.3384  0.6119
10245TIP3   OH230675   3.056   5.366   6.354 -0.0940  0.0744  0.1918
10245TIP3    H130676   3.062   5.277   6.318 -1.1496 -0.0126  0.1916
10245TIP3    H230677   3.145   5.388   6.380  0.2739 -0.7733 -0.3225
10246TIP3   OH230678   6.902   2.362   0.020 -0.0958 -0.2399 -0.7595
10246TIP3    H130679   6.966   2.411   0.072 -1.7133  0.2009  0.9467
10246TIP3    H230680   6.820   2.412   0.030 -1.2301 -1.9776 -0.9673
10247TIP3   OH230681   2.398   3.022   1.807  0.3984  0.1508 -0.0664
10247TIP3    H130682   2.369   3.092   1.747 -1.8084 -0.2764  0.4098
10247TIP3    H230683   2.381   3.057   1.894 -0.7403 -0.9404  0.1797
10248TIP3   OH230684   7.102   0.394   2.633 -0.4850  0.2915  0.1637
10248TIP3    H130685   7.021   0.371   2.677 -0.1953  1.1469  1.1815
10248TIP3    H230686   7.078   0.465   2.574 -0.5747  0.1587  0.0374
10249TIP3   OH230687   3.806   3.984   2.432  0.9578  0.0599  0.2428
10249TIP3    H130688   3.796   4.045   2.506 -0.0198  0.0932  0.0966
10249TIP3    H230689   3.754   3.908   2.457  0.6971  0.0346 -0.3721
10250TIP3   OH230690   1.106   4.014   6.607 -0.0802 -0.5394  0.6525
10250TIP3    H130691   1.187   3.964   6.605 -0.1997 -0.7092 -0.0507
10250TIP3    H230692   1.037   3.950   6.591 -0.3671 -0.4137  1.3548
10251TIP3   OH230693   2.183   5.767   5.377 -0.0716  0.5107 -0.4439
10251TIP3    H130694   2.232   5.769   5.295  0.4678  0.8377 -0.1191
10251TIP3    H230695   2.115   5.833   5.366 -0.1413  0.3945 -0.7153
10252TIP3   OH230696   8.204   2.330   1.084  0.1909 -0.0908  0.6142
10252TIP3    H130697   8.184   2.282   1.004  1.5789 -0.9720  0.7640
10252TIP3    H230698   8.119   2.355   1.119 -0.5835 -2.3179  0.4295
10253TIP3   OH230699   1.130   1.995   1.327 -0.3962 -0.2172  0.3977
10253TIP3    H130700   1.162   2.078   1.291 -1.0526 -0.1393 -0.0324
10253TIP3    H230701   1.163   1.993   1.417  2.9447 -1.3122 -0.7193
10254TIP3   OH230702   7.958   6.167   5.319 -0.1447  0.2698  0.0498
10254TIP3    H130703   7.873   6.131   5.344  0.4787 -1.3048 -0.0181
10254TIP3    H230704   8.007   6.172   5.401  1.1296 -2.8280 -0.3989
10255TIP3   OH230705   7.267   1.510   3.776  0.1173 -0.3617 -0.2140
10255TIP3    H130706   7.239   1.439   3.834 -0.1960 -0.4439 -0.4643
10255TIP3    H230707   7.278   1.585   3.835 -1.8834  0.0271 -0.2590
10256TIP3   OH230708   2.093   5.185   2.009  0.7014  0.0154  0.5308
10256TIP3    H130709   2.079   5.280   2.007  0.6495  0.0482 -2.4789
10256TIP3    H230710   2.167   5.171   1.951 -0.8420 -1.9306 -1.1146
10257TIP3   OH230711   3.613   7.065   1.020  0.1549 -0.7277  0.1326
10257TIP3    H130712   3.651   7.117   1.090 -1.3928 -2.1893  2.1675
10257TIP3    H230713   3.551   7.007   1.063 -1.3153 -1.3260 -2.5235
10258TIP3   OH230714   0.512   3.977   4.964  0.3127 -0.0372  0.0014
10258TIP3    H130715   0.571   4.047   4.992  0.3771 -0.2180  0.3267
10258TIP3    H230716   0.508   3.918   5.039 -2.2410  1.2106  0.9722
10259TIP3   OH230717   6.391   0.293   0.113  0.4723  0.2426  0.3313
10259TIP3    H130718   6.334   0.325   0.042  1.8400  2.7504  0.2486
10259TIP3    H230719   6.350   0.211   0.140 -0.3540 -0.6561 -3.0618
10260TIP3   OH230720   6.572   0.308   1.177 -0.3919  0.2886 -0.1943
10260TIP3    H130721   6.599   0.239   1.238  2.2924  1.5067  0.1538
10260TIP3    H230722   6.580   0.268   1.091 -0.3900 -0.2894  0.0688
10261TIP3   OH230723   0.617   2.635   0.382 -0.2430 -0.6625  0.0729
10261TIP3    H130724   0.676   2.662   0.452  0.6683 -1.4374 -0.3653
10261TIP3    H230725   0.660   2.558   0.343  0.3201  0.8505 -2.5955
10262TIP3   OH230726   6.689   5.281   4.887  0.1133 -0.0102 -0.1150
10262TIP3    H130727   6.710   5.209   4.828 -1.2776 -0.6726  0.1480
10262TIP3    H230728   6.682   5.239   4.973 -2.1575  0.1108 -0.1712
10263TIP3   OH230729   1.135   4.831   5.487  0.4945 -0.0163  0.8002
10263TIP3    H130730   1.195   4.844   5.413  1.2826  0.6687  1.5348
10263TIP3    H230731   1.049   4.825   5.446  0.9336  0.1607 -0.1985
10264TIP3   OH230732   7.114   7.267   3.114  0.1461 -0.6900  0.4412
10264TIP3    H130733   7.096   7.361   3.120 -1.1332 -0.5747 -3.0615
10264TIP3    H230734   7.036   7.226   3.152 -0.6171 -0.2495 -0.5702
10265TIP3   OH230735   7.691   2.890   6.773  0.1345  0.6348 -0.3075
10265TIP3    H130736   7.614   2.927   6.816  1.3954 -0.0115  2.7931
10265TIP3    H230737   7.686   2.921   6.683 -2.2648  2.9049  0.4874
10266TIP3   OH230738   7.872   7.787   3.445 -0.1442 -0.6012 -0.0233
10266TIP3    H130739   7.880   7.692   3.430  0.0319 -1.0034  2.2395
10266TIP3    H230740   7.798   7.796   3.504 -0.1903  0.7036 -0.2465
10267TIP3   OH230741   6.424   2.651   2.739  0.3990  0.1159  0.0533
10267TIP3    H130742   6.468   2.569   2.764  0.8155  0.4894  0.5747
10267TIP3    H230743   6.343   2.650   2.789  0.8819  0.5009  0.8758
10268TIP3   OH230744   2.993   1.401   1.742 -0.0382 -0.1895  0.4119
10268TIP3    H130745   2.961   1.340   1.675  3.2029  0.3934 -1.9110
10268TIP3    H230746   3.064   1.353   1.785  1.4220  1.2853 -0.2780
10269TIP3   OH230747   7.149   6.644   4.438 -0.5444  0.6715 -0.0234
10269TIP3    H130748   7.103   6.619   4.358  3.1727 -1.5030 -1.7809
10269TIP3    H230749   7.174   6.560   4.478  1.1572  1.6662  1.1560
10270TIP3   OH230750   1.430   1.579   2.730  0.1747 -0.5783 -0.5552
10270TIP3    H130751   1.496   1.642   2.757 -0.7923  0.4529 -0.5288
10270TIP3    H230752   1.480   1.506   2.692  1.2477  1.0446 -2.4445
10271TIP3   OH230753   5.383   5.757   5.909  0.2242  0.0724  0.1989
10271TIP3    H130754   5.456   5.717   5.862  1.0120  2.3057 -0.6255
10271TIP3    H230755   5.305   5.716   5.872  0.8876  0.7976 -2.1394
10272TIP3   OH230756   5.794   0.302   4.239 -0.2394  0.0510 -0.2087
10272TIP3    H130757   5.886   0.287   4.261  0.1879  1.1600 -1.1526
10272TIP3    H230758   5.754   0.327   4.322  0.5994  0.8211 -0.0182
10273TIP3   OH230759   3.702   6.677   0.618 -0.3095 -0.1495 -0.1273
10273TIP3    H130760   3.743   6.593   0.599  1.2578  0.4555  0.3931
10273TIP3    H230761   3.729   6.698   0.708 -0.1668  1.1752 -0.4510
10274TIP3   OH230762   0.901   7.354   4.904  0.0589 -0.0586  0.2238
10274TIP3    H130763   0.814   7.344   4.865  0.4626  1.4898 -1.1770
10274TIP3    H230764   0.890   7.426   4.967 -0.0664 -1.0693  1.3898
10275TIP3   OH230765   7.806   5.500   1.192 -0.1329  0.2397  0.0968
10275TIP3    H130766   7.887   5.513   1.143 -1.3002 -0.7302 -2.2336
10275TIP3    H230767   7.744   5.562   1.154 -0.7646  0.3138  1.2042
10276TIP3   OH230768   7.785   1.525   6.100 -0.2003 -0.9847  0.3571
10276TIP3    H130769   7.868   1.484   6.124 -0.4537 -1.0648  1.0864
10276TIP3    H230770   7.811   1.609   6.062  0.2150 -1.0473  0.4974
10277TIP3   OH230771   3.265   5.444   1.871  0.4494  0.0482  0.1574
10277TIP3    H130772   3.286   5.514   1.810 -0.9042  0.8519  0.5789
10277TIP3    H230773   3.183   5.472   1.913 -0.1305 -1.7760  0.3317
10278TIP3   OH230774   7.249   2.949   4.829  0.5465  0.4972 -0.1915
10278TIP3    H130775   7.164   2.923   4.864  1.1362 -0.3201  0.6879
10278TIP3    H230776   7.244   2.929   4.736 -0.2412  0.5013 -0.1539
10279TIP3   OH230777   6.020   1.320   4.080  0.1300  0.2538  0.8339
10279TIP3    H130778   6.014   1.346   3.988 -2.6601  1.0155  1.1383
10279TIP3    H230779   6.050   1.399   4.126  0.0198  0.3307  0.7716
10280TIP3   OH230780   4.044   0.777   1.039  0.2276 -0.0780 -0.3585
10280TIP3    H130781   3.959   0.743   1.067  1.9437 -2.5530  2.4464
10280TIP3    H230782   4.053   0.861   1.084 -0.1020 -0.5991  0.7162
10281TIP3   OH230783   3.675   6.390   6.132 -0.0965  0.0584  0.6040
10281TIP3    H130784   3.693   6.310   6.082  0.6854  0.9821 -0.6519
10281TIP3    H230785   3.614   6.362   6.200  0.0727 -1.5842  0.1328
10282TIP3   OH230786   7.789   5.413   3.593 -0.1970  0.3667  0.1152
10282TIP3    H130787   7.847   5.444   3.523  0.7075 -2.3820 -0.4779
10282TIP3    H230788   7.707   5.392   3.548 -0.1912  0.2296  0.1676
10283TIP3   OH230789   6.679   6.799   4.807 -0.0787 -0.0297  0.6170
10283TIP3    H130790   6.728   6.717   4.814 -2.1314 -1.5391 -1.2382
10283TIP3    H230791   6.683   6.823   4.714 -1.1817  0.8533  0.7640
10284TIP3   OH230792   2.533   6.537   0.740  0.3786  0.5786 -0.1512
10284TIP3    H130793   2.581   6.459   0.712  1.5825  1.1310  0.3250
10284TIP3    H230794   2.600   6.597   0.773 -0.4324  2.1002 -1.1169
10285TIP3   OH230795   5.696   0.229   0.938  0.2742  0.1093  0.1637
10285TIP3    H130796   5.680   0.221   1.032  0.9206 -1.7459  0.1568
10285TIP3    H230797   5.791   0.221   0.930  0.2679  0.7683 -0.6132
10286TIP3   OH230798   3.587   5.367   5.796 -0.7648  0.2235 -0.2480
10286TIP3    H130799   3.646   5.437   5.824 -2.1061  1.0239  0.7299
10286TIP3    H230800   3.631   5.328   5.720  1.3607  0.2625  0.8841
10287TIP3   OH230801   0.880   0.287   2.643 -0.3411 -0.2775 -0.2733
10287TIP3    H130802   0.900   0.195   2.659  2.8333  0.3128 -0.2249
10287TIP3    H230803   0.875   0.327   2.730 -1.2839 -0.2839 -0.3102
10288TIP3   OH230804   0.766   3.706   5.106  0.2213 -0.2569 -0.2807
10288TIP3    H130805   0.853   3.705   5.147 -0.2866 -0.8612  0.8284
10288TIP3    H230806   0.724   3.786   5.139 -0.0961 -0.6105  0.1770
10289TIP3   OH230807   6.031   4.671   1.620 -0.0918  0.7285 -0.1786
10289TIP3    H130808   6.105   4.688   1.678 -0.2584  2.2665 -0.3671
10289TIP3    H230809   6.017   4.576   1.626  0.2326  0.7470  1.8705
10290TIP3   OH230810   0.897   1.615   2.112 -0.4128  0.0076  0.1873
10290TIP3    H130811   0.955   1.588   2.041 -1.2078 -3.1210  0.5907
10290TIP3    H230812   0.945   1.592   2.192 -1.4868 -1.0903  0.5444
10291TIP3   OH230813   0.771   2.468   5.378 -0.0037 -0.0825  0.4493
10291TIP3    H130814   0.826   2.444   5.452 -0.3573  0.7736  1.0050
10291TIP3    H230815   0.813   2.545   5.341 -1.8656  1.8754  2.1408
10292TIP3   OH230816   7.606   4.178   5.415 -0.3038  0.5181  0.1846
10292TIP3    H130817   7.587   4.138   5.500  0.3854  0.9995  0.5760
10292TIP3    H230818   7.520   4.205   5.382 -0.5803  0.3282  0.7277
10293TIP3   OH230819   0.345   3.770   5.653  0.1710 -0.1028 -0.2013
10293TIP3    H130820   0.344   3.727   5.738 -2.6463 -1.6651 -0.8872
10293TIP3    H230821   0.314   3.859   5.670 -1.0241 -0.6068  0.3834
10294TIP3   OH230822   5.911   3.684   3.658  0.8049 -0.4328  0.2285
10294TIP3    H130823   5.923   3.715   3.568  1.7107 -1.0199  0.1293
10294TIP3    H230824   5.982   3.725   3.707  0.2295 -0.0029  0.7151
10295TIP3   OH230825   5.989   1.410   3.822  0.3131 -0.5908  0.0715
10295TIP3    H130826   6.068   1.462   3.810  0.3724 -0.3415  1.3870
10295TIP3    H230827   5.919   1.475   3.836  0.1110 -0.8341  0.2073
10296TIP3   OH230828   7.223   2.084   6.430  0.1375 -0.2109 -0.0845
10296TIP3    H130829   7.235   2.051   6.341 -1.0507  0.4039 -0.5007
10296TIP3    H230830   7.312   2.104   6.460  0.4562  1.2044 -1.7916
10297TIP3   OH230831   0.275   7.683   3.609 -0.2691 -0.3714 -0.0823
10297TIP3    H130832   0.231   7.765   3.634  1.1668  0.4066  0.0293
10297TIP3    H230833   0.298   7.642   3.692 -0.4797 -0.6097 -0.1399
10298TIP3   OH230834   4.353   3.690   3.661  0.6281 -0.6520  0.2006
10298TIP3    H130835   4.383   3.769   3.706  0.6647  0.8065 -2.1847
10298TIP3    H230836   4.258   3.694   3.665  0.6102 -0.0149 -0.6064
10299TIP3   OH230837   4.959   3.690   3.061  0.1293  0.0640  0.2422
10299TIP3    H130838   4.924   3.643   3.137  0.4453  2.7421  2.2136
10299TIP3    H230839   5.052   3.668   3.061 -0.3334 -2.2109 -1.2365
10300TIP3   OH230840   0.482   2.472   3.025  0.1049 -0.1632 -0.2999
10300TIP3    H130841   0.467   2.383   2.993  0.3596  0.1913 -1.4478
10300TIP3    H230842   0.576   2.486   3.015  0.1227  0.1023  0.2328
10301TIP3   OH230843   5.292   3.793   5.505  0.4036  0.4303 -0.5773
10301TIP3    H130844   5.240   3.874   5.512  0.4002  0.2782  1.6905
10301TIP3    H230845   5.383   3.823   5.508  0.4266  0.4251 -1.0680
10302TIP3   OH230846   5.473   6.466   6.645  0.0297  0.0774 -0.3629
10302TIP3    H130847   5.485   6.433   6.556  0.5888 -0.8478  0.0425
10302TIP3    H230848   5.521   6.548   6.647 -1.0350  0.7457 -1.2710
10303TIP3   OH230849   6.109   7.907   2.797 -0.0920  0.5146 -0.1075
10303TIP3    H130850   6.025   7.869   2.824 -0.0383 -1.2252 -2.1201
10303TIP3    H230851   6.167   7.893   2.872 -0.9394 -0.6132  0.3710
10304TIP3   OH230852   4.412   3.277   5.683  0.1075  0.5165  0.2709
10304TIP3    H130853   4.478   3.279   5.753  0.8679  0.4481 -0.4329
10304TIP3    H230854   4.367   3.193   5.695  0.9108  0.0481  0.0705
10305TIP3   OH230855   6.873   7.036   5.382 -0.2904 -0.2143  0.1622
10305TIP3    H130856   6.838   7.064   5.467  2.0798  1.7322  0.6225
10305TIP3    H230857   6.966   7.058   5.387  0.4239 -2.3898 -2.0484
10306TIP3   OH230858   5.099   6.101   4.186 -0.2025  0.4061  0.2147
10306TIP3    H130859   5.127   6.025   4.134  0.2595  2.1181 -2.1643
10306TIP3    H230860   5.168   6.111   4.252  1.3421  0.5146 -1.3512
10307TIP3   OH230861   2.214   0.831   1.379 -0.3763 -0.2891  0.5110
10307TIP3    H130862   2.189   0.800   1.292 -0.1854 -0.0531  0.3712
10307TIP3    H230863   2.165   0.913   1.390  2.7140  2.0076 -1.1232
10308TIP3   OH230864   0.442   3.579   6.309 -0.2533  0.2083 -0.0852
10308TIP3    H130865   0.409   3.668   6.325 -1.6822 -0.4073  0.5273
10308TIP3    H230866   0.437   3.536   6.394  3.5575  0.4435  0.4366
10309TIP3   OH230867   2.916   4.777   4.205  0.0628  0.2703  0.3693
10309TIP3    H130868   2.949   4.794   4.117 -0.2956  1.6146  0.4617
10309TIP3    H230869   2.962   4.698   4.234  0.2517 -0.1306 -0.9750
10310TIP3   OH230870   4.216   1.784   5.703 -0.3305  0.1092  0.2888
10310TIP3    H130871   4.270   1.708   5.683  1.9172  2.3333 -3.3020
10310TIP3    H230872   4.249   1.816   5.787  0.6533 -1.2499  0.4476
10311TIP3   OH230873   6.659   4.420   1.372 -0.0960 -0.1669 -0.5836
10311TIP3    H130874   6.656   4.408   1.277 -0.2655  0.1578 -0.6201
10311TIP3    H230875   6.625   4.508   1.386 -0.3814 -0.3361 -0.1982
10312TIP3   OH230876   3.171   3.023   2.511 -0.0752  0.0717 -0.7564
10312TIP3    H130877   3.128   2.962   2.451  2.1132 -1.0712 -1.2896
10312TIP3    H230878   3.224   2.967   2.568 -0.2848  1.3079  0.7127
10313TIP3   OH230879   4.012   5.792   0.358  0.2927  0.2328  0.0435
10313TIP3    H130880   3.985   5.827   0.443  1.2443  1.7646 -0.2370
10313TIP3    H230881   4.077   5.855   0.326  2.1106 -1.8159 -0.5348
10314TIP3   OH230882   2.995   3.357   1.419  0.3575  0.1821  0.0830
10314TIP3    H130883   3.053   3.317   1.355  0.7954 -1.2471  1.3306
10314TIP3    H230884   3.043   3.353   1.502  0.5360  3.5336  0.2998
10315TIP3   OH230885   5.234   2.587   6.419  0.6733 -0.1007  0.5876
10315TIP3    H130886   5.290   2.513   6.439 -0.0446 -0.7159  0.3471
10315TIP3    H230887   5.258   2.612   6.329 -0.4741 -1.3324 -0.0920
10316TIP3   OH230888   0.443   4.853   6.769  0.4985 -0.4039  0.3290
10316TIP3    H130889   0.432   4.831   6.676 -2.4657  1.4898  0.1113
10316TIP3    H230890   0.502   4.929   6.768  0.2469 -0.2139 -0.0132
10317TIP3   OH230891   1.237   2.732   2.359  0.3366  0.2288 -0.1481
10317TIP3    H130892   1.325   2.723   2.394 -0.3905 -2.0843  1.3365
10317TIP3    H230893   1.221   2.826   2.358  2.8265  0.7108 -0.5570
10318TIP3   OH230894   2.939   5.889   5.958  0.3107 -0.3405  0.3790
10318TIP3    H130895   2.958   5.870   5.866 -1.6538  3.2180 -0.9544
10318TIP3    H230896   2.858   5.842   5.976  0.2900 -0.4444  0.0188
10319TIP3   OH230897   1.089   3.984   1.441 -0.4541  0.6141 -0.0506
10319TIP3    H130898   1.059   4.046   1.508 -0.8597  0.9802 -0.5711
10319TIP3    H230899   1.116   3.907   1.491  0.6704  1.4426  0.6569
10320TIP3   OH230900   1.840   0.298   2.640 -0.1978 -0.1961 -0.6128
10320TIP3    H130901   1.765   0.304   2.700  0.4973  0.1985  0.2385
10320TIP3    H230902   1.864   0.206   2.641 -1.9746 -0.7536 -2.5595
10321TIP3   OH230903   3.543   1.911   4.779  0.4363 -0.1496  0.1774
10321TIP3    H130904   3.617   1.953   4.822  0.1170  0.4588  0.1355
10321TIP3    H230905   3.466   1.945   4.825  0.2038 -1.3256  0.7076
10322TIP3   OH230906   3.920   6.492   6.200  0.2628  0.3813 -0.2460
10322TIP3    H130907   3.988   6.439   6.158 -1.4396 -0.9034 -1.5340
10322TIP3    H230908   3.842   6.437   6.197 -0.8364  1.7684  1.2742
10323TIP3   OH230909   0.747   1.443   1.957  0.0247 -0.4480 -0.0845
10323TIP3    H130910   0.756   1.376   2.024  1.4871 -0.2756 -0.0828
10323TIP3    H230911   0.780   1.523   1.998 -4.1562  1.0390  0.8839
10324TIP3   OH230912   0.737   7.005   1.547  0.4397  0.0176 -0.1807
10324TIP3    H130913   0.662   6.964   1.590  0.4737  0.5136  0.3685
10324TIP3    H230914   0.814   6.964   1.588  0.4836  1.0442  0.8295
10325TIP3   OH230915   2.740   4.271   1.697  0.1877  0.1396  0.1842
10325TIP3    H130916   2.708   4.283   1.786  0.4350  0.1404  0.2740
10325TIP3    H230917   2.755   4.359   1.664  1.8077  0.1087  0.7719
10326TIP3   OH230918   7.750   3.261   6.586 -0.1130 -0.1495 -0.3946
10326TIP3    H130919   7.768   3.269   6.493 -0.5059  2.4201 -0.3117
10326TIP3    H230920   7.836   3.246   6.626  0.2082 -0.1475 -1.0775
10327TIP3   OH230921   0.019   2.217   5.499  0.0786  0.2995 -0.1044
10327TIP3    H130922  -0.058   2.189   5.549  1.0140  1.3287  2.0369
10327TIP3    H230923   0.094   2.186   5.550  1.1157  0.6980 -1.3157
10328TIP3   OH230924   2.826   6.613   5.064 -0.0042  0.0104  0.4620
10328TIP3    H130925   2.760   6.651   5.006  0.9438  0.5645 -0.2928
10328TIP3    H230926   2.905   6.666   5.048  0.7588 -0.9329  0.9727
10329TIP3   OH230927   2.260   3.786   5.886 -0.1474  0.3398 -0.3399
10329TIP3    H130928   2.335   3.733   5.915 -1.0724 -0.2755  1.0213
10329TIP3    H230929   2.207   3.726   5.833  0.1348  0.6702 -0.9987
10330TIP3   OH230930   6.957   0.881   1.376  0.1305  0.4942 -0.6128
10330TIP3    H130931   6.907   0.803   1.350  0.3614  0.0942  0.1214
10330TIP3    H230932   6.891   0.941   1.411  0.0267  0.3925 -0.6316
10331TIP3   OH230933   6.177   2.482   3.793 -0.8411 -0.4474  0.5925
10331TIP3    H130934   6.198   2.410   3.734  1.8260 -1.0026  2.0601
10331TIP3    H230935   6.145   2.439   3.873 -2.0903  0.1779  0.4549
10332TIP3   OH230936   6.214   5.571   1.750  1.1527  0.4903 -0.5860
10332TIP3    H130937   6.143   5.593   1.689  0.6831 -0.8578 -0.5466
10332TIP3    H230938   6.205   5.636   1.820  1.2804  1.6379 -1.6083
10333TIP3   OH230939   7.268   0.716   1.849 -0.1883 -0.5102  0.0451
10333TIP3    H130940   7.292   0.676   1.765 -0.4964  0.7845 -0.6855
10333TIP3    H230941   7.315   0.800   1.850 -1.8825  0.4721  0.1743
10334TIP3   OH230942   1.948   6.614   4.789 -0.2025  0.2241 -0.5192
10334TIP3    H130943   2.029   6.659   4.812 -0.2328 -0.3755  0.8332
10334TIP3    H230944   1.878   6.672   4.819 -0.2748  0.2049 -0.6461
10335TIP3   OH230945   8.132   7.819   0.508  0.0277  0.5359 -0.7373
10335TIP3    H130946   8.117   7.728   0.481 -2.0560  0.2622  1.0645
10335TIP3    H230947   8.115   7.820   0.602  0.3203  2.7357 -0.6441
10336TIP3   OH230948   5.824   0.486   2.281  0.5730 -0.0898 -0.7182
10336TIP3    H130949   5.736   0.477   2.243  1.0755 -1.4665 -1.6574
10336TIP3    H230950   5.882   0.452   2.213  1.7366 -0.2527  0.3280
10337TIP3   OH230951   2.334   5.692   5.605 -0.1033 -0.1114 -0.0010
10337TIP3    H130952   2.316   5.607   5.565 -0.8678 -0.7696  1.6389
10337TIP3    H230953   2.297   5.755   5.544  2.8412 -0.6958 -2.6144
10338TIP3   OH230954   3.091   2.586   3.967  0.6564 -0.1246  0.3236
10338TIP3    H130955   3.149   2.648   3.921  0.1190  1.7265  1.9885
10338TIP3    H230956   3.120   2.589   4.058  0.4770 -2.2606  0.4907
10339TIP3   OH230957   4.162   3.674   1.180 -0.0973 -0.4310 -0.0037
10339TIP3    H130958   4.148   3.625   1.261 -0.5160 -1.0407 -0.4439
10339TIP3    H230959   4.100   3.637   1.118  0.6204 -0.3581 -0.7780
10340TIP3   OH230960   8.201   0.454   4.462  0.0095 -0.2756  0.0751
10340TIP3    H130961   8.143   0.389   4.502 -1.2080  0.3920 -0.5326
10340TIP3    H230962   8.187   0.533   4.514 -0.7567  0.2938 -0.9670
10341TIP3   OH230963   7.266   1.384   0.881 -0.0786 -0.2418 -0.2777
10341TIP3    H130964   7.209   1.459   0.901 -0.0878 -0.5898  1.0756
10341TIP3    H230965   7.345   1.399   0.933 -0.3024 -1.4299  0.4412
10342TIP3   OH230966   1.127   6.701   6.592 -0.1692  0.2448 -0.4200
10342TIP3    H130967   1.177   6.768   6.545 -1.2720 -0.2283 -2.3648
10342TIP3    H230968   1.113   6.738   6.679  1.3037  1.4883 -0.6775
10343TIP3   OH230969   5.331   1.895   5.610  0.2239  0.3219  0.4947
10343TIP3    H130970   5.257   1.838   5.633 -0.0829 -0.7226 -2.5296
10343TIP3    H230971   5.328   1.965   5.674 -0.8580 -1.8023  2.9688
10344TIP3   OH230972   7.004   1.838   4.386 -0.5777  0.1498 -0.2310
10344TIP3    H130973   6.931   1.777   4.392 -0.4779  0.1738  1.8281
10344TIP3    H230974   6.967   1.915   4.343 -1.1356 -0.6924 -1.3168
10345TIP3   OH230975   2.891   1.998   3.552  0.2528 -0.2843  0.0566
10345TIP3    H130976   2.891   1.908   3.585  0.0303 -0.0477  0.7081
10345TIP3    H230977   2.809   2.005   3.502  0.6626 -0.6887 -0.6866
10346TIP3   OH230978   6.837   7.394   5.205  0.0250  0.1710  0.3245
10346TIP3    H130979   6.869   7.371   5.118  2.6551  0.4320  1.1371
10346TIP3    H230980   6.915   7.422   5.253 -1.4026  0.4524  2.6533
10347TIP3   OH230981   0.106   5.057   4.420 -0.1139 -0.1332  0.3018
10347TIP3    H130982   0.149   4.985   4.467 -1.5826 -0.7192  0.8042
10347TIP3    H230983   0.092   5.124   4.487 -0.4075 -0.1451  0.2537
10348TIP3   OH230984   3.926   5.617   5.037 -0.1455  0.0239  0.0428
10348TIP3    H130985   3.932   5.678   5.111  1.7356  0.4711 -0.4252
10348TIP3    H230986   3.875   5.663   4.972  0.2586  0.6372  0.1484
10349TIP3   OH230987   6.140   3.667   5.045  0.3831  0.0613 -0.2133
10349TIP3    H130988   6.079   3.733   5.077  0.5553  0.4577 -0.6887
10349TIP3    H230989   6.182   3.632   5.124 -2.3253 -2.1206  0.4121
10350TIP3   OH230990   0.917   4.330   2.144 -0.1465 -0.9088  0.6086
10350TIP3    H130991   0.990   4.352   2.085 -0.5931 -4.3211 -1.4674
10350TIP3    H230992   0.959   4.314   2.228  0.8323  1.5743  0.6981
10351TIP3   OH230993   7.574   6.839   2.699 -0.5506 -0.5619  0.1191
10351TIP3    H130994   7.525   6.918   2.722 -1.1086 -1.3209  1.6551
10351TIP3    H230995   7.634   6.825   2.773 -0.4111 -1.5391 -0.1671
10352TIP3   OH230996   1.431   5.711   5.233  0.4070 -0.0136  0.0511
10352TIP3    H130997   1.384   5.673   5.307  0.7604 -0.8038 -0.1272
10352TIP3    H230998   1.521   5.682   5.244  0.5055  0.0402 -0.5790
10353TIP3   OH230999   3.496   7.703   0.566  0.3375  0.2113 -0.4741
10353TIP3    H131000   3.534   7.700   0.479  1.6701  1.0564  0.0427
10353TIP3    H231001   3.405   7.678   0.554  0.3318  0.9593 -2.2030
10354TIP3   OH231002   7.521   7.290   3.627  0.7921  0.6253 -0.0078
10354TIP3    H131003   7.446   7.253   3.673  0.3315  1.7712  0.1899
10354TIP3    H231004   7.564   7.346   3.691  1.0519  1.0035 -0.5028
10355TIP3   OH231005   4.660   1.926   5.468  0.3467  0.6435  0.2622
10355TIP3    H131006   4.719   2.002   5.472  0.3791  0.6248  0.1520
10355TIP3    H231007   4.583   1.953   5.517  0.8200  0.3362  1.1988
10356TIP3   OH231008   1.337   3.703   1.358 -0.3584  0.3509 -0.2927
10356TIP3    H131009   1.333   3.757   1.437  1.2876  0.7841 -0.4777
10356TIP3    H231010   1.360   3.764   1.288  0.4101 -0.3984 -0.7067
10357TIP3   OH231011   2.125   0.498   1.899 -0.2697  0.1216 -0.6590
10357TIP3    H131012   2.039   0.471   1.930 -0.2817 -0.7595 -1.4142
10357TIP3    H231013   2.185   0.476   1.970 -0.3684 -1.3513 -0.9989
10358TIP3   OH231014   7.822   0.701   2.155  0.6766  0.3097 -0.1757
10358TIP3    H131015   7.818   0.709   2.060 -1.5267  1.8667 -0.0274
10358TIP3    H231016   7.899   0.752   2.181  0.3971  1.2025 -1.0388
10359TIP3   OH231017   6.009   1.853   0.404  0.3467  0.1845  0.3570
10359TIP3    H131018   6.061   1.881   0.328 -0.2044 -2.4860 -1.1375
10359TIP3    H231019   6.074   1.834   0.472  1.0819  0.1466 -0.3439
10360TIP3   OH231020   6.932   1.771   4.713 -0.0397 -0.1983 -0.0891
10360TIP3    H131021   6.865   1.709   4.743 -0.6546  0.3468 -0.3020
10360TIP3    H231022   6.882   1.848   4.687  0.7506  0.5619  0.6069
10361TIP3   OH231023   0.557   4.210   3.537 -0.1390 -0.3187  1.0647
10361TIP3    H131024   0.480   4.267   3.528  0.1391  0.0911  1.2606
10361TIP3    H231025   0.604   4.245   3.612  1.0589  0.3997 -0.0024
10362TIP3   OH231026   0.670   6.652   2.972  0.2172  0.2319 -0.2982
10362TIP3    H131027   0.596   6.619   2.921 -1.4362  1.3599  1.2630
10362TIP3    H231028   0.708   6.721   2.917  1.1911 -1.4143 -1.8072
10363TIP3   OH231029   2.456   4.701   1.024  0.2649  0.6065  0.0581
10363TIP3    H131030   2.382   4.660   1.069  1.3955 -0.8846  0.6658
10363TIP3    H231031   2.529   4.690   1.084  0.8630  2.6819 -0.2322
10364TIP3   OH231032   7.241   2.307   6.205 -0.4923  0.8452 -0.3682
10364TIP3    H131033   7.169   2.322   6.144 -0.1943  1.1094 -0.6552
10364TIP3    H231034   7.278   2.223   6.178  0.1050  1.3041 -1.0275
10365TIP3   OH231035   1.510   2.539   1.077 -0.2025  0.1631 -0.0367
10365TIP3    H131036   1.469   2.620   1.047  0.5504  0.1258 -1.2260
10365TIP3    H231037   1.562   2.565   1.153  1.2087  1.1109 -1.2836
10366TIP3   OH231038   2.375   3.420   6.724  0.4217 -0.1404  0.0226
10366TIP3    H131039   2.297   3.426   6.669  0.5161  3.7093  0.1011
10366TIP3    H231040   2.368   3.333   6.765 -2.8655 -0.6506 -1.2888
10367TIP3   OH231041   0.654   6.349   6.852 -0.0525  0.0852  0.3040
10367TIP3    H131042   0.693   6.266   6.881 -0.7620 -0.2589  0.2997
10367TIP3    H231043   0.642   6.339   6.758  2.9167  1.4785 -0.3421
10368TIP3   OH231044   3.129   0.520   2.756  0.4313  0.2517  0.4919
10368TIP3    H131045   3.087   0.546   2.674 -0.0527 -1.2340  0.2365
10368TIP3    H231046   3.063   0.538   2.824 -0.6940 -1.9970  0.1004
10369TIP3   OH231047   4.853   7.242   3.005 -0.5369  0.2072 -0.7594
10369TIP3    H131048   4.766   7.203   2.992 -1.5540  1.2916  1.9445
10369TIP3    H231049   4.835   7.324   3.051  1.9836 -0.5792  1.9658
10370TIP3   OH231050   3.626   0.633   2.390 -0.2808 -0.1668  0.2330
10370TIP3    H131051   3.692   0.614   2.323 -1.5797  0.3839 -1.2659
10370TIP3    H231052   3.563   0.691   2.346 -1.3055  0.0136  1.8665
10371TIP3   OH231053   4.052   2.087   3.465 -0.2565  0.4793 -0.3947
10371TIP3    H131054   4.132   2.083   3.517 -0.4025  1.7149 -0.0367
10371TIP3    H231055   4.075   2.042   3.384  0.3319 -0.4665  0.2735
10372TIP3   OH231056   2.294   4.527   0.700 -0.2184 -0.6128 -0.3739
10372TIP3    H131057   2.290   4.622   0.692 -0.3257 -0.4178  1.4958
10372TIP3    H231058   2.206   4.501   0.728  0.8144 -0.6942  3.3581
10373TIP3   OH231059   2.921   6.916   1.394  0.2117 -0.1730 -0.7733
10373TIP3    H131060   2.902   6.927   1.488 -1.2910 -1.0863 -0.9486
10373TIP3    H231061   3.016   6.907   1.390  0.2559 -0.6257  0.7226
10374TIP3   OH231062   3.779   6.657   1.662  0.5182  0.2980  0.6729
10374TIP3    H131063   3.736   6.730   1.618 -0.3463  0.6638  2.0471
10374TIP3    H231064   3.871   6.663   1.636  0.2904  1.3447  0.0838
10375TIP3   OH231065   8.260   3.451   1.443 -0.0378  0.1048 -0.0090
10375TIP3    H131066   8.309   3.533   1.443  0.4077 -0.1590  0.4009
10375TIP3    H231067   8.326   3.383   1.454 -0.0971 -0.5164 -2.7515
10376TIP3   OH231068   8.207   0.509   1.951 -0.2652  0.3067  0.4815
10376TIP3    H131069   8.240   0.555   1.874 -0.6179 -0.5810 -0.2300
10376TIP3    H231070   8.237   0.561   2.026 -1.8874  2.5245 -0.2975
10377TIP3   OH231071   7.106   5.733   2.759  0.2326 -0.1483  0.3271
10377TIP3    H131072   7.055   5.725   2.839  0.0273  0.1382  0.2271
10377TIP3    H231073   7.087   5.652   2.711  0.7773 -0.5674  0.8022
10378TIP3   OH231074   2.929   1.688   5.198  0.0333 -0.0956 -0.0346
10378TIP3    H131075   2.943   1.741   5.120  0.7536 -0.1399  0.0649
10378TIP3    H231076   3.010   1.696   5.248 -0.3006 -0.3297  0.5568
10379TIP3   OH231077   3.025   7.502   0.269 -0.4093  0.4940  0.1153
10379TIP3    H131078   2.982   7.585   0.292 -1.9686 -0.3725  0.4717
10379TIP3    H231079   3.051   7.465   0.354  4.8937  2.7927 -0.1053
10380TIP3   OH231080   5.255   6.844   1.736 -0.2427 -0.1819 -0.4547
10380TIP3    H131081   5.298   6.760   1.718 -1.2998 -0.8292 -0.0437
10380TIP3    H231082   5.322   6.897   1.778 -0.1592 -1.6100  1.3418
10381TIP3   OH231083   7.208   5.887   6.200 -0.0271  0.5339 -0.5288
10381TIP3    H131084   7.277   5.954   6.203 -1.8311  2.6041 -2.1363
10381TIP3    H231085   7.244   5.819   6.143  2.1950 -0.4477  1.8216
10382TIP3   OH231086   4.799   5.500   4.990 -0.0931 -0.5816  0.0817
10382TIP3    H131087   4.724   5.534   5.039 -0.4350  0.0878 -0.8840
10382TIP3    H231088   4.791   5.405   4.998  0.7858 -0.5123  2.6790
10383TIP3   OH231089   6.875   2.426   2.164 -0.4499 -0.3572 -0.1583
10383TIP3    H131090   6.836   2.391   2.084  0.4160 -0.9595 -0.3399
10383TIP3    H231091   6.944   2.485   2.133  2.4078 -3.3318 -0.0067
10384TIP3   OH231092   2.759   1.820   6.087 -0.3308  0.3192 -0.3901
10384TIP3    H131093   2.664   1.821   6.103 -0.2447  0.7826  0.0951
10384TIP3    H231094   2.784   1.912   6.084  0.4861  0.2268  1.7862
10385TIP3   OH231095   5.817   4.109   5.315  0.2505 -0.1864 -0.5197
10385TIP3    H131096   5.742   4.111   5.375  0.0284 -0.8505 -0.7683
10385TIP3    H231097   5.807   4.027   5.268 -1.2397  1.5673 -3.5607
10386TIP3   OH231098   2.512   0.097   1.569  0.0300 -0.0105 -0.3199
10386TIP3    H131099   2.487   0.005   1.564  1.7284 -0.4657 -1.5550
10386TIP3    H231100   2.518   0.115   1.663 -0.1515 -1.2007 -0.0555
10387TIP3   OH231101   7.504   6.878   0.262  0.2002  0.2091 -0.1445
10387TIP3    H131102   7.431   6.937   0.240 -0.2606  0.7167  2.4455
10387TIP3    H231103   7.471   6.825   0.334  1.7641 -0.9258 -0.2134
10388TIP3   OH231104   3.927   2.914   0.813  0.7043  0.0532 -0.1940
10388TIP3    H131105   3.892   2.877   0.894  0.3744  0.5458 -0.1112
10388TIP3    H231106   4.020   2.927   0.831  0.7558 -0.4155 -0.1067
10389TIP3   OH231107   7.490   2.732   1.616  0.5338  0.5551 -0.4275
10389TIP3    H131108   7.465   2.703   1.704  1.2222 -1.1424 -0.7409
10389TIP3    H231109   7.417   2.786   1.586 -0.1030  0.4366  0.8494
10390TIP3   OH231110   6.549   4.058   3.995  0.0535  0.0746 -0.7518
10390TIP3    H131111   6.603   4.020   4.064 -0.0104  1.4960  0.1079
10390TIP3    H231112   6.609   4.112   3.944 -0.6630  2.6864  0.9575
10391TIP3   OH231113   1.065   0.323   4.993 -0.2566  0.4805  0.1131
10391TIP3    H131114   1.070   0.406   4.946 -0.3057  0.4894  0.1233
10391TIP3    H231115   1.021   0.263   4.933 -0.8771  0.6572  0.3727
10392TIP3   OH231116   0.206   5.486   3.031 -0.0877  0.3427 -0.2433
10392TIP3    H131117   0.197   5.428   3.106 -0.8559  0.0966 -0.5101
10392TIP3    H231118   0.245   5.431   2.963  0.2607  0.4630 -0.1432
10393TIP3   OH231119   1.475   4.323   4.268 -0.4108  0.1465  0.8274
10393TIP3    H131120   1.408   4.305   4.335 -0.7458 -0.4652  0.3342
10393TIP3    H231121   1.478   4.244   4.215 -1.8499  1.4464 -1.3642
10394TIP3   OH231122   2.706   3.238   4.521  0.2358  0.3708  0.5023
10394TIP3    H131123   2.663   3.190   4.592 -0.2251  2.0851  1.4540
10394TIP3    H231124   2.794   3.256   4.555  0.9433 -1.0914 -0.4807
10395TIP3   OH231125   3.888   1.574   3.544  0.2623 -0.2287 -0.4302
10395TIP3    H131126   3.832   1.575   3.622  1.4691  0.8909  0.4670
10395TIP3    H231127   3.827   1.584   3.471 -0.9462 -1.7382  0.3059
10396TIP3   OH231128   3.518   1.459   1.556  0.0713  0.0526 -0.0176
10396TIP3    H131129   3.561   1.529   1.605 -0.0937  0.3434 -0.2830
10396TIP3    H231130   3.557   1.379   1.589  0.1780  0.2648  0.3729
10397TIP3   OH231131   6.595   0.156   0.953  0.0379  0.1575 -0.0103
10397TIP3    H131132   6.671   0.165   0.896 -0.1871 -1.1394 -0.5630
10397TIP3    H231133   6.576   0.062   0.952 -0.0659  0.1126  2.0883
10398TIP3   OH231134   7.446   3.509   5.427 -0.5304  0.3027 -0.2331
10398TIP3    H131135   7.463   3.584   5.484  0.4393  0.4787 -0.7408
10398TIP3    H231136   7.529   3.461   5.425 -1.3508 -1.2505  0.7358
10399TIP3   OH231137   2.932   4.323   4.405 -0.5802  0.1270  0.2179
10399TIP3    H131138   2.882   4.288   4.331  0.9218 -0.2062 -0.6723
10399TIP3    H231139   2.883   4.294   4.482 -0.9442 -1.4810 -0.5751
10400TIP3   OH231140   1.046   5.994   2.664  0.4118  0.9505  0.5086
10400TIP3    H131141   1.044   6.073   2.610  1.7189  0.7835  0.1710
10400TIP3    H231142   1.118   6.009   2.725 -0.8898  1.0320  2.0830
10401TIP3   OH231143   1.676   3.590   3.731 -0.5744  0.3997  0.1487
10401TIP3    H131144   1.755   3.559   3.687  0.8424  0.0162  2.7635
10401TIP3    H231145   1.695   3.682   3.752 -0.5260  0.1412  1.3145
10402TIP3   OH231146   1.549   7.487   2.526 -1.3003 -0.1827 -0.3369
10402TIP3    H131147   1.521   7.403   2.488 -0.0231 -0.1610 -1.4149
10402TIP3    H231148   1.605   7.526   2.458 -0.9526  1.0147  0.6101
10403TIP3   OH231149   4.092   5.058   1.082  0.3743  0.2444  0.6039
10403TIP3    H131150   4.017   5.118   1.087  0.0086 -0.2747  1.6598
10403TIP3    H231151   4.168   5.113   1.106  0.3928  0.8291 -0.7061
10404TIP3   OH231152   6.369   1.085   1.286 -0.2854 -0.4612  0.6326
10404TIP3    H131153   6.422   1.012   1.317  0.2532 -0.0128  0.7918
10404TIP3    H231154   6.358   1.142   1.363 -1.1522 -0.6296  0.6496
10405TIP3   OH231155   1.559   3.841   6.020 -0.3111  0.5607 -0.4432
10405TIP3    H131156   1.518   3.923   5.991  1.5136  0.8398 -2.5341
10405TIP3    H231157   1.650   3.849   5.992  0.6441 -0.9979  1.9151
10406TIP3   OH231158   7.697   4.316   2.917  0.3227  0.4027 -0.0680
10406TIP3    H131159   7.788   4.296   2.939  0.0702 -0.6598  0.0734
10406TIP3    H231160   7.646   4.254   2.969 -0.4962  1.0727 -0.0482
10407TIP3   OH231161   4.510   2.248   3.789  0.9344  0.6710  0.4045
10407TIP3    H131162   4.505   2.215   3.699 -0.1847 -0.0833  0.7245
10407TIP3    H231163   4.515   2.343   3.780 -2.4260  0.8838 -0.4493
10408TIP3   OH231164   5.903   7.698   0.895  0.4217  0.5466 -0.0554
10408TIP3    H131165   5.862   7.740   0.971  0.7641  1.6370 -0.4618
10408TIP3    H231166   5.946   7.770   0.848  2.1057 -0.4189 -0.0911
10409TIP3   OH231167   3.784   4.522   1.886 -0.3680  0.3835 -0.4328
10409TIP3    H131168   3.751   4.454   1.945 -0.4875  1.0712  0.3088
10409TIP3    H231169   3.851   4.567   1.937 -1.0690  1.5355 -0.5086
10410TIP3   OH231170   6.288   5.658   3.535  0.5800 -0.1295  0.2716
10410TIP3    H131171   6.192   5.654   3.532  0.6216 -0.5833 -1.0793
10410TIP3    H231172   6.309   5.662   3.628 -0.7530 -0.0440  0.5867
10411TIP3   OH231173   5.761   0.807   4.924 -0.5265 -0.0127 -0.5833
10411TIP3    H131174   5.790   0.719   4.946  0.3263 -0.1762 -2.1794
10411TIP3    H231175   5.668   0.809   4.949 -0.5642 -1.3540 -0.5281
10412TIP3   OH231176   3.112   6.080   1.394 -0.2855 -0.0259  0.4920
10412TIP3    H131177   3.106   6.027   1.314 -0.8783 -0.5386  0.8577
10412TIP3    H231178   3.204   6.102   1.402 -0.2274  0.0671 -0.3573
10413TIP3   OH231179   2.318   5.303   6.507  0.2897 -0.0085  0.1185
10413TIP3    H131180   2.330   5.213   6.537 -0.8602  0.2028  1.3437
10413TIP3    H231181   2.302   5.352   6.588 -2.1482  0.7579 -0.7586
10414TIP3   OH231182   5.309   7.794   1.144  0.6629  0.4846 -0.0134
10414TIP3    H131183   5.285   7.762   1.057  0.3009  0.6469  0.0247
10414TIP3    H231184   5.230   7.780   1.197  0.7063  0.8659  0.1560
10415TIP3   OH231185   3.433   6.611   4.722 -0.0623  0.4088  0.2024
10415TIP3    H131186   3.346   6.642   4.747 -0.1996  0.1658  0.0301
10415TIP3    H231187   3.416   6.540   4.659  0.2485  0.0222  0.5485
10416TIP3   OH231188   0.988   5.968   4.285  0.0314  0.1758 -0.0093
10416TIP3    H131189   0.996   5.888   4.232 -0.1631 -0.3702  0.7690
10416TIP3    H231190   1.037   5.949   4.365  0.1295  0.9103  0.1116
10417TIP3   OH231191   0.286   6.129   6.572 -0.7001  0.1594  0.1166
10417TIP3    H131192   0.201   6.109   6.533 -0.8859 -1.1689  1.1163
10417TIP3    H231193   0.342   6.055   6.548  0.3776  1.3125 -1.0464
10418TIP3   OH231194   2.641   4.823   5.100 -0.1766  0.2873  0.3245
10418TIP3    H131195   2.591   4.749   5.134  0.4219  0.1724  0.9918
10418TIP3    H231196   2.708   4.784   5.044 -1.0476  0.4661 -0.8693
10419TIP3   OH231197   4.251   5.265   0.363  0.4057 -0.6044 -0.0281
10419TIP3    H131198   4.290   5.347   0.333  0.4336 -1.0599 -1.3492
10419TIP3    H231199   4.178   5.250   0.303 -1.3280 -0.1931  1.8768
10420TIP3   OH231200   8.390   5.516   4.681  0.3699  0.0793 -0.0368
10420TIP3    H131201   8.444   5.484   4.754 -2.0111 -0.3561  1.6723
10420TIP3    H231202   8.328   5.445   4.665 -0.4314  0.9890 -1.1405
10421TIP3   OH231203   8.063   1.104   0.542 -0.1309 -0.2937 -0.1012
10421TIP3    H131204   8.046   1.021   0.497  1.1586 -0.4172 -0.4080
10421TIP3    H231205   8.011   1.099   0.622  1.4860 -2.3428  0.9391
10422TIP3   OH231206   5.941   5.541   0.897  0.5939 -0.3541  0.2694
10422TIP3    H131207   5.960   5.601   0.825 -0.8624  1.9122  1.6721
10422TIP3    H231208   5.847   5.527   0.892  0.6455 -1.0980  1.0854
10423TIP3   OH231209   0.464   3.377   5.392 -0.3906  0.0443  0.5153
10423TIP3    H131210   0.375   3.411   5.383 -1.2729 -1.2342  3.1177
10423TIP3    H231211   0.514   3.449   5.430 -0.0820  0.9785 -1.5414
10424TIP3   OH231212   1.411   3.896   1.748  0.1547  0.1712  0.1658
10424TIP3    H131213   1.451   3.819   1.707  1.0144  1.5184 -1.6791
10424TIP3    H231214   1.319   3.892   1.723  0.2679 -0.0919 -0.2126
10425TIP3   OH231215   5.090   7.616   5.750  0.4408 -0.0165  0.3399
10425TIP3    H131216   5.085   7.703   5.789  1.2407 -0.6279  1.8986
10425TIP3    H231217   5.106   7.632   5.657 -0.0380  1.4825  0.4861
10426TIP3   OH231218   5.338   5.177   2.498 -0.2920  0.0121 -0.0085
10426TIP3    H131219   5.384   5.111   2.550 -0.4693 -0.5959 -0.6080
10426TIP3    H231220   5.251   5.181   2.537  0.1113  0.8244  0.8319
10427TIP3   OH231221   5.345   0.433   2.570 -0.2371 -0.4250 -0.1937
10427TIP3    H131222   5.403   0.376   2.518  0.3854 -0.2268  0.2847
10427TIP3    H231223   5.403   0.478   2.630 -0.8984 -0.2494  0.3179
10428TIP3   OH231224   6.120   6.200   4.092 -0.2368 -0.2839  0.6157
10428TIP3    H131225   6.048   6.252   4.128 -1.2576 -0.2790 -1.2897
10428TIP3    H231226   6.077   6.126   4.048  0.6706  0.7127 -2.2146
10429TIP3   OH231227   4.545   7.358   5.765 -0.0857 -0.2366 -0.4229
10429TIP3    H131228   4.588   7.369   5.849  0.6054 -1.9966 -0.5065
10429TIP3    H231229   4.538   7.447   5.730  1.2870  0.3438  0.6681
10430TIP3   OH231230   0.918   0.768   5.886  0.0679  0.0530 -0.0880
10430TIP3    H131231   0.969   0.844   5.915  1.0349 -0.0252 -1.4789
10430TIP3    H231232   0.861   0.803   5.817  0.5847 -0.4836 -0.8005
10431TIP3   OH231233   1.359   6.850   3.500 -0.2144  0.3204 -0.0853
10431TIP3    H131234   1.426   6.800   3.546 -0.6162 -0.0259  0.1343
10431TIP3    H231235   1.295   6.785   3.472 -1.3429  0.8166  1.2230
10432TIP3   OH231236   2.246   0.209   2.838 -0.1862  0.0011 -0.3214
10432TIP3    H131237   2.322   0.211   2.896 -0.9319 -1.1528  0.7327
10432TIP3    H231238   2.276   0.157   2.763  1.1257  2.3828 -1.5711
10433TIP3   OH231239   0.725   3.658   5.918  0.4858 -0.4789 -0.1977
10433TIP3    H131240   0.691   3.581   5.965  0.2766  0.5764  1.4392
10433TIP3    H231241   0.771   3.621   5.843 -1.0676 -2.1308 -0.4212
10434TIP3   OH231242   5.737   0.599   5.512 -0.0028  0.1364  0.3174
10434TIP3    H131243   5.713   0.663   5.578  0.3782  2.4209 -1.6083
10434TIP3    H231244   5.825   0.623   5.485  0.6643 -2.0158  0.3710
10435TIP3   OH231245   5.964   1.122   3.432 -0.3151 -0.4132 -0.4582
10435TIP3    H131246   6.046   1.075   3.425 -0.5059 -0.8080 -0.0841
10435TIP3    H231247   5.910   1.087   3.360  0.1359  0.4579 -1.2390
10436TIP3   OH231248   0.027   5.975   4.555 -0.1795  0.2526 -0.1023
10436TIP3    H131249   0.111   5.935   4.533 -1.0250 -1.2703 -0.6306
10436TIP3    H231250  -0.011   5.917   4.621 -0.0108  1.9597  1.6211
10437TIP3   OH231251   4.039   0.999   4.419  0.2574  0.0614 -0.2733
10437TIP3    H131252   4.068   1.035   4.335  0.6749 -0.2395 -0.2652
10437TIP3    H231253   4.095   0.922   4.432  0.8666  0.6543  0.7336
10438TIP3   OH231254   7.384   3.536   0.096 -1.0958 -0.3849  0.0483
10438TIP3    H131255   7.321   3.481   0.142 -1.2863 -2.1975 -2.1800
10438TIP3    H231256   7.463   3.483   0.089 -0.3431  0.6827  0.1564
10439TIP3   OH231257   4.340   5.892   1.006 -0.1968 -0.2104  0.5610
10439TIP3    H131258   4.270   5.918   1.066 -1.0315  2.5202 -1.3970
10439TIP3    H231259   4.411   5.953   1.025  0.0084 -0.1613 -0.3308
10440TIP3   OH231260   0.146   2.836   0.231 -0.2725 -0.0273 -0.3058
10440TIP3    H131261   0.140   2.853   0.137 -0.5088  1.0455 -0.1035
10440TIP3    H231262   0.234   2.801   0.243  1.1595  3.1592 -0.4691
10441TIP3   OH231263   5.360   2.991   4.549 -0.0072 -0.0735 -0.0913
10441TIP3    H131264   5.446   2.951   4.568  0.3338  0.5558 -0.2871
10441TIP3    H231265   5.332   3.027   4.633 -1.4112 -2.6991  0.6875
10442TIP3   OH231266   8.133   5.643   5.185  0.4673  0.0691 -0.3781
10442TIP3    H131267   8.150   5.698   5.262  0.2591 -1.7909  1.0688
10442TIP3    H231268   8.194   5.675   5.119 -0.1831  2.5312  0.0918
10443TIP3   OH231269   0.604   0.819   6.042 -0.6115 -0.3060 -0.7522
10443TIP3    H131270   0.530   0.880   6.038 -1.7352 -1.5499  0.3740
10443TIP3    H231271   0.644   0.825   5.955 -0.0062  2.7881 -0.3973
10444TIP3   OH231272   4.299   1.871   4.548  0.6273 -1.0243  0.1849
10444TIP3    H131273   4.270   1.944   4.603  1.0877  0.2951 -1.2208
10444TIP3    H231274   4.221   1.849   4.496  1.1852  0.4521 -1.4053
10445TIP3   OH231275   4.717   0.505   6.343 -0.3351 -0.3161 -0.0864
10445TIP3    H131276   4.663   0.563   6.289  1.2531 -0.7411 -2.2734
10445TIP3    H231277   4.767   0.564   6.399 -2.2173  0.1281  1.2005
10446TIP3   OH231278   3.524   4.945   3.402 -0.2023 -0.1066  0.2114
10446TIP3    H131279   3.445   4.923   3.451 -0.5651 -2.0895 -1.1428
10446TIP3    H231280   3.585   4.980   3.468 -1.0073 -1.7166  1.8800
10447TIP3   OH231281   1.289   2.410   6.510 -0.4256  0.0650 -0.5956
10447TIP3    H131282   1.264   2.344   6.575  3.7317 -1.0895  0.1578
10447TIP3    H231283   1.346   2.470   6.558  0.8111  0.6145 -2.6340
10448TIP3   OH231284   7.719   0.445   3.359 -0.0274  0.0408 -0.3825
10448TIP3    H131285   7.705   0.519   3.418  0.4590  0.0908 -0.3276
10448TIP3    H231286   7.750   0.484   3.277  0.8504 -0.1367 -0.1473
10449TIP3   OH231287   7.183   3.404   1.846  0.1403  0.1698 -0.3465
10449TIP3    H131288   7.243   3.331   1.861 -0.9934 -1.3433 -2.5174
10449TIP3    H231289   7.106   3.382   1.898  0.5745  0.9397  0.6487
10450TIP3   OH231290   4.807   4.245   2.177 -0.0199 -0.6619  0.0130
10450TIP3    H131291   4.743   4.313   2.200 -0.4894  1.0424 -5.0546
10450TIP3    H231292   4.891   4.290   2.182 -0.0963 -0.3771 -1.0969
10451TIP3   OH231293   4.828   3.415   3.228  0.6056  0.2985 -0.1416
10451TIP3    H131294   4.787   3.359   3.294  1.8138  2.0223  2.1790
10451TIP3    H231295   4.919   3.384   3.224  0.2620 -0.6556 -2.0761
10452TIP3   OH231296   8.372   7.220   5.402  0.4528  0.5430 -0.3514
10452TIP3    H131297   8.368   7.315   5.416  0.4304  0.4580  0.2322
10452TIP3    H231298   8.289   7.199   5.360  0.6069  0.8308 -0.8136
10453TIP3   OH231299   8.322   7.661  -0.020  0.4298 -0.7362 -0.3728
10453TIP3    H131300   8.312   7.663   0.075 -0.9790  1.0141 -0.4900
10453TIP3    H231301   8.414   7.638  -0.035  1.1450  0.7184  1.4533
10454TIP3   OH231302   6.703   7.414   3.865 -0.1550  0.0826  0.4792
10454TIP3    H131303   6.710   7.334   3.813  0.8456  0.3328  0.1990
10454TIP3    H231304   6.644   7.391   3.936  0.1586 -0.9297  0.4356
10455TIP3   OH231305   4.570   4.820   2.777  0.2539  0.3300 -0.2872
10455TIP3    H131306   4.531   4.781   2.855  1.1945 -0.4213 -0.1761
10455TIP3    H231307   4.504   4.882   2.746 -1.5323 -1.6827 -0.7479
10456TIP3   OH231308   2.213   6.770   0.172 -0.6145 -0.9181 -0.3135
10456TIP3    H131309   2.300   6.763   0.134  0.0466 -1.0596  1.1580
10456TIP3    H231310   2.156   6.794   0.098  0.4789 -1.8181 -1.4919
10457TIP3   OH231311   5.397   6.487   3.047  0.0607 -0.6184 -0.6118
10457TIP3    H131312   5.329   6.542   3.009 -0.9795 -0.7885  0.9085
10457TIP3    H231313   5.350   6.407   3.074  0.5727 -0.2250  1.6199
10458TIP3   OH231314   0.643   7.676   6.565  0.3625 -0.2180 -0.2609
10458TIP3    H131315   0.669   7.672   6.657  0.1242  2.1289 -0.0411
10458TIP3    H231316   0.702   7.740   6.525  0.1514 -0.8380 -1.6505
10459TIP3   OH231317   7.208   2.394   3.758  0.1088 -0.0955 -0.0119
10459TIP3    H131318   7.124   2.440   3.746  0.6330  0.9184  0.1121
10459TIP3    H231319   7.225   2.399   3.852  1.0398  1.0420 -0.2237
10460TIP3   OH231320   1.808   0.115   1.647  0.5963 -0.1361  0.1743
10460TIP3    H131321   1.867   0.183   1.680 -0.3331  1.4095 -1.1968
10460TIP3    H231322   1.765   0.081   1.725  1.8391  0.0936  0.9896
10461TIP3   OH231323   1.707   4.638   2.198  0.6964  0.5454 -0.1854
10461TIP3    H131324   1.802   4.636   2.209  0.6523 -0.0269  0.0959
10461TIP3    H231325   1.689   4.578   2.126  0.2933 -1.6814  1.6831
10462TIP3   OH231326   0.401   4.451   1.015  0.5339  0.5719 -0.3104
10462TIP3    H131327   0.323   4.396   1.008  0.3770  0.6348  0.7445
10462TIP3    H231328   0.463   4.397   1.064  1.0929  0.5985 -0.9765
10463TIP3   OH231329   6.616   6.473   4.919 -0.5565 -0.2564  0.1336
10463TIP3    H131330   6.555   6.517   4.978  0.2080  1.7908 -0.5171
10463TIP3    H231331   6.564   6.453   4.842 -0.6266  0.7431 -0.0926
10464TIP3   OH231332   4.274   2.079   3.635  0.0356  0.0773 -0.0299
10464TIP3    H131333   4.349   2.123   3.595 -0.4680  0.5811 -0.4149
10464TIP3    H231334   4.314   2.023   3.703  0.7467  0.4339 -0.1405
10465TIP3   OH231335   6.786   0.630   1.503 -0.3605 -0.5008  0.4361
10465TIP3    H131336   6.731   0.575   1.560 -0.3355 -0.4823  0.4775
10465TIP3    H231337   6.783   0.717   1.543 -1.5278 -0.1452 -0.3959
10466TIP3   OH231338   2.550   2.258   3.356 -0.2316  0.3907  0.5156
10466TIP3    H131339   2.514   2.175   3.324  0.4772  0.7128 -1.1889
10466TIP3    H231340   2.594   2.234   3.438 -1.5314 -0.5803  0.9552
10467TIP3   OH231341   0.878   0.736   2.062 -0.5428 -0.4794 -0.3251
10467TIP3    H131342   0.845   0.776   1.982 -0.3124 -0.7896 -0.5795
10467TIP3    H231343   0.802   0.692   2.100 -0.7359 -0.0250 -0.1792
10468TIP3   OH231344   5.943   5.544   2.778  0.0150  0.0656 -0.3405
10468TIP3    H131345   6.013   5.490   2.742 -0.1045  0.9486 -2.0255
10468TIP3    H231346   5.862   5.507   2.741 -0.4151 -0.6630  1.2210
10469TIP3   OH231347   7.243   2.175   5.548  0.0054  0.4362 -0.4155
10469TIP3    H131348   7.317   2.147   5.602 -0.2053 -1.1748 -0.8886
10469TIP3    H231349   7.272   2.158   5.458 -0.8863 -0.1461 -0.6072
10470TIP3   OH231350   7.153   2.821   3.725  0.4277 -0.3922 -0.5708
10470TIP3    H131351   7.226   2.779   3.679  1.0433  0.9297 -0.8588
10470TIP3    H231352   7.101   2.861   3.655  0.0202 -0.4224 -0.2867
10471TIP3   OH231353   6.118   4.360   1.232  0.8373 -0.1151  0.1551
10471TIP3    H131354   6.147   4.379   1.143  0.2474 -1.7735 -0.4257
10471TIP3    H231355   6.125   4.444   1.278  2.3537  0.4863 -1.0981
10472TIP3   OH231356   0.735   6.258   5.859 -0.2369  0.8503  0.9238
10472TIP3    H131357   0.815   6.224   5.899  0.1750  0.9487  0.1853
10472TIP3    H231358   0.765   6.305   5.781 -1.1411 -0.4485 -0.2364
10473TIP3   OH231359   5.813   7.053   3.124 -0.2215  0.1265 -0.2741
10473TIP3    H131360   5.751   6.989   3.159 -1.2536 -0.2588 -2.5699
10473TIP3    H231361   5.782   7.137   3.157 -0.9582 -0.2381 -0.0093
10474TIP3   OH231362   0.848   0.720   6.652  0.0072  0.3312  0.4623
10474TIP3    H131363   0.909   0.761   6.713  2.1585 -2.0864  0.1236
10474TIP3    H231364   0.889   0.731   6.566 -0.8974  0.0864 -0.0179
10475TIP3   OH231365   7.813   0.711   3.296 -0.3728 -0.3117 -0.2489
10475TIP3    H131366   7.810   0.694   3.202  0.0186 -0.6312 -0.2094
10475TIP3    H231367   7.795   0.804   3.305  1.5476  0.1574 -0.8073
10476TIP3   OH231368   2.819   5.117   4.709 -0.2965  0.5584 -0.0301
10476TIP3    H131369   2.902   5.106   4.663 -0.6809  2.0524 -1.1544
10476TIP3    H231370   2.823   5.205   4.745 -1.4484  0.7135 -0.2373
10477TIP3   OH231371   5.900   4.780   0.611 -0.7524 -0.3306 -0.3699
10477TIP3    H131372   5.845   4.858   0.613 -0.0019  0.1919  0.4835
10477TIP3    H231373   5.940   4.776   0.698  0.3885 -0.8210 -0.9007
10478TIP3   OH231374   7.275   2.877   1.529 -0.2388  0.4826  0.0138
10478TIP3    H131375   7.250   2.869   1.620 -0.5588  2.1567  0.1080
10478TIP3    H231376   7.193   2.892   1.482 -0.0751 -0.3380 -0.5506
10479TIP3   OH231377   7.276   7.149   1.937  0.1188  0.3743  0.0371
10479TIP3    H131378   7.235   7.064   1.952 -1.8477  1.0909 -0.8043
10479TIP3    H231379   7.264   7.196   2.020  2.2046 -0.4742  0.8903
10480TIP3   OH231380   0.451   3.141   6.659  0.0294 -0.4661  0.1198
10480TIP3    H131381   0.476   3.062   6.706 -2.8746 -1.1624  0.6871
10480TIP3    H231382   0.367   3.119   6.618 -0.3702  1.9972 -0.5426
10481TIP3   OH231383   7.349   0.862   6.738 -0.3265 -0.1477  0.4751
10481TIP3    H131384   7.278   0.813   6.697  1.3427 -1.1829 -1.3808
10481TIP3    H231385   7.346   0.948   6.698  0.7683 -0.8892 -1.3063
10482TIP3   OH231386   5.194   0.584   2.353 -0.0275  0.4859  0.2437
10482TIP3    H131387   5.232   0.517   2.410  0.9078  1.7175  1.1452
10482TIP3    H231388   5.248   0.582   2.275 -1.3783 -1.2829 -0.7093
10483TIP3   OH231389   4.480   4.875   6.499 -0.3840 -0.4036 -0.2445
10483TIP3    H131390   4.427   4.810   6.453 -1.6846 -0.7062  1.5879
10483TIP3    H231391   4.564   4.831   6.515 -1.2759 -1.6985  1.0439
10484TIP3   OH231392   7.354   2.519   1.444  0.3364 -0.2678  0.2330
10484TIP3    H131393   7.367   2.444   1.385  3.1251  1.3232 -1.3750
10484TIP3    H231394   7.422   2.581   1.420 -3.0737  3.8454 -0.0852
10485TIP3   OH231395   6.288   1.942   4.413 -0.0292 -0.0326  0.7026
10485TIP3    H131396   6.195   1.927   4.395  0.4584 -2.4429 -0.1032
10485TIP3    H231397   6.329   1.941   4.327  1.1579 -2.5095  1.2269
10486TIP3   OH231398   8.068   0.359   0.098 -0.3217 -0.0862 -0.4255
10486TIP3    H131399   8.003   0.343   0.030 -1.3768 -0.3865  0.6225
10486TIP3    H231400   8.109   0.274   0.113 -0.3409 -0.0971 -0.4351
10487TIP3   OH231401   2.067   4.355   1.758 -0.6714  0.0334  0.1734
10487TIP3    H131402   1.978   4.324   1.775  0.2773 -2.2097  1.5653
10487TIP3    H231403   2.086   4.413   1.831 -0.2675 -1.2863  1.1698
10488TIP3   OH231404   6.585   6.248   2.986 -0.3055 -0.4758  0.0586
10488TIP3    H131405   6.613   6.331   2.947 -0.0929 -1.4861 -2.0639
10488TIP3    H231406   6.513   6.272   3.045  0.0858  1.2556 -0.1058
10489TIP3   OH231407   6.162   7.702   2.409  0.6383 -0.0134 -0.2600
10489TIP3    H131408   6.205   7.785   2.429 -0.3938  0.5737 -0.3596
10489TIP3    H231409   6.108   7.683   2.486 -1.7032  1.1672 -1.4774
10490TIP3   OH231410   2.733   0.833   1.953 -0.2706  0.0466 -0.3660
10490TIP3    H131411   2.721   0.738   1.957 -1.6621  0.2314  0.4667
10490TIP3    H231412   2.821   0.844   1.917  0.3154 -1.5740  0.4562
10491TIP3   OH231413   6.742   2.946   4.896 -0.3886 -0.2699  0.8694
10491TIP3    H131414   6.735   3.034   4.859  0.4387 -0.1410  1.0050
10491TIP3    H231415   6.835   2.923   4.886 -0.6343 -1.2061  0.6443
10492TIP3   OH231416   5.375   7.355   4.837 -0.0111 -0.6179  0.2763
10492TIP3    H131417   5.409   7.402   4.761 -1.1842 -1.3473 -0.7491
10492TIP3    H231418   5.451   7.341   4.894  0.9780 -0.4093 -0.9581
10493TIP3   OH231419   7.684   2.228   4.399  0.4819 -0.4620 -0.5928
10493TIP3    H131420   7.707   2.320   4.411  0.6787 -0.4693 -0.9180
10493TIP3    H231421   7.593   2.222   4.430  0.8007 -0.3708  0.3966
10494TIP3   OH231422   0.514   6.822   4.802  0.5021 -0.0921 -0.9994
10494TIP3    H131423   0.553   6.892   4.854  0.7037  0.1246 -1.4365
10494TIP3    H231424   0.450   6.781   4.860 -0.3432  1.1011 -1.0753
10495TIP3   OH231425   1.973   2.101   4.733  0.1052  0.3080  0.2536
10495TIP3    H131426   2.046   2.101   4.795 -0.5877 -1.0339  1.1160
10495TIP3    H231427   1.906   2.049   4.776 -0.7946  0.2356 -1.1940
10496TIP3   OH231428   1.094   0.628   4.799  0.0886  0.4012 -0.3455
10496TIP3    H131429   1.030   0.669   4.857  0.0922  0.7721 -0.6031
10496TIP3    H231430   1.178   0.663   4.829  0.1737 -0.0705 -0.0188
10497TIP3   OH231431   0.167   7.349   3.674  0.2490 -0.1944  0.4937
10497TIP3    H131432   0.231   7.298   3.623 -0.4316 -0.3765 -0.1915
10497TIP3    H231433   0.092   7.291   3.683 -0.1995  0.3777  0.4629
10498TIP3   OH231434   6.458   4.088   3.170  0.1418 -0.4848  0.5417
10498TIP3    H131435   6.432   4.075   3.079 -3.1487 -0.0969  1.2908
10498TIP3    H231436   6.406   4.024   3.219  1.2242 -0.1292  2.2210
10499TIP3   OH231437   5.108   7.682   6.609  0.1184 -0.3322  0.0404
10499TIP3    H131438   5.032   7.632   6.639 -0.5937  0.1348 -0.9463
10499TIP3    H231439   5.075   7.737   6.539  1.1045  0.8233  0.4393
10500TIP3   OH231440   4.458   1.340   4.711  0.2397  0.7492 -0.2808
10500TIP3    H131441   4.422   1.251   4.704 -1.0776  0.9069  2.7973
10500TIP3    H231442   4.393   1.396   4.670 -0.2585  0.5107  0.1720
10501TIP3   OH231443   1.831   1.928   6.580 -0.0220 -0.1575 -0.0131
10501TIP3    H131444   1.760   1.948   6.641 -0.7266 -1.3219 -0.4263
10501TIP3    H231445   1.849   1.835   6.593  1.7030  0.1784  0.3355
10502TIP3   OH231446   4.291   1.930  -0.033 -0.2730 -0.1334  0.0857
10502TIP3    H131447   4.235   2.005  -0.015 -1.0206 -0.8893  1.0751
10502TIP3    H231448   4.326   1.905   0.053 -1.5995 -2.0758  0.1460
10503TIP3   OH231449   1.196   7.248   0.480 -0.3621  0.5668 -0.3651
10503TIP3    H131450   1.147   7.166   0.483 -2.5184  1.7916 -0.3517
10503TIP3    H231451   1.268   7.230   0.418 -0.1070 -1.6302  0.4756
10504TIP3   OH231452   3.542   1.600   2.383  0.1388 -0.7938 -0.0245
10504TIP3    H131453   3.469   1.617   2.442  0.4855  1.4105 -0.1469
10504TIP3    H231454   3.611   1.566   2.439 -0.1031 -0.3536  0.5408
10505TIP3   OH231455   6.190   7.491   3.574  0.7687 -0.4552  0.3049
10505TIP3    H131456   6.168   7.437   3.650  1.0181  1.2566  1.6542
10505TIP3    H231457   6.110   7.490   3.520 -0.5041  0.6569  2.0643
10506TIP3   OH231458   3.771   4.568   5.251 -0.3265  0.1344  0.2958
10506TIP3    H131459   3.802   4.657   5.234  0.3044 -0.0476  0.4803
10506TIP3    H231460   3.739   4.570   5.341  0.9754 -0.1626  0.7910
10507TIP3   OH231461   1.412   1.559   1.590 -0.3187  0.1848 -0.4392
10507TIP3    H131462   1.491   1.554   1.644 -1.0692  0.7774  0.7499
10507TIP3    H231463   1.429   1.630   1.528 -0.9200  2.2090  1.5809
10508TIP3   OH231464   2.380   3.870   6.591  0.2613 -0.5405  0.0659
10508TIP3    H131465   2.319   3.874   6.518  0.1905  0.7833  0.1715
10508TIP3    H231466   2.456   3.920   6.561 -0.0377  0.6031  1.1188
10509TIP3   OH231467   7.036   7.174   4.287  0.6386 -1.0072  0.3157
10509TIP3    H131468   6.958   7.122   4.306  1.9151 -3.7835 -1.2474
10509TIP3    H231469   7.109   7.118   4.314  2.1271  0.5717 -0.2030
10510TIP3   OH231470   7.208   6.165   5.801 -0.4506  0.0790  0.5269
10510TIP3    H131471   7.185   6.122   5.884  0.8211 -0.0865  0.8175
10510TIP3    H231472   7.242   6.094   5.747 -0.1268  0.3869  0.3211
10511TIP3   OH231473   0.356   1.208   3.009  0.2830 -0.4751 -0.1356
10511TIP3    H131474   0.394   1.133   3.056 -1.2962  0.0444  2.1060
10511TIP3    H231475   0.379   1.192   2.917  2.7329 -2.0231  0.6397
10512TIP3   OH231476   2.347   5.480   3.789 -0.0129 -0.1276  0.7210
10512TIP3    H131477   2.305   5.444   3.867  1.9532 -0.9475  1.4700
10512TIP3    H231478   2.276   5.492   3.726 -1.2556 -2.0278  1.6900
10513TIP3   OH231479   6.040   4.193   6.276 -0.4421 -0.1208  0.0851
10513TIP3    H131480   6.003   4.276   6.246  0.5580  0.3745  0.1694
10513TIP3    H231481   6.131   4.214   6.297  0.3419 -1.6000 -1.5590
10514TIP3   OH231482   7.468   5.804   2.142  0.0326 -0.1514  0.5008
10514TIP3    H131483   7.515   5.721   2.145  1.5809  0.6923  0.4128
10514TIP3    H231484   7.384   5.783   2.100  0.3489 -1.6797  0.5955
10515TIP3   OH231485   7.860   5.200   3.756 -0.2832  0.1006  0.4306
10515TIP3    H131486   7.914   5.257   3.810  1.5951 -0.4658 -0.7833
10515TIP3    H231487   7.823   5.258   3.690  0.7811  0.1046 -0.1719
10516TIP3   OH231488   6.377   3.899   0.059 -0.0179 -0.4377  0.1347
10516TIP3    H131489   6.313   3.837   0.024 -0.4047  0.2457 -0.3942
10516TIP3    H231490   6.456   3.847   0.072 -0.4323 -1.1078 -0.0068
10517TIP3   OH231491   3.323   3.939   4.036  0.4248 -0.3808 -0.0408
10517TIP3    H131492   3.295   3.994   3.963  1.3339 -0.6213 -0.5847
10517TIP3    H231493   3.307   3.850   4.006  1.8354 -0.5325 -0.4186
10518TIP3   OH231494   6.188   3.949   2.802 -0.1198  0.4432  0.0066
10518TIP3    H131495   6.139   3.922   2.880 -0.3019 -0.1049 -0.2945
10518TIP3    H231496   6.144   4.028   2.772 -0.3032  0.4223  0.2202
10519TIP3   OH231497   7.891   2.513   4.170  0.0167 -0.3953  0.4172
10519TIP3    H131498   7.805   2.550   4.190  0.7193  1.5238  0.0698
10519TIP3    H231499   7.878   2.418   4.175 -2.1208 -0.1510  0.3007
10520TIP3   OH231500   0.745   3.088   4.366  0.2425 -0.5876 -0.0148
10520TIP3    H131501   0.735   3.085   4.271  1.9464  0.5611 -0.2625
10520TIP3    H231502   0.677   3.149   4.395  0.9904  0.6332 -0.7402
10521TIP3   OH231503   4.323   3.124   4.434  0.4374  0.2272 -0.1724
10521TIP3    H131504   4.282   3.094   4.515  1.5407 -0.0913  0.2970
10521TIP3    H231505   4.377   3.050   4.406  2.3775  1.3328  0.4213
10522TIP3   OH231506   8.123   6.917   6.774  0.2705  0.7941 -0.3870
10522TIP3    H131507   8.086   6.944   6.858  0.2908  3.5487 -1.1818
10522TIP3    H231508   8.097   6.825   6.766 -1.4462  0.9974  1.7103
10523TIP3   OH231509   3.281   6.423   6.060 -0.5740  0.2834 -0.0371
10523TIP3    H131510   3.234   6.427   5.977 -0.3999 -1.8978 -0.2992
10523TIP3    H231511   3.302   6.330   6.072 -0.6081  0.5173  2.4626
10524TIP3   OH231512   4.317   0.983   5.602 -0.5109  0.0309 -0.4555
10524TIP3    H131513   4.402   1.026   5.605 -0.9359  0.9548 -1.1229
10524TIP3    H231514   4.271   1.026   5.530 -1.4455 -0.6356 -0.2745
10525TIP3   OH231515   7.910   2.737   4.542  0.0785 -0.9949  0.4220
10525TIP3    H131516   7.953   2.822   4.534 -2.9515  0.4879 -1.8829
10525TIP3    H231517   7.981   2.677   4.566  2.5461  1.9205  1.0655
10526TIP3   OH231518   5.386   0.599   4.004  0.1453  0.1867 -0.0639
10526TIP3    H131519   5.368   0.558   4.088 -0.1728  1.3431  0.4461
10526TIP3    H231520   5.361   0.691   4.015  1.1217  0.6092 -1.0741
10527TIP3   OH231521   2.010   3.515   6.212 -0.1279  0.4957  0.7133
10527TIP3    H131522   1.981   3.519   6.121  1.1733 -0.3656  0.2273
10527TIP3    H231523   2.007   3.606   6.242 -2.0460  0.6075  0.3266
10528TIP3   OH231524   1.728   4.091   4.328 -0.2133 -0.2104  0.0299
10528TIP3    H131525   1.797   4.071   4.265  0.5855 -0.1102  0.8463
10528TIP3    H231526   1.673   4.013   4.330  0.7551 -0.9082  0.4692
10529TIP3   OH231527   3.565   5.854   4.188  0.1233 -0.0411 -0.0676
10529TIP3    H131528   3.594   5.935   4.230  0.0326  0.0693 -0.2178
10529TIP3    H231529   3.499   5.881   4.125 -0.1213 -0.2628  0.0867
10530TIP3   OH231530   8.313   3.323   1.958  0.5439 -0.0123  0.2202
10530TIP3    H131531   8.313   3.228   1.957 -0.6214 -0.0338  0.5501
10530TIP3    H231532   8.297   3.346   2.049  3.2521  0.5519  0.6168
10531TIP3   OH231533   6.279   3.892   1.412  0.2824 -0.5547  0.3700
10531TIP3    H131534   6.248   3.835   1.342  0.3935  0.6908 -0.7268
10531TIP3    H231535   6.363   3.925   1.382 -1.0479  2.4922 -0.4881
10532TIP3   OH231536   4.642   7.856   5.285 -0.0554  0.1124  0.2102
10532TIP3    H131537   4.554   7.893   5.289 -0.3690 -0.7080  1.6212
10532TIP3    H231538   4.700   7.930   5.303 -0.5599  0.3544  0.9158
10533TIP3   OH231539   4.403   1.124   5.076  0.5032  0.0388 -0.0992
10533TIP3    H131540   4.322   1.094   5.035 -0.5894  3.3520 -0.6625
10533TIP3    H231541   4.438   1.189   5.014  0.2752  3.1929  2.8130
10534TIP3   OH231542   1.817   4.237   4.788 -0.1354 -0.2757 -0.0109
10534TIP3    H131543   1.761   4.167   4.821 -0.1646  0.0975  0.7479
10534TIP3    H231544   1.785   4.253   4.699  0.1778 -1.5431 -0.3711
10535TIP3   OH231545   6.988   4.306   2.805  1.0135  0.1492  0.5356
10535TIP3    H131546   7.027   4.373   2.750  1.4569 -0.0990  0.5417
10535TIP3    H231547   7.047   4.298   2.879  0.3272  0.6102  1.1505
10536TIP3   OH231548   2.229   7.265   2.563  0.2291  0.2573  0.3167
10536TIP3    H131549   2.320   7.234   2.567  0.2592  0.4770  2.9140
10536TIP3    H231550   2.177   7.184   2.562  0.4241  0.1343 -0.5156
10537TIP3   OH231551   3.621   0.348   6.183  0.6743  0.2345 -0.2554
10537TIP3    H131552   3.546   0.309   6.138  1.3665 -3.0810  1.1468
10537TIP3    H231553   3.594   0.355   6.274  1.9359 -0.8603  0.2471
10538TIP3   OH231554   5.975   0.790   3.060  0.0328 -0.0037 -0.0178
10538TIP3    H131555   6.069   0.786   3.041 -0.2259  1.1521 -1.7616
10538TIP3    H231556   5.956   0.707   3.104  1.7266 -0.5836 -0.3053
10539TIP3   OH231557   6.065   2.140   5.197  0.5543  0.3434  0.3004
10539TIP3    H131558   6.083   2.234   5.205 -1.6868  0.7506  1.4999
10539TIP3    H231559   5.990   2.125   5.255 -1.0134 -1.6397 -2.0428
10540TIP3   OH231560   2.904   3.796   4.715  0.8683 -0.0896  0.0145
10540TIP3    H131561   2.864   3.719   4.674  1.6662  0.9403 -2.9404
10540TIP3    H231562   2.854   3.808   4.796 -0.9227 -2.2349 -0.6600
10541TIP3   OH231563   1.674   3.079   4.407 -1.0904  0.2718 -0.1274
10541TIP3    H131564   1.664   3.174   4.400  0.6422  0.6838  2.0198
10541TIP3    H231565   1.657   3.047   4.318  0.7662  2.8415 -1.5397
10542TIP3   OH231566   5.550   1.547   5.640 -0.1355 -0.4940 -0.1746
10542TIP3    H131567   5.471   1.542   5.587 -0.6754 -0.7005  0.6180
10542TIP3    H231568   5.583   1.636   5.626 -1.8892  0.4752  1.3536
10543TIP3   OH231569   1.348   6.315   5.263 -0.0733  0.0710  0.8436
10543TIP3    H131570   1.341   6.226   5.227  0.0316  0.6778 -0.7528
10543TIP3    H231571   1.394   6.364   5.195 -0.0735  1.3431  1.7400
10544TIP3   OH231572   0.274   1.163   4.266 -0.3351 -0.0246  0.1591
10544TIP3    H131573   0.315   1.161   4.179  1.1716 -0.3021  0.8405
10544TIP3    H231574   0.343   1.134   4.325 -1.5272 -0.4370  1.3912
10545TIP3   OH231575   3.297   6.983   3.914  0.6142 -0.2660 -0.0382
10545TIP3    H131576   3.374   6.973   3.859  2.1279  1.8016  1.5284
10545TIP3    H231577   3.237   7.037   3.862 -0.2591 -2.5831 -1.6040
10546TIP3   OH231578   7.799   5.033   5.367 -0.0156  0.1888  0.3566
10546TIP3    H131579   7.883   5.076   5.384  0.5102 -0.4507 -0.4982
10546TIP3    H231580   7.736   5.104   5.363  0.6191  0.7560  0.2638
10547TIP3   OH231581   5.210   5.773   5.138  0.3713 -0.2248 -0.1762
10547TIP3    H131582   5.296   5.762   5.098  0.1419 -1.2980 -0.3962
10547TIP3    H231583   5.154   5.710   5.092 -0.4216  0.1325  0.2846
10548TIP3   OH231584   4.312   0.882   3.487 -0.5398 -0.2843  0.2813
10548TIP3    H131585   4.394   0.860   3.441  0.3510 -0.8282  2.0497
10548TIP3    H231586   4.303   0.977   3.476 -0.0640 -0.3255 -0.5449
10549TIP3   OH231587   6.237   4.001   0.278  0.4505  0.5399  0.6196
10549TIP3    H131588   6.290   4.002   0.358  3.3535  0.3263 -1.1508
10549TIP3    H231589   6.299   3.980   0.208 -2.0342  0.2582 -1.6719
10550TIP3   OH231590   6.255   0.372   6.298 -0.1089  0.2175 -0.0332
10550TIP3    H131591   6.289   0.285   6.275  0.1459 -0.3769  2.2967
10550TIP3    H231592   6.162   0.357   6.316  0.2711  0.0187  2.0001
10551TIP3   OH231593   4.612   0.960   0.355 -0.4277 -0.6867  0.3532
10551TIP3    H131594   4.641   1.039   0.401  1.8255 -0.2581 -1.6055
10551TIP3    H231595   4.558   0.992   0.283  1.0525 -0.8156 -0.8556
10552TIP3   OH231596   2.576   5.437   1.984 -0.1234 -0.5442 -0.2221
10552TIP3    H131597   2.670   5.447   1.973 -0.0668 -1.8376 -1.1855
10552TIP3    H231598   2.538   5.501   1.924  0.1624 -0.8831 -0.7735
10553TIP3   OH231599   6.525   5.364   4.227  0.0036 -0.3936 -0.0473
10553TIP3    H131600   6.610   5.380   4.268 -0.8851 -0.1331  1.7611
10553TIP3    H231601   6.523   5.425   4.153  0.6260  0.9564  1.0129
10554TIP3   OH231602   4.287   2.880   5.986  0.0757  0.0770  0.0733
10554TIP3    H131603   4.369   2.927   6.002 -0.5803  2.0073 -1.7424
10554TIP3    H231604   4.224   2.920   6.046  0.2613 -0.8308  0.8832
10555TIP3   OH231605   5.493   7.723   5.360  0.5481 -0.3608  0.0917
10555TIP3    H131606   5.454   7.796   5.312 -1.2160 -1.5746 -0.4468
10555TIP3    H231607   5.524   7.761   5.442 -0.8724  0.8962  0.0828
10556TIP3   OH231608   2.362   2.638   0.604  0.0624 -0.1658  0.6742
10556TIP3    H131609   2.369   2.733   0.614 -1.9512  0.0048  0.9319
10556TIP3    H231610   2.333   2.608   0.690  1.5689 -1.1625  0.8716
10557TIP3   OH231611   2.482   1.567   0.180 -0.1230 -0.3150 -0.4565
10557TIP3    H131612   2.435   1.613   0.110 -0.2092  3.2742  1.6744
10557TIP3    H231613   2.572   1.600   0.175 -0.2521  0.4379  1.3577
10558TIP3   OH231614   8.309   6.302   5.939  0.2279 -0.2129 -0.3340
10558TIP3    H131615   8.277   6.387   5.907  1.3276  0.5082  0.4162
10558TIP3    H231616   8.367   6.272   5.869  1.3801  0.6134  0.2229
10559TIP3   OH231617   1.021   5.163   0.231 -0.3250 -0.5759  0.4468
10559TIP3    H131618   0.962   5.233   0.203  0.3554 -0.4521 -0.7411
10559TIP3    H231619   1.088   5.209   0.282 -1.5083 -0.7873  2.2625
10560TIP3   OH231620   4.326   4.725   6.742  0.3466 -0.1816 -0.3589
10560TIP3    H131621   4.344   4.725   6.836 -1.3057 -1.2904  0.0026
10560TIP3    H231622   4.408   4.696   6.702  0.7013 -0.9134  0.8362
10561TIP3   OH231623   1.975   7.085   5.252 -0.0152 -0.2344 -0.1018
10561TIP3    H131624   2.048   7.043   5.298  0.5508  1.4310  0.5912
10561TIP3    H231625   1.909   7.016   5.244  0.4903 -0.9995  1.8158
10562TIP3   OH231626   6.632   2.096   1.566 -0.0832  0.1426  0.6049
10562TIP3    H131627   6.720   2.132   1.575 -0.5623  1.8572 -0.9831
10562TIP3    H231628   6.611   2.063   1.653  2.1972 -0.5137  0.9587
10563TIP3   OH231629   0.222   5.125   1.171 -0.4921  0.2944  0.2177
10563TIP3    H131630   0.183   5.169   1.095  1.7744  0.7951 -0.7480
10563TIP3    H231631   0.263   5.196   1.221  0.1799 -0.3044  0.5389
10564TIP3   OH231632   6.530   4.803   4.879  0.4900 -0.2551  0.3773
10564TIP3    H131633   6.484   4.886   4.862  0.6572  0.1313  1.7144
10564TIP3    H231634   6.464   4.746   4.917  0.4545 -0.6468 -0.2542
10565TIP3   OH231635   4.464   1.692   4.669 -0.3283 -0.0177 -0.5973
10565TIP3    H131636   4.413   1.614   4.651  1.7501 -1.0428 -2.4823
10565TIP3    H231637   4.416   1.763   4.626 -1.7645 -0.3421  0.3920
10566TIP3   OH231638   4.419   5.893   6.745 -0.2694  0.4552 -0.7865
10566TIP3    H131639   4.457   5.967   6.794 -0.3308  1.1630 -1.7861
10566TIP3    H231640   4.388   5.833   6.814 -0.6814  1.5933  0.0676
10567TIP3   OH231641   6.541   4.777   0.866  0.0772  0.1370  0.3790
10567TIP3    H131642   6.481   4.768   0.940  0.5085  0.2532  0.7497
10567TIP3    H231643   6.491   4.823   0.799 -1.4050 -2.7109 -0.6319
10568TIP3   OH231644   5.270   3.608   2.352 -0.4851  0.2086 -0.1773
10568TIP3    H131645   5.225   3.567   2.426  2.3677 -1.2611  0.9286
10568TIP3    H231646   5.351   3.642   2.389  1.6206 -1.6051 -2.7263
10569TIP3   OH231647   4.117   5.758   1.392 -0.1771  0.4476 -0.0899
10569TIP3    H131648   4.122   5.847   1.358  0.5165  0.3794 -0.1853
10569TIP3    H231649   4.185   5.754   1.459  0.1454 -0.1584 -0.4425
10570TIP3   OH231650   6.167   2.395   5.245 -0.1554  0.1859  0.0249
10570TIP3    H131651   6.256   2.392   5.210  0.9904  1.3427  2.6196
10570TIP3    H231652   6.176   2.437   5.331 -3.1749  0.0782  0.4929
10571TIP3   OH231653   4.447   4.450   3.858  0.3215  0.4278  0.2557
10571TIP3    H131654   4.483   4.477   3.773  0.6264  0.2053  0.3129
10571TIP3    H231655   4.501   4.375   3.884  0.2187  0.4848  0.6390
10572TIP3   OH231656   4.165   7.532   0.447 -0.6448 -0.1415  0.0044
10572TIP3    H131657   4.242   7.587   0.433 -0.5360 -0.7391 -2.0396
10572TIP3    H231658   4.194   7.444   0.422 -1.6204 -0.6109  0.4717
10573TIP3   OH231659   3.494   4.517   1.679 -0.4093  0.2411 -0.1345
10573TIP3    H131660   3.464   4.603   1.709  0.4077 -0.5151  3.2443
10573TIP3    H231661   3.588   4.527   1.667 -0.6728  0.4845 -2.7419
10574TIP3   OH231662   0.475   0.125   3.475  0.2296  0.1855 -0.0600
10574TIP3    H131663   0.545   0.101   3.536  1.1157  1.4415 -0.5566
10574TIP3    H231664   0.424   0.191   3.522 -0.4695 -0.5198  0.1905
10575TIP3   OH231665   5.345   4.952   3.700 -0.3876 -0.0105 -0.4790
10575TIP3    H131666   5.432   4.945   3.740 -0.3556  0.1889 -0.5128
10575TIP3    H231667   5.305   4.866   3.715 -0.0654 -0.2078 -0.7469
10576TIP3   OH231668   0.214   4.211   1.451 -0.7274  0.5342  0.4847
10576TIP3    H131669   0.278   4.160   1.400 -1.8888  0.6114 -1.1193
10576TIP3    H231670   0.233   4.302   1.428 -0.6758  0.6340  0.9144
10577TIP3   OH231671   0.066   2.456   3.481 -0.5014  0.0786 -0.3043
10577TIP3    H131672   0.119   2.384   3.445  0.7175 -0.4826  2.3254
10577TIP3    H231673  -0.001   2.412   3.533  0.1541  0.7695  1.1999
10578TIP3   OH231674   5.714   6.336   5.984  0.4564  0.1677  0.1316
10578TIP3    H131675   5.694   6.428   5.995  1.6537  0.4634 -0.0120
10578TIP3    H231676   5.793   6.322   6.036 -0.1855 -0.9814  0.8427
10579TIP3   OH231677   1.322   7.717   0.625 -0.7731 -0.1514 -0.3798
10579TIP3    H131678   1.265   7.790   0.600  0.4166  0.3818 -1.7210
10579TIP3    H231679   1.344   7.734   0.716 -0.6991  1.0741 -0.6041
10580TIP3   OH231680   0.577   3.574   3.523  0.1383 -0.7605  0.1199
10580TIP3    H131681   0.629   3.651   3.546  0.0080  0.0110 -1.9240
10580TIP3    H231682   0.487   3.600   3.541  0.1952 -0.9063  0.6215
10581TIP3   OH231683   7.574   6.999   1.070  0.7480  0.2212 -0.1228
10581TIP3    H131684   7.606   6.916   1.104  0.1348  0.6167  1.5335
10581TIP3    H231685   7.498   7.019   1.125 -1.6120 -0.0571 -3.0182
10582TIP3   OH231686   1.978   4.916   3.591  0.1008 -0.2923 -0.3558
10582TIP3    H131687   2.028   4.971   3.651 -0.7030 -1.4106  1.4262
10582TIP3    H231688   2.039   4.847   3.565  0.0075 -0.6990  0.4713
10583TIP3   OH231689   3.037   5.361   1.217 -0.3732  0.4198 -0.7839
10583TIP3    H131690   3.019   5.294   1.284 -0.1349  0.6118 -0.5256
10583TIP3    H231691   2.951   5.386   1.184 -0.4683  0.0259 -0.8426
10584TIP3   OH231692   5.179   6.813   0.275  0.4465  0.5633  0.0030
10584TIP3    H131693   5.186   6.907   0.294 -0.9217  0.3338  1.9213
10584TIP3    H231694   5.085   6.795   0.277  0.6897 -0.8597 -0.4139
10585TIP3   OH231695   6.652   3.737   1.141 -0.4793 -0.1617 -0.3762
10585TIP3    H131696   6.658   3.764   1.049 -0.0507  2.0495  0.2544
10585TIP3    H231697   6.732   3.771   1.181 -1.3041  0.0971  1.1062
10586TIP3   OH231698   2.901   4.330   0.749  0.1858 -0.3406 -0.3776
10586TIP3    H131699   2.832   4.266   0.730 -0.9706  0.2454  1.5688
10586TIP3    H231700   2.874   4.410   0.703 -1.0281  0.1951  1.2040
10587TIP3   OH231701   1.239   3.509   3.251  0.2942 -0.4909  0.2443
10587TIP3    H131702   1.225   3.530   3.159  1.5540 -2.9872 -0.6262
10587TIP3    H231703   1.332   3.528   3.266 -0.4248  2.2585  1.7843
10588TIP3   OH231704   0.277   4.616   0.304  0.1256  0.5605 -0.7315
10588TIP3    H131705   0.230   4.560   0.242  0.3158 -2.5907  1.6776
10588TIP3    H231706   0.222   4.616   0.383  2.5266 -0.6697  1.1066
10589TIP3   OH231707   6.795   5.999   3.019  0.4077 -0.2513 -0.0802
10589TIP3    H131708   6.847   6.018   3.097  0.0844  1.4186 -0.2496
10589TIP3    H231709   6.726   6.065   3.019 -0.2470 -0.9070 -1.2077
10590TIP3   OH231710   1.307   4.177   3.253 -0.2961 -0.1138 -0.3564
10590TIP3    H131711   1.268   4.250   3.205  0.4882  0.0106 -0.8055
10590TIP3    H231712   1.273   4.186   3.342 -0.2008  0.7911 -0.4095
10591TIP3   OH231713   7.616   0.646   3.602  0.0641  0.5365  0.5864
10591TIP3    H131714   7.680   0.717   3.606  0.5531  0.2893 -1.4814
10591TIP3    H231715   7.653   0.577   3.656  2.2139 -0.0438 -1.4558
10592TIP3   OH231716   5.554   1.234   4.435  0.0359 -0.4738 -0.2474
10592TIP3    H131717   5.464   1.206   4.418 -0.1213  0.2131 -0.5992
10592TIP3    H231718   5.545   1.318   4.480  0.4949 -0.8087  0.4896
10593TIP3   OH231719   7.790   6.090   1.560 -0.0503 -0.0885 -1.2547
10593TIP3    H131720   7.873   6.042   1.560 -0.1189 -0.2545  0.3061
10593TIP3    H231721   7.777   6.116   1.651 -0.9307  1.3244 -1.7491
10594TIP3   OH231722   6.105   7.822   3.975  0.2978  0.2588 -0.0448
10594TIP3    H131723   6.158   7.746   3.950 -0.2228 -0.2859  0.4883
10594TIP3    H231724   6.032   7.786   4.024 -0.2339  1.0675 -0.2215
10595TIP3   OH231725   8.265   6.352   3.078 -0.4107 -0.9769 -0.5126
10595TIP3    H131726   8.289   6.438   3.044 -0.8872 -0.4474  0.4325
10595TIP3    H231727   8.349   6.307   3.090  0.0344  0.1564  0.9705
10596TIP3   OH231728   4.635   7.848   0.306  0.2149  0.1723 -0.4692
10596TIP3    H131729   4.717   7.815   0.270  0.0288  0.8331 -1.5522
10596TIP3    H231730   4.646   7.842   0.401  1.5023  0.2096 -0.6021
10597TIP3   OH231731   0.113   0.852   6.495 -0.0488 -0.9717  0.8175
10597TIP3    H131732   0.123   0.942   6.466 -0.9904 -0.4247  2.0828
10597TIP3    H231733   0.018   0.837   6.492  0.1104 -1.9789  0.4775
10598TIP3   OH231734   2.718   7.371   5.065 -0.5238  0.2144  0.6616
10598TIP3    H131735   2.628   7.338   5.059 -0.6174  0.7356 -1.5111
10598TIP3    H231736   2.708   7.461   5.097 -0.7022  0.0022  1.2151
10599TIP3   OH231737   7.040   4.977   5.671  0.6495  0.1054  0.1385
10599TIP3    H131738   7.116   5.004   5.722  0.4851 -0.3693  0.6570
10599TIP3    H231739   7.070   4.975   5.580 -0.1792  5.2615 -0.5162
10600TIP3   OH231740   8.266   4.908   4.388 -0.4116  0.1266 -0.1271
10600TIP3    H131741   8.231   4.934   4.303  1.9016 -1.9287 -1.8320
10600TIP3    H231742   8.334   4.972   4.407  0.8556 -0.8736 -1.1576
10601TIP3   OH231743   2.098   3.220   0.270  0.0141  0.4477 -0.1127
10601TIP3    H131744   2.076   3.214   0.363 -1.4766 -1.9326 -0.5319
10601TIP3    H231745   2.014   3.214   0.225  0.8647 -0.5411 -1.6486
10602TIP3   OH231746   2.947   1.953   2.822 -0.5998 -0.4485 -0.0463
10602TIP3    H131747   2.930   2.043   2.849 -0.4872 -0.3904 -0.1682
10602TIP3    H231748   2.913   1.899   2.894  0.7692 -0.2656  0.7631
10603TIP3   OH231749   1.866   6.444   6.507 -0.5656  0.4460  0.1455
10603TIP3    H131750   1.885   6.461   6.599  0.0857 -1.6933  0.4522
10603TIP3    H231751   1.872   6.530   6.465  0.3717  1.2678  1.8778
10604TIP3   OH231752   2.268   7.749   1.285  0.2542  0.3198 -0.2511
10604TIP3    H131753   2.201   7.748   1.353  1.5097  1.4735  1.0492
10604TIP3    H231754   2.343   7.704   1.324  1.4132  2.0620 -0.3587
10605TIP3   OH231755   0.293   1.331   2.413  0.1815  0.0419  0.0383
10605TIP3    H131756   0.258   1.322   2.501  0.4945 -1.0276  0.0684
10605TIP3    H231757   0.270   1.421   2.387 -1.0196 -0.0484  0.7147
10606TIP3   OH231758   5.164   7.850   3.670  0.1055 -0.0135 -0.0948
10606TIP3    H131759   5.136   7.834   3.580  0.9969  1.9494 -0.7752
10606TIP3    H231760   5.158   7.945   3.681  1.4326 -0.0628  1.4367
10607TIP3   OH231761   1.471   3.324   5.429 -0.1572  0.0889  0.6459
10607TIP3    H131762   1.557   3.339   5.470  0.1089  1.8103 -0.4247
10607TIP3    H231763   1.476   3.235   5.394  1.2770  0.2212  0.4528
10608TIP3   OH231764   1.909   7.647   3.908  0.3348  0.5050  0.4423
10608TIP3    H131765   1.979   7.637   3.843  1.2032  0.5459  1.3414
10608TIP3    H231766   1.951   7.693   3.981 -0.5832  0.3595  1.0758
10609TIP3   OH231767   7.340   0.864   4.047 -0.1148 -0.1936 -1.0497
10609TIP3    H131768   7.251   0.898   4.041 -0.2002 -0.2824 -0.3951
10609TIP3    H231769   7.354   0.816   3.966 -1.2431 -1.5581 -0.4649
10610TIP3   OH231770   2.614   6.122   6.575  0.0254 -0.2101 -0.3081
10610TIP3    H131771   2.629   6.175   6.654  0.1188 -1.4863  0.5713
10610TIP3    H231772   2.549   6.058   6.603  0.2659 -0.8472 -1.2042
10611TIP3   OH231773   7.332   4.458   1.462  0.2571  0.5896  0.1681
10611TIP3    H131774   7.353   4.551   1.454  1.4052  0.3685  0.4282
10611TIP3    H231775   7.288   4.450   1.547  1.6092  0.6608  0.8881
10612TIP3   OH231776   1.065   6.661   1.873 -0.0983 -0.3983 -0.0490
10612TIP3    H131777   1.017   6.641   1.794  1.1897  0.6581 -1.1606
10612TIP3    H231778   1.138   6.599   1.874  0.5943  0.3852 -0.3901
10613TIP3   OH231779   5.114   4.283   3.254  0.2135 -0.2565  0.0560
10613TIP3    H131780   5.050   4.343   3.293 -1.8746 -0.8465 -2.2441
10613TIP3    H231781   5.178   4.341   3.211  0.2407  0.3156  0.8353
10614TIP3   OH231782   6.674   4.002   6.009 -0.6061  0.5419 -0.0340
10614TIP3    H131783   6.675   4.045   5.924  1.5540 -0.3235 -0.5215
10614TIP3    H231784   6.673   3.908   5.990  1.0831  0.3097  0.8131
10615TIP3   OH231785   6.632   5.683   2.599  0.4487 -0.5240  0.2027
10615TIP3    H131786   6.647   5.744   2.672 -2.5426 -1.4707  1.7613
10615TIP3    H231787   6.701   5.617   2.609  1.5017  0.6174  0.7204
10616TIP3   OH231788   4.684   7.676   2.724 -0.3620  0.2985  0.1748
10616TIP3    H131789   4.767   7.641   2.755 -0.9771  1.2010  3.2015
10616TIP3    H231790   4.669   7.633   2.640  1.2958 -2.8270  1.3292
10617TIP3   OH231791   2.876   3.261   2.229 -0.2859 -0.3964 -0.5729
10617TIP3    H131792   2.799   3.267   2.172 -0.6486  1.4222  0.0640
10617TIP3    H231793   2.907   3.171   2.216 -2.3337 -1.1074 -1.0731
10618TIP3   OH231794   6.245   4.339   3.658  0.6126  0.0773  0.2139
10618TIP3    H131795   6.179   4.308   3.721  1.0997 -0.4491  0.4716
10618TIP3    H231796   6.223   4.431   3.644  0.7056  0.2971  1.4085
10619TIP3   OH231797   5.195   2.558   1.978 -0.6599 -0.5134  0.1822
10619TIP3    H131798   5.134   2.585   2.046  0.0562  2.2799 -0.1723
10619TIP3    H231799   5.145   2.563   1.897 -0.6295 -0.6843  0.1521
10620TIP3   OH231800   5.727   4.790   4.426 -0.0178  0.0232 -0.0536
10620TIP3    H131801   5.759   4.704   4.451 -1.2528 -1.4721 -3.1242
10620TIP3    H231802   5.631   4.783   4.432 -0.1755  0.8370 -1.2449
10621TIP3   OH231803   3.332   4.947   6.335 -0.0441  0.3979  0.5921
10621TIP3    H131804   3.319   4.855   6.356 -0.8639  0.4797  0.4754
10621TIP3    H231805   3.414   4.949   6.285  0.8514 -0.0422  1.9890
10622TIP3   OH231806   5.163   0.754   2.776  0.0737 -0.1162  0.1714
10622TIP3    H131807   5.194   0.743   2.866  0.9932 -0.6363 -0.2084
10622TIP3    H231808   5.235   0.798   2.730  0.1447 -1.0522 -0.6383
10623TIP3   OH231809   1.218   4.421   4.706 -0.4607 -0.1151 -0.0361
10623TIP3    H131810   1.179   4.356   4.764 -1.1558  0.9291  0.7042
10623TIP3    H231811   1.208   4.504   4.753 -0.7114  0.7077 -1.4793
10624TIP3   OH231812   7.474   5.649   3.828  0.6357 -0.4884  0.1229
10624TIP3    H131813   7.557   5.603   3.842  1.7052  1.5303  0.8417
10624TIP3    H231814   7.477   5.723   3.889 -2.1516 -0.8826  0.8657
10625TIP3   OH231815   6.260   5.324   1.499  0.2299  0.2650 -0.0965
10625TIP3    H131816   6.198   5.389   1.467 -0.4312 -0.2117  0.2029
10625TIP3    H231817   6.339   5.340   1.448  0.4410  1.9737  0.6792
10626TIP3   OH231818   4.784   7.127   4.820 -0.1437 -0.1158  0.0769
10626TIP3    H131819   4.846   7.105   4.890  0.2105 -1.3103 -0.5898
10626TIP3    H231820   4.705   7.156   4.867 -0.1978 -1.6551  0.9943
10627TIP3   OH231821   7.664   7.905   4.531  0.0091 -0.2565  0.0997
10627TIP3    H131822   7.668   7.810   4.544  0.1589 -0.1050  1.2752
10627TIP3    H231823   7.622   7.916   4.446  0.7774 -1.3944 -0.4466
10628TIP3   OH231824   6.864   5.800   6.587  0.3551 -0.1303 -0.6858
10628TIP3    H131825   6.942   5.831   6.541 -0.4549 -1.2460 -2.9381
10628TIP3    H231826   6.851   5.711   6.555 -1.4473 -0.2367  0.2051
10629TIP3   OH231827   7.753   1.364   0.841  0.0204 -0.3484 -0.0308
10629TIP3    H131828   7.820   1.425   0.809 -0.8052  1.0915  0.9147
10629TIP3    H231829   7.773   1.282   0.796  0.5773  0.8458 -2.0884
10630TIP3   OH231830   2.602   7.167   3.324  0.0156 -0.0481 -0.2942
10630TIP3    H131831   2.684   7.204   3.358  0.3274  0.1109 -1.1773
10630TIP3    H231832   2.627   7.081   3.290 -0.4708 -0.5863  0.6868
10631TIP3   OH231833   1.542   5.034   5.020  0.2825 -0.0929  0.3184
10631TIP3    H131834   1.460   5.076   5.045 -0.2993 -1.3928  0.6194
10631TIP3    H231835   1.538   5.029   4.924 -0.8944 -1.9222  0.4350
10632TIP3   OH231836   7.646   6.464   5.836  0.2232 -0.4305 -0.0664
10632TIP3    H131837   7.569   6.426   5.794  0.9107  0.4818 -2.3158
10632TIP3    H231838   7.714   6.461   5.769  1.3630  1.2289  0.9295
10633TIP3   OH231839   4.591   1.125   2.688  0.0755  1.0103 -0.0579
10633TIP3    H131840   4.602   1.208   2.641 -0.0392  1.4917  0.7417
10633TIP3    H231841   4.548   1.150   2.770 -0.9712  0.0121 -0.2843
10634TIP3   OH231842   2.441   5.147   4.773  0.1528  0.0886  0.6595
10634TIP3    H131843   2.496   5.140   4.851  0.4184 -0.2360  0.4440
10634TIP3    H231844   2.355   5.117   4.802  0.3189 -0.2953  0.7582
10635TIP3   OH231845   3.193   6.872   1.424  0.2440  0.6107  0.6472
10635TIP3    H131846   3.191   6.868   1.519  1.2101  1.3301  0.7206
10635TIP3    H231847   3.228   6.959   1.405  4.5029 -1.0567 -0.2636
10636TIP3   OH231848   2.549   5.503   3.998  0.2697  0.1579 -0.2144
10636TIP3    H131849   2.493   5.515   3.922 -1.5128 -0.4303  0.9384
10636TIP3    H231850   2.524   5.574   4.058  0.3212 -0.4530  0.5558
10637TIP3   OH231851   3.564   4.386   0.848 -0.1339 -0.8851 -0.5777
10637TIP3    H131852   3.491   4.443   0.870  1.0598  1.9617 -3.2541
10637TIP3    H231853   3.536   4.341   0.768  0.2951 -1.2714 -0.5159
10638TIP3   OH231854   3.687   2.074   2.947  0.1148  0.8788 -0.1662
10638TIP3    H131855   3.639   2.031   3.018  1.4855  1.7927  1.3903
10638TIP3    H231856   3.622   2.089   2.879 -0.9524 -1.2685  0.3035
10639TIP3   OH231857   7.526   3.276   2.733 -0.0111  0.3052  0.1390
10639TIP3    H131858   7.551   3.266   2.641  0.4628  0.4546  0.2489
10639TIP3    H231859   7.432   3.295   2.731  0.0751  0.6860 -0.3317
10640TIP3   OH231860   0.345   5.142   5.267  0.6314  0.0312  0.5068
10640TIP3    H131861   0.352   5.236   5.250  0.8028 -0.0144  0.3195
10640TIP3    H231862   0.418   5.103   5.218  0.4841 -0.2128  0.4807
10641TIP3   OH231863   1.051   4.417   0.723  0.4118  0.8030 -0.2590
10641TIP3    H131864   1.137   4.404   0.683  0.5556  0.4007  0.1728
10641TIP3    H231865   0.992   4.429   0.649  0.3183 -1.9681 -0.7495
10642TIP3   OH231866   6.920   0.998   0.711  0.1220  0.3247 -0.3964
10642TIP3    H131867   6.972   0.929   0.670 -1.4737 -0.7959 -0.6183
10642TIP3    H231868   6.982   1.043   0.768  0.8126 -2.6394  1.4319
10643TIP3   OH231869   8.363   1.467   4.109  0.0919 -0.1281 -0.8861
10643TIP3    H131870   8.359   1.543   4.051  0.0632 -0.6443 -1.5833
10643TIP3    H231871   8.457   1.452   4.123  0.2223 -1.1993 -2.4757
10644TIP3   OH231872   3.535   2.351   3.337  0.6656 -0.0960  0.1893
10644TIP3    H131873   3.464   2.291   3.316  0.7506 -0.5671  1.1864
10644TIP3    H231874   3.513   2.432   3.291  0.2012 -0.6782 -0.6243
10645TIP3   OH231875   2.842   5.687   1.692  0.9157  0.2528 -0.5915
10645TIP3    H131876   2.755   5.663   1.660  1.1196 -1.2720 -0.0934
10645TIP3    H231877   2.838   5.782   1.706 -0.8068  0.1314 -0.1084
10646TIP3   OH231878   6.125   1.309   2.903 -0.7957  0.2590  0.4339
10646TIP3    H131879   6.195   1.368   2.933 -0.5322 -0.4389  1.2351
10646TIP3    H231880   6.057   1.317   2.969 -1.1775  0.3974  0.0279
10647TIP3   OH231881   7.568   1.780   3.311  0.1529  0.0842  0.1166
10647TIP3    H131882   7.522   1.863   3.325 -1.3402 -0.6709 -0.1274
10647TIP3    H231883   7.564   1.736   3.396  0.4533  0.0202  0.0995
10648TIP3   OH231884   2.907   0.163   1.641 -0.1714  0.0638  0.0257
10648TIP3    H131885   2.840   0.230   1.653  0.5903  1.3611 -2.1599
10648TIP3    H231886   2.965   0.200   1.574  1.0222 -2.2685 -0.3362
10649TIP3   OH231887   1.213   2.307   2.822  0.5070  0.1793  0.3161
10649TIP3    H131888   1.298   2.292   2.863  1.4897  0.4970 -1.5252
10649TIP3    H231889   1.225   2.386   2.769 -1.3489  1.0423  1.0942
10650TIP3   OH231890   0.110   3.608   5.068 -0.5543  0.0662 -0.2501
10650TIP3    H131891   0.142   3.698   5.080  2.8757 -1.0693  0.2747
10650TIP3    H231892   0.161   3.575   4.993  1.0631 -2.5162  1.8255
10651TIP3   OH231893   0.168   7.540   2.188  0.2605  0.5588 -0.5103
10651TIP3    H131894   0.145   7.597   2.262  1.5838 -1.2027  1.3787
10651TIP3    H231895   0.240   7.486   2.221  0.7738 -0.4543 -3.0670
10652TIP3   OH231896   6.019   2.925   1.912  0.1592 -0.1269  0.2627
10652TIP3    H131897   6.003   2.918   2.006  0.0137 -1.6471  0.1476
10652TIP3    H231898   6.109   2.955   1.905  0.2295 -0.1930  0.8805
10653TIP3   OH231899   7.052   4.230   2.038  0.0231  0.3141  0.0577
10653TIP3    H131900   7.029   4.310   2.083  0.4026  1.1228 -1.1315
10653TIP3    H231901   7.095   4.176   2.104 -0.6082  0.9103  0.9722
10654TIP3   OH231902   6.791   3.050   5.728  0.1012 -0.3344  0.1017
10654TIP3    H131903   6.704   3.089   5.727 -0.2166 -1.0277 -0.5879
10654TIP3    H231904   6.829   3.077   5.812  0.2999  2.2784 -0.7325
10655TIP3   OH231905   1.716   3.561   1.245 -0.3196 -0.2169 -0.0115
10655TIP3    H131906   1.712   3.617   1.323  0.9004  1.1747 -0.8906
10655TIP3    H231907   1.670   3.610   1.177  1.8555  0.3909 -1.1401
10656TIP3   OH231908   3.444   7.348   3.230 -0.1050 -0.7786  0.7123
10656TIP3    H131909   3.377   7.356   3.161  0.5004  1.3928  0.3177
10656TIP3    H231910   3.421   7.415   3.294  1.6513 -0.0074  0.5861
10657TIP3   OH231911   6.358   3.630   5.818 -0.3015  0.4539 -0.0222
10657TIP3    H131912   6.371   3.576   5.896 -0.3352 -0.5739 -0.7105
10657TIP3    H231913   6.272   3.604   5.785 -0.6639  1.4994  0.0596
10658TIP3   OH231914   6.695   4.815   6.551 -0.8238  0.7663  0.6225
10658TIP3    H131915   6.659   4.853   6.631  1.4415  0.0729  2.0612
10658TIP3    H231916   6.704   4.722   6.571 -0.6150  0.5012 -0.6049
10659TIP3   OH231917   1.336   2.113   2.596  0.4067 -0.6850 -0.1376
10659TIP3    H131918   1.299   2.195   2.627 -1.0096 -1.2768 -0.1597
10659TIP3    H231919   1.322   2.051   2.668 -0.1488 -1.3255 -0.7769
10660TIP3   OH231920   0.793   0.773   3.674 -0.1061  0.1744  0.1329
10660TIP3    H131921   0.810   0.855   3.721  0.7843  0.8508 -1.2758
10660TIP3    H231922   0.719   0.793   3.617 -1.7215 -0.8844  1.7300
10661TIP3   OH231923   0.824   6.409   4.775  0.3667 -0.4738 -0.1210
10661TIP3    H131924   0.784   6.494   4.753  1.0410  0.4897  2.0820
10661TIP3    H231925   0.873   6.384   4.696 -0.4329  0.8104 -1.0684
10662TIP3   OH231926   1.779   0.233   0.589  0.2949 -0.4581 -0.7939
10662TIP3    H131927   1.736   0.233   0.675  0.0626  0.9404 -0.8866
10662TIP3    H231928   1.865   0.272   0.605  1.3125 -2.5917 -0.7430
10663TIP3   OH231929   2.635   4.303   1.962  0.1863  0.0103 -0.3217
10663TIP3    H131930   2.698   4.347   2.019 -0.1639 -0.8913  0.7930
10663TIP3    H231931   2.555   4.355   1.970  0.2935  0.1944 -0.4298
10664TIP3   OH231932   5.402   3.418   3.002 -0.0205  0.0564 -0.2989
10664TIP3    H131933   5.343   3.486   3.035 -1.3403 -1.7412  1.2126
10664TIP3    H231934   5.486   3.439   3.043 -0.6940  0.1348  1.1278
10665TIP3   OH231935   4.445   3.158   3.693  0.1137 -0.0875  0.2296
10665TIP3    H131936   4.439   3.124   3.783  1.9914  1.1518  0.8923
10665TIP3    H231937   4.417   3.085   3.638  0.1412 -1.3190  1.7756
10666TIP3   OH231938   3.473   1.033   3.252 -0.7353  0.4792 -0.1898
10666TIP3    H131939   3.500   1.002   3.166 -2.1137 -0.3558 -0.3464
10666TIP3    H231940   3.494   0.961   3.311  1.3994  1.5327  0.4413
10667TIP3   OH231941   4.570   4.932   5.387 -0.7558 -0.4890 -0.1050
10667TIP3    H131942   4.579   4.891   5.301 -0.1547 -0.9940  0.1925
10667TIP3    H231943   4.508   5.004   5.373  0.5325  0.4489 -1.3253
10668TIP3   OH231944   5.106   4.465   0.020 -0.4924 -0.3677 -0.4749
10668TIP3    H131945   5.198   4.471  -0.004 -0.3164  0.2715  0.3293
10668TIP3    H231946   5.101   4.389   0.079 -0.9599 -2.0672 -2.5686
10669TIP3   OH231947   4.017   1.550   1.721 -0.1875  0.5338 -0.1683
10669TIP3    H131948   3.945   1.512   1.772  0.4572  0.9514  1.1107
10669TIP3    H231949   4.084   1.482   1.719 -1.1231 -0.4096 -2.6095
10670TIP3   OH231950   7.236   0.312   0.862  0.1292  0.0291  0.1820
10670TIP3    H131951   7.193   0.231   0.834  1.0888 -0.7529  0.9011
10670TIP3    H231952   7.166   0.377   0.861 -0.4175 -0.5187 -1.5365
10671TIP3   OH231953   6.948   4.521   0.933  0.2140  0.7076 -0.0248
10671TIP3    H131954   7.007   4.523   0.857 -0.4667 -0.1170 -0.5848
10671TIP3    H231955   6.860   4.525   0.896 -0.2684 -2.5339  0.4865
10672TIP3   OH231956   6.447   6.032   6.384  0.6541 -0.1725  0.1556
10672TIP3    H131957   6.405   6.109   6.345 -0.7410 -1.6264 -1.3584
10672TIP3    H231958   6.540   6.055   6.386  0.2339  1.7440  0.2486
10673TIP3   OH231959   6.347   6.212   3.945 -0.6064  0.0539  0.2775
10673TIP3    H131960   6.364   6.118   3.936 -0.0399  0.1424  0.4016
10673TIP3    H231961   6.265   6.216   3.994 -1.2560 -0.3808 -0.7241
10674TIP3   OH231962   5.554   6.078   0.741 -0.0192 -0.3829  0.6993
10674TIP3    H131963   5.628   6.047   0.793 -0.1654 -0.1669  1.0369
10674TIP3    H231964   5.534   6.165   0.776 -0.0885 -0.2150  0.2526
10675TIP3   OH231965   5.978   0.248   0.876 -0.7290  0.5692  0.0814
10675TIP3    H131966   5.977   0.260   0.781 -1.0762  0.1336  0.0280
10675TIP3    H231967   6.066   0.273   0.903 -0.0328 -1.0625 -0.5830
10676TIP3   OH231968   1.510   0.998   0.861  0.5170 -0.4312  0.3399
10676TIP3    H131969   1.563   0.999   0.941  0.0222 -4.0937  0.8654
10676TIP3    H231970   1.564   0.952   0.797 -1.0196 -2.1024  0.1691
10677TIP3   OH231971   3.979   4.501   3.045  0.1168  0.4277 -0.2516
10677TIP3    H131972   4.027   4.528   3.123  1.2437  1.1579 -1.1587
10677TIP3    H231973   3.927   4.426   3.073 -0.1084  1.1480  1.3817
10678TIP3   OH231974   4.066   4.899   0.192  0.3296  0.1712 -0.4885
10678TIP3    H131975   4.077   4.934   0.280  0.8567  0.7999 -0.7993
10678TIP3    H231976   4.147   4.851   0.175 -0.4886 -1.5020  0.0399
10679TIP3   OH231977   5.787   1.642   4.232 -0.4928  0.2040  0.5343
10679TIP3    H131978   5.780   1.628   4.137  1.4727 -0.0648  0.3888
10679TIP3    H231979   5.820   1.731   4.241 -0.2746  0.0817  0.9476
10680TIP3   OH231980   4.839   2.633   6.301 -0.0026  0.0252 -0.1523
10680TIP3    H131981   4.842   2.729   6.302  0.4117  0.0105  0.0254
10680TIP3    H231982   4.891   2.606   6.376 -1.0115 -0.3238  0.4371
10681TIP3   OH231983   0.247   2.181   3.735  0.3526 -0.2573  0.1814
10681TIP3    H131984   0.157   2.214   3.728  0.1907 -0.9232 -1.1892
10681TIP3    H231985   0.302   2.259   3.734 -0.1540  0.0965 -0.0935
10682TIP3   OH231986   0.567   6.433   4.887  0.1069  0.0029  0.5513
10682TIP3    H131987   0.508   6.359   4.873  0.1998  0.0452 -0.1233
10682TIP3    H231988   0.653   6.400   4.864 -0.0305  0.6746 -1.0546
10683TIP3   OH231989   3.195   4.609   5.725 -0.3641 -0.8676 -0.2390
10683TIP3    H131990   3.277   4.624   5.772 -0.6211  0.2178 -0.1023
10683TIP3    H231991   3.150   4.541   5.775 -0.3865 -0.1178  0.7921
10684TIP3   OH231992   2.008   1.558   2.639  0.5945  0.4934 -0.6344
10684TIP3    H131993   2.074   1.496   2.670  1.7288  2.1018  0.3030
10684TIP3    H231994   2.035   1.578   2.549  0.8037  0.3576 -0.6021
10685TIP3   OH231995   2.356   5.928   3.881  0.2846  0.3535 -0.1322
10685TIP3    H131996   2.303   5.876   3.819  0.4373  0.1154 -0.0658
10685TIP3    H231997   2.378   5.866   3.951  1.4740  0.1727 -0.6373
10686TIP3   OH231998   0.077   6.299   6.774 -0.5893 -0.0951  0.3775
10686TIP3    H131999   0.047   6.285   6.684  0.0054  0.4300  0.0937
10686TIP3    H232000   0.158   6.249   6.780  0.5486  1.6521 -0.0645
10687TIP3   OH232001   0.352   1.616   2.768 -0.2088  0.3200 -0.3282
10687TIP3    H132002   0.264   1.579   2.765  0.2754 -0.7834 -1.3442
10687TIP3    H232003   0.375   1.615   2.861 -0.9504 -0.1412 -0.1429
10688TIP3   OH232004   1.001   7.580   3.627 -0.3032  0.5701 -0.3867
10688TIP3    H132005   1.079   7.538   3.663 -2.2271 -1.9334  1.2570
10688TIP3    H232006   1.027   7.671   3.612  2.7377 -0.0317  0.5577
10689TIP3   OH232007   0.889   4.268   5.949  0.0577  0.4630  0.0074
10689TIP3    H132008   0.970   4.273   6.000  0.0756  0.7656 -0.0465
10689TIP3    H232009   0.868   4.175   5.945  1.1251  0.2506 -1.1362
10690TIP3   OH232010   3.904   6.897   6.006  0.0310 -0.3830  0.1758
10690TIP3    H132011   3.960   6.822   6.026 -0.2941 -0.3677  1.2314
10690TIP3    H232012   3.935   6.928   5.921  0.1016 -1.7772 -0.3459
10691TIP3   OH232013   4.870   3.501   4.625  0.1584  0.0635  0.0232
10691TIP3    H132014   4.955   3.504   4.582 -0.0055  0.8470 -0.2548
10691TIP3    H232015   4.819   3.439   4.572  0.4007 -0.0530 -0.0772
10692TIP3   OH232016   8.125   5.635   2.654  0.4422 -0.2850 -0.0576
10692TIP3    H132017   8.087   5.687   2.725  2.8289  0.0325  1.0869
10692TIP3    H232018   8.083   5.549   2.662 -1.0649  0.4456  0.1831
10693TIP3   OH232019   6.664   4.575   0.729  0.2153  0.0427  0.5183
10693TIP3    H132020   6.583   4.525   0.736  0.2964 -0.1651 -0.0393
10693TIP3    H232021   6.645   4.657   0.775 -0.0407 -0.3308  1.0962
10694TIP3   OH232022   2.758   3.066   0.531 -0.1660  0.1484  0.7961
10694TIP3    H132023   2.776   3.142   0.475  0.3478  0.0571  0.8294
10694TIP3    H232024   2.663   3.054   0.526 -0.0282 -0.6566 -1.1114
10695TIP3   OH232025   0.673   4.358   4.259 -0.3962  0.2269 -0.1058
10695TIP3    H132026   0.754   4.394   4.223  0.1850  1.0724  1.9057
10695TIP3    H232027   0.660   4.277   4.210 -0.3159  1.8054 -2.9420
10696TIP3   OH232028   0.885   4.532   3.003 -0.1045 -0.0118 -0.3468
10696TIP3    H132029   0.801   4.490   3.024 -0.4227 -0.9736 -3.0900
10696TIP3    H232030   0.860   4.608   2.950  0.7147  0.4699 -0.0481
10697TIP3   OH232031   3.216   3.892   1.727 -0.0075  0.2478 -0.0433
10697TIP3    H132032   3.227   3.826   1.660 -0.8567  1.8699 -1.8764
10697TIP3    H232033   3.238   3.975   1.683 -1.3004  1.4508  1.4502
10698TIP3   OH232034   8.392   1.081   4.548  0.0114 -0.1151  0.7049
10698TIP3    H132035   8.449   1.068   4.472 -1.1806 -2.0558  0.0863
10698TIP3    H232036   8.337   1.156   4.524  0.5300  0.1272  0.2280
10699TIP3   OH232037   7.538   4.433   5.886  0.3382 -0.0853  0.2034
10699TIP3    H132038   7.460   4.435   5.830  0.1193  0.7100  0.5228
10699TIP3    H232039   7.550   4.340   5.907 -0.2590 -0.2637 -0.2096
10700TIP3   OH232040   1.033   1.584   6.256 -0.4733 -0.7312 -0.2792
10700TIP3    H132041   1.010   1.673   6.282 -2.1482 -0.7519 -1.5356
10700TIP3    H232042   1.119   1.593   6.214 -2.1527  1.0238 -3.7633
10701TIP3   OH232043   0.781   3.494   6.384  0.0950  0.2462  0.0798
10701TIP3    H132044   0.860   3.450   6.418 -0.0316 -0.1687 -0.1556
10701TIP3    H232045   0.750   3.436   6.314  0.2157  0.9705 -0.5886
10702TIP3   OH232046   0.936   6.342   3.637  0.2901  0.1711 -0.8324
10702TIP3    H132047   0.893   6.374   3.717  3.3911 -0.7343  1.3780
10702TIP3    H232048   1.005   6.406   3.620  0.8160 -0.6091 -1.7049
10703TIP3   OH232049   3.550   2.799   1.280  0.0951  0.3728 -0.4108
10703TIP3    H132050   3.533   2.710   1.250  1.2768 -0.0815  0.2158
10703TIP3    H232051   3.511   2.855   1.212 -2.2116 -0.5610  0.0444
10704TIP3   OH232052   1.403   6.462   1.980  0.1272  0.1504 -0.1033
10704TIP3    H132053   1.381   6.380   1.936  3.2803 -1.8899  1.7045
10704TIP3    H232054   1.358   6.456   2.065  0.9554 -0.1389  0.3308
10705TIP3   OH232055   7.494   5.500   5.441  0.0998 -0.1110 -1.0408
10705TIP3    H132056   7.498   5.594   5.422 -0.4350  0.0093 -0.5750
10705TIP3    H232057   7.495   5.494   5.536 -0.1994 -0.5623 -1.0641
10706TIP3   OH232058   6.996   0.307   1.303 -0.4559 -0.4199  0.4691
10706TIP3    H132059   6.935   0.380   1.290 -1.5174 -1.0610  1.5473
10706TIP3    H232060   6.985   0.252   1.226 -0.0097  0.3015 -0.1194
10707TIP3   OH232061   4.341   3.009   6.242  0.4724  0.7959  0.2850
10707TIP3    H132062   4.296   2.934   6.281 -0.1159  0.6956 -0.5610
10707TIP3    H232063   4.323   3.082   6.302 -0.1446  0.5788  0.3665
10708TIP3   OH232064   0.488   5.254   2.838 -0.6040 -0.1836 -0.0758
10708TIP3    H132065   0.436   5.226   2.913 -0.6206  0.7658  0.2807
10708TIP3    H232066   0.434   5.319   2.793  1.1295  2.6758  1.6659
10709TIP3   OH232067   1.290   1.287   3.304  0.2866  0.2955 -0.3632
10709TIP3    H132068   1.235   1.249   3.373  0.9116  0.2068  0.0992
10709TIP3    H232069   1.234   1.287   3.226  0.0547 -0.9996 -0.2245
10710TIP3   OH232070   0.313   1.839   5.653 -0.3151 -0.3454 -0.1630
10710TIP3    H132071   0.399   1.880   5.642 -0.2838  0.7618  3.0932
10710TIP3    H232072   0.330   1.745   5.650  0.5601 -0.1680 -1.9694
10711TIP3   OH232073   3.157   5.235   6.033  0.3175  0.4040 -0.3439
10711TIP3    H132074   3.246   5.219   6.002  0.7080  0.6357  0.6228
10711TIP3    H232075   3.146   5.176   6.107  0.6967  2.3465  1.3499
10712TIP3   OH232076   4.701   5.218   0.960  0.0739  0.3975 -0.0325
10712TIP3    H132077   4.706   5.134   0.915 -2.7521  0.5042 -0.7109
10712TIP3    H232078   4.662   5.277   0.895  1.0024  1.9804  0.7906
10713TIP3   OH232079   6.743   7.677   4.150  0.2974 -0.3810  0.5671
10713TIP3    H132080   6.782   7.650   4.067  0.1176 -0.1407  0.4024
10713TIP3    H232081   6.811   7.731   4.192  1.2988 -2.3609  1.6353
10714TIP3   OH232082   2.773   6.569   1.083 -0.1381  0.0767  0.0611
10714TIP3    H132083   2.797   6.477   1.079 -0.9994 -0.1272 -1.2287
10714TIP3    H232084   2.798   6.597   1.171 -2.4280 -2.1086  1.5571
10715TIP3   OH232085   4.926   1.807   0.049  0.3140 -0.1374 -0.3968
10715TIP3    H132086   4.907   1.717   0.075 -0.5760  0.5226  1.4093
10715TIP3    H232087   4.985   1.840   0.118 -2.4490  1.8217  1.2165
10716TIP3   OH232088   8.235   4.467   4.276 -0.2107  0.7030 -0.0951
10716TIP3    H132089   8.193   4.411   4.211  2.9788 -3.1990  0.7944
10716TIP3    H232090   8.304   4.511   4.228  0.1108  0.3188  0.0054
10717TIP3   OH232091   3.417   4.897   3.135 -0.0299  0.5220  0.4307
10717TIP3    H132092   3.361   4.974   3.129  0.8623  1.1295 -0.4508
10717TIP3    H232093   3.461   4.905   3.219 -0.4770  0.5787  0.6662
10718TIP3   OH232094   0.799   0.043   1.683 -0.4849 -0.6117 -0.6491
10718TIP3    H132095   0.742  -0.032   1.669  0.3160 -1.1554 -1.0430
10718TIP3    H232096   0.863   0.038   1.612 -1.4667  1.4662 -1.7777
10719TIP3   OH232097   2.126   3.928   2.520  0.2143 -0.2367  0.3044
10719TIP3    H132098   2.166   3.919   2.606  0.2870 -2.1122  0.1090
10719TIP3    H232099   2.184   3.881   2.460 -0.1222  0.5640 -0.6869
10720TIP3   OH232100   7.128   3.545   4.896  0.2348 -0.3663  0.3769
10720TIP3    H132101   7.147   3.462   4.852 -0.1969 -0.6095  0.6444
10720TIP3    H232102   7.215   3.581   4.917  0.4447 -0.2959 -0.5689
10721TIP3   OH232103   3.477   6.748   0.824  0.6201 -0.1014  0.5940
10721TIP3    H132104   3.390   6.786   0.833  0.7996  0.1797  1.1882
10721TIP3    H232105   3.467   6.679   0.758 -0.0343 -0.0369  0.6246
10722TIP3   OH232106   8.240   2.827   5.814 -0.0949  0.2339  0.1144
10722TIP3    H132107   8.323   2.856   5.776 -0.6786 -1.0912 -2.4342
10722TIP3    H232108   8.243   2.858   5.904  3.4797 -0.3432  0.3698
10723TIP3   OH232109   2.651   0.795   2.533 -0.4878 -0.1154  0.2446
10723TIP3    H132110   2.624   0.734   2.465  3.0407 -0.4146 -1.0668
10723TIP3    H232111   2.649   0.743   2.614 -0.9716 -0.9027 -0.2595
10724TIP3   OH232112   0.741   1.301   5.192  0.1434 -0.2208  0.6587
10724TIP3    H132113   0.718   1.208   5.202  1.2109 -0.3483  2.1075
10724TIP3    H232114   0.742   1.335   5.281  0.4931  1.0124  0.1957
10725TIP3   OH232115   1.313   3.159   1.892  0.1811 -0.3449 -0.0054
10725TIP3    H132116   1.255   3.232   1.914  0.6961 -0.5040  2.0698
10725TIP3    H232117   1.285   3.088   1.950  3.4369  0.0858  2.3758
10726TIP3   OH232118   0.117   6.982   3.538  0.4121 -0.0188 -0.0665
10726TIP3    H132119   0.212   6.983   3.527  0.4329  0.5191  0.1317
10726TIP3    H232120   0.101   7.042   3.611 -0.1427  0.4989 -0.5976
10727TIP3   OH232121   6.037   5.541   4.966 -0.8311  0.4569  0.1783
10727TIP3    H132122   5.988   5.585   5.035  0.8374  0.3521  1.4959
10727TIP3    H232123   6.111   5.599   4.947 -1.0589  0.3157 -1.2896
10728TIP3   OH232124   3.468   0.077   6.003 -0.4280  0.5166 -0.2025
10728TIP3    H132125   3.398   0.083   6.068 -0.3391  1.9862 -0.2081
10728TIP3    H232126   3.422   0.076   5.919 -0.4821 -0.0296 -0.1754
10729TIP3   OH232127   4.393   4.511   1.592 -0.3567 -0.5782  0.5611
10729TIP3    H132128   4.362   4.438   1.538  0.1594 -1.5578  1.5438
10729TIP3    H232129   4.317   4.533   1.647 -0.8164  0.2828 -0.3879
10730TIP3   OH232130   5.330   3.346   5.327  0.1114 -0.0418 -0.2783
10730TIP3    H132131   5.306   3.324   5.417 -2.9142  0.5289 -0.8350
10730TIP3    H232132   5.343   3.440   5.328  0.5473 -0.1008 -0.3503
10731TIP3   OH232133   1.085   2.824   5.516 -0.4810 -0.2450  0.0139
10731TIP3    H132134   1.002   2.866   5.539 -0.0054  0.4577  0.4853
10731TIP3    H232135   1.108   2.861   5.431 -0.0390  0.4990  0.4507
10732TIP3   OH232136   1.640   4.684   5.497 -0.1093 -0.4553  0.1607
10732TIP3    H132137   1.640   4.683   5.402 -0.4513 -1.9957  0.1470
10732TIP3    H232138   1.652   4.592   5.522  0.0372 -0.0732  1.6021
10733TIP3   OH232139   1.153   6.876   6.341  0.6093 -0.3202  0.2936
10733TIP3    H132140   1.199   6.830   6.270  0.2820 -1.1888  0.6344
10733TIP3    H232141   1.096   6.938   6.296  0.0167 -1.2290 -0.2262
10734TIP3   OH232142   3.923   6.368   4.386  0.0344 -0.6213  0.2725
10734TIP3    H132143   3.859   6.298   4.397 -0.0530 -0.5610  0.1524
10734TIP3    H232144   4.008   6.325   4.398 -0.0572 -0.5352  1.3002
10735TIP3   OH232145   2.555   2.984   5.495  0.0551  0.4719 -0.2891
10735TIP3    H132146   2.640   2.999   5.537 -0.3885  0.0731  0.8087
10735TIP3    H232147   2.513   3.070   5.495  0.3945  0.6406 -0.6939
10736TIP3   OH232148   2.371   5.414   6.759 -0.0829  0.0406  0.1908
10736TIP3    H132149   2.417   5.490   6.794 -1.9660  1.4066 -0.1492
10736TIP3    H232150   2.368   5.352   6.832  0.7106  0.6484  0.7557
10737TIP3   OH232151   5.752   1.106   1.174 -0.0712 -0.2800 -0.2873
10737TIP3    H132152   5.806   1.158   1.115 -1.2828  0.7807 -0.5241
10737TIP3    H232153   5.796   1.112   1.259 -0.1998  1.1957 -0.3037
10738TIP3   OH232154   0.684   2.960   2.170 -0.0506  0.4021  0.0284
10738TIP3    H132155   0.753   2.942   2.107 -1.1154 -2.0245 -0.5449
10738TIP3    H232156   0.710   2.912   2.249 -0.2472  0.8912  0.3968
10739TIP3   OH232157   3.924   5.843   4.000  0.0521 -0.2519 -0.4383
10739TIP3    H132158   4.011   5.878   3.982  0.3194 -0.6766  0.0353
10739TIP3    H232159   3.905   5.868   4.090 -0.4280  0.0647 -0.6225
10740TIP3   OH232160   6.647   4.743   3.848  0.6113 -0.1919 -0.4776
10740TIP3    H132161   6.574   4.785   3.804  0.1164 -1.2185 -0.6576
10740TIP3    H232162   6.609   4.665   3.890  1.5347 -0.5754 -0.3192
10741TIP3   OH232163   3.078   0.064   3.871 -0.0601  0.2838  0.1675
10741TIP3    H132164   2.986   0.060   3.900  0.3884 -0.9559  1.5125
10741TIP3    H232165   3.074   0.047   3.777 -1.4360  2.9197 -0.3534
10742TIP3   OH232166   6.136   7.824   1.651  0.4723 -0.3339 -0.1334
10742TIP3    H132167   6.148   7.730   1.643  1.7731 -0.0817 -1.6004
10742TIP3    H232168   6.050   7.840   1.612 -0.4548 -1.0528  1.5223
10743TIP3   OH232169   5.706   4.645   5.010  0.4175  0.2923  0.5234
10743TIP3    H132170   5.766   4.716   5.034  2.1662 -0.8599 -0.2476
10743TIP3    H232171   5.751   4.565   5.040 -1.0484 -0.5709  0.4929
10744TIP3   OH232172   6.471   0.220   4.919 -0.1624  0.5297  0.9536
10744TIP3    H132173   6.519   0.188   4.843  1.1251 -1.0272  2.3374
10744TIP3    H232174   6.379   0.215   4.894  0.2395  0.2551 -0.5485
10745TIP3   OH232175   2.755   3.757   2.145  0.5000 -0.3952  0.2361
10745TIP3    H132176   2.774   3.683   2.088  0.6294 -0.6946  0.6590
10745TIP3    H232177   2.694   3.723   2.210 -0.8936  0.3563 -0.6334
10746TIP3   OH232178   6.843   5.381   2.358  0.0354 -0.0714 -0.3365
10746TIP3    H132179   6.821   5.290   2.338 -0.8366 -0.3332  1.5049
10746TIP3    H232180   6.913   5.375   2.423  0.0457  0.5706 -0.2823
10747TIP3   OH232181   7.221   6.404   0.314 -0.0542 -0.3447  0.0272
10747TIP3    H132182   7.310   6.387   0.344 -0.4806 -2.2282  0.3320
10747TIP3    H232183   7.216   6.500   0.306  1.4102 -0.0782  1.7535
10748TIP3   OH232184   6.764   0.584   1.954 -0.1803 -0.1077  0.2560
10748TIP3    H132185   6.728   0.667   1.984 -0.8302 -0.6456  1.0143
10748TIP3    H232186   6.856   0.586   1.980  0.0609  0.7508 -0.5742
10749TIP3   OH232187   5.485   2.563   3.215  0.2603  1.0049  0.4277
10749TIP3    H132188   5.507   2.612   3.294 -0.4512  1.3691  0.4043
10749TIP3    H232189   5.534   2.482   3.223 -1.6044 -0.0383  2.4122
10750TIP3   OH232190   2.831   2.029   4.135 -0.5474 -0.1362 -0.3204
10750TIP3    H132191   2.923   2.045   4.157 -0.7460 -0.0822  0.5161
10750TIP3    H232192   2.832   1.945   4.089  0.0344  0.3587 -1.2368
10751TIP3   OH232193   3.211   1.020   1.794 -0.2764 -0.0486  0.3726
10751TIP3    H132194   3.198   1.105   1.752  1.7596  0.0256 -0.2224
10751TIP3    H232195   3.245   1.042   1.881 -3.1290 -0.2341  1.6301
10752TIP3   OH232196   7.924   7.136   0.614  0.0890 -0.9843  0.0598
10752TIP3    H132197   7.861   7.202   0.586  1.7384  0.8917  0.5219
10752TIP3    H232198   7.981   7.122   0.538  0.5683 -0.8606  0.3925
10753TIP3   OH232199   6.442   6.928   6.294 -0.6484  0.4159  0.6253
10753TIP3    H132200   6.496   6.968   6.226 -1.3966  2.0047  0.9228
10753TIP3    H232201   6.360   6.977   6.292 -2.8123 -2.9208 -0.8680
10754TIP3   OH232202   6.857   6.018   4.820 -0.1926  0.4233 -0.3764
10754TIP3    H132203   6.776   6.067   4.806 -0.5029 -0.4319 -1.8663
10754TIP3    H232204   6.918   6.082   4.857 -1.7334  0.8956  1.5038
10755TIP3   OH232205   5.777   4.654   6.332 -0.1419 -0.9180 -0.6259
10755TIP3    H132206   5.801   4.744   6.313 -0.6732 -0.3071  1.4074
10755TIP3    H232207   5.769   4.650   6.428  0.4779 -3.2650 -0.5992
10756TIP3   OH232208   7.242   0.264   4.437  0.1089  0.7639 -0.3903
10756TIP3    H132209   7.170   0.207   4.463 -0.2416  1.5126  0.3405
10756TIP3    H232210   7.321   0.219   4.467 -0.1231  0.3843 -0.3552
10757TIP3   OH232211   2.948   4.834   2.868 -0.4268 -0.3621 -0.3945
10757TIP3    H132212   2.927   4.818   2.776 -0.3602 -1.6083 -0.2150
10757TIP3    H232213   2.901   4.914   2.890 -1.9249 -1.0248 -1.0262
10758TIP3   OH232214   7.319   3.182   0.942 -0.0944 -0.1963 -0.0846
10758TIP3    H132215   7.308   3.091   0.970  1.5723 -0.1497  0.8755
10758TIP3    H232216   7.413   3.199   0.953 -0.4579  1.8080  0.2826
10759TIP3   OH232217   6.564   0.828   2.680 -0.2369  0.0601 -0.0705
10759TIP3    H132218   6.602   0.743   2.703  1.6231  0.9582  0.3204
10759TIP3    H232219   6.639   0.887   2.672 -1.4089  1.4661 -1.3031
10760TIP3   OH232220   3.370   3.202   4.937  0.2476 -0.1336 -0.0724
10760TIP3    H132221   3.412   3.116   4.942  0.0011 -0.1867  1.3294
10760TIP3    H232222   3.383   3.241   5.023 -1.3005  0.4511 -0.0737
10761TIP3   OH232223   6.609   6.710   4.400 -0.3145 -0.5135 -0.5263
10761TIP3    H132224   6.559   6.673   4.473  0.4333  0.7579  0.6845
10761TIP3    H232225   6.614   6.804   4.420  1.3388 -0.3948 -1.3415
10762TIP3   OH232226   1.948   5.783   2.302  0.2062 -0.1592 -0.2953
10762TIP3    H132227   1.963   5.877   2.310 -2.4261  0.4041 -1.2170
10762TIP3    H232228   2.016   5.753   2.242  0.4450  1.3390 -0.8010
10763TIP3   OH232229   4.972   7.705   3.139  0.4843 -0.3352 -0.4084
10763TIP3    H132230   5.024   7.626   3.153  0.6454 -0.8624 -3.3946
10763TIP3    H232231   5.034   7.777   3.155  2.4172 -0.9542 -4.0355
10764TIP3   OH232232   1.275   7.391   6.572 -0.3461  0.1799 -0.1938
10764TIP3    H132233   1.282   7.367   6.480 -3.1191  3.2897 -1.4538
10764TIP3    H232234   1.204   7.337   6.606  0.4795 -0.7572  0.0673
10765TIP3   OH232235   3.941   7.070   0.047  0.4588 -0.5036 -0.4283
10765TIP3    H132236   3.864   7.111   0.087  1.5417  0.1368  1.0673
10765TIP3    H232237   3.974   7.136  -0.014 -0.8281 -1.2404 -2.0016
10766TIP3   OH232238   3.206   7.306   3.631 -0.6234 -0.6855  0.1486
10766TIP3    H132239   3.232   7.398   3.629  0.8981 -1.0789  0.1895
10766TIP3    H232240   3.284   7.260   3.664 -0.2872 -2.3124 -2.6093
10767TIP3   OH232241   2.202   6.249   2.378  0.2708  0.3577 -0.5983
10767TIP3    H132242   2.204   6.168   2.428  1.1459  0.1166 -1.0060
10767TIP3    H232243   2.219   6.318   2.443 -1.4692  0.3301 -0.0724
10768TIP3   OH232244   4.760   3.346   5.132  0.1850 -0.0772  0.2600
10768TIP3    H132245   4.772   3.434   5.169 -1.4479 -0.5513  2.1210
10768TIP3    H232246   4.774   3.357   5.038 -1.9518  2.6399  0.1116
10769TIP3   OH232247   0.588   4.721   4.197  0.2793 -0.3935  0.4728
10769TIP3    H132248   0.506   4.709   4.246 -0.5691  1.8261 -0.2354
10769TIP3    H232249   0.569   4.794   4.138  2.5838 -0.2722 -0.2029
10770TIP3   OH232250   8.131   4.925   5.948 -0.2771  0.0403  0.0311
10770TIP3    H132251   8.133   4.830   5.933 -0.4399  0.0106  0.1982
10770TIP3    H232252   8.050   4.954   5.908 -0.5221  0.0182  0.5084
10771TIP3   OH232253   3.258   2.136   2.465  0.3917  0.3045  0.1306
10771TIP3    H132254   3.353   2.128   2.459  0.4921 -0.7086  2.3836
10771TIP3    H232255   3.236   2.109   2.554 -1.9484  1.2552 -0.0780
10772TIP3   OH232256   5.940   3.666   2.546 -0.3469  0.2996  0.4411
10772TIP3    H132257   5.856   3.685   2.504 -0.9883  2.4722  2.4882
10772TIP3    H232258   5.922   3.595   2.606 -0.1754 -0.6590 -0.6064
10773TIP3   OH232259   2.223   0.274   3.830 -0.3883 -0.5229 -0.0052
10773TIP3    H132260   2.189   0.264   3.919  0.9252 -0.1510  0.5547
10773TIP3    H232261   2.245   0.366   3.822 -0.5274 -0.5466 -0.7339
10774TIP3   OH232262   1.132   7.768   0.220 -0.4810  0.1693  0.0497
10774TIP3    H132263   1.147   7.860   0.200  1.1659 -0.0696  0.0808
10774TIP3    H232264   1.055   7.744   0.168 -1.0617  1.6038  0.2179
10775TIP3   OH232265   6.938   0.649   1.039  0.5637 -0.0561  0.0725
10775TIP3    H132266   6.857   0.693   1.011  1.2237  0.3271 -1.3171
10775TIP3    H232267   6.908   0.579   1.097 -1.0919 -1.8547 -2.6894
10776TIP3   OH232268   1.055   1.377   0.189 -0.3673 -0.4438 -0.4016
10776TIP3    H132269   1.010   1.460   0.172  1.2709  0.5488 -0.1628
10776TIP3    H232270   1.067   1.376   0.284 -0.6324 -1.0981 -0.3751
10777TIP3   OH232271   7.883   3.939   4.205  0.6345 -0.0160  0.4950
10777TIP3    H132272   7.790   3.959   4.205  1.1138  2.7345 -1.4781
10777TIP3    H232273   7.890   3.852   4.164 -0.9888  0.1186 -0.1112
10778TIP3   OH232274   4.570   3.095   2.495 -1.0021  0.6611 -0.4364
10778TIP3    H132275   4.632   3.139   2.437 -1.6881  0.8705 -1.0250
10778TIP3    H232276   4.573   3.145   2.576  1.1264 -0.5557  0.2994
10779TIP3   OH232277   4.795   0.172   1.391  0.1971  0.5440 -0.6646
10779TIP3    H132278   4.776   0.265   1.379 -1.3009  0.3098 -0.2868
10779TIP3    H232279   4.883   0.171   1.428 -0.4535  1.9450  1.1143
10780TIP3   OH232280   6.997   5.498   2.115 -0.0984 -0.1359  0.1669
10780TIP3    H132281   6.989   5.550   2.194 -1.1205  0.9035 -0.5856
10780TIP3    H232282   6.907   5.489   2.083  0.4113  0.8080 -1.6939
10781TIP3   OH232283   0.579   4.624   5.965 -0.0330  0.2333 -0.0324
10781TIP3    H132284   0.629   4.609   5.886  0.2452  3.6315 -0.6633
10781TIP3    H232285   0.488   4.629   5.936 -0.1111 -0.1193  0.1435
10782TIP3   OH232286   7.825   1.106   6.163 -0.1840 -0.2712 -0.0689
10782TIP3    H132287   7.747   1.119   6.217 -0.4451 -1.0146 -0.2540
10782TIP3    H232288   7.864   1.026   6.197 -0.6413 -1.0560 -1.3001
10783TIP3   OH232289   7.092   1.192   5.445  0.0429 -0.0803 -0.4611
10783TIP3    H132290   7.086   1.164   5.536 -0.9999 -0.1963 -0.5521
10783TIP3    H232291   7.005   1.177   5.410  1.1219 -2.7123 -2.2847
10784TIP3   OH232292   1.043   6.336   5.330 -0.0192 -0.3719  0.3393
10784TIP3    H132293   1.131   6.311   5.304 -0.3400 -0.6776 -0.4966
10784TIP3    H232294   1.028   6.291   5.413  1.5743  1.7869  1.8926
10785TIP3   OH232295   3.007   3.661   0.196  0.3483 -0.2078 -0.3522
10785TIP3    H132296   3.057   3.703   0.266  0.8334  0.5983 -1.1516
10785TIP3    H232297   3.013   3.723   0.123 -3.0937  0.6554 -0.0453
10786TIP3   OH232298   1.898   6.354   0.872  0.8896 -0.0793  0.1963
10786TIP3    H132299   1.990   6.380   0.859  0.7016  0.5819  0.1240
10786TIP3    H232300   1.893   6.331   0.965  1.5199 -1.8052 -0.1665
10787TIP3   OH232301   0.951   0.900   0.018  0.8230  0.2074  0.4561
10787TIP3    H132302   1.038   0.870  -0.009  1.0626  0.7106  0.6484
10787TIP3    H232303   0.969   0.969   0.083  0.2891  0.5499  0.2466
10788TIP3   OH232304   5.383   1.134   4.149 -0.0245 -0.5317 -0.1352
10788TIP3    H132305   5.326   1.210   4.145  0.0509 -0.4782 -0.2106
10788TIP3    H232306   5.391   1.114   4.242 -0.2064 -0.5709 -0.1274
10789TIP3   OH232307   0.531   6.439   2.851  0.1483 -0.1015  0.6630
10789TIP3    H132308   0.550   6.348   2.874 -0.3777 -0.3631  0.0655
10789TIP3    H232309   0.440   6.453   2.878 -0.1258 -0.0869 -0.2505
10790TIP3   OH232310   4.886   0.581   1.988 -0.0676 -0.3880  0.7216
10790TIP3    H132311   4.927   0.613   2.068  1.0389  1.2522 -0.4181
10790TIP3    H232312   4.930   0.498   1.969 -0.5138 -0.9177  1.9036
10791TIP3   OH232313   4.343   5.440   2.527  0.4038  0.4813 -0.7926
10791TIP3    H132314   4.362   5.485   2.445  0.9927 -1.1590 -1.6114
10791TIP3    H232315   4.256   5.402   2.514  0.3929  0.4222 -0.5557
10792TIP3   OH232316   3.663   2.527   2.591 -0.2812 -0.3305 -0.5674
10792TIP3    H132317   3.684   2.561   2.678 -0.5175  0.1981 -0.7085
10792TIP3    H232318   3.574   2.558   2.575 -0.2554 -0.4702 -0.9773
10793TIP3   OH232319   0.736   7.639   0.412 -0.0424  0.3582  0.3231
10793TIP3    H132320   0.822   7.681   0.416 -0.3682  1.0630  0.0237
10793TIP3    H232321   0.673   7.711   0.409 -0.6547 -0.1515  0.6461
10794TIP3   OH232322   4.666   4.919   3.024  0.0889 -0.0937 -0.2158
10794TIP3    H132323   4.683   4.895   2.934 -0.3546 -0.6483 -0.1538
10794TIP3    H232324   4.591   4.979   3.020 -0.7282 -1.0756 -0.1278
10795TIP3   OH232325   4.708   3.151   4.692  0.0713  0.1522 -0.0015
10795TIP3    H132326   4.630   3.098   4.679  0.4953  0.1204 -3.0677
10795TIP3    H232327   4.675   3.238   4.714 -0.7830 -0.1439 -0.0722
10796TIP3   OH232328   6.050   2.700   0.892  0.2698 -0.3189  0.3089
10796TIP3    H132329   5.958   2.675   0.905  0.3486 -0.7000  0.1502
10796TIP3    H232330   6.081   2.726   0.979 -0.6640  2.1765 -0.0153
10797TIP3   OH232331   3.931   7.363   5.719  0.4726  0.5416  0.0818
10797TIP3    H132332   3.964   7.287   5.669  0.2247  0.9123 -0.6599
10797TIP3    H232333   3.956   7.344   5.810  1.1332 -0.0453 -0.2062
10798TIP3   OH232334   1.307   4.634   3.559 -0.3365  0.0133  0.0063
10798TIP3    H132335   1.291   4.722   3.525 -0.3610  0.1231  0.2960
10798TIP3    H232336   1.316   4.579   3.481 -0.9056  0.1647 -0.1677
10799TIP3   OH232337   1.784   0.346   4.372  0.4269 -0.3209  0.3017
10799TIP3    H132338   1.878   0.337   4.362  0.7715  0.5392  2.2486
10799TIP3    H232339   1.757   0.403   4.300  1.6461  0.6086  0.5515
10800TIP3   OH232340   4.338   4.730   4.899 -0.3126  0.0963 -0.3641
10800TIP3    H132341   4.261   4.701   4.849 -0.3181 -0.2341 -0.1656
10800TIP3    H232342   4.412   4.709   4.843 -0.1550 -2.2512  0.6387
10801TIP3   OH232343   8.114   4.700   3.595 -0.4180 -0.8530  0.1160
10801TIP3    H132344   8.038   4.662   3.639 -0.7767 -0.0339  0.2299
10801TIP3    H232345   8.149   4.629   3.541 -2.2302 -0.8195 -1.2082
10802TIP3   OH232346   5.279   0.593   4.253 -0.0879 -0.4102  0.0322
10802TIP3    H132347   5.353   0.607   4.312 -0.3058 -1.2027  0.5054
10802TIP3    H232348   5.204   0.578   4.311 -0.3463 -0.9831 -0.4374
10803TIP3   OH232349   3.567   7.587   2.054 -0.0748 -0.5086  0.5925
10803TIP3    H132350   3.625   7.630   1.992 -0.1929 -0.6731  0.3668
10803TIP3    H232351   3.492   7.646   2.062  0.0834 -0.3385  0.8165
10804TIP3   OH232352   6.785   2.698   2.242 -0.6711 -0.0235 -0.4994
10804TIP3    H132353   6.757   2.706   2.333 -1.0256 -1.1090 -0.4873
10804TIP3    H232354   6.878   2.719   2.243 -1.3167  3.3783 -0.4853
10805TIP3   OH232355   6.547   2.754   1.333  0.5918  0.0778  0.0363
10805TIP3    H132356   6.492   2.829   1.354  3.5515  2.5003 -0.0946
10805TIP3    H232357   6.486   2.685   1.306 -2.4392  1.5739  2.5360
10806TIP3   OH232358   2.369   6.281   4.994 -0.3278 -0.3306  0.6889
10806TIP3    H132359   2.412   6.348   5.048 -0.6646 -0.0066  0.5644
10806TIP3    H232360   2.355   6.207   5.053  0.1094 -0.3167  0.8112
10807TIP3   OH232361   4.169   3.785   6.046 -0.7711 -0.0641  0.6752
10807TIP3    H132362   4.243   3.762   6.102  0.1624  1.5501  0.1878
10807TIP3    H232363   4.202   3.773   5.957 -0.8433  1.2681  0.4459
10808TIP3   OH232364   3.333   1.878   3.547  0.1903  0.1517 -0.2014
10808TIP3    H132365   3.290   1.802   3.587  0.1050  0.7872  0.9469
10808TIP3    H232366   3.337   1.943   3.617  0.7383  1.0234 -1.0210
10809TIP3   OH232367   7.954   3.430   5.616 -0.3176 -0.0622  0.2997
10809TIP3    H132368   7.892   3.489   5.659  0.6718  0.7032  0.7014
10809TIP3    H232369   7.924   3.342   5.641 -2.0983  0.2206 -0.7108
10810TIP3   OH232370   3.019   4.700   0.193  0.2229  0.5391 -0.2647
10810TIP3    H132371   3.094   4.703   0.252  0.3605  1.7212 -0.4685
10810TIP3    H232372   3.020   4.784   0.148 -1.6680  0.9223  0.2881
10811TIP3   OH232373   3.105   1.150   5.529  0.6447 -0.5545  0.0742
10811TIP3    H132374   3.011   1.131   5.529  0.6404 -0.9717  2.7605
10811TIP3    H232375   3.117   1.212   5.457 -1.5569 -0.9781 -0.7469
10812TIP3   OH232376   0.428   1.601   5.851  0.3981  0.3559 -0.0185
10812TIP3    H132377   0.406   1.525   5.905  1.2141 -0.0448 -0.2174
10812TIP3    H232378   0.409   1.572   5.762  0.0122  0.6468 -0.0267
10813TIP3   OH232379   7.903   1.610   3.145 -0.3097 -0.7223  0.0202
10813TIP3    H132380   7.867   1.564   3.221  1.3101 -1.8501  0.1768
10813TIP3    H232381   7.958   1.544   3.102  0.3911  0.4809 -0.9832
10814TIP3   OH232382   0.586   3.550   2.878  0.2688  0.5648  0.5296
10814TIP3    H132383   0.567   3.481   2.815 -1.6463 -2.9759  4.4687
10814TIP3    H232384   0.678   3.537   2.901  0.4378  0.6281 -0.0789
10815TIP3   OH232385   0.038   0.379   0.300 -0.4155  0.0722  0.7743
10815TIP3    H132386   0.100   0.314   0.335 -2.1373 -1.3052  1.4007
10815TIP3    H232387   0.004   0.340   0.220  0.2149  1.2783 -0.1302
10816TIP3   OH232388   8.123   2.861   0.857  0.4091 -0.0689  0.5048
10816TIP3    H132389   8.183   2.931   0.829  0.3868 -0.2795 -0.0825
10816TIP3    H232390   8.036   2.900   0.851  0.3828 -0.1965  0.0112
10817TIP3   OH232391   3.419   1.413   3.958 -0.3783  0.9202  0.0926
10817TIP3    H132392   3.484   1.408   3.888  0.2970 -1.7197  0.7758
10817TIP3    H232393   3.415   1.505   3.981  2.2263  1.3428 -0.8182
10818TIP3   OH232394   6.724   3.995   6.408 -0.1724 -0.0583  0.2761
10818TIP3    H132395   6.805   4.043   6.395  0.7596 -1.2225  1.5887
10818TIP3    H232396   6.667   4.026   6.337  1.5325  0.4756 -0.9302
10819TIP3   OH232397   1.813   5.667   5.890 -0.1791  0.0651  1.0064
10819TIP3    H132398   1.755   5.629   5.824 -0.3695 -0.1174  1.2781
10819TIP3    H232399   1.810   5.761   5.872 -2.5073  0.3717  2.5152
10820TIP3   OH232400   0.746   1.485   0.709 -0.7762 -0.0821  0.0151
10820TIP3    H132401   0.749   1.537   0.789  0.5009  0.0961 -0.1352
10820TIP3    H232402   0.789   1.402   0.732 -1.2839 -0.4172 -0.2187
10821TIP3   OH232403   7.130   6.910   6.129 -0.3711  0.0298  0.1482
10821TIP3    H132404   7.082   6.828   6.122 -0.4540 -0.0192  1.1494
10821TIP3    H232405   7.222   6.885   6.121 -0.4536  0.0232 -0.9405
10822TIP3   OH232406   3.632   0.905   1.720  0.0170 -0.1224  0.7775
10822TIP3    H132407   3.621   0.949   1.636  0.0002 -0.3189  0.6756
10822TIP3    H232408   3.546   0.867   1.738 -0.3018  0.8740  1.4342
10823TIP3   OH232409   6.070   0.011   5.080 -0.1466 -0.5862  0.3702
10823TIP3    H132410   6.150   0.022   5.133  0.4588 -0.2760 -0.5912
10823TIP3    H232411   6.008   0.074   5.117  0.4203 -0.0566  0.4301
10824TIP3   OH232412   3.690   1.518   3.312 -0.2574  0.3088  0.2854
10824TIP3    H132413   3.651   1.433   3.328  0.4320 -0.1471 -0.4089
10824TIP3    H232414   3.760   1.501   3.250  0.5761  1.2220  0.9501
10825TIP3   OH232415   7.492   1.929   1.228  0.2848  0.0695 -0.0989
10825TIP3    H132416   7.520   1.843   1.195 -0.0850 -0.3624  0.6920
10825TIP3    H232417   7.464   1.913   1.318 -0.0574  0.9715 -0.0294
10826TIP3   OH232418   3.663   1.911   0.935  0.2125  0.1170 -0.1801
10826TIP3    H132419   3.689   1.992   0.891  0.0609  0.3462  0.1507
10826TIP3    H232420   3.578   1.890   0.898  0.2316  0.1319 -0.2325
10827TIP3   OH232421   7.373   2.664   6.445  0.0983 -0.4489 -0.5408
10827TIP3    H132422   7.282   2.655   6.419  0.4710 -0.2563 -2.0345
10827TIP3    H232423   7.418   2.592   6.400  1.1746  1.3741 -2.5722
10828TIP3   OH232424   3.678   4.818   0.069  0.1582 -0.4363  0.2252
10828TIP3    H132425   3.623   4.866   0.007 -0.0888 -0.3584  0.5015
10828TIP3    H232426   3.666   4.865   0.152  1.0490 -0.1068  0.1701
10829TIP3   OH232427   7.257   3.611   6.503 -0.3091  0.9226 -0.0761
10829TIP3    H132428   7.258   3.662   6.584 -0.0579  1.1612 -0.2275
10829TIP3    H232429   7.349   3.589   6.488 -0.5022 -0.3301  0.4565
10830TIP3   OH232430   2.536   0.284   4.490  0.4492  0.3214  0.5696
10830TIP3    H132431   2.486   0.257   4.567  0.2814  0.9419  0.6782
10830TIP3    H232432   2.627   0.261   4.511  0.4174  0.5732  0.9934
10831TIP3   OH232433   4.734   2.319   3.367 -0.5192 -0.0525 -0.2506
10831TIP3    H132434   4.814   2.318   3.420 -1.3714 -0.2954  1.0826
10831TIP3    H232435   4.734   2.235   3.321  0.6600  0.5109 -1.3457
10832TIP3   OH232436   2.541   4.482   0.188 -0.2739 -0.2889  0.2563
10832TIP3    H132437   2.508   4.571   0.203  0.2437  0.1243 -0.9692
10832TIP3    H232438   2.507   4.458   0.102  1.3077 -0.4406 -0.3697
10833TIP3   OH232439   7.019   2.694   3.353  0.3662  0.7145 -1.0420
10833TIP3    H132440   7.081   2.633   3.394 -0.7265  1.4182  1.9358
10833TIP3    H232441   7.073   2.756   3.306  1.6164 -1.3035 -2.4097
10834TIP3   OH232442   4.812   2.126   1.389  0.3499  0.4768  0.6813
10834TIP3    H132443   4.723   2.093   1.396  0.8139 -1.6040 -1.5904
10834TIP3    H232444   4.868   2.051   1.410  1.5175  1.0681 -0.1417
10835TIP3   OH232445   2.400   6.431   5.216 -0.2912  0.1867  0.1797
10835TIP3    H132446   2.359   6.517   5.210  0.9591  1.0372  2.4056
10835TIP3    H232447   2.329   6.371   5.237 -0.8185  1.1520  1.2224
10836TIP3   OH232448   4.401   7.747   2.064 -0.0357  0.1718  0.3157
10836TIP3    H132449   4.342   7.796   2.007 -0.8694 -2.5626 -1.3961
10836TIP3    H232450   4.488   7.761   2.026 -0.3070  0.0925 -0.3524
10837TIP3   OH232451   7.788   0.667   6.201  0.2587  0.0886 -0.1817
10837TIP3    H132452   7.845   0.744   6.209 -1.1639  1.1272  0.4823
10837TIP3    H232453   7.788   0.628   6.289  0.0160  0.0425 -0.2017
10838TIP3   OH232454   3.635   1.166   3.656  0.7791 -0.2342  0.8240
10838TIP3    H132455   3.677   1.216   3.726  1.5911  0.2451  0.0099
10838TIP3    H232456   3.675   1.079   3.662  1.5621  0.0861  0.3461
10839TIP3   OH232457   3.091   2.393   3.019 -0.2817  0.6538 -0.2361
10839TIP3    H132458   3.185   2.380   3.006 -0.2014  1.2081 -0.2456
10839TIP3    H232459   3.085   2.435   3.105 -0.6477 -0.8937  0.5295
10840TIP3   OH232460   6.641   6.997   6.549  0.3666 -0.6581  0.0633
10840TIP3    H132461   6.635   6.952   6.464 -1.1743 -0.6341  0.1302
10840TIP3    H232462   6.669   6.929   6.610 -1.4153 -1.4288  0.0643
10841TIP3   OH232463   3.023   0.093   0.265 -0.4942 -0.3704 -0.0547
10841TIP3    H132464   2.991   0.148   0.336  0.5907  0.8063 -0.4370
10841TIP3    H232465   3.104   0.054   0.299  0.1558  0.3850 -0.7167
10842TIP3   OH232466   1.088   7.400   2.414  0.5055 -0.1650 -0.4274
10842TIP3    H132467   1.029   7.381   2.341  0.1466 -0.2248 -0.1255
10842TIP3    H232468   1.139   7.475   2.384  0.5793 -0.3818 -0.8609
10843TIP3   OH232469   6.496   4.427   6.586 -0.0908  0.0794  0.2246
10843TIP3    H132470   6.532   4.472   6.510 -1.1700  1.5294  0.5258
10843TIP3    H232471   6.482   4.337   6.557 -1.4241  0.8282 -1.6536
10844TIP3   OH232472   7.892   0.470   1.942  0.1956 -0.4700  0.0479
10844TIP3    H132473   7.978   0.495   1.977  0.3330  0.8060 -1.0986
10844TIP3    H232474   7.910   0.445   1.851 -0.5320 -0.9722  0.0416
10845TIP3   OH232475   0.714   2.236   1.031  0.5326  0.1788 -0.1250
10845TIP3    H132476   0.679   2.210   0.945  2.6342  2.6162 -1.8633
10845TIP3    H232477   0.640   2.280   1.074 -0.4616 -0.7854 -0.7858
10846TIP3   OH232478   0.386   7.222   0.688 -0.3090 -0.4520 -0.1000
10846TIP3    H132479   0.318   7.208   0.755 -0.5562 -2.1881 -0.6744
10846TIP3    H232480   0.345   7.280   0.624 -0.6829 -0.1801  0.3800
10847TIP3   OH232481   1.332   4.432   5.147 -0.2564  0.6324 -0.2022
10847TIP3    H132482   1.404   4.377   5.178 -0.4510 -0.1132 -1.0546
10847TIP3    H232483   1.374   4.499   5.094 -0.2821 -1.0495 -2.5366
10848TIP3   OH232484   6.947   1.622   2.819  0.2942 -0.4498 -0.0470
10848TIP3    H132485   6.956   1.657   2.908  2.4406 -0.4622 -0.2130
10848TIP3    H232486   6.916   1.696   2.767 -0.5264 -0.3180  0.6009
10849TIP3   OH232487   3.373   7.444   2.509  0.0712 -0.4203  0.1898
10849TIP3    H132488   3.329   7.361   2.524 -0.7983 -0.0601 -0.2592
10849TIP3    H232489   3.458   7.420   2.473  0.3181 -1.1341  1.2223
10850TIP3   OH232490   2.867   0.484   2.270 -0.4392 -0.3018  0.2324
10850TIP3    H132491   2.817   0.441   2.340  0.2813 -1.0772  0.2954
10850TIP3    H232492   2.936   0.421   2.248  0.7823  0.8992  0.4554
10851TIP3   OH232493   1.234   3.501   5.781 -0.1422 -0.0752 -0.5013
10851TIP3    H132494   1.216   3.481   5.689 -1.9645  0.3001 -0.2753
10851TIP3    H232495   1.174   3.444   5.830 -1.9348  2.2909  0.2984
10852TIP3   OH232496   4.680   3.999   1.348 -0.1293  0.3867  0.6362
10852TIP3    H132497   4.649   4.004   1.438  0.6966 -0.5911  0.9939
10852TIP3    H232498   4.775   3.999   1.355 -0.0373 -0.9103 -0.1236
10853TIP3   OH232499   4.448   0.283   2.703  0.2328  0.2047 -0.4254
10853TIP3    H132500   4.419   0.215   2.764  1.3900 -0.1495 -0.2330
10853TIP3    H232501   4.458   0.237   2.619  2.8130 -0.3966  0.0948
10854TIP3   OH232502   1.639   2.515   2.501 -0.1179 -0.2301  0.3271
10854TIP3    H132503   1.729   2.536   2.479  0.2352 -0.6029  1.3775
10854TIP3    H232504   1.590   2.533   2.420  0.8714  0.0517 -0.2261
10855TIP3   OH232505   0.093   7.673   4.548 -0.2804 -0.0453 -0.6601
10855TIP3    H132506   0.055   7.588   4.573  1.4143 -0.6868 -0.1457
10855TIP3    H232507   0.151   7.695   4.620 -1.2535  1.9624 -0.4288
10856TIP3   OH232508   5.022   7.881   4.484  0.0004  0.3228 -0.1654
10856TIP3    H132509   5.053   7.912   4.399  1.7744  1.6460  0.8696
10856TIP3    H232510   4.939   7.837   4.466 -0.1384  1.3949 -2.4276
10857TIP3   OH232511   5.962   5.444   0.349 -0.2129  0.4873 -0.1312
10857TIP3    H132512   6.026   5.456   0.419 -1.0620  0.0168  0.7625
10857TIP3    H232513   6.006   5.474   0.270  0.6157  1.4703  0.6743
10858TIP3   OH232514   0.472   5.803   5.244 -0.2270  0.0500  0.1644
10858TIP3    H132515   0.450   5.785   5.336 -0.3621 -1.2197 -0.0953
10858TIP3    H232516   0.393   5.779   5.195  0.2549 -0.4564 -0.3859
10859TIP3   OH232517   8.145   5.228   1.581  0.2215  0.4289  0.1903
10859TIP3    H132518   8.065   5.175   1.584 -1.3448  2.7007  1.0523
10859TIP3    H232519   8.210   5.170   1.543 -1.6823 -1.7055 -0.0472
10860TIP3   OH232520   1.268   0.336   3.513  0.1681 -0.3932  0.4138
10860TIP3    H132521   1.252   0.244   3.489 -0.9700  0.4852 -2.5505
10860TIP3    H232522   1.182   0.377   3.513  0.9097  1.2677 -1.1318
10861TIP3   OH232523   8.127   6.101   2.604 -0.3659 -0.6247 -0.2196
10861TIP3    H132524   8.217   6.072   2.614 -0.6308 -2.3252 -2.1047
10861TIP3    H232525   8.133   6.196   2.588  1.0828 -0.7323 -0.4197
10862TIP3   OH232526   6.318   6.867   3.755  0.0996  0.0371  0.4893
10862TIP3    H132527   6.264   6.847   3.679  0.1017 -0.0639  0.5134
10862TIP3    H232528   6.327   6.783   3.801  0.4326  0.0123  0.3842
10863TIP3   OH232529   3.453   1.972   2.720  0.3258 -0.1690 -0.0425
10863TIP3    H132530   3.416   1.912   2.785  1.9545  0.0921  1.1852
10863TIP3    H232531   3.517   1.919   2.673  0.4412  0.1227 -0.2136
10864TIP3   OH232532   3.395   0.131   3.281  0.0458 -0.3785  0.2157
10864TIP3    H132533   3.362   0.220   3.296  0.4128 -0.4077  1.3318
10864TIP3    H232534   3.337   0.075   3.333 -0.9183 -0.9458 -1.4245
10865TIP3   OH232535   1.872   4.364   3.129 -0.1019 -0.0519 -0.0446
10865TIP3    H132536   1.852   4.286   3.182  1.2947 -0.4916 -0.1352
10865TIP3    H232537   1.964   4.382   3.146 -0.2602  1.2520 -0.4757
10866TIP3   OH232538   4.266   0.856   1.535 -0.6572 -0.0993 -0.0234
10866TIP3    H132539   4.320   0.905   1.597 -1.8430  0.1229  0.8798
10866TIP3    H232540   4.288   0.893   1.449  2.3773 -1.6552 -0.0485
10867TIP3   OH232541   7.823   2.457   4.481  0.1373  0.2333 -0.4371
10867TIP3    H132542   7.869   2.530   4.521 -0.7481  0.7651 -0.3761
10867TIP3    H232543   7.883   2.383   4.491 -0.1173  0.2602  2.1191
10868TIP3   OH232544   3.079   0.411   5.605 -0.0484 -0.5169  0.6352
10868TIP3    H132545   3.134   0.489   5.608  1.1913 -1.2917 -0.7800
10868TIP3    H232546   3.138   0.338   5.623 -0.9566 -1.2541  0.7623
10869TIP3   OH232547   5.894   6.177   5.255 -0.1746 -0.3259  0.3144
10869TIP3    H132548   5.820   6.239   5.254  0.6545  0.6900 -0.2240
10869TIP3    H232549   5.948   6.204   5.181  0.2383 -1.6914  0.1010
10870TIP3   OH232550   6.885   1.959   2.374 -0.1133  0.1159 -0.2741
10870TIP3    H132551   6.933   1.988   2.296 -0.7889 -0.1864 -0.8105
10870TIP3    H232552   6.794   1.954   2.346 -0.3886  0.1649  0.5898
10871TIP3   OH232553   7.694   6.520   0.102  0.0083  0.0399 -0.6396
10871TIP3    H132554   7.781   6.560   0.107 -0.4048  1.0332 -1.0603
10871TIP3    H232555   7.680   6.483   0.189  0.1524  1.3881 -0.0240
10872TIP3   OH232556   7.015   6.065   3.564 -0.6304  0.0148  0.1349
10872TIP3    H132557   6.980   6.031   3.481  0.7781  0.6835 -0.7748
10872TIP3    H232558   7.046   6.153   3.542  0.8294 -0.2302  1.0792
10873TIP3   OH232559   7.544   7.505   3.455  1.1123  0.3023 -0.4832
10873TIP3    H132560   7.506   7.435   3.508  1.4350 -0.9180 -1.8091
10873TIP3    H232561   7.474   7.571   3.450  0.4579 -0.3327  0.0156
10874TIP3   OH232562   1.554   3.310   1.987  0.1899  0.0834 -0.1188
10874TIP3    H132563   1.469   3.267   1.972 -0.7685  1.0570  2.1702
10874TIP3    H232564   1.615   3.260   1.932 -1.5320 -1.7514 -0.5135
10875TIP3   OH232565   3.293   7.593   6.560 -0.1771 -0.2701  0.2663
10875TIP3    H132566   3.322   7.657   6.624  0.2032  0.2666 -0.4305
10875TIP3    H232567   3.257   7.521   6.612  0.5491 -0.0505  1.0830
10876TIP3   OH232568   0.566   0.410   5.320 -0.3789 -0.5171  0.0207
10876TIP3    H132569   0.596   0.410   5.411  1.6311 -1.1198 -0.5735
10876TIP3    H232570   0.481   0.367   5.322 -0.5848 -0.0822  1.6660
10877TIP3   OH232571   7.325   4.390   2.833 -0.3048  0.3148 -0.0417
10877TIP3    H132572   7.395   4.443   2.870 -1.3269  1.0418  0.9088
10877TIP3    H232573   7.262   4.379   2.905 -0.9943 -0.6324 -0.7561
10878TIP3   OH232574   6.474   3.296   2.040  0.0060  0.2090 -0.1119
10878TIP3    H132575   6.472   3.343   1.957  0.9424  1.3505  0.4870
10878TIP3    H232576   6.400   3.331   2.089  0.4242  0.7372  0.1526
10879TIP3   OH232577   2.645   4.590   4.756 -0.2656  0.4622  0.7797
10879TIP3    H132578   2.638   4.594   4.851 -1.1828  1.3573  0.6812
10879TIP3    H232579   2.667   4.679   4.729  1.3478 -0.0464  0.2313
10880TIP3   OH232580   3.615   4.773   6.490 -0.3952 -0.1644  0.3759
10880TIP3    H132581   3.550   4.704   6.475 -1.2805  0.3501  1.6159
10880TIP3    H232582   3.683   4.732   6.543 -1.7384  0.2723  2.5497
10881TIP3   OH232583   0.368   7.387   2.295 -0.2776 -0.1907 -0.2183
10881TIP3    H132584   0.285   7.355   2.330 -1.4169  1.2803 -1.4459
10881TIP3    H232585   0.407   7.309   2.255 -1.0081 -0.9298  0.4509
10882TIP3   OH232586   2.641   7.918   4.769 -0.0129  0.3406 -0.3933
10882TIP3    H132587   2.559   7.871   4.782  0.0079 -0.4263 -2.5931
10882TIP3    H232588   2.688   7.867   4.703  1.9385  1.1455  0.2902
10883TIP3   OH232589   8.218   2.075   0.273  0.0919 -0.3338  0.3786
10883TIP3    H132590   8.269   2.143   0.318 -0.4406 -0.1975  0.7890
10883TIP3    H232591   8.262   1.993   0.295  0.0749 -0.2267  0.8156
10884TIP3   OH232592   7.919   1.913   4.794 -0.1086 -0.1219  0.0962
10884TIP3    H132593   7.937   1.983   4.731  0.7285 -1.4994 -1.2699
10884TIP3    H232594   8.005   1.875   4.813 -0.5340 -0.7271  0.8706
10885TIP3   OH232595   6.628   2.654   0.332  0.3478  0.2297 -0.0454
10885TIP3    H132596   6.672   2.570   0.347  0.1186  0.0283 -0.5126
10885TIP3    H232597   6.699   2.714   0.309  0.6234  0.3753  1.1091
10886TIP3   OH232598   3.392   4.391   5.392 -0.0682  0.5671 -0.4816
10886TIP3    H132599   3.450   4.317   5.409 -1.2808 -0.0653  1.2466
10886TIP3    H232600   3.447   4.468   5.404  0.6055 -0.0241  0.3186
10887TIP3   OH232601   4.803   4.837   6.022 -1.3143 -0.7990 -0.1415
10887TIP3    H132602   4.846   4.834   5.937 -0.9696  0.7843 -0.0581
10887TIP3    H232603   4.818   4.926   6.053  0.5515 -1.9493  2.6261
10888TIP3   OH232604   6.908   0.465   2.380 -0.0966 -0.4771  0.2957
10888TIP3    H132605   6.972   0.396   2.362  0.3143 -0.6556  2.2352
10888TIP3    H232606   6.876   0.446   2.468  0.6039  2.2186  1.2265
10889TIP3   OH232607   4.967   7.707   0.544  0.0142 -0.0739  0.1050
10889TIP3    H132608   5.002   7.788   0.579  2.1317 -1.5847  1.7329
10889TIP3    H232609   5.036   7.674   0.486 -0.6003 -0.9788 -0.1350
10890TIP3   OH232610   5.000   1.156   2.014 -0.1219  0.1132 -0.0953
10890TIP3    H132611   5.051   1.076   2.022  0.3755  0.4985  0.8281
10890TIP3    H232612   5.013   1.201   2.098 -2.2524  0.0747  0.3047
10891TIP3   OH232613   2.863   1.751   1.393  0.1818 -0.5966 -0.5723
10891TIP3    H132614   2.888   1.829   1.443 -2.7795 -0.4392  0.8483
10891TIP3    H232615   2.810   1.785   1.321 -0.3470 -1.2271 -0.4867
10892TIP3   OH232616   2.878   5.961   1.742 -0.1403 -0.2543  0.2626
10892TIP3    H132617   2.896   5.981   1.834 -0.6802 -0.2775  0.3770
10892TIP3    H232618   2.793   6.002   1.725  1.2812  2.4200 -1.0771
10893TIP3   OH232619   1.306   7.625   4.542  0.8933  0.3529 -0.0400
10893TIP3    H132620   1.286   7.695   4.604 -1.0219 -0.2992  0.1333
10893TIP3    H232621   1.256   7.647   4.464 -0.7333 -1.3910  0.4382
10894TIP3   OH232622   3.875   0.504   4.637  0.1192  0.3038  0.0974
10894TIP3    H132623   3.865   0.598   4.618 -2.4998 -0.0558 -0.8161
10894TIP3    H232624   3.792   0.466   4.607  1.5542 -2.4860 -0.5988
10895TIP3   OH232625   7.898   0.147   4.825  0.3238 -0.0330 -0.3704
10895TIP3    H132626   7.844   0.151   4.746  0.0640 -1.7512 -0.3189
10895TIP3    H232627   7.864   0.216   4.881 -1.5840 -0.7909 -0.5093
10896TIP3   OH232628   4.857   2.937   4.540  0.0982  0.3164  0.4912
10896TIP3    H132629   4.770   2.977   4.545 -0.0780  0.2564 -1.4782
10896TIP3    H232630   4.843   2.845   4.560 -0.8501 -0.3260 -2.7300
10897TIP3   OH232631   2.385   4.035   2.964  0.3465 -0.2100  0.1361
10897TIP3    H132632   2.426   3.955   2.998 -0.2562 -0.3072  0.6638
10897TIP3    H232633   2.441   4.106   2.994  0.4959 -0.3856  0.2776
10898TIP3   OH232634   7.860   0.665   1.305  0.0463  0.2317 -0.8541
10898TIP3    H132635   7.895   0.578   1.284 -1.4836 -0.6681  0.1263
10898TIP3    H232636   7.913   0.695   1.379  0.1971 -0.1521 -0.8014
10899TIP3   OH232637   1.117   2.824   6.532  0.4266  0.2749 -0.2238
10899TIP3    H132638   1.136   2.805   6.440 -0.5609  0.8739 -0.5754
10899TIP3    H232639   1.104   2.739   6.572  3.0155 -0.1377 -0.1055
10900TIP3   OH232640   4.818   0.158   0.406 -0.6787  0.6825  0.2874
10900TIP3    H132641   4.834   0.144   0.313 -0.8619 -0.9309  0.4736
10900TIP3    H232642   4.901   0.140   0.449 -0.8850  0.3212  0.5381
10901TIP3   OH232643   7.239   3.013   2.325 -0.3989  0.3804  0.4457
10901TIP3    H132644   7.249   2.975   2.413  0.3415  1.5131  0.8673
10901TIP3    H232645   7.146   3.007   2.307 -0.2868 -1.9454  0.3389
10902TIP3   OH232646   2.828   4.833   1.617 -0.1320  0.1067  0.1210
10902TIP3    H132647   2.875   4.878   1.686 -0.8562  1.4305 -0.2089
10902TIP3    H232648   2.776   4.902   1.575 -0.1172 -0.7583 -1.3889
10903TIP3   OH232649   0.357   6.321   1.328  0.2029  0.1861 -0.5272
10903TIP3    H132650   0.311   6.361   1.402  0.8659 -1.8961  1.1195
10903TIP3    H232651   0.299   6.251   1.298  1.0207 -0.6427 -0.2518
10904TIP3   OH232652   6.202   3.541   3.397 -0.5305  0.6399  0.4576
10904TIP3    H132653   6.246   3.487   3.332 -1.2086  0.5716  0.0453
10904TIP3    H232654   6.144   3.481   3.443 -0.5697  0.8285  0.6533
10905TIP3   OH232655   2.972   0.177   1.153  0.6345 -0.5847  0.2159
10905TIP3    H132656   2.989   0.119   1.079 -0.7342 -0.0015 -0.6014
10905TIP3    H232657   2.990   0.265   1.120  0.8607 -0.3853  0.8527
10906TIP3   OH232658   3.338   1.612   1.401 -0.7611 -0.0323  0.4927
10906TIP3    H132659   3.366   1.606   1.309 -1.2507 -0.9376  0.3958
10906TIP3    H232660   3.400   1.558   1.449 -0.1791  0.8679  0.7890
10907TIP3   OH232661   1.600   3.151   3.449 -0.3356  0.1976 -0.2755
10907TIP3    H132662   1.691   3.123   3.444 -0.4768 -0.2972 -0.0965
10907TIP3    H232663   1.570   3.152   3.358 -0.1081  0.5233 -0.3504
10908TIP3   OH232664   7.080   5.221   6.131 -0.5841  0.1489  0.8900
10908TIP3    H132665   7.166   5.179   6.135 -0.2601  0.8731  1.7361
10908TIP3    H232666   7.052   5.208   6.040  0.1852 -0.5451  0.7369
10909TIP3   OH232667   7.537   6.181   3.293 -0.4372 -0.2163 -0.4866
10909TIP3    H132668   7.599   6.243   3.331  0.2944 -1.2002 -0.0449
10909TIP3    H232669   7.473   6.166   3.363 -1.0470  0.5890 -0.8495
10910TIP3   OH232670   6.079   5.845   1.510  0.3863  0.2303 -0.5587
10910TIP3    H132671   6.060   5.904   1.583  2.1668  0.9857 -0.6492
10910TIP3    H232672   6.124   5.900   1.446 -0.0245 -0.7160 -1.6961
10911TIP3   OH232673   1.967   0.635   6.228  0.2013  0.3320  0.4441
10911TIP3    H132674   1.883   0.670   6.258 -0.7785 -1.8936  0.5438
10911TIP3    H232675   2.006   0.597   6.306  0.9341  0.6260  0.2300
10912TIP3   OH232676   7.290   0.052   4.200  0.4167 -0.1063 -0.0424
10912TIP3    H132677   7.380   0.086   4.201  0.2990  0.2047  0.3158
10912TIP3    H232678   7.244   0.104   4.266 -0.2456  0.3154 -0.8245
10913TIP3   OH232679   2.867   0.243   0.873  0.0569 -0.3501  0.6294
10913TIP3    H132680   2.906   0.292   0.800 -0.2109 -0.5671  0.3361
10913TIP3    H232681   2.933   0.176   0.894 -0.4994 -1.2924 -0.4604
10914TIP3   OH232682   2.889   0.623   2.620 -0.0867  0.0707  0.3305
10914TIP3    H132683   2.842   0.560   2.566 -0.5145  0.3816  0.3378
10914TIP3    H232684   2.845   0.619   2.705  0.8709 -0.7530  0.8142
10915TIP3   OH232685   2.313   1.893   1.956  0.2061 -0.1330 -0.7774
10915TIP3    H132686   2.236   1.851   1.994 -0.0200  0.3758 -0.6697
10915TIP3    H232687   2.312   1.867   1.864 -0.3995  0.3176 -0.9002
10916TIP3   OH232688   5.500   7.757   6.112 -0.0230 -0.3614  0.0085
10916TIP3    H132689   5.493   7.833   6.169 -1.9009 -0.1288 -0.4655
10916TIP3    H232690   5.437   7.774   6.042 -0.3999 -2.2890 -0.1673
10917TIP3   OH232691   2.217   3.180   6.580 -0.2121 -0.0438  0.0356
10917TIP3    H132692   2.228   3.260   6.528  0.2479 -0.5338 -0.6561
10917TIP3    H232693   2.199   3.112   6.515 -0.5145 -0.5172  0.6040
10918TIP3   OH232694   4.715   2.408   4.614 -0.1975  0.3143 -0.3349
10918TIP3    H132695   4.763   2.444   4.689 -0.3351 -1.0734  0.4592
10918TIP3    H232696   4.718   2.313   4.627  0.4071 -0.0039 -2.5083
10919TIP3   OH232697   6.675   2.993   4.600  0.1331  0.2443  0.0548
10919TIP3    H132698   6.673   2.914   4.653  0.6217 -0.4156 -0.8828
10919TIP3    H232699   6.742   3.048   4.643 -0.6724  0.4519  1.0871
10920TIP3   OH232700   2.099   4.223   0.090 -0.3169 -0.8221  0.1620
10920TIP3    H132701   2.075   4.249   0.178  1.2358  0.8306  0.1630
10920TIP3    H232702   2.151   4.143   0.102  0.6869 -0.0918  0.8678
10921TIP3   OH232703   4.578   6.329   2.728  0.2939 -0.5732  0.5562
10921TIP3    H132704   4.521   6.385   2.676  0.4066 -1.4767 -0.5643
10921TIP3    H232705   4.517   6.276   2.780  0.1421 -0.6060  0.3484
10922TIP3   OH232706   2.317   7.823   3.140  0.1383  0.1388 -0.1140
10922TIP3    H132707   2.402   7.779   3.137  1.0677  1.8323  0.3595
10922TIP3    H232708   2.257   7.757   3.176  1.0794 -1.2944 -1.0695
10923TIP3   OH232709   5.046   2.192   5.746  0.0590  0.0911 -0.1580
10923TIP3    H132710   5.126   2.203   5.797  0.5124  1.0080 -1.0169
10923TIP3    H232711   4.985   2.256   5.783 -1.3216 -2.4826  2.3499
10924TIP3   OH232712   5.345   2.159   1.193  0.1729 -0.1388 -0.6447
10924TIP3    H132713   5.380   2.212   1.121  0.3633  1.1779  0.3751
10924TIP3    H232714   5.403   2.179   1.267  0.4383 -2.0309 -0.2918
10925TIP3   OH232715   4.082   0.588   6.476 -0.0105 -0.4000 -0.2963
10925TIP3    H132716   3.990   0.583   6.450 -0.6106  0.9180  1.3553
10925TIP3    H232717   4.100   0.504   6.517 -0.4612 -0.6917 -0.6916
10926TIP3   OH232718   6.697   5.022   1.191 -0.0246 -0.4685 -0.6612
10926TIP3    H132719   6.691   4.926   1.191 -0.8052 -0.4849  1.6929
10926TIP3    H232720   6.765   5.041   1.256  0.2186  0.5910 -1.2087
10927TIP3   OH232721   0.173   5.750   5.216  0.3642  0.2304 -0.3023
10927TIP3    H132722   0.125   5.703   5.284  1.2872  1.1403  1.0210
10927TIP3    H232723   0.150   5.842   5.229  0.2931  0.3816 -1.4369
10928TIP3   OH232724   2.921   6.851   4.241  0.1046 -0.4886 -0.2204
10928TIP3    H132725   3.002   6.834   4.192  0.6839  0.2226  0.4669
10928TIP3    H232726   2.951   6.883   4.326 -0.8871  1.7569 -0.6470
10929TIP3   OH232727   4.912   6.049   2.291 -0.2369  0.4074 -0.1403
10929TIP3    H132728   4.985   5.987   2.295 -1.1847 -0.8989 -1.7860
10929TIP3    H232729   4.949   6.132   2.321  1.6195 -0.4694  0.1338
10930TIP3   OH232730   1.887   2.006   1.984  0.3938  0.3399  0.1479
10930TIP3    H132731   1.959   2.060   1.950 -1.2956  2.4177 -0.3461
10930TIP3    H232732   1.869   2.042   2.070 -0.8709  0.7325 -0.2559
10931TIP3   OH232733   4.767   5.143   2.503  0.0852  0.2200  0.1000
10931TIP3    H132734   4.680   5.183   2.516  0.1030  0.4575 -0.4909
10931TIP3    H232735   4.750   5.068   2.447  0.2546  0.2146  0.0571
10932TIP3   OH232736   3.386   3.911   5.122  0.0384  0.7731 -0.3470
10932TIP3    H132737   3.452   3.979   5.108  0.6314  0.3572  0.3304
10932TIP3    H232738   3.429   3.831   5.091 -0.7114  0.7232 -1.2859
10933TIP3   OH232739   6.583   3.571   6.390  0.1009  0.1646 -0.1610
10933TIP3    H132740   6.593   3.654   6.437 -0.0051 -0.2765  0.6561
10933TIP3    H232741   6.489   3.563   6.374  0.2572  1.0313 -1.8174
10934TIP3   OH232742   7.522   6.485   1.101 -0.3558 -0.2643 -0.1166
10934TIP3    H132743   7.549   6.450   1.016  1.0131 -1.0300  0.6027
10934TIP3    H232744   7.470   6.415   1.140 -2.0845  0.5715 -0.8036
10935TIP3   OH232745   1.730   5.201   6.322  0.3981  0.5552 -0.0346
10935TIP3    H132746   1.670   5.242   6.260 -0.5491  0.6210  0.9156
10935TIP3    H232747   1.674   5.157   6.385  1.3194  1.2321  1.3078
10936TIP3   OH232748   8.052   5.469   0.635  0.1240  0.7505  0.1036
10936TIP3    H132749   8.028   5.556   0.667 -1.0084  0.7678 -0.7382
10936TIP3    H232750   7.975   5.415   0.651  0.2789  0.2713 -0.6971
10937TIP3   OH232751   5.523   2.613   6.472  0.2118 -0.5918 -0.2479
10937TIP3    H132752   5.494   2.522   6.476  2.7607 -1.4624  0.0824
10937TIP3    H232753   5.529   2.632   6.378 -1.2441 -0.3814 -0.3325
10938TIP3   OH232754   1.995   3.680   0.614  0.0981 -0.2995  0.0652
10938TIP3    H132755   2.040   3.755   0.654  0.8623  0.5632 -2.2539
10938TIP3    H232756   2.065   3.621   0.588 -0.4540 -1.3745  0.9568
10939TIP3   OH232757   1.841   4.289   5.709 -0.6347  0.1308  0.3421
10939TIP3    H132758   1.920   4.245   5.739  0.2113  2.2778  1.4736
10939TIP3    H232759   1.825   4.357   5.774 -2.3912  0.9102 -0.8157
10940TIP3   OH232760   2.112   3.635   3.216  0.3253 -0.5387 -0.6016
10940TIP3    H132761   2.039   3.646   3.155  0.4827 -1.9812 -1.0678
10940TIP3    H232762   2.083   3.568   3.277  0.5718  0.1670  0.3107
10941TIP3   OH232763   4.415   5.053   6.707 -0.2449  0.6300  0.5904
10941TIP3    H132764   4.322   5.047   6.687 -0.0323 -0.2839 -0.1810
10941TIP3    H232765   4.457   4.995   6.645  0.9386  1.6813  0.3644
10942TIP3   OH232766   2.492   1.384   1.695  0.4086 -0.3671  0.0114
10942TIP3    H132767   2.584   1.358   1.698 -0.4488 -3.8689 -0.1106
10942TIP3    H232768   2.479   1.434   1.776  2.3165 -0.0715  0.1845
10943TIP3   OH232769   6.709   2.330   5.626 -0.2515 -0.2175 -0.2097
10943TIP3    H132770   6.734   2.423   5.625 -3.1740  0.6743 -1.4019
10943TIP3    H232771   6.777   2.286   5.576 -0.1372  1.7480 -1.8899
10944TIP3   OH232772   6.114   4.639   1.338  0.2440  0.2419 -0.3970
10944TIP3    H132773   6.179   4.709   1.336  1.1182 -0.5001  0.8298
10944TIP3    H232774   6.080   4.640   1.427 -0.4412 -0.2760 -0.6394
10945TIP3   OH232775   5.033   6.582   6.652  0.0614 -0.7471 -0.5530
10945TIP3    H132776   5.122   6.576   6.687  0.0717 -0.3269 -0.5092
10945TIP3    H232777   5.032   6.663   6.601 -0.2347 -0.8589 -0.7277
10946TIP3   OH232778   4.737   5.352   2.994 -0.0796 -0.1097 -0.0173
10946TIP3    H132779   4.669   5.323   2.932 -0.2359 -0.0111  0.1073
10946TIP3    H232780   4.770   5.434   2.956 -0.3050  0.0487  0.1235
10947TIP3   OH232781   3.521   5.785   5.129  0.3811 -0.6895 -0.6945
10947TIP3    H132782   3.576   5.746   5.061  0.7388 -0.8184 -0.3394
10947TIP3    H232783   3.577   5.784   5.207  0.5897  1.0114 -0.7891
10948TIP3   OH232784   7.686   5.899   0.777 -0.1767 -0.4770  0.0115
10948TIP3    H132785   7.734   5.980   0.797  0.6589 -0.6295 -1.2660
10948TIP3    H232786   7.750   5.844   0.731 -1.2092 -1.2297 -0.5621
10949TIP3   OH232787   7.223   3.218   1.286  0.3822 -0.1371  0.0890
10949TIP3    H132788   7.274   3.298   1.274  0.8542 -0.1112  1.9191
10949TIP3    H232789   7.133   3.244   1.264  0.5528  0.8757  0.5225
10950TIP3   OH232790   2.316   5.366   1.863 -0.4593  0.1029  0.4091
10950TIP3    H132791   2.366   5.413   1.930 -0.4833  2.0279 -0.8471
10950TIP3    H232792   2.377   5.299   1.830  0.2873  0.5543  0.8489
10951TIP3   OH232793   1.189   6.458   6.508 -0.1319  0.0257  0.3526
10951TIP3    H132794   1.107   6.435   6.465 -1.1874 -0.3116  2.4337
10951TIP3    H232795   1.178   6.549   6.535  1.2937  0.8916 -1.6836
10952TIP3   OH232796   5.743   7.345   0.350  0.3124 -0.5748 -0.2250
10952TIP3    H132797   5.789   7.429   0.360  0.4670 -0.7027  0.1492
10952TIP3    H232798   5.682   7.360   0.278 -1.4837  0.6825  1.4434
10953TIP3   OH232799   5.959   5.930   5.693 -0.1635  0.0656 -0.4678
10953TIP3    H132800   5.882   5.983   5.714 -1.4798 -2.0219  0.3030
10953TIP3    H232801   6.015   5.939   5.770  0.2428  1.3519 -0.8992
10954TIP3   OH232802   3.700   3.493   2.723 -0.2829 -0.0089 -0.0137
10954TIP3    H132803   3.716   3.399   2.713 -0.6774  0.0586 -1.4430
10954TIP3    H232804   3.634   3.514   2.657  1.7599  1.7776 -1.6665
10955TIP3   OH232805   8.129   0.086   0.158  0.2362  0.2823  0.7135
10955TIP3    H132806   8.110   0.099   0.251 -1.6576  0.2035  0.3776
10955TIP3    H232807   8.047   0.053   0.121  1.0518 -0.0124 -0.9305
10956TIP3   OH232808   5.096   7.190   0.290  0.0599  0.2494  0.2764
10956TIP3    H132809   5.153   7.267   0.280 -0.2844  0.7027  1.6334
10956TIP3    H232810   5.008   7.223   0.273 -0.2707  0.5351  2.3270
10957TIP3   OH232811   1.142   2.300   6.746  0.5547 -0.0068 -0.0643
10957TIP3    H132812   1.098   2.267   6.667  0.6104  0.1939 -0.1815
10957TIP3    H232813   1.138   2.227   6.808  0.6982 -0.2392 -0.3269
10958TIP3   OH232814   4.313   6.429   3.621  0.0300  0.3291  0.0920
10958TIP3    H132815   4.222   6.406   3.640  0.0998  0.1912  0.2658
10958TIP3    H232816   4.345   6.356   3.568  0.1708  0.1619  0.4081
10959TIP3   OH232817   0.343   5.826   0.566 -0.4675  0.0003 -0.6398
10959TIP3    H132818   0.309   5.766   0.632 -1.5828  0.2325 -0.9766
10959TIP3    H232819   0.407   5.774   0.517 -0.6141 -0.5784 -0.2246
10960TIP3   OH232820   4.614   5.598   0.141  0.2971 -0.0664 -0.6169
10960TIP3    H132821   4.654   5.512   0.127  1.6264  0.3798  0.2949
10960TIP3    H232822   4.669   5.640   0.207 -1.2606  0.8795  0.1301
10961TIP3   OH232823   5.867   4.501   3.173  0.3115  0.7305  0.2151
10961TIP3    H132824   5.787   4.448   3.174 -0.1404  1.4137  0.3223
10961TIP3    H232825   5.885   4.519   3.265 -0.2724  1.8511  0.1282
10962TIP3   OH232826   4.703   2.189   6.113  0.9534 -0.1782  0.1849
10962TIP3    H132827   4.717   2.159   6.024 -0.4478  1.4817 -0.6629
10962TIP3    H232828   4.727   2.282   6.111 -1.8654  0.6553  0.7095
10963TIP3   OH232829   3.306   1.580   0.318  0.0220 -0.5178  0.1477
10963TIP3    H132830   3.279   1.662   0.359 -0.8629 -0.4992 -0.4470
10963TIP3    H232831   3.254   1.513   0.363 -1.1764 -0.4679 -1.1077
10964TIP3   OH232832   1.249   1.209   6.548  0.0819 -0.1497  0.3314
10964TIP3    H132833   1.188   1.135   6.555 -0.3362 -0.1680 -2.4593
10964TIP3    H232834   1.335   1.168   6.541 -0.2493 -0.5565 -2.4906
10965TIP3   OH232835   0.715   6.669   2.636  0.1292  0.1739 -0.2414
10965TIP3    H132836   0.710   6.711   2.550  3.7167 -0.2801 -0.7939
10965TIP3    H232837   0.763   6.731   2.690 -0.7034 -0.2406  1.0070
10966TIP3   OH232838   2.983   2.714   5.546  0.4734  0.0201  0.4249
10966TIP3    H132839   2.959   2.797   5.506 -1.3663 -0.5993  0.1180
10966TIP3    H232840   2.977   2.730   5.641 -0.7078  0.0513  0.3641
10967TIP3   OH232841   4.025   6.205   3.501 -0.3244 -0.3000  0.0981
10967TIP3    H132842   4.028   6.183   3.408  1.5965  2.0076 -0.4914
10967TIP3    H232843   4.085   6.143   3.542  0.4921  0.0236 -0.5713
10968TIP3   OH232844   0.512   1.486   3.290 -0.4155  0.1588 -0.3998
10968TIP3    H132845   0.433   1.436   3.268 -1.5280  2.0268 -0.8352
10968TIP3    H232846   0.502   1.507   3.383 -0.5845  0.6429 -0.5251
10969TIP3   OH232847   0.381   4.933   2.543  0.0429  0.2135  0.6442
10969TIP3    H132848   0.310   4.939   2.608 -1.6477  1.4378 -1.2043
10969TIP3    H232849   0.336   4.931   2.459  2.2043  3.5131 -0.7742
10970TIP3   OH232850   0.061   4.202   3.233  0.0886  0.5284 -0.1803
10970TIP3    H132851   0.060   4.107   3.245  0.8266  0.4063 -0.8952
10970TIP3    H232852   0.151   4.221   3.205 -0.3451  1.2778 -1.1514
10971TIP3   OH232853   5.198   5.843   5.403  0.4768 -0.1394 -0.4141
10971TIP3    H132854   5.165   5.927   5.370 -1.0020 -1.4767 -2.5583
10971TIP3    H232855   5.214   5.791   5.324 -1.1113 -2.7783  0.8771
10972TIP3   OH232856   5.513   7.106   5.152  0.2192  0.2899 -0.2277
10972TIP3    H132857   5.501   7.054   5.073  0.1900  0.3167 -0.2410
10972TIP3    H232858   5.598   7.148   5.140 -0.1998  1.0279 -0.6673
10973TIP3   OH232859   0.578   7.324   1.514 -0.2765  0.4665  0.5502
10973TIP3    H132860   0.650   7.262   1.500 -1.2162 -0.4110 -0.6274
10973TIP3    H232861   0.616   7.393   1.569  1.7411  0.5446 -0.8507
10974TIP3   OH232862   5.351   6.104   3.391  0.2068 -0.2011  0.2593
10974TIP3    H132863   5.435   6.058   3.385 -0.0424 -0.5880 -0.4287
10974TIP3    H232864   5.286   6.036   3.370 -0.1679  0.4697 -0.8436
10975TIP3   OH232865   3.595   2.182   4.629 -0.2597  0.2969  0.3183
10975TIP3    H132866   3.609   2.273   4.604 -2.2145  0.0919 -1.9049
10975TIP3    H232867   3.671   2.135   4.596  0.8798  1.1022  1.6993
10976TIP3   OH232868   1.240   3.318   3.471 -0.1060 -0.1622 -0.2785
10976TIP3    H132869   1.151   3.286   3.460 -0.2417 -0.2939  1.0314
10976TIP3    H232870   1.250   3.385   3.403 -1.5783  0.6326  0.2371
10977TIP3   OH232871   0.687   7.495   1.745  0.5074  0.1050 -0.2308
10977TIP3    H132872   0.778   7.499   1.714  1.0856 -2.8311  0.7247
10977TIP3    H232873   0.693   7.516   1.838  0.5458 -1.6074  0.2019
10978TIP3   OH232874   5.473   6.905   5.352  0.3396  0.6614 -0.1374
10978TIP3    H132875   5.507   6.983   5.308  2.7912 -1.6427 -2.8354
10978TIP3    H232876   5.443   6.849   5.280 -2.3753 -0.5104  1.7616
10979TIP3   OH232877   3.966   6.165   5.151  0.1163  0.2202  0.3957
10979TIP3    H132878   3.947   6.148   5.243 -0.3205  0.2381  0.3128
10979TIP3    H232879   4.060   6.185   5.148  0.3563 -0.7778  0.6961
10980TIP3   OH232880   1.227   7.509   3.778 -0.1078  0.2958  0.1139
10980TIP3    H132881   1.173   7.448   3.828  1.1656 -0.4616  0.6075
10980TIP3    H232882   1.315   7.500   3.815  0.7431  0.2170 -1.8042
10981TIP3   OH232883   4.617   0.358   4.598 -0.0416  0.2007 -0.1661
10981TIP3    H132884   4.638   0.267   4.578  2.5866  1.0445 -1.8066
10981TIP3    H232885   4.560   0.385   4.526  1.1088  0.4477 -1.0142
10982TIP3   OH232886   1.868   1.419   3.819  0.6157  0.6097 -1.0770
10982TIP3    H132887   1.803   1.459   3.760  0.5552  0.7745 -0.8994
10982TIP3    H232888   1.861   1.470   3.900  0.5532  0.2496 -0.8566
10983TIP3   OH232889   0.645   7.224   6.146 -0.2681 -0.3086 -0.1106
10983TIP3    H132890   0.693   7.249   6.225 -0.0040  1.2075 -0.7265
10983TIP3    H232891   0.553   7.218   6.175  0.1813 -3.5017  1.1387
10984TIP3   OH232892   6.200   5.115   0.190 -0.1112  0.3713 -0.0208
10984TIP3    H132893   6.234   5.025   0.189  0.1645  0.3952  2.1349
10984TIP3    H232894   6.111   5.106   0.226 -0.5995  0.8444 -1.0658
10985TIP3   OH232895   8.151   7.514   5.228 -0.5756  0.7931  0.2395
10985TIP3    H132896   8.115   7.578   5.289  0.5598 -0.1095  1.9120
10985TIP3    H232897   8.124   7.429   5.263  0.4945  0.2369 -0.2302
10986TIP3   OH232898   5.381   1.215   1.081 -0.0794 -0.4308  0.0772
10986TIP3    H132899   5.326   1.292   1.068 -0.4616 -1.1139 -2.9120
10986TIP3    H232900   5.320   1.146   1.108 -0.3434 -0.5831 -0.8769
10987TIP3   OH232901   5.166   1.096   5.734 -0.2048 -0.6002 -0.0143
10987TIP3    H132902   5.253   1.087   5.775  0.2290  2.2258 -0.1077
10987TIP3    H232903   5.105   1.097   5.808  0.0338 -0.7805  0.1874
10988TIP3   OH232904   0.833   6.494   2.419  0.2188 -0.3116 -0.2531
10988TIP3    H132905   0.778   6.572   2.423  0.3047 -0.1920 -1.2255
10988TIP3    H232906   0.853   6.475   2.510 -0.8815  0.0289  0.0791
10989TIP3   OH232907   7.403   1.795   6.139 -0.1314 -0.1169  1.0004
10989TIP3    H132908   7.346   1.724   6.168 -1.8309 -0.1065 -1.9297
10989TIP3    H232909   7.442   1.763   6.057  0.3298  1.6946  0.4647
10990TIP3   OH232910   1.389   6.232   6.080 -0.4325 -0.6185 -0.1556
10990TIP3    H132911   1.326   6.162   6.093  0.6502 -1.4945  0.5232
10990TIP3    H232912   1.364   6.298   6.145 -0.4167 -1.1350  0.3858
10991TIP3   OH232913   5.402   4.240   0.534 -0.2596 -0.2860 -0.0650
10991TIP3    H132914   5.366   4.243   0.623  0.3470  2.3860  0.1775
10991TIP3    H232915   5.445   4.325   0.523  1.1555 -1.2140 -2.3251
10992TIP3   OH232916   7.502   4.816   5.168  0.0494 -0.1375 -0.1278
10992TIP3    H132917   7.428   4.843   5.115 -0.2400  0.2313  0.4491
10992TIP3    H232918   7.567   4.783   5.105  0.0261  0.9913 -0.7689
10993TIP3   OH232919   1.276   1.684   6.135  0.2221 -0.3281  0.0399
10993TIP3    H132920   1.365   1.687   6.098 -0.1250  0.4082 -0.7654
10993TIP3    H232921   1.241   1.772   6.119 -0.3551 -0.3592  1.1056
10994TIP3   OH232922   1.274   5.454   5.083  0.4990  0.1625  0.1306
10994TIP3    H132923   1.247   5.489   4.999 -2.3432 -0.3762  0.7352
10994TIP3    H232924   1.302   5.364   5.064  1.4134  0.5551 -0.4345
10995TIP3   OH232925   7.385   4.233   5.275 -0.3034  0.6172 -0.4981
10995TIP3    H132926   7.406   4.254   5.184 -0.9662 -0.7489 -1.0005
10995TIP3    H232927   7.355   4.142   5.272  0.7076  0.1820  1.2554
10996TIP3   OH232928   2.233   5.689   6.772  0.4590 -0.4187  0.2109
10996TIP3    H132929   2.207   5.655   6.687  3.0846 -0.1244 -0.8007
10996TIP3    H232930   2.163   5.749   6.797  0.7066  1.3698 -2.8995
10997TIP3   OH232931   4.519   3.026   1.282  0.2317 -0.0657 -0.3903
10997TIP3    H132932   4.555   3.090   1.220  0.2442  0.4968  0.1778
10997TIP3    H232933   4.585   3.023   1.352  0.6919 -1.4153 -0.8486
10998TIP3   OH232934   6.119   3.963   1.135 -0.1155  0.0141 -1.2921
10998TIP3    H132935   6.031   3.965   1.097 -0.5416  0.3342 -0.2983
10998TIP3    H232936   6.109   4.001   1.222  0.8812 -0.5525 -0.9122
10999TIP3   OH232937   4.700   2.791   5.639  0.7280 -0.3230  0.1129
10999TIP3    H132938   4.758   2.846   5.586  2.5015 -1.2613  1.0251
10999TIP3    H232939   4.758   2.730   5.684 -1.0374 -1.7657  0.5448
11000TIP3   OH232940   0.535   2.681   6.363 -0.5875  0.9818  0.4100
11000TIP3    H132941   0.467   2.746   6.346 -2.1023 -0.8210 -0.9309
11000TIP3    H232942   0.584   2.675   6.281 -0.1503  0.7832  0.6790
11001TIP3   OH232943   7.683   6.232   2.156  0.3956 -0.1453  0.2017
11001TIP3    H132944   7.718   6.289   2.087 -0.6558 -0.0270 -0.2502
11001TIP3    H232945   7.746   6.240   2.228 -0.3172  2.5457  0.6405
11002TIP3   OH232946   6.579   7.864   1.518 -0.2713  0.4016  0.2459
11002TIP3    H132947   6.551   7.777   1.490 -1.2285  0.7384  0.1043
11002TIP3    H232948   6.632   7.896   1.446 -1.6150  0.7299 -0.6364
11003TIP3   OH232949   7.260   6.996   0.145  0.0415  0.1250 -0.0105
11003TIP3    H132950   7.217   6.957   0.069 -0.9045 -0.4160  0.7803
11003TIP3    H232951   7.325   7.055   0.108 -0.2283 -0.3169 -1.2373
11004TIP3   OH232952   1.406   3.713   5.737  0.3523 -0.4020 -0.0894
11004TIP3    H132953   1.354   3.641   5.773 -0.2435  0.6680  1.2859
11004TIP3    H232954   1.372   3.791   5.781  0.2209  0.8797 -2.3471
11005TIP3   OH232955   4.333   1.292   0.279 -0.1957 -0.4268 -0.5789
11005TIP3    H132956   4.340   1.252   0.365  1.2101  1.0509  0.0405
11005TIP3    H232957   4.417   1.335   0.265 -0.4905 -0.3725 -2.5782
11006TIP3   OH232958   6.140   6.819   3.567  0.2538 -0.0357  0.5142
11006TIP3    H132959   6.114   6.829   3.475  1.2929 -0.3802  0.1685
11006TIP3    H232960   6.101   6.737   3.595 -0.5169  0.3344  0.5544
11007TIP3   OH232961   4.560   7.287   3.453  0.4077 -0.0259 -0.7176
11007TIP3    H132962   4.537   7.378   3.471 -1.3913 -0.4462 -0.6721
11007TIP3    H232963   4.524   7.270   3.366 -0.3178 -0.9984 -0.2491
11008TIP3   OH232964   2.862   0.102   5.489 -0.2387  0.0416 -0.3674
11008TIP3    H132965   2.852   0.191   5.524 -1.8586  0.0563 -0.7524
11008TIP3    H232966   2.776   0.062   5.503  0.1785 -1.1445 -1.0816
11009TIP3   OH232967   7.715   2.322   4.887  0.6509 -0.2152 -0.0037
11009TIP3    H132968   7.698   2.240   4.841 -1.2459  0.5028 -0.7007
11009TIP3    H232969   7.743   2.295   4.975  0.0869 -1.6189 -0.2294
11010TIP3   OH232970   5.669   5.793   1.925 -0.8555  0.0401 -0.2342
11010TIP3    H132971   5.655   5.879   1.965  1.8760 -0.0465  1.1792
11010TIP3    H232972   5.591   5.742   1.948 -2.0366  1.7944 -0.1944
11011TIP3   OH232973   3.045   0.888   5.710  0.0246 -0.3662  0.9848
11011TIP3    H132974   3.087   0.973   5.724  1.5794 -1.0613  0.6434
11011TIP3    H232975   3.016   0.890   5.619 -0.3707 -0.0312  1.1143
11012TIP3   OH232976   6.324   1.688   2.893  0.5888 -0.0327 -0.2944
11012TIP3    H132977   6.286   1.623   2.951 -2.2335 -0.5236 -2.4447
11012TIP3    H232978   6.394   1.642   2.847  1.4115 -0.2516  1.1278
11013TIP3   OH232979   7.852   0.342   4.232  0.0342  0.2040 -0.0377
11013TIP3    H132980   7.789   0.367   4.300 -0.9050 -0.1576 -0.7517
11013TIP3    H232981   7.820   0.386   4.153  1.5289  1.2339 -0.1163
11014TIP3   OH232982   2.085   1.731   4.253 -0.3654  0.2350  0.2943
11014TIP3    H132983   2.043   1.727   4.338  1.1993  0.1755  1.0966
11014TIP3    H232984   2.088   1.825   4.232 -0.0624  0.3055  0.6579
11015TIP3   OH232985   2.830   7.112   5.679 -0.4187 -0.4217  0.1716
11015TIP3    H132986   2.779   7.071   5.749  1.4193 -1.3238  1.0623
11015TIP3    H232987   2.921   7.107   5.710  0.2472  0.9388 -1.4234
11016TIP3   OH232988   7.742   3.235   0.877 -0.4887  0.1464 -0.0323
11016TIP3    H132989   7.824   3.200   0.910 -0.8620 -0.7252 -0.0147
11016TIP3    H232990   7.692   3.158   0.849 -1.0177  0.7151 -0.6911
11017TIP3   OH232991   7.360   5.719   6.482  0.3843  0.1582 -0.2679
11017TIP3    H132992   7.272   5.756   6.487  0.0809 -0.4983 -0.5700
11017TIP3    H232993   7.396   5.729   6.570  0.7311  2.1531 -0.5943
11018TIP3   OH232994   7.693   0.112   3.664 -0.2738  0.6326 -0.2258
11018TIP3    H132995   7.631   0.110   3.737  1.3903 -1.9434  1.2489
11018TIP3    H232996   7.773   0.149   3.701  0.7074 -1.0475 -0.5383
11019TIP3   OH232997   4.406   6.215   0.843 -0.1349  0.1646 -0.0104
11019TIP3    H132998   4.436   6.265   0.919 -0.8568 -0.3587  0.6215
11019TIP3    H232999   4.487   6.185   0.802  0.2541  0.0858  0.7895
11020TIP3   OH233000   1.849   4.531   6.439  0.2771  0.0422 -0.0568
11020TIP3    H133001   1.762   4.522   6.399  0.9116  0.0807 -1.4833
11020TIP3    H233002   1.850   4.465   6.508 -1.5204  1.2227  1.2020
11021TIP3   OH233003   4.418   4.192   5.860 -0.4403  0.1339  0.8273
11021TIP3    H133004   4.435   4.259   5.926  0.6253  2.2811 -1.4902
11021TIP3    H233005   4.331   4.211   5.827  0.0489  0.7159 -0.1657
11022TIP3   OH233006   2.305   2.947   3.965 -0.3108 -0.3649  0.6271
11022TIP3    H133007   2.254   2.974   3.888  0.9173  0.0785 -0.0712
11022TIP3    H233008   2.259   2.871   4.000 -1.5211  0.1127  0.1209
11023TIP3   OH233009   0.895   5.921   3.777 -0.0388 -0.2948 -0.3608
11023TIP3    H133010   0.843   5.954   3.850  0.4164  0.8957 -0.5520
11023TIP3    H233011   0.873   5.828   3.772 -0.9005 -0.1600  0.5901
11024TIP3   OH233012   2.672   6.567   2.592  0.4428  0.6597 -0.4808
11024TIP3    H133013   2.737   6.541   2.657  0.7494  0.4170 -0.8818
11024TIP3    H233014   2.666   6.493   2.532  0.6072  1.1027 -1.0691
11025TIP3   OH233015   5.081   0.482   3.912 -0.4257  0.0436 -0.7728
11025TIP3    H133016   4.998   0.434   3.912 -0.9009  0.8434 -0.8410
11025TIP3    H233017   5.070   0.549   3.979  0.9719 -1.1369  0.7370
11026TIP3   OH233018   7.255   4.069   4.372  0.1626 -0.1627  0.1412
11026TIP3    H133019   7.227   4.152   4.335  0.4808 -0.2355 -0.2677
11026TIP3    H233020   7.345   4.084   4.401  0.3762 -0.4874 -0.3370
11027TIP3   OH233021   2.968   0.904   5.245 -0.1763  0.8515  0.0392
11027TIP3    H133022   2.925   0.944   5.169 -0.4112 -1.4594 -1.1218
11027TIP3    H233023   3.044   0.859   5.209 -1.7779 -2.6535  0.6076
11028TIP3   OH233024   0.767   4.516   5.342  0.3721  0.0562  0.1446
11028TIP3    H133025   0.736   4.566   5.266 -0.0316  0.1250  0.3577
11028TIP3    H233026   0.863   4.523   5.336  0.3180  1.1250  0.3499
11029TIP3   OH233027   4.870   5.074   4.435 -0.2610  0.5865 -0.3335
11029TIP3    H133028   4.873   4.992   4.386 -0.8693 -0.3202  1.0667
11029TIP3    H233029   4.780   5.105   4.425 -0.4519  0.2784  0.3734
11030TIP3   OH233030   2.562   7.278   2.309 -0.1593  0.1584 -0.0851
11030TIP3    H133031   2.504   7.345   2.274  0.2705  0.2691 -0.5907
11030TIP3    H233032   2.597   7.316   2.389  1.7957  1.4558 -1.4903
11031TIP3   OH233033   2.261   2.608   1.425 -0.0616  0.0557  0.0881
11031TIP3    H133034   2.321   2.599   1.498 -2.6050  1.1203  2.4723
11031TIP3    H233035   2.211   2.527   1.424 -1.2607  0.7624  0.7600
11032TIP3   OH233036   3.730   4.706   3.688  0.4417 -0.3083 -0.1807
11032TIP3    H133037   3.734   4.612   3.708 -0.9177 -0.1030  1.3014
11032TIP3    H233038   3.636   4.725   3.688  0.6849  0.9574 -1.0191
11033TIP3   OH233039   1.191   5.814   1.937 -0.1944  0.1200 -0.1693
11033TIP3    H133040   1.147   5.779   1.860 -1.0607  0.5307  0.1356
11033TIP3    H233041   1.218   5.737   1.986 -0.6883 -0.1295 -0.2878
11034TIP3   OH233042   5.467   4.441   5.474  0.0950 -0.5665  0.0777
11034TIP3    H133043   5.484   4.424   5.381  0.5619 -0.4492  0.1389
11034TIP3    H233044   5.553   4.441   5.515  0.0721  1.1798  0.2008
11035TIP3   OH233045   7.822   0.934   4.370  0.0233 -0.1167  0.7522
11035TIP3    H133046   7.738   0.887   4.374  0.1115 -0.4458 -0.7090
11035TIP3    H233047   7.820   0.978   4.286  1.2517  0.0174  0.7817
11036TIP3   OH233048   7.975   5.490   6.597  0.4112  0.5477  0.5224
11036TIP3    H133049   8.016   5.577   6.599 -1.2797  1.3968  0.2549
11036TIP3    H233050   7.969   5.465   6.689  0.3160  1.0297  0.6536
11037TIP3   OH233051   0.988   1.970   0.617 -0.0239 -0.3140 -0.0098
11037TIP3    H133052   0.986   1.895   0.676  0.2975 -0.5952 -0.3590
11037TIP3    H233053   1.036   2.037   0.666  0.6588 -0.7028 -0.1262
11038TIP3   OH233054   0.811   7.004   6.043 -0.2553  0.2000 -0.2333
11038TIP3    H133055   0.744   7.071   6.054 -1.1199 -0.3713 -1.6709
11038TIP3    H233056   0.765   6.922   6.062  0.6227 -0.0502  0.8873
11039TIP3   OH233057   1.076   6.742   0.672 -0.9249 -0.4097  0.0141
11039TIP3    H133058   1.022   6.672   0.710  0.2146 -1.9990 -1.1937
11039TIP3    H233059   1.162   6.703   0.661 -0.7506  0.5219 -2.5723
11040TIP3   OH233060   7.589   0.102   1.602 -0.1959  0.4116  0.3251
11040TIP3    H133061   7.679   0.089   1.634 -0.1066  1.4906  0.5831
11040TIP3    H233062   7.599   0.114   1.507 -0.3029 -1.3940  0.0597
11041TIP3   OH233063   8.182   7.049   5.095  0.0225 -0.2272 -0.0281
11041TIP3    H133064   8.217   7.013   5.177 -0.3753  0.6110  0.5334
11041TIP3    H233065   8.254   7.100   5.058  0.1564 -0.4870 -0.1269
11042TIP3   OH233066   2.748   5.017   2.934 -0.1498 -0.5061  0.3280
11042TIP3    H133067   2.674   5.009   2.873  0.9203  0.2543 -1.1064
11042TIP3    H233068   2.706   5.017   3.020 -1.7792 -0.7768 -0.4081
11043TIP3   OH233069   3.962   2.599   2.668  0.9728 -0.0352  0.2088
11043TIP3    H133070   3.911   2.650   2.731  0.3966 -0.3641  0.0202
11043TIP3    H233071   3.919   2.615   2.584  0.6283 -1.0195  0.1864
11044TIP3   OH233072   8.400   1.512   5.655  0.0674 -0.5079  0.8761
11044TIP3    H133073   8.338   1.578   5.686  0.9670  0.8728 -0.1339
11044TIP3    H233074   8.428   1.465   5.733  0.7709  1.5247  1.9102
11045TIP3   OH233075   1.314   1.953   4.689  0.0779 -0.3683 -0.2932
11045TIP3    H133076   1.335   1.952   4.782 -0.2106 -2.8494 -0.2041
11045TIP3    H233077   1.392   1.991   4.647 -0.0326  1.3632  0.9532
11046TIP3   OH233078   7.461   2.890   6.250 -0.0772 -0.3567  0.1537
11046TIP3    H133079   7.450   2.814   6.306 -1.1959 -0.9026 -0.7534
11046TIP3    H233080   7.372   2.915   6.226  0.3316  0.4267 -0.6133
11047TIP3   OH233081   6.986   6.210   5.609  0.1291 -0.0196  0.5029
11047TIP3    H133082   7.041   6.165   5.674  0.5088  0.3293  0.4322
11047TIP3    H233083   6.941   6.139   5.563  0.2864 -0.3001  0.7727
11048TIP3   OH233084   6.708   2.432   1.072 -0.3130  0.0436  0.0849
11048TIP3    H133085   6.616   2.414   1.053 -0.3442 -0.6247  0.8326
11048TIP3    H233086   6.717   2.418   1.166  0.5229  0.2478  0.0457
11049TIP3   OH233087   1.177   5.013   1.333  0.1121 -0.5520 -0.0251
11049TIP3    H133088   1.136   4.999   1.248 -0.5011  1.4234 -0.1159
11049TIP3    H233089   1.108   4.997   1.396 -0.4048  1.1216 -0.1013
11050TIP3   OH233090   7.709   0.834   5.958 -0.2039  0.3643 -0.1530
11050TIP3    H133091   7.751   0.852   6.042  1.1778 -1.6141 -0.3438
11050TIP3    H233092   7.616   0.825   5.979 -0.0773  1.2925  0.9042
11051TIP3   OH233093   4.158   1.316   5.453 -0.8193 -0.1842 -0.1268
11051TIP3    H133094   4.176   1.229   5.417 -1.3745 -0.7519  0.9228
11051TIP3    H233095   4.098   1.356   5.389  0.4752 -0.0202 -1.2998
11052TIP3   OH233096   6.082   4.865   5.670 -0.6419  0.2173  0.1261
11052TIP3    H133097   6.134   4.788   5.648 -0.5781  0.3364 -0.1434
11052TIP3    H233098   5.994   4.845   5.636 -0.8228 -0.0642  0.7495
11053TIP3   OH233099   7.865   2.912   4.985 -0.4767  0.1063  0.6099
11053TIP3    H133100   7.782   2.928   4.941 -1.0756 -1.3250  1.1525
11053TIP3    H233101   7.846   2.842   5.047  1.5718 -1.7552 -0.6900
11054TIP3   OH233102   0.899   5.068   5.815 -0.0877  0.4328  0.0137
11054TIP3    H133103   0.894   5.152   5.859  2.3219  0.2513  0.7973
11054TIP3    H233104   0.867   5.005   5.879  1.8377  0.3668  0.9961
11055TIP3   OH233105   6.444   7.330   3.710 -0.0145 -0.2446  0.5996
11055TIP3    H133106   6.388   7.254   3.726  0.9236 -0.7265  1.8189
11055TIP3    H233107   6.448   7.374   3.795  0.0477  0.7654  0.0858
11056TIP3   OH233108   6.976   7.688   3.002  0.2233  0.0547  0.4838
11056TIP3    H133109   6.968   7.784   3.002 -1.0320 -0.0149 -0.7829
11056TIP3    H233110   7.037   7.669   2.931 -1.2641 -0.1476 -0.7958
11057TIP3   OH233111   5.571   0.056   1.535 -0.3294  0.1312  0.2460
11057TIP3    H133112   5.660   0.028   1.513 -0.5399  0.4189 -1.0048
11057TIP3    H233113   5.547   0.000   1.609  1.5405  1.2413  1.8227
11058TIP3   OH233114   3.275   7.675   2.095  0.0156  0.4113  0.0877
11058TIP3    H133115   3.249   7.764   2.071 -0.6679  0.5749  1.3613
11058TIP3    H233116   3.217   7.619   2.043 -1.3488  0.7623  1.1452
11059TIP3   OH233117   6.050   4.608   5.986  0.0905 -0.2330 -0.2483
11059TIP3    H133118   6.002   4.688   5.966  0.9746  0.4189  0.1539
11059TIP3    H233119   6.083   4.578   5.901  0.7374  0.4920 -0.2669
11060TIP3   OH233120   2.188   2.144   4.928  0.2419 -0.2486 -0.2807
11060TIP3    H133121   2.224   2.232   4.935 -0.4846  0.0793 -0.5168
11060TIP3    H233122   2.239   2.101   4.860  0.7263 -0.0757 -0.0250
11061TIP3   OH233123   6.943   3.996   2.377 -0.2707  0.0978 -0.1684
11061TIP3    H133124   6.927   4.089   2.393 -0.5368  0.1985 -1.0043
11061TIP3    H233125   6.915   3.953   2.458  2.4272  0.9706  1.3741
11062TIP3   OH233126   4.315   1.514   1.508 -0.2309  0.2322  0.3450
11062TIP3    H133127   4.263   1.439   1.537 -0.4013  0.6649  1.1827
11062TIP3    H233128   4.331   1.497   1.415 -1.7094 -0.0145  0.0993
11063TIP3   OH233129   2.241   3.806   2.759  0.1149  0.2487  0.5983
11063TIP3    H133130   2.285   3.890   2.747 -0.4919  1.0088  3.0028
11063TIP3    H233131   2.235   3.796   2.854 -0.4075 -2.2358  0.3689
11064TIP3   OH233132   3.910   5.497   1.305  0.3266  0.2810 -0.2673
11064TIP3    H133133   3.937   5.405   1.309 -0.3658  0.1049  0.9403
11064TIP3    H233134   3.928   5.524   1.215 -1.0629 -1.5436 -1.1614
11065TIP3   OH233135   0.258   7.122   0.048 -0.4880 -0.1981 -0.0437
11065TIP3    H133136   0.281   7.213   0.066  0.2280 -0.5378  0.8217
11065TIP3    H233137   0.163   7.119   0.057 -0.5304  0.4945 -0.2225
11066TIP3   OH233138   4.912   7.529   0.754 -0.1597 -0.1787 -0.1196
11066TIP3    H133139   4.998   7.497   0.781 -0.0352  1.4763  1.7122
11066TIP3    H233140   4.931   7.597   0.689 -0.0982 -0.0670  0.0143
11067TIP3   OH233141   3.037   6.167   0.730 -0.1509  0.1089 -1.0615
11067TIP3    H133142   3.111   6.106   0.731 -0.4204 -0.2365 -1.7174
11067TIP3    H233143   3.007   6.170   0.821  2.0600  1.9933 -0.2849
11068TIP3   OH233144   5.480   5.539   1.748  0.4823  0.2206  0.2744
11068TIP3    H133145   5.470   5.564   1.840 -2.4200  1.0910 -0.1494
11068TIP3    H233146   5.390   5.541   1.714  0.9833 -3.6015 -1.7280
11069TIP3   OH233147   5.395   1.568   4.818 -0.0016 -0.2024  0.1490
11069TIP3    H133148   5.343   1.549   4.897 -0.5801  2.2809  0.4663
11069TIP3    H233149   5.424   1.659   4.830  0.2244  0.1245 -2.3267
11070TIP3   OH233150   1.469   4.465   0.872 -0.3228 -0.1314  0.2887
11070TIP3    H133151   1.481   4.454   0.778  1.6435 -0.5861  0.5394
11070TIP3    H233152   1.472   4.560   0.885 -1.5855 -0.0090 -0.1849
11071TIP3   OH233153   6.917   7.415   4.183 -0.0603  0.0624  0.0277
11071TIP3    H133154   6.978   7.350   4.219  0.2553  0.5510  0.3874
11071TIP3    H233155   6.830   7.377   4.198 -0.0098  0.7052  2.3068
11072TIP3   OH233156   3.775   5.295   5.988 -0.0957 -0.2512  0.1880
11072TIP3    H133157   3.820   5.379   5.978  0.9044 -0.9672 -1.7365
11072TIP3    H233158   3.684   5.314   5.967 -0.3689  0.7944  2.1125
11073TIP3   OH233159   7.439   4.802   4.248  0.0457  0.4384 -0.6481
11073TIP3    H133160   7.506   4.734   4.247 -0.6717 -0.4233  1.9885
11073TIP3    H233161   7.373   4.772   4.186 -0.1265 -1.1791  0.2630
11074TIP3   OH233162   5.405   3.517   1.408 -0.6168 -0.1237 -0.0223
11074TIP3    H133163   5.496   3.508   1.380 -0.3739 -1.4254  1.0935
11074TIP3    H233164   5.363   3.436   1.381 -1.3008  0.2141  0.0075
11075TIP3   OH233165   5.874   1.912   4.282  0.2404  0.1322 -0.5542
11075TIP3    H133166   5.788   1.954   4.288  1.0361  2.1074 -1.9041
11075TIP3    H233167   5.911   1.920   4.369 -0.2383  0.8971 -0.4144
11076TIP3   OH233168   7.450   2.769   5.807 -0.0540  0.3783  0.0869
11076TIP3    H133169   7.388   2.732   5.870  2.1572  0.1366  2.2645
11076TIP3    H233170   7.535   2.735   5.834  1.1633  1.2895 -2.3242
11077TIP3   OH233171   2.831   7.213   1.734  0.9959  0.4154 -0.6140
11077TIP3    H133172   2.744   7.181   1.759  1.5408 -0.7998 -0.2177
11077TIP3    H233173   2.889   7.182   1.803  2.0567 -0.4885 -1.8652
11078TIP3   OH233174   6.302   7.107   3.864  0.0210  0.2628 -0.0614
11078TIP3    H133175   6.385   7.129   3.908  0.3706  1.0324 -1.0667
11078TIP3    H233176   6.308   7.013   3.850  0.6222  0.2661  0.1033
11079TIP3   OH233177   5.829   6.808   1.609  0.0713 -0.0159 -0.3639
11079TIP3    H133178   5.786   6.865   1.672  0.9171  0.5419 -0.2676
11079TIP3    H233179   5.863   6.868   1.542  1.6088 -0.3054  0.1110
11080TIP3   OH233180   1.564   7.049   2.126 -0.2649  0.0051  0.0083
11080TIP3    H133181   1.560   7.067   2.220 -0.2763 -1.2304  0.2650
11080TIP3    H233182   1.488   7.094   2.090  2.1792  4.5292 -0.2131
11081TIP3   OH233183   3.303   3.881   1.277 -0.0832 -0.2529  0.5753
11081TIP3    H133184   3.361   3.948   1.312  0.5274 -1.3417  1.7276
11081TIP3    H233185   3.272   3.916   1.194  0.0380  1.5371  1.2573
11082TIP3   OH233186   0.928   0.831   1.012 -0.3563  0.6796 -0.3213
11082TIP3    H133187   0.989   0.841   1.084  1.6414 -3.4171 -1.1784
11082TIP3    H233188   0.850   0.791   1.051 -0.6920  1.6259  0.0181
11083TIP3   OH233189   4.129   5.914   4.869  0.1489 -0.2194  0.6256
11083TIP3    H133190   4.208   5.861   4.873  0.8861  0.7432 -0.3811
11083TIP3    H233191   4.159   6.001   4.842 -1.4909 -0.6306 -3.3489
11084TIP3   OH233192   7.373   5.887   1.154 -0.4946  0.3049  0.6846
11084TIP3    H133193   7.398   5.796   1.167  0.2619  0.2354 -0.9883
11084TIP3    H233194   7.453   5.930   1.124 -0.9523  1.4176  1.0077
11085TIP3   OH233195   0.078   0.229   5.058  0.1405  0.1841 -0.3613
11085TIP3    H133196   0.072   0.135   5.077 -0.9847  0.3173  0.0019
11085TIP3    H233197   0.076   0.234   4.962  0.5422 -0.1684 -0.3943
11086TIP3   OH233198   3.498   0.455   1.999  0.0243  0.4396 -0.2037
11086TIP3    H133199   3.525   0.453   1.907  0.9203  1.0561  0.0278
11086TIP3    H233200   3.430   0.523   2.002 -1.0398 -0.5734 -0.6503
11087TIP3   OH233201   5.623   6.088   1.104 -0.4365  0.8221 -0.6322
11087TIP3    H133202   5.543   6.124   1.065 -0.6108 -0.3136 -1.3576
11087TIP3    H233203   5.602   5.996   1.122  0.8402  0.3781 -1.2599
11088TIP3   OH233204   7.937   1.975   2.184  0.5066  0.5791 -0.2128
11088TIP3    H133205   7.856   1.964   2.234  0.9581  0.9598  0.6307
11088TIP3    H233206   7.919   1.934   2.099  0.8715 -3.5509  1.4590
11089TIP3   OH233207   5.799   0.365   6.767 -0.1266 -0.3775  0.2487
11089TIP3    H133208   5.755   0.410   6.695  0.7617 -0.3926 -0.3148
11089TIP3    H233209   5.774   0.273   6.757  0.0942 -0.3985 -0.1153
11090TIP3   OH233210   0.600   1.722   4.538 -0.2045  0.2231  0.3377
11090TIP3    H133211   0.633   1.641   4.500  1.8148  0.4451  1.4482
11090TIP3    H233212   0.538   1.693   4.605 -0.2940 -0.3533  0.0101
11091TIP3   OH233213   6.995   3.086   2.159 -0.3582  0.5627  0.0933
11091TIP3    H133214   7.023   3.006   2.113 -1.5587 -0.0532  0.3806
11091TIP3    H233215   6.994   3.153   2.091  1.6731  0.6024  0.0625
11092TIP3   OH233216   4.548   7.868   5.627  0.6192 -0.2725 -0.0680
11092TIP3    H133217   4.557   7.852   5.533  1.6946 -0.6848  0.0925
11092TIP3    H233218   4.524   7.961   5.633 -1.4154 -0.6890 -0.8104
11093TIP3   OH233219   6.684   5.208   5.437  0.1474  0.4045  0.1914
11093TIP3    H133220   6.766   5.248   5.467  1.2564 -0.2274 -1.8312
11093TIP3    H233221   6.619   5.277   5.447  1.2301  1.4286  0.4275
11094TIP3   OH233222   2.512   6.157   3.861 -0.2728  0.2388 -0.5596
11094TIP3    H133223   2.451   6.085   3.872  0.4616 -0.2337  0.5603
11094TIP3    H233224   2.587   6.118   3.815  0.0591  0.3208 -0.0935
11095TIP3   OH233225   0.499   3.547   0.635 -0.5087 -0.6509  0.0696
11095TIP3    H133226   0.537   3.620   0.683  0.2282 -0.7099 -0.4069
11095TIP3    H233227   0.443   3.588   0.569  0.4300 -0.4805 -0.6395
11096TIP3   OH233228   6.231   6.794   4.346 -0.2815  0.5027  0.3098
11096TIP3    H133229   6.145   6.818   4.311  0.3281  0.2949 -1.3939
11096TIP3    H233230   6.288   6.866   4.321  0.5530 -0.4832 -0.7009
11097TIP3   OH233231   5.495   5.065   1.593 -0.2585 -0.4803 -0.4856
11097TIP3    H133232   5.536   5.117   1.662  0.8104 -0.0953 -1.3801
11097TIP3    H233233   5.548   5.082   1.515  0.2589 -3.0287 -0.7867
11098TIP3   OH233234   7.279   1.543   6.307 -0.8271 -0.6521 -0.5429
11098TIP3    H133235   7.299   1.617   6.364 -1.9675 -1.9134  1.6242
11098TIP3    H233236   7.184   1.545   6.298 -0.7390 -1.0279 -1.6918
11099TIP3   OH233237   5.305   7.645   1.483 -0.6431  0.0955  0.3841
11099TIP3    H133238   5.233   7.637   1.421  0.6317  1.6184 -1.4400
11099TIP3    H233239   5.370   7.582   1.452  0.3438  1.4499 -0.4040
11100TIP3   OH233240   5.531   1.037   2.523 -0.4015 -0.4797  0.3015
11100TIP3    H133241   5.545   1.120   2.477 -0.3973 -0.9578 -0.5675
11100TIP3    H233242   5.553   0.970   2.459  0.8574 -1.1534  1.3899
11101TIP3   OH233243   3.272   7.180   2.529  0.6878 -0.0447  0.7358
11101TIP3    H133244   3.205   7.144   2.588 -0.5077  0.0426 -0.5043
11101TIP3    H233245   3.342   7.116   2.530  0.0517 -0.7578  1.1371
11102TIP3   OH233246   6.225   7.790   3.037 -0.0569 -0.5264  0.1626
11102TIP3    H133247   6.315   7.804   3.068 -0.9974  3.9488  1.5594
11102TIP3    H233248   6.183   7.741   3.107  0.5241  0.0275  0.9121
11103TIP3   OH233249   2.630   5.467   0.239 -0.3949  0.2499 -0.0787
11103TIP3    H133250   2.626   5.455   0.334 -0.4267  0.3998 -0.0606
11103TIP3    H233251   2.616   5.561   0.226 -1.5389  0.0677 -0.3007
11104TIP3   OH233252   4.286   1.715   2.751 -0.6093 -0.3147  0.2087
11104TIP3    H133253   4.332   1.632   2.764  0.1012  0.1608  0.8230
11104TIP3    H233254   4.221   1.717   2.821  1.6460  1.1619  2.4655
11105TIP3   OH233255   7.549   1.742   5.883 -0.5618 -0.0906 -0.6106
11105TIP3    H133256   7.517   1.652   5.895  0.6539 -0.5440 -0.5637
11105TIP3    H233257   7.573   1.746   5.790  1.2474 -0.4982 -0.2104
11106TIP3   OH233258   7.774   0.527   3.058 -0.1229 -0.4035  0.2056
11106TIP3    H133259   7.847   0.475   3.024 -1.1851 -1.9087  0.1479
11106TIP3    H233260   7.711   0.530   2.986 -0.3754  0.4135  0.4454
11107TIP3   OH233261   3.892   2.359   5.148  0.1630  0.2150  0.1693
11107TIP3    H133262   3.977   2.393   5.176  0.5036  0.0729 -0.6761
11107TIP3    H233263   3.879   2.396   5.061 -0.5780  0.1159  0.2355
11108TIP3   OH233264   3.051   5.515   0.582 -0.3522  0.6641 -0.2735
11108TIP3    H133265   3.066   5.475   0.496 -2.0752  2.1001 -1.3023
11108TIP3    H233266   3.111   5.589   0.583 -0.9179  1.1353 -0.6110
11109TIP3   OH233267   4.874   5.504   0.808  0.2435 -0.4295 -0.2717
11109TIP3    H133268   4.893   5.580   0.752  0.2787 -1.9194 -2.3974
11109TIP3    H233269   4.778   5.502   0.814  0.1771 -0.9695 -1.3516
11110TIP3   OH233270   7.533   7.637   1.299 -0.5581 -0.3007  0.3694
11110TIP3    H133271   7.584   7.718   1.296 -0.7411 -0.0898  2.1531
11110TIP3    H233272   7.512   7.625   1.391 -0.0079 -2.7171  0.2465
11111TIP3   OH233273   1.370   1.426   1.301  0.1340 -0.0391  0.2420
11111TIP3    H133274   1.420   1.503   1.273 -0.4261  0.6848  1.1798
11111TIP3    H233275   1.408   1.403   1.386  0.9604 -1.4293 -0.4573
11112TIP3   OH233276   3.395   1.659   2.622  0.6654  0.3021  0.1192
11112TIP3    H133277   3.445   1.587   2.660  2.5518  1.5479  0.1592
11112TIP3    H233278   3.313   1.660   2.671  0.7670 -1.5216  0.3892
11113TIP3   OH233279   3.558   1.488   5.626 -0.2507 -0.2391  0.4883
11113TIP3    H133280   3.564   1.511   5.533 -1.4455 -2.7129 -0.2673
11113TIP3    H233281   3.645   1.456   5.649  0.4509  1.6583  0.6559
11114TIP3   OH233282   6.320   5.888   5.667  0.1180  0.2109  0.4233
11114TIP3    H133283   6.263   5.964   5.662 -0.4163 -0.1620  0.7330
11114TIP3    H233284   6.261   5.814   5.677  0.6519 -0.1779  0.8079
11115TIP3   OH233285   8.113   0.793   3.746  0.7643 -0.1154  0.0164
11115TIP3    H133286   8.110   0.755   3.658  0.1284 -0.8151  0.3250
11115TIP3    H233287   8.172   0.735   3.794 -1.2784 -1.5932  0.8646
11116TIP3   OH233288   7.135   1.721   5.244  0.0643 -0.0160  0.7670
11116TIP3    H133289   7.171   1.646   5.197  1.4184  0.7240  0.5931
11116TIP3    H233290   7.041   1.720   5.223 -0.3405 -2.7608  2.3011
11117TIP3   OH233291   2.194   6.993   2.933  0.4077  0.0066  0.0064
11117TIP3    H133292   2.124   6.962   2.990 -0.9878  1.5050 -0.8008
11117TIP3    H233293   2.215   6.919   2.877  0.1488 -0.7554  0.9017
11118TIP3   OH233294   6.123   7.458   5.877 -0.6572  0.4964  0.1111
11118TIP3    H133295   6.062   7.447   5.803  0.5833  0.2142 -0.9139
11118TIP3    H233296   6.145   7.368   5.903 -0.5477  0.5913  0.3451
11119TIP3   OH233297   3.998   1.467   4.305 -0.3391 -0.9821  0.0481
11119TIP3    H133298   4.062   1.407   4.266 -0.0047 -0.6398  0.0655
11119TIP3    H233299   3.916   1.446   4.261 -0.2488 -1.5292  0.1314
11120TIP3   OH233300   1.617   4.849   5.793 -0.3405 -0.2566  0.0686
11120TIP3    H133301   1.651   4.938   5.792 -0.2940 -0.2404 -2.0905
11120TIP3    H233302   1.695   4.794   5.800 -0.4164 -0.1497  2.1043
11121TIP3   OH233303   5.725   5.879   5.190 -0.9048 -0.0470  0.0004
11121TIP3    H133304   5.639   5.921   5.186 -0.4402  0.8698 -0.9473
11121TIP3    H233305   5.767   5.919   5.266 -0.2462  1.7461 -1.2254
11122TIP3   OH233306   1.723   6.042   3.165 -0.7122 -0.4233 -0.2704
11122TIP3    H133307   1.702   5.995   3.245  2.8627 -0.6154  0.7510
11122TIP3    H233308   1.770   6.120   3.195  0.8363 -0.5573 -2.1480
11123TIP3   OH233309   7.422   0.781   1.424  0.1294  0.3178  0.5801
11123TIP3    H133310   7.344   0.812   1.378  0.2820  1.8730  1.2988
11123TIP3    H233311   7.389   0.717   1.487 -0.3217 -0.3546 -0.3172
11124TIP3   OH233312   8.014   1.528   5.927 -0.0573  0.1191  0.1661
11124TIP3    H133313   7.977   1.616   5.920  1.1774  0.6905  0.6917
11124TIP3    H233314   7.941   1.471   5.904 -0.6431  1.2949 -1.0335
11125TIP3   OH233315   6.607   3.056   1.472  0.5303  0.2589 -1.0961
11125TIP3    H133316   6.699   3.068   1.498  0.3403 -0.5399  0.0313
11125TIP3    H233317   6.565   3.020   1.550 -0.5965 -0.0596 -1.8293
11126TIP3   OH233318   4.575   0.376   2.169  0.3163 -0.0756 -0.5450
11126TIP3    H133319   4.492   0.343   2.136 -0.6274 -0.6785  2.2220
11126TIP3    H233320   4.642   0.321   2.127 -0.7605 -0.7015 -1.4898
11127TIP3   OH233321   8.192   1.501   3.348 -0.2529  0.6246  0.1788
11127TIP3    H133322   8.124   1.476   3.285 -1.6111  1.6941  1.1665
11127TIP3    H233323   8.165   1.460   3.430 -0.1276  1.6625  0.7575
11128TIP3   OH233324   3.921   3.354   6.046  0.1502 -0.9057 -0.1883
11128TIP3    H133325   3.980   3.427   6.024  0.5546 -1.3226 -0.5078
11128TIP3    H233326   3.849   3.361   5.984 -0.7533  0.2986  0.9340
11129TIP3   OH233327   4.573   2.852   4.715 -0.6356 -0.0402 -0.1624
11129TIP3    H133328   4.623   2.796   4.657  0.2314  1.1616 -0.6146
11129TIP3    H233329   4.482   2.844   4.685 -0.4911 -0.9669 -0.3803
11130TIP3   OH233330   1.854   3.379   4.094  0.4492 -0.2223 -0.1423
11130TIP3    H133331   1.856   3.322   4.017 -1.1808 -0.4770 -0.0323
11130TIP3    H233332   1.765   3.413   4.096  0.3344 -0.5308  1.8520
11131TIP3   OH233333   8.328   5.552   1.492  0.2645  0.7010  0.2524
11131TIP3    H133334   8.257   5.588   1.546 -0.0032  0.3579  0.1315
11131TIP3    H233335   8.283   5.501   1.425  0.6817 -0.9530  1.1949
11132TIP3   OH233336   8.100   4.982   2.731  0.3525 -0.0408  0.0901
11132TIP3    H133337   8.063   5.037   2.661 -0.5345 -0.5811  0.1119
11132TIP3    H233338   8.171   4.934   2.688  1.9379  1.9234  0.3486
11133TIP3   OH233339   3.304   0.983   5.511  0.3779 -0.1463  0.2755
11133TIP3    H133340   3.375   1.047   5.517 -1.2466  1.8343 -0.3463
11133TIP3    H233341   3.225   1.034   5.528 -0.9263 -2.2578  0.8346
11134TIP3   OH233342   1.536   4.196   0.473  0.2928  0.4360 -0.2709
11134TIP3    H133343   1.613   4.207   0.417  1.2205 -0.9016  0.6854
11134TIP3    H233344   1.475   4.144   0.420  0.4099  0.7325 -0.7030
11135TIP3   OH233345   4.597   3.139   3.040 -0.0360 -0.0295 -0.2824
11135TIP3    H133346   4.602   3.204   3.111  0.2938 -1.1659  0.7750
11135TIP3    H233347   4.503   3.132   3.021 -0.0704  0.8020 -0.4634
11136TIP3   OH233348   4.922   1.877   3.822 -0.4141 -0.3720  0.1044
11136TIP3    H133349   4.972   1.905   3.899  1.7091  1.6196 -1.8269
11136TIP3    H233350   4.944   1.784   3.812  1.9989  0.1471  0.0451
11137TIP3   OH233351   6.366   0.134   6.592  0.1166  0.2938  0.3996
11137TIP3    H133352   6.282   0.089   6.602  0.0374 -0.0572 -1.4259
11137TIP3    H233353   6.431   0.065   6.604  0.1205  0.3662  0.8206
11138TIP3   OH233354   6.459   3.286   2.430 -0.1812  0.8011 -0.4075
11138TIP3    H133355   6.404   3.298   2.352 -0.5112  0.1715 -0.2823
11138TIP3    H233356   6.491   3.196   2.423 -1.8378  0.0174  1.1820
11139TIP3   OH233357   2.113   2.257   3.844 -0.7478 -0.4345 -0.0821
11139TIP3    H133358   2.174   2.329   3.862 -1.7521  0.2796  0.4963
11139TIP3    H233359   2.103   2.212   3.927 -1.3616 -0.2750 -0.0681
11140TIP3   OH233360   3.516   1.408   5.908 -0.7963 -0.0130 -0.3610
11140TIP3    H133361   3.443   1.437   5.963 -2.5915  1.5854 -3.3163
11140TIP3    H233362   3.538   1.484   5.855  1.5024 -1.1691 -1.2309
11141TIP3   OH233363   6.986   7.000   6.669 -0.0657 -0.1651  0.5368
11141TIP3    H133364   6.937   7.077   6.640 -1.0180 -1.3028 -1.0127
11141TIP3    H233365   6.951   6.981   6.756 -0.2357  0.7910  0.6876
11142TIP3   OH233366   4.255   6.307   0.619 -0.1270  0.2782 -0.0951
11142TIP3    H133367   4.240   6.392   0.660 -1.2744 -0.0950  0.2942
11142TIP3    H233368   4.325   6.267   0.672 -1.2914 -0.0201  1.2862
11143TIP3   OH233369   6.048   6.715   6.519 -0.2696 -0.4288  0.0627
11143TIP3    H133370   6.014   6.676   6.600 -0.7647  0.3438  0.2437
11143TIP3    H233371   6.113   6.780   6.549 -0.9689  0.3684 -0.1077
11144TIP3   OH233372   7.398   4.451   2.005 -0.1649 -0.2381 -0.2574
11144TIP3    H133373   7.475   4.459   1.948 -1.2451  0.2333 -1.7346
11144TIP3    H233374   7.389   4.537   2.045 -0.5945  0.1012 -1.0434
11145TIP3   OH233375   7.012   3.683   1.340  0.2580  0.5473 -0.6789
11145TIP3    H133376   7.054   3.615   1.393  1.0154  1.7183  0.2645
11145TIP3    H233377   6.980   3.636   1.263  1.0454 -0.8226 -0.2103
11146TIP3   OH233378   4.499   2.242   2.706 -0.4950  0.2130 -0.2361
11146TIP3    H133379   4.558   2.247   2.631 -0.9627  1.4338 -0.5516
11146TIP3    H233380   4.466   2.153   2.705 -0.0525  0.0483 -1.1471
11147TIP3   OH233381   6.914   4.246   1.612  0.3145  0.1143  0.2398
11147TIP3    H133382   6.955   4.303   1.547 -1.5873  1.3804  0.0925
11147TIP3    H233383   6.920   4.295   1.694 -2.0241  0.9670 -0.0321
11148TIP3   OH233384   4.498   0.883   5.892 -0.1421 -0.4449 -0.9339
11148TIP3    H133385   4.456   0.936   5.960 -1.6130 -1.2483 -1.1602
11148TIP3    H233386   4.577   0.931   5.869  1.5928 -1.1626  2.8173
11149TIP3   OH233387   4.364   0.376   3.408  0.2667  0.6479  0.6033
11149TIP3    H133388   4.304   0.449   3.421  1.5750  1.4046  2.8856
11149TIP3    H233389   4.329   0.305   3.463  0.0267  0.1538 -0.1622
11150TIP3   OH233390   4.393   6.529   5.452  0.1753  0.2264  0.4493
11150TIP3    H133391   4.386   6.559   5.542  0.3754 -1.0860  0.9108
11150TIP3    H233392   4.361   6.603   5.400 -2.3041  0.1536  1.7069
11151TIP3   OH233393   3.081   4.605   6.277  0.0659  0.1865  0.3810
11151TIP3    H133394   3.139   4.559   6.216 -1.1130 -0.0690 -0.5676
11151TIP3    H233395   3.015   4.647   6.222 -0.6878  0.4484  1.4412
11152TIP3   OH233396   3.535   1.603   5.361 -0.1063 -0.0584  0.1461
11152TIP3    H133397   3.529   1.683   5.309 -0.8064 -0.3498 -0.2359
11152TIP3    H233398   3.475   1.543   5.319  1.6128 -1.3594 -0.5527
11153TIP3   OH233399   3.684   4.981   5.590 -0.3141  0.0540 -0.3808
11153TIP3    H133400   3.685   4.930   5.509  2.1685 -3.1339  1.4081
11153TIP3    H233401   3.649   4.920   5.656 -0.3294  1.8231  1.3258
11154TIP3   OH233402   0.951  -0.026   1.909 -0.0341 -0.1535  0.3744
11154TIP3    H133403   1.014   0.044   1.928  0.8071 -0.6579 -0.4780
11154TIP3    H233404   0.912  -0.001   1.826  0.6256 -0.9190 -0.1847
11155TIP3   OH233405   5.276   7.624   3.804 -0.1454  0.2274 -0.0235
11155TIP3    H133406   5.233   7.615   3.889  0.4832  0.1968  0.2938
11155TIP3    H233407   5.239   7.704   3.766  1.1098  1.4209  1.1865
11156TIP3   OH233408   0.147   6.062   4.095 -0.0502  0.0049 -0.2743
11156TIP3    H133409   0.091   6.039   4.169 -0.1220  0.9878 -0.0138
11156TIP3    H233410   0.160   6.156   4.102  1.1816 -0.1109 -0.6556
11157TIP3   OH233411   2.365   0.422   3.302  0.3034 -0.1499 -0.0935
11157TIP3    H133412   2.357   0.468   3.218 -0.2650 -1.1111 -0.5776
11157TIP3    H233413   2.284   0.374   3.312  1.6928 -2.8042 -0.6832
11158TIP3   OH233414   4.239   6.743   2.892  0.4727  0.3321  0.7652
11158TIP3    H133415   4.303   6.811   2.912  2.2123 -0.7291 -0.9293
11158TIP3    H233416   4.158   6.791   2.873  1.7263  1.9827 -0.7117
11159TIP3   OH233417   2.224   2.656   5.054 -0.2740  0.2195  0.3391
11159TIP3    H133418   2.218   2.566   5.088 -0.2633  0.4742  1.0267
11159TIP3    H233419   2.220   2.711   5.132  1.0450  0.7750  0.0241
11160TIP3   OH233420   2.005   5.923   3.575 -0.5306  0.4698 -0.3274
11160TIP3    H133421   1.954   6.000   3.599  0.1415  0.9604 -0.4191
11160TIP3    H233422   1.999   5.920   3.479 -1.3821 -0.1839 -0.2576
11161TIP3   OH233423   1.266   7.382   6.272 -0.3320  0.1029  0.9754
11161TIP3    H133424   1.318   7.433   6.211 -1.8728  0.7680  0.1553
11161TIP3    H233425   1.175   7.401   6.248 -1.0039  0.1788  3.2749
11162TIP3   OH233426   1.311   6.696   6.100 -0.0521 -0.0373 -1.0976
11162TIP3    H133427   1.229   6.738   6.071 -1.3079  0.2485  2.4069
11162TIP3    H233428   1.282   6.624   6.156  2.0301  1.1708  1.7097
11163TIP3   OH233429   4.144   6.110   0.848 -0.4941  0.2863 -0.8836
11163TIP3    H133430   4.143   6.016   0.829 -0.7652  0.5573 -2.2760
11163TIP3    H233431   4.237   6.133   0.850 -0.4562  0.2284 -1.7916
11164TIP3   OH233432   4.166   2.912   3.240  0.1917  0.5985 -0.1324
11164TIP3    H133433   4.081   2.954   3.254 -0.8723 -1.3136 -0.4843
11164TIP3    H233434   4.170   2.899   3.145  0.3758 -0.3052 -0.0036
11165TIP3   OH233435   3.089   2.134   4.148  0.3365  0.1691  0.2111
11165TIP3    H133436   3.143   2.155   4.072 -1.0330  2.4097 -0.2351
11165TIP3    H233437   3.141   2.162   4.223  0.2753  1.3266 -0.1534
11166TIP3   OH233438   5.023   1.241   0.989  0.0696 -0.1608 -0.4215
11166TIP3    H133439   5.035   1.201   1.075  0.4787  1.4566  0.3262
11166TIP3    H233440   5.084   1.315   0.989 -3.2382  2.8437 -0.1238
11167TIP3   OH233441   2.448   3.804   3.894 -0.3759 -0.1847 -0.5413
11167TIP3    H133442   2.513   3.789   3.962  0.7352  1.5477 -1.1665
11167TIP3    H233443   2.439   3.719   3.850  2.1371 -0.2612 -1.0154
11168TIP3   OH233444   5.919   4.460   6.186  0.0775  0.2973  0.1437
11168TIP3    H133445   5.880   4.518   6.251  0.9002  0.7971  0.1989
11168TIP3    H233446   5.987   4.513   6.144  0.4872 -0.4614 -0.1642
11169TIP3   OH233447   0.863   2.580   3.406 -0.5643  0.0862  0.6041
11169TIP3    H133448   0.938   2.594   3.465  1.2800 -0.4263 -1.4610
11169TIP3    H233449   0.836   2.489   3.423  0.0607 -0.1130  0.5659
11170TIP3   OH233450   0.036   7.805   0.209  0.0554 -0.1216 -0.1498
11170TIP3    H133451   0.017   7.781   0.300  0.2536  0.1796 -0.0261
11170TIP3    H233452   0.118   7.854   0.214  0.8015 -1.2753 -0.6557
11171TIP3   OH233453   0.774   3.760   2.510  0.1920  0.1802 -0.0885
11171TIP3    H133454   0.780   3.667   2.532 -0.9380  0.0349 -0.3502
11171TIP3    H233455   0.861   3.795   2.531  0.5166 -0.8527  0.3580
11172TIP3   OH233456   6.850   4.688   5.919  0.1798 -0.6447 -0.2296
11172TIP3    H133457   6.935   4.718   5.887 -0.2465  2.9911  1.5098
11172TIP3    H233458   6.864   4.677   6.014 -1.1611 -0.4499 -0.0001
11173TIP3   OH233459   4.116   1.714   4.362 -0.5012  0.3013  0.1080
11173TIP3    H133460   4.051   1.649   4.336 -0.3019  0.4173 -0.7076
11173TIP3    H233461   4.091   1.794   4.316 -1.0439  0.9652  1.5150
11174TIP3   OH233462   1.617   1.085   0.429  1.0180  0.1509 -0.3945
11174TIP3    H133463   1.672   1.007   0.432  0.1379 -0.4743  1.5195
11174TIP3    H233464   1.595   1.096   0.337  0.3553 -2.4717 -0.6204
11175TIP3   OH233465   1.773   3.476   2.792  0.4890  0.2159 -0.4834
11175TIP3    H133466   1.716   3.518   2.727 -0.0826  0.4939  0.1731
11175TIP3    H233467   1.860   3.513   2.775  0.7302 -1.0035 -2.1871
11176TIP3   OH233468   6.728   2.651   3.662 -0.1853  0.4832 -0.0048
11176TIP3    H133469   6.691   2.739   3.663 -2.0656 -0.2427  1.2127
11176TIP3    H233470   6.738   2.630   3.569 -0.7007  1.5891 -0.3290
11177TIP3   OH233471   6.493   6.636   1.922 -0.3608 -0.1697  0.3180
11177TIP3    H133472   6.559   6.612   1.857  1.0264 -0.6545  1.8405
11177TIP3    H233473   6.429   6.565   1.919 -1.4189  0.7704 -1.8462
11178TIP3   OH233474   4.654   6.743   3.789  0.1294 -0.3060  0.2405
11178TIP3    H133475   4.562   6.720   3.777 -0.4503  1.2730  1.4441
11178TIP3    H233476   4.679   6.786   3.707 -1.3468  2.6551  1.2038
11179TIP3   OH233477   0.568   2.266   0.183 -0.3342 -0.0169  0.3718
11179TIP3    H133478   0.610   2.236   0.103 -2.6664 -0.3052 -0.8434
11179TIP3    H233479   0.537   2.355   0.162 -0.8400 -0.0400  0.9959
11180TIP3   OH233480   7.982   5.085   2.482 -0.1711  0.1767  0.6623
11180TIP3    H133481   7.922   5.099   2.409  0.5772 -0.1956 -0.0470
11180TIP3    H233482   7.955   5.001   2.520  0.0133 -0.0945  0.2120
11181TIP3   OH233483   2.812   3.565   6.337  0.1950 -0.0292 -0.1760
11181TIP3    H133484   2.794   3.582   6.430  1.2907  1.8640 -0.2659
11181TIP3    H233485   2.797   3.649   6.294  1.8968 -0.2903 -1.3639
11182TIP3   OH233486   7.674   5.777   4.862  0.0697 -0.0989 -0.3476
11182TIP3    H133487   7.755   5.761   4.812 -0.9184  0.0247 -2.0695
11182TIP3    H233488   7.678   5.714   4.934  1.1032 -0.9779 -1.1340
11183TIP3   OH233489   4.016   0.170   5.101 -0.2148  0.0157 -0.0234
11183TIP3    H133490   3.992   0.241   5.161  1.2376 -0.2108  0.8623
11183TIP3    H233491   3.999   0.206   5.014 -0.9713  0.8798  0.4579
11184TIP3   OH233492   4.203   3.775   4.884 -0.2673 -0.0590  0.3541
11184TIP3    H133493   4.171   3.685   4.888 -0.0357 -0.1732 -0.1769
11184TIP3    H233494   4.210   3.794   4.790  0.4706  0.2265  0.4602
11185TIP3   OH233495   3.841   4.020   0.165  0.2665 -0.1461 -0.2716
11185TIP3    H133496   3.863   4.113   0.168  0.1309 -0.1113  2.5371
11185TIP3    H233497   3.762   4.013   0.219  0.4422 -1.9340 -0.1978
11186TIP3   OH233498   6.100   2.361   6.685 -0.1026 -0.5707 -0.0678
11186TIP3    H133499   6.195   2.357   6.680 -0.1281 -0.1708 -1.1811
11186TIP3    H233500   6.080   2.361   6.778  0.9953 -0.3970  0.1732
11187TIP3   OH233501   5.937   1.520   6.220  0.4023 -0.6335  0.0655
11187TIP3    H133502   5.869   1.497   6.284  1.0325  1.1046  1.4472
11187TIP3    H233503   6.012   1.466   6.243 -0.2653 -2.0842 -1.0520
11188TIP3   OH233504   4.985   6.879   3.415  0.0085 -0.2717 -0.1769
11188TIP3    H133505   4.986   6.955   3.473 -1.5719 -1.9635  2.2590
11188TIP3    H233506   5.046   6.817   3.454 -0.3417 -1.0876 -0.8807
11189TIP3   OH233507   0.046   6.658   4.005 -0.1279 -0.7648 -0.0488
11189TIP3    H133508   0.051   6.753   4.000  0.8246 -0.7329  1.1313
11189TIP3    H233509   0.052   6.629   3.914  0.4550  0.2615 -0.3498
11190TIP3   OH233510   5.344   3.637   5.292  0.6083  0.2856  0.1914
11190TIP3    H133511   5.272   3.642   5.231  1.2216  1.1543 -0.4955
11190TIP3    H233512   5.328   3.709   5.354 -0.6875 -1.3607  1.8631
11191TIP3   OH233513   5.875   7.545   5.912  0.1596 -0.1704 -0.1176
11191TIP3    H133514   5.855   7.624   5.861  0.9338  0.2367  0.1910
11191TIP3    H233515   5.963   7.561   5.947  0.2156 -1.0629  0.1629
11192TIP3   OH233516   4.982   1.620   3.738 -0.0890  0.2205  0.4278
11192TIP3    H133517   4.893   1.598   3.709 -0.7546  1.0959  1.6840
11192TIP3    H233518   5.036   1.548   3.707 -1.1464 -0.0660 -0.8315
11193TIP3   OH233519   6.820   4.955   2.496 -0.7282 -0.1110 -0.2068
11193TIP3    H133520   6.785   4.891   2.557  3.9521 -0.7319  2.2776
11193TIP3    H233521   6.843   5.030   2.551  1.5167  0.2592 -1.5219
11194TIP3   OH233522   2.047   0.308   5.509  0.0966 -0.0834  0.0726
11194TIP3    H133523   1.961   0.325   5.472  0.1108  0.2198  0.1720
11194TIP3    H233524   2.051   0.364   5.587  0.7917  0.7387 -0.5291
11195TIP3   OH233525   5.815   3.739   2.862  0.0772 -0.7159  0.0364
11195TIP3    H133526   5.770   3.789   2.794 -0.1528 -1.0465 -0.0608
11195TIP3    H233527   5.850   3.662   2.816  0.6920 -0.4957  0.1230
11196TIP3   OH233528   5.692   2.952   6.179  0.4669  0.2005 -0.1921
11196TIP3    H133529   5.762   2.985   6.235 -0.7112  0.4702  1.1792
11196TIP3    H233530   5.730   2.952   6.091  1.7685  1.5481  0.3209
11197TIP3   OH233531   0.896   1.374   5.762 -0.2032 -0.6957 -0.3893
11197TIP3    H133532   0.939   1.388   5.678 -1.0579 -1.4398 -0.9713
11197TIP3    H233533   0.816   1.426   5.757  1.5103  2.4059  1.4998
11198TIP3   OH233534   0.410   6.436   2.391  0.3516  0.2388 -0.1063
11198TIP3    H133535   0.464   6.504   2.350  0.3628  0.1539 -0.2331
11198TIP3    H233536   0.471   6.386   2.445  0.4317  0.0434 -0.3747
11199TIP3   OH233537   3.927   0.933   0.403  0.1471 -0.4270 -0.2117
11199TIP3    H133538   3.901   0.842   0.386  0.2524 -0.3710 -0.6691
11199TIP3    H233539   4.022   0.935   0.387  0.3113 -0.4526  0.7112
11200TIP3   OH233540   1.815   4.601   2.486  0.1593 -0.4381  0.2572
11200TIP3    H133541   1.905   4.572   2.472 -0.6448 -2.7966 -0.7075
11200TIP3    H233542   1.796   4.577   2.576  0.2107 -0.8596  0.1595
11201TIP3   OH233543   2.148   2.639   6.615 -0.1176  0.0823  0.4015
11201TIP3    H133544   2.218   2.704   6.623 -0.3318  0.2652  0.8084
11201TIP3    H233545   2.117   2.649   6.525 -0.6792  1.0970  0.6965
11202TIP3   OH233546   5.078   4.308   2.202 -0.0307 -0.3041  0.0044
11202TIP3    H133547   5.162   4.275   2.169 -0.3107 -0.2511 -0.7680
11202TIP3    H233548   5.075   4.278   2.293 -1.0814 -3.9903 -1.0843
11203TIP3   OH233549  -0.013   0.152   5.765  0.8695  0.3086  0.4181
11203TIP3    H133550   0.070   0.199   5.769  1.2616 -0.0171 -2.2299
11203TIP3    H233551   0.006   0.073   5.716 -0.9293  0.0086  0.1234
11204TIP3   OH233552   0.696   1.141   4.206 -0.1323 -0.4355 -0.0549
11204TIP3    H133553   0.781   1.129   4.247 -0.6928 -1.1510  0.9415
11204TIP3    H233554   0.716   1.155   4.114  0.9831 -2.6858 -0.2263
11205TIP3   OH233555   1.137   2.858   4.755 -0.0872  0.3555 -0.4496
11205TIP3    H133556   1.104   2.881   4.842  1.8896  3.2073 -0.3354
11205TIP3    H233557   1.215   2.805   4.771 -0.3789 -0.1276 -0.5686
11206TIP3   OH233558   5.669   2.552   3.681 -0.3389 -0.4290 -0.2728
11206TIP3    H133559   5.664   2.457   3.671 -0.4587 -0.3642 -0.8545
11206TIP3    H233560   5.578   2.580   3.688 -0.2931 -0.3838  0.2118
11207TIP3   OH233561   4.225   6.300   5.428  0.0747  0.2626 -0.5531
11207TIP3    H133562   4.203   6.283   5.337 -2.6462  0.8902 -0.1122
11207TIP3    H233563   4.290   6.370   5.425 -0.2543  0.5267 -2.0026
11208TIP3   OH233564   4.827   0.229   2.701 -0.2550  0.5666  0.3503
11208TIP3    H133565   4.816   0.199   2.610 -0.2889  0.9357  0.2326
11208TIP3    H233566   4.908   0.188   2.729  0.0660  0.9242 -0.0424
11209TIP3   OH233567   4.699   3.753   1.558 -0.8473 -0.4019 -0.3201
11209TIP3    H133568   4.622   3.777   1.507 -1.3222 -1.1366  0.0388
11209TIP3    H233569   4.666   3.740   1.646  0.4543  4.2536  1.1686
11210TIP3   OH233570   4.644   1.616   5.296  0.2682 -0.4357  0.4463
11210TIP3    H133571   4.713   1.613   5.362 -0.1388 -0.0215  0.8945
11210TIP3    H233572   4.568   1.650   5.342 -0.4482 -1.5596  0.1297
11211TIP3   OH233573   4.538   6.560   2.511 -0.0940  0.1631 -0.2638
11211TIP3    H133574   4.490   6.578   2.592  0.2706  0.9069 -0.2139
11211TIP3    H233575   4.475   6.511   2.457  0.1064 -1.5571  0.9920
11212TIP3   OH233576   2.457   7.642   5.035  1.3067 -0.1580 -0.3064
11212TIP3    H133577   2.528   7.623   5.096  0.5687  2.0923  1.3777
11212TIP3    H233578   2.394   7.572   5.049  1.1981  0.2642  1.4829
11213TIP3   OH233579   2.527   1.527   4.325 -0.3290 -0.5868 -0.3201
11213TIP3    H133580   2.590   1.502   4.257  0.4045 -0.7040  0.3767
11213TIP3    H233581   2.454   1.566   4.277  0.0414 -0.9323 -1.1899
11214TIP3   OH233582   3.479   2.653   0.313 -0.1851 -0.2583  0.0532
11214TIP3    H133583   3.561   2.657   0.263 -0.6980 -0.8320 -0.8710
11214TIP3    H233584   3.489   2.575   0.368 -0.0197 -0.2029  0.1023
11215TIP3   OH233585   6.264   1.157   3.339 -0.2740  0.7253  0.0544
11215TIP3    H133586   6.220   1.144   3.255  0.4451  1.1086 -0.3842
11215TIP3    H233587   6.260   1.071   3.381  0.3633  0.2324 -0.8538
11216TIP3   OH233588   6.738   6.972   1.283 -0.2254  0.3293 -0.2282
11216TIP3    H133589   6.691   6.974   1.366  0.5031 -2.1399  0.3240
11216TIP3    H233590   6.769   7.062   1.271 -2.0089  1.1883  1.1584
11217TIP3   OH233591   5.892   5.665   5.715 -0.5893  0.1444 -0.2159
11217TIP3    H133592   5.936   5.750   5.705  1.0970 -0.4911  1.3565
11217TIP3    H233593   5.865   5.662   5.806 -0.5204 -1.0755 -0.2250
11218TIP3   OH233594   1.194   6.448   0.383 -0.3961 -0.3101 -0.0775
11218TIP3    H133595   1.118   6.504   0.365 -0.3928  0.1057  1.1189
11218TIP3    H233596   1.158   6.373   0.431 -0.1404 -0.4331 -0.0760
11219TIP3   OH233597   3.009   7.439   2.539  0.6551 -0.3802  0.2532
11219TIP3    H133598   3.024   7.524   2.581 -1.5515  0.1835 -0.0014
11219TIP3    H233599   3.030   7.454   2.447 -0.4984  0.1448  0.0593
11220TIP3   OH233600   2.932   5.861   4.356 -0.5932  0.5928 -0.0582
11220TIP3    H133601   2.899   5.860   4.266 -0.8659 -1.1169  0.0310
11220TIP3    H233602   2.870   5.916   4.404 -0.9021  0.8544 -0.7468
11221TIP3   OH233603   7.346   2.717   3.575 -0.2471  0.1698 -0.4199
11221TIP3    H133604   7.442   2.717   3.580 -0.1174 -2.2257 -1.5424
11221TIP3    H233605   7.326   2.783   3.508  0.7224 -0.1694 -1.0790
11222TIP3   OH233606   5.129   6.060   2.783  0.0348 -0.4217  0.1902
11222TIP3    H133607   5.036   6.085   2.776 -0.2447 -1.4982 -0.1585
11222TIP3    H233608   5.129   5.986   2.844  0.4377 -1.4562 -1.0208
11223TIP3   OH233609   2.718   0.652   4.519  0.5671  0.7870  0.7365
11223TIP3    H133610   2.766   0.596   4.458 -0.7905  0.7744 -0.3651
11223TIP3    H233611   2.784   0.683   4.580  1.7706 -0.0972 -0.0777
11224TIP3   OH233612   4.562   4.972   0.043 -0.0851 -0.1449  0.1921
11224TIP3    H133613   4.526   5.060   0.039  0.7399  0.2357  0.8403
11224TIP3    H233614   4.619   4.973   0.120 -0.7696 -1.5115  0.7547
11225TIP3   OH233615   0.881   5.477   6.402 -0.2851 -0.1638 -0.1559
11225TIP3    H133616   0.934   5.440   6.472 -0.2708  1.5703  0.7858
11225TIP3    H233617   0.879   5.408   6.335  1.8575 -0.8491  0.4195
11226TIP3   OH233618   6.693   6.225   6.604 -0.1715  0.2704 -0.2698
11226TIP3    H133619   6.628   6.273   6.554 -0.7585 -0.2344  0.0047
11226TIP3    H233620   6.643   6.178   6.671  0.5392  0.4294  0.3871
11227TIP3   OH233621   6.444   0.175   4.379 -0.2527 -0.4348  0.2249
11227TIP3    H133622   6.361   0.147   4.417 -2.7435  3.2022 -1.8820
11227TIP3    H233623   6.452   0.125   4.298 -1.0004 -0.0542 -0.0925
11228TIP3   OH233624   2.519   1.191   4.812 -0.1859 -0.2685  0.7430
11228TIP3    H133625   2.586   1.229   4.867  0.5391 -1.8977  1.0287
11228TIP3    H233626   2.516   1.099   4.837 -0.9373 -0.7106 -0.8364
11229TIP3   OH233627   5.896   3.568   0.615 -0.0499  0.1268  0.3878
11229TIP3    H133628   5.809   3.604   0.635  1.4088  3.4118  1.5942
11229TIP3    H233629   5.919   3.606   0.530 -0.8493 -3.1342 -1.4462
11230TIP3   OH233630   4.435   2.695   2.511 -0.5751  0.2605  0.2778
11230TIP3    H133631   4.482   2.736   2.438  0.0966 -0.6868  0.1673
11230TIP3    H233632   4.370   2.639   2.469  0.8838 -1.5748  0.3127
11231TIP3   OH233633   1.642   0.707   6.076  0.0028 -0.0480 -0.0265
11231TIP3    H133634   1.649   0.612   6.073 -0.6813 -0.0821 -0.7704
11231TIP3    H233635   1.551   0.724   6.103 -0.4275  0.3764 -1.6084
11232TIP3   OH233636   3.730   2.457   0.964  0.4997  0.2683  0.0505
11232TIP3    H133637   3.792   2.507   1.018  0.6369 -0.0845  0.2240
11232TIP3    H233638   3.783   2.387   0.927  0.1275 -0.2582  0.4967
11233TIP3   OH233639   0.359   1.322   6.684  0.1101  0.0772 -0.5090
11233TIP3    H133640   0.445   1.290   6.712 -0.8186 -1.6055  0.5707
11233TIP3    H233641   0.379   1.402   6.635  2.3660 -0.7839 -1.1619
11234TIP3   OH233642   1.485   1.373   3.821  0.2295 -0.4738  0.4873
11234TIP3    H133643   1.472   1.466   3.805  1.2985 -0.3178  0.4872
11234TIP3    H233644   1.396   1.338   3.830 -0.4735 -0.1599 -3.3045
11235TIP3   OH233645   5.361   4.862   0.648 -0.0774 -0.1965  0.0057
11235TIP3    H133646   5.420   4.936   0.649 -0.1710 -0.1243  1.1671
11235TIP3    H233647   5.287   4.888   0.703 -0.5915 -0.7699 -0.3817
11236TIP3   OH233648   0.238   4.995   3.825  0.4137 -0.5130 -0.1817
11236TIP3    H133649   0.177   5.012   3.897  0.2466  0.3835 -0.5185
11236TIP3    H233650   0.304   5.065   3.834  0.8562 -0.8974 -0.4009
11237TIP3   OH233651   4.196   3.629   3.920 -0.2811  0.5293 -0.1004
11237TIP3    H133652   4.126   3.683   3.883 -1.0895  0.3580  1.1053
11237TIP3    H233653   4.171   3.618   4.012  1.6828  1.0371  0.5437
11238TIP3   OH233654   5.815   2.121   3.378 -0.4266  0.5413  0.2380
11238TIP3    H133655   5.757   2.045   3.372 -1.1521  0.9338  1.6493
11238TIP3    H233656   5.899   2.091   3.345 -0.7484 -0.8336  0.6228
11239TIP3   OH233657   7.939   6.505   2.040 -0.3698  0.3896  0.7268
11239TIP3    H133658   8.010   6.468   1.987 -2.3669  0.0637 -1.9366
11239TIP3    H233659   7.915   6.587   1.997 -0.9029  1.0711  2.2224
11240TIP3   OH233660   6.933   1.210   2.263 -0.0507  0.1178 -0.1338
11240TIP3    H133661   6.843   1.236   2.279 -0.2716 -1.4815  1.5017
11240TIP3    H233662   6.942   1.125   2.306  2.4664  0.6033  0.4760
11241TIP3   OH233663   7.403   6.749   0.489 -0.2896  0.0939  0.1527
11241TIP3    H133664   7.477   6.770   0.545 -0.7692 -0.5426  1.0583
11241TIP3    H233665   7.348   6.691   0.542  0.1266 -2.0333 -1.5880
11242TIP3   OH233666   3.087   1.113   2.554  0.0365 -0.7300  0.0409
11242TIP3    H133667   3.073   1.165   2.475  0.3886 -0.4737  0.1456
11242TIP3    H233668   3.020   1.045   2.550 -0.3624 -0.3331 -0.1503
11243TIP3   OH233669   5.206   1.087   2.612 -0.2982 -0.1924 -0.0540
11243TIP3    H133670   5.122   1.068   2.655 -0.6338 -1.6246 -1.2837
11243TIP3    H233671   5.239   1.002   2.584  1.9826  0.2475  1.0624
11244TIP3   OH233672   6.644   0.535   3.284 -0.1072 -0.0156 -0.0320
11244TIP3    H133673   6.653   0.549   3.378  1.1225  3.4434 -0.5345
11244TIP3    H233674   6.733   0.542   3.250 -0.5147 -1.3213 -1.5096
11245TIP3   OH233675   4.083   1.686   1.003  0.4888 -0.1165  0.0910
11245TIP3    H133676   4.127   1.662   1.085  2.2929  0.0510 -0.7610
11245TIP3    H233677   4.076   1.781   1.006  1.9972  0.0500 -0.5750
11246TIP3   OH233678   6.483   7.327   1.082  0.3340 -0.2170 -0.4338
11246TIP3    H133679   6.395   7.363   1.082 -0.0451 -1.1003  0.0606
11246TIP3    H233680   6.505   7.320   1.175  2.1111  2.7458 -0.5150
11247TIP3   OH233681   2.648   2.244   1.668 -0.0365  0.1291 -0.7177
11247TIP3    H133682   2.707   2.202   1.605  0.8234  1.3534 -0.7744
11247TIP3    H233683   2.563   2.203   1.653  0.1398  0.3989 -2.7019
11248TIP3   OH233684   5.138   0.753   6.600 -0.3172 -0.2432  0.2099
11248TIP3    H133685   5.044   0.764   6.614 -0.0059  0.6784  1.8505
11248TIP3    H233686   5.149   0.761   6.505 -1.7424  0.9850  0.1039
11249TIP3   OH233687   4.723   2.121   4.671  0.0623  0.0852 -0.7249
11249TIP3    H133688   4.700   2.032   4.644 -0.2813 -0.3942  1.0377
11249TIP3    H233689   4.703   2.124   4.765  1.2620  1.6312 -0.4775
11250TIP3   OH233690   6.574   0.929   0.605  0.1992 -0.3717  0.4882
11250TIP3    H133691   6.618   1.007   0.638 -1.9131  1.6364 -1.1261
11250TIP3    H233692   6.484   0.936   0.637  0.0560 -2.4356  0.6941
11251TIP3   OH233693   5.828   5.679   5.971  0.1915  0.7819  0.0094
11251TIP3    H133694   5.886   5.724   6.033 -0.3061  0.1350  0.9777
11251TIP3    H233695   5.808   5.595   6.013 -2.0224  1.2786  0.0999
11252TIP3   OH233696   0.581   3.389   2.593 -0.4528 -0.3871 -0.3268
11252TIP3    H133697   0.558   3.313   2.539  0.5788 -0.2525 -0.9876
11252TIP3    H233698   0.517   3.456   2.568  0.0351 -0.3147 -1.4402
11253TIP3   OH233699   3.334   3.023   2.112 -0.0340  0.1327 -0.1311
11253TIP3    H133700   3.313   3.112   2.084 -0.7633  0.3320  0.9811
11253TIP3    H233701   3.421   3.007   2.077 -0.2160  0.9842 -1.0210
11254TIP3   OH233702   3.744   4.559   4.491  0.2423  0.3131  0.1340
11254TIP3    H133703   3.828   4.563   4.536  1.1886 -0.6947 -1.4587
11254TIP3    H233704   3.716   4.468   4.502  0.3755  0.1136 -1.0699
11255TIP3   OH233705   5.769   7.878   1.069  0.0638 -0.6648 -0.2508
11255TIP3    H133706   5.770   7.962   1.115  2.1514 -0.8811  0.2141
11255TIP3    H233707   5.694   7.831   1.105 -0.6640  0.6929  0.0576
11256TIP3   OH233708   6.592   4.555   2.742 -0.5588  0.3144 -0.7345
11256TIP3    H133709   6.554   4.508   2.817  0.6234  1.6584  0.7897
11256TIP3    H233710   6.636   4.488   2.691 -1.0008 -0.5782  0.0333
11257TIP3   OH233711   2.764   7.547   3.607 -0.3226  0.4305 -0.3709
11257TIP3    H133712   2.809   7.525   3.525 -0.5097  0.1117 -0.3881
11257TIP3    H233713   2.748   7.463   3.649  0.0275  0.6106  0.1293
11258TIP3   OH233714   8.208   7.083   3.472 -0.2678 -0.1990  0.4295
11258TIP3    H133715   8.302   7.102   3.471 -0.3347  0.1160 -0.2486
11258TIP3    H233716   8.174   7.141   3.540  0.0076 -0.2184  0.5871
11259TIP3   OH233717   4.788   3.759   0.045  0.4869 -0.1026  0.1708
11259TIP3    H133718   4.817   3.827  -0.016  0.6011 -0.0666  0.2646
11259TIP3    H233719   4.717   3.800   0.094 -1.1987 -0.8717 -1.5086
11260TIP3   OH233720   3.328   1.024   0.952 -0.0517 -0.3584 -0.2532
11260TIP3    H133721   3.371   0.984   0.877  1.6232 -0.5111  0.7164
11260TIP3    H233722   3.235   1.015   0.935  0.2791 -0.6079 -2.1700
11261TIP3   OH233723   6.870   0.668   3.457  0.2448  0.0392 -0.0392
11261TIP3    H133724   6.950   0.694   3.412 -0.3689 -0.6785 -1.6231
11261TIP3    H233725   6.819   0.748   3.465  1.4998  0.7095  1.8965
11262TIP3   OH233726   7.931   7.164   6.089 -0.4574  0.3530 -1.3777
11262TIP3    H133727   7.975   7.087   6.054  0.5214 -0.6561  1.7835
11262TIP3    H233728   7.840   7.137   6.100  0.2448 -1.2169  1.5879
11263TIP3   OH233729   7.100   0.942   4.009 -0.4853  0.2500 -0.0467
11263TIP3    H133730   7.066   1.031   4.018 -0.8837  0.0069  0.8671
11263TIP3    H233731   7.022   0.887   4.000 -0.2647 -0.1035  0.2059
11264TIP3   OH233732   1.031   1.741   2.692  0.2128  0.6213  0.2242
11264TIP3    H133733   1.022   1.781   2.779  0.5615  0.6200  0.2626
11264TIP3    H233734   0.941   1.726   2.663  0.0050 -2.6832  2.0826
11265TIP3   OH233735   3.259   7.497   0.105 -0.0420 -0.5110  0.1141
11265TIP3    H133736   3.182   7.473   0.157 -2.3695  2.3931 -1.6790
11265TIP3    H233737   3.306   7.561   0.159 -0.5509 -0.0576  0.0215
11266TIP3   OH233738   0.868   0.205   5.727  0.4858 -0.4523  1.1707
11266TIP3    H133739   0.933   0.268   5.696 -0.3857  0.7527  1.7216
11266TIP3    H233740   0.866   0.137   5.659  1.3454  0.1728  0.4989
11267TIP3   OH233741   0.411   3.502   0.082 -0.3328 -0.0518 -0.2605
11267TIP3    H133742   0.497   3.482   0.121 -0.2284 -0.1560 -0.5361
11267TIP3    H233743   0.365   3.418   0.082 -0.0993 -0.1843 -0.9231
11268TIP3   OH233744   7.705   5.522   2.398 -0.3241 -0.4281 -0.0154
11268TIP3    H133745   7.750   5.603   2.422 -0.3321 -0.5561  0.4336
11268TIP3    H233746   7.667   5.490   2.480 -0.7165 -0.6423 -0.2783
11269TIP3   OH233747   2.451   2.830   0.815  0.8014 -0.2153  0.2704
11269TIP3    H133748   2.479   2.913   0.855  1.2697 -0.8514  1.3059
11269TIP3    H233749   2.522   2.769   0.834 -0.2293 -1.2537  0.8908
11270TIP3   OH233750   4.918   3.236   0.272  0.7094 -0.6018 -0.4107
11270TIP3    H133751   4.854   3.307   0.283  1.9870  0.4350  0.6426
11270TIP3    H233752   4.919   3.220   0.178 -0.8911 -0.4625 -0.4858
11271TIP3   OH233753   2.546   4.247   5.560 -0.7059 -0.4365 -0.0228
11271TIP3    H133754   2.467   4.296   5.581 -0.5713 -0.4030  0.4237
11271TIP3    H233755   2.551   4.248   5.465 -0.0421  1.4888 -0.0047
11272TIP3   OH233756   3.024   2.522   3.260  0.3039  0.3247 -0.0553
11272TIP3    H133757   2.944   2.558   3.298 -1.2137 -0.7052 -2.0493
11272TIP3    H233758   3.073   2.486   3.334 -1.7013 -0.1437  1.0987
11273TIP3   OH233759   0.780   2.760   5.721 -0.2431 -0.8730  0.5686
11273TIP3    H133760   0.689   2.771   5.751 -1.6225 -2.7808 -2.4835
11273TIP3    H233761   0.819   2.700   5.785 -0.8583  0.4823  2.2965
11274TIP3   OH233762   1.008   0.098   0.596  0.3602 -0.2453  0.0450
11274TIP3    H133763   0.983   0.182   0.558  0.6875  0.3456  1.0779
11274TIP3    H233764   0.938   0.038   0.572  0.0628  0.3555 -0.6008
11275TIP3   OH233765   4.852   1.188   4.814  0.6756  1.0520  0.5725
11275TIP3    H133766   4.778   1.230   4.770  0.7141  0.4279 -0.0895
11275TIP3    H233767   4.811   1.128   4.877  0.5913  0.0102 -0.4429
11276TIP3   OH233768   8.317   6.626   1.964 -0.6618  0.0543 -0.0506
11276TIP3    H133769   8.294   6.658   2.050  2.1110  0.6740  0.5689
11276TIP3    H233770   8.394   6.571   1.979 -0.7605 -0.7072 -2.0079
11277TIP3   OH233771   7.637   4.914   4.007  0.3837 -0.4047  0.0812
11277TIP3    H133772   7.640   4.832   3.958  0.3680 -0.4947  0.2305
11277TIP3    H233773   7.549   4.949   3.990  0.1723 -0.7252  0.5144
11278TIP3   OH233774   2.338   1.688   0.428  0.0102 -0.2690  0.8328
11278TIP3    H133775   2.289   1.694   0.346  0.3369  1.3930  0.7143
11278TIP3    H233776   2.425   1.722   0.407  0.7266 -1.6494  1.4345
11279TIP3   OH233777   0.868   0.255   4.796  0.1909  0.3363  0.4309
11279TIP3    H133778   0.840   0.343   4.818 -0.5771  0.5486 -1.2318
11279TIP3    H233779   0.840   0.243   4.705  2.5920 -0.6617 -0.2672
11280TIP3   OH233780   1.883   3.095   4.615 -0.0419 -0.2999  0.0309
11280TIP3    H133781   1.813   3.087   4.550  1.2643 -0.6214 -1.4098
11280TIP3    H233782   1.865   3.025   4.678 -0.8591 -0.5700 -0.4797
11281TIP3   OH233783   3.274   6.414   4.921 -0.2857  0.4750  0.3899
11281TIP3    H133784   3.353   6.379   4.962  0.7890  1.4512 -0.7729
11281TIP3    H233785   3.275   6.507   4.943 -0.0251  0.8866 -1.2872
11282TIP3   OH233786   4.420   4.346   3.066 -0.9304  0.2620  0.0101
11282TIP3    H133787   4.505   4.302   3.066 -1.3562 -0.5974  0.7340
11282TIP3    H233788   4.417   4.393   2.983  0.0228 -0.1419 -0.2631
11283TIP3   OH233789   3.686   7.287   3.972 -0.2144  0.4599 -0.3400
11283TIP3    H133790   3.670   7.300   3.879  0.9541 -0.5166 -0.7147
11283TIP3    H233791   3.713   7.195   3.979 -1.6286  0.1011  1.1699
11284TIP3   OH233792   8.075   1.845   1.057  0.1067  0.2933  0.5448
11284TIP3    H133793   8.117   1.771   1.013  0.2791  0.7338 -0.0532
11284TIP3    H233794   8.121   1.922   1.023 -0.3158  0.7003  0.8753
11285TIP3   OH233795   5.655   5.758   1.244  0.3299  0.3816  0.3479
11285TIP3    H133796   5.705   5.812   1.305 -0.1400  0.3680  0.7526
11285TIP3    H233797   5.695   5.671   1.252  0.1328  0.3285  0.8013
11286TIP3   OH233798   6.017   1.259   5.055 -0.0080 -0.2979 -0.1336
11286TIP3    H133799   6.052   1.279   5.142 -0.1326  1.2193 -0.4149
11286TIP3    H233800   6.019   1.163   5.051 -0.3362 -0.4256  1.6682
11287TIP3   OH233801   1.493   0.288   6.588  0.3208  0.0794  0.0131
11287TIP3    H133802   1.481   0.267   6.681  2.5508 -0.3330  0.2647
11287TIP3    H233803   1.578   0.333   6.584 -0.1191  0.8444 -1.7346
11288TIP3   OH233804   6.130   0.836   2.555 -0.3850 -0.5884 -0.2540
11288TIP3    H133805   6.123   0.924   2.517  1.0632 -0.5034 -0.4022
11288TIP3    H233806   6.041   0.803   2.557 -1.5914  2.2704  3.1832
11289TIP3   OH233807   0.649   7.235   5.621  0.3664  0.0273  0.6924
11289TIP3    H133808   0.611   7.229   5.709 -1.8757  2.6792  0.0716
11289TIP3    H233809   0.593   7.180   5.567  0.9086 -0.5354  0.7052
11290TIP3   OH233810   2.037   4.677   2.156  0.2272 -0.3115 -0.0160
11290TIP3    H133811   2.089   4.613   2.107  0.5551 -0.5616  0.6460
11290TIP3    H233812   1.978   4.715   2.091  0.9097 -0.3683 -0.6814
11291TIP3   OH233813   7.345   2.967   3.456 -0.4003  0.4937  0.1376
11291TIP3    H133814   7.346   3.039   3.392  1.9758  1.1230  0.7663
11291TIP3    H233815   7.362   3.010   3.540  0.5107 -0.7357  0.6113
11292TIP3   OH233816   6.774   7.055   2.423 -0.4331  0.1981 -0.4774
11292TIP3    H133817   6.820   7.122   2.472 -0.1592 -0.0774 -0.3531
11292TIP3    H233818   6.681   7.069   2.442 -0.3291  0.1127  0.0869
11293TIP3   OH233819   7.099   7.612   3.239  0.3099 -0.1136 -0.0712
11293TIP3    H133820   7.043   7.672   3.288 -0.2419 -1.1132  0.5503
11293TIP3    H233821   7.066   7.615   3.150 -1.3366 -1.3471  0.4555
11294TIP3   OH233822   0.471   6.382   0.650  0.0274  0.3453  0.3572
11294TIP3    H133823   0.420   6.459   0.672  1.9131  1.3638  1.4502
11294TIP3    H233824   0.496   6.394   0.559  1.6496  1.9282  0.9429
11295TIP3   OH233825   6.744   2.837   1.164  0.1932  0.0283  0.6093
11295TIP3    H133826   6.716   2.789   1.086  0.8405 -1.9550  1.5381
11295TIP3    H233827   6.674   2.821   1.228  0.1966  0.7345  0.7992
11296TIP3   OH233828   2.996   3.201   2.823 -0.6289  0.3025  0.2081
11296TIP3    H133829   2.915   3.239   2.857 -0.4219 -0.4751  1.6466
11296TIP3    H233830   2.970   3.161   2.740 -2.1046 -1.3052  1.3752
11297TIP3   OH233831   1.088   1.416   6.636 -0.1999 -0.1491  0.7174
11297TIP3    H133832   1.134   1.481   6.688  0.1251 -0.2067  0.5021
11297TIP3    H233833   1.151   1.345   6.623  1.4890  1.8121 -3.7429
11298TIP3   OH233834   4.144   4.964   0.436 -0.4187  0.3618 -0.4416
11298TIP3    H133835   4.073   4.987   0.496  0.9488  2.3718  0.5084
11298TIP3    H233836   4.208   5.034   0.446  1.0834 -0.6415 -2.3159
11299TIP3   OH233837   3.567   2.384   4.021 -0.2223 -0.6408 -0.7544
11299TIP3    H133838   3.624   2.389   4.097 -0.2669 -1.2781 -0.6740
11299TIP3    H233839   3.617   2.334   3.956 -0.4718 -0.7370 -0.8750
11300TIP3   OH233840   7.605   6.677   3.293  0.5687 -0.2702  0.2958
11300TIP3    H133841   7.700   6.665   3.292  0.9019  1.4859 -2.9770
11300TIP3    H233842   7.591   6.761   3.250 -2.5045 -0.7693  0.1113
11301TIP3   OH233843   3.463   0.871   4.230 -0.0878 -0.3604  0.2525
11301TIP3    H133844   3.469   0.928   4.307  0.9501 -1.1264  0.7712
11301TIP3    H233845   3.388   0.815   4.248 -0.5012  0.1746  0.2067
11302TIP3   OH233846   1.996   6.861   5.941  0.3481  0.1865 -0.5514
11302TIP3    H133847   1.975   6.831   6.029  2.8904 -1.2125 -0.3371
11302TIP3    H233848   1.961   6.794   5.883  1.4634 -0.5813 -0.3723
11303TIP3   OH233849   5.496   5.097   0.305  0.4585  0.3691  0.2417
11303TIP3    H133850   5.549   5.065   0.378  1.1201  0.7679 -0.0606
11303TIP3    H233851   5.551   5.162   0.261  0.0950  0.0837 -0.6576
11304TIP3   OH233852   7.408   4.246   0.892 -0.0330  0.4010 -0.0277
11304TIP3    H133853   7.380   4.276   0.979  0.3612  2.0818 -0.4448
11304TIP3    H233854   7.347   4.176   0.870  1.1131 -1.5594  2.4739
11305TIP3   OH233855   3.792   7.723   1.889  0.2139 -0.1763  0.1841
11305TIP3    H133856   3.886   7.715   1.870  0.1054  1.0335 -1.0516
11305TIP3    H233857   3.749   7.692   1.810 -0.4523 -0.8192  0.7880
11306TIP3   OH233858   4.441   5.673   5.774 -0.7183  0.2100  0.3717
11306TIP3    H133859   4.444   5.642   5.684  1.0555 -0.9599  0.7830
11306TIP3    H233860   4.466   5.596   5.827 -0.0882  1.2934  1.7204
11307TIP3   OH233861   4.807   2.176   2.749  0.2178 -0.1886  0.0418
11307TIP3    H133862   4.723   2.136   2.729 -0.9414  2.4443 -0.7891
11307TIP3    H233863   4.813   2.250   2.688  1.5499  1.7267  2.3478
11308TIP3   OH233864   2.307   0.038   4.923 -0.3884  0.0758  0.1179
11308TIP3    H133865   2.216   0.031   4.952 -0.4970  1.3808  0.1139
11308TIP3    H233866   2.316  -0.030   4.856 -0.7549 -1.4813  1.5793
11309TIP3   OH233867   5.401   1.681   4.347  0.1783  0.2124 -0.1918
11309TIP3    H133868   5.328   1.662   4.406  1.3534 -0.3690  1.1414
11309TIP3    H233869   5.433   1.767   4.375  0.5314  0.0822 -0.1817
11310TIP3   OH233870   0.232   7.172   5.593 -0.6741 -0.2069 -0.3166
11310TIP3    H133871   0.158   7.206   5.543  1.2587  1.1363 -2.5004
11310TIP3    H233872   0.272   7.250   5.632  1.8298 -0.2317 -2.5348
11311TIP3   OH233873   1.199   0.138   2.781  0.2138  0.2404  0.5494
11311TIP3    H133874   1.151   0.202   2.834 -0.2726  0.6370 -0.3407
11311TIP3    H233875   1.254   0.092   2.844  2.2926  3.0275  0.9747
11312TIP3   OH233876   8.066   1.106   3.444  0.2551 -0.1491  0.3005
11312TIP3    H133877   7.972   1.115   3.425  0.4029  1.2575  0.1445
11312TIP3    H233878   8.104   1.079   3.360 -0.1632 -2.1394  0.7002
11313TIP3   OH233879   2.543   2.894   5.851  0.2311 -0.2391 -0.1153
11313TIP3    H133880   2.624   2.870   5.806  0.2380  1.2638 -0.9823
11313TIP3    H233881   2.536   2.989   5.838 -2.6810 -0.5460 -1.8333
11314TIP3   OH233882   6.036   3.021   0.722 -0.3197  0.3314  0.0624
11314TIP3    H133883   5.983   2.991   0.795  0.3842  1.3999  1.0448
11314TIP3    H233884   6.123   3.035   0.759  0.5704 -0.9248 -1.4045
11315TIP3   OH233885   2.202   7.357   6.494 -0.4261 -0.0191  0.1789
11315TIP3    H133886   2.169   7.436   6.451 -0.0493 -1.2516 -2.5563
11315TIP3    H233887   2.251   7.311   6.426  0.3393 -2.0672  2.0081
11316TIP3   OH233888   1.659   2.846   1.016  0.3519  0.9190 -0.3410
11316TIP3    H133889   1.578   2.797   1.025  0.6655  0.0806 -1.7702
11316TIP3    H233890   1.687   2.863   1.106 -0.2714 -0.6651  0.1876
11317TIP3   OH233891   3.983   5.430   3.635 -0.3512  0.5052  0.0600
11317TIP3    H133892   4.007   5.522   3.643 -0.1549  0.3617  1.5633
11317TIP3    H233893   4.065   5.385   3.615 -0.5758  0.7236 -1.4036
11318TIP3   OH233894   3.615   3.232   0.726 -0.1009 -0.1673  0.1747
11318TIP3    H133895   3.587   3.149   0.687  0.2260  0.0018 -0.4294
11318TIP3    H233896   3.635   3.210   0.817  0.2109 -0.8012 -0.0413
11319TIP3   OH233897   0.215   1.391   0.493  0.0738  0.1675  0.3560
11319TIP3    H133898   0.308   1.383   0.516  0.1746 -1.0111 -0.3776
11319TIP3    H233899   0.213   1.378   0.398 -0.6426  2.1775  0.0688
11320TIP3   OH233900   1.078   6.741   5.720  0.5290 -0.4761 -0.0402
11320TIP3    H133901   0.987   6.713   5.731  0.6911 -1.3092 -0.6959
11320TIP3    H233902   1.127   6.687   5.782  0.4161  1.1858  1.5978
11321TIP3   OH233903   4.929   6.243   3.195 -0.2160  0.1814 -0.4322
11321TIP3    H133904   4.839   6.238   3.163 -0.1482  1.1979 -0.8309
11321TIP3    H233905   4.956   6.333   3.175  1.3596 -0.5180 -1.5478
11322TIP3   OH233906   0.232   5.863   6.744  0.1728  0.0861  0.3368
11322TIP3    H133907   0.145   5.825   6.728  0.1902  0.5783 -1.0996
11322TIP3    H233908   0.293   5.800   6.706  0.1672  1.7544 -2.8061
11323TIP3   OH233909   0.967   0.958   3.374 -0.1129  0.0920  0.2768
11323TIP3    H133910   0.923   0.873   3.371  1.4710 -0.8079  1.2849
11323TIP3    H233911   1.055   0.940   3.341  1.0435  0.7671  2.7611
11324TIP3   OH233912   1.525   3.875   4.756  0.1629 -0.4948  0.6872
11324TIP3    H133913   1.517   3.781   4.772  1.0341 -0.9426 -1.2119
11324TIP3    H233914   1.611   3.898   4.791  0.2452 -0.5524  0.5225
11325TIP3   OH233915   7.089   6.060   3.007 -0.5652 -0.2562  0.2519
11325TIP3    H133916   7.149   6.123   2.967 -1.4970  0.5146  0.0320
11325TIP3    H233917   7.144   6.008   3.066  0.4680 -0.1534 -0.6048
11326TIP3   OH233918   2.981   1.655   2.539 -0.1570 -0.2596 -0.0662
11326TIP3    H133919   2.995   1.744   2.507 -0.1850 -0.0881  0.3842
11326TIP3    H233920   3.006   1.599   2.466 -0.5213  0.1258 -0.4937
11327TIP3   OH233921   5.162   0.225   6.298  0.5354 -0.1951  0.3192
11327TIP3    H133922   5.168   0.313   6.261  1.8539 -1.1658 -2.0217
11327TIP3    H233923   5.126   0.238   6.386  0.1627  2.5954 -0.1509
11328TIP3   OH233924   5.512   2.016   2.486  0.5324  0.0486  0.0692
11328TIP3    H133925   5.550   1.982   2.404  1.6354  1.1815  0.0737
11328TIP3    H233926   5.431   1.967   2.496  0.3938 -0.1723 -1.6788
11329TIP3   OH233927   1.277   1.670   0.210  0.3319  0.0648  0.0051
11329TIP3    H133928   1.278   1.600   0.276 -2.6766 -1.9945 -1.8745
11329TIP3    H233929   1.216   1.735   0.245 -0.6767 -0.6652 -0.3461
11330TIP3   OH233930   7.205   4.677   3.449 -0.6259 -0.1375 -0.5883
11330TIP3    H133931   7.209   4.667   3.354  1.1138  2.2048 -0.8661
11330TIP3    H233932   7.294   4.660   3.479 -1.1431 -0.8113  0.6563
11331TIP3   OH233933   6.653   0.312   5.639  0.4319 -0.1741  0.2776
11331TIP3    H133934   6.687   0.377   5.700  2.0880  0.6775 -1.4285
11331TIP3    H233935   6.610   0.363   5.571 -2.1988 -1.1416  1.0870
11332TIP3   OH233936   0.222   2.904   4.942 -0.1551  0.3493  0.0612
11332TIP3    H133937   0.138   2.865   4.965 -1.1029  0.8366 -2.3017
11332TIP3    H233938   0.281   2.829   4.930 -0.9339 -0.1674 -0.6781
11333TIP3   OH233939   8.121   2.225   3.533  0.0037 -0.2417  0.2598
11333TIP3    H133940   8.137   2.216   3.439  0.1647 -0.1357  0.2767
11333TIP3    H233941   8.191   2.283   3.564  0.1432 -0.5395  0.5009
11334TIP3   OH233942   5.610   1.853   1.120  0.1995  0.2839  0.1458
11334TIP3    H133943   5.644   1.763   1.114  0.7959  0.6032 -2.0033
11334TIP3    H233944   5.530   1.845   1.173 -0.8973 -1.8839 -1.6805
11335TIP3   OH233945   1.386   6.963   3.922 -0.4151 -0.3105  0.0980
11335TIP3    H133946   1.400   6.972   4.016  0.9679  2.0006 -0.2437
11335TIP3    H233947   1.450   6.897   3.895 -0.5922 -0.7422  0.7103
11336TIP3   OH233948   0.858   6.738   6.524 -0.0205  0.3343 -0.0519
11336TIP3    H133949   0.953   6.731   6.534 -0.1939 -0.2031  1.3966
11336TIP3    H233950   0.838   6.828   6.550  0.2503  1.0404 -2.0665
11337TIP3   OH233951   6.923   4.627   2.861  0.1705  0.5753  0.1880
11337TIP3    H133952   6.905   4.716   2.891 -0.1172  0.7215 -0.4150
11337TIP3    H233953   6.875   4.571   2.923  2.1196  0.7065  1.9401
11338TIP3   OH233954   4.896   1.810   2.107  0.1063 -0.2132 -0.2044
11338TIP3    H133955   4.877   1.852   2.024 -1.3578  0.6235  0.5298
11338TIP3    H233956   4.955   1.871   2.152  1.8333 -1.1896 -1.0485
11339TIP3   OH233957   2.850   1.722   3.652  0.5840  0.5637 -0.1823
11339TIP3    H133958   2.921   1.733   3.716 -0.2504 -0.7884  1.0203
11339TIP3    H233959   2.799   1.649   3.685 -1.8652  1.9926 -0.6038
11340TIP3   OH233960   2.260   3.975   0.183 -0.0023 -0.2473 -0.1169
11340TIP3    H133961   2.243   3.935   0.268 -1.4761  0.0214 -0.2710
11340TIP3    H233962   2.313   3.910   0.137 -0.8677 -1.2654  0.2893
11341TIP3   OH233963   0.144   1.193   5.280 -0.4460 -0.0594  0.8334
11341TIP3    H133964   0.067   1.249   5.274  0.3205  0.8462 -1.7829
11341TIP3    H233965   0.163   1.169   5.189  0.2177 -3.2975  1.7057
11342TIP3   OH233966   5.614   7.452   5.633  0.0030 -0.2194  0.0203
11342TIP3    H133967   5.556   7.502   5.691  0.0762 -0.4384  0.2863
11342TIP3    H233968   5.670   7.403   5.693  0.9490  0.5379 -0.2359
11343TIP3   OH233969   8.384   7.806   0.961 -0.2545 -0.5823  0.5295
11343TIP3    H133970   8.338   7.877   1.006  3.1339  1.0638  1.7816
11343TIP3    H233971   8.405   7.744   1.031  0.6558 -0.5561  0.2884
11344TIP3   OH233972   6.196   2.750   3.249 -0.3779 -0.0557  0.0932
11344TIP3    H133973   6.110   2.788   3.235 -0.6959 -0.1242  1.6601
11344TIP3    H233974   6.257   2.812   3.208 -0.9582  1.6053  1.6067
11345TIP3   OH233975   8.244   7.700   6.383  0.3463  0.2361  0.2201
11345TIP3    H133976   8.336   7.703   6.409  0.7227  0.1440 -0.9974
11345TIP3    H233977   8.227   7.785   6.343 -0.0533  0.1934  0.2910
11346TIP3   OH233978   7.155   1.475   4.120 -0.3350 -1.0500  0.1774
11346TIP3    H133979   7.219   1.404   4.124 -0.9171 -1.6123 -0.3135
11346TIP3    H233980   7.070   1.431   4.122 -0.7251 -0.3027  1.1045
11347TIP3   OH233981   3.069   1.626   2.007  0.6856 -0.2706  0.3144
11347TIP3    H133982   3.143   1.613   1.947 -0.5255  0.1989 -1.3212
11347TIP3    H233983   2.993   1.593   1.960  0.0511 -2.7257  2.7723
11348TIP3   OH233984   5.746   5.493   1.257 -0.3997  0.0222 -0.1596
11348TIP3    H133985   5.674   5.435   1.234 -1.1561  1.1557 -0.7423
11348TIP3    H233986   5.799   5.442   1.319 -0.7075 -1.4941 -1.0868
11349TIP3   OH233987   5.227   4.088   3.443  0.2200 -0.0747 -0.1268
11349TIP3    H133988   5.193   4.110   3.530 -0.1122  0.6289 -0.4239
11349TIP3    H233989   5.169   4.134   3.383 -0.2838 -1.4863 -0.7833
11350TIP3   OH233990   5.716   4.957   1.836  0.1874 -0.1590  0.5518
11350TIP3    H133991   5.767   4.952   1.917  1.3586  2.2865  0.0553
11350TIP3    H233992   5.754   5.031   1.788 -2.7507  0.7016 -0.6573
11351TIP3   OH233993   2.855   2.902   4.977  0.1798  0.0741  0.5287
11351TIP3    H133994   2.786   2.960   5.010 -1.9821 -2.0153 -0.1266
11351TIP3    H233995   2.823   2.871   4.893  2.2957 -0.3945 -0.1608
11352TIP3   OH233996   4.148   3.409   3.736  0.0231 -0.4575 -0.0067
11352TIP3    H133997   4.103   3.486   3.701 -2.4259 -0.7340  2.2525
11352TIP3    H233998   4.186   3.441   3.819 -0.5259 -1.5062  0.6638
11353TIP3   OH233999   4.052   3.201   4.137 -0.2010 -0.0196 -0.3468
11353TIP3    H134000   4.141   3.215   4.169 -0.0835 -0.5189 -0.4568
11353TIP3    H234001   4.023   3.120   4.178  0.3732 -1.3167 -2.3542
11354TIP3   OH234002   3.359   0.033   5.740 -0.3556 -0.6192 -0.0288
11354TIP3    H134003   3.264   0.044   5.749 -0.2529 -0.8140  1.7128
11354TIP3    H234004   3.375  -0.060   5.757  0.0038 -1.0157 -2.2105
11355TIP3   OH234005   4.670   2.645   6.831 -0.6002 -0.0370 -0.1387
11355TIP3    H134006   4.739   2.608   6.886 -2.0022 -1.0191  1.0336
11355TIP3    H234007   4.708   2.726   6.795  1.4373 -0.9957 -0.2548
11356TIP3   OH234008   4.174   5.184   4.179  0.5911 -0.2033  0.2779
11356TIP3    H134009   4.196   5.116   4.242  1.7902  1.5433  1.8638
11356TIP3    H234010   4.083   5.167   4.155 -0.5419  0.0396  3.8648
11357TIP3   OH234011   5.506   6.117   1.411  0.1737  0.2553  0.4124
11357TIP3    H134012   5.521   6.089   1.321 -0.4392  1.3224 -0.0483
11357TIP3    H234013   5.460   6.044   1.452 -0.0393 -0.0226 -0.3022
11358TIP3   OH234014   6.788  -0.019   1.580 -0.2210 -0.4760 -0.3059
11358TIP3    H134015   6.881   0.003   1.585 -0.3196  0.1527 -1.0839
11358TIP3    H234016   6.749   0.019   1.659 -0.1516  0.9640 -0.9446
11359TIP3   OH234017   5.986   5.636   1.166  0.1909  0.1619 -0.3734
11359TIP3    H134018   5.957   5.610   1.079  0.4697 -0.1249 -0.3827
11359TIP3    H234019   5.937   5.579   1.225 -0.4426  0.7625 -0.3103
11360TIP3   OH234020   2.629   4.003   1.291 -0.5451  0.3747 -0.3830
11360TIP3    H134021   2.638   4.099   1.291  0.3254  0.3131  0.8007
11360TIP3    H234022   2.640   3.979   1.199 -1.2428  1.4496 -0.7672
11361TIP3   OH234023   1.196   0.919   3.794 -0.5023  0.0584  0.0423
11361TIP3    H134024   1.236   1.005   3.788  0.1766 -0.3191 -1.2652
11361TIP3    H234025   1.267   0.860   3.820 -0.4347 -0.4323 -1.1818
11362TIP3   OH234026   0.676   7.151   3.103 -0.3889  0.0713 -0.0175
11362TIP3    H134027   0.719   7.237   3.112 -0.8579  0.2089  1.0775
11362TIP3    H234028   0.583   7.172   3.088 -0.2088 -0.2334 -1.8747
11363TIP3   OH234029   8.347   3.015   6.684 -0.3201 -0.7875 -0.4002
11363TIP3    H134030   8.301   3.009   6.768 -0.9083  0.5570 -0.6037
11363TIP3    H234031   8.278   3.034   6.621  0.5648  2.9754 -0.4929
11364TIP3   OH234032   7.078   7.637   6.574  0.8428  0.5232  0.1153
11364TIP3    H134033   7.126   7.571   6.622  0.5137  0.0800 -0.1563
11364TIP3    H234034   7.081   7.608   6.483 -1.4895 -0.5274  0.2961
11365TIP3   OH234035   5.261   3.564   6.830  0.2778  0.4699  0.4609
11365TIP3    H134036   5.286   3.517   6.751 -1.3426  1.1255 -0.5009
11365TIP3    H234037   5.344   3.587   6.872  1.1691  0.0050 -0.9729
11366TIP3   OH234038   5.766   6.640   1.932  0.6269  0.7687  0.2219
11366TIP3    H134039   5.786   6.602   1.847  0.4259  0.6704  0.2172
11366TIP3    H234040   5.670   6.637   1.938  0.5326  2.1944 -0.2050
11367TIP3   OH234041   7.721   3.663   1.385 -0.1653 -0.1729  0.2289
11367TIP3    H134042   7.799   3.697   1.429 -0.0031  0.7889 -0.7662
11367TIP3    H234043   7.707   3.577   1.424  0.1209  0.5267  1.9598
11368TIP3   OH234044   7.838   1.568   5.647  0.1667 -0.8808  0.0142
11368TIP3    H134045   7.843   1.491   5.704 -0.7061 -2.0145 -1.3892
11368TIP3    H234046   7.753   1.607   5.667 -1.2423 -2.6409 -2.0913
11369TIP3   OH234047   2.400   7.666   1.973 -0.2363  0.4411 -0.4879
11369TIP3    H134048   2.401   7.618   1.891 -2.9033 -2.5507  1.0270
11369TIP3    H234049   2.493   7.675   1.997  0.4826 -0.5982 -2.6715
11370TIP3   OH234050   4.311   5.074   1.621  0.5302  0.1527 -0.1416
11370TIP3    H134051   4.370   5.131   1.670  1.3424 -0.1701 -0.7335
11370TIP3    H234052   4.285   5.007   1.685  0.7805  0.3132  0.1317
11371TIP3   OH234053   7.461   4.905   2.546  0.4284 -0.3189  0.4219
11371TIP3    H134054   7.433   4.933   2.459 -3.0174 -0.6034  1.2939
11371TIP3    H234055   7.492   4.985   2.589  2.0501 -0.1599 -0.9512
11372TIP3   OH234056   1.251   4.156   2.296 -0.3554  0.1832 -0.0269
11372TIP3    H134057   1.190   4.082   2.288  0.6525 -0.6633 -0.1019
11372TIP3    H234058   1.267   4.184   2.206 -0.0518 -0.0882 -0.0589
11373TIP3   OH234059   6.886   6.256   6.348  0.4029 -0.6628 -0.0429
11373TIP3    H134060   6.841   6.292   6.271 -1.2755  0.3726  1.3448
11373TIP3    H234061   6.852   6.167   6.356 -0.6076 -0.2596  0.3467
11374TIP3   OH234062   3.079   0.159   4.427  0.7084  1.0816  0.8512
11374TIP3    H134063   3.025   0.163   4.506  0.6121 -1.1174  0.9509
11374TIP3    H234064   3.016   0.165   4.355  0.7847  2.9384  0.8790
11375TIP3   OH234065   2.213   6.256   1.357  0.5457 -0.0079 -0.3727
11375TIP3    H134066   2.229   6.168   1.324  0.2545 -0.1740 -0.0818
11375TIP3    H234067   2.260   6.314   1.297 -1.1219 -0.1957 -1.9591
11376TIP3   OH234068   6.655   2.445   3.842 -0.4820  0.2464  0.3001
11376TIP3    H134069   6.595   2.379   3.806 -0.1660 -0.1242  0.4448
11376TIP3    H234070   6.684   2.494   3.765  0.0399 -0.4210  0.0610
11377TIP3   OH234071   8.339   4.110   3.957  0.2751 -0.0794 -0.8004
11377TIP3    H134072   8.393   4.100   3.879 -0.5273  1.1851 -1.5503
11377TIP3    H234073   8.380   4.054   4.022  0.0957 -2.4049 -2.5632
11378TIP3   OH234074   7.630   1.563   6.345  0.4660 -0.3527  0.0715
11378TIP3    H134075   7.679   1.529   6.270  0.3693  0.2047 -0.2591
11378TIP3    H234076   7.551   1.601   6.306  1.4987  2.0586  0.1505
11379TIP3   OH234077   4.222   1.834   6.607 -0.3040 -0.0078 -0.0543
11379TIP3    H134078   4.184   1.803   6.690  0.8146  0.8317  0.8081
11379TIP3    H234079   4.315   1.844   6.626 -0.0865  0.5112 -1.3281
11380TIP3   OH234080   1.229   6.094   2.873  0.0648  0.0008  0.0490
11380TIP3    H134081   1.316   6.068   2.904  0.0049 -1.0485 -0.6169
11380TIP3    H234082   1.174   6.090   2.950  0.3611 -0.5152  0.2385
11381TIP3   OH234083   8.302   7.338   2.950  0.5894 -0.1590 -0.8430
11381TIP3    H134084   8.320   7.360   2.858  1.8492  0.8093 -0.4016
11381TIP3    H234085   8.389   7.339   2.991  0.1545 -1.5588  0.1643
11382TIP3   OH234086   2.938   0.975   3.519 -0.0335  0.3656  0.8556
11382TIP3    H134087   2.859   0.937   3.481  1.1838 -0.9925 -0.5030
11382TIP3    H234088   2.972   1.033   3.451 -0.3252  1.6641  1.7898
11383TIP3   OH234089   3.773   7.814   0.980  0.1010 -0.2588 -0.6548
11383TIP3    H134090   3.764   7.752   0.908  2.4093  0.7970 -1.9665
11383TIP3    H234091   3.863   7.801   1.011 -0.0164  1.0708  0.3177
11384TIP3   OH234092   6.370   0.283   2.021 -0.2606  0.3526 -0.4322
11384TIP3    H134093   6.326   0.309   1.940 -0.1549  0.5101 -0.4408
11384TIP3    H234094   6.303   0.292   2.089 -0.8479 -1.4430 -0.7438
11385TIP3   OH234095   7.150   7.597   6.327 -0.3779 -0.5008 -0.1346
11385TIP3    H134096   7.191   7.646   6.257 -1.5225  0.1471 -0.3895
11385TIP3    H234097   7.107   7.523   6.284  1.4661 -1.8665  0.2650
11386TIP3   OH234098   3.527   5.748   4.436 -0.1693  0.3141  0.2712
11386TIP3    H134099   3.449   5.707   4.398 -0.1300 -0.4576  0.9862
11386TIP3    H234100   3.544   5.824   4.380  0.5366 -1.3519 -1.9232
11387TIP3   OH234101   7.057   4.397   1.437 -0.0746  0.2280 -0.3602
11387TIP3    H134102   7.023   4.383   1.348 -0.0443 -0.6113 -0.2420
11387TIP3    H234103   7.152   4.391   1.427 -0.0596  0.3962 -0.3173
11388TIP3   OH234104   0.586   5.211   4.653  0.3589  0.1564  0.0190
11388TIP3    H134105   0.609   5.227   4.562 -0.8000 -1.5294 -0.6223
11388TIP3    H234106   0.494   5.188   4.651  0.6927 -1.5148  1.3901
11389TIP3   OH234107   5.710   3.866   6.388  0.9988 -0.3801 -0.2762
11389TIP3    H134108   5.647   3.804   6.426  2.0023 -0.7669  0.8004
11389TIP3    H234109   5.747   3.913   6.463  1.5501  0.2749 -0.9416
11390TIP3   OH234110   1.474   0.540   0.867 -0.2698  0.3322  0.4746
11390TIP3    H134111   1.418   0.574   0.797 -0.8968 -0.8739  0.3473
11390TIP3    H234112   1.536   0.610   0.885  1.2830 -0.0525 -2.7523
11391TIP3   OH234113   7.287   6.141   0.337  0.3672 -0.2920 -0.0454
11391TIP3    H134114   7.218   6.079   0.314 -0.5637 -0.1048  1.9511
11391TIP3    H234115   7.258   6.224   0.299 -0.9374 -0.0589  1.3513
11392TIP3   OH234116   2.417   6.093   3.332  0.7229 -0.0377 -0.1490
11392TIP3    H134117   2.362   6.171   3.326  1.2904  0.3460 -0.4392
11392TIP3    H234118   2.494   6.122   3.383 -0.1673 -1.0413  1.8727
11393TIP3   OH234119   5.684   3.909   5.866 -0.2975 -0.6299  0.2061
11393TIP3    H134120   5.638   3.901   5.950 -2.1415 -0.6032 -0.7584
11393TIP3    H234121   5.685   3.821   5.831 -0.6796 -0.4408 -0.3005
11394TIP3   OH234122   3.288   5.671   4.246 -0.2127 -0.0187 -0.6547
11394TIP3    H134123   3.252   5.756   4.222  0.7213  0.8756  0.9641
11394TIP3    H234124   3.213   5.611   4.239 -1.8440  1.5827  1.6002
11395TIP3   OH234125   2.741   4.210   4.201 -0.6677 -0.2165 -0.4456
11395TIP3    H134126   2.684   4.285   4.186 -0.4374 -0.3140 -1.9234
11395TIP3    H234127   2.806   4.215   4.131  0.1711 -1.0276  0.2450
11396TIP3   OH234128   0.996   7.408   1.028  0.1216  0.3033  0.2713
11396TIP3    H134129   0.930   7.406   1.097 -0.0607  1.3308  0.1298
11396TIP3    H234130   1.061   7.344   1.056 -0.1995  0.3530  1.1470
11397TIP3   OH234131   3.105   6.607   6.254  0.2984  0.2824 -0.1261
11397TIP3    H134132   3.016   6.573   6.245  1.1452 -2.0772 -0.1970
11397TIP3    H234133   3.099   6.670   6.326 -1.4523  0.2614 -0.2153
11398TIP3   OH234134   1.115   6.973   2.117 -0.1973 -0.8842 -0.3433
11398TIP3    H134135   1.067   6.946   2.039 -0.9002  1.3372 -0.7443
11398TIP3    H234136   1.164   7.051   2.089  1.0698 -1.1786  0.9439
11399TIP3   OH234137   6.717   4.819   2.717  0.1613  0.0022 -0.2461
11399TIP3    H134138   6.800   4.822   2.763  0.5997 -1.5152 -0.8889
11399TIP3    H234139   6.678   4.735   2.741 -1.8853  1.2458  1.1450
11400TIP3   OH234140   7.956   1.472   3.936 -0.0869  0.4237 -0.3292
11400TIP3    H134141   8.033   1.528   3.930  1.8455 -1.6491  2.3366
11400TIP3    H234142   7.901   1.513   4.002  0.4303  0.1810  0.2639
11401TIP3   OH234143   7.014   2.309   3.265 -0.4007 -0.2174  0.2491
11401TIP3    H134144   6.982   2.324   3.354  0.1554  0.2160  0.3755
11401TIP3    H234145   7.060   2.225   3.269 -0.3642 -0.1905  0.3687
11402TIP3   OH234146   6.879   2.608   4.887  0.3264  0.1233  0.3628
11402TIP3    H134147   6.902   2.613   4.794  0.7136 -1.0336  0.3823
11402TIP3    H234148   6.952   2.651   4.931  1.5767 -1.8184  0.2902
11403TIP3   OH234149   4.619   1.409   2.839  0.8835  0.5428 -0.0594
11403TIP3    H134150   4.705   1.388   2.875  0.6658 -1.5130 -0.6120
11403TIP3    H234151   4.633   1.414   2.745  0.3467 -0.1140 -0.1777
11404TIP3   OH234152   4.259   0.865   4.508 -0.2442 -0.1552 -0.2955
11404TIP3    H134153   4.236   0.804   4.438 -3.2665  0.9252 -0.4048
11404TIP3    H234154   4.211   0.833   4.585  0.2650  0.6044  0.3605
11405TIP3   OH234155   5.217   2.006   6.512 -0.0092  0.1686  0.3491
11405TIP3    H134156   5.212   1.971   6.423  0.6609 -1.4007  0.8800
11405TIP3    H234157   5.163   2.085   6.511 -0.2174  0.0303 -1.3747
11406TIP3   OH234158   0.936   7.595   1.904 -0.6550 -0.0646  0.2180
11406TIP3    H134159   1.001   7.621   1.969 -0.0877 -1.0414  0.0667
11406TIP3    H234160   0.988   7.560   1.831 -1.2444  1.3846 -0.9621
11407TIP3   OH234161   1.567   1.359   2.573 -0.5000 -0.0095  0.7894
11407TIP3    H134162   1.663   1.359   2.579 -0.5308 -1.0158  1.6268
11407TIP3    H234163   1.548   1.385   2.483  0.5316  0.9297  0.8147
11408TIP3   OH234164   5.259   3.454   2.118 -0.6643 -0.2223 -0.0297
11408TIP3    H134165   5.287   3.506   2.194 -0.8196  0.5809 -0.5095
11408TIP3    H234166   5.306   3.493   2.044  0.2225 -1.5986 -0.2248
11409TIP3   OH234167   6.825   2.805   2.873 -0.4077 -0.1976 -0.2528
11409TIP3    H134168   6.820   2.769   2.961  0.5085  0.2332 -0.0046
11409TIP3    H234169   6.850   2.897   2.886  0.2230 -0.2558 -0.9677
11410TIP3   OH234170   2.825   4.876   0.503 -0.2712 -0.2625 -0.0672
11410TIP3    H134171   2.787   4.893   0.589 -0.0365 -0.0816  0.0026
11410TIP3    H234172   2.790   4.790   0.478 -1.5526  0.3510 -0.4739
11411TIP3   OH234173   0.313   0.324   5.340  1.0475 -1.2803 -0.2472
11411TIP3    H134174   0.266   0.389   5.287 -0.6919 -1.4393  1.0170
11411TIP3    H234175   0.244   0.279   5.388  2.4351 -2.4311  0.7175
11412TIP3   OH234176   5.255   4.124   0.339  0.0909 -0.3134 -0.1951
11412TIP3    H134177   5.323   4.079   0.289  0.9037  0.7732 -0.1225
11412TIP3    H234178   5.302   4.170   0.408 -0.6907  0.5561 -0.2078
11413TIP3   OH234179   8.030   7.472   1.440 -0.0799 -0.2017 -0.4597
11413TIP3    H134180   8.013   7.462   1.346  0.0671 -2.9467 -0.2763
11413TIP3    H234181   7.971   7.409   1.482  1.9089 -1.1967  1.0293
11414TIP3   OH234182   6.137   7.636   1.074 -0.9268 -0.0170  0.8196
11414TIP3    H134183   6.135   7.609   0.982 -2.2535 -0.9479  1.0988
11414TIP3    H234184   6.122   7.730   1.072 -1.0328 -0.0441  0.0860
11415TIP3   OH234185   5.868   1.697   3.417  0.3881  0.0778 -1.0034
11415TIP3    H134186   5.797   1.650   3.460 -1.1552  2.9228 -0.2164
11415TIP3    H234187   5.859   1.675   3.324 -1.2998  0.0796 -0.8707
11416TIP3   OH234188   1.861   2.318   3.087 -0.1574  0.4346 -0.3066
11416TIP3    H134189   1.917   2.334   3.163 -1.9003 -0.1560  1.1789
11416TIP3    H234190   1.876   2.226   3.064 -1.0525  0.0427  0.5999
11417TIP3   OH234191   0.005   2.072   6.073  0.2823 -0.0423  0.4554
11417TIP3    H134192   0.043   2.042   5.990  0.5788  1.3104  0.0680
11417TIP3    H234193   0.081   2.083   6.131  0.4150  1.5950  0.0306
11418TIP3   OH234194   5.072   1.351   0.671 -0.1395  0.2298 -0.0458
11418TIP3    H134195   5.128   1.407   0.618  0.0874  0.9114  0.9074
11418TIP3    H234196   5.052   1.402   0.749 -1.1606 -0.4383  0.1567
11419TIP3   OH234197   1.710   1.773   1.528  0.1059 -0.3928  0.2027
11419TIP3    H134198   1.765   1.698   1.550  0.8798  0.1191  0.0547
11419TIP3    H234199   1.656   1.787   1.607  1.7040  0.4149  1.1965
11420TIP3   OH234200   2.742   0.740   6.444  0.5641 -0.2228 -0.1672
11420TIP3    H134201   2.790   0.768   6.366  1.7805 -0.3945  0.4919
11420TIP3    H234202   2.808   0.696   6.498 -0.1352  0.3234  1.1753
11421TIP3   OH234203   5.757   3.767   0.445 -0.3213  0.1448  0.2375
11421TIP3    H134204   5.702   3.838   0.476 -0.6878 -0.6307  1.4358
11421TIP3    H234205   5.696   3.705   0.405 -0.1706 -0.1319  0.4352
11422TIP3   OH234206   2.172   2.590   4.478 -0.1538 -0.4567 -0.4931
11422TIP3    H134207   2.078   2.577   4.488  0.1851 -2.6723  0.4367
11422TIP3    H234208   2.205   2.505   4.450  1.7206 -0.0697  0.3827
11423TIP3   OH234209   4.340   7.483   1.928  0.6434 -0.4347 -0.0592
11423TIP3    H134210   4.363   7.554   1.987  0.6150 -1.8615  1.7405
11423TIP3    H234211   4.382   7.506   1.845  2.3344  0.6833  1.0524
11424TIP3   OH234212   6.117   5.543   6.169 -0.0294  0.3434  0.2428
11424TIP3    H134213   6.157   5.628   6.187  0.3812 -0.1247  1.6591
11424TIP3    H234214   6.094   5.547   6.076  0.1587  1.9202  0.2359
11425TIP3   OH234215   6.853   1.220   6.591 -0.4660 -0.5174 -0.2007
11425TIP3    H134216   6.841   1.201   6.498 -0.7484  1.1792 -0.5528
11425TIP3    H234217   6.896   1.143   6.626 -0.3341 -1.1847 -1.7456
11426TIP3   OH234218   7.014   2.670   1.711  0.2495  0.1403  0.3213
11426TIP3    H134219   6.977   2.610   1.776 -2.2921  0.4654 -0.7111
11426TIP3    H234220   7.020   2.617   1.631 -1.0353  0.9274 -0.3264
11427TIP3   OH234221   1.970   1.420   0.583  0.1876 -0.4719 -0.0354
11427TIP3    H134222   1.966   1.453   0.673  2.1209 -1.0547  0.3260
11427TIP3    H234223   1.925   1.336   0.586  0.6788 -0.7231  0.5288
11428TIP3   OH234224   2.541   2.274   5.236 -0.4552 -0.2838  0.4282
11428TIP3    H134225   2.538   2.323   5.318  2.1761 -1.3977  1.2967
11428TIP3    H234226   2.461   2.222   5.236 -1.6259  1.4324  1.1286
11429TIP3   OH234227   6.011   7.247   5.171  0.0006 -0.2886  0.0365
11429TIP3    H134228   6.076   7.246   5.240  0.1573 -0.7085 -0.1129
11429TIP3    H234229   5.964   7.163   5.180  0.2243 -0.4846 -0.5486
11430TIP3   OH234230   0.296   0.788   2.171  0.3873  0.7412  0.1127
11430TIP3    H134231   0.266   0.855   2.232  1.5127  0.7390  0.7107
11430TIP3    H234232   0.385   0.768   2.201  0.7025  0.2394 -1.1172
11431TIP3   OH234233   7.868   2.351   3.508 -1.1281  0.7602  0.1133
11431TIP3    H134234   7.849   2.422   3.569 -0.1701  0.8047  0.3827
11431TIP3    H234235   7.954   2.318   3.536 -0.0891  1.5729 -1.9149
11432TIP3   OH234236   2.241   1.056   0.216  0.1325  0.1218  0.3050
11432TIP3    H134237   2.172   0.994   0.189  0.7025 -0.0597 -0.8326
11432TIP3    H234238   2.322   1.006   0.205  0.6907  1.3314 -1.5999
11433TIP3   OH234239   0.405   7.746   1.089  0.0593 -0.6009 -0.1389
11433TIP3    H134240   0.458   7.670   1.063  1.3074  0.0676  0.4269
11433TIP3    H234241   0.379   7.727   1.179  0.0585 -0.5274 -0.1242
11434TIP3   OH234242   3.516   0.706   5.027 -0.1405 -0.0481 -0.1032
11434TIP3    H134243   3.496   0.733   4.938  0.4245  0.9239  0.0458
11434TIP3    H234244   3.432   0.679   5.064 -0.5267  0.3868 -0.6550
11435TIP3   OH234245   4.981   2.416   0.871 -0.0548 -0.0244  0.0024
11435TIP3    H134246   4.975   2.430   0.966 -0.2456  1.2547 -0.1897
11435TIP3    H234247   4.902   2.368   0.849 -0.6667  0.8336  0.2966
11436TIP3   OH234248   4.583   7.414   1.439 -0.9349  0.4379 -0.1879
11436TIP3    H134249   4.637   7.469   1.381 -1.0499  1.4012  0.5824
11436TIP3    H234250   4.642   7.344   1.467 -1.2314 -0.7635 -2.4114
11437TIP3   OH234251   1.516   5.814   1.424  0.1263  0.0046  0.4361
11437TIP3    H134252   1.605   5.828   1.455  0.1777  0.3652  0.1265
11437TIP3    H234253   1.479   5.750   1.485  1.3662 -2.0118 -0.8101
11438TIP3   OH234254   7.291   3.985   6.427 -0.1843 -0.3516  0.0651
11438TIP3    H134255   7.345   4.042   6.481  0.0403  0.5851 -1.1007
11438TIP3    H234256   7.351   3.917   6.395 -0.1551 -0.4773  0.3835
11439TIP3   OH234257   7.429   4.947   3.804  0.1742  0.0935  0.2279
11439TIP3    H134258   7.351   4.983   3.762  0.4409 -0.1302 -0.4820
11439TIP3    H234259   7.452   4.871   3.751  0.8924  0.1693  0.4112
11440TIP3   OH234260   7.292   7.803   0.614 -0.1049  0.4501 -0.0350
11440TIP3    H134261   7.242   7.804   0.532 -1.1325 -0.4493  0.5484
11440TIP3    H234262   7.232   7.840   0.679 -0.9730 -2.6789  1.1422
11441TIP3   OH234263   6.214   2.420   4.849 -0.0060 -0.6331 -0.4196
11441TIP3    H134264   6.246   2.486   4.911 -0.9396  0.9948 -1.5839
11441TIP3    H234265   6.294   2.382   4.812  0.6240 -2.5198  2.5337
11442TIP3   OH234266   5.869   6.369   0.456  0.3086 -0.1177  0.6822
11442TIP3    H134267   5.846   6.282   0.424  0.7570 -0.1783  0.5052
11442TIP3    H234268   5.855   6.364   0.550  0.9296 -0.5856  0.7597
11443TIP3   OH234269   0.272   4.036   6.357  0.3536  0.1806 -0.2603
11443TIP3    H134270   0.352   4.005   6.315  1.4917  2.8472 -0.2651
11443TIP3    H234271   0.298   4.116   6.403 -1.2666 -1.2987  3.7495
11444TIP3   OH234272   8.074   5.929   2.379  0.0230  0.2064  0.2780
11444TIP3    H134273   8.149   5.874   2.399 -1.0611 -1.0359  1.0768
11444TIP3    H234274   8.086   6.007   2.433  1.0479  0.3023 -0.0805
11445TIP3   OH234275   1.823   5.274   5.412 -0.4912  0.6305  0.1495
11445TIP3    H134276   1.779   5.189   5.416  0.8054 -0.0296  0.7678
11445TIP3    H234277   1.803   5.315   5.497  0.9531 -0.1289  0.8784
11446TIP3   OH234278   1.312   6.422   6.249 -0.0045 -0.3121  0.2810
11446TIP3    H134279   1.221   6.435   6.225  0.2742  0.4483 -0.3894
11446TIP3    H234280   1.316   6.445   6.342 -0.1164  1.5554 -0.1549
11447TIP3   OH234281   7.401   6.929   3.438  0.5769  0.0161 -0.2217
11447TIP3    H134282   7.368   6.847   3.401 -3.2184  1.3045 -0.1941
11447TIP3    H234283   7.361   6.933   3.525  0.4995  1.9377 -0.3135
11448TIP3   OH234284   4.349   3.509   6.307  0.3220 -0.2147 -0.8120
11448TIP3    H134285   4.425   3.457   6.280  2.6668  2.0626  0.8134
11448TIP3    H234286   4.373   3.599   6.282 -1.8223  0.5940 -0.1277
11449TIP3   OH234287   5.396   5.690   3.776  0.2409  0.2988  0.3389
11449TIP3    H134288   5.311   5.700   3.733  0.7684  0.8394 -0.6057
11449TIP3    H234289   5.445   5.769   3.752  0.5919  0.5685  1.8667
11450TIP3   OH234290   3.653   1.449   0.975  0.1394  0.9017  0.0070
11450TIP3    H134291   3.732   1.496   0.946  1.4123 -0.5212  0.9645
11450TIP3    H234292   3.662   1.362   0.937 -1.1984  0.8235 -0.1765
11451TIP3   OH234293   5.787   4.015   1.768 -0.3548  0.1987  0.1813
11451TIP3    H134294   5.803   4.093   1.715  0.4168  0.6627  1.0606
11451TIP3    H234295   5.768   4.049   1.855  0.2822 -0.6083  0.6465
11452TIP3   OH234296   5.971   7.774   3.429 -0.4128 -0.0267 -0.1998
11452TIP3    H134297   5.983   7.742   3.518 -0.8546  0.5347  0.0606
11452TIP3    H234298   6.009   7.862   3.430  0.5467 -0.4149 -0.8432
11453TIP3   OH234299   0.529   6.414   6.284  0.2613  0.3359  0.7884
11453TIP3    H134300   0.439   6.446   6.278  0.2298  0.1177 -0.1162
11453TIP3    H234301   0.573   6.476   6.342 -0.0471  1.4819 -0.1553
11454TIP3   OH234302   1.629   7.623   1.407  0.0577 -0.0595  0.5843
11454TIP3    H134303   1.639   7.717   1.396  1.5945 -0.1944  0.5255
11454TIP3    H234304   1.573   7.612   1.483  0.1903  0.9069  0.8242
11455TIP3   OH234305   5.848   3.391   3.935  0.4910 -0.1407 -0.7436
11455TIP3    H134306   5.803   3.469   3.969 -1.8414 -1.7241  0.1120
11455TIP3    H234307   5.858   3.407   3.842 -2.2545  0.2311 -1.0530
11456TIP3   OH234308   0.447   2.374   2.602 -0.2605  0.3834  0.0842
11456TIP3    H134309   0.518   2.311   2.592  0.3141  1.1123 -0.5654
11456TIP3    H234310   0.469   2.445   2.542 -2.0860  0.1440 -0.9388
11457TIP3   OH234311   1.025   0.113   3.636 -0.3765  0.1249  0.1736
11457TIP3    H134312   1.091   0.079   3.576  0.3178 -2.1780  2.0409
11457TIP3    H234313   1.076   0.159   3.703 -0.3599 -2.5912  2.2229
11458TIP3   OH234314   8.010   5.003   3.657  0.4737  0.4941  0.1141
11458TIP3    H134315   7.966   4.919   3.672  1.9742 -0.0033  2.0847
11458TIP3    H234316   7.953   5.068   3.698 -0.7605  0.5272 -1.5353
11459TIP3   OH234317   1.534   0.304   2.373  0.1868  0.0985  0.4569
11459TIP3    H134318   1.522   0.309   2.278 -0.0604  1.9258  0.5458
11459TIP3    H234319   1.570   0.217   2.388  1.5189  0.2489 -1.4621
11460TIP3   OH234320   2.561   2.405   5.475  0.7279 -0.2650  0.0304
11460TIP3    H134321   2.489   2.423   5.535 -0.3306 -0.2892 -1.1896
11460TIP3    H234322   2.631   2.464   5.502 -0.5071  1.3122 -0.0759
11461TIP3   OH234323   0.791   6.286   1.893  0.0301  0.1160  0.1059
11461TIP3    H134324   0.878   6.327   1.895  0.2968 -0.4194 -0.0156
11461TIP3    H234325   0.730   6.358   1.881  0.4722  0.4894  0.0652
11462TIP3   OH234326   2.425   4.322   0.900 -0.3198  0.1770  0.1859
11462TIP3    H134327   2.415   4.393   0.837  2.0166 -0.0554 -0.5469
11462TIP3    H234328   2.509   4.340   0.942 -0.6200 -1.1053  1.3859
11463TIP3   OH234329   5.477   5.440   0.482  0.9555  0.3559 -0.3778
11463TIP3    H134330   5.538   5.492   0.534  1.0887 -1.9976  2.0305
11463TIP3    H234331   5.532   5.375   0.438  0.5994  0.9306 -1.6980
11464TIP3   OH234332   4.948   2.021   5.365  0.4380 -0.4910  0.2500
11464TIP3    H134333   4.991   2.047   5.284  0.4276 -0.2538  0.3204
11464TIP3    H234334   4.896   2.097   5.391  0.5866 -0.4960  0.5750
11465TIP3   OH234335   4.412   3.604   3.296 -0.1309 -0.1015  0.6665
11465TIP3    H134336   4.469   3.612   3.372 -0.7025 -0.3471  1.1249
11465TIP3    H234337   4.377   3.692   3.283  2.4734  0.7925 -1.3405
11466TIP3   OH234338   7.794   5.996   2.456  0.0065  0.1175  0.0058
11466TIP3    H134339   7.887   5.980   2.470  0.3967  1.7807 -0.4218
11466TIP3    H234340   7.779   5.976   2.364 -0.1403 -0.4633  0.1528
11467TIP3   OH234341   1.041   1.899   3.312  0.1313  0.2668 -0.2649
11467TIP3    H134342   1.012   1.833   3.250  2.4965 -0.1674 -1.0250
11467TIP3    H234343   1.025   1.860   3.398  0.5875 -0.9078 -0.6943
11468TIP3   OH234344   4.282   5.191   4.690 -0.2535  0.7153  0.2917
11468TIP3    H134345   4.319   5.142   4.616 -1.0638  0.0192  0.3226
11468TIP3    H234346   4.203   5.231   4.654 -1.4414 -0.7973  1.1067
11469TIP3   OH234347   4.175   3.339   1.067  0.1399  0.1406 -1.1852
11469TIP3    H134348   4.210   3.352   1.154 -0.9867 -2.2247 -0.2905
11469TIP3    H234349   4.251   3.342   1.009  1.2129 -0.4678  0.1514
11470TIP3   OH234350   8.169   6.649   3.572 -0.3928 -0.2565  0.1662
11470TIP3    H134351   8.111   6.726   3.580  0.7760  0.5235  1.8324
11470TIP3    H234352   8.109   6.576   3.558 -1.5021  1.0207 -2.5086
11471TIP3   OH234353   5.375   6.062   2.088 -0.3183 -0.3229 -0.5368
11471TIP3    H134354   5.416   6.004   2.024 -0.4208  1.1579 -2.0315
11471TIP3    H234355   5.441   6.074   2.156 -0.2470 -2.0317 -0.2797
11472TIP3   OH234356   4.037   0.449   3.152  0.6645 -0.0299 -0.4784
11472TIP3    H134357   4.097   0.396   3.099  0.4219 -0.8439  0.0434
11472TIP3    H234358   4.041   0.536   3.113 -0.5196 -0.8918 -2.7256
11473TIP3   OH234359   6.026   0.857   4.826  0.1259  0.2178  0.1006
11473TIP3    H134360   5.930   0.857   4.837 -0.3872 -2.0237 -3.1376
11473TIP3    H234361   6.057   0.794   4.891 -0.6612  0.4740  0.7468
11474TIP3   OH234362   1.204   7.736   1.782  0.5578 -0.0762  0.5495
11474TIP3    H134363   1.273   7.783   1.830  0.8033 -0.4978  0.6137
11474TIP3    H234364   1.238   7.648   1.771  0.5082  0.0146 -0.4283
11475TIP3   OH234365   5.098   5.372   5.147  0.1718  0.0217 -0.4891
11475TIP3    H134366   5.075   5.449   5.094 -1.1799 -1.3002 -1.9275
11475TIP3    H234367   5.092   5.402   5.237  0.0620  1.7075 -1.0204
11476TIP3   OH234368   2.036   1.364   4.173  0.3058 -0.1490 -0.4456
11476TIP3    H134369   2.079   1.311   4.105  1.6039  1.4134 -0.9051
11476TIP3    H234370   2.001   1.440   4.126 -0.5296 -0.0131  0.3650
11477TIP3   OH234371   4.590   0.364   2.933 -0.5369  0.3889 -0.2891
11477TIP3    H134372   4.530   0.437   2.950  0.2230  1.2258 -1.0741
11477TIP3    H234373   4.563   0.331   2.847  1.1077  1.8381 -1.4328
11478TIP3   OH234374   4.582   3.125   0.165  0.6958 -0.5765  0.1217
11478TIP3    H134375   4.614   3.181   0.095  1.0512  0.2167  0.8879
11478TIP3    H234376   4.557   3.043   0.122  1.9941 -0.5390 -0.7699
11479TIP3   OH234377   0.381   4.760   3.708  0.2560 -0.2133 -0.3720
11479TIP3    H134378   0.326   4.703   3.761  2.0519 -0.8192  0.9688
11479TIP3    H234379   0.347   4.848   3.722  1.3198 -0.1937  2.7861
11480TIP3   OH234380   2.917   5.830   3.497  0.2475  0.0803 -0.2160
11480TIP3    H134381   2.929   5.756   3.438 -2.8280 -0.2639 -0.5385
11480TIP3    H234382   2.932   5.907   3.442  0.7884 -0.2441 -0.5360
11481TIP3   OH234383   3.785   4.092   2.694 -0.3317  1.1129  0.1195
11481TIP3    H134384   3.802   3.998   2.701  0.9050  1.3645  0.6766
11481TIP3    H234385   3.728   4.112   2.768  1.6231  1.2690  1.6692
11482TIP3   OH234386   4.074   4.272   4.879  0.8561  0.3840  0.3155
11482TIP3    H134387   4.044   4.220   4.954  2.1852  0.2744  0.7900
11482TIP3    H234388   4.001   4.267   4.816  0.6216 -1.3932  0.6733
11483TIP3   OH234389   3.051   7.704   3.477 -0.3057 -0.1021  0.0878
11483TIP3    H134390   3.126   7.758   3.452  0.8362 -1.3964  0.5987
11483TIP3    H234391   3.055   7.700   3.573 -0.5048 -0.9168  0.0688
11484TIP3   OH234392   1.001   1.052   1.406 -0.4596 -0.0004  0.1498
11484TIP3    H134393   1.047   1.131   1.377 -1.2494  0.7693  0.9079
11484TIP3    H234394   0.908   1.071   1.391 -0.6090 -1.2136 -0.6294
11485TIP3   OH234395   5.732   1.613   1.056 -0.2581  0.5204  0.2356
11485TIP3    H134396   5.772   1.528   1.072  0.5282  1.1086  1.4990
11485TIP3    H234397   5.754   1.634   0.965  0.4723 -0.1379  0.2563
11486TIP3   OH234398   7.573   7.483   6.704  0.1476  0.2082  0.6895
11486TIP3    H134399   7.627   7.456   6.630 -1.0237  0.8121 -0.4414
11486TIP3    H234400   7.583   7.578   6.708 -1.8511  0.5384 -0.4671
11487TIP3   OH234401   2.519   4.636   1.798 -0.1570  0.1650  0.2191
11487TIP3    H134402   2.554   4.716   1.838  0.3962  0.9691 -1.7650
11487TIP3    H234403   2.597   4.585   1.774 -0.4979 -0.7782  1.0566
11488TIP3   OH234404   1.928   0.393   3.236 -0.5239 -0.2308 -0.0154
11488TIP3    H134405   1.864   0.323   3.222  1.2657 -2.3035  1.3241
11488TIP3    H234406   2.006   0.347   3.268  1.4495  2.2104 -0.9754
11489TIP3   OH234407   5.175   6.723   3.826  0.5302  0.3166 -0.0184
11489TIP3    H134408   5.109   6.686   3.768 -0.6388  1.9307  0.2055
11489TIP3    H234409   5.154   6.689   3.913  2.3186 -2.1523 -0.4613
11490TIP3   OH234410   7.082   5.071   3.450  0.4777  0.6898 -0.0551
11490TIP3    H134411   7.084   5.005   3.520 -2.7808 -1.4214 -1.6979
11490TIP3    H234412   7.002   5.121   3.467  0.2882  0.9399 -1.5703
11491TIP3   OH234413   1.427   2.964   0.401 -0.1022 -0.1417  0.4205
11491TIP3    H134414   1.377   2.981   0.481  0.0707  0.9701  0.3066
11491TIP3    H234415   1.392   3.026   0.337  0.7689  0.0169  0.0744
11492TIP3   OH234416   4.806   2.858   6.556 -0.0884 -0.0571  0.3805
11492TIP3    H134417   4.831   2.930   6.498 -0.4251  0.8461  1.3310
11492TIP3    H234418   4.888   2.817   6.581  0.1603  0.4372  0.3835
11493TIP3   OH234419   6.953   5.403   1.051  0.9358  0.3678  0.1412
11493TIP3    H134420   6.910   5.443   1.126  0.2322  0.7694 -0.4622
11493TIP3    H234421   6.978   5.316   1.082 -2.3520 -0.8266 -0.0913
11494TIP3   OH234422   1.712   1.786   5.571  0.4343 -0.7494 -0.5822
11494TIP3    H134423   1.766   1.863   5.555  1.4474 -1.5118 -0.9695
11494TIP3    H234424   1.774   1.713   5.572 -0.5048 -1.5728 -0.3010
11495TIP3   OH234425   7.154   3.843   5.903  0.0302  0.1507 -0.1235
11495TIP3    H134426   7.120   3.855   5.991  0.3331  2.0751 -0.2244
11495TIP3    H234427   7.210   3.919   5.888  1.8226 -1.2923 -1.1468
11496TIP3   OH234428   6.513   1.615   5.237 -0.1213 -0.1218 -0.6193
11496TIP3    H134429   6.428   1.627   5.193  0.3541  0.5976 -1.3747
11496TIP3    H234430   6.497   1.643   5.327 -0.4304  1.0715 -1.0223
11497TIP3   OH234431   0.582   5.159   6.676  0.2032  0.0845  0.3239
11497TIP3    H134432   0.675   5.136   6.673  0.1587 -0.2096 -3.0766
11497TIP3    H234433   0.573   5.232   6.614 -1.8242  0.1096  0.5581
11498TIP3   OH234434   2.147   3.083   5.564  0.1616 -0.5682  0.1625
11498TIP3    H134435   2.199   3.143   5.618  0.3336 -0.7706  0.2214
11498TIP3    H234436   2.108   3.022   5.627  0.4072 -0.8398  0.0565
11499TIP3   OH234437   4.865   7.041   2.303 -0.2630  0.0158 -0.1452
11499TIP3    H134438   4.803   7.115   2.306 -0.5355 -0.2041 -0.2960
11499TIP3    H234439   4.950   7.081   2.319 -0.4842  0.2761  0.3946
11500TIP3   OH234440   2.570   7.877   0.417 -0.6760  0.2632 -0.3230
11500TIP3    H134441   2.603   7.878   0.327  0.9912 -0.9052  0.2183
11500TIP3    H234442   2.537   7.966   0.431 -0.1751  0.7207 -1.8018
11501TIP3   OH234443   0.297   7.882   5.465  0.1361 -0.0045  0.5580
11501TIP3    H134444   0.213   7.925   5.451  0.6561  0.6652 -0.7012
11501TIP3    H234445   0.281   7.818   5.534 -1.6735 -0.6014 -0.3723
11502TIP3   OH234446   0.403   0.250   5.032  0.2769 -0.0304  0.1528
11502TIP3    H134447   0.443   0.233   5.117 -0.8505 -2.0816  0.3365
11502TIP3    H234448   0.315   0.213   5.038 -0.0601  0.3508 -1.6880
11503TIP3   OH234449   4.029   5.586   2.880 -0.8288 -0.2313  0.5271
11503TIP3    H134450   4.099   5.567   2.943  1.3545  0.2761 -1.5626
11503TIP3    H234451   3.978   5.655   2.920 -1.1141 -1.6658  2.7942
11504TIP3   OH234452   1.516   6.387   2.385  0.0741 -0.3578 -0.4667
11504TIP3    H134453   1.426   6.382   2.354 -0.4509 -0.8472  1.0666
11504TIP3    H234454   1.538   6.297   2.409  1.3357 -0.4293 -1.7511
11505TIP3   OH234455   5.657   3.636   0.968 -0.2923  0.4713 -0.1337
11505TIP3    H134456   5.610   3.564   1.009 -0.7707  0.0588 -1.3633
11505TIP3    H234457   5.609   3.653   0.887  2.0717 -0.4619 -1.8560
11506TIP3   OH234458   5.118   1.115   4.929  0.2469 -0.6933 -0.2492
11506TIP3    H134459   5.028   1.147   4.925  0.7081  0.7912  0.4897
11506TIP3    H234460   5.132   1.094   5.021  1.0282  0.3022 -0.1207
11507TIP3   OH234461   8.328   3.049   1.972  0.3965 -0.7435  0.0100
11507TIP3    H134462   8.252   2.992   1.957 -0.4727  0.2997  0.3200
11507TIP3    H234463   8.403   2.996   1.945 -0.3470 -2.1674  0.6096
11508TIP3   OH234464   4.854   5.419   1.425 -0.4811  0.1555 -0.1567
11508TIP3    H134465   4.843   5.406   1.330  0.4860 -0.0037 -0.2501
11508TIP3    H234466   4.903   5.343   1.454  0.6341  0.9825  0.1923
11509TIP3   OH234467   3.551   6.154   3.349 -0.1817  0.0029 -0.3501
11509TIP3    H134468   3.616   6.104   3.398  0.5186  0.4786 -0.7804
11509TIP3    H234469   3.575   6.142   3.257 -1.3484 -0.6963 -0.5819
11510TIP3   OH234470   4.552   2.149   0.410  0.4190  0.0321  0.3784
11510TIP3    H134471   4.610   2.114   0.343  1.1253 -1.3150  1.6100
11510TIP3    H234472   4.608   2.161   0.487 -0.6779 -0.1461  1.2455
11511TIP3   OH234473   0.458   6.053   6.118 -0.2046  0.8346 -0.5078
11511TIP3    H134474   0.406   6.081   6.193  0.0302  1.1081 -0.4478
11511TIP3    H234475   0.480   6.133   6.071  0.8933  0.8168 -0.0533
11512TIP3   OH234476   4.222   2.155   0.270  0.8252  0.0795 -0.2124
11512TIP3    H134477   4.313   2.150   0.299  1.3577  0.5569 -1.6813
11512TIP3    H234478   4.210   2.246   0.242  0.2614 -0.2555 -1.1153
11513TIP3   OH234479   6.443   4.395   0.797 -0.2827 -0.0585  0.0962
11513TIP3    H134480   6.419   4.325   0.737 -0.0103 -0.0213 -0.0590
11513TIP3    H234481   6.373   4.459   0.790 -0.2412 -0.0456 -0.1975
11514TIP3   OH234482   3.650   5.730   3.606  0.1263  0.0761 -0.0421
11514TIP3    H134483   3.563   5.720   3.568  0.7481 -0.7501 -1.3352
11514TIP3    H234484   3.636   5.724   3.701 -1.6499  3.5107  0.0517
11515TIP3   OH234485   6.187   6.151   5.672  0.1947 -0.1263 -0.4316
11515TIP3    H134486   6.179   6.103   5.755  0.3344  0.3248 -0.1534
11515TIP3    H234487   6.097   6.175   5.650  0.3041  1.1624  0.4378
11516TIP3   OH234488   2.929   1.726   5.609  0.5818 -0.1081  0.0394
11516TIP3    H134489   2.916   1.821   5.620 -0.7757 -0.2835  0.0777
11516TIP3    H234490   2.905   1.688   5.693  0.8554 -0.5103 -0.0633
11517TIP3   OH234491   2.221   3.194   0.013  0.0731  0.5036 -0.4753
11517TIP3    H134492   2.205   3.183   0.107 -0.4696  0.7337 -0.5329
11517TIP3    H234493   2.183   3.280  -0.008 -2.1787 -0.6217 -1.3941
11518TIP3   OH234494   1.482   3.744   5.454  0.1566  0.2706  0.6144
11518TIP3    H134495   1.448   3.767   5.540  0.9556 -2.3396  1.7518
11518TIP3    H234496   1.574   3.722   5.470  0.3714 -0.0571 -0.9308
11519TIP3   OH234497   4.039   5.727   2.286 -0.2197 -0.0962  0.3961
11519TIP3    H134498   4.121   5.770   2.310 -0.2006 -0.1543  0.4327
11519TIP3    H234499   4.006   5.779   2.213 -1.1303  1.1348  1.6197
11520TIP3   OH234500   3.258   5.946   2.176 -0.1133  0.0616 -0.6253
11520TIP3    H134501   3.209   5.982   2.250  0.1184  0.0793 -0.4779
11520TIP3    H234502   3.233   5.853   2.174  0.6962 -0.1904  0.1542
11521TIP3   OH234503   6.777   7.203   1.170  0.4782  0.2569  0.0139
11521TIP3    H134504   6.704   7.247   1.215  1.3468  1.8633 -0.0706
11521TIP3    H234505   6.783   7.248   1.085  0.0803 -1.4631 -0.9658
11522TIP3   OH234506   6.215   1.254   3.748  0.1059 -0.0724  0.2909
11522TIP3    H134507   6.122   1.277   3.752 -0.1255 -1.0846  1.8394
11522TIP3    H234508   6.229   1.199   3.825  1.9769 -0.0295  0.0313
11523TIP3   OH234509   0.885   4.205   0.419  0.5875 -0.7777  0.3747
11523TIP3    H134510   0.947   4.227   0.349 -0.4065 -1.0198 -0.5966
11523TIP3    H234511   0.828   4.139   0.381  0.3594 -1.3096  1.6004
11524TIP3   OH234512   5.363   5.329   4.395  0.2329  0.3740  0.6390
11524TIP3    H134513   5.289   5.271   4.413  0.1844  0.6796  1.4835
11524TIP3    H234514   5.374   5.379   4.476  0.6747  1.0958  0.1460
11525TIP3   OH234515   6.837   4.017   4.484  0.1805  0.6888  0.0154
11525TIP3    H134516   6.920   3.970   4.496 -0.5809 -1.3485 -1.9777
11525TIP3    H234517   6.772   3.963   4.528 -0.5860  0.2526 -1.5557
11526TIP3   OH234518   1.089   5.950   3.450 -0.0132 -0.1914 -0.2345
11526TIP3    H134519   1.155   5.887   3.479  1.8508  1.5929 -0.3544
11526TIP3    H234520   1.095   6.022   3.514 -0.9046  0.6119 -1.0189
11527TIP3   OH234521   8.199   5.543   1.965  0.1280 -0.3585  0.4358
11527TIP3    H134522   8.127   5.536   2.027  0.6867 -2.4437  0.9222
11527TIP3    H234523   8.276   5.558   2.020  0.1951  1.3037 -0.0452
11528TIP3   OH234524   4.780   1.136   2.177  0.6362 -0.0466  0.0232
11528TIP3    H134525   4.768   1.128   2.082  2.6095 -1.8833 -0.1278
11528TIP3    H234526   4.854   1.196   2.186 -0.3604  1.1521  0.4877
11529TIP3   OH234527   7.697   0.354   1.046 -0.0863  0.0449  0.5337
11529TIP3    H134528   7.698   0.436   1.095 -0.3081 -0.0971  0.7744
11529TIP3    H234529   7.604   0.331   1.039  0.0148 -0.6008  1.1577
11530TIP3   OH234530   6.694   7.314   1.810  0.0128 -0.2302  0.0371
11530TIP3    H134531   6.644   7.358   1.879 -1.6620 -2.4210  0.3301
11530TIP3    H234532   6.761   7.377   1.785  0.3476  0.8939  3.2731
11531TIP3   OH234533   3.870   5.552   4.083 -0.3584  0.4511 -1.0612
11531TIP3    H134534   3.839   5.514   4.000 -0.9324  1.1942 -1.1986
11531TIP3    H234535   3.926   5.624   4.056  1.4156 -0.7576 -0.8130
11532TIP3   OH234536   5.463   6.347   3.955  0.6128 -0.1802 -0.5764
11532TIP3    H134537   5.493   6.405   4.025 -0.2058  0.0407 -0.3987
11532TIP3    H234538   5.425   6.405   3.889 -0.3193 -0.5045 -0.3474
11533TIP3   OH234539   0.923   2.051   0.350 -0.3540  0.3479 -0.4669
11533TIP3    H134540   0.936   2.031   0.442 -0.6328  0.5915 -0.3718
11533TIP3    H234541   0.909   2.146   0.348  0.4609  0.4649 -0.8501
11534TIP3   OH234542   4.493   7.747   6.058  0.3057  0.0638  0.2725
11534TIP3    H134543   4.499   7.652   6.063 -1.6142 -0.0476  1.6013
11534TIP3    H234544   4.509   7.777   6.147 -2.1543  0.6964  0.5754
11535TIP3   OH234545   4.314   4.690   2.049 -0.1131  0.8276  0.6043
11535TIP3    H134546   4.260   4.611   2.050  1.0140  0.0326  0.4796
11535TIP3    H234547   4.358   4.688   1.964  0.0052  1.5453  0.6430
11536TIP3   OH234548   3.907   7.537   5.486 -0.2695  0.2464  0.3942
11536TIP3    H134549   3.946   7.492   5.561  0.2654  1.1854  0.6928
11536TIP3    H234550   3.974   7.601   5.460 -0.2189 -0.4102 -1.2073
11537TIP3   OH234551   5.940   0.237   5.181 -0.3850 -0.3121  0.2281
11537TIP3    H134552   5.901   0.264   5.264 -2.1228 -0.2032 -0.5738
11537TIP3    H234553   6.006   0.304   5.163 -2.7768  2.0620 -0.4082
11538TIP3   OH234554   6.134   7.547   5.402  0.4748  0.2517  0.3920
11538TIP3    H134555   6.179   7.498   5.334 -0.7693 -0.9658  0.4105
11538TIP3    H234556   6.200   7.562   5.469  1.5759  0.9932 -0.8056
11539TIP3   OH234557   1.296   2.626   3.943  0.1772 -1.1179 -0.2401
11539TIP3    H134558   1.375   2.677   3.959  1.0528 -1.7890 -2.1720
11539TIP3    H234559   1.262   2.659   3.860 -0.2370 -2.4513 -0.6273
11540TIP3   OH234560   5.950   6.970   4.194  0.0834  0.4723 -0.0256
11540TIP3    H134561   5.954   7.065   4.187  3.7108  0.5995  1.6402
11540TIP3    H234562   5.915   6.954   4.281  0.8269  0.3539  0.2582
11541TIP3   OH234563   8.064   4.467   2.233 -0.1917 -0.2401 -0.4291
11541TIP3    H134564   8.041   4.382   2.270 -0.1623 -0.4005 -0.7788
11541TIP3    H234565   7.990   4.524   2.255  0.8039  0.2836  1.8749
11542TIP3   OH234566   1.737   6.361   2.887  0.2109  0.3416 -0.3086
11542TIP3    H134567   1.764   6.295   2.822  0.4420  0.8112 -0.6996
11542TIP3    H234568   1.817   6.382   2.935 -0.3895 -1.7136  1.7468
11543TIP3   OH234569   0.379   6.501   6.718  0.2800  0.3603  0.0841
11543TIP3    H134570   0.399   6.431   6.779  0.4931  0.6800  0.3820
11543TIP3    H234571   0.459   6.512   6.666  0.8373  1.4831  1.1248
11544TIP3   OH234572   5.232   6.522   3.304  0.3060  0.5515 -0.0098
11544TIP3    H134573   5.320   6.484   3.299 -0.5217 -1.2929 -1.4101
11544TIP3    H234574   5.230   6.586   3.233  0.3913  0.2706 -0.2709
11545TIP3   OH234575   4.251   3.551   4.202  0.4339 -0.5647  0.2527
11545TIP3    H134576   4.295   3.545   4.287  0.2038 -0.6731  0.3626
11545TIP3    H234577   4.272   3.468   4.158  1.2832 -0.1567 -0.1500
11546TIP3   OH234578   8.092   0.214   5.900 -0.7192 -0.1244  0.0083
11546TIP3    H134579   8.060   0.288   5.953 -1.1892  0.4560 -1.0421
11546TIP3    H234580   8.178   0.242   5.870 -0.6681 -0.2360  0.0514
11547TIP3   OH234581   7.684   6.853   6.368 -0.1061  0.8245  0.1358
11547TIP3    H134582   7.623   6.780   6.358 -0.6464  1.3163 -0.2975
11547TIP3    H234583   7.758   6.832   6.311 -1.0339  1.4006 -1.3457
11548TIP3   OH234584   3.963   5.050   5.658  0.1470 -0.6888 -0.4265
11548TIP3    H134585   3.940   5.038   5.750  0.7720  0.6051 -0.0750
11548TIP3    H234586   3.895   5.004   5.609 -1.4539  0.4377  0.6312
11549TIP3   OH234587   4.200   7.532   5.822 -0.0701 -0.0171 -0.5995
11549TIP3    H134588   4.199   7.481   5.741 -2.7435 -1.2684  0.1010
11549TIP3    H234589   4.236   7.472   5.888 -0.3562  0.0695 -0.3614
11550TIP3   OH234590   3.524   0.453   2.591  0.2478  0.7233 -0.5096
11550TIP3    H134591   3.500   0.501   2.670 -0.0410  0.7441 -0.6123
11550TIP3    H234592   3.521   0.518   2.521  0.0586  0.6029 -0.6135
11551TIP3   OH234593   6.459   5.514   4.003 -0.2380  0.0220 -0.1219
11551TIP3    H134594   6.535   5.573   4.005 -1.9396  2.7357 -3.9862
11551TIP3    H234595   6.478   5.452   3.933 -0.8937 -0.4217  0.0861
11552TIP3   OH234596   6.116   4.796   2.776 -0.5876  0.2268 -0.4765
11552TIP3    H134597   6.181   4.725   2.770 -1.9322 -1.1575  0.3949
11552TIP3    H234598   6.032   4.750   2.783 -1.3661  1.8396  2.1072
11553TIP3   OH234599   2.493   5.111   0.622  0.4147  0.1712 -0.2806
11553TIP3    H134600   2.536   5.074   0.699 -1.4937 -0.3857  0.5586
11553TIP3    H234601   2.458   5.194   0.651 -3.1861 -1.4541  0.5466
11554TIP3   OH234602   7.772   6.066   6.098  0.0217 -0.0300 -0.5057
11554TIP3    H134603   7.867   6.059   6.110 -0.0235  0.7174  0.4767
11554TIP3    H234604   7.759   6.156   6.066 -0.2213 -0.7132 -2.4339
11555TIP3   OH234605   2.581   5.028   3.164  0.3039 -0.3455  0.3745
11555TIP3    H134606   2.592   5.106   3.218 -1.2147  0.2121 -0.0787
11555TIP3    H234607   2.572   4.956   3.227 -0.2485  0.1248  0.8432
11556TIP3   OH234608   0.569   6.361   3.265 -0.0098  0.2805 -0.2771
11556TIP3    H134609   0.528   6.446   3.278  0.6890  0.9145 -1.8765
11556TIP3    H234610   0.621   6.346   3.344 -0.1342  1.3384  0.0122
11557TIP3   OH234611   0.594   5.062   1.252 -0.3318  0.2348 -0.3707
11557TIP3    H134612   0.658   5.015   1.306 -0.1978 -0.9663 -1.5098
11557TIP3    H234613   0.529   4.996   1.230 -1.9345  1.4129  0.6606
11558TIP3   OH234614   3.409   7.172   4.093 -0.4986 -0.3608  0.1223
11558TIP3    H134615   3.488   7.197   4.045 -0.8359  4.7517  1.5997
11558TIP3    H234616   3.363   7.112   4.035  2.2413  0.2142 -2.8942
11559TIP3   OH234617   1.710   2.820   2.634  0.0951 -0.0320 -0.7275
11559TIP3    H134618   1.779   2.760   2.606 -1.8873 -2.4698 -0.7254
11559TIP3    H234619   1.676   2.781   2.715 -0.9803  1.3664 -0.4709
11560TIP3   OH234620   2.276   6.669   3.040  0.1223 -0.4659 -0.0162
11560TIP3    H134621   2.253   6.665   3.132  0.3639  0.1093  0.0739
11560TIP3    H234622   2.357   6.721   3.037  0.8898 -1.6439 -0.4097
11561TIP3   OH234623   6.671   4.874   2.256  0.2007 -0.3950 -0.2784
11561TIP3    H134624   6.592   4.926   2.240  0.0892 -0.8602 -1.3337
11561TIP3    H234625   6.709   4.912   2.335 -0.6423  0.3580 -0.2164
11562TIP3   OH234626   1.085   2.804   6.204 -0.0919 -0.3819  0.5485
11562TIP3    H134627   1.045   2.722   6.177 -0.8357 -0.9218  3.0403
11562TIP3    H234628   1.013   2.854   6.244  1.0479 -0.1014  2.3828
11563TIP3   OH234629   7.677   5.318   5.347  0.2416  0.2711 -0.4448
11563TIP3    H134630   7.751   5.370   5.313  0.0622 -0.7476 -2.5894
11563TIP3    H234631   7.610   5.383   5.366  0.0086  0.9632 -3.1104
11564TIP3   OH234632   3.281   3.371   4.467  0.6611 -0.1402 -0.2297
11564TIP3    H134633   3.277   3.346   4.375  3.4247  1.4185 -0.8954
11564TIP3    H234634   3.375   3.376   4.486  0.1791  0.9886  2.2520
11565TIP3   OH234635   5.543   5.085   5.585 -0.2434 -0.5109 -0.6817
11565TIP3    H134636   5.508   5.167   5.619 -0.5659 -1.3631  1.1891
11565TIP3    H234637   5.466   5.037   5.555 -0.3456 -1.0026  0.3021
11566TIP3   OH234638   5.572   1.399   0.535 -0.6751  0.4895  0.0273
11566TIP3    H134639   5.568   1.377   0.628 -0.6452 -0.9321 -0.2765
11566TIP3    H234640   5.650   1.453   0.526  1.4239 -2.2379  0.3516
11567TIP3   OH234641   0.283   6.558   6.271  0.0609  0.3842 -0.0741
11567TIP3    H134642   0.289   6.631   6.333 -0.1683  0.4820 -0.1684
11567TIP3    H234643   0.203   6.512   6.297 -0.3495  0.7585 -0.6639
11568TIP3   OH234644   6.057   1.819   0.111  0.0267 -0.0161  0.4026
11568TIP3    H134645   6.119   1.765   0.159  0.7170  0.5074  0.1107
11568TIP3    H234646   6.011   1.759   0.054  0.2869 -0.4007  0.5959
11569TIP3   OH234647   2.806   7.265   0.077  0.0118  0.2054  0.0854
11569TIP3    H134648   2.881   7.208   0.094  2.0519  2.5401 -0.6603
11569TIP3    H234649   2.806   7.277  -0.018  0.0837  1.9599  0.2767
11570TIP3   OH234650   0.493   1.516   3.572 -0.1098 -0.0032  0.1766
11570TIP3    H134651   0.587   1.506   3.562 -0.4431 -3.8558 -0.8634
11570TIP3    H234652   0.467   1.442   3.628 -2.4639  1.2482  0.8787
11571TIP3   OH234653   5.531   0.409   4.387 -0.1546  0.3919 -0.0513
11571TIP3    H134654   5.457   0.373   4.435  1.1081 -0.0694  1.6281
11571TIP3    H234655   5.509   0.394   4.295 -1.6867 -0.6136  0.4391
11572TIP3   OH234656   7.345   3.223   3.347 -0.1973  0.5632  0.0271
11572TIP3    H134657   7.280   3.281   3.309 -0.0292  0.4676 -0.4065
11572TIP3    H234658   7.399   3.281   3.402 -0.1480  0.7832 -0.2512
11573TIP3   OH234659   1.295   3.404   4.626 -0.3315  0.4546 -0.1599
11573TIP3    H134660   1.366   3.344   4.647 -0.0375  1.3652  1.6329
11573TIP3    H234661   1.216   3.349   4.625  0.1854 -0.2900 -0.5967
11574TIP3   OH234662   3.818   3.533   1.168 -0.2226  0.5723 -0.2747
11574TIP3    H134663   3.737   3.566   1.129  0.8652  1.8385 -1.5772
11574TIP3    H234664   3.882   3.538   1.097  0.4569 -2.8799 -0.0822
11575TIP3   OH234665   3.561   1.813   1.190 -0.3960  0.2922 -0.2489
11575TIP3    H134666   3.615   1.734   1.196 -1.3332 -0.3553 -0.0003
11575TIP3    H234667   3.570   1.842   1.099 -0.1225 -0.1716 -0.3716
11576TIP3   OH234668   4.255   5.624   1.087 -0.6311 -0.2294  0.9633
11576TIP3    H134669   4.288   5.706   1.123 -0.4683 -0.4865  1.4067
11576TIP3    H234670   4.224   5.647   0.999 -0.2236  0.2260  0.9341
11577TIP3   OH234671   5.958   1.283   3.128 -0.2792  0.3139 -0.6897
11577TIP3    H134672   5.977   1.193   3.151  0.3004  0.3190 -1.1426
11577TIP3    H234673   6.016   1.336   3.184 -0.7507  0.4181 -0.2892
11578TIP3   OH234674   2.009   7.719   6.091  0.5698 -0.1769  0.0818
11578TIP3    H134675   2.041   7.751   6.007  0.3992  0.4419  0.2474
11578TIP3    H234676   2.032   7.788   6.154 -0.0261 -0.2601  0.4001
11579TIP3   OH234677   3.256   2.031   5.245  0.2535  0.0125  0.1810
11579TIP3    H134678   3.217   2.119   5.252 -1.3730 -0.5923 -0.6899
11579TIP3    H234679   3.246   1.994   5.333 -0.4253  0.1784  0.1854
11580TIP3   OH234680   1.635   3.793   2.459 -0.1201 -0.0976  0.1305
11580TIP3    H134681   1.561   3.821   2.405 -0.0918 -0.7727 -0.2660
11580TIP3    H234682   1.709   3.791   2.400  0.4145  1.3742  0.7064
11581TIP3   OH234683   1.351   7.697   1.526 -0.3971  0.2193  0.0854
11581TIP3    H134684   1.357   7.792   1.514 -1.4145  0.0424 -2.3060
11581TIP3    H234685   1.412   7.679   1.598 -0.5469  2.7197  0.9597
11582TIP3   OH234686   1.123   0.704   5.576  0.4907  0.0495 -0.5118
11582TIP3    H134687   1.059   0.648   5.619  1.9455  0.6750  2.8835
11582TIP3    H234688   1.200   0.648   5.563  0.7547  0.3763 -0.3828
11583TIP3   OH234689   0.500   5.302   0.237 -0.0764 -0.2162 -1.2925
11583TIP3    H134690   0.417   5.347   0.253  0.2273 -0.2132  0.4838
11583TIP3    H234691   0.514   5.311   0.143 -1.9265  0.0489 -1.5877
11584TIP3   OH234692   5.563   3.635   5.843  0.4176  0.6218 -0.8167
11584TIP3    H134693   5.527   3.625   5.931  0.6591 -1.9219 -0.9199
11584TIP3    H234694   5.486   3.646   5.787 -0.0485 -1.2431 -0.6302
11585TIP3   OH234695   3.215   4.865   6.711 -0.2831 -0.4053 -0.0973
11585TIP3    H134696   3.211   4.814   6.630 -0.0594 -0.4039 -0.1097
11585TIP3    H234697   3.304   4.851   6.744  0.2484  1.1100 -0.8356
11586TIP3   OH234698   0.908   3.383   0.464 -0.1554  0.8279  0.3566
11586TIP3    H134699   0.929   3.329   0.388  0.4840  1.0029  0.4055
11586TIP3    H234700   0.818   3.358   0.487 -0.9525  1.8824 -1.4037
11587TIP3   OH234701   0.058   4.282   3.481  0.1761  0.3156  0.3611
11587TIP3    H134702   0.039   4.205   3.534  0.0288  0.7257  0.9142
11587TIP3    H234703   0.013   4.265   3.398  1.0827 -0.6941  0.0469
11588TIP3   OH234704   8.038   3.320   1.538 -0.4465  0.4355 -0.4753
11588TIP3    H134705   8.066   3.261   1.468 -0.9469  1.6404 -1.7336
11588TIP3    H234706   8.092   3.398   1.526  0.9689 -0.0974  1.8329
11589TIP3   OH234707   4.689   1.574   4.785  0.1638  0.4372 -0.2569
11589TIP3    H134708   4.648   1.607   4.706  0.6779  0.0998 -0.6689
11589TIP3    H234709   4.670   1.640   4.852  0.6468  1.2567 -0.9112
11590TIP3   OH234710   1.194   4.490   0.177 -0.4289 -0.3327 -0.3894
11590TIP3    H134711   1.254   4.545   0.127 -0.2192  0.2764  0.4948
11590TIP3    H234712   1.154   4.432   0.113 -1.0806  1.2348 -1.4640
11591TIP3   OH234713   6.405   1.055   3.652 -0.4642 -0.0701  0.6152
11591TIP3    H134714   6.359   1.139   3.649 -0.8251 -0.2997 -1.6600
11591TIP3    H234715   6.337   0.991   3.673 -0.2999  0.1001  1.7414
11592TIP3   OH234716   1.886   4.202   0.334  0.3405  0.3270  0.3512
11592TIP3    H134717   1.883   4.107   0.322  2.2439  0.4303 -1.5877
11592TIP3    H234718   1.961   4.217   0.392  0.6977  0.6662 -0.1828
11593TIP3   OH234719   7.899   0.755   4.151 -0.3121  0.3498  0.2487
11593TIP3    H134720   7.891   0.724   4.241  3.6155 -0.7235  0.3835
11593TIP3    H234721   7.917   0.849   4.160 -1.0961  0.4917  0.4590
11594TIP3   OH234722   3.308   5.591   3.254  0.1044  0.6155  0.4710
11594TIP3    H134723   3.320   5.558   3.165 -1.8501  1.6764 -0.2586
11594TIP3    H234724   3.297   5.513   3.307  2.7661 -0.0922  0.0825
11595TIP3   OH234725   7.615   3.296   1.706  0.2869 -0.0826 -0.1202
11595TIP3    H134726   7.541   3.262   1.656  1.1762  2.2429 -3.4077
11595TIP3    H234727   7.649   3.221   1.754 -4.3694 -1.1850  2.0540
11596TIP3   OH234728   4.648   1.118   3.172 -0.4343 -0.5171 -0.4582
11596TIP3    H134729   4.622   1.119   3.265  1.9466 -0.1679  0.2728
11596TIP3    H234730   4.736   1.155   3.172  1.3844 -4.3023 -2.3127
11597TIP3   OH234731   1.258   1.384   4.094 -0.6795  0.1671  0.4608
11597TIP3    H134732   1.260   1.307   4.152  0.8167 -1.6441 -1.7736
11597TIP3    H234733   1.233   1.348   4.009  0.1073  2.1675 -0.6629
11598TIP3   OH234734   2.644   0.647   2.788  0.2202  0.0742  0.0129
11598TIP3    H134735   2.603   0.729   2.817  0.7827  0.6591 -0.8114
11598TIP3    H234736   2.690   0.614   2.865 -1.1438 -0.2064  0.7476
11599TIP3   OH234737   2.673   5.759   5.945  0.1033  0.2298 -0.2095
11599TIP3    H134738   2.626   5.710   5.878 -1.6218  0.7471  0.5648
11599TIP3    H234739   2.609   5.773   6.015  1.7586 -0.0471  1.4498
11600TIP3   OH234740   1.301   7.128   6.151 -0.3427 -0.0459  0.2220
11600TIP3    H134741   1.241   7.140   6.078 -0.8942 -2.5051  0.1989
11600TIP3    H234742   1.290   7.207   6.205 -1.7523  0.6641 -1.0461
11601TIP3   OH234743   5.552   6.780   3.759 -0.1486 -0.1027 -0.0275
11601TIP3    H134744   5.562   6.687   3.736 -1.0570 -0.4196  0.8095
11601TIP3    H234745   5.520   6.779   3.849 -2.4991  0.9394 -0.7683
11602TIP3   OH234746   1.459   1.345   3.009  0.3535  0.1640 -0.2287
11602TIP3    H134747   1.455   1.337   2.914  1.3011 -0.5169 -0.2266
11602TIP3    H234748   1.409   1.270   3.041 -1.4097  1.3135 -0.1606
11603TIP3   OH234749   3.813   3.155   1.275  0.4028  0.1474 -0.2681
11603TIP3    H134750   3.732   3.185   1.233 -0.0706  1.0890  1.2305
11603TIP3    H234751   3.820   3.063   1.250 -0.1291  0.5258 -1.9309
11604TIP3   OH234752   7.694   7.091   3.636  0.7453 -0.0260 -0.8025
11604TIP3    H134753   7.739   7.114   3.717  0.6695 -0.0624 -0.7502
11604TIP3    H234754   7.628   7.159   3.625  0.2105 -0.4694 -0.4027
11605TIP3   OH234755   3.927   7.342   4.342 -0.2844  0.3561  0.0378
11605TIP3    H134756   3.882   7.408   4.289 -0.7719  0.0491  0.0638
11605TIP3    H234757   3.907   7.259   4.299 -1.2272  0.0329  1.0561
11606TIP3   OH234758   2.036   0.975   2.963 -0.0637  0.1178  0.3273
11606TIP3    H134759   1.978   1.050   2.969 -1.0048 -0.5868  0.2343
11606TIP3    H234760   2.057   0.968   2.870 -0.0275  0.2292  0.3277
11607TIP3   OH234761   2.673   2.312   6.628  0.2755 -0.3721 -0.2562
11607TIP3    H134762   2.603   2.249   6.647  2.6304 -3.1346 -0.1309
11607TIP3    H234763   2.704   2.340   6.715 -0.9842  1.3671 -0.3053
11608TIP3   OH234764   2.025   3.060   1.528  0.2821 -0.5299  0.0402
11608TIP3    H134765   2.103   3.021   1.489 -0.0694  0.0353 -1.2558
11608TIP3    H234766   1.954   2.999   1.505  0.0346 -0.0709 -0.4321
11609TIP3   OH234767   8.065   3.954   5.547  0.5527  0.0046 -0.2369
11609TIP3    H134768   8.051   3.999   5.464 -1.4474 -0.5174 -0.2445
11609TIP3    H234769   8.036   3.864   5.532  0.7002 -0.2505  0.8636
11610TIP3   OH234770   5.454   6.684   4.023 -0.3802 -0.0514  0.0152
11610TIP3    H134771   5.473   6.684   4.117 -0.7003  1.0151  0.1006
11610TIP3    H234772   5.359   6.672   4.018 -0.4440  0.4554 -0.1275
11611TIP3   OH234773   0.389   6.174   3.196  0.3325  0.1866 -0.1926
11611TIP3    H134774   0.429   6.093   3.227 -0.0224 -0.0311 -0.2925
11611TIP3    H234775   0.462   6.233   3.180  0.5702  0.0209  0.2665
11612TIP3   OH234776   0.250   2.307   6.697  0.1276  0.7947  0.1772
11612TIP3    H134777   0.173   2.325   6.750  1.0306  2.3547  1.0322
11612TIP3    H234778   0.324   2.322   6.756  1.1587  2.1560 -1.3722
11613TIP3   OH234779   2.689   1.086   1.999  0.1926 -0.0378 -0.4161
11613TIP3    H134780   2.699   0.992   1.983  0.1861 -0.2965  0.9411
11613TIP3    H234781   2.606   1.093   2.047  1.2687  0.3795  1.4719
11614TIP3   OH234782   5.482   7.606   5.811  0.2019 -0.0119 -0.5491
11614TIP3    H134783   5.542   7.595   5.885 -0.1929 -0.3252 -0.2730
11614TIP3    H234784   5.407   7.653   5.849  0.0922  0.0137 -0.7976
11615TIP3   OH234785   2.699   3.187   3.096  0.0274 -0.0490 -0.1541
11615TIP3    H134786   2.689   3.266   3.149  0.3828  0.3932 -0.7414
11615TIP3    H234787   2.770   3.207   3.036  2.0085 -1.7699  1.4638
11616TIP3   OH234788   0.970   0.140   4.163 -0.4156 -0.0962 -0.3148
11616TIP3    H134789   1.008   0.092   4.089 -1.0909  1.0123 -1.4219
11616TIP3    H234790   0.909   0.202   4.122 -0.5169  0.8086  1.1585
11617TIP3   OH234791   4.934   3.946   1.885 -0.1925 -0.4204 -0.0814
11617TIP3    H134792   4.886   3.971   1.964 -0.5954 -0.6966 -0.2316
11617TIP3    H234793   4.992   4.020   1.867 -1.3566  0.4309 -0.5114
11618TIP3   OH234794   7.564   1.627   0.282  0.1030  0.1233 -0.3425
11618TIP3    H134795   7.654   1.612   0.252 -0.2728 -0.7926 -1.0422
11618TIP3    H234796   7.510   1.621   0.203 -0.5746  0.7822  0.0534
11619TIP3   OH234797   5.069   7.910   1.349  0.5235 -0.3534  0.2709
11619TIP3    H134798   5.082   7.817   1.368  1.4257 -0.0342  1.3668
11619TIP3    H234799   5.013   7.912   1.272  1.0521 -1.8102 -0.1709
11620TIP3   OH234800   6.224   0.843   1.975  0.4794 -0.2376  0.4007
11620TIP3    H134801   6.152   0.839   1.913  0.4370 -1.0938  0.4933
11620TIP3    H234802   6.254   0.752   1.983  1.0055 -0.0168  1.0165
11621TIP3   OH234803   4.967   7.306   4.091  0.6579  0.1083 -0.2497
11621TIP3    H134804   5.055   7.328   4.061  0.0383  2.0884 -0.7696
11621TIP3    H234805   4.911   7.321   4.014 -0.2398 -0.3862  0.2897
11622TIP3   OH234806   0.436   4.454   6.411  0.3364 -0.0189  0.0627
11622TIP3    H134807   0.371   4.444   6.342 -0.6756  2.8092  0.4791
11622TIP3    H234808   0.502   4.512   6.374  0.1739  0.9190  1.1837
11623TIP3   OH234809   2.992   0.713   3.609 -0.4458  0.1031 -0.5326
11623TIP3    H134810   2.990   0.797   3.564 -1.6783 -0.3490 -1.3724
11623TIP3    H234811   2.900   0.688   3.619 -0.1855 -0.2258  1.5098
11624TIP3   OH234812   0.738   5.263   2.984 -0.3642  0.4426  0.1834
11624TIP3    H134813   0.714   5.319   2.910 -0.0132 -1.1794 -1.2288
11624TIP3    H234814   0.659   5.211   3.002 -0.1178  0.0690  0.2132
11625TIP3   OH234815   6.213   5.707   4.106 -0.5931 -0.2495 -0.6835
11625TIP3    H134816   6.260   5.625   4.121  0.1011  0.5228  1.8315
11625TIP3    H234817   6.136   5.702   4.163  0.0476  1.2548  0.3908
11626TIP3   OH234818   1.350   1.618   3.970 -0.1705 -0.3446  0.0503
11626TIP3    H134819   1.410   1.647   4.039 -1.1134 -1.1141  1.2453
11626TIP3    H234820   1.292   1.555   4.014 -1.1049 -0.4997 -1.3430
11627TIP3   OH234821   4.307   1.853   0.218  0.0578  0.1151  0.6874
11627TIP3    H134822   4.287   1.917   0.286  2.0258 -0.7603  2.1947
11627TIP3    H234823   4.226   1.804   0.206 -1.4854  2.7624 -0.4790
11628TIP3   OH234824   0.068   7.573   3.408  0.1357  0.0663  0.4849
11628TIP3    H134825  -0.002   7.592   3.471 -1.8013 -2.5545 -0.6752
11628TIP3    H234826   0.148   7.573   3.460 -1.1163  0.0222  2.5431
11629TIP3   OH234827   2.999   1.372   4.870 -0.1337 -0.0585  0.6235
11629TIP3    H134828   2.987   1.289   4.823 -1.5062  0.6298 -0.3002
11629TIP3    H234829   3.044   1.428   4.807 -1.0624  0.5416  0.4785
11630TIP3   OH234830   5.350   5.121   2.832 -0.5425 -0.3123 -0.5390
11630TIP3    H134831   5.346   5.076   2.917 -0.1821 -2.0572 -1.4066
11630TIP3    H234832   5.375   5.053   2.770  0.8582  1.2896 -1.8088
11631TIP3   OH234833   4.794   1.022   5.053 -0.0874 -0.2090 -0.2187
11631TIP3    H134834   4.823   0.939   5.091 -2.9792 -2.2351 -2.0465
11631TIP3    H234835   4.731   1.057   5.116  1.2798  0.7758  0.6467
11632TIP3   OH234836   1.507   4.877   3.343  0.1825  0.4294 -0.0690
11632TIP3    H134837   1.590   4.872   3.390  0.2383  0.7799 -0.1273
11632TIP3    H234838   1.526   4.932   3.266  0.1761 -0.3990 -0.6726
11633TIP3   OH234839   4.782   1.615   1.341 -0.5174 -0.1508 -0.1690
11633TIP3    H134840   4.864   1.657   1.315 -0.9677 -0.3043 -1.9726
11633TIP3    H234841   4.733   1.684   1.386 -0.0042  0.3558 -0.3665
11634TIP3   OH234842   3.638   5.081   3.642  0.4524  0.0275 -0.0221
11634TIP3    H134843   3.638   5.060   3.735 -0.1801 -0.1789 -0.0630
11634TIP3    H234844   3.730   5.078   3.617  0.7580  1.3565  0.8726
11635TIP3   OH234845   0.488   0.431   1.340 -0.0071 -0.0002  0.0888
11635TIP3    H134846   0.527   0.348   1.367 -0.2104 -0.1470 -0.0590
11635TIP3    H234847   0.539   0.459   1.264 -1.4746 -1.2682 -1.4618
11636TIP3   OH234848   3.076   2.721   4.236  0.3145 -0.2608 -0.0355
11636TIP3    H134849   3.016   2.755   4.170 -0.1198 -1.0893 -0.0751
11636TIP3    H234850   3.128   2.798   4.263 -1.3565  0.6792  0.6646
11637TIP3   OH234851   1.697   6.235   5.948 -0.5548  0.5239  0.2081
11637TIP3    H134852   1.630   6.168   5.939 -0.6854  0.6310  0.3763
11637TIP3    H234853   1.648   6.317   5.958 -0.4938  0.3138  3.0136
11638TIP3   OH234854   7.100   7.872   1.902 -0.0529  0.1089 -0.0945
11638TIP3    H134855   7.010   7.854   1.929  0.0084  1.0394  0.7849
11638TIP3    H234856   7.091   7.931   1.827 -0.1726  0.8039  0.4595
11639TIP3   OH234857   5.901   2.663   6.367 -0.0219  0.2599 -0.2548
11639TIP3    H134858   5.928   2.575   6.395  0.4523  0.4238 -0.1790
11639TIP3    H234859   5.850   2.697   6.441  0.9765  0.5764  0.3240
11640TIP3   OH234860   0.775   3.367   1.095 -0.6304  0.2449  0.4530
11640TIP3    H134861   0.784   3.420   1.175  0.7720 -0.0230  0.5056
11640TIP3    H234862   0.752   3.280   1.127 -0.9444  0.3461  0.5042
11641TIP3   OH234863   2.172   4.564   3.980 -0.4293  0.4616 -0.1485
11641TIP3    H134864   2.259   4.532   3.957 -0.6091  0.2492 -0.5472
11641TIP3    H234865   2.137   4.498   4.040 -0.7584 -0.0519 -0.8872
11642TIP3   OH234866   2.619   4.711   1.238  0.2004  0.0789  0.1390
11642TIP3    H134867   2.706   4.718   1.200 -1.0135  1.7575 -2.6142
11642TIP3    H234868   2.589   4.801   1.249 -0.0921 -0.3230  4.0986
11643TIP3   OH234869   3.427   5.212   5.964 -0.1435 -0.3112 -0.1049
11643TIP3    H134870   3.464   5.125   5.952  0.0444 -0.1713 -0.5718
11643TIP3    H234871   3.487   5.271   5.916  0.8864  0.3506  1.8835
11644TIP3   OH234872   5.979   0.529   3.177 -0.2353 -0.1636  0.3635
11644TIP3    H134873   5.980   0.487   3.263  0.9128 -1.9513 -0.4567
11644TIP3    H234874   5.929   0.469   3.122 -1.8792  1.4862 -0.0189
11645TIP3   OH234875   4.581   4.830   5.132  0.5107 -0.1799  0.8649
11645TIP3    H134876   4.662   4.870   5.098 -0.9058  0.5345 -1.9751
11645TIP3    H234877   4.511   4.882   5.094 -1.3665 -1.0152  2.9491
11646TIP3   OH234878   4.002   4.844   1.698 -0.0848  0.4453  0.3864
11646TIP3    H134879   4.038   4.904   1.764  1.5979  0.4635 -0.4822
11646TIP3    H234880   3.909   4.867   1.693  0.1253  1.6787  1.4378
11647TIP3   OH234881   2.405   1.615   2.170 -0.1506 -0.1817  0.0855
11647TIP3    H134882   2.468   1.569   2.114  1.2521  2.5670 -0.7652
11647TIP3    H234883   2.459   1.671   2.226 -1.7757  1.1679  0.3648
11648TIP3   OH234884   6.114   3.675   0.755  0.1436  0.3819 -0.2383
11648TIP3    H134885   6.053   3.635   0.693  0.3722  1.1623 -0.9854
11648TIP3    H234886   6.058   3.711   0.824 -0.0810 -0.9218  0.2956
11649TIP3   OH234887   2.361   0.705   4.833 -0.9868  0.6748 -0.0113
11649TIP3    H134888   2.412   0.624   4.823 -0.5133  0.6887  1.8648
11649TIP3    H234889   2.283   0.691   4.779 -0.9715 -1.0889  0.3556
11650TIP3   OH234890   6.378   2.730   0.072 -0.9442 -0.2817  0.0733
11650TIP3    H134891   6.367   2.639   0.044 -1.8533 -0.2256  0.1883
11650TIP3    H234892   6.379   2.725   0.168  0.3600 -0.2937  0.0780
11651TIP3   OH234893   5.401   2.227   0.355 -0.1239 -0.4026  0.3919
11651TIP3    H134894   5.461   2.222   0.429 -0.0474 -0.1770  0.3464
11651TIP3    H234895   5.451   2.272   0.287 -0.2167 -0.5475  0.2251
11652TIP3   OH234896   6.349   5.182   2.758 -0.1193 -0.2066  0.0286
11652TIP3    H134897   6.351   5.091   2.788 -0.7772 -0.6303 -1.1264
11652TIP3    H234898   6.409   5.183   2.683  0.2923  0.4489  0.3600
11653TIP3   OH234899   5.924   3.389   3.661  0.2205  0.3600 -0.0426
11653TIP3    H134900   5.852   3.371   3.600  0.7362 -1.7887 -0.0892
11653TIP3    H234901   5.933   3.484   3.661 -1.1100  0.5174 -1.7814
11654TIP3   OH234902   6.327   2.814   4.092 -0.3557 -0.0520  0.5670
11654TIP3    H134903   6.400   2.809   4.031 -0.9715 -0.5701 -0.1542
11654TIP3    H234904   6.249   2.807   4.036 -0.9453 -3.0742  1.5801
11655TIP3   OH234905   8.158   5.824   3.543  0.0323  0.2436  0.3115
11655TIP3    H134906   8.193   5.898   3.492  0.2598 -0.3510 -0.4132
11655TIP3    H234907   8.234   5.768   3.558 -0.2402 -0.1097  0.3850
11656TIP3   OH234908   3.214   0.509   6.504 -0.3292 -0.0675  0.1921
11656TIP3    H134909   3.275   0.494   6.577 -1.5100  1.0031  1.4491
11656TIP3    H234910   3.265   0.560   6.441  0.9075 -1.5347 -0.0716
11657TIP3   OH234911   7.171   3.663   3.530 -0.2173  0.5866  0.0328
11657TIP3    H134912   7.116   3.723   3.479 -0.4950  0.0633 -0.2970
11657TIP3    H234913   7.123   3.649   3.611 -0.9223 -0.3798 -0.5173
11658TIP3   OH234914   1.364   0.565   0.250  0.1784  0.4800  0.1457
11658TIP3    H134915   1.300   0.520   0.306  1.6482  0.7998  2.1684
11658TIP3    H234916   1.360   0.656   0.278 -0.2597  0.9978 -1.4991
11659TIP3   OH234917   3.542   1.123   5.826  0.5958 -0.6121 -0.0803
11659TIP3    H134918   3.637   1.131   5.829  0.5757 -0.3198 -0.1773
11659TIP3    H234919   3.510   1.199   5.873  0.4147 -1.0112  0.4541
11660TIP3   OH234920   0.625   1.531   6.316 -0.6494  0.3180 -0.2094
11660TIP3    H134921   0.703   1.521   6.370 -0.4276  1.1920 -0.3547
11660TIP3    H234922   0.570   1.456   6.340 -0.2356  0.2855  0.6840
11661TIP3   OH234923   1.797   7.231   5.552  0.3475 -0.3946 -0.6739
11661TIP3    H134924   1.792   7.284   5.473  1.0994 -0.3535 -0.7096
11661TIP3    H234925   1.886   7.245   5.585  0.1380 -0.6281  0.0263
11662TIP3   OH234926   6.676   2.171   3.330 -0.3820  0.0158 -0.3332
11662TIP3    H134927   6.725   2.108   3.278  0.3100  0.8807 -0.7651
11662TIP3    H234928   6.704   2.154   3.420 -0.4014 -0.4622 -0.4149
11663TIP3   OH234929   3.684   6.346   4.872 -0.1974  0.0317 -0.0635
11663TIP3    H134930   3.770   6.323   4.907 -1.0885 -1.4601  1.3171
11663TIP3    H234931   3.682   6.441   4.875  1.5631  0.1268 -0.5933
11664TIP3   OH234932   4.183   2.428   0.212 -0.2434  0.2632 -0.5096
11664TIP3    H134933   4.174   2.473   0.296 -0.4200 -1.4344  0.4211
11664TIP3    H234934   4.276   2.434   0.191 -0.5953  3.2876 -1.7633
11665TIP3   OH234935   5.958   1.055   4.099  0.8188 -0.2161  0.0282
11665TIP3    H134936   5.879   1.059   4.153  1.1293  1.9403  0.4136
11665TIP3    H234937   5.967   1.144   4.064  4.0555  0.1677  1.4660
11666TIP3   OH234938   4.624   3.272   3.426 -0.1397  0.0848 -0.4539
11666TIP3    H134939   4.546   3.219   3.412  0.2094 -0.7458  0.6355
11666TIP3    H234940   4.596   3.345   3.481 -0.7763  1.4937 -2.5195
11667TIP3   OH234941   2.749   2.478   4.688 -0.4021  0.1233  0.3133
11667TIP3    H134942   2.736   2.398   4.638  1.2149 -0.5336  0.8596
11667TIP3    H234943   2.681   2.477   4.754 -0.0434 -1.1218  0.6813
11668TIP3   OH234944   5.022   5.172   1.915 -0.0199  0.0273 -0.1315
11668TIP3    H134945   5.079   5.129   1.852 -1.1328 -2.0169  0.1688
11668TIP3    H234946   5.038   5.125   1.997 -0.6458  0.7780  0.4345
11669TIP3   OH234947   3.986   2.466   4.431 -0.5948  0.0682  1.0533
11669TIP3    H134948   4.080   2.479   4.433 -0.5439  1.6005  6.5993
11669TIP3    H234949   3.950   2.549   4.400 -0.2587 -0.7856 -1.8354
11670TIP3   OH234950   0.725   0.909   1.599 -0.3126 -0.2489  0.3178
11670TIP3    H134951   0.643   0.886   1.643 -0.5073  0.2540  0.2276
11670TIP3    H234952   0.751   0.829   1.553 -2.6447  0.4874 -2.6560
11671TIP3   OH234953   5.207   3.659   3.979  0.2224 -0.5267  0.1567
11671TIP3    H134954   5.194   3.741   4.027  0.4419 -0.6880  0.4988
11671TIP3    H234955   5.219   3.685   3.888 -0.7418 -0.2521  0.1014
11672TIP3   OH234956   1.648   1.870   3.547  0.4386  0.0247 -0.4440
11672TIP3    H134957   1.728   1.868   3.601  1.2357 -0.3876 -1.5922
11672TIP3    H234958   1.625   1.962   3.540  0.2415  0.0720  0.7061
11673TIP3   OH234959   2.507   5.598   4.626  0.1169 -0.3781  0.0717
11673TIP3    H134960   2.568   5.582   4.699  0.5887  0.9765  0.0016
11673TIP3    H234961   2.563   5.631   4.556 -0.5358 -0.2873 -0.4069
11674TIP3   OH234962   6.702   7.610   0.175  0.7551 -0.3186  0.3834
11674TIP3    H134963   6.688   7.669   0.102 -2.3600 -1.3984 -0.0221
11674TIP3    H234964   6.707   7.523   0.136 -0.2493 -0.8440  1.3611
11675TIP3   OH234965   4.340   6.724   4.704  0.0895  0.0349 -0.5832
11675TIP3    H134966   4.417   6.779   4.712 -0.1125  0.0277  2.2120
11675TIP3    H234967   4.282   6.772   4.646  1.2805  1.0926 -0.9406
11676TIP3   OH234968   2.579   2.062   0.137 -0.2361 -0.2252  0.3963
11676TIP3    H134969   2.547   2.084   0.049  2.3966  0.0539 -0.5958
11676TIP3    H234970   2.527   2.116   0.196 -3.0885 -1.4886 -0.8146
11677TIP3   OH234971   5.333   2.610   6.165 -0.5513 -0.0298  0.5766
11677TIP3    H134972   5.423   2.639   6.149 -0.5546  0.9401  2.1462
11677TIP3    H234973   5.296   2.599   6.077  0.2962  2.1242 -0.1273
11678TIP3   OH234974   7.194   2.879   5.218  0.0352 -0.3833  0.2148
11678TIP3    H134975   7.254   2.953   5.226 -0.0514 -0.2640 -0.2345
11678TIP3    H234976   7.108   2.915   5.239  0.3610 -1.0018  2.9955
11679TIP3   OH234977   1.352   6.243   1.816 -0.4083  0.8751  0.1126
11679TIP3    H134978   1.300   6.163   1.827  0.8253  0.1845  1.3092
11679TIP3    H234979   1.416   6.220   1.748  1.1492  0.1452  1.7576
11680TIP3   OH234980   1.907   3.904   0.369  0.1317  0.2159 -0.5197
11680TIP3    H134981   1.997   3.885   0.398 -0.8910 -2.7902  1.1222
11680TIP3    H234982   1.890   3.841   0.299 -1.8673 -2.0590  1.8244
11681TIP3   OH234983   0.488   5.270   3.466 -0.1734 -0.2110  0.6942
11681TIP3    H134984   0.473   5.353   3.511  1.2433  1.2711 -1.3938
11681TIP3    H234985   0.580   5.272   3.441 -0.2337 -2.2085  0.1189
11682TIP3   OH234986   6.289   1.737   5.999 -0.2502  0.2598 -0.3478
11682TIP3    H134987   6.286   1.642   6.005 -0.2969  0.2368 -0.7098
11682TIP3    H234988   6.350   1.764   6.067  1.6651 -0.2095 -1.7789
11683TIP3   OH234989   6.594   6.512   2.427 -0.4470 -0.1217  0.5142
11683TIP3    H134990   6.603   6.426   2.468  0.3944 -0.7954 -0.9669
11683TIP3    H234991   6.675   6.522   2.376 -1.0764  1.0067 -0.3024
11684TIP3   OH234992   1.745   6.493   5.709  0.1988  0.2097 -0.0617
11684TIP3    H134993   1.817   6.512   5.770  0.4270 -0.5324 -0.0870
11684TIP3    H234994   1.673   6.466   5.766 -0.0332  0.8703 -0.0407
11685TIP3   OH234995   1.710   2.386   1.445  0.0910  0.4365  0.0576
11685TIP3    H134996   1.644   2.397   1.512  0.5738 -0.3090  0.6728
11685TIP3    H234997   1.782   2.342   1.489  0.2126 -0.5403 -1.0573
11686TIP3   OH234998   2.751   2.820   5.366  0.7332  0.0420 -0.1327
11686TIP3    H134999   2.699   2.901   5.364  2.0320  1.0145  1.8188
11686TIP3    H235000   2.692   2.755   5.405 -0.2089  0.1204 -1.3806
11687TIP3   OH235001   1.288   3.206   0.289 -0.4595 -0.1695  0.4146
11687TIP3    H135002   1.264   3.245   0.373  1.1761  2.2564 -0.1109
11687TIP3    H235003   1.204   3.188   0.246 -1.3118 -0.5605  2.1630
11688TIP3   OH235004   6.701   6.008   3.932 -0.5312  0.3103 -0.2495
11688TIP3    H135005   6.782   5.957   3.944  0.0507  1.5007  1.2505
11688TIP3    H235006   6.698   6.027   3.838  0.3377 -0.7049 -0.4962
11689TIP3   OH235007   3.139   1.194   5.228  0.2696 -0.0778  0.6967
11689TIP3    H135008   3.141   1.290   5.220  0.9144 -0.1406 -0.1541
11689TIP3    H235009   3.048   1.173   5.246  0.1543  0.7126  1.0721
11690TIP3   OH235010   5.101   4.630   4.514  0.5664 -0.1155  0.4137
11690TIP3    H135011   5.027   4.621   4.454  2.5387  0.8010 -2.3718
11690TIP3    H235012   5.129   4.721   4.505  0.9469  0.0745  2.8377
11691TIP3   OH235013   7.651   5.998   1.048 -0.1620  0.4192  0.0038
11691TIP3    H135014   7.737   5.969   1.078 -0.3719 -0.4381 -0.1791
11691TIP3    H235015   7.626   5.933   0.982 -0.7300  0.9453 -0.3103
11692TIP3   OH235016   0.866   6.426   2.688  0.1554 -0.3521  0.1584
11692TIP3    H135017   0.809   6.503   2.689 -0.5055 -0.8270 -0.2870
11692TIP3    H235018   0.923   6.437   2.764 -0.5377  0.1288  0.6169
11693TIP3   OH235019   1.138   2.232   0.238  0.0373 -0.1881  0.5852
11693TIP3    H135020   1.178   2.303   0.289  0.4911 -1.2078  1.6913
11693TIP3    H235021   1.045   2.251   0.239  0.1268  0.2411  1.1167
11694TIP3   OH235022   1.558   7.480   0.814 -0.2442 -0.0706  0.2136
11694TIP3    H135023   1.480   7.435   0.847  0.4009 -1.8843 -0.5804
11694TIP3    H235024   1.623   7.469   0.884  0.4437 -1.9830 -0.6562
11695TIP3   OH235025   4.922   6.562   6.354  0.6923  0.6362 -0.3053
11695TIP3    H135026   4.952   6.651   6.334  0.5145  0.7578 -0.0345
11695TIP3    H235027   4.846   6.575   6.412  1.3394  0.2966  0.6439
11696TIP3   OH235028   0.431   4.087   2.105  0.3407 -0.3429  0.0961
11696TIP3    H135029   0.504   4.037   2.141  0.7155 -0.2745 -0.5497
11696TIP3    H235030   0.466   4.126   2.025 -0.4525 -0.4485 -0.3154
11697TIP3   OH235031   3.550   2.716   4.444 -0.4720  0.5011 -0.1683
11697TIP3    H135032   3.455   2.714   4.452 -0.3975 -1.3150  0.8090
11697TIP3    H235033   3.578   2.788   4.500 -1.2273  0.4134  0.3324
11698TIP3   OH235034   4.169   4.480   2.108  0.1492  0.2083 -0.2929
11698TIP3    H135035   4.156   4.395   2.066  0.5540  0.2894 -0.5849
11698TIP3    H235036   4.165   4.461   2.202 -1.1967  0.1007 -0.3641
11699TIP3   OH235037   0.416   0.296   3.675  0.1394  0.1129 -0.1794
11699TIP3    H135038   0.487   0.281   3.738 -0.4826  2.0586  1.0877
11699TIP3    H235039   0.420   0.390   3.656 -1.1172 -0.0303 -1.3165
11700TIP3   OH235040   3.543   5.405   4.993  0.0288  0.3412  0.2655
11700TIP3    H135041   3.597   5.406   5.072  1.0548 -0.7558 -0.3819
11700TIP3    H235042   3.467   5.353   5.016  0.6776 -0.6034  0.3276
11701TIP3   OH235043   6.737   4.146   1.404 -0.5332  0.0621 -0.0645
11701TIP3    H135044   6.803   4.166   1.470  0.0676 -1.2756 -0.2239
11701TIP3    H235045   6.699   4.231   1.381 -1.1432  0.5082  2.3801
11702TIP3   OH235046   5.499   0.750   6.430  0.2836 -0.0841 -0.0551
11702TIP3    H135047   5.471   0.719   6.516  0.1599 -0.0162 -0.0711
11702TIP3    H235048   5.505   0.671   6.376  0.8495 -0.1924  0.1512
11703TIP3   OH235049   6.734   0.950   5.485 -0.5738  0.0368 -0.7868
11703TIP3    H135050   6.791   0.925   5.558  0.2127  0.1818 -1.3465
11703TIP3    H235051   6.780   1.022   5.442 -0.4378 -0.8164 -2.1380
11704TIP3   OH235052   5.061   5.348   5.907 -0.8148 -0.8161 -0.0115
11704TIP3    H135053   5.091   5.380   5.823  0.6324 -0.9798  0.4213
11704TIP3    H235054   4.996   5.281   5.886  0.4303 -1.7356 -1.0270
11705TIP3   OH235055   2.359   4.646   6.510 -0.2847 -0.2388 -0.8156
11705TIP3    H135056   2.414   4.720   6.537 -0.6925 -0.1630 -0.1795
11705TIP3    H235057   2.295   4.684   6.449 -1.3626  0.2153  0.5598
11706TIP3   OH235058   7.739   7.647   4.824  0.2780 -0.2172  0.3651
11706TIP3    H135059   7.714   7.680   4.911 -1.0162 -1.0870  0.3418
11706TIP3    H235060   7.765   7.557   4.840 -0.6271 -0.5926 -0.2524
11707TIP3   OH235061   8.077   3.989   1.067  0.2302 -0.5883 -0.2551
11707TIP3    H135062   8.044   4.001   0.978  0.4243  0.5892 -0.1769
11707TIP3    H235063   8.158   4.040   1.069 -1.1704  1.7368  1.4119
11708TIP3   OH235064   2.910   5.215   1.897 -0.1387  0.3781 -0.0490
11708TIP3    H135065   2.958   5.235   1.817  1.3774  2.3841  1.2753
11708TIP3    H235066   2.860   5.294   1.916  0.2221  0.2782  1.4453
11709TIP3   OH235067   2.561   0.655   2.325  0.3999 -0.4395 -0.2649
11709TIP3    H135068   2.553   0.560   2.332  0.1956 -0.4406 -0.5030
11709TIP3    H235069   2.488   0.682   2.269  1.0130 -0.2491 -0.9940
11710TIP3   OH235070   7.842   6.293   2.637  0.3570  0.0996 -0.1053
11710TIP3    H135071   7.933   6.312   2.615  0.2798  1.1655  0.4403
11710TIP3    H235072   7.833   6.318   2.729 -0.3429 -0.5248  0.0088
11711TIP3   OH235073   7.914   6.758   5.283 -0.3705  0.9803 -0.0294
11711TIP3    H135074   7.922   6.852   5.267  1.0171  0.8911 -0.0526
11711TIP3    H235075   7.979   6.719   5.225  1.3792  0.2788  2.2187
11712TIP3   OH235076   5.676   3.956   3.522  0.1246 -0.6093 -0.6235
11712TIP3    H135077   5.677   3.984   3.431 -0.5130 -0.2009 -0.5061
11712TIP3    H235078   5.769   3.948   3.545  0.3011 -0.0025 -1.0911
11713TIP3   OH235079   7.849   5.924   3.527 -0.0274  0.5928 -0.4843
11713TIP3    H135080   7.826   5.939   3.619 -2.4466  2.2754 -1.2813
11713TIP3    H235081   7.944   5.914   3.528  0.1096  1.4316  2.0992
11714TIP3   OH235082   0.589   3.460   1.957  0.3831  0.1992 -0.0374
11714TIP3    H135083   0.566   3.537   2.008  1.2461  0.8295 -0.5809
11714TIP3    H235084   0.531   3.391   1.991 -0.5700  1.1249  0.2899
11715TIP3   OH235085   4.368   0.194   0.215 -0.2654  0.6027 -0.2321
11715TIP3    H135086   4.420   0.267   0.248  0.5626  1.1448 -2.5103
11715TIP3    H235087   4.295   0.236   0.169 -1.7918 -0.1246  1.4503
11716TIP3   OH235088   6.568   5.792   1.710  0.5313 -0.2764 -0.2812
11716TIP3    H135089   6.517   5.719   1.744 -1.3715  0.0134 -2.3072
11716TIP3    H235090   6.504   5.860   1.692  2.1236  1.5036  0.4604
11717TIP3   OH235091   7.151   3.377   4.576  0.0556 -0.2047 -0.8204
11717TIP3    H135092   7.093   3.453   4.580  0.6510  0.2203  0.1558
11717TIP3    H235093   7.181   3.374   4.485  1.2690  1.7133 -0.5426
11718TIP3   OH235094   5.837   4.281   1.124  0.2808  0.1211 -0.2821
11718TIP3    H135095   5.908   4.327   1.168 -0.6246  2.6012 -1.2308
11718TIP3    H235096   5.850   4.302   1.031  1.2019 -3.6186 -1.1684
11719TIP3   OH235097   6.133   3.411   5.323  0.0307 -0.1866 -0.3938
11719TIP3    H135098   6.196   3.360   5.271 -2.3893 -1.4170 -2.3095
11719TIP3    H235099   6.128   3.364   5.407  0.6929 -0.8225 -0.6989
11720TIP3   OH235100   3.041   6.287   3.696  0.3898  0.0651 -0.0706
11720TIP3    H135101   3.033   6.354   3.764  0.6183 -0.0102  0.0326
11720TIP3    H235102   3.042   6.204   3.744 -0.6618 -0.0581 -0.2537
11721TIP3   OH235103   2.715   4.466   4.120 -0.4925  0.7573  0.5056
11721TIP3    H135104   2.672   4.547   4.149 -0.8841  1.1486 -1.0690
11721TIP3    H235105   2.690   4.458   4.028 -0.4905 -1.1841  0.6376
11722TIP3   OH235106   4.868   6.659   0.848 -0.1309 -0.0095 -0.3458
11722TIP3    H135107   4.891   6.567   0.865 -0.5144 -0.3456 -1.5643
11722TIP3    H235108   4.947   6.697   0.809  0.3062  0.4131  0.9094
11723TIP3   OH235109   6.772   6.974   2.154  0.1986  1.1985 -0.1762
11723TIP3    H135110   6.763   6.879   2.157 -2.9414  1.3818 -0.7057
11723TIP3    H235111   6.780   7.001   2.245  2.3890  0.4031 -0.0846
11724TIP3   OH235112   1.740   7.863   0.772 -0.3328  0.0892 -0.0761
11724TIP3    H135113   1.741   7.783   0.720 -1.5659 -1.3150  1.9123
11724TIP3    H235114   1.791   7.842   0.851  1.4690  2.1372 -0.5779
11725TIP3   OH235115   8.057   7.715   5.392 -0.0300  0.6316 -0.1425
11725TIP3    H135116   7.977   7.765   5.405  1.2578  2.1455  2.6209
11725TIP3    H235117   8.042   7.633   5.440 -0.2694  0.4696 -0.4856
11726TIP3   OH235118   4.978   3.505   4.091  0.1840  0.2281  0.7496
11726TIP3    H135119   4.978   3.414   4.062 -1.2050  0.2345  0.6600
11726TIP3    H235120   5.028   3.552   4.024 -0.7615 -0.1737 -0.2773
11727TIP3   OH235121   2.215   3.703   5.602 -0.9332  0.7972 -0.4935
11727TIP3    H135122   2.296   3.705   5.550 -0.2214  0.1399  0.5449
11727TIP3    H235123   2.153   3.656   5.547  0.2519 -1.2412 -0.2014
11728TIP3   OH235124   1.881   5.166   6.080  0.2283  0.2852 -0.0522
11728TIP3    H135125   1.841   5.133   6.160  0.9895  2.0984  1.1467
11728TIP3    H235126   1.975   5.159   6.095  0.4016 -0.4407 -1.2977
11729TIP3   OH235127   5.429   0.097   5.980  0.2754 -0.4211 -0.0556
11729TIP3    H135128   5.389   0.046   5.910 -0.3107  0.6368 -0.5274
11729TIP3    H235129   5.391   0.063   6.060  0.5437 -1.2901 -0.2917
11730TIP3   OH235130   0.564   7.631   5.510 -0.4842 -0.1848  0.2497
11730TIP3    H135131   0.584   7.566   5.442 -1.1144 -0.9425  0.7665
11730TIP3    H235132   0.475   7.661   5.490 -1.3436 -1.6300  1.6342
11731TIP3   OH235133   7.745   3.476   5.818  0.3361 -0.3755 -0.7513
11731TIP3    H135134   7.745   3.391   5.861 -1.1597 -0.6703 -1.2929
11731TIP3    H235135   7.673   3.524   5.860  0.6504  0.3429 -1.0078
11732TIP3   OH235136   2.524   4.622   4.495 -0.3688  0.1379 -0.1963
11732TIP3    H135137   2.577   4.611   4.575 -1.2651 -0.4654  0.3313
11732TIP3    H235138   2.586   4.656   4.431  0.3708  0.6723  0.7607
11733TIP3   OH235139   5.113   6.509   2.858 -0.0777 -0.1712  0.5866
11733TIP3    H135140   5.188   6.568   2.850  1.8171 -2.6029 -0.4472
11733TIP3    H235141   5.038   6.563   2.831  1.7482  1.3539 -1.8557
11734TIP3   OH235142   1.032   4.396   1.002  0.2638 -0.6366  0.1905
11734TIP3    H135143   1.044   4.384   0.908 -0.3183  0.4647 -0.0468
11734TIP3    H235144   0.970   4.469   1.009  1.2831  0.1715  1.4181
11735TIP3   OH235145   3.480   1.298   5.164 -0.3737 -0.2142 -0.3573
11735TIP3    H135146   3.428   1.257   5.095 -0.6354  0.1578 -0.3855
11735TIP3    H235147   3.427   1.372   5.193 -0.6436 -0.8350  0.8092
11736TIP3   OH235148   7.534   0.202   4.237  0.1543 -0.1556 -0.1889
11736TIP3    H135149   7.502   0.197   4.327  0.0698  0.2158 -0.2005
11736TIP3    H235150   7.583   0.284   4.233 -0.5240  0.2366 -0.7035
11737TIP3   OH235151   4.188   2.071   4.702 -1.1285 -0.3540  0.1619
11737TIP3    H135152   4.200   2.039   4.791  0.7391 -0.1823  0.0191
11737TIP3    H235153   4.093   2.071   4.688 -1.4249 -0.7434  1.9996
11738TIP3   OH235154   0.253   2.195   0.066 -0.0789  0.0243  0.4044
11738TIP3    H135155   0.230   2.248   0.143 -0.6292 -0.6127  0.6984
11738TIP3    H235156   0.328   2.143   0.094  0.5532  0.7365  0.0683
11739TIP3   OH235157   4.165   7.309   1.780  0.4680 -0.0615  0.0151
11739TIP3    H135158   4.215   7.373   1.831 -0.9918  0.2604  1.1096
11739TIP3    H235159   4.083   7.354   1.761 -0.1369 -1.2259 -0.1743
11740TIP3   OH235160   5.966   2.432   5.952  0.6939 -0.0619 -0.2612
11740TIP3    H135161   6.034   2.417   6.017 -0.1423  0.0222  0.6648
11740TIP3    H235162   5.953   2.346   5.912  0.0204 -0.5533  0.9241
11741TIP3   OH235163   4.903   3.115   5.041  0.6209  0.4859 -0.2181
11741TIP3    H135164   4.949   3.061   5.105 -0.3797 -0.9236 -0.6391
11741TIP3    H235165   4.866   3.187   5.093  1.7938  0.6713  0.3846
11742TIP3   OH235166   4.384   7.162   1.795  0.3293 -0.2716  0.1368
11742TIP3    H135167   4.315   7.210   1.748 -1.5486 -1.4652  1.5190
11742TIP3    H235168   4.350   7.154   1.884  1.2184 -2.9209  0.3017
11743TIP3   OH235169   4.207   1.471   0.824  0.1562 -0.1275 -0.2513
11743TIP3    H135170   4.173   1.552   0.862 -0.0562 -0.2387 -0.2032
11743TIP3    H235171   4.166   1.466   0.738  2.2658  1.2402 -1.4408
11744TIP3   OH235172   7.959   7.833   1.021 -0.3411 -0.7960 -0.5597
11744TIP3    H135173   7.882   7.792   1.061 -0.4931  0.0548  0.0412
11744TIP3    H235174   7.935   7.925   1.010  1.0409 -0.2196  0.8393
11745TIP3   OH235175   3.675   2.640   0.148  0.7956  0.5469  0.5183
11745TIP3    H135176   3.624   2.609   0.072  0.5704 -2.0506  1.6113
11745TIP3    H235177   3.717   2.720   0.117 -1.3370  1.0171 -1.5025
11746TIP3   OH235178   0.594   5.802   4.881 -0.1773 -0.5337  0.0459
11746TIP3    H135179   0.532   5.730   4.894 -0.5001 -0.0607  1.2738
11746TIP3    H235180   0.653   5.771   4.812 -0.2125 -2.0441  0.6587
11747TIP3   OH235181   7.111   1.188   1.521 -0.0186 -0.6372 -0.6643
11747TIP3    H135182   7.088   1.255   1.585  1.8018 -1.5563  1.0727
11747TIP3    H235183   7.036   1.129   1.518 -0.2952 -0.3478  0.3464
11748TIP3   OH235184   1.256   4.913   0.896  0.4830 -0.3191 -0.0375
11748TIP3    H135185   1.289   4.993   0.855 -2.0131  0.7344 -0.1785
11748TIP3    H235186   1.256   4.848   0.826 -0.3181  0.4370 -0.7576
11749TIP3   OH235187   3.490   1.772   5.118  0.1929  0.2547 -0.0347
11749TIP3    H135188   3.400   1.774   5.085 -0.0184 -0.3916  0.4787
11749TIP3    H235189   3.522   1.862   5.107 -0.3399  0.3664 -0.6907
11750TIP3   OH235190   2.413   3.546   5.920 -0.1195 -0.1581  0.4678
11750TIP3    H135191   2.471   3.561   5.994 -0.8868 -1.5935  1.3981
11750TIP3    H235192   2.325   3.550   5.957 -0.4953 -1.5761 -0.2132
11751TIP3   OH235193   7.542   2.208   1.408 -0.8826  0.2830  0.2040
11751TIP3    H135194   7.516   2.192   1.317 -1.3534  0.3454  0.3232
11751TIP3    H235195   7.484   2.151   1.459 -0.8379  0.4850  0.4814
11752TIP3   OH235196   1.464   4.437   0.575  0.0197  0.5384  0.3667
11752TIP3    H135197   1.519   4.406   0.503  1.0628  2.2577  0.3651
11752TIP3    H235198   1.424   4.517   0.542 -0.2609  0.8235  1.3648
11753TIP3   OH235199   0.117   5.294   0.975 -0.0855  0.8815 -0.1183
11753TIP3    H135200   0.041   5.317   0.922  0.5955  1.4943 -0.8489
11753TIP3    H235201   0.154   5.379   1.001  0.9145  0.5964 -0.6026
11754TIP3   OH235202   2.677   3.620   1.921  0.3534  0.4529 -0.1342
11754TIP3    H135203   2.678   3.554   1.852 -1.4670  0.2172  0.0263
11754TIP3    H235204   2.669   3.703   1.874  1.4532  0.4928 -0.2811
11755TIP3   OH235205   0.826   2.927   5.498 -0.0272  0.7061  0.4810
11755TIP3    H135206   0.789   2.881   5.573  1.5841  0.4247  1.1495
11755TIP3    H235207   0.760   2.918   5.429 -0.6436 -0.8092  1.2310
11756TIP3   OH235208   7.100   1.980   3.516  0.1579 -0.1732  0.2016
11756TIP3    H135209   7.108   2.071   3.544 -1.8490  0.4591 -1.0761
11756TIP3    H235210   7.163   1.972   3.444 -1.6439  1.1613 -1.6734
11757TIP3   OH235211   1.202   4.239   3.499  0.2810  0.2801  0.5532
11757TIP3    H135212   1.148   4.195   3.564  0.5093  0.3488  0.7907
11757TIP3    H235213   1.184   4.332   3.511  1.2632  0.3830  1.3713
11758TIP3   OH235214   7.403   0.949   5.847  0.0811  0.2510 -0.2004
11758TIP3    H135215   7.386   0.876   5.906  0.0002 -0.3412 -0.9389
11758TIP3    H235216   7.365   1.025   5.890  3.2151  0.5964  2.3210
11759TIP3   OH235217   4.284   0.539   0.053 -0.2461 -0.5113  0.4842
11759TIP3    H135218   4.240   0.601  -0.005  0.1402 -0.2242  0.4987
11759TIP3    H235219   4.322   0.593   0.123 -0.2455 -0.8010  0.7117
11760TIP3   OH235220   1.158   7.500   3.168 -0.1539 -0.2450  0.0874
11760TIP3    H135221   1.120   7.553   3.238  0.4706 -0.0785  0.3071
11760TIP3    H235222   1.139   7.410   3.192  0.5427 -0.2208  0.7758
11761TIP3   OH235223   7.090   6.851   6.470  0.0913  0.3363  0.2819
11761TIP3    H135224   7.040   6.893   6.540 -2.8496  0.8403 -1.9241
11761TIP3    H235225   7.113   6.922   6.411 -1.9337 -0.5389 -1.7380
11762TIP3   OH235226   4.892   1.530   5.020  0.1128 -0.0343  0.1889
11762TIP3    H135227   4.943   1.606   5.047  1.1577 -0.4219 -0.6295
11762TIP3    H235228   4.857   1.553   4.934 -0.2122 -0.1813  0.2789
11763TIP3   OH235229   0.681   4.633   6.498 -0.2921 -0.1374  0.0378
11763TIP3    H135230   0.722   4.709   6.539 -1.0338  1.0967 -1.3996
11763TIP3    H235231   0.747   4.564   6.503  0.6586  0.7950  0.7867
11764TIP3   OH235232   4.190   4.444   3.966  0.3023  0.1186  0.3019
11764TIP3    H135233   4.253   4.466   3.897  0.0625  0.1486  0.0887
11764TIP3    H235234   4.242   4.404   4.035  0.5194 -0.0952  0.0147
11765TIP3   OH235235   2.129   0.433   0.419  0.0034  0.0927  0.1739
11765TIP3    H135236   2.189   0.360   0.433  0.0162  0.4380  2.3167
11765TIP3    H235237   2.051   0.394   0.380  1.4908 -0.3774 -2.5763
11766TIP3   OH235238   7.484   0.994   1.592  0.0168 -0.0941  0.1331
11766TIP3    H135239   7.497   0.921   1.531  1.0162  0.1375  0.0600
11766TIP3    H235240   7.481   1.072   1.537  0.6780  0.0929  0.3604
11767TIP3   OH235241   0.960   6.435   4.537  0.3306  0.3936 -0.0110
11767TIP3    H135242   1.007   6.387   4.470  1.5150  0.5247  0.6908
11767TIP3    H235243   0.946   6.522   4.500 -1.2815 -0.2540 -1.0438
11768TIP3   OH235244   5.642   0.621   0.942 -0.0760  0.8123 -0.7595
11768TIP3    H135245   5.608   0.704   0.908  0.1570  0.7680 -1.1096
11768TIP3    H235246   5.622   0.557   0.874 -1.2698  0.3470  0.0028
11769TIP3   OH235247   5.571   4.523   5.780  0.5074 -0.5887  0.1363
11769TIP3    H135248   5.485   4.494   5.810 -0.8071  2.8542  0.1072
11769TIP3    H235249   5.627   4.513   5.857 -0.3266 -1.2315  0.6857
11770TIP3   OH235250   6.392   2.028   4.635 -0.5624  0.6992 -0.5038
11770TIP3    H135251   6.389   2.123   4.624 -4.1264  0.9865  1.3683
11770TIP3    H235252   6.347   1.994   4.558 -1.2536  0.7230 -0.1185
11771TIP3   OH235253   8.307   6.666   5.979  0.6170 -0.2908 -0.3504
11771TIP3    H135254   8.398   6.696   5.975  0.0523  1.4015 -2.0437
11771TIP3    H235255   8.284   6.645   5.889 -0.6771 -0.7022  0.0526
11772TIP3   OH235256   8.251   3.754   4.535  0.0276 -0.5936  0.4404
11772TIP3    H135257   8.248   3.781   4.627 -0.5285 -0.6929  0.4533
11772TIP3    H235258   8.261   3.659   4.539 -0.7604 -0.6797  0.4009
11773TIP3   OH235259   5.780   2.794   1.807  0.2772 -0.4836 -0.2904
11773TIP3    H135260   5.777   2.701   1.826  0.7252  0.0098  2.7698
11773TIP3    H235261   5.864   2.823   1.843 -0.9041  1.4540  1.1181
11774TIP3   OH235262   6.508   3.278   6.710 -0.0624  0.2221 -0.7137
11774TIP3    H135263   6.570   3.225   6.759 -0.4829  0.8108  0.4858
11774TIP3    H235264   6.554   3.361   6.695 -0.5689  0.6868  0.2422
11775TIP3   OH235265   8.314   3.609   0.285 -0.0813  0.2475 -0.0286
11775TIP3    H135266   8.401   3.586   0.319 -0.5965 -1.2439  0.3503
11775TIP3    H235267   8.276   3.665   0.353 -0.6536 -1.7567  1.3867
11776TIP3   OH235268   5.433   6.097   5.273 -0.2795  0.4562 -0.5302
11776TIP3    H135269   5.342   6.113   5.251 -0.5654  0.5970  0.6645
11776TIP3    H235270   5.483   6.129   5.198 -1.1080  2.4140 -0.2998
11777TIP3   OH235271   7.083   4.943   4.410 -0.3553 -0.0111  0.1231
11777TIP3    H135272   7.048   4.873   4.356  0.6824 -1.0225  0.7172
11777TIP3    H235273   7.094   5.017   4.350 -1.3591 -0.3777 -0.5329
11778TIP3   OH235274   0.152   1.207   3.891 -0.2759  0.0646 -0.3433
11778TIP3    H135275   0.100   1.130   3.913  0.9173 -1.8390 -3.5629
11778TIP3    H235276   0.240   1.188   3.924 -0.1237  0.3529 -0.5744
11779TIP3   OH235277   0.602   6.657   6.645 -0.2957  0.4308 -0.2347
11779TIP3    H135278   0.679   6.663   6.588  2.1180 -0.9041  2.6501
11779TIP3    H235279   0.609   6.733   6.703  1.1882 -1.6333  2.5436
11780TIP3   OH235280   2.500   3.030   2.107 -0.5090  0.3980  0.0816
11780TIP3    H135281   2.412   3.068   2.113 -0.2055  0.9414  1.4918
11780TIP3    H235282   2.550   3.094   2.056 -0.9311  0.0375 -0.8175
11781TIP3   OH235283   3.142   1.896   3.338  0.1641  0.2453 -0.0210
11781TIP3    H135284   3.066   1.935   3.381  0.7999  1.3809  0.1301
11781TIP3    H235285   3.208   1.891   3.407  0.1252 -1.0678 -0.0604
11782TIP3   OH235286   3.650   3.202   2.766 -0.5365  0.0716 -0.4064
11782TIP3    H135287   3.581   3.164   2.712  0.4660  0.7247 -2.2327
11782TIP3    H235288   3.639   3.160   2.852 -1.6081 -1.7138 -1.3532
11783TIP3   OH235289   4.973   5.875   6.247  0.9249  0.5619  0.2784
11783TIP3    H135290   5.041   5.809   6.259 -2.0151 -2.7406  0.4422
11783TIP3    H235291   4.987   5.909   6.159  2.3995 -0.4953  0.0639
11784TIP3   OH235292   6.501   2.747   3.886 -0.4456  0.1923 -0.0855
11784TIP3    H135293   6.519   2.823   3.831  1.9271  0.0654  0.4129
11784TIP3    H235294   6.452   2.687   3.829  0.8846  0.5604 -1.6883
11785TIP3   OH235295   1.344   3.812   6.795 -0.2362  0.0112 -0.5957
11785TIP3    H135296   1.316   3.744   6.856  0.4926 -1.3552 -1.7428
11785TIP3    H235297   1.387   3.765   6.723  0.5864  1.6972 -1.2728
11786TIP3   OH235298   1.581   2.911   3.639  0.7675 -0.2652  0.2154
11786TIP3    H135299   1.543   2.974   3.577 -0.1341 -1.5350 -0.5757
11786TIP3    H235300   1.626   2.848   3.584 -0.2229 -1.5345  0.8135
11787TIP3   OH235301   7.154   5.676   4.076  0.2332  0.3055 -0.4473
11787TIP3    H135302   7.229   5.734   4.087 -0.5035  1.0519  0.9075
11787TIP3    H235303   7.151   5.625   4.157 -1.0561  0.7116 -0.2200
11788TIP3   OH235304   2.782   2.094   6.160 -0.3784 -0.0853 -0.6252
11788TIP3    H135305   2.766   2.136   6.075 -1.5362 -1.2207 -1.0036
11788TIP3    H235306   2.794   2.167   6.221 -1.3267  0.7848 -1.4390
11789TIP3   OH235307   1.520   5.240   3.411  0.0266  0.7034  0.1385
11789TIP3    H135308   1.426   5.246   3.397  0.3330  0.3786 -2.5990
11789TIP3    H235309   1.559   5.289   3.339  1.9665 -0.1014  0.5517
11790TIP3   OH235310   7.503   7.637   5.647  0.2054  0.2775  0.2904
11790TIP3    H135311   7.460   7.554   5.626  0.2116  0.5358 -0.7874
11790TIP3    H235312   7.504   7.640   5.743 -2.2455  0.3263  0.3573
11791TIP3   OH235313   7.635   7.079   2.121  0.0258 -0.0218  0.4085
11791TIP3    H135314   7.684   6.998   2.130 -0.0752 -0.1149  0.1526
11791TIP3    H235315   7.544   7.054   2.136 -0.3324 -0.4525 -2.0305
11792TIP3   OH235316   8.198   0.485   6.315 -0.0102  0.1705  0.4334
11792TIP3    H135317   8.151   0.489   6.231  0.2514 -0.1798  0.2720
11792TIP3    H235318   8.141   0.433   6.372  1.6823 -3.2943 -0.7576
11793TIP3   OH235319   6.470   0.433   6.024  0.1830 -0.1652  0.6225
11793TIP3    H135320   6.402   0.365   6.023 -1.2495  1.1876  1.0230
11793TIP3    H235321   6.542   0.394   6.073 -0.2524 -1.6960  0.1065
11794TIP3   OH235322   6.164   0.305   3.394  0.1573 -0.2923  0.0847
11794TIP3    H135323   6.234   0.370   3.386 -1.2426  1.0310 -3.1406
11794TIP3    H235324   6.087   0.357   3.417 -0.1992 -1.4763  1.7307
11795TIP3   OH235325   6.086   6.770   1.017  0.1003 -0.4885  0.6249
11795TIP3    H135326   6.068   6.858   1.049 -0.9702 -0.4685  0.0139
11795TIP3    H235327   6.019   6.754   0.950  1.9099 -0.7279 -1.2446
11796TIP3   OH235328   1.823   1.502   4.823  0.3061 -0.1328 -0.3411
11796TIP3    H135329   1.804   1.550   4.903 -1.0037  1.7362 -1.6659
11796TIP3    H235330   1.778   1.553   4.754  0.2806 -2.3648 -2.0744
11797TIP3   OH235331   8.054   3.519   0.390  0.4251 -0.3672  0.3404
11797TIP3    H135332   8.010   3.457   0.332  0.1653 -0.0163  0.1584
11797TIP3    H235333   8.147   3.507   0.373  0.3583 -0.4322  0.0201
11798TIP3   OH235334   6.082   0.251   3.916 -0.3421  0.4837 -0.6849
11798TIP3    H135335   6.151   0.236   3.981 -1.4858 -0.3325  0.3683
11798TIP3    H235336   6.129   0.289   3.841  1.3737 -0.7300 -0.2885
11799TIP3   OH235337   3.033   7.829   5.472  0.0485  0.2111 -0.2849
11799TIP3    H135338   2.944   7.840   5.441 -0.1171 -1.3120 -0.4053
11799TIP3    H235339   3.075   7.772   5.408  0.6273 -0.4039  0.6185
11800TIP3   OH235340   5.931   2.017   0.836 -0.2386 -0.8585 -0.3959
11800TIP3    H135341   5.965   2.100   0.803 -1.2004 -0.3038 -0.0293
11800TIP3    H235342   5.985   1.950   0.793  1.8368 -0.0211  0.7653
11801TIP3   OH235343   1.956   3.297   1.388  0.0264  0.3638  0.0787
11801TIP3    H135344   1.870   3.302   1.430 -0.1799 -0.9940 -0.1278
11801TIP3    H235345   2.000   3.225   1.432 -0.1790 -1.0958 -1.9665
11802TIP3   OH235346   6.408   3.974   0.540 -0.5470  0.2679 -0.4086
11802TIP3    H135347   6.349   3.912   0.583  0.1955  1.1165  1.9777
11802TIP3    H235348   6.495   3.934   0.550 -0.1879  1.1957  0.2267
11803TIP3   OH235349   3.922   3.481   1.775 -0.0916 -1.0132  0.0176
11803TIP3    H135350   3.962   3.499   1.860  0.5355 -0.2329 -0.4237
11803TIP3    H235351   3.997   3.463   1.717 -0.5434 -2.1527 -0.2375
11804TIP3   OH235352   6.819   2.045   4.313 -0.5178  0.2122 -0.1664
11804TIP3    H135353   6.771   1.999   4.243  0.4741 -0.5562 -0.3641
11804TIP3    H235354   6.753   2.099   4.355 -1.6900 -1.1690 -0.1283
11805TIP3   OH235355   8.010   7.794   0.174 -0.0583 -0.0195 -0.0037
11805TIP3    H135356   8.007   7.790   0.270  0.3589 -0.6047 -0.0120
11805TIP3    H235357   7.952   7.724   0.145  0.7368 -0.6065 -0.1769
11806TIP3   OH235358   2.821   0.294   4.616  0.3875  0.3782  0.1190
11806TIP3    H135359   2.804   0.216   4.670  0.1462 -0.1074 -0.6457
11806TIP3    H235360   2.842   0.362   4.679 -0.6121  0.0106  0.8828
11807TIP3   OH235361   2.568   2.459   0.885  0.1155 -0.3518  0.1763
11807TIP3    H135362   2.528   2.398   0.946  0.5720 -2.0451 -1.1374
11807TIP3    H235363   2.635   2.505   0.936 -1.7516  0.7364  1.7640
11808TIP3   OH235364   2.201   1.893   0.554  0.3780 -0.1501  0.1035
11808TIP3    H135365   2.230   1.808   0.520 -2.7732 -1.7589  1.0601
11808TIP3    H235366   2.278   1.929   0.598  1.8047 -2.5576 -0.2463
11809TIP3   OH235367   8.099   0.473   3.636  0.0809  0.3800  0.1358
11809TIP3    H135368   8.088   0.396   3.580  1.5666  0.3508 -0.1582
11809TIP3    H235369   8.046   0.455   3.713 -0.0132 -0.7027 -0.1746
11810TIP3   OH235370   6.900   3.992   2.057  0.1919  0.1443  0.1964
11810TIP3    H135371   6.922   4.012   2.148  0.3548 -0.9621  0.4120
11810TIP3    H235372   6.951   4.054   2.006 -0.6282  1.4356  0.8719
11811TIP3   OH235373   4.241   7.245   3.496 -0.1725 -0.1548  0.3327
11811TIP3    H135374   4.273   7.201   3.575  0.3097 -0.8035 -0.2173
11811TIP3    H235375   4.289   7.204   3.424 -1.1014 -0.0495 -0.3674
11812TIP3   OH235376   0.992   3.170   0.858 -0.1213  0.1965  0.1262
11812TIP3    H135377   0.952   3.250   0.891  0.7610 -0.1372  2.1124
11812TIP3    H235378   1.072   3.159   0.910  0.3732 -1.3734 -0.8789
11813TIP3   OH235379   2.001   0.290   1.764  0.3814  0.7146  0.6115
11813TIP3    H135380   1.997   0.375   1.721 -1.1439  0.9066  1.0841
11813TIP3    H235381   2.093   0.280   1.788  0.4382  2.6140  1.3318
11814TIP3   OH235382   1.817   1.745   1.974  0.4688  0.2641  0.0522
11814TIP3    H135383   1.760   1.743   2.051 -0.1991  0.9364 -0.4084
11814TIP3    H235384   1.837   1.838   1.962  0.6291  0.1571 -0.5358
11815TIP3   OH235385   3.816   6.320   1.077 -0.0805 -0.0106  0.1652
11815TIP3    H135386   3.747   6.319   1.011  2.0705  2.2108 -2.3513
11815TIP3    H235387   3.814   6.233   1.116 -0.8443 -1.8263 -3.5558
11816TIP3   OH235388   6.728   2.363   6.745 -0.1231 -0.2023 -1.1651
11816TIP3    H135389   6.699   2.428   6.681 -0.6697 -0.3120 -1.0349
11816TIP3    H235390   6.775   2.414   6.811 -2.2942  0.3938  0.0198
11817TIP3   OH235391   4.938   4.877   3.763  0.2116 -0.0585  0.3197
11817TIP3    H135392   4.851   4.839   3.770 -0.0883  0.5083 -0.2010
11817TIP3    H235393   4.930   4.964   3.802  0.5753 -0.0481  0.3790
11818TIP3   OH235394   3.030   7.430   4.492  0.0605  0.8402 -0.0140
11818TIP3    H135395   3.040   7.399   4.402 -0.6504  0.5580 -0.0055
11818TIP3    H235396   3.046   7.524   4.487  2.5702  0.5014  0.0053
11819TIP3   OH235397   7.611   3.855   3.002 -0.1198 -0.2389 -0.7637
11819TIP3    H135398   7.574   3.767   3.000 -1.2666  0.0374  2.5337
11819TIP3    H235399   7.605   3.886   2.911 -3.2899 -2.1163 -1.3288
11820TIP3   OH235400   2.262   7.175   4.741  0.2716 -0.4901 -0.2749
11820TIP3    H135401   2.199   7.140   4.678 -1.5397  0.3379  0.9888
11820TIP3    H235402   2.221   7.254   4.775  2.5414  0.7411 -0.2137
11821TIP3   OH235403   4.869   3.875   0.929 -0.0923  0.2049  0.3755
11821TIP3    H135404   4.838   3.787   0.950  0.7566 -0.1356  0.2622
11821TIP3    H235405   4.880   3.874   0.833 -1.5633  0.9471  0.1698
11822TIP3   OH235406   7.500   6.717   1.652  0.2531  0.0721 -0.4625
11822TIP3    H135407   7.487   6.775   1.727 -1.4539  0.1186 -0.7523
11822TIP3    H235408   7.515   6.776   1.578  0.5827  0.0711 -0.3972
11823TIP3   OH235409   2.684   1.743   4.930  0.2899  0.5292 -0.4015
11823TIP3    H135410   2.605   1.728   4.878  0.4563  1.3537 -0.9176
11823TIP3    H235411   2.735   1.662   4.921 -1.5668 -1.0371  1.9648
11824TIP3   OH235412   3.322   7.843   6.014 -0.2156  0.1445 -0.1791
11824TIP3    H135413   3.344   7.788   5.939 -0.1767 -2.2216  1.4893
11824TIP3    H235414   3.406   7.857   6.058 -0.5360 -0.2286  0.5531
11825TIP3   OH235415   1.736   1.031   4.525  0.3554  0.2958 -0.2650
11825TIP3    H135416   1.724   1.064   4.614  0.1334  4.9820 -1.7598
11825TIP3    H235417   1.648   1.012   4.493  0.2776  0.2990 -0.0517
11826TIP3   OH235418   1.874   3.989   6.710 -0.2976 -0.6564 -0.2238
11826TIP3    H135419   1.804   3.925   6.727  0.0963 -1.4426 -1.4262
11826TIP3    H235420   1.862   4.056   6.777 -1.3471 -1.4860  0.4516
11827TIP3   OH235421   0.359   7.469   0.934 -0.0946  0.5320 -0.3698
11827TIP3    H135422   0.447   7.507   0.944 -0.3429  1.1410 -0.4414
11827TIP3    H235423   0.334   7.491   0.844 -0.9333  1.7130  0.1261
11828TIP3   OH235424   0.884   5.830   2.875  0.5016 -0.4147 -0.2920
11828TIP3    H135425   0.916   5.893   2.810  0.4948  0.2285  0.3223
11828TIP3    H235426   0.816   5.877   2.922  1.3169 -0.4575  0.9783
11829TIP3   OH235427   5.045   6.682   5.268  0.5950 -0.6696  0.2609
11829TIP3    H135428   5.015   6.725   5.349 -1.3162 -2.5551  0.6086
11829TIP3    H235429   4.980   6.706   5.202  1.0186 -0.8181 -0.2154
11830TIP3   OH235430   7.314   6.013   4.968  0.2410  0.1948  0.5298
11830TIP3    H135431   7.243   5.982   5.024  0.4693  0.1942  0.8204
11830TIP3    H235432   7.328   6.104   4.995  3.2017 -0.9292  3.5026
11831TIP3   OH235433   6.246   6.459   4.373 -0.1040  0.5677 -0.7638
11831TIP3    H135434   6.267   6.380   4.324 -1.0622  0.1195 -0.4753
11831TIP3    H235435   6.268   6.438   4.464 -0.0025  0.7701 -0.7400
11832TIP3   OH235436   0.459   5.919   3.271  0.1511  0.5671 -0.6875
11832TIP3    H135437   0.536   5.894   3.323  2.2293  0.6473 -3.5187
11832TIP3    H235438   0.425   5.836   3.238 -0.5693  0.6005 -0.0647
11833TIP3   OH235439   5.187   1.545   5.242  0.3486 -0.6606  0.4994
11833TIP3    H135440   5.108   1.595   5.263 -0.1008 -1.1051 -0.1006
11833TIP3    H235441   5.246   1.609   5.201 -0.7762 -0.8912 -1.5837
11834TIP3   OH235442   3.380   2.977   1.180 -0.1832  0.0089  0.3111
11834TIP3    H135443   3.301   2.993   1.128 -0.9253  1.0333  1.6979
11834TIP3    H235444   3.372   3.035   1.256  1.7820 -0.0512  0.6361
11835TIP3   OH235445   1.002   0.996   4.634 -0.1315 -0.3346 -0.5646
11835TIP3    H135446   0.989   0.991   4.728  1.5608  1.0853 -0.2055
11835TIP3    H235447   0.935   0.939   4.597 -1.1586 -0.5034  1.4602
11836TIP3   OH235448   4.938   2.575   4.414 -0.4283  0.1702 -0.5609
11836TIP3    H135449   4.962   2.639   4.481 -0.8032  1.0610 -1.2463
11836TIP3    H235450   4.981   2.494   4.441 -0.3954  0.5669  0.6274
11837TIP3   OH235451   0.271   5.422   1.380 -0.0239  0.0306 -0.0367
11837TIP3    H135452   0.348   5.373   1.351  0.9510  1.2031  0.5040
11837TIP3    H235453   0.284   5.510   1.346 -0.6283  0.5056  0.9209
11838TIP3   OH235454   0.373   6.852   4.545 -0.1356 -0.3462 -0.2422
11838TIP3    H135455   0.441   6.807   4.595  1.3898  1.4385 -0.6063
11838TIP3    H235456   0.300   6.860   4.606  0.7172 -0.5600  0.8307
11839TIP3   OH235457   7.920   5.939   0.483  0.7443 -0.2445  0.3167
11839TIP3    H135458   7.867   6.009   0.523 -1.2286 -1.5674  0.1264
11839TIP3    H235459   7.940   5.880   0.556 -0.2878 -1.0981 -0.0791
11840TIP3   OH235460   2.547   3.417   1.392 -0.2547 -0.5796 -0.0557
11840TIP3    H135461   2.611   3.370   1.445 -0.6139 -1.1787 -0.1453
11840TIP3    H235462   2.568   3.394   1.302  1.6772  2.0625 -0.3934
11841TIP3   OH235463   0.219   2.938   1.055  0.4706  0.7739 -0.0820
11841TIP3    H135464   0.263   3.020   1.077  0.7419  0.4644  0.5536
11841TIP3    H235465   0.285   2.886   1.010  0.5423  0.5893  0.2344
11842TIP3   OH235466   2.328   3.200   1.597 -0.0593  0.1566 -0.0003
11842TIP3    H135467   2.336   3.275   1.538  1.6430 -0.2918 -0.4037
11842TIP3    H235468   2.239   3.167   1.583 -0.3250  1.2037 -0.8961
11843TIP3   OH235469   4.361   1.260   3.898  0.4727 -0.0287  0.6094
11843TIP3    H135470   4.363   1.165   3.891  2.4693  0.0870 -1.4172
11843TIP3    H235471   4.273   1.285   3.869  0.4032 -1.1961 -0.2262
11844TIP3   OH235472   3.434   4.898   1.055  0.2099 -0.3006  0.0179
11844TIP3    H135473   3.368   4.836   1.025 -0.1984 -0.5429  1.3393
11844TIP3    H235474   3.510   4.844   1.077 -0.7718 -0.6776  2.9855
11845TIP3   OH235475   5.168   5.766   1.591 -0.1997  0.7622 -0.3006
11845TIP3    H135476   5.096   5.750   1.530 -1.5721  1.4447  1.0704
11845TIP3    H235477   5.181   5.682   1.636 -0.2006  0.6613 -0.4901
11846TIP3   OH235478   1.759   6.101   0.396 -0.2696  0.3305 -0.0219
11846TIP3    H135479   1.669   6.131   0.385 -0.6823 -0.8878 -0.0254
11846TIP3    H235480   1.755   6.006   0.385  1.1114  0.3197 -0.6676
11847TIP3   OH235481   8.142   1.686   5.074  0.0188  0.9701 -0.7068
11847TIP3    H135482   8.236   1.695   5.088 -0.0387 -0.1200  0.5912
11847TIP3    H235483   8.107   1.661   5.160 -1.2085 -0.3698 -1.5432
11848TIP3   OH235484   7.115   7.343   6.250 -0.0345 -0.7002  0.6931
11848TIP3    H135485   7.168   7.264   6.260 -0.7887 -1.3436 -0.1721
11848TIP3    H235486   7.151   7.386   6.173 -0.0406 -0.5477  0.7762
11849TIP3   OH235487   1.226   1.965   6.194 -0.0952 -0.1618  0.1257
11849TIP3    H135488   1.205   2.041   6.247 -0.9626  0.4732 -1.0638
11849TIP3    H235489   1.162   1.967   6.123  1.7695 -0.2225 -1.6645
11850TIP3   OH235490   3.243   7.387   3.028 -0.3104 -0.3925 -0.1291
11850TIP3    H135491   3.208   7.474   3.012  0.5631 -0.2265 -1.2738
11850TIP3    H235492   3.205   7.332   2.959 -1.1834 -1.0378  0.8265
11851TIP3   OH235493   4.143   2.223   1.219  0.1465 -0.2119 -0.4844
11851TIP3    H135494   4.190   2.146   1.252 -2.6931 -0.9587  2.3479
11851TIP3    H235495   4.073   2.187   1.165 -0.4583  0.4914 -0.1754
11852TIP3   OH235496   0.510   4.870   5.468  0.2480 -0.5393  0.3512
11852TIP3    H135497   0.565   4.902   5.397 -0.7535 -0.5641 -0.4583
11852TIP3    H235498   0.489   4.780   5.443 -0.0213 -0.5890  0.7484
11853TIP3   OH235499   6.044   0.259   5.476  0.0346  0.0336  0.5042
11853TIP3    H135500   6.134   0.227   5.476 -0.1432 -0.5405 -1.3463
11853TIP3    H235501   5.990   0.181   5.491 -0.2851 -0.2198 -1.6849
11854TIP3   OH235502   2.969   7.041   0.498 -0.8160  0.2696 -0.1646
11854TIP3    H135503   3.058   7.038   0.533  0.0020 -1.1174 -2.1546
11854TIP3    H235504   2.914   7.005   0.567  0.3888 -0.2960  0.5316
11855TIP3   OH235505   4.676   0.754   4.976  0.0455 -0.2172  0.6294
11855TIP3    H135506   4.584   0.780   4.981 -0.2169 -0.9779 -0.0570
11855TIP3    H235507   4.679   0.687   4.908  0.9810 -0.7605  1.1724
11856TIP3   OH235508   5.913   2.390   3.468  0.2415 -0.2039 -0.4962
11856TIP3    H135509   6.005   2.367   3.483  0.5073  0.2934 -1.3361
11856TIP3    H235510   5.906   2.481   3.498 -0.4551 -0.8264  1.3978
11857TIP3   OH235511   3.442   7.475   4.206 -0.4217  0.7602  0.2883
11857TIP3    H135512   3.350   7.497   4.218 -0.2006  1.5169  0.6706
11857TIP3    H235513   3.442   7.397   4.149 -1.3103  0.3492  0.8448
11858TIP3   OH235514   3.000   0.700   4.994 -0.1699  0.3919 -0.0237
11858TIP3    H135515   3.078   0.743   5.030  0.1088  1.3367 -1.6239
11858TIP3    H235516   3.014   0.607   5.011  1.0326  0.6068  0.2483
11859TIP3   OH235517   6.719   3.481   2.592  0.1960 -0.1801 -0.0385
11859TIP3    H135518   6.685   3.540   2.525  0.8398  1.5327  1.0762
11859TIP3    H235519   6.813   3.477   2.576  0.1985 -0.6830  0.0750
11860TIP3   OH235520   5.409   6.563   1.662 -0.2461  0.1384  0.0266
11860TIP3    H135521   5.488   6.576   1.608 -1.7056 -0.3530 -2.3911
11860TIP3    H235522   5.373   6.480   1.632 -1.3268  0.0065  1.5997
11861TIP3   OH235523   4.456   6.462   5.996  0.0381  0.0216  0.1246
11861TIP3    H135524   4.534   6.507   5.964  0.0119 -0.3875 -0.5508
11861TIP3    H235525   4.391   6.531   6.009  0.1316  0.2337 -0.4902
11862TIP3   OH235526   4.686   3.897   2.837 -0.3542 -0.2402  0.5199
11862TIP3    H135527   4.650   3.863   2.918 -0.8420 -0.0151  0.3995
11862TIP3    H235528   4.780   3.877   2.842 -0.6784 -1.9848  0.2543
11863TIP3   OH235529   8.048   3.206   0.447 -0.9642  0.5882 -0.0557
11863TIP3    H135530   8.086   3.129   0.489 -1.4046 -0.6819 -1.8637
11863TIP3    H235531   8.123   3.257   0.416 -0.6899 -0.2034 -0.7048
11864TIP3   OH235532   1.170   3.748   5.506  0.0923  0.3336 -0.0776
11864TIP3    H135533   1.240   3.683   5.502 -1.6056 -1.5136 -1.2403
11864TIP3    H235534   1.160   3.766   5.600  0.9857 -0.6323  0.2239
11865TIP3   OH235535   3.957   2.788   5.104  0.3463  0.4676  0.2084
11865TIP3    H135536   3.969   2.806   5.197 -0.3000  0.5461  0.2775
11865TIP3    H235537   3.937   2.873   5.065 -2.3088  0.0254  0.4745
11866TIP3   OH235538   0.454   5.295   1.214 -0.0582 -0.2336  0.0519
11866TIP3    H135539   0.515   5.228   1.246 -1.9472 -1.5398  1.1449
11866TIP3    H235540   0.464   5.294   1.119  0.4435 -1.6202  0.0966
11867TIP3   OH235541   5.429   6.967   2.711 -0.0980  0.1168 -0.5541
11867TIP3    H135542   5.514   6.936   2.680  0.0829  1.6319 -1.6622
11867TIP3    H235543   5.365   6.911   2.668  0.2948 -0.2862 -0.6146
11868TIP3   OH235544   4.675   6.150   0.740  0.0792 -0.1406 -0.3868
11868TIP3    H135545   4.669   6.058   0.712 -0.0516  0.2653 -1.7842
11868TIP3    H235546   4.769   6.167   0.746  0.1783  0.2196 -2.3081
11869TIP3   OH235547   0.095   7.684   6.506 -0.0933 -0.3421  0.3496
11869TIP3    H135548   0.143   7.601   6.509 -0.5619 -0.6425 -0.2071
11869TIP3    H235549   0.160   7.749   6.478  0.0597 -0.6934 -0.1282
11870TIP3   OH235550   0.058   2.167   4.840 -0.3808 -0.1372  0.4578
11870TIP3    H135551  -0.020   2.221   4.853  1.2193  2.3121  0.4130
11870TIP3    H235552   0.069   2.162   4.745  0.3169  0.7836  0.4792
11871TIP3   OH235553   1.051   0.709   4.385 -0.1641 -0.8253  0.0227
11871TIP3    H135554   0.994   0.679   4.456 -0.7589  0.4631  0.1144
11871TIP3    H235555   1.013   0.671   4.306 -0.8211 -0.4309  0.1459
11872TIP3   OH235556   6.166   0.303   5.995  0.4278 -0.1069  0.4226
11872TIP3    H135557   6.146   0.243   6.067 -1.6713 -1.1757 -0.9455
11872TIP3    H235558   6.099   0.372   6.002 -1.0501 -1.2352 -1.5143
11873TIP3   OH235559   4.951   6.048   3.390  0.0814  0.3141  0.3088
11873TIP3    H135560   4.885   6.086   3.448 -0.7804  1.3800 -1.2820
11873TIP3    H235561   4.952   6.106   3.314  1.0212 -1.1436 -0.8425
11874TIP3   OH235562   6.498   0.530   3.991 -0.2458  0.2591 -0.1457
11874TIP3    H135563   6.404   0.536   4.008  0.1075  1.8783  1.6759
11874TIP3    H235564   6.538   0.521   4.078  1.3085  0.0003 -0.8481
11875TIP3   OH235565   1.943   4.864   2.821 -0.1245  0.5486 -0.1189
11875TIP3    H135566   1.889   4.790   2.849  1.3462 -0.5457 -0.0561
11875TIP3    H235567   1.974   4.903   2.902  1.0899 -0.3076 -0.1493
11876TIP3   OH235568   7.217   2.326   1.974 -0.2943 -0.0927 -0.7913
11876TIP3    H135569   7.280   2.277   2.027  0.7450  2.4280  0.4947
11876TIP3    H235570   7.259   2.334   1.888  0.1063 -0.3877 -0.6260
11877TIP3   OH235571   6.036   6.792   2.732 -0.0049  0.2874  0.3268
11877TIP3    H135572   5.982   6.820   2.657 -0.7783 -0.2930  0.6633
11877TIP3    H235573   6.015   6.855   2.801  0.7170  0.8292  0.0631
11878TIP3   OH235574   6.577   0.704   3.733 -0.5827  0.0220 -0.1781
11878TIP3    H135575   6.582   0.742   3.821  0.8942  1.0587 -0.6701
11878TIP3    H235576   6.488   0.724   3.703 -0.9457  0.0695  0.8761
11879TIP3   OH235577   8.122   6.508   0.326 -0.2433  0.4635 -0.3588
11879TIP3    H135578   8.179   6.576   0.362  0.5183 -0.1208 -0.4523
11879TIP3    H235579   8.167   6.426   0.346 -0.4446  0.0621 -1.5121
11880TIP3   OH235580   3.344   5.084   2.554  0.3599 -0.2566 -0.4852
11880TIP3    H135581   3.275   5.077   2.620 -1.2010  0.8635 -1.9243
11880TIP3    H235582   3.425   5.079   2.604 -0.7424 -0.9655  1.3392
11881TIP3   OH235583   3.068   1.944   1.336  0.1393  0.1710 -0.3205
11881TIP3    H135584   3.160   1.967   1.351  0.3289 -0.7270 -0.0938
11881TIP3    H235585   3.065   1.849   1.342 -0.7450  0.1654 -0.6992
11882TIP3   OH235586   5.036   7.851   3.943 -0.3258  0.5070 -0.2862
11882TIP3    H135587   4.945   7.874   3.923 -0.9344 -0.2669  1.4361
11882TIP3    H235588   5.081   7.857   3.858 -1.7491  1.8843 -0.9946
11883TIP3   OH235589   1.207   6.678   3.887  0.5701 -0.4589  0.4173
11883TIP3    H135590   1.266   6.716   3.952 -0.7854  2.0294  0.3132
11883TIP3    H235591   1.172   6.600   3.930  1.2157  0.0131  1.8903
11884TIP3   OH235592   8.133   6.156   6.627 -0.1226  0.0012 -0.1565
11884TIP3    H135593   8.091   6.207   6.697  0.8458  0.1384  0.3486
11884TIP3    H235594   8.085   6.179   6.548 -0.8562  0.3053  0.3626
11885TIP3   OH235595   0.930   3.189   3.159  0.0304  0.0203 -0.2989
11885TIP3    H135596   0.872   3.114   3.170  0.5905 -0.3523  0.1867
11885TIP3    H235597   0.885   3.245   3.096 -1.6383  0.5438  1.2565
11886TIP3   OH235598   7.810   4.246   1.064 -0.3514 -0.2129 -0.4414
11886TIP3    H135599   7.789   4.339   1.074  0.2123  0.1299 -2.1059
11886TIP3    H235600   7.835   4.218   1.152  3.4461  2.2638 -0.4718
11887TIP3   OH235601   7.863   2.674   2.831 -0.4041  0.2600 -0.0556
11887TIP3    H135602   7.832   2.583   2.824 -0.7554  0.4097 -0.4807
11887TIP3    H235603   7.862   2.692   2.925  1.3417 -0.7528  0.2088
11888TIP3   OH235604   2.558   5.219   0.104  0.0432 -0.7871  0.3095
11888TIP3    H135605   2.525   5.169   0.179 -0.3815 -0.8177  0.1057
11888TIP3    H235606   2.557   5.310   0.133 -2.1408 -0.5535 -0.3632
11889TIP3   OH235607   6.794   3.318   3.538 -0.2663  0.0030  0.2261
11889TIP3    H135608   6.889   3.321   3.530 -0.2022 -0.8568  0.5988
11889TIP3    H235609   6.764   3.397   3.493  0.4285 -1.1911 -2.5787
11890TIP3   OH235610   5.083   2.938   5.225  0.0656  0.0376  0.3440
11890TIP3    H135611   5.068   2.883   5.301  3.5295 -0.5007  0.7922
11890TIP3    H235612   5.160   2.900   5.182  0.5303  2.5399 -1.2731
11891TIP3   OH235613   3.825   4.853   6.276  0.1879 -0.1229 -0.4912
11891TIP3    H135614   3.808   4.767   6.236  0.7027 -0.5215  0.1134
11891TIP3    H235615   3.920   4.863   6.269  0.0292  0.8693 -1.4710
11892TIP3   OH235616   6.259   3.891   2.308  0.0452 -0.8552  0.1356
11892TIP3    H135617   6.171   3.857   2.293 -0.9227  1.5068 -0.0057
11892TIP3    H235618   6.282   3.858   2.395 -0.4350 -2.4932 -0.3159
11893TIP3   OH235619   4.339   7.770   0.259 -0.0224 -0.5141 -0.3451
11893TIP3    H135620   4.350   7.705   0.190  1.4923  1.1085 -1.7564
11893TIP3    H235621   4.402   7.745   0.326  0.2852 -0.7354 -0.7115
11894TIP3   OH235622   1.145   3.602   6.484  0.6880 -0.1445 -0.1862
11894TIP3    H135623   1.124   3.509   6.477 -0.7480  0.1430  0.0146
11894TIP3    H235624   1.102   3.631   6.565  0.1015  0.9465 -0.8548
11895TIP3   OH235625   0.316   2.922   5.920 -0.3450  0.2145 -0.5634
11895TIP3    H135626   0.400   2.937   5.875 -0.2000  0.6614 -0.1414
11895TIP3    H235627   0.299   3.003   5.968 -1.1794  0.2493 -0.8961
11896TIP3   OH235628   5.088   5.946   1.944  0.8160 -0.0956  0.2653
11896TIP3    H135629   5.085   5.961   2.038  4.0091 -0.0230  0.4398
11896TIP3    H235630   5.033   5.868   1.930 -0.3997  0.3961  2.0075
11897TIP3   OH235631   7.620   3.003   4.807  0.0153 -0.3922 -0.2594
11897TIP3    H135632   7.582   3.090   4.799 -0.6648 -0.5137  1.3287
11897TIP3    H235633   7.631   2.973   4.716  1.4001  1.7927 -0.8780
11898TIP3   OH235634   3.312   1.371   2.495 -0.0356  0.1778 -0.2982
11898TIP3    H135635   3.381   1.312   2.465 -0.9436 -1.3682  0.5261
11898TIP3    H235636   3.231   1.330   2.467 -0.7845 -0.0322  1.9801
11899TIP3   OH235637   5.148   2.804   5.637  0.3020 -0.0783 -0.4856
11899TIP3    H135638   5.094   2.813   5.559  0.6709  0.1824 -0.7137
11899TIP3    H235639   5.233   2.775   5.604  1.1513  2.1514 -0.4226
11900TIP3   OH235640   7.276   6.065   2.004 -0.1840  0.0992 -0.2263
11900TIP3    H135641   7.368   6.092   2.000 -0.2803  0.3073 -1.6997
11900TIP3    H235642   7.278   5.971   1.986 -0.3082  0.2844 -1.3194
11901TIP3   OH235643   4.467   7.861   2.730  0.4415 -0.8471 -0.1022
11901TIP3    H135644   4.539   7.804   2.703  1.0856 -0.5325  0.9058
11901TIP3    H235645   4.500   7.907   2.807 -0.2644  0.4897 -0.5726
11902TIP3   OH235646   5.883   3.608   4.299  0.8396 -0.2643 -0.4132
11902TIP3    H135647   5.906   3.537   4.238  1.2784  0.6371 -1.3283
11902TIP3    H235648   5.871   3.685   4.243 -0.6920  0.1695  0.4406
11903TIP3   OH235649   1.783   0.753   5.385 -0.0539 -0.4329  0.1537
11903TIP3    H135650   1.691   0.728   5.388  0.0342 -0.6946  0.7654
11903TIP3    H235651   1.788   0.833   5.437 -0.1412  0.2866 -0.8982
11904TIP3   OH235652   5.611   7.784   0.538 -0.1921 -1.0844  0.9902
11904TIP3    H135653   5.566   7.740   0.466 -0.6718  0.7944  0.0981
11904TIP3    H235654   5.584   7.876   0.532  2.8520 -0.0736  1.1325
11905TIP3   OH235655   8.219   7.373   1.855  0.0549 -0.6810 -0.4756
11905TIP3    H135656   8.186   7.286   1.832 -1.0993 -0.0294 -1.4234
11905TIP3    H235657   8.295   7.386   1.798 -0.9709 -0.2952 -1.7998
11906TIP3   OH235658   3.611   0.934   0.283  0.3046  0.2869  0.1032
11906TIP3    H135659   3.577   0.877   0.214 -0.4331  2.0222 -1.0222
11906TIP3    H235660   3.578   0.895   0.364 -3.1682  0.9319 -0.8209
11907TIP3   OH235661   3.508   5.440   0.415  0.2736 -0.8867  0.9673
11907TIP3    H135662   3.594   5.405   0.437  0.9681  0.5334  0.6153
11907TIP3    H235663   3.450   5.405   0.484  1.0119 -2.2166  0.9562
11908TIP3   OH235664   6.162   6.005   1.310 -0.2151 -0.3816 -0.6348
11908TIP3    H135665   6.137   6.095   1.290 -1.9431  0.0652  2.8436
11908TIP3    H235666   6.115   5.952   1.245  0.6913  1.1112 -2.6175
11909TIP3   OH235667   0.017   1.759   5.091  0.1416 -0.1539  0.7332
11909TIP3    H135668   0.043   1.716   5.009  0.8011  0.6044  0.5425
11909TIP3    H235669   0.096   1.801   5.123 -0.7151  1.9219  0.3063
11910TIP3   OH235670   7.573   4.847   3.387  0.2313 -0.7962 -0.6793
11910TIP3    H135671   7.653   4.797   3.405  1.2209  0.7227 -0.7328
11910TIP3    H235672   7.539   4.809   3.305  1.3720 -0.8892 -1.1253
11911TIP3   OH235673   3.406   5.001   0.388 -0.1361 -0.1089 -0.0425
11911TIP3    H135674   3.333   5.038   0.439  0.2438  1.5205 -0.6415
11911TIP3    H235675   3.367   4.926   0.343 -0.7731 -0.8713  1.6882
11912TIP3   OH235676   5.529   2.523   0.511 -0.3941  0.1332 -0.2958
11912TIP3    H135677   5.544   2.440   0.467  2.7465  0.6841 -0.5131
11912TIP3    H235678   5.588   2.522   0.586 -3.1238  0.6391  2.0399
11913TIP3   OH235679   1.711   3.857   3.820 -0.1258 -0.3039 -0.3401
11913TIP3    H135680   1.736   3.851   3.912  0.2486 -1.1667 -0.4793
11913TIP3    H235681   1.747   3.940   3.790 -0.4024  0.0641  0.3309
11914TIP3   OH235682   6.809   5.650   4.459  0.2173  0.5503 -0.3428
11914TIP3    H135683   6.891   5.601   4.456 -0.3250 -0.5333  1.2464
11914TIP3    H235684   6.819   5.709   4.534 -0.0015  1.2964 -0.8889
11915TIP3   OH235685   3.086   1.102   3.719  0.1460 -0.3201  0.6373
11915TIP3    H135686   3.019   1.074   3.657  0.2929 -1.1113  0.8291
11915TIP3    H235687   3.168   1.100   3.669  0.0963  0.2421  0.5210
11916TIP3   OH235688   3.811   1.284   5.071  0.0600  0.0129 -0.3968
11916TIP3    H135689   3.782   1.201   5.033  0.1889  0.4690 -1.5042
11916TIP3    H235690   3.732   1.318   5.115  0.3717 -1.3727  1.3677
11917TIP3   OH235691   4.835   4.760   1.076 -0.0921 -0.0478  0.0984
11917TIP3    H135692   4.800   4.840   1.115 -2.3670 -0.8952 -0.0456
11917TIP3    H235693   4.826   4.693   1.144  1.1348 -0.3473 -0.0155
11918TIP3   OH235694   6.185   6.938   2.229 -1.1454  0.3298  0.5895
11918TIP3    H135695   6.264   6.884   2.240 -1.2785  0.0464  0.2009
11918TIP3    H235696   6.197   7.011   2.289  0.3800  1.3785 -0.8821
11919TIP3   OH235697   6.508   5.050   5.782 -0.1915 -0.4581 -0.0450
11919TIP3    H135698   6.497   4.955   5.790 -0.8875 -0.2588  1.8296
11919TIP3    H235699   6.448   5.075   5.712 -0.1971 -1.3617 -0.3766
11920TIP3   OH235700   0.326   3.011   3.646 -0.2978  0.2429 -0.0173
11920TIP3    H135701   0.338   2.933   3.701 -2.6170  0.0669  0.3464
11920TIP3    H235702   0.325   2.979   3.557 -2.0528 -0.3392  0.1662
11921TIP3   OH235703   2.085   5.481   3.680  0.8479 -0.2581 -0.4936
11921TIP3    H135704   2.039   5.536   3.743  1.1814  0.4436 -0.8510
11921TIP3    H235705   2.056   5.392   3.700  0.4054  0.0299  0.1805
11922TIP3   OH235706   6.957   5.141   0.567 -0.4443 -0.4221 -0.3975
11922TIP3    H135707   6.962   5.152   0.662  1.3276 -1.1495 -0.3592
11922TIP3    H235708   6.865   5.123   0.550 -0.3552 -3.7584  1.6611
11923TIP3   OH235709   6.538   6.211   6.106 -0.5426 -0.1629 -0.3624
11923TIP3    H135710   6.601   6.141   6.122  0.6851  0.6573 -1.3763
11923TIP3    H235711   6.591   6.291   6.102 -1.8256  0.7405  0.1186
11924TIP3   OH235712   3.492   7.332   1.997 -0.2060  0.0376 -0.0872
11924TIP3    H135713   3.534   7.416   2.018 -0.6661  0.2486  0.0148
11924TIP3    H235714   3.524   7.271   2.063  2.1111 -0.5257 -1.6226
11925TIP3   OH235715   5.110   7.591   1.937 -0.4682 -0.2779  0.2457
11925TIP3    H135716   5.036   7.532   1.921  1.4859 -2.9044  0.2030
11925TIP3    H235717   5.187   7.539   1.913  1.4616  2.0423  1.0540
11926TIP3   OH235718   0.033   3.155   4.831  0.5465  0.1151  0.7206
11926TIP3    H135719   0.105   3.137   4.770  0.2897  0.7904  0.1965
11926TIP3    H235720   0.013   3.070   4.870  0.8176 -0.3046 -0.0284
11927TIP3   OH235721   4.605   5.378   2.266 -0.3118 -0.1258 -0.1188
11927TIP3    H135722   4.533   5.440   2.256 -0.3336 -0.3236 -1.4631
11927TIP3    H235723   4.572   5.297   2.229  0.4365 -0.3469 -0.3207
11928TIP3   OH235724   2.748   1.077   4.361  0.0648  0.0093 -0.6100
11928TIP3    H135725   2.747   1.134   4.438  0.1035 -0.2077 -0.4495
11928TIP3    H235726   2.701   1.126   4.294  1.7043  1.0657 -1.0637
11929TIP3   OH235727   4.161   5.220   6.646 -0.3211 -0.4536  0.3912
11929TIP3    H135728   4.137   5.242   6.736 -1.0391  0.5999 -0.0395
11929TIP3    H235729   4.257   5.224   6.645 -0.3221 -0.2019  1.0376
11930TIP3   OH235730   1.728   5.423   3.485 -0.1415 -0.0972  0.3294
11930TIP3    H135731   1.736   5.406   3.391  0.9427 -3.1151  0.8389
11930TIP3    H235732   1.648   5.378   3.511  0.5051 -0.8564  1.0863
11931TIP3   OH235733   2.609   3.901   6.734  0.5412 -0.5316 -0.5514
11931TIP3    H135734   2.584   3.991   6.755 -0.0437 -1.0997  1.3501
11931TIP3    H235735   2.526   3.857   6.716  0.0125 -2.0667  4.3500
11932TIP3   OH235736   5.890   4.202   1.976 -0.4522  0.2252  0.2193
11932TIP3    H135737   5.979   4.182   1.947 -0.3202 -0.2917  0.9421
11932TIP3    H235738   5.864   4.124   2.026 -1.2361  0.4557  0.1783
11933TIP3   OH235739   0.154   4.292   1.919 -0.2441  0.5455 -0.8799
11933TIP3    H135740   0.113   4.206   1.919  0.7228  0.0687 -0.3362
11933TIP3    H235741   0.083   4.353   1.897 -1.3423 -0.1964  0.4840
11934TIP3   OH235742   0.009   4.020   1.961 -0.4351 -0.3808 -0.6480
11934TIP3    H135743   0.014   3.934   1.918 -0.6757  0.0720 -1.6224
11934TIP3    H235744   0.009   4.000   2.054  0.4290 -1.3947 -0.8367
11935TIP3   OH235745   0.073   0.053   2.391  0.0113 -0.0102 -0.3875
11935TIP3    H135746   0.146   0.016   2.341  0.2456 -0.5230  0.3203
11935TIP3    H235747   0.096   0.039   2.483 -0.2873  1.1557 -0.1123
11936TIP3   OH235748   6.718   0.838   0.151 -0.2814 -0.1607 -0.1116
11936TIP3    H135749   6.733   0.922   0.195  0.3231 -0.2729 -0.0896
11936TIP3    H235750   6.757   0.774   0.210  2.3352 -0.1560 -1.6720
11937TIP3   OH235751   5.140   3.257   3.618 -0.4142 -0.1978  0.0618
11937TIP3    H135752   5.074   3.308   3.666 -0.8265  1.2148 -1.8854
11937TIP3    H235753   5.112   3.166   3.630 -1.3681  0.2043  1.1999
11938TIP3   OH235754   5.190   3.271   6.484 -0.1860 -0.5816  0.8291
11938TIP3    H135755   5.142   3.201   6.528  1.4562 -1.5551  1.1669
11938TIP3    H235756   5.198   3.242   6.393  0.2915 -0.7225  0.9148
11939TIP3   OH235757   5.590   7.210   1.127  0.0029  0.4179  0.1052
11939TIP3    H135758   5.516   7.261   1.092  0.2806  1.4590  0.9578
11939TIP3    H235759   5.566   7.195   1.218  0.1639 -0.5699 -0.0093
11940TIP3   OH235760   0.504   1.616   5.247  0.4834  0.4417 -0.6648
11940TIP3    H135761   0.439   1.557   5.284 -0.4088  2.4713  1.1951
11940TIP3    H235762   0.474   1.631   5.157 -0.7405  0.1479 -0.3252
11941TIP3   OH235763   5.417   0.857   5.707 -0.0279  0.0024 -0.3123
11941TIP3    H135764   5.442   0.921   5.640 -1.2491  1.6534  0.7460
11941TIP3    H235765   5.492   0.857   5.767 -0.4301  1.2384  0.2235
11942TIP3   OH235766   0.227   1.139   4.994  0.9223  0.3309  0.0921
11942TIP3    H135767   0.321   1.117   4.991  0.9481  0.4884 -0.4373
11942TIP3    H235768   0.188   1.088   4.924  0.5215 -0.1149  0.6354
11943TIP3   OH235769   6.296   3.949   5.214 -0.1854  0.7474 -0.2108
11943TIP3    H135770   6.307   4.019   5.279  1.7326  0.8946 -0.6511
11943TIP3    H235771   6.264   3.874   5.264  0.9516  0.9584  0.8732
11944TIP3   OH235772   7.325   4.087   3.360  0.2088 -0.6589  0.3446
11944TIP3    H135773   7.300   4.039   3.281 -0.2561 -0.3519  0.3032
11944TIP3    H235774   7.243   4.101   3.407  0.3008  0.3537  0.2098
11945TIP3   OH235775   0.250   4.526   4.734  0.0406  0.3075  0.0317
11945TIP3    H135776   0.164   4.503   4.700  0.1581 -1.1225  0.6445
11945TIP3    H235777   0.269   4.612   4.695 -1.1989  0.1764 -0.9241
11946TIP3   OH235778   7.048   7.416   5.397  0.6024 -0.3416  0.7073
11946TIP3    H135779   7.067   7.323   5.411 -1.5334 -0.5424  2.6640
11946TIP3    H235780   6.983   7.438   5.463 -0.5825  2.0217 -1.1027
11947TIP3   OH235781   1.636   2.501   0.331  0.4962 -0.0072  0.2139
11947TIP3    H135782   1.634   2.585   0.377  0.6541 -0.1541  0.4905
11947TIP3    H235783   1.606   2.438   0.396  0.3545 -0.1639 -0.0018
11948TIP3   OH235784   8.144   3.197   4.815  0.2132 -0.0232 -0.7367
11948TIP3    H135785   8.236   3.191   4.843  0.1868  0.8070 -0.4471
11948TIP3    H235786   8.148   3.217   4.722  0.3814  2.5652 -0.2313
11949TIP3   OH235787   6.074   1.378   1.365 -0.1070  0.8089  0.1038
11949TIP3    H135788   5.983   1.403   1.382  0.1544  1.1016  1.1610
11949TIP3    H235789   6.076   1.356   1.272 -1.3123  0.5501  0.1212
11950TIP3   OH235790   5.524   7.641   0.332  0.7096 -0.0483  0.6891
11950TIP3    H135791   5.475   7.672   0.255  1.3874  2.8038  1.2921
11950TIP3    H235792   5.486   7.556   0.351 -1.5240  0.4469 -1.0375
11951TIP3   OH235793   7.978   6.533   1.622  0.1888  0.1339  0.1119
11951TIP3    H135794   7.892   6.492   1.632  0.0033  0.7089  0.9003
11951TIP3    H235795   7.970   6.617   1.666  0.2766  1.4877 -2.2822
11952TIP3   OH235796   6.553   7.306   2.788 -0.0138 -0.1549  0.1002
11952TIP3    H135797   6.513   7.388   2.815  0.6348 -0.4891  2.2189
11952TIP3    H235798   6.545   7.306   2.692  1.0577  2.9374 -0.0934
11953TIP3   OH235799   7.225   2.807   3.201  0.4743 -0.0932 -0.1889
11953TIP3    H135800   7.290   2.877   3.209 -0.7785  1.1542 -0.4833
11953TIP3    H235801   7.212   2.798   3.106 -0.6336  0.5240 -0.1123
11954TIP3   OH235802   2.018   0.768   4.328 -0.4176 -0.0801 -0.2523
11954TIP3    H135803   1.959   0.735   4.261  0.0284 -0.6765 -0.3599
11954TIP3    H235804   2.084   0.817   4.279 -1.5580  1.7784 -0.0324
11955TIP3   OH235805   6.882   5.044   6.762 -0.1689  0.1751  0.1462
11955TIP3    H135806   6.858   5.104   6.692  0.0180 -2.0874 -2.0186
11955TIP3    H235807   6.809   4.982   6.766  1.4480 -1.9122 -0.7221
11956TIP3   OH235808   1.519   6.420   3.071  0.4567 -0.5089 -0.3096
11956TIP3    H135809   1.588   6.398   3.009 -0.4887 -0.5198 -1.3913
11956TIP3    H235810   1.453   6.466   3.018 -0.0937  0.0296  0.8116
11957TIP3   OH235811   3.348   5.974   4.032  0.2514 -0.0272 -0.0611
11957TIP3    H135812   3.316   6.035   4.099  0.1926 -0.3273  0.1854
11957TIP3    H235813   3.414   6.024   3.984 -1.2511  0.9500 -1.2028
11958TIP3   OH235814   3.299   2.392   5.607 -0.5166  0.8639 -0.0414
11958TIP3    H135815   3.382   2.407   5.651  0.4420  0.2176 -1.5373
11958TIP3    H235816   3.253   2.330   5.664  0.9604 -0.4660 -0.2183
11959TIP3   OH235817   3.812   3.833   5.568  0.1687 -0.1422  0.7330
11959TIP3    H135818   3.868   3.805   5.640  3.4611  1.4512 -1.0149
11959TIP3    H235819   3.846   3.787   5.491 -1.3142  0.4579 -0.3372
11960TIP3   OH235820   5.631   6.490   3.717  0.2997 -0.3240 -0.1228
11960TIP3    H135821   5.664   6.409   3.679  1.0178  0.0342 -0.2749
11960TIP3    H235822   5.537   6.475   3.727  0.1702 -0.5951 -1.6004
11961TIP3   OH235823   2.687   2.083   4.710 -0.3671 -0.2587  0.0103
11961TIP3    H135824   2.736   2.064   4.790  1.3400 -0.3253 -1.0055
11961TIP3    H235825   2.750   2.070   4.640 -1.8622 -0.3205 -1.3748
11962TIP3   OH235826   7.208   0.486   6.694 -0.1828 -0.1274  0.0156
11962TIP3    H135827   7.291   0.447   6.722 -0.5982 -0.7807  0.3558
11962TIP3    H235828   7.228   0.526   6.610  0.5002 -0.1988  0.1351
11963TIP3   OH235829   0.907   4.389   5.013 -0.3550 -0.1215  0.6334
11963TIP3    H135830   0.923   4.300   4.981 -0.4953 -0.2200  0.8360
11963TIP3    H235831   0.937   4.387   5.104  1.8798  0.6891 -0.0239
11964TIP3   OH235832   8.295   0.631   3.546 -0.7925  0.0296  0.4736
11964TIP3    H135833   8.236   0.567   3.586 -0.8300  0.6644  1.4752
11964TIP3    H235834   8.239   0.683   3.488 -0.5599 -1.5213 -1.2356
11965TIP3   OH235835   1.891   0.715   0.761 -0.1820  0.1603  0.7801
11965TIP3    H135836   1.965   0.681   0.812  0.3165 -0.5442 -0.3589
11965TIP3    H235837   1.899   0.671   0.676 -0.9361  1.3533  0.0677
11966TIP3   OH235838   5.812   3.182   4.123 -0.0748  0.2351 -0.7639
11966TIP3    H135839   5.846   3.256   4.072  1.4750 -0.1596 -0.3449
11966TIP3    H235840   5.806   3.110   4.060 -1.3879  0.6291 -1.1242
11967TIP3   OH235841   6.499   6.119   5.651 -0.1270  0.0987  0.0043
11967TIP3    H135842   6.468   6.029   5.662 -1.4751  0.4550 -0.6496
11967TIP3    H235843   6.454   6.150   5.572  2.4145  0.4518 -1.4113
11968TIP3   OH235844   5.521   0.025   0.878  0.0631 -0.1605  0.0944
11968TIP3    H135845   5.577   0.093   0.917  1.3214  1.1562 -3.6047
11968TIP3    H235846   5.433   0.047   0.909  1.0196 -0.1563  3.2275
11969TIP3   OH235847   0.510   0.565   2.707 -0.0854 -0.4254 -0.3727
11969TIP3    H135848   0.451   0.497   2.739 -0.3006 -0.2975 -0.4960
11969TIP3    H235849   0.505   0.634   2.773 -0.8294  0.0079 -0.8607
11970TIP3   OH235850   3.031   3.155   5.567 -0.3796  0.2658  0.4251
11970TIP3    H135851   3.045   3.233   5.513 -1.9893  0.6584  0.5197
11970TIP3    H235852   3.046   3.185   5.657  0.5843  0.0486  0.3448
11971TIP3   OH235853   3.286   6.368   1.152  0.1350  0.0781 -0.4447
11971TIP3    H135854   3.236   6.382   1.072 -0.0069 -0.1770 -0.4026
11971TIP3    H235855   3.301   6.456   1.187 -0.4420  0.1479 -0.3638
11972TIP3   OH235856   0.261   7.307   4.320  0.2249 -0.3586 -0.3031
11972TIP3    H135857   0.298   7.366   4.385  2.5513  1.1797 -2.7915
11972TIP3    H235858   0.324   7.235   4.314  0.1597 -0.3699 -0.9580
11973TIP3   OH235859   0.384   6.524   5.999  0.0919  0.8125 -0.0777
11973TIP3    H135860   0.355   6.527   6.090  0.6670  1.3291  0.0959
11973TIP3    H235861   0.309   6.555   5.949 -0.7546 -0.8641  0.0732
11974TIP3   OH235862   7.915   4.388   4.690  0.2692  0.1440 -0.3649
11974TIP3    H135863   7.941   4.297   4.681  2.3486  0.7069 -0.4931
11974TIP3    H235864   7.896   4.417   4.601 -2.9770 -0.8049 -0.0885
11975TIP3   OH235865   6.462   0.531   5.214 -0.8394 -0.1460  0.1257
11975TIP3    H135866   6.390   0.494   5.266  0.0364 -0.7091  0.9617
11975TIP3    H235867   6.520   0.571   5.278  0.0530 -0.4991 -0.4508
11976TIP3   OH235868   2.243   1.029   3.523  0.0546 -0.2692  0.0660
11976TIP3    H135869   2.273   1.119   3.529  2.0462 -0.7808 -1.3093
11976TIP3    H235870   2.198   1.024   3.438 -0.7008 -0.4006  0.4667
11977TIP3   OH235871   0.603   7.536   1.093  0.1642  0.3250 -0.4730
11977TIP3    H135872   0.642   7.449   1.104 -0.5463 -0.1845 -1.6881
11977TIP3    H235873   0.544   7.546   1.167  0.1126 -0.3141 -0.4243
11978TIP3   OH235874   7.316   0.131   2.942 -0.0233  0.1850 -0.2383
11978TIP3    H135875   7.326   0.171   2.855  2.7725  2.2681  0.8982
11978TIP3    H235876   7.317   0.204   3.003 -0.9729 -1.2915  1.6793
11979TIP3   OH235877   0.603   4.381   2.793  0.7792 -0.1490  0.4198
11979TIP3    H135878   0.534   4.321   2.765  0.6782  0.6467 -1.1881
11979TIP3    H235879   0.681   4.326   2.800  0.1870 -0.8958  1.4101
11980TIP3   OH235880   5.956   1.064   5.629 -0.2518  0.1041  0.0803
11980TIP3    H135881   5.919   0.994   5.682 -0.2219 -0.1080 -0.1738
11980TIP3    H235882   5.905   1.062   5.548 -0.3098  0.4366  0.1069
11981TIP3   OH235883   6.255   7.218   4.155  0.6047  0.7984  0.0802
11981TIP3    H135884   6.255   7.144   4.094 -0.0760 -0.2294  1.2838
11981TIP3    H235885   6.243   7.178   4.241 -0.0348  2.3372  0.7382
11982TIP3   OH235886   2.055   2.038   1.615  0.2893  0.8227  0.1807
11982TIP3    H135887   2.134   1.984   1.617 -0.6781 -0.6297  0.5847
11982TIP3    H235888   2.026   2.032   1.524 -0.1093  0.2043  0.3435
11983TIP3   OH235889   0.350   5.964   2.958 -0.3568 -0.0477  0.6658
11983TIP3    H135890   0.361   6.040   3.016  2.5387 -0.9355  1.4423
11983TIP3    H235891   0.301   5.901   3.010  0.2907  0.0034  1.3582
11984TIP3   OH235892   4.201   7.206   5.776 -0.2522  0.0902 -0.5097
11984TIP3    H135893   4.158   7.248   5.851  0.8139 -0.3496  0.3753
11984TIP3    H235894   4.141   7.136   5.750 -0.1419 -0.4714  0.6593
11985TIP3   OH235895   4.551   2.706   1.234  0.3846 -0.2882 -0.2747
11985TIP3    H135896   4.476   2.763   1.221  1.9432  1.8641 -0.5065
11985TIP3    H235897   4.626   2.766   1.233  1.9499 -2.0621  1.9871
11986TIP3   OH235898   8.385   3.622   2.780 -0.4567 -0.3224  0.0794
11986TIP3    H135899   8.383   3.646   2.687 -1.9790 -0.3383  0.0872
11986TIP3    H235900   8.315   3.557   2.790 -0.8275  0.2416  1.3830
11987TIP3   OH235901   1.311   3.096   4.367  0.1746 -0.1455 -0.5148
11987TIP3    H135902   1.391   3.142   4.342  0.6374 -1.2888 -1.2534
11987TIP3    H235903   1.267   3.078   4.284 -0.2674 -0.5408 -0.2015
11988TIP3   OH235904   7.878   0.593   4.381 -0.1673 -0.3241  0.0183
11988TIP3    H135905   7.922   0.521   4.425 -0.9940  0.2106  1.7758
11988TIP3    H235906   7.894   0.669   4.436 -0.4592  0.5806 -1.0945
11989TIP3   OH235907   2.671   1.239   1.221 -0.7131 -0.2500  0.2308
11989TIP3    H135908   2.616   1.180   1.274  0.8557 -1.2930  0.7723
11989TIP3    H235909   2.619   1.319   1.212 -1.3632 -0.3223  2.7128
11990TIP3   OH235910   1.918   2.378   0.789  0.4823 -0.3613  0.0127
11990TIP3    H135911   1.871   2.305   0.826  2.1338 -1.0555  0.8576
11990TIP3    H235912   1.996   2.388   0.844  0.8842  1.2890 -0.7627
11991TIP3   OH235913   3.368   4.302   2.078  0.2659  0.4227  0.5542
11991TIP3    H135914   3.389   4.229   2.019  1.4001  1.1479  0.0323
11991TIP3    H235915   3.275   4.319   2.063  0.0525 -0.7131  0.4733
11992TIP3   OH235916   0.151   7.071   3.157  0.3616 -0.3837  0.1747
11992TIP3    H135917   0.068   7.094   3.200  0.7601 -0.7859  1.1861
11992TIP3    H235918   0.205   7.036   3.228  1.3161 -0.3359 -0.5260
11993TIP3   OH235919   4.579   1.216   3.591 -0.2844  0.4724  0.2884
11993TIP3    H135920   4.662   1.262   3.595  0.2333 -0.3245 -0.7661
11993TIP3    H235921   4.574   1.167   3.673  0.2764  0.5235  0.3528
11994TIP3   OH235922   4.898   5.018   4.717  0.3113  0.6269 -0.4221
11994TIP3    H135923   4.894   5.113   4.727  0.8612  0.5044  1.2110
11994TIP3    H235924   4.865   5.002   4.628 -2.7015  2.1218  0.2745
11995TIP3   OH235925   2.360   3.650   4.157  0.0556  0.3620 -0.4353
11995TIP3    H135926   2.374   3.738   4.190  0.3839  0.1320  0.0453
11995TIP3    H235927   2.365   3.659   4.061 -1.0624  1.0547 -0.4521
11996TIP3   OH235928   2.794   6.404   1.758 -0.4149 -0.0443 -0.3711
11996TIP3    H135929   2.716   6.455   1.779 -0.2199  0.5472 -1.0320
11996TIP3    H235930   2.787   6.325   1.812 -0.8142  0.5984  0.5449
11997TIP3   OH235931   2.409   2.116   1.622 -0.2400 -0.6004 -0.4856
11997TIP3    H135932   2.398   2.116   1.527 -0.6697  0.5982 -0.4439
11997TIP3    H235933   2.355   2.042   1.652  0.6484 -1.5925 -1.2302
11998TIP3   OH235934   1.204   3.652   2.988 -0.2841  0.0381 -0.6087
11998TIP3    H135935   1.251   3.649   2.906  0.3887  1.3187 -0.3004
11998TIP3    H235936   1.117   3.686   2.965 -0.6229 -1.0237 -0.9759
11999TIP3   OH235937   4.897   1.131   6.397  0.0046 -0.3756 -0.1383
11999TIP3    H135938   4.859   1.212   6.430  1.5679 -0.4105  1.9231
11999TIP3    H235939   4.987   1.131   6.430  0.9275 -1.6555 -2.4114
12000TIP3   OH235940   6.496   0.135   1.674 -0.3355 -0.2451 -0.6585
12000TIP3    H135941   6.577   0.151   1.722 -1.3701  2.2076  0.3862
12000TIP3    H235942   6.442   0.082   1.733  0.1936 -1.3177 -1.0979
12001TIP3   OH235943   7.778   3.977   2.024 -0.4812  0.2554 -0.1067
12001TIP3    H135944   7.723   4.018   2.092 -1.3225 -2.6593  1.1059
12001TIP3    H235945   7.715   3.942   1.961  0.2153  0.7608 -1.1003
12002TIP3   OH235946   4.602   2.999   6.318  0.1670  0.0012 -0.3778
12002TIP3    H135947   4.514   2.971   6.293 -0.3019  1.0998 -0.0347
12002TIP3    H235948   4.606   2.985   6.412  1.4957 -2.9674 -0.7591
12003TIP3   OH235949   0.617   4.807   2.229  0.2174  0.3214  0.5800
12003TIP3    H135950   0.647   4.858   2.304  0.3923 -0.3698  0.9891
12003TIP3    H235951   0.644   4.858   2.153  1.5502  0.2002  0.9587
12004TIP3   OH235952   6.230   1.075   5.513  0.1549  0.5469 -0.1388
12004TIP3    H135953   6.232   1.017   5.589  0.2951  1.2810  0.4307
12004TIP3    H235954   6.159   1.136   5.533  0.2291  0.7724 -0.5767
12005TIP3   OH235955   7.677   1.797   1.581  0.1583  0.5147  0.3027
12005TIP3    H135956   7.753   1.847   1.608 -1.0268  2.3502  0.3989
12005TIP3    H235957   7.658   1.740   1.656 -0.1902  2.0605  1.4432
12006TIP3   OH235958   5.858   7.615   0.405  0.2815  0.1173  0.1612
12006TIP3    H135959   5.850   7.592   0.498 -0.6045  3.5760  1.0805
12006TIP3    H235960   5.770   7.640   0.379  1.1794  3.0730 -0.3810
12007TIP3   OH235961   3.819   7.570   0.002 -0.6297  0.2654  0.4725
12007TIP3    H135962   3.890   7.597   0.060 -0.6845  0.0319  0.6522
12007TIP3    H235963   3.751   7.537   0.062 -1.0944  0.9487  0.3330
12008TIP3   OH235964   3.247   0.398   2.420  0.3572  0.4476 -0.5895
12008TIP3    H135965   3.167   0.378   2.371  0.3704 -0.9267 -0.1089
12008TIP3    H235966   3.317   0.393   2.354  0.1615  0.5417 -0.8056
12009TIP3   OH235967   0.813   4.443   0.503 -0.1306 -0.7198  0.2089
12009TIP3    H135968   0.844   4.365   0.456 -0.1839 -1.2239  0.9820
12009TIP3    H235969   0.718   4.433   0.505 -0.3636  0.6375 -1.8411
12010TIP3   OH235970   4.258   2.100   5.779 -0.4532  0.4154  0.1115
12010TIP3    H135971   4.183   2.048   5.749 -0.7133 -0.0120  1.4422
12010TIP3    H235972   4.323   2.034   5.805  0.0056  0.7800 -0.1033
12011TIP3   OH235973   1.851   4.707   5.824 -0.0681 -0.1725 -0.0405
12011TIP3    H135974   1.830   4.693   5.916 -1.7524 -0.0615 -0.3700
12011TIP3    H235975   1.934   4.754   5.825  0.2708 -0.7766  1.3938
12012TIP3   OH235976   1.382   5.760   3.831  0.0674  0.7742  0.0432
12012TIP3    H135977   1.320   5.739   3.761  1.5216  1.5939 -1.5634
12012TIP3    H235978   1.459   5.707   3.812 -0.0567 -0.1984  1.9789
12013TIP3   OH235979   4.326   7.131   3.257 -0.1771  0.3461  0.0157
12013TIP3    H135980   4.369   7.193   3.198 -0.2275 -0.4872 -0.9261
12013TIP3    H235981   4.267   7.081   3.200  0.6819 -1.3306  0.5358
12014TIP3   OH235982   6.787   1.833   6.296 -0.1558  0.1657 -0.0489
12014TIP3    H135983   6.822   1.774   6.362 -1.0520  0.1467  0.4164
12014TIP3    H235984   6.862   1.889   6.272  0.5331 -0.7404 -0.0554
12015TIP3   OH235985   3.899   1.241   6.827  0.2293  1.1309  0.6940
12015TIP3    H135986   3.852   1.244   6.910 -1.5111  0.9644 -0.2408
12015TIP3    H235987   3.839   1.282   6.764  0.5463 -0.7451 -0.9104
12016TIP3   OH235988   6.166   4.195   1.737  0.4040 -0.2608  0.5574
12016TIP3    H135989   6.213   4.174   1.656  0.7231  0.5948  0.5101
12016TIP3    H235990   6.128   4.112   1.765  1.5362 -0.8654  0.3326
12017TIP3   OH235991   0.294   5.228   2.462  0.2254 -0.4603 -0.1176
12017TIP3    H135992   0.208   5.196   2.492  0.7072 -1.2131  0.5219
12017TIP3    H235993   0.331   5.271   2.539  0.0241  0.7529 -0.6782
12018TIP3   OH235994   7.183   2.417   6.723 -0.3639  0.7329  0.1470
12018TIP3    H135995   7.112   2.376   6.772 -1.2095  0.5644 -1.1740
12018TIP3    H235996   7.162   2.400   6.631  3.0760 -2.1891 -0.3123
12019TIP3   OH235997   4.654   2.395   4.341  0.0487 -0.0773 -0.3530
12019TIP3    H135998   4.701   2.393   4.424  0.4528  0.3925 -0.5624
12019TIP3    H235999   4.612   2.309   4.334  1.1084 -0.6119 -0.2881
12020TIP3   OH236000   4.410   3.434   3.557  0.1307 -0.0941  0.2537
12020TIP3    H136001   4.423   3.374   3.630  3.1931  1.6952  1.3621
12020TIP3    H236002   4.381   3.515   3.598 -0.4600  0.2491 -0.8111
12021TIP3   OH236003   4.951   6.515   3.120  0.2305 -0.1270  0.4481
12021TIP3    H136004   4.932   6.609   3.122 -2.1728 -0.5568  0.6502
12021TIP3    H236005   4.974   6.497   3.029 -2.8811  0.1320 -0.5248
12022TIP3   OH236006   1.591   1.872   5.806 -0.1907 -0.3161 -0.1093
12022TIP3    H136007   1.624   1.814   5.738  0.5056 -1.4780  1.1845
12022TIP3    H236008   1.578   1.956   5.762 -0.7605 -1.3047 -1.9027
12023TIP3   OH236009   1.010   0.425   5.924 -0.1781  0.3780  0.1681
12023TIP3    H136010   0.951   0.470   5.985 -0.7730  0.7899 -0.6890
12023TIP3    H236011   1.037   0.346   5.971 -1.6737  0.0004  0.4620
12024TIP3   OH236012   1.029   4.137   3.676 -0.1970  0.4003 -0.0967
12024TIP3    H136013   1.049   4.100   3.762  2.1311 -0.0930 -0.7778
12024TIP3    H236014   0.939   4.109   3.658  0.4858 -2.5888  0.6471
12025TIP3   OH236015   4.747   2.192   5.464  0.0989  0.1716 -0.2922
12025TIP3    H136016   4.652   2.181   5.470  0.0359  1.1819  0.8695
12025TIP3    H236017   4.767   2.264   5.524  1.4865  0.6003 -1.2231
12026TIP3   OH236018   4.950   4.866   3.111  0.5079 -0.3951  0.0494
12026TIP3    H136019   4.946   4.789   3.167 -1.7505  0.7690  1.6412
12026TIP3    H236020   4.875   4.858   3.053  1.1228 -0.1215 -0.8015
12027TIP3   OH236021   2.982   3.590   0.568  0.6029 -0.3393 -0.3824
12027TIP3    H136022   2.953   3.614   0.479  0.3779 -0.8677 -0.4599
12027TIP3    H236023   2.909   3.539   0.603 -0.3666  1.8371  1.0191
12028TIP3   OH236024   2.321   1.272   6.800  0.0603 -0.0215 -0.0006
12028TIP3    H136025   2.346   1.353   6.754  1.3020  0.6270  1.6762
12028TIP3    H236026   2.278   1.218   6.734 -0.5097  1.8772 -1.2587
12029TIP3   OH236027   3.721   2.120   0.331 -0.1009 -0.1643  0.9494
12029TIP3    H136028   3.801   2.081   0.296 -0.9268 -0.7321 -0.4200
12029TIP3    H236029   3.653   2.094   0.269 -1.1264  1.4080  1.3459
12030TIP3   OH236030   2.742   2.755   4.716 -0.4201  0.0176  0.1510
12030TIP3    H136031   2.689   2.784   4.643  0.6205  0.4737 -0.4420
12030TIP3    H236032   2.777   2.670   4.689  0.0657  0.2425  0.0594
12031TIP3   OH236033   6.803   2.631   6.007  0.0007  0.3146  0.6207
12031TIP3    H136034   6.738   2.564   5.985  0.4975 -0.0835  0.3319
12031TIP3    H236035   6.783   2.704   5.947 -0.0586  0.1190  0.3996
12032TIP3   OH236036   6.017   4.683   3.839  0.4581  0.0640  0.0076
12032TIP3    H136037   6.045   4.613   3.897  2.6304  0.5966 -0.3187
12032TIP3    H236038   5.994   4.755   3.898  1.9094  0.3395  0.2850
12033TIP3   OH236039   5.927   3.914   4.434 -0.5401 -0.5077 -0.5403
12033TIP3    H136040   5.914   3.978   4.505 -1.5720  1.0331 -2.0451
12033TIP3    H236041   5.921   3.829   4.478  1.7495  0.3316  1.7006
12034TIP3   OH236042   5.086   3.072   1.123  0.3446  0.0859  0.1483
12034TIP3    H136043   5.066   3.023   1.203  0.3045  0.7388  0.5490
12034TIP3    H236044   5.003   3.074   1.075 -0.0777  1.1295  0.8925
12035TIP3   OH236045   5.440   1.112   6.189  0.3500  0.0314  0.4374
12035TIP3    H136046   5.507   1.179   6.175  1.1663 -0.9298 -0.4236
12035TIP3    H236047   5.477   1.055   6.256  0.0130 -0.0300  0.5725
12036TIP3   OH236048   2.037   1.280   5.606  0.0872 -0.0447  0.7826
12036TIP3    H136049   2.021   1.372   5.588  1.0889  0.3879  2.0026
12036TIP3    H236050   2.068   1.277   5.697  2.4027 -1.2724  0.0487
12037TIP3   OH236051   4.331   3.600   2.898 -0.2759 -0.0887 -0.3339
12037TIP3    H136052   4.259   3.568   2.952  0.5017  0.9190  1.3718
12037TIP3    H236053   4.381   3.521   2.877 -0.7750 -0.5461  0.1470
12038TIP3   OH236054   3.888   4.488   0.690  0.2424  0.4164  0.3863
12038TIP3    H136055   3.851   4.539   0.618  0.2770  1.6121  1.1908
12038TIP3    H236056   3.982   4.483   0.670  0.0705 -0.3769 -0.3004
12039TIP3   OH236057   3.237   2.964   4.300  0.2181 -0.7971 -0.0288
12039TIP3    H136058   3.281   3.049   4.290  0.7190 -0.9555  0.7407
12039TIP3    H236059   3.146   2.986   4.315  0.5879 -0.3105  1.6691
12040TIP3   OH236060   3.092   7.497   5.487  0.1175 -0.3358  0.2993
12040TIP3    H136061   3.043   7.418   5.465  0.7404 -0.1834 -1.8729
12040TIP3    H236062   3.182   7.466   5.502  0.0686 -0.2051  0.8799
12041TIP3   OH236063   0.283   7.521   3.833 -0.4328  0.0037 -0.7218
12041TIP3    H136064   0.252   7.499   3.920  2.6955 -0.2396  0.4643
12041TIP3    H236065   0.248   7.452   3.776 -2.8106  0.3638  0.1898
12042TIP3   OH236066   5.238   1.335   1.362 -0.6350 -0.0758 -0.0009
12042TIP3    H136067   5.146   1.327   1.337 -0.1191 -0.5737 -1.8500
12042TIP3    H236068   5.258   1.253   1.407 -0.9209 -0.2345 -0.1620
12043TIP3   OH236069   6.875   5.239   4.031 -0.1359 -0.1191  0.1308
12043TIP3    H136070   6.858   5.229   3.938 -1.3037  0.5133  0.2678
12043TIP3    H236071   6.905   5.152   4.059  0.2196 -0.3156 -0.8190
12044TIP3   OH236072   7.604   0.187   0.839  0.1314  0.1140  0.2449
12044TIP3    H136073   7.635   0.153   0.755  1.4560  0.1510  0.6969
12044TIP3    H236074   7.681   0.227   0.878 -0.6950  0.9309  1.0776
12045TIP3   OH236075   4.858   6.801   1.560 -0.2125 -0.1864 -0.0774
12045TIP3    H136076   4.893   6.849   1.634 -1.0088  0.9557 -0.4077
12045TIP3    H236077   4.835   6.715   1.595  0.9567 -0.2368  0.5960
12046TIP3   OH236078   5.344   4.249   2.136  0.2200 -0.6562 -0.2353
12046TIP3    H136079   5.381   4.283   2.055 -0.2460  0.4001 -0.0254
12046TIP3    H236080   5.399   4.286   2.205 -1.4076  1.3125  0.1066
12047TIP3   OH236081   5.514   0.267   2.420 -0.3437 -0.1862  0.5611
12047TIP3    H136082   5.577   0.205   2.457  0.4270  0.6705  0.7220
12047TIP3    H236083   5.545   0.281   2.330  0.0619  0.6929  0.8274
12048TIP3   OH236084   6.586   3.042   2.423 -0.1769  0.0480 -0.2672
12048TIP3    H136085   6.575   2.989   2.502  1.5336  0.1719  0.0922
12048TIP3    H236086   6.680   3.039   2.405 -0.1795  2.0354 -0.8760
12049TIP3   OH236087   3.560   0.191   5.014  0.3332  0.1254 -0.2900
12049TIP3    H136088   3.616   0.229   5.082  0.0655  2.3326 -1.2115
12049TIP3    H236089   3.617   0.185   4.937 -0.8856  4.0573 -1.7793
12050TIP3   OH236090   5.390   4.270   6.274  0.5608  0.1148  0.4290
12050TIP3    H136091   5.434   4.294   6.356  0.2403 -0.3359  0.7338
12050TIP3    H236092   5.359   4.354   6.239 -0.2303  0.1968  1.3038
12051TIP3   OH236093   0.982   6.324   4.269 -0.1799  0.4745 -0.3471
12051TIP3    H136094   0.926   6.261   4.225 -0.3019  0.8428 -0.7324
12051TIP3    H236095   1.069   6.308   4.233 -0.2368  0.6178 -0.5518
12052TIP3   OH236096   0.040   6.111   0.934 -0.0562  0.0770  0.0773
12052TIP3    H136097   0.075   6.037   0.983  1.1990 -0.7468 -1.9744
12052TIP3    H236098   0.111   6.176   0.933 -0.2000  0.2326 -0.3401
12053TIP3   OH236099   6.678   7.296   2.538 -1.0503  0.2584  0.1747
12053TIP3    H136100   6.711   7.344   2.613 -0.4508 -0.2607  0.2465
12053TIP3    H236101   6.725   7.332   2.463 -0.7701 -0.0536  0.1996
12054TIP3   OH236102   5.823   0.841   2.622 -0.5393 -0.5274 -0.0545
12054TIP3    H136103   5.837   0.935   2.635  1.0095 -0.3875 -2.1294
12054TIP3    H236104   5.852   0.801   2.703 -0.2977  0.7338  0.5146
12055TIP3   OH236105   1.329   1.864   1.007  0.0132 -0.2246 -0.2657
12055TIP3    H136106   1.402   1.815   0.969 -0.1103  0.5877 -1.6227
12055TIP3    H236107   1.366   1.951   1.026 -0.3245 -0.1543  0.0788
12056TIP3   OH236108   3.766   2.746   1.958 -0.4805  0.4616  0.2215
12056TIP3    H136109   3.847   2.760   2.007 -1.1521  0.8365  1.2503
12056TIP3    H236110   3.795   2.736   1.867  0.6427  1.5670  0.4238
12057TIP3   OH236111   4.447   1.953   3.356  0.0552 -0.4326 -0.3280
12057TIP3    H136112   4.513   2.016   3.385 -0.6827  0.6885 -1.0269
12057TIP3    H236113   4.439   1.968   3.262  1.0801 -2.7554 -0.8786
12058TIP3   OH236114   6.111   3.162   2.151  0.8802  0.2841 -0.0715
12058TIP3    H136115   6.126   3.151   2.057 -0.9692  0.2974 -0.4072
12058TIP3    H236116   6.094   3.074   2.183 -0.8956  0.5257 -0.2477
12059TIP3   OH236117   7.551   2.778   2.139  0.0596 -0.2388  0.2912
12059TIP3    H136118   7.483   2.758   2.074  0.5852 -1.8150  0.1790
12059TIP3    H236119   7.619   2.712   2.122  0.0785 -0.8918  2.6352
12060TIP3   OH236120   4.997   2.302   4.267 -0.0068 -0.5029  0.2949
12060TIP3    H136121   4.931   2.260   4.323 -0.1231 -1.4769 -0.5391
12060TIP3    H236122   4.974   2.274   4.179  0.8598  0.0735 -0.1186
12061TIP3   OH236123   6.869   3.083   2.915  0.1011  0.2148 -0.3705
12061TIP3    H136124   6.858   3.123   2.828  1.5229  1.6966  0.0803
12061TIP3    H236125   6.782   3.088   2.954  0.0796  2.3961 -0.5820
12062TIP3   OH236126   1.353   5.518   3.338  0.0823  0.1936 -0.8675
12062TIP3    H136127   1.382   5.505   3.247  0.2858 -1.5134 -0.5885
12062TIP3    H236128   1.258   5.511   3.333  0.1626 -1.4378 -0.7723
12063TIP3   OH236129   5.834   3.821   5.267  0.5043 -0.6034 -0.2315
12063TIP3    H136130   5.761   3.773   5.227  0.8298 -1.4471  0.1809
12063TIP3    H236131   5.845   3.781   5.353  0.8634  0.1302  0.0691
12064TIP3   OH236132   5.239   3.967   3.864  0.1497  0.3680 -0.3988
12064TIP3    H136133   5.325   3.939   3.894  0.4595 -0.8473 -2.2729
12064TIP3    H236134   5.179   3.941   3.934  0.8282 -2.2978 -0.7092
12065TIP3   OH236135   2.577   7.265   1.322 -0.4167 -0.4069  0.0028
12065TIP3    H136136   2.662   7.307   1.336 -1.0371  0.6963  0.5705
12065TIP3    H236137   2.585   7.222   1.237  0.1866  1.0302 -0.6924
12066TIP3   OH236138   5.892   3.032   2.525  0.3439  0.2746  0.4235
12066TIP3    H136139   5.862   3.062   2.439  0.7824  1.1435  0.5582
12066TIP3    H236140   5.829   2.965   2.551  0.1657  0.0625 -0.5387
12067TIP3   OH236141   1.159   7.259   5.924 -0.6051 -0.1629  0.2443
12067TIP3    H136142   1.098   7.204   5.874 -0.4710  0.0411 -0.1477
12067TIP3    H236143   1.202   7.313   5.858  1.0102 -1.2666  0.3227
12068TIP3   OH236144   5.249   5.364   6.137 -0.1066 -0.6915  0.0246
12068TIP3    H136145   5.292   5.279   6.147 -0.2473 -0.6426  1.2249
12068TIP3    H236146   5.194   5.355   6.059  1.9200 -0.8050 -1.4721
12069TIP3   OH236147   1.663   6.419   0.568 -0.0723 -0.2596 -0.1075
12069TIP3    H136148   1.612   6.427   0.488 -0.0620  0.6988 -0.0249
12069TIP3    H236149   1.722   6.494   0.567  0.4785 -0.6736  0.4145
12070TIP3   OH236150   5.960   2.622   6.832 -0.1777  0.2309 -0.7178
12070TIP3    H136151   5.909   2.581   6.762  0.9352  0.6066 -1.7802
12070TIP3    H236152   5.930   2.713   6.834  0.6153  0.5208 -1.5265
12071TIP3   OH236153   5.621   7.040   4.899  0.2468  0.0098  0.4402
12071TIP3    H136154   5.579   7.026   4.815  1.3141 -1.0592  0.0589
12071TIP3    H236155   5.657   7.129   4.893 -0.4712  0.2846  0.1304
12072TIP3   OH236156   1.588   6.534   0.108 -0.5586  0.3308  0.4324
12072TIP3    H136157   1.587   6.491   0.023  2.4699 -1.3742  1.1177
12072TIP3    H236158   1.600   6.627   0.088  1.2769 -0.1568 -1.0664
12073TIP3   OH236159   6.446   3.236   4.315  0.4520  0.1864  0.2970
12073TIP3    H136160   6.401   3.153   4.305  2.5824 -0.9429 -0.5602
12073TIP3    H236161   6.405   3.294   4.251 -1.0719 -0.1504  0.9218
12074TIP3   OH236162   6.097   1.692   4.572  0.0701 -0.2514 -0.5722
12074TIP3    H136163   6.017   1.745   4.571 -0.4974 -1.0628  0.2555
12074TIP3    H236164   6.112   1.672   4.665  2.0912  1.1278 -0.5500
12075TIP3   OH236165   0.801   6.593   3.527  0.4121 -0.6301  0.1035
12075TIP3    H136166   0.817   6.531   3.598  2.1041 -0.8342 -0.4169
12075TIP3    H236167   0.846   6.672   3.554  1.5487 -0.8876 -0.9694
12076TIP3   OH236168   7.705   0.091   5.204  0.0542  0.1974  0.1073
12076TIP3    H136169   7.701   0.160   5.138  0.6278 -0.3778 -0.5531
12076TIP3    H236170   7.759   0.023   5.163  0.5209 -0.1193  1.2168
12077TIP3   OH236171   5.856   1.273   2.560 -0.1105 -0.0880 -0.5944
12077TIP3    H136172   5.908   1.353   2.554 -0.5055  0.0666 -2.7194
12077TIP3    H236173   5.774   1.294   2.516 -1.5002 -0.7485  1.5161
12078TIP3   OH236174   1.532   6.739   3.906 -0.1019  0.5099 -0.3090
12078TIP3    H136175   1.573   6.691   3.978  0.5407 -0.6240 -1.3809
12078TIP3    H236176   1.500   6.671   3.847  0.2868  1.3921 -1.5918
12079TIP3   OH236177   0.244   3.572   3.317  0.1655 -0.5529 -0.0696
12079TIP3    H136178   0.273   3.483   3.302 -0.0868 -1.0278  1.9775
12079TIP3    H236179   0.243   3.582   3.412 -1.7636  0.9671 -0.1741
12080TIP3   OH236180   5.227   7.221   6.357  0.5566  0.3443  0.1603
12080TIP3    H136181   5.141   7.257   6.334  0.9435  0.6827 -0.7960
12080TIP3    H236182   5.219   7.199   6.450  0.0430  2.1770  0.5987
12081TIP3   OH236183   4.037   2.580   2.949  0.0474  0.6088  0.0025
12081TIP3    H136184   4.019   2.533   2.867 -0.9325 -0.0173  0.5514
12081TIP3    H236185   4.132   2.587   2.952  0.2585 -1.6010  0.0166
12082TIP3   OH236186   6.066   0.292   6.776 -0.4379  0.2077 -0.0006
12082TIP3    H136187   6.112   0.374   6.758  0.2379 -0.1584  0.0142
12082TIP3    H236188   5.974   0.317   6.780 -0.2189  1.0132  0.2882
12083TIP3   OH236189   4.707   4.152   4.851  0.1865  0.3799 -0.0541
12083TIP3    H136190   4.671   4.237   4.877 -1.2289  0.0073 -0.7121
12083TIP3    H236191   4.679   4.141   4.760  0.0654 -0.9222  0.1205
12084TIP3   OH236192   2.189   1.431   1.786 -0.2801 -0.2512  0.3587
12084TIP3    H136193   2.254   1.385   1.839 -1.2395 -2.6483 -0.4413
12084TIP3    H236194   2.105   1.395   1.813 -1.2120  1.7265  0.3161
12085TIP3   OH236195   6.409   3.932   3.793  0.2472  0.3137 -0.6181
12085TIP3    H136196   6.448   3.980   3.866  1.7127 -0.3814 -0.9171
12085TIP3    H236197   6.384   3.847   3.832 -2.2781  1.1900 -0.1038
12086TIP3   OH236198   5.451   7.389   0.796 -0.0162 -0.2458 -0.0581
12086TIP3    H136199   5.401   7.342   0.863 -0.0794 -1.4584 -0.9314
12086TIP3    H236200   5.529   7.420   0.842 -0.0591 -1.0688  0.5867
12087TIP3   OH236201   1.289   2.992   6.345  0.3444 -0.5248 -0.0942
12087TIP3    H136202   1.216   2.980   6.286 -0.3073 -2.7937  1.0889
12087TIP3    H236203   1.249   3.020   6.428  1.1283  1.3045 -0.2800
12088TIP3   OH236204   5.891   4.505   3.470 -0.0359  0.1235  0.3322
12088TIP3    H136205   5.827   4.441   3.439 -0.6459  0.4098  0.9752
12088TIP3    H236206   5.839   4.583   3.487  0.2847 -0.0041  1.9964
12089TIP3   OH236207   1.477   6.434   1.063 -0.2357 -0.2009 -0.5896
12089TIP3    H136208   1.458   6.525   1.086 -0.8133 -0.9845  2.4006
12089TIP3    H236209   1.550   6.440   1.001  0.8697  2.2479  0.8065
12090TIP3   OH236210   4.113   2.136   2.133 -0.4164  0.3467  0.6372
12090TIP3    H136211   4.042   2.084   2.095 -0.5156  2.0199 -1.6911
12090TIP3    H236212   4.101   2.127   2.228 -1.4652 -2.3444  0.3460
12091TIP3   OH236213   2.110   1.085   6.093 -0.3454 -0.2754  0.0979
12091TIP3    H136214   2.125   1.147   6.021  1.3827 -1.7696 -0.9098
12091TIP3    H236215   2.196   1.049   6.113 -1.3107 -2.6441  0.3520
12092TIP3   OH236216   4.123   7.453   4.495 -0.5477  0.0784  0.1381
12092TIP3    H136217   4.043   7.422   4.452 -0.1639  0.0801 -0.5905
12092TIP3    H236218   4.139   7.539   4.456  0.1951 -0.2230 -0.2456
12093TIP3   OH236219   0.045   6.971   1.082 -0.0262 -0.0117  0.5389
12093TIP3    H136220   0.027   6.919   1.161 -1.4092  1.7552  1.4540
12093TIP3    H236221   0.101   7.042   1.113 -0.8287  0.8704  0.0065
12094TIP3   OH236222   1.095   0.349   4.425 -0.3860  0.9327 -0.0668
12094TIP3    H136223   1.143   0.319   4.348 -2.9044 -1.4290 -0.8714
12094TIP3    H236224   1.071   0.439   4.405  1.3515  1.2607 -0.7910
12095TIP3   OH236225   5.014   0.981   0.056  0.0883 -0.1368  0.5660
12095TIP3    H136226   4.953   1.008  -0.013  0.1463  0.4709  0.7497
12095TIP3    H236227   4.974   1.013   0.137  0.2072 -0.5237  0.7793
12096TIP3   OH236228   4.413   5.009   2.686  0.3319  0.2081 -0.2726
12096TIP3    H136229   4.437   5.030   2.596  0.2601 -0.2508 -0.3999
12096TIP3    H236230   4.399   5.094   2.728  0.0845  0.4133 -0.7709
12097TIP3   OH236231   5.365   6.733   0.849  0.2534  0.0784  0.1540
12097TIP3    H136232   5.433   6.768   0.792  1.0574 -0.8214  0.5293
12097TIP3    H236233   5.305   6.806   0.863  1.5330  1.1125  0.3957
12098TIP3   OH236234   6.968   6.392   1.744 -0.1096  0.2947 -0.8471
12098TIP3    H136235   6.943   6.312   1.791  0.0132 -0.3407 -1.8191
12098TIP3    H236236   6.896   6.453   1.760  0.3505  0.4358  0.8912
12099TIP3   OH236237   3.078   5.536   5.561  0.3064  0.2402 -0.2209
12099TIP3    H136238   3.148   5.567   5.504 -0.7260 -1.9368 -2.9361
12099TIP3    H236239   3.115   5.460   5.606  0.0744 -0.2274 -0.8005
12100TIP3   OH236240   2.271   7.802   0.194  0.1175  0.3731  0.2734
12100TIP3    H136241   2.207   7.819   0.125 -0.1200  0.6074  0.5496
12100TIP3    H236242   2.289   7.888   0.232  0.9447  0.3772 -0.1037
12101TIP3   OH236243   1.742   4.251   4.537  0.2213 -0.7200  0.2083
12101TIP3    H136244   1.748   4.176   4.478 -0.2983  0.1418 -0.9641
12101TIP3    H236245   1.651   4.252   4.566  0.7811 -2.0353  2.3067
12102TIP3   OH236246   7.806   1.846   4.075  0.2125  0.3432  0.1052
12102TIP3    H136247   7.759   1.873   4.154  1.6105 -0.8011  1.4040
12102TIP3    H236248   7.880   1.906   4.070  0.6736 -0.2003  0.2578
12103TIP3   OH236249   0.783   3.270   6.020  0.2556  0.2150 -0.1459
12103TIP3    H136250   0.708   3.256   5.962 -0.4418 -1.7060  1.1074
12103TIP3    H236251   0.762   3.351   6.067 -1.1696 -0.3917  0.3239
12104TIP3   OH236252   5.245   1.925   4.702 -0.2830  0.0547 -0.7095
12104TIP3    H136253   5.211   2.010   4.731 -1.3764 -0.0519 -1.6246
12104TIP3    H236254   5.176   1.863   4.723 -0.0816 -0.3916 -1.3411
12105TIP3   OH236255   5.539   7.444   5.389 -0.3905 -0.2813 -0.3167
12105TIP3    H136256   5.518   7.537   5.389 -2.3397 -0.6792  1.1144
12105TIP3    H236257   5.570   7.426   5.477 -1.0588 -1.2006 -0.2597
12106TIP3   OH236258   6.567   1.701   5.539 -0.9539  0.2234 -0.3148
12106TIP3    H136259   6.565   1.656   5.623 -0.6927  0.7758 -0.0019
12106TIP3    H236260   6.566   1.794   5.562 -0.1940  0.3861 -0.8964
12107TIP3   OH236261   6.694   5.155   5.155  0.4747 -0.2093  0.4030
12107TIP3    H136262   6.648   5.167   5.238  3.2420  0.4571  1.9636
12107TIP3    H236263   6.783   5.132   5.181  1.2123 -0.8757 -2.4345
12108TIP3   OH236264   4.527   6.397   3.993  0.2642 -0.1525  0.5209
12108TIP3    H136265   4.432   6.409   3.990  0.1880 -0.2131  1.8628
12108TIP3    H236266   4.559   6.469   4.048  0.9932 -0.1883  0.1651
12109TIP3   OH236267   0.603   6.799   3.973 -0.1443  0.2122 -0.5229
12109TIP3    H136268   0.548   6.842   4.038  0.2211  0.0439 -0.0961
12109TIP3    H236269   0.616   6.864   3.904  1.0406  1.0717  0.4691
12110TIP3   OH236270   6.557   6.505   5.536  0.0202  0.1983 -0.3159
12110TIP3    H136271   6.633   6.448   5.535  0.3097  0.5452  0.9518
12110TIP3    H236272   6.539   6.523   5.443  1.1329 -0.3279 -0.6438
12111TIP3   OH236273   7.807   3.763   2.294 -0.1750 -0.1151 -0.0528
12111TIP3    H136274   7.831   3.755   2.386  1.8747  0.7977 -0.4541
12111TIP3    H236275   7.891   3.769   2.247 -1.1639  0.8929 -1.8270
12112TIP3   OH236276   3.005   2.239   0.530  0.4105  0.0300  0.0255
12112TIP3    H136277   2.920   2.222   0.572  0.0695  1.2735 -0.1320
12112TIP3    H236278   3.044   2.152   0.521 -0.3273 -0.4535  1.1861
12113TIP3   OH236279   0.087   1.294   5.852  0.3300  0.2459  0.0197
12113TIP3    H136280  -0.006   1.274   5.844  0.3539 -0.0695  0.5152
12113TIP3    H236281   0.125   1.267   5.769  0.2171 -0.9733  0.3421
12114TIP3   OH236282   4.175   2.405   5.241 -0.0886 -0.1859 -0.2989
12114TIP3    H136283   4.222   2.358   5.173 -0.1872  0.4602 -0.8283
12114TIP3    H236284   4.147   2.337   5.302 -1.1369 -0.9575 -1.5803
12115TIP3   OH236285   3.314   4.361   5.113  0.4337  0.2891 -0.1170
12115TIP3    H136286   3.347   4.329   5.197  1.0722 -1.5650 -1.0036
12115TIP3    H236287   3.384   4.419   5.080  0.4314  0.5714  0.3752
12116TIP3   OH236288   5.493   2.344   1.670 -0.1663  0.3716 -0.1679
12116TIP3    H136289   5.454   2.283   1.732  0.2085  0.8041  0.4989
12116TIP3    H236290   5.516   2.421   1.722  1.7489  0.0734 -0.4711
12117TIP3   OH236291   1.276   4.538   6.556 -0.1463  0.1123 -0.6709
12117TIP3    H136292   1.211   4.469   6.567  0.7342 -0.5246  0.8563
12117TIP3    H236293   1.239   4.614   6.601  0.7229 -0.6786  1.5537
12118TIP3   OH236294   5.363   2.265   3.480  0.1658  0.1310 -0.1414
12118TIP3    H136295   5.353   2.192   3.419  0.0688  0.5185 -0.5892
12118TIP3    H236296   5.308   2.240   3.555  0.1562 -0.2687 -0.2768
12119TIP3   OH236297   0.117   0.046   6.672 -0.5375 -0.6998  0.1129
12119TIP3    H136298   0.153  -0.030   6.718 -0.4954 -1.4274 -1.0777
12119TIP3    H236299   0.022   0.041   6.687 -0.6648 -1.6483 -0.8712
12120TIP3   OH236300   4.077   5.333   2.712  0.2339  0.4189 -0.2341
12120TIP3    H136301   4.048   5.413   2.755 -0.6278  1.2818 -2.2671
12120TIP3    H236302   4.167   5.321   2.740  0.4423  2.2326 -0.0317
12121TIP3   OH236303   6.240   3.221   5.595 -0.6062  0.7908  0.5044
12121TIP3    H136304   6.174   3.157   5.620  1.1081 -1.4864 -0.4235
12121TIP3    H236305   6.301   3.172   5.539  1.3194  3.0065  0.5046
12122TIP3   OH236306   0.270   2.302   1.761 -0.3666  0.1352 -0.7696
12122TIP3    H136307   0.185   2.261   1.742  0.1820 -1.7739  0.5822
12122TIP3    H236308   0.315   2.304   1.677 -0.6011 -1.6803 -0.9827
12123TIP3   OH236309   0.221   0.889   3.267 -0.6021  0.3006 -0.1217
12123TIP3    H136310   0.179   0.805   3.283 -0.5243  0.2724 -0.0664
12123TIP3    H236311   0.184   0.918   3.183 -2.2131  1.1976  0.8454
12124TIP3   OH236312   1.482   7.006   2.835  0.2363  0.3155 -0.4906
12124TIP3    H136313   1.420   7.046   2.896  0.5833  0.8242 -0.4637
12124TIP3    H236314   1.553   7.070   2.827  2.0371 -1.3132  1.4167
12125TIP3   OH236315   4.172   7.150   2.375 -0.2079 -0.2629 -0.1698
12125TIP3    H136316   4.172   7.069   2.426 -0.8782  0.0705  0.3813
12125TIP3    H236317   4.149   7.123   2.286  1.1036 -0.8714 -0.3552
12126TIP3   OH236318   4.717   3.755   6.750 -0.0375  0.2995  0.6640
12126TIP3    H136319   4.633   3.799   6.738  0.1686  0.6576  0.5301
12126TIP3    H236320   4.765   3.810   6.812  1.0558  1.4340 -1.0925
12127TIP3   OH236321   3.050   0.281   5.329  0.1147  0.2452  0.0643
12127TIP3    H136322   2.983   0.213   5.333 -0.2704  0.5147 -1.1912
12127TIP3    H236323   3.085   0.286   5.418 -1.3654 -0.0733  0.6981
12128TIP3   OH236324   1.731   5.116   5.876  0.2662  0.2928  0.0451
12128TIP3    H136325   1.743   5.179   5.806 -0.7073  2.0705  1.3863
12128TIP3    H236326   1.803   5.134   5.937  0.5370 -0.5650 -0.0090
12129TIP3   OH236327   6.397   5.846   4.410  0.3795 -0.2274 -0.3274
12129TIP3    H136328   6.346   5.923   4.386  1.0595  0.0473 -0.9280
12129TIP3    H236329   6.339   5.796   4.467 -0.4316  0.2466 -0.7158
12130TIP3   OH236330   7.916   7.394   3.917  0.6723  0.0527 -0.0352
12130TIP3    H136331   7.992   7.355   3.874  0.3370  0.1245 -0.6954
12130TIP3    H236332   7.917   7.356   4.005 -0.2109 -2.2657 -0.9384
12131TIP3   OH236333   2.541   5.469   5.097 -0.1887  0.0346 -0.0603
12131TIP3    H136334   2.476   5.399   5.091  0.4568 -0.6830  0.9929
12131TIP3    H236335   2.564   5.488   5.006 -0.6622 -0.8554 -0.3796
12132TIP3   OH236336   3.550   2.282   3.592  0.0189  0.2185  0.0835
12132TIP3    H136337   3.645   2.273   3.607  0.0328  1.3400  0.7961
12132TIP3    H236338   3.544   2.306   3.500  0.4947  0.9051  0.2206
12133TIP3   OH236339   6.089   0.605   1.646 -0.0012  0.1539  0.0356
12133TIP3    H136340   6.064   0.525   1.599  1.8007  0.8415 -2.3049
12133TIP3    H236341   6.017   0.621   1.707 -1.4528 -2.0465 -0.9802
12134TIP3   OH236342   0.440   3.598   3.833 -0.2323 -0.4583 -0.0949
12134TIP3    H136343   0.445   3.694   3.835 -1.7383 -0.3654  1.1000
12134TIP3    H236344   0.465   3.571   3.921  0.9447 -1.2397 -0.6502
12135TIP3   OH236345   5.252   1.365   4.258 -0.2289  0.5568  0.1422
12135TIP3    H136346   5.191   1.390   4.328  1.6209 -1.2346  2.6234
12135TIP3    H236347   5.320   1.432   4.261  0.3355 -0.0186  0.8088
12136TIP3   OH236348   6.418   2.140   1.395  0.4340  0.6523 -0.5156
12136TIP3    H136349   6.500   2.133   1.444  0.1030  0.3410  0.0074
12136TIP3    H236350   6.401   2.050   1.365  0.7477  0.8740 -1.4097
12137TIP3   OH236351   7.467   2.681   0.351 -0.2786  0.3733 -0.1893
12137TIP3    H136352   7.372   2.672   0.345 -0.0431 -1.6137 -2.4699
12137TIP3    H236353   7.487   2.763   0.307 -0.9001  0.5489 -0.1386
12138TIP3   OH236354   3.126   4.049   0.423  0.0505 -0.2120 -0.2581
12138TIP3    H136355   3.108   4.036   0.516 -2.2893 -0.7223 -0.7085
12138TIP3    H236356   3.140   4.144   0.415 -1.0132  0.0271  0.4576
12139TIP3   OH236357   6.121   2.775   1.139 -0.2498  0.1021  0.0703
12139TIP3    H136358   6.193   2.811   1.190 -0.9643 -0.1981  1.3323
12139TIP3    H236359   6.055   2.751   1.204 -1.7710  0.9828 -1.0585
12140TIP3   OH236360   4.732   0.747   6.136  0.3177  0.2331  0.6366
12140TIP3    H136361   4.662   0.809   6.159 -0.9486 -1.7459  2.5240
12140TIP3    H236362   4.812   0.790   6.166 -0.6192  0.6083  2.8085
12141TIP3   OH236363   8.202   4.728   4.613  0.6268 -0.2762  0.0392
12141TIP3    H136364   8.199   4.809   4.561 -0.8306 -0.7947 -0.7383
12141TIP3    H236365   8.161   4.662   4.557  1.4027 -1.4748  0.8355
12142TIP3   OH236366   4.011   0.242   6.343  0.0715 -0.3067  0.8179
12142TIP3    H136367   4.083   0.260   6.403 -0.2973 -0.6340  1.3679
12142TIP3    H236368   4.044   0.269   6.257  1.1028 -1.0967  0.9447
12143TIP3   OH236369   3.907   7.746   4.608  0.0980  0.9171  0.2382
12143TIP3    H136370   3.996   7.722   4.633 -0.3335 -1.3538 -0.2030
12143TIP3    H236371   3.852   7.674   4.641 -1.5709  2.1868  0.3733
12144TIP3   OH236372   2.926   4.183   5.492 -0.6870  0.0056  0.2675
12144TIP3    H136373   2.915   4.209   5.400 -0.6329  0.4380  0.3833
12144TIP3    H236374   3.016   4.152   5.498 -0.6717  0.0350  0.1888
12145TIP3   OH236375   6.900   1.485   1.039 -0.3051 -0.1735  0.0400
12145TIP3    H136376   6.848   1.541   1.097  0.5534 -0.1463  0.7981
12145TIP3    H236377   6.959   1.545   0.994  1.2494 -0.5269  1.5213
12146TIP3   OH236378   8.267   2.847   4.496  0.6729  0.0022  0.6008
12146TIP3    H136379   8.227   2.829   4.581 -0.5133  0.1317  0.0882
12146TIP3    H236380   8.200   2.822   4.432 -0.5713  4.6351 -0.2492
12147TIP3   OH236381   8.250   3.887   4.292  0.2269 -0.2096 -0.0551
12147TIP3    H136382   8.245   3.821   4.362 -1.0027 -0.8707 -0.7269
12147TIP3    H236383   8.302   3.845   4.223 -1.7048 -1.0784 -1.0527
12148TIP3   OH236384   4.676   3.273   1.205 -0.0051  0.4203 -0.1590
12148TIP3    H136385   4.734   3.300   1.277  1.0362  1.8384 -1.4609
12148TIP3    H236386   4.735   3.235   1.140 -0.8584 -0.3214 -0.5209
12149TIP3   OH236387   8.306   3.770   0.768  0.0459  0.0503 -0.2662
12149TIP3    H136388   8.319   3.848   0.714  2.4145  0.0871  0.2159
12149TIP3    H236389   8.252   3.800   0.841 -1.7981  0.4025 -1.7010
12150TIP3   OH236390   6.778   1.515   4.583 -0.1633 -0.0426 -0.0829
12150TIP3    H136391   6.800   1.567   4.506  1.6551 -0.3884  0.1727
12150TIP3    H236392   6.689   1.484   4.566  0.1057  0.0977 -1.9284
12151TIP3   OH236393   1.369   2.567   1.580 -0.4478  0.3332  0.1238
12151TIP3    H136394   1.373   2.651   1.533 -1.5678 -0.1579 -0.8847
12151TIP3    H236395   1.362   2.592   1.672  0.7417  1.3271 -0.0193
12152TIP3   OH236396   6.108   7.140   4.653 -0.0133  0.1978  0.1498
12152TIP3    H136397   6.098   7.187   4.736 -2.1005 -0.7046  0.4622
12152TIP3    H236398   6.097   7.208   4.586  0.1156  0.6679  0.5974
12153TIP3   OH236399   3.030   2.929   5.381 -0.3737  0.4558 -0.0341
12153TIP3    H136400   2.946   2.937   5.336  0.4042 -0.2101 -1.6930
12153TIP3    H236401   3.030   3.000   5.445 -0.5799  3.0198 -2.7016
12154TIP3   OH236402   5.459   5.127   1.893  0.2166  0.1825 -0.1834
12154TIP3    H136403   5.454   5.197   1.959 -0.8338  0.3757 -0.4452
12154TIP3    H236404   5.516   5.061   1.933  0.4271  0.7487  0.4864
12155TIP3   OH236405   6.923   7.811   0.154 -0.1501  0.0932  0.3094
12155TIP3    H136406   6.913   7.748   0.225  0.5628  0.6018  0.8846
12155TIP3    H236407   6.834   7.841   0.135 -0.2598  0.7200  1.7231
12156TIP3   OH236408   1.473   2.726   4.183  0.1875  0.1979 -0.4865
12156TIP3    H136409   1.433   2.790   4.124  1.2834  1.8333  0.4618
12156TIP3    H236410   1.465   2.766   4.270  0.0511 -1.4151  0.2848
12157TIP3   OH236411   1.425   3.185   1.410  0.1138 -0.5924  0.6263
12157TIP3    H136412   1.413   3.265   1.461 -0.2364  0.2856 -0.7854
12157TIP3    H236413   1.336   3.148   1.401  0.2889 -1.2278  1.3802
12158TIP3   OH236414   3.951   3.582   6.494  0.1470 -0.1488 -0.6233
12158TIP3    H136415   3.856   3.572   6.489  0.2766 -0.9528 -4.1232
12158TIP3    H236416   3.965   3.676   6.482 -0.1717  0.1613  1.1340
12159TIP3   OH236417   0.132   5.835   2.776 -0.3996 -0.3553 -0.1468
12159TIP3    H136418   0.068   5.767   2.796 -0.3036  0.2568  2.6202
12159TIP3    H236419   0.217   5.794   2.793 -0.3255  0.2842  1.1327
12160TIP3   OH236420   4.385   6.979   6.358 -0.0098 -0.2306 -0.3490
12160TIP3    H136421   4.374   7.051   6.420  2.1727  0.3152 -0.5322
12160TIP3    H236422   4.389   6.900   6.413 -0.0559  0.0291  0.0291
12161TIP3   OH236423   8.362   7.512   2.464  0.0324 -0.3027  0.0124
12161TIP3    H136424   8.408   7.595   2.451  1.0448 -0.6376  1.2631
12161TIP3    H236425   8.270   7.533   2.448  0.4458  0.6970 -1.1959
12162TIP3   OH236426   3.616   2.629   0.770 -0.4050  0.8581 -0.3127
12162TIP3    H136427   3.648   2.559   0.827 -1.7812 -0.7758 -1.4413
12162TIP3    H236428   3.524   2.638   0.793 -0.3097  2.1877 -0.3473
12163TIP3   OH236429   7.847   6.591   4.028 -0.3320 -0.3618  0.7543
12163TIP3    H136430   7.856   6.684   4.006  0.9191 -0.4820  0.7130
12163TIP3    H236431   7.936   6.556   4.023 -0.7727 -1.5455  0.8783
12164TIP3   OH236432   3.633   3.055   2.249  0.3735  0.2615  0.0980
12164TIP3    H136433   3.540   3.076   2.261  0.5180  1.8021 -1.2517
12164TIP3    H236434   3.638   2.962   2.271 -1.8819 -0.3687 -1.5723
12165TIP3   OH236435   7.772   7.653   5.638  0.2158  0.5369 -0.5035
12165TIP3    H136436   7.769   7.749   5.629  0.1564  0.7563  1.5047
12165TIP3    H236437   7.680   7.626   5.633  0.1137  0.7337  0.3019
12166TIP3   OH236438   3.263   4.100   5.471 -0.1497  0.3376 -0.0759
12166TIP3    H136439   3.224   4.156   5.404  0.9934  1.4013  0.1144
12166TIP3    H236440   3.357   4.118   5.465  0.0374 -0.0726  1.3408
12167TIP3   OH236441   3.564   5.268   1.388 -0.5480 -0.3245  0.9850
12167TIP3    H136442   3.539   5.202   1.324 -2.4765 -0.1809  1.5245
12167TIP3    H236443   3.495   5.265   1.454 -0.0698  1.4316  1.6324
12168TIP3   OH236444   0.914   7.095   4.720  0.3018 -0.1481 -0.2169
12168TIP3    H136445   0.954   7.059   4.640  0.1208 -0.1245 -0.3193
12168TIP3    H236446   0.969   7.061   4.791 -0.6296 -1.7598 -0.2030
12169TIP3   OH236447   2.557   0.867   3.668  0.2897  0.2646  0.1324
12169TIP3    H136448   2.542   0.883   3.575  0.8639 -1.3587 -0.2585
12169TIP3    H236449   2.627   0.802   3.671 -0.2136 -0.2511  1.6806
12170TIP3   OH236450   6.695   5.210   5.993 -0.0925  0.2035 -0.0755
12170TIP3    H136451   6.672   5.302   5.986  0.2216  0.2457 -0.6115
12170TIP3    H236452   6.660   5.170   5.913 -0.6853 -0.2404  0.3976
12171TIP3   OH236453   2.865   5.058   5.651  0.1179 -0.2719  0.0303
12171TIP3    H136454   2.891   5.020   5.568 -1.1228 -0.3096 -0.3616
12171TIP3    H236455   2.946   5.088   5.691  0.7244 -0.2858 -1.1800
12172TIP3   OH236456   6.431   7.774   5.160 -0.4991  0.4991  0.2226
12172TIP3    H136457   6.397   7.816   5.081 -0.1985  3.1466  1.3948
12172TIP3    H236458   6.525   7.786   5.155 -0.3225 -0.7149  0.2843
12173TIP3   OH236459   0.721   3.316   3.054 -0.0061  0.0195  0.0510
12173TIP3    H136460   0.642   3.351   3.095 -0.1621 -1.4316  1.0722
12173TIP3    H236461   0.783   3.389   3.056 -0.9845  0.8784  0.1441
12174TIP3   OH236462   1.342   5.918   0.925 -0.3283  0.8187  0.0940
12174TIP3    H136463   1.269   5.858   0.911 -0.2128  0.8257 -0.5422
12174TIP3    H236464   1.389   5.880   1.000 -2.2989  2.0854  2.0927
12175TIP3   OH236465   8.121   6.445   3.966 -0.5633  0.4075 -0.3786
12175TIP3    H136466   8.160   6.368   4.008 -0.2591  0.4318 -0.6127
12175TIP3    H236467   8.119   6.423   3.873 -0.6362  0.6136 -0.4262
12176TIP3   OH236468   6.681   0.051   5.647  0.0872  0.0757 -0.2363
12176TIP3    H136469   6.663   0.016   5.559  2.5695  0.7193 -1.0951
12176TIP3    H236470   6.670   0.146   5.637  0.1462  0.1310  0.2192
12177TIP3   OH236471   1.519   5.711   2.918  0.0241  0.3027  0.3532
12177TIP3    H136472   1.461   5.784   2.939  0.9155  0.8170  1.1204
12177TIP3    H236473   1.503   5.647   2.988 -0.7048 -0.2265 -0.2786
12178TIP3   OH236474   0.928   3.068   6.620 -0.1199 -0.4461 -0.4713
12178TIP3    H136475   0.836   3.094   6.615  0.3675  1.3086 -1.3059
12178TIP3    H236476   0.927   2.984   6.666 -1.9226  0.7181  1.8173
12179TIP3   OH236477   2.125   4.381   6.273 -0.5263  0.3843  0.4440
12179TIP3    H136478   2.050   4.348   6.323 -1.3077 -1.3022 -1.6758
12179TIP3    H236479   2.151   4.308   6.217  0.4440  2.0495 -1.4221
12180TIP3   OH236480   2.045   6.057   6.234  0.5794  0.0177 -0.3759
12180TIP3    H136481   2.060   6.135   6.287  0.0576 -1.0885  1.4705
12180TIP3    H236482   1.972   6.081   6.176 -0.9684  0.2812  1.5858
12181TIP3   OH236483   3.048   2.541   1.116 -0.3784 -0.0352  0.3703
12181TIP3    H136484   3.110   2.479   1.079 -0.6190 -0.5901  0.8775
12181TIP3    H236485   3.102   2.614   1.145 -0.1720  0.3422 -0.9093
12182TIP3   OH236486   6.420   0.777   6.412 -0.0895 -0.0980 -0.0184
12182TIP3    H136487   6.326   0.779   6.428 -0.1304  0.8831 -0.3260
12182TIP3    H236488   6.441   0.865   6.381  0.8928 -0.3714 -0.1604
12183TIP3   OH236489   5.417   2.279   2.875 -0.3532 -0.2579 -0.4669
12183TIP3    H136490   5.453   2.194   2.902  1.5924  0.6376 -0.0816
12183TIP3    H236491   5.373   2.261   2.792 -0.3109 -1.7058 -0.2064
12184TIP3   OH236492   1.351   3.147   5.655  0.2054 -0.2322 -0.0760
12184TIP3    H136493   1.306   3.136   5.571 -0.1430 -1.5445  0.2603
12184TIP3    H236494   1.286   3.124   5.721  0.6861  0.0997  0.5336
12185TIP3   OH236495   0.862   5.312   4.258  0.4831  0.8663 -0.5384
12185TIP3    H136496   0.855   5.408   4.256  0.9216  0.9225 -3.9502
12185TIP3    H236497   0.943   5.293   4.212 -0.3618 -1.2021 -1.2439
12186TIP3   OH236498   4.089   0.476   1.518  0.1889  0.0085  0.0171
12186TIP3    H136499   4.047   0.560   1.534  0.9111 -0.0278  2.5647
12186TIP3    H236500   4.125   0.484   1.429 -1.6155  1.5309 -0.6380
12187TIP3   OH236501   3.561   4.565   2.387  0.2967  0.2522  0.5277
12187TIP3    H136502   3.527   4.578   2.476 -0.0642 -0.3058  0.4770
12187TIP3    H236503   3.563   4.652   2.349 -0.4112  0.3777  0.7742
12188TIP3   OH236504   7.828   2.401   6.294 -0.1694 -0.0646  0.0680
12188TIP3    H136505   7.787   2.316   6.277 -0.6679 -0.0127  0.9493
12188TIP3    H236506   7.901   2.405   6.232 -0.6417 -0.7695 -0.5578
12189TIP3   OH236507   2.103   3.236   3.660  0.0233 -0.4366  0.1771
12189TIP3    H136508   2.197   3.239   3.677  0.0010 -0.2393  0.2701
12189TIP3    H236509   2.087   3.312   3.604  0.1159 -1.1350 -0.8209
12190TIP3   OH236510   3.154   4.617   3.580 -0.3564  0.4584  0.5371
12190TIP3    H136511   3.210   4.557   3.629 -1.4031  0.2258  1.5065
12190TIP3    H236512   3.141   4.691   3.640  0.3227  1.3287 -0.3596
12191TIP3   OH236513   5.024   0.290   6.511  0.4953  0.3358 -0.1297
12191TIP3    H136514   5.070   0.303   6.594 -0.2765 -1.4017  0.6339
12191TIP3    H236515   4.932   0.277   6.537  0.0341  0.9602 -1.3703
12192TIP3   OH236516   0.324   4.086   0.921  0.5937  0.3838  0.0888
12192TIP3    H136517   0.330   4.002   0.967 -1.0878  0.9701  1.4816
12192TIP3    H236518   0.414   4.114   0.911  1.1780 -1.4005 -0.0768
12193TIP3   OH236519   2.070   5.336   2.366  0.1437  0.1153  0.4581
12193TIP3    H136520   2.028   5.396   2.427 -1.1200 -0.5366  0.2593
12193TIP3    H236521   2.099   5.391   2.293 -1.2865  0.4823  0.1273
12194TIP3   OH236522   6.245   3.764   3.555 -0.5317  0.1049  0.7117
12194TIP3    H136523   6.230   3.678   3.516 -0.3052 -0.1767  1.2362
12194TIP3    H236524   6.331   3.790   3.523 -0.3299 -0.1425  1.0480
12195TIP3   OH236525   6.839   2.129   1.060 -0.0874 -0.1997  0.1156
12195TIP3    H136526   6.864   2.123   1.152  0.3800  2.9354  0.2783
12195TIP3    H236527   6.894   2.199   1.024 -1.3394 -0.2871 -2.1661
12196TIP3   OH236528   3.498   3.662   6.606 -0.4966 -0.0705 -0.1946
12196TIP3    H136529   3.563   3.649   6.537  1.0390  1.1135  0.9409
12196TIP3    H236530   3.457   3.746   6.586 -0.1683  0.1935  0.2086
12197TIP3   OH236531   6.624   3.811   1.589  0.1119  0.0358  0.1906
12197TIP3    H136532   6.605   3.897   1.625  2.0238  0.6430 -0.1088
12197TIP3    H236533   6.611   3.821   1.495  0.6050  0.0826  0.1265
12198TIP3   OH236534   5.481   2.131   6.538 -0.1065  0.1024 -0.1648
12198TIP3    H136535   5.399   2.084   6.527 -0.3163  0.7052 -1.3284
12198TIP3    H236536   5.536   2.101   6.465  0.4613  0.2183  0.2041
12199TIP3   OH236537   0.145   2.476   5.824  0.0993  0.2611 -0.4517
12199TIP3    H136538   0.222   2.523   5.856  1.8773 -1.4812 -1.9161
12199TIP3    H236539   0.118   2.421   5.898  1.4449 -0.4723 -0.4663
12200TIP3   OH236540   0.599   7.060   0.763 -0.3183 -0.5799  0.3535
12200TIP3    H136541   0.523   7.114   0.743 -0.2608 -0.5648  0.1737
12200TIP3    H236542   0.666   7.122   0.793  0.2924 -0.3373 -1.3839
12201TIP3   OH236543   6.929   6.784   2.401  0.3226 -0.4147  0.2040
12201TIP3    H136544   6.856   6.843   2.385 -0.1830 -0.8254  0.9429
12201TIP3    H236545   7.000   6.840   2.432  0.2811 -0.0340 -0.3778
12202TIP3   OH236546   2.764   4.189   0.018  0.5596 -0.3973  0.1285
12202TIP3    H136547   2.824   4.158   0.086 -1.3599  0.5562  2.3958
12202TIP3    H236548   2.802   4.272  -0.011  2.1235 -1.4801 -1.0137
12203TIP3   OH236549   1.723   4.893   5.220  0.1525  0.2767  0.2333
12203TIP3    H136550   1.659   4.921   5.155 -2.5186 -1.6785  1.8230
12203TIP3    H236551   1.773   4.824   5.176 -1.5744 -0.9789  0.1525
12204TIP3   OH236552   2.303   5.424   0.405  0.0182  0.5176  0.8088
12204TIP3    H136553   2.331   5.488   0.470  0.9011  0.6678  0.2933
12204TIP3    H236554   2.315   5.468   0.321  0.1167 -0.1284  0.4797
12205TIP3   OH236555   5.860   6.322   0.727  0.0640  0.0664  0.7757
12205TIP3    H136556   5.942   6.368   0.744  1.2486 -1.0813 -1.3842
12205TIP3    H236557   5.834   6.288   0.812  1.7552  0.5942  1.5576
12206TIP3   OH236558   2.522   7.683   3.731 -0.2057  0.3432  0.6026
12206TIP3    H136559   2.565   7.763   3.700 -1.0102  0.4491 -0.2703
12206TIP3    H236560   2.542   7.618   3.664 -0.0075 -0.0548  1.0427
12207TIP3   OH236561   1.712   0.721   0.111 -0.6534  0.5456  0.8292
12207TIP3    H136562   1.736   0.800   0.064 -0.8362  0.3534  0.4106
12207TIP3    H236563   1.732   0.740   0.203  0.2952  0.7036  0.6004
12208TIP3   OH236564   2.232   2.894   1.424 -0.5509 -0.0837  0.3710
12208TIP3    H136565   2.245   2.875   1.517  0.0535 -0.1903  0.2695
12208TIP3    H236566   2.235   2.808   1.381 -2.8132 -0.2514  0.4630
12209TIP3   OH236567   7.708   2.840   0.591  0.0042 -0.2867  0.4364
12209TIP3    H136568   7.778   2.888   0.637  2.4492 -2.1339 -1.1381
12209TIP3    H236569   7.685   2.897   0.517  0.2707  0.0690  0.6212
12210TIP3   OH236570   7.938   2.797   3.830 -0.0545  0.1336 -0.3563
12210TIP3    H136571   7.956   2.749   3.910  1.3422  1.7890  0.4063
12210TIP3    H236572   7.855   2.843   3.846 -0.2808 -0.3148 -0.2504
12211TIP3   OH236573   5.968   5.349   4.225  0.1700  0.2565 -0.2223
12211TIP3    H136574   5.937   5.311   4.142  1.5098  0.3325 -0.7773
12211TIP3    H236575   6.060   5.368   4.209  0.8765 -1.1557  1.7891
12212TIP3   OH236576  -0.021   3.362   4.218  0.4262 -0.3431  0.0144
12212TIP3    H136577  -0.024   3.285   4.160 -1.5645  0.4320 -0.9859
12212TIP3    H236578   0.060   3.406   4.193 -1.1537  0.9005 -3.5760
12213TIP3   OH236579   5.244   2.103   4.004  0.3763  0.1203  0.0549
12213TIP3    H136580   5.286   2.135   4.084 -0.9137  0.0293  0.7986
12213TIP3    H236581   5.188   2.031   4.034  2.2301 -2.0516 -1.3853
12214TIP3   OH236582   6.140   7.629   2.677  0.2430 -0.0143  0.0868
12214TIP3    H136583   6.052   7.621   2.715  0.6109  0.6425  1.0888
12214TIP3    H236584   6.200   7.625   2.751  1.1286 -1.1755 -0.6524
12215TIP3   OH236585   7.792   0.754   1.580 -0.1017 -0.0588 -0.0786
12215TIP3    H136586   7.882   0.722   1.574 -0.4091 -0.6166 -2.6789
12215TIP3    H236587   7.738   0.675   1.578 -0.7283  0.3807 -2.0309
12216TIP3   OH236588   2.853   3.590   5.516 -0.0886  0.4114  0.0335
12216TIP3    H136589   2.781   3.528   5.531  1.0015 -0.8560  0.1466
12216TIP3    H236590   2.826   3.638   5.437  0.1140 -1.8909 -1.5533
12217TIP3   OH236591   5.502   2.711   0.939 -0.2114 -0.3301 -0.3959
12217TIP3    H136592   5.424   2.690   0.888 -0.8338  0.0040  0.3862
12217TIP3    H236593   5.491   2.803   0.962 -0.2639 -0.6299  0.8543
12218TIP3   OH236594   1.100   5.621   6.245  0.8688  0.0408  0.6559
12218TIP3    H136595   1.137   5.709   6.257  1.6368 -0.2693  0.6332
12218TIP3    H236596   1.018   5.635   6.198 -0.4143  0.9914  3.0169
12219TIP3   OH236597   1.570   3.281   6.668  0.2966 -0.1521  0.1671
12219TIP3    H136598   1.575   3.276   6.572 -0.8326 -0.0268  0.0928
12219TIP3    H236599   1.477   3.291   6.687  0.4231 -0.9413  1.3226
12220TIP3   OH236600   5.135   4.831   2.126 -0.7626 -0.0296 -0.4329
12220TIP3    H136601   5.077   4.901   2.096  1.2238  2.2816  0.6914
12220TIP3    H236602   5.166   4.862   2.212  2.0011 -1.1346 -0.9422
12221TIP3   OH236603   7.059   4.763   4.009  0.4935  0.1766 -0.6706
12221TIP3    H136604   7.126   4.712   3.964  0.1559 -1.9517  1.0630
12221TIP3    H236605   7.099   4.785   4.094  0.2569  1.9931 -0.9964
12222TIP3   OH236606   3.667   5.538   6.616  0.0658 -0.1438 -0.6276
12222TIP3    H136607   3.694   5.491   6.537  0.8158 -0.5130 -0.1628
12222TIP3    H236608   3.749   5.568   6.655  0.0484 -2.9093  1.8362
12223TIP3   OH236609   4.241   0.995   2.570 -0.1468 -0.6751  0.0019
12223TIP3    H136610   4.270   1.005   2.661  0.1236 -2.0241  0.0874
12223TIP3    H236611   4.288   0.918   2.539  1.4431  0.9721 -1.9721
12224TIP3   OH236612   1.193   4.265   4.951 -0.3647 -0.2607 -0.4330
12224TIP3    H136613   1.211   4.321   5.027  1.8332  2.2485 -2.6106
12224TIP3    H236614   1.257   4.193   4.958 -1.4910 -1.1874  1.0239
12225TIP3   OH236615   0.845   7.130   3.450 -0.2598  0.2485  0.0865
12225TIP3    H136616   0.904   7.086   3.387  0.4499  0.9351  0.2626
12225TIP3    H236617   0.876   7.220   3.453  0.1247  0.0789  1.9147
12226TIP3   OH236618   2.305   5.196   0.252  0.1661  0.0645  0.6432
12226TIP3    H136619   2.365   5.136   0.298  0.6676  0.0985  0.0500
12226TIP3    H236620   2.288   5.266   0.315  0.9549  0.1835  0.7324
12227TIP3   OH236621   8.079   1.193   5.571 -0.4739  0.7159  0.0360
12227TIP3    H136622   7.993   1.218   5.538 -1.5059 -0.4653  1.6865
12227TIP3    H236623   8.125   1.157   5.495 -1.8006  0.4670 -0.6639
12228TIP3   OH236624   1.981   0.337   6.394  0.2589  0.3423 -0.1147
12228TIP3    H136625   1.898   0.326   6.346  0.4568 -0.5999 -0.2569
12228TIP3    H236626   2.001   0.250   6.427  0.2069  0.9401  1.5824
12229TIP3   OH236627   3.522   2.222   2.451 -0.5094  0.0563  0.1246
12229TIP3    H136628   3.499   2.275   2.374  0.3745  3.2831  1.8959
12229TIP3    H236629   3.609   2.186   2.429 -0.9489 -0.3889 -0.9684
12230TIP3   OH236630   8.090   2.535   4.904 -0.7014  0.6972 -0.1672
12230TIP3    H136631   8.001   2.567   4.895 -0.6059  1.5829  1.6770
12230TIP3    H236632   8.100   2.517   4.997  0.5865 -0.8273 -0.5478
12231TIP3   OH236633   2.827   1.927   0.111 -0.6742 -0.1516  0.3463
12231TIP3    H136634   2.771   2.003   0.129  0.1454  0.7542 -0.8057
12231TIP3    H236635   2.906   1.964   0.073 -0.0536 -1.5609  0.2199
12232TIP3   OH236636   0.674   2.684   1.887 -0.1985  0.1938  0.1221
12232TIP3    H136637   0.625   2.764   1.909  1.3610  1.0494  0.6729
12232TIP3    H236638   0.662   2.675   1.792 -1.5912  0.2324  0.2701
12233TIP3   OH236639   5.887   5.598   2.021 -0.0780 -0.0118  0.1704
12233TIP3    H136640   5.804   5.631   1.985 -0.1503  0.8516  1.1113
12233TIP3    H236641   5.865   5.511   2.054 -0.5884  0.1805  0.3430
12234TIP3   OH236642   2.270   4.566   1.518 -0.1216  0.1473  0.0722
12234TIP3    H136643   2.337   4.499   1.530 -1.3545 -1.0622  0.6247
12234TIP3    H236644   2.240   4.586   1.607 -0.7224  0.4010 -0.1798
12235TIP3   OH236645   3.866   4.494   3.414 -0.5811  0.1460  0.0747
12235TIP3    H136646   3.872   4.538   3.329  0.3770  0.4364  0.2697
12235TIP3    H236647   3.923   4.546   3.471  0.2575 -1.1145  0.4251
12236TIP3   OH236648   5.088   1.170   3.601 -0.3457  0.1153  0.4679
12236TIP3    H136649   5.019   1.105   3.613 -0.0955 -0.2678 -0.1310
12236TIP3    H236650   5.168   1.126   3.632 -0.2938  0.3818  0.7083
12237TIP3   OH236651   7.559   7.651   4.596  0.4874  0.1841 -0.0763
12237TIP3    H136652   7.583   7.674   4.686  1.1857  0.6010 -0.3552
12237TIP3    H236653   7.506   7.573   4.605  0.4667  0.2738  0.7095
12238TIP3   OH236654   6.692   6.543   6.341 -0.1236  0.4573  0.4102
12238TIP3    H136655   6.603   6.577   6.352 -0.1461 -0.1424  2.5515
12238TIP3    H236656   6.748   6.608   6.383  0.0577 -0.8756  2.3606
12239TIP3   OH236657   7.453   0.870   2.332  0.2263 -0.2282 -0.1971
12239TIP3    H136658   7.493   0.893   2.416  1.6039  0.1727 -0.9332
12239TIP3    H236659   7.377   0.927   2.325  1.6261  1.7059 -0.4167
12240TIP3   OH236660   1.547   6.769   6.402 -0.2472  0.1644  0.0678
12240TIP3    H136661   1.565   6.729   6.317 -1.0846  0.4641 -0.2630
12240TIP3    H236662   1.520   6.858   6.381  1.3043  0.8458  0.7738
12241TIP3   OH236663   4.944   6.138   0.734 -0.8813 -0.4030 -0.2784
12241TIP3    H136664   5.013   6.071   0.727 -3.4515 -3.2927 -0.3169
12241TIP3    H236665   4.959   6.196   0.659  1.0916 -1.2947 -0.6485
12242TIP3   OH236666   7.989   0.258   5.639 -0.2886  0.1550 -0.2283
12242TIP3    H136667   7.961   0.350   5.646  1.1098  0.5652  0.2322
12242TIP3    H236668   8.033   0.240   5.722 -1.3827 -1.2545  0.0936
12243TIP3   OH236669   7.782   3.586   0.479  0.3324  0.7558  0.1263
12243TIP3    H136670   7.873   3.615   0.487  0.0507  1.2261  2.1333
12243TIP3    H236671   7.789   3.494   0.455  1.3036  1.0798 -0.9505
12244TIP3   OH236672   4.705   5.368   0.590  0.2124  0.6568 -0.6532
12244TIP3    H136673   4.747   5.435   0.536 -1.1316  0.7345 -1.6451
12244TIP3    H236674   4.669   5.416   0.664  1.4762  0.6433  0.0024
12245TIP3   OH236675   4.271   5.607   3.066 -0.0665 -0.4938 -0.4077
12245TIP3    H136676   4.360   5.618   3.099 -0.4125 -0.3545  0.5070
12245TIP3    H236677   4.282   5.577   2.976  0.9025 -1.4541  0.0206
12246TIP3   OH236678   0.265   0.199   5.682  0.1825 -0.1208  0.2765
12246TIP3    H136679   0.318   0.277   5.670  0.3691  0.0261  1.8645
12246TIP3    H236680   0.323   0.136   5.724 -0.6874 -0.1661  1.4822
12247TIP3   OH236681   3.110   4.918   0.475  0.1144  0.3874  0.1568
12247TIP3    H136682   3.134   4.860   0.403 -0.4858 -0.0186  0.2782
12247TIP3    H236683   3.014   4.918   0.475  0.0596  2.3336 -0.6281
12248TIP3   OH236684   0.444   6.962   2.957 -0.1969  0.0135 -0.2041
12248TIP3    H136685   0.429   6.869   2.941 -0.1886 -0.3179  1.5243
12248TIP3    H236686   0.388   7.007   2.894 -0.6340 -1.1582 -0.6752
12249TIP3   OH236687   8.070   1.206   2.433 -0.0523  0.8403 -0.2792
12249TIP3    H136688   8.083   1.228   2.341 -0.3120  0.7094 -0.3465
12249TIP3    H236689   7.978   1.226   2.451 -0.1128  0.4710 -0.1590
12250TIP3   OH236690   8.255   5.001   0.757  0.4743 -0.2806 -0.1338
12250TIP3    H136691   8.232   5.016   0.849  0.6387  2.7959 -0.5102
12250TIP3    H236692   8.350   4.987   0.758  0.4953 -0.1182  0.1510
12251TIP3   OH236693   1.294   2.261   2.189  0.4445  0.3419  0.1737
12251TIP3    H136694   1.241   2.200   2.241 -0.7913  0.1095 -1.2775
12251TIP3    H236695   1.270   2.241   2.098  1.8283  1.3652 -0.4446
12252TIP3   OH236696   2.100   0.732   3.094 -0.5089  0.0196 -0.2055
12252TIP3    H136697   2.068   0.658   3.043  1.9505 -0.7521 -0.7570
12252TIP3    H236698   2.051   0.808   3.061  0.2768 -0.6029 -3.0323
12253TIP3   OH236699   4.234   6.352   2.897  0.1653  0.4283  0.1925
12253TIP3    H136700   4.266   6.329   2.984 -1.7544 -0.0633  0.8139
12253TIP3    H236701   4.216   6.268   2.855 -0.0416  0.6876 -0.2458
12254TIP3   OH236702   0.625   6.523   1.807 -0.4311 -0.1404  0.2637
12254TIP3    H136703   0.553   6.469   1.777  0.8771 -1.8509  0.0794
12254TIP3    H236704   0.589   6.572   1.881 -1.6099 -1.3944  0.5510
12255TIP3   OH236705   5.376   0.552   1.535 -0.3608 -0.3323  0.7035
12255TIP3    H136706   5.421   0.518   1.458  1.0498 -0.6723  1.6354
12255TIP3    H236707   5.304   0.604   1.500  0.2286 -0.5030 -0.8365
12256TIP3   OH236708   0.785   0.689   2.867  0.4741 -0.7066 -0.3995
12256TIP3    H136709   0.850   0.719   2.930 -0.5214 -0.7910  0.7037
12256TIP3    H236710   0.703   0.687   2.916 -0.5073  0.0346 -1.9128
12257TIP3   OH236711   3.482   1.011   4.458 -0.7019  0.0175  0.1890
12257TIP3    H136712   3.531   1.076   4.509  0.2829 -0.4697 -0.1131
12257TIP3    H236713   3.434   0.960   4.524  1.2853 -1.2131  0.7568
12258TIP3   OH236714   0.179   6.553   5.495 -0.6438  0.3442 -0.1799
12258TIP3    H136715   0.244   6.593   5.438 -2.4315  1.0061 -1.8706
12258TIP3    H236716   0.121   6.505   5.436 -0.4109 -2.1882  1.4884
12259TIP3   OH236717   4.308   1.315   6.726  0.8035  0.2290  0.1341
12259TIP3    H136718   4.258   1.317   6.808  1.9692 -0.9587  0.9127
12259TIP3    H236719   4.242   1.302   6.658 -0.1235  0.5670  0.9538
12260TIP3   OH236720   0.472   4.222   6.156 -0.1271 -0.3100  0.0131
12260TIP3    H136721   0.557   4.264   6.166 -0.0997 -0.4017  0.1800
12260TIP3    H236722   0.481   4.138   6.201 -0.8920  0.5030  1.8163
12261TIP3   OH236723   4.481   5.473   1.832  0.1193 -0.2248  0.0986
12261TIP3    H136724   4.537   5.461   1.756  1.7877 -2.2476  1.5229
12261TIP3    H236725   4.396   5.439   1.806  0.6087 -0.7066 -0.9097
12262TIP3   OH236726   5.162   1.619   2.339 -0.4458 -0.4889  0.2834
12262TIP3    H136727   5.211   1.642   2.261 -1.5610 -1.6719 -0.8225
12262TIP3    H236728   5.220   1.559   2.387 -0.6039 -1.5491 -0.7987
12263TIP3   OH236729   0.679   7.151   4.593  0.1631  0.3687  0.0809
12263TIP3    H136730   0.762   7.134   4.637  0.1870 -1.4044 -0.5714
12263TIP3    H236731   0.691   7.235   4.548  1.1404  0.7444  1.0133
12264TIP3   OH236732   6.767   6.960   2.881  0.2617  0.5102  0.1322
12264TIP3    H136733   6.817   6.996   2.807  0.7224  0.1635  0.2706
12264TIP3    H236734   6.686   6.929   2.842  0.8993 -0.5618 -0.4038
12265TIP3   OH236735   3.303   2.304   5.143 -0.5066 -0.2557 -0.4668
12265TIP3    H136736   3.292   2.324   5.050  1.5222  2.2093 -0.2836
12265TIP3    H236737   3.215   2.304   5.179 -1.2295 -0.1120 -2.1665
12266TIP3   OH236738   0.963   1.186   3.012 -0.8303 -0.3123  0.2430
12266TIP3    H136739   0.964   1.239   3.092 -2.5483 -0.7112  0.5558
12266TIP3    H236740   0.986   1.248   2.943  2.5760 -0.3282  1.1679
12267TIP3   OH236741   6.659   6.022   5.229 -0.8117  0.4981  0.3565
12267TIP3    H136742   6.702   6.090   5.178 -2.1635  1.7571  0.8283
12267TIP3    H236743   6.705   6.021   5.313  0.2411 -0.3175 -0.2067
12268TIP3   OH236744   6.800   1.010   4.267 -0.7795 -0.0191 -0.1282
12268TIP3    H136745   6.890   1.045   4.266 -0.4803 -0.7733 -0.1080
12268TIP3    H236746   6.746   1.085   4.292 -0.2786  0.7094 -1.1196
12269TIP3   OH236747   7.562   7.729   0.572  0.9305 -0.2965 -0.2455
12269TIP3    H136748   7.593   7.789   0.504  2.6713 -0.0255  0.7450
12269TIP3    H236749   7.467   7.738   0.570  1.0926  1.7243 -0.8127
12270TIP3   OH236750   5.705   0.179   2.990  0.0792  0.0232  0.0146
12270TIP3    H136751   5.643   0.110   3.013  1.8866 -1.1443  1.6663
12270TIP3    H236752   5.677   0.209   2.904 -0.9744 -2.5256 -0.6075
12271TIP3   OH236753   0.795   3.750   6.178  1.0784  0.0315  0.3935
12271TIP3    H136754   0.770   3.726   6.089  1.7558  1.1396 -0.1169
12271TIP3    H236755   0.796   3.667   6.226  2.0677 -0.7727 -0.9646
12272TIP3   OH236756   1.031   0.032   0.976 -0.1923 -0.0173 -0.0826
12272TIP3    H136757   0.969   0.080   0.920 -0.4550 -1.3550 -0.9784
12272TIP3    H236758   0.976  -0.024   1.030  0.2016 -1.8284 -1.4548
12273TIP3   OH236759   0.956   4.338   3.965 -0.2793 -0.1116 -0.3657
12273TIP3    H136760   0.958   4.368   3.874  0.8358 -0.0671 -0.3426
12273TIP3    H236761   0.928   4.415   4.015  2.7457  1.0918 -0.2869
12274TIP3   OH236762   3.851   2.692   5.515 -0.0454 -0.6079 -0.3580
12274TIP3    H136763   3.783   2.649   5.462  0.8237  0.0523 -2.0684
12274TIP3    H236764   3.932   2.646   5.493  0.5159  0.4125 -0.4535
12275TIP3   OH236765   8.003   6.231   0.554 -0.0574  0.2907  0.0847
12275TIP3    H136766   7.960   6.316   0.562 -1.8075 -0.5174 -0.1493
12275TIP3    H236767   7.991   6.207   0.462 -1.7595 -1.2366  0.6372
12276TIP3   OH236768   1.345   7.165   2.017 -0.1746  0.5126  0.3063
12276TIP3    H136769   1.290   7.243   2.024  0.2573  1.0828 -1.7625
12276TIP3    H236770   1.356   7.152   1.923 -0.0902 -1.9836  0.5795
12277TIP3   OH236771   7.913   2.472   0.643  0.3888 -0.8093 -0.0353
12277TIP3    H136772   7.828   2.514   0.636  0.2797 -1.1488 -0.9217
12277TIP3    H236773   7.973   2.532   0.598  0.4909 -0.8940 -0.0126
12278TIP3   OH236774   2.238   0.044   2.530  0.3552 -0.0133  0.0761
12278TIP3    H136775   2.333   0.055   2.525  0.4856 -1.2719 -0.7996
12278TIP3    H236776   2.226  -0.045   2.565 -0.4992  0.0409 -0.0564
12279TIP3   OH236777   7.612   6.950   3.261 -0.1134 -0.0069 -0.2049
12279TIP3    H136778   7.540   6.964   3.323  0.5474 -0.4795  0.6818
12279TIP3    H236779   7.690   6.979   3.308  0.4940 -1.0704 -0.5317
12280TIP3   OH236780   5.473   0.577   2.770 -0.4017 -0.3866  0.2951
12280TIP3    H136781   5.519   0.585   2.854  0.7329  1.2156 -0.4258
12280TIP3    H236782   5.413   0.651   2.768 -2.2390 -1.7816  0.6847
12281TIP3   OH236783   1.154   1.614   4.205 -0.2645 -0.1315 -0.0156
12281TIP3    H136784   1.189   1.529   4.180  1.8180  0.7088 -0.2166
12281TIP3    H236785   1.195   1.633   4.290  0.2329  1.1353 -0.5063
12282TIP3   OH236786   0.641   0.896   0.514  0.2908 -0.0551 -0.0705
12282TIP3    H136787   0.687   0.950   0.578  0.2047  0.7793 -0.6887
12282TIP3    H236788   0.549   0.922   0.522  0.1371 -0.6719  0.1651
12283TIP3   OH236789   1.373   1.941   0.482 -0.2716 -0.3159 -0.2948
12283TIP3    H136790   1.394   1.848   0.488  0.0575 -0.3537 -1.6752
12283TIP3    H236791   1.294   1.943   0.427  0.1499  0.2446 -0.8978
12284TIP3   OH236792   1.221   1.031   2.658 -0.3431  0.2596 -0.5315
12284TIP3    H136793   1.273   1.094   2.709  1.4172 -1.0200 -0.6186
12284TIP3    H236794   1.135   1.031   2.700  0.1117  1.5275  0.4716
12285TIP3   OH236795   0.623   4.819   5.703  0.3321  0.2449 -0.1542
12285TIP3    H136796   0.589   4.843   5.617 -1.4155  2.0532  0.9613
12285TIP3    H236797   0.634   4.724   5.699 -2.2276 -0.0704 -1.5229
12286TIP3   OH236798   7.029   0.899   4.781 -0.1801 -0.1688 -0.3297
12286TIP3    H136799   7.091   0.889   4.708  2.6418  0.0470  1.8612
12286TIP3    H236800   7.023   0.994   4.795 -1.9563 -0.1172 -1.1989
12287TIP3   OH236801   4.201   1.270   1.782  0.3295  0.1549  0.0342
12287TIP3    H136802   4.143   1.202   1.817 -1.2307  1.4396  0.0194
12287TIP3    H236803   4.210   1.248   1.689  1.8905 -1.4223  0.4989
12288TIP3   OH236804   1.526   5.116   2.013  0.0457 -0.0340  0.2767
12288TIP3    H136805   1.533   5.127   1.919 -0.6611  1.3353  0.3607
12288TIP3    H236806   1.515   5.022   2.026  1.9372 -0.4566 -0.8586
12289TIP3   OH236807   4.630   4.726   5.749  0.4905  0.6057  0.4174
12289TIP3    H136808   4.701   4.662   5.737  0.8588  1.1233 -0.2145
12289TIP3    H236809   4.550   4.674   5.738  0.7890  0.5131 -1.7425
12290TIP3   OH236810   5.920   3.405   2.129 -0.1004 -0.3154  0.2455
12290TIP3    H136811   5.986   3.371   2.069 -1.3027 -1.0125 -0.7411
12290TIP3    H236812   5.924   3.348   2.205  0.3042 -0.4704  0.1085
12291TIP3   OH236813   3.919   0.568   4.304  0.5407  0.0619  0.1540
12291TIP3    H136814   3.880   0.650   4.335  1.1035  0.8568 -1.1446
12291TIP3    H236815   3.869   0.547   4.225  0.2899 -0.9616  0.5686
12292TIP3   OH236816   7.943   2.423   2.105  0.3424  0.3809 -0.1289
12292TIP3    H136817   7.878   2.493   2.094  0.1893  0.4911  1.3463
12292TIP3    H236818   8.013   2.463   2.155  0.7342 -0.2471 -0.1740
12293TIP3   OH236819   6.703   5.031   0.375 -0.0504  0.1710  0.0450
12293TIP3    H136820   6.688   5.120   0.408 -4.0054 -0.6369  0.9342
12293TIP3    H236821   6.673   5.033   0.284  0.9425 -0.0425 -0.3050
12294TIP3   OH236822   4.676   0.447   4.994 -0.0132  0.2314 -0.1206
12294TIP3    H136823   4.725   0.373   4.958 -0.3087  0.5315 -1.1737
12294TIP3    H236824   4.649   0.497   4.917 -1.8843  0.1374  0.4357
12295TIP3   OH236825   2.417   0.761   6.280  0.1945  0.5842  0.1307
12295TIP3    H136826   2.461   0.718   6.353  1.2717  1.8196  0.2307
12295TIP3    H236827   2.462   0.729   6.202 -0.8242 -0.5785 -0.0129
12296TIP3   OH236828   1.047   3.224   2.206  0.3034  0.5441 -0.3360
12296TIP3    H136829   1.076   3.137   2.179 -0.0063  0.0683  0.8293
12296TIP3    H236830   0.952   3.217   2.212  0.4164  0.2677  1.9886
12297TIP3   OH236831   7.412   6.308   5.352 -0.0769 -0.3153  0.1949
12297TIP3    H136832   7.391   6.231   5.405 -3.5252  0.1259 -0.3538
12297TIP3    H236833   7.387   6.383   5.406  0.0752  0.2903 -0.5569
12298TIP3   OH236834   7.383   2.223   3.022  0.0497  0.1760 -0.6126
12298TIP3    H136835   7.434   2.251   2.946  1.6014  1.0142  0.6609
12298TIP3    H236836   7.448   2.194   3.085 -0.8253  2.6267  1.6416
12299TIP3   OH236837   4.575   2.563   3.366  0.4182  0.3720  0.3858
12299TIP3    H136838   4.507   2.538   3.304  0.7494  0.0863  0.1349
12299TIP3    H236839   4.636   2.490   3.366  1.5684  1.2941 -0.5925
12300TIP3   OH236840   3.147   4.879   1.237 -0.0133  0.3216 -0.2618
12300TIP3    H136841   3.205   4.831   1.297 -2.1292 -0.8261  1.0066
12300TIP3    H236842   3.158   4.835   1.153 -0.3598 -1.1062  0.4036
12301TIP3   OH236843   1.266   0.171   0.621  0.5381  0.2263  0.5251
12301TIP3    H136844   1.293   0.202   0.708 -0.9161  3.7750 -0.0918
12301TIP3    H236845   1.174   0.149   0.631  0.1191  1.5335 -0.2549
12302TIP3   OH236846   4.347   4.174   3.665 -0.3879  0.2513  0.1601
12302TIP3    H136847   4.344   4.187   3.760  0.6536  1.0380  0.1026
12302TIP3    H236848   4.255   4.163   3.640 -0.8019  1.3086  1.1026
12303TIP3   OH236849   2.986   2.524   4.558 -0.2548 -0.2284 -0.6827
12303TIP3    H136850   2.944   2.549   4.475  1.0782 -2.7347 -2.2318
12303TIP3    H236851   2.914   2.497   4.614 -0.9931 -2.4689 -2.5526
12304TIP3   OH236852   2.834   5.986   6.584  0.1010  0.3436  0.4085
12304TIP3    H136853   2.819   5.914   6.645  1.4434 -1.3328 -1.1155
12304TIP3    H236854   2.747   6.023   6.568 -0.6538 -1.0729  1.0974
12305TIP3   OH236855   2.562   3.120   1.212  0.0557 -0.1071 -0.4599
12305TIP3    H136856   2.474   3.108   1.246 -0.1199 -1.4981 -1.2868
12305TIP3    H236857   2.618   3.067   1.269  0.3438  0.6449 -0.0311
12306TIP3   OH236858   6.381   4.859   5.540  0.0021  0.3802 -0.0828
12306TIP3    H136859   6.451   4.843   5.476  0.7924  1.4345  0.4765
12306TIP3    H236860   6.301   4.857   5.488  0.0895 -3.4546 -0.3605
12307TIP3   OH236861   2.263   4.659   1.785  0.5999 -0.2909 -0.0292
12307TIP3    H136862   2.357   4.643   1.779  0.8061  0.0216  1.7104
12307TIP3    H236863   2.251   4.748   1.753  0.9021 -0.3376 -0.2663
12308TIP3   OH236864   2.983   2.792   6.032  0.1895  0.5467 -0.4175
12308TIP3    H136865   2.943   2.834   6.108  0.5430  2.2741 -1.1392
12308TIP3    H236866   2.954   2.701   6.037 -1.2367  1.0249  0.8133
12309TIP3   OH236867   1.931   2.179   3.348 -0.9786  0.4357 -0.1350
12309TIP3    H136868   1.870   2.253   3.356 -0.7540  0.5438  0.7019
12309TIP3    H236869   1.948   2.153   3.439  0.6719  0.7758 -0.3257
12310TIP3   OH236870   1.968   6.164   4.470  0.0721 -0.8732 -0.1415
12310TIP3    H136871   1.984   6.222   4.544 -0.9328  0.3837 -0.8732
12310TIP3    H236872   1.888   6.198   4.429 -0.1338 -2.3420 -1.0187
12311TIP3   OH236873   6.312   4.354   2.662  0.0798  0.6591  0.4872
12311TIP3    H136874   6.304   4.438   2.708 -1.3691  0.5703  0.4487
12311TIP3    H236875   6.293   4.288   2.728 -1.4164  0.5044 -0.0648
12312TIP3   OH236876   8.374   2.259   3.708 -0.0473  0.2615  0.1159
12312TIP3    H136877   8.336   2.345   3.723 -0.5491 -0.0938  0.9579
12312TIP3    H236878   8.333   2.203   3.774  0.3756 -0.5906 -0.3302
12313TIP3   OH236879   4.120   4.921   4.694  0.7869  0.4818  0.0172
12313TIP3    H136880   4.201   4.964   4.720  0.7500 -0.1530  1.3145
12313TIP3    H236881   4.140   4.827   4.699  0.0401  0.3209  0.1675
12314TIP3   OH236882   5.934   1.323   0.735  0.4880 -0.2585  0.3613
12314TIP3    H136883   6.025   1.294   0.726  0.5358 -1.7105  3.7216
12314TIP3    H236884   5.884   1.262   0.681  1.3894 -0.2662 -0.4975
12315TIP3   OH236885   6.186   5.708   0.481 -0.4903  0.0286 -0.6580
12315TIP3    H136886   6.118   5.744   0.424  0.3407  1.9739 -0.5166
12315TIP3    H236887   6.268   5.740   0.443  0.3189 -1.6398 -0.3929
12316TIP3   OH236888   2.765   3.649   0.364  0.0417 -0.1941  0.0828
12316TIP3    H136889   2.764   3.554   0.376 -1.2216 -0.8251 -3.5939
12316TIP3    H236890   2.818   3.663   0.286 -0.4159  2.0456  0.1003
12317TIP3   OH236891   4.281   6.603   0.070 -0.3262  0.3186  0.1086
12317TIP3    H136892   4.245   6.646   0.148  1.6710 -1.4182  2.1256
12317TIP3    H236893   4.221   6.529   0.055 -0.7979  0.7400 -0.1118
12318TIP3   OH236894   5.713   4.610   6.017  0.0473  0.1225 -0.5694
12318TIP3    H136895   5.765   4.567   6.085 -0.8873  1.9147  1.4028
12318TIP3    H236896   5.771   4.676   5.980  0.3024 -0.3138 -0.9549
12319TIP3   OH236897   3.206   7.081   1.008 -0.0668  0.5143  0.0132
12319TIP3    H136898   3.163   7.059   1.090 -0.1797 -0.4258 -0.2934
12319TIP3    H236899   3.167   7.165   0.982 -0.8515  0.2542  0.3315
12320TIP3   OH236900   7.406   6.948   3.921 -0.5445 -0.4097  0.1145
12320TIP3    H136901   7.428   6.927   4.012  1.6326 -1.0399 -0.4886
12320TIP3    H236902   7.457   7.026   3.901  0.2695 -1.1742 -0.9860
12321TIP3   OH236903   7.361   5.514   2.239 -0.0786  0.0964 -0.0451
12321TIP3    H136904   7.333   5.587   2.293 -0.4756  0.6000 -0.9062
12321TIP3    H236905   7.455   5.526   2.228 -0.1904  0.6565 -0.4267
12322TIP3   OH236906   1.191   1.412   2.779 -0.4162 -0.4823 -0.4534
12322TIP3    H136907   1.236   1.486   2.820 -0.6744 -0.7979  0.4301
12322TIP3    H236908   1.261   1.350   2.757 -0.2047 -0.0094 -1.1477
12323TIP3   OH236909   6.911   1.643   1.633 -0.4855  0.4698  0.0765
12323TIP3    H136910   6.992   1.615   1.676 -0.2963 -0.2174 -0.6859
12323TIP3    H236911   6.851   1.569   1.644 -1.4493  1.4385  1.6762
12324TIP3   OH236912   5.479   4.499   0.449 -0.0998 -0.1717 -0.5416
12324TIP3    H136913   5.475   4.445   0.370  0.5825  2.1385 -2.2672
12324TIP3    H236914   5.570   4.531   0.452 -0.5313  1.0810  0.2362
12325TIP3   OH236915   6.729   6.005   6.175 -0.3653 -0.3853 -0.3595
12325TIP3    H136916   6.749   6.013   6.268 -0.2149 -0.5244 -0.3810
12325TIP3    H236917   6.801   5.954   6.139 -0.4234 -0.3310 -0.5523
12326TIP3   OH236918   0.224   6.291   5.524 -0.2203  0.4303  0.1763
12326TIP3    H136919   0.317   6.270   5.525 -0.4115 -0.8951 -1.9404
12326TIP3    H236920   0.220   6.385   5.540  1.5146  0.5533  0.0347
12327TIP3   OH236921   2.147   3.270   2.898  0.3632  0.0434  0.0993
12327TIP3    H136922   2.225   3.303   2.943 -0.0224 -0.7384  1.4250
12327TIP3    H236923   2.073   3.306   2.948 -0.0909 -0.7098 -0.0082
12328TIP3   OH236924   5.566   6.276   0.046 -0.6431  0.1112  0.2934
12328TIP3    H136925   5.574   6.193   0.093 -0.1295  0.1284  0.2432
12328TIP3    H236926   5.632   6.332   0.086  2.3695 -0.9369 -2.6710
12329TIP3   OH236927   1.996   7.345   5.366 -0.3266  0.4507  0.0822
12329TIP3    H136928   2.034   7.317   5.449  1.6204 -0.3941 -1.0121
12329TIP3    H236929   1.965   7.264   5.325 -1.5676  0.8944  0.0921
12330TIP3   OH236930   5.370   4.699   0.067  0.5094 -0.2415  0.1815
12330TIP3    H136931   5.294   4.745   0.031 -0.0327 -0.9164  0.4321
12330TIP3    H236932   5.373   4.727   0.158  0.1438 -0.7289  0.3497
12331TIP3   OH236933   3.155   4.601   1.510  0.1236 -0.4252 -0.1965
12331TIP3    H136934   3.069   4.601   1.467  0.9037 -0.6262 -1.8393
12331TIP3    H236935   3.153   4.678   1.567 -1.1526 -0.4533 -0.1654
12332TIP3   OH236936   3.533   3.679   1.391  0.6157 -0.7397 -0.6825
12332TIP3    H136937   3.483   3.753   1.356  1.8330 -0.2965 -1.5333
12332TIP3    H236938   3.582   3.715   1.465  0.2737 -0.9965 -0.3249
12333TIP3   OH236939   1.231   0.784   0.046  0.5810  0.1673 -0.0904
12333TIP3    H136940   1.228   0.877   0.023 -0.2759  0.3282  0.6156
12333TIP3    H236941   1.250   0.783   0.139  1.8541 -0.4182 -0.3419
12334TIP3   OH236942   5.625   1.730   5.165 -0.1641 -0.3636 -0.4217
12334TIP3    H136943   5.583   1.646   5.148 -0.2536 -0.4280  0.1009
12334TIP3    H236944   5.615   1.743   5.259 -0.1032  0.2069 -0.4925
12335TIP3   OH236945   0.627   3.924   2.245 -0.2383  0.1832  0.1085
12335TIP3    H136946   0.702   3.936   2.302 -0.6762  4.2519  0.1136
12335TIP3    H236947   0.552   3.920   2.305 -0.3875  0.6835 -0.0416
12336TIP3   OH236948   8.229   4.026   5.743  0.3367 -0.6497  0.4748
12336TIP3    H136949   8.245   4.115   5.710  1.8249 -0.5324  1.4167
12336TIP3    H236950   8.167   3.988   5.681 -0.8523  1.2603  0.4056
12337TIP3   OH236951   5.324   2.569   2.433  0.4482 -0.3090 -0.1272
12337TIP3    H136952   5.415   2.575   2.402  0.5814  0.3876  0.3930
12337TIP3    H236953   5.328   2.595   2.525 -0.0245 -1.8365  0.3683
12338TIP3   OH236954   3.584   6.044   3.901 -0.1079  0.3977  0.3344
12338TIP3    H136955   3.659   6.066   3.956  0.2871 -0.2710  0.0719
12338TIP3    H236956   3.602   6.088   3.818  0.1732 -0.0556  0.1528
12339TIP3   OH236957   0.892   1.583   0.165  0.5449  0.3148 -0.0677
12339TIP3    H136958   0.814   1.564   0.112  0.7107 -0.9847  0.1289
12339TIP3    H236959   0.861   1.646   0.230 -0.3454 -0.1829  0.0070
12340TIP3   OH236960   2.756   0.104   4.789  0.0158  0.3225  0.3442
12340TIP3    H136961   2.765   0.141   4.877  0.8602  0.3204  0.2678
12340TIP3    H236962   2.707   0.023   4.802  0.9405 -0.1561  0.9469
12341TIP3   OH236963   5.040   7.850   5.857  0.3985 -0.0524  0.2570
12341TIP3    H136964   4.991   7.904   5.919  1.8131 -0.6540  2.0010
12341TIP3    H236965   4.999   7.867   5.772 -1.5578  0.8877  1.3279
12342TIP3   OH236966   7.962   6.833   3.580 -0.4107 -0.7571  0.1863
12342TIP3    H136967   7.951   6.869   3.668 -2.1695 -1.4556  0.2976
12342TIP3    H236968   7.873   6.815   3.550  0.2227 -1.8056 -1.2054
12343TIP3   OH236969   5.158   0.671   1.428  0.5480 -0.0648  0.0647
12343TIP3    H136970   5.105   0.702   1.354  0.2252  0.0116  0.3267
12343TIP3    H236971   5.095   0.635   1.489  0.7887  0.1406  0.4362
12344TIP3   OH236972   3.741   6.371   2.510  0.1032  0.3830  0.3247
12344TIP3    H136973   3.714   6.303   2.572 -0.8868  0.4462 -0.0344
12344TIP3    H236974   3.781   6.439   2.565 -1.4445  0.7844  0.9923
12345TIP3   OH236975   5.571   7.069   4.174  0.4354 -0.5538  0.1064
12345TIP3    H136976   5.618   7.130   4.118  0.4364 -0.6345  0.0195
12345TIP3    H236977   5.479   7.090   4.161  0.4545 -0.2839  0.4046
12346TIP3   OH236978   2.038   3.869   6.028 -0.0120 -0.2971  0.3426
12346TIP3    H136979   2.028   3.809   6.101 -0.5428  0.6637  1.0921
12346TIP3    H236980   2.121   3.844   5.987 -0.2158 -1.4985  0.6523
12347TIP3   OH236981   1.031   1.461   3.543  0.2931  0.8703 -0.6233
12347TIP3    H136982   1.097   1.402   3.579  0.2453  1.1936 -0.0013
12347TIP3    H236983   0.995   1.413   3.468 -2.6228 -1.7238  2.1379
12348TIP3   OH236984   5.421   6.829   6.179  0.5218  0.5010  0.2553
12348TIP3    H136985   5.328   6.850   6.172 -0.0286 -1.6054  0.4478
12348TIP3    H236986   5.463   6.912   6.200 -1.6076  1.0973  2.5749
12349TIP3   OH236987   3.950   4.576   6.351 -0.4482  0.2080  0.2905
12349TIP3    H136988   3.885   4.511   6.379  0.1471 -0.7683 -0.5525
12349TIP3    H236989   3.943   4.646   6.416 -1.2055 -0.6274  1.1364
12350TIP3   OH236990   0.111   0.805   0.818  0.7017  0.6183  0.1351
12350TIP3    H136991   0.101   0.742   0.747 -1.3367 -0.3796  1.1941
12350TIP3    H236992   0.200   0.793   0.850  1.0658 -0.1413 -1.1163
12351TIP3   OH236993   0.353   1.401   5.371  0.3438  0.2508  0.2772
12351TIP3    H136994   0.368   1.328   5.311  0.3759  0.2102  0.3340
12351TIP3    H236995   0.259   1.415   5.367  0.2582 -0.1663  0.6956
12352TIP3   OH236996   0.056   2.473   6.153  0.9931 -0.0350 -0.5035
12352TIP3    H136997  -0.019   2.440   6.104  1.0443 -0.7534 -0.1099
12352TIP3    H236998   0.020   2.497   6.239  1.0953  0.2121 -0.5304
12353TIP3   OH236999   0.913   2.704   5.326  0.4730 -0.2363 -0.9074
12353TIP3    H137000   0.850   2.773   5.348  0.4088 -0.6464  0.2692
12353TIP3    H237001   0.994   2.732   5.369  0.2010 -1.3306  0.3665
12354TIP3   OH237002   6.084   1.727   4.035 -0.3948  0.4250 -0.2150
12354TIP3    H137003   6.075   1.823   4.032 -1.1927  0.3657  0.0802
12354TIP3    H237004   6.001   1.695   3.999  0.1148 -0.1623 -0.9022
12355TIP3   OH237005   2.733   7.484   1.592 -0.2993  0.1591 -0.1920
12355TIP3    H137006   2.766   7.490   1.502 -0.2246  0.7660 -0.1320
12355TIP3    H237007   2.783   7.413   1.631 -1.3329 -1.0798 -1.0413
12356TIP3   OH237008   2.133   6.507   1.027 -0.1316  0.2527  0.3661
12356TIP3    H137009   2.176   6.582   0.985 -1.6756  0.8096 -0.3044
12356TIP3    H237010   2.102   6.541   1.110 -0.7360  0.3367  0.1101
12357TIP3   OH237011   8.187   6.771   1.773  0.8429 -0.0932 -0.2762
12357TIP3    H137012   8.233   6.719   1.706  2.5632 -0.1500  0.8664
12357TIP3    H237013   8.222   6.738   1.856 -1.0609  0.1347  0.6606
12358TIP3   OH237014   4.453   4.121   0.179  0.2613 -0.0560 -0.1027
12358TIP3    H137015   4.420   4.143   0.266 -1.3429  1.6925 -1.0963
12358TIP3    H237016   4.491   4.202   0.146  0.2077 -0.4936 -1.3103
12359TIP3   OH237017   5.201   3.765   3.692  0.1923 -0.4679 -0.4475
12359TIP3    H137018   5.217   3.851   3.730 -1.4026 -0.2817 -0.1032
12359TIP3    H237019   5.137   3.782   3.623 -2.7651 -1.7145  1.7714
12360TIP3   OH237020   1.207   3.849   6.380 -0.1003 -0.2102 -0.0239
12360TIP3    H137021   1.183   3.765   6.418 -1.5147  0.1588 -0.0633
12360TIP3    H237022   1.293   3.833   6.340  0.1526 -1.3251  0.9103
12361TIP3   OH237023   0.923   5.888   0.638 -0.1258  0.2779 -0.4024
12361TIP3    H137024   0.955   5.804   0.670 -0.7777 -0.2443 -1.0885
12361TIP3    H237025   0.980   5.953   0.680 -0.1139 -0.4491  0.7490
12362TIP3   OH237026   2.362   0.424   1.766  0.0222  0.1342  0.5185
12362TIP3    H137027   2.295   0.357   1.777  1.7360 -2.0298 -1.3157
12362TIP3    H237028   2.316   0.496   1.723 -1.5760 -0.3689  1.2892
12363TIP3   OH237029   2.096   3.431   3.468  0.2562 -0.3571  0.0287
12363TIP3    H137030   2.191   3.424   3.475  0.3969  0.8374 -0.5554
12363TIP3    H237031   2.076   3.396   3.381  0.3515  0.9807 -0.5430
12364TIP3   OH237032   2.200   1.371   2.717 -0.2957  0.0562 -0.2534
12364TIP3    H137033   2.166   1.336   2.799 -0.6108 -0.9266 -0.7839
12364TIP3    H237034   2.295   1.361   2.724 -0.3114  0.1121  0.0460
12365TIP3   OH237035   6.498   7.774   2.432 -0.3124  0.2156 -0.2988
12365TIP3    H137036   6.448   7.823   2.497 -0.0294  1.7268 -1.1892
12365TIP3    H237037   6.567   7.834   2.403 -0.9333 -0.0761 -2.6088
12366TIP3   OH237038   3.235   7.599   0.512  0.5669 -0.2332 -0.6044
12366TIP3    H137039   3.220   7.682   0.468  0.3764 -0.2002 -0.4795
12366TIP3    H237040   3.156   7.585   0.566  0.5921 -0.4971 -0.6308
12367TIP3   OH237041   4.173   6.916   3.181  0.4622  0.4229 -0.3926
12367TIP3    H137042   4.079   6.922   3.201  0.1592 -0.8958 -1.2981
12367TIP3    H237043   4.206   6.848   3.239  0.9428  1.0706  0.1168
12368TIP3   OH237044   1.344   6.655   0.687 -0.7569 -0.1892 -0.3694
12368TIP3    H137045   1.357   6.562   0.703  0.7895  0.1933  0.8617
12368TIP3    H237046   1.398   6.674   0.610 -0.1021 -0.0930  0.1063
12369TIP3   OH237047   8.225   2.413   0.236 -0.2018 -0.2466  0.3973
12369TIP3    H137048   8.262   2.502   0.235  0.1701 -0.3791  1.2691
12369TIP3    H237049   8.299   2.357   0.258 -0.4543 -0.7639 -0.0771
12370TIP3   OH237050   6.154   0.308   2.255 -0.6057  0.1369 -0.2015
12370TIP3    H137051   6.090   0.278   2.190 -1.7538 -0.1872  1.0299
12370TIP3    H237052   6.118   0.280   2.339  0.5021  1.1298  0.6449
12371TIP3   OH237053   3.269   2.047   6.326 -0.3058 -0.2251  0.0643
12371TIP3    H137054   3.319   2.093   6.259  0.1220 -0.3339  0.3051
12371TIP3    H237055   3.213   1.987   6.277 -2.0977  1.6928 -0.3638
12372TIP3   OH237056   8.017   3.750   6.294  0.0387  0.2634 -0.2837
12372TIP3    H137057   8.070   3.746   6.373  0.5112 -0.0471 -0.6086
12372TIP3    H237058   8.017   3.660   6.261 -1.4193  0.0695  0.1852
12373TIP3   OH237059   2.214   6.594   3.708 -0.1245  0.1107  0.0130
12373TIP3    H137060   2.158   6.569   3.781 -0.2525  0.9652  0.2160
12373TIP3    H237061   2.298   6.552   3.726  0.9848  3.0219  2.4959
12374TIP3   OH237062   1.330   4.396   6.204  0.4500 -0.1914  0.6976
12374TIP3    H137063   1.299   4.483   6.177  1.4579  0.3296  1.1663
12374TIP3    H237064   1.332   4.401   6.300 -1.0824 -1.3089  0.8219
12375TIP3   OH237065   1.632   4.436   3.779  0.3983 -0.1828 -0.1875
12375TIP3    H137066   1.614   4.482   3.861  0.6121 -0.7813  0.2061
12375TIP3    H237067   1.580   4.356   3.785 -0.0919  0.0683 -0.9320
12376TIP3   OH237068   1.095   7.065   4.919 -0.1697 -0.3762 -0.2532
12376TIP3    H137069   1.098   7.159   4.933  0.0482 -0.3302 -0.5882
12376TIP3    H237070   1.170   7.047   4.862  1.1995 -1.0893  1.6530
12377TIP3   OH237071   1.438   0.240   6.053  0.3815 -0.4465  0.3220
12377TIP3    H137072   1.415   0.271   5.965  2.2105  0.6957  0.1959
12377TIP3    H237073   1.412   0.148   6.053  0.9109 -0.6441 -1.6611
12378TIP3   OH237074   4.826   4.761   4.581  0.0435 -0.3425  0.5520
12378TIP3    H137075   4.878   4.745   4.503  1.7686 -0.6438  1.6898
12378TIP3    H237076   4.759   4.823   4.554 -0.2048 -1.4217 -1.4422
12379TIP3   OH237077   1.921   7.822   0.997 -0.3376  0.1712  0.0854
12379TIP3    H137078   2.002   7.775   1.015 -0.7381 -0.3899  0.4762
12379TIP3    H237079   1.895   7.860   1.081 -0.4586  0.3782 -0.0435
12380TIP3   OH237080   5.758   4.375   5.594 -0.0891 -0.0168  0.0847
12380TIP3    H137081   5.687   4.388   5.657 -0.8575 -1.9760 -0.3019
12380TIP3    H237082   5.817   4.313   5.637 -0.9504 -1.8900 -1.3076
12381TIP3   OH237083   6.466   3.648   4.612 -0.0136 -0.0721 -0.2811
12381TIP3    H137084   6.471   3.552   4.605  0.1696 -0.3041  2.1356
12381TIP3    H237085   6.397   3.663   4.676  2.4069  1.1902  2.2483
12382TIP3   OH237086   6.777   1.540   2.480 -0.6716 -0.1059  0.1368
12382TIP3    H137087   6.845   1.492   2.528  1.0689  0.6793 -1.4260
12382TIP3    H237088   6.738   1.475   2.422  0.6448 -0.0260 -0.8901
12383TIP3   OH237089   6.384   5.442   3.351  0.1587  1.0147 -0.0131
12383TIP3    H137090   6.359   5.523   3.396  0.0540  2.2383 -2.1723
12383TIP3    H237091   6.304   5.412   3.308  0.5379  0.5322 -0.3950
12384TIP3   OH237092   5.416   2.428   5.091  0.2620  0.5830  0.0944
12384TIP3    H137093   5.357   2.381   5.031 -0.1907  1.4910 -0.2038
12384TIP3    H237094   5.361   2.448   5.167  0.9593 -0.9629  1.0437
12385TIP3   OH237095   3.085   1.675   3.830  0.2268  0.0630 -0.3314
12385TIP3    H137096   3.139   1.655   3.754  0.3715 -0.1198 -0.1791
12385TIP3    H237097   3.133   1.744   3.876  1.3500 -1.4853  0.8967
12386TIP3   OH237098   8.126   0.614   0.165  0.1738 -0.3039  0.5203
12386TIP3    H137099   8.201   0.648   0.115 -0.7951  0.0564 -0.7470
12386TIP3    H237100   8.111   0.527   0.128 -0.1986 -0.2592  0.5604
12387TIP3   OH237101   0.401   7.548   1.299  0.2594  0.0223 -0.3522
12387TIP3    H137102   0.347   7.484   1.252  0.7043  0.0656 -0.9368
12387TIP3    H237103   0.387   7.528   1.392  1.4246 -1.8128 -0.5359
12388TIP3   OH237104   6.952   1.665   3.149  0.5906 -0.2456 -0.2965
12388TIP3    H137105   6.859   1.690   3.144  0.0791 -1.4765  1.5502
12388TIP3    H237106   6.979   1.693   3.237  1.5790 -1.0560 -0.3246
12389TIP3   OH237107   5.639   4.369   3.977 -0.3571  0.1181  0.4658
12389TIP3    H137108   5.644   4.303   3.909  0.4977 -0.4281  1.0359
12389TIP3    H237109   5.599   4.445   3.935  0.6263 -0.0265 -0.7763
12390TIP3   OH237110   5.164   2.901   1.941  0.4192  0.0838  0.4029
12390TIP3    H137111   5.072   2.883   1.959  0.4340  0.5581  0.9754
12390TIP3    H237112   5.162   2.980   1.887  0.5232  0.6363  1.1911
12391TIP3   OH237113   2.912   0.388   1.365  0.5140  0.0241  0.0070
12391TIP3    H137114   2.996   0.377   1.319 -1.0698  0.2021 -3.2319
12391TIP3    H237115   2.859   0.314   1.335 -0.4825 -0.1731  2.1123
12392TIP3   OH237116   1.033   1.929   1.844  0.5311 -0.0858  0.4964
12392TIP3    H137117   1.004   1.864   1.781 -0.9767  1.3887 -0.4281
12392TIP3    H237118   0.954   1.977   1.867  1.7409  2.2191  0.1673
12393TIP3   OH237119   6.724   3.434   4.887  0.1253 -0.0606  0.2853
12393TIP3    H137120   6.781   3.485   4.944 -0.8628 -0.4085  1.6077
12393TIP3    H237121   6.636   3.448   4.920 -0.4820 -0.3096 -1.1343
12394TIP3   OH237122   8.135   2.941   2.934  0.6263  0.2427  0.2691
12394TIP3    H137123   8.066   2.893   2.979 -1.0797 -0.5959 -2.9765
12394TIP3    H237124   8.215   2.892   2.956 -0.3394 -1.0724  1.0638
12395TIP3   OH237125   6.835   6.600   1.835 -0.5714  0.1523  0.4385
12395TIP3    H137126   6.863   6.576   1.923  0.6624  0.9754  0.2898
12395TIP3    H237127   6.837   6.695   1.834  0.8228  0.1407 -0.8968
12396TIP3   OH237128   4.061   3.332   4.730  0.1053 -0.2099 -0.3135
12396TIP3    H137129   3.968   3.320   4.713  0.7312 -0.2123 -5.0201
12396TIP3    H237130   4.094   3.243   4.743 -0.0443 -0.6399 -2.5879
12397TIP3   OH237131   2.225   2.485   5.982  0.0276  0.1407  0.0824
12397TIP3    H137132   2.223   2.565   6.035 -0.4304 -1.3070  2.3949
12397TIP3    H237133   2.317   2.465   5.971  0.1408  0.8766 -0.3516
12398TIP3   OH237134   5.776   4.975   5.642  0.0215 -0.4473 -0.1259
12398TIP3    H137135   5.685   5.002   5.628 -1.1434 -1.0956  4.4517
12398TIP3    H237136   5.774   4.880   5.637  0.4346 -0.4687  0.0819
12399TIP3   OH237137   4.708   7.257   2.295  0.4470 -0.4895 -0.3166
12399TIP3    H137138   4.613   7.252   2.305  0.3044 -2.3200 -1.8956
12399TIP3    H237139   4.722   7.330   2.236  0.1816  0.7687  1.1165
12400TIP3   OH237140   1.318   5.561   2.022 -0.2017 -0.1495  0.1565
12400TIP3    H137141   1.412   5.579   2.019 -0.5108  1.5126 -0.9147
12400TIP3    H237142   1.309   5.491   2.087  1.5078  1.4733  2.3275
12401TIP3   OH237143   6.135   5.384   4.577  0.0201 -0.4748  0.6039
12401TIP3    H137144   6.179   5.361   4.659  0.2221 -0.6437  0.4513
12401TIP3    H237145   6.206   5.400   4.516 -0.0185  2.8208  1.2463
12402TIP3   OH237146   4.246   4.706   5.231 -0.1938  0.1596  0.2996
12402TIP3    H137147   4.187   4.655   5.175  0.6036  0.2453 -0.6411
12402TIP3    H237148   4.326   4.653   5.237 -0.9899 -0.9178  3.1906
12403TIP3   OH237149   6.940   1.690   5.996 -0.1790  0.3930 -0.2903
12403TIP3    H137150   6.878   1.763   5.995  0.5118  1.0120  0.3033
12403TIP3    H237151   6.981   1.693   5.909  0.0729  0.9165 -0.1567
12404TIP3   OH237152   3.981   7.068   4.681  0.0584  0.3992  0.1025
12404TIP3    H137153   3.887   7.082   4.694  0.0981  2.3099 -1.2541
12404TIP3    H237154   3.988   7.039   4.590  0.8414  1.1800 -0.0923
12405TIP3   OH237155   0.712   1.741   4.180  0.1849 -0.2024  0.0841
12405TIP3    H137156   0.731   1.648   4.190  1.5440  0.2497  2.1687
12405TIP3    H237157   0.762   1.767   4.102 -1.2799 -1.4326 -1.3462
12406TIP3   OH237158   5.286   2.925   0.297  0.5827  0.0529  0.4701
12406TIP3    H137159   5.258   2.919   0.388 -1.5988  1.4884 -0.0347
12406TIP3    H237160   5.206   2.911   0.246  1.8231 -1.1692 -1.2818
12407TIP3   OH237161   3.738   2.174   3.284  0.0362  0.0075 -0.6801
12407TIP3    H137162   3.664   2.196   3.340 -0.1260  0.4952 -1.0781
12407TIP3    H237163   3.760   2.256   3.239  1.6937  0.2317  0.4442
12408TIP3   OH237164   0.815   2.317   5.077 -0.0550 -0.5375  0.0284
12408TIP3    H137165   0.756   2.339   5.004 -0.3171 -0.1246  0.3588
12408TIP3    H237166   0.756   2.302   5.151  0.2855  0.9659  0.6490
12409TIP3   OH237167   4.674   1.383   2.584 -0.3204 -0.2009  0.0221
12409TIP3    H137168   4.642   1.448   2.521  1.5039 -0.0697 -0.8428
12409TIP3    H237169   4.760   1.356   2.550  0.1463 -1.1094  1.7615
12410TIP3   OH237170   0.468   6.274   5.930 -0.2903 -0.2143  0.3903
12410TIP3    H137171   0.562   6.261   5.919 -0.6362 -1.1217 -2.5393
12410TIP3    H237172   0.459   6.365   5.958  1.4444  0.2145 -0.2908
12411TIP3   OH237173   1.193   1.712   3.022  0.1725 -0.0642  0.1621
12411TIP3    H137174   1.268   1.659   3.050  0.3517 -1.4892 -2.5711
12411TIP3    H237175   1.204   1.796   3.066  1.9884 -1.0740  1.7533
12412TIP3   OH237176   8.188   7.273   3.835 -0.5760  0.6294 -0.3909
12412TIP3    H137177   8.168   7.287   3.743 -2.7391  0.2757 -0.0440
12412TIP3    H237178   8.252   7.202   3.835 -1.0040  0.2141 -1.6114
12413TIP3   OH237179   7.728   0.788   0.342 -0.1056 -0.2353 -0.5284
12413TIP3    H137180   7.672   0.724   0.387  0.5340  1.1842  2.5601
12413TIP3    H237181   7.787   0.734   0.289  1.1384 -2.4402  2.7822
12414TIP3   OH237182   2.862   5.515   6.688  0.2275  1.0911  0.4322
12414TIP3    H137183   2.871   5.422   6.670  0.2283  1.3639 -1.1186
12414TIP3    H237184   2.950   5.544   6.712  0.0928  0.5778  1.6074
12415TIP3   OH237185   6.247   1.444   5.317  0.1472  0.6785 -0.0158
12415TIP3    H137186   6.188   1.369   5.320  0.0007  0.6027 -2.6568
12415TIP3    H237187   6.328   1.413   5.358 -0.7921 -0.0095  1.3878
12416TIP3   OH237188   6.191   0.648   2.752  0.1026 -0.2152 -0.4541
12416TIP3    H137189   6.199   0.726   2.807  2.3024 -0.6644 -0.0546
12416TIP3    H237190   6.187   0.682   2.662 -0.4571  0.3893 -0.2117
12417TIP3   OH237191   7.542   4.483   2.318 -0.2319  0.9022  0.6197
12417TIP3    H137192   7.486   4.532   2.258  0.1580  0.4451 -0.1337
12417TIP3    H237193   7.533   4.529   2.402  0.3793  2.4681 -0.1247
12418TIP3   OH237194   3.492   3.498   1.678 -0.0623  0.8216  0.0129
12418TIP3    H137195   3.517   3.457   1.595  0.3573 -0.2547  0.6500
12418TIP3    H237196   3.564   3.557   1.698 -0.2432  1.2108 -0.4626
12419TIP3   OH237197   1.192   7.883   4.281  0.3738  0.8592 -0.0861
12419TIP3    H137198   1.277   7.928   4.280  0.7114  0.2382  0.0408
12419TIP3    H237199   1.214   7.791   4.296 -0.1698  0.3821 -1.9555
12420TIP3   OH237200   1.543   1.493   5.884 -0.4642  0.2719 -0.3207
12420TIP3    H137201   1.531   1.398   5.885  0.8642  0.0466  2.0323
12420TIP3    H237202   1.455   1.529   5.891 -1.1782 -0.6464 -3.0472
12421TIP3   OH237203   1.612   1.238   1.186 -0.6632 -0.2330  0.9318
12421TIP3    H137204   1.656   1.321   1.166  0.7782 -1.4123 -1.2363
12421TIP3    H237205   1.520   1.255   1.170 -0.3439  0.8852  0.1531
12422TIP3   OH237206   3.253   5.706   6.439  0.6649  0.2526  0.2970
12422TIP3    H137207   3.200   5.658   6.503 -0.6371  2.2117  0.7965
12422TIP3    H237208   3.328   5.737   6.489  0.9647 -0.3525  0.2296
12423TIP3   OH237209   2.232   7.218   4.396  0.5592  0.2234  0.1901
12423TIP3    H137210   2.178   7.152   4.439  1.3836 -0.3008  0.4374
12423TIP3    H237211   2.253   7.180   4.311  1.8898 -0.3124  0.7255
12424TIP3   OH237212   0.481   7.689   4.239  0.2175  0.4276 -0.7664
12424TIP3    H137213   0.555   7.659   4.187 -0.6885  0.2034 -1.9644
12424TIP3    H237214   0.411   7.706   4.175 -1.2303 -0.7000  0.4255
12425TIP3   OH237215   2.323   6.288   3.035  0.6141 -0.6274  0.4859
12425TIP3    H137216   2.268   6.292   2.956  0.4719  2.8224  0.6061
12425TIP3    H237217   2.268   6.245   3.100 -0.9079  0.2705 -0.1591
12426TIP3   OH237218   7.384   1.696   0.890  0.8242 -0.4189 -0.4144
12426TIP3    H137219   7.403   1.714   0.982  0.8419  2.0560 -0.8234
12426TIP3    H237220   7.469   1.698   0.847  0.6552  0.3057 -0.7331
12427TIP3   OH237221   0.766   5.291   5.580 -0.4675  0.3597 -0.1442
12427TIP3    H137222   0.711   5.325   5.509 -1.8500 -0.9858  0.2091
12427TIP3    H237223   0.705   5.279   5.654 -0.0486 -2.2926 -0.1049
12428TIP3   OH237224   8.413   0.399   2.928  0.0755 -0.1429 -0.0468
12428TIP3    H137225   8.341   0.375   2.871  1.1910 -0.2101 -1.4872
12428TIP3    H237226   8.398   0.350   3.009 -1.4066 -0.2270 -0.3619
12429TIP3   OH237227   1.245   7.430   5.747  0.4305  0.4869  0.2871
12429TIP3    H137228   1.329   7.475   5.758 -0.3950  2.2093 -0.1992
12429TIP3    H237229   1.255   7.382   5.665  0.4531  1.8427 -0.5204
12430TIP3   OH237230   0.460   7.619   4.704 -0.6674 -0.7268  0.2939
12430TIP3    H137231   0.484   7.612   4.796  0.0047 -0.0858  0.1743
12430TIP3    H237232   0.371   7.655   4.705 -0.3039  0.1857  0.6793
12431TIP3   OH237233   3.914   3.902   6.200  0.4462 -0.2930  0.2451
12431TIP3    H137234   3.945   3.880   6.288  0.0638 -0.7652  0.2636
12431TIP3    H237235   3.968   3.850   6.141  0.8168  0.1519  0.1905
12432TIP3   OH237236   7.619   4.504   6.129 -0.1345 -0.8538 -0.5990
12432TIP3    H137237   7.618   4.485   6.036  0.0003 -0.1594 -0.7502
12432TIP3    H237238   7.656   4.592   6.135 -0.9947 -0.5177  0.0353
12433TIP3   OH237239   7.492   6.414   0.810 -0.3165  0.0330 -0.2113
12433TIP3    H137240   7.416   6.358   0.827 -2.1223  1.0818 -3.8358
12433TIP3    H237241   7.537   6.371   0.737  0.2422  1.4763 -0.7533
12434TIP3   OH237242   4.986   0.529   0.094 -0.5101 -0.4614  0.1423
12434TIP3    H137243   5.018   0.608   0.050 -0.5477 -0.3663  0.2834
12434TIP3    H237244   5.050   0.461   0.072 -0.3505 -0.3334  0.2143
12435TIP3   OH237245   2.454   2.107   6.646  0.4453 -0.2130 -0.7698
12435TIP3    H137246   2.469   2.033   6.587 -2.1358 -0.4845 -1.2387
12435TIP3    H237247   2.358   2.113   6.651  0.6061  1.3906  1.4360
12436TIP3   OH237248   2.092   0.793   5.531 -0.0039  0.0799 -0.2227
12436TIP3    H137249   2.046   0.834   5.457 -1.2656  0.5832  0.8119
12436TIP3    H237250   2.028   0.734   5.570  0.6787 -0.2522  0.4326
12437TIP3   OH237251   7.228   6.834   0.809 -0.3448 -0.2105  0.6525
12437TIP3    H137252   7.249   6.927   0.804  0.8483 -0.5431 -1.1424
12437TIP3    H237253   7.309   6.793   0.837 -0.6184 -0.8082  0.5736
12438TIP3   OH237254   3.915   5.111   3.442  0.0730 -0.0602 -1.1372
12438TIP3    H137255   3.902   5.177   3.374 -1.0215 -0.4248 -1.2950
12438TIP3    H237256   3.905   5.027   3.396  2.2833 -0.3953 -1.1215
12439TIP3   OH237257   1.430   5.473   3.627  0.5896 -0.0601 -0.0302
12439TIP3    H137258   1.428   5.477   3.531  2.2418 -3.3782 -0.3695
12439TIP3    H237259   1.357   5.414   3.649 -1.1930  2.3889  1.0599
12440TIP3   OH237260   2.818   3.418   3.716 -0.1989 -0.5536  0.5525
12440TIP3    H137261   2.905   3.380   3.705 -0.6749 -1.3343 -0.8426
12440TIP3    H237262   2.782   3.373   3.792  0.3184 -0.8073  0.6505
12441TIP3   OH237263   5.025   6.443   5.624 -0.0343 -0.3048  0.7645
12441TIP3    H137264   5.112   6.413   5.599 -0.0346  0.4075 -0.1767
12441TIP3    H237265   4.967   6.403   5.559 -0.3204 -0.1865  0.9448
12442TIP3   OH237266   1.110   6.071   1.164 -0.1639  0.0941  0.3147
12442TIP3    H137267   1.191   6.109   1.198 -0.1734  0.2533  0.1601
12442TIP3    H237268   1.082   6.132   1.095 -0.7900  0.4085  0.8416
12443TIP3   OH237269   6.591   7.849   3.965  0.1211 -0.3915  0.4878
12443TIP3    H137270   6.638   7.792   4.026  1.5004  0.0522 -0.1330
12443TIP3    H237271   6.594   7.803   3.882 -0.1929 -0.1608  0.3475
12444TIP3   OH237272   1.916   1.745   2.818 -0.5505  0.3581 -0.4693
12444TIP3    H137273   1.992   1.741   2.876 -0.4951  0.7046 -0.5122
12444TIP3    H237274   1.948   1.708   2.735 -0.3018  0.8736 -0.6124
12445TIP3   OH237275   3.280   4.786   4.746  0.1198 -0.0793  0.6973
12445TIP3    H137276   3.218   4.824   4.808 -2.2446  1.0536 -2.1610
12445TIP3    H237277   3.339   4.858   4.724  1.2808 -0.6151  1.8753
12446TIP3   OH237278   1.292   4.145   6.419  0.6506  0.1443 -0.3937
12446TIP3    H137279   1.254   4.154   6.506 -1.6046  0.5013 -1.3500
12446TIP3    H237280   1.233   4.085   6.374  1.2267  0.7195 -1.9671
12447TIP3   OH237281   0.714   1.355   2.257  0.1421  0.2538  0.0315
12447TIP3    H137282   0.637   1.299   2.251 -1.4583  2.4130 -3.7448
12447TIP3    H237283   0.788   1.296   2.241 -1.1771 -1.2571 -0.8671
12448TIP3   OH237284   0.438   3.839   1.843 -0.1062 -0.0753  0.0270
12448TIP3    H137285   0.503   3.904   1.817 -0.5790  0.7225  0.7470
12448TIP3    H237286   0.485   3.779   1.901 -0.1567  0.9244  1.1405
12449TIP3   OH237287   6.489   2.994   6.151 -0.3792  0.0925  0.1619
12449TIP3    H137288   6.539   2.916   6.175  1.0438  0.8016 -0.3646
12449TIP3    H237289   6.399   2.963   6.143  0.0745 -1.3907  0.4219
12450TIP3   OH237290   1.962   0.040   4.284  0.8189  0.0802  0.5506
12450TIP3    H137291   1.976   0.134   4.286 -0.2091  0.2436  0.7009
12450TIP3    H237292   2.046   0.003   4.256  1.7209  0.9100  2.0912
12451TIP3   OH237293   4.197   4.195   1.227  0.6716  0.3455  0.1381
12451TIP3    H137294   4.233   4.116   1.188  1.6763 -0.0807  1.8085
12451TIP3    H237295   4.106   4.174   1.245  0.8311 -0.3039  0.2038
12452TIP3   OH237296   0.792   6.078   4.476 -0.1881  0.1675 -0.3036
12452TIP3    H137297   0.823   6.060   4.388  0.3515  1.2969 -0.3540
12452TIP3    H237298   0.697   6.088   4.466 -0.0036  1.3991 -0.9542
12453TIP3   OH237299   4.031   6.165   3.229  0.4928 -0.0117 -0.1647
12453TIP3    H137300   3.975   6.088   3.220  0.4504 -0.1743  1.2841
12453TIP3    H237301   3.988   6.232   3.176 -0.8432 -0.2767  0.5276
12454TIP3   OH237302   4.376   7.563   2.304  0.1404  0.2527  0.2250
12454TIP3    H137303   4.381   7.468   2.308  0.2853  0.2834  1.2016
12454TIP3    H237304   4.343   7.583   2.217  0.8260 -0.6627 -0.2592
12455TIP3   OH237305   6.189   4.588   0.701 -0.4785  0.1706  0.1506
12455TIP3    H137306   6.197   4.540   0.618  1.7503 -0.2348  0.5248
12455TIP3    H237307   6.241   4.667   0.688 -0.3938  0.2662  1.0526
12456TIP3   OH237308   1.363   7.301   0.252 -0.4428  0.2583  0.6068
12456TIP3    H137309   1.342   7.380   0.300 -1.9872 -0.2530  0.8333
12456TIP3    H237310   1.323   7.313   0.166  0.1291  0.1085  0.3113
12457TIP3   OH237311   0.836   0.105   3.840  0.2356 -0.0058  0.6410
12457TIP3    H137312   0.894   0.041   3.882  1.4119  1.0247  0.6220
12457TIP3    H237313   0.871   0.114   3.751 -0.7334 -0.3067  0.2157
12458TIP3   OH237314   1.055   2.279   6.109  0.3561  0.2689 -0.3725
12458TIP3    H137315   0.980   2.306   6.162  1.1210  0.5214  0.6121
12458TIP3    H237316   1.131   2.315   6.155  1.1238 -0.4578 -1.0402
12459TIP3   OH237317   2.947   3.612   2.012 -0.1138 -0.1544 -0.2750
12459TIP3    H137318   2.870   3.611   1.954 -1.1543  2.1875  0.9181
12459TIP3    H237319   3.021   3.623   1.952 -1.0268  0.7928 -1.2912
12460TIP3   OH237320   2.181   5.030   4.759  0.6257  0.4595  0.1064
12460TIP3    H137321   2.179   4.966   4.688  3.6802  2.0616 -1.6306
12460TIP3    H237322   2.161   5.114   4.717 -1.7513  0.9821  2.0334
12461TIP3   OH237323   0.659   2.763   3.741  0.4639  0.5928  0.1929
12461TIP3    H137324   0.656   2.679   3.788 -0.5346  1.1035  1.0992
12461TIP3    H237325   0.575   2.767   3.696 -0.0696  1.6670  1.2227
12462TIP3   OH237326   8.108   2.882   1.995  0.1654 -0.5255 -0.5621
12462TIP3    H137327   8.085   2.796   2.029 -1.7526  0.2357  0.2273
12462TIP3    H237328   8.059   2.944   2.050  0.0166  0.9555 -2.2544
12463TIP3   OH237329   5.010   7.202   0.855  0.6444 -0.0798  0.1676
12463TIP3    H137330   4.984   7.280   0.904  0.3927 -0.1731  0.1870
12463TIP3    H237331   4.951   7.200   0.780  0.2042 -0.6115  0.5230
12464TIP3   OH237332   5.008   2.631   1.399  0.5674  0.3600 -0.2811
12464TIP3    H137333   4.984   2.542   1.373 -3.5626  0.3622  2.5152
12464TIP3    H237334   5.094   2.622   1.440 -0.2249 -2.6476  0.9859
12465TIP3   OH237335   6.412   3.651   1.742  0.0093  0.1602  0.5341
12465TIP3    H137336   6.482   3.704   1.703 -0.1399 -0.1141 -0.1045
12465TIP3    H237337   6.345   3.644   1.674  0.1578 -1.0929  0.4914
12466TIP3   OH237338   4.546   4.372   3.607 -0.2476  0.1495 -0.1053
12466TIP3    H137339   4.485   4.300   3.624 -1.8378  1.6788  0.9749
12466TIP3    H237340   4.510   4.416   3.530 -0.3925  0.9068  0.3846
12467TIP3   OH237341   7.232   7.329   1.106 -0.0013 -0.1507  0.3923
12467TIP3    H137342   7.211   7.352   1.016  2.7327  0.5286 -0.1702
12467TIP3    H237343   7.154   7.283   1.138 -2.5255  2.7897 -1.0406
12468TIP3   OH237344   0.157   1.800   6.189  0.4785  1.0095  0.0968
12468TIP3    H137345   0.123   1.767   6.272 -0.6078  0.7517 -0.4376
12468TIP3    H237346   0.145   1.895   6.195  1.6887  1.1482  0.7799
12469TIP3   OH237347   0.377   5.495   2.132 -0.0752 -0.3219 -0.0908
12469TIP3    H137348   0.313   5.425   2.122 -1.0046 -0.0360  3.0384
12469TIP3    H237349   0.451   5.454   2.177 -0.0879  0.4021  0.6129
12470TIP3   OH237350   0.172   2.225   5.225  0.1670 -0.0477 -0.0302
12470TIP3    H137351   0.149   2.318   5.214  1.6404  0.3880  0.3318
12470TIP3    H237352   0.144   2.203   5.313  0.3663  0.2440  0.1088
12471TIP3   OH237353   6.784   2.484   5.238  0.2505  0.3473 -0.1039
12471TIP3    H137354   6.752   2.519   5.155 -0.0738  2.1995  0.7463
12471TIP3    H237355   6.846   2.550   5.269 -0.9772  0.6060  1.9609
12472TIP3   OH237356   2.292   1.891   5.115  0.4029 -0.1696  0.2942
12472TIP3    H137357   2.381   1.873   5.086  0.2243 -0.4474 -0.0882
12472TIP3    H237358   2.268   1.816   5.169  1.1356  0.8428  2.1497
12473TIP3   OH237359   7.765   2.711   5.178  0.4890  0.2110 -0.0417
12473TIP3    H137360   7.822   2.669   5.243  0.5880 -2.0247 -1.4283
12473TIP3    H237361   7.676   2.688   5.205  0.5030 -0.2186 -0.3426
12474TIP3   OH237362   6.910   6.444   2.070 -0.1260 -0.6659  0.3278
12474TIP3    H137363   6.815   6.447   2.077  0.0223  1.2064  2.8301
12474TIP3    H237364   6.932   6.351   2.078 -1.6887 -0.9930  1.0959
12475TIP3   OH237365   7.749   3.054   2.465 -0.3271  0.1164 -0.2452
12475TIP3    H137366   7.693   2.983   2.498  2.2771 -0.9770  2.3636
12475TIP3    H237367   7.749   3.043   2.370 -0.9609 -2.6894 -0.0097
12476TIP3   OH237368   1.433   4.084   3.588  0.6717 -0.0743 -0.1387
12476TIP3    H137369   1.368   4.020   3.558 -0.1849  0.8575 -0.3177
12476TIP3    H237370   1.439   4.147   3.516  2.7567 -0.8070 -0.7108
12477TIP3   OH237371   7.640   2.267   5.902 -0.1441 -0.3943  0.3076
12477TIP3    H137372   7.654   2.176   5.928 -1.5416  0.0007  2.7496
12477TIP3    H237373   7.727   2.307   5.907  0.1008 -1.0460  1.6363
12478TIP3   OH237374   2.524   2.137   1.995 -0.2157  0.2158  0.0204
12478TIP3    H137375   2.588   2.111   1.929 -0.8358 -1.7082  0.0912
12478TIP3    H237376   2.459   2.066   1.994 -1.2084  1.0458  1.4291
12479TIP3   OH237377   7.421   1.396   3.070  0.1715  0.2566  0.2184
12479TIP3    H137378   7.352   1.447   3.113 -0.1165  0.4688 -0.4773
12479TIP3    H237379   7.503   1.437   3.099  0.1911 -1.5074  3.0324
12480TIP3   OH237380   4.594   3.277   6.244  0.3359 -1.1800 -0.4163
12480TIP3    H137381   4.619   3.303   6.332 -0.3833 -1.4792 -0.1114
12480TIP3    H237382   4.570   3.184   6.252 -0.0520 -1.1218 -0.8522
12481TIP3   OH237383   3.963   1.976   1.720  0.5776  0.2093  0.2615
12481TIP3    H137384   3.967   2.005   1.629  0.8653  0.7013  0.4245
12481TIP3    H237385   3.872   1.953   1.734  0.9970 -2.6445 -0.9885
12482TIP3   OH237386   6.601   6.171   3.339  0.4874  0.3839 -0.2941
12482TIP3    H137387   6.510   6.145   3.349  0.7815 -0.1732  1.2725
12482TIP3    H237388   6.614   6.241   3.403  1.2347  0.2473 -0.2799
12483TIP3   OH237389   1.442   4.092   6.785 -0.4065 -0.2148  0.1689
12483TIP3    H137390   1.423   4.002   6.756  1.2073 -0.3300 -0.6465
12483TIP3    H237391   1.518   4.082   6.843 -1.0472  0.4967  1.1503
12484TIP3   OH237392   8.149   7.348   3.592  0.2224  0.0498  0.1005
12484TIP3    H137393   8.068   7.361   3.544 -0.0076  0.5614  0.6174
12484TIP3    H237394   8.205   7.421   3.565 -0.2535  0.8961  1.3051
12485TIP3   OH237395   1.424   1.608   3.125 -0.4387  0.5287  0.2834
12485TIP3    H137396   1.481   1.615   3.201 -0.5467 -0.9029  0.5226
12485TIP3    H237397   1.463   1.540   3.071 -1.8806 -0.4858  0.4543
12486TIP3   OH237398   0.811   3.344   5.508  0.4656  0.0695 -0.1129
12486TIP3    H137399   0.773   3.432   5.512 -0.9237 -0.5364  1.6651
12486TIP3    H237400   0.843   3.335   5.418  2.3381  3.0389  0.0976
12487TIP3   OH237401   0.291   0.356   4.489 -0.2870  0.5668  0.0087
12487TIP3    H137402   0.334   0.337   4.573 -0.8674  1.4433  0.5266
12487TIP3    H237403   0.224   0.421   4.511 -0.9878  0.2126 -1.0050
12488TIP3   OH237404   8.013   7.053   1.523 -0.2412 -0.6280  0.3669
12488TIP3    H137405   7.963   7.116   1.472  1.9507  0.3614 -0.7245
12488TIP3    H237406   7.985   6.967   1.491 -0.1024 -0.0610 -1.3369
12489TIP3   OH237407   3.937   6.532   5.401  0.1273  0.0266 -0.4670
12489TIP3    H137408   3.843   6.548   5.403  0.2030  0.5384 -0.8483
12489TIP3    H237409   3.949   6.455   5.457 -0.4903  0.0766 -0.2539
12490TIP3   OH237410   5.638   5.201   6.325 -0.6499 -0.0502  0.0328
12490TIP3    H137411   5.561   5.164   6.282 -0.1858  0.6614 -1.4346
12490TIP3    H237412   5.618   5.293   6.337 -0.3221 -0.0148  0.3371
12491TIP3   OH237413   7.645   2.172   6.246 -0.2573 -0.2137 -0.7568
12491TIP3    H137414   7.635   2.156   6.152 -2.6193 -0.0008 -0.6030
12491TIP3    H237415   7.597   2.101   6.288 -0.1855  0.3208  0.2678
12492TIP3   OH237416   7.421   0.116   3.771  0.0656  0.8230 -0.1664
12492TIP3    H137417   7.395   0.188   3.828  0.4126 -0.2170  1.3395
12492TIP3    H237418   7.365   0.126   3.694 -0.3189  2.3280  0.2656
12493TIP3   OH237419   1.682   7.608   4.981 -0.0620 -0.1312 -0.3122
12493TIP3    H137420   1.668   7.519   4.947 -1.7219  0.4199 -1.1941
12493TIP3    H237421   1.594   7.645   4.985  0.5498  1.2612  0.6718
12494TIP3   OH237422   8.145   0.252   1.852 -0.2707  0.2460 -0.5224
12494TIP3    H137423   8.105   0.201   1.923  0.9369 -0.6047 -0.4067
12494TIP3    H237424   8.159   0.339   1.889 -1.4242  0.3751 -0.3715
12495TIP3   OH237425   4.112   5.520   3.272  0.2743  0.0857 -0.0927
12495TIP3    H137426   4.152   5.453   3.327  0.3978  1.0883  1.0543
12495TIP3    H237427   4.183   5.550   3.215 -0.3727 -2.6096 -2.5635
12496TIP3   OH237428   6.144   2.910   2.810 -0.5256 -0.0246  0.0914
12496TIP3    H137429   6.209   2.900   2.741 -1.4721 -0.1720 -0.7977
12496TIP3    H237430   6.088   2.833   2.802 -1.5339  0.6926  0.0531
12497TIP3   OH237431   7.541   7.759   6.380 -0.6506  0.1641  0.1675
12497TIP3    H137432   7.624   7.750   6.427 -0.2305  0.9320 -0.3985
12497TIP3    H237433   7.496   7.676   6.394  0.9953 -0.9854 -1.0296
12498TIP3   OH237434   5.756   1.622   0.790 -0.0724  0.2647  0.3302
12498TIP3    H137435   5.794   1.696   0.743 -1.3394  1.0530  0.4967
12498TIP3    H237436   5.784   1.545   0.741  0.9094  0.8652 -0.0958
12499TIP3   OH237437   7.981   6.262   3.801  0.1294  0.5625  0.3098
12499TIP3    H137438   8.026   6.201   3.860 -0.9316  0.1399  0.7179
12499TIP3    H237439   8.007   6.233   3.714 -1.8158 -1.7918  0.3808
12500TIP3   OH237440   0.765   3.121   1.291 -0.0971  0.3622  0.6175
12500TIP3    H137441   0.812   3.067   1.228  0.1303  1.2169  0.0428
12500TIP3    H237442   0.805   3.099   1.376  1.9590  1.6733  0.0568
12501TIP3   OH237443   1.364   7.025   0.251  0.0318  0.0613  0.6155
12501TIP3    H137444   1.447   7.005   0.293  1.8845  1.2248 -2.2409
12501TIP3    H237445   1.361   7.121   0.246  0.2471 -0.0005 -2.3429
12502TIP3   OH237446   0.593   6.088   0.535 -0.5553 -0.2531 -0.6062
12502TIP3    H137447   0.510   6.087   0.583 -0.9008 -0.7810 -1.2044
12502TIP3    H237448   0.583   6.159   0.472  0.2129  0.9941  0.6072
12503TIP3   OH237449   6.285   5.890   6.577  0.5095  0.6265  0.4234
12503TIP3    H137450   6.332   5.807   6.588 -0.4519 -0.0714 -0.6134
12503TIP3    H237451   6.345   5.944   6.525  0.9969  0.4660  0.8103
12504TIP3   OH237452   1.159   3.992   6.150 -0.4386  0.1922  0.7050
12504TIP3    H137453   1.145   3.956   6.238 -0.7453 -0.2279  0.4865
12504TIP3    H237454   1.196   3.920   6.100 -2.2383 -0.2401 -0.0762
12505TIP3   OH237455   8.280   2.444   1.944 -0.2508  0.3301 -0.4428
12505TIP3    H137456   8.189   2.443   1.913 -0.1297 -0.0709 -0.7876
12505TIP3    H237457   8.331   2.466   1.866  0.0623 -0.7650 -0.5557
12506TIP3   OH237458   3.226   1.856   6.511  0.1293 -0.2559 -0.2555
12506TIP3    H137459   3.310   1.849   6.556  0.3042 -0.7164 -0.6366
12506TIP3    H237460   3.237   1.928   6.450  0.1554 -0.1340 -0.1058
12507TIP3   OH237461   2.057   0.427   5.161 -0.2903 -0.3050  0.1575
12507TIP3    H137462   2.025   0.515   5.143 -0.5209 -0.2907  0.6196
12507TIP3    H237463   2.016   0.371   5.095 -0.9344 -0.2220  0.4867
12508TIP3   OH237464   7.650   6.344   5.203  0.4420  0.4693 -0.1452
12508TIP3    H137465   7.681   6.399   5.275 -1.7193  2.5059 -0.6139
12508TIP3    H237466   7.561   6.318   5.229 -0.5304  1.5335 -2.1144
12509TIP3   OH237467   7.524   0.997   2.800 -0.0710 -0.5128 -0.0727
12509TIP3    H137468   7.485   1.084   2.805 -0.9536 -0.9248  0.6242
12509TIP3    H237469   7.610   1.007   2.841  0.0316  0.1287 -0.4290
12510TIP3   OH237470   0.843   2.353   1.368  0.2940  0.1936 -0.5219
12510TIP3    H137471   0.867   2.380   1.456 -1.1214  0.1084 -0.0928
12510TIP3    H237472   0.822   2.260   1.375  0.8075  0.0250 -1.0886
12511TIP3   OH237473   2.278   1.081   1.137 -0.4485 -0.9612  1.0791
12511TIP3    H137474   2.335   1.142   1.184 -0.5975  0.8637 -0.9627
12511TIP3    H237475   2.194   1.088   1.181 -0.2092 -0.4370  1.4612
12512TIP3   OH237476   5.296   1.594   1.252 -0.0046  0.3217 -0.0650
12512TIP3    H137477   5.271   1.524   1.312 -0.0767  0.6364  0.2773
12512TIP3    H237478   5.297   1.553   1.166 -0.2007 -0.0610  0.1138
12513TIP3   OH237479   1.910   2.270   4.070  0.1931 -0.5406  0.1550
12513TIP3    H137480   1.988   2.321   4.092 -0.4084  0.4944 -0.0398
12513TIP3    H237481   1.843   2.300   4.131 -0.1184 -1.2748  0.1913
12514TIP3   OH237482   6.613   3.102   3.042 -0.6224  0.7538  0.2275
12514TIP3    H137483   6.547   3.165   3.013 -0.7449  0.9458  0.9113
12514TIP3    H237484   6.563   3.037   3.092 -0.6315 -0.3880 -1.2117
12515TIP3   OH237485   4.078   2.592   4.181  0.2389  0.3464 -0.1749
12515TIP3    H137486   4.002   2.599   4.123  1.1207 -1.2548 -1.6170
12515TIP3    H237487   4.100   2.499   4.181  0.4280  0.2895  2.6233
12516TIP3   OH237488   1.276   7.654   6.445  0.1329  0.1357  0.1291
12516TIP3    H137489   1.287   7.559   6.447  1.8835  0.2600  3.1920
12516TIP3    H237490   1.205   7.669   6.383  0.6376 -3.0318 -1.4262
12517TIP3   OH237491   7.056   0.300   5.022  0.3130  0.2590  0.4456
12517TIP3    H137492   6.977   0.349   4.997  0.6360  0.7365  0.3500
12517TIP3    H237493   7.097   0.278   4.939 -0.9115 -2.0391  0.3618
12518TIP3   OH237494   5.788   4.542   4.479 -0.3331  0.0033 -0.1616
12518TIP3    H137495   5.857   4.512   4.420  0.4353 -1.8306  1.5479
12518TIP3    H237496   5.812   4.505   4.564 -0.4094  3.9565  1.8023
12519TIP3   OH237497   5.729   6.469   0.178  0.3494  0.3791 -0.1623
12519TIP3    H137498   5.707   6.562   0.184  2.1231  0.9120 -1.3031
12519TIP3    H237499   5.780   6.451   0.257 -1.8338 -0.2387  1.1989
12520TIP3   OH237500   8.132   2.960   2.346 -0.1028  0.1054  0.3471
12520TIP3    H137501   8.152   2.978   2.438 -2.8725 -0.1011  1.0902
12520TIP3    H237502   8.119   3.047   2.308 -1.7154  0.1496  0.9157
12521TIP3   OH237503   5.608   6.290   1.943  0.4437  0.3080 -0.0099
12521TIP3    H137504   5.591   6.375   1.902  1.6364  0.8292  0.5138
12521TIP3    H237505   5.569   6.297   2.030 -0.0850  0.0446 -0.2214
12522TIP3   OH237506   3.937   2.283   1.534  0.2138  0.1790  0.1909
12522TIP3    H137507   3.931   2.192   1.503  2.4397  0.2909 -0.7170
12522TIP3    H237508   3.925   2.276   1.628  2.0095 -1.3315  0.3776
12523TIP3   OH237509   1.878   0.027   4.791 -0.0853  0.5880 -0.0613
12523TIP3    H137510   1.957   0.042   4.740  0.5661 -0.0496  0.7436
12523TIP3    H237511   1.841  -0.054   4.755  0.5827 -0.0752  0.7097
12524TIP3   OH237512   3.645   2.568   5.379  0.3274  0.1658 -0.0042
12524TIP3    H137513   3.557   2.543   5.408 -0.1070  0.4951 -0.9914
12524TIP3    H237514   3.638   2.573   5.284  1.8990 -1.6218 -0.2683
12525TIP3   OH237515   7.324   5.622   3.014  0.7005 -0.3549  0.6626
12525TIP3    H137516   7.302   5.702   3.062  2.7979  1.0539 -0.5882
12525TIP3    H237517   7.250   5.610   2.954  0.2582  0.5172  1.0114
12526TIP3   OH237518   3.812   0.194   3.521 -0.0547 -0.3830 -0.6907
12526TIP3    H137519   3.887   0.234   3.477  0.9276 -0.9465  0.3879
12526TIP3    H237520   3.768   0.143   3.453  1.2280 -0.9808 -1.1032
12527TIP3   OH237521   1.446   7.232   4.340  0.3051 -0.1061  0.4505
12527TIP3    H137522   1.377   7.263   4.398 -0.3080 -0.0186 -0.3063
12527TIP3    H237523   1.518   7.294   4.352  0.1643 -0.0643  1.0741
12528TIP3   OH237524   3.901   2.691   6.163 -0.2824  0.0986 -0.0226
12528TIP3    H137525   3.884   2.765   6.220  1.1573  0.8201 -0.4812
12528TIP3    H237526   3.911   2.729   6.076 -2.2125 -0.9534 -0.7633
12529TIP3   OH237527   8.039   5.683   1.638  0.1908  0.2624  0.5167
12529TIP3    H137528   7.946   5.694   1.660 -0.3471  1.0104 -1.8482
12529TIP3    H237529   8.044   5.594   1.602 -0.3408  1.2368 -2.2355
12530TIP3   OH237530   7.332   6.449   2.445  0.2595 -0.2880 -0.2186
12530TIP3    H137531   7.387   6.408   2.512 -0.5916  1.9732  2.0534
12530TIP3    H237532   7.369   6.421   2.362  2.7411 -1.5218  1.2064
12531TIP3   OH237533   0.484   0.499   4.233  0.4759 -0.7501 -0.0535
12531TIP3    H137534   0.471   0.415   4.190 -0.0629 -0.9044  0.3865
12531TIP3    H237535   0.426   0.496   4.309  0.4915 -0.0055  0.0005
12532TIP3   OH237536   3.530   7.756   3.278  0.3116  0.4410  0.3340
12532TIP3    H137537   3.532   7.825   3.345 -1.3144  0.3167  0.5499
12532TIP3    H237538   3.605   7.700   3.300  0.0855  0.6652  1.7839
12533TIP3   OH237539   1.237   5.879   6.292 -0.4374 -0.6845 -0.4542
12533TIP3    H137540   1.179   5.954   6.304 -1.4990 -1.5531  0.0487
12533TIP3    H237541   1.317   5.901   6.340 -0.1836  0.6821 -1.4542
12534TIP3   OH237542   1.108   6.144   4.107  0.0329 -0.7952  0.2471
12534TIP3    H137543   1.137   6.082   4.040 -0.9597 -2.9729  1.7072
12534TIP3    H237544   1.056   6.091   4.168  0.1856  1.2422  2.2940
12535TIP3   OH237545   2.940   4.899   2.598 -0.4354  0.0556  0.2841
12535TIP3    H137546   2.891   4.974   2.565  3.0394  1.6584 -1.7622
12535TIP3    H237547   2.942   4.837   2.525  1.8599  0.7556 -0.3052
12536TIP3   OH237548   2.040   6.635   2.918  0.3898 -0.0315 -0.2401
12536TIP3    H137549   2.004   6.703   2.861  0.4441  0.5208  0.3729
12536TIP3    H237550   2.099   6.682   2.977 -0.6642 -0.3986  1.1318
12537TIP3   OH237551   4.121   5.371   1.151  0.2700 -0.2741  0.1239
12537TIP3    H137552   4.136   5.461   1.122 -2.1679  0.9445  2.2124
12537TIP3    H237553   4.179   5.318   1.096  1.4585  2.4871 -1.5126
12538TIP3   OH237554   8.051   2.894   1.612  0.2614  0.7171  0.6708
12538TIP3    H137555   8.096   2.890   1.527  1.6329  1.3371  1.3288
12538TIP3    H237556   8.081   2.976   1.651  0.5490 -0.0769  2.2187
12539TIP3   OH237557   2.479   6.871   3.062 -0.8930 -0.3610  0.2898
12539TIP3    H137558   2.413   6.937   3.083 -2.1266 -1.2793 -0.5697
12539TIP3    H237559   2.550   6.888   3.124 -1.3417  1.4951  0.3595
12540TIP3   OH237560   0.066   5.807   1.424 -0.4271  0.3574 -0.0183
12540TIP3    H137561   0.030   5.719   1.436 -1.1879  0.2528 -2.4744
12540TIP3    H237562  -0.004   5.855   1.378 -0.2677  2.4625  1.7491
12541TIP3   OH237563   7.906   4.461   5.337 -0.0272 -0.3327  0.5830
12541TIP3    H137564   7.878   4.535   5.283  1.5311 -1.4657 -1.9510
12541TIP3    H237565   7.993   4.485   5.368  1.4211 -1.7884 -1.9896
12542TIP3   OH237566   1.652   3.080   4.899 -0.1544 -0.2604 -0.1818
12542TIP3    H137567   1.629   3.138   4.826  0.2354 -2.4965 -2.2170
12542TIP3    H237568   1.578   3.020   4.906  0.4707 -0.9968  0.2609
12543TIP3   OH237569   6.173   1.928   5.861  0.1516 -0.6559  0.5291
12543TIP3    H137570   6.199   1.856   5.918  0.7804 -2.0349 -1.3817
12543TIP3    H237571   6.092   1.896   5.819  0.3090 -0.1578 -0.1641
12544TIP3   OH237572   0.885   1.227   6.706  0.1114 -0.1152 -0.4086
12544TIP3    H137573   0.953   1.294   6.703 -0.5049  0.6005  0.7051
12544TIP3    H237574   0.882   1.199   6.797 -2.9856  1.9793  0.2925
12545TIP3   OH237575   3.936   1.889   4.777  0.2941  0.3697 -0.3007
12545TIP3    H137576   3.870   1.922   4.839 -0.6152 -0.7712 -0.6302
12545TIP3    H237577   3.953   1.800   4.806  2.7453  1.0551  0.6001
12546TIP3   OH237578   7.513   2.842   1.213  0.2939  0.3260 -0.1802
12546TIP3    H137579   7.445   2.791   1.169 -0.5631  0.7227  0.6489
12546TIP3    H237580   7.532   2.791   1.292  0.0114  0.8722  0.2450
12547TIP3   OH237581   0.599   6.865   6.373 -0.4454 -0.0310 -0.0200
12547TIP3    H137582   0.591   6.862   6.468 -0.7303 -0.4623 -0.0546
12547TIP3    H237583   0.637   6.951   6.355 -0.1671 -0.0398  0.4967
12548TIP3   OH237584   1.449   1.096   5.141 -0.7529  0.2520  0.7920
12548TIP3    H137585   1.469   1.003   5.144 -1.5990  0.0665  3.2495
12548TIP3    H237586   1.359   1.101   5.108 -0.4190  0.2732 -0.1262
12549TIP3   OH237587   8.297   5.428   5.045 -0.3952  0.0058 -0.1461
12549TIP3    H137588   8.244   5.355   5.013 -1.6360  0.9301 -0.2807
12549TIP3    H237589   8.238   5.478   5.101 -0.4154  2.3177 -2.0700
12550TIP3   OH237590   3.209   3.610   1.250  0.0236  0.3069  0.1544
12550TIP3    H137591   3.255   3.693   1.260 -0.1584  0.6355 -1.5467
12550TIP3    H237592   3.118   3.635   1.233  0.0971 -0.2085 -1.0593
12551TIP3   OH237593   7.279   4.300   6.545  0.3252 -0.8298  0.1375
12551TIP3    H137594   7.290   4.370   6.610 -1.6375  0.0129 -0.3798
12551TIP3    H237595   7.274   4.346   6.461 -0.4030 -1.6299 -0.2684
12552TIP3   OH237596   2.315   5.616   0.188 -0.0912 -0.2594 -0.2975
12552TIP3    H137597   2.331   5.583   0.100 -0.9073  0.0499 -0.5758
12552TIP3    H237598   2.219   5.625   0.193  0.0245  0.8337  0.2065
12553TIP3   OH237599   7.643   5.233   3.376 -0.3300 -0.3865  0.4941
12553TIP3    H137600   7.703   5.159   3.370  1.4856  0.9459  1.3920
12553TIP3    H237601   7.581   5.208   3.445  1.8802 -0.0551  2.7242
12554TIP3   OH237602   4.304   6.051   2.044 -0.0996 -0.7502 -0.2154
12554TIP3    H137603   4.391   6.090   2.029  0.5121 -1.5832  0.9748
12554TIP3    H237604   4.243   6.122   2.024  0.8494 -0.1177 -1.0053
12555TIP3   OH237605   5.677   3.010   0.434  0.7097 -0.1748 -0.6489
12555TIP3    H137606   5.754   2.956   0.416 -0.0246 -3.0765  3.4607
12555TIP3    H237607   5.702   3.061   0.512 -1.0288 -0.0045 -0.1733
12556TIP3   OH237608   6.319   0.626   5.771  0.2910  0.4467 -0.2309
12556TIP3    H137609   6.235   0.587   5.747  0.9717 -1.3484  0.1577
12556TIP3    H237610   6.367   0.634   5.688 -0.4013  1.9224 -0.5222
12557TIP3   OH237611   0.337   5.230   5.901  0.7495  0.2737 -0.5402
12557TIP3    H137612   0.294   5.167   5.843 -2.7594  1.1051  0.8738
12557TIP3    H237613   0.337   5.188   5.987 -0.7023  1.6899  0.2122
12558TIP3   OH237614   5.978   2.943   4.235  0.5189  0.1939 -0.0547
12558TIP3    H137615   5.976   2.988   4.319 -1.6503  1.1279 -0.5387
12558TIP3    H237616   5.933   3.003   4.175 -1.5864 -2.1533 -0.9761
12559TIP3   OH237617   0.684   3.047   0.286  0.3942  0.2879 -0.1427
12559TIP3    H137618   0.678   3.027   0.380  0.9324  1.6745  0.2245
12559TIP3    H237619   0.776   3.031   0.264  0.1190 -0.6686 -0.5971
12560TIP3   OH237620   4.931   6.727   1.889  0.3007  0.3299  0.1721
12560TIP3    H137621   5.022   6.699   1.894 -0.2083 -1.1393  1.8098
12560TIP3    H237622   4.888   6.659   1.838 -0.2232  0.0646  0.9592
12561TIP3   OH237623   0.161   1.868   2.899 -0.1323  0.9144  0.5654
12561TIP3    H137624   0.208   1.804   2.952 -1.3196  0.4320  1.0653
12561TIP3    H237625   0.079   1.825   2.875 -0.4279  1.8070 -0.1158
12562TIP3   OH237626   5.635   5.348   1.596  0.1412 -0.3921 -0.5018
12562TIP3    H137627   5.701   5.394   1.545  1.3460  0.2800  1.5355
12562TIP3    H237628   5.586   5.418   1.640  1.2049 -0.9274  1.6920
12563TIP3   OH237629   1.681   5.809   2.349  0.0825 -0.2586  0.0379
12563TIP3    H137630   1.771   5.795   2.318  1.0335  2.9856  0.9405
12563TIP3    H237631   1.691   5.840   2.439 -1.7262  2.2090 -0.5150
12564TIP3   OH237632   4.533   1.045   0.660  0.0326  0.6286 -0.2379
12564TIP3    H137633   4.478   1.024   0.736  1.1946  1.7845  0.9820
12564TIP3    H237634   4.613   0.993   0.674  0.7276  1.7333 -0.0349
12565TIP3   OH237635   6.485   6.298   3.732 -0.3087  0.0464 -0.5137
12565TIP3    H137636   6.456   6.278   3.821 -0.2069  0.7847 -0.3094
12565TIP3    H237637   6.412   6.268   3.677 -1.7480  2.3229  0.0313
12566TIP3   OH237638   1.930   2.272   0.526  0.1599  0.0049  0.6072
12566TIP3    H137639   1.836   2.290   0.526  0.1338  0.0631  2.3219
12566TIP3    H237640   1.963   2.321   0.602  1.2256 -1.5868  1.2124
12567TIP3   OH237641   3.918   5.028   0.599 -0.4209 -0.1246  0.5505
12567TIP3    H137642   3.881   5.080   0.671 -0.0383 -0.7237  1.1899
12567TIP3    H237643   3.871   4.944   0.604  0.8710 -0.8267  1.2463
12568TIP3   OH237644   4.594   7.162   0.876 -0.7356 -0.5942  0.2259
12568TIP3    H137645   4.518   7.108   0.896 -0.3576 -1.6940 -1.1202
12568TIP3    H237646   4.664   7.125   0.930 -0.6598 -0.9717 -0.1251
12569TIP3   OH237647   7.694   3.247   5.939  0.5219 -0.0617 -0.6980
12569TIP3    H137648   7.635   3.223   5.868 -0.5830 -0.7793  0.4159
12569TIP3    H237649   7.744   3.167   5.956  0.6866  0.0654 -0.5921
12570TIP3   OH237650   1.933   6.879   2.791  0.6327  0.3254  0.4476
12570TIP3    H137651   2.008   6.912   2.742  0.1793  0.8576  0.1063
12570TIP3    H237652   1.861   6.879   2.728  0.2056  0.3713  0.9337
12571TIP3   OH237653   7.789   6.173   0.786  0.0666 -0.1806 -0.0604
12571TIP3    H137654   7.733   6.218   0.723  1.0234 -0.0499 -0.8504
12571TIP3    H237655   7.773   6.216   0.869 -2.2631 -1.2391  0.1261
12572TIP3   OH237656   6.017   2.454   1.273 -0.1382  0.0504 -0.3617
12572TIP3    H137657   6.088   2.451   1.338 -1.8742 -0.2064  1.6248
12572TIP3    H237658   5.965   2.376   1.291 -0.8239  0.1192 -1.9267
12573TIP3   OH237659   6.504   7.589   0.883 -0.4338  0.6875 -0.0856
12573TIP3    H137660   6.549   7.509   0.911 -1.5381  0.3179  0.7263
12573TIP3    H237661   6.527   7.599   0.791  0.4885 -0.0272  0.0521
12574TIP3   OH237662   4.991   2.555   2.138 -0.3017 -0.4581 -0.5717
12574TIP3    H137663   4.987   2.591   2.227 -1.3335 -0.4462 -0.6100
12574TIP3    H237664   4.929   2.481   2.140 -1.6447  0.5971 -1.7456
12575TIP3   OH237665   0.618   1.914   0.431 -0.1426  0.7513 -0.2169
12575TIP3    H137666   0.666   1.897   0.350 -1.3047  1.5685 -1.1015
12575TIP3    H237667   0.555   1.982   0.408 -0.8116  0.6643  1.2606
12576TIP3   OH237668   7.767   5.857   3.267  0.1103  0.4499 -0.0990
12576TIP3    H137669   7.705   5.785   3.285 -0.2186  0.6325 -0.4787
12576TIP3    H237670   7.813   5.870   3.350 -0.7629  0.6922  0.3677
12577TIP3   OH237671   3.118   6.567   6.642 -0.0608  0.1433  0.1101
12577TIP3    H137672   3.201   6.522   6.626  0.0214 -0.1928  1.3544
12577TIP3    H237673   3.140   6.634   6.708 -0.3739  1.4142 -1.0301
12578TIP3   OH237674   2.415   3.237   3.955  0.1918  0.4455  0.2385
12578TIP3    H137675   2.457   3.174   4.014  1.0960 -1.0411 -1.8540
12578TIP3    H237676   2.483   3.303   3.940  0.4862  0.0391 -0.2511
12579TIP3   OH237677   5.008   2.332   1.371 -0.3856  0.0348 -0.5103
12579TIP3    H137678   4.931   2.275   1.372 -1.1251  1.0149 -0.4097
12579TIP3    H237679   5.072   2.286   1.426 -0.6573 -1.0926 -1.0946
12580TIP3   OH237680   0.059   6.220   2.890 -0.4908 -0.5286  0.0636
12580TIP3    H137681   0.112   6.252   2.964  0.0570 -1.3856  0.0603
12580TIP3    H237682   0.031   6.133   2.917  1.4091 -1.7061 -1.5288
12581TIP3   OH237683   1.073   0.544   3.407 -0.0049 -0.0275  0.2252
12581TIP3    H137684   1.135   0.605   3.447 -0.3298  1.2486 -1.1225
12581TIP3    H237685   0.992   0.595   3.396 -1.1286 -1.4784  1.4043
12582TIP3   OH237686   4.989   3.023   4.802 -0.2577 -0.6831 -0.6903
12582TIP3    H137687   4.968   3.030   4.896  3.9482 -1.9300  0.5786
12582TIP3    H237688   4.912   3.059   4.758 -1.3527  2.7269  3.2769
12583TIP3   OH237689   7.210   0.733   6.507 -0.6138  0.3393  0.3210
12583TIP3    H137690   7.166   0.796   6.449 -0.5518  2.1087  2.0759
12583TIP3    H237691   7.140   0.701   6.563 -0.0997  1.5603  1.7305
12584TIP3   OH237692   0.882   0.619   4.580 -0.0908 -0.1430  0.4425
12584TIP3    H137693   0.820   0.547   4.586 -0.3535 -0.0037 -0.5775
12584TIP3    H237694   0.928   0.618   4.665 -0.8542 -0.8016  0.8540
12585TIP3   OH237695   8.315   2.648   4.782  0.0788 -0.4295 -0.2052
12585TIP3    H137696   8.243   2.598   4.820  0.0037 -1.1969 -1.3234
12585TIP3    H237697   8.317   2.730   4.832 -2.2517  0.0620 -0.8338
12586TIP3   OH237698   6.531   0.057   2.077  0.3412  0.3770  0.0291
12586TIP3    H137699   6.551   0.023   1.990 -1.7706  0.3344 -0.4929
12586TIP3    H237700   6.482   0.138   2.060 -0.7001  0.0080  1.1554
12587TIP3   OH237701   5.633   0.276   5.907  0.0787 -0.2029  0.2625
12587TIP3    H137702   5.619   0.369   5.888  0.5260 -0.5123 -1.9621
12587TIP3    H237703   5.545   0.241   5.920 -0.3442  0.1030 -1.4706
12588TIP3   OH237704   6.521   6.215   1.490  0.1771 -0.1518 -0.5256
12588TIP3    H137705   6.433   6.177   1.490  0.3029 -0.5094 -1.9364
12588TIP3    H237706   6.560   6.185   1.571 -0.6571 -0.8351 -0.3564
12589TIP3   OH237707   1.156   4.654   0.755  0.1737 -0.6551  0.2608
12589TIP3    H137708   1.126   4.650   0.665 -2.1069  0.0362  0.9101
12589TIP3    H237709   1.102   4.590   0.802 -0.0054  0.3161  1.4366
12590TIP3   OH237710   2.319   3.889   1.066  0.7145 -0.0975 -0.3367
12590TIP3    H137711   2.349   3.804   1.096  1.5495  0.2957 -0.0310
12590TIP3    H237712   2.233   3.872   1.027  0.2951 -0.8764  0.8680
12591TIP3   OH237713   7.169   1.845   1.087 -0.0067 -0.7898 -0.5405
12591TIP3    H137714   7.215   1.883   1.012 -2.1299  0.7064 -1.1983
12591TIP3    H237715   7.170   1.915   1.153 -0.4736 -1.0714 -0.2267
12592TIP3   OH237716   6.670   4.745   6.167  0.5245  0.6660  0.3176
12592TIP3    H137717   6.748   4.798   6.155  1.0667  0.3313  2.0781
12592TIP3    H237718   6.601   4.793   6.121  1.3607  1.9591  0.3606
12593TIP3   OH237719   5.176   7.263   3.320 -0.0257  0.4068 -0.2070
12593TIP3    H137720   5.231   7.215   3.258  0.6798 -1.0376  1.4447
12593TIP3    H237721   5.192   7.220   3.404 -0.3383  2.7692  1.1416
12594TIP3   OH237722   0.324   2.519   4.136  0.0287 -0.2329  0.4425
12594TIP3    H137723   0.332   2.461   4.060 -0.8978 -0.7327  0.7131
12594TIP3    H237724   0.414   2.548   4.154  0.3252 -0.5199 -0.5191
12595TIP3   OH237725   2.857   7.233   4.862 -0.3612  0.0485  0.2500
12595TIP3    H137726   2.830   7.297   4.928 -0.4883  0.9535 -0.6572
12595TIP3    H237727   2.803   7.252   4.786  1.3718  0.5730 -0.9114
12596TIP3   OH237728   0.233   5.377   0.300 -0.4111 -0.3680 -0.6370
12596TIP3    H137729   0.142   5.350   0.312 -0.4709 -0.9922 -2.2207
12596TIP3    H237730   0.236   5.466   0.335 -1.2612 -0.8466  0.7567
12597TIP3   OH237731   0.903   0.066   1.246 -0.0337  0.4772 -0.5753
12597TIP3    H137732   0.823   0.016   1.233  0.0579  0.7213 -2.2650
12597TIP3    H237733   0.974   0.005   1.223  0.1816  0.7379 -0.6086
12598TIP3   OH237734   6.471   6.373   6.441  0.8115  0.1611  0.3245
12598TIP3    H137735   6.537   6.418   6.388  1.9566 -1.7616  0.0191
12598TIP3    H237736   6.417   6.327   6.377 -1.1704  2.0319  0.5378
12599TIP3   OH237737   3.890   1.768   2.435 -0.2022 -0.7532  0.2482
12599TIP3    H137738   3.870   1.732   2.348 -0.9211 -0.9541  0.4922
12599TIP3    H237739   3.936   1.698   2.481 -0.7985 -1.0468  0.4073
12600TIP3   OH237740   2.016   3.573   2.109 -0.1102 -0.2523 -0.8327
12600TIP3    H137741   2.025   3.659   2.067 -0.0487  0.0056 -0.2964
12600TIP3    H237742   1.924   3.568   2.134  0.1295  0.1480  0.1699
12601TIP3   OH237743   4.351   0.459   1.597 -0.5140 -0.1069  0.5077
12601TIP3    H137744   4.261   0.430   1.580 -0.6536  0.3969  0.3570
12601TIP3    H237745   4.343   0.518   1.671 -0.5994  1.4341 -0.6812
12602TIP3   OH237746   7.125   2.994   0.762 -0.1390 -0.3314 -0.1178
12602TIP3    H137747   7.182   3.009   0.837 -1.5383  1.3251  0.6959
12602TIP3    H237748   7.060   2.931   0.792  0.3630 -1.0609 -0.5472
12603TIP3   OH237749   6.001   2.248   6.280  0.8050 -0.0933  0.7636
12603TIP3    H137750   6.064   2.294   6.224  0.0218  2.1541  1.6119
12603TIP3    H237751   6.054   2.182   6.325  2.0808  0.2115 -0.2001
12604TIP3   OH237752   3.535   1.687   3.759 -0.1372 -0.0538  0.0734
12604TIP3    H137753   3.611   1.638   3.792 -0.6674 -0.0912  1.2872
12604TIP3    H237754   3.559   1.712   3.670  1.0375 -0.6226  0.2178
12605TIP3   OH237755   3.334   1.018   5.241 -0.4149 -0.7309  0.3038
12605TIP3    H137756   3.273   1.085   5.211 -1.2644 -2.3024 -1.6952
12605TIP3    H237757   3.322   1.016   5.336 -1.3058  1.0183  0.2712
12606TIP3   OH237758   4.571   1.448   0.235 -0.1285  0.2389 -0.6792
12606TIP3    H137759   4.659   1.476   0.262 -0.6726  1.3247  0.0409
12606TIP3    H237760   4.527   1.528   0.208 -1.1491 -0.1818 -0.3238
12607TIP3   OH237761   6.448   7.294   0.430  0.0423 -0.1541  0.3276
12607TIP3    H137762   6.422   7.208   0.397  0.5187  0.2165 -1.0985
12607TIP3    H237763   6.378   7.353   0.402  0.5789  0.2126 -0.2769
12608TIP3   OH237764   4.735   7.334   0.081  0.3676  0.4348  0.1717
12608TIP3    H137765   4.697   7.294   0.159  2.3040  0.2775  1.0921
12608TIP3    H237766   4.764   7.261   0.027  0.4144  0.5538  0.0334
12609TIP3   OH237767   1.537   7.340   5.112 -0.6154  0.2495  0.1192
12609TIP3    H137768   1.510   7.255   5.146 -0.2476 -0.7225 -1.8594
12609TIP3    H237769   1.535   7.329   5.016  1.7314  1.7205 -0.1740
12610TIP3   OH237770   1.386   3.520   1.891  0.0776 -0.4747  0.4279
12610TIP3    H137771   1.443   3.443   1.891  0.2980 -0.3117  1.2159
12610TIP3    H237772   1.346   3.521   1.978  1.2981  1.1972  1.0193
12611TIP3   OH237773   0.882   7.483   0.741  0.0749 -0.4022 -0.4809
12611TIP3    H137774   0.911   7.486   0.650 -0.0636  0.2192 -0.5061
12611TIP3    H237775   0.956   7.446   0.789  0.6467  0.5024 -0.6493
12612TIP3   OH237776   7.513   7.871   2.954  0.0049  0.0430 -0.1338
12612TIP3    H137777   7.433   7.842   2.908  0.4242 -1.8935  0.2785
12612TIP3    H237778   7.498   7.846   3.045  1.3947 -1.1191 -0.1916
12613TIP3   OH237779   5.911   6.344   4.995 -0.3954  0.5788  0.1777
12613TIP3    H137780   5.827   6.338   5.042 -0.6178  1.5186 -0.0855
12613TIP3    H237781   5.892   6.400   4.920  0.8238  2.0274  0.9164
12614TIP3   OH237782   6.925   6.102   1.854  0.3099  0.4388  0.6996
12614TIP3    H137783   6.880   6.018   1.863  0.6315  0.0939 -0.7377
12614TIP3    H237784   7.007   6.081   1.809  1.8867  1.0798  3.0696
12615TIP3   OH237785   7.085   6.675   0.040  0.3321 -0.1549  0.1421
12615TIP3    H137786   7.013   6.623   0.076 -0.0203 -0.5959 -1.1422
12615TIP3    H237787   7.143   6.690   0.114 -0.6847 -0.4758  1.0277
12616TIP3   OH237788   8.050   6.219   6.386  0.0236  0.3365 -0.4832
12616TIP3    H137789   8.118   6.276   6.349  0.4579 -0.2701 -0.6319
12616TIP3    H237790   8.051   6.141   6.331 -1.2998  0.6071 -0.9393
12617TIP3   OH237791   1.683   6.277   1.397  0.2087 -0.1501  0.1291
12617TIP3    H137792   1.632   6.352   1.369  0.5871  0.6425  1.4890
12617TIP3    H237793   1.729   6.249   1.318 -0.5011  0.5789 -0.5598
12618TIP3   OH237794   4.997   1.750   5.368 -0.2015  0.1011  0.3090
12618TIP3    H137795   5.063   1.743   5.437 -1.5715  0.5190  1.7118
12618TIP3    H237796   4.962   1.838   5.378 -1.2878 -0.2746 -0.1212
12619TIP3   OH237797   1.962   2.222   3.621 -0.0682 -0.2926 -0.1470
12619TIP3    H137798   1.872   2.191   3.631  0.5548 -2.8011 -1.2689
12619TIP3    H237799   1.991   2.240   3.710 -1.7397  0.9108  0.2089
12620TIP3   OH237800   4.532   0.838   3.321 -0.4781 -0.2835  0.7495
12620TIP3    H137801   4.519   0.744   3.310  0.8798 -0.2542 -1.7118
12620TIP3    H237802   4.627   0.850   3.315 -0.6465  1.2748  0.7451
12621TIP3   OH237803   5.943   1.049   2.722 -0.0901  0.1715 -0.9138
12621TIP3    H137804   6.038   1.062   2.721 -0.0008 -0.3308 -0.1114
12621TIP3    H237805   5.908   1.120   2.669  0.4138  3.0264  2.2692
12622TIP3   OH237806   5.352   2.308   2.037  0.2465  0.5968 -1.0014
12622TIP3    H137807   5.301   2.381   2.001 -1.4237  0.2598  0.5256
12622TIP3    H237808   5.352   2.324   2.132  3.0578  0.5739 -0.9251
12623TIP3   OH237809   7.250   2.444   4.315 -0.5889  0.5728 -0.0207
12623TIP3    H137810   7.232   2.476   4.403  0.6036 -0.7676  0.7713
12623TIP3    H237811   7.167   2.449   4.269 -1.6840 -0.4235  1.7688
12624TIP3   OH237812   6.724   6.239   5.098  0.1155  0.3071  0.6320
12624TIP3    H137813   6.700   6.327   5.069  0.8919 -0.0128 -1.1100
12624TIP3    H237814   6.803   6.218   5.047  0.9728 -0.7213  2.2990
12625TIP3   OH237815   2.593   1.334   5.880  0.5672 -0.4152  0.1258
12625TIP3    H137816   2.513   1.365   5.839  0.7041 -1.7310 -1.2317
12625TIP3    H237817   2.568   1.310   5.969 -0.3270  0.0559  0.0070
12626TIP3   OH237818   6.002   6.613   3.185  0.7479  0.1219 -0.3886
12626TIP3    H137819   6.026   6.587   3.274  2.0755 -0.8629 -1.0056
12626TIP3    H237820   5.997   6.531   3.136  0.8705  0.7026 -1.4082
12627TIP3   OH237821   7.131   4.585   0.726  0.4437  0.2299 -0.4341
12627TIP3    H137822   7.123   4.541   0.642  0.7130 -0.7231  0.0209
12627TIP3    H237823   7.214   4.554   0.762 -0.6148 -1.0521  1.1011
12628TIP3   OH237824   4.747   2.604   5.425 -0.5128 -0.4381 -0.5204
12628TIP3    H137825   4.704   2.675   5.473 -1.7245 -0.1515 -1.9547
12628TIP3    H237826   4.711   2.524   5.462 -2.4402 -0.1984 -1.7652
12629TIP3   OH237827   7.666   2.204   6.631  0.5126  0.6607  0.4825
12629TIP3    H137828   7.594   2.173   6.575 -0.8921 -1.9535  3.4199
12629TIP3    H237829   7.643   2.296   6.650 -0.8980  0.5102 -0.3421
12630TIP3   OH237830   6.569   3.562   3.539 -0.4198  0.0215  0.2588
12630TIP3    H137831   6.590   3.653   3.561  1.3891 -0.7034  1.8439
12630TIP3    H237832   6.582   3.557   3.444  1.5355  0.9634  0.4186
12631TIP3   OH237833   4.769   7.775   4.444 -0.4024 -0.3361 -0.7819
12631TIP3    H137834   4.772   7.730   4.360  0.9595 -1.5822 -0.1129
12631TIP3    H237835   4.681   7.757   4.477 -1.0196  0.3241 -1.9821
12632TIP3   OH237836   6.884   0.274   4.394  0.2382  0.1294  0.0150
12632TIP3    H137837   6.812   0.219   4.363  1.3822 -0.6767 -1.3932
12632TIP3    H237838   6.953   0.212   4.417  0.4572  0.8746  1.4568
12633TIP3   OH237839   3.902   4.912   4.480  0.0070  0.8428 -0.0625
12633TIP3    H137840   3.957   4.906   4.557  1.5160 -1.4858 -1.2121
12633TIP3    H237841   3.962   4.933   4.409  0.0057 -3.5379 -1.6925
12634TIP3   OH237842   7.211   4.002   0.384  0.5817 -0.2004  0.2638
12634TIP3    H137843   7.286   4.055   0.410  0.4841 -0.2018  0.5601
12634TIP3    H237844   7.248   3.917   0.360  0.7380  0.0017 -0.2084
12635TIP3   OH237845   3.268   5.674   5.138  0.0988  0.9902  0.0779
12635TIP3    H137846   3.351   5.719   5.158  0.2948  1.1629 -1.0225
12635TIP3    H237847   3.285   5.629   5.055  0.0900 -1.6204  1.3777
12636TIP3   OH237848   3.323   5.712   0.255 -0.1573  0.2404 -0.0676
12636TIP3    H137849   3.301   5.789   0.308 -1.7247 -1.1922  1.5313
12636TIP3    H237850   3.400   5.674   0.297 -0.3131  0.1069  0.1018
12637TIP3   OH237851   0.650   7.630   4.039 -1.2060  0.7961  0.0523
12637TIP3    H137852   0.694   7.574   3.975 -0.2296 -0.8806  2.0343
12637TIP3    H237853   0.587   7.680   3.989 -1.6911 -1.6564 -1.9735
12638TIP3   OH237854   0.223   0.703   6.296  0.0863  0.7313  0.1724
12638TIP3    H137855   0.165   0.640   6.254  0.2661 -0.9747  2.2973
12638TIP3    H237856   0.180   0.723   6.379  1.7653  0.6080  1.1175
12639TIP3   OH237857   4.987   4.642   3.235 -0.1356 -0.0200  0.3297
12639TIP3    H137858   5.056   4.593   3.190  0.0151 -0.2020  0.7512
12639TIP3    H237859   4.933   4.574   3.276 -1.2657  0.0439 -0.9491
12640TIP3   OH237860   6.561   4.185   4.918  0.5902 -0.4215 -0.1659
12640TIP3    H137861   6.625   4.114   4.923 -0.4751 -1.3440  0.7735
12640TIP3    H237862   6.479   4.146   4.946  0.0559  1.2889  0.7841
12641TIP3   OH237863   5.037   5.558   5.698  0.1321 -0.5404 -0.6890
12641TIP3    H137864   5.081   5.643   5.706  4.3461 -2.6135  1.4632
12641TIP3    H237865   5.091   5.509   5.636  0.0627 -2.7805  0.9195
12642TIP3   OH237866   8.113   3.719   1.676 -0.1261 -0.6244 -0.4760
12642TIP3    H137867   8.187   3.774   1.651 -0.9255  0.2237 -1.0332
12642TIP3    H237868   8.149   3.631   1.679  0.6844 -0.3633 -1.7158
12643TIP3   OH237869   2.290   4.154   6.453  0.3631  0.0913 -0.3237
12643TIP3    H137870   2.280   4.069   6.409  0.3209 -0.3261  0.4724
12643TIP3    H237871   2.270   4.218   6.385 -1.6590 -0.5626 -0.4186
12644TIP3   OH237872   1.833   1.166   2.258  0.4802  0.3368 -0.2147
12644TIP3    H137873   1.848   1.214   2.339 -0.2978  0.9174 -0.4045
12644TIP3    H237874   1.744   1.131   2.267  1.5888 -2.5586  0.6565
12645TIP3   OH237875   4.889   7.865   5.619 -0.0455  0.2526 -0.1964
12645TIP3    H137876   4.886   7.956   5.588 -1.3422  0.8217  1.4440
12645TIP3    H237877   4.821   7.861   5.686 -0.0590 -1.9759 -0.2917
12646TIP3   OH237878   2.779   6.030   5.168  0.6991  0.4727 -0.2719
12646TIP3    H137879   2.851   6.040   5.230  1.6862  2.4181 -1.6107
12646TIP3    H237880   2.797   6.096   5.100 -1.5065 -0.0644 -1.4676
12647TIP3   OH237881   1.982   5.023   0.494  0.2554 -0.4022 -0.1934
12647TIP3    H137882   2.026   5.104   0.519 -0.2995  0.1718 -1.0079
12647TIP3    H237883   2.050   4.971   0.451 -0.0159  0.8534 -2.2628
12648TIP3   OH237884   6.941   4.884   0.948  0.3476  0.2058  0.8355
12648TIP3    H137885   6.870   4.833   0.986 -0.1896  0.4692  0.1915
12648TIP3    H237886   7.014   4.822   0.939 -0.4489 -0.5698 -0.4077
12649TIP3   OH237887   7.928   1.651   6.505  0.6044  0.0269 -0.0423
12649TIP3    H137888   7.857   1.712   6.524  0.2886 -0.2666 -0.2706
12649TIP3    H237889   7.935   1.651   6.410  1.4388  0.6516  0.0132
12650TIP3   OH237890   2.935   4.679   6.070 -0.1164 -0.0357  0.2590
12650TIP3    H137891   2.946   4.748   6.006 -0.7169 -1.0352 -0.9613
12650TIP3    H237892   2.872   4.619   6.031  0.1150 -1.0981  1.4319
12651TIP3   OH237893   7.485   6.407   6.562  0.5153  0.6066 -0.8604
12651TIP3    H137894   7.491   6.463   6.484 -0.5422  0.1777 -1.2703
12651TIP3    H237895   7.391   6.399   6.578  0.5294 -2.1426 -1.6522
12652TIP3   OH237896   2.035   5.512   5.831  0.3146 -0.2303 -0.0692
12652TIP3    H137897   1.965   5.570   5.802  1.1880  0.5112 -0.7264
12652TIP3    H237898   2.049   5.536   5.923  0.8389  0.7905 -0.4016
12653TIP3   OH237899   8.347   2.255   6.424  0.1268  0.4815 -0.2278
12653TIP3    H137900   8.388   2.176   6.460  1.5081  0.9934 -0.6305
12653TIP3    H237901   8.281   2.279   6.489 -0.9826 -1.5150 -0.5326
12654TIP3   OH237902   5.634   3.632   3.409  0.1947  0.2121 -0.3274
12654TIP3    H137903   5.717   3.679   3.398  0.4793 -0.1900  0.0998
12654TIP3    H237904   5.578   3.694   3.456  0.9435 -0.2565  1.2675
12655TIP3   OH237905   3.802   4.444   0.965 -0.3574  0.1638  0.2724
12655TIP3    H137906   3.716   4.420   0.931  0.1760 -1.3677 -0.1084
12655TIP3    H237907   3.860   4.440   0.889 -0.0341  1.8552  0.3845
12656TIP3   OH237908   2.860   1.361   4.234 -0.2782  0.0087  0.3171
12656TIP3    H137909   2.909   1.392   4.158  0.1140  2.4579  1.4516
12656TIP3    H237910   2.807   1.289   4.202  1.0005 -0.0205 -1.9043
12657TIP3   OH237911   5.606   6.458   2.841 -0.1804 -0.4298 -0.5342
12657TIP3    H137912   5.558   6.456   2.923  1.1686  1.6894  0.3861
12657TIP3    H237913   5.695   6.482   2.865  0.3957 -0.3014 -2.5519
12658TIP3   OH237914   2.392   1.353   0.328  0.0346 -0.1715 -0.5597
12658TIP3    H137915   2.440   1.364   0.411  1.3073 -3.0988 -0.7571
12658TIP3    H237916   2.428   1.420   0.271  1.2804  0.0421  0.4139
12659TIP3   OH237917   7.312   4.782   5.734 -0.2672  0.4107 -0.7861
12659TIP3    H137918   7.397   4.782   5.778  0.5147 -3.5752 -1.8380
12659TIP3    H237919   7.251   4.815   5.799  1.4345 -1.3206  1.9054
12660TIP3   OH237920   3.372   3.132   1.395  0.0672  0.5497 -0.3328
12660TIP3    H137921   3.436   3.140   1.466  0.0390  0.3960 -0.2914
12660TIP3    H237922   3.370   3.219   1.355  1.0712  0.2896 -0.9940
12661TIP3   OH237923   4.917   3.881   0.651 -0.4845 -0.2870 -0.0341
12661TIP3    H137924   4.963   3.928   0.582 -0.3913 -1.3178 -0.7030
12661TIP3    H237925   4.826   3.879   0.623 -0.4716 -0.5785 -0.0620
12662TIP3   OH237926   7.077   6.608   3.281 -0.2965  0.1065 -0.4683
12662TIP3    H137927   7.069   6.667   3.206  1.2216 -1.2516 -1.7795
12662TIP3    H237928   7.172   6.600   3.295 -0.5377 -0.0727  1.3032
12663TIP3   OH237929   8.170   0.804   5.084 -0.3113  0.4768  0.5193
12663TIP3    H137930   8.236   0.864   5.050  1.2192 -2.2510 -1.8481
12663TIP3    H237931   8.093   0.819   5.028  0.2252 -0.0232 -0.3858
12664TIP3   OH237932   8.180   7.328   4.499 -0.2200 -0.0929 -0.9305
12664TIP3    H137933   8.203   7.399   4.438  0.2462  0.5439 -0.0337
12664TIP3    H237934   8.173   7.250   4.443  1.5570  0.1905 -1.6135
12665TIP3   OH237935   2.495   5.911   3.609 -0.1661  0.2531  0.0060
12665TIP3    H137936   2.442   5.936   3.684 -1.5350  0.1667 -0.9024
12665TIP3    H237937   2.437   5.920   3.534  0.1640 -2.7213 -0.7300
12666TIP3   OH237938   0.537   7.027   4.132 -0.2581 -0.1378 -0.0376
12666TIP3    H137939   0.601   6.997   4.197 -0.4739  0.8870  0.6689
12666TIP3    H237940   0.567   7.115   4.107 -1.7897  0.6999  0.8934
12667TIP3   OH237941   5.950   6.244   5.521 -0.0483  0.3881 -0.5669
12667TIP3    H137942   5.899   6.209   5.449  0.0083  0.8006 -0.8103
12667TIP3    H237943   5.886   6.266   5.588 -0.1521  0.5112 -0.7058
12668TIP3   OH237944   4.948   6.481   4.862  0.2226  0.7024  0.8819
12668TIP3    H137945   4.872   6.536   4.846 -0.0906  0.1727  0.5223
12668TIP3    H237946   4.944   6.461   4.956 -0.8959 -0.4956  0.6002
12669TIP3   OH237947   0.230   5.810   6.292 -0.2146  0.6182  0.0576
12669TIP3    H137948   0.221   5.714   6.291 -1.5006  0.7203  0.6034
12669TIP3    H237949   0.317   5.825   6.329  0.1124 -0.3375 -0.2769
12670TIP3   OH237950   0.530   5.742   0.999  0.0681  0.3162 -0.0777
12670TIP3    H137951   0.543   5.739   0.904 -2.3296 -0.3823 -0.4480
12670TIP3    H237952   0.593   5.807   1.030 -0.9822  2.6740 -2.5046
12671TIP3   OH237953   3.800   2.352   3.865 -0.1026  0.8144 -0.1048
12671TIP3    H137954   3.887   2.329   3.833 -0.4479  0.5738 -0.8905
12671TIP3    H237955   3.763   2.406   3.795 -0.5017  1.1078  0.3294
12672TIP3   OH237956   3.013   2.104   3.787 -0.0624 -0.2991 -0.1132
12672TIP3    H137957   3.029   2.197   3.799 -0.6902 -0.2425  0.3262
12672TIP3    H237958   2.990   2.095   3.694 -2.3015  0.3493  0.3220
12673TIP3   OH237959   5.397   7.249   5.805 -0.0084  0.0081  0.1401
12673TIP3    H137960   5.431   7.265   5.716  0.0883 -0.5205  0.0753
12673TIP3    H237961   5.309   7.285   5.804 -0.1514 -0.3314 -0.2973
12674TIP3   OH237962   6.316   4.101   2.158 -0.0273 -0.0096  0.5060
12674TIP3    H137963   6.308   4.021   2.210 -1.0105  0.5922  1.3133
12674TIP3    H237964   6.308   4.172   2.221 -0.4661  0.7464 -0.3711
12675TIP3   OH237965   1.954   2.352   1.634  0.1022  0.3072  0.3494
12675TIP3    H137966   1.997   2.428   1.674  0.7156  0.2129 -0.1133
12675TIP3    H237967   1.977   2.278   1.690 -1.1291  0.5699  1.2372
12676TIP3   OH237968   1.711   3.521   6.775 -0.6438 -0.0885  0.6465
12676TIP3    H137969   1.806   3.528   6.766 -0.7769  0.2988 -0.7214
12676TIP3    H237970   1.691   3.430   6.753 -0.5481 -0.2982  1.4152
12677TIP3   OH237971   6.172   0.028   4.431 -0.7163 -0.2380  0.1294
12677TIP3    H137972   6.083   0.042   4.465 -0.9021 -1.1230  0.0430
12677TIP3    H237973   6.162  -0.044   4.369  0.3036 -1.4041  1.2461
12678TIP3   OH237974   3.570   2.445   0.521 -0.1132 -0.2922 -0.3421
12678TIP3    H137975   3.504   2.376   0.530 -0.4928  0.3549  3.5553
12678TIP3    H237976   3.568   2.491   0.604  3.8326  1.1197 -0.8159
12679TIP3   OH237977   7.281   1.395   4.568 -0.7190 -0.3202  0.0096
12679TIP3    H137978   7.238   1.458   4.511  0.8505  1.4644  0.6873
12679TIP3    H237979   7.213   1.370   4.632 -0.7855  2.6889  1.2808
12680TIP3   OH237980   6.422   2.465   6.160  0.3109  0.0525 -0.6625
12680TIP3    H137981   6.516   2.457   6.177  0.2412 -1.7444 -0.8475
12680TIP3    H237982   6.382   2.462   6.247  0.4047  0.6704 -0.5928
12681TIP3   OH237983   2.977   2.551   0.757 -0.0023 -0.4375 -0.2487
12681TIP3    H137984   2.950   2.561   0.666  0.6754  2.1282 -0.2328
12681TIP3    H237985   3.041   2.480   0.756 -0.5639 -0.9542 -1.6178
12682TIP3   OH237986   1.685   2.632   5.321  0.3169 -0.3510 -0.5997
12682TIP3    H137987   1.679   2.722   5.289  3.2845 -0.0654 -0.6875
12682TIP3    H237988   1.704   2.581   5.242 -0.4603 -0.9295 -0.4162
12683TIP3   OH237989   4.258   5.680   3.861 -0.1830  0.2815 -0.1824
12683TIP3    H137990   4.249   5.760   3.912 -0.0566  0.9470 -1.1924
12683TIP3    H237991   4.348   5.651   3.876 -0.2513  0.2842  0.2375
12684TIP3   OH237992   1.075   6.859   6.044 -0.1607 -0.6365 -0.5947
12684TIP3    H137993   1.015   6.790   6.071  0.0018 -0.3996  0.3979
12684TIP3    H237994   1.021   6.918   5.990 -1.0860  0.0366  0.9713
12685TIP3   OH237995   1.681   7.387   4.101  0.2513 -0.0853  0.0467
12685TIP3    H137996   1.602   7.410   4.053  1.1051  1.0991 -0.8719
12685TIP3    H237997   1.701   7.298   4.073  0.0598  0.1487 -0.8818
12686TIP3   OH237998   6.058   5.658   6.456  0.0173 -0.1302  0.2098
12686TIP3    H137999   6.084   5.620   6.539 -0.4426  1.9042  1.3537
12686TIP3    H238000   6.138   5.698   6.421 -0.2325  0.9143  0.7856
12687TIP3   OH238001   5.618   6.037   0.158 -0.2196  0.2253 -0.0058
12687TIP3    H138002   5.651   5.956   0.119  0.1171  0.4638 -0.2257
12687TIP3    H238003   5.524   6.024   0.164 -0.1205 -0.3819  0.4206
12688TIP3   OH238004   2.432   7.023   4.898  0.5380 -0.1688  0.0521
12688TIP3    H138005   2.385   7.084   4.841  0.9758 -1.3475 -1.6220
12688TIP3    H238006   2.401   7.045   4.986 -0.9315  1.0288 -0.7127
12689TIP3   OH238007   6.973   3.392   5.789  0.5761 -0.1648  0.5386
12689TIP3    H138008   6.983   3.421   5.879  0.0487  1.5328  0.0962
12689TIP3    H238009   6.893   3.435   5.758  0.4154 -1.1932 -0.5530
12690TIP3   OH238010   7.805   5.936   4.095  0.4395 -0.5733 -0.1227
12690TIP3    H138011   7.745   5.961   4.165  0.7424  2.4903 -0.8068
12690TIP3    H238012   7.808   5.840   4.098 -2.1913 -0.6859  1.7783
12691TIP3   OH238013   1.480   2.137   1.379 -0.3912  0.4519 -0.2719
12691TIP3    H138014   1.509   2.146   1.470  2.8892 -3.9419 -0.5845
12691TIP3    H238015   1.555   2.166   1.327 -1.5224  1.1291 -1.5953
12692TIP3   OH238016   5.239   4.918   3.025  0.0264 -0.0666 -0.0018
12692TIP3    H138017   5.217   4.932   3.117 -1.0345  1.4506 -0.4622
12692TIP3    H238018   5.155   4.909   2.980  0.2767  3.1908 -1.3933
12693TIP3   OH238019   7.255   3.099   4.388  0.0212 -0.2687  0.2452
12693TIP3    H138020   7.162   3.104   4.366  0.1302  1.4449  0.0037
12693TIP3    H238021   7.297   3.165   4.332  1.6867 -2.2766 -0.9943
12694TIP3   OH238022   8.115   1.262   6.446  0.3712  0.2509  0.1603
12694TIP3    H138023   8.124   1.286   6.539 -1.0542  0.3267  0.2983
12694TIP3    H238024   8.182   1.195   6.432  1.0701  0.7343  1.0593
12695TIP3   OH238025   7.105   3.531   1.588  0.1294 -0.1060 -0.0863
12695TIP3    H138026   7.129   3.530   1.681  1.1925 -1.6210 -0.3354
12695TIP3    H238027   7.188   3.545   1.542 -0.4000  0.7067 -0.8170
12696TIP3   OH238028   3.736   5.023   6.519  0.2972 -0.5960 -0.2747
12696TIP3    H138029   3.699   4.935   6.508 -2.1198  0.1772  1.0154
12696TIP3    H238030   3.745   5.057   6.429 -1.7583 -1.0141 -0.6730
12697TIP3   OH238031   6.580   1.508   2.198 -0.3013 -0.1602  0.0621
12697TIP3    H138032   6.627   1.551   2.126 -1.3851  0.6594 -0.1891
12697TIP3    H238033   6.582   1.415   2.177 -1.3063  0.1290 -1.4965
12698TIP3   OH238034   0.747   4.640   5.061 -1.0189  0.5736 -0.2923
12698TIP3    H138035   0.795   4.606   4.985 -0.6507 -1.7828  0.9318
12698TIP3    H238036   0.793   4.721   5.084  0.5978 -0.1401 -0.8907
12699TIP3   OH238037   7.257   4.974   4.644 -0.5066 -0.2535  0.5036
12699TIP3    H138038   7.199   4.955   4.571  0.6373 -0.9951 -0.2358
12699TIP3    H238039   7.248   5.069   4.658 -2.3073 -0.4273  0.8005
12700TIP3   OH238040   5.719   6.972   3.432  0.1842 -0.1003 -0.2645
12700TIP3    H138041   5.646   6.999   3.488 -0.9926 -0.4854 -1.5343
12700TIP3    H238042   5.742   7.051   3.383 -1.2681 -0.5851 -1.8354
12701TIP3   OH238043   7.254   5.722   0.728 -0.7593  0.1685  0.6750
12701TIP3    H138044   7.246   5.782   0.655 -0.5064 -0.5175  0.0698
12701TIP3    H238045   7.192   5.652   0.709  1.2859 -1.4828 -0.3873
12702TIP3   OH238046   4.476   1.427   2.159  0.0113 -0.1383 -0.3169
12702TIP3    H138047   4.492   1.395   2.248  0.0458  0.3227 -0.1533
12702TIP3    H238048   4.501   1.519   2.162  1.3338 -0.4389 -1.1571
12703TIP3   OH238049   6.998   5.368   2.883  0.1930  0.3227  0.5864
12703TIP3    H138050   7.020   5.382   2.975  0.5324  1.3516  0.3679
12703TIP3    H238051   7.070   5.314   2.850  0.3447  0.3942  0.7971
12704TIP3   OH238052   3.013   7.885   4.308  0.4431  0.5306  0.2904
12704TIP3    H138053   2.964   7.824   4.252  0.6097  1.4531 -0.8895
12704TIP3    H238054   3.041   7.955   4.249  0.8427  1.4115  1.4854
12705TIP3   OH238055   4.160   1.112   0.666 -0.1900  0.1139  0.0622
12705TIP3    H138056   4.226   1.171   0.628 -0.4554  0.5026  0.1975
12705TIP3    H238057   4.082   1.167   0.677  0.2786  0.4274  2.4800
12706TIP3   OH238058   5.668   2.970   4.376 -0.1955 -0.4290 -0.2495
12706TIP3    H138059   5.610   2.968   4.300  0.5401 -1.0837 -0.8118
12706TIP3    H238060   5.701   3.060   4.379 -0.2245 -0.4025 -0.7018
12707TIP3   OH238061   4.286   5.667   6.574  0.4369  0.1623  0.3636
12707TIP3    H138062   4.289   5.738   6.639  0.8468  1.0366 -0.5747
12707TIP3    H238063   4.288   5.713   6.490  2.7705 -1.0402 -0.2956
12708TIP3   OH238064   4.770   5.368   0.124  0.5297 -0.6291 -0.0273
12708TIP3    H138065   4.762   5.362   0.028 -1.7972 -0.5839  0.1205
12708TIP3    H238066   4.818   5.289   0.148  0.0149 -1.3136 -1.1313
12709TIP3   OH238067   7.455   1.962   5.606 -0.0371  0.4804  0.0642
12709TIP3    H138068   7.416   1.885   5.565  1.2523 -0.0704 -0.1737
12709TIP3    H238069   7.391   1.988   5.672 -1.6225  0.6768 -1.4529
12710TIP3   OH238070   3.645   0.477   4.487 -0.7026  0.3636 -0.4177
12710TIP3    H138071   3.651   0.400   4.431  0.2374  1.1075 -1.3813
12710TIP3    H238072   3.673   0.549   4.431 -1.8567  1.4660  0.3664
12711TIP3   OH238073   0.818   7.169   3.907  0.4277 -0.3351 -0.2676
12711TIP3    H138074   0.867   7.135   3.982 -1.0056 -0.1847  0.7795
12711TIP3    H238075   0.734   7.196   3.944  0.0428  0.6324 -1.7785
12712TIP3   OH238076   4.769   5.659   6.173 -0.1952  0.3352  0.5137
12712TIP3    H138077   4.820   5.740   6.175  0.8680 -0.2531 -1.0895
12712TIP3    H238078   4.691   5.680   6.121 -0.1420  0.4638  0.4870
12713TIP3   OH238079   2.376   7.226   3.933  0.1571 -0.4827  0.2248
12713TIP3    H138080   2.465   7.260   3.942 -0.4153  1.3065 -0.4444
12713TIP3    H238081   2.359   7.228   3.839 -1.0872  0.5911  0.4408
12714TIP3   OH238082   3.040   7.089   5.856 -0.1200 -0.4735  0.3036
12714TIP3    H138083   3.020   7.062   5.945 -0.5434  1.9867  1.0270
12714TIP3    H238084   3.120   7.040   5.833 -0.3850 -1.6386  1.7464
12715TIP3   OH238085   5.056   5.618   4.969  0.1360 -0.5376  0.4581
12715TIP3    H138086   4.980   5.560   4.972  1.0237 -1.7757 -0.1530
12715TIP3    H238087   5.027   5.693   4.918 -1.2519 -0.0586  1.8505
12716TIP3   OH238088   1.719   7.823   5.221 -0.5654  0.1323  0.7058
12716TIP3    H138089   1.764   7.771   5.155 -3.4393 -0.9884 -0.5065
12716TIP3    H238090   1.665   7.761   5.269 -0.1084  1.2495  2.8376
12717TIP3   OH238091   3.053   2.863   5.792 -0.2804  0.3933 -0.0483
12717TIP3    H138092   3.148   2.851   5.797 -0.2731  0.6323  0.4923
12717TIP3    H238093   3.022   2.850   5.881 -0.6267  1.3439 -0.0128
12718TIP3   OH238094   5.287   5.092   0.143 -0.4286  0.0932  0.0545
12718TIP3    H138095   5.352   5.101   0.212  0.4478 -1.4765 -0.5049
12718TIP3    H238096   5.326   5.135   0.067  0.6605 -2.0279 -0.6738
12719TIP3   OH238097   7.780   1.667   2.278 -0.0906  0.2559  0.0158
12719TIP3    H138098   7.808   1.672   2.369 -0.7571 -2.0713  0.4147
12719TIP3    H238099   7.761   1.758   2.253  0.2620  0.9566  2.1195
12720TIP3   OH238100   6.821   5.533   5.127  0.2411  0.8773  0.0533
12720TIP3    H138101   6.819   5.625   5.154 -1.1153  1.0122 -0.4151
12720TIP3    H238102   6.793   5.535   5.035  2.7270  0.2351 -0.7798
12721TIP3   OH238103   1.483   2.764   2.504  0.2785  0.4483  0.3447
12721TIP3    H138104   1.474   2.816   2.584  1.3223 -2.3317  2.4112
12721TIP3    H238105   1.561   2.711   2.518  0.4819 -0.2142 -2.5570
12722TIP3   OH238106   5.241   7.613   2.666 -0.6401  0.3016 -0.3504
12722TIP3    H138107   5.180   7.582   2.599 -0.0629  1.1822 -1.3323
12722TIP3    H238108   5.186   7.630   2.743 -1.0892 -2.1941 -0.0573
12723TIP3   OH238109   8.322   2.336   4.300  0.0454  0.0327  0.2942
12723TIP3    H138110   8.395   2.291   4.258  0.0584 -0.7545  1.1115
12723TIP3    H238111   8.337   2.429   4.283 -0.5372 -0.2679 -2.3525
12724TIP3   OH238112   2.052   6.193   3.739  0.3833  0.3070  0.2753
12724TIP3    H138113   2.098   6.117   3.774  0.7441 -0.2080 -1.2813
12724TIP3    H238114   1.991   6.218   3.809  0.3613 -1.3182  0.8706
12725TIP3   OH238115   6.192   2.804   5.689 -0.0355 -0.3704  0.2299
12725TIP3    H138116   6.143   2.725   5.713  0.6321 -0.1063  2.7232
12725TIP3    H238117   6.124   2.869   5.671 -0.6082 -0.8909  0.4727
12726TIP3   OH238118   2.567   4.130   1.569  0.2508 -0.4841  0.1802
12726TIP3    H138119   2.603   4.043   1.550  0.6774 -0.5459  1.2220
12726TIP3    H238120   2.633   4.171   1.624 -0.8787 -0.2636  1.4086
12727TIP3   OH238121   2.826   6.185   2.308 -0.0573 -0.1900 -0.1422
12727TIP3    H138122   2.895   6.224   2.253 -1.4999  0.0451 -1.8800
12727TIP3    H238123   2.837   6.226   2.393  2.0113 -0.2479 -0.3324
12728TIP3   OH238124   4.001   2.563   0.999 -0.0479  0.2279  0.0850
12728TIP3    H138125   4.039   2.640   1.040  0.0437  0.1131  0.2182
12728TIP3    H238126   4.021   2.572   0.906  1.0880 -0.2745  0.2648
12729TIP3   OH238127   2.437   5.563   3.166  0.2683 -0.1416 -0.0202
12729TIP3    H138128   2.377   5.605   3.104 -0.3754 -0.5310  0.3255
12729TIP3    H238129   2.392   5.568   3.250  1.3302  0.7900  0.5282
12730TIP3   OH238130   7.917   7.346   6.799 -0.0709  0.3377  0.2364
12730TIP3    H138131   7.895   7.437   6.820  0.9820  0.4211  1.1142
12730TIP3    H238132   8.006   7.351   6.763 -1.0011 -0.0715 -2.2798
12731TIP3   OH238133   0.100   3.813   3.246  0.1580 -0.3628  0.4020
12731TIP3    H138134   0.111   3.720   3.224 -0.1824 -0.1318 -0.8062
12731TIP3    H238135   0.190   3.846   3.256  0.3704 -1.5915  4.5878
12732TIP3   OH238136   5.637   7.107   5.531  0.1775 -0.2736 -0.1855
12732TIP3    H138137   5.542   7.102   5.518  0.2868  0.4124 -1.4427
12732TIP3    H238138   5.653   7.059   5.612 -1.4799  1.4382  1.2213
12733TIP3   OH238139   1.079   3.770   1.041  0.0221 -0.0217  0.3175
12733TIP3    H138140   1.118   3.857   1.053 -0.0332  0.0524 -0.0353
12733TIP3    H238141   1.077   3.732   1.129  0.8481 -0.0057  0.3507
12734TIP3   OH238142   4.829   7.230   3.457  0.3081  0.7085  0.0529
12734TIP3    H138143   4.734   7.224   3.468  0.4232  0.1469  0.8149
12734TIP3    H238144   4.841   7.283   3.378 -0.6471  0.1964 -0.4525
12735TIP3   OH238145   2.413   0.449   2.801 -0.4253  0.4942 -0.8055
12735TIP3    H138146   2.464   0.530   2.792 -2.2419  1.5692 -2.0413
12735TIP3    H238147   2.421   0.426   2.894  0.3590  1.9347 -0.4887
12736TIP3   OH238148   2.377   6.399   1.214 -0.2752  0.8069  0.4968
12736TIP3    H138149   2.373   6.469   1.150  0.0518 -0.2587 -0.7290
12736TIP3    H238150   2.427   6.437   1.287  0.0662  1.7856 -0.2175
12737TIP3   OH238151   5.242   3.951   5.089  0.0380 -0.1557  0.0407
12737TIP3    H138152   5.225   3.857   5.095  1.3343 -0.4756 -0.9283
12737TIP3    H238153   5.189   3.981   5.015  1.9563 -0.7571 -1.6556
12738TIP3   OH238154   5.801   1.459   6.460  0.5618 -0.6938 -0.4878
12738TIP3    H138155   5.884   1.411   6.467  0.4804 -0.8208 -0.3858
12738TIP3    H238156   5.746   1.421   6.529  0.0659 -1.3237 -1.2187
12739TIP3   OH238157   2.165   7.668   0.709 -0.5717  0.1197 -0.1155
12739TIP3    H138158   2.098   7.654   0.642  1.4712  0.5410 -2.4042
12739TIP3    H238159   2.235   7.606   0.687  0.9292  1.5116  0.4845
12740TIP3   OH238160   5.422   0.615   2.147 -0.1284  0.5589  0.3330
12740TIP3    H138161   5.487   0.553   2.112 -1.0109  0.0595 -0.4736
12740TIP3    H238162   5.409   0.678   2.076  1.1694  2.0545  1.3426
12741TIP3   OH238163   3.284   1.991   4.939  0.1192 -0.0450  0.0478
12741TIP3    H138164   3.204   2.016   4.893 -0.3068  1.1061  1.3293
12741TIP3    H238165   3.263   2.004   5.032  1.8352  0.4001  0.4015
12742TIP3   OH238166   0.342   4.454   1.378 -0.1500  0.0893  0.2861
12742TIP3    H138167   0.337   4.548   1.363 -0.1518  0.1926  0.9204
12742TIP3    H238168   0.421   4.426   1.330  0.2863  0.5445  0.7284
12743TIP3   OH238169   1.851   6.841   5.704  0.2371 -0.1037  0.3773
12743TIP3    H138170   1.917   6.905   5.678 -2.0348  2.1591 -0.1734
12743TIP3    H238171   1.854   6.774   5.636  0.3640  1.2108 -0.9440
12744TIP3   OH238172   1.846   1.061   4.949  0.4953  0.1200 -0.1011
12744TIP3    H138173   1.853   1.107   5.033 -0.2941  1.0252 -0.5259
12744TIP3    H238174   1.868   1.126   4.883  1.6590 -0.7314 -0.5941
12745TIP3   OH238175   6.641   6.140   1.746 -0.3482  0.4672 -0.2060
12745TIP3    H138176   6.703   6.099   1.806 -1.5741  0.3749  1.0413
12745TIP3    H238177   6.575   6.180   1.803 -1.5706  0.3499 -1.4874
12746TIP3   OH238178   4.933   1.348   2.497 -0.0796  0.2519 -0.3104
12746TIP3    H138179   4.918   1.443   2.487  0.6774  0.2911 -1.3267
12746TIP3    H238180   4.987   1.340   2.575  0.6477  0.7564 -0.7533
12747TIP3   OH238181   0.156   1.729   4.462 -0.4010  0.5404  0.3978
12747TIP3    H138182   0.085   1.707   4.401 -0.0040 -0.2690  0.2185
12747TIP3    H238183   0.211   1.790   4.412  1.1582 -1.8190 -0.9492
12748TIP3   OH238184   3.091   6.666   1.809  0.4725 -0.0079  0.3637
12748TIP3    H138185   2.998   6.653   1.828  0.2344  0.3334 -0.5089
12748TIP3    H238186   3.115   6.588   1.759  0.4449  0.2934 -0.1199
12749TIP3   OH238187  -0.017   4.694   1.068  0.1511  0.0227  0.2174
12749TIP3    H138188   0.076   4.714   1.081  0.4723 -1.0204 -0.3659
12749TIP3    H238189  -0.031   4.614   1.119 -0.4533  0.2271  0.3721
12750TIP3   OH238190   5.905   0.645   2.811 -0.4326  0.3452 -0.4013
12750TIP3    H138191   5.968   0.683   2.873  0.3176  1.0438 -1.5578
12750TIP3    H238192   5.952   0.570   2.774 -0.9546 -0.1887  0.0023
12751TIP3   OH238193   3.674   5.450   4.242 -0.3563  0.2189 -0.3136
12751TIP3    H138194   3.696   5.481   4.154 -2.3698  2.8421 -0.0268
12751TIP3    H238195   3.752   5.468   4.295  0.9619 -1.6008 -1.4951
12752TIP3   OH238196   0.277   1.663   3.733 -0.1906 -0.0544  0.5183
12752TIP3    H138197   0.334   1.642   3.659  0.2115 -1.1775  1.1160
12752TIP3    H238198   0.259   1.756   3.724  0.1434 -0.0960 -0.7858
12753TIP3   OH238199   3.891   0.183   2.508 -0.4837 -0.2729  0.4944
12753TIP3    H138200   3.816   0.210   2.561 -0.2812 -0.7074  1.0156
12753TIP3    H238201   3.959   0.248   2.527 -1.0765  0.7777 -0.8459
12754TIP3   OH238202   7.158   7.121   5.325  0.1669  0.5979  0.1999
12754TIP3    H138203   7.187   7.030   5.332  1.2306  0.9137  0.1125
12754TIP3    H238204   7.170   7.143   5.232 -0.5189  0.6937  0.1293
12755TIP3   OH238205   2.726   1.682   2.649  0.2835 -0.2356  0.1663
12755TIP3    H138206   2.695   1.654   2.735 -0.9739 -1.8561 -0.7560
12755TIP3    H238207   2.816   1.649   2.645  0.2780 -0.3452  0.7628
12756TIP3   OH238208   6.457   5.122   1.669 -0.1857  0.7559  0.2502
12756TIP3    H138209   6.474   5.106   1.577  0.8516  3.1917 -0.0552
12756TIP3    H238210   6.364   5.100   1.681 -0.4436  0.8191 -1.4745
12757TIP3   OH238211   3.958   6.840   1.461  0.0023 -0.1831 -0.3739
12757TIP3    H138212   3.984   6.749   1.452 -0.4429 -0.3259 -0.2187
12757TIP3    H238213   3.881   6.849   1.406 -0.4746 -0.1209  0.2920
12758TIP3   OH238214   1.568   0.098   3.914  0.3408 -0.1697  0.0133
12758TIP3    H138215   1.659   0.104   3.886  0.4588 -2.2553 -0.2007
12758TIP3    H238216   1.565   0.019   3.968 -1.0614  0.6672  1.2272
12759TIP3   OH238217   5.777   2.071   6.455 -0.3915 -0.8914  0.3945
12759TIP3    H138218   5.839   2.062   6.527  0.7102 -2.8640 -0.7456
12759TIP3    H238219   5.716   1.999   6.466 -0.6511 -0.7769 -0.2402
12760TIP3   OH238220   2.351   2.498   5.699  0.3900 -0.2555  0.0990
12760TIP3    H138221   2.318   2.555   5.629  1.9995  0.4607 -0.1122
12760TIP3    H238222   2.272   2.467   5.743 -0.8631 -2.5284 -3.3545
12761TIP3   OH238223   5.233   2.188   5.514 -0.0859 -0.5337 -0.0273
12761TIP3    H138224   5.266   2.099   5.503 -0.6448 -1.0158  1.9523
12761TIP3    H238225   5.179   2.185   5.592  0.4775  1.7126  0.5245
12762TIP3   OH238226   2.657   7.859   3.507 -0.4724  0.0703  0.0236
12762TIP3    H138227   2.582   7.905   3.470 -1.5687 -1.8172 -0.2422
12762TIP3    H238228   2.721   7.927   3.525 -1.4565  1.4989 -1.6401
12763TIP3   OH238229   1.712   7.299   1.124  0.1741  0.5524  0.3928
12763TIP3    H138230   1.634   7.313   1.178  0.6829 -0.1331  1.3327
12763TIP3    H238231   1.725   7.382   1.078 -3.0472 -0.2914 -2.4169
12764TIP3   OH238232   6.304   1.356   3.525 -0.1319 -0.0575  0.3593
12764TIP3    H138233   6.305   1.283   3.464 -0.6636  0.4263 -0.2385
12764TIP3    H238234   6.263   1.321   3.604  2.1087 -1.1775  1.0977
12765TIP3   OH238235   1.275   7.748   3.950  0.2719  0.2801  0.3591
12765TIP3    H138236   1.235   7.834   3.961  2.0304  1.2085 -0.0141
12765TIP3    H238237   1.225   7.706   3.880  0.3689  1.6863 -0.6029
12766TIP3   OH238238   6.843   7.808   0.879  0.7645 -0.4185 -0.5103
12766TIP3    H138239   6.886   7.798   0.964  0.3505 -2.0812 -0.4594
12766TIP3    H238240   6.763   7.858   0.899  0.9947 -0.2322 -0.0311
12767TIP3   OH238241   7.269   1.646   2.144  0.6684  0.1008  0.2076
12767TIP3    H138242   7.207   1.574   2.128  2.0145 -0.8864 -0.7675
12767TIP3    H238243   7.286   1.641   2.238  1.4593 -1.5257  0.0282
12768TIP3   OH238244   6.902   4.299   4.761 -0.3345  0.4117  0.9188
12768TIP3    H138245   6.937   4.387   4.770 -1.1502  0.7440  0.9722
12768TIP3    H238246   6.911   4.260   4.849 -2.4050  1.3986  1.6424
12769TIP3   OH238247   3.176   2.975   5.182  0.5121 -0.2568 -0.1555
12769TIP3    H138248   3.133   2.935   5.258 -1.1244  0.3024 -0.7404
12769TIP3    H238249   3.148   2.921   5.108  1.6474 -0.4690 -0.4471
12770TIP3   OH238250   4.151   4.846   5.793 -0.3628  0.2954 -0.0696
12770TIP3    H138251   4.108   4.879   5.714 -0.6006 -1.5369 -0.7618
12770TIP3    H238252   4.107   4.763   5.811  0.5648  0.0610  1.2434
12771TIP3   OH238253   6.242   4.929   3.519 -0.3658  0.6983 -0.1345
12771TIP3    H138254   6.260   4.962   3.608  1.6760  1.7287 -0.8617
12771TIP3    H238255   6.297   4.851   3.511 -1.5354 -0.1636 -0.0910
12772TIP3   OH238256   1.586   1.105   2.242 -0.4248 -0.3564 -0.0631
12772TIP3    H138257   1.579   1.031   2.181  0.6769 -0.2658 -0.3084
12772TIP3    H238258   1.596   1.064   2.328  2.0878 -0.5624 -0.3855
12773TIP3   OH238259   6.154   1.104   3.104  0.1535 -0.8247 -0.0985
12773TIP3    H138260   6.231   1.052   3.084  1.0338  0.2798  0.2840
12773TIP3    H238261   6.138   1.155   3.025  1.4401  0.8646  0.6544
12774TIP3   OH238262   0.463   2.494   6.840 -0.7061 -0.0912 -0.0953
12774TIP3    H138263   0.513   2.465   6.916 -1.3404 -1.6576 -0.2451
12774TIP3    H238264   0.526   2.498   6.768 -0.2056  0.9178  0.3829
12775TIP3   OH238265   0.787   0.415   2.921 -0.1157 -0.3388  0.0449
12775TIP3    H138266   0.776   0.509   2.903 -1.6042 -0.5374 -0.2471
12775TIP3    H238267   0.697   0.382   2.927  0.3206 -2.1411 -2.0595
12776TIP3   OH238268   0.577   7.680   5.788  0.5879 -0.4147 -0.4533
12776TIP3    H138269   0.606   7.649   5.702 -0.1182  0.2961 -0.9701
12776TIP3    H238270   0.501   7.625   5.809  1.1598 -1.0321  0.0341
12777TIP3   OH238271   0.106   5.265   2.066  0.3219  0.3425 -0.5345
12777TIP3    H138272   0.086   5.345   2.115 -0.3798 -0.3377  0.3128
12777TIP3    H238273   0.195   5.241   2.094  0.2711  0.4512 -0.2766
12778TIP3   OH238274   7.886   1.604   4.151 -0.4242 -0.0758  0.0188
12778TIP3    H138275   7.829   1.564   4.217  0.4769  0.6791  1.3164
12778TIP3    H238276   7.851   1.693   4.140 -0.9194 -0.3836 -0.9802
12779TIP3   OH238277   4.427   3.665   1.061 -0.0566  0.1901 -0.0322
12779TIP3    H138278   4.345   3.685   1.107  0.5620 -0.6087  1.4932
12779TIP3    H238279   4.494   3.714   1.108  0.5834 -0.5298 -0.1722
12780TIP3   OH238280   1.717   6.814   1.217 -0.3732  0.5134 -0.1786
12780TIP3    H138281   1.713   6.849   1.306 -0.5385  1.0964 -0.4077
12780TIP3    H238282   1.635   6.843   1.176 -0.2292  0.3800 -0.5638
12781TIP3   OH238283   0.895   0.536   4.243 -0.0572 -0.0936 -0.3951
12781TIP3    H138284   0.847   0.459   4.273 -0.9035  0.5312 -0.0958
12781TIP3    H238285   0.830   0.607   4.247  0.6499  0.5894 -0.8553
12782TIP3   OH238286   5.800   3.707   6.816  0.0735  0.1808  0.4924
12782TIP3    H138287   5.838   3.691   6.730  0.2263 -1.6283  0.8652
12782TIP3    H238288   5.869   3.751   6.865  0.6249 -0.4116  0.2510
12783TIP3   OH238289   3.035   5.528   4.185  0.0508  0.4307  0.5560
12783TIP3    H138290   2.940   5.523   4.173  0.2984 -0.6284 -1.3429
12783TIP3    H238291   3.055   5.457   4.246 -0.0396 -1.8324 -1.8727
12784TIP3   OH238292   4.104   3.419   1.596  0.2821 -0.1012 -0.1472
12784TIP3    H138293   4.100   3.470   1.515 -1.8018  0.3814  0.2174
12784TIP3    H238294   4.189   3.442   1.634  1.0893  0.0282 -1.9309
12785TIP3   OH238295   7.308   0.742   6.025  0.2621 -0.1492 -0.2143
12785TIP3    H138296   7.231   0.695   5.991 -0.2518  0.1042  0.5789
12785TIP3    H238297   7.340   0.687   6.097  0.2631  0.2071  0.0623
12786TIP3   OH238298   2.741   2.105   5.898  0.3656 -0.3069 -0.2282
12786TIP3    H138299   2.800   2.053   5.844  0.8445 -1.2308  1.1257
12786TIP3    H238300   2.753   2.195   5.868 -0.6789 -0.9327 -2.8196
12787TIP3   OH238301   6.054   2.858   2.173  0.0521  0.1993  0.2821
12787TIP3    H138302   6.001   2.835   2.249  0.0401 -0.1022  0.1838
12787TIP3    H238303   6.134   2.807   2.182 -0.1219 -0.1530 -0.1174
12788TIP3   OH238304   3.465   3.334   6.235  0.1073 -0.0190  0.3842
12788TIP3    H138305   3.433   3.422   6.213 -1.5643 -0.7136 -0.1909
12788TIP3    H238306   3.387   3.278   6.225  0.9513 -1.4432  1.4857
12789TIP3   OH238307   4.838   4.786   1.786 -0.4710 -0.0650  0.4689
12789TIP3    H138308   4.881   4.819   1.707 -0.3885 -0.3872  0.3783
12789TIP3    H238309   4.892   4.712   1.813 -0.9838 -0.4902  0.3416
12790TIP3   OH238310   5.741   2.777   0.706  0.2561 -0.0125 -0.4306
12790TIP3    H138311   5.670   2.780   0.643  1.4494  2.3789 -1.8505
12790TIP3    H238312   5.806   2.719   0.667  1.3076  2.0353 -1.8990
12791TIP3   OH238313   6.344   0.227   2.907  0.1572 -0.4139 -0.0548
12791TIP3    H138314   6.409   0.159   2.893  0.3071 -0.6139  1.4481
12791TIP3    H238315   6.279   0.188   2.966 -0.7953  0.1102 -0.7199
12792TIP3   OH238316   7.322   6.444   4.482 -0.3092 -0.1206  0.8085
12792TIP3    H138317   7.410   6.406   4.477 -0.7607 -1.0904 -0.0042
12792TIP3    H238318   7.267   6.383   4.434 -1.4069  0.5714  1.1623
12793TIP3   OH238319   7.541   4.542   2.901 -0.4891 -0.3639  0.3135
12793TIP3    H138320   7.582   4.622   2.871  0.2384 -1.2796 -1.2740
12793TIP3    H238321   7.613   4.479   2.910 -1.2167 -1.2900 -0.1038
12794TIP3   OH238322   0.275   7.145   4.016  0.4351  0.0191  0.4512
12794TIP3    H138323   0.325   7.161   3.936  1.4580 -1.5951  0.7157
12794TIP3    H238324   0.341   7.139   4.085 -0.3021 -0.1428  1.1641
12795TIP3   OH238325   3.354   4.824   1.429 -0.2809  0.2879  0.4271
12795TIP3    H138326   3.445   4.825   1.459  0.4036  1.8801 -1.4735
12795TIP3    H238327   3.303   4.808   1.509  1.6328 -0.4709  1.5682
12796TIP3   OH238328   2.806   7.442   1.928  0.1824 -0.2884  0.0848
12796TIP3    H138329   2.797   7.360   1.880 -1.4219 -0.0684 -0.0439
12796TIP3    H238330   2.871   7.423   1.996  0.7208 -1.2908 -0.6780
12797TIP3   OH238331   0.424   2.092   0.347  0.2052 -0.1556  0.4448
12797TIP3    H138332   0.427   2.146   0.425 -0.6195  0.7889 -0.1410
12797TIP3    H238333   0.459   2.148   0.278  2.0530 -1.3847  0.3258
12798TIP3   OH238334   4.235   1.150   2.880  0.0877  0.1101 -0.2439
12798TIP3    H138335   4.315   1.159   2.932  0.6441  1.7231 -1.3088
12798TIP3    H238336   4.209   1.058   2.893  0.7793  0.1527  1.9783
12799TIP3   OH238337   7.680   2.654   6.384  0.0345 -0.0304 -0.3196
12799TIP3    H138338   7.743   2.588   6.356 -0.6133 -1.5430  1.5282
12799TIP3    H238339   7.595   2.615   6.365 -0.4059 -0.6921  2.5518
12800TIP3   OH238340   0.011   0.865   5.262  0.4253  0.1559  0.0231
12800TIP3    H138341  -0.046   0.821   5.199 -0.5408  0.3476  0.7257
12800TIP3    H238342   0.099   0.858   5.225 -0.2060  1.0217 -1.7619
12801TIP3   OH238343   1.500   5.692   4.500  0.0134  0.2026  0.3682
12801TIP3    H138344   1.507   5.603   4.534  2.0613  0.2161  0.1455
12801TIP3    H238345   1.434   5.734   4.556 -0.4126 -1.2158  0.9797
12802TIP3   OH238346   6.320   6.618   3.885  0.3725  0.5595 -0.1110
12802TIP3    H138347   6.338   6.537   3.836  0.0984  1.2338 -1.3646
12802TIP3    H238348   6.370   6.608   3.966 -1.3164 -1.8151  0.7712
12803TIP3   OH238349   5.002   3.535   2.422  0.4320  0.5287  0.1273
12803TIP3    H138350   4.993   3.452   2.469  0.4283 -0.1000 -0.9512
12803TIP3    H238351   4.962   3.600   2.480 -1.1716 -0.4938  0.2381
12804TIP3   OH238352   3.813   5.639   5.577  0.0841 -0.0024 -0.3502
12804TIP3    H138353   3.731   5.590   5.566  0.1279  0.0221 -0.8259
12804TIP3    H238354   3.851   5.605   5.657 -0.5191  0.1662  0.0162
12805TIP3   OH238355   8.307   2.898   4.930 -0.0657  0.6112 -0.3537
12805TIP3    H138356   8.234   2.867   4.876  1.0652 -2.4250 -0.3095
12805TIP3    H238357   8.268   2.912   5.017 -0.4919 -2.0305 -0.0368
12806TIP3   OH238358   1.241   5.139   5.674 -0.1815  0.6336  0.7891
12806TIP3    H138359   1.155   5.152   5.633  0.7509 -0.3614 -1.6906
12806TIP3    H238360   1.235   5.052   5.713 -0.2280  0.4777  0.4357
12807TIP3   OH238361   3.051   3.303   3.658 -0.5229  0.2281 -0.3410
12807TIP3    H138362   3.072   3.211   3.679 -2.1448 -0.3187 -1.0024
12807TIP3    H238363   3.136   3.341   3.633  0.2857 -0.9015  0.5353
12808TIP3   OH238364   4.533   7.280   3.127  0.9418  0.5154 -0.5263
12808TIP3    H138365   4.505   7.371   3.140 -0.0121  0.2549 -0.6642
12808TIP3    H238366   4.550   7.273   3.033 -1.2997 -0.0379 -0.9562
12809TIP3   OH238367   8.140   5.113   3.423  0.4818  0.3240 -0.4820
12809TIP3    H138368   8.077   5.078   3.485  1.6647 -0.3413  0.3889
12809TIP3    H238369   8.209   5.047   3.419  1.0903  0.9822 -1.4765
12810TIP3   OH238370   4.466   3.854   6.572 -0.2489  0.0972 -0.2866
12810TIP3    H138371   4.453   3.949   6.572 -0.0027  0.1514  1.1863
12810TIP3    H238372   4.530   3.839   6.503  0.0734  1.0716 -0.2178
12811TIP3   OH238373   0.173   1.077   0.181  0.0393  0.4036  0.1611
12811TIP3    H138374   0.229   1.153   0.196  0.6374  0.1945 -0.9321
12811TIP3    H238375   0.225   1.002   0.212  0.8965  0.0762 -1.8699
12812TIP3   OH238376   4.115   3.939   0.771 -0.0191  0.6448 -0.1343
12812TIP3    H138377   4.169   3.990   0.831  0.0102 -1.1053  1.4157
12812TIP3    H238378   4.101   3.997   0.696  1.6696  2.1527  0.6443
12813TIP3   OH238379   7.494   1.231   1.441 -0.7555  0.3581  0.7046
12813TIP3    H138380   7.469   1.268   1.356 -1.5493 -0.0862  0.7269
12813TIP3    H238381   7.514   1.307   1.495 -0.1612  0.6454  0.1026
12814TIP3   OH238382   4.759   6.644   6.718 -0.2636 -0.2966  0.1366
12814TIP3    H138383   4.846   6.653   6.680  0.0662 -1.3877  0.5867
12814TIP3    H238384   4.775   6.618   6.809 -1.0459 -1.4555 -0.0346
12815TIP3   OH238385   6.349   1.078   6.751 -0.4898 -0.7370 -0.0669
12815TIP3    H138386   6.324   1.021   6.823  1.2405 -1.1992  0.1999
12815TIP3    H238387   6.445   1.081   6.754 -0.4547  0.6427 -1.2624
12816TIP3   OH238388   1.748   6.586   1.989  0.6645  0.6677  0.1914
12816TIP3    H138389   1.715   6.653   1.929  0.0769 -1.1755 -1.6620
12816TIP3    H238390   1.676   6.572   2.051 -0.0926  0.2339 -0.7551
12817TIP3   OH238391   5.979   2.904   0.155  0.0234  0.1366 -0.1567
12817TIP3    H138392   5.964   2.810   0.150  3.2346 -0.5238  0.5245
12817TIP3    H238393   5.972   2.925   0.248  0.8888  0.2512 -0.1155
12818TIP3   OH238394   2.127   1.767   3.035 -0.3685  0.1945  0.7157
12818TIP3    H138395   2.168   1.854   3.039 -1.0998  0.5142  1.7792
12818TIP3    H238396   2.056   1.772   3.099 -2.9420  0.1060 -1.9722
12819TIP3   OH238397   4.796   1.674   5.967 -0.4589  0.6272  0.0511
12819TIP3    H138398   4.834   1.752   6.008 -0.2340  0.3795  0.3194
12819TIP3    H238399   4.702   1.680   5.984 -0.9745  2.5892 -2.8151
12820TIP3   OH238400   8.234   2.915   1.404 -0.3645 -0.6686  0.2569
12820TIP3    H138401   8.324   2.888   1.425  0.2641  1.3160  0.3746
12820TIP3    H238402   8.227   2.902   1.309  0.6282  0.5974 -0.0268
12821TIP3   OH238403   4.495   0.861   5.184  0.2200  0.0178  0.5870
12821TIP3    H138404   4.460   0.947   5.163 -2.8497 -0.9002  1.4952
12821TIP3    H238405   4.579   0.880   5.227  0.6791  2.3806 -1.1467
12822TIP3   OH238406   1.166   6.604   3.412 -0.3647 -0.2555  0.3557
12822TIP3    H138407   1.077   6.618   3.379 -0.9554 -1.6821  1.2609
12822TIP3    H238408   1.216   6.580   3.334 -0.4236  1.9100 -0.3896
12823TIP3   OH238409   6.913   4.559   2.079  0.3112 -0.2708 -0.0695
12823TIP3    H138410   6.926   4.606   2.161  0.0683  0.0436 -0.2099
12823TIP3    H238411   6.818   4.550   2.071  0.3030  0.1964 -0.5890
12824TIP3   OH238412   0.994   0.986   2.817 -0.6646 -0.3976  0.1550
12824TIP3    H138413   0.961   0.904   2.854  0.4024 -1.4902 -1.1862
12824TIP3    H238414   0.987   1.049   2.888 -1.2692 -1.7199  1.3189
12825TIP3   OH238415   2.174   5.921   4.214  0.1254  0.2452  0.2375
12825TIP3    H138416   2.122   5.858   4.164  0.4630  1.6937 -2.0832
12825TIP3    H238417   2.265   5.899   4.193  0.2443  1.4299 -0.5304
12826TIP3   OH238418   3.250   3.296   3.284  0.0185  0.4967  0.3965
12826TIP3    H138419   3.169   3.251   3.260  0.8803 -0.9696  0.1066
12826TIP3    H238420   3.235   3.326   3.374 -1.4460  1.7676 -0.2109
12827TIP3   OH238421   3.751   5.256   1.576 -0.4664 -0.1040  0.2394
12827TIP3    H138422   3.704   5.267   1.494 -0.6574 -0.9887  0.2199
12827TIP3    H238423   3.684   5.261   1.643 -0.2597  1.0193  0.3871
12828TIP3   OH238424   3.561   2.917   2.012  0.3477  0.0015  0.8595
12828TIP3    H138425   3.600   2.997   1.977 -2.1403  1.5978  1.4514
12828TIP3    H238426   3.632   2.854   2.014  1.9548  1.5873 -1.5193
12829TIP3   OH238427   7.009   4.678   6.701  0.2817 -0.1771 -0.2356
12829TIP3    H138428   7.072   4.645   6.637 -1.4821 -0.9597 -1.6503
12829TIP3    H238429   6.925   4.673   6.657 -1.2478 -2.0591  2.5644
12830TIP3   OH238430   3.000   1.918   1.980 -0.3377 -0.5801 -0.4585
12830TIP3    H138431   3.001   1.825   2.002 -0.8355 -0.1939  1.2930
12830TIP3    H238432   3.061   1.958   2.040 -0.1602  0.2523 -1.1711
12831TIP3   OH238433   5.741   4.745   3.470  1.0047 -0.0070  0.5861
12831TIP3    H138434   5.665   4.786   3.427  0.0560 -1.1296  1.1541
12831TIP3    H238435   5.808   4.813   3.468  0.3402  0.6562 -0.8780
12832TIP3   OH238436   8.154   2.572   4.093  0.1948  0.1192 -0.2782
12832TIP3    H138437   8.198   2.499   4.137  0.7304  1.5579  1.7229
12832TIP3    H238438   8.064   2.570   4.126  0.5150  1.0155  0.7085
12833TIP3   OH238439   1.571   1.893   3.153 -0.3078 -0.8807  0.1143
12833TIP3    H138440   1.483   1.918   3.124  0.4933 -0.0541 -1.7359
12833TIP3    H238441   1.555   1.830   3.224 -2.3894 -1.5315 -0.8354
12834TIP3   OH238442   4.737   1.028   0.936 -0.4651 -0.2758 -0.2357
12834TIP3    H138443   4.793   1.032   0.859  0.6243 -1.8703  0.4262
12834TIP3    H238444   4.700   0.940   0.935  0.9807 -0.9972  1.9568
12835TIP3   OH238445   6.955   4.001   0.268  0.2185 -0.1836  0.2183
12835TIP3    H138446   7.019   3.946   0.224 -1.2363  0.0103 -2.3329
12835TIP3    H238447   6.999   4.085   0.280  0.3192  0.1231 -2.0053
12836TIP3   OH238448   6.812   0.499   1.242  0.2495  0.6445  0.0670
12836TIP3    H138449   6.735   0.460   1.200  1.2578 -1.4119  0.0043
12836TIP3    H238450   6.778   0.537   1.323 -0.4729 -3.0028  1.6781
12837TIP3   OH238451   6.535   1.849   3.470  0.4106  0.2453 -0.4062
12837TIP3    H138452   6.607   1.802   3.512 -0.5043 -0.3345  0.5783
12837TIP3    H238453   6.540   1.937   3.506 -1.1443 -0.5579  2.1120
12838TIP3   OH238454   5.947   6.349   6.170  0.1469 -0.5369 -0.6345
12838TIP3    H138455   6.022   6.355   6.111  0.2691 -1.7251 -0.6318
12838TIP3    H238456   5.970   6.407   6.243  0.8748 -0.5467 -0.8441
12839TIP3   OH238457   5.345   2.820   4.794 -0.5927  0.0358  0.3389
12839TIP3    H138458   5.389   2.754   4.849 -0.1530 -0.9320 -1.1072
12839TIP3    H238459   5.366   2.793   4.705 -0.2427  2.2902 -0.3002
12840TIP3   OH238460   0.146   1.142   5.553  0.4683 -0.0942 -0.8463
12840TIP3    H138461   0.087   1.067   5.557  1.8409 -1.1631  0.1389
12840TIP3    H238462   0.145   1.169   5.461  0.1553 -1.4932 -1.2729
12841TIP3   OH238463   5.420   3.712   4.609  0.0647  0.1909  0.3797
12841TIP3    H138464   5.385   3.719   4.521  1.4045 -0.1411 -0.2083
12841TIP3    H238465   5.510   3.743   4.601  0.1507  0.3295  1.6733
12842TIP3   OH238466   3.036   6.709   3.859 -0.8892 -0.6456  0.2635
12842TIP3    H138467   3.055   6.770   3.930  0.1475  0.4426 -0.9043
12842TIP3    H238468   2.970   6.754   3.805 -0.5038 -0.7701 -0.3221
12843TIP3   OH238469   7.951   4.179   2.750  0.5927 -0.1763 -0.0548
12843TIP3    H138470   7.909   4.181   2.835  0.8795  0.0966  0.0831
12843TIP3    H238471   7.880   4.162   2.688 -0.5082  4.2187 -0.2884
12844TIP3   OH238472   7.902   2.700   3.106  0.3274 -0.3677  0.7757
12844TIP3    H138473   7.874   2.780   3.150  0.6781 -0.3796  1.0237
12844TIP3    H238474   7.893   2.632   3.172 -1.9827 -0.9351 -0.0270
12845TIP3   OH238475   5.973   6.056   6.115 -0.2783  0.7915 -0.1681
12845TIP3    H138476   6.043   6.056   6.180 -0.7842 -1.1039  0.4386
12845TIP3    H238477   5.927   6.139   6.130  0.3054  0.9192  1.0973
12846TIP3   OH238478   3.892   7.858   6.369  0.3130  0.7214  0.4660
12846TIP3    H138479   3.973   7.906   6.387  1.5651 -0.9061 -0.5165
12846TIP3    H238480   3.900   7.832   6.277 -1.1268  0.1483  0.4851
12847TIP3   OH238481   0.873   1.470   0.470  0.1580  0.3398  0.1078
12847TIP3    H138482   0.909   1.542   0.418 -1.0397 -0.2792 -1.6853
12847TIP3    H238483   0.812   1.512   0.531 -0.2612  0.9022 -0.6749
12848TIP3   OH238484   0.468   6.925   2.374 -0.5158  0.2334  0.0714
12848TIP3    H138485   0.433   7.005   2.335  2.2832  1.3790 -0.3016
12848TIP3    H238486   0.474   6.945   2.468 -1.3082 -0.1668  0.2159
12849TIP3   OH238487   1.638   0.418   6.053 -0.2274  0.0162 -0.1333
12849TIP3    H138488   1.700   0.401   5.982  1.0214 -0.4848  1.0214
12849TIP3    H238489   1.567   0.357   6.038 -0.0803  0.0450 -1.0490
12850TIP3   OH238490   6.575   4.391   6.162  0.2763 -0.5233  0.2912
12850TIP3    H138491   6.499   4.382   6.104  0.5577 -1.2128  0.0187
12850TIP3    H238492   6.591   4.486   6.166 -1.1123 -0.2946  1.0409
12851TIP3   OH238493   1.895   7.157   3.219 -0.1905  0.7384 -0.1649
12851TIP3    H138494   1.859   7.208   3.146 -1.2504  0.4202  0.1211
12851TIP3    H238495   1.941   7.084   3.176  1.4094  1.9132 -0.5813
12852TIP3   OH238496   1.369   2.036   0.101  0.6697 -0.0108  0.3075
12852TIP3    H138497   1.434   1.975   0.136  0.3122 -0.6314 -0.0806
12852TIP3    H238498   1.392   2.121   0.139  0.3735 -0.6233  1.9634
12853TIP3   OH238499   5.987   4.393   2.948  0.5021 -0.1327  0.1373
12853TIP3    H138500   5.914   4.390   2.885 -0.6992  1.9342  1.3214
12853TIP3    H238501   5.949   4.432   3.026  2.9862  1.3740  0.6888
12854TIP3   OH238502   3.162   0.495   0.405  0.0633  0.4751 -0.5680
12854TIP3    H138503   3.157   0.581   0.364  1.5702  0.2553 -1.2389
12854TIP3    H238504   3.107   0.439   0.350 -1.5003  1.1208  0.2691
12855TIP3   OH238505   3.930   7.444   1.695 -0.5126  0.4716  0.6972
12855TIP3    H138506   3.844   7.404   1.710  0.2705 -0.7398  2.2421
12855TIP3    H238507   3.939   7.510   1.763 -0.8526  1.7456 -0.4539
12856TIP3   OH238508   1.990   4.031   1.629  0.1447 -1.1127  0.4098
12856TIP3    H138509   1.975   4.023   1.723  0.3219  3.1635  0.9722
12856TIP3    H238510   2.081   4.060   1.622  0.3342 -1.9786 -1.1842
12857TIP3   OH238511   3.554   7.466   6.292 -0.3539 -0.0168 -0.2669
12857TIP3    H138512   3.478   7.522   6.305  0.1876  0.4430  1.0328
12857TIP3    H238513   3.594   7.459   6.378  0.9308 -0.4585 -0.8729
12858TIP3   OH238514   3.583   7.028   0.078  0.7151  0.1992 -1.0178
12858TIP3    H138515   3.602   7.118   0.106  0.9899  0.4172 -1.8614
12858TIP3    H238516   3.557   6.983   0.158  1.8565  0.6865 -0.3408
12859TIP3   OH238517   6.923   5.417   0.042 -0.0465  0.4151 -0.1485
12859TIP3    H138518   6.885   5.468  -0.029 -1.6707 -0.6180 -0.0706
12859TIP3    H238519   6.848   5.392   0.096  0.5947 -2.5094 -0.4789
12860TIP3   OH238520   0.725   5.698   6.397  0.1948 -0.0509  0.1400
12860TIP3    H138521   0.797   5.636   6.385  0.9193  0.8396 -0.2776
12860TIP3    H238522   0.729   5.720   6.490  1.7283  1.4316 -0.2225
12861TIP3   OH238523   4.052   3.714   0.530  0.7620 -0.1299 -0.6205
12861TIP3    H138524   4.060   3.619   0.518  0.7387 -0.0906 -0.9581
12861TIP3    H238525   3.963   3.727   0.563  0.9864 -0.2822  0.0709
12862TIP3   OH238526   0.748   4.051   3.047 -0.0605  0.0141 -0.6290
12862TIP3    H138527   0.695   4.124   3.079  1.0998  0.7555 -0.3180
12862TIP3    H238528   0.778   4.080   2.961 -0.4657 -0.5629 -0.9679
12863TIP3   OH238529   0.447   4.106   1.364 -0.2198 -0.3034 -0.7380
12863TIP3    H138530   0.441   4.015   1.336  3.0466 -0.5893 -0.8607
12863TIP3    H238531   0.521   4.108   1.424 -0.2480  2.2757 -0.6688
12864TIP3   OH238532   1.742   1.706   5.006 -0.3700 -0.0206 -0.0590
12864TIP3    H138533   1.712   1.682   5.094 -0.5762 -0.2634 -0.1922
12864TIP3    H238534   1.832   1.734   5.018  0.1760 -1.6802 -0.0171
12865TIP3   OH238535   2.488   2.544   2.854 -0.2893 -0.1368 -0.1614
12865TIP3    H138536   2.563   2.538   2.795 -1.9786  1.8813 -2.7490
12865TIP3    H238537   2.495   2.631   2.893 -0.9291 -0.1840  0.0778
12866TIP3   OH238538   4.084   4.841   5.401 -0.8029 -0.0213  0.2732
12866TIP3    H138539   4.145   4.795   5.344 -1.6243  0.3161 -0.9147
12866TIP3    H238540   4.106   4.934   5.389  0.6451 -0.0013  2.4195
12867TIP3   OH238541   1.820   0.165   1.363  0.2400  0.0721 -0.3393
12867TIP3    H138542   1.813   0.145   1.457 -0.2412 -1.7337 -0.7114
12867TIP3    H238543   1.735   0.140   1.327  0.5063  0.5220 -1.3000
12868TIP3   OH238544   1.129   6.991   6.687  0.2639  0.1772 -0.0199
12868TIP3    H138545   1.092   7.059   6.743  0.7707 -0.6438  1.3671
12868TIP3    H238546   1.065   6.980   6.617  0.9833  3.2974 -1.3334
12869TIP3   OH238547   0.261   6.750   5.665  0.1782  0.0617  0.2527
12869TIP3    H138548   0.206   6.678   5.633 -1.1312  0.1598  2.1007
12869TIP3    H238549   0.342   6.744   5.614 -1.1263 -0.7417 -1.8508
12870TIP3   OH238550   7.964   5.862   5.060  0.3950  0.1087  0.0574
12870TIP3    H138551   8.040   5.913   5.089  0.5570 -0.8015  1.3315
12870TIP3    H238552   7.995   5.771   5.063 -0.4273 -0.1889 -0.4372
12871TIP3   OH238553   3.255   6.647   5.306 -0.0397 -0.1886  0.7293
12871TIP3    H138554   3.303   6.683   5.381  0.8824  0.9977 -0.3777
12871TIP3    H238555   3.264   6.552   5.315  2.3836 -0.0389  0.7106
12872TIP3   OH238556   7.441   2.218   5.034 -0.2293 -0.1919 -0.1029
12872TIP3    H138557   7.369   2.194   4.976 -1.2587 -1.3468  1.5620
12872TIP3    H238558   7.513   2.242   4.975 -1.4060 -0.7107 -1.8186
12873TIP3   OH238559   5.649   5.430   4.568  0.1473  0.1200  0.1771
12873TIP3    H138560   5.568   5.466   4.603 -0.9014 -2.4189  0.6094
12873TIP3    H238561   5.632   5.417   4.475 -0.0371 -0.5911  0.3042
12874TIP3   OH238562   2.107   7.227   1.199 -0.3471 -0.3251 -0.2753
12874TIP3    H138563   2.174   7.219   1.131  0.4065  0.6056  0.3314
12874TIP3    H238564   2.099   7.139   1.236  0.4210 -0.4798 -0.4702
12875TIP3   OH238565   5.182   5.511   1.660  0.1067 -0.3796 -0.0143
12875TIP3    H138566   5.141   5.425   1.655 -0.1526 -0.3047  0.6538
12875TIP3    H238567   5.187   5.529   1.754  0.5550  0.1464 -0.1343
12876TIP3   OH238568   6.545   1.645   5.824 -0.8523 -0.9754 -0.1876
12876TIP3    H138569   6.536   1.739   5.809  2.3894 -0.7410 -1.5514
12876TIP3    H238570   6.558   1.637   5.918 -0.0996  0.0958 -0.1763
12877TIP3   OH238571   0.762   2.984   3.215 -0.5963  0.6826  0.8161
12877TIP3    H138572   0.757   2.890   3.232 -0.7531  0.0051 -2.3814
12877TIP3    H238573   0.672   3.015   3.230 -1.1792 -0.2270 -0.5761
12878TIP3   OH238574   4.904   4.393   1.122  0.2659 -0.5311  0.3165
12878TIP3    H138575   4.957   4.415   1.046  0.3579  0.6134  0.6862
12878TIP3    H238576   4.938   4.310   1.153  0.3507 -0.9164 -0.7774
12879TIP3   OH238577   5.979   0.766   3.373 -0.7493  0.4211 -0.1852
12879TIP3    H138578   5.950   0.714   3.448 -1.4773  0.0336 -0.7220
12879TIP3    H238579   5.901   0.772   3.317 -1.1574  3.2955  0.5251
12880TIP3   OH238580   1.501   4.197   4.741 -0.0002  0.0058  0.2095
12880TIP3    H138581   1.440   4.261   4.778 -0.0291 -0.6201  1.2702
12880TIP3    H238582   1.508   4.129   4.808  0.7295 -0.6568 -0.5241
12881TIP3   OH238583   4.932   6.193   4.820 -0.0688  0.9105 -0.0369
12881TIP3    H138584   4.986   6.265   4.852  2.6469  0.2344 -2.6642
12881TIP3    H238585   4.891   6.157   4.899  1.5149  2.9335  1.8250
12882TIP3   OH238586   2.515   3.269   6.172  0.1663 -0.1136 -0.8474
12882TIP3    H138587   2.560   3.224   6.243 -0.4903 -0.9666 -0.9676
12882TIP3    H238588   2.423   3.267   6.195  0.0314  0.3519 -1.3118
12883TIP3   OH238589   0.178   7.308   3.018  0.4230 -1.3036 -0.1840
12883TIP3    H138590   0.200   7.234   3.075  2.8984 -1.1725 -0.8233
12883TIP3    H238591   0.183   7.271   2.929 -0.7945 -0.9065 -0.4357
12884TIP3   OH238592   1.367   7.162   3.743 -0.1084 -0.3649  0.0601
12884TIP3    H138593   1.276   7.189   3.735 -0.0203 -0.1280 -0.1420
12884TIP3    H238594   1.368   7.104   3.819  0.0386  1.6584  1.6874
12885TIP3   OH238595   6.336   1.533   5.680  0.3923 -0.2153 -0.3311
12885TIP3    H138596   6.391   1.595   5.728  0.5608  0.1468 -0.9824
12885TIP3    H238597   6.264   1.586   5.647 -0.6781 -0.7735  0.9667
12886TIP3   OH238598   1.258   1.161   4.930 -0.5737  0.2653 -0.0666
12886TIP3    H138599   1.194   1.187   4.863 -0.2315 -0.8464 -0.8462
12886TIP3    H238600   1.321   1.107   4.883 -0.3433 -0.5671  1.1651
12887TIP3   OH238601   2.420   4.477   3.160  0.2876  0.1188  0.1827
12887TIP3    H138602   2.465   4.465   3.243 -0.6455  0.6973  0.7932
12887TIP3    H238603   2.472   4.543   3.114  0.4743  0.2381  0.5634
12888TIP3   OH238604   2.913   2.098   3.206 -0.8999 -0.1905 -0.0551
12888TIP3    H138605   2.934   2.169   3.267 -0.6911 -0.5236  0.2573
12888TIP3    H238606   2.960   2.122   3.126  1.6711 -1.4661  0.9458
12889TIP3   OH238607   5.376   5.208   3.149 -0.8681  0.0081  0.3860
12889TIP3    H138608   5.365   5.301   3.168 -0.4070  0.1214  0.1266
12889TIP3    H238609   5.288   5.171   3.155 -1.1181  0.5452  0.0583
12890TIP3   OH238610   3.996   3.561   2.109 -0.3984  0.3659 -0.1997
12890TIP3    H138611   4.048   3.641   2.119 -0.5032  0.4294 -0.1600
12890TIP3    H238612   4.014   3.511   2.188  0.5542 -0.1683 -0.7383
12891TIP3   OH238613   2.757   6.119   5.870  0.5367  0.0319 -0.6092
12891TIP3    H138614   2.784   6.135   5.960  1.3640 -0.5821 -0.7356
12891TIP3    H238615   2.778   6.027   5.855  0.6261  0.1895 -1.5020
12892TIP3   OH238616   3.736   0.058   2.161  0.0170 -0.3276  0.4573
12892TIP3    H138617   3.680  -0.005   2.117  0.0967 -0.2602  0.2572
12892TIP3    H238618   3.755   0.124   2.094 -0.2411  0.0210  0.7246
12893TIP3   OH238619   0.601   1.348   3.904 -0.3989  0.3646  0.4326
12893TIP3    H138620   0.648   1.413   3.956  0.2834 -0.4605  0.8680
12893TIP3    H238621   0.657   1.335   3.827 -1.1295  1.1658 -0.2614
12894TIP3   OH238622   7.701   7.382   4.374 -0.2832 -0.4463 -0.0437
12894TIP3    H138623   7.638   7.393   4.445 -1.4967 -1.2748 -0.9393
12894TIP3    H238624   7.753   7.305   4.399 -0.6394 -0.6755 -0.0090
12895TIP3   OH238625   7.276   6.616   6.462 -0.4553 -0.0098  0.1461
12895TIP3    H138626   7.259   6.700   6.504  2.1807  0.3959  0.5727
12895TIP3    H238627   7.189   6.583   6.439 -1.6394  2.3262  0.8924
12896TIP3   OH238628   6.954   4.947   4.822 -0.0651  0.1095 -0.8227
12896TIP3    H138629   6.912   4.914   4.901  1.0950  0.6178  0.0324
12896TIP3    H238630   6.988   4.869   4.778 -1.0688 -0.2131 -1.0488
12897TIP3   OH238631   5.158   6.688   4.802  0.7705  0.2465  0.2532
12897TIP3    H138632   5.163   6.747   4.727  0.8077  0.3452  0.3343
12897TIP3    H238633   5.070   6.702   4.837  0.4610 -0.3846 -0.2556
12898TIP3   OH238634   7.749   0.662   6.486 -0.4410 -0.2773 -0.2579
12898TIP3    H138635   7.766   0.754   6.506 -0.9716 -0.5750  1.7895
12898TIP3    H238636   7.657   0.659   6.462  0.1638  0.0607 -3.0271
12899TIP3   OH238637   0.203   2.921   1.947 -0.0903 -0.8401 -0.2692
12899TIP3    H138638   0.242   2.988   1.891  0.8982 -0.8243  0.4066
12899TIP3    H238639   0.166   2.857   1.886  1.5125 -1.1501 -0.9708
12900TIP3   OH238640   8.000   0.336   4.610  0.1816 -0.8136 -0.1496
12900TIP3    H138641   8.008   0.256   4.663 -1.5228 -0.7683  0.2476
12900TIP3    H238642   7.909   0.363   4.623  0.0035 -0.2227 -2.2952
12901TIP3   OH238643   5.271   2.827   6.593  0.3626 -0.4125  0.7872
12901TIP3    H138644   5.265   2.781   6.509  1.5417 -0.5762  0.7661
12901TIP3    H238645   5.198   2.793   6.645 -1.6031  1.1180 -0.8019
12902TIP3   OH238646   3.978   1.960   6.827 -0.1146  0.2118 -0.2557
12902TIP3    H138647   3.967   2.054   6.846 -0.0324 -0.0299  1.1292
12902TIP3    H238648   3.941   1.949   6.740 -0.0016  1.5613 -0.5033
12903TIP3   OH238649   6.337   4.234   0.619  0.1315 -0.2931 -0.4927
12903TIP3    H138650   6.286   4.289   0.559  2.1116 -0.0282 -2.0033
12903TIP3    H238651   6.361   4.157   0.568  1.7935 -0.1066 -0.0420
12904TIP3   OH238652   0.308   2.142   5.015  0.0135  0.5738  0.5606
12904TIP3    H138653   0.238   2.125   4.951  0.1682 -2.8854  1.1112
12904TIP3    H238654   0.263   2.179   5.091 -0.4529  2.8255 -0.7270
12905TIP3   OH238655   4.284   4.324   1.445  0.0887 -0.3947 -0.0748
12905TIP3    H138656   4.267   4.305   1.353  0.2281  2.2127 -0.7129
12905TIP3    H238657   4.307   4.239   1.484  0.4418 -1.4861 -2.5199
12906TIP3   OH238658   5.050   0.535   2.669  0.3314  0.2747 -0.3850
12906TIP3    H138659   4.959   0.536   2.698  0.6763 -0.6220  0.7861
12906TIP3    H238660   5.081   0.624   2.686  0.3872 -0.0902  1.6473
12907TIP3   OH238661   3.655   7.114   2.901 -0.0249 -0.5029  0.1370
12907TIP3    H138662   3.737   7.133   2.948  1.3065  0.2902 -2.3274
12907TIP3    H238663   3.618   7.200   2.883 -1.7444 -0.8655  1.6438
12908TIP3   OH238664   2.402   2.068   5.474  0.3479 -0.1236  0.2990
12908TIP3    H138665   2.403   2.153   5.518 -0.6665 -0.2444  0.5887
12908TIP3    H238666   2.388   2.005   5.545 -1.1886 -0.3321 -0.1594
12909TIP3   OH238667   5.876   2.702   5.594 -0.3113  0.3833 -0.0456
12909TIP3    H138668   5.890   2.706   5.689 -0.8079  0.9353  0.0146
12909TIP3    H238669   5.805   2.765   5.578  0.1592  0.7212 -0.8583
12910TIP3   OH238670   3.251   6.424   2.513  0.0698  0.1200 -0.4950
12910TIP3    H138671   3.191   6.478   2.462 -0.0822  1.3020  0.8507
12910TIP3    H238672   3.332   6.475   2.517 -0.2451  0.5791  1.2407
12911TIP3   OH238673   1.178   4.184   4.104 -0.8551  0.2976  0.1731
12911TIP3    H138674   1.246   4.205   4.040 -1.1867 -0.3404 -0.4014
12911TIP3    H238675   1.111   4.251   4.091  0.0058  1.4314  1.3083
12912TIP3   OH238676   7.188   4.656   2.873  0.1204  0.5011  0.4840
12912TIP3    H138677   7.102   4.621   2.851  0.0189  0.9484  0.1386
12912TIP3    H238678   7.218   4.698   2.792  1.0293 -0.3681  0.3397
12913TIP3   OH238679   5.019   1.763   1.260 -0.2148 -0.1783  0.0748
12913TIP3    H138680   5.031   1.851   1.225  0.4992 -0.1406  0.3970
12913TIP3    H238681   5.105   1.722   1.254 -0.3976 -0.6463  0.4884
12914TIP3   OH238682   6.187   6.426   4.795  0.1209 -1.0502 -0.1380
12914TIP3    H138683   6.206   6.492   4.861  0.7615 -1.8717  0.5190
12914TIP3    H238684   6.272   6.407   4.756  0.7392 -4.3324  2.4157
12915TIP3   OH238685   0.598   5.985   3.747 -0.6293 -0.3668 -0.3012
12915TIP3    H138686   0.639   6.024   3.825 -0.6047 -1.2189  0.1282
12915TIP3    H238687   0.534   6.050   3.719  0.1190  0.4265 -0.2207
12916TIP3   OH238688   0.244   1.726   0.196 -0.2990 -0.1644  0.0033
12916TIP3    H138689   0.242   1.749   0.289 -0.1618  0.1827 -0.0750
12916TIP3    H238690   0.337   1.711   0.177 -0.4296 -1.1937  0.1437
12917TIP3   OH238691   0.356   5.074   6.135  0.4241 -0.3626 -0.1982
12917TIP3    H138692   0.322   5.035   6.215 -2.4957  0.7399 -0.7911
12917TIP3    H238693   0.389   5.000   6.083  0.9995 -1.2325  1.3541
12918TIP3   OH238694   5.784   0.251   5.658 -1.0115  0.1630 -0.0350
12918TIP3    H138695   5.733   0.280   5.734 -0.4751 -0.9312  0.7779
12918TIP3    H238696   5.831   0.173   5.690  0.5355  0.6692 -0.9943
12919TIP3   OH238697   5.284   0.311   4.303 -0.1084 -0.0041  0.3119
12919TIP3    H138698   5.225   0.386   4.313 -0.9346 -0.5468 -0.3582
12919TIP3    H238699   5.287   0.272   4.390  1.2915  1.4823  0.9710
12920TIP3   OH238700  -0.000   7.229   5.054 -0.3433 -0.4542  0.1520
12920TIP3    H138701   0.058   7.278   5.112 -0.9333 -0.2013  0.5389
12920TIP3    H238702  -0.045   7.297   5.003  1.4210 -0.7045 -1.8645
12921TIP3   OH238703   3.639   4.185   1.097 -0.0557  0.4265 -0.0752
12921TIP3    H138704   3.643   4.118   1.029  1.1921  1.6570 -1.2679
12921TIP3    H238705   3.616   4.265   1.051 -1.7536  0.8227  1.3676
12922TIP3   OH238706   2.587   3.555   3.668  0.1090  0.7511 -0.0168
12922TIP3    H138707   2.665   3.505   3.691 -0.0601 -0.4762 -1.8641
12922TIP3    H238708   2.619   3.624   3.609  0.1343  1.9537  1.3582
12923TIP3   OH238709   1.598   2.130   3.544  0.0473 -0.1431  0.4116
12923TIP3    H138710   1.579   2.209   3.595 -3.3770 -0.9326  0.6282
12923TIP3    H238711   1.594   2.158   3.453 -1.0918  0.0087  0.4887
12924TIP3   OH238712   3.708   1.529   2.620 -0.4246 -0.4812  0.2858
12924TIP3    H138713   3.713   1.614   2.664 -2.5741 -1.5998  2.9760
12924TIP3    H238714   3.794   1.490   2.634 -0.0582  0.4544  0.7706
12925TIP3   OH238715   2.492   4.007   0.035  0.2254 -0.0076  0.3176
12925TIP3    H138716   2.501   3.984   0.127  0.2332  1.9375  0.8462
12925TIP3    H238717   2.580   4.037   0.009 -0.5290  2.9521  0.7762
12926TIP3   OH238718   2.007   4.170   6.521  0.4092 -0.0757  0.0113
12926TIP3    H138719   1.986   4.110   6.593  1.0969 -0.0345  0.2636
12926TIP3    H238720   2.102   4.159   6.510  0.6827  1.5259  0.5880
12927TIP3   OH238721   1.352   3.152   5.136 -0.6368  0.3285  0.5149
12927TIP3    H138722   1.328   3.096   5.062 -0.1177  2.2444 -1.2016
12927TIP3    H238723   1.277   3.210   5.148 -1.2640 -0.7926  2.4212
12928TIP3   OH238724   3.413   3.172   2.354  0.5521 -0.3150 -0.0336
12928TIP3    H138725   3.380   3.260   2.369 -0.5437 -0.5325 -0.9927
12928TIP3    H238726   3.337   3.115   2.371  1.2030 -1.0751  0.4397
12929TIP3   OH238727   6.808   0.726   2.465 -0.0402  0.1476  0.1426
12929TIP3    H138728   6.722   0.731   2.423 -0.2941 -0.3057  0.6100
12929TIP3    H238729   6.848   0.646   2.430  0.7463  1.0333 -1.0974
12930TIP3   OH238730   0.584   0.784   3.475 -0.4200  0.1977  0.2511
12930TIP3    H138731   0.556   0.876   3.480 -0.0534  0.2779  0.9291
12930TIP3    H238732   0.528   0.746   3.408 -1.3456  0.6426  0.7520
12931TIP3   OH238733   1.080   4.850   1.860  0.5309 -0.2547 -0.1213
12931TIP3    H138734   1.153   4.844   1.798  1.5772  0.5158  0.9933
12931TIP3    H238735   1.015   4.904   1.815 -0.5344 -3.0325 -2.1909
12932TIP3   OH238736   4.274   0.178   0.478 -0.3581 -0.6265  0.3413
12932TIP3    H138737   4.324   0.151   0.555 -0.5260 -0.4467  0.5138
12932TIP3    H238738   4.320   0.137   0.405  0.0271 -0.4866  0.5011
12933TIP3   OH238739   8.174   2.348   6.622  0.8267  0.4679  0.5094
12933TIP3    H138740   8.078   2.349   6.621  0.8251  0.2406  0.1496
12933TIP3    H238741   8.199   2.439   6.609  0.6539  0.3012 -1.3085
12934TIP3   OH238742   1.780   4.990   4.196  0.1056  0.2904 -0.0065
12934TIP3    H138743   1.793   4.905   4.238  1.2377  0.5946  0.2952
12934TIP3    H238744   1.847   4.995   4.129 -0.6335  0.5143 -0.7452
12935TIP3   OH238745   8.414   3.437   0.851  0.1671 -0.4170  0.7140
12935TIP3    H138746   8.400   3.481   0.935 -0.8672  0.0314  0.3170
12935TIP3    H238747   8.351   3.478   0.792  2.0174  0.4904 -0.7314
12936TIP3   OH238748   6.584   4.354   2.199  0.4411 -0.0691 -0.0253
12936TIP3    H138749   6.495   4.389   2.203  0.1558 -0.8335  0.6659
12936TIP3    H238750   6.594   4.324   2.109  0.1833  0.4752 -0.2388
12937TIP3   OH238751   3.002   3.976   4.222  0.7436 -0.1454 -0.5657
12937TIP3    H138752   2.990   3.996   4.315  1.3757 -1.5337 -0.1437
12937TIP3    H238753   3.087   4.015   4.201  1.4205 -1.2731 -0.0637
12938TIP3   OH238754   1.670   7.403   4.381  0.3577  0.0135  0.3691
12938TIP3    H138755   1.652   7.492   4.412 -0.9228  0.0187 -0.3090
12938TIP3    H238756   1.692   7.414   4.289  0.0085 -0.3775  0.2333
12939TIP3   OH238757   8.258   3.907   1.562 -0.1814  0.0637 -0.4123
12939TIP3    H138758   8.293   3.969   1.626  1.1641 -0.7164 -0.3531
12939TIP3    H238759   8.214   3.961   1.497 -0.4404  0.9582  0.4822
12940TIP3   OH238760   1.600   5.991   3.816 -0.0354  0.0451  0.8496
12940TIP3    H138761   1.676   5.934   3.805 -0.0512  0.0771  0.5644
12940TIP3    H238762   1.575   5.981   3.907 -0.4501 -0.9174  0.6342
12941TIP3   OH238763   6.774   5.054   1.590 -0.1328 -0.7013  0.0187
12941TIP3    H138764   6.684   5.080   1.568 -0.7304  0.2878  3.1855
12941TIP3    H238765   6.824   5.076   1.512 -2.3037  0.6846 -1.1038
12942TIP3   OH238766   5.897   6.598   1.293 -0.2784 -0.1934 -0.3876
12942TIP3    H138767   5.844   6.577   1.216 -1.1715 -1.3480  0.4909
12942TIP3    H238768   5.971   6.538   1.288 -0.2282 -0.1249 -0.4577
12943TIP3   OH238769   5.885   5.098   2.288  0.1090  0.3251 -0.2919
12943TIP3    H138770   5.980   5.105   2.287  0.0484  1.7021 -1.7987
12943TIP3    H238771   5.859   5.137   2.371  0.8293  0.5867 -0.1803
12944TIP3   OH238772   2.424   4.613   6.026 -0.2311 -0.3373 -0.0240
12944TIP3    H138773   2.466   4.697   6.007  0.1410 -0.1928  1.3351
12944TIP3    H238774   2.391   4.622   6.115  1.3797 -2.2086  0.8429
12945TIP3   OH238775   5.656   3.948   1.438 -0.1386  0.0288 -0.4711
12945TIP3    H138776   5.726   3.887   1.463  0.8876  1.2060 -0.4017
12945TIP3    H238777   5.643   3.932   1.344  0.7240  0.2799 -0.6434
12946TIP3   OH238778   5.211   4.100   4.380  0.5431  0.1402  0.5360
12946TIP3    H138779   5.196   4.186   4.419  1.7698 -0.8549  3.4369
12946TIP3    H238780   5.305   4.097   4.362  0.2792 -0.1047 -0.9739
12947TIP3   OH238781   8.070   6.215   0.851 -0.5682 -0.0265  0.4752
12947TIP3    H138782   8.090   6.167   0.770 -1.7327 -0.4701  0.4336
12947TIP3    H238783   7.975   6.229   0.848 -0.4566  1.0283  1.1894
12948TIP3   OH238784   3.781   2.050   4.923 -0.3265 -0.4178  0.1355
12948TIP3    H138785   3.716   2.071   4.989 -1.7316  1.8494 -1.8130
12948TIP3    H238786   3.825   2.133   4.904 -1.6536 -0.3272 -3.3651
12949TIP3   OH238787   0.149   2.446   1.490 -0.3621  0.4114 -0.0150
12949TIP3    H138788   0.156   2.413   1.401 -2.1197 -1.4437  0.4635
12949TIP3    H238789   0.189   2.533   1.487 -0.1386  0.2781 -2.5204
12950TIP3   OH238790   7.673   0.965   3.192 -0.1669 -0.3787 -0.3357
12950TIP3    H138791   7.588   1.008   3.201 -0.6275 -1.2936 -0.1401
12950TIP3    H238792   7.702   0.988   3.104 -0.2501  0.5766 -0.1187
12951TIP3   OH238793   4.145   5.820   0.032 -0.3177 -0.3028  0.2166
12951TIP3    H138794   4.118   5.756  -0.034  0.1489 -0.0185 -0.2566
12951TIP3    H238795   4.178   5.767   0.105  2.9650 -0.6677 -1.3549
12952TIP3   OH238796   3.452   1.264   4.625  0.5723  0.2864 -0.4349
12952TIP3    H138797   3.517   1.314   4.673 -1.4124  1.5241  1.1396
12952TIP3    H238798   3.402   1.329   4.576  2.2278 -0.8799 -4.0469
12953TIP3   OH238799   3.753   5.562   1.886  0.1743  0.9310  0.0049
12953TIP3    H138800   3.736   5.484   1.937 -0.2631  1.9686  1.5064
12953TIP3    H238801   3.680   5.567   1.824 -0.6598  0.9783  0.9660
12954TIP3   OH238802   5.705   0.124   4.713 -0.3125 -0.0303 -0.2389
12954TIP3    H138803   5.615   0.092   4.724 -0.0709 -0.3578  0.8851
12954TIP3    H238804   5.703   0.213   4.749  0.1157 -0.5353  1.1002
12955TIP3   OH238805   4.675   5.397   2.004  0.4358 -0.1124 -0.2000
12955TIP3    H138806   4.662   5.435   2.090 -0.1761 -0.1475 -0.2781
12955TIP3    H238807   4.606   5.433   1.950  1.0026  0.1568 -0.7645
12956TIP3   OH238808   6.685   4.006   0.127 -0.1554  0.2369 -0.1212
12956TIP3    H138809   6.747   3.981   0.195 -0.2704  0.4533  0.0605
12956TIP3    H238810   6.612   3.945   0.136  0.4298 -0.6095 -0.9139
12957TIP3   OH238811   0.167   4.149   2.203 -0.0833  0.1142  0.1826
12957TIP3    H138812   0.136   4.059   2.213  0.7128 -0.1719  0.2006
12957TIP3    H238813   0.260   4.139   2.181 -0.1513  0.9150 -0.5002
12958TIP3   OH238814   1.826   2.473   6.138  0.1338 -0.1412  0.3017
12958TIP3    H138815   1.746   2.497   6.090  0.8637 -1.3971 -1.6561
12958TIP3    H238816   1.804   2.389   6.178  0.3142 -0.2643  0.1434
12959TIP3   OH238817   4.744   0.439   1.375  0.1310 -0.2068  0.9728
12959TIP3    H138818   4.704   0.489   1.446 -1.4679 -0.2785  0.1763
12959TIP3    H238819   4.701   0.472   1.296  1.8433 -0.1465  0.0218
12960TIP3   OH238820   7.371   5.176   6.473  0.2534 -0.0852  0.0642
12960TIP3    H138821   7.365   5.083   6.451 -2.9902 -0.0182  0.1556
12960TIP3    H238822   7.324   5.184   6.557  0.4330  1.6264  0.0355
12961TIP3   OH238823   5.847   1.308   6.840  0.7017  0.8536 -0.1965
12961TIP3    H138824   5.828   1.343   6.927  0.5388  0.5885 -0.1230
12961TIP3    H238825   5.840   1.384   6.782 -2.1307  0.5498 -0.3946
12962TIP3   OH238826   0.798   2.051   1.839  0.0478  0.3360 -0.1112
12962TIP3    H138827   0.726   2.002   1.798  0.1829 -1.0723  1.2653
12962TIP3    H238828   0.772   2.060   1.930  2.2269 -1.5260  0.7872
12963TIP3   OH238829   2.068   0.580   3.380 -0.0191 -0.3449  0.2128
12963TIP3    H138830   2.035   0.524   3.309  1.3134 -0.4613 -0.3353
12963TIP3    H238831   2.094   0.661   3.336  0.0950 -0.1199  0.6925
12964TIP3   OH238832   6.979   4.101   3.233  0.2027 -0.0250  0.8310
12964TIP3    H138833   6.957   4.126   3.322 -0.9560 -0.2316  0.6102
12964TIP3    H238834   7.056   4.044   3.243  1.6375  1.8965  1.4886
12965TIP3   OH238835   4.707   7.012   0.518 -0.6471  0.1067  0.0044
12965TIP3    H138836   4.709   6.943   0.453  0.7285  1.2655 -1.2674
12965TIP3    H238837   4.700   6.966   0.602  0.4633 -1.5747 -0.7732
12966TIP3   OH238838   4.831   5.224   1.700  0.1338  0.2406 -0.8207
12966TIP3    H138839   4.862   5.164   1.632 -0.7165  1.5543 -2.4173
12966TIP3    H238840   4.902   5.225   1.764  1.0809 -0.8306 -1.8059
12967TIP3   OH238841   8.310   5.911   0.388  0.0746  0.0974 -0.2294
12967TIP3    H138842   8.330   5.838   0.447  1.2769 -0.8143 -1.7021
12967TIP3    H238843   8.389   5.964   0.388 -1.0700  1.9579  1.4788
12968TIP3   OH238844   3.597   5.857   2.852 -0.3275 -0.2641 -0.0594
12968TIP3    H138845   3.574   5.835   2.943 -1.6965  2.8028  0.4769
12968TIP3    H238846   3.514   5.852   2.805 -0.0163  0.1953 -0.6596
12969TIP3   OH238847   6.883   0.133   5.882  0.1250  0.7166 -0.2543
12969TIP3    H138848   6.901   0.045   5.851  2.2387  1.4818 -1.4184
12969TIP3    H238849   6.797   0.154   5.846  1.0100  0.2979 -2.7882
12970TIP3   OH238850   2.262   1.442   1.035 -0.1332  0.2296 -0.7986
12970TIP3    H138851   2.302   1.409   1.115  1.3505 -1.9921 -2.3562
12970TIP3    H238852   2.308   1.525   1.019 -0.2580  0.5693  0.4524
12971TIP3   OH238853   5.847   3.670   6.031 -0.2566 -0.3289  0.7430
12971TIP3    H138854   5.803   3.742   6.075 -0.4429  1.3677 -1.9642
12971TIP3    H238855   5.935   3.668   6.069 -0.4192  1.0053  1.2290
12972TIP3   OH238856   4.256   7.557   6.661 -0.3124 -0.1213  0.3174
12972TIP3    H138857   4.299   7.618   6.601 -0.9266  1.6876  1.6076
12972TIP3    H238858   4.165   7.553   6.630 -0.1277 -0.8832 -0.1336
12973TIP3   OH238859   7.364   2.323   2.579  0.3081 -0.3070 -0.2037
12973TIP3    H138860   7.277   2.306   2.617 -0.0563  0.5125 -0.6622
12973TIP3    H238861   7.405   2.383   2.641  0.3551 -0.2960 -0.2462
12974TIP3   OH238862   4.232   7.450   2.555  0.5798  0.0555  0.1886
12974TIP3    H138863   4.176   7.483   2.485  0.3335  0.8605  0.7596
12974TIP3    H238864   4.261   7.528   2.602 -0.0251 -0.5281  1.5746
12975TIP3   OH238865   4.473   4.939   1.046 -0.6154  0.8137  0.1862
12975TIP3    H138866   4.409   4.916   0.979  0.2642 -0.0009 -0.4043
12975TIP3    H238867   4.558   4.929   1.002  0.0952 -1.5200  1.8656
12976TIP3   OH238868   5.710   0.457   6.507  0.3352  0.0163 -0.0298
12976TIP3    H138869   5.622   0.428   6.482  1.1686 -1.4648 -1.4377
12976TIP3    H238870   5.740   0.510   6.433  1.3726 -1.1873 -0.5062
12977TIP3   OH238871   6.487   5.602   5.844  0.0120  0.2725  0.1790
12977TIP3    H138872   6.560   5.660   5.819  0.4199 -0.7566 -1.1050
12977TIP3    H238873   6.513   5.567   5.929  1.3416 -0.5579 -0.5374
12978TIP3   OH238874   2.191   7.708   5.725  0.1183  0.2711 -0.2008
12978TIP3    H138875   2.186   7.754   5.809 -0.9913 -0.4632  0.1637
12978TIP3    H238876   2.111   7.655   5.722  0.4344 -0.1745 -1.4563
12979TIP3   OH238877   5.709   7.455   6.671 -0.3114 -0.3926  0.2880
12979TIP3    H138878   5.685   7.488   6.585  1.1815 -0.1923 -0.0774
12979TIP3    H238879   5.629   7.466   6.724 -1.9073 -2.3405 -1.5307
12980TIP3   OH238880   2.748   0.373   1.723 -1.1210  0.3088  0.2268
12980TIP3    H138881   2.824   0.391   1.778 -0.2995 -2.9085  0.3383
12980TIP3    H238882   2.727   0.458   1.684  2.2699  1.4516  0.4894
12981TIP3   OH238883   2.611   2.723   6.056 -0.2955  1.3619  0.4111
12981TIP3    H138884   2.601   2.791   5.990 -1.8505 -0.3094 -1.2001
12981TIP3    H238885   2.523   2.688   6.069  0.5657 -1.1205  0.2353
12982TIP3   OH238886   6.467   3.765   0.326 -0.5206  0.4455 -0.1413
12982TIP3    H138887   6.538   3.775   0.389 -0.5558 -2.8525  0.5914
12982TIP3    H238888   6.508   3.724   0.249 -1.5438 -1.6720  0.3628
12983TIP3   OH238889   6.883   6.693   5.615 -0.1851  0.3069  0.3782
12983TIP3    H138890   6.804   6.746   5.602 -0.2612 -0.4705 -2.9616
12983TIP3    H238891   6.952   6.758   5.631 -1.3238  1.0045  3.1343
12984TIP3   OH238892   6.332   6.741   1.497  0.2770 -0.3307 -0.1037
12984TIP3    H138893   6.411   6.795   1.487  0.1975 -0.2019 -0.0349
12984TIP3    H238894   6.334   6.683   1.421  0.8146 -0.8140  0.2667
12985TIP3   OH238895   6.152   5.145   1.349 -0.0878 -0.2271 -0.3849
12985TIP3    H138896   6.212   5.163   1.277  0.7444 -1.4265 -0.0179
12985TIP3    H238897   6.186   5.198   1.422  0.7640 -1.1666 -0.0768
12986TIP3   OH238898   3.516   3.544   2.539  0.0644  0.5590  0.0233
12986TIP3    H138899   3.430   3.503   2.547 -0.3370  1.3232 -0.2877
12986TIP3    H238900   3.537   3.537   2.446  0.9409 -0.7934  0.2968
12987TIP3   OH238901   1.376   1.764   1.409  0.1117  0.1475  0.1629
12987TIP3    H138902   1.296   1.756   1.356 -1.0602 -1.2515  2.0206
12987TIP3    H238903   1.354   1.830   1.475  1.9191  2.6518 -1.5452
12988TIP3   OH238904   1.933   2.666   3.422  0.2371  0.0343  0.1166
12988TIP3    H138905   1.993   2.657   3.496  0.5674  0.4329 -0.0950
12988TIP3    H238906   1.986   2.648   3.345  0.3241  1.2778 -0.1354
12989TIP3   OH238907   8.122   5.007   0.268  0.2300 -0.0453  0.0790
12989TIP3    H138908   8.112   5.042   0.356  3.7428  0.7400  0.3003
12989TIP3    H238909   8.116   5.084   0.211 -0.4344 -0.3383 -0.2700
12990TIP3   OH238910   1.867   2.636   0.931  0.0763 -0.0662 -0.3172
12990TIP3    H138911   1.864   2.572   0.860  0.5097  0.0959 -0.4855
12990TIP3    H238912   1.782   2.679   0.928 -0.0677 -0.3580 -0.4611
12991TIP3   OH238913   7.002   0.516   0.503  0.7716  0.5496 -0.0391
12991TIP3    H138914   7.093   0.525   0.530  0.8604 -0.5736  0.0887
12991TIP3    H238915   7.006   0.469   0.420  0.3648  1.7101 -0.7419
12992TIP3   OH238916   6.493   4.814   0.099  0.0608 -0.5587  0.3502
12992TIP3    H138917   6.472   4.838   0.189 -2.4134  0.7267 -0.4791
12992TIP3    H238918   6.477   4.720   0.095 -2.9977 -0.1553  0.5640
12993TIP3   OH238919   7.188   2.338   2.348  0.2523  0.8596  0.2594
12993TIP3    H138920   7.240   2.295   2.279  0.5355  1.3766  0.1427
12993TIP3    H238921   7.230   2.311   2.430  0.2205  0.6462  0.2075
12994TIP3   OH238922   6.333   2.763   2.229 -0.2268  0.6713  0.3925
12994TIP3    H138923   6.339   2.701   2.301  0.7937 -0.7192 -0.8183
12994TIP3    H238924   6.420   2.762   2.189 -0.5193  2.0521 -0.3472
12995TIP3   OH238925   1.062   2.027   0.877  0.1041  0.0990  0.0995
12995TIP3    H138926   1.151   2.011   0.846 -0.2700 -0.6888 -0.6095
12995TIP3    H238927   1.071   2.099   0.940  1.2243  0.0713 -0.0099
12996TIP3   OH238928   1.449   6.099   5.856  0.4548 -0.3902  0.7180
12996TIP3    H138929   1.469   6.017   5.902 -1.6818 -0.7644  1.1094
12996TIP3    H238930   1.411   6.155   5.923 -0.7427 -0.1530 -0.1300
12997TIP3   OH238931   4.783   0.500   2.721 -0.2021  0.0832  0.1454
12997TIP3    H138932   4.733   0.538   2.649 -2.0347 -0.9178  0.7984
12997TIP3    H238933   4.774   0.405   2.709 -1.3688 -0.1251  2.1643
12998TIP3   OH238934   0.282   6.982   1.751 -0.1655 -0.5433  0.2553
12998TIP3    H138935   0.270   7.077   1.760  0.7475 -0.2986 -0.7828
12998TIP3    H238936   0.251   6.963   1.663  1.1060 -0.9252 -0.1317
12999TIP3   OH238937   3.325   0.681   2.003  0.1776 -0.5533  0.1620
12999TIP3    H138938   3.331   0.728   1.920 -0.8542  0.4724  0.6339
12999TIP3    H238939   3.250   0.721   2.048  1.3392 -0.3678  2.0235
13000TIP3   OH238940   5.963   6.949   2.932  0.0357 -0.3211 -0.4612
13000TIP3    H138941   6.028   6.992   2.989 -0.4980  0.7900 -0.6668
13000TIP3    H238942   5.881   6.957   2.980 -0.5285  1.1339 -1.6171
13001TIP3   OH238943   7.418   7.935   3.849  0.1001 -0.1599  0.0441
13001TIP3    H138944   7.394   7.906   3.761 -2.6676  0.6468  0.4314
13001TIP3    H238945   7.475   7.866   3.883 -0.3787 -1.4534 -1.6758
13002TIP3   OH238946   7.635   3.773   4.839 -0.0897  0.4624  0.6904
13002TIP3    H138947   7.648   3.678   4.839 -2.0426  0.1571 -0.3292
13002TIP3    H238948   7.704   3.807   4.783 -0.4624 -0.5498 -0.4194
13003TIP3   OH238949   7.316   1.614   4.851 -0.4427 -0.3503  0.1489
13003TIP3    H138950   7.293   1.706   4.865  0.3919  0.1039 -1.2517
13003TIP3    H238951   7.347   1.611   4.760  1.2414 -1.6691  0.7235
13004TIP3   OH238952   1.768   4.686   0.314 -0.2952  0.2797 -0.5330
13004TIP3    H138953   1.699   4.733   0.267 -0.8579 -1.5841 -1.6778
13004TIP3    H238954   1.848   4.706   0.265 -0.0487  2.0443  0.5059
13005TIP3   OH238955   6.750   7.104   5.596 -0.3575  0.1367  0.0663
13005TIP3    H138956   6.692   7.029   5.612  0.2633 -0.3578  0.0697
13005TIP3    H238957   6.744   7.156   5.676 -0.6231 -0.0319  0.1572
13006TIP3   OH238958   6.451   2.361   1.014  0.0957  0.1533 -0.3591
13006TIP3    H138959   6.472   2.321   0.929  1.7267 -0.7299  0.4062
13006TIP3    H238960   6.410   2.444   0.992 -0.6036 -0.5940 -2.0086
13007TIP3   OH238961   7.045   0.535   1.558  0.3455 -0.2245  0.2237
13007TIP3    H138962   6.953   0.537   1.531  0.1482 -1.0772  0.7957
13007TIP3    H238963   7.061   0.622   1.595 -0.2754 -0.1353  0.2965
13008TIP3   OH238964   1.104   6.912   1.271 -0.0780  0.1341  0.3863
13008TIP3    H138965   1.130   6.916   1.179  0.5453 -0.8723  0.4990
13008TIP3    H238966   1.034   6.847   1.273 -1.0515  1.1528  0.4370
13009TIP3   OH238967   6.472   4.523   3.922 -0.1555 -0.2841  0.2696
13009TIP3    H138968   6.532   4.527   3.996 -1.3367 -1.7336  1.3637
13009TIP3    H238969   6.399   4.469   3.952 -0.3852 -1.5004 -2.1696
13010TIP3   OH238970   6.498   4.208   5.366 -0.2056  0.2842 -0.3834
13010TIP3    H138971   6.428   4.158   5.408  0.2184  1.2572  1.6403
13010TIP3    H238972   6.578   4.165   5.394  0.0923  0.9813 -0.1334
13011TIP3   OH238973   8.346   2.076   2.662  0.0107  0.1566  0.1726
13011TIP3    H138974   8.395   2.153   2.631 -1.5426  0.0753 -2.9160
13011TIP3    H238975   8.269   2.113   2.705  0.7344  0.2725  1.4190
13012TIP3   OH238976   7.301   2.855   2.899 -0.2181  0.1208 -0.0684
13012TIP3    H138977   7.275   2.813   2.817  0.1520  1.4080 -0.8788
13012TIP3    H238978   7.361   2.925   2.872 -1.6784  1.9297  1.0688
13013TIP3   OH238979   5.721   1.219   0.322  0.0763 -0.3468  0.3573
13013TIP3    H138980   5.678   1.167   0.254  1.0627 -0.3099 -0.3145
13013TIP3    H238981   5.671   1.300   0.325 -0.0396 -0.3902 -0.2595
13014TIP3   OH238982   7.375   0.239   5.619 -0.5639  0.0115 -0.0073
13014TIP3    H138983   7.315   0.304   5.582 -0.0611  0.2237 -0.4476
13014TIP3    H238984   7.412   0.195   5.543 -2.4562 -2.2601  0.2454
13015TIP3   OH238985   3.351   5.582   4.882  0.2454  0.2658  0.0068
13015TIP3    H138986   3.433   5.548   4.916  0.6515  1.8910  0.7677
13015TIP3    H238987   3.369   5.601   4.790  1.0696  1.5551  0.4082
13016TIP3   OH238988   3.701   0.146   4.590  0.0355  0.2410 -0.8054
13016TIP3    H138989   3.695   0.065   4.541  0.9882 -0.9802  0.9738
13016TIP3    H238990   3.613   0.184   4.586 -0.2720 -0.5863 -2.1199
13017TIP3   OH238991   2.502   1.907   1.388  0.3908 -0.3426 -0.8881
13017TIP3    H138992   2.536   1.888   1.300  0.1434 -1.1528 -0.8247
13017TIP3    H238993   2.563   1.971   1.424  0.9264 -0.5665 -1.3728
13018TIP3   OH238994   7.687   4.392   4.018 -0.0878  0.4145  0.1225
13018TIP3    H138995   7.668   4.449   3.944 -1.6343  0.3196  0.4080
13018TIP3    H238996   7.617   4.410   4.081  0.7987 -0.0071  1.2696
13019TIP3   OH238997   6.641   2.080   2.151 -0.4739  0.1518  0.1577
13019TIP3    H138998   6.664   1.990   2.127  0.0560  0.2578  0.2638
13019TIP3    H238999   6.615   2.121   2.069 -0.4616 -0.0244  0.0661
13020TIP3   OH239000   5.241   0.332   5.282 -0.4367 -0.2764  0.8465
13020TIP3    H139001   5.188   0.362   5.356  0.7022  1.8985  0.8698
13020TIP3    H239002   5.217   0.391   5.210  1.3181  0.2647  0.6422
13021TIP3   OH239003   4.235   6.873   4.505 -0.2412  0.1245  0.1905
13021TIP3    H139004   4.175   6.918   4.446 -0.1712  0.4731  0.3832
13021TIP3    H239005   4.321   6.908   4.482 -0.0944 -0.4613 -0.1685
13022TIP3   OH239006   8.381   6.907   6.281  0.4020  0.2123  0.1894
13022TIP3    H139007   8.434   6.975   6.322  1.0983 -0.4312  0.3625
13022TIP3    H239008   8.292   6.944   6.280  0.9750  1.6481 -0.9020
13023TIP3   OH239009   5.888   7.100   2.198 -0.1204  0.2607 -0.2267
13023TIP3    H139010   5.800   7.098   2.234  0.1867  0.6190  0.5505
13023TIP3    H239011   5.945   7.113   2.273  0.6070 -0.0532 -0.7115
13024TIP3   OH239012   0.317   7.245   4.631  0.1223  0.2191  0.5169
13024TIP3    H139013   0.246   7.185   4.607  0.5471 -1.2155  2.5834
13024TIP3    H239014   0.361   7.264   4.549 -2.1819  0.5495 -0.7151
13025TIP3   OH239015   2.744   2.028   1.866  0.2710  0.2590  0.2451
13025TIP3    H139016   2.734   2.081   1.787  0.1830 -0.7338 -0.4384
13025TIP3    H239017   2.835   1.996   1.862 -0.4976 -2.0410 -0.9759
13026TIP3   OH239018   5.793   3.217   4.412  0.3609  0.6629 -0.2214
13026TIP3    H139019   5.864   3.162   4.443 -0.4436 -0.8004 -0.8811
13026TIP3    H239020   5.809   3.226   4.318 -0.1263  0.6164 -0.3115
13027TIP3   OH239021   4.438   2.233   1.797  0.0616 -0.5800 -0.8701
13027TIP3    H139022   4.442   2.328   1.794  0.6892 -0.6195 -2.0314
13027TIP3    H239023   4.351   2.213   1.831 -0.3751  0.4042 -1.3752
13028TIP3   OH239024   4.700   4.316   4.583 -0.2250  0.6114  0.0798
13028TIP3    H139025   4.792   4.329   4.604  0.4051 -2.3329 -0.3957
13028TIP3    H239026   4.698   4.310   4.487 -0.5252 -1.3659  0.1737
13029TIP3   OH239027   0.912   6.952   2.321 -0.5472  0.1609  0.8263
13029TIP3    H139028   0.968   6.929   2.396 -0.7869 -0.6439  0.7686
13029TIP3    H239029   0.973   6.971   2.250 -0.3154 -1.4534  0.5433
13030TIP3   OH239030   6.363   7.438   5.771  0.2281 -0.0451 -0.1162
13030TIP3    H139031   6.363   7.531   5.749  0.2815  0.1625  0.7032
13030TIP3    H239032   6.282   7.425   5.819 -0.4270 -0.7277 -1.3671
13031TIP3   OH239033   2.984   5.837   0.710 -0.6359  0.1294 -0.1883
13031TIP3    H139034   2.940   5.895   0.771  0.0152  0.6036 -0.1546
13031TIP3    H239035   2.916   5.778   0.678 -0.7353 -1.0245  2.0056
13032TIP3   OH239036   3.488   7.740   6.419 -0.2720  0.3173  0.0192
13032TIP3    H139037   3.562   7.752   6.479 -1.4487 -0.0434  1.6220
13032TIP3    H239038   3.431   7.678   6.465 -1.5412  0.5407 -1.2090
13033TIP3   OH239039   1.968   6.235   5.971 -0.2660  0.0709  0.0527
13033TIP3    H139040   1.982   6.164   5.908  1.1528  0.2238  0.1505
13033TIP3    H239041   1.876   6.258   5.962 -0.6166 -1.4032 -0.3861
13034TIP3   OH239042   4.019   3.353   2.322  0.0018 -0.3184 -0.4821
13034TIP3    H139043   4.005   3.390   2.409  1.2709 -0.6612 -0.1187
13034TIP3    H239044   3.948   3.289   2.312  1.0125 -1.7767  1.1689
13035TIP3   OH239045   3.425   5.176   6.474  0.5312 -0.1337 -0.2125
13035TIP3    H139046   3.380   5.100   6.437 -2.6752  0.3717  2.2752
13035TIP3    H239047   3.445   5.231   6.398  0.7979 -2.3328 -1.8211
13036TIP3   OH239048   6.327   6.041   0.744  0.0452 -0.0984 -0.6159
13036TIP3    H139049   6.413   6.077   0.722  0.4729 -0.1532  0.8467
13036TIP3    H239050   6.266   6.112   0.723  0.8970  1.7887  2.5039
13037TIP3   OH239051   7.596   3.978   6.699  0.1635 -0.2029  0.0409
13037TIP3    H139052   7.678   3.935   6.673  1.8600  1.8044  1.6892
13037TIP3    H239053   7.575   4.036   6.625 -0.1999 -1.2332 -0.6868
13038TIP3   OH239054   3.038   0.370   3.066  0.1459  0.1774 -0.3044
13038TIP3    H139055   2.996   0.364   3.152  0.6738 -3.2486 -0.1296
13038TIP3    H239056   3.119   0.417   3.082 -0.1979  0.4021  0.8721
13039TIP3   OH239057   4.813   3.721   4.811 -0.7608 -0.0317 -0.3595
13039TIP3    H139058   4.789   3.796   4.758 -1.0117  1.3294  1.5676
13039TIP3    H239059   4.805   3.646   4.752 -0.8605  1.3942 -2.2341
13040TIP3   OH239060   5.586   3.563   6.186 -0.1641  0.5992  0.1882
13040TIP3    H139061   5.493   3.584   6.176 -0.0277  1.4108  0.5487
13040TIP3    H239062   5.587   3.481   6.235 -0.7112 -0.2061 -1.0942
13041TIP3   OH239063   2.040   2.124   6.761  0.0204 -0.3223 -0.4399
13041TIP3    H139064   2.086   2.208   6.765 -1.0334  0.2842 -0.6273
13041TIP3    H239065   1.955   2.146   6.723 -1.2470 -1.0638  1.8487
13042TIP3   OH239066   7.072   5.407   6.531 -0.2487  0.0518 -0.2991
13042TIP3    H139067   7.089   5.478   6.592 -0.8254 -1.1072  1.2616
13042TIP3    H239068   7.067   5.450   6.445  0.3260  1.7466  0.4736
13043TIP3   OH239069   0.900   7.401   3.395  0.1614  0.1901 -0.3481
13043TIP3    H139070   0.824   7.432   3.346 -0.4154  1.5143  1.2931
13043TIP3    H239071   0.912   7.466   3.464  1.6449 -1.0001  0.5669
13044TIP3   OH239072   1.238   2.140   4.336  0.1056 -0.0687 -0.4593
13044TIP3    H139073   1.184   2.150   4.415 -0.0682 -3.2545 -0.0507
13044TIP3    H239074   1.189   2.079   4.281  1.2593  0.4073 -2.0849
13045TIP3   OH239075   6.069   2.598   4.231  0.4133  1.0226  0.1655
13045TIP3    H139076   5.977   2.574   4.245  0.5224  1.3037  1.5307
13045TIP3    H239077   6.073   2.628   4.140 -0.0347 -2.6698 -1.2277
13046TIP3   OH239078   4.772   1.182   1.177  0.5087 -0.4350 -0.5233
13046TIP3    H139079   4.863   1.209   1.169  0.3175  0.1604 -0.7493
13046TIP3    H239080   4.756   1.124   1.102  0.5739 -0.1761 -0.7371
13047TIP3   OH239081   8.285   0.127   0.559  0.1163  0.0893  0.1810
13047TIP3    H139082   8.329   0.128   0.644  0.9018 -0.3839 -0.2049
13047TIP3    H239083   8.318   0.205   0.514 -1.3897  1.1379  0.8248
13048TIP3   OH239084   3.589   6.044   4.360 -0.5153  0.1396 -0.2240
13048TIP3    H139085   3.522   6.039   4.429  1.4548 -0.3825  1.7707
13048TIP3    H239086   3.563   6.120   4.307 -1.4640  1.3569  1.8388
13049TIP3   OH239087   5.217   1.830   5.894  0.2551 -0.0566  0.0067
13049TIP3    H139088   5.159   1.813   5.968 -0.8358 -1.5635 -1.1220
13049TIP3    H239089   5.281   1.759   5.896  1.6785  1.1930  0.8197
13050TIP3   OH239090   0.205   5.995   3.733 -0.1949  0.4387 -0.0084
13050TIP3    H139091   0.187   6.087   3.715  1.8733  0.9254  0.1462
13050TIP3    H239092   0.221   5.956   3.647 -0.7755  0.2824 -0.0491
13051TIP3   OH239093   6.754   5.641   6.187  0.5433  0.3261  0.3242
13051TIP3    H139094   6.842   5.603   6.184  1.1145  1.3963 -4.3113
13051TIP3    H239095   6.769   5.735   6.184 -0.6754  0.5072 -1.4556
13052TIP3   OH239096   1.435   5.681   4.243 -0.4373  0.2089  0.3019
13052TIP3    H139097   1.464   5.590   4.233 -3.6464 -0.8369 -0.9722
13052TIP3    H239098   1.444   5.699   4.336  0.4858 -1.3368  0.5491
13053TIP3   OH239099   0.552   3.785   3.196 -0.3613 -0.3456 -0.6480
13053TIP3    H139100   0.508   3.760   3.277  1.0275  1.0225  0.5668
13053TIP3    H239101   0.641   3.751   3.205 -0.5080 -1.2182 -2.1468
13054TIP3   OH239102   5.049   2.033   6.298 -0.0851  0.6126 -0.3662
13054TIP3    H139103   4.974   2.076   6.340 -2.3035 -1.9302 -1.4190
13054TIP3    H239104   5.083   2.098   6.237  0.0475  2.6091  1.7118
13055TIP3   OH239105   1.891   6.968   0.055  0.3622  0.4955  0.2180
13055TIP3    H139106   1.865   6.999   0.142 -0.5086  0.4337 -0.0139
13055TIP3    H239107   1.855   7.032  -0.006  0.2305  0.0808 -0.1465
13056TIP3   OH239108   4.272   5.446   3.729  0.2829 -0.1671  0.2105
13056TIP3    H139109   4.264   5.539   3.750 -0.8464 -0.6671  2.2108
13056TIP3    H239110   4.265   5.401   3.813 -0.8654 -2.1439 -0.8591
13057TIP3   OH239111   0.392   1.050   5.674 -0.1077 -0.0635 -0.3434
13057TIP3    H139112   0.382   1.062   5.769 -1.6035 -2.1357 -0.1641
13057TIP3    H239113   0.310   1.084   5.637 -0.0949 -0.4503 -0.7418
13058TIP3   OH239114   6.669   4.820   1.686  0.3475 -0.0564  0.2124
13058TIP3    H139115   6.721   4.897   1.660 -0.1124  0.1623 -0.0600
13058TIP3    H239116   6.672   4.821   1.782 -0.0135  0.5478  0.2205
13059TIP3   OH239117   7.736   5.914   3.778  0.2048 -0.4126  0.5002
13059TIP3    H139118   7.716   5.959   3.860 -1.1930 -1.4273  0.7626
13059TIP3    H239119   7.812   5.860   3.799  0.1075 -0.3579  1.0192
13060TIP3   OH239120   1.147   4.903   3.109 -0.2068 -0.1652 -0.0186
13060TIP3    H139121   1.143   4.872   3.018  0.1571 -2.2322  0.6149
13060TIP3    H239122   1.101   4.987   3.108  1.1445  0.6465 -2.4044
13061TIP3   OH239123   1.031   6.776   6.829  0.3252 -0.6616 -0.1977
13061TIP3    H139124   0.954   6.785   6.886 -0.3332 -1.9757 -0.8354
13061TIP3    H239125   1.039   6.861   6.786 -0.2953 -0.2565  0.4555
13062TIP3   OH239126   4.615   5.974   6.522  0.3021 -0.4165  0.1576
13062TIP3    H139127   4.574   6.059   6.535  1.8198  0.7542 -2.0807
13062TIP3    H239128   4.551   5.911   6.557 -1.2892  1.5439  0.9819
13063TIP3   OH239129   4.368   2.534   2.080 -0.0747  0.0563  0.2181
13063TIP3    H139130   4.436   2.516   2.016  0.0333  1.4144 -0.0797
13063TIP3    H239131   4.357   2.452   2.128  0.7156 -0.6080 -0.7113
13064TIP3   OH239132   8.354   2.901   0.431  0.6289  0.1666  0.1782
13064TIP3    H139133   8.424   2.902   0.365 -1.0768 -0.5108 -1.7350
13064TIP3    H239134   8.340   2.808   0.450  0.0417  0.2803  0.3195
13065TIP3   OH239135   3.524   7.896   1.810  0.0858 -0.1072 -0.1641
13065TIP3    H139136   3.532   7.804   1.783 -0.2452 -0.0171 -0.5668
13065TIP3    H239137   3.464   7.893   1.885 -1.5764  0.0045 -1.4523
13066TIP3   OH239138   0.071   4.442   4.404 -0.1147 -0.2524 -0.0613
13066TIP3    H139139  -0.014   4.431   4.360 -0.8172 -2.0227  1.5827
13066TIP3    H239140   0.048   4.465   4.494  1.1707 -0.3532  0.3048
13067TIP3   OH239141   4.278   0.639   4.346  0.3653  0.1624 -0.0266
13067TIP3    H139142   4.324   0.706   4.294  3.1010 -0.6026  1.1926
13067TIP3    H239143   4.278   0.562   4.289  1.6361 -0.1350  0.3454
13068TIP3   OH239144   7.202   4.135   1.189 -0.6630  0.0191 -0.1944
13068TIP3    H139145   7.142   4.171   1.123  0.1337 -0.8324 -1.4181
13068TIP3    H239146   7.270   4.090   1.139  0.9617  0.8444  1.1470
13069TIP3   OH239147   4.805   2.914   0.161 -0.0776 -0.1721 -0.0734
13069TIP3    H139148   4.725   2.896   0.111 -1.5320  1.8538  1.3427
13069TIP3    H239149   4.825   3.005   0.140  2.2639 -0.7918 -0.8254
13070TIP3   OH239150   4.350   7.723   3.355 -0.8596 -0.0566 -0.2587
13070TIP3    H139151   4.321   7.693   3.442 -1.2818  0.7771 -0.1001
13070TIP3    H239152   4.272   7.763   3.317 -0.6682 -0.4081 -1.0210
13071TIP3   OH239153   4.068   0.140   2.069  0.0648  0.5575 -0.2219
13071TIP3    H139154   3.976   0.140   2.044  0.0737  0.9946 -0.2676
13071TIP3    H239155   4.110   0.083   2.005  0.0752  1.6008 -1.1782
13072TIP3   OH239156   1.170   3.786   1.652 -0.5579 -0.1359  0.2095
13072TIP3    H139157   1.175   3.692   1.634 -1.6898 -0.0693 -0.5743
13072TIP3    H239158   1.126   3.792   1.737  0.0616 -0.3286  0.5451
13073TIP3   OH239159   0.176   3.649   4.699 -0.7015  0.0338  0.0712
13073TIP3    H139160   0.178   3.718   4.766  0.9707 -1.4118  1.6050
13073TIP3    H239161   0.221   3.575   4.740 -1.2956 -1.5496 -2.0013
13074TIP3   OH239162   1.039   3.971   4.993 -0.9133  0.4062  0.6534
13074TIP3    H139163   1.025   3.882   4.959  2.9146 -0.3056  0.4656
13074TIP3    H239164   0.989   4.027   4.933 -0.9817 -1.4177 -1.1173
13075TIP3   OH239165   6.987   3.612   6.431 -0.1187  0.6265 -0.5262
13075TIP3    H139166   7.078   3.604   6.462 -0.2127  2.4892  0.3519
13075TIP3    H239167   6.934   3.579   6.504 -0.1943  0.7650 -0.5189
13076TIP3   OH239168   1.651   2.425   6.719  0.2126  0.0503  0.1358
13076TIP3    H139169   1.732   2.427   6.770  0.7901  0.4056 -0.7722
13076TIP3    H239170   1.606   2.346   6.749  1.1045 -0.3876  0.3497
13077TIP3   OH239171   8.212   5.091   3.816  0.0137  0.5680 -0.4970
13077TIP3    H139172   8.130   5.056   3.780 -0.0886  0.1803  0.0928
13077TIP3    H239173   8.196   5.185   3.827 -0.8672  0.2756  0.9371
13078TIP3   OH239174   2.720   3.694   6.571 -0.0346 -0.3920  0.4655
13078TIP3    H139175   2.762   3.780   6.575 -0.9444  0.0492  0.7912
13078TIP3    H239176   2.703   3.671   6.662  1.7608 -1.7337  0.5282
13079TIP3   OH239177   2.032   0.482   5.784 -0.3517 -0.1441 -0.0367
13079TIP3    H139178   1.959   0.534   5.750  1.0294  3.3602  1.7761
13079TIP3    H239179   2.002   0.452   5.870 -0.7738 -1.5326 -0.6520
13080TIP3   OH239180   0.680   5.664   6.774 -0.6189 -0.3077 -0.9489
13080TIP3    H139181   0.681   5.599   6.843  0.0597 -0.5366 -1.1653
13080TIP3    H239182   0.747   5.728   6.800 -0.2532 -0.4745 -1.4646
13081TIP3   OH239183   7.219   4.522   5.826  0.5124 -0.2795 -0.0806
13081TIP3    H139184   7.200   4.510   5.919  1.2067  0.5134  0.1702
13081TIP3    H239185   7.206   4.615   5.811 -0.8911 -0.6132 -1.0894
13082TIP3   OH239186   4.374   2.984   3.481  0.3541 -0.7633  0.1200
13082TIP3    H139187   4.296   2.938   3.449  0.6363 -0.6075 -0.8466
13082TIP3    H239188   4.443   2.918   3.478  0.0563 -1.2098  2.0291
13083TIP3   OH239189   2.460   2.227   4.266 -0.0676 -0.6843 -0.1201
13083TIP3    H139190   2.532   2.201   4.324  1.1436  1.1088 -0.7659
13083TIP3    H239191   2.470   2.171   4.189  0.3247 -0.7846  0.0022
13084TIP3   OH239192   5.942   1.974   2.615 -0.2566  0.1175  0.2103
13084TIP3    H139193   5.846   1.980   2.617 -0.4072 -1.2471 -1.7000
13084TIP3    H239194   5.961   1.885   2.586  1.6067  0.4876  0.1713
13085TIP3   OH239195   4.346   4.960   1.296 -0.4784  0.4349 -0.0557
13085TIP3    H139196   4.393   4.894   1.346 -1.1600 -0.3154 -0.3873
13085TIP3    H239197   4.385   4.957   1.209 -0.9175  0.0257 -0.2447
13086TIP3   OH239198   6.269   7.703   1.327  0.5298  0.5248 -0.2580
13086TIP3    H139199   6.358   7.680   1.352 -0.0088 -0.7246  0.6010
13086TIP3    H239200   6.264   7.684   1.233  1.3101  1.1270 -0.4270
13087TIP3   OH239201   4.824   6.069   4.135 -0.3485  0.2654 -0.0711
13087TIP3    H139202   4.801   6.160   4.151  1.1326  0.8693 -1.0966
13087TIP3    H239203   4.919   6.066   4.148 -0.2331 -0.8855 -1.0425
13088TIP3   OH239204   7.334   3.346   5.074  0.7322  0.3665  0.2369
13088TIP3    H139205   7.416   3.394   5.063  0.6380  0.7113  1.0451
13088TIP3    H239206   7.313   3.315   4.986  2.6339 -1.2070  0.2729
13089TIP3   OH239207   4.000   3.652   1.436 -0.3046 -0.0820 -0.0617
13089TIP3    H139208   3.912   3.686   1.422 -0.1458  0.1751 -0.4522
13089TIP3    H239209   4.033   3.702   1.511 -0.9078 -0.9900  0.8378
13090TIP3   OH239210   1.555   0.682   4.550  0.1067 -0.0245  0.4746
13090TIP3    H139211   1.539   0.596   4.589  0.3455 -0.3243 -0.0884
13090TIP3    H239212   1.644   0.706   4.579  0.6976 -0.7128 -0.7294
13091TIP3   OH239213   4.565   0.496   2.539  0.1445 -0.0961 -0.2027
13091TIP3    H139214   4.523   0.433   2.599 -1.9597  0.5841 -0.8741
13091TIP3    H239215   4.596   0.442   2.466 -0.0024 -0.5696  0.0762
13092TIP3   OH239216   4.810   7.602   1.568  0.0841  0.0859  0.1697
13092TIP3    H139217   4.758   7.681   1.574 -0.3923 -0.2976  1.6788
13092TIP3    H239218   4.796   7.570   1.479 -2.3781 -0.0519  0.5203
13093TIP3   OH239219   5.340   3.782   4.365  0.4148 -0.2377 -0.0397
13093TIP3    H139220   5.353   3.875   4.380 -0.6623 -0.1920  0.6886
13093TIP3    H239221   5.424   3.752   4.330  0.4916  1.1604 -1.1356
13094TIP3   OH239222   6.716   4.323   2.675 -0.3828 -0.3288 -0.6891
13094TIP3    H139223   6.680   4.234   2.676 -2.1137  0.3306 -0.7897
13094TIP3    H239224   6.803   4.314   2.713 -0.8707 -1.9286  0.1472
13095TIP3   OH239225   4.635   3.370   0.037  0.1621 -0.3096  0.0314
13095TIP3    H139226   4.687   3.433  -0.013 -0.5207 -0.5463 -1.0132
13095TIP3    H239227   4.603   3.419   0.112  1.9345 -0.1813  0.7435
13096TIP3   OH239228   7.236   5.061   1.626  0.1823  0.9432 -0.4541
13096TIP3    H139229   7.199   4.981   1.664  2.3951 -0.5376 -1.2302
13096TIP3    H239230   7.175   5.130   1.652 -1.2476 -0.8151  1.1577
13097TIP3   OH239231   6.617   0.726   6.157 -0.1998  0.0762  0.0681
13097TIP3    H139232   6.568   0.775   6.222  0.6664  1.2369 -0.1187
13097TIP3    H239233   6.561   0.725   6.080 -0.7326 -0.2804  0.4592
13098TIP3   OH239234   0.499   4.360   3.961 -0.4146 -0.5054  0.4273
13098TIP3    H139235   0.567   4.377   4.026 -0.4185  0.0099  0.2992
13098TIP3    H239236   0.547   4.341   3.880 -0.4179 -0.3771  0.3946
13099TIP3   OH239237   5.317   1.493   3.517  0.2259  0.2909  0.0437
13099TIP3    H139238   5.390   1.446   3.558  0.2869  0.8293  0.5697
13099TIP3    H239239   5.318   1.464   3.426  1.5948  0.8685 -0.1553
13100TIP3   OH239240   2.635   2.425   2.411  0.0911 -0.0918  0.0947
13100TIP3    H139241   2.593   2.362   2.352  0.7705 -0.6569  0.1841
13100TIP3    H239242   2.693   2.371   2.465  0.7728  0.6311  0.1025
13101TIP3   OH239243   3.442   6.583   3.214  0.0480  0.5582  0.1923
13101TIP3    H139244   3.441   6.516   3.283  2.2554  0.3649  0.0967
13101TIP3    H239245   3.398   6.541   3.140 -1.7424  0.5226  1.2091
13102TIP3   OH239246   2.359   7.890   1.589  0.2005 -0.6600 -0.0299
13102TIP3    H139247   2.426   7.912   1.653 -0.1115 -0.5958  0.2797
13102TIP3    H239248   2.407   7.857   1.514  0.5949 -0.2225  0.0325
13103TIP3   OH239249   0.698   2.515   2.511 -0.6377  0.4698 -0.5672
13103TIP3    H139250   0.683   2.420   2.511 -0.8318  0.4560  1.4245
13103TIP3    H239251   0.790   2.525   2.536 -0.6610  0.8049 -0.6143
13104TIP3   OH239252   3.403   1.281   4.213  0.3075  0.1508  0.0027
13104TIP3    H139253   3.421   1.191   4.184  1.7193 -0.1506  1.6156
13104TIP3    H239254   3.399   1.332   4.133 -1.0628 -1.4248 -0.9861
13105TIP3   OH239255   5.392   4.067   1.241 -0.1707  0.5052  0.1178
13105TIP3    H139256   5.471   4.121   1.242  0.9169 -0.8852  3.1842
13105TIP3    H239257   5.419   3.987   1.196  0.1198  0.1602  0.8823
13106TIP3   OH239258   7.514   4.145   3.039 -0.2618  0.0623  0.2566
13106TIP3    H139259   7.472   4.125   2.955 -0.6291  0.7733  0.2597
13106TIP3    H239260   7.563   4.066   3.061 -0.9291 -0.4830 -0.1644
13107TIP3   OH239261   0.643   3.457   4.333 -0.2769  0.5761 -0.3039
13107TIP3    H139262   0.568   3.414   4.374 -1.0714  1.5075 -0.7212
13107TIP3    H239263   0.676   3.518   4.400  0.0054  0.2901 -0.1807
13108TIP3   OH239264   5.667   1.178   6.412  0.1455 -0.5310  0.4316
13108TIP3    H139265   5.648   1.249   6.473 -0.6371  0.6664 -1.1194
13108TIP3    H239266   5.589   1.122   6.415  1.0825 -1.8605  2.2482
13109TIP3   OH239267   7.712   7.121   6.588 -0.1053  0.2251  0.2064
13109TIP3    H139268   7.685   7.118   6.496 -0.9355 -0.5454  0.4595
13109TIP3    H239269   7.800   7.083   6.589 -0.5833 -0.9345 -0.1199
13110TIP3   OH239270   1.389   7.581   5.234  0.4472 -0.0640 -0.0778
13110TIP3    H139271   1.439   7.502   5.213 -0.8410 -1.0811  0.5863
13110TIP3    H239272   1.385   7.629   5.151  0.3203 -1.2173 -0.7628
13111TIP3   OH239273   2.687   5.966   4.431  0.0079  0.4326 -0.1672
13111TIP3    H139274   2.592   5.973   4.432 -0.2655 -2.0605 -0.7776
13111TIP3    H239275   2.711   5.946   4.521 -0.1134  0.5797 -0.1036
13112TIP3   OH239276   4.055   0.620   3.654  0.4850  0.3639 -0.5152
13112TIP3    H139277   4.022   0.706   3.630 -0.2088 -0.2904 -2.1143
13112TIP3    H239278   4.116   0.597   3.584  0.0426 -0.7577 -0.5658
13113TIP3   OH239279   0.227   5.350   0.694 -0.3065  0.0249 -0.2485
13113TIP3    H139280   0.193   5.317   0.776  0.0054  0.5639  0.1048
13113TIP3    H239281   0.176   5.305   0.626  0.0856 -1.1229  0.2079
13114TIP3   OH239282   6.643   1.665   6.129 -0.2532  0.1899  0.1114
13114TIP3    H139283   6.679   1.738   6.179  2.3848 -1.2577  0.5443
13114TIP3    H239284   6.573   1.631   6.183  0.5854  0.4908  1.4265
13115TIP3   OH239285   0.117   1.061   1.919  0.0214 -0.1044 -0.2844
13115TIP3    H139286   0.062   1.079   1.843  0.9214  1.1563 -0.6733
13115TIP3    H239287   0.056   1.054   1.992 -0.6354  2.0057 -0.5771
13116TIP3   OH239288   6.819   5.176   2.112  0.2780 -0.2583 -0.0154
13116TIP3    H139289   6.908   5.156   2.140  0.3552  0.8073  0.5556
13116TIP3    H239290   6.806   5.124   2.033  0.8941 -1.5200  0.6928
13117TIP3   OH239291   4.898   1.982   1.063 -0.1406 -0.0483  0.0051
13117TIP3    H139292   4.965   1.927   1.024  1.7627  1.6964  0.6080
13117TIP3    H239293   4.941   2.022   1.139 -2.3385  0.0515  1.2886
13118TIP3   OH239294   3.693   1.957   1.366  0.3370  0.0526  0.4173
13118TIP3    H139295   3.654   1.890   1.310 -0.2768  0.8732 -0.1741
13118TIP3    H239296   3.694   2.036   1.311  1.4868  0.4185  0.9223
13119TIP3   OH239297   2.037   4.686   1.391  0.5095 -0.1619  0.1718
13119TIP3    H139298   2.098   4.655   1.458  0.4143 -1.9541 -0.5198
13119TIP3    H239299   1.975   4.742   1.439 -0.6205 -2.7522  2.0025
13120TIP3   OH239300   8.120   6.606   4.587  0.2341  0.1696  0.4229
13120TIP3    H139301   8.028   6.593   4.611  0.0116 -1.4152 -1.0582
13120TIP3    H239302   8.151   6.518   4.562  2.6587  0.3391  2.4544
13121TIP3   OH239303   6.846   5.786   1.489 -0.1183 -0.1638 -0.2137
13121TIP3    H139304   6.830   5.699   1.455  1.0567  0.5757 -2.9376
13121TIP3    H239305   6.806   5.786   1.576 -1.2368 -2.9741 -0.6352
13122TIP3   OH239306   5.096   1.775   0.646 -0.1024 -0.4479 -0.1434
13122TIP3    H139307   5.157   1.702   0.644  1.1605  0.5977 -1.0390
13122TIP3    H239308   5.012   1.736   0.623  0.5875 -1.5736 -0.8231
13123TIP3   OH239309   0.617   1.349   6.772  0.1914  0.1993 -0.5589
13123TIP3    H139310   0.693   1.296   6.749 -0.2298 -0.4218 -0.5711
13123TIP3    H239311   0.625   1.362   6.867 -1.1378 -2.3264  0.0069
13124TIP3   OH239312   0.647   2.023   4.526 -0.1506  0.2335 -0.1921
13124TIP3    H139313   0.661   1.941   4.575  0.3618  0.4336  0.0056
13124TIP3    H239314   0.696   2.011   4.445  0.8003  0.7360  0.2811
13125TIP3   OH239315   1.422   7.716   6.678 -0.4809 -0.9329 -0.5994
13125TIP3    H139316   1.384   7.658   6.744  0.3402  0.0571  0.8054
13125TIP3    H239317   1.368   7.704   6.600 -2.7919 -0.5802  0.8792
13126TIP3   OH239318   5.742   1.677   2.198 -0.0577  0.5881  0.2729
13126TIP3    H139319   5.695   1.630   2.129  0.0813 -0.0372  0.5999
13126TIP3    H239320   5.822   1.707   2.156  0.2289 -0.1629  0.2642
13127TIP3   OH239321   7.519   6.623   6.330 -0.3937  0.3960 -0.2947
13127TIP3    H139322   7.431   6.627   6.369 -0.4759  3.4601 -0.5548
13127TIP3    H239323   7.515   6.548   6.270 -2.8907  0.5190 -0.3917
13128TIP3   OH239324   8.361   5.570   2.520 -0.6204 -0.0004  0.0667
13128TIP3    H139325   8.290   5.616   2.564 -0.1820  0.4192  0.3500
13128TIP3    H239326   8.376   5.492   2.572 -1.2087 -0.3521 -0.2809
13129TIP3   OH239327   4.724   3.380   0.403 -0.0825 -0.6081 -0.2636
13129TIP3    H139328   4.791   3.340   0.459  2.0991  1.4591 -1.2717
13129TIP3    H239329   4.672   3.433   0.463 -0.9865 -2.3306  0.5510
13130TIP3   OH239330   1.420   3.238   3.658  0.4136 -0.7281  0.0770
13130TIP3    H139331   1.486   3.188   3.609  2.3844  1.3978  0.3734
13130TIP3    H239332   1.364   3.276   3.591 -0.7373 -2.7215 -0.1755
13131TIP3   OH239333   5.076   4.205   1.851 -0.0659 -0.0066 -0.0012
13131TIP3    H139334   4.992   4.233   1.887 -0.0305 -0.0513  0.1165
13131TIP3    H239335   5.099   4.274   1.789  0.5790  0.8360  1.1266
13132TIP3   OH239336   6.794   0.897   4.520 -0.5149 -0.1124  0.3499
13132TIP3    H139337   6.855   0.957   4.565  0.7744 -1.1498  0.0605
13132TIP3    H239338   6.797   0.925   4.429 -2.3855  1.3716  0.6799
13133TIP3   OH239339   5.558   6.992   0.819 -0.0078  0.0253  0.0091
13133TIP3    H139340   5.568   7.086   0.835  1.2218 -0.1739  0.5625
13133TIP3    H239341   5.640   6.966   0.777 -1.0651 -0.4857 -1.8494
13134TIP3   OH239342   5.283   4.738   6.519  0.0726 -0.2817  0.3102
13134TIP3    H139343   5.246   4.810   6.468  1.0514 -0.8711 -1.2982
13134TIP3    H239344   5.350   4.701   6.462  0.9380 -1.2325  1.8962
13135TIP3   OH239345   1.738   4.000   4.909  0.7124  0.3941 -0.2487
13135TIP3    H139346   1.829   3.984   4.930  0.5499  0.6008  0.6393
13135TIP3    H239347   1.690   3.977   4.989  0.0433  0.8245 -0.5161
13136TIP3   OH239348   5.259   7.126   3.538  0.5776  0.3366 -0.7066
13136TIP3    H139349   5.275   7.176   3.619 -3.0216 -0.3853  0.6286
13136TIP3    H239350   5.319   7.051   3.545  0.2313  0.1808  1.4348
13137TIP3   OH239351   4.624   6.368   6.774 -0.0156 -0.2460  0.4015
13137TIP3    H139352   4.680   6.396   6.701 -1.1326  1.4657  0.1336
13137TIP3    H239353   4.685   6.337   6.840  1.2382  1.0122 -0.1112
13138TIP3   OH239354   8.143   4.643   5.913 -0.0363  0.3251 -0.3361
13138TIP3    H139355   8.100   4.600   5.987  1.2316  2.2038  1.6173
13138TIP3    H239356   8.219   4.587   5.894 -0.6635 -0.4514 -0.5780
13139TIP3   OH239357   0.221   3.494   0.337  0.2048 -0.7903  0.6355
13139TIP3    H139358   0.206   3.540   0.420 -0.9112  0.7249 -0.3395
13139TIP3    H239359   0.314   3.507   0.319 -0.3094  2.4414 -0.2784
13140TIP3   OH239360   4.591   0.164   5.680 -0.4446 -0.4607 -0.0558
13140TIP3    H139361   4.504   0.175   5.717 -1.2596  1.4263 -2.3337
13140TIP3    H239362   4.615   0.250   5.648  2.3058 -0.9267  0.4998
13141TIP3   OH239363   1.532   4.684   2.581  0.1644 -0.0822  0.5759
13141TIP3    H139364   1.583   4.684   2.662  3.0811  0.9715 -1.1126
13141TIP3    H239365   1.506   4.775   2.569 -1.0829 -0.4011  0.7873
13142TIP3   OH239366   8.199   2.188   5.266 -0.3704 -0.2154 -0.2931
13142TIP3    H139367   8.291   2.190   5.294 -0.2971  1.9100 -0.4771
13142TIP3    H239368   8.201   2.146   5.180  0.4169 -0.3248 -0.2294
13143TIP3   OH239369   6.191   4.421   0.469  0.1204  0.2208  0.2940
13143TIP3    H139370   6.138   4.386   0.397  0.3892  0.7549 -0.1676
13143TIP3    H239371   6.280   4.423   0.434  0.8810 -2.5893  1.7188
13144TIP3   OH239372   7.867   4.189   5.467  0.5084  0.1727 -0.1878
13144TIP3    H139373   7.772   4.182   5.459  0.5554  0.6270 -1.1400
13144TIP3    H239374   7.891   4.268   5.419  1.4490 -0.3337 -0.5950
13145TIP3   OH239375   7.359   3.133   5.249 -0.2423  0.7126 -0.2454
13145TIP3    H139376   7.354   3.207   5.188  0.7943  0.7996 -0.2497
13145TIP3    H239377   7.316   3.164   5.328 -1.0350  0.8257 -0.7121
13146TIP3   OH239378   1.249   0.734   1.021 -0.8628 -0.7103  0.5359
13146TIP3    H139379   1.252   0.780   0.938  0.0019 -0.7769  0.5253
13146TIP3    H239380   1.339   0.736   1.054 -1.3002 -0.1433  1.7606
13147TIP3   OH239381   7.939   2.215   4.141 -0.2045 -0.0384 -0.6012
13147TIP3    H139382   7.850   2.217   4.106  0.1968  2.0907 -1.6500
13147TIP3    H239383   7.973   2.130   4.114 -1.8822 -0.8789 -0.2130
13148TIP3   OH239384   0.939   3.759   6.634 -0.2246  0.2117  0.1806
13148TIP3    H139385   0.860   3.750   6.581 -0.2292  0.7252  0.0999
13148TIP3    H239386   0.923   3.704   6.710 -1.2170  1.3335  0.8133
13149TIP3   OH239387   7.087   2.064   6.648  0.3972 -0.2087 -0.4824
13149TIP3    H139388   7.140   2.089   6.724 -0.0044  0.7977 -0.5174
13149TIP3    H239389   7.132   2.103   6.573 -0.4784  0.8489 -0.4897
13150TIP3   OH239390   4.683   4.122   1.925 -0.1490  0.1677 -0.3436
13150TIP3    H139391   4.693   4.170   2.007  3.3673 -1.1299  0.1491
13150TIP3    H239392   4.725   4.179   1.860 -0.3754 -0.0575 -0.6849
13151TIP3   OH239393   4.040   1.300   0.366  0.0840 -0.4697 -0.1847
13151TIP3    H139394   4.045   1.364   0.437  0.5715 -2.3046  1.5298
13151TIP3    H239395   4.130   1.270   0.354 -0.4099 -2.3579  0.5533
13152TIP3   OH239396   0.707   2.852   5.051  0.0659 -0.1236  0.3598
13152TIP3    H139397   0.734   2.855   4.960 -1.9075 -0.9354 -0.3204
13152TIP3    H239398   0.698   2.943   5.077 -1.2037  0.1477 -0.9064
13153TIP3   OH239399   6.043   3.558   0.217 -0.0060 -0.3482 -0.7230
13153TIP3    H139400   5.990   3.496   0.266 -0.5432  0.2789 -0.4814
13153TIP3    H239401   6.005   3.558   0.129 -0.1984 -0.1491 -0.6418
13154TIP3   OH239402   6.776   6.960   0.302 -0.1581 -0.2922  0.2527
13154TIP3    H139403   6.766   7.037   0.246 -1.1348  0.7944  1.8543
13154TIP3    H239404   6.862   6.925   0.279  0.7420  1.8461  0.1438
13155TIP3   OH239405   2.389   1.210   0.648  0.1727 -0.3768  0.0558
13155TIP3    H139406   2.319   1.222   0.584  1.8611  1.1035 -1.6208
13155TIP3    H239407   2.348   1.227   0.732 -1.3239  1.1891 -0.9400
13156TIP3   OH239408   4.718   3.903   4.260  0.1500 -0.4545 -0.1611
13156TIP3    H139409   4.728   3.813   4.229  2.2257 -0.1674 -0.4856
13156TIP3    H239410   4.794   3.918   4.316  0.2172  1.2903 -0.6437
13157TIP3   OH239411   3.157   7.864   2.768  0.2520  0.3544 -0.2084
13157TIP3    H139412   3.235   7.878   2.714  0.3515 -2.0112 -0.7963
13157TIP3    H239413   3.096   7.932   2.739  1.5499  1.3341 -0.7821
13158TIP3   OH239414   3.480   5.850   5.690  0.1556  0.2703 -0.0503
13158TIP3    H139415   3.425   5.772   5.683  0.6134 -0.1491  0.8540
13158TIP3    H239416   3.570   5.817   5.687  0.3904  0.9487 -1.4851
13159TIP3   OH239417   2.960   4.317   2.804  0.2340 -0.0578  0.4989
13159TIP3    H139418   3.008   4.323   2.721 -2.1195  1.5633 -0.8243
13159TIP3    H239419   2.998   4.386   2.858 -0.7829  1.4829 -0.6784
13160TIP3   OH239420   8.311   4.020   5.001  1.0936  0.5133 -0.0152
13160TIP3    H139421   8.264   4.055   5.077 -0.0844 -0.6350 -0.1919
13160TIP3    H239422   8.396   4.064   5.004  0.3613  1.9709  0.8344
13161TIP3   OH239423   6.248   0.148   5.777 -0.1510  0.6325  0.3126
13161TIP3    H139424   6.334   0.115   5.804  0.8657  1.5313 -1.6208
13161TIP3    H239425   6.218   0.200   5.851  1.9284  1.9786  0.2979
13162TIP3   OH239426   5.159   5.183   3.704 -0.0491 -0.1750 -0.1741
13162TIP3    H139427   5.186   5.275   3.699 -1.6231  0.3189  0.1007
13162TIP3    H239428   5.233   5.135   3.666  0.2393  1.2958 -1.5787
13163TIP3   OH239429   3.735   1.440   4.146 -0.6245 -0.3983 -0.1155
13163TIP3    H139430   3.691   1.517   4.183 -0.6653  0.7757 -2.4131
13163TIP3    H239431   3.719   1.370   4.210 -2.6063  0.9153  0.9306
13164TIP3   OH239432   2.402   0.240   5.082  0.2378  0.7332  0.1209
13164TIP3    H139433   2.378   0.171   5.020 -0.1570  1.9362 -1.1356
13164TIP3    H239434   2.497   0.236   5.087  0.1447 -0.9995  1.4331
13165TIP3   OH239435   4.994   4.790   5.822  0.2197 -0.1560 -0.1537
13165TIP3    H139436   5.069   4.745   5.861  0.5847  1.6883  1.4288
13165TIP3    H239437   4.972   4.738   5.745  0.7429 -2.8615  1.4068
13166TIP3   OH239438   0.169   4.461   5.671 -0.4392  0.3306 -0.1195
13166TIP3    H139439   0.169   4.393   5.738  1.6970  2.0462  1.8173
13166TIP3    H239440   0.248   4.445   5.620  0.0187  1.2043  0.2780
13167TIP3   OH239441   1.670   2.158   6.467 -0.4726 -0.5969  0.3032
13167TIP3    H139442   1.739   2.204   6.514  2.0222 -1.2955 -2.3427
13167TIP3    H239443   1.684   2.066   6.487 -0.4383 -0.7703 -0.4889
13168TIP3   OH239444   8.244   6.313   6.208  0.1050  0.2045  0.0122
13168TIP3    H139445   8.263   6.276   6.122 -1.1402  1.4582 -0.8485
13168TIP3    H239446   8.327   6.351   6.237  0.3471  0.4715 -1.0006
13169TIP3   OH239447   7.470   5.046   5.603 -0.3673 -0.5282  0.3126
13169TIP3    H139448   7.442   5.021   5.691 -2.8198 -0.1016 -0.2640
13169TIP3    H239449   7.502   4.964   5.565  1.3796 -0.5872  1.7697
13170TIP3   OH239450   6.095   1.825   5.289  0.0697 -0.2559  0.0938
13170TIP3    H139451   6.046   1.760   5.340  0.1224  0.2498  0.8013
13170TIP3    H239452   6.162   1.857   5.349  1.3938 -1.0469 -0.9167
13171TIP3   OH239453   1.014   0.777   2.999  0.3011  0.2854 -0.4056
13171TIP3    H139454   1.065   0.844   3.045 -0.6127 -0.2820  1.5824
13171TIP3    H239455   1.059   0.695   3.019 -0.2126  0.0096 -0.3603
13172TIP3   OH239456   4.377   4.251   2.308 -0.1854  0.1961  0.0530
13172TIP3    H139457   4.294   4.295   2.330 -0.8722 -1.6875  1.5058
13172TIP3    H239458   4.436   4.276   2.379 -0.8528 -1.8047  1.4058
13173TIP3   OH239459   2.345   2.749   2.998 -0.5460  0.2232  0.4658
13173TIP3    H139460   2.297   2.830   2.983 -0.0152  0.2841 -1.0456
13173TIP3    H239461   2.427   2.777   3.040 -0.6119  0.4055  0.4722
13174TIP3   OH239462   2.301   4.852   5.682  0.5649 -0.6184 -0.3966
13174TIP3    H139463   2.228   4.852   5.744 -0.6849 -1.2307 -1.8099
13174TIP3    H239464   2.357   4.924   5.711 -0.9339  0.3020  0.3507
13175TIP3   OH239465   0.793   1.025   3.120 -0.3109  0.8938 -0.1468
13175TIP3    H139466   0.827   1.086   3.054 -0.3405 -0.0770 -1.0827
13175TIP3    H239467   0.872   0.989   3.162 -0.2792  1.0347 -0.0830
13176TIP3   OH239468   5.705   1.814   2.988  0.0470 -0.1695  0.7220
13176TIP3    H139469   5.615   1.836   3.013 -0.3478 -2.4747  1.5141
13176TIP3    H239470   5.700   1.800   2.894 -0.2860  0.2689  0.6671
13177TIP3   OH239471   1.765   3.581   0.428  0.7114 -0.2800  0.2538
13177TIP3    H139472   1.771   3.631   0.509  1.8308  1.2785 -0.7408
13177TIP3    H239473   1.853   3.584   0.391  1.3182 -4.3768  0.8746
13178TIP3   OH239474   4.899   1.378   1.494 -0.1170 -0.2819 -0.5309
13178TIP3    H139475   4.967   1.432   1.535 -0.5888 -0.1084  0.0314
13178TIP3    H239476   4.852   1.439   1.437  0.1015 -0.3703 -0.8099
13179TIP3   OH239477   7.872   5.384   2.950 -0.0136  0.4485  0.0508
13179TIP3    H139478   7.878   5.414   2.860 -1.3998  0.3307 -0.1029
13179TIP3    H239479   7.854   5.291   2.943  0.6166  0.2863  0.4758
13180TIP3   OH239480   6.306   5.977   3.723 -0.1831 -0.1793 -0.5414
13180TIP3    H139481   6.300   5.964   3.817  2.0185  1.5769 -0.0640
13180TIP3    H239482   6.377   5.918   3.696  0.6021  0.8248 -0.7089
13181TIP3   OH239483   4.005   5.038   3.085 -0.0548 -0.8152 -0.2660
13181TIP3    H139484   4.066   4.968   3.104 -0.3254 -0.8664  0.4341
13181TIP3    H239485   3.982   5.025   2.993 -1.5387 -2.7932  0.3121
13182TIP3   OH239486   3.867   6.368   0.191 -0.4386  0.0501  0.3198
13182TIP3    H139487   3.808   6.374   0.266 -1.2680  0.5012 -0.3529
13182TIP3    H239488   3.816   6.324   0.124  0.5339 -0.9863  0.2317
13183TIP3   OH239489   7.059   0.028   3.693  0.0914  0.0674  0.4220
13183TIP3    H139490   7.047   0.058   3.783 -0.7999  3.0546 -0.5519
13183TIP3    H239491   7.135   0.078   3.661  0.1137 -0.5953 -0.5971
13184TIP3   OH239492   3.462   0.870   6.416  0.1795 -0.2814  0.3869
13184TIP3    H139493   3.412   0.898   6.493  0.0402 -0.1412  0.2469
13184TIP3    H239494   3.396   0.862   6.347  0.6924  2.9101 -0.6525
13185TIP3   OH239495   1.558   6.918   0.430  0.1695  0.3115  0.6208
13185TIP3    H139496   1.630   6.859   0.407 -1.1241 -1.2395  0.3770
13185TIP3    H239497   1.601   6.993   0.469  2.0214  0.0943 -0.8414
13186TIP3   OH239498   6.368   2.601   1.206  0.0401 -0.1692 -0.0919
13186TIP3    H139499   6.361   2.510   1.236  1.4300 -0.7688 -1.4364
13186TIP3    H239500   6.301   2.609   1.138 -0.5016  0.0028  0.4621
13187TIP3   OH239501   2.757   7.077   3.024  0.0492 -0.0213 -0.1078
13187TIP3    H139502   2.719   7.138   2.962  0.2135  0.5175  0.3188
13187TIP3    H239503   2.852   7.084   3.011  0.0426 -2.0914 -1.8754
13188TIP3   OH239504   7.542   7.193   1.414 -0.3177  0.0821  0.1639
13188TIP3    H139505   7.548   7.263   1.349 -2.9734  0.3425  0.1124
13188TIP3    H239506   7.490   7.125   1.371  2.0552 -1.9622  0.2626
13189TIP3   OH239507   7.531   3.625   0.916 -0.4233  0.4902 -0.4534
13189TIP3    H139508   7.534   3.647   0.823  1.4913 -0.3431 -0.6268
13189TIP3    H239509   7.510   3.531   0.918  1.9535 -0.0924 -0.2005
13190TIP3   OH239510   7.287   5.543   4.258  0.3745  0.2542  0.0388
13190TIP3    H139511   7.364   5.500   4.220 -1.3130 -1.9996 -1.0835
13190TIP3    H239512   7.321   5.588   4.336  2.6154 -1.8022  0.3793
13191TIP3   OH239513   2.534   7.673   5.533 -0.3886  0.4351  0.5600
13191TIP3    H139514   2.580   7.590   5.550  1.6330  1.3295 -0.2556
13191TIP3    H239515   2.560   7.729   5.606 -3.3135 -0.1501  2.2078
13192TIP3   OH239516   6.422   5.485   0.979  0.3073 -0.2435 -0.4372
13192TIP3    H139517   6.438   5.577   0.998 -0.2418 -0.0613 -0.8183
13192TIP3    H239518   6.361   5.486   0.905  0.8127 -0.9152 -0.8779
13193TIP3   OH239519   5.456   7.075   6.350  0.0830 -0.1850 -0.3386
13193TIP3    H139520   5.401   7.153   6.359  0.5388  0.1355 -0.2932
13193TIP3    H239521   5.531   7.104   6.298  0.6602 -0.3753  0.3572
13194TIP3   OH239522   7.412   1.876   6.706  0.4882 -0.1648 -0.1522
13194TIP3    H139523   7.464   1.939   6.756  0.5099  0.5701 -1.0769
13194TIP3    H239524   7.370   1.822   6.773  0.2979  0.9620  0.6808
13195TIP3   OH239525   2.495   6.168   4.340  0.6255 -0.3885 -0.1583
13195TIP3    H139526   2.484   6.155   4.434  1.3250 -2.1008 -0.2820
13195TIP3    H239527   2.418   6.127   4.301 -0.1199  1.0858 -0.3425
13196TIP3   OH239528   0.892   6.091   0.354  0.4196 -0.2226 -0.0324
13196TIP3    H139529   0.828   6.107   0.285 -0.1234  2.4446  0.9831
13196TIP3    H239530   0.858   6.014   0.401 -0.9655 -0.0449 -0.7033
13197TIP3   OH239531   1.491   1.950   3.788 -0.2639  0.0874 -0.6287
13197TIP3    H139532   1.453   1.899   3.859  0.5531  0.6456  0.2220
13197TIP3    H239533   1.516   1.885   3.722 -0.7066 -0.4570 -0.2601
13198TIP3   OH239534   0.291   1.960   1.630 -0.3372  0.1611 -0.6432
13198TIP3    H139535   0.210   2.008   1.648 -0.7416  0.0232 -1.9719
13198TIP3    H239536   0.332   2.009   1.559  0.3907 -0.1721 -0.4548
13199TIP3   OH239537   3.973   2.951   4.242 -0.6534  0.2857  0.4020
13199TIP3    H139538   3.935   2.898   4.312  1.1476 -0.4070  0.8977
13199TIP3    H239539   4.036   2.894   4.199 -0.3880  1.2908 -0.5980
13200TIP3   OH239540   5.214   4.676   1.386  0.1025 -0.1236  0.4098
13200TIP3    H139541   5.198   4.666   1.293 -2.5475 -1.4143  0.9003
13200TIP3    H239542   5.232   4.769   1.398 -1.1979  0.3729 -1.1958
13201TIP3   OH239543   5.636   0.472   2.059  0.0844 -0.0424 -0.5748
13201TIP3    H139544   5.663   0.560   2.035 -0.8631  1.2567  2.5365
13201TIP3    H239545   5.717   0.421   2.061  0.8255  1.0703 -1.2539
13202TIP3   OH239546   4.778   7.692   4.187 -0.1066  0.3328 -0.4485
13202TIP3    H139547   4.758   7.755   4.118 -0.4413  1.3692  0.5472
13202TIP3    H239548   4.761   7.606   4.149 -0.9095  0.9145 -1.4301
13203TIP3   OH239549   2.690   6.863   5.386 -0.2312  0.2577  0.2142
13203TIP3    H139550   2.768   6.913   5.410  0.6991 -1.4214  0.8198
13203TIP3    H239551   2.651   6.836   5.469 -0.6414 -0.1508 -0.1018
13204TIP3   OH239552   8.266   3.479   3.189 -0.0381  0.3106  0.2173
13204TIP3    H139553   8.272   3.511   3.279 -0.1938 -0.2315  0.4259
13204TIP3    H239554   8.333   3.528   3.141  1.1386 -0.5051  0.9673
13205TIP3   OH239555   0.119   6.879   2.379 -0.2685  0.5127  0.2030
13205TIP3    H139556   0.042   6.889   2.434 -1.3199  3.2741 -1.5601
13205TIP3    H239557   0.165   6.963   2.385  2.2696 -0.7955  0.6312
13206TIP3   OH239558   7.263   7.196   3.673  0.5654  0.4516 -0.1212
13206TIP3    H139559   7.168   7.209   3.668  0.8416  2.8091 -0.5512
13206TIP3    H239560   7.274   7.101   3.677 -1.7935  0.1050 -0.2333
13207TIP3   OH239561   6.649   4.541   4.416 -0.0869  0.4065 -0.3321
13207TIP3    H139562   6.634   4.618   4.361  3.5332  0.1123 -2.0030
13207TIP3    H239563   6.706   4.572   4.486  0.0577 -0.4329 -0.0623
13208TIP3   OH239564   5.766   5.607   3.953 -0.4409  0.0677  0.0990
13208TIP3    H139565   5.808   5.624   4.038  1.7150 -0.7414 -0.7325
13208TIP3    H239566   5.836   5.620   3.889 -2.6119  3.2515 -1.8844
13209TIP3   OH239567   1.147   3.998   1.165 -0.1549  0.5033  0.4899
13209TIP3    H139568   1.142   3.990   1.261  0.6476  0.9442  0.5734
13209TIP3    H239569   1.060   4.030   1.140 -0.5761 -0.1948  1.0038
13210TIP3   OH239570   0.097   3.430   3.924  0.5214 -0.3108 -0.1687
13210TIP3    H139571   0.102   3.342   3.887  0.5223 -1.0769  1.5414
13210TIP3    H239572   0.139   3.422   4.010 -0.9495  0.9566  0.7186
13211TIP3   OH239573   1.296   6.259   1.179  0.1393 -0.4808  0.1872
13211TIP3    H139574   1.307   6.276   1.273  1.2807 -1.2441  0.2055
13211TIP3    H239575   1.363   6.312   1.137  0.0750 -0.6671 -0.1547
13212TIP3   OH239576   2.806   5.623   0.620 -0.0563  0.3274 -0.2535
13212TIP3    H139577   2.898   5.598   0.607  0.0524 -0.1000  1.1274
13212TIP3    H239578   2.756   5.545   0.596 -0.1048  0.6979 -1.4124
13213TIP3   OH239579   2.290   7.038   3.655  0.6267 -0.1863 -0.3581
13213TIP3    H139580   2.295   7.134   3.654 -0.4927 -0.1093 -2.0505
13213TIP3    H239581   2.196   7.019   3.648  0.9307 -1.3929 -1.5386
13214TIP3   OH239582   6.554   6.403   4.028  0.1487 -0.4637  0.7753
13214TIP3    H139583   6.516   6.466   4.089  0.2771 -0.3390  0.7267
13214TIP3    H239584   6.490   6.332   4.024  0.1831 -0.5158  1.1250
13215TIP3   OH239585   4.297   4.827   3.550 -0.1391 -0.4091 -0.2532
13215TIP3    H139586   4.255   4.837   3.636 -2.5558 -0.7981 -1.3101
13215TIP3    H239587   4.281   4.911   3.506 -0.4994 -0.8342 -0.9440
13216TIP3   OH239588   1.282   7.458   2.885  0.0338 -0.1463 -0.1260
13216TIP3    H139589   1.349   7.392   2.866  0.1766  0.1542 -0.6943
13216TIP3    H239590   1.222   7.452   2.811 -0.1140  0.1562 -0.0307
13217TIP3   OH239591   8.055   1.705   0.132  0.7092 -0.6865  1.0294
13217TIP3    H139592   8.093   1.719   0.045  1.7250 -0.8780  1.4321
13217TIP3    H239593   8.015   1.789   0.154 -0.8628 -1.0530 -0.2227
13218TIP3   OH239594   0.351   5.427   5.277  0.3399 -0.6019 -0.1904
13218TIP3    H139595   0.288   5.450   5.346  0.2209 -1.1349 -0.1223
13218TIP3    H239596   0.300   5.429   5.196  0.3354 -0.6036 -0.1880
13219TIP3   OH239597   4.830   3.105   1.024  0.0561  0.0528 -0.0321
13219TIP3    H139598   4.751   3.052   1.012 -0.1520  0.5705 -1.0457
13219TIP3    H239599   4.860   3.125   0.936  0.6183  0.9124  0.3351
13220TIP3   OH239600   0.683   4.711   1.852  0.4901  0.3862 -0.0955
13220TIP3    H139601   0.720   4.777   1.911  0.0435  0.3245  0.2526
13220TIP3    H239602   0.591   4.735   1.843  0.1729 -0.5530  0.5378
13221TIP3   OH239603   2.859   4.715   4.966  1.3558 -0.3029 -0.0515
13221TIP3    H139604   2.941   4.755   4.938  1.4834 -1.0667 -0.7956
13221TIP3    H239605   2.869   4.623   4.945  0.9617 -0.6947  1.4025
13222TIP3   OH239606   2.941   3.684   1.203 -0.0034  0.4717 -0.1496
13222TIP3    H139607   2.893   3.669   1.122 -1.4121  0.4745  0.6544
13222TIP3    H239608   2.928   3.776   1.222 -1.8434 -0.0361  1.3583
13223TIP3   OH239609   0.532   5.555   4.512  0.2935 -0.7025 -0.3200
13223TIP3    H139610   0.473   5.481   4.528  1.0768 -1.4455 -0.8127
13223TIP3    H239611   0.581   5.530   4.433  0.0278  0.6802 -0.9410
13224TIP3   OH239612   8.212   7.203   6.076 -0.0786  0.1482 -0.0647
13224TIP3    H139613   8.123   7.229   6.050 -0.1280 -0.8970 -1.0073
13224TIP3    H239614   8.202   7.172   6.166 -0.9978 -1.4128 -0.6516
13225TIP3   OH239615   6.385   1.650   6.263 -0.2284  0.0423 -0.1607
13225TIP3    H139616   6.388   1.703   6.343 -1.1234  0.3757 -0.3367
13225TIP3    H239617   6.336   1.572   6.288  0.2144 -0.2386 -0.1674
13226TIP3   OH239618   7.828   1.348   2.479 -0.2248  0.0436 -0.9323
13226TIP3    H139619   7.880   1.425   2.457  0.4207 -0.2641 -0.5150
13226TIP3    H239620   7.777   1.374   2.556  2.9899 -1.1269  1.8475
13227TIP3   OH239621   5.914   7.005   5.265  0.2013  0.2048 -0.3355
13227TIP3    H139622   5.833   7.041   5.300  0.1638 -0.2998  0.1029
13227TIP3    H239623   5.885   6.943   5.198  0.2756  1.3113 -1.4360
13228TIP3   OH239624   3.849   5.824   1.745 -0.7030  0.3649  0.5353
13228TIP3    H139625   3.858   5.787   1.657 -0.8782  2.2576 -0.3221
13228TIP3    H239626   3.758   5.805   1.770 -0.0054 -2.2715  1.3676
13229TIP3   OH239627   6.558   5.257   3.473 -1.0969  0.2275  0.8563
13229TIP3    H139628   6.492   5.305   3.423 -2.6516 -1.5143  1.1164
13229TIP3    H239629   6.563   5.171   3.430  0.9401  0.2417  0.9363
13230TIP3   OH239630   4.099   1.992   2.717  0.0489  0.0310  0.0253
13230TIP3    H139631   4.115   1.946   2.634  1.2584 -0.0942  0.3061
13230TIP3    H239632   4.020   1.952   2.752 -0.3268 -0.1031 -0.9364
13231TIP3   OH239633   6.230   0.621   1.004 -0.2672 -0.1343 -0.5613
13231TIP3    H139634   6.207   0.686   0.938  0.8419 -0.0497 -0.8961
13231TIP3    H239635   6.291   0.666   1.062 -0.7655 -0.3917  0.1771
13232TIP3   OH239636   6.993   2.932   3.516  0.2792 -0.1476  0.4550
13232TIP3    H139637   6.993   3.027   3.509 -0.8564 -0.0798  1.0513
13232TIP3    H239638   6.948   2.902   3.437 -2.2913  0.0180  1.7573
13233TIP3   OH239639   2.346   6.224   6.220  0.8765  0.0400 -0.7031
13233TIP3    H139640   2.309   6.158   6.162 -1.5817 -0.2582  1.0680
13233TIP3    H239641   2.270   6.268   6.258  2.4199  1.7632  0.5782
13234TIP3   OH239642   2.317   2.461   4.736 -0.1032 -0.3512  0.3919
13234TIP3    H139643   2.284   2.450   4.646  0.0364 -2.0586  0.5180
13234TIP3    H239644   2.266   2.534   4.771  1.0021  1.5360 -1.5911
13235TIP3   OH239645   5.772   6.805   4.454 -0.1220 -0.1968 -0.9198
13235TIP3    H139646   5.819   6.887   4.441  0.3977 -0.6223 -1.8189
13235TIP3    H239647   5.841   6.738   4.452 -0.0759 -0.4884  2.8147
13236TIP3   OH239648   5.735   6.293   1.461  0.3134 -0.6796 -0.3695
13236TIP3    H139649   5.729   6.364   1.396  1.4496 -0.7073 -0.5234
13236TIP3    H239650   5.655   6.241   1.447 -0.5529  0.5737 -0.2287
13237TIP3   OH239651   3.733   6.355   3.906 -0.7674  0.2900 -0.5441
13237TIP3    H139652   3.796   6.378   3.975 -0.4379 -1.2604 -0.2940
13237TIP3    H239653   3.676   6.432   3.899 -0.8950  0.4424  1.5509
13238TIP3   OH239654   4.802   4.438   6.427 -0.5430  0.3130  0.0991
13238TIP3    H139655   4.748   4.403   6.356 -0.2469  1.1714 -0.5582
13238TIP3    H239656   4.828   4.361   6.477 -1.8995 -0.1801  0.1006
13239TIP3   OH239657   7.425   7.496   2.818  0.6228 -0.0427 -0.8669
13239TIP3    H139658   7.392   7.573   2.771 -2.4245  1.4236  3.0214
13239TIP3    H239659   7.378   7.422   2.779 -0.3517  0.8384 -1.4143
13240TIP3   OH239660   5.320   3.271   0.819 -0.4043 -0.1663 -0.6284
13240TIP3    H139661   5.326   3.251   0.912  0.0764  3.2280  0.1695
13240TIP3    H239662   5.401   3.236   0.782  0.2591  0.0550  0.5727
13241TIP3   OH239663   6.202   2.438   0.338  0.1835  0.2178  0.5601
13241TIP3    H139664   6.277   2.498   0.332 -0.4887  0.9622 -0.8503
13241TIP3    H239665   6.151   2.456   0.259 -1.0946 -0.8075  1.1270
13242TIP3   OH239666   3.584   5.241   5.538 -0.0191 -0.0680  0.3162
13242TIP3    H139667   3.512   5.209   5.483 -0.4914  0.8275  0.3895
13242TIP3    H239668   3.651   5.173   5.532 -0.6681 -0.6872 -0.1581
13243TIP3   OH239669   7.533   3.979   3.742  0.2168 -0.1954 -0.0732
13243TIP3    H139670   7.523   3.973   3.647 -0.9412 -0.2657  0.0352
13243TIP3    H239671   7.483   4.057   3.766  1.7986  0.7470  0.3224
13244TIP3   OH239672   3.889   0.908   5.393  0.3167  0.4239  0.0107
13244TIP3    H139673   3.934   0.924   5.310 -1.8450 -0.7591 -1.4868
13244TIP3    H239674   3.796   0.909   5.370 -0.3409 -0.3408  2.3606
13245TIP3   OH239675   1.997   7.661   4.979  0.4697  0.3150  0.0551
13245TIP3    H139676   1.910   7.653   5.019 -0.3053  0.6088 -1.5035
13245TIP3    H239677   2.057   7.634   5.048 -0.9040 -0.7121  0.9039
13246TIP3   OH239678   1.370   4.745   4.417  0.2600 -0.5787 -0.4511
13246TIP3    H139679   1.357   4.824   4.365  2.8254 -0.1038 -0.5304
13246TIP3    H239680   1.416   4.685   4.357  1.7254 -0.6709  0.7187
13247TIP3   OH239681   5.925   7.765   4.164 -0.0998  0.2078  0.3515
13247TIP3    H139682   5.958   7.783   4.252 -0.4444 -1.2110  0.7867
13247TIP3    H239683   5.836   7.800   4.165  0.1420  0.8576  0.3044
13248TIP3   OH239684   2.795   5.512   5.268  0.2126  0.2979  0.0588
13248TIP3    H139685   2.818   5.601   5.242  0.3045  0.2259 -0.1156
13248TIP3    H239686   2.752   5.475   5.190 -2.0561  0.9691  0.9292
13249TIP3   OH239687   5.439   6.332   5.867 -0.0766  0.3393 -0.5149
13249TIP3    H139688   5.424   6.381   5.948 -1.1295 -0.8164  0.0229
13249TIP3    H239689   5.487   6.254   5.894  1.1978  0.8163 -1.3015
13250TIP3   OH239690   3.249   6.914   3.576  0.3110  0.0493  0.3960
13250TIP3    H139691   3.340   6.929   3.551  0.5290 -0.2293  1.0070
13250TIP3    H239692   3.232   6.979   3.645  0.5097 -0.8506  1.3258
13251TIP3   OH239693   2.738   7.289   6.068 -0.2899 -0.3539  0.4737
13251TIP3    H139694   2.709   7.379   6.054  0.1214  0.0155  1.8602
13251TIP3    H239695   2.663   7.235   6.040 -0.1416  0.3402 -1.3862
13252TIP3   OH239696   8.249   1.227   5.975  0.6268  0.7021  0.2662
13252TIP3    H139697   8.245   1.302   6.035  0.2033 -0.7467  2.1197
13252TIP3    H239698   8.298   1.161   6.023 -0.7329 -0.9303 -0.5155
13253TIP3   OH239699   6.784   0.745   2.961  0.2407 -0.2507  0.1116
13253TIP3    H139700   6.857   0.766   2.904  0.2369 -0.6935 -0.0616
13253TIP3    H239701   6.753   0.830   2.994  1.2855 -0.1032  0.7648
13254TIP3   OH239702   2.459   2.624   2.471  0.3245 -0.3911  0.3934
13254TIP3    H139703   2.529   2.563   2.498  0.1135 -0.8718 -0.1404
13254TIP3    H239704   2.451   2.611   2.377 -0.7317 -0.5926  0.5078
13255TIP3   OH239705   0.074   7.833   1.735 -1.1764 -0.0766 -0.0551
13255TIP3    H139706   0.063   7.917   1.691 -0.8098 -0.6674 -1.3469
13255TIP3    H239707   0.115   7.777   1.669 -1.6906 -1.3568  0.6641
13256TIP3   OH239708   4.588   5.623   2.914  0.2227 -0.2419  0.1687
13256TIP3    H139709   4.526   5.579   2.856 -1.0472  0.7145  0.7515
13256TIP3    H239710   4.558   5.601   3.002 -0.0181  1.1842  0.4710
13257TIP3   OH239711   2.762   7.845   2.813  0.0202 -0.8393 -0.0850
13257TIP3    H139712   2.801   7.757   2.818 -0.6784 -1.1751 -0.4103
13257TIP3    H239713   2.703   7.850   2.888 -0.9099 -1.1395 -0.7777
13258TIP3   OH239714   5.296   3.175   5.086 -0.2107  0.2931 -0.1312
13258TIP3    H139715   5.311   3.228   5.165  0.9951 -0.0388 -0.1087
13258TIP3    H239716   5.207   3.142   5.095 -0.6014  1.4626  0.3681
13259TIP3   OH239717   4.540   6.128   3.935 -0.0609 -0.3350  0.3826
13259TIP3    H139718   4.563   6.215   3.964  0.9967 -0.8667  1.1790
13259TIP3    H239719   4.607   6.104   3.871 -1.1101 -0.0580 -0.8855
13260TIP3   OH239720   2.806   5.396   1.589  0.2397 -0.2126  0.4357
13260TIP3    H139721   2.753   5.400   1.668  1.7260 -0.4080  1.4982
13260TIP3    H239722   2.779   5.472   1.538 -0.4769  0.1390  1.3091
13261TIP3   OH239723   4.165   3.469   5.965 -0.4475  0.2967 -0.3964
13261TIP3    H139724   4.185   3.469   5.871  1.9428  1.3853  0.0360
13261TIP3    H239725   4.216   3.396   6.001 -2.3628 -0.9384 -0.0790
13262TIP3   OH239726   2.123   6.311   2.829 -0.2511  0.1346 -0.3982
13262TIP3    H139727   2.078   6.395   2.817  0.0320  0.1139 -1.9143
13262TIP3    H239728   2.171   6.299   2.747  0.2575 -1.1898  0.0747
13263TIP3   OH239729   3.595   0.531   0.781 -0.2508 -0.6766  0.2866
13263TIP3    H139730   3.503   0.553   0.795 -0.3781 -0.6393 -0.5769
13263TIP3    H239731   3.636   0.614   0.758 -0.0709 -0.7570  0.3157
13264TIP3   OH239732   4.329   5.813   6.347 -0.0985  0.2857  0.1136
13264TIP3    H139733   4.390   5.852   6.285 -1.1114  0.4773 -0.7771
13264TIP3    H239734   4.282   5.747   6.297 -0.3980 -0.0990  0.8787
13265TIP3   OH239735   7.214   6.521   4.747  0.4373 -0.0651 -0.2070
13265TIP3    H139736   7.119   6.518   4.735  0.2751 -0.7782  1.1352
13265TIP3    H239737   7.249   6.514   4.658 -0.7724  3.2992 -1.0999
13266TIP3   OH239738   7.870   5.722   2.455  0.1937 -0.1052  0.0509
13266TIP3    H139739   7.943   5.720   2.517 -0.2241  2.3918  0.7299
13266TIP3    H239740   7.898   5.784   2.387 -0.9675  0.3151 -0.0697
13267TIP3   OH239741   2.024   2.066   3.095 -0.5748 -0.1458 -0.0064
13267TIP3    H139742   2.110   2.024   3.096  0.4784  1.9016  1.2517
13267TIP3    H239743   1.986   2.045   3.180 -0.1925  1.0894  0.4839
13268TIP3   OH239744   6.442   2.700   5.680 -0.4569 -0.1896  1.0153
13268TIP3    H139745   6.350   2.720   5.697 -0.5331  1.3758 -0.8410
13268TIP3    H239746   6.450   2.706   5.584  1.1562 -2.3233  0.9449
13269TIP3   OH239747   3.223   6.908   1.690 -0.2763 -0.1557  0.1766
13269TIP3    H139748   3.289   6.961   1.735 -1.5781 -0.3729  2.5176
13269TIP3    H239749   3.221   6.826   1.740 -0.8270 -1.0154 -1.1817
13270TIP3   OH239750   6.563   1.224   3.483 -0.1436 -0.3395  0.1787
13270TIP3    H139751   6.539   1.313   3.457 -1.1266 -0.7417 -0.3141
13270TIP3    H239752   6.502   1.202   3.553 -0.0068 -0.6981  0.1859
13271TIP3   OH239753   7.179   7.437   0.857  0.7261  0.5466 -0.2838
13271TIP3    H139754   7.204   7.452   0.766 -0.1481  0.3942 -0.5638
13271TIP3    H239755   7.101   7.382   0.852 -0.4691  2.0623  0.4594
13272TIP3   OH239756   0.547   3.029   0.023  0.0470 -1.3230 -0.4063
13272TIP3    H139757   0.553   3.099  -0.042  2.0122 -2.4808 -1.5546
13272TIP3    H239758   0.541   3.075   0.107 -3.6434  0.2416 -1.3022
13273TIP3   OH239759   7.697   2.079   0.086  0.2729 -0.1287 -0.2976
13273TIP3    H139760   7.662   2.169   0.085 -0.8429 -0.4817  1.8881
13273TIP3    H239761   7.620   2.023   0.083  0.9712 -1.0809 -2.0223
13274TIP3   OH239762   2.268   6.318   3.548  0.3239  0.2125  0.2306
13274TIP3    H139763   2.319   6.298   3.627  0.5692  0.9521  0.2657
13274TIP3    H239764   2.178   6.298   3.572  0.3316  0.8927  0.8652
13275TIP3   OH239765   1.694   6.908   0.779  0.3871 -0.0942 -0.3385
13275TIP3    H139766   1.658   6.866   0.701 -2.0749  0.8158  0.2416
13275TIP3    H239767   1.755   6.974   0.746 -0.8464  0.4748 -1.5199
13276TIP3   OH239768   4.344   1.611   3.143 -0.2588 -0.4676 -0.1459
13276TIP3    H139769   4.293   1.533   3.118 -0.4840 -0.7054  1.0281
13276TIP3    H239770   4.412   1.577   3.201 -0.0199  0.1427 -0.0647
13277TIP3   OH239771   4.946   4.359   4.933  0.3858 -0.1853  0.3194
13277TIP3    H139772   4.942   4.441   4.883 -0.7620 -1.9074 -2.6881
13277TIP3    H239773   5.034   4.325   4.915 -0.7780 -1.9586 -2.8266
13278TIP3   OH239774   0.802   6.356   6.123 -0.3401  0.4383 -0.2252
13278TIP3    H139775   0.776   6.366   6.032 -1.0376  0.7867  0.0112
13278TIP3    H239776   0.725   6.381   6.174  0.1127  0.4681  0.4656
13279TIP3   OH239777   0.044   1.073   3.445 -0.3995 -0.1731 -0.4387
13279TIP3    H139778   0.029   1.105   3.356 -1.5869  0.5648 -0.0053
13279TIP3    H239779   0.099   0.995   3.434  1.0660  0.9709 -1.6637
13280TIP3   OH239780   8.360   7.718   6.027  0.4976  0.2625 -0.1594
13280TIP3    H139781   8.344   7.770   6.107 -2.7089 -0.3037 -0.3421
13280TIP3    H239782   8.419   7.648   6.056  0.3075  0.7201  1.4358
13281TIP3   OH239783   4.913   6.200   0.351 -0.3436 -0.1629 -0.7058
13281TIP3    H139784   4.822   6.216   0.328 -0.1960  0.0394 -1.1617
13281TIP3    H239785   4.963   6.260   0.296  0.1244 -0.9710 -1.1880
13282TIP3   OH239786   5.225   3.734   1.562 -0.1936  0.4327  0.3353
13282TIP3    H139787   5.142   3.772   1.590 -0.5309  0.7333 -1.0139
13282TIP3    H239788   5.286   3.808   1.558 -0.7999  0.8810 -2.0999
13283TIP3   OH239789   5.612   0.504   0.538 -0.4741  0.2739 -0.0185
13283TIP3    H139790   5.523   0.539   0.533 -0.7613 -0.2294  1.2632
13283TIP3    H239791   5.600   0.413   0.565  0.3954 -0.0891 -0.8137
13284TIP3   OH239792   3.333   1.448   0.083  0.0738  0.0600 -0.0704
13284TIP3    H139793   3.329   1.499   0.164 -0.0462 -0.9109  0.5658
13284TIP3    H239794   3.315   1.358   0.112  1.0448 -0.4589 -1.0279
13285TIP3   OH239795   8.334   1.821   2.491  0.3033 -0.2342 -0.0123
13285TIP3    H139796   8.354   1.907   2.529  1.0578 -0.5210  0.2736
13285TIP3    H239797   8.307   1.839   2.401  3.0739  0.1501 -0.8748
13286TIP3   OH239798   0.497   2.907   1.976 -0.0010 -0.4318 -0.3070
13286TIP3    H139799   0.536   2.948   2.053 -0.4438  0.9555 -0.8002
13286TIP3    H239800   0.427   2.852   2.012  0.3837 -0.5160  0.3378
13287TIP3   OH239801   7.023   6.224   4.942 -0.6027  0.1036 -0.1264
13287TIP3    H139802   7.017   6.320   4.941  0.0937  0.1935  1.2324
13287TIP3    H239803   7.111   6.206   4.973 -0.4984 -0.9987 -1.0305
13288TIP3   OH239804   5.774   3.146   2.292  0.0953 -0.6262 -0.1795
13288TIP3    H139805   5.684   3.165   2.322  0.4951  0.7800  0.2011
13288TIP3    H239806   5.763   3.109   2.205 -0.9043 -1.4916  0.2769
13289TIP3   OH239807   4.677   7.490   6.513 -0.5270 -0.5411  0.4127
13289TIP3    H139808   4.620   7.449   6.449 -1.2036 -0.3863  0.9049
13289TIP3    H239809   4.754   7.433   6.516 -0.4445 -0.4944 -0.5902
13290TIP3   OH239810   6.135   7.444   4.289  0.1749  0.0165 -0.0913
13290TIP3    H139811   6.182   7.395   4.222  0.2257 -0.9335  0.6118
13290TIP3    H239812   6.184   7.526   4.298  1.3610 -0.6979  0.2021
13291TIP3   OH239813   4.612   6.472   0.864 -0.4122 -0.6950 -0.0019
13291TIP3    H139814   4.605   6.422   0.945  0.1941  0.8054  1.0227
13291TIP3    H239815   4.649   6.411   0.801  0.2235 -1.5675  1.1816
13292TIP3   OH239816   3.282   2.736   5.421 -0.3740 -0.8221  0.2715
13292TIP3    H139817   3.186   2.746   5.423 -0.1668  2.2245  0.8577
13292TIP3    H239818   3.309   2.782   5.342  0.6866 -0.1263  1.0135
13293TIP3   OH239819   3.517   3.035   0.547  0.0816  0.5329 -0.0753
13293TIP3    H139820   3.430   3.021   0.584 -0.4624  1.6580 -0.8501
13293TIP3    H239821   3.575   2.978   0.598 -0.9917  0.3104  0.9366
13294TIP3   OH239822   7.273   2.040   6.166  0.4338 -0.6916 -0.1368
13294TIP3    H139823   7.325   1.963   6.145 -0.5717 -0.9565 -1.8623
13294TIP3    H239824   7.186   2.021   6.130 -0.8874 -0.2189  2.5309
13295TIP3   OH239825   1.242   4.739   1.287  0.1802  0.2033  0.5839
13295TIP3    H139826   1.241   4.817   1.343  0.3035 -0.4718  1.5459
13295TIP3    H239827   1.149   4.724   1.267  0.2999  2.7657 -2.7805
13296TIP3   OH239828   3.530   1.215   2.522  0.0535  0.3975 -0.6420
13296TIP3    H139829   3.540   1.125   2.490  1.1049  0.4688 -0.5573
13296TIP3    H239830   3.560   1.212   2.613  0.9864  1.0063 -0.9123
13297TIP3   OH239831   5.671   4.791   1.161  0.2727 -0.6667 -0.2454
13297TIP3    H139832   5.752   4.744   1.143  1.0240  0.2316  0.6367
13297TIP3    H239833   5.633   4.744   1.235  1.3373  0.4072  1.0432
13298TIP3   OH239834   0.798   5.643   1.710  0.2702  0.0841 -0.6328
13298TIP3    H139835   0.805   5.681   1.623  0.0473 -0.8803 -1.0937
13298TIP3    H239836   0.832   5.554   1.700 -1.7102 -0.7844 -0.2574
13299TIP3   OH239837   5.183   5.651   6.786  0.4358 -0.5799 -0.7344
13299TIP3    H139838   5.139   5.646   6.701 -0.3530 -0.1484 -0.3717
13299TIP3    H239839   5.134   5.719   6.833  2.8712  1.5497 -1.0864
13300TIP3   OH239840   0.980   0.459   5.666  0.5083 -0.2293 -0.2462
13300TIP3    H139841   1.009   0.472   5.757  1.8006 -2.3810 -0.2803
13300TIP3    H239842   1.053   0.412   5.625  0.3297  1.4657 -2.6814
13301TIP3   OH239843   7.310   0.454   0.460  0.2982  0.0849  0.3189
13301TIP3    H139844   7.376   0.421   0.521  0.1513  1.8933  1.5279
13301TIP3    H239845   7.286   0.378   0.407  0.6203 -1.5098  2.3464
13302TIP3   OH239846   1.893   6.495   6.764 -0.0177 -0.3297 -0.2651
13302TIP3    H139847   1.906   6.578   6.809  0.9839 -1.5560  1.8490
13302TIP3    H239848   1.931   6.429   6.822 -1.7473 -2.4177 -1.3284
13303TIP3   OH239849   5.368   6.006   5.613  0.5067  0.5089 -0.2810
13303TIP3    H139850   5.326   5.969   5.536  0.7585 -0.7863  0.1750
13303TIP3    H239851   5.455   6.031   5.583 -0.0454  1.8181 -0.8658
13304TIP3   OH239852   1.176   1.591   3.318  0.3159  0.7883  0.0969
13304TIP3    H139853   1.212   1.658   3.376 -1.4728  2.1839 -0.3115
13304TIP3    H239854   1.247   1.569   3.259  1.8384  0.1562  2.0522
13305TIP3   OH239855   8.368   6.598   2.976 -0.4711  0.3580 -0.4151
13305TIP3    H139856   8.357   6.641   3.061 -0.7129 -0.0634 -0.2288
13305TIP3    H239857   8.410   6.664   2.921 -1.3589  1.0424 -0.3044
13306TIP3   OH239858   5.188   4.191   3.704 -0.0362 -0.1521 -0.0311
13306TIP3    H139859   5.219   4.107   3.740 -1.0254 -0.2045  0.7456
13306TIP3    H239860   5.254   4.254   3.729  0.4939 -0.6205 -0.2302
13307TIP3   OH239861   5.898   7.771   4.462  0.2668 -0.0007  0.4925
13307TIP3    H139862   5.887   7.844   4.524  1.0809 -0.1916  0.8716
13307TIP3    H239863   5.973   7.722   4.496 -0.5133 -1.2539  0.4580
13308TIP3   OH239864   5.661   6.478   4.138  0.5981 -0.6206 -0.2773
13308TIP3    H139865   5.676   6.560   4.185 -2.9694  0.6903 -1.0538
13308TIP3    H239866   5.705   6.489   4.054  0.4707  0.3557 -0.2209
13309TIP3   OH239867   2.131   5.737   2.112 -0.4050 -0.3450 -0.6431
13309TIP3    H139868   2.124   5.800   2.041  1.3827  0.3747 -0.2231
13309TIP3    H239869   2.107   5.653   2.073  0.6659  0.0161 -2.1239
13310TIP3   OH239870   3.142   1.204   6.815  0.0376 -0.1561 -0.3911
13310TIP3    H139871   3.222   1.217   6.764 -0.7714  1.7660 -1.2706
13310TIP3    H239872   3.117   1.113   6.799  2.9899 -1.4237  1.4018
13311TIP3   OH239873   2.384   5.876   6.623  0.1997  0.8563  0.9047
13311TIP3    H139874   2.450   5.845   6.560 -0.9020  0.9787 -0.3541
13311TIP3    H239875   2.386   5.811   6.693  1.7450  0.9311  0.9760
13312TIP3   OH239876   0.344   0.907   4.433 -0.8671  0.7621 -0.3250
13312TIP3    H139877   0.375   0.859   4.356 -1.6166 -1.2227  0.5390
13312TIP3    H239878   0.417   0.964   4.456  1.1815 -1.8133  0.0461
13313TIP3   OH239879   6.987   1.130   2.851 -0.0774  0.3052 -0.1890
13313TIP3    H139880   7.029   1.059   2.899  0.9786  0.4045 -0.9298
13313TIP3    H239881   6.945   1.184   2.918 -0.7009 -0.8777  0.3950
13314TIP3   OH239882   4.220   3.944   4.013  0.2330  0.4415  0.9059
13314TIP3    H139883   4.284   3.874   4.021  0.0882  0.2846  0.7025
13314TIP3    H239884   4.272   4.024   4.011  0.7438  0.1936 -2.7907
13315TIP3   OH239885   7.432   1.265   5.709 -0.5587  0.1347  0.3725
13315TIP3    H139886   7.383   1.233   5.785 -1.9488  0.0427 -0.5210
13315TIP3    H239887   7.484   1.190   5.680 -1.2703 -0.3292  0.2719
13316TIP3   OH239888   3.976   1.116   1.577  0.2408  0.2569  0.1974
13316TIP3    H139889   4.041   1.182   1.551 -0.3399  0.4394 -0.8735
13316TIP3    H239890   3.986   1.109   1.671  1.2495  0.8872  0.1615
13317TIP3   OH239891   1.788   6.280   4.295 -0.6747 -0.3506  0.0482
13317TIP3    H139892   1.775   6.214   4.227 -0.8506  0.2550 -0.5155
13317TIP3    H239893   1.700   6.300   4.327 -0.7964  0.7796 -0.9222
13318TIP3   OH239894   3.126   2.229   0.221 -0.4355  0.1936  0.3256
13318TIP3    H139895   3.036   2.236   0.255 -0.4151  0.0576  0.4070
13318TIP3    H239896   3.138   2.136   0.203 -0.8209  0.3951 -1.1032
13319TIP3   OH239897   3.714   4.804   2.177  0.1368 -0.3296  0.6050
13319TIP3    H139898   3.786   4.746   2.153 -0.7884 -1.1528 -0.2574
13319TIP3    H239899   3.740   4.839   2.263  2.9668  1.7775 -0.9573
13320TIP3   OH239900   6.939   1.325   0.818  0.0223  0.0966  0.1012
13320TIP3    H139901   7.003   1.267   0.860  0.5665  0.3768 -0.3312
13320TIP3    H239902   6.933   1.401   0.876  0.0911  0.0755  0.1360
13321TIP3   OH239903   4.092   4.067   6.609 -0.2669  0.2297  0.8915
13321TIP3    H139904   4.070   4.117   6.688 -2.8847  1.1537 -0.3122
13321TIP3    H239905   4.172   4.110   6.576 -0.8463  1.8016  1.4259
13322TIP3   OH239906   2.778   4.192   4.606 -0.0593  0.1035  0.3566
13322TIP3    H139907   2.692   4.198   4.649  0.8494 -1.4880  2.5784
13322TIP3    H239908   2.837   4.160   4.675  1.8713 -1.0144 -1.6926
13323TIP3   OH239909   6.924   3.997   6.166 -0.2674  0.1090  0.3933
13323TIP3    H139910   6.944   3.904   6.175 -1.5788 -0.0196  2.8264
13323TIP3    H239911   6.840   3.999   6.120 -0.1820  0.1025  0.2364
13324TIP3   OH239912   2.842   5.233   2.285  0.6615 -0.1745 -0.1980
13324TIP3    H139913   2.793   5.186   2.351  1.3405 -0.8273 -0.1538
13324TIP3    H239914   2.933   5.224   2.311  0.8067  1.3175 -0.0866
13325TIP3   OH239915   3.768   3.765   0.075  0.2739 -0.6349  0.1568
13325TIP3    H139916   3.806   3.852   0.082 -1.9344  0.2806  1.8533
13325TIP3    H239917   3.834   3.707   0.113  1.5073  0.3510 -0.4122
13326TIP3   OH239918   0.449   4.436   0.742  0.1537  0.6665  0.2402
13326TIP3    H139919   0.431   4.445   0.836  1.0368 -2.2142  0.7842
13326TIP3    H239920   0.532   4.483   0.729  0.0467  1.0545  0.9048
13327TIP3   OH239921   8.379   5.982   1.840  0.5151  0.3442 -0.9420
13327TIP3    H139922   8.355   6.074   1.832  1.4233  0.7594  0.7376
13327TIP3    H239923   8.308   5.942   1.890 -0.4716 -0.1746 -2.6693
13328TIP3   OH239924   4.853   2.683   3.598  0.4477 -0.4791  0.0731
13328TIP3    H139925   4.765   2.701   3.565 -0.0211 -1.4331  0.7581
13328TIP3    H239926   4.908   2.681   3.520 -0.0705  0.4170 -0.3411
13329TIP3   OH239927   7.696   0.388   1.369 -0.0141  0.3894  0.0491
13329TIP3    H139928   7.649   0.306   1.351 -0.5993  0.2437  2.0031
13329TIP3    H239929   7.640   0.456   1.332 -0.9639  0.0957  0.9001
13330TIP3   OH239930   6.813   1.062   5.927 -0.7110 -0.2184  0.1216
13330TIP3    H139931   6.860   1.111   5.994  0.6040 -1.4667  0.1685
13330TIP3    H239932   6.808   1.122   5.852  0.0499  0.3006  0.4807
13331TIP3   OH239933   4.330   5.179   3.699  0.1685 -0.2844 -0.1865
13331TIP3    H139934   4.420   5.166   3.669  0.4057  0.9779 -0.0927
13331TIP3    H239935   4.316   5.273   3.692 -0.7824 -0.3248  0.8252
13332TIP3   OH239936   2.390   7.373   5.878 -0.2128  0.4641  0.3512
13332TIP3    H139937   2.428   7.311   5.816 -1.1891  0.1199  0.0787
13332TIP3    H239938   2.399   7.458   5.837 -1.2701  0.1881 -0.4938
13333TIP3   OH239939   1.033   6.280   0.557 -0.4789  0.0941 -0.4889
13333TIP3    H139940   0.982   6.243   0.485 -1.1106  0.6517 -0.3445
13333TIP3    H239941   0.968   6.326   0.611  0.0777  0.2142  0.0926
13334TIP3   OH239942   7.430   3.704   4.441 -0.2937 -0.0219 -0.0594
13334TIP3    H139943   7.398   3.759   4.513 -0.7847 -1.9762  1.3095
13334TIP3    H239944   7.523   3.725   4.436 -0.7860  2.2945 -0.9097
13335TIP3   OH239945   4.422   5.287   6.390  0.3084  0.4107 -0.0193
13335TIP3    H139946   4.459   5.331   6.314 -2.2303 -0.0861 -1.6925
13335TIP3    H239947   4.389   5.204   6.355  1.2062 -0.9530  2.1690
13336TIP3   OH239948   1.854   1.312   2.528  0.0552 -0.4923 -0.2423
13336TIP3    H139949   1.899   1.333   2.610  0.1859  1.8884 -0.8512
13336TIP3    H239950   1.907   1.355   2.460 -1.5554 -0.0165 -1.2618
13337TIP3   OH239951   8.201   2.443   6.013  0.5029 -0.6659  0.2409
13337TIP3    H139952   8.175   2.374   5.952  1.0223 -1.1057  0.5167
13337TIP3    H239953   8.153   2.521   5.982  1.3338 -0.6910 -1.1947
13338TIP3   OH239954   3.037   2.320   6.322 -0.1832  0.2667  0.1390
13338TIP3    H139955   3.073   2.296   6.236  0.5209 -1.5324  0.8742
13338TIP3    H239956   2.943   2.302   6.314  0.0049 -0.7318 -0.0303
13339TIP3   OH239957   2.911   5.263   3.943 -0.3290  0.0618  0.3498
13339TIP3    H139958   2.978   5.331   3.930  0.4628 -0.7594  0.0059
13339TIP3    H239959   2.851   5.274   3.869  1.9742 -2.0679 -2.0252
13340TIP3   OH239960   2.489   2.321   1.114  0.2837  0.5184  0.2420
13340TIP3    H139961   2.406   2.364   1.135 -0.6861 -1.3649  0.4497
13340TIP3    H239962   2.548   2.349   1.185 -2.0065 -3.1058  4.0521
13341TIP3   OH239963   6.886   6.953   4.132  0.2032 -0.0751 -0.4497
13341TIP3    H139964   6.968   6.939   4.181  0.8725  0.1051 -1.4946
13341TIP3    H239965   6.837   7.014   4.186  1.9827  2.0882 -1.1112
13342TIP3   OH239966   3.730   6.799   0.011 -0.7420  0.0605 -0.0058
13342TIP3    H139967   3.765   6.763   0.093  0.8626 -2.4003 -1.6503
13342TIP3    H239968   3.692   6.884   0.037  0.1319 -0.3743  3.1612
13343TIP3   OH239969   6.686   3.811   4.594  0.3290 -0.0629  0.0899
13343TIP3    H139970   6.594   3.785   4.598  0.9230 -2.3892 -0.0163
13343TIP3    H239971   6.709   3.834   4.684 -0.1982  0.0030  0.2085
13344TIP3   OH239972   2.417   0.903   0.992 -0.0504  0.0644 -0.0418
13344TIP3    H139973   2.399   0.956   1.070 -0.3392  0.2239 -0.2137
13344TIP3    H239974   2.465   0.963   0.934 -1.8621  0.7132 -0.9468
13345TIP3   OH239975   6.864   6.207   5.938  0.3690 -0.0421 -0.2260
13345TIP3    H139976   6.945   6.200   5.988  0.3857  1.1962 -0.0370
13345TIP3    H239977   6.833   6.296   5.956  0.0261  0.2064 -1.8661
13346TIP3   OH239978   4.001   1.631   1.434  0.2398 -0.0620  0.2454
13346TIP3    H139979   3.981   1.641   1.526  0.5124  0.3022  0.2693
13346TIP3    H239980   4.094   1.606   1.432 -0.0029 -1.0247  0.1099
13347TIP3   OH239981   5.390   5.646   0.217  0.9995  0.0808 -0.3723
13347TIP3    H139982   5.386   5.675   0.309  0.7916 -1.7708  0.2484
13347TIP3    H239983   5.331   5.705   0.171  0.0195  0.1954  0.9594
13348TIP3   OH239984   3.461   5.527   4.618 -0.7918  0.1451 -0.7480
13348TIP3    H139985   3.538   5.584   4.624 -1.8292  1.4992  1.9387
13348TIP3    H239986   3.447   5.514   4.525  1.5579  1.4486 -1.3593
13349TIP3   OH239987   2.041   2.615   0.424  0.1052 -0.5006 -0.0003
13349TIP3    H139988   2.117   2.559   0.411  0.0095 -0.9232  1.1164
13349TIP3    H239989   2.077   2.703   0.432  0.7862 -0.9249  2.7588
13350TIP3   OH239990   3.848   6.519   6.484 -0.5334  0.1994  0.0195
13350TIP3    H139991   3.854   6.557   6.397 -1.2827  0.4205  0.0643
13350TIP3    H239992   3.883   6.430   6.474 -0.8293  0.1482 -0.5472
13351TIP3   OH239993   6.403   6.614   4.179  0.0389 -0.2879  0.5127
13351TIP3    H139994   6.309   6.614   4.194  0.1999 -0.2492  1.6297
13351TIP3    H239995   6.441   6.638   4.263  1.0202  0.9324 -0.2403
13352TIP3   OH239996   7.267   4.920   6.487 -0.3889 -0.5915  0.3201
13352TIP3    H139997   7.342   4.861   6.481 -0.7031 -1.0012  0.3901
13352TIP3    H239998   7.191   4.863   6.476 -0.7265 -0.3340  1.2549
13353TIP3   OH239999   1.057   6.825   4.564 -0.6345  0.1977  0.5004
13353TIP3    H140000   1.108   6.764   4.511 -0.1747 -0.0593  1.2247
13353TIP3    H240001   1.072   6.797   4.655 -1.2238  0.7641  0.7842
13354TIP3   OH240002   6.253   3.906   4.562 -0.1902  0.3560 -0.1616
13354TIP3    H140003   6.254   3.900   4.657  0.0084  0.7025 -0.1418
13354TIP3    H240004   6.203   3.829   4.534  1.3816 -0.8104  0.1321
13355TIP3   OH240005   4.680   7.802   6.780  0.0717  0.0497  0.3739
13355TIP3    H140006   4.651   7.890   6.805  0.9430  0.9320 -1.5007
13355TIP3    H240007   4.717   7.766   6.860  0.9336  1.9288  0.8909
13356TIP3   OH240008   3.711   5.702   0.614 -0.3361  0.1545  0.1194
13356TIP3    H140009   3.730   5.615   0.649 -1.0619  0.0639  0.3054
13356TIP3    H240010   3.656   5.743   0.681  0.7629  1.1172  0.4725
13357TIP3   OH240011   3.835   6.834   6.540  0.0831  0.3225 -0.2632
13357TIP3    H140012   3.868   6.765   6.597  0.8438  1.1534  0.3175
13357TIP3    H240013   3.854   6.803   6.451  0.2299 -0.3015 -0.0216
13358TIP3   OH240014   6.375   7.258   5.570  0.4395 -0.3263 -0.1838
13358TIP3    H140015   6.380   7.179   5.624  0.8543 -0.2962 -0.1738
13358TIP3    H240016   6.383   7.330   5.632 -1.2233 -0.2341 -0.0356
13359TIP3   OH240017   4.112   2.872   2.974  0.0929  0.4733 -0.2706
13359TIP3    H140018   4.148   2.887   2.886 -1.7208 -0.3159 -1.1969
13359TIP3    H240019   4.058   2.794   2.965 -3.0695  2.3834  0.6067
13360TIP3   OH240020   5.376   5.499   4.616 -0.0383  0.1086  0.4207
13360TIP3    H140021   5.335   5.487   4.702 -0.0545 -0.1926  0.3696
13360TIP3    H240022   5.317   5.561   4.572 -0.3719 -0.2247  0.3945
13361TIP3   OH240023   6.279   0.629   6.160 -0.1313  0.2671 -0.5048
13361TIP3    H140024   6.264   0.535   6.173 -1.8112  0.4951 -0.5240
13361TIP3    H240025   6.361   0.634   6.110 -0.0047 -1.1798 -0.4821
13362TIP3   OH240026   5.846   4.326   0.853 -0.7525  0.4967 -0.1518
13362TIP3    H140027   5.925   4.303   0.804 -1.2016 -0.0421 -0.6451
13362TIP3    H240028   5.812   4.403   0.807 -0.7088  0.5100 -0.1614
13363TIP3   OH240029   0.233   6.737   3.187  0.1091 -0.3932  0.8067
13363TIP3    H140030   0.316   6.777   3.216  1.4554 -0.9556 -1.9596
13363TIP3    H240031   0.202   6.796   3.118  0.5233 -2.3971 -1.1846
13364TIP3   OH240032   3.858   0.037   1.629  0.1393  0.4089 -0.1044
13364TIP3    H140033   3.894  -0.039   1.675  0.3132 -0.3464 -1.4185
13364TIP3    H240034   3.932   0.095   1.615  0.3868 -0.0457 -0.7157
13365TIP3   OH240035   4.894   5.381   6.244  0.1957  0.0655 -0.3781
13365TIP3    H140036   4.977   5.403   6.284  0.2301 -1.3090  0.3709
13365TIP3    H240037   4.871   5.457   6.191  1.3008  0.9653  0.4071
13366TIP3   OH240038   0.392   7.565   0.503  0.0375 -0.2594 -0.3880
13366TIP3    H140039   0.428   7.651   0.481  0.3788 -0.6426 -1.3841
13366TIP3    H240040   0.469   7.508   0.511 -0.1715 -0.4334  0.4852
13367TIP3   OH240041   6.056   6.320   1.757 -0.5144 -0.2629 -0.2719
13367TIP3    H140042   6.083   6.304   1.847  1.0444  0.1594 -0.6484
13367TIP3    H240043   5.987   6.386   1.765 -0.2471 -0.0669  0.5976
13368TIP3   OH240044   4.725   0.401   0.119  0.1696  0.0936 -0.4275
13368TIP3    H140045   4.760   0.314   0.098 -0.9038 -0.4104 -0.1817
13368TIP3    H240046   4.803   0.457   0.126  0.8033 -0.5881 -1.7297
13369TIP3   OH240047   5.960   1.145   2.272  0.2874  0.2437  0.0493
13369TIP3    H140048   5.958   1.099   2.189 -0.0726 -0.8753  0.6654
13369TIP3    H240049   5.893   1.103   2.326 -0.9568  2.2912  0.2356
13370TIP3   OH240050   7.267   0.725   0.456 -0.5446  0.0281  0.3777
13370TIP3    H140051   7.328   0.794   0.481 -2.9124  1.1205  3.9768
13370TIP3    H240052   7.305   0.645   0.492 -0.2845  0.3780  0.8952
13371TIP3   OH240053   1.980   5.224   4.671 -0.4459 -0.1030 -0.6910
13371TIP3    H140054   1.991   5.228   4.576  1.0941 -0.0463 -0.5312
13371TIP3    H240055   1.949   5.135   4.688  0.9729 -0.7078 -1.1154
13372TIP3   OH240056   1.084   7.356   3.966  1.2796  0.5436  0.3696
13372TIP3    H140057   1.027   7.367   4.042 -0.3753 -1.2535 -0.5238
13372TIP3    H240058   1.160   7.308   4.001  1.3990  1.3343  1.2250
13373TIP3   OH240059   6.384   3.619   1.020  0.0643 -0.0129  0.1375
13373TIP3    H140060   6.466   3.657   1.051  0.2369 -0.4626  0.2403
13373TIP3    H240061   6.381   3.643   0.927 -0.2239  0.9258  0.3773
13374TIP3   OH240062   2.193   0.160   0.693 -0.6508 -0.5542  0.2836
13374TIP3    H140063   2.222   0.155   0.602 -0.5794  0.3011  0.2518
13374TIP3    H240064   2.193   0.069   0.723  2.8640 -0.6309  0.5357
13375TIP3   OH240065   3.308   5.145   0.832  0.7990  0.9221  0.4421
13375TIP3    H140066   3.250   5.134   0.907  0.7355 -0.0997  0.2503
13375TIP3    H240067   3.308   5.060   0.788  0.6731  1.5512 -0.8290
13376TIP3   OH240068   1.274   5.479   6.412 -0.4173  0.6682  0.5374
13376TIP3    H140069   1.318   5.531   6.480 -1.0881  0.4235  1.1569
13376TIP3    H240070   1.215   5.541   6.369 -1.0617  0.4790  1.1381
13377TIP3   OH240071   2.934   3.768   3.367  0.5729  0.4821  0.0763
13377TIP3    H140072   2.872   3.743   3.435 -2.8835  3.2319 -1.7251
13377TIP3    H240073   2.923   3.862   3.358  1.2973  0.3533 -3.8054
13378TIP3   OH240074   0.465   4.779   6.474 -0.3458  0.1914  0.0253
13378TIP3    H140075   0.432   4.727   6.401  0.8651  0.6917 -0.9174
13378TIP3    H240076   0.555   4.749   6.486  0.7766  2.7153 -1.2692
13379TIP3   OH240077   4.512   4.157   5.244  0.2551  0.4410  0.4762
13379TIP3    H140078   4.535   4.079   5.194 -0.3019  0.8837 -0.5085
13379TIP3    H240079   4.583   4.219   5.225  0.0033  0.6360  0.1465
13380TIP3   OH240080   5.471   2.600   2.681 -0.2653  0.9629 -0.1270
13380TIP3    H140081   5.529   2.550   2.625 -0.6347  0.7340 -0.3062
13380TIP3    H240082   5.512   2.596   2.768 -0.8401 -0.5560  0.0972
13381TIP3   OH240083   3.151   2.572   5.106  0.1357  0.5244 -0.4833
13381TIP3    H140084   3.066   2.590   5.146  1.0833  2.4058  0.8451
13381TIP3    H240085   3.155   2.477   5.099 -2.2920  0.4036 -1.1235
13382TIP3   OH240086   3.179   4.718   3.972  0.0686  0.0593 -0.0674
13382TIP3    H140087   3.086   4.694   3.971 -0.1011  0.6524  0.6623
13382TIP3    H240088   3.210   4.692   4.058 -0.0126  1.9646  0.5819
13383TIP3   OH240089   0.290   0.796   5.892  0.4787  0.4293  0.1215
13383TIP3    H140090   0.378   0.797   5.856 -0.5305  2.4118 -2.6184
13383TIP3    H240091   0.269   0.703   5.901  1.6156 -0.1937 -2.6095
13384TIP3   OH240092   1.446   4.061   4.090 -0.3705 -0.3325 -0.4485
13384TIP3    H140093   1.430   4.018   4.006 -0.6467 -1.8326  0.3425
13384TIP3    H240094   1.391   4.014   4.152 -2.1726  2.3390  0.1948
13385TIP3   OH240095   5.565   4.398   6.448  0.2447 -0.4803  0.3212
13385TIP3    H140096   5.638   4.418   6.507  1.5735 -1.0660 -1.0513
13385TIP3    H240097   5.545   4.482   6.406  0.9508 -0.5620 -0.1841
13386TIP3   OH240098   2.353   4.818   4.130 -0.3138  0.1512 -0.2413
13386TIP3    H140099   2.400   4.823   4.214 -1.8446  0.7999  0.6254
13386TIP3    H240100   2.261   4.828   4.154 -0.7585  0.7402 -2.0544
13387TIP3   OH240101   5.899   7.280   1.310 -0.1929 -0.2608 -0.0827
13387TIP3    H140102   5.893   7.263   1.216 -0.6678 -1.5323  0.1591
13387TIP3    H240103   5.935   7.369   1.316 -3.5824  1.3718 -1.4768
13388TIP3   OH240104   4.291   0.070   6.671 -0.3648  0.1920  0.0490
13388TIP3    H140105   4.221   0.092   6.733  0.3029  1.3348  0.4284
13388TIP3    H240106   4.289  -0.026   6.666 -0.5590  0.0751  1.7138
13389TIP3   OH240107   3.068   0.839   2.943  0.2413  0.3564  0.1085
13389TIP3    H140108   2.990   0.893   2.931 -1.5683 -2.2756 -1.0063
13389TIP3    H240109   3.111   0.841   2.858 -0.0511 -0.2262 -0.0588
13390TIP3   OH240110   4.327   3.989   2.254 -0.1727  0.0362  0.0791
13390TIP3    H140111   4.332   4.082   2.278  1.9427 -0.0828  0.2982
13390TIP3    H240112   4.244   3.960   2.291 -0.0253  1.4097  1.6296
13391TIP3   OH240113   2.057   4.700   6.458 -0.2995  0.0176  0.2111
13391TIP3    H140114   2.044   4.730   6.548  1.2748  0.4247  0.3324
13391TIP3    H240115   1.989   4.634   6.445 -1.4564  0.9482  1.2096
13392TIP3   OH240116   7.673   2.175   1.663  0.4110  0.5656  0.5621
13392TIP3    H140117   7.737   2.113   1.628 -0.6942 -0.6974  0.7376
13392TIP3    H240118   7.598   2.167   1.605  0.0085  1.2805  0.9732
13393TIP3   OH240119   6.612   2.824   2.630  0.2235  0.0276 -0.1248
13393TIP3    H140120   6.522   2.820   2.661  0.1844 -1.2989 -0.3653
13393TIP3    H240121   6.666   2.807   2.707  0.4251  2.9639  0.5222
13394TIP3   OH240122   4.912   6.188   1.391 -0.3616  0.4055  0.1600
13394TIP3    H140123   4.917   6.249   1.317  1.0260  0.8207  0.5820
13394TIP3    H240124   4.932   6.241   1.468  0.5347 -0.5083  0.5738
13395TIP3   OH240125   2.294   0.186   5.733 -0.6407  0.1435  0.0417
13395TIP3    H140126   2.217   0.197   5.789  0.2155 -1.5493  1.6604
13395TIP3    H240127   2.338   0.109   5.768  2.5663  1.8143  0.0768
13396TIP3   OH240128   4.412   5.646   5.485 -0.1778 -0.0442 -0.0021
13396TIP3    H140129   4.343   5.599   5.439  0.9803 -0.3932 -1.4548
13396TIP3    H240130   4.484   5.583   5.493  0.6629  0.8523 -0.2041
13397TIP3   OH240131   5.929   1.026   2.021  0.0870 -0.0395 -0.4101
13397TIP3    H140132   6.015   1.014   1.981  0.6807 -0.9416  1.0320
13397TIP3    H240133   5.901   0.938   2.046 -1.6250  0.1485 -1.5348
13398TIP3   OH240134   5.289   0.112   0.987  0.5450  0.1632  0.0152
13398TIP3    H140135   5.224   0.118   0.917  0.4282 -0.9029  0.0225
13398TIP3    H240136   5.238   0.093   1.066  0.6155  1.9005  0.5219
13399TIP3   OH240137   7.193   3.960   3.161 -0.3828  0.3613  0.3341
13399TIP3    H140138   7.186   3.936   3.068  0.3745 -1.1557  0.6434
13399TIP3    H240139   7.244   3.890   3.200 -1.2301  0.6418  2.0358
13400TIP3   OH240140   6.503   3.351   2.708  0.5302 -0.1776  0.8060
13400TIP3    H140141   6.469   3.326   2.622  1.9937 -0.7284  0.3663
13400TIP3    H240142   6.582   3.400   2.688  0.7309 -0.0677  1.8485
13401TIP3   OH240143   6.703   6.816   3.995 -0.3533 -0.0976  0.5327
13401TIP3    H140144   6.771   6.872   4.032 -0.3031  0.2111 -0.0240
13401TIP3    H240145   6.711   6.734   4.044  0.7863 -0.2591  0.0979
13402TIP3   OH240146   3.457   4.376   1.430  0.3079 -0.3340 -0.1911
13402TIP3    H140147   3.500   4.421   1.503  0.2005 -0.5414  0.0008
13402TIP3    H240148   3.484   4.425   1.353 -0.2017  0.3549  0.0674
13403TIP3   OH240149   5.875   1.432   4.362 -0.4346  0.2601  0.6867
13403TIP3    H140150   5.789   1.396   4.383 -1.8884  3.7888  1.4583
13403TIP3    H240151   5.857   1.498   4.295  1.8432  0.4574  0.1996
13404TIP3   OH240152   4.600   4.625   4.073  0.1101  0.3269  0.4114
13404TIP3    H140153   4.521   4.668   4.105  0.1542 -0.3783  1.4974
13404TIP3    H240154   4.624   4.675   3.995 -0.1811  1.8849  1.2909
13405TIP3   OH240155   6.163   3.815   2.567 -0.5144 -0.1274  0.4465
13405TIP3    H140156   6.089   3.755   2.561  1.2592 -2.6578  1.9368
13405TIP3    H240157   6.149   3.863   2.648 -0.2485 -1.0776  1.0722
13406TIP3   OH240158   0.222   2.628   6.707  0.3309  0.0098  0.1528
13406TIP3    H140159   0.281   2.566   6.748  0.1044 -0.0375  0.4089
13406TIP3    H240160   0.134   2.600   6.734  0.2572  0.7867  0.7465
13407TIP3   OH240161   5.943   5.795   2.218  0.5333 -0.5783 -0.1829
13407TIP3    H140162   5.930   5.726   2.152 -0.8175 -0.8364  0.3162
13407TIP3    H240163   5.919   5.753   2.300  2.0668 -0.2135  0.4774
13408TIP3   OH240164   2.473   5.813   1.032 -0.1422  0.2815  0.5086
13408TIP3    H140165   2.490   5.825   0.939 -0.1915 -1.0427  0.2987
13408TIP3    H240166   2.388   5.855   1.048  0.5855  1.8821  0.3148
13409TIP3   OH240167   1.254   6.395   2.242  0.0034 -0.0148 -0.0460
13409TIP3    H140168   1.205   6.476   2.258  0.2641  0.4985 -1.7197
13409TIP3    H240169   1.190   6.325   2.255 -1.1652  0.6306 -2.0071
13410TIP3   OH240170   5.095   3.559   1.386  0.1689  0.0350  0.6091
13410TIP3    H140171   5.149   3.573   1.308 -0.2839  0.7764  0.4163
13410TIP3    H240172   5.135   3.613   1.454 -0.7864  1.2667  0.2363
13411TIP3   OH240173   8.299   2.296   4.563 -0.0651 -0.0828 -0.3133
13411TIP3    H140174   8.391   2.288   4.589 -0.1802  0.9432  0.4934
13411TIP3    H240175   8.301   2.291   4.468  0.5532 -2.3076 -0.2419
13412TIP3   OH240176   4.403   5.228   0.100 -0.3334  0.3126 -0.1693
13412TIP3    H140177   4.328   5.187   0.057 -1.2974  1.6838  0.1314
13412TIP3    H240178   4.378   5.234   0.192  0.1699  0.6983 -0.0497
13413TIP3   OH240179   0.398   2.694   2.139 -0.2852 -0.4214  0.0503
13413TIP3    H140180   0.326   2.658   2.087  0.0290  0.1888 -0.8228
13413TIP3    H240181   0.470   2.633   2.126 -0.9649 -1.7041  1.8978
13414TIP3   OH240182   2.705   0.858   0.907 -0.6442 -0.8765  0.1842
13414TIP3    H140183   2.666   0.890   0.825 -1.1200 -0.8482  0.4208
13414TIP3    H240184   2.695   0.930   0.968  1.2494 -0.2515 -0.1893
13415TIP3   OH240185   0.425   7.256   2.747  0.5173  0.7041  0.6059
13415TIP3    H140186   0.370   7.264   2.670 -0.1331  2.7893  1.2016
13415TIP3    H240187   0.512   7.283   2.717  1.0361 -1.5615 -0.0854
13416TIP3   OH240188   6.174   6.892   4.689 -0.2283 -0.1065 -0.1896
13416TIP3    H140189   6.157   6.986   4.679  0.4822 -0.1207 -1.8587
13416TIP3    H240190   6.149   6.873   4.780  1.2659  2.0678  0.7877
13417TIP3   OH240191   1.492   7.555   5.830  0.1115 -0.6838  0.0577
13417TIP3    H140192   1.584   7.530   5.845 -0.2256 -1.1572  1.5154
13417TIP3    H240193   1.496   7.645   5.798  0.9891  0.3946  2.9324
13418TIP3   OH240194   4.299   5.200   2.872  0.2810 -0.2288 -0.2945
13418TIP3    H140195   4.264   5.242   2.951 -3.3829  0.2168 -1.9308
13418TIP3    H240196   4.356   5.265   2.833 -0.6489  0.9448  0.2319
13419TIP3   OH240197   7.590   5.667   1.228 -0.3648 -0.1712 -0.2582
13419TIP3    H140198   7.610   5.683   1.136 -1.2409  0.4495 -0.3500
13419TIP3    H240199   7.634   5.738   1.275 -2.5192  1.3985 -0.4893
13420TIP3   OH240200   3.113   7.564   1.367  0.0179 -0.7962 -0.3688
13420TIP3    H140201   3.132   7.570   1.274 -2.3763  1.2863 -0.8401
13420TIP3    H240202   3.036   7.507   1.372 -0.3496 -0.2545  0.2435
13421TIP3   OH240203   3.531   0.618   1.416  0.1819  0.2942 -0.2961
13421TIP3    H140204   3.439   0.644   1.404  0.1817  0.7859  0.7140
13421TIP3    H240205   3.526   0.533   1.461  0.2199 -0.1923 -1.1877
13422TIP3   OH240206   1.089   2.349   5.028  0.3373  0.2534  0.6197
13422TIP3    H140207   1.014   2.342   5.087  1.5443 -0.4057  2.1559
13422TIP3    H240208   1.069   2.425   4.972 -2.4181 -1.1602 -0.5121
13423TIP3   OH240209   6.118   4.458   5.756  0.5129  0.0944  0.2502
13423TIP3    H140210   6.046   4.397   5.764  0.6307 -0.1048 -0.1903
13423TIP3    H240211   6.173   4.422   5.686  1.0632  0.2141  0.6092
13424TIP3   OH240212   5.526   5.136   4.235 -0.1628  0.3746 -0.5232
13424TIP3    H140213   5.438   5.103   4.251  0.0872  0.1163  0.3428
13424TIP3    H240214   5.535   5.212   4.292  1.2051 -1.3438  1.7713
13425TIP3   OH240215   1.830   4.351   6.655 -0.0182 -0.6534 -0.2431
13425TIP3    H140216   1.849   4.351   6.749  1.1423  0.3222 -0.4484
13425TIP3    H240217   1.889   4.286   6.618 -0.1178 -0.6747 -0.3677
13426TIP3   OH240218   0.939   3.169   3.844 -0.4987  0.3937  0.0929
13426TIP3    H140219   0.923   3.113   3.768  0.4473 -0.3351  0.4192
13426TIP3    H240220   0.867   3.232   3.843 -0.8275  0.0166 -1.0597
13427TIP3   OH240221   2.193   4.910   1.359 -0.0093  0.4056  0.8692
13427TIP3    H140222   2.141   4.910   1.278 -0.0346 -0.7588  0.8739
13427TIP3    H240223   2.281   4.885   1.331  0.3977  1.6313  0.9750
13428TIP3   OH240224   5.522   2.207   1.450  0.0015  0.0454  0.0268
13428TIP3    H140225   5.567   2.286   1.419  0.3490  0.3868  1.3133
13428TIP3    H240226   5.499   2.227   1.541 -2.0303 -0.4532 -0.3338
13429TIP3   OH240227   2.209   2.317   0.670 -0.2640  0.5333  0.4842
13429TIP3    H140228   2.272   2.357   0.730 -0.6474 -0.1116  1.3414
13429TIP3    H240229   2.185   2.234   0.712 -2.6027  1.3028  0.8241
13430TIP3   OH240230   5.294   5.690   4.020 -0.4561 -0.0749  0.0302
13430TIP3    H140231   5.335   5.623   4.076  1.6753  0.6895 -0.5130
13430TIP3    H240232   5.321   5.666   3.932 -3.5159 -1.0767 -0.7584
13431TIP3   OH240233   5.121   2.244   6.131  0.2838  0.6964  0.1925
13431TIP3    H140234   5.072   2.315   6.172  0.1208  0.7077 -0.0196
13431TIP3    H240235   5.155   2.282   6.050 -1.7616 -0.1172 -1.1218
13432TIP3   OH240236   1.116   7.183   3.762 -0.1182 -0.0709 -0.5515
13432TIP3    H140237   1.076   7.252   3.815 -1.4713  0.0224 -1.6235
13432TIP3    H240238   1.078   7.102   3.796  1.4680 -0.3316  0.7043
13433TIP3   OH240239   5.721   2.490   4.389  0.3818 -0.8736  0.5510
13433TIP3    H140240   5.629   2.514   4.379 -0.1754 -2.4709  1.4572
13433TIP3    H240241   5.768   2.573   4.385 -1.0418 -0.0689 -0.4018
13434TIP3   OH240242   1.531   4.075   3.157  0.5634  0.0339 -0.6954
13434TIP3    H140243   1.512   3.985   3.129  0.1437  0.3352 -1.3899
13434TIP3    H240244   1.447   4.111   3.183  0.5238  0.6357 -1.6197
13435TIP3   OH240245   1.041   7.005   5.814 -0.2931 -0.1375 -0.1270
13435TIP3    H140246   0.997   7.039   5.737  2.3001  0.8230 -1.2877
13435TIP3    H240247   1.065   6.916   5.790 -0.9176 -0.4114  0.2339
13436TIP3   OH240248   7.446   0.377   5.143 -0.2449 -0.3086 -0.1165
13436TIP3    H140249   7.420   0.318   5.072  0.1796 -1.8943  1.0014
13436TIP3    H240250   7.539   0.393   5.128 -0.1664 -0.6038  0.0536
13437TIP3   OH240251   7.916   1.601   4.558  0.3049  0.9335  0.2771
13437TIP3    H140252   7.875   1.685   4.535  0.8429  0.7588 -1.5023
13437TIP3    H240253   7.909   1.549   4.478 -0.1973 -0.8224  1.4028
13438TIP3   OH240254   4.614   1.024   3.808 -0.2488 -0.4632  0.2292
13438TIP3    H140255   4.560   0.945   3.799 -0.4513 -0.5391  1.7466
13438TIP3    H240256   4.661   1.011   3.890  0.4320  0.5818  0.0184
13439TIP3   OH240257   5.825   0.062   6.123 -0.7219 -0.2464  0.0856
13439TIP3    H140258   5.762   0.134   6.121  0.1257  0.5146 -1.6171
13439TIP3    H240259   5.802   0.008   6.047 -0.1865 -0.7302  0.2625
13440TIP3   OH240260   5.801   5.733   6.503  0.3539  0.1149  0.6858
13440TIP3    H140261   5.895   5.716   6.498  0.5076  0.8693  0.8814
13440TIP3    H240262   5.776   5.706   6.591  0.2151 -0.8469  0.3710
13441TIP3   OH240263   2.147   1.616   5.171 -0.5711  0.0731 -0.1972
13441TIP3    H140264   2.090   1.601   5.246 -1.7108 -0.0985 -1.0795
13441TIP3    H240265   2.171   1.528   5.140 -0.7674  0.1303 -0.5200
13442TIP3   OH240266   0.659   7.466   2.925 -0.7683 -0.5996  0.0451
13442TIP3    H140267   0.672   7.548   2.878 -0.3419 -1.3061 -1.1143
13442TIP3    H240268   0.741   7.452   2.972 -1.9952  1.2850  3.0036
13443TIP3   OH240269   4.751   2.664   4.189 -0.6784  0.4373  0.0610
13443TIP3    H140270   4.659   2.643   4.201 -0.3206  0.0642  3.0337
13443TIP3    H240271   4.794   2.632   4.269  1.5571  3.1277  0.1416
13444TIP3   OH240272   6.742   4.485   0.479 -0.2022 -0.4912 -0.6854
13444TIP3    H140273   6.761   4.567   0.433 -1.9119  0.0772 -0.4522
13444TIP3    H240274   6.729   4.511   0.570  0.6272 -1.2504 -0.3326
13445TIP3   OH240275   7.007   6.414   4.554 -0.0913  0.0260 -0.3116
13445TIP3    H140276   6.953   6.426   4.632  0.2207  1.2633 -0.2530
13445TIP3    H240277   6.944   6.412   4.482 -0.3888 -1.2392 -0.0316
13446TIP3   OH240278   2.405   1.599   6.290  0.1925  0.5905 -0.1015
13446TIP3    H140279   2.494   1.592   6.326  0.3745  0.2268 -0.6058
13446TIP3    H240280   2.391   1.693   6.279 -0.0263  0.7495  1.2745
13447TIP3   OH240281   1.562   5.639   0.764 -0.0448 -0.2835 -0.8323
13447TIP3    H140282   1.639   5.682   0.725  0.1651 -1.2079 -1.4588
13447TIP3    H240283   1.489   5.697   0.742 -0.0284 -1.0724 -3.1715
13448TIP3   OH240284   3.130   5.503   4.502 -0.1847 -0.3631 -0.0960
13448TIP3    H140285   3.189   5.489   4.577  2.4719 -0.2442 -2.0035
13448TIP3    H240286   3.107   5.415   4.473 -0.2568 -0.4311  0.1698
13449TIP3   OH240287   0.344   1.280   0.277  0.0295 -0.3923 -0.0056
13449TIP3    H140288   0.424   1.234   0.304  1.2004  1.8172  0.5173
13449TIP3    H240289   0.375   1.352   0.223 -1.1195  3.0622  3.5062
13450TIP3   OH240290   5.374   5.406   0.113  0.1931 -0.3522  0.0595
13450TIP3    H140291   5.394   5.494   0.144  0.8098 -1.1181  2.0079
13450TIP3    H240292   5.317   5.369   0.181  0.0473 -1.5010 -0.6498
13451TIP3   OH240293   4.145   3.535   3.210  0.3172  0.0157 -0.0003
13451TIP3    H140294   4.234   3.571   3.203  0.0876  0.4060 -1.1860
13451TIP3    H240295   4.158   3.448   3.249  1.2376  0.0099 -0.2828
13452TIP3   OH240296   2.488   1.977   3.318  0.0231 -0.4251 -0.4383
13452TIP3    H140297   2.422   1.962   3.385  0.2078 -0.4991 -0.2717
13452TIP3    H240298   2.542   1.898   3.318  0.6018 -0.0439 -0.0083
13453TIP3   OH240299   7.837   7.670   2.518  0.1974  0.6401  0.6279
13453TIP3    H140300   7.895   7.673   2.594 -0.5762 -0.3454  1.2886
13453TIP3    H240301   7.844   7.580   2.486  1.0189  1.2076 -0.9045
13454TIP3   OH240302   4.054   3.557   4.864  0.2372 -0.0851 -0.2478
13454TIP3    H140303   3.990   3.602   4.809  1.1365  0.6908 -0.6983
13454TIP3    H240304   4.063   3.471   4.824 -0.5437 -0.2142 -0.1594
13455TIP3   OH240305   3.282   6.043   1.923  0.4817 -0.1341  0.3024
13455TIP3    H140306   3.372   6.066   1.900  0.6568 -2.5252 -1.8252
13455TIP3    H240307   3.290   5.995   2.006  1.2870 -1.0021 -0.2644
13456TIP3   OH240308   6.149   1.229   1.097 -0.1761  0.3218 -0.1419
13456TIP3    H140309   6.200   1.189   1.167  0.3467 -1.0197 -1.2280
13456TIP3    H240310   6.093   1.158   1.065 -0.2793  0.8542 -1.1930
13457TIP3   OH240311   3.098   5.495   3.888 -0.1557 -0.2445 -0.0528
13457TIP3    H140312   3.046   5.575   3.887 -2.8424 -1.8816 -1.2134
13457TIP3    H240313   3.129   5.487   3.978 -1.3262  1.1865  0.5138
13458TIP3   OH240314   7.167   5.685   3.251 -0.1798 -0.1862 -0.1003
13458TIP3    H140315   7.173   5.605   3.199 -1.8083 -1.7182  1.8727
13458TIP3    H240316   7.074   5.708   3.249 -0.2378 -0.1084  1.7826
13459TIP3   OH240317   0.022   3.078   2.657  0.0165 -0.1079 -0.0687
13459TIP3    H140318   0.097   3.043   2.704  0.8783  1.5460 -0.1307
13459TIP3    H240319  -0.042   3.098   2.725  0.3097  0.0275  0.1729
13460TIP3   OH240320   5.925   3.204   5.383 -0.0377 -0.3602 -0.4663
13460TIP3    H140321   5.881   3.218   5.467  2.3572  1.5065  0.5855
13460TIP3    H240322   5.887   3.269   5.324  0.1044  0.1052 -0.0483
13461TIP3   OH240323   6.434   2.032   2.443 -0.5710  0.0345 -0.5281
13461TIP3    H140324   6.361   1.988   2.487 -1.9611  1.0149 -1.7136
13461TIP3    H240325   6.486   1.962   2.405 -1.2691 -0.6782 -0.1937
13462TIP3   OH240326   1.247   2.906   6.767  0.4354 -0.6183 -0.3047
13462TIP3    H140327   1.211   2.980   6.816 -1.4650 -1.4540 -0.3979
13462TIP3    H240328   1.189   2.896   6.692  1.6248 -1.2141 -1.1857
13463TIP3   OH240329   2.785   1.744   4.076 -0.0334 -0.2145 -0.1314
13463TIP3    H140330   2.823   1.657   4.062 -0.0788 -0.3899  0.7975
13463TIP3    H240331   2.777   1.781   3.988 -1.6463 -1.8209 -0.7257
13464TIP3   OH240332   0.163   7.445   4.857 -0.0134  0.6024  0.0666
13464TIP3    H140333   0.233   7.438   4.792  0.4558  0.8096  0.5347
13464TIP3    H240334   0.086   7.410   4.813 -0.0162  1.9322 -1.0390
13465TIP3   OH240335   5.023   6.443   6.112 -0.5106 -0.1470 -0.3457
13465TIP3    H140336   4.965   6.481   6.179  0.2998  0.2948  0.1114
13465TIP3    H240337   4.963   6.400   6.051 -1.4145  1.2737 -0.5102
13466TIP3   OH240338   1.206   1.239   5.657 -0.4183  0.4621 -0.4302
13466TIP3    H140339   1.180   1.150   5.635 -0.8300  0.7005 -0.9268
13466TIP3    H240340   1.136   1.294   5.622 -0.6229  0.9238  0.6654
13467TIP3   OH240341   0.155   5.611   4.208 -1.4596 -0.3861 -0.0466
13467TIP3    H140342   0.140   5.517   4.204  2.4535 -1.1828  0.7566
13467TIP3    H240343   0.194   5.634   4.124 -1.7914  0.4268  0.0050
13468TIP3   OH240344   4.447   4.104   3.354  0.2911  0.0576  0.2139
13468TIP3    H140345   4.493   4.169   3.301  0.2786  1.0921  1.4254
13468TIP3    H240346   4.355   4.131   3.350 -0.4197 -2.2872 -2.6176
13469TIP3   OH240347   7.223   2.217   0.511  0.1435 -0.1995  0.1723
13469TIP3    H140348   7.304   2.217   0.562 -0.8123 -2.4352  1.8611
13469TIP3    H240349   7.226   2.299   0.462  3.8981 -0.6954 -0.7246
13470TIP3   OH240350   5.997   0.974   6.051 -0.2424 -0.0023 -0.0239
13470TIP3    H140351   5.995   0.896   5.994  0.7342  0.9629 -1.4371
13470TIP3    H240352   6.086   0.975   6.086 -0.2575  0.4693 -0.0028
13471TIP3   OH240353   2.538   6.116   0.506  0.0901  0.3077 -0.6121
13471TIP3    H140354   2.509   6.106   0.415 -0.0298  0.1833 -0.5606
13471TIP3    H240355   2.604   6.049   0.518 -0.0942  0.1413 -0.5243
13472TIP3   OH240356   5.056   0.551   6.387 -0.0602  0.1161 -0.3279
13472TIP3    H140357   5.110   0.538   6.309  0.6170 -0.0627  0.1547
13472TIP3    H240358   5.036   0.462   6.417  1.5465  0.1300  0.9361
13473TIP3   OH240359   2.118   7.055   0.885  0.1562  0.0257  0.8536
13473TIP3    H140360   2.036   7.072   0.931  0.1006  1.5219  0.2475
13473TIP3    H240361   2.097   6.983   0.825 -0.6987  0.3375  0.7685
13474TIP3   OH240362   0.225   7.742   4.781  0.6070 -0.7461 -0.2292
13474TIP3    H140363   0.281   7.756   4.858 -0.7660  0.1478  0.6550
13474TIP3    H240364   0.154   7.686   4.813 -1.7094  2.1135  0.1133
13475TIP3   OH240365   7.836   3.753   2.603 -0.0528 -0.3517  0.0135
13475TIP3    H140366   7.885   3.770   2.684  0.7613 -0.0665 -0.5248
13475TIP3    H240367   7.857   3.663   2.580  0.1726 -0.2540 -0.1751
13476TIP3   OH240368   5.207   0.964   1.982 -0.3793 -0.0453 -0.3477
13476TIP3    H140369   5.297   0.956   1.952 -0.2325 -1.7852  0.4368
13476TIP3    H240370   5.160   0.895   1.935 -0.8007 -0.6886  0.9838
13477TIP3   OH240371   6.092   5.272   5.453  0.1629 -0.3092  0.3542
13477TIP3    H140372   6.086   5.358   5.411 -0.7914 -0.3703  0.3394
13477TIP3    H240373   6.059   5.211   5.386  0.0158 -0.5774  0.6716
13478TIP3   OH240374   1.123   5.271   1.031 -0.1416 -0.0105 -0.4651
13478TIP3    H140375   1.084   5.257   0.945 -1.4109  1.6360 -0.2235
13478TIP3    H240376   1.089   5.200   1.085 -1.3260  0.3080 -0.7529
13479TIP3   OH240377   1.531   7.550   1.144 -0.0877 -0.0216 -0.0152
13479TIP3    H140378   1.508   7.565   1.236 -1.9183  0.9143 -0.5829
13479TIP3    H240379   1.564   7.635   1.114 -2.4966  0.6250 -1.0217
13480TIP3   OH240380   2.489   1.540   5.270 -0.5250 -0.0168  0.1004
13480TIP3    H140381   2.435   1.616   5.247  0.0439  0.4065  0.1522
13480TIP3    H240382   2.470   1.526   5.363 -1.1366 -0.3586 -0.0673
13481TIP3   OH240383   6.079   1.882   2.384 -0.3049 -0.0090  0.2110
13481TIP3    H140384   6.123   1.927   2.455 -0.5108 -0.7595  0.8192
13481TIP3    H240385   6.051   1.799   2.421 -2.3853  0.4955 -0.0784
13482TIP3   OH240386   2.914   0.218   4.164  0.4451 -0.0818  0.3057
13482TIP3    H140387   2.908   0.143   4.104  1.5498  0.4101 -0.4378
13482TIP3    H240388   2.972   0.280   4.120  0.5890  0.6638  1.5052
13483TIP3   OH240389   5.749   0.321   5.396 -0.2983  0.5971  0.4696
13483TIP3    H140390   5.723   0.412   5.402 -0.7019  0.4292  1.3401
13483TIP3    H240391   5.788   0.301   5.481 -1.4556 -0.4142  0.7844
13484TIP3   OH240392   6.263   5.130   3.311  1.3152 -0.4066  0.2037
13484TIP3    H140393   6.172   5.125   3.283  1.6932  0.1970 -1.2312
13484TIP3    H240394   6.265   5.082   3.394 -0.1881 -0.8850  0.0023
13485TIP3   OH240395   2.707   5.615   4.435  0.0276 -0.0173 -0.3253
13485TIP3    H140396   2.740   5.627   4.346  1.4396 -0.5213  0.1095
13485TIP3    H240397   2.772   5.658   4.491 -0.6861  0.0366  0.4965
13486TIP3   OH240398   0.851   5.204   6.271  0.6545 -0.0684  0.1174
13486TIP3    H140399   0.756   5.203   6.260  0.6508  2.8943 -0.9706
13486TIP3    H240400   0.880   5.119   6.237 -1.5490 -0.7724 -0.1222
13487TIP3   OH240401   2.640   3.845   1.784  0.1477  0.3015 -0.0943
13487TIP3    H140402   2.588   3.919   1.813 -0.6542 -0.7420  1.2930
13487TIP3    H240403   2.625   3.840   1.690  0.1174  1.7983 -0.1894
13488TIP3   OH240404   6.983   0.701   6.653 -0.6349 -0.0786  0.1409
13488TIP3    H140405   6.900   0.672   6.614  0.5375 -0.8654 -1.9620
13488TIP3    H240406   6.985   0.657   6.738 -1.4414 -1.7836 -0.6531
13489TIP3   OH240407   3.686   6.884   2.726 -0.0286 -0.2927  0.4081
13489TIP3    H140408   3.671   6.964   2.776 -0.1585 -0.6573  0.9618
13489TIP3    H240409   3.678   6.813   2.791  1.0252 -0.6943  0.1265
13490TIP3   OH240410   7.815   2.898   0.951 -0.2118 -0.3490 -0.4615
13490TIP3    H140411   7.745   2.939   0.900  0.6897 -1.7983 -3.0662
13490TIP3    H240412   7.811   2.805   0.929  1.9661 -0.6080 -0.0522
13491TIP3   OH240413   5.413   0.470   5.800  0.0583  0.5262  0.2646
13491TIP3    H140414   5.376   0.385   5.775  0.9144  0.1717  0.1453
13491TIP3    H240415   5.375   0.532   5.739  3.2927 -0.5309 -3.2243
13492TIP3   OH240416   6.537   0.790   4.988  0.4910 -0.0046  0.6178
13492TIP3    H140417   6.446   0.784   5.016  1.4685 -2.7467  3.8572
13492TIP3    H240418   6.577   0.707   5.016  4.3822  1.6926  0.8240
13493TIP3   OH240419   8.004   2.423   5.174  0.2742 -0.5497  0.3301
13493TIP3    H140420   8.061   2.372   5.232 -0.9280  0.4165  2.4872
13493TIP3    H240421   7.931   2.364   5.155  0.5601 -0.7896 -0.0434
13494TIP3   OH240422   0.287   5.618   5.926 -0.2870 -0.1285  0.4970
13494TIP3    H140423   0.316   5.707   5.945 -1.5337 -0.1526  2.8258
13494TIP3    H240424   0.359   5.563   5.955 -0.4602  0.0394  1.2709
13495TIP3   OH240425   6.313   4.760   1.059  0.3138  0.3572 -0.1572
13495TIP3    H140426   6.237   4.807   1.024  1.6029  2.3446 -0.4426
13495TIP3    H240427   6.326   4.797   1.147  1.5380  0.8250 -0.5095
13496TIP3   OH240428   7.642   6.691   5.985 -0.1253  0.0619  0.1366
13496TIP3    H140429   7.720   6.674   6.037 -0.0036  0.3521  0.0469
13496TIP3    H240430   7.635   6.615   5.927  1.0605  0.8298 -1.0633
13497TIP3   OH240431   4.492   0.044   2.885  0.1249 -0.0623 -0.0172
13497TIP3    H140432   4.400   0.030   2.862  0.4347 -0.9660 -0.7365
13497TIP3    H240433   4.540  -0.023   2.836  0.9749 -0.9650  1.9407
13498TIP3   OH240434   5.058   3.288   3.327  0.7868 -0.1949 -0.1993
13498TIP3    H140435   5.067   3.241   3.410 -1.7088  0.9329  0.7935
13498TIP3    H240436   5.148   3.293   3.293  1.7682 -1.4250  1.9846
13499TIP3   OH240437   5.975   5.999   2.900 -0.2665 -0.0052 -0.0315
13499TIP3    H140438   5.968   6.026   2.808  0.8207  1.1376  0.1790
13499TIP3    H240439   5.921   6.062   2.947  1.1357  0.9998  0.3235
13500TIP3   OH240440   6.559   7.260   5.344 -0.4117  0.2386  0.1742
13500TIP3    H140441   6.648   7.280   5.373  0.1020  1.4364 -2.0069
13500TIP3    H240442   6.503   7.299   5.411  0.6837 -0.0167  1.2803
13501TIP3   OH240443   2.566   1.284   6.589 -0.2917  0.4562  0.1822
13501TIP3    H140444   2.521   1.202   6.571 -1.4213  0.5888  2.0727
13501TIP3    H240445   2.658   1.260   6.597 -0.0224  0.0481 -2.9976
13502TIP3   OH240446   3.464   2.466   1.105 -0.5382 -0.1900 -0.2987
13502TIP3    H140447   3.533   2.521   1.067  0.2053 -0.2060  0.9572
13502TIP3    H240448   3.442   2.404   1.035  1.9091 -1.2458 -0.2735
13503TIP3   OH240449   3.123   4.380   4.143  0.0828  0.2497  0.8078
13503TIP3    H140450   3.199   4.428   4.111  0.9198 -0.4267  1.6907
13503TIP3    H240451   3.071   4.444   4.192 -0.6925  1.0510 -1.0012
13504TIP3   OH240452   7.074   6.136   6.602 -0.0771  0.3448 -0.2348
13504TIP3    H140453   7.139   6.201   6.630 -0.3068  0.7837 -0.7085
13504TIP3    H240454   7.010   6.135   6.673  1.3976 -1.4937  1.1775
13505TIP3   OH240455   1.936   6.464   2.658 -0.1996 -0.4115  0.0397
13505TIP3    H140456   1.888   6.382   2.669 -0.6212 -0.0216  1.3474
13505TIP3    H240457   1.871   6.532   2.673  0.2478  0.1621 -0.5743
13506TIP3   OH240458   3.984   1.827   5.547 -0.6039 -0.1222  0.3212
13506TIP3    H140459   3.923   1.810   5.618 -0.4531 -1.5146  0.1610
13506TIP3    H240460   4.069   1.803   5.583 -0.5846 -1.2735 -0.4431
13507TIP3   OH240461   4.137   0.721   4.706 -0.2561 -0.4048  0.7213
13507TIP3    H140462   4.049   0.684   4.697 -0.3249 -0.2623  0.8134
13507TIP3    H240463   4.192   0.646   4.729 -0.4109 -0.4340  0.9904
13508TIP3   OH240464   2.487   3.088   0.434  0.4578 -0.0522 -0.2855
13508TIP3    H140465   2.490   3.068   0.340  1.4209 -1.7411  0.0571
13508TIP3    H240466   2.426   3.024   0.470 -0.5172  1.0978  0.1545
13509TIP3   OH240467   5.715   2.280   6.244  0.0876 -0.0716  0.3824
13509TIP3    H140468   5.809   2.282   6.260  0.1908  1.8178 -0.1878
13509TIP3    H240469   5.678   2.244   6.325  1.1828  0.9493  1.3822
13510TIP3   OH240470   7.979   4.793   5.343  0.3567  0.4429 -0.3365
13510TIP3    H140471   8.039   4.848   5.294 -0.6463  3.1602  1.2765
13510TIP3    H240472   7.913   4.853   5.377 -1.1870 -1.8641  1.0575
13511TIP3   OH240473   2.613   6.167   0.954  0.1297 -0.2633  0.1672
13511TIP3    H140474   2.627   6.177   1.048 -0.1612 -1.5102  0.3556
13511TIP3    H240475   2.524   6.135   0.946  0.2130 -0.3405 -0.5272
13512TIP3   OH240476   4.767   6.095   5.038 -0.5982 -0.0426  0.3780
13512TIP3    H140477   4.794   6.063   5.125  0.4428 -0.2727 -0.0082
13512TIP3    H240478   4.689   6.146   5.054 -0.4804 -0.1759  1.4471
13513TIP3   OH240479   0.573   0.694   5.492 -0.3149  0.8006  0.2088
13513TIP3    H140480   0.587   0.605   5.524 -0.4167 -0.5346 -3.0504
13513TIP3    H240481   0.482   0.693   5.460 -0.1332  1.8619 -0.3878
13514TIP3   OH240482   0.805   0.189   2.184 -0.0777  0.8838 -0.1564
13514TIP3    H140483   0.810   0.219   2.093  1.0604  0.7309 -0.1535
13514TIP3    H240484   0.771   0.100   2.178  0.1719  0.8063 -0.4516
13515TIP3   OH240485   8.098   3.892   0.083 -0.0311 -0.3346  0.0636
13515TIP3    H140486   8.122   3.843   0.004  1.7396  0.1102  0.2697
13515TIP3    H240487   8.062   3.825   0.142  1.0625 -1.1685 -0.1729
13516TIP3   OH240488   7.827   0.171   0.346  0.0894 -0.0518 -0.5761
13516TIP3    H140489   7.841   0.126   0.262  0.8576 -0.4950 -0.2202
13516TIP3    H240490   7.799   0.259   0.321  3.1410  0.8180 -1.4111
13517TIP3   OH240491   3.503   1.767   6.319  0.1847  0.1600  0.2424
13517TIP3    H140492   3.535   1.853   6.346 -0.8731  0.8376 -0.6503
13517TIP3    H240493   3.546   1.706   6.381  1.4700  1.2335  0.4561
13518TIP3   OH240494   0.558   4.473   1.572 -0.5178 -0.1494 -0.5920
13518TIP3    H140495   0.484   4.422   1.605 -0.1203 -1.0404 -1.0313
13518TIP3    H240496   0.523   4.562   1.561 -1.6560 -0.6551 -1.2315
13519TIP3   OH240497   7.263   6.069   4.042  0.0407  0.4418 -0.0708
13519TIP3    H140498   7.203   6.044   4.112 -0.5663  1.7321 -0.1111
13519TIP3    H240499   7.213   6.055   3.962  0.5389 -0.4836 -0.2365
13520TIP3   OH240500   4.414   7.181   5.607 -0.0156  0.0683 -0.4429
13520TIP3    H140501   4.345   7.177   5.673  0.1354 -0.4614 -0.3164
13520TIP3    H240502   4.480   7.239   5.645  0.4792 -0.9251  0.2718
13521TIP3   OH240503   3.890   4.701   2.894  0.3283  0.0887 -0.3900
13521TIP3    H140504   3.969   4.707   2.840  1.1524 -0.4876  0.7160
13521TIP3    H240505   3.916   4.648   2.969 -0.1078  2.5657  1.6840
13522TIP3   OH240506   3.671   2.341   6.005  0.3909  0.5645 -0.3973
13522TIP3    H140507   3.700   2.398   6.077 -2.9425  1.0249  0.7622
13522TIP3    H240508   3.714   2.258   6.021 -0.7179  0.4585  2.6018
13523TIP3   OH240509   1.892   5.593   1.012  0.0911 -0.1188 -0.1794
13523TIP3    H140510   1.864   5.593   0.921 -0.3733 -0.4774 -0.0385
13523TIP3    H240511   1.876   5.503   1.042  2.5260 -0.7278 -0.4417
13524TIP3   OH240512   5.249   1.135   5.219 -0.4712  0.3063 -0.0402
13524TIP3    H140513   5.203   1.157   5.300 -2.0916  0.0531 -0.8364
13524TIP3    H240514   5.220   1.046   5.198 -0.0660  0.3582 -0.8718
13525TIP3   OH240515   1.722   0.729   6.875 -0.0207  0.2984 -0.3101
13525TIP3    H140516   1.781   0.803   6.861  0.0470 -0.1402 -2.7838
13525TIP3    H240517   1.656   0.737   6.805 -0.8459 -1.1791  0.2460
13526TIP3   OH240518   4.130   2.172   5.372  0.0695  0.0994  0.4311
13526TIP3    H140519   4.074   2.147   5.446 -1.2148  0.0299 -0.5230
13526TIP3    H240520   4.124   2.098   5.312  2.6109 -0.6796  1.0329
13527TIP3   OH240521   0.255   4.680   1.107 -0.2408 -0.1610 -0.0994
13527TIP3    H140522   0.280   4.590   1.085  0.9239  0.1629 -0.1649
13527TIP3    H240523   0.276   4.688   1.201 -0.6534 -0.0565 -0.0154
13528TIP3   OH240524   2.658   1.092   3.835 -0.3639 -0.1014  0.1673
13528TIP3    H140525   2.631   1.018   3.781  1.1684 -0.3811 -0.2639
13528TIP3    H240526   2.709   1.054   3.906 -2.4635  0.2553  1.9662
13529TIP3   OH240527   0.768   4.288   2.457  0.3799 -0.3259  0.4905
13529TIP3    H140528   0.711   4.265   2.530 -0.4625  1.7485  0.5330
13529TIP3    H240529   0.840   4.336   2.497  1.1579 -1.1936  0.1882
13530TIP3   OH240530   7.718   0.658   3.934  0.2078  0.2689 -0.2333
13530TIP3    H140531   7.624   0.651   3.951  0.1786  0.4359 -0.3320
13530TIP3    H240532   7.750   0.717   4.002 -0.2670  2.7612 -2.0318
13531TIP3   OH240533   5.238   2.938   3.611  0.0197 -0.1349  0.1643
13531TIP3    H140534   5.168   2.929   3.547 -1.4059 -1.9980  1.8651
13531TIP3    H240535   5.207   2.891   3.688  3.5801 -1.9970  0.6767
13532TIP3   OH240536   5.639   0.125   3.642 -0.0571  0.1077 -0.4409
13532TIP3    H140537   5.568   0.090   3.696  0.7178 -0.4774  0.2205
13532TIP3    H240538   5.710   0.141   3.704 -0.4576  3.2259 -0.6173
13533TIP3   OH240539   6.492   1.694   1.433  0.0156 -0.1208  0.0578
13533TIP3    H140540   6.507   1.603   1.409 -1.4515 -0.5499  0.6723
13533TIP3    H240541   6.451   1.733   1.356 -2.8163 -0.9802  1.0220
13534TIP3   OH240542   4.999   3.588   0.106 -0.1338 -0.6723  0.4821
13534TIP3    H140543   4.988   3.604   0.200 -0.4761 -0.3188  0.3818
13534TIP3    H240544   4.914   3.610   0.068 -0.3313 -1.8272  0.2204
13535TIP3   OH240545   4.581   6.787   5.725 -0.2197 -0.0206  0.1967
13535TIP3    H140546   4.490   6.764   5.707 -0.8596  0.9053  2.0155
13535TIP3    H240547   4.616   6.713   5.775  0.2885 -0.6898 -1.0798
13536TIP3   OH240548   1.931   4.586   6.092  0.0683 -0.1164 -0.2675
13536TIP3    H140549   1.921   4.567   6.185  1.7072  0.0915 -0.0223
13536TIP3    H240550   2.016   4.549   6.069 -0.2103  0.0434 -1.6360
13537TIP3   OH240551   5.413   6.500   4.440  0.1180  0.0677 -0.0325
13537TIP3    H140552   5.437   6.491   4.532 -3.0556 -0.1532  0.8753
13537TIP3    H240553   5.402   6.594   4.427 -0.8140  0.0093  0.2503
13538TIP3   OH240554   1.983   5.759   5.025 -0.1384  0.1622  0.2617
13538TIP3    H140555   2.062   5.707   5.033  0.6400  1.1896 -0.4153
13538TIP3    H240556   1.935   5.744   5.107  1.3564  0.4724  1.2256
13539TIP3   OH240557   1.842   5.853   3.778 -0.2461 -0.3314 -0.3153
13539TIP3    H140558   1.891   5.853   3.696 -1.4129 -1.5378 -1.0414
13539TIP3    H240559   1.822   5.761   3.795 -0.9217 -0.0062  0.7836
13540TIP3   OH240560   4.656   7.616   0.736  0.3625 -0.3587 -0.2575
13540TIP3    H140561   4.588   7.589   0.797 -0.8054 -1.0780 -1.8106
13540TIP3    H240562   4.727   7.552   0.750  1.1863  0.9451  2.0138
13541TIP3   OH240563   0.360   5.567   2.536 -0.2052 -0.0442 -0.6089
13541TIP3    H140564   0.367   5.654   2.574 -0.2938 -0.3374  0.0866
13541TIP3    H240565   0.451   5.536   2.528 -0.1652  0.1601 -0.9856
13542TIP3   OH240566   1.214   7.581   1.031 -0.1493  0.1277 -0.1433
13542TIP3    H140567   1.274   7.531   0.976 -0.4599 -0.3887 -0.0161
13542TIP3    H240568   1.130   7.536   1.024 -0.1042 -0.1869  1.0606
13543TIP3   OH240569   2.806   5.706   2.117 -0.3268  0.0316  0.5794
13543TIP3    H140570   2.825   5.649   2.191 -3.4385  0.5298  1.9017
13543TIP3    H240571   2.844   5.790   2.140  2.0183 -0.7325 -0.2109
13544TIP3   OH240572   1.789   2.085   0.301  0.8144 -0.2121  0.0955
13544TIP3    H140573   1.730   2.080   0.376  0.3360 -2.2011 -0.3592
13544TIP3    H240574   1.861   2.025   0.323  0.8440 -0.5479 -0.8523
13545TIP3   OH240575   2.857   4.752   1.121 -0.1910  0.3422 -0.1179
13545TIP3    H140576   2.878   4.839   1.087  0.5919  0.4400  0.5747
13545TIP3    H240577   2.918   4.693   1.076  0.4268  0.3913  0.6272
13546TIP3   OH240578   7.674   7.860   1.182  0.3156  0.4817  0.2511
13546TIP3    H140579   7.753   7.864   1.236  0.4394  3.1991  0.0164
13546TIP3    H240580   7.684   7.932   1.120 -0.9415 -1.0577 -1.8795
13547TIP3   OH240581   0.687   0.084   0.072  0.3430  0.1732  0.8983
13547TIP3    H140582   0.775   0.070   0.036 -0.0559  3.4054 -1.7994
13547TIP3    H240583   0.637   0.007   0.043  1.5997 -0.3638  0.0446
13548TIP3   OH240584   7.770   3.680   6.354  0.2397 -0.0338 -0.6685
13548TIP3    H140585   7.783   3.612   6.287  0.6423 -2.2487  1.5218
13548TIP3    H240586   7.855   3.722   6.362  1.2355 -2.1812  0.8625
13549TIP3   OH240587   6.419   0.588   4.724 -0.3289 -0.1185 -0.6069
13549TIP3    H140588   6.495   0.580   4.782 -1.8218 -0.8895  1.3625
13549TIP3    H240589   6.426   0.514   4.664  1.3827  0.8322 -1.6393
13550TIP3   OH240590   0.606   0.044   6.209  0.0489  0.1465  0.4729
13550TIP3    H140591   0.511   0.052   6.208 -0.0807 -1.2651 -0.7142
13550TIP3    H240592   0.622  -0.038   6.256  0.6685  0.2251  0.4022
13551TIP3   OH240593   7.967   2.522   1.848  0.2106  0.3187 -0.0810
13551TIP3    H140594   7.927   2.527   1.762 -0.7175  1.5060  0.3945
13551TIP3    H240595   7.964   2.612   1.882  1.0549 -0.0243  0.9625
13552TIP3   OH240596   0.310   6.119   1.595  0.0882  0.5361 -0.2603
13552TIP3    H140597   0.308   6.061   1.519 -2.4080  0.2394 -0.0794
13552TIP3    H240598   0.339   6.063   1.667 -1.0159 -0.1964 -0.3493
13553TIP3   OH240599   6.643   4.324   5.796 -0.4977 -0.0344  0.1007
13553TIP3    H140600   6.588   4.371   5.734  0.3372  0.8234 -0.0119
13553TIP3    H240601   6.601   4.338   5.881  0.7443  2.6425  0.3926
13554TIP3   OH240602   4.478   4.435   4.666 -0.3709 -0.1383 -0.1025
13554TIP3    H140603   4.562   4.395   4.644  0.0622  0.7849 -0.1742
13554TIP3    H240604   4.413   4.371   4.637  0.2668 -0.2242 -1.4450
13555TIP3   OH240605   6.587   3.846   3.615 -0.8336 -0.1626  0.1341
13555TIP3    H140606   6.503   3.882   3.643 -1.9117 -2.5228  0.1846
13555TIP3    H240607   6.640   3.843   3.695  0.3322  3.5965 -0.3052
13556TIP3   OH240608   0.065   6.786   2.776 -0.0910 -0.0981  0.1326
13556TIP3    H140609   0.016   6.784   2.694  1.5903  1.1517 -0.9563
13556TIP3    H240610   0.149   6.747   2.756 -0.0011 -0.7008  1.5400
13557TIP3   OH240611   3.699   1.581   5.002  0.0226  0.1498  0.7546
13557TIP3    H140612   3.774   1.633   5.030 -1.0103  2.1941 -0.0288
13557TIP3    H240613   3.623   1.630   5.033 -1.0219 -1.5248  0.9722
13558TIP3   OH240614   2.492   6.620   1.116  0.2577 -0.1848  0.5848
13558TIP3    H140615   2.577   6.632   1.159 -0.0919  1.4074  0.8627
13558TIP3    H240616   2.515   6.592   1.027  1.0217 -1.3762  1.1330
13559TIP3   OH240617   4.615   4.269   1.306  0.2102 -0.1058  0.4751
13559TIP3    H140618   4.632   4.227   1.222  1.8008 -0.1926  0.8123
13559TIP3    H240619   4.578   4.200   1.360 -0.9871 -0.0067 -0.1780
13560TIP3   OH240620   0.604   5.889   2.182  0.3551  0.3943 -0.5586
13560TIP3    H140621   0.595   5.983   2.165 -1.4414  0.1067 -1.3724
13560TIP3    H240622   0.514   5.857   2.188  0.8257 -0.6946  3.2541
13561TIP3   OH240623   7.305   6.932   3.697  0.3958 -0.3939  0.3008
13561TIP3    H140624   7.210   6.926   3.709  0.3129  0.4240  0.1097
13561TIP3    H240625   7.341   6.912   3.783  0.1218 -2.1614  0.0348
13562TIP3   OH240626   1.116   0.048   3.204 -0.7783 -0.3306 -0.1732
13562TIP3    H140627   1.090   0.132   3.241  1.3427  0.1411  0.3799
13562TIP3    H240628   1.207   0.061   3.177 -0.5057 -2.3588 -0.3575
13563TIP3   OH240629   6.817   2.822   5.211 -0.1045  0.0646  0.3331
13563TIP3    H140630   6.852   2.834   5.122 -0.0864 -2.0582  0.0119
13563TIP3    H240631   6.855   2.894   5.261  2.0042 -0.1969 -0.7844
13564TIP3   OH240632   7.511   7.599   5.921 -0.4084 -0.1899  0.3655
13564TIP3    H140633   7.594   7.619   5.964 -1.5358  0.3635  2.4438
13564TIP3    H240634   7.515   7.505   5.905  0.3998 -0.2617  0.9099
13565TIP3   OH240635   1.753   7.905   6.870 -0.2370  0.1090  0.0316
13565TIP3    H140636   1.675   7.958   6.853  0.0155  0.3499 -0.3994
13565TIP3    H240637   1.750   7.836   6.803  0.2918  0.5362 -0.4357
13566TIP3   OH240638   5.042   3.041   3.110 -0.2808  0.4666  0.3142
13566TIP3    H140639   5.046   3.095   3.031 -2.2911  0.9108  0.4461
13566TIP3    H240640   5.019   3.103   3.180 -0.1360 -0.1733  0.9369
13567TIP3   OH240641   1.965   3.005   2.343 -0.3377  0.2889  0.2014
13567TIP3    H140642   1.970   3.049   2.259 -0.5196 -0.9915 -0.5031
13567TIP3    H240643   2.035   3.044   2.395  0.0031  0.8447 -0.6519
13568TIP3   OH240644   5.231   5.162   5.269 -0.1558 -0.2458 -0.0109
13568TIP3    H140645   5.203   5.238   5.218  0.5353  0.1733  0.2211
13568TIP3    H240646   5.266   5.102   5.203  0.9943  0.4123 -0.0253
13569TIP3   OH240647   6.834   5.148   3.472  0.2918 -0.3369  0.1900
13569TIP3    H140648   6.770   5.076   3.470  0.3354 -0.5690  3.0597
13569TIP3    H240649   6.781   5.227   3.485  0.1266  0.5219 -4.1379
13570TIP3   OH240650   8.327   4.702   4.083  0.2353 -0.0310  0.4090
13570TIP3    H140651   8.390   4.761   4.124  1.1663 -0.5698 -0.2058
13570TIP3    H240652   8.329   4.726   3.990 -1.0120  0.4282  0.4883
13571TIP3   OH240653   0.830   6.690   4.451  1.0125 -0.2280  0.0164
13571TIP3    H140654   0.869   6.776   4.436  0.2037  0.0403 -0.6693
13571TIP3    H240655   0.794   6.694   4.539  2.2012 -0.3656  0.5268
13572TIP3   OH240656   3.049   7.829   1.780 -0.1749 -0.1676  0.4918
13572TIP3    H140657   3.065   7.739   1.753  0.0417 -0.1360  0.5139
13572TIP3    H240658   3.087   7.835   1.868 -1.4440 -0.4512  1.0848
13573TIP3   OH240659   1.013   4.738   5.986  0.1306  0.6205  0.4366
13573TIP3    H140660   1.031   4.760   5.895  0.4600 -0.2666  0.2786
13573TIP3    H240661   1.034   4.645   5.993 -0.6957  0.4756  1.2098
13574TIP3   OH240662   6.058   3.303   1.880 -0.9555 -0.9788  0.0154
13574TIP3    H140663   6.012   3.336   1.803 -0.2390 -2.1615 -0.9703
13574TIP3    H240664   6.134   3.361   1.889 -1.7371 -0.0434  0.6330
13575TIP3   OH240665   6.688   4.568   1.920  0.3973  0.2376  0.3443
13575TIP3    H140666   6.740   4.491   1.895  0.3092  0.5464 -0.8551
13575TIP3    H240667   6.601   4.550   1.886  0.8765  1.7726 -1.9514
13576TIP3   OH240668   3.447   3.274   1.831 -0.5847  0.1465 -0.3336
13576TIP3    H140669   3.371   3.274   1.889 -0.4318 -0.1758 -0.1306
13576TIP3    H240670   3.451   3.363   1.796  0.1314  0.7546  1.2089
13577TIP3   OH240671   2.068   7.863   4.086 -0.2029  0.4721  0.5022
13577TIP3    H140672   2.111   7.841   4.169  2.5263 -0.6405 -1.0699
13577TIP3    H240673   2.130   7.834   4.019 -2.6526  0.5909 -1.9733
13578TIP3   OH240674   7.042   7.889   0.503  0.5559 -0.2538 -0.5148
13578TIP3    H140675   6.996   7.813   0.537  1.7603 -0.7893 -0.0321
13578TIP3    H240676   6.988   7.964   0.528 -0.9288 -0.9664 -1.4730
13579TIP3   OH240677   4.944   6.383   5.144 -0.1062 -0.1028  0.3132
13579TIP3    H140678   4.854   6.411   5.159 -0.0109 -0.1843  1.0393
13579TIP3    H240679   4.992   6.407   5.223  0.7036  0.6832 -0.3894
13580TIP3   OH240680   0.160   2.657   3.942 -0.5246 -0.0527  0.5486
13580TIP3    H140681   0.091   2.719   3.967  0.8928  1.3899  1.0566
13580TIP3    H240682   0.200   2.631   4.025  1.2773  1.2642  0.1574
13581TIP3   OH240683   5.404   1.607   5.893 -0.4514 -0.2864 -0.5417
13581TIP3    H140684   5.376   1.520   5.922 -0.3782  0.0271  0.5079
13581TIP3    H240685   5.468   1.589   5.824  1.0228 -1.1611  0.9542
13582TIP3   OH240686   4.630   5.220   5.310  0.4035 -0.0552  0.2814
13582TIP3    H140687   4.593   5.188   5.392  1.3434 -1.2997  0.2524
13582TIP3    H240688   4.704   5.161   5.292  0.9290  0.8987 -0.8638
13583TIP3   OH240689   0.931   6.567   3.290 -0.0883  0.2089  0.1814
13583TIP3    H140690   0.898   6.497   3.233  0.9658 -1.4009  1.4553
13583TIP3    H240691   0.852   6.611   3.321 -0.7504 -0.0283 -1.0789
13584TIP3   OH240692   4.598   0.525   6.682  0.0238 -0.6066  0.0484
13584TIP3    H140693   4.562   0.604   6.643  1.5289 -0.3944 -0.9707
13584TIP3    H240694   4.596   0.460   6.612  0.4080 -0.9671  0.3636
13585TIP3   OH240695   1.620   1.967   6.755  0.1244 -0.0350 -0.3041
13585TIP3    H140696   1.635   1.975   6.849  1.2635  0.6635 -0.5347
13585TIP3    H240697   1.563   2.041   6.733  1.8838  1.3064 -0.5639
13586TIP3   OH240698   0.472   1.223   2.222  0.3288 -0.4634 -0.6925
13586TIP3    H140699   0.411   1.227   2.296  0.7598  1.2493 -0.3941
13586TIP3    H240700   0.490   1.129   2.212 -0.6538 -0.8298  0.6062
13587TIP3   OH240701   4.451   2.423   6.809 -0.2613 -0.4159 -0.4203
13587TIP3    H140702   4.521   2.488   6.814  0.2662 -0.9593 -0.6310
13587TIP3    H240703   4.395   2.454   6.738  0.0186 -0.2236 -0.5596
13588TIP3   OH240704   0.133   6.439   2.103 -0.2014  0.3181 -0.3929
13588TIP3    H140705   0.228   6.423   2.096 -0.3617 -1.2693  0.4416
13588TIP3    H240706   0.124   6.500   2.175  0.1450 -0.4360  0.3072
13589TIP3   OH240707   5.206   2.477   3.985  0.4818 -0.9165 -0.5010
13589TIP3    H140708   5.152   2.534   4.040 -0.1830 -1.8983 -0.1101
13589TIP3    H240709   5.262   2.430   4.047  2.9502  1.1557 -0.9709
13590TIP3   OH240710   1.716   0.955   1.767 -0.5877 -0.4052  0.1482
13590TIP3    H140711   1.667   1.020   1.717 -1.8947 -0.7627  0.9053
13590TIP3    H240712   1.736   0.998   1.850  0.5159 -0.2246 -0.1938
13591TIP3   OH240713   6.392   6.241   1.793  0.2801 -0.7860  0.3437
13591TIP3    H140714   6.345   6.196   1.723  0.8060  1.1085 -1.3223
13591TIP3    H240715   6.323   6.288   1.842  0.1878  0.5269 -0.9773
13592TIP3   OH240716   7.720   4.275   4.908  0.3285 -0.0643  0.2641
13592TIP3    H140717   7.766   4.342   4.857 -1.1424  0.8983  0.1314
13592TIP3    H240718   7.734   4.301   4.999  0.4330 -0.0460  0.2432
13593TIP3   OH240719   0.511   4.204   0.426  0.5475  0.6850 -0.4808
13593TIP3    H140720   0.542   4.219   0.337 -1.5504  2.1473 -1.0380
13593TIP3    H240721   0.507   4.291   0.465  1.3751  0.0804  1.0754
13594TIP3   OH240722   4.253   5.077   2.298 -0.3829 -0.0244 -0.6317
13594TIP3    H140723   4.219   4.997   2.257 -3.3180  1.8338 -2.1692
13594TIP3    H240724   4.182   5.107   2.354  0.7468  1.4056  0.0817
13595TIP3   OH240725   2.527   5.430   4.371 -0.7811  0.0284  0.5694
13595TIP3    H140726   2.443   5.472   4.390 -0.9546 -0.4455  0.8660
13595TIP3    H240727   2.589   5.503   4.361 -1.6002  0.5115 -1.6035
13596TIP3   OH240728   5.666   1.641   0.117 -0.3954 -0.5825 -0.1963
13596TIP3    H140729   5.690   1.678   0.201  0.2435 -1.6013  0.0845
13596TIP3    H240730   5.595   1.579   0.137 -0.5732 -0.4762 -0.4777
13597TIP3   OH240731   7.705   4.556   4.747 -0.7533  0.9031 -0.1154
13597TIP3    H140732   7.781   4.501   4.728 -1.1782  0.0176  0.6838
13597TIP3    H240733   7.721   4.637   4.697 -0.2382 -0.0241 -1.5224
13598TIP3   OH240734   2.365   3.208   3.687 -0.3768 -0.3007  0.2720
13598TIP3    H140735   2.429   3.166   3.629  0.6387  2.3599 -0.6728
13598TIP3    H240736   2.404   3.201   3.774  1.1992  1.0897 -0.2617
13599TIP3   OH240737   1.805   5.250   4.396  0.5030  0.2571 -1.0627
13599TIP3    H140738   1.735   5.209   4.448  2.1533 -0.2141  0.9141
13599TIP3    H240739   1.766   5.263   4.309 -1.7288 -0.8112 -0.2937
13600TIP3   OH240740   6.829   1.964   5.986  0.4595 -0.6135 -0.7020
13600TIP3    H140741   6.844   2.026   6.057  2.2006 -0.5031 -1.1320
13600TIP3    H240742   6.782   2.014   5.920 -2.4073 -1.0593  0.8252
13601TIP3   OH240743   7.919   2.097   6.424 -0.0950 -0.0851 -0.1254
13601TIP3    H140744   7.890   2.157   6.492  2.3081  0.9965  0.0212
13601TIP3    H240745   7.860   2.115   6.350 -1.1647  0.4576  0.8315
13602TIP3   OH240746   0.564   2.957   5.798 -0.5061 -0.5867 -0.1663
13602TIP3    H140747   0.549   2.924   5.709  1.8472 -0.4115 -0.6993
13602TIP3    H240748   0.611   3.039   5.785  0.8249 -1.0891  1.2245
13603TIP3   OH240749   4.167   4.871   6.592 -0.3375  0.1818 -0.4734
13603TIP3    H140750   4.103   4.894   6.660  0.2426 -0.1687  0.2046
13603TIP3    H240751   4.221   4.803   6.632  0.1485  0.1203 -1.2160
13604TIP3   OH240752   7.181   2.570   2.145 -0.0214 -0.0706  0.2265
13604TIP3    H140753   7.235   2.594   2.220 -0.2789 -0.3780  0.5160
13604TIP3    H240754   7.184   2.474   2.143  1.2463 -0.0427 -1.0915
13605TIP3   OH240755   6.763   3.189   0.514  0.0398  0.3719  0.6859
13605TIP3    H140756   6.754   3.184   0.609 -1.8426 -0.2337  0.5084
13605TIP3    H240757   6.737   3.279   0.493 -0.5757  0.1862  0.6491
13606TIP3   OH240758   7.856   4.471   4.209 -0.0309 -0.1517 -0.4296
13606TIP3    H140759   7.827   4.417   4.135  1.5870 -0.6226 -0.7499
13606TIP3    H240760   7.849   4.413   4.285 -1.0980  0.1406 -0.2820
13607TIP3   OH240761   7.688   4.310   2.653 -0.5489  0.6023 -0.2313
13607TIP3    H140762   7.636   4.231   2.634  0.1394 -0.3149  1.5170
13607TIP3    H240763   7.701   4.308   2.748  1.9540  1.2553 -0.5007
13608TIP3   OH240764   7.745   4.307   1.566  0.5695  0.1177  0.6357
13608TIP3    H140765   7.728   4.398   1.590 -0.1986 -0.2382  1.4907
13608TIP3    H240766   7.662   4.275   1.531  0.6794 -0.4167  0.8563
13609TIP3   OH240767   6.095   0.845   5.326  0.0234 -0.2281  0.2796
13609TIP3    H140768   6.175   0.821   5.279 -0.2905  0.1247 -0.4437
13609TIP3    H240769   6.124   0.904   5.396  0.4223 -0.3085  0.1801
13610TIP3   OH240770   1.018   1.048   6.548  0.6110  0.1690  0.2358
13610TIP3    H140771   0.955   1.094   6.603 -0.3392 -0.2987 -0.4316
13610TIP3    H240772   1.071   0.997   6.609  0.1904  0.3894  0.7932
13611TIP3   OH240773   6.418   3.086   3.689  0.3046  0.5014  0.8933
13611TIP3    H140774   6.337   3.115   3.646  1.2810  1.4987 -0.3580
13611TIP3    H240775   6.424   3.142   3.767 -0.5124 -0.0087  1.3413
13612TIP3   OH240776   3.139   2.371   2.442  0.0572 -0.2419 -0.4187
13612TIP3    H140777   3.076   2.367   2.370  0.0583 -0.8981 -0.3888
13612TIP3    H240778   3.197   2.297   2.427 -0.5699 -1.0243  0.8438
13613TIP3   OH240779   7.724   3.425   1.507 -0.6700  0.7578 -0.3681
13613TIP3    H140780   7.680   3.387   1.584  1.5492 -2.0417 -0.3095
13613TIP3    H240781   7.746   3.349   1.453  0.9896  2.3395 -2.0313
13614TIP3   OH240782   1.629   2.316   4.125 -0.0035  0.3018  0.1015
13614TIP3    H140783   1.612   2.227   4.092 -0.0890  0.9212 -1.6497
13614TIP3    H240784   1.551   2.337   4.177 -0.7454 -0.0749 -0.8161
13615TIP3   OH240785   5.347   0.182   4.526  0.2403  0.6009 -0.3872
13615TIP3    H140786   5.296   0.118   4.577  0.8858  1.4747  1.4399
13615TIP3    H240787   5.428   0.137   4.504  0.2860  0.4722  0.0440
13616TIP3   OH240788   2.292   7.302   1.004  0.1343  0.0354  0.7501
13616TIP3    H140789   2.242   7.250   0.940  0.2808  0.2154  0.4888
13616TIP3    H240790   2.323   7.378   0.954 -0.9780  0.9291  1.3781
13617TIP3   OH240791   3.661   5.066   2.084  0.4644  0.3198  0.4066
13617TIP3    H140792   3.610   5.115   2.149 -3.1017 -0.5281 -1.5179
13617TIP3    H240793   3.654   4.975   2.112 -0.0041  0.0892 -0.4264
13618TIP3   OH240794   6.547  -0.029   5.067 -0.3957  0.0173 -0.0159
13618TIP3    H140795   6.549   0.051   5.015 -0.1304 -0.0937 -0.1765
13618TIP3    H240796   6.621  -0.020   5.127 -0.2190 -0.2170 -0.1980
13619TIP3   OH240797   7.626   4.916   1.042  0.6213  0.3774  0.5827
13619TIP3    H140798   7.689   4.987   1.054  2.4976 -1.1707  0.4591
13619TIP3    H240799   7.599   4.924   0.950  0.1619  1.4110  0.7967
13620TIP3   OH240800   6.616   7.462   2.043 -0.4478 -0.7236  0.1053
13620TIP3    H140801   6.638   7.529   2.107 -0.4442 -1.5184  0.9650
13620TIP3    H240802   6.534   7.492   2.003 -0.0025  0.2009 -0.1359
13621TIP3   OH240803   5.477   4.490   4.200 -0.0968  0.5113  0.4982
13621TIP3    H140804   5.548   4.428   4.184 -0.9183 -0.3032 -0.1023
13621TIP3    H240805   5.403   4.456   4.149 -0.6379  1.8677  0.3248
13622TIP3   OH240806   7.981   1.033   4.125  0.1988  0.2745 -0.0412
13622TIP3    H140807   8.061   1.072   4.159  0.5344 -0.8210  0.4672
13622TIP3    H240808   7.962   1.083   4.045  1.9903 -0.1395 -0.7677
13623TIP3   OH240809   6.312   0.777   3.688  0.0588 -0.0814  0.8099
13623TIP3    H140810   6.229   0.776   3.736 -0.6015 -0.1348 -0.2961
13623TIP3    H240811   6.316   0.692   3.644  0.9974 -0.3166  1.3276
13624TIP3   OH240812   7.266   0.998   1.762  0.2912 -0.2027  0.3769
13624TIP3    H140813   7.350   1.000   1.717  1.1268 -1.3049  1.8120
13624TIP3    H240814   7.208   1.049   1.706  2.1108  1.3217 -0.2226
13625TIP3   OH240815   1.081   6.741   2.938  0.1717  0.0238 -0.1882
13625TIP3    H140816   1.032   6.770   2.861 -1.2737 -0.9063  0.3546
13625TIP3    H240817   1.072   6.646   2.938  3.3343 -0.3817 -0.9377
13626TIP3   OH240818   5.594   1.868   6.559 -0.3533  0.4023 -0.0402
13626TIP3    H140819   5.602   1.946   6.613  1.9034 -0.4191  0.9638
13626TIP3    H240820   5.537   1.809   6.609  0.7307  0.1199  0.9074
13627TIP3   OH240821   4.075   6.944   2.159  0.5820 -0.8874  0.0614
13627TIP3    H140822   4.105   6.861   2.195 -1.2731 -1.9698 -0.8049
13627TIP3    H240823   3.997   6.923   2.108  1.8566  0.8903 -2.8831
13628TIP3   OH240824   6.257   4.379   4.022  0.0058  0.1184  0.3210
13628TIP3    H140825   6.194   4.446   4.047  0.1859 -0.0326  1.2095
13628TIP3    H240826   6.212   4.296   4.037  0.0385  0.0211 -0.0846
13629TIP3   OH240827   8.371   2.042   3.136  0.1878  0.1133 -0.5457
13629TIP3    H140828   8.289   2.019   3.092 -0.5275  1.6658 -0.1048
13629TIP3    H240829   8.414   1.958   3.151 -1.9188 -0.9026  0.3385
13630TIP3   OH240830   8.016   3.500   5.271  0.7213  0.7987  0.6927
13630TIP3    H140831   8.082   3.447   5.228 -0.5012  1.7083 -2.6298
13630TIP3    H240832   7.950   3.437   5.301  0.7287  0.2091 -0.4742
13631TIP3   OH240833   5.931   5.715   2.500  0.7203 -0.2153  0.1173
13631TIP3    H140834   5.847   5.759   2.516  0.7828  0.3049 -0.8665
13631TIP3    H240835   5.979   5.724   2.582 -0.1321 -0.3870  0.6432
13632TIP3   OH240836   4.506   7.481   5.209 -0.5909  0.1725  0.2626
13632TIP3    H140837   4.557   7.447   5.135  0.8591  0.5903  1.0431
13632TIP3    H240838   4.567   7.537   5.257 -1.3843 -0.4035  2.0112
13633TIP3   OH240839   2.365   3.309   3.080 -0.3005 -0.3741 -0.5330
13633TIP3    H140840   2.432   3.357   3.128  0.7956 -2.0362 -0.3314
13633TIP3    H240841   2.404   3.291   2.994 -0.6874 -0.8856 -0.6079
13634TIP3   OH240842   7.077   0.802   1.610 -0.6702  0.2661  0.4972
13634TIP3    H140843   7.154   0.848   1.642 -1.9724  1.4905  1.9924
13634TIP3    H240844   7.060   0.839   1.523  0.4259 -0.0689  0.1263
13635TIP3   OH240845   6.893   4.543   3.837  0.4507  0.4190 -0.3190
13635TIP3    H140846   6.906   4.530   3.931  0.4982 -0.9687 -0.4987
13635TIP3    H240847   6.828   4.613   3.831  0.8230  0.8759  0.7312
13636TIP3   OH240848   8.054   5.855   4.694 -0.0538 -0.6471 -0.2765
13636TIP3    H140849   8.033   5.916   4.624 -0.9606  1.9502  2.0959
13636TIP3    H240850   7.973   5.806   4.708 -1.2379  1.6559  1.5169
13637TIP3   OH240851   1.989   1.700   4.739  0.7791  0.1083  0.1022
13637TIP3    H140852   1.995   1.771   4.802  1.6881 -0.4523  0.6761
13637TIP3    H240853   1.976   1.621   4.792  1.3550 -0.3440 -0.4071
13638TIP3   OH240854   7.253   3.926   3.706 -0.1280  0.3167 -0.1900
13638TIP3    H140855   7.345   3.937   3.729 -0.2185  0.0108  0.3336
13638TIP3    H240856   7.237   3.832   3.713 -0.8856  0.5324  1.3582
13639TIP3   OH240857   2.186   0.061   5.279  0.0013  0.4935 -0.0439
13639TIP3    H140858   2.260   0.109   5.242  0.1324 -0.6582 -1.3458
13639TIP3    H240859   2.117   0.127   5.287  0.8884  1.3990  0.4074
13640TIP3   OH240860   1.785   5.351   5.732  0.3278 -0.0898 -0.0215
13640TIP3    H140861   1.845   5.395   5.793 -0.8716 -0.7592  1.7272
13640TIP3    H240862   1.711   5.411   5.724  0.3136 -0.1744 -0.5345
13641TIP3   OH240863   6.226   0.909   6.193  0.0458 -0.5024 -0.8171
13641TIP3    H140864   6.250   0.817   6.179 -0.5452 -0.8146  0.1288
13641TIP3    H240865   6.155   0.906   6.257  0.4861  0.6507 -0.2415
13642TIP3   OH240866   7.156   6.883   2.000 -0.5504 -0.2114 -0.0395
13642TIP3    H140867   7.111   6.862   2.082  0.3714  0.3929  0.6492
13642TIP3    H240868   7.192   6.800   1.969 -1.3258 -0.5288 -0.1016
13643TIP3   OH240869   4.582   6.815   6.610 -0.2183 -0.1573 -0.0430
13643TIP3    H140870   4.517   6.749   6.583 -0.9667  0.7363 -0.4717
13643TIP3    H240871   4.651   6.764   6.652 -1.2686 -1.1331  0.5616
13644TIP3   OH240872   7.571   7.614   0.182  0.6231 -0.6489 -0.3133
13644TIP3    H140873   7.547   7.696   0.139  0.3366 -1.2069 -1.2474
13644TIP3    H240874   7.645   7.581   0.132  1.5045 -0.3998  0.7804
13645TIP3   OH240875   1.740   5.717   4.904  0.3989  0.4743  0.2428
13645TIP3    H140876   1.821   5.740   4.948  1.3733 -1.1641 -0.5960
13645TIP3    H240877   1.767   5.671   4.825 -1.3403  0.5536 -0.4515
13646TIP3   OH240878   1.920   1.394   6.689 -0.0688  0.0152 -0.1710
13646TIP3    H140879   1.957   1.395   6.601 -0.6968 -0.5235 -0.4423
13646TIP3    H240880   1.872   1.477   6.696 -0.9339 -0.4262 -0.7342
13647TIP3   OH240881   4.023   6.188   4.711 -0.3242 -0.3537  0.0261
13647TIP3    H140882   3.981   6.151   4.633 -0.5096  0.8602 -0.4738
13647TIP3    H240883   4.117   6.170   4.698 -0.3224  0.0857 -0.6292
13648TIP3   OH240884   3.102   6.561   2.350 -0.2325 -0.0135 -0.6191
13648TIP3    H140885   3.146   6.643   2.329  0.9714 -0.1868  1.0430
13648TIP3    H240886   3.129   6.501   2.280  0.9749  0.2949 -0.4318
13649TIP3   OH240887   2.069   7.661   2.017 -0.4275  0.4051  1.0794
13649TIP3    H140888   2.064   7.742   2.069 -1.0168  1.3331 -0.3710
13649TIP3    H240889   2.082   7.691   1.927  1.3112 -1.1902  0.7524
13650TIP3   OH240890   6.519   3.744   2.624  0.0991  0.2118 -0.4028
13650TIP3    H140891   6.503   3.662   2.577  0.6345  0.3870 -0.9093
13650TIP3    H240892   6.449   3.748   2.689 -0.6751 -0.0428 -1.1876
13651TIP3   OH240893   8.138   6.754   0.456 -0.8252 -0.3282 -0.3195
13651TIP3    H140894   8.157   6.774   0.548 -0.5113 -2.5786  0.1704
13651TIP3    H240895   8.175   6.827   0.408  0.1564  0.2895  1.2766
13652TIP3   OH240896   5.511   1.523   3.883  0.2660 -0.2410  0.0069
13652TIP3    H140897   5.585   1.584   3.893  0.9242 -1.3258  2.7965
13652TIP3    H240898   5.435   1.574   3.912  0.2726  0.1834 -0.6919
13653TIP3   OH240899   3.078   6.622   3.218 -0.3951  0.3321 -0.2221
13653TIP3    H140900   3.172   6.610   3.201 -0.5401 -0.0959 -0.7515
13653TIP3    H240901   3.074   6.699   3.274  0.2298  0.7129 -0.6788
13654TIP3   OH240902   0.505   4.223   2.577  0.4200 -0.3110  0.7489
13654TIP3    H140903   0.494   4.144   2.630 -0.7867 -0.4347  0.3463
13654TIP3    H240904   0.441   4.213   2.506  0.9861  0.5362  0.1079
13655TIP3   OH240905   0.127   5.914   0.147  0.3112  0.6511  0.3471
13655TIP3    H140906   0.061   5.960   0.094 -0.5622  0.2305  1.0308
13655TIP3    H240907   0.149   5.975   0.217 -0.0330  0.4568  0.6300
13656TIP3   OH240908   1.804   1.806   6.165 -0.3485 -0.0557 -0.0937
13656TIP3    H140909   1.716   1.771   6.152 -0.3640 -0.4408  0.9550
13656TIP3    H240910   1.827   1.847   6.081 -1.1043 -0.8708 -0.7066
13657TIP3   OH240911   2.764   0.340   0.169 -0.4530  0.2124 -0.0478
13657TIP3    H140912   2.755   0.278   0.097  2.1960  2.1163 -2.2250
13657TIP3    H240913   2.696   0.406   0.153 -1.5514 -0.6912  0.7554
13658TIP3   OH240914   5.007   1.817   4.805 -0.4332  0.0294 -0.3611
13658TIP3    H140915   5.020   1.823   4.900 -0.7075 -0.3845 -0.2931
13658TIP3    H240916   4.921   1.856   4.791  0.0793  1.1141 -0.5844
13659TIP3   OH240917   1.038   4.148   3.101  0.1143 -0.3647  0.4994
13659TIP3    H140918   1.000   4.122   3.017 -0.4848  2.2951 -0.1308
13659TIP3    H240919   1.132   4.136   3.090  0.2665  1.8443 -1.3706
13660TIP3   OH240920   4.562   4.001   6.831  0.4420 -0.0113  0.2089
13660TIP3    H140921   4.530   4.065   6.894  0.0969 -1.2034  1.2716
13660TIP3    H240922   4.482   3.961   6.795  0.6441 -1.8245  1.6512
13661TIP3   OH240923   3.912   6.663   4.868  0.1011  0.3107  0.2526
13661TIP3    H140924   3.938   6.755   4.863 -1.2460  0.6585 -0.9546
13661TIP3    H240925   3.816   6.664   4.866 -0.0165 -1.0560  1.8536
13662TIP3   OH240926   1.137   5.574   1.813 -0.3359  0.4922 -0.0663
13662TIP3    H140927   1.201   5.573   1.884 -0.1876 -0.2557 -0.2010
13662TIP3    H240928   1.145   5.487   1.772  0.8068  1.4734 -2.0750
13663TIP3   OH240929   3.131   4.742   3.179  0.1466 -0.3518 -0.5825
13663TIP3    H140930   3.044   4.726   3.216  0.6069 -0.1441  0.6131
13663TIP3    H240931   3.119   4.731   3.085 -1.1695 -0.3481 -0.4279
13664TIP3   OH240932   1.139   6.070   1.857 -0.2520 -0.1807  0.4577
13664TIP3    H140933   1.075   6.047   1.790  0.3020  1.4143 -0.6762
13664TIP3    H240934   1.168   5.986   1.892 -3.4034 -0.9664  1.5015
13665TIP3   OH240935   5.499   3.131   4.166 -0.1940 -0.2051 -0.3716
13665TIP3    H140936   5.452   3.177   4.236  0.9189  0.5957 -0.1171
13665TIP3    H240937   5.513   3.197   4.099 -1.1071 -0.9295 -1.3177
13666TIP3   OH240938   5.119   3.193   2.078  0.1573 -0.1546  0.6556
13666TIP3    H140939   5.118   3.179   1.983 -0.4089  0.4481  0.5659
13666TIP3    H240940   5.182   3.264   2.091  0.5679 -0.5411  0.7755
13667TIP3   OH240941   2.450   7.370   4.595 -0.7484 -0.5028 -0.7032
13667TIP3    H140942   2.389   7.299   4.614 -2.3576  0.6321 -1.3994
13667TIP3    H240943   2.479   7.354   4.505  0.0176 -1.0447 -0.3713
13668TIP3   OH240944   6.615   0.664   0.530  0.1771 -0.0633 -0.1651
13668TIP3    H140945   6.618   0.754   0.564 -0.1577 -0.4604  0.9664
13668TIP3    H240946   6.543   0.665   0.467  0.7134  0.6580 -0.7893
13669TIP3   OH240947   7.383   7.230   3.029 -0.5058 -0.5664 -0.8803
13669TIP3    H140948   7.444   7.300   3.052 -0.8685 -0.3723 -0.5021
13669TIP3    H240949   7.300   7.255   3.069 -0.2868 -1.9338  0.5247
13670TIP3   OH240950   7.570   3.329   1.065 -0.3855 -0.0434 -0.1595
13670TIP3    H140951   7.629   3.281   1.008  1.3036 -0.4466  1.8522
13670TIP3    H240952   7.614   3.413   1.081  0.5923 -1.0047  2.7406
13671TIP3   OH240953   8.127   7.289   2.325 -0.2901 -0.0618 -0.8002
13671TIP3    H140954   8.060   7.237   2.281 -0.0520 -1.7759  0.7051
13671TIP3    H240955   8.080   7.334   2.395  0.0608 -1.2200  0.2207
13672TIP3   OH240956   7.511   4.827   5.460 -0.2200  0.4880  0.7618
13672TIP3    H140957   7.523   4.837   5.366  0.2988 -0.1381  0.7540
13672TIP3    H240958   7.560   4.748   5.482 -2.1812 -0.7027  1.1657
13673TIP3   OH240959   7.569   0.148   1.319 -0.2173  0.3023  0.4754
13673TIP3    H140960   7.477   0.122   1.309  0.2580 -1.1864 -0.3297
13673TIP3    H240961   7.613   0.111   1.243  1.3326 -0.4187  1.6698
13674TIP3   OH240962   4.519   2.587   5.203 -0.3101  0.2368 -0.3595
13674TIP3    H140963   4.612   2.567   5.198 -0.5078 -0.5382 -1.2108
13674TIP3    H240964   4.487   2.536   5.278 -0.1963 -0.1186 -0.5505
13675TIP3   OH240965   3.587   0.837   1.232 -0.4975 -0.2333 -0.4666
13675TIP3    H140966   3.652   0.815   1.166  0.5402  0.3878  0.3228
13675TIP3    H240967   3.572   0.756   1.280 -2.2107 -1.0338 -2.2096
13676TIP3   OH240968   4.603   0.573   1.165  0.3774  0.1323 -0.3658
13676TIP3    H140969   4.537   0.595   1.230  1.5883  0.2401  0.8657
13676TIP3    H240970   4.556   0.521   1.100 -0.4283 -1.8941  1.7129
13677TIP3   OH240971   7.392   1.055   0.418 -0.0764 -0.0235 -0.2991
13677TIP3    H140972   7.304   1.094   0.421 -0.3244 -0.6538  1.2923
13677TIP3    H240973   7.402   1.012   0.503  2.2613  1.0859  0.0597
13678TIP3   OH240974   5.676   5.030   1.351 -0.9564 -0.2921  0.0947
13678TIP3    H140975   5.674   4.945   1.307 -2.0544 -0.4255  0.3519
13678TIP3    H240976   5.638   5.091   1.288 -2.3505 -0.4475  0.7180
13679TIP3   OH240977   2.311   0.467   2.116  0.1129 -0.0321 -0.1290
13679TIP3    H140978   2.326   0.561   2.120  0.9896 -0.1654 -0.0676
13679TIP3    H240979   2.389   0.432   2.072  0.0295 -0.7783  0.2947
13680TIP3   OH240980   1.262   4.632   6.095  0.2735 -0.3860 -0.0225
13680TIP3    H140981   1.295   4.712   6.135 -0.8011 -0.0924  0.3232
13680TIP3    H240982   1.292   4.635   6.004  1.7056 -0.4567  0.4319
13681TIP3   OH240983   5.938   3.991   5.913 -0.3368  0.2539 -0.1713
13681TIP3    H140984   5.926   4.051   5.987  1.6414 -1.5764  1.7496
13681TIP3    H240985   5.857   3.941   5.909 -0.1890 -0.1401  1.2955
13682TIP3   OH240986   7.893   5.459   4.086  0.0463  0.3065  0.2848
13682TIP3    H140987   7.859   5.523   4.149 -0.6714  0.9042 -0.6742
13682TIP3    H240988   7.854   5.485   4.002 -0.4119 -1.4938 -0.1097
13683TIP3   OH240989   1.289   5.105   3.831  0.2793 -0.2501 -0.3085
13683TIP3    H140990   1.357   5.037   3.840  0.1428 -0.5100 -1.1222
13683TIP3    H240991   1.215   5.071   3.880  0.3625 -0.4970 -0.3497
13684TIP3   OH240992   0.222   2.898   6.655 -0.5541  0.1062 -0.0836
13684TIP3    H140993   0.202   2.811   6.688  0.9116  0.1640  1.0571
13684TIP3    H240994   0.144   2.950   6.675 -1.5314 -0.9429 -0.9678
13685TIP3   OH240995   4.843   2.766   5.976 -0.2317  0.5135  0.5015
13685TIP3    H140996   4.933   2.800   5.983  0.4335 -1.4154  2.3576
13685TIP3    H240997   4.798   2.800   6.053 -0.9111  0.8731 -0.0398
13686TIP3   OH240998   6.987   7.347   0.267 -0.1957 -0.4929 -0.0951
13686TIP3    H140999   6.929   7.334   0.191 -0.7056 -0.7941  0.3410
13686TIP3    H241000   6.978   7.439   0.289  1.6950  0.1961 -1.7896
13687TIP3   OH241001   4.232   5.974   1.253 -0.0612  0.4869 -0.1133
13687TIP3    H141002   4.201   6.058   1.284  0.8882  0.6668  0.4128
13687TIP3    H241003   4.311   5.957   1.305  0.9003  0.2204 -1.5952
13688TIP3   OH241004   3.857   7.152   0.894  0.1052 -0.7696 -0.1566
13688TIP3    H141005   3.794   7.130   0.963  0.7108  0.3889  0.8160
13688TIP3    H241006   3.889   7.239   0.918  0.6193 -0.4971 -1.7155
13689TIP3   OH241007   3.422   6.926   2.541  0.2104  0.3728  0.3356
13689TIP3    H141008   3.372   6.894   2.616 -0.8848  0.0804 -0.4899
13689TIP3    H241009   3.514   6.921   2.568 -0.1275 -0.5101  1.3437
13690TIP3   OH241010   6.566   7.850   4.688 -0.3467 -0.0023  0.0390
13690TIP3    H141011   6.632   7.786   4.713 -0.4015  0.1148  0.5026
13690TIP3    H241012   6.613   7.933   4.685 -0.4050  0.0312  0.0509
13691TIP3   OH241013   1.990   0.383   1.044 -0.8337 -0.2002 -0.3735
13691TIP3    H141014   1.994   0.409   1.137 -1.3079  0.5782 -0.5585
13691TIP3    H241015   1.899   0.358   1.031 -0.4552 -1.7048 -0.2843
13692TIP3   OH241016   3.135   1.720   5.942  0.0753 -0.2654  0.5914
13692TIP3    H141017   3.100   1.632   5.955  1.2656 -0.7802  0.3838
13692TIP3    H241018   3.170   1.720   5.853  0.2920  0.3522  0.6680
13693TIP3   OH241019   7.032   2.752   2.393 -0.3577  0.0087 -0.4040
13693TIP3    H141020   6.985   2.771   2.474 -0.7198 -1.6129 -0.2096
13693TIP3    H241021   7.077   2.670   2.409 -2.1618 -1.5070 -2.5080
13694TIP3   OH241022   8.199   2.282   4.843 -0.3879 -0.3322 -0.5601
13694TIP3    H141023   8.148   2.358   4.872 -2.0312 -1.5301 -0.1637
13694TIP3    H241024   8.185   2.278   4.748 -0.2783 -0.1343 -0.5856
13695TIP3   OH241025   3.892   4.777   6.538 -0.5385 -0.1394  0.2448
13695TIP3    H141026   3.978   4.816   6.553  0.0561 -1.6756  1.0259
13695TIP3    H241027   3.843   4.845   6.493  1.0479  0.8097 -0.1329
13696TIP3   OH241028   6.881   1.473   3.412  0.5160 -0.6332 -0.3170
13696TIP3    H141029   6.903   1.449   3.322  1.4310 -2.2191  0.2895
13696TIP3    H241030   6.965   1.486   3.454  0.1159 -0.6315  0.4981
13697TIP3   OH241031   3.223   2.750   1.232  0.7027 -0.4164  0.0679
13697TIP3    H141032   3.199   2.753   1.325 -2.3947 -0.1501 -0.6186
13697TIP3    H241033   3.295   2.812   1.224  0.0798  0.6756  2.0904
13698TIP3   OH241034   4.135   6.909   1.710  0.4937  0.6128  0.0417
13698TIP3    H141035   4.089   6.967   1.771 -0.5774 -1.2595  1.0810
13698TIP3    H241036   4.074   6.900   1.636  1.0137  1.4014 -0.5130
13699TIP3   OH241037   4.592   1.421   1.258  0.1905  0.0468  0.1783
13699TIP3    H141038   4.645   1.500   1.266 -0.1100  0.3479 -0.6228
13699TIP3    H241039   4.652   1.349   1.279  0.8574  0.3994 -0.4537
13700TIP3   OH241040   1.911   0.695   5.146  0.3629 -0.5883 -0.3913
13700TIP3    H141041   1.873   0.710   5.233  1.4537  0.2052 -0.0264
13700TIP3    H241042   1.843   0.724   5.086  0.3850  0.9201  0.2550
13701TIP3   OH241043   4.537   2.821   1.995  0.0265  0.1967  0.3261
13701TIP3    H141044   4.539   2.798   2.088 -0.8023 -0.5081  0.1800
13701TIP3    H241045   4.444   2.833   1.975  0.3398  3.5100  0.3147
13702TIP3   OH241046   7.000   2.273   5.089 -0.0676 -0.0960  0.4175
13702TIP3    H141047   7.017   2.187   5.130  0.7681 -0.6040 -0.9356
13702TIP3    H241048   6.908   2.269   5.063 -0.4981  0.0741  1.8248
13703TIP3   OH241049   6.658   3.838   0.521 -0.1390 -0.2597  0.2454
13703TIP3    H141050   6.699   3.924   0.527 -0.4652 -0.1995  2.3037
13703TIP3    H241051   6.718   3.780   0.569  0.6136 -1.4435 -1.9856
13704TIP3   OH241052   4.994   5.826   6.865  0.1617  0.5613  0.1778
13704TIP3    H141053   5.025   5.911   6.836  0.4764  0.3721 -0.0448
13704TIP3    H241054   4.899   5.831   6.857  0.2747 -0.0608 -2.5467
13705TIP3   OH241055   5.952   1.801   2.055  0.5788 -0.0978  0.5039
13705TIP3    H141056   5.915   1.879   2.014  0.3015 -0.2456  0.4694
13705TIP3    H241057   6.011   1.834   2.122  1.8154  0.1768 -0.6582
13706TIP3   OH241058   3.382   5.171   2.891  0.2305 -0.3944  0.2174
13706TIP3    H141059   3.289   5.149   2.900  0.2398 -0.2373  0.6855
13706TIP3    H241060   3.405   5.215   2.972  1.4336 -2.9520  1.3801
13707TIP3   OH241061   8.074   0.929   6.669  0.1280 -0.4321 -0.1430
13707TIP3    H141062   8.169   0.945   6.669  0.1134 -0.3397  0.1971
13707TIP3    H241063   8.056   0.894   6.756 -0.2374  0.0616 -0.0222
13708TIP3   OH241064   1.090   1.982   5.752  0.5786 -0.1759  0.7834
13708TIP3    H141065   1.077   1.898   5.708 -1.3064  1.6304 -2.5083
13708TIP3    H241066   1.163   2.022   5.705 -2.0084  2.1488 -1.6908
13709TIP3   OH241067   2.208   3.839   0.763  0.2004 -0.0891  0.2889
13709TIP3    H141068   2.284   3.782   0.773 -0.4870 -1.1004 -0.1119
13709TIP3    H241069   2.245   3.926   0.745  1.2636 -0.3436  1.1166
13710TIP3   OH241070   0.846   4.174   6.627 -0.5213 -0.3005 -0.5067
13710TIP3    H141071   0.783   4.239   6.656 -0.9850 -1.1735  0.4979
13710TIP3    H241072   0.880   4.136   6.708  0.1736 -0.8972 -1.0691
13711TIP3   OH241073   2.823   1.993   2.585  0.2745  0.3214  0.4948
13711TIP3    H141074   2.765   1.924   2.617 -0.7552  1.4711  1.1931
13711TIP3    H241075   2.907   1.976   2.629 -0.0836 -0.2268  0.9858
13712TIP3   OH241076   0.705   6.736   3.223 -0.5918  0.3674  0.2742
13712TIP3    H141077   0.759   6.813   3.201 -0.1079  0.9047  3.0305
13712TIP3    H241078   0.696   6.690   3.140  2.5200  1.2620 -0.7238
13713TIP3   OH241079   4.492   1.914   6.632 -0.0638 -0.1928 -0.5144
13713TIP3    H141080   4.515   2.003   6.608 -1.1764  0.9330  2.1249
13713TIP3    H241081   4.563   1.885   6.689 -0.7886 -0.0422  0.5132
13714TIP3   OH241082   0.209   0.276   2.649  0.0062 -0.1428  0.6574
13714TIP3    H141083   0.288   0.252   2.600 -1.7662 -0.5112 -2.2100
13714TIP3    H241084   0.162   0.194   2.661 -0.2039  0.1419  1.9385
13715TIP3   OH241085   4.856   5.648   5.322  0.1671  0.4004 -0.3935
13715TIP3    H141086   4.858   5.704   5.245  0.5597  0.7234 -0.1524
13715TIP3    H241087   4.822   5.703   5.391 -0.4271  0.0349 -0.3931
13716TIP3   OH241088   2.838   0.662   1.573  0.4755  0.6156  0.3482
13716TIP3    H141089   2.884   0.733   1.529  0.7101  0.3487  0.1541
13716TIP3    H241090   2.785   0.621   1.505  1.5560 -0.3897  0.0751
13717TIP3   OH241091   5.589   6.027   4.287  0.5036  0.4290 -0.2921
13717TIP3    H141092   5.680   5.998   4.294  0.4864  0.8016  2.8226
13717TIP3    H241093   5.588   6.113   4.327 -1.6621 -0.8079  2.6903
13718TIP3   OH241094   6.079   6.487   0.754 -0.4904  0.2330 -0.7633
13718TIP3    H141095   6.026   6.566   0.740  1.2249  1.1118 -3.0391
13718TIP3    H241096   6.136   6.510   0.827  0.8681  1.7082 -2.1895
13719TIP3   OH241097   6.754   2.680   4.231 -0.3261 -0.0559  0.2855
13719TIP3    H141098   6.829   2.650   4.282 -0.5519 -2.2958 -0.5936
13719TIP3    H241099   6.679   2.634   4.270 -1.0589  1.0646  0.2514
13720TIP3   OH241100   0.751   4.996   4.485  0.1376 -0.2304 -0.6042
13720TIP3    H141101   0.688   4.937   4.526 -0.5906  1.0015  0.0695
13720TIP3    H241102   0.802   4.938   4.427 -2.9393 -0.9958 -2.8572
13721TIP3   OH241103   3.319   2.364   3.734  0.1415  0.9176  0.3629
13721TIP3    H141104   3.382   2.324   3.674 -0.9001  2.0962 -1.6705
13721TIP3    H241105   3.333   2.458   3.723 -2.1656  1.2331 -0.4974
13722TIP3   OH241106   4.850   4.843   0.078  0.0257  0.2775  0.2191
13722TIP3    H141107   4.833   4.840  -0.017 -0.5581 -1.7727  0.3459
13722TIP3    H241108   4.886   4.757   0.098 -0.5313  0.4277  1.9784
13723TIP3   OH241109   3.010   1.901   5.004  0.3310 -0.2200 -0.2719
13723TIP3    H141110   2.998   1.987   5.045  1.6167 -0.5764  0.9107
13723TIP3    H241111   3.003   1.919   4.910  1.7713  1.4336 -0.1230
13724TIP3   OH241112   4.036   7.296   1.083 -0.8005  0.5794  0.1033
13724TIP3    H141113   4.073   7.333   1.164  2.0736 -1.0765 -0.3131
13724TIP3    H241114   4.021   7.372   1.027  0.7873  1.5014  0.8416
13725TIP3   OH241115   3.852   1.622   0.911 -0.3566 -0.0233 -0.0661
13725TIP3    H141116   3.821   1.709   0.884 -0.6026  0.1352  0.6863
13725TIP3    H241117   3.948   1.630   0.912 -0.3482 -0.0248 -0.8453
13726TIP3   OH241118   7.888   0.675   0.688 -0.2377  0.1518  0.1658
13726TIP3    H141119   7.859   0.606   0.629 -1.8369 -0.3257  1.4320
13726TIP3    H241120   7.957   0.634   0.740 -0.5996 -0.2442  0.3432
13727TIP3   OH241121   5.567   3.697   4.276 -0.1087 -0.1593 -0.2310
13727TIP3    H141122   5.610   3.667   4.196 -2.0714 -1.1008 -0.9911
13727TIP3    H241123   5.599   3.638   4.344  0.4909 -0.2561 -0.5854
13728TIP3   OH241124   5.305   3.731   5.779  0.0628  0.3024  0.0864
13728TIP3    H141125   5.320   3.740   5.685 -0.6085  0.1057 -0.0455
13728TIP3    H241126   5.226   3.782   5.796  0.7495  1.1799  0.7295
13729TIP3   OH241127   5.266   5.104   6.457 -0.1051  0.9697  0.4175
13729TIP3    H141128   5.219   5.106   6.374  2.1539  3.8112 -1.0005
13729TIP3    H241129   5.340   5.045   6.441 -1.7035 -1.5666  1.8262
13730TIP3   OH241130   1.671   5.391   3.228  0.5275  0.5499  0.1034
13730TIP3    H141131   1.606   5.439   3.177 -1.1888 -1.2088  0.5124
13730TIP3    H241132   1.749   5.389   3.172 -0.9114 -0.3206 -1.9637
13731TIP3   OH241133   3.998   6.738   4.129 -0.0215  0.1431 -0.5147
13731TIP3    H141134   4.031   6.827   4.114 -1.4039  0.8662  0.5469
13731TIP3    H241135   3.968   6.709   4.042  0.6071  0.6251 -0.9027
13732TIP3   OH241136   6.292   7.507   2.876 -0.1763 -0.1977  0.2715
13732TIP3    H141137   6.313   7.483   2.966 -0.7531 -0.9250  0.2216
13732TIP3    H241138   6.215   7.456   2.855 -0.5827  0.6403 -0.3427
13733TIP3   OH241139   4.627   6.698   4.424  0.1780  0.1636  0.0871
13733TIP3    H141140   4.722   6.709   4.429  0.2755 -0.8732  1.1411
13733TIP3    H241141   4.604   6.656   4.507 -1.7828  4.1562  1.8893
13734TIP3   OH241142   2.186   3.180   2.327  0.0006 -0.0800  0.2375
13734TIP3    H141143   2.246   3.112   2.357  1.0065  0.6551 -0.0330
13734TIP3    H241144   2.206   3.190   2.234 -0.4971  0.2259  0.1593
13735TIP3   OH241145   1.300   6.086   5.103 -0.7051 -0.1633 -0.6658
13735TIP3    H141146   1.263   6.001   5.128 -2.1806  0.7585  0.5217
13735TIP3    H241147   1.224   6.136   5.071 -0.4431  1.6109  1.2807
13736TIP3   OH241148   4.290   7.366   5.995 -0.2130  0.0937 -0.4059
13736TIP3    H141149   4.338   7.434   6.042 -0.4467  0.0248 -0.0624
13736TIP3    H241150   4.302   7.287   6.047 -0.7761  0.0967 -0.2653
13737TIP3   OH241151   0.128   3.214   0.976  0.2797 -0.8325 -0.2642
13737TIP3    H141152   0.081   3.272   0.916 -1.9190 -0.7882  1.3460
13737TIP3    H241153   0.214   3.255   0.987 -0.1526  0.4596 -1.4799
13738TIP3   OH241154   2.441   0.490   3.998 -0.3739  0.4667  0.1185
13738TIP3    H141155   2.385   0.451   4.065 -1.5516  0.4680 -0.8397
13738TIP3    H241156   2.463   0.577   4.033 -0.5318  0.2647  0.7317
13739TIP3   OH241157   1.360   0.666   4.847 -0.5400  0.7547 -0.2927
13739TIP3    H141158   1.410   0.597   4.804  1.7931  1.9282  0.3985
13739TIP3    H241159   1.378   0.654   4.941 -0.9171  1.6773 -0.0896
13740TIP3   OH241160   1.418   7.404   4.618  0.1344 -0.1101  0.3320
13740TIP3    H141161   1.402   7.493   4.584 -0.6634 -0.9563 -1.6421
13740TIP3    H241162   1.331   7.370   4.637  0.3425 -0.9091 -0.1154
13741TIP3   OH241163   4.615   7.237   2.625 -0.4448  0.1101 -0.6077
13741TIP3    H141164   4.556   7.276   2.561  2.0496  0.3831 -2.9045
13741TIP3    H241165   4.649   7.158   2.582  0.5411 -0.2650  0.7807
13742TIP3   OH241166   3.343   5.379   3.428  0.0805  0.1879 -0.1514
13742TIP3    H141167   3.281   5.368   3.500  0.3468  1.8174  0.3730
13742TIP3    H241168   3.414   5.317   3.447 -0.4611 -0.3149  0.2681
13743TIP3   OH241169   6.832   2.133   3.550 -0.4450 -0.6171 -0.0348
13743TIP3    H141170   6.880   2.103   3.628 -0.0169 -0.6198 -0.2939
13743TIP3    H241171   6.855   2.226   3.542  0.7387 -0.9727 -1.0255
13744TIP3   OH241172   6.477   7.528   3.538  0.9103 -0.9289 -0.2248
13744TIP3    H141173   6.482   7.440   3.573 -1.5757 -0.9634  0.2016
13744TIP3    H241174   6.384   7.543   3.524  1.3914  1.0861 -1.7130
13745TIP3   OH241175   5.502   1.362   3.658  0.0934  0.0594 -0.1592
13745TIP3    H141176   5.504   1.406   3.743  1.4169 -0.7452  0.2600
13745TIP3    H241177   5.490   1.269   3.680 -0.5027 -0.0514 -0.9120
13746TIP3   OH241178   4.244   5.619   5.090 -0.3846 -0.4001 -0.6722
13746TIP3    H141179   4.294   5.582   5.163  1.1515  0.0773 -1.4262
13746TIP3    H241180   4.153   5.614   5.117  0.1635  0.0039  1.3835
13747TIP3   OH241181   5.136   5.866   3.309 -0.0917 -0.0703 -0.3212
13747TIP3    H141182   5.088   5.789   3.278 -0.0938  0.3781 -1.4635
13747TIP3    H241183   5.071   5.916   3.358 -0.3540 -0.2859 -0.4412
13748TIP3   OH241184   8.062   2.002   4.049  0.0693  0.3000 -0.4833
13748TIP3    H141185   8.112   1.928   4.084 -0.4743  0.0968 -0.1123
13748TIP3    H241186   8.118   2.040   3.982 -0.1015 -1.1574 -1.5014
13749TIP3   OH241187   5.257   2.028   0.929 -0.0788 -0.2163 -0.1473
13749TIP3    H141188   5.310   2.039   1.008 -0.3438 -0.0026  0.0015
13749TIP3    H241189   5.242   2.117   0.898 -0.6375 -0.2586 -0.0006
13750TIP3   OH241190   2.528   2.938   4.280  0.1690  0.7792  0.3478
13750TIP3    H141191   2.439   2.913   4.256  0.7265  0.8934 -2.1456
13750TIP3    H241192   2.530   3.033   4.267  1.4696  0.4305 -3.0912
13751TIP3   OH241193   5.925   7.081   1.850  0.0820  0.2521  0.2440
13751TIP3    H141194   6.013   7.059   1.818 -0.5086 -0.9799 -0.5752
13751TIP3    H241195   5.909   7.018   1.921 -0.3423  0.1399  0.0492
13752TIP3   OH241196   7.405   0.174   2.156 -0.9345 -0.2258 -0.5226
13752TIP3    H141197   7.482   0.226   2.180 -0.7734 -0.0712 -1.3290
13752TIP3    H241198   7.392   0.115   2.230 -0.1581 -0.1212 -0.2847
13753TIP3   OH241199   4.975   7.381   1.044 -0.8220  0.3000 -0.9320
13753TIP3    H141200   5.033   7.436   0.992 -0.6971  0.5407 -0.5433
13753TIP3    H241201   4.941   7.439   1.112 -0.5666 -0.1280 -0.4256
13754TIP3   OH241202   2.344   4.214   4.470  0.0086 -0.1121 -0.1946
13754TIP3    H141203   2.340   4.301   4.430 -1.9005 -0.5041 -0.9979
13754TIP3    H241204   2.253   4.184   4.470  0.2802 -1.1447  2.2893
13755TIP3   OH241205   4.995   6.770   2.283 -0.6447 -0.0326  0.5159
13755TIP3    H141206   4.927   6.703   2.293 -0.2431 -0.6757 -0.8004
13755TIP3    H241207   4.961   6.846   2.331 -2.2459 -0.3710 -0.0171
13756TIP3   OH241208   6.488   0.532   0.714  0.8013  0.4328  0.1175
13756TIP3    H141209   6.541   0.555   0.638  1.9017 -0.1333  0.6799
13756TIP3    H241210   6.484   0.436   0.712 -0.9756  0.4942 -0.4051
13757TIP3   OH241211   3.716   0.446   3.165  0.4314 -0.1810  0.3104
13757TIP3    H141212   3.697   0.497   3.244 -0.8620  0.2144 -0.2406
13757TIP3    H241213   3.809   0.425   3.173  0.4724  0.3711  1.6372
13758TIP3   OH241214   3.421   6.807   4.510 -0.0347 -0.2257  0.3843
13758TIP3    H141215   3.465   6.765   4.436  0.1904 -0.0601  0.4235
13758TIP3    H241216   3.406   6.736   4.572  0.1006 -0.3012  0.3321
13759TIP3   OH241217   3.414   6.239   0.922 -0.2738  0.0262  0.0321
13759TIP3    H141218   3.502   6.273   0.906 -0.7172  0.5170 -1.5165
13759TIP3    H241219   3.384   6.286   1.000  1.2708 -1.0596  1.3507
13760TIP3   OH241220   2.952   2.807   3.826  0.4681  0.0518  0.0717
13760TIP3    H141221   2.973   2.748   3.754 -1.1451 -0.9169  0.3517
13760TIP3    H241222   2.910   2.751   3.891 -1.0320  1.4777  0.3873
13761TIP3   OH241223   2.157   4.003   5.267  0.6837  0.1700  0.3071
13761TIP3    H141224   2.154   4.038   5.357 -2.7738  2.9790 -0.6501
13761TIP3    H241225   2.171   4.080   5.212  0.2363 -1.1002 -1.6974
13762TIP3   OH241226   6.291   3.092   6.758 -0.2561 -0.2396 -0.2866
13762TIP3    H141227   6.367   3.139   6.724  0.4175 -0.4055  0.9394
13762TIP3    H241228   6.291   3.110   6.852 -1.3341 -0.8117 -0.1593
13763TIP3   OH241229   1.442   4.688   5.124  0.3679  0.4758 -0.1074
13763TIP3    H141230   1.528   4.694   5.168 -0.6096  1.2322  1.8552
13763TIP3    H241231   1.396   4.767   5.154 -1.4024 -0.4822 -0.2171
13764TIP3   OH241232   5.328   3.712   4.943 -0.0568  0.5792 -0.3778
13764TIP3    H141233   5.297   3.778   4.881 -0.8052  0.9044  0.3260
13764TIP3    H241234   5.249   3.663   4.967  0.4372 -0.3960 -0.6642
13765TIP3   OH241235   1.348   5.315   2.144 -0.2440  0.4774 -0.3811
13765TIP3    H141236   1.406   5.285   2.074 -0.6085 -0.4342 -0.3147
13765TIP3    H241237   1.397   5.298   2.224 -0.7696 -0.7513 -0.2974
13766TIP3   OH241238   1.520   3.346   4.975 -0.3404 -0.1113  0.2294
13766TIP3    H141239   1.495   3.330   4.884 -2.0937 -0.0451  0.6657
13766TIP3    H241240   1.475   3.278   5.025 -2.4204  1.9421  1.3960
13767TIP3   OH241241   5.332   5.614   6.446  0.0246  0.1293 -0.5598
13767TIP3    H141242   5.267   5.545   6.434 -2.9962  2.6288  0.4227
13767TIP3    H241243   5.304   5.685   6.388  2.3576  1.0867 -0.6563
13768TIP3   OH241244   2.846   0.452   4.360 -0.1616  0.7448  0.2817
13768TIP3    H141245   2.833   0.402   4.441 -1.6440  0.7096  0.0587
13768TIP3    H241246   2.860   0.385   4.292 -1.7217  0.6150  0.0554
13769TIP3   OH241247   5.433   6.412   5.301  0.4899 -0.5086  0.2775
13769TIP3    H141248   5.383   6.421   5.382 -0.5795  2.9133 -0.6030
13769TIP3    H241249   5.371   6.375   5.239 -0.2113  1.1651 -0.0884
13770TIP3   OH241250   5.806   1.796   5.424 -0.1530 -0.4973  0.2348
13770TIP3    H141251   5.777   1.837   5.506 -0.4868  1.2200 -0.6862
13770TIP3    H241252   5.865   1.726   5.451 -1.6979 -1.1956  2.0079
13771TIP3   OH241253   1.090   2.052   5.048 -0.4445  0.3181  0.5261
13771TIP3    H141254   1.105   2.146   5.037 -1.2540  0.3211 -0.7579
13771TIP3    H241255   1.094   2.038   5.143  0.4521  1.5042  0.6867
13772TIP3   OH241256   0.370   2.859   3.420 -0.8318 -0.5124  0.0910
13772TIP3    H141257   0.298   2.812   3.377 -0.1293 -1.0093 -0.5757
13772TIP3    H241258   0.426   2.888   3.349  0.8823 -2.2005  0.6550
13773TIP3   OH241259   5.536   7.026   2.410 -0.2240  0.1346 -0.0231
13773TIP3    H141260   5.584   7.000   2.489 -0.7148 -0.0623  0.2086
13773TIP3    H241261   5.587   7.099   2.375  0.3710 -0.2093  0.1023
13774TIP3   OH241262   6.599   2.907   3.675 -0.6418 -0.4751 -0.9534
13774TIP3    H141263   6.673   2.967   3.670 -0.0362 -0.9308  1.2774
13774TIP3    H241264   6.522   2.962   3.657  0.0799  0.3818 -1.5003
13775TIP3   OH241265   7.598   2.225   3.217  0.6926  0.7306  0.5608
13775TIP3    H141266   7.507   2.234   3.247  0.6956 -1.0968  1.1882
13775TIP3    H241267   7.643   2.179   3.288  1.3175 -1.3272 -1.0734
13776TIP3   OH241268   8.025   5.170   5.406 -0.5366  0.5702 -0.4340
13776TIP3    H141269   8.111   5.164   5.364  0.3031  0.4797  1.2026
13776TIP3    H241270   8.034   5.244   5.467 -1.6520  0.6102 -0.3042
13777TIP3   OH241271   1.588   1.717   4.105 -0.4487 -0.0936 -0.7379
13777TIP3    H141272   1.543   1.801   4.111 -0.7274 -0.3316  1.0677
13777TIP3    H241273   1.678   1.739   4.080 -0.7383  0.6463 -1.1613
13778TIP3   OH241274   8.087   0.137   1.363  0.4238 -0.6525  0.7981
13778TIP3    H141275   8.023   0.066   1.372  0.1712 -0.4916  0.3110
13778TIP3    H241276   8.034   0.214   1.345  0.7378 -0.4560  0.7144
13779TIP3   OH241277   5.821   6.019   2.296 -0.5062  0.5166 -0.0840
13779TIP3    H141278   5.848   5.933   2.264 -0.7964  0.6081 -0.5950
13779TIP3    H241279   5.739   6.002   2.343 -0.5110  0.4950 -0.0994
13780TIP3   OH241280   1.353   1.070   2.996  0.1723  0.1690 -0.0183
13780TIP3    H141281   1.413   1.038   2.928  0.8945 -1.3399  1.2583
13780TIP3    H241282   1.393   1.042   3.078 -2.4919 -1.3381  0.8875
13781TIP3   OH241283   7.006   0.567   0.035 -0.1889 -0.8668  0.2659
13781TIP3    H141284   7.055   0.635   0.081 -0.4697 -0.9409  0.6835
13781TIP3    H241285   7.054   0.553  -0.046 -1.6902  1.9315 -1.2649
13782TIP3   OH241286   4.121   4.502   0.102  0.0703  0.2383  0.3845
13782TIP3    H141287   4.064   4.575   0.126  0.8032  0.5256  1.3190
13782TIP3    H241288   4.128   4.449   0.182 -0.5312 -0.9235 -0.3073
13783TIP3   OH241289   1.487   4.813   0.691 -0.7697 -0.2988  0.1990
13783TIP3    H141290   1.561   4.797   0.632 -0.6812 -1.4018  0.5743
13783TIP3    H241291   1.410   4.788   0.641 -1.0768  2.2605 -0.7221
13784TIP3   OH241292   2.115   5.987   6.536  0.0631  0.6427 -0.9518
13784TIP3    H141293   2.083   5.900   6.512 -0.9957  0.3065  1.3987
13784TIP3    H241294   2.198   5.971   6.580 -0.4563  0.7188  0.0896
13785TIP3   OH241295   6.757   6.014   3.678  0.0973  0.2485  0.4111
13785TIP3    H141296   6.749   6.101   3.640  0.3582 -0.3740 -1.1448
13785TIP3    H241297   6.848   5.989   3.662 -0.0467 -0.4277  0.5957
13786TIP3   OH241298   3.849   1.991   6.584  0.1883  0.0213 -0.5215
13786TIP3    H141299   3.781   1.924   6.580 -0.1199  0.3011 -0.0902
13786TIP3    H241300   3.805   2.066   6.624  0.6325  0.3545 -0.6555
13787TIP3   OH241301   1.385   6.121   4.529 -0.2562  0.3991 -0.0446
13787TIP3    H141302   1.425   6.198   4.487 -0.3774  1.1863  1.2506
13787TIP3    H241303   1.459   6.077   4.572  0.1872 -1.3697 -2.4044
13788TIP3   OH241304   5.750   7.306   4.464 -0.1654 -0.9213 -0.7083
13788TIP3    H141305   5.788   7.358   4.393 -0.1306 -0.7836 -0.5892
13788TIP3    H241306   5.767   7.358   4.543 -1.2540 -0.5048 -0.7408
13789TIP3   OH241307   7.795   7.161   4.524 -0.1416 -0.1279  0.3230
13789TIP3    H141308   7.761   7.075   4.502  1.6031 -0.3811 -1.7996
13789TIP3    H241309   7.851   7.146   4.600 -0.2613 -0.7700  0.2906
13790TIP3   OH241310   6.979   0.724   6.327  0.1164  0.5941 -0.4799
13790TIP3    H141311   7.023   0.758   6.248 -1.2033 -0.2429 -1.6136
13790TIP3    H241312   6.957   0.633   6.305 -0.1911  0.3170  0.9022
13791TIP3   OH241313   7.595   6.237   2.530 -0.5970  0.4007  0.2750
13791TIP3    H141314   7.608   6.196   2.445 -2.6960 -0.0040  0.0790
13791TIP3    H241315   7.681   6.236   2.571  0.5455  0.9206 -1.9571
13792TIP3   OH241316   0.511   6.491   3.760 -0.0189 -0.2552  0.1812
13792TIP3    H141317   0.481   6.513   3.848  1.0259 -1.5199  0.8915
13792TIP3    H241318   0.494   6.398   3.751  0.8414 -0.3571 -0.5521
13793TIP3   OH241319   4.273   2.958   5.413 -0.2800 -0.0133  0.4203
13793TIP3    H141320   4.308   2.907   5.340 -1.5940  2.6541 -2.2800
13793TIP3    H241321   4.332   3.032   5.421 -1.2178  0.7165  0.7431
13794TIP3   OH241322   6.895   0.523   3.082  0.0707 -0.2413  0.1981
13794TIP3    H141323   6.836   0.451   3.060  0.0546 -0.4813  1.0201
13794TIP3    H241324   6.856   0.600   3.040 -2.4861  0.2048  3.0871
13795TIP3   OH241325   5.852   6.531   1.686 -0.2353  0.3483 -0.0255
13795TIP3    H141326   5.781   6.482   1.645  1.4584 -2.5326  0.2084
13795TIP3    H241327   5.882   6.593   1.619 -1.0088 -0.4931 -1.1650
13796TIP3   OH241328   3.761   6.507   3.389  0.0469  0.5134 -0.0772
13796TIP3    H141329   3.831   6.552   3.341 -0.0320 -0.1729 -0.8520
13796TIP3    H241330   3.807   6.465   3.462  0.6418 -0.8238 -1.1791
13797TIP3   OH241331   6.283   7.106   0.302 -0.2052 -0.0644  0.2586
13797TIP3    H141332   6.192   7.109   0.330 -0.2636 -1.2076  0.2159
13797TIP3    H241333   6.309   7.015   0.313  1.1564  0.3782  0.9716
13798TIP3   OH241334   7.220   5.051   5.863 -0.1362 -0.3464  0.0430
13798TIP3    H141335   7.301   5.013   5.897 -0.0601  0.5899  0.9944
13798TIP3    H241336   7.250   5.126   5.811 -0.2361 -1.9274 -2.4339
13799TIP3   OH241337   7.111   5.918   5.117 -0.1809  0.1116  0.4449
13799TIP3    H141338   7.145   5.842   5.164  0.0610 -0.9827 -1.3926
13799TIP3    H241339   7.024   5.891   5.088 -0.3492  0.7891  0.3024
13800TIP3   OH241340   3.537   3.395   2.134 -0.6725 -0.3188 -0.5027
13800TIP3    H141341   3.442   3.391   2.140 -0.6745 -0.4788 -0.6186
13800TIP3    H241342   3.555   3.472   2.081 -0.7651 -0.7154 -1.1262
13801TIP3   OH241343   4.657   2.409   2.016  0.1003 -0.4361 -0.4274
13801TIP3    H141344   4.657   2.425   1.921 -0.7623  0.2903 -0.3097
13801TIP3    H241345   4.606   2.329   2.026 -0.2030 -0.2570 -0.5364
13802TIP3   OH241346   1.262   1.115   4.588 -0.1487 -0.5273 -0.0770
13802TIP3    H141347   1.172   1.085   4.600  0.0317 -1.9045 -1.6902
13802TIP3    H241348   1.312   1.064   4.651 -0.5635  1.0264  1.6034
13803TIP3   OH241349   8.359   6.463   4.413 -0.1152 -0.3468  0.9398
13803TIP3    H141350   8.343   6.378   4.454 -0.6117 -0.8946 -0.3252
13803TIP3    H241351   8.445   6.453   4.371 -1.2510 -1.1816 -1.3926
13804TIP3   OH241352   1.025   5.760   3.131  0.2032  0.1297 -0.1256
13804TIP3    H141353   1.061   5.848   3.143 -1.7773  0.9359  0.4635
13804TIP3    H241354   0.972   5.767   3.052 -0.4653 -0.3381  0.2691
13805TIP3   OH241355   1.347   1.123   6.149 -0.0514 -0.0730  0.6318
13805TIP3    H141356   1.422   1.125   6.208 -0.6892 -0.0301  1.4419
13805TIP3    H241357   1.275   1.159   6.199 -1.1545 -2.1201  0.6393
13806TIP3   OH241358   0.163   6.950   4.702 -0.6547  0.2632 -0.4617
13806TIP3    H141359   0.158   6.985   4.791  0.0632  0.7720 -0.6109
13806TIP3    H241360   0.104   7.006   4.652  1.3356  2.0942 -0.9317
13807TIP3   OH241361   3.189   1.667   5.377  0.1289 -0.1646 -0.1128
13807TIP3    H141362   3.154   1.592   5.424  0.7965 -0.6869 -0.4175
13807TIP3    H241363   3.250   1.629   5.314  0.5233  0.6399 -0.2339
13808TIP3   OH241364   7.624   5.830   6.035  0.2158 -0.4598  0.2624
13808TIP3    H141365   7.613   5.784   6.118  0.3746 -0.4621  0.2829
13808TIP3    H241366   7.674   5.909   6.058  0.0581 -0.3422  0.2066
13809TIP3   OH241367   8.172   2.139   6.249 -0.5784  0.2792  0.3143
13809TIP3    H141368   8.221   2.122   6.168 -1.4191 -4.3401  0.5071
13809TIP3    H241369   8.230   2.194   6.301  1.8281 -0.0718 -1.7718
13810TIP3   OH241370   2.276   6.333   0.487  0.3341  0.2702 -0.1081
13810TIP3    H141371   2.211   6.332   0.557  0.9075 -1.6697  0.4352
13810TIP3    H241372   2.358   6.308   0.529  1.0012  0.5418 -1.2029
13811TIP3   OH241373   3.024   7.636   0.697 -0.4431 -0.1323 -0.2520
13811TIP3    H141374   2.997   7.715   0.744  1.5821  1.2925 -1.3766
13811TIP3    H241375   2.966   7.567   0.732 -1.1131  1.4596  2.0055
13812TIP3   OH241376   3.870   0.679   0.050  0.6887  0.0825 -1.0975
13812TIP3    H141377   3.837   0.764   0.080 -2.3557 -1.0065 -0.9787
13812TIP3    H241378   3.940   0.657   0.112  1.3390  2.3230 -0.9500
13813TIP3   OH241379   0.904   3.759   0.844 -0.0223  0.3124 -0.9503
13813TIP3    H141380   0.964   3.769   0.917 -2.3091 -2.4551  1.5803
13813TIP3    H241381   0.854   3.841   0.842 -1.0338 -0.1321  1.8155
13814TIP3   OH241382   6.472   5.440   0.573  0.1568  0.7957  0.0626
13814TIP3    H141383   6.402   5.468   0.631  0.2697 -2.7040  2.1765
13814TIP3    H241384   6.506   5.521   0.535 -3.3839  2.8089  0.7907
13815TIP3   OH241385   0.700   1.538   2.443  0.2553 -0.1710  0.2441
13815TIP3    H141386   0.634   1.499   2.500 -0.3621 -0.7036 -0.8041
13815TIP3    H241387   0.711   1.475   2.372 -2.1388  2.2551 -2.5455
13816TIP3   OH241388   1.929   6.058   2.351  0.2161 -0.5422  0.0124
13816TIP3    H141389   1.948   6.119   2.279 -1.5671 -0.6438 -0.5859
13816TIP3    H241390   1.992   6.083   2.420 -0.1461  1.7083 -0.3731
13817TIP3   OH241391   1.693   0.200   3.234 -0.1344 -0.2345  0.5473
13817TIP3    H141392   1.676   0.172   3.144 -0.1990 -0.9709  0.7809
13817TIP3    H241393   1.620   0.258   3.256 -0.8446 -1.1062  0.5669
13818TIP3   OH241394   1.126   3.385   2.971 -0.5173 -0.2062  0.5051
13818TIP3    H141395   1.157   3.475   2.981 -0.2945 -0.4079  1.6946
13818TIP3    H241396   1.039   3.394   2.931  0.8800  0.3722 -2.7630
13819TIP3   OH241397   1.769   3.478   4.917 -0.4807 -0.2077  0.0853
13819TIP3    H141398   1.757   3.548   4.980  1.4656  2.3637 -2.1809
13819TIP3    H241399   1.683   3.437   4.910 -1.3830  1.1049  2.3606
13820TIP3   OH241400   8.378   4.902   1.768 -0.2974 -0.3766 -0.6653
13820TIP3    H141401   8.398   4.992   1.745  2.8086 -0.6025  0.5887
13820TIP3    H241402   8.365   4.904   1.863 -2.5030 -0.9722 -0.8986
13821TIP3   OH241403   7.833   3.854   0.938  0.1488 -0.2328 -0.8993
13821TIP3    H141404   7.774   3.887   1.006 -0.0004 -0.7457 -0.7765
13821TIP3    H241405   7.903   3.810   0.987  1.3972  1.5695 -0.9784
13822TIP3   OH241406   7.977   0.350   2.946 -0.3644 -0.2624 -0.2753
13822TIP3    H141407   8.037   0.331   2.874 -0.0545 -0.9907  0.1653
13822TIP3    H241408   8.031   0.342   3.025 -0.3571  1.8959 -0.0190
13823TIP3   OH241409   1.804   7.697   4.540 -0.0251  0.0167  0.3612
13823TIP3    H141410   1.786   7.772   4.596  0.0519 -0.2575  0.7566
13823TIP3    H241411   1.741   7.705   4.468  1.0320  1.3389 -0.4618
13824TIP3   OH241412   3.231   3.810   2.388  0.3543  0.4854  0.2093
13824TIP3    H141413   3.288   3.751   2.338  0.4786  2.0333 -1.5874
13824TIP3    H241414   3.144   3.770   2.383  0.5911  0.0114 -0.2191
13825TIP3   OH241415   3.553   4.129   5.843  0.2107 -0.3340  0.4294
13825TIP3    H141416   3.601   4.210   5.825  0.3742 -0.4310  0.4281
13825TIP3    H241417   3.544   4.087   5.757 -1.0417  0.3255  0.2189
13826TIP3   OH241418   2.915   0.798   6.250 -0.1438  0.0757 -0.3492
13826TIP3    H141419   2.999   0.771   6.214  0.8366  0.3946  1.5998
13826TIP3    H241420   2.888   0.871   6.194  0.2343 -0.8229 -1.7561
13827TIP3   OH241421   0.790   3.485   1.551 -0.0194 -0.5563 -0.1550
13827TIP3    H141422   0.799   3.511   1.643 -2.3912  0.7847 -0.2304
13827TIP3    H241423   0.762   3.393   1.555  1.4350 -1.0068  0.3641
13828TIP3   OH241424   6.223   7.220   1.733 -0.2187 -0.4611 -0.2648
13828TIP3    H141425   6.221   7.200   1.826 -0.2301  1.3653  0.1629
13828TIP3    H241426   6.200   7.137   1.690  2.3813 -2.0707  1.1887
13829TIP3   OH241427   4.317   6.367   2.616  0.0473 -0.1940  0.5004
13829TIP3    H141428   4.285   6.278   2.631 -0.8395 -0.1093 -0.7605
13829TIP3    H241429   4.320   6.376   2.521 -0.5937  1.3813  0.6014
13830TIP3   OH241430   4.904   3.025   0.455 -0.0851  0.1079  0.3327
13830TIP3    H141431   4.918   3.093   0.389 -0.3170  0.0636  0.2390
13830TIP3    H241432   4.860   2.954   0.408  2.0029 -0.9876 -0.0910
13831TIP3   OH241433   2.902   0.082   5.091 -0.1837 -0.0130 -0.4639
13831TIP3    H141434   2.844   0.157   5.075 -0.2255 -0.1055 -0.7501
13831TIP3    H241435   2.847   0.019   5.137 -0.3523 -0.1604 -0.8673
13832TIP3   OH241436   6.274   7.706   0.570  0.1062  0.5351  0.6398
13832TIP3    H141437   6.353   7.654   0.558 -1.6008 -1.6725 -2.7271
13832TIP3    H241438   6.269   7.762   0.493 -1.5514  0.6968  0.8269
13833TIP3   OH241439   8.361   5.865   5.903  0.6529 -0.0968 -0.3480
13833TIP3    H141440   8.357   5.942   5.960  2.1948  0.6421 -1.1911
13833TIP3    H241441   8.395   5.795   5.960  0.8060  0.2574  0.0026
13834TIP3   OH241442   6.107   5.416   0.642 -0.4245  0.2837 -0.6915
13834TIP3    H141443   6.179   5.367   0.682  0.2413  0.8003 -1.2275
13834TIP3    H241444   6.029   5.364   0.661 -0.0223  0.0817  0.5465
13835TIP3   OH241445   8.212   6.975   5.715  0.0633  0.2016  0.0382
13835TIP3    H141446   8.227   6.966   5.809 -0.4566  0.6077  0.1582
13835TIP3    H241447   8.292   6.940   5.675 -0.7806 -2.5615  0.5429
13836TIP3   OH241448   2.819   6.858   0.630 -0.6164  0.4419 -0.4262
13836TIP3    H141449   2.812   6.765   0.606  1.5620  0.0852  0.0680
13836TIP3    H241450   2.729   6.888   0.634 -1.3515 -1.2873 -1.9779
13837TIP3   OH241451   3.798   2.123   5.197 -0.1772 -0.5291  0.1908
13837TIP3    H141452   3.828   2.213   5.183 -1.0983 -0.2881 -0.3347
13837TIP3    H241453   3.703   2.129   5.197 -0.2497 -1.4786  0.3677
13838TIP3   OH241454   8.242   4.310   6.209 -0.5563  0.1626  0.0628
13838TIP3    H141455   8.225   4.242   6.273  0.8273 -0.4117 -0.1618
13838TIP3    H241456   8.251   4.390   6.260 -1.8507  0.1572  0.3525
13839TIP3   OH241457   5.681   5.213   0.735  0.7165 -0.3384  0.2628
13839TIP3    H141458   5.620   5.174   0.799  1.5983 -0.6701  0.9226
13839TIP3    H241459   5.708   5.295   0.776  0.3746  0.0277 -0.2373
13840TIP3   OH241460   4.671   5.453   1.620 -0.3762 -0.1298  0.0088
13840TIP3    H141461   4.716   5.479   1.540  1.0503  0.3620  0.9258
13840TIP3    H241462   4.721   5.377   1.652 -2.2434 -1.7058 -0.6755
13841TIP3   OH241463   6.190   5.443   2.714  0.0336  0.1154 -0.2546
13841TIP3    H141464   6.232   5.363   2.681  0.2885  0.5927 -1.1128
13841TIP3    H241465   6.204   5.440   2.809  0.9342 -0.3568 -0.3910
13842TIP3   OH241466   2.575   6.209   2.982 -0.0051  0.0781  0.8703
13842TIP3    H141467   2.633   6.284   2.981 -1.4284  1.2685  2.1251
13842TIP3    H241468   2.487   6.246   2.989 -0.9273 -1.6575 -0.5758
13843TIP3   OH241469   7.127   4.288   3.061 -0.0191  0.0034 -0.3206
13843TIP3    H141470   7.125   4.341   3.140 -1.2878  0.9771 -0.9745
13843TIP3    H241471   7.099   4.201   3.089  0.1699  0.1687  0.3982
13844TIP3   OH241472   4.087   6.299   6.113 -0.7434 -0.4075 -0.0742
13844TIP3    H141473   4.150   6.275   6.180  1.6980  2.0975 -1.2572
13844TIP3    H241474   4.088   6.225   6.052  2.5036  0.1787 -0.9415
13845TIP3   OH241475   3.905   1.054   5.604  0.2182  0.1061 -0.1320
13845TIP3    H141476   3.869   0.984   5.549 -3.0790  1.9417 -0.5638
13845TIP3    H241477   3.923   1.126   5.543  2.9591 -0.0263  0.3879
13846TIP3   OH241478   1.065   1.470   2.361  0.1574  0.2680 -0.0270
13846TIP3    H141479   0.981   1.515   2.368 -0.7845 -1.4009  0.2029
13846TIP3    H241480   1.125   1.522   2.414 -0.4997  1.9696 -0.8812
13847TIP3   OH241481   2.001   0.554   1.619 -0.6314 -0.1941  0.4050
13847TIP3    H141482   2.090   0.588   1.626 -0.4327 -0.5046 -0.5072
13847TIP3    H241483   1.947   0.632   1.603 -0.2489 -0.2264 -1.1300
13848TIP3   OH241484   2.090   4.629   4.858  0.1054  0.5076  0.5264
13848TIP3    H141485   2.167   4.586   4.820  0.5393  0.9591  0.8647
13848TIP3    H241486   2.118   4.652   4.947 -0.4568  0.5990  0.6796
13849TIP3   OH241487   8.149   0.391   4.197 -0.1311 -0.1109  0.2504
13849TIP3    H141488   8.078   0.328   4.208 -0.3573  0.2003  0.6097
13849TIP3    H241489   8.190   0.396   4.284 -0.7084  0.9351  0.4883
13850TIP3   OH241490   6.320   5.999   0.063  0.4666 -0.1165  0.7296
13850TIP3    H141491   6.355   6.087   0.052 -1.8876  0.7120 -1.2677
13850TIP3    H241492   6.226   6.013   0.080  0.0570 -2.2099  0.5004
13851TIP3   OH241493   6.188   0.862   5.736 -0.5207 -0.2148  0.0943
13851TIP3    H141494   6.250   0.789   5.735  0.4695  0.5966 -0.6891
13851TIP3    H241495   6.114   0.830   5.787 -0.0035 -1.6689 -0.0076
13852TIP3   OH241496   5.328   7.890   6.557  0.2149  0.2884 -0.1001
13852TIP3    H141497   5.359   7.841   6.633  0.5495  0.4363 -0.1373
13852TIP3    H241498   5.285   7.825   6.502 -2.5153  0.6317  1.4819
13853TIP3   OH241499   3.980   1.382   5.271  0.2158 -0.3343 -0.4130
13853TIP3    H141500   3.912   1.448   5.286 -0.3246 -1.0795  0.5090
13853TIP3    H241501   3.933   1.309   5.230  0.2010 -1.3210  1.2923
13854TIP3   OH241502   2.802   2.876   4.222  0.2329  0.7662 -0.2999
13854TIP3    H141503   2.712   2.905   4.237  0.5921  1.3144  0.8845
13854TIP3    H241504   2.793   2.782   4.203 -0.6709  1.0259 -1.2359
13855TIP3   OH241505   1.033   2.203   3.173  0.4063 -0.2366  0.5225
13855TIP3    H141506   1.066   2.281   3.217  0.8511  0.0173 -0.2491
13855TIP3    H241507   0.938   2.216   3.169  0.3808 -0.1529  1.1749
13856TIP3   OH241508   4.912   2.641   5.753 -0.4783  0.4583 -0.3722
13856TIP3    H141509   4.987   2.695   5.729 -0.3025  0.6981  0.6726
13856TIP3    H241510   4.868   2.690   5.823 -2.9179  1.4498 -2.4147
13857TIP3   OH241511   7.852   5.377   0.785  0.2306 -0.7179 -0.3319
13857TIP3    H141512   7.789   5.406   0.851  0.7463 -0.1263 -0.0931
13857TIP3    H241513   7.838   5.282   0.780 -0.1924 -0.6968  0.2249
13858TIP3   OH241514   2.426   5.609   1.197  0.1271  0.5421  0.5094
13858TIP3    H141515   2.435   5.577   1.107 -0.6711  1.8035 -0.0398
13858TIP3    H241516   2.396   5.699   1.188 -2.3391 -0.0380  2.0575
13859TIP3   OH241517   1.938   3.346   4.697 -0.6855 -0.1124  0.8146
13859TIP3    H141518   1.868   3.385   4.750 -2.4898 -0.9764 -0.7894
13859TIP3    H241519   1.903   3.261   4.669  0.7395 -0.3017 -0.5823
13860TIP3   OH241520   2.941   1.176   1.587  0.1585 -0.9105 -0.0477
13860TIP3    H141521   2.865   1.132   1.626 -1.7845  1.5882 -0.7324
13860TIP3    H241522   2.973   1.113   1.522 -1.4715 -1.9804  0.0983
13861TIP3   OH241523   4.039   0.073   5.695 -0.2329 -0.7099 -0.4474
13861TIP3    H141524   3.964   0.016   5.713  1.2245 -2.0410  1.8616
13861TIP3    H241525   4.058   0.115   5.779  0.8317  0.6130 -1.3054
13862TIP3   OH241526   5.999   7.143   0.415 -0.0783  0.5191 -0.1113
13862TIP3    H141527   5.913   7.184   0.417 -0.1545  0.3915 -0.6192
13862TIP3    H241528   5.981   7.050   0.401  0.1483  0.5370 -0.5479
13863TIP3   OH241529   4.513   0.149   6.546 -0.2307  0.2106  0.0871
13863TIP3    H141530   4.436   0.141   6.602 -0.2639 -0.4447 -0.0499
13863TIP3    H241531   4.547   0.060   6.538  0.9658  0.5792  0.7321
13864TIP3   OH241532   6.650   1.400   5.090 -0.0023 -0.4882 -0.0964
13864TIP3    H141533   6.710   1.465   5.053  0.0463 -0.9645 -0.8697
13864TIP3    H241534   6.567   1.447   5.101  0.9244  0.7158  2.6939
13865TIP3   OH241535   0.403   5.435   4.205  0.2058 -0.2662 -0.1853
13865TIP3    H141536   0.333   5.378   4.175 -1.9422  2.1507 -0.0967
13865TIP3    H241537   0.380   5.521   4.171  2.8875  0.7397  0.3057
13866TIP3   OH241538   6.726   0.096   1.833  0.3278  0.2784 -0.0698
13866TIP3    H141539   6.727   0.172   1.891 -0.5445  1.7093 -1.8454
13866TIP3    H241540   6.773   0.028   1.882 -0.3952  1.3782  2.3139
13867TIP3   OH241541   1.040   7.260   1.981 -0.1670 -0.0047 -0.3799
13867TIP3    H141542   0.953   7.223   1.962 -0.5221  1.6463 -2.1714
13867TIP3    H241543   1.031   7.295   2.070 -1.6866  1.0814 -0.9221
13868TIP3   OH241544   4.754   6.614   2.366  0.3207 -0.5716 -0.2402
13868TIP3    H141545   4.666   6.620   2.402 -0.8237 -2.0881 -2.5565
13868TIP3    H241546   4.804   6.565   2.431 -1.3115 -2.1407 -0.1066
13869TIP3   OH241547   7.415   1.628   1.650 -0.7155 -0.2101 -0.1618
13869TIP3    H141548   7.328   1.596   1.676 -0.2525 -1.3173  0.0989
13869TIP3    H241549   7.471   1.607   1.725 -0.2390  0.5823 -0.2881
13870TIP3   OH241550   2.256   0.686   6.672  0.3965  0.2634 -0.1086
13870TIP3    H141551   2.347   0.701   6.648 -0.0657 -0.8499 -3.0178
13870TIP3    H241552   2.260   0.633   6.752  2.2878  0.1188 -0.2646
13871TIP3   OH241553   0.855   0.201   6.164 -0.0425 -0.0242  0.1006
13871TIP3    H141554   0.818   0.193   6.076  0.3720 -0.0263 -0.0764
13871TIP3    H241555   0.922   0.268   6.155  1.6241 -1.6554 -0.1270
13872TIP3   OH241556   4.042   2.001   5.164  0.1124 -0.0665 -0.3908
13872TIP3    H141557   4.027   1.909   5.187 -0.0986  0.1647  0.4253
13872TIP3    H241558   3.955   2.042   5.170  0.3889  0.4312  0.4401
13873TIP3   OH241559   1.082   2.568   3.556 -0.5713 -0.1815  0.0381
13873TIP3    H141560   1.132   2.504   3.606  0.0002  0.1439 -0.1143
13873TIP3    H241561   1.126   2.651   3.571  0.1160 -0.1927 -1.6219
13874TIP3   OH241562   4.422   4.338   6.087  0.4062  0.0415 -0.3420
13874TIP3    H141563   4.340   4.296   6.063  0.5048 -0.0516 -0.5121
13874TIP3    H241564   4.402   4.382   6.170  0.2782 -0.2582 -0.2140
13875TIP3   OH241565   3.408   0.096   1.217  0.5532 -0.2281 -0.0317
13875TIP3    H141566   3.415   0.126   1.126 -1.5565 -3.2512 -1.3602
13875TIP3    H241567   3.490   0.049   1.233  0.9370  0.3136 -0.3403
13876TIP3   OH241568   3.098   0.001   2.905  0.2173 -0.4765 -0.8801
13876TIP3    H141569   3.080   0.090   2.873 -1.4394 -0.1566  0.7742
13876TIP3    H241570   3.177  -0.025   2.858  1.4906  2.3366 -0.5530
13877TIP3   OH241571   8.194   4.176   3.045  0.8786  0.2297  0.0401
13877TIP3    H141572   8.222   4.096   3.001  0.3297 -0.2202  0.4985
13877TIP3    H241573   8.275   4.210   3.085  1.2104  0.1837 -0.5730
13878TIP3   OH241574   5.463   2.704   0.207  0.0293  0.6295  0.3108
13878TIP3    H141575   5.412   2.772   0.250 -0.2901  0.0516  0.8701
13878TIP3    H241576   5.456   2.723   0.113 -0.1303  1.3001  0.4582
13879TIP3   OH241577   7.259   0.593   4.558  0.1142 -0.1502 -0.1114
13879TIP3    H141578   7.305   0.534   4.618 -0.7251  1.0361  1.7883
13879TIP3    H241579   7.168   0.562   4.559  0.3106 -0.9168 -1.8624
13880TIP3   OH241580   7.202   2.777   0.417  0.0164 -0.8469 -0.5068
13880TIP3    H141581   7.176   2.800   0.328  0.0871  1.8456  0.0839
13880TIP3    H241582   7.121   2.781   0.468  0.3233 -0.1998 -0.0615
13881TIP3   OH241583   0.025   1.797   3.230  0.0968  0.4411 -0.0016
13881TIP3    H141584   0.050   1.734   3.298 -0.4087  1.4344  1.1350
13881TIP3    H241585  -0.016   1.743   3.162 -0.9477 -0.4055  1.2495
13882TIP3   OH241586   1.955   7.797   2.464  1.0782 -0.0669 -0.5076
13882TIP3    H141587   1.899   7.740   2.411  1.8180 -1.8016  0.4834
13882TIP3    H241588   1.899   7.822   2.538  0.5417  1.1056 -1.2656
13883TIP3   OH241589   2.999   0.142   6.133  0.4911 -0.4007 -0.0601
13883TIP3    H141590   2.971   0.227   6.165 -0.1495  0.0314 -1.6965
13883TIP3    H241591   2.964   0.136   6.044  2.2941 -1.4980 -0.7473
13884TIP3   OH241592   0.524   0.204   2.130  0.4118  0.2303 -0.2255
13884TIP3    H141593   0.559   0.120   2.103 -1.0461 -0.2773 -0.6024
13884TIP3    H241594   0.555   0.265   2.063  3.1819  0.4618  1.1039
13885TIP3   OH241595   6.894   6.333   2.707 -0.2889  0.0042 -0.1457
13885TIP3    H141596   6.933   6.308   2.623 -1.8847  0.3200 -1.0213
13885TIP3    H241597   6.867   6.250   2.746 -0.9983 -0.0480 -0.7138
13886TIP3   OH241598   2.377   1.818   1.126  0.0858 -1.2265 -1.2651
13886TIP3    H141599   2.346   1.746   1.070 -0.8704 -1.5139 -0.3862
13886TIP3    H241600   2.422   1.877   1.066 -1.7093 -1.0654 -2.4977
13887TIP3   OH241601   4.071   2.388   5.973  0.1219 -0.6512 -0.7364
13887TIP3    H141602   4.017   2.367   6.049  0.2397  0.6870 -0.2642
13887TIP3    H241603   4.023   2.458   5.929  0.2451 -1.1582 -1.7020
13888TIP3   OH241604   1.536   4.206   6.553 -0.1395 -0.1022 -0.0694
13888TIP3    H141605   1.465   4.201   6.488 -0.1544 -0.6257 -0.0105
13888TIP3    H241606   1.495   4.179   6.635  0.3186 -1.1785 -0.1850
13889TIP3   OH241607   7.991   3.588   2.161 -0.2163  0.3919 -0.3806
13889TIP3    H141608   7.921   3.582   2.226  0.0910 -0.2648 -0.1025
13889TIP3    H241609   7.991   3.504   2.116  0.9706  0.0299  0.2428
13890TIP3   OH241610   1.975   7.089   2.528  0.1036 -0.3153  0.2160
13890TIP3    H141611   1.894   7.040   2.510 -0.7643  1.6318 -1.5777
13890TIP3    H241612   2.035   7.059   2.460 -0.2339  0.6338 -0.5151
13891TIP3   OH241613   3.313   3.490   5.568 -0.4578  0.5131 -0.4058
13891TIP3    H141614   3.279   3.425   5.506 -3.1255  0.6509  0.7836
13891TIP3    H241615   3.337   3.439   5.645  0.1218  0.6561 -0.4880
13892TIP3   OH241616   0.236   6.305   0.918  0.2461 -0.4916  0.6347
13892TIP3    H141617   0.218   6.361   0.842 -1.2947 -1.1739  0.4531
13892TIP3    H241618   0.185   6.344   0.989  0.1175 -0.9760  0.8111
13893TIP3   OH241619   8.089   0.889   1.736  0.0923 -0.2943  0.5366
13893TIP3    H141620   8.158   0.945   1.773  0.3047  0.3948 -0.8429
13893TIP3    H241621   8.063   0.934   1.655 -0.9445 -1.3154  0.2869
13894TIP3   OH241622   7.152   7.679   4.016 -0.1792 -0.3364 -0.7185
13894TIP3    H141623   7.080   7.677   3.953 -1.6978  0.9707  0.8608
13894TIP3    H241624   7.109   7.694   4.101  1.9028 -0.3823  0.4132
13895TIP3   OH241625   8.189   6.704   3.876  0.4967 -0.6913 -0.6571
13895TIP3    H141626   8.256   6.714   3.944 -1.9576 -0.2924  1.8942
13895TIP3    H241627   8.152   6.617   3.893 -1.5821  0.2731 -0.0460
13896TIP3   OH241628   4.325   3.539   1.406  0.0520 -0.2110 -0.1045
13896TIP3    H141629   4.351   3.569   1.319 -3.4159  2.2823 -0.5323
13896TIP3    H241630   4.321   3.444   1.399 -0.4168 -0.0617 -2.8196
13897TIP3   OH241631   6.330   4.649   2.774  0.1068 -0.1065 -0.4488
13897TIP3    H141632   6.422   4.639   2.749  0.3306 -1.4171  0.7984
13897TIP3    H241633   6.326   4.620   2.865 -1.6865 -0.8090 -0.7083
13898TIP3   OH241634   3.263   2.754   4.475 -0.6130 -0.4672 -0.5827
13898TIP3    H141635   3.254   2.821   4.407  0.7937  0.9773  0.5690
13898TIP3    H241636   3.182   2.757   4.524  0.0464  1.6356  0.4765
13899TIP3   OH241637   0.493   3.794   4.053  0.2133  0.1944 -0.1697
13899TIP3    H141638   0.492   3.871   3.996 -0.7271 -0.7088 -1.4571
13899TIP3    H241639   0.433   3.816   4.123  2.2748  1.7933  1.2301
13900TIP3   OH241640   6.995   1.805   2.088  0.3966 -0.1922 -0.2396
13900TIP3    H141641   7.048   1.882   2.069 -0.3424  0.5001  0.4208
13900TIP3    H241642   6.936   1.798   2.012  0.1567  0.1718 -0.0901
13901TIP3   OH241643   5.718   3.530   1.658 -0.4624  0.7887 -0.1233
13901TIP3    H141644   5.680   3.499   1.576  0.3492 -2.2779  0.5304
13901TIP3    H241645   5.785   3.465   1.679  0.6413  2.5031  2.0460
13902TIP3   OH241646   0.811   7.638   2.237 -0.1275  0.3522 -0.1933
13902TIP3    H141647   0.774   7.664   2.321  0.8512 -0.3202  0.4665
13902TIP3    H241648   0.897   7.680   2.235  0.0156  0.0420 -0.6802
13903TIP3   OH241649   3.676   3.258   6.393  0.3479  0.2013  0.0852
13903TIP3    H141650   3.594   3.282   6.351  0.4374  1.5221  0.6016
13903TIP3    H241651   3.737   3.241   6.321 -0.4075 -1.0101 -0.3037
13904TIP3   OH241652   6.092   1.091   4.690 -0.0176  0.6412 -0.0922
13904TIP3    H141653   6.056   1.022   4.745  0.2622  0.1329 -0.5303
13904TIP3    H241654   6.165   1.126   4.741  1.8500 -1.4917 -1.0759
13905TIP3   OH241655   6.074   1.861   0.683  0.8162  0.6063 -0.4828
13905TIP3    H141656   6.160   1.892   0.710  0.9441 -0.8342  0.8679
13905TIP3    H241657   6.075   1.767   0.701 -1.6769  0.8418  1.4349
13906TIP3   OH241658   3.500   3.650   5.062 -0.2169 -0.2724 -0.4861
13906TIP3    H141659   3.528   3.585   4.997 -1.3265 -0.3142 -0.9290
13906TIP3    H241660   3.505   3.603   5.145  2.5510  0.1699 -0.2894
13907TIP3   OH241661   4.260   5.239   5.766  0.3283  0.1219  0.5370
13907TIP3    H141662   4.180   5.188   5.774  1.4223 -1.4418  2.0364
13907TIP3    H241663   4.296   5.243   5.854  1.7017  1.1733 -0.0229
13908TIP3   OH241664   2.205   6.450   2.574  0.4315 -0.1719 -0.3645
13908TIP3    H141665   2.244   6.480   2.656  0.1994 -2.2747  0.5580
13908TIP3    H241666   2.112   6.472   2.582  0.3696 -0.5744  0.0314
13909TIP3   OH241667   1.758   5.812   1.552 -0.3563  0.3235 -0.2323
13909TIP3    H141668   1.786   5.756   1.480 -0.1623  1.0080 -0.7010
13909TIP3    H241669   1.798   5.773   1.630 -0.3654 -0.2800 -0.5203
13910TIP3   OH241670   4.532   1.428   0.614 -0.3715 -0.7056  0.4333
13910TIP3    H141671   4.515   1.443   0.707 -0.0604 -0.8708  0.5194
13910TIP3    H241672   4.513   1.512   0.572 -1.8573 -1.0102  0.4487
13911TIP3   OH241673   4.698   0.944   6.596  0.1603 -0.2436 -0.0526
13911TIP3    H141674   4.624   0.907   6.646 -0.8210  1.3784 -0.2287
13911TIP3    H241675   4.677   0.925   6.505  1.2071 -1.8987  0.0217
13912TIP3   OH241676   2.274   5.751   2.684  0.3115  0.6042  0.3137
13912TIP3    H141677   2.201   5.809   2.703  1.1513  0.7735  3.6726
13912TIP3    H241678   2.236   5.664   2.683 -0.2517  0.8490 -0.1700
13913TIP3   OH241679   1.268   5.037   6.516  0.1132  0.4362 -0.3957
13913TIP3    H141680   1.204   5.109   6.512 -0.0194  0.4886  1.6066
13913TIP3    H241681   1.214   4.958   6.513 -0.0915  0.4797  1.1280
13914TIP3   OH241682   2.440   0.205   5.494 -0.3879 -0.2469 -0.2807
13914TIP3    H141683   2.370   0.235   5.436  0.2542  2.5432  0.2333
13914TIP3    H241684   2.397   0.191   5.578 -0.6307 -0.3695 -0.4221
13915TIP3   OH241685   5.069   7.000   1.475  0.6633 -0.2152  0.6554
13915TIP3    H141686   5.002   7.032   1.535 -1.6207 -2.3323 -0.5848
13915TIP3    H241687   5.047   6.908   1.461  1.3651  0.0243 -3.0045
13916TIP3   OH241688   4.683   5.880   4.017  0.1648  0.2408  0.3098
13916TIP3    H141689   4.754   5.937   4.047 -0.2542  1.1770 -0.4530
13916TIP3    H241690   4.610   5.939   4.000  0.1909 -0.2867 -1.9658
13917TIP3   OH241691   7.857   1.272   4.488 -0.4306 -0.0782 -0.3690
13917TIP3    H141692   7.918   1.319   4.431 -1.0658  1.9864  0.5682
13917TIP3    H241693   7.798   1.227   4.427  0.4832 -0.0445 -1.3003
13918TIP3   OH241694   2.710   6.096   2.748 -0.0296 -0.0914  0.1821
13918TIP3    H141695   2.799   6.070   2.722  0.3235  0.3240  0.9353
13918TIP3    H241696   2.711   6.094   2.844 -1.4539 -2.1080  0.2150
13919TIP3   OH241697   0.045   0.906   5.832  0.3727  0.9016  0.1445
13919TIP3    H141698   0.013   0.886   5.744 -1.0379  2.3438  0.2860
13919TIP3    H241699   0.131   0.866   5.835 -0.0770 -0.3160 -1.4325
13920TIP3   OH241700   1.420   0.068   6.287  0.2469 -0.4663 -0.3381
13920TIP3    H141701   1.469   0.028   6.359 -0.0724 -0.4967 -0.1365
13920TIP3    H241702   1.475   0.140   6.258 -0.8124  1.3256  1.7521
13921TIP3   OH241703   2.326   1.226   2.962  0.5438  0.2596  0.4267
13921TIP3    H141704   2.384   1.229   2.886  1.1929  0.3156  0.9091
13921TIP3    H241705   2.361   1.293   3.021 -0.1016  0.3877  0.6688
13922TIP3   OH241706   3.298   3.888   6.215 -0.2361 -0.4371  0.1110
13922TIP3    H141707   3.313   3.914   6.124 -1.5866 -2.1332 -0.6397
13922TIP3    H241708   3.377   3.917   6.261  0.2338  0.9661 -1.4703
13923TIP3   OH241709   5.364   1.087   3.233  0.4898  0.1562  0.8599
13923TIP3    H141710   5.418   1.119   3.305  1.3551 -0.1699  0.3656
13923TIP3    H241711   5.426   1.055   3.168 -0.2414  0.9731 -0.2935
13924TIP3   OH241712   4.956   3.441   1.048  0.5488 -0.0799  0.1077
13924TIP3    H141713   4.890   3.503   1.017 -0.8327 -0.4059  2.1816
13924TIP3    H241714   4.934   3.426   1.140  1.8521 -2.3434  0.1335
13925TIP3   OH241715   6.249   5.412   0.360 -0.1298 -0.0685 -0.3609
13925TIP3    H141716   6.275   5.462   0.438  0.3759 -2.0553  0.8033
13925TIP3    H241717   6.320   5.427   0.298 -0.1222  0.8661 -0.1506
13926TIP3   OH241718   0.710   2.021   6.861  0.3098  0.0763 -0.3005
13926TIP3    H141719   0.618   2.037   6.841  0.4660 -0.5112 -1.5660
13926TIP3    H241720   0.743   1.973   6.786  1.6347  0.1877  0.1848
13927TIP3   OH241721   4.185   2.197   1.858 -0.6432  0.5291 -0.1729
13927TIP3    H141722   4.108   2.245   1.829 -1.4800 -0.2255  0.7544
13927TIP3    H241723   4.168   2.176   1.949  0.7898  0.5853  0.1342
13928TIP3   OH241724   2.873   4.037   6.738 -0.0061 -0.1672  0.3597
13928TIP3    H141725   2.839   3.947   6.734 -0.7534  0.1198 -0.0035
13928TIP3    H241726   2.861   4.071   6.649  0.4975  0.2148  0.4330
13929TIP3   OH241727   0.107   3.320   5.513  0.5377 -0.2243  0.4354
13929TIP3    H141728   0.127   3.388   5.450  0.5409  0.1294  0.8137
13929TIP3    H241729   0.020   3.341   5.545  1.2430  0.6700  1.8966
13930TIP3   OH241730   5.688   4.189   4.450 -0.0741  0.5412 -0.4349
13930TIP3    H141731   5.720   4.250   4.516 -1.2295  1.4096 -0.6496
13930TIP3    H241732   5.684   4.240   4.369  0.3037 -0.2126 -0.9468
13931TIP3   OH241733   1.369   5.724   2.388 -0.3636  0.0532  0.7925
13931TIP3    H141734   1.425   5.730   2.311 -1.5470 -0.5327 -0.1329
13931TIP3    H241735   1.298   5.665   2.362  0.9020 -2.9046  3.3517
13932TIP3   OH241736   2.139   7.268   2.173 -0.2928  0.3084  0.4862
13932TIP3    H141737   2.220   7.296   2.216  0.4882 -0.1293 -0.6366
13932TIP3    H241738   2.160   7.270   2.079 -1.1093 -1.2396  0.2403
13933TIP3   OH241739   3.310   1.224   2.943 -0.0415  0.1695  0.1464
13933TIP3    H141740   3.387   1.275   2.916  1.0808 -1.6455 -0.2511
13933TIP3    H241741   3.336   1.133   2.930 -2.1577 -0.5131  0.3588
13934TIP3   OH241742   3.897   2.046   4.002 -0.0419 -0.2079  0.5250
13934TIP3    H141743   3.963   2.025   3.937 -0.0264  2.3162 -0.3915
13934TIP3    H241744   3.814   2.023   3.960 -0.0348  1.4541 -0.4787
13935TIP3   OH241745   7.602   4.833   6.528  0.4528 -0.0257 -0.7229
13935TIP3    H141746   7.530   4.788   6.571  0.7139  0.6681  0.4838
13935TIP3    H241747   7.633   4.896   6.593  1.7852  0.0699 -1.4197
13936TIP3   OH241748   7.028   2.586   5.344  1.0098 -0.7784 -0.2770
13936TIP3    H141749   7.084   2.580   5.266 -0.3756 -2.4366 -1.2203
13936TIP3    H241750   7.063   2.519   5.403  0.6034 -1.1708 -0.4781
13937TIP3   OH241751   5.988   3.040   4.490 -0.5643 -0.0447  0.2852
13937TIP3    H141752   5.943   2.973   4.541 -0.5001  0.1365  0.5816
13937TIP3    H241753   6.048   3.082   4.552  1.6273 -1.7013 -0.5669
13938TIP3   OH241754   7.241   0.862   4.568 -0.3366 -0.1197  0.3541
13938TIP3    H141755   7.236   0.768   4.551 -2.6389  0.1543 -0.9437
13938TIP3    H241756   7.271   0.900   4.485  1.5418  0.2588  1.1644
13939TIP3   OH241757   4.311   4.650   0.776 -0.8715  0.6243  0.3211
13939TIP3    H141758   4.252   4.725   0.773 -0.6191  0.9231  1.7978
13939TIP3    H241759   4.254   4.574   0.763 -1.1680  1.0414 -0.9249
13940TIP3   OH241760   4.527   2.155   2.091  0.3238  0.5583  0.4252
13940TIP3    H141761   4.564   2.084   2.142  0.8724  0.0602 -0.6429
13940TIP3    H241762   4.515   2.119   2.003 -1.8189  0.9950  0.4901
13941TIP3   OH241763   3.702   5.241   0.108  0.2253 -0.3124 -0.3543
13941TIP3    H141764   3.607   5.255   0.113  0.2768 -0.2794  0.8632
13941TIP3    H241765   3.728   5.221   0.198  1.4688  0.2919 -0.5534
13942TIP3   OH241766   6.503   2.751   5.402  0.0033  0.7593 -0.1319
13942TIP3    H141767   6.446   2.714   5.335 -1.2631  0.8470  0.8662
13942TIP3    H241768   6.537   2.831   5.363  0.1463  0.2508 -1.0674
13943TIP3   OH241769   1.492   6.453   3.775 -0.5392 -0.4791  0.0423
13943TIP3    H141770   1.451   6.369   3.754  0.4747 -0.7049 -1.1530
13943TIP3    H241771   1.559   6.430   3.839 -2.4287 -0.0536  2.3014
13944TIP3   OH241772   1.055   5.737   6.511 -0.3650 -0.2666  0.5447
13944TIP3    H141773   1.017   5.669   6.455  0.7076 -0.3511 -0.1029
13944TIP3    H241774   1.023   5.819   6.474 -0.1422 -0.3470  0.1697
13945TIP3   OH241775   6.030   3.201   4.808 -0.4472  0.2887 -0.3354
13945TIP3    H141776   6.106   3.162   4.765 -0.0274 -1.5876  1.9155
13945TIP3    H241777   6.066   3.275   4.858 -0.6549  1.3544 -1.7093
13946TIP3   OH241778   8.052   5.233   6.490  0.0480  0.4041 -0.2538
13946TIP3    H141779   8.045   5.166   6.558  2.7420  0.2433 -0.0021
13946TIP3    H241780   8.034   5.315   6.535  1.0210  0.2234  0.4908
13947TIP3   OH241781   1.564   4.557   4.382 -0.7858  0.1247  0.0504
13947TIP3    H141782   1.548   4.516   4.467  1.3379 -1.8881 -0.4425
13947TIP3    H241783   1.554   4.486   4.318  1.2800  0.7247 -1.0254
13948TIP3   OH241784   7.915   5.123   0.716 -0.1253  0.8819 -0.7144
13948TIP3    H141785   7.886   5.145   0.627 -1.4735  0.5525 -0.3871
13948TIP3    H241786   7.843   5.071   0.752  1.2366 -0.6562 -0.0843
13949TIP3   OH241787   8.251   7.037   3.187 -0.1142 -0.2560 -0.2791
13949TIP3    H141788   8.189   7.085   3.132  0.6248 -0.7347 -1.5551
13949TIP3    H241789   8.225   7.061   3.277 -1.7999 -0.0377 -0.7754
13950TIP3   OH241790   6.531   6.435   0.855 -0.6709  0.1065  0.1882
13950TIP3    H141791   6.600   6.474   0.909 -1.0285  1.9663 -0.6384
13950TIP3    H241792   6.451   6.482   0.880 -1.3564 -0.9327 -0.0002
13951TIP3   OH241793   3.117   4.621   4.580  0.0722 -0.2736 -0.6467
13951TIP3    H141794   3.188   4.676   4.614  1.1570 -1.0455 -1.5847
13951TIP3    H241795   3.109   4.550   4.644 -0.1984  0.0793 -0.2865
13952TIP3   OH241796   7.013   2.468   1.217 -0.2478  0.1051  0.0024
13952TIP3    H141797   6.954   2.536   1.184  2.9247  2.6569 -0.9195
13952TIP3    H241798   7.046   2.424   1.139  0.7331  0.2454  0.3244
13953TIP3   OH241799   0.287   4.975   6.387  0.3464  0.1673  0.1405
13953TIP3    H141800   0.339   4.914   6.439 -0.3686 -0.7737 -0.2280
13953TIP3    H241801   0.199   4.938   6.386  0.3593  0.0791 -1.8290
13954TIP3   OH241802   6.680   0.968   3.110 -0.2861  0.2902 -0.4376
13954TIP3    H141803   6.661   1.061   3.121  1.8273  0.7368 -0.0815
13954TIP3    H241804   6.663   0.929   3.196  2.6244  1.1579  0.6536
13955TIP3   OH241805   0.577   0.575   2.447 -0.3080 -0.3376  0.1234
13955TIP3    H141806   0.631   0.497   2.433  1.0005  0.4866  0.3187
13955TIP3    H241807   0.573   0.584   2.542  1.4687  1.0432  0.1240
13956TIP3   OH241808   2.519   0.949   0.702 -0.2312 -0.3344 -0.0315
13956TIP3    H141809   2.492   1.039   0.686  0.8320  0.2365  1.1693
13956TIP3    H241810   2.446   0.895   0.671 -1.1323  0.9651 -0.2189
13957TIP3   OH241811   4.898   0.530   3.290  0.2424 -0.2075  0.6912
13957TIP3    H141812   4.880   0.519   3.197 -0.8617  0.8021  0.7547
13957TIP3    H241813   4.812   0.548   3.329  0.7989  0.2567  1.7602
13958TIP3   OH241814   5.673   5.713   3.663  0.3445  0.6947  0.1727
13958TIP3    H141815   5.686   5.643   3.599  0.4736  0.7047  0.1874
13958TIP3    H241816   5.640   5.667   3.741 -2.9192  1.0194 -0.8693
13959TIP3   OH241817   3.521   0.303   6.484  0.2614 -0.0259  0.2046
13959TIP3    H141818   3.526   0.270   6.574  1.0808 -0.0140  0.1755
13959TIP3    H241819   3.525   0.398   6.493 -0.3931  0.0092  0.1900
13960TIP3   OH241820   3.937   2.112   5.552 -0.3607  0.0870  0.4942
13960TIP3    H141821   3.855   2.141   5.511 -0.6138 -0.0998  0.8672
13960TIP3    H241822   3.935   2.017   5.545  1.0740  0.1404 -1.9126
13961TIP3   OH241823   2.234   6.867   3.990 -0.1830 -0.4342  0.1424
13961TIP3    H141824   2.195   6.812   4.058  0.0508 -2.4673 -1.2665
13961TIP3    H241825   2.160   6.895   3.937 -0.1968 -0.2678  0.2494
13962TIP3   OH241826   1.549   0.932   3.519  0.1094  0.0216  0.2929
13962TIP3    H141827   1.481   0.881   3.564 -0.8665  0.7439 -0.3312
13962TIP3    H241828   1.510   1.018   3.507 -0.0898 -0.3935 -2.8280
13963TIP3   OH241829   0.499   3.945   0.559 -0.0836 -0.0137 -0.9248
13963TIP3    H141830   0.475   4.033   0.530 -0.6614  0.5075  0.9638
13963TIP3    H241831   0.576   3.958   0.615 -0.2340 -0.6827 -0.5440
13964TIP3   OH241832   2.583   5.878   0.768  0.4741 -0.2114  0.2015
13964TIP3    H141833   2.575   5.857   0.675 -0.5853 -2.4149  0.7390
13964TIP3    H241834   2.632   5.805   0.806  0.5140  0.4376  1.4549
13965TIP3   OH241835   6.084   0.895   3.767 -0.5498 -0.1939  0.1317
13965TIP3    H141836   6.016   0.958   3.743  0.9806  1.0561 -1.1530
13965TIP3    H241837   6.058   0.864   3.854 -0.2168  3.9599  1.9345
13966TIP3   OH241838   1.675   6.100   0.039  0.0537  0.4788  0.0934
13966TIP3    H141839   1.602   6.159   0.054 -0.9976 -0.7973  0.2307
13966TIP3    H241840   1.702   6.072   0.127 -0.2532 -0.1663 -0.0139
13967TIP3   OH241841   5.477   2.794   3.937 -0.3682  0.3991 -0.1590
13967TIP3    H141842   5.545   2.838   3.886 -0.7098  0.8333 -0.2496
13967TIP3    H241843   5.427   2.743   3.873 -0.0472 -0.0227 -0.0725
13968TIP3   OH241844   2.007   7.609   0.487 -0.0882  0.7069 -0.2431
13968TIP3    H141845   2.029   7.625   0.396 -1.4517  3.9760 -0.1401
13968TIP3    H241846   1.913   7.627   0.493  0.2694  2.2288  2.0693
13969TIP3   OH241847   6.883   6.695   2.750 -0.0571 -0.1645 -0.2813
13969TIP3    H141848   6.795   6.710   2.716 -1.3676 -1.3263  2.3184
13969TIP3    H241849   6.924   6.781   2.750 -2.3354  1.0218  1.2980
13970TIP3   OH241850   1.331   1.233   0.581  0.0918 -0.4422 -0.0934
13970TIP3    H141851   1.396   1.287   0.627 -1.0045 -0.0463  1.0287
13970TIP3    H241852   1.247   1.263   0.614 -0.8237  0.2240 -2.7828
13971TIP3   OH241853   0.145   0.397   4.230 -0.0633  0.3872  0.1954
13971TIP3    H141854   0.168   0.365   4.318  0.2675 -1.9951 -0.6616
13971TIP3    H241855   0.078   0.335   4.200 -2.4891  2.9874 -0.1097
13972TIP3   OH241856   5.039   2.568   0.400  0.1605 -0.5697  0.2021
13972TIP3    H141857   5.120   2.522   0.376 -0.0223 -0.3382 -0.9309
13972TIP3    H241858   5.051   2.592   0.492  1.3313 -0.6437  0.0865
13973TIP3   OH241859   5.247   1.395   4.992  0.2099  0.1691  0.0304
13973TIP3    H141860   5.198   1.438   5.062  1.5676  1.7419  0.0614
13973TIP3    H241861   5.225   1.302   5.002 -2.2994  0.7333  0.3577
13974TIP3   OH241862   4.740   4.788   6.569 -0.5228  0.0036 -0.7368
13974TIP3    H141863   4.810   4.799   6.632 -0.3326  0.8454 -1.0823
13974TIP3    H241864   4.780   4.738   6.497 -1.0523 -1.9854  0.2908
13975TIP3   OH241865   4.009   6.876   6.832  0.4227 -0.0711  0.1611
13975TIP3    H141866   4.104   6.873   6.841  0.2468 -2.0897  2.3676
13975TIP3    H241867   3.987   6.797   6.783 -0.2330 -1.4850  2.5382
13976TIP3   OH241868   0.766   6.782   0.770  0.4862  0.0393  0.0588
13976TIP3    H141869   0.831   6.715   0.793 -0.6832 -0.7641  1.1621
13976TIP3    H241870   0.688   6.733   0.743 -0.4130  0.9440  0.9139
13977TIP3   OH241871   3.108   7.017   5.357 -0.3009  0.2743  0.2491
13977TIP3    H141872   3.097   6.952   5.427 -1.8220 -0.0708 -0.2628
13977TIP3    H241873   3.106   6.965   5.276  0.0143  0.8038 -0.0969
13978TIP3   OH241874   1.078   4.972   3.942  0.2391  0.1946 -0.2543
13978TIP3    H141875   1.063   4.880   3.962  0.7255  0.1944  0.0988
13978TIP3    H241876   0.997   5.000   3.898  0.7548 -0.8612 -1.9833
13979TIP3   OH241877   1.648   5.531   2.399  0.3491  0.1521  0.1585
13979TIP3    H141878   1.664   5.624   2.382 -1.0214  0.5548  0.9310
13979TIP3    H241879   1.617   5.528   2.489 -0.7232 -0.9238 -0.2268
13980TIP3   OH241880   6.919   2.298   4.221 -0.1793 -0.3454 -0.1775
13980TIP3    H141881   6.825   2.280   4.224 -0.6643  1.4028 -2.2610
13980TIP3    H241882   6.960   2.214   4.241 -2.2004 -1.8800 -2.0245
13981TIP3   OH241883   0.382   4.940   4.941 -0.0037  0.0245  0.1719
13981TIP3    H141884   0.449   4.969   5.003  0.5492  1.2099 -0.9385
13981TIP3    H241885   0.403   4.848   4.925 -0.0211 -0.2441  1.5360
13982TIP3   OH241886   4.344   0.673   6.404 -0.0326  0.3698  0.2886
13982TIP3    H141887   4.262   0.630   6.428  0.4037 -0.3405  0.5567
13982TIP3    H241888   4.382   0.615   6.337  1.2808 -0.4992  1.7222
13983TIP3   OH241889   4.161   7.807   5.590 -0.5144  0.2042  0.3671
13983TIP3    H141890   4.168   7.860   5.669  0.1027  1.5757 -0.5629
13983TIP3    H241891   4.213   7.855   5.525 -2.2681 -0.0234 -1.2905
13984TIP3   OH241892   1.127   4.918   0.219  0.6199  0.2586 -0.2052
13984TIP3    H141893   1.056   4.980   0.233  1.0263  0.6439  0.2096
13984TIP3    H241894   1.166   4.906   0.306  0.1890 -1.0307 -0.1678
13985TIP3   OH241895   0.490   3.315   5.988  0.0730 -0.1908  0.0449
13985TIP3    H141896   0.443   3.244   6.031  1.7328 -0.8697  0.8378
13985TIP3    H241897   0.454   3.318   5.899 -1.6326 -0.4522  0.6981
13986TIP3   OH241898   1.139   6.611   2.626  0.2960 -0.4487 -0.3891
13986TIP3    H141899   1.145   6.531   2.678  0.3564  0.4993  1.1007
13986TIP3    H241900   1.123   6.681   2.690  0.8879  0.8276 -1.5821
13987TIP3   OH241901   6.514   1.627   3.199  0.0610  0.0616  0.5427
13987TIP3    H141902   6.537   1.578   3.278  2.7613 -2.1875 -1.4541
13987TIP3    H241903   6.448   1.574   3.156  0.8866 -0.3787 -0.2082
13988TIP3   OH241904   7.640   3.286   4.738 -0.2383 -0.2140  0.1161
13988TIP3    H141905   7.588   3.365   4.732  0.0760  0.0140  0.3517
13988TIP3    H241906   7.689   3.295   4.820 -0.7706 -1.0036  0.5415
13989TIP3   OH241907   1.494   7.433   1.885 -0.4101  0.3784 -0.1817
13989TIP3    H141908   1.401   7.412   1.875  0.1178 -2.5601  0.4856
13989TIP3    H241909   1.503   7.460   1.976 -0.2851 -1.5681  0.4246
13990TIP3   OH241910   1.362   4.992   0.105  0.4999  0.1281  0.2312
13990TIP3    H141911   1.358   4.956   0.016  0.9442  0.4323  0.0913
13990TIP3    H241912   1.271   4.988   0.136  0.8815 -4.4730  1.5591
13991TIP3   OH241913   3.171   3.020   0.724 -0.4189 -0.7992  0.2092
13991TIP3    H141914   3.167   3.022   0.628  0.5489 -2.6644  0.0977
13991TIP3    H241915   3.225   3.096   0.747  0.2247 -0.9304 -0.8023
13992TIP3   OH241916   6.293   3.490   2.859  0.4765 -0.6499 -1.0067
13992TIP3    H141917   6.356   3.468   2.791  0.9061  0.7134 -1.0709
13992TIP3    H241918   6.344   3.491   2.940  0.5075  0.2722 -1.0328
13993TIP3   OH241919   2.190   2.151  -0.007 -0.0464 -0.0657  0.5173
13993TIP3    H141920   2.151   2.235  -0.031  1.8148  1.1028  1.3337
13993TIP3    H241921   2.173   2.142   0.086 -0.8564 -0.9660  0.2936
13994TIP3   OH241922   3.674   3.563   6.372 -0.2050 -0.4405 -0.1479
13994TIP3    H141923   3.700   3.590   6.284  2.5317 -1.4437  0.2426
13994TIP3    H241924   3.673   3.467   6.369 -1.8202 -0.4718  0.4953
13995TIP3   OH241925   5.333   0.030   6.227 -0.1412  0.2957  1.0596
13995TIP3    H141926   5.282   0.109   6.245 -0.2940  1.0068 -1.8685
13995TIP3    H241927   5.275  -0.042   6.250 -2.1803  1.0983 -1.1016
13996TIP3   OH241928   8.331   3.175   1.145  0.6355 -0.3535 -0.3653
13996TIP3    H141929   8.410   3.179   1.092  0.1746  1.3817 -0.9983
13996TIP3    H241930   8.259   3.172   1.082  0.0679  1.9558  0.0613
13997TIP3   OH241931   4.834   7.508   5.840 -0.2015  0.4602 -0.1066
13997TIP3    H141932   4.910   7.559   5.812 -0.4895  0.5607 -0.7352
13997TIP3    H241933   4.769   7.573   5.863 -0.7243  0.4029 -1.3357
13998TIP3   OH241934   0.213   1.499   3.946  0.4587  0.5709  0.0293
13998TIP3    H141935   0.181   1.422   3.901  0.8391  0.1486  0.4693
13998TIP3    H241936   0.209   1.569   3.880 -1.1068  0.4918  0.0018
13999TIP3   OH241937   2.755   3.315   0.846  0.1055  0.3777 -0.6182
13999TIP3    H141938   2.796   3.231   0.864 -1.8430 -0.5283 -0.1718
13999TIP3    H241939   2.677   3.316   0.902 -0.5333  1.9855 -1.4738
14000TIP3   OH241940   0.377   4.863   2.049 -0.3051  0.3409  0.1247
14000TIP3    H141941   0.414   4.925   1.986 -0.9909 -0.4745 -1.1286
14000TIP3    H241942   0.442   4.793   2.055 -1.0935 -0.5600 -1.2504
14001TIP3   OH241943   0.589   0.880   4.762 -0.1080 -0.1276  0.4466
14001TIP3    H141944   0.657   0.896   4.697 -1.1664  0.7680 -0.4788
14001TIP3    H241945   0.566   0.788   4.750 -0.5131  0.1093 -0.6753
14002TIP3   OH241946   0.605   7.675   2.690 -0.0126 -0.0450  0.4416
14002TIP3    H141947   0.556   7.748   2.727 -0.2124 -1.0518  2.2758
14002TIP3    H241948   0.543   7.631   2.633 -0.4516  0.1852  0.7332
14003TIP3   OH241949   2.587   3.810   5.686 -0.0586 -0.4190 -0.0569
14003TIP3    H141950   2.662   3.862   5.655  0.0895 -0.9078 -0.5395
14003TIP3    H241951   2.511   3.853   5.646  0.0758 -0.6545 -0.5708
14004TIP3   OH241952   1.991   0.253   6.815 -0.0345 -0.1287  0.3467
14004TIP3    H141953   1.954   0.322   6.869  0.6610  0.1745  0.4560
14004TIP3    H241954   2.057   0.297   6.761  1.2720 -0.8707  1.2599
14005TIP3   OH241955   3.600   5.143   0.657  0.8014  0.0834 -0.8724
14005TIP3    H141956   3.571   5.131   0.567 -0.0002 -2.4673 -0.3598
14005TIP3    H241957   3.533   5.198   0.697 -0.2480 -0.9376 -1.1853
14006TIP3   OH241958   5.573   2.650   5.734  0.0954  0.1215 -0.0242
14006TIP3    H141959   5.516   2.708   5.785  1.4252 -0.7893  2.6728
14006TIP3    H241960   5.657   2.653   5.780  0.7616 -2.4502 -0.9310
14007TIP3   OH241961   0.060   1.699   1.534 -0.2546  0.5166 -0.0979
14007TIP3    H141962   0.016   1.779   1.505  1.0019  1.2639 -0.0263
14007TIP3    H241963   0.142   1.697   1.484  1.6209  1.4406  2.6701
14008TIP3   OH241964   0.395   0.232   0.620 -0.1206 -0.1280  0.6305
14008TIP3    H141965   0.367   0.149   0.581  1.0369  0.3072 -1.2761
14008TIP3    H241966   0.383   0.297   0.551  2.6477  0.5737  0.6661
14009TIP3   OH241967   3.393   0.063   6.435  0.0163 -0.3341  0.1332
14009TIP3    H141968   3.447   0.013   6.496 -0.5393 -0.7715  0.2716
14009TIP3    H241969   3.416   0.154   6.451 -0.1945 -0.4380  1.0574
14010TIP3   OH241970   2.030   6.855   0.699  0.4192 -0.5181 -0.1407
14010TIP3    H141971   2.108   6.807   0.672  1.2088 -0.2456  1.5364
14010TIP3    H241972   1.957   6.806   0.661  1.2733 -2.2675  0.3833
14011TIP3   OH241973   6.257   2.060   5.380  0.2982 -0.4044  0.5667
14011TIP3    H141974   6.194   2.080   5.311  0.1543  2.2509  1.3652
14011TIP3    H241975   6.332   2.024   5.333 -1.8239 -4.1048 -0.3722
14012TIP3   OH241976   0.067   4.692   3.663 -0.5516 -0.0904 -0.1021
14012TIP3    H141977  -0.009   4.741   3.696 -0.2526  0.3227 -0.0276
14012TIP3    H241978   0.067   4.710   3.569  0.6504  1.5926  0.1795
14013TIP3   OH241979   0.411   7.768   2.354 -0.3418  0.3274  0.0121
14013TIP3    H141980   0.502   7.793   2.371  0.3658 -1.2195 -1.2657
14013TIP3    H241981   0.404   7.765   2.259 -1.2789 -1.1403  0.1042
14014TIP3   OH241982   5.949   3.929   6.249 -0.0821 -0.0827  0.2591
14014TIP3    H141983   5.969   4.023   6.247 -0.6781  0.1447 -3.8240
14014TIP3    H241984   5.861   3.925   6.287  0.3733  0.8346  1.4930
14015TIP3   OH241985   3.133   1.235   5.831  0.2230 -0.1872 -0.2269
14015TIP3    H141986   3.155   1.189   5.911 -1.1872  1.4346  1.1710
14015TIP3    H241987   3.071   1.178   5.786  1.8676 -1.6267 -0.8232
14016TIP3   OH241988   1.108   6.312   3.155  0.4570 -0.4496  0.5888
14016TIP3    H141989   1.062   6.355   3.228  1.7374 -2.6558  2.8642
14016TIP3    H241990   1.196   6.350   3.156 -0.0502  0.8769 -1.1326
14017TIP3   OH241991   8.141   1.975   3.002  0.7403 -0.2388 -0.4343
14017TIP3    H141992   8.102   2.039   2.943  1.5738 -0.0622 -0.7991
14017TIP3    H241993   8.066   1.936   3.048  0.1188 -0.0462 -1.2657
14018TIP3   OH241994   3.232   0.378   0.807 -0.1584  0.1011 -0.0362
14018TIP3    H141995   3.256   0.466   0.778 -3.0503  1.2299  0.7082
14018TIP3    H241996   3.220   0.329   0.725 -0.5660  0.9893 -0.5166
14019TIP3   OH241997   6.806   1.799   3.559  0.2523  0.2981  0.1303
14019TIP3    H141998   6.816   1.741   3.484  0.5650  0.2909  0.1769
14019TIP3    H241999   6.851   1.880   3.533  1.1270 -0.0131  0.6489
14020TIP3   OH242000   0.439   5.991   0.121 -0.0105 -0.2693  0.0553
14020TIP3    H142001   0.511   5.930   0.139  0.1109 -0.1667 -0.0781
14020TIP3    H242002   0.360   5.943   0.146  0.0498 -0.6273 -0.4185
14021TIP3   OH242003   7.654   4.259   6.264 -0.6195 -0.2616 -0.6360
14021TIP3    H142004   7.668   4.272   6.357  1.3901 -2.3223 -0.5564
14021TIP3    H242005   7.625   4.344   6.231 -0.9438  0.6231  1.7601
14022TIP3   OH242006   2.727   3.621   1.516 -0.0406  0.4705 -0.2732
14022TIP3    H142007   2.692   3.710   1.520 -0.6981  0.4670 -3.5536
14022TIP3    H242008   2.656   3.569   1.479  0.8494 -1.1339  0.1794
14023TIP3   OH242009   5.572   6.103   5.000  0.5256  0.1959  0.5799
14023TIP3    H142010   5.667   6.101   4.992  0.6946  0.8881  2.1524
14023TIP3    H242011   5.548   6.193   4.979  0.0509 -0.2602 -1.0350
14024TIP3   OH242012   4.157   7.721   4.721  0.3445 -0.0065 -0.3376
14024TIP3    H142013   4.187   7.663   4.791  1.6815  0.8893 -0.1335
14024TIP3    H242014   4.237   7.757   4.684 -0.3922  0.3346 -1.6620
14025TIP3   OH242015   5.192   4.575   5.429 -0.2833 -0.0160 -0.3142
14025TIP3    H142016   5.209   4.489   5.389 -1.5445 -1.0283  1.2001
14025TIP3    H242017   5.276   4.601   5.465 -0.3331 -1.7666  1.2348
14026TIP3   OH242018   0.427   7.863   1.446 -0.0260 -0.0989 -0.3346
14026TIP3    H142019   0.408   7.863   1.352  0.3953 -2.2744 -0.4652
14026TIP3    H242020   0.358   7.810   1.485  0.9477 -0.9498  0.2890
14027TIP3   OH242021   1.793   4.673   3.269  0.1114 -0.2362  0.1103
14027TIP3    H142022   1.729   4.603   3.280  0.3466 -0.3348  0.9409
14027TIP3    H242023   1.750   4.750   3.307  0.4691 -0.2927  0.6305
14028TIP3   OH242024   3.831   3.451   0.037  0.0861 -0.0735 -0.0868
14028TIP3    H142025   3.796   3.408  -0.041 -0.3479  0.4346 -0.1822
14028TIP3    H242026   3.926   3.445   0.027  0.0307 -0.3591 -0.4606
14029TIP3   OH242027   7.734   4.896   3.658  0.4067  0.1588 -0.0240
14029TIP3    H142028   7.770   4.837   3.592  1.4654 -1.5496  1.9600
14029TIP3    H242029   7.715   4.839   3.733 -1.1904  1.9307  1.0017
14030TIP3   OH242030   6.485   7.047   2.391 -0.4408  0.8607 -0.1188
14030TIP3    H142031   6.461   6.958   2.415 -1.3021  1.3118  0.7980
14030TIP3    H242032   6.445   7.061   2.305 -2.3056  1.0914  0.7224
14031TIP3   OH242033   1.118   7.844   0.978  0.3546  0.6259 -0.2538
14031TIP3    H142034   1.059   7.868   1.050  1.7404  0.3880  1.0133
14031TIP3    H242035   1.122   7.749   0.981  0.5618  0.6239 -0.5371
14032TIP3   OH242036   1.234   5.459   4.819 -0.1622  0.1874 -0.0556
14032TIP3    H142037   1.205   5.387   4.764 -1.3120  0.8292 -0.3270
14032TIP3    H242038   1.315   5.489   4.779  0.7717 -1.4404  0.5173
14033TIP3   OH242039   1.821   2.276   2.168  0.0093  0.1464 -0.1093
14033TIP3    H142040   1.836   2.281   2.074 -0.6257  2.2034 -0.1651
14033TIP3    H242041   1.726   2.286   2.178  0.2416  1.9798  0.7679
14034TIP3   OH242042   7.785   2.854   4.288  0.4159  0.0632 -0.0776
14034TIP3    H142043   7.869   2.819   4.316  0.3675 -0.8426 -1.0147
14034TIP3    H242044   7.731   2.853   4.367  1.1361  0.2366  0.4280
14035TIP3   OH242045   0.709   3.618   5.402 -0.2008  0.1936  0.1440
14035TIP3    H142046   0.762   3.677   5.456  2.3376 -1.1828 -0.6938
14035TIP3    H242047   0.693   3.667   5.322  0.9841  0.1591 -0.1262
14036TIP3   OH242048   4.168   4.400   2.853 -0.2295  0.0035 -0.0633
14036TIP3    H142049   4.126   4.432   2.933  0.0031  1.1262 -0.3754
14036TIP3    H242050   4.172   4.476   2.796  0.0296 -0.6739 -0.9768
14037TIP3   OH242051   0.146   1.706   1.249  0.5730  0.0594  0.6708
14037TIP3    H142052   0.216   1.690   1.312  0.7655  1.1706  0.7628
14037TIP3    H242053   0.189   1.749   1.175  0.2774 -0.8433 -0.0598
14038TIP3   OH242054   6.056   1.199   1.647 -0.1792  0.2602 -0.3099
14038TIP3    H142055   6.131   1.259   1.654  0.1401 -0.0621 -0.8568
14038TIP3    H242056   5.995   1.228   1.715  0.4108  0.5752  0.0954
14039TIP3   OH242057   4.791   4.205   2.509  0.3229  0.2052  0.5096
14039TIP3    H142058   4.814   4.242   2.424  0.5414 -0.7143  0.1607
14039TIP3    H242059   4.705   4.243   2.529  0.0033 -0.0165 -0.3861
14040TIP3   OH242060   0.056   0.102   2.089  0.7332  0.3836  0.0271
14040TIP3    H142061  -0.012   0.062   2.035  0.5614 -0.1183  0.5984
14040TIP3    H242062   0.129   0.117   2.030  1.5688 -2.5937  0.1317
14041TIP3   OH242063   6.457   6.637   1.259 -0.4546 -0.0392  0.5031
14041TIP3    H142064   6.446   6.553   1.215 -2.6189  0.1146  0.6389
14041TIP3    H242065   6.472   6.700   1.188  2.2002 -0.5907  0.4548
14042TIP3   OH242066   1.195   3.324   0.524  0.2441  0.7302 -0.2439
14042TIP3    H142067   1.122   3.383   0.543  0.5769  1.1060 -0.1044
14042TIP3    H242068   1.272   3.381   0.526  0.6800  0.1349  0.7845
14043TIP3   OH242069   2.970   2.618   1.886 -0.1813  0.3926 -0.1444
14043TIP3    H142070   3.009   2.698   1.850  0.7896 -0.2074 -0.4521
14043TIP3    H242071   3.019   2.547   1.845 -0.8131 -0.3602  0.3826
14044TIP3   OH242072   4.437   4.901   5.644  0.2783 -0.0404  0.4010
14044TIP3    H142073   4.342   4.892   5.647  0.3732 -0.9060  2.6995
14044TIP3    H242074   4.467   4.828   5.589 -0.3660  0.5254 -0.7513
14045TIP3   OH242075   4.042   0.238   1.640 -0.1240 -0.2102  0.8406
14045TIP3    H142076   4.030   0.320   1.593 -0.6669 -0.5197  0.4162
14045TIP3    H242077   4.063   0.264   1.729  1.6433  0.3964  0.2854
14046TIP3   OH242078   4.444   1.231   3.347  0.3390 -0.8077 -0.1275
14046TIP3    H142079   4.469   1.313   3.305 -0.7045 -0.6183 -0.3921
14046TIP3    H242080   4.500   1.226   3.425  0.8342 -0.1517 -0.4362
14047TIP3   OH242081   0.695   5.022   0.742  0.4678  0.2378  0.1787
14047TIP3    H142082   0.772   4.981   0.781  1.2776  1.1984 -0.3755
14047TIP3    H242083   0.625   4.958   0.757  1.0376 -0.0332  1.9466
14048TIP3   OH242084   0.124   4.867   5.670  0.6913 -0.4197  0.6394
14048TIP3    H142085   0.063   4.876   5.596  0.7154  1.2383  0.7884
14048TIP3    H242086   0.071   4.885   5.747  0.9064 -1.0938  0.9454
14049TIP3   OH242087   6.271   7.418   1.260 -0.6229 -0.1319  0.1564
14049TIP3    H142088   6.238   7.494   1.213 -3.9323 -0.9844  0.8288
14049TIP3    H242089   6.271   7.445   1.352 -2.7518 -1.1130  0.5132
14050TIP3   OH242090   0.896   3.296   4.499  0.0666 -0.0381 -0.2430
14050TIP3    H142091   0.838   3.234   4.454  0.0175 -0.3515  0.2466
14050TIP3    H242092   0.941   3.342   4.428 -1.7671  1.1820 -0.6574
14051TIP3   OH242093   2.177   4.885   1.635  0.2390  0.3086 -0.0053
14051TIP3    H142094   2.084   4.906   1.644  0.3929  0.5598  1.2569
14051TIP3    H242095   2.195   4.894   1.542 -0.7204  1.4786 -0.1077
14052TIP3   OH242096   2.140   4.928   6.062  0.1884 -0.0508 -0.5593
14052TIP3    H142097   2.141   4.832   6.066  2.6947 -0.0487  1.0676
14052TIP3    H242098   2.107   4.955   6.148  0.4116  0.5482 -0.6589
14053TIP3   OH242099   3.009   4.413   6.701  0.0446  0.0714 -0.2573
14053TIP3    H142100   2.938   4.385   6.758  0.1922 -0.2164 -0.2148
14053TIP3    H242101   3.075   4.449   6.760  1.3136 -2.5200  0.0336
14054TIP3   OH242102   0.353   3.310   2.255  0.0447  0.4115  0.2177
14054TIP3    H142103   0.376   3.248   2.324  0.6459  0.0035 -0.3410
14054TIP3    H242104   0.292   3.261   2.199  1.3348 -0.0526 -0.8135
14055TIP3   OH242105   2.256   5.268   1.002 -0.1437 -0.5640 -0.5447
14055TIP3    H142106   2.205   5.189   0.984  1.1261 -1.1068 -2.0188
14055TIP3    H242107   2.194   5.329   1.041 -1.5595 -1.6955 -0.9502
14056TIP3   OH242108   4.651   4.675   3.164  0.0259  0.5073 -0.2074
14056TIP3    H142109   4.670   4.760   3.124  0.1774  0.0501 -1.1017
14056TIP3    H242110   4.650   4.613   3.092  0.4317 -0.3527  0.5104
14057TIP3   OH242111   6.377   2.183   3.398  0.4540  0.2760  0.0611
14057TIP3    H142112   6.428   2.217   3.324  0.2070  0.0458 -0.2224
14057TIP3    H242113   6.371   2.088   3.382 -1.5390  0.4904 -0.8855
14058TIP3   OH242114   1.116   6.674   2.343 -0.2468 -0.1038 -0.0537
14058TIP3    H142115   1.075   6.663   2.429  0.8218  1.0356  0.6396
14058TIP3    H242116   1.206   6.698   2.363 -0.5195  2.3679 -1.4521
14059TIP3   OH242117   2.445   7.634   5.823  0.1246 -0.0099 -0.3702
14059TIP3    H142118   2.358   7.674   5.818  1.0053  2.0920  0.2538
14059TIP3    H242119   2.503   7.698   5.781  1.3171 -1.6408 -1.3041
14060TIP3   OH242120   5.023   4.429   0.620  0.1787 -0.2073  0.6421
14060TIP3    H142121   5.095   4.486   0.590 -0.6781 -0.5787 -2.5311
14060TIP3    H242122   4.954   4.443   0.555 -2.0216 -1.1074  2.6593
14061TIP3   OH242123   2.165   5.161   3.121  0.3111 -0.0082 -0.4239
14061TIP3    H142124   2.232   5.151   3.053  0.7937  2.1294 -0.3182
14061TIP3    H242125   2.215   5.178   3.201 -0.3023  2.0875 -0.4277
14062TIP3   OH242126   8.183   3.149   1.698  0.0936  0.0042 -0.4412
14062TIP3    H142127   8.144   3.224   1.654  1.6938  0.1777 -1.6586
14062TIP3    H242128   8.262   3.184   1.740 -0.1977 -0.6255  0.6975
14063TIP3   OH242129   7.966   5.531   0.982 -0.1019 -0.0872  0.0243
14063TIP3    H142130   8.009   5.463   0.930 -0.0412 -1.0558  1.2956
14063TIP3    H242131   7.938   5.596   0.918 -0.8464 -1.6740 -1.3336
14064TIP3   OH242132   7.260   7.844   5.880 -0.1255  0.6675 -0.0380
14064TIP3    H142133   7.168   7.865   5.865 -0.3899 -1.4779 -1.7218
14064TIP3    H242134   7.298   7.836   5.793  1.4123  0.4088  0.6250
14065TIP3   OH242135   5.018   5.270   0.822  0.3021 -0.2779  0.3959
14065TIP3    H142136   4.952   5.339   0.821 -0.9883 -1.4482  0.8672
14065TIP3    H242137   5.079   5.296   0.891  0.7229  1.1451 -0.4858
14066TIP3   OH242138   2.837   6.525   0.629  0.2423 -0.3522 -0.2907
14066TIP3    H142139   2.793   6.451   0.670 -0.6083  0.9972  1.3761
14066TIP3    H242140   2.930   6.511   0.649  0.0797 -0.9016  0.1235
14067TIP3   OH242141   1.145   6.981   3.078  0.0753  0.6395  0.3620
14067TIP3    H142142   1.128   6.894   3.042  0.5413 -0.1491  1.9278
14067TIP3    H242143   1.165   7.036   3.002  0.3415 -0.7560 -0.6099
14068TIP3   OH242144   5.395   7.323   6.065  0.2262  0.3641 -0.0999
14068TIP3    H142145   5.401   7.292   5.975 -0.6063 -2.9785  0.8739
14068TIP3    H242146   5.485   7.324   6.096  0.3588 -0.2894 -0.4460
14069TIP3   OH242147   4.094   4.517   5.048 -0.1911 -0.5525  0.1485
14069TIP3    H142148   4.102   4.487   4.958 -2.3972 -2.1008  0.3892
14069TIP3    H242149   4.132   4.446   5.100  1.6528  0.6053  0.4896
14070TIP3   OH242150   4.641   1.812   1.074  0.0856 -0.4800 -0.3549
14070TIP3    H142151   4.732   1.842   1.072  0.1551 -0.6702 -2.0555
14070TIP3    H242152   4.595   1.872   1.015 -0.3028 -2.0054 -1.6972
14071TIP3   OH242153   3.612   4.647   2.662  0.5894 -0.1117 -0.2361
14071TIP3    H142154   3.650   4.712   2.722 -1.2049  0.2726  0.5527
14071TIP3    H242155   3.627   4.563   2.705  0.0323  0.0923  0.3849
14072TIP3   OH242156   6.793   4.470   3.020 -0.8101  1.0230  0.0537
14072TIP3    H142157   6.763   4.428   2.939  1.0745  0.1347 -0.2336
14072TIP3    H242158   6.772   4.407   3.089  0.2652  0.4072 -0.1464
14073TIP3   OH242159   6.618   4.758   4.259 -0.2181 -0.3404 -0.4325
14073TIP3    H142160   6.630   4.841   4.213  2.4155  0.3637  1.3203
14073TIP3    H242161   6.585   4.783   4.345 -1.3648 -1.3207 -0.5626
14074TIP3   OH242162   7.435   4.641   4.964  0.2435  0.4880 -0.1994
14074TIP3    H142163   7.501   4.662   4.898  0.1948 -1.2365 -0.8428
14074TIP3    H242164   7.370   4.711   4.956  0.0335  0.1178 -2.2806
14075TIP3   OH242165   7.395   2.774   0.845  0.0659  0.2967  0.2593
14075TIP3    H142166   7.361   2.745   0.760  0.1699  1.2955 -0.1337
14075TIP3    H242167   7.379   2.700   0.903 -1.9198  0.3654 -0.1379
14076TIP3   OH242168   8.371   6.933   4.015 -0.3035 -0.0003  0.4123
14076TIP3    H142169   8.297   6.985   3.983 -0.7049 -0.3467  0.7738
14076TIP3    H242170   8.374   6.950   4.109  0.2673  0.2491  0.3542
14077TIP3   OH242171   1.661   1.183   3.960  0.2763 -0.3616 -0.4520
14077TIP3    H142172   1.629   1.267   3.926  2.9500  0.3035 -1.6028
14077TIP3    H242173   1.638   1.184   4.053  2.1752  2.7341  0.1328
14078TIP3   OH242174   1.914   5.860   0.681  0.5698  0.0286  0.2502
14078TIP3    H142175   1.909   5.920   0.755  0.1112 -1.6708  1.6828
14078TIP3    H242176   1.982   5.798   0.705 -1.9923 -2.7421  1.0777
14079TIP3   OH242177   5.624   3.517   3.130 -0.5840 -0.4423  0.1879
14079TIP3    H142178   5.621   3.579   3.202  0.3313  0.6165 -0.6501
14079TIP3    H242179   5.711   3.528   3.092 -0.9756 -1.1104 -0.9557
14080TIP3   OH242180   0.944   3.744   4.862  0.0485 -0.4603  0.7916
14080TIP3    H142181   0.974   3.725   4.773 -1.4483 -1.6442  0.5072
14080TIP3    H242182   0.934   3.659   4.903 -4.1314 -0.3387  0.3999
14081TIP3   OH242183   0.582   7.417   5.289 -0.1740  0.1609 -0.2074
14081TIP3    H142184   0.616   7.460   5.210  1.3464  1.3473  1.0340
14081TIP3    H242185   0.625   7.332   5.290  0.7771  0.6273 -0.0365
14082TIP3   OH242186   7.256   3.881   5.032  0.4450  0.2897 -0.1158
14082TIP3    H142187   7.274   3.951   5.094 -0.7949  1.2430 -0.7816
14082TIP3    H242188   7.280   3.801   5.078  0.9870  1.0814  1.0108
14083TIP3   OH242189   2.021   7.349   1.696  0.3430 -0.4767  0.2574
14083TIP3    H142190   1.962   7.405   1.747  0.7248  0.3266 -0.1633
14083TIP3    H242191   1.995   7.363   1.605 -1.8528 -3.6336  0.2613
14084TIP3   OH242192   0.347   3.158   0.619  0.5004  0.2076 -0.8004
14084TIP3    H142193   0.351   3.243   0.663  2.3811 -0.1204 -0.2093
14084TIP3    H242194   0.255   3.133   0.621  0.3935  0.2894  2.9145
14085TIP3   OH242195   7.359   7.685   2.575 -0.1480  0.7391  0.6079
14085TIP3    H142196   7.429   7.750   2.581 -0.9104  1.7199 -0.7169
14085TIP3    H242197   7.353   7.665   2.481  2.5319 -4.0227  1.1120
14086TIP3   OH242198   3.537   3.272   3.232  0.2393 -0.2942  0.1916
14086TIP3    H142199   3.576   3.305   3.313  0.0792 -1.0124  0.5683
14086TIP3    H242200   3.443   3.286   3.244  0.1816 -0.7615  0.3007
14087TIP3   OH242201   3.354   7.560   3.631 -0.2885  0.3191  0.4049
14087TIP3    H142202   3.445   7.587   3.625 -0.1964  0.5627  2.2237
14087TIP3    H242203   3.328   7.541   3.541  2.1312 -1.7430  0.0295
14088TIP3   OH242204   3.586   5.048   2.764 -0.4714  0.3020 -0.3033
14088TIP3    H142205   3.600   4.963   2.806  1.5600  1.1121  0.8046
14088TIP3    H242206   3.500   5.075   2.794 -0.1247 -0.2900  1.3291
14089TIP3   OH242207   2.703   4.908   0.751  0.1062 -0.0584 -0.4430
14089TIP3    H142208   2.705   4.952   0.836 -0.4549 -2.0384  0.6595
14089TIP3    H242209   2.615   4.872   0.744  1.0256 -2.5375 -0.3900
14090TIP3   OH242210   3.666   7.636   2.717 -0.4340  0.0603  0.0708
14090TIP3    H142211   3.733   7.705   2.715 -0.2730 -0.1043 -1.0549
14090TIP3    H242212   3.701   7.568   2.659 -1.3739 -0.2178 -0.1803
14091TIP3   OH242213   3.567   1.842   5.802  0.2855  0.1436 -0.2364
14091TIP3    H142214   3.501   1.870   5.738 -0.9811  0.5321  1.1850
14091TIP3    H242215   3.517   1.824   5.882  2.0373  2.2442  1.4640
14092TIP3   OH242216   4.504   3.906   3.800  0.1365 -0.4762  0.0167
14092TIP3    H142217   4.538   3.818   3.816 -1.3571 -0.9349  0.8204
14092TIP3    H242218   4.524   3.955   3.880  0.0983 -0.3590 -0.0452
14093TIP3   OH242219   1.813   4.418   0.179 -0.0774 -0.4288  0.4534
14093TIP3    H142220   1.803   4.341   0.235 -0.3737  0.3048  1.4459
14093TIP3    H242221   1.787   4.491   0.235  2.2827  0.6515  0.2546
14094TIP3   OH242222   3.188   5.231   0.411 -0.7532 -0.0733 -0.4879
14094TIP3    H142223   3.178   5.306   0.351 -1.2618 -0.9928 -1.5800
14094TIP3    H242224   3.104   5.186   0.407 -0.0424 -1.4362 -0.8739
14095TIP3   OH242225   5.695   1.551   6.751  0.2732 -0.2744 -0.1978
14095TIP3    H142226   5.613   1.599   6.760 -0.1400 -0.9121 -0.5152
14095TIP3    H242227   5.763   1.617   6.765 -0.2767 -0.0639  1.9278
14096TIP3   OH242228   8.384   3.620   1.072  0.1318 -0.0731  0.8213
14096TIP3    H142229   8.352   3.711   1.074  1.2125  0.4849 -2.0664
14096TIP3    H242230   8.328   3.574   1.134 -0.9840  2.3935  1.8014
14097TIP3   OH242231   1.443   1.994   2.391  0.2828  0.5128 -0.2091
14097TIP3    H142232   1.368   1.946   2.356 -0.1395  0.7197  0.3957
14097TIP3    H242233   1.410   2.036   2.470  1.1243  0.3554  0.2372
14098TIP3   OH242234   6.542   5.556   4.621 -0.1567  0.1000 -0.4516
14098TIP3    H142235   6.596   5.480   4.640 -0.6658  0.1733  1.5612
14098TIP3    H242236   6.592   5.606   4.557 -0.5264 -2.6299 -3.1073
14099TIP3   OH242237   5.875   3.032   3.909 -0.8169  0.2347  0.6133
14099TIP3    H142238   5.804   2.998   3.855 -0.1296 -1.5150  0.7584
14099TIP3    H242239   5.951   3.035   3.850  0.1419 -2.4333  1.5534
14100TIP3   OH242240   4.079   5.489   1.565  0.1993 -0.4286  0.2560
14100TIP3    H142241   3.990   5.497   1.529 -0.1953  0.2690  1.3476
14100TIP3    H242242   4.134   5.542   1.507 -0.5525  1.3216  1.0821
14101TIP3   OH242243   5.541   0.050   4.333  0.5419 -0.0457  0.1343
14101TIP3    H142244   5.629   0.084   4.350 -0.1526  2.9943 -1.6785
14101TIP3    H242245   5.535   0.046   4.238 -0.8556 -1.5215  0.2399
14102TIP3   OH242246   2.678   3.876   5.966 -0.1745 -0.8370  0.0662
14102TIP3    H142247   2.665   3.850   5.875 -1.0921 -2.1032  0.5271
14102TIP3    H242248   2.626   3.956   5.976 -0.7962 -1.1847 -0.3071
14103TIP3   OH242249   1.835   7.691   3.466 -0.1415 -0.3741  0.1802
14103TIP3    H142250   1.888   7.611   3.467 -1.1590 -1.0952 -0.6094
14103TIP3    H242251   1.896   7.760   3.442  0.7680 -0.9041  0.9067
14104TIP3   OH242252   0.958   3.089   5.015 -0.5915 -0.4260  0.6884
14104TIP3    H142253   0.957   3.055   4.926  3.2872 -0.3082  0.4314
14104TIP3    H242254   0.960   3.184   5.005  0.2380 -0.4201  0.8666
14105TIP3   OH242255   1.562   4.848   0.257 -0.5255  0.2774  0.9958
14105TIP3    H142256   1.513   4.896   0.190  0.0700 -0.3988  0.0499
14105TIP3    H242257   1.626   4.911   0.290  1.4300 -0.2601 -1.4660
14106TIP3   OH242258   7.619   1.351   3.353 -0.0833 -0.1382 -0.0530
14106TIP3    H142259   7.677   1.423   3.380 -1.5363  1.5479 -1.2034
14106TIP3    H242260   7.548   1.352   3.417 -1.6938  1.5546 -1.7218
14107TIP3   OH242261   2.883   7.651   4.781 -0.1361 -0.3519 -0.2156
14107TIP3    H142262   2.840   7.711   4.720  0.4707  1.9316  1.4771
14107TIP3    H242263   2.817   7.583   4.797 -1.0979  0.1681 -1.7208
14108TIP3   OH242264   3.041   5.241   0.070  0.1049  0.0715 -0.1949
14108TIP3    H142265   3.092   5.252  -0.011  2.9152 -1.0620  1.2611
14108TIP3    H242266   3.024   5.147   0.074 -0.0453  0.1239  0.5021
14109TIP3   OH242267   6.363   3.624   2.178 -0.3672 -0.3066  0.2672
14109TIP3    H142268   6.336   3.635   2.269 -1.9129 -0.4185 -0.1632
14109TIP3    H242269   6.359   3.712   2.142  3.3495  0.3615  1.0541
14110TIP3   OH242270   4.701   4.909   1.243 -0.1907 -0.5138 -0.3608
14110TIP3    H142271   4.748   4.990   1.266 -0.0926 -0.4073 -0.9329
14110TIP3    H242272   4.627   4.907   1.304 -1.1414  0.8795 -1.4090
14111TIP3   OH242273   8.378   7.502   1.650  0.2999 -0.4534 -0.2069
14111TIP3    H142274   8.470   7.520   1.636  0.1920 -1.6174 -3.2579
14111TIP3    H242275   8.333   7.549   1.579 -1.4755  0.0655  1.1842
14112TIP3   OH242276   3.324   7.470   1.505 -0.5551 -0.5277  0.3726
14112TIP3    H142277   3.407   7.499   1.469 -0.2016 -1.8459  0.1002
14112TIP3    H242278   3.258   7.514   1.451 -0.0608  0.3918  0.4853
14113TIP3   OH242279   1.102   5.311   4.122 -0.3557 -0.4849 -0.4049
14113TIP3    H142280   1.148   5.394   4.135 -1.0745  0.0599 -1.2281
14113TIP3    H242281   1.169   5.244   4.134  0.7569  0.2989 -1.8856
14114TIP3   OH242282   4.696   4.967   0.874 -0.6528 -0.2076  0.1208
14114TIP3    H142283   4.792   4.971   0.868 -0.4082 -3.1492  0.3949
14114TIP3    H242284   4.668   4.944   0.786 -0.8503 -1.6589  0.5352
14115TIP3   OH242285   0.117   7.042   6.468  0.3050  0.2692 -0.2510
14115TIP3    H142286   0.043   7.019   6.524 -1.0073  2.4748 -0.9604
14115TIP3    H242287   0.193   7.038   6.527 -0.6610 -0.0360  1.0145
14116TIP3   OH242288   2.727   3.267   1.525  0.0656  0.2324  0.3888
14116TIP3    H142289   2.815   3.268   1.486  0.2283 -2.1384  0.5179
14116TIP3    H242290   2.699   3.176   1.515 -1.5222  0.4682  2.2640
14117TIP3   OH242291   8.401   1.035   6.069  0.0779  0.1378 -0.0437
14117TIP3    H142292   8.354   0.965   6.115 -0.0471 -0.2967 -0.8071
14117TIP3    H242293   8.408   1.003   5.979 -0.5505  1.4097 -0.5628
14118TIP3   OH242294   6.022   2.523   2.488 -0.1072  0.3629 -0.7069
14118TIP3    H142295   6.117   2.536   2.487  0.2496 -1.8607 -0.1881
14118TIP3    H242296   6.010   2.428   2.487 -2.3462  0.5876 -1.0285
14119TIP3   OH242297   5.232   3.232   2.355  0.3610  0.0236 -0.1866
14119TIP3    H142298   5.224   3.240   2.259  0.4472  2.2919 -0.0582
14119TIP3    H242299   5.172   3.161   2.378  0.1174 -0.3737 -1.8912
14120TIP3   OH242300   6.039   7.871   5.205  0.2057 -0.0461 -0.1900
14120TIP3    H142301   6.108   7.888   5.268 -0.9903  1.8274  0.7111
14120TIP3    H242302   5.971   7.826   5.255 -0.1588  0.1586 -0.4957
14121TIP3   OH242303   1.487   4.094   6.252  0.1164 -0.0170  0.3775
14121TIP3    H142304   1.457   4.070   6.165 -0.1496 -1.9811  0.9680
14121TIP3    H242305   1.406   4.110   6.302  0.2399  0.1089  0.5408
14122TIP3   OH242306   8.081   5.721   6.548  0.1897 -0.7261  0.5002
14122TIP3    H142307   8.085   5.782   6.622 -1.0190  0.2785 -0.2125
14122TIP3    H242308   8.105   5.774   6.472 -1.5279 -0.9061 -0.2273
14123TIP3   OH242309   1.333   6.373   0.715 -0.4894 -0.0949 -0.0559
14123TIP3    H142310   1.301   6.408   0.799 -0.3149 -0.8704  0.3396
14123TIP3    H242311   1.352   6.281   0.733  0.9963  0.0994 -0.5625
14124TIP3   OH242312   0.083   6.079   4.862  0.8431  0.3572 -0.2539
14124TIP3    H142313   0.130   6.002   4.830  0.4748  0.2653 -0.5691
14124TIP3    H242314  -0.004   6.074   4.823  1.1287  1.4646 -1.0953
14125TIP3   OH242315   6.344   1.305   1.434  0.2212  0.1333 -0.1096
14125TIP3    H142316   6.255   1.314   1.399  0.1316 -0.8178 -0.1457
14125TIP3    H242317   6.333   1.300   1.528  0.2331  0.0012 -0.1148
14126TIP3   OH242318   4.051   0.329   4.238 -0.1864 -0.0251  0.0937
14126TIP3    H142319   3.998   0.398   4.278  0.2378  0.5777 -0.3665
14126TIP3    H242320   4.064   0.264   4.307  0.0535  0.7259  0.7597
14127TIP3   OH242321   3.594   5.775   2.401  0.0284 -0.9161 -0.5555
14127TIP3    H142322   3.612   5.861   2.438  0.0026 -1.5028  0.8595
14127TIP3    H242323   3.629   5.779   2.312  0.5042  0.3710 -0.3199
14128TIP3   OH242324   2.073   4.516   0.236  0.0837 -0.1287  0.5189
14128TIP3    H142325   2.097   4.546   0.148 -0.6100  1.3176  0.7929
14128TIP3    H242326   1.988   4.475   0.225  1.1243 -2.3192  0.1074
14129TIP3   OH242327   2.368   2.684   6.205 -0.3112  0.0485  0.1032
14129TIP3    H142328   2.323   2.621   6.260  1.1680 -0.2497  1.0411
14129TIP3    H242329   2.406   2.747   6.267 -0.3307  0.8892 -0.7138
14130TIP3   OH242330   7.431   7.182   5.366 -0.5753  0.2312  0.5714
14130TIP3    H142331   7.481   7.237   5.425  0.1379  1.2202 -0.8870
14130TIP3    H242332   7.343   7.219   5.367 -0.8485 -0.3981  1.7618
14131TIP3   OH242333   4.092   3.399   6.661 -0.3461  0.5298 -0.0690
14131TIP3    H142334   4.026   3.437   6.604 -0.9655  3.5152  2.3386
14131TIP3    H242335   4.174   3.442   6.635 -0.8242  2.7737  1.8376
14132TIP3   OH242336   4.778   1.897   4.512 -0.0543  0.2854  0.1967
14132TIP3    H142337   4.806   1.806   4.512  2.1647  0.9232 -0.6643
14132TIP3    H242338   4.695   1.896   4.464  0.7024 -1.0835 -1.1767
14133TIP3   OH242339   2.964   6.389   3.461  0.8295  0.1807  0.4644
14133TIP3    H142340   3.027   6.459   3.443  1.3459 -0.3941  0.0239
14133TIP3    H242341   2.994   6.351   3.544 -0.5481  1.6955  1.7222
14134TIP3   OH242342   5.986   6.280   4.676 -0.1589  0.2752  0.2653
14134TIP3    H142343   6.013   6.272   4.585  2.4714  0.0103  0.9874
14134TIP3    H242344   6.045   6.346   4.713 -0.1454 -0.6933  2.1122
14135TIP3   OH242345   8.384   4.502   4.662  0.6534  0.1854  0.1333
14135TIP3    H142346   8.323   4.440   4.702  0.5890 -0.0553 -0.3349
14135TIP3    H242347   8.337   4.586   4.665 -0.0669 -0.1498 -0.9847
14136TIP3   OH242348   7.161   7.467   5.965  0.0850 -0.1632 -0.1130
14136TIP3    H142349   7.080   7.510   5.939 -0.3774 -1.4143 -0.8171
14136TIP3    H242350   7.217   7.471   5.888 -0.0154 -0.9185 -0.2338
14137TIP3   OH242351   5.348   6.892   5.602 -0.2699  0.5165 -0.4951
14137TIP3    H142352   5.405   6.905   5.526 -0.4961 -0.2133 -0.7966
14137TIP3    H242353   5.260   6.887   5.566 -0.2665 -1.2649 -0.3836
14138TIP3   OH242354   1.755   3.324   0.811  0.0407  0.3290  0.0790
14138TIP3    H142355   1.815   3.261   0.852  1.4135  0.2735 -1.8927
14138TIP3    H242356   1.788   3.409   0.838  0.4296  0.2729 -0.2038
14139TIP3   OH242357   1.951   7.438   3.482 -0.5274  0.0604  0.2169
14139TIP3    H142358   1.911   7.432   3.395 -1.4290  0.5870  0.5838
14139TIP3    H242359   1.990   7.352   3.496 -2.3593 -0.8223  0.2147
14140TIP3   OH242360   7.330   3.764   3.280 -0.1085  0.3309 -0.1281
14140TIP3    H142361   7.411   3.723   3.248  0.0716  0.1741  0.5165
14140TIP3    H242362   7.317   3.727   3.367 -0.1507  1.3668  0.3224
14141TIP3   OH242363   4.255   5.903   2.270  0.4144 -0.0252  0.2300
14141TIP3    H142364   4.348   5.885   2.283  0.5341 -1.9578 -2.3229
14141TIP3    H242365   4.251   5.951   2.187 -0.8871 -1.5673 -0.6741
14142TIP3   OH242366   1.948   0.439   6.036  0.6728 -0.1520 -0.3636
14142TIP3    H142367   1.967   0.468   6.125  3.2498 -2.0520 -0.1643
14142TIP3    H242368   1.870   0.384   6.045  0.4081  0.3552  0.5528
14143TIP3   OH242369   7.331   6.016   1.687  0.0210  0.3715 -0.0427
14143TIP3    H142370   7.342   6.058   1.772  0.5158  0.6016 -0.2112
14143TIP3    H242371   7.275   6.076   1.638  1.6458  1.4489 -0.6701
14144TIP3   OH242372   2.575   2.992   3.960 -0.2150  0.6265 -0.0571
14144TIP3    H142373   2.481   2.976   3.963 -0.5094  1.4357 -2.5442
14144TIP3    H242374   2.615   2.906   3.974 -1.3340  0.1248  0.1016
14145TIP3   OH242375   0.888   0.434   0.944  0.1457  0.1705  0.0775
14145TIP3    H142376   0.981   0.456   0.940  0.0364  0.8393  1.0356
14145TIP3    H242377   0.885   0.340   0.923  0.9427  0.3111 -0.7498
14146TIP3   OH242378   0.828   4.310   5.683 -0.0170  0.1195 -0.3160
14146TIP3    H142379   0.798   4.224   5.652 -0.3926 -0.6113  1.8489
14146TIP3    H242380   0.872   4.290   5.766 -0.2847  2.0389  0.3237
14147TIP3   OH242381   1.555   7.575   1.668  0.0839  0.8226  0.4413
14147TIP3    H142382   1.634   7.622   1.695 -0.1786  0.5717  1.7554
14147TIP3    H242383   1.530   7.525   1.746 -0.3358 -0.5374 -0.5243
14148TIP3   OH242384   6.135   3.774   3.808 -0.3355  0.0692  0.4874
14148TIP3    H142385   6.200   3.760   3.876 -0.7458 -1.7031  0.5715
14148TIP3    H242386   6.185   3.773   3.726 -0.1124 -0.0277  0.6237
14149TIP3   OH242387   1.599   4.100   5.545 -0.5756  0.2061  0.4078
14149TIP3    H142388   1.588   4.155   5.622 -0.2213 -0.8835  1.2567
14149TIP3    H242389   1.688   4.067   5.551 -1.0888 -1.2440  0.4628
14150TIP3   OH242390   5.741   3.983   2.698  0.0515 -0.3252  0.3075
14150TIP3    H142391   5.749   4.066   2.651 -0.4230 -0.3801  0.1192
14150TIP3    H242392   5.771   3.917   2.635 -0.0014 -0.3394  0.2971
14151TIP3   OH242393   0.041   5.071   3.973  0.5837  0.0069 -0.2135
14151TIP3    H142394   0.045   5.166   3.984  0.2647 -0.0607  0.5041
14151TIP3    H242395  -0.030   5.058   3.910  0.2944  0.2133  0.0695
14152TIP3   OH242396   5.312   7.840   3.027 -0.4972  0.2308  0.2999
14152TIP3    H142397   5.253   7.886   2.967 -0.2088 -0.2955 -0.4034
14152TIP3    H242398   5.387   7.815   2.972  0.6871  1.4412  1.3097
14153TIP3   OH242399   5.621   3.185   3.224 -0.6797  0.2276  0.0503
14153TIP3    H142400   5.687   3.196   3.155 -0.0336 -1.8113  0.2755
14153TIP3    H242401   5.604   3.091   3.226 -1.6001  0.3941  1.8543
14154TIP3   OH242402   2.586   2.832   3.123  0.7737  0.3594 -0.7232
14154TIP3    H142403   2.602   2.907   3.181  0.5515 -0.6550  0.7186
14154TIP3    H242404   2.663   2.776   3.135  0.4393 -0.1503 -0.9343
14155TIP3   OH242405   2.959   5.045   4.289  0.2251 -0.0578  0.2748
14155TIP3    H142406   3.013   4.974   4.324  1.3757 -0.3885 -1.9838
14155TIP3    H242407   2.898   5.002   4.229  1.6541  0.8869 -1.9648
14156TIP3   OH242408   6.763   7.472   1.410 -0.0611  0.0351  0.2670
14156TIP3    H142409   6.818   7.402   1.377  0.4321  1.1482 -1.3790
14156TIP3    H242410   6.794   7.487   1.500  0.8660 -0.7846  0.0983
14157TIP3   OH242411   7.285   3.296   5.457 -0.0922  0.1396  0.0499
14157TIP3    H142412   7.297   3.268   5.548 -1.0274  3.3726  1.2853
14157TIP3    H242413   7.347   3.368   5.445 -1.3233  1.0497 -1.2301
14158TIP3   OH242414   8.345   3.612   2.179 -0.1968  0.5929  0.2393
14158TIP3    H142415   8.314   3.523   2.193 -0.4144  0.3564 -1.6041
14158TIP3    H242416   8.284   3.650   2.116 -0.2824  2.1660  1.1997
14159TIP3   OH242417   5.636   5.892   3.178 -0.0140 -0.7394 -0.2400
14159TIP3    H142418   5.555   5.874   3.226 -0.4012 -0.1930 -0.6759
14159TIP3    H242419   5.682   5.808   3.175 -1.8658 -1.7530 -2.4612
14160TIP3   OH242420   7.382   4.672   2.162 -0.1451 -0.1796  0.4198
14160TIP3    H142421   7.308   4.694   2.105  1.4895  1.6740 -1.1558
14160TIP3    H242422   7.450   4.734   2.136  2.3583 -2.5079  1.0100
14161TIP3   OH242423   3.806   1.109   6.527  0.2044 -0.0129 -0.2065
14161TIP3    H142424   3.837   1.050   6.458  0.2799  0.6110 -0.7064
14161TIP3    H242425   3.840   1.070   6.608 -0.9505 -1.4700 -0.3687
14162TIP3   OH242426   7.408   0.131   5.042  0.4427  0.1066 -0.0122
14162TIP3    H142427   7.482   0.074   5.062 -0.0680 -0.8940 -0.9166
14162TIP3    H242428   7.423   0.158   4.951 -0.4601 -0.3395 -0.2936
14163TIP3   OH242429   4.757   4.966   4.982 -0.0941 -1.0313 -0.2334
14163TIP3    H142430   4.801   4.942   4.901  1.3044  0.6732 -0.0284
14163TIP3    H242431   4.827   4.982   5.044 -1.1069 -1.1439  0.9834
14164TIP3   OH242432   0.972   2.670   3.120 -0.1458 -0.0500 -0.1207
14164TIP3    H142433   0.942   2.667   3.211 -0.7684 -0.2052 -0.3235
14164TIP3    H242434   0.944   2.756   3.089 -2.1363 -0.9110 -0.8767
14165TIP3   OH242435   5.073   1.818   5.068  0.0206 -0.4377  0.3625
14165TIP3    H142436   5.037   1.825   5.157  1.4118 -0.1355  0.9122
14165TIP3    H242437   5.167   1.823   5.079  0.2303 -0.6153 -1.1279
14166TIP3   OH242438   0.283   1.572   2.301 -0.3231 -0.0735  0.0985
14166TIP3    H142439   0.371   1.609   2.305 -0.0172 -0.7007 -0.6694
14166TIP3    H242440   0.262   1.569   2.208 -0.6627 -1.0556  0.1947
14167TIP3   OH242441   5.568   2.704   3.439 -0.4471 -0.2942 -0.4857
14167TIP3    H142442   5.655   2.743   3.447 -0.1680 -0.8478 -0.7818
14167TIP3    H242443   5.521   2.735   3.516  0.0798 -0.1760 -0.2047
14168TIP3   OH242444   1.310   6.230   3.817 -0.2210 -0.6094 -0.1940
14168TIP3    H142445   1.363   6.151   3.806  2.1270  1.1031 -1.9618
14168TIP3    H242446   1.270   6.244   3.731 -0.4132  0.2607  0.0308
14169TIP3   OH242447   0.994   0.477   1.908  0.2815  0.1336 -0.3218
14169TIP3    H142448   0.990   0.572   1.896  0.4222  0.5674  2.4437
14169TIP3    H242449   0.906   0.453   1.936  1.4825  0.5365  4.7380
14170TIP3   OH242450   6.584   5.690   4.275 -0.2438  0.0282 -0.6357
14170TIP3    H142451   6.661   5.686   4.332 -0.9469 -1.3091  0.2832
14170TIP3    H242452   6.517   5.734   4.327 -0.7904 -0.9007 -0.5187
14171TIP3   OH242453   0.648   2.348   0.442 -0.0241  0.1469 -0.1064
14171TIP3    H142454   0.614   2.312   0.361 -2.1798  1.7441 -0.0139
14171TIP3    H242455   0.575   2.341   0.504  1.3918 -0.5378  1.5644
14172TIP3   OH242456   3.474   7.733   2.338 -0.5238 -0.2223 -0.4171
14172TIP3    H142457   3.402   7.694   2.287 -0.0917 -1.5796 -0.0416
14172TIP3    H242458   3.441   7.733   2.428 -0.6497  0.6266 -0.4605
14173TIP3   OH242459   1.230   3.514   1.674  0.1396 -0.2208 -0.2417
14173TIP3    H142460   1.163   3.458   1.713 -1.4663  1.7517 -0.0306
14173TIP3    H242461   1.292   3.529   1.745 -0.0132 -0.8019  0.0258
14174TIP3   OH242462   5.472   2.407   0.164 -0.2417 -0.0236  0.0254
14174TIP3    H142463   5.481   2.502   0.167 -2.2244  0.3114 -1.8563
14174TIP3    H242464   5.548   2.377   0.115  0.1095  0.6472  0.1487
14175TIP3   OH242465   6.035   3.002   6.608 -0.3374 -0.4949 -0.2020
14175TIP3    H142466   6.115   3.044   6.641 -1.6693  0.9132  1.4735
14175TIP3    H242467   6.012   2.939   6.676 -2.1438  1.1535  0.8290
14176TIP3   OH242468   1.291   5.691   4.666  0.5736 -0.3361 -0.0981
14176TIP3    H142469   1.353   5.696   4.738  0.0135 -1.0304  0.4532
14176TIP3    H242470   1.212   5.734   4.700  0.2662 -0.7779 -0.2515
14177TIP3   OH242471   7.196   0.456   4.825 -0.1384  0.4338  0.4842
14177TIP3    H142472   7.237   0.508   4.894  0.0777  1.5044 -0.4292
14177TIP3    H242473   7.116   0.504   4.803  0.3130  0.6683 -0.7098
14178TIP3   OH242474   3.760   5.736   0.033  0.2186  0.3220 -0.6700
14178TIP3    H142475   3.788   5.737   0.124  0.0456  0.5624 -0.6172
14178TIP3    H242476   3.666   5.716   0.037  0.2599  0.0976 -0.8088
14179TIP3   OH242477   2.572   1.867   0.349 -0.1412 -0.5317 -0.1154
14179TIP3    H142478   2.657   1.837   0.315  0.6600  0.9490  0.4717
14179TIP3    H242479   2.543   1.933   0.286  0.3117  0.6680  0.9040
14180TIP3   OH242480   6.664   1.266   2.337  0.5090 -0.3637 -0.4661
14180TIP3    H142481   6.631   1.237   2.252 -0.0157  0.1366 -0.4418
14180TIP3    H242482   6.612   1.216   2.400 -0.0375  0.2372 -0.4302
14181TIP3   OH242483   4.789   6.942   2.051 -0.0372  0.2538  0.6990
14181TIP3    H142484   4.839   6.946   2.132 -0.7717 -0.9432  1.2432
14181TIP3    H242485   4.834   6.876   1.998  0.7294  1.3781 -0.1106
14182TIP3   OH242486   4.772   0.440   3.899  0.1303 -0.5822  0.2362
14182TIP3    H142487   4.717   0.488   3.960  0.4587 -0.6847  0.6169
14182TIP3    H242488   4.725   0.445   3.815  1.3091  2.6221 -0.4062
14183TIP3   OH242489   0.275   0.128   1.934  1.1525 -0.5220 -0.2877
14183TIP3    H142490   0.225   0.057   1.894 -1.2620  0.7938  0.2223
14183TIP3    H242491   0.353   0.137   1.878 -0.5089 -0.8655 -2.7984
14184TIP3   OH242492   5.818   2.821   3.450 -0.4701  0.4525 -0.0276
14184TIP3    H142493   5.877   2.885   3.410  1.2317 -0.7052  0.5568
14184TIP3    H242494   5.870   2.778   3.517 -2.4067  0.3604  1.5259
14185TIP3   OH242495   5.537   2.077   6.806  0.3404 -0.1424 -0.2269
14185TIP3    H142496   5.498   2.113   6.727 -0.5231 -0.3110  0.1067
14185TIP3    H242497   5.498   2.128   6.877 -0.4999 -1.3612  0.2175
14186TIP3   OH242498   4.011   0.516   5.554 -0.1775  0.0501 -0.4501
14186TIP3    H142499   4.008   0.595   5.609  2.3940  0.2309 -0.4563
14186TIP3    H242500   3.921   0.505   5.523 -1.6453  0.3545  3.1891
14187TIP3   OH242501   4.224   3.896   5.131 -0.2746 -0.4469 -0.1829
14187TIP3    H142502   4.313   3.918   5.106 -0.5760 -0.8479 -1.6877
14187TIP3    H242503   4.174   3.901   5.049 -2.5908  4.1172  1.1631
14188TIP3   OH242504   1.135   2.594   0.244 -0.0433  0.3601 -0.2234
14188TIP3    H142505   1.210   2.534   0.251 -1.4781 -1.4411  0.5762
14188TIP3    H242506   1.115   2.597   0.150 -0.7342 -1.4937 -0.1678
14189TIP3   OH242507   3.889   0.858   4.867  0.0948  0.0397  0.8658
14189TIP3    H142508   3.908   0.770   4.899 -3.9724 -1.5691 -0.4964
14189TIP3    H242509   3.835   0.843   4.789  0.4910  3.7951 -0.3056
14190TIP3   OH242510   0.184   4.907   3.322  0.1277  0.2849 -0.0288
14190TIP3    H142511   0.151   4.945   3.404  0.4472  2.1643 -0.7215
14190TIP3    H242512   0.150   4.817   3.322 -2.4103  1.1436  0.7643
14191TIP3   OH242513   1.250   3.745   0.473  0.4955 -0.6107 -0.1879
14191TIP3    H142514   1.237   3.830   0.516  0.1901  0.3830 -2.1377
14191TIP3    H242515   1.177   3.692   0.502 -0.3479  0.4178 -0.3785
14192TIP3   OH242516   6.318   4.031   4.960  0.1621  0.2063  0.2875
14192TIP3    H142517   6.297   4.002   5.049 -0.1919  0.6384  0.3518
14192TIP3    H242518   6.240   4.010   4.909  0.0637  0.6515  0.2460
14193TIP3   OH242519   6.861   3.938   4.793  0.8147  0.0534  0.0919
14193TIP3    H142520   6.867   3.915   4.886  2.0579  0.2547  0.0880
14193TIP3    H242521   6.951   3.964   4.770  0.5793 -0.2665 -1.2364
14194TIP3   OH242522   7.023   1.612   0.829  0.1642 -0.3648  0.2488
14194TIP3    H142523   7.071   1.694   0.824  0.7200 -0.6978  0.0763
14194TIP3    H242524   6.940   1.630   0.785  0.2078  0.1588  0.3839
14195TIP3   OH242525   8.332   4.917   2.033 -0.0581 -0.2517  1.0312
14195TIP3    H142526   8.354   5.008   2.049 -2.0435  0.5673 -0.4505
14195TIP3    H242527   8.272   4.894   2.104 -0.8123  0.1325  0.5325
14196TIP3   OH242528   1.275   5.448   1.560  0.0975  0.2393 -0.3688
14196TIP3    H142529   1.198   5.411   1.518 -0.9922  0.5565  1.2649
14196TIP3    H242530   1.324   5.490   1.489 -0.1640 -1.6981 -1.7615
14197TIP3   OH242531   7.327   3.037   0.553 -0.4005 -0.2186  0.0583
14197TIP3    H142532   7.349   2.950   0.519 -0.5432  0.0714 -0.7988
14197TIP3    H242533   7.255   3.021   0.614 -0.5085 -0.6944 -0.1850
14198TIP3   OH242534   1.092   3.221   4.718 -0.3193  0.0171  0.8872
14198TIP3    H142535   1.016   3.279   4.723 -1.3389 -1.1805 -0.1367
14198TIP3    H242536   1.062   3.147   4.667  1.6559 -0.3522  0.1949
14199TIP3   OH242537   4.108   7.837   3.308  0.1498 -0.5277  0.5383
14199TIP3    H142538   4.037   7.863   3.249 -0.3914 -1.5581  0.7043
14199TIP3    H242539   4.154   7.918   3.327  0.4582 -0.1750 -1.4399
14200TIP3   OH242540   1.182   3.690   0.206 -0.1675 -0.1544 -0.3552
14200TIP3    H142541   1.242   3.627   0.166 -0.6418 -0.7264 -0.1785
14200TIP3    H242542   1.218   3.706   0.293  0.5144  0.6053 -0.7633
14201TIP3   OH242543   0.781   2.114   2.112  0.8268  0.0705  0.5326
14201TIP3    H142544   0.787   2.209   2.125 -0.6782  0.4775 -1.3174
14201TIP3    H242545   0.713   2.087   2.174  0.7526  0.3122  0.5591
14202TIP3   OH242546   3.813   2.609   4.033  0.1890  0.1913 -0.3684
14202TIP3    H142547   3.824   2.525   3.988 -0.0427 -0.8295  1.3909
14202TIP3    H242548   3.793   2.585   4.123 -0.2023  2.1581  0.1043
14203TIP3   OH242549   0.561   0.954   3.938  0.0752 -0.1604  0.5604
14203TIP3    H142550   0.520   0.962   3.852  0.2556 -0.2775  0.4631
14203TIP3    H242551   0.655   0.968   3.921  0.0955 -0.0556  0.7568
14204TIP3   OH242552   5.435   5.640   6.698  0.2474 -0.4571 -0.3725
14204TIP3    H142553   5.361   5.650   6.757  0.6800  1.8999 -0.1166
14204TIP3    H242554   5.397   5.643   6.611 -0.0797 -0.6305 -0.2377
14205TIP3   OH242555   7.915   5.527   5.333 -0.3404 -0.2388 -0.2467
14205TIP3    H142556   7.987   5.495   5.387 -0.9699 -1.1903  0.0664
14205TIP3    H242557   7.957   5.576   5.262  0.5558 -0.0662  0.3945
14206TIP3   OH242558   5.793   0.910   1.694  0.2674 -0.4718  0.2644
14206TIP3    H142559   5.755   0.832   1.654  0.5007  0.1343 -1.2112
14206TIP3    H242560   5.718   0.955   1.733 -0.4138  0.1435 -1.6360
14207TIP3   OH242561   0.279   2.704   0.834 -0.4223 -1.0007 -0.0378
14207TIP3    H142562   0.193   2.694   0.793 -0.3993 -2.5668  0.2441
14207TIP3    H242563   0.324   2.768   0.778 -1.9690  0.3833  0.1974
14208TIP3   OH242564   4.768   7.399   3.263  0.4825  0.1217  0.1981
14208TIP3    H142565   4.759   7.481   3.312 -0.7849  0.9837 -1.4067
14208TIP3    H242566   4.678   7.367   3.253  1.0457 -2.4568  2.3181
14209TIP3   OH242567   4.841   4.777   2.793  0.6677  0.0950 -0.2561
14209TIP3    H142568   4.746   4.774   2.784  0.8732 -1.2965 -2.8341
14209TIP3    H242569   4.865   4.866   2.770 -0.1735  2.0352  4.8956
14210TIP3   OH242570   3.638   6.143   4.667  0.2544 -0.0534  0.1515
14210TIP3    H142571   3.630   6.198   4.745 -1.6055 -0.2552  0.1479
14210TIP3    H242572   3.635   6.206   4.594 -1.5117 -0.0645  0.1608
14211TIP3   OH242573   6.438   6.878   1.900  0.1580 -0.7778  0.0594
14211TIP3    H142574   6.483   6.889   1.817  0.1059 -1.5560 -0.0793
14211TIP3    H242575   6.457   6.788   1.926  0.8917 -0.2883  1.3108
14212TIP3   OH242576   1.559   5.140   5.493  0.0189 -0.1825  0.3756
14212TIP3    H142577   1.528   5.187   5.416  2.0154 -0.1672 -0.4673
14212TIP3    H242578   1.485   5.087   5.521 -0.4529 -0.9393 -2.1395
14213TIP3   OH242579   2.392   2.920   5.281 -0.3616 -0.6457 -0.3848
14213TIP3    H142580   2.455   2.933   5.352 -0.0742 -1.2720 -0.5132
14213TIP3    H242581   2.335   2.849   5.313 -1.4419  0.3631  0.0171
14214TIP3   OH242582   6.574   0.798   2.087  0.3391 -0.4043  0.4682
14214TIP3    H142583   6.506   0.753   2.037  0.3276 -0.5541  0.6193
14214TIP3    H242584   6.586   0.744   2.165  0.6476 -0.3906  0.4299
14215TIP3   OH242585   3.649   4.423   2.852 -0.6978  0.0295 -0.1989
14215TIP3    H142586   3.736   4.403   2.886 -0.1419  2.0356 -0.3663
14215TIP3    H242587   3.605   4.470   2.922 -0.5613  1.6593 -1.1701
14216TIP3   OH242588   2.753   7.066   3.805  0.1223 -0.0398 -0.2384
14216TIP3    H142589   2.696   6.998   3.767 -0.3677 -0.0466  0.4953
14216TIP3    H242590   2.770   7.037   3.894  1.3405 -0.0622 -0.4604
14217TIP3   OH242591   4.801   0.094   0.793  0.1088  0.1967  0.0671
14217TIP3    H142592   4.725   0.043   0.823 -0.1153  0.1116 -0.6259
14217TIP3    H242593   4.803   0.079   0.698  1.1338  0.0094  0.1117
14218TIP3   OH242594   6.910   2.658   4.594  0.4200  0.1408 -0.6369
14218TIP3    H142595   6.924   2.601   4.518  1.8385 -1.6216  0.8599
14218TIP3    H242596   6.814   2.661   4.604  0.2886 -1.9524 -0.8148
14219TIP3   OH242597   4.049   6.080   2.393  0.1420 -0.4056 -0.4553
14219TIP3    H142598   4.130   6.070   2.343  0.5880 -0.7376  0.3256
14219TIP3    H242599   3.981   6.048   2.333  0.5821 -0.1627 -1.1027
14220TIP3   OH242600   6.935   4.779   0.665 -0.6908  0.1390 -0.1383
14220TIP3    H142601   6.904   4.809   0.751 -0.7416 -0.0572 -0.0878
14220TIP3    H242602   6.996   4.708   0.686  0.3750  1.0112 -0.1937
14221TIP3   OH242603   7.432   5.988   0.493  0.1542  0.0099 -0.5781
14221TIP3    H142604   7.383   6.011   0.572  1.4582 -0.9374  0.5390
14221TIP3    H242605   7.383   6.031   0.422 -1.8266 -0.2386  0.5562
14222TIP3   OH242606   1.531   6.337   4.383  0.1126  0.0722 -0.1554
14222TIP3    H142607   1.478   6.311   4.308 -0.5296 -0.4613  0.4614
14222TIP3    H242608   1.476   6.399   4.431  0.4372  0.2591 -0.0193
14223TIP3   OH242609   3.162   4.870   5.577 -0.5876  0.2870 -0.5754
14223TIP3    H142610   3.247   4.897   5.611 -1.2185  1.7465 -0.0796
14223TIP3    H242611   3.143   4.788   5.623 -0.1334  0.7425  0.4609
14224TIP3   OH242612   1.439   4.681   2.309 -0.1835  0.0894 -0.7297
14224TIP3    H142613   1.467   4.715   2.225  1.2931  0.6048 -0.0672
14224TIP3    H242614   1.372   4.743   2.339  1.2454  1.5160 -0.3168
14225TIP3   OH242615   0.802   6.162   6.320  0.2834 -0.8375  0.1531
14225TIP3    H142616   0.745   6.087   6.307 -1.1920  0.4602 -1.4068
14225TIP3    H242617   0.801   6.208   6.235 -0.0569  1.7170  1.4413
14226TIP3   OH242618   5.395   0.278   2.983  0.0524 -0.2272  0.0986
14226TIP3    H142619   5.385   0.186   3.008  0.5558  0.2173  2.1501
14226TIP3    H242620   5.366   0.327   3.060  0.6549  1.3240 -0.6146
14227TIP3   OH242621   6.437   2.384   4.565  0.1937 -0.5009  0.3251
14227TIP3    H142622   6.463   2.475   4.558 -0.4207 -0.4025 -0.9758
14227TIP3    H242623   6.461   2.359   4.654  0.7777  0.7897  0.5546
14228TIP3   OH242624   3.081   1.898   4.418  0.4073  0.5060 -0.0575
14228TIP3    H142625   3.169   1.863   4.427  0.1876  0.4140  2.4779
14228TIP3    H242626   3.039   1.843   4.353  2.0666  0.2735 -0.9697
14229TIP3   OH242627   2.865   4.869   5.326  0.3802  0.0224 -0.2812
14229TIP3    H142628   2.826   4.956   5.320 -0.5818 -0.3601  0.1954
14229TIP3    H242629   2.800   4.811   5.288 -1.3906 -1.1311  3.8861
14230TIP3   OH242630   5.705   3.498   2.276  0.7136 -0.4078 -0.3098
14230TIP3    H142631   5.792   3.489   2.237  0.7098 -2.1567 -0.0036
14230TIP3    H242632   5.645   3.469   2.208  0.3005  1.1130 -0.6402
14231TIP3   OH242633   0.934   4.598   0.226  0.1094  0.1814 -0.3953
14231TIP3    H142634   1.007   4.588   0.287  0.2898  2.0467 -0.2652
14231TIP3    H242635   0.976   4.613   0.141 -0.1364  0.4512 -0.4674
14232TIP3   OH242636   3.740   4.949   1.600  0.3573 -0.2006  0.2773
14232TIP3    H142637   3.807   5.016   1.585  0.4827 -0.2499  0.6120
14232TIP3    H242638   3.666   4.998   1.636 -1.0926  0.4405 -3.1649
14233TIP3   OH242639   6.323   2.468   6.428  0.1719  0.4258  0.0912
14233TIP3    H142640   6.276   2.551   6.418 -0.1919  0.1852 -0.2632
14233TIP3    H242641   6.264   2.413   6.481 -0.1551 -0.0213 -0.7058
14234TIP3   OH242642   5.017   2.207   1.938 -0.1431 -0.2732 -0.8113
14234TIP3    H142643   5.038   2.197   2.030  1.2359  0.1758 -1.0593
14234TIP3    H242644   4.922   2.195   1.934 -0.1002 -1.2523  0.5168
14235TIP3   OH242645   7.404   2.633   2.343  0.5296 -0.7204  0.0938
14235TIP3    H142646   7.429   2.714   2.388 -1.9278  0.4807 -0.5041
14235TIP3    H242647   7.438   2.643   2.255 -0.3345  0.0236 -0.1752
14236TIP3   OH242648   3.372   3.628   2.207  0.6062 -0.2599 -0.3948
14236TIP3    H142649   3.445   3.685   2.229 -0.3127  0.7113  0.2715
14236TIP3    H242650   3.359   3.640   2.113  0.0834  1.0856 -0.1708
14237TIP3   OH242651   2.154   5.811   1.091  0.0902  0.0374 -0.2840
14237TIP3    H142652   2.160   5.824   0.996  1.4557 -1.5116 -0.4577
14237TIP3    H242653   2.080   5.866   1.118 -1.0772 -0.3699 -2.4135
14238TIP3   OH242654   4.824   5.926   1.429  0.2973  0.2020 -0.2847
14238TIP3    H142655   4.875   6.006   1.413  1.3702 -0.7476 -1.9824
14238TIP3    H242656   4.734   5.957   1.436  0.7749  1.6529  0.0019
14239TIP3   OH242657   3.723   4.344   2.450 -0.3849  0.7598 -0.8405
14239TIP3    H142658   3.810   4.379   2.469 -1.5105  2.7177  1.1066
14239TIP3    H242659   3.672   4.420   2.421 -3.5350  1.8718  5.6097
14240TIP3   OH242660   5.020   1.463   4.661 -0.0606  0.4108  0.0452
14240TIP3    H142661   5.057   1.457   4.749  0.0087 -0.5862 -0.0349
14240TIP3    H242662   4.931   1.429   4.671 -0.6000  1.7835  0.0281
14241TIP3   OH242663   2.644   0.274   2.719  0.0121  0.0762  0.1127
14241TIP3    H142664   2.563   0.312   2.754 -1.0187  1.0954 -3.0237
14241TIP3    H242665   2.696   0.253   2.797 -3.1444 -0.4786  2.2635
14242TIP3   OH242666   0.317   0.393   6.372  0.5193  0.1260 -0.2752
14242TIP3    H142667   0.378   0.361   6.305  0.3702 -2.3589  0.6482
14242TIP3    H242668   0.370   0.450   6.427  1.5967 -0.6164 -0.5058
14243TIP3   OH242669   4.540   5.863   2.312 -0.2186  0.3021  0.2140
14243TIP3    H142670   4.539   5.846   2.407 -0.5134 -0.1043  0.1428
14243TIP3    H242671   4.545   5.958   2.305 -2.1702  0.4857  0.6528
14244TIP3   OH242672   1.404   1.671   0.509  0.2873 -0.0544 -0.0690
14244TIP3    H142673   1.481   1.613   0.511  0.0907 -0.3094  0.4138
14244TIP3    H242674   1.338   1.623   0.560 -0.3164 -0.0114 -0.8040
14245TIP3   OH242675   2.367   4.579   5.683 -0.7895 -0.1503 -0.4151
14245TIP3    H142676   2.438   4.588   5.619 -1.1611 -1.6158 -1.0888
14245TIP3    H242677   2.330   4.667   5.691 -0.2993  0.2003 -1.7306
14246TIP3   OH242678   7.704   5.789   2.919 -0.7052  0.7144 -0.5680
14246TIP3    H142679   7.798   5.789   2.898 -0.5868  0.8123 -0.0443
14246TIP3    H242680   7.689   5.706   2.964 -1.3405 -0.3837 -2.6596
14247TIP3   OH242681   3.005   5.201   5.346  0.5889 -0.7656 -0.5329
14247TIP3    H142682   3.054   5.281   5.366 -0.0097 -0.3233 -0.8044
14247TIP3    H242683   3.071   5.138   5.320  0.9664  0.0268 -1.5608
14248TIP3   OH242684   5.952   4.614   0.386 -0.0353 -0.1890  0.4795
14248TIP3    H142685   5.930   4.655   0.469  0.2567 -0.6921  0.8102
14248TIP3    H242686   5.916   4.525   0.393  0.3926 -0.3812  0.2524
14249TIP3   OH242687   3.205   5.199   1.071 -0.1451 -0.0529  0.3034
14249TIP3    H142688   3.257   5.152   1.136 -1.1109 -1.7354 -0.0930
14249TIP3    H242689   3.129   5.231   1.120 -0.4083 -0.5112  0.1950
14250TIP3   OH242690   1.194   7.131   2.854 -0.0356 -0.8187  0.3571
14250TIP3    H142691   1.245   7.124   2.773 -0.8864 -0.4315 -0.2296
14250TIP3    H242692   1.114   7.176   2.828 -1.4046 -2.7989  0.9255
14251TIP3   OH242693   3.797   0.189   1.316  0.0299  0.3185  0.0910
14251TIP3    H142694   3.892   0.195   1.305  0.1011 -1.1086 -0.2296
14251TIP3    H242695   3.784   0.196   1.410  0.2726  2.2666  0.0360
14252TIP3   OH242696   5.807   5.618   5.106 -0.0232 -0.3126  0.4307
14252TIP3    H142697   5.761   5.702   5.110  0.1964 -0.2236  1.3153
14252TIP3    H242698   5.763   5.564   5.171 -0.1264 -0.8737 -0.0983
14253TIP3   OH242699   5.602   4.909   2.405 -0.3041  0.1627  0.1016
14253TIP3    H142700   5.584   4.931   2.313 -0.7343 -0.3201  0.0722
14253TIP3    H242701   5.647   4.825   2.401 -0.5856  0.0007  0.3519
14254TIP3   OH242702   5.246   2.360  -0.002  0.0035 -0.0762  0.3680
14254TIP3    H142703   5.172   2.389   0.053  0.5678  0.2361  0.9768
14254TIP3    H242704   5.316   2.341   0.060  0.2005 -1.1039 -0.1561
14255TIP3   OH242705   8.234   4.922   1.079 -0.6045 -0.1591  0.2847
14255TIP3    H142706   8.269   4.836   1.099 -1.4729 -0.3555  1.0719
14255TIP3    H242707   8.140   4.914   1.096 -0.9075  0.5695 -0.9401
14256TIP3   OH242708   3.363   4.545   0.463 -0.0066  0.5080  0.3804
14256TIP3    H142709   3.269   4.562   0.465 -1.1172 -4.1350 -1.0077
14256TIP3    H242710   3.379   4.510   0.375  2.7080 -0.2583  1.0929
14257TIP3   OH242711   3.420   1.968   2.176 -0.1173  0.1529 -0.1202
14257TIP3    H142712   3.331   2.004   2.185  0.5241  1.3692  2.0500
14257TIP3    H242713   3.416   1.884   2.222  0.0830  0.6682  0.8569
14258TIP3   OH242714   6.020   3.950   6.632 -0.0601 -0.5020 -0.3975
14258TIP3    H142715   5.984   3.865   6.605  0.5717 -1.9313  2.7762
14258TIP3    H242716   6.115   3.938   6.630  0.0542  0.3670 -0.5540
14259TIP3   OH242717   5.417   4.948   2.625 -1.1551 -0.1039 -0.1943
14259TIP3    H142718   5.375   4.863   2.642 -0.7412 -0.2839 -0.0661
14259TIP3    H242719   5.485   4.928   2.560  0.8017 -0.4038  1.8294
14260TIP3   OH242720   0.557   6.983   2.626  0.8843 -0.1493 -0.8203
14260TIP3    H142721   0.488   6.929   2.665 -1.3262  0.6137 -3.3340
14260TIP3    H242722   0.533   7.073   2.648  1.0430  0.1300 -1.7269
14261TIP3   OH242723   5.824   7.170   3.732  0.1852 -0.0716 -0.0986
14261TIP3    H142724   5.903   7.116   3.728  0.4311  0.3051 -0.3201
14261TIP3    H242725   5.850   7.248   3.780 -0.7617 -1.1353  2.3000
14262TIP3   OH242726   5.045   6.847   4.186 -0.3740 -0.2137  0.0338
14262TIP3    H142727   4.973   6.850   4.249  0.4914  0.3520  1.0283
14262TIP3    H242728   5.044   6.932   4.144  0.1635  0.0743  0.5867
14263TIP3   OH242729   7.811   1.116   3.376  0.3552  0.1087 -0.1269
14263TIP3    H142730   7.736   1.175   3.381  0.1789  0.0688 -1.9065
14263TIP3    H242731   7.785   1.048   3.315  1.5428 -0.3567 -0.1565
14264TIP3   OH242732   1.104   2.432   4.588  0.4693  0.1901  0.4633
14264TIP3    H142733   1.110   2.482   4.507  2.5262  1.1227  1.1281
14264TIP3    H242734   1.085   2.342   4.560  1.3776  0.4542 -1.0671
14265TIP3   OH242735   0.696   1.979   5.094 -0.1310  0.1256  0.3455
14265TIP3    H142736   0.741   1.990   5.010 -0.7109  0.5289  0.0780
14265TIP3    H242737   0.638   1.903   5.081 -0.7700  0.6367  0.1240
14266TIP3   OH242738   1.494   2.114   4.493 -0.5824  0.3987  0.7704
14266TIP3    H142739   1.554   2.182   4.524 -0.0080  0.9221 -1.3214
14266TIP3    H242740   1.420   2.162   4.455 -2.9978 -0.2322  4.2340
14267TIP3   OH242741   6.283   3.649   0.496  0.6714 -0.3761  0.1915
14267TIP3    H142742   6.203   3.671   0.448  0.7645 -2.2246 -0.8856
14267TIP3    H242743   6.353   3.688   0.443  0.5187  1.8094  1.4746
14268TIP3   OH242744   3.987   5.662   5.351 -0.0777 -0.4292 -0.3201
14268TIP3    H142745   3.933   5.661   5.430  1.6022 -0.3271  0.8838
14268TIP3    H242746   4.050   5.591   5.365  1.3077  0.6752 -0.7581
14269TIP3   OH242747   5.117   1.028   4.227 -0.4356 -0.4098 -0.1427
14269TIP3    H142748   5.200   1.072   4.210 -0.2090 -0.8145 -0.1003
14269TIP3    H242749   5.137   0.964   4.295 -0.3267 -1.8540 -1.4835
14270TIP3   OH242750   7.254   7.509   0.253  0.4641  0.0638 -0.9187
14270TIP3    H142751   7.278   7.501   0.161  1.5400  0.3530 -0.6700
14270TIP3    H242752   7.239   7.418   0.281  1.4629 -0.1473 -1.0335
14271TIP3   OH242753   3.657   3.635   6.101  0.1184  0.0227  0.5995
14271TIP3    H142754   3.594   3.691   6.054 -1.5383 -1.7094  0.6152
14271TIP3    H242755   3.704   3.589   6.032  0.1950  0.1020  0.5994
14272TIP3   OH242756   2.487   7.649   4.522 -0.5875 -0.2650 -0.8326
14272TIP3    H142757   2.479   7.567   4.570 -1.7879 -0.8630 -1.9842
14272TIP3    H242758   2.513   7.622   4.433 -1.1260  0.5874 -1.2641
14273TIP3   OH242759   5.154   5.023   3.964  0.2801  0.3319  0.1662
14273TIP3    H142760   5.093   4.953   3.938 -1.1217  0.4158  2.8751
14273TIP3    H242761   5.154   5.083   3.890  0.3587 -1.7473 -1.6193
14274TIP3   OH242762   3.571   1.867   4.112  0.5669 -0.8533  0.5864
14274TIP3    H142763   3.625   1.884   4.035 -0.8737  0.4929 -0.1621
14274TIP3    H242764   3.564   1.951   4.156 -1.5085 -0.8007  0.2547
14275TIP3   OH242765   3.541   7.209   4.429 -0.0810 -0.0792 -0.1963
14275TIP3    H142766   3.467   7.220   4.489 -0.3076 -0.7217 -0.3480
14275TIP3    H242767   3.534   7.282   4.368  0.8418  1.2832  1.2487
14276TIP3   OH242768   5.090   0.897   5.236  0.7760 -0.2901 -0.2971
14276TIP3    H142769   5.003   0.861   5.217 -0.0422  1.7599 -0.7631
14276TIP3    H242770   5.097   0.892   5.332  0.8976 -2.0202 -0.3709
14277TIP3   OH242771   3.092   4.865   4.925 -0.0979  0.3162  0.2359
14277TIP3    H142772   3.050   4.950   4.929  0.0326  0.3779  0.3294
14277TIP3    H242773   3.133   4.854   5.011  3.1405  1.8587 -0.9450
14278TIP3   OH242774   0.370   3.932   4.233  0.5969  0.1114 -0.4203
14278TIP3    H142775   0.400   4.003   4.290 -0.3781  1.5117 -1.5768
14278TIP3    H242776   0.341   3.864   4.293  1.2979  0.7846  0.7307
14279TIP3   OH242777   6.360   5.928   3.993  0.6191  0.5733  0.6806
14279TIP3    H142778   6.305   5.855   4.021  1.0884  0.2983  0.8924
14279TIP3    H242779   6.426   5.936   4.061  2.3029 -0.6654 -0.7392
14280TIP3   OH242780   2.741   3.432   1.723  0.1695  0.7348 -0.1487
14280TIP3    H142781   2.731   3.348   1.678  1.2411 -0.4484  1.7221
14280TIP3    H242782   2.743   3.497   1.652 -1.2288 -0.7284 -1.6048
14281TIP3   OH242783   1.918   3.383   6.460 -0.3795  0.2936  0.4884
14281TIP3    H142784   1.917   3.293   6.428  1.8082 -0.1590  1.4863
14281TIP3    H242785   1.962   3.433   6.391  0.8654  0.0398  1.0636
14282TIP3   OH242786   2.022   3.715   4.946 -0.3066 -0.0182 -0.0604
14282TIP3    H142787   2.008   3.798   4.903 -1.2067 -1.1323 -2.0378
14282TIP3    H242788   2.041   3.653   4.876 -0.8299 -1.7263  1.2051
14283TIP3   OH242789   2.089   5.478   1.736 -0.0927 -0.3728  0.1661
14283TIP3    H142790   2.169   5.444   1.776  0.5542 -0.7485 -1.3814
14283TIP3    H242791   2.084   5.435   1.651  0.5228  2.9640 -1.7135
14284TIP3   OH242792   5.995   0.747   5.901 -0.3414  0.5241  0.0194
14284TIP3    H142793   5.923   0.771   5.841  0.8791  0.3085 -1.5973
14284TIP3    H242794   5.993   0.652   5.903 -0.6425  0.5396  0.6895
14285TIP3   OH242795   3.673   4.882   0.674  0.0540  0.0255  0.1729
14285TIP3    H142796   3.630   4.964   0.650 -1.9139 -1.4235 -1.5450
14285TIP3    H242797   3.602   4.819   0.684  1.5255 -1.5654  1.2410
14286TIP3   OH242798   4.482   0.194   2.461  0.1513 -0.1203  0.3052
14286TIP3    H142799   4.568   0.160   2.435  0.0839 -0.8003  0.9486
14286TIP3    H242800   4.419   0.140   2.414  0.0677  0.8111 -0.6919
14287TIP3   OH242801   2.695   1.085   1.677  0.0091  0.3361 -0.4048
14287TIP3    H142802   2.634   1.089   1.604 -0.1729  1.3087 -0.2210
14287TIP3    H242803   2.651   1.034   1.744 -1.1527  2.0252  0.1922
14288TIP3   OH242804   7.336   0.351   3.933 -0.7216 -0.9370  0.0867
14288TIP3    H142805   7.277   0.324   4.003 -0.6643  2.5027  1.6577
14288TIP3    H242806   7.285   0.415   3.883  0.3192 -0.9736 -1.0675
14289TIP3   OH242807   1.776   6.652   6.050 -0.0378 -0.0366 -0.6775
14289TIP3    H142808   1.708   6.704   6.009  1.0259  0.7258 -1.5331
14289TIP3    H242809   1.738   6.625   6.134 -2.4961 -2.1396 -2.3271
14290TIP3   OH242810   4.781   4.559   6.839 -0.2189 -0.1534  0.1328
14290TIP3    H142811   4.704   4.597   6.880  0.0008 -0.4354  0.8118
14290TIP3    H242812   4.750   4.478   6.799 -0.3931  0.0281 -0.1019
14291TIP3   OH242813   6.743   4.111   0.489 -0.1910 -0.8142  0.1977
14291TIP3    H142814   6.747   4.191   0.436  0.5827 -0.3563  0.9169
14291TIP3    H242815   6.833   4.096   0.516 -0.4841 -1.3884  0.8741
14292TIP3   OH242816   2.606   2.179   3.602  0.3852  0.3617 -0.3071
14292TIP3    H142817   2.587   2.100   3.653  1.3595  0.3627  0.0791
14292TIP3    H242818   2.580   2.251   3.658 -2.5378  0.3477 -1.4736
14293TIP3   OH242819   4.460   7.524   3.214 -0.1438 -0.0526  0.1029
14293TIP3    H142820   4.426   7.597   3.265  1.3702 -0.0421  1.1737
14293TIP3    H242821   4.504   7.565   3.140  0.2619  0.1111  0.4285
14294TIP3   OH242822   6.652   0.431   4.356 -0.3846  0.1755 -0.6143
14294TIP3    H142823   6.732   0.381   4.340  0.1975  0.7995  0.2638
14294TIP3    H242824   6.675   0.493   4.425 -2.0858 -0.7943  0.9245
14295TIP3   OH242825   7.154   3.749   3.939  0.1901  0.1065  0.1821
14295TIP3    H142826   7.238   3.719   3.903 -0.6717 -0.2718 -1.6634
14295TIP3    H242827   7.163   3.844   3.943  0.3468  0.1741 -1.1060
14296TIP3   OH242828   7.993   3.578   4.449  0.5372  0.8936 -0.1305
14296TIP3    H142829   8.059   3.571   4.518  1.6371  1.0760 -1.1180
14296TIP3    H242830   7.982   3.672   4.436  2.7265  0.9414 -2.3217
14297TIP3   OH242831   5.715   1.981   3.990  0.6824  0.1073 -0.2421
14297TIP3    H142832   5.690   1.997   4.081 -0.7386  1.7101 -0.8416
14297TIP3    H242833   5.741   1.889   3.987  0.5531 -0.0293  1.7272
14298TIP3   OH242834   5.695   3.543   4.478  0.1527 -0.0294  0.3625
14298TIP3    H142835   5.681   3.449   4.492  2.1282 -0.2563  1.1364
14298TIP3    H242836   5.771   3.547   4.421 -0.4275  1.1214 -0.3644
14299TIP3   OH242837   4.730   5.877   6.773  0.3769  0.0513  0.4002
14299TIP3    H142838   4.689   5.961   6.757  1.4916  0.6225  0.4666
14299TIP3    H242839   4.686   5.817   6.713 -0.6012  0.6112  0.5328
14300TIP3   OH242840   6.822   1.232   5.351 -0.8396 -0.0977 -0.0356
14300TIP3    H142841   6.742   1.228   5.299  0.7496  1.3174 -2.8377
14300TIP3    H242842   6.847   1.324   5.349  0.4536 -0.3724  1.4765
14301TIP3   OH242843   6.811   7.789   0.607  0.1329  1.0245  0.0707
14301TIP3    H142844   6.835   7.776   0.698 -0.4298 -1.4235 -0.0654
14301TIP3    H242845   6.760   7.871   0.607 -1.8035 -0.0595  2.3562
14302TIP3   OH242846   7.643   6.935   1.523 -0.7806  0.4978  0.1631
14302TIP3    H142847   7.694   6.935   1.442 -0.0190 -0.0626  0.6337
14302TIP3    H242848   7.618   7.027   1.535 -1.7760  0.4411 -1.2336
14303TIP3   OH242849   6.942   4.439   4.168 -1.0416 -0.0209  0.8245
14303TIP3    H142850   6.855   4.419   4.134 -1.1860  0.6241  0.8135
14303TIP3    H242851   6.973   4.355   4.204 -1.0662 -0.6060 -0.4745
14304TIP3   OH242852   6.228   2.265   0.810 -0.1636 -0.1407 -0.3365
14304TIP3    H142853   6.212   2.321   0.886 -0.0892 -2.0719  1.1786
14304TIP3    H242854   6.218   2.324   0.735 -1.8649  1.4863  1.0658
14305TIP3   OH242855   2.479   1.878   6.112  0.2183 -0.8857  0.7274
14305TIP3    H142856   2.494   1.970   6.134  0.4547 -1.0706  1.3524
14305TIP3    H242857   2.409   1.881   6.046 -0.3108 -0.3029  1.2920
14306TIP3   OH242858   3.233   2.499   4.326 -0.4944 -0.0223 -0.1911
14306TIP3    H142859   3.259   2.521   4.416  0.5074 -0.4098 -0.3753
14306TIP3    H242860   3.170   2.568   4.302  1.4055  1.8295 -0.2153
14307TIP3   OH242861   5.651   6.934   5.766 -0.1003 -0.2878 -0.1436
14307TIP3    H142862   5.697   6.955   5.847 -1.4452  0.4479  0.4649
14307TIP3    H242863   5.587   6.868   5.791 -0.8208  0.2572 -0.4836
14308TIP3   OH242864   2.488   1.269   6.111 -0.0835  0.4676 -0.2587
14308TIP3    H142865   2.547   1.312   6.173 -0.5039  0.3991  0.1937
14308TIP3    H242866   2.482   1.179   6.141  0.6482  0.1211 -1.0982
14309TIP3   OH242867   1.171   4.095   5.635  0.3712  0.4981  0.4347
14309TIP3    H142868   1.251   4.089   5.583 -0.8075  2.1283 -1.6942
14309TIP3    H242869   1.171   4.184   5.669 -0.7528  0.6571  0.0343
14310TIP3   OH242870   4.513   7.491   6.135  0.4460  0.0358  0.2253
14310TIP3    H142871   4.477   7.459   6.218  0.5356  1.6138  0.9149
14310TIP3    H242872   4.581   7.428   6.113 -0.1796 -0.9047  0.8757
14311TIP3   OH242873   3.155   1.588   2.752  0.0538  0.2617  0.8172
14311TIP3    H142874   3.100   1.616   2.678  2.9952  0.2467 -1.5984
14311TIP3    H242875   3.125   1.499   2.772 -1.8666  0.8658  0.7507
14312TIP3   OH242876   4.284   0.015   5.545  0.4962  0.0204  0.1052
14312TIP3    H142877   4.297   0.059   5.462  0.7224  0.7267  0.5049
14312TIP3    H242878   4.197   0.045   5.574  0.6581  0.2225  0.3861
14313TIP3   OH242879   3.432   0.852   6.833  0.4989 -1.3654  0.5123
14313TIP3    H142880   3.430   0.928   6.774  2.0299 -0.2711  1.7674
14313TIP3    H242881   3.524   0.823   6.831  0.4835 -1.5639  2.0104
14314TIP3   OH242882   4.537   1.093   4.213 -0.1178 -0.0800  0.4175
14314TIP3    H142883   4.555   1.154   4.141 -2.2100  0.8738  0.6160
14314TIP3    H242884   4.564   1.141   4.292  0.0740 -0.1996  0.4231
14315TIP3   OH242885   4.816   2.817   2.319 -0.2321 -0.3007  0.0723
14315TIP3    H142886   4.902   2.779   2.337  0.3948  0.0192 -1.9806
14315TIP3    H242887   4.798   2.873   2.394  0.5160 -1.7494  1.3886
14316TIP3   OH242888   0.582   0.355   6.217  0.2267 -0.1016 -0.0188
14316TIP3    H142889   0.596   0.266   6.247  0.5714 -0.0221  0.0595
14316TIP3    H242890   0.623   0.358   6.130 -1.5289 -0.5846 -0.9209
14317TIP3   OH242891   5.752   1.091   6.059  0.3820 -0.2223  0.0525
14317TIP3    H142892   5.840   1.062   6.033  0.0564 -1.0734 -0.1224
14317TIP3    H242893   5.700   1.011   6.061 -1.1315  0.5732 -2.6896
14318TIP3   OH242894   4.461   0.783   6.621 -0.1259  0.0050  0.0699
14318TIP3    H142895   4.406   0.753   6.549  0.0745  1.8410 -0.9243
14318TIP3    H242896   4.431   0.873   6.637  1.4136  0.4334  0.6916
14319TIP3   OH242897   0.290   1.720   3.093 -0.1928  0.3956  0.2674
14319TIP3    H142898   0.281   1.705   3.187  1.8229 -0.1435  0.4318
14319TIP3    H242899   0.378   1.757   3.083  0.5326 -1.6088 -1.5778
14320TIP3   OH242900   5.680   7.511   0.878  1.0364 -0.0084 -0.2779
14320TIP3    H142901   5.762   7.556   0.898  1.0420  0.1732 -0.6963
14320TIP3    H242902   5.623   7.580   0.844  0.7864 -0.1784 -0.2046
14321TIP3   OH242903   3.535   6.323   2.021  0.2439  0.3236  0.3401
14321TIP3    H142904   3.535   6.413   1.988  0.4807  0.3467  0.3997
14321TIP3    H242905   3.542   6.333   2.116 -1.1452  0.2753  0.4672
14322TIP3   OH242906   4.361   2.969   6.740  0.1331 -0.1868  0.0925
14322TIP3    H142907   4.425   2.930   6.680  1.0222 -0.2977  1.0914
14322TIP3    H242908   4.306   2.895   6.768  1.3445 -0.6351  1.3971
14323TIP3   OH242909   3.697   2.871   2.644 -0.0029  0.1242 -0.2694
14323TIP3    H142910   3.691   2.836   2.733  1.8202  1.4304  0.4398
14323TIP3    H242911   3.613   2.914   2.629 -1.2093 -2.0174 -0.1061
14324TIP3   OH242912   4.369   5.393   6.632  0.3290 -0.2120 -0.1471
14324TIP3    H142913   4.414   5.366   6.552  2.5770 -0.6064  1.1876
14324TIP3    H242914   4.327   5.476   6.609  0.9925 -0.2784 -1.6995
14325TIP3   OH242915   2.146   0.666   4.663 -0.1699  0.4801 -0.1477
14325TIP3    H142916   2.087   0.728   4.620 -1.3892 -1.6010 -1.6292
14325TIP3    H242917   2.145   0.589   4.606  2.9137 -0.1749  0.5230
14326TIP3   OH242918   0.610   2.768   1.242 -0.1751 -0.6401 -0.4107
14326TIP3    H142919   0.517   2.776   1.218 -0.3540 -1.3528 -0.0153
14326TIP3    H242920   0.617   2.678   1.275  0.4990 -0.3538  0.2436
14327TIP3   OH242921   6.307   2.244   1.659 -0.1977  0.5545 -0.8346
14327TIP3    H142922   6.328   2.194   1.580  1.8987 -2.7159  1.5234
14327TIP3    H242923   6.386   2.294   1.678  0.8511 -1.5904  1.0163
14328TIP3   OH242924   6.494   0.186   3.711 -0.1075 -0.4422  0.3763
14328TIP3    H142925   6.578   0.231   3.721 -0.0888 -0.5298  0.6413
14328TIP3    H242926   6.513   0.112   3.654 -0.1704 -0.0336 -0.1799
14329TIP3   OH242927   7.887   2.430   5.887 -0.1702 -0.8264  0.1295
14329TIP3    H142928   7.956   2.496   5.892  1.6216 -2.6783  1.7177
14329TIP3    H242929   7.908   2.380   5.807 -0.2070 -0.8112  0.1107
14330TIP3   OH242930   0.791   1.590   5.095  0.6359  0.3703 -0.0258
14330TIP3    H142931   0.829   1.503   5.102  0.1329 -0.0040 -1.5029
14330TIP3    H242932   0.739   1.600   5.175  1.9331 -0.0240  0.9110
14331TIP3   OH242933   5.948   7.553   1.311  0.2606 -0.2834  0.4474
14331TIP3    H142934   6.034   7.587   1.285  0.1099 -1.3117 -1.5658
14331TIP3    H242935   5.890   7.576   1.238 -1.1549  0.1503  1.6471
14332TIP3   OH242936   5.076   2.794   4.004 -0.0535 -0.5450 -0.2101
14332TIP3    H142937   5.061   2.709   4.045  1.9488 -0.0732  1.6685
14332TIP3    H242938   5.049   2.858   4.069  0.6035  0.2572 -0.6999
14333TIP3   OH242939   0.631   5.216   4.395 -0.1682  0.0750  0.4273
14333TIP3    H142940   0.689   5.275   4.348 -1.1611  0.1909 -0.6994
14333TIP3    H242941   0.677   5.132   4.395 -0.5621 -0.1869 -1.6700
14334TIP3   OH242942   1.779   5.455   1.937  0.7434  0.2475  0.3255
14334TIP3    H142943   1.752   5.422   1.852 -0.4121 -0.9615  1.1255
14334TIP3    H242944   1.706   5.508   1.968  1.1464  0.6687  0.5700
14335TIP3   OH242945   7.541   6.776   2.303  0.1965  0.6881 -0.6329
14335TIP3    H142946   7.614   6.720   2.279  0.3835  0.3264  0.6790
14335TIP3    H242947   7.580   6.841   2.362 -0.6037  0.2021  0.4619
14336TIP3   OH242948   7.730   3.819   5.531 -0.0517 -0.3950 -0.5251
14336TIP3    H142949   7.823   3.796   5.526  0.0620 -0.3244  0.7762
14336TIP3    H242950   7.728   3.914   5.528  0.1355 -0.2715  1.4409
14337TIP3   OH242951   0.943   5.973   5.222 -0.5553 -0.2929  0.8053
14337TIP3    H142952   0.849   5.967   5.203 -0.5428  1.0209  0.1908
14337TIP3    H242953   0.982   5.900   5.174 -0.8935  1.1533 -1.8573
14338TIP3   OH242954   4.771   1.949   6.729  0.4359  0.5275 -0.5181
14338TIP3    H142955   4.859   1.921   6.701  0.4356 -0.0649  0.0565
14338TIP3    H242956   4.764   2.039   6.698  1.1597  0.5047 -0.7737
14339TIP3   OH242957   0.871   3.723   4.212  0.4933  0.0240 -0.4845
14339TIP3    H142958   0.865   3.695   4.303  0.1640 -0.0207 -0.5159
14339TIP3    H242959   0.885   3.642   4.163 -0.6335 -0.1236 -0.5917
14340TIP3   OH242960   2.521   3.261   5.628  0.1675  0.2691  0.5036
14340TIP3    H142961   2.451   3.263   5.693 -0.7867  1.7914 -0.4952
14340TIP3    H242962   2.561   3.348   5.634  0.8599 -0.0002 -0.1164
14341TIP3   OH242963   5.375   2.957   2.122  0.6199 -0.0148  0.1668
14341TIP3    H142964   5.406   3.032   2.071  1.3714  0.4901  1.3193
14341TIP3    H242965   5.285   2.943   2.092  0.2859  1.6818  0.2828
14342TIP3   OH242966   3.833   7.073   4.990  0.3065  0.3363  0.6947
14342TIP3    H142967   3.819   7.155   4.941 -1.0730 -0.6828 -0.7198
14342TIP3    H242968   3.852   7.008   4.922 -0.4374 -0.8957  1.6379
14343TIP3   OH242969   7.112   6.932   1.410  0.2245  0.4365  0.2436
14343TIP3    H142970   7.168   6.932   1.488  0.6505  0.3031 -0.0629
14343TIP3    H242971   7.116   6.842   1.378  0.3796  0.5924 -0.1737
14344TIP3   OH242972   2.063   1.379   2.953  0.0033 -0.2908  0.0919
14344TIP3    H142973   2.102   1.353   3.036  2.7147  0.0129 -0.9773
14344TIP3    H242974   2.012   1.303   2.925  0.7493 -1.1706  1.0548
14345TIP3   OH242975   0.714   0.319   6.650 -0.6076 -0.2805 -0.1556
14345TIP3    H142976   0.704   0.256   6.579  0.7280  0.0747 -0.6876
14345TIP3    H242977   0.793   0.292   6.696 -0.4181  0.5831  0.0454
14346TIP3   OH242978   8.245   4.119   0.590 -0.2345 -0.1942  0.1945
14346TIP3    H142979   8.230   4.081   0.504 -2.2539  1.4010 -0.2309
14346TIP3    H242980   8.233   4.213   0.578  0.2910  0.1648  2.0521
14347TIP3   OH242981   8.107   1.961   4.467 -0.2412 -0.0341  0.0479
14347TIP3    H142982   8.080   2.050   4.444  3.3131  1.8346  2.1343
14347TIP3    H242983   8.027   1.909   4.462 -2.6366  3.3689 -0.6605
14348TIP3   OH242984   1.232   0.038   4.250 -0.0861 -0.9468 -0.4159
14348TIP3    H142985   1.295   0.105   4.274  0.7167 -2.3584  1.7075
14348TIP3    H242986   1.153   0.086   4.226  0.3060  0.7476  1.4856
14349TIP3   OH242987   0.854   3.356   5.228  0.1120 -0.0441 -0.5260
14349TIP3    H142988   0.768   3.396   5.242 -0.0180 -0.4932 -0.0060
14349TIP3    H242989   0.873   3.372   5.136 -1.3067 -1.4438 -1.1205
14350TIP3   OH242990   5.780   2.977   5.543 -0.2915 -0.1134  0.1446
14350TIP3    H142991   5.759   2.956   5.452  1.3412  1.0069 -0.5394
14350TIP3    H242992   5.717   3.045   5.567  0.0924  0.5206 -0.6007
14351TIP3   OH242993   1.063   5.042   4.339  0.1366 -0.0555  0.6742
14351TIP3    H142994   1.022   4.956   4.350  1.1080 -0.4605  1.1920
14351TIP3    H242995   0.996   5.094   4.295 -0.3466 -1.1642  0.0507
14352TIP3   OH242996   2.429   3.770   4.891  0.5677  0.4334  0.1282
14352TIP3    H142997   2.366   3.831   4.931  0.7439 -0.1486  1.3332
14352TIP3    H242998   2.422   3.787   4.797 -0.0667  1.6561  0.3712
14353TIP3   OH242999   2.565   4.260   5.261  0.7156 -0.5164  0.4689
14353TIP3    H143000   2.610   4.345   5.262  0.1576 -0.1724 -1.2798
14353TIP3    H243001   2.472   4.282   5.249  0.3720 -1.3349  1.4387
14354TIP3   OH243002   2.333   0.508   6.065 -0.0969  0.2408  0.0670
14354TIP3    H143003   2.281   0.585   6.043  0.0197 -0.3922 -2.8716
14354TIP3    H243004   2.421   0.529   6.031  0.0172 -1.0022 -0.4634
14355TIP3   OH243005   1.509   1.348   5.060 -0.5733  0.0427  0.1829
14355TIP3    H143006   1.418   1.378   5.060 -0.8151 -0.6661 -0.2872
14355TIP3    H243007   1.505   1.260   5.097  0.2009  0.7493  2.0482
14356TIP3   OH243008   4.236   6.993   0.536  0.8550  0.7372 -0.0645
14356TIP3    H143009   4.159   7.048   0.544  0.7126  0.6741 -0.9177
14356TIP3    H243010   4.229   6.953   0.449  0.8898 -0.7295  0.5835
14357TIP3   OH243011   5.839   5.653   3.016 -0.3227 -0.3883  0.4184
14357TIP3    H143012   5.825   5.747   3.004 -1.5123 -0.5749  0.2033
14357TIP3    H243013   5.857   5.620   2.928  0.0807 -0.3560  0.4915
14358TIP3   OH243014   4.054   3.123   0.084  0.1805  0.1908  0.3383
14358TIP3    H143015   4.146   3.144   0.100  0.1291  0.4567  0.2877
14358TIP3    H243016   4.032   3.056   0.149 -0.2525  1.7985  1.9198
14359TIP3   OH243017   1.132   2.294   0.614  0.3057 -0.0291  0.4690
14359TIP3    H143018   1.146   2.368   0.673  0.8910  0.5931 -0.4193
14359TIP3    H243019   1.040   2.300   0.588  0.2037  0.0423  0.8438
14360TIP3   OH243020   1.368   1.069   2.421  0.2658 -0.3245 -0.0860
14360TIP3    H143021   1.324   1.003   2.368  1.3653 -0.4365 -0.9087
14360TIP3    H243022   1.323   1.067   2.505 -0.9403 -0.7806 -0.7242
14361TIP3   OH243023   3.858   2.866   5.943 -0.4419 -0.3213  0.0609
14361TIP3    H143024   3.823   2.845   5.856  0.2221 -1.0176 -0.0518
14361TIP3    H243025   3.925   2.933   5.926  1.6385 -2.3798 -0.3550
14362TIP3   OH243026   0.480   2.265   5.658  1.2311  0.1524  0.4559
14362TIP3    H143027   0.388   2.257   5.684  1.9440  1.0186  3.6494
14362TIP3    H243028   0.481   2.338   5.596 -0.1905  0.2699  0.5375
14363TIP3   OH243029   4.182   1.538   1.966  0.6326  0.0772  0.3949
14363TIP3    H143030   4.198   1.487   2.046 -0.5633 -1.8536 -0.5312
14363TIP3    H243031   4.089   1.526   1.949  1.2681 -1.4577 -2.5022
14364TIP3   OH243032   7.250   0.183   3.554 -0.1288 -0.4545 -0.9860
14364TIP3    H143033   7.334   0.187   3.509  0.0202 -0.4754 -0.7142
14364TIP3    H243034   7.218   0.273   3.554  0.6624 -0.1272  0.3392
14365TIP3   OH243035   0.349   2.442   3.752 -0.3652 -0.2249 -0.5380
14365TIP3    H143036   0.272   2.481   3.793  0.1852 -0.2105  0.5126
14365TIP3    H243037   0.366   2.498   3.676  0.2970  1.5616  0.8273
14366TIP3   OH243038   0.086   2.148   1.649 -0.2514  0.2283  0.1419
14366TIP3    H143039   0.077   2.201   1.569  1.2597 -0.8599 -0.8140
14366TIP3    H243040  -0.002   2.115   1.666 -0.2634 -1.4381 -2.4950
14367TIP3   OH243041   3.084   3.789   6.672  0.3743 -0.0999 -0.0198
14367TIP3    H143042   3.049   3.823   6.589  1.3797  0.0826 -0.3847
14367TIP3    H243043   3.145   3.720   6.645  2.6033  1.6013  0.3907
14368TIP3   OH243044   2.856   1.460   0.664 -0.0066  0.1413 -0.4620
14368TIP3    H143045   2.868   1.533   0.724  0.1534  0.9198 -1.4186
14368TIP3    H243046   2.926   1.399   0.686 -1.4659 -0.8085  1.8466
14369TIP3   OH243047   6.378   7.362   6.386 -0.5560  0.1682 -0.0139
14369TIP3    H143048   6.333   7.410   6.456 -2.8486  0.6083 -1.6752
14369TIP3    H243049   6.449   7.420   6.359 -0.6525  0.7086  0.8593
14370TIP3   OH243050   2.601   5.483   1.374 -0.3026 -0.1431  0.3761
14370TIP3    H143051   2.662   5.556   1.372 -0.3785 -0.0621  0.9470
14370TIP3    H243052   2.523   5.517   1.329 -0.5949  0.3659  1.2540
14371TIP3   OH243053   1.829   5.066   1.371  0.1385 -0.0786 -0.1496
14371TIP3    H143054   1.920   5.053   1.347  0.3546 -0.5061  0.8663
14371TIP3    H243055   1.781   5.062   1.288  0.9361 -0.7724 -0.5850
14372TIP3   OH243056   6.524   6.433   4.668 -0.0509  0.2838 -0.3975
14372TIP3    H143057   6.506   6.524   4.645 -0.2863  0.0710 -1.0605
14372TIP3    H243058   6.510   6.384   4.587 -0.0033 -0.3539 -0.0268
14373TIP3   OH243059   2.408   2.801   3.671 -0.0071  0.2969 -0.6179
14373TIP3    H143060   2.429   2.730   3.732 -0.7159 -0.2467 -0.9963
14373TIP3    H243061   2.322   2.832   3.699 -0.9176 -0.7889 -2.0734
14374TIP3   OH243062   1.265   2.739   3.309  0.6345  0.8590  0.0227
14374TIP3    H143063   1.200   2.807   3.290  1.6031  2.1302  1.0955
14374TIP3    H243064   1.244   2.669   3.248 -0.9746  1.7398 -0.5006
14375TIP3   OH243065   3.834   5.209   3.219  0.0157 -0.1794 -0.3114
14375TIP3    H143066   3.888   5.159   3.157  2.1142  0.4380  0.8998
14375TIP3    H243067   3.794   5.278   3.165 -0.3212 -1.1980 -1.4114
14376TIP3   OH243068   1.417   3.876   2.273  0.2881 -0.2427 -0.2707
14376TIP3    H143069   1.369   3.923   2.206 -0.8340 -1.3910 -0.3140
14376TIP3    H243070   1.377   3.903   2.356  2.1159  1.7002  0.0767
14377TIP3   OH243071   7.249   7.275   1.459 -0.0757  0.8173 -0.0780
14377TIP3    H143072   7.256   7.295   1.553  0.1425 -0.0368  0.0988
14377TIP3    H243073   7.317   7.209   1.444  0.0513  1.1268 -0.8929
14378TIP3   OH243074   4.105   0.326   2.493  0.3379 -0.4395  0.1529
14378TIP3    H143075   4.150   0.247   2.464  2.8615  0.8524  0.2277
14378TIP3    H243076   4.145   0.397   2.442 -0.4569  1.0051  1.4353
14379TIP3   OH243077   6.244   4.719   1.827  1.0389 -0.3780 -0.0092
14379TIP3    H143078   6.189   4.788   1.865 -1.7094 -1.7876 -1.1806
14379TIP3    H243079   6.271   4.666   1.902  1.1383  0.5423  0.6260
14380TIP3   OH243080   5.292   3.134   6.837 -0.8626 -0.1322 -0.1990
14380TIP3    H143081   5.359   3.195   6.868 -0.7493 -0.7067  0.7033
14380TIP3    H243082   5.335   3.049   6.835 -0.7737 -0.0864 -2.2801
14381TIP3   OH243083   1.517   3.890   6.523 -0.1369 -0.1392  0.0929
14381TIP3    H143084   1.494   3.848   6.440  0.8518  0.9957 -0.7881
14381TIP3    H243085   1.520   3.983   6.502 -0.3851  0.2111  1.5475
14382TIP3   OH243086   4.627   7.029   0.077  0.1162 -0.0534 -0.4720
14382TIP3    H143087   4.646   7.110   0.030  3.5456  0.1603  1.0096
14382TIP3    H243088   4.685   6.964   0.038  0.5319 -0.6986  1.1339
14383TIP3   OH243089   0.692   7.018   4.898  0.4596 -0.3740 -0.6890
14383TIP3    H143090   0.750   7.043   4.827  0.1868  0.0838 -0.7498
14383TIP3    H243091   0.742   7.036   4.978  0.6366 -0.5704 -0.7560
14384TIP3   OH243092   6.054   2.310   3.986  0.8517  0.0886  0.5936
14384TIP3    H143093   6.137   2.272   4.016  0.2787 -0.7515  1.1459
14384TIP3    H243094   6.012   2.239   3.936 -0.4861 -0.2457  2.1113
14385TIP3   OH243095   6.836   6.988   6.125 -0.1127 -0.1264 -0.1926
14385TIP3    H143096   6.821   7.053   6.193 -3.2080 -2.3156  1.4942
14385TIP3    H243097   6.927   6.961   6.137 -0.2176  0.4210  2.3501
14386TIP3   OH243098   7.427   0.277   4.766 -0.9954  0.5812 -0.5437
14386TIP3    H143099   7.351   0.335   4.776  0.9945  2.9958  4.6813
14386TIP3    H243100   7.498   0.336   4.740  0.2876 -0.2114  1.0066
14387TIP3   OH243101   7.341   5.629   1.000  0.4462 -0.3982  0.3128
14387TIP3    H143102   7.408   5.578   0.955  0.7509  1.3083 -1.3082
14387TIP3    H243103   7.312   5.693   0.935 -1.7056 -0.1204  1.4496
14388TIP3   OH243104   7.722   1.507   2.708  0.3085  1.0058 -0.2399
14388TIP3    H143105   7.745   1.459   2.787 -0.8715 -1.7612 -1.4303
14388TIP3    H243106   7.630   1.486   2.693 -0.1338  3.2616 -1.2169
14389TIP3   OH243107   5.070   1.097   1.227 -0.0824 -0.4109  0.2420
14389TIP3    H143108   5.034   1.093   1.315  1.2811 -0.6750  0.8077
14389TIP3    H243109   5.084   1.006   1.201 -0.9316 -0.3566 -0.4552
14390TIP3   OH243110   5.343   0.360   1.092  0.2531 -0.2039 -0.3635
14390TIP3    H143111   5.320   0.281   1.043  3.6649 -0.9446 -0.9816
14390TIP3    H243112   5.382   0.329   1.173  0.1969  0.9176  0.1163
14391TIP3   OH243113   4.458   7.927   3.203 -0.6161 -0.3177  0.1929
14391TIP3    H143114   4.463   7.851   3.261 -0.9306  0.5924  1.4494
14391TIP3    H243115   4.530   7.915   3.140  1.2476 -0.1881  2.1901
14392TIP3   OH243116   1.723   2.125   0.050  0.5224  0.1211 -0.2368
14392TIP3    H143117   1.773   2.082   0.120 -0.4297  0.5124  0.6976
14392TIP3    H243118   1.714   2.216   0.079  2.3225  0.9760 -2.0925
14393TIP3   OH243119   5.245   4.008   2.020  0.0232  0.2095 -0.2731
14393TIP3    H143120   5.282   4.094   2.039 -0.1752  0.4197 -0.8239
14393TIP3    H243121   5.161   4.007   2.067  0.2912  0.0848  0.2153
14394TIP3   OH243122   8.203   4.128   3.460  0.3288 -0.0397  0.2763
14394TIP3    H143123   8.146   4.145   3.535  1.1351 -2.2244  1.4729
14394TIP3    H243124   8.223   4.035   3.466  2.7719  0.3240 -1.0042
14395TIP3   OH243125   7.677   4.767   1.260 -0.2855  0.2757  0.3080
14395TIP3    H143126   7.677   4.830   1.332 -0.1967  1.1940 -0.4687
14395TIP3    H243127   7.664   4.820   1.181 -1.5410 -0.8209 -0.2670
14396TIP3   OH243128   5.768   5.141   3.406 -0.3022 -1.0856  0.4103
14396TIP3    H143129   5.739   5.151   3.315  0.1775 -1.2648  0.2374
14396TIP3    H243130   5.696   5.094   3.449 -1.2710  0.4043  0.5173
14397TIP3   OH243131   4.228   6.236   5.152  0.3113 -0.4314 -0.3779
14397TIP3    H143132   4.267   6.297   5.090  0.7688  0.9827  1.2330
14397TIP3    H243133   4.284   6.159   5.148 -0.6028 -1.0634 -2.8725
14398TIP3   OH243134   2.285   2.494   6.379 -0.2268  0.3132 -0.0942
14398TIP3    H143135   2.230   2.416   6.375  0.3330 -0.0343 -1.7487
14398TIP3    H243136   2.305   2.504   6.472 -1.0307 -1.0012  0.2501
14399TIP3   OH243137   4.224   0.916   0.062 -0.4825  0.2466 -0.4911
14399TIP3    H143138   4.167   0.978   0.017  1.3885  1.2653 -1.5602
14399TIP3    H243139   4.233   0.843  -0.000 -1.2917 -0.3555  0.0601
14400TIP3   OH243140   3.380   1.145   6.717  0.1302  0.3878 -0.2264
14400TIP3    H143141   3.364   1.152   6.623  3.5112  1.8777 -0.8499
14400TIP3    H243142   3.434   1.222   6.738  0.5154 -0.5473  2.6843
14401TIP3   OH243143   7.188   2.957   6.483 -0.3533  0.8101 -0.2951
14401TIP3    H143144   7.179   3.052   6.475 -0.0653  0.7853 -0.9350
14401TIP3    H243145   7.277   2.945   6.516  0.1109  0.7053 -1.5565
14402TIP3   OH243146   8.008   7.872   2.245  0.2898  0.2379  0.5429
14402TIP3    H143147   8.073   7.834   2.186  0.0745  1.1165 -0.2881
14402TIP3    H243148   7.924   7.838   2.214  0.0537  1.6191 -0.4575
14403TIP3   OH243149   8.132   5.906   6.748 -0.3417 -0.0998 -0.4546
14403TIP3    H143150   8.133   5.993   6.708  2.1635  0.5033  0.7532
14403TIP3    H243151   8.040   5.889   6.767 -0.7635  3.0302  0.7937
14404TIP3   OH243152   0.284   5.870   6.007 -0.7286 -0.0582 -0.2479
14404TIP3    H143153   0.223   5.876   6.081 -1.9134  0.3591 -1.2334
14404TIP3    H243154   0.357   5.925   6.033 -0.9476 -0.2144  0.7771
14405TIP3   OH243155   1.057   3.171   1.576 -0.2958 -0.4027 -0.3108
14405TIP3    H143156   1.072   3.190   1.669 -0.5487  0.4508 -0.4387
14405TIP3    H243157   0.971   3.128   1.575  0.0194 -1.0571 -0.0837
14406TIP3   OH243158   0.611   1.328   2.892 -0.4008  0.1909 -0.1974
14406TIP3    H143159   0.568   1.400   2.939 -0.3121  0.4961 -0.5749
14406TIP3    H243160   0.577   1.249   2.933  0.8139  0.4394  1.4259
14407TIP3   OH243161   7.804   5.632   0.116 -0.0389 -0.1827 -0.2659
14407TIP3    H143162   7.849   5.644   0.199 -0.3929 -1.2683  0.0944
14407TIP3    H243163   7.714   5.612   0.140 -0.4754  0.8521 -0.9540
14408TIP3   OH243164   5.011   4.009   0.447 -0.6267  0.0166 -0.2335
14408TIP3    H143165   5.100   4.030   0.420 -0.0348 -1.3228  0.6028
14408TIP3    H243166   4.955   4.051   0.381  0.6132  0.7766 -0.8233
14409TIP3   OH243167   1.513   0.781   1.134  0.2500  0.3666  0.2122
14409TIP3    H143168   1.586   0.755   1.078 -0.9342 -1.4754 -0.5743
14409TIP3    H243169   1.554   0.822   1.210  2.0438  0.0708 -0.5504
14410TIP3   OH243170   5.385   1.370   2.024  0.1288  0.3004 -0.0583
14410TIP3    H143171   5.457   1.431   2.006  0.5479 -0.4702 -1.0969
14410TIP3    H243172   5.396   1.301   1.959 -0.7436 -0.5394  0.6668
14411TIP3   OH243173   6.322   2.946   2.561 -0.1289 -0.2895 -0.0472
14411TIP3    H143174   6.280   3.032   2.560 -2.0168 -1.0741  1.9118
14411TIP3    H243175   6.274   2.894   2.497 -0.5204 -0.4959  0.4063
14412TIP3   OH243176   7.719   6.415   1.667  0.2098 -0.3647  0.0720
14412TIP3    H143177   7.731   6.383   1.578  0.3752 -1.0278  0.3308
14412TIP3    H243178   7.625   6.404   1.684  0.6329 -3.1923  1.0728
14413TIP3   OH243179   8.310   2.457   5.400  0.0320 -0.2720 -0.1214
14413TIP3    H143180   8.329   2.523   5.467 -0.3894 -0.5540  0.2828
14413TIP3    H243181   8.325   2.373   5.445  0.3213 -0.4561 -0.5554
14414TIP3   OH243182   1.485   7.311   2.744 -0.3220 -0.3368  0.4768
14414TIP3    H143183   1.509   7.398   2.713  0.8582  0.2950  2.9002
14414TIP3    H243184   1.484   7.256   2.665  0.7063  1.4721 -0.8658
14415TIP3   OH243185   4.206   2.762   3.684  0.1760  0.7742  0.9525
14415TIP3    H143186   4.230   2.735   3.595  0.0901 -0.2263  1.2291
14415TIP3    H243187   4.289   2.770   3.730  0.1069 -2.1094  1.7425
14416TIP3   OH243188   0.224   0.800   6.726  0.1371 -0.1765 -0.0978
14416TIP3    H143189   0.173   0.720   6.741 -2.2977  1.4567  1.2262
14416TIP3    H243190   0.199   0.828   6.638  0.2895 -0.4423 -0.2228
14417TIP3   OH243191   4.758   5.991   4.383 -0.2563  0.0323  0.2132
14417TIP3    H143192   4.833   6.029   4.429 -2.0091  0.7649  2.7078
14417TIP3    H243193   4.784   5.991   4.291  2.0986  1.9132  0.7665
14418TIP3   OH243194   6.082   0.888   4.465  0.4657 -0.3709  0.1981
14418TIP3    H143195   6.102   0.942   4.541  1.3248 -0.7319  0.2330
14418TIP3    H243196   6.161   0.890   4.412  0.4328 -1.4171  0.0913
14419TIP3   OH243197   2.837   4.686   5.607 -0.1844  0.5569  0.0842
14419TIP3    H143198   2.880   4.601   5.594  0.1984  0.7768 -0.1083
14419TIP3    H243199   2.886   4.746   5.551 -0.6400  0.8473 -0.0080
14420TIP3   OH243200   3.710   7.286   1.689 -0.2500  0.3213 -0.3540
14420TIP3    H143201   3.614   7.284   1.689 -0.2868  1.1996  0.3407
14420TIP3    H243202   3.735   7.214   1.632 -1.3488  1.3658 -2.2745
14421TIP3   OH243203   7.674   5.447   4.653  0.3675 -0.3711 -0.0474
14421TIP3    H143204   7.686   5.357   4.681 -0.1242 -0.4656 -0.1413
14421TIP3    H243205   7.580   5.457   4.641  0.4193  0.1453 -0.0669
14422TIP3   OH243206   6.865   6.892   1.851 -0.1195  0.1071  0.2206
14422TIP3    H143207   6.917   6.912   1.773  0.3877 -2.3587 -0.1758
14422TIP3    H243208   6.912   6.933   1.923  0.9299  0.1360 -0.4612
14423TIP3   OH243209   0.102   1.919   5.494 -0.2728  0.0107 -0.0157
14423TIP3    H143210   0.148   1.888   5.572 -0.3428 -0.0992 -0.0177
14423TIP3    H243211   0.169   1.925   5.427  0.5632  3.4676  0.9162
14424TIP3   OH243212   1.815   5.651   1.338  0.2786  0.1048 -0.0588
14424TIP3    H143213   1.899   5.608   1.323 -0.1741 -0.8432  0.0231
14424TIP3    H243214   1.788   5.682   1.252  1.4027  1.7521  0.1578
14425TIP3   OH243215   3.032   1.257   2.344 -0.2861  0.5734 -0.1034
14425TIP3    H143216   3.031   1.347   2.310 -1.4829  0.7656  0.4202
14425TIP3    H243217   3.007   1.203   2.269  1.2570  0.5626 -0.6566
14426TIP3   OH243218   1.042   3.335   5.913 -0.3965 -0.1350  0.2698
14426TIP3    H143219   0.963   3.383   5.892 -1.6138 -1.3597  1.8007
14426TIP3    H243220   1.013   3.263   5.970  1.7721 -0.7410  0.7316
14427TIP3   OH243221   2.700   0.258   2.168  0.5807  0.0858 -0.0790
14427TIP3    H143222   2.688   0.294   2.255 -0.6306  0.5885 -0.4355
14427TIP3    H243223   2.657   0.320   2.109  1.0757 -0.4157 -1.0024
14428TIP3   OH243224   8.047   1.315   2.152 -0.4403  0.3076  0.0082
14428TIP3    H143225   8.065   1.407   2.170 -1.5909  0.4650  0.4517
14428TIP3    H243226   7.954   1.313   2.128 -0.2154 -0.6165 -0.8919
14429TIP3   OH243227   7.033   4.785   6.208 -0.0159  0.1184  0.3191
14429TIP3    H143228   7.006   4.799   6.299 -1.3559 -0.0769 -0.0222
14429TIP3    H243229   7.058   4.693   6.204 -0.0219  0.1090  0.4752
14430TIP3   OH243230   6.027   7.554   6.286 -0.0058 -0.4840  0.4604
14430TIP3    H143231   5.943   7.573   6.244 -0.2736 -2.6331 -0.1286
14430TIP3    H243232   6.013   7.571   6.379 -0.3338  1.4271  0.1080
14431TIP3   OH243233   0.798   1.383   3.732 -0.1888  0.2704 -0.6496
14431TIP3    H143234   0.815   1.473   3.703 -1.5376  1.2664  1.3993
14431TIP3    H243235   0.875   1.361   3.785 -0.8667  1.1429  0.7509
14432TIP3   OH243236   4.995   7.463   4.719 -0.3249 -1.0141  0.0748
14432TIP3    H143237   4.986   7.558   4.717  0.0665 -0.8560  2.4970
14432TIP3    H243238   4.905   7.430   4.720 -0.4607 -0.6885 -0.7979
14433TIP3   OH243239   5.779   3.379   4.825 -0.3264  0.6496  0.1775
14433TIP3    H143240   5.828   3.440   4.880 -0.3384  0.9403 -0.1350
14433TIP3    H243241   5.840   3.306   4.810 -0.6654  0.0777  1.4114
14434TIP3   OH243242   2.939   0.861   0.090 -0.2587 -0.4400 -0.0532
14434TIP3    H143243   2.857   0.881   0.135 -1.7817 -0.7517 -2.5180
14434TIP3    H243244   2.950   0.931   0.026  0.3710 -1.3992 -1.0406
14435TIP3   OH243245   7.190   5.699   5.248  0.5372 -0.1390 -0.1944
14435TIP3    H143246   7.205   5.640   5.174  1.2051  1.0813 -1.0507
14435TIP3    H243247   7.277   5.735   5.267  0.1302  0.5796  0.3115
14436TIP3   OH243248   7.520   2.751   3.038 -0.0293 -0.0530  0.4397
14436TIP3    H143249   7.438   2.766   2.991  0.0290 -0.6249  0.1434
14436TIP3    H243250   7.530   2.656   3.038  0.8883  0.0305  0.0237
14437TIP3   OH243251   0.530   6.705   0.340 -0.9291  0.3377  0.0832
14437TIP3    H143252   0.442   6.697   0.305 -1.6020 -1.0224  1.8945
14437TIP3    H243253   0.519   6.752   0.423 -0.0426 -0.2260  0.5457
14438TIP3   OH243254   6.318   6.124   6.809 -0.2555 -0.6535 -0.4541
14438TIP3    H143255   6.234   6.162   6.835  0.8997  0.5183  1.8556
14438TIP3    H243256   6.372   6.200   6.786  0.4180 -1.3457 -1.2498
14439TIP3   OH243257   1.447   7.222   1.495 -0.2536 -0.1193 -0.3460
14439TIP3    H143258   1.424   7.305   1.453  4.2407  0.0079 -3.2679
14439TIP3    H243259   1.450   7.159   1.423  0.7256 -1.7434  1.0470
14440TIP3   OH243260   4.822   2.809   1.216 -0.2838 -0.0257  0.2735
14440TIP3    H143261   4.875   2.884   1.244  0.7273 -0.5735 -0.0901
14440TIP3    H243262   4.874   2.733   1.241 -0.7903 -0.5803 -0.3223
14441TIP3   OH243263   3.498   2.725   4.109 -0.0802  0.4184 -0.0676
14441TIP3    H143264   3.510   2.652   4.170  2.4511  1.1257  0.4104
14441TIP3    H243265   3.517   2.688   4.023  2.0134  0.5963  0.2563
14442TIP3   OH243266   0.089   4.416   5.009  0.3869  0.0725  0.8568
14442TIP3    H143267   0.127   4.503   5.023 -2.5579  1.6195  0.1299
14442TIP3    H243268   0.060   4.418   4.918  0.6913 -1.8876  0.6935
14443TIP3   OH243269   5.802   6.491   4.473 -0.1037 -0.2598  0.1779
14443TIP3    H143270   5.860   6.544   4.527 -0.8980 -0.0955  0.8876
14443TIP3    H243271   5.733   6.463   4.532  0.1389 -1.8622 -0.2467
14444TIP3   OH243272   7.213   4.356   3.590 -0.6028 -0.9227  0.2025
14444TIP3    H143273   7.215   4.337   3.496 -0.5762  0.0085  0.0032
14444TIP3    H243274   7.120   4.368   3.610 -0.4823  1.1244 -0.2085
14445TIP3   OH243275   0.435   2.537   0.553 -0.1297 -0.0654  0.4233
14445TIP3    H143276   0.500   2.574   0.493 -1.3115  2.2111  0.4327
14445TIP3    H243277   0.435   2.597   0.628 -1.8605 -0.2893  0.6432
14446TIP3   OH243278   6.360   4.895   0.330  0.1018 -0.0116  0.1641
14446TIP3    H143279   6.272   4.870   0.359  0.5454 -0.0626  1.5248
14446TIP3    H243280   6.375   4.981   0.370  1.2894 -0.7241  1.3349
14447TIP3   OH243281   5.142   1.451  -0.001  0.0864 -0.1422  0.2457
14447TIP3    H143282   5.204   1.385   0.030  2.9889  1.7671 -0.9794
14447TIP3    H243283   5.134   1.513   0.072  0.9965  0.4407 -0.1180
14448TIP3   OH243284   8.354   4.544   2.512 -0.0452  0.3933  0.0535
14448TIP3    H143285   8.428   4.519   2.457  1.1432 -0.2045  1.8375
14448TIP3    H243286   8.277   4.521   2.461  0.9985 -1.9209 -0.5838
14449TIP3   OH243287   0.657   5.360   2.402  0.4988  0.4980  0.1246
14449TIP3    H143288   0.610   5.293   2.453  0.2543  0.5611 -0.0177
14449TIP3    H243289   0.636   5.340   2.311  1.5853 -0.1141 -0.0167
14450TIP3   OH243290   6.378   5.256   0.783  0.2564 -0.3650 -0.2759
14450TIP3    H143291   6.415   5.298   0.705  0.4619  0.0796  0.0547
14450TIP3    H243292   6.443   5.272   0.852 -1.3563  2.0729  0.8002
14451TIP3   OH243293   7.246   4.638   4.490  0.2093  0.5287 -0.7850
14451TIP3    H143294   7.271   4.730   4.494 -1.1990  0.8733  1.4632
14451TIP3    H243295   7.327   4.591   4.510  0.1117  1.4808  2.4268
14452TIP3   OH243296   6.046   3.192   1.154 -0.1696  0.2938 -0.3945
14452TIP3    H143297   6.135   3.195   1.119 -0.7564 -0.4389 -2.0883
14452TIP3    H243298   6.051   3.239   1.237  1.6587  0.7756 -0.7249
14453TIP3   OH243299   0.659   5.589   2.975  0.0007  0.0782 -0.4167
14453TIP3    H143300   0.630   5.584   3.066  0.9065 -1.5234 -0.1759
14453TIP3    H243301   0.609   5.662   2.938  1.1122  2.1534  1.8921
14454TIP3   OH243302   2.277   3.513   0.095  0.1673  0.0936 -0.4442
14454TIP3    H143303   2.247   3.499   0.005  0.5640  1.0851 -0.7403
14454TIP3    H243304   2.299   3.606   0.099 -1.6889  0.5240  1.2391
14455TIP3   OH243305   3.253   6.848   0.337 -0.1872  0.2952 -0.6973
14455TIP3    H143306   3.218   6.792   0.268  0.9887 -0.7631 -0.4828
14455TIP3    H243307   3.186   6.845   0.406 -0.3649 -0.4728 -0.8879
14456TIP3   OH243308   5.089   6.999   1.890  0.4941 -0.2537  0.1054
14456TIP3    H143309   5.120   6.934   1.827 -0.3918  0.4815 -1.1400
14456TIP3    H243310   5.133   6.976   1.971  1.6221 -1.2806 -0.7514
14457TIP3   OH243311   4.236   2.386   2.673  0.1941  0.6047 -0.1991
14457TIP3    H143312   4.309   2.328   2.694  0.2549  0.6070 -0.4025
14457TIP3    H243313   4.165   2.327   2.646 -0.1392  0.5560  0.7591
14458TIP3   OH243314   7.086   3.356   5.241  0.3796  0.4553  0.3545
14458TIP3    H143315   7.165   3.370   5.294  0.1747 -0.2654  0.8630
14458TIP3    H243316   7.119   3.329   5.155  0.6861 -0.2820  0.6982
14459TIP3   OH243317   1.718   3.763   6.668  0.2928 -0.6544 -0.4158
14459TIP3    H143318   1.654   3.825   6.632  1.8614  3.0965  2.5453
14459TIP3    H243319   1.665   3.700   6.717 -1.2980  0.4365 -0.6509
14460TIP3   OH243320   0.670   2.869   6.488  0.6199 -0.0019  0.2146
14460TIP3    H143321   0.648   2.894   6.578  1.8436  0.1358  0.4963
14460TIP3    H243322   0.592   2.824   6.455 -1.5794  3.6386 -0.1481
14461TIP3   OH243323   5.702   5.716   6.762  0.2426 -0.1384  0.5539
14461TIP3    H143324   5.674   5.763   6.840 -0.6003 -1.2854  0.9713
14461TIP3    H243325   5.622   5.678   6.726  0.5922  0.4402 -0.9456
14462TIP3   OH243326   6.825   6.427   5.580  0.0205  0.8398  0.3140
14462TIP3    H143327   6.866   6.513   5.566  1.3886 -0.1631 -2.6922
14462TIP3    H243328   6.898   6.371   5.606 -0.4686  0.1345  0.1764
14463TIP3   OH243329   7.122   6.828   5.677  0.2264 -0.2406  0.1153
14463TIP3    H143330   7.217   6.820   5.686  0.4571 -0.0923 -1.7562
14463TIP3    H243331   7.104   6.921   5.688  0.2104 -0.3464  1.0457
14464TIP3   OH243332   6.540   3.714   5.347  0.1166 -0.0514 -0.2881
14464TIP3    H143333   6.512   3.643   5.289  0.4981 -0.2030 -0.2910
14464TIP3    H243334   6.505   3.691   5.433  0.3955 -0.3392 -0.2498
14465TIP3   OH243335   6.855   4.327   1.881 -0.0807 -0.3270  0.2755
14465TIP3    H143336   6.926   4.306   1.942 -0.5529 -2.2741  0.2147
14465TIP3    H243337   6.777   4.291   1.923 -0.2801 -2.6173 -1.8787
14466TIP3   OH243338   5.433   5.682   2.004  0.7704  0.3569  0.1214
14466TIP3    H143339   5.392   5.745   1.945 -1.1567 -0.6417  0.3176
14466TIP3    H243340   5.373   5.676   2.079  2.4830  0.6006  1.5934
14467TIP3   OH243341   2.100   6.730   6.190 -0.4922 -0.5651  0.3495
14467TIP3    H143342   2.059   6.648   6.163 -0.1047 -0.8270  0.5525
14467TIP3    H243343   2.190   6.706   6.213 -0.4723 -0.1391  0.7296
14468TIP3   OH243344   4.480   6.000   6.090  0.1528  0.2826  0.1972
14468TIP3    H143345   4.477   6.081   6.039  0.6608  0.7831  0.9440
14468TIP3    H243346   4.524   6.025   6.171  0.9690 -0.9027  0.1378
14469TIP3   OH243347   4.015   3.093   1.544 -0.6945  0.2801 -0.0507
14469TIP3    H143348   4.025   3.187   1.527 -0.8907  0.3696  0.3025
14469TIP3    H243349   3.921   3.079   1.548 -0.6706 -0.0137 -0.5213
14470TIP3   OH243350   1.439   3.531   5.266 -0.1480 -0.3122 -0.4415
14470TIP3    H143351   1.464   3.603   5.324  0.4980  0.4079 -1.5693
14470TIP3    H243352   1.451   3.452   5.319  0.1717  0.3360  0.4774
14471TIP3   OH243353   3.422   4.795   4.441 -0.1501  0.4786 -0.2751
14471TIP3    H143354   3.494   4.857   4.429  0.4025 -0.1559 -0.2712
14471TIP3    H243355   3.462   4.709   4.428 -1.2727  0.1806 -2.2174
14472TIP3   OH243356   6.352   1.693   6.536 -0.1116 -0.0165 -0.3604
14472TIP3    H143357   6.389   1.698   6.624 -0.8324  0.0388 -0.0530
14472TIP3    H243358   6.274   1.748   6.540  0.1752  0.4736 -1.2057
14473TIP3   OH243359   6.875   7.675   3.567  0.0757  0.3455  0.3646
14473TIP3    H143360   6.786   7.658   3.535 -0.2506  1.3818  0.6923
14473TIP3    H243361   6.866   7.749   3.626  1.2202  0.7052  0.1209
14474TIP3   OH243362   2.221   5.291   4.455  0.8220 -0.6605  0.2626
14474TIP3    H143363   2.187   5.360   4.398  0.7299 -0.9898 -0.0880
14474TIP3    H243364   2.245   5.336   4.536 -1.7927 -0.5817  1.1028
14475TIP3   OH243365   7.683   6.940   5.806 -0.1648 -0.1744 -0.1607
14475TIP3    H143366   7.593   6.972   5.804 -1.0709 -2.5870 -1.2552
14475TIP3    H243367   7.677   6.854   5.847  1.6749 -0.3396 -0.1534
14476TIP3   OH243368   3.144   1.062   0.712 -0.1175 -0.4902  0.1416
14476TIP3    H143369   3.221   1.025   0.669  0.2221 -0.0847  0.3955
14476TIP3    H243370   3.086   0.987   0.725  0.5800 -0.9495  0.6821
14477TIP3   OH243371   1.609   3.071   5.583 -0.1975  0.2416  0.0307
14477TIP3    H143372   1.573   3.066   5.494 -1.0376 -1.0597  0.3998
14477TIP3    H243373   1.541   3.116   5.634  0.1051  0.6286  0.0930
14478TIP3   OH243374   3.233   4.452   6.066  0.5585  0.0206  0.3714
14478TIP3    H143375   3.156   4.480   6.017 -0.3661  1.3327  2.4476
14478TIP3    H243376   3.258   4.368   6.027 -1.8803 -0.4151 -0.3726
14479TIP3   OH243377   2.789   1.438   2.307 -0.2121  1.0986  0.1506
14479TIP3    H143378   2.866   1.493   2.289  0.7789 -0.7047 -1.4357
14479TIP3    H243379   2.760   1.409   2.221 -0.4628 -1.1652  0.9494
14480TIP3   OH243380   5.118   0.881   5.513 -0.1465 -0.2734  0.4035
14480TIP3    H143381   5.101   0.824   5.587 -2.2987 -0.5225 -0.2163
14480TIP3    H243382   5.141   0.965   5.551  0.4901 -0.8509  1.3244
14481TIP3   OH243383   1.527   7.858   0.128  0.0863  0.1689 -0.0497
14481TIP3    H143384   1.558   7.943   0.159 -0.9441  1.8757 -3.1861
14481TIP3    H243385   1.434   7.873   0.107 -0.1759 -1.8162 -0.4377
14482TIP3   OH243386   1.088   4.658   5.723 -0.0273  0.1650  0.2226
14482TIP3    H143387   1.079   4.691   5.634 -0.1568 -1.6746 -0.5021
14482TIP3    H243388   1.179   4.677   5.747  0.0450  0.5565 -0.3453
14483TIP3   OH243389   1.908   2.455   2.385 -0.2577  0.4659  0.2010
14483TIP3    H143390   1.864   2.371   2.402  0.8488 -0.3386 -0.7222
14483TIP3    H243391   1.901   2.467   2.291  1.1661  0.4698  0.0744
14484TIP3   OH243392   0.702   2.538   3.895 -0.2094 -0.1383  0.2727
14484TIP3    H143393   0.717   2.562   3.987 -0.4951 -0.5059  0.4194
14484TIP3    H243394   0.789   2.519   3.861 -0.0606  0.3590  0.3648
14485TIP3   OH243395   1.658   3.148   5.909  0.6614 -0.0695  0.0968
14485TIP3    H143396   1.640   3.086   5.838  2.5531  1.3335 -1.7196
14485TIP3    H243397   1.584   3.208   5.907  1.3521  0.8011 -1.7291
14486TIP3   OH243398   6.609   7.650   3.761  0.5605  0.8124 -0.2427
14486TIP3    H143399   6.557   7.641   3.681  1.1622  2.0927 -0.8060
14486TIP3    H243400   6.618   7.561   3.794 -1.1098  0.4518 -0.6886
14487TIP3   OH243401   0.950   7.161   4.433  0.0065 -0.0066 -0.0532
14487TIP3    H143402   0.966   7.236   4.491  0.9059 -0.8950  0.9044
14487TIP3    H243403   1.030   7.155   4.380 -0.4948  0.3280 -0.8676
14488TIP3   OH243404   5.410   4.832   5.544 -0.1996 -0.0968 -0.4327
14488TIP3    H143405   5.333   4.871   5.503  0.7172  0.0119 -2.1027
14488TIP3    H243406   5.471   4.815   5.472  0.7013 -1.6997  0.6352
14489TIP3   OH243407   6.355   5.369   6.233 -0.0641  0.3987  0.0438
14489TIP3    H143408   6.286   5.384   6.168 -0.5621  1.1482  0.7304
14489TIP3    H243409   6.371   5.455   6.272  2.7228  0.6653 -1.4918
14490TIP3   OH243410   2.684   5.154   6.045  0.3836 -0.3233 -0.4201
14490TIP3    H143411   2.588   5.159   6.047  0.3951 -0.3509  0.7945
14490TIP3    H243412   2.713   5.242   6.069  0.7094  0.3764 -3.0457
14491TIP3   OH243413   3.943   2.967   5.669 -0.5458 -0.1791 -0.2685
14491TIP3    H143414   3.884   2.966   5.594 -0.7854 -1.2067 -0.0757
14491TIP3    H243415   4.022   2.923   5.638 -0.4047 -0.0474 -0.1007
14492TIP3   OH243416   7.990   3.857   0.516  0.1064 -0.2326 -0.0999
14492TIP3    H143417   7.969   3.789   0.579 -0.0051  1.0638  1.3237
14492TIP3    H243418   7.947   3.936   0.550  0.3670  0.6044 -1.5976
14493TIP3   OH243419   4.923   3.812   5.043  0.1338 -0.1489  0.2455
14493TIP3    H143420   4.865   3.780   4.975 -0.1610 -0.8490  0.8175
14493TIP3    H243421   4.883   3.894   5.072 -0.1950 -0.2807  0.1615
14494TIP3   OH243422   4.039   5.385   4.899 -0.4193  0.3049 -0.2512
14494TIP3    H143423   4.132   5.395   4.881 -0.1807  0.9531  1.2021
14494TIP3    H243424   4.013   5.468   4.940 -1.5060 -0.0722 -0.1309
14495TIP3   OH243425   7.442   1.528   5.992 -0.3620  0.2193  0.3367
14495TIP3    H143426   7.512   1.469   6.021 -0.0995  0.4279  0.1371
14495TIP3    H243427   7.369   1.471   5.971 -0.2146 -0.0104  0.4427
14496TIP3   OH243428   1.800   2.874   0.561  0.1650 -0.3483  0.2101
14496TIP3    H143429   1.719   2.882   0.611 -0.6226  0.4630 -1.1373
14496TIP3    H243430   1.831   2.785   0.578  0.9247  0.3889  3.5500
14497TIP3   OH243431   3.323   7.299   4.843  0.0858  0.0112  0.0238
14497TIP3    H143432   3.251   7.241   4.870 -1.5027  1.6403 -0.5145
14497TIP3    H243433   3.320   7.298   4.747 -0.7039  1.7707 -0.0116
14498TIP3   OH243434   3.941   4.151   5.101  0.5456  0.0476  0.1439
14498TIP3    H143435   3.999   4.145   5.176  2.4974 -0.0751 -1.2977
14498TIP3    H243436   3.869   4.207   5.130  1.3634  0.1942  1.9998
14499TIP3   OH243437   6.444   3.620   1.273  0.6993  0.4367  0.3173
14499TIP3    H143438   6.510   3.678   1.236 -0.2193  0.3671 -1.5464
14499TIP3    H243439   6.378   3.610   1.204  0.3268 -2.0321  0.9009
14500TIP3   OH243440   1.961   5.117   2.241  0.0356 -0.0545 -0.0826
14500TIP3    H143441   2.016   5.109   2.162  0.1519  0.9767 -0.1223
14500TIP3    H243442   1.996   5.194   2.286 -1.2101  0.4649  0.0302
14501TIP3   OH243443   4.362   6.972   3.006  0.2411 -0.2650  0.6029
14501TIP3    H143444   4.339   7.058   2.969  1.4622  0.2563  1.0018
14501TIP3    H243445   4.290   6.952   3.065 -0.4455  0.1165 -0.0760
14502TIP3   OH243446   5.599   6.143   5.501  1.0457 -0.4330  0.0855
14502TIP3    H143447   5.615   6.230   5.539 -0.2816 -0.7366  1.4477
14502TIP3    H243448   5.540   6.160   5.428 -1.1589 -0.3487  1.7945
14503TIP3   OH243449   4.102   2.328   4.080  0.4028 -0.1017  0.2428
14503TIP3    H143450   4.043   2.266   4.121 -0.0594  0.7589  0.8974
14503TIP3    H243451   4.107   2.299   3.988  1.2969 -1.9110  0.8212
14504TIP3   OH243452   0.649   1.603   6.664  0.0984  0.3558  0.1886
14504TIP3    H143453   0.741   1.596   6.636  0.4236 -0.6857  1.4478
14504TIP3    H243454   0.626   1.515   6.692 -1.2502  0.6517  0.0610
14505TIP3   OH243455   0.142   2.924   4.207 -0.4102 -0.2093 -0.3362
14505TIP3    H143456   0.056   2.897   4.173 -1.0724 -0.1033  1.1559
14505TIP3    H243457   0.151   2.876   4.290  0.0168  1.3551  0.5697
14506TIP3   OH243458   6.727   4.720   4.678  0.2883  0.0893  0.6127
14506TIP3    H143459   6.818   4.690   4.687  0.1990  0.0541  1.4145
14506TIP3    H243460   6.695   4.729   4.767 -0.8284 -0.8973  0.3464
14507TIP3   OH243461   7.311   2.500   2.915 -0.1582  0.2128  0.6041
14507TIP3    H143462   7.248   2.483   2.985  0.6958 -1.3019  1.0530
14507TIP3    H243463   7.266   2.561   2.856 -1.4532  0.3523  1.6886
14508TIP3   OH243464   3.945   6.623   3.222  0.5196 -0.4104 -0.1820
14508TIP3    H143465   4.030   6.595   3.256 -0.6643 -1.3915  2.2743
14508TIP3    H243466   3.951   6.611   3.127  2.3685 -2.5952  0.1368
14509TIP3   OH243467   4.677   1.404   5.096  0.0347  0.4466 -0.5638
14509TIP3    H143468   4.761   1.439   5.064 -0.0481  0.5814 -0.6352
14509TIP3    H243469   4.659   1.456   5.175 -0.5297  1.1715 -1.1643
14510TIP3   OH243470   7.803   4.953   2.054  0.7908 -0.0246  0.6050
14510TIP3    H143471   7.813   5.003   1.973  0.4416  0.8508  1.0897
14510TIP3    H243472   7.859   4.999   2.117  0.7486 -0.4652  0.9654
14511TIP3   OH243473   1.102   2.452   4.046 -0.0713 -0.2201  0.1937
14511TIP3    H143474   1.066   2.454   3.958  0.2701 -1.4173  0.0108
14511TIP3    H243475   1.174   2.515   4.044  0.3472 -0.7114 -0.5741
14512TIP3   OH243476   3.538   0.738   0.467  0.2749  0.1689 -0.6124
14512TIP3    H143477   3.495   0.653   0.475  0.7889 -0.0824 -0.4365
14512TIP3    H243478   3.615   0.731   0.524  0.0242  0.9444 -0.1632
14513TIP3   OH243479   5.990   5.611   3.539  0.5868  0.3004  0.0741
14513TIP3    H143480   5.962   5.574   3.456 -1.1690  1.0514  0.2882
14513TIP3    H243481   5.944   5.560   3.605  0.3366  1.0312  0.4838
14514TIP3   OH243482   0.138   3.058   3.844  0.1197  0.3540 -0.0536
14514TIP3    H143483   0.217   3.033   3.892 -1.5549  0.0880  2.8181
14514TIP3    H243484   0.168   3.071   3.754  3.6268  1.3549  1.0733
14515TIP3   OH243485   3.869   4.848   5.127 -0.0262 -0.3005 -0.4608
14515TIP3    H143486   3.922   4.913   5.081 -1.0792  0.5985 -0.4434
14515TIP3    H243487   3.872   4.771   5.071  2.3681 -0.7540  0.1734
14516TIP3   OH243488   3.270   2.129   6.828 -0.2605  0.5268  0.3293
14516TIP3    H143489   3.329   2.121   6.753 -0.5794  2.6572 -0.2287
14516TIP3    H243490   3.184   2.147   6.788 -0.7733 -0.0340  1.1734
14517TIP3   OH243491   0.763   6.050   3.081  0.2530  0.2896  0.4704
14517TIP3    H143492   0.746   6.014   3.169 -0.2596 -0.2212  0.1741
14517TIP3    H243493   0.846   6.097   3.090  0.9347 -0.9372  0.9003
14518TIP3   OH243494   2.455   1.616   1.844  0.3015  0.1452 -0.3086
14518TIP3    H143495   2.475   1.678   1.773 -0.4784 -1.5066 -2.0574
14518TIP3    H243496   2.360   1.605   1.840  0.1066  0.7808  1.7045
14519TIP3   OH243497   5.835   7.249   5.693 -0.2552  0.5814 -0.5267
14519TIP3    H143498   5.886   7.324   5.662 -1.6610  1.8557  0.1483
14519TIP3    H243499   5.807   7.204   5.613 -0.6611  1.6444 -0.9956
14520TIP3   OH243500   4.101   3.825   2.230 -0.0347  0.3957  0.6245
14520TIP3    H143501   4.050   3.880   2.171 -0.3597 -1.6205 -1.0989
14520TIP3    H243502   4.072   3.850   2.318 -0.0558  2.9966 -0.0438
14521TIP3   OH243503   2.466   0.997   4.558  0.4638 -0.1954 -0.1756
14521TIP3    H143504   2.432   1.080   4.593 -2.0967 -1.5352  0.8400
14521TIP3    H243505   2.559   0.997   4.581  0.0800  1.4946  1.6329
14522TIP3   OH243506   5.501   5.542   6.093 -0.1321  0.2751  0.3677
14522TIP3    H143507   5.498   5.599   6.016 -1.5842  0.7135  0.7196
14522TIP3    H243508   5.425   5.485   6.083 -0.8217  0.8856  1.8727
14523TIP3   OH243509   1.646   3.264   1.225 -0.4039 -0.1374 -0.4375
14523TIP3    H143510   1.558   3.248   1.260  0.0472  0.3386  0.9964
14523TIP3    H243511   1.658   3.359   1.232 -0.2681 -0.0119 -1.9137
14524TIP3   OH243512   0.795   6.477   3.825 -0.0138 -0.0517 -0.3087
14524TIP3    H143513   0.708   6.499   3.790 -0.7716  0.4709  1.7743
14524TIP3    H243514   0.826   6.558   3.864  0.8851 -0.5639  0.0645
14525TIP3   OH243515   6.073   0.178   6.234  0.6604 -0.0434  0.3717
14525TIP3    H143516   6.024   0.165   6.316  1.7691 -0.9813  0.9228
14525TIP3    H243517   6.037   0.113   6.174 -0.7960  1.2654 -0.2181
14526TIP3   OH243518   2.868   2.919   1.014  0.1686 -0.1260  0.7936
14526TIP3    H143519   2.839   2.838   0.971 -0.5359 -1.2620  3.2401
14526TIP3    H243520   2.871   2.984   0.943 -1.1330 -1.8070 -0.9167
14527TIP3   OH243521   4.574   7.469   1.030 -0.1084 -0.1284 -0.3304
14527TIP3    H143522   4.594   7.375   1.032  1.5915  0.2064 -0.5420
14527TIP3    H243523   4.638   7.508   1.089 -1.4936  0.8149  0.6225
14528TIP3   OH243524   6.258   0.457   5.389  0.3577 -0.3877  0.1165
14528TIP3    H143525   6.257   0.390   5.457  0.6305 -1.6563 -1.0793
14528TIP3    H243526   6.167   0.484   5.380  0.1710 -0.9622  0.2686
14529TIP3   OH243527   5.520   2.149   6.016 -0.4717 -0.4895  0.1364
14529TIP3    H143528   5.612   2.142   5.989  0.0851  0.7324  1.5761
14529TIP3    H243529   5.499   2.242   6.005 -2.0566 -0.9871 -1.6343
14530TIP3   OH243530   4.681   4.145   3.156  0.7691  0.4159  0.2765
14530TIP3    H143531   4.701   4.052   3.165 -2.3981 -0.2717  1.8436
14530TIP3    H243532   4.678   4.160   3.061 -0.9401 -1.7539 -0.1106
14531TIP3   OH243533   2.893   1.307   5.373  0.0912 -0.0810 -0.5484
14531TIP3    H143534   2.952   1.377   5.402  1.4390 -0.2976 -2.6225
14531TIP3    H243535   2.831   1.351   5.315  0.3491 -0.4479 -1.1012
14532TIP3   OH243536   5.741   0.675   6.324 -0.0161 -0.2063 -0.0479
14532TIP3    H143537   5.760   0.707   6.413  0.7211  0.0451 -0.2873
14532TIP3    H243538   5.690   0.745   6.284 -1.4714 -0.8583  0.5804
14533TIP3   OH243539   6.661   5.963   2.457 -0.7958 -0.2341  0.3912
14533TIP3    H143540   6.611   5.896   2.410 -0.0071 -0.1424 -0.6001
14533TIP3    H243541   6.699   5.916   2.532  0.4323 -1.1157 -0.7511
14534TIP3   OH243542   8.326   1.096   6.587 -0.5700  0.2933  0.5807
14534TIP3    H143543   8.313   1.089   6.681 -0.1427 -0.1036  0.6195
14534TIP3    H243544   8.365   1.182   6.574 -0.5612  0.3185  0.7743
14535TIP3   OH243545   7.707   5.804   5.197 -0.3230 -0.4680  0.4800
14535TIP3    H143546   7.718   5.709   5.198  0.1731 -0.4572 -1.0694
14535TIP3    H243547   7.791   5.837   5.164 -0.9589  0.4231 -0.2785
14536TIP3   OH243548   3.883   2.771   6.792 -0.1411  0.2838 -0.3829
14536TIP3    H143549   3.815   2.797   6.854 -0.1476 -0.8504  0.0962
14536TIP3    H243550   3.938   2.710   6.840  0.1876 -0.1752 -1.3159
14537TIP3   OH243551   1.153   4.484   1.462 -0.4618 -0.0343  0.1285
14537TIP3    H143552   1.153   4.578   1.447  0.4460 -0.1768 -0.9179
14537TIP3    H243553   1.218   4.470   1.530 -0.0538  0.0438 -0.2348
14538TIP3   OH243554   2.666   0.100   3.127 -0.5253 -0.7658  0.3204
14538TIP3    H143555   2.737   0.036   3.126 -0.5406 -0.7740 -0.3344
14538TIP3    H243556   2.645   0.111   3.220  1.2120  0.2034  0.6411
14539TIP3   OH243557   6.848   6.771   6.369 -0.7498  0.0806  0.7589
14539TIP3    H143558   6.930   6.800   6.410 -0.3618 -1.2405  0.9668
14539TIP3    H243559   6.866   6.774   6.275 -1.1137  1.5986  0.7145
14540TIP3   OH243560   3.233   4.248   0.121 -0.0283 -0.1078 -0.4334
14540TIP3    H143561   3.193   4.240   0.034 -0.6985 -0.9093 -0.0633
14540TIP3    H243562   3.315   4.199   0.115  0.7407  1.2070 -1.0785
14541TIP3   OH243563   0.827   5.990   3.354  0.3103 -0.0801 -0.3297
14541TIP3    H143564   0.916   5.972   3.384  0.0501 -1.1722 -0.1526
14541TIP3    H243565   0.772   5.936   3.411 -0.6602  2.0952  0.9343
14542TIP3   OH243566   6.659   5.287   0.443  0.1213 -0.4105 -0.1996
14542TIP3    H143567   6.592   5.317   0.505  0.6446  0.9810 -0.2748
14542TIP3    H243568   6.713   5.364   0.428  1.0531 -1.2125 -1.0403
14543TIP3   OH243569   7.594   0.635   2.270  0.3721 -0.6643 -0.1249
14543TIP3    H143570   7.553   0.720   2.282 -0.1732 -1.0460  0.8874
14543TIP3    H243571   7.672   0.652   2.218  0.6812  0.5617  0.7189
14544TIP3   OH243572   6.974   0.828   5.036 -0.1542  0.1760 -0.0225
14544TIP3    H143573   7.001   0.841   4.945 -1.2383 -0.2431 -0.4244
14544TIP3    H243574   6.891   0.876   5.043  1.1056  2.2791  1.4506
14545TIP3   OH243575   7.040   5.260   1.605 -0.0774  0.2969 -0.2801
14545TIP3    H143576   7.029   5.288   1.514 -0.5978 -1.1727 -0.6958
14545TIP3    H243577   7.088   5.332   1.647 -1.2500  1.7186 -1.2985
14546TIP3   OH243578   1.771   5.208   5.105  0.0535  0.1211  0.1847
14546TIP3    H143579   1.741   5.132   5.155 -1.3943  0.3569 -0.2723
14546TIP3    H243580   1.692   5.240   5.061  0.9678  0.8882 -0.9566
14547TIP3   OH243581   2.094   6.060   5.092 -0.1223 -0.4457  0.0418
14547TIP3    H143582   2.099   5.969   5.065  1.9835  0.1864 -2.0434
14547TIP3    H243583   2.078   6.108   5.011 -1.5598  1.0439  1.1453
14548TIP3   OH243584   8.123   5.397   1.379 -0.1948  0.0697  0.1838
14548TIP3    H143585   8.113   5.342   1.302 -1.5367 -0.0326  0.4081
14548TIP3    H243586   8.150   5.337   1.448  3.0868  0.4613 -0.5976
14549TIP3   OH243587   7.546   3.845   6.393 -0.2882 -0.2870 -0.3933
14549TIP3    H143588   7.605   3.775   6.423 -2.4299 -1.3318  1.8253
14549TIP3    H243589   7.586   3.926   6.424  1.2072 -0.6898 -1.1864
14550TIP3   OH243590   0.336   5.889   3.986 -0.9545  0.5074  0.1236
14550TIP3    H143591   0.348   5.933   3.902  0.2207  1.7705  0.9189
14550TIP3    H243592   0.275   5.944   4.034 -0.0139  0.9258  0.8675
14551TIP3   OH243593   2.295   5.637   5.956 -0.5432  0.1950 -0.2039
14551TIP3    H143594   2.242   5.694   5.901 -0.8485 -1.0544 -1.2511
14551TIP3    H243595   2.337   5.577   5.895 -1.5577 -1.7968  0.9807
14552TIP3   OH243596   3.280   2.835   6.584 -0.0372 -0.2571  0.0444
14552TIP3    H143597   3.248   2.844   6.674  1.2571  0.9893  0.4047
14552TIP3    H243598   3.330   2.915   6.567 -0.5831 -0.2793 -1.9407
14553TIP3   OH243599   4.734   3.620   5.361  0.1493  0.4053 -0.8843
14553TIP3    H143600   4.822   3.604   5.326  0.3315  0.3300 -0.4075
14553TIP3    H243601   4.740   3.590   5.452 -0.5087 -0.0550 -0.9869
14554TIP3   OH243602   1.641   2.514   5.568 -0.1656 -0.7198 -0.2484
14554TIP3    H143603   1.648   2.551   5.480  0.3160  1.1823  0.5417
14554TIP3    H243604   1.630   2.590   5.625  0.7356 -1.8170  1.4626
14555TIP3   OH243605   0.251   4.249   3.963  0.7799 -0.6150 -0.1704
14555TIP3    H143606   0.217   4.297   3.887  0.8996 -0.1047  0.0917
14555TIP3    H243607   0.321   4.304   3.996 -0.6045  0.2088  1.5433
14556TIP3   OH243608   3.459   2.375   5.855 -0.3521  0.6749  0.1367
14556TIP3    H143609   3.549   2.393   5.884 -0.1325 -0.2911  0.0786
14556TIP3    H243610   3.457   2.281   5.839 -1.3577  0.7009  0.0474
14557TIP3   OH243611   3.810   5.131   0.838  0.3450 -0.0092 -0.4745
14557TIP3    H143612   3.808   5.135   0.934  0.7322 -1.2350 -0.4019
14557TIP3    H243613   3.738   5.072   0.815  1.1588 -0.8941 -0.8365
14558TIP3   OH243614   8.008   3.855   2.831  0.4817 -0.1289  0.6039
14558TIP3    H143615   8.054   3.806   2.899 -0.8134 -0.2382  1.4319
14558TIP3    H243616   8.026   3.947   2.852  0.0946 -0.1618  1.1034
14559TIP3   OH243617   5.744   7.645   0.024 -0.7382  0.3575 -0.2787
14559TIP3    H143618   5.773   7.668  -0.064 -2.2721  0.6011 -0.7630
14559TIP3    H243619   5.817   7.669   0.081  0.7994 -0.9845 -1.5848
14560TIP3   OH243620   4.157   3.225   5.100 -0.2156  0.0092  0.0271
14560TIP3    H143621   4.082   3.272   5.063 -0.3258 -0.6464 -0.6028
14560TIP3    H243622   4.208   3.197   5.024  0.1139 -0.4534  0.4104
14561TIP3   OH243623   2.590   4.192   3.477  0.1437  0.1943  0.6663
14561TIP3    H143624   2.531   4.133   3.430 -0.3832  1.5994 -0.5083
14561TIP3    H243625   2.586   4.274   3.428  3.4217  0.2514  0.2473
14562TIP3   OH243626   4.426   2.411   5.409  0.1794  0.5272 -0.3292
14562TIP3    H143627   4.438   2.442   5.499 -2.0534  2.5104 -0.5984
14562TIP3    H243628   4.368   2.335   5.417  0.7313  0.1316 -0.0482
14563TIP3   OH243629   1.723   6.103   5.189  0.2311  0.5048 -0.5441
14563TIP3    H143630   1.797   6.060   5.145  1.6819  2.5855 -0.2495
14563TIP3    H243631   1.646   6.073   5.140  1.4600 -0.0500 -2.2364
14564TIP3   OH243632   6.497   7.717   2.855 -0.6226 -0.2241 -0.1714
14564TIP3    H143633   6.507   7.753   2.943 -1.2256 -0.2376 -0.0914
14564TIP3    H243634   6.421   7.659   2.861 -1.3556  0.6201 -0.9485
14565TIP3   OH243635   1.810   1.177   0.606 -0.1489 -0.4041  0.6048
14565TIP3    H143636   1.773   1.207   0.689 -1.1038  0.3163 -0.0588
14565TIP3    H243637   1.734   1.160   0.551  0.4642  1.1277 -0.8094
14566TIP3   OH243638   7.205   5.424   5.087  0.3136  0.2054  0.2691
14566TIP3    H143639   7.240   5.406   5.174  0.0978  1.5922  0.6784
14566TIP3    H243640   7.132   5.364   5.076 -0.5720  0.9987  1.6520
14567TIP3   OH243641   2.318   6.535   4.111 -0.2285  0.0586  0.1797
14567TIP3    H143642   2.319   6.495   4.025 -1.4338 -0.4845  0.4052
14567TIP3    H243643   2.227   6.530   4.140  0.0024  0.9512  1.1514
14568TIP3   OH243644   5.699   4.219   5.000 -0.0366 -0.0864 -0.6750
14568TIP3    H143645   5.666   4.133   5.028  0.3239 -0.1526 -0.4394
14568TIP3    H243646   5.659   4.233   4.914  1.7693 -1.5991 -1.8436
14569TIP3   OH243647   3.705   6.132   3.116  0.2143  0.0628  0.4270
14569TIP3    H143648   3.706   6.143   3.021  1.5915  1.4955  0.5567
14569TIP3    H243649   3.758   6.055   3.133 -1.6210 -1.3695 -0.0243
14570TIP3   OH243650   8.319   3.300   0.525  0.3070 -1.0138 -0.0051
14570TIP3    H143651   8.395   3.259   0.566  3.0618  1.3216 -2.3372
14570TIP3    H243652   8.302   3.378   0.578 -0.8990 -1.7985  0.8154
14571TIP3   OH243653   6.315   4.829   6.399  0.3759  0.0408 -0.2404
14571TIP3    H143654   6.371   4.901   6.428 -0.9231  0.6930  0.8043
14571TIP3    H243655   6.263   4.867   6.329  0.0009 -0.0024  0.0101
14572TIP3   OH243656   7.298   6.718   2.432  0.1058  0.1858  0.3941
14572TIP3    H143657   7.331   6.629   2.441 -1.3843 -0.4851 -0.5593
14572TIP3    H243658   7.360   6.761   2.373 -0.4595 -0.9289 -1.0356
14573TIP3   OH243659   0.123   2.498   5.222 -0.3904 -0.1743  0.3003
14573TIP3    H143660   0.103   2.588   5.195 -2.2688 -0.6001  0.1326
14573TIP3    H243661   0.059   2.478   5.290 -0.5707 -1.6530 -0.2584
14574TIP3   OH243662   3.263   1.196   1.210 -0.0191 -0.2423 -0.1617
14574TIP3    H143663   3.282   1.109   1.175 -3.3471 -1.6501  1.0702
14574TIP3    H243664   3.261   1.253   1.133 -1.6178 -2.1046 -1.6179
14575TIP3   OH243665   0.141   3.530   3.594 -0.1743  0.1745  0.2024
14575TIP3    H143666   0.161   3.603   3.652  1.6295  0.7187 -1.0061
14575TIP3    H243667   0.206   3.463   3.616 -0.3036 -0.1257 -0.3036
14576TIP3   OH243668   1.012   5.627   4.924 -0.2510  0.0099  0.0975
14576TIP3    H143669   1.087   5.596   4.873 -0.8433 -1.0853 -0.1312
14576TIP3    H243670   0.956   5.670   4.859  1.1839  2.8926  0.6095
14577TIP3   OH243671   5.953   6.039   1.737 -0.0565 -0.4853  0.1180
14577TIP3    H143672   5.969   6.100   1.810  0.8370 -0.6966  0.1109
14577TIP3    H243673   5.859   6.044   1.722 -0.3962 -1.1332  1.8940
14578TIP3   OH243674   0.985   4.729   5.243 -0.1501 -0.3062 -0.3899
14578TIP3    H143675   1.017   4.639   5.242  1.3745  0.2045 -0.7223
14578TIP3    H243676   1.023   4.769   5.165 -2.0939  0.2388 -1.1222
14579TIP3   OH243677   2.836   3.247   3.487  0.5665 -0.6873 -0.1723
14579TIP3    H143678   2.759   3.301   3.498 -0.2121 -1.9675  0.9269
14579TIP3    H243679   2.891   3.267   3.562 -0.2583 -2.2161  0.8917
14580TIP3   OH243680   1.994   0.135   2.324  0.4859  0.0778  0.0110
14580TIP3    H143681   1.986   0.168   2.414 -0.2806 -0.5701  0.1965
14580TIP3    H243682   2.034   0.049   2.334 -0.0861 -0.2201 -0.2131
14581TIP3   OH243683   2.739   3.001   1.391 -0.1376  0.1579  0.3894
14581TIP3    H143684   2.826   2.962   1.379  0.2211  0.8502  0.6331
14581TIP3    H243685   2.681   2.927   1.409  0.1777 -0.4290 -0.9232
14582TIP3   OH243686   7.829   5.669   5.923 -0.1363  0.5138 -0.0827
14582TIP3    H143687   7.763   5.734   5.946 -0.8439 -0.7834  1.7471
14582TIP3    H243688   7.806   5.591   5.974  3.2282  0.2431  1.3009
14583TIP3   OH243689   7.487   0.854   0.229 -0.4568 -0.2210  0.4621
14583TIP3    H143690   7.580   0.844   0.250 -0.7273 -1.8643  0.9661
14583TIP3    H243691   7.461   0.934   0.275  1.3695  2.1007 -2.1607
14584TIP3   OH243692   3.661   2.223   1.226 -0.4273 -0.3609  0.1736
14584TIP3    H143693   3.635   2.297   1.281 -0.9051  0.5980 -1.2657
14584TIP3    H243694   3.617   2.240   1.143  1.1316 -1.1764 -0.8565
14585TIP3   OH243695   4.979   2.219   0.236  0.1834  0.3090  0.2528
14585TIP3    H143696   5.001   2.312   0.228 -0.3088  0.3715 -0.4108
14585TIP3    H243697   4.956   2.192   0.147  3.9173 -1.3871 -0.4033
14586TIP3   OH243698   6.784   6.020   6.453 -0.2813  0.0635 -0.4204
14586TIP3    H143699   6.796   5.947   6.513 -1.8115 -0.7453 -1.0225
14586TIP3    H243700   6.766   6.095   6.509 -3.9767 -1.1056  0.2618
14587TIP3   OH243701   1.186   6.393   3.998  0.0621 -0.3426  0.6518
14587TIP3    H143702   1.113   6.334   3.980  0.9305 -1.8804  1.8703
14587TIP3    H243703   1.255   6.363   3.938 -0.1863  0.9266 -0.3065
14588TIP3   OH243704   0.453   2.605   2.780  0.1788  0.4160  0.0216
14588TIP3    H143705   0.472   2.577   2.870 -1.3347 -0.7573  0.0126
14588TIP3    H243706   0.434   2.524   2.733  1.2682  0.9756 -1.4719
14589TIP3   OH243707   3.715   7.072   6.090  0.8827 -0.5490 -0.8306
14589TIP3    H143708   3.765   7.129   6.148  0.6551 -1.7771  0.6373
14589TIP3    H243709   3.779   7.010   6.056  0.6399 -1.1868 -0.1427
14590TIP3   OH243710   4.892   4.562   0.155  0.5304 -0.4328 -0.1079
14590TIP3    H143711   4.929   4.587   0.240  1.2205  1.4139 -0.9034
14590TIP3    H243712   4.967   4.532   0.104  0.2244 -0.8760 -0.3046
14591TIP3   OH243713   0.915   3.493   4.726  0.3169  0.3830  0.0316
14591TIP3    H143714   0.898   3.431   4.656  1.4707 -0.9731  0.8972
14591TIP3    H243715   0.945   3.573   4.681 -1.8699  0.6293 -1.1285
14592TIP3   OH243716   6.402   0.673   1.402  0.4183  0.6162 -0.2800
14592TIP3    H143717   6.425   0.709   1.317  0.7524 -0.6346 -0.7438
14592TIP3    H243718   6.402   0.578   1.389 -0.6382  0.4317  0.8311
14593TIP3   OH243719   0.647   4.198   4.543 -0.1435 -0.4031 -0.0276
14593TIP3    H143720   0.566   4.184   4.494 -0.6122 -0.4373  0.7455
14593TIP3    H243721   0.628   4.273   4.599  0.8032  0.4224 -0.7742
14594TIP3   OH243722   0.413   5.598   4.903  0.3628 -0.0803  0.4465
14594TIP3    H143723   0.345   5.599   4.970  0.8549 -0.7909  0.9673
14594TIP3    H243724   0.444   5.507   4.901  0.8349  0.0841 -0.2527
14595TIP3   OH243725   8.369   5.167   5.655 -0.0815  0.3071 -0.1399
14595TIP3    H143726   8.291   5.168   5.710  0.6075  0.9777  0.8600
14595TIP3    H243727   8.359   5.088   5.601  0.4578 -1.9971  2.8111
14596TIP3   OH243728   2.458   5.938   3.063  0.4223 -0.3054 -0.2141
14596TIP3    H143729   2.448   5.977   3.149 -1.9182 -0.3324 -0.4199
14596TIP3    H243730   2.487   6.010   3.006 -0.8922  0.4340  0.0220
14597TIP3   OH243731   1.144   5.793   5.114  0.2013 -0.2770 -0.1868
14597TIP3    H143732   1.234   5.763   5.118  0.2912  0.1413  2.3613
14597TIP3    H243733   1.099   5.727   5.062  1.3350 -2.3143  1.2638
14598TIP3   OH243734   4.390   5.530   0.297  0.0590  0.0228 -0.2433
14598TIP3    H143735   4.306   5.547   0.253  0.5934  4.7070 -0.0266
14598TIP3    H243736   4.456   5.549   0.230  0.8810  0.6144  0.7010
14599TIP3   OH243737   6.849   3.741   4.051  0.4536 -0.3341 -0.5058
14599TIP3    H143738   6.895   3.818   4.084 -0.9857 -0.3440  1.7649
14599TIP3    H243739   6.895   3.667   4.092  0.3212 -0.5378 -0.7213
14600TIP3   OH243740   6.034   1.579   5.393 -0.2492 -0.3063 -0.0190
14600TIP3    H143741   6.119   1.539   5.374 -1.0237 -1.9448 -0.1954
14600TIP3    H243742   5.972   1.506   5.390 -1.4626  0.6016  1.5924
14601TIP3   OH243743   0.834   0.024   3.471  0.1731 -0.3530  0.0063
14601TIP3    H143744   0.760   0.002   3.527 -0.3415  1.8202  0.2781
14601TIP3    H243745   0.895   0.071   3.529  0.3922  0.4816 -0.8797
14602TIP3   OH243746   0.304   0.003   2.252 -0.4178 -0.0814 -0.4194
14602TIP3    H143747   0.376   0.014   2.313 -1.5151  0.9251  0.7573
14602TIP3    H243748   0.286   0.091   2.220 -1.9626 -0.0756  0.3529
14603TIP3   OH243749   6.765   7.897   1.321  0.2106  0.7522  0.2208
14603TIP3    H143750   6.826   7.824   1.328  0.5323  1.0782  0.8920
14603TIP3    H243751   6.797   7.947   1.245 -0.7616 -0.4641 -1.0495
14604TIP3   OH243752   0.789   1.970   0.988  0.3760 -0.3676  0.5344
14604TIP3    H143753   0.867   1.996   0.939 -0.6005 -0.3470 -1.0576
14604TIP3    H243754   0.749   2.053   1.015  0.1415 -0.3408  0.1093
14605TIP3   OH243755   2.342   7.227   2.862  0.4550  0.1328  0.1720
14605TIP3    H143756   2.314   7.142   2.898 -2.3221  0.2328 -1.4331
14605TIP3    H243757   2.423   7.208   2.815  1.0133 -1.1588  1.5655
14606TIP3   OH243758   0.322   7.539   6.821  0.1233 -0.2371  0.1085
14606TIP3    H143759   0.332   7.634   6.817  0.4753 -0.3101 -1.6445
14606TIP3    H243760   0.230   7.523   6.802  0.0412 -0.2596  0.5054
14607TIP3   OH243761   1.769   6.750   0.382  0.2789  0.1914 -0.1191
14607TIP3    H143762   1.732   6.757   0.294  0.0637 -0.4639 -0.0808
14607TIP3    H243763   1.859   6.720   0.369 -0.1253 -1.0878 -0.0605
14608TIP3   OH243764   2.300   7.101   6.771  0.3030 -0.0470  0.4657
14608TIP3    H143765   2.339   7.174   6.819 -0.6876  0.3495  0.6790
14608TIP3    H243766   2.291   7.134   6.681  0.8690 -0.3005  0.3113
14609TIP3   OH243767   2.040   6.565   2.050 -0.1509 -0.7818  0.1917
14609TIP3    H143768   2.002   6.491   2.004 -0.4580 -0.3266 -0.3077
14609TIP3    H243769   2.017   6.641   1.996  0.7366 -0.3991  0.3292
14610TIP3   OH243770   4.425   1.041   0.169 -0.0969 -0.8730  0.2626
14610TIP3    H143771   4.383   1.127   0.163  0.6341 -0.5692 -4.0833
14610TIP3    H243772   4.363   0.981   0.128  0.6891 -1.8112  0.4073
14611TIP3   OH243773   2.371   0.642   0.966 -0.0560 -0.0055 -0.1564
14611TIP3    H143774   2.342   0.597   1.046 -1.5509 -0.2593 -0.8165
14611TIP3    H243775   2.393   0.730   0.996  0.3789 -0.3883  0.7056
14612TIP3   OH243776   6.577   4.170   0.950 -0.3329 -0.1117 -0.2103
14612TIP3    H143777   6.518   4.194   0.877 -1.8436  0.9733  1.2762
14612TIP3    H243778   6.523   4.116   1.007  0.1350  0.7801  1.1241
14613TIP3   OH243779   6.960   6.187   2.130  0.3297  0.0527  0.4282
14613TIP3    H143780   6.990   6.115   2.073  0.7048  0.9622 -0.5556
14613TIP3    H243781   7.027   6.194   2.198  0.5657 -0.1756  0.2209
14614TIP3   OH243782   2.927   7.737   0.340 -0.2949  0.3110 -0.2353
14614TIP3    H143783   2.856   7.737   0.405  0.5718  1.4197  0.7614
14614TIP3    H243784   3.002   7.774   0.387  0.5140  0.6397 -1.7319
14615TIP3   OH243785   5.265   0.114   1.794 -0.2107 -0.6580 -0.0943
14615TIP3    H143786   5.358   0.134   1.809  0.0675  0.2810 -2.6245
14615TIP3    H243787   5.228   0.195   1.761 -1.1584 -1.8500 -2.1514
14616TIP3   OH243788   6.862   1.496   0.024 -0.0118  0.0066  0.3604
14616TIP3    H143789   6.860   1.591   0.015  0.1151 -0.0795 -0.7181
14616TIP3    H243790   6.779   1.474   0.066 -1.7094  0.3304 -2.5207
14617TIP3   OH243791   4.208   5.731   5.905  0.3453  0.5180  0.4094
14617TIP3    H143792   4.176   5.821   5.901  0.7930  0.6977  0.7600
14617TIP3    H243793   4.293   5.733   5.862 -0.1332  0.0198 -0.6085
14618TIP3   OH243794   3.617   2.096   1.997  0.6301  0.0180 -0.0669
14618TIP3    H143795   3.548   2.073   2.059  0.8493  0.3673  0.3043
14618TIP3    H243796   3.570   2.138   1.924  0.5194  0.9099  0.5038
14619TIP3   OH243797   3.551   6.599   0.259  0.0789  0.4795  0.0903
14619TIP3    H143798   3.504   6.581   0.178 -0.6580 -1.2179  0.8549
14619TIP3    H243799   3.585   6.688   0.248  1.2151 -0.1951 -2.6432
14620TIP3   OH243800   7.201   6.532   0.644 -0.1046  0.1867  0.2471
14620TIP3    H143801   7.129   6.483   0.681  0.1824  0.3593  1.0543
14620TIP3    H243802   7.277   6.474   0.652  0.1562  0.5978  0.8445
14621TIP3   OH243803   5.100   5.828   2.929  0.9097  0.3941 -0.3895
14621TIP3    H143804   5.090   5.736   2.955  0.1242  0.2265 -1.2062
14621TIP3    H243805   5.188   5.852   2.958  1.0102 -0.5226  0.1078
14622TIP3   OH243806   3.856   7.108   4.219  1.0778 -0.2214  0.5598
14622TIP3    H143807   3.817   7.107   4.131  2.4825  1.6221 -0.1552
14622TIP3    H243808   3.791   7.064   4.274 -0.2361 -0.6677 -1.2371
14623TIP3   OH243809   2.607   2.906   2.543  0.2960  0.2840 -0.0422
14623TIP3    H143810   2.681   2.882   2.487 -0.2601  2.0524 -1.6307
14623TIP3    H243811   2.543   2.945   2.483 -1.5087 -0.2334  1.4354
14624TIP3   OH243812   5.280   3.400   2.568 -0.3067 -0.5989  0.2327
14624TIP3    H143813   5.260   3.324   2.513 -0.9644 -0.3400  0.1031
14624TIP3    H243814   5.355   3.441   2.525 -1.1262 -0.1154 -0.7839
14625TIP3   OH243815   4.610   4.078   1.595 -0.1395 -0.1510 -0.3035
14625TIP3    H143816   4.668   4.153   1.611  0.0328 -0.3876  0.1939
14625TIP3    H243817   4.590   4.045   1.682 -0.4287 -0.5253 -0.5120
14626TIP3   OH243818   5.374   6.532   6.384 -0.6421  0.3758  1.0067
14626TIP3    H143819   5.434   6.525   6.310 -0.7365  0.2441  0.9426
14626TIP3    H243820   5.323   6.451   6.381 -1.7635  1.0737  0.2528
14627TIP3   OH243821   4.677   6.007   3.132 -0.0705 -0.2833 -0.2874
14627TIP3    H143822   4.643   6.095   3.116 -2.4389 -1.1594 -0.3803
14627TIP3    H243823   4.734   5.989   3.056  1.8307  1.7260  0.5386
14628TIP3   OH243824   3.311   3.749   5.553 -0.0279 -0.1446 -0.0706
14628TIP3    H143825   3.332   3.661   5.584  0.1116  0.0513  0.4104
14628TIP3    H243826   3.272   3.736   5.466  1.7692 -0.5616 -0.8582
14629TIP3   OH243827   5.913   7.047   4.466 -0.6583  0.3886  0.0477
14629TIP3    H143828   5.877   7.132   4.441  1.0294  0.5338 -2.2974
14629TIP3    H243829   5.955   7.062   4.551  1.0328  2.4179 -1.0384
14630TIP3   OH243830   0.212   5.335   4.890 -0.0438 -0.6365 -0.1181
14630TIP3    H143831   0.306   5.347   4.876 -0.1571  1.0968  0.2554
14630TIP3    H243832   0.184   5.417   4.932 -1.4863 -1.6363  0.9816
14631TIP3   OH243833   7.874   6.233   2.324 -0.0556 -0.0025 -0.0318
14631TIP3    H143834   7.850   6.183   2.402 -1.4734  1.8048  0.7656
14631TIP3    H243835   7.951   6.283   2.349 -0.4431  0.4916  0.1818
14632TIP3   OH243836   3.561   4.979   5.939  0.4625  0.2466  0.8543
14632TIP3    H143837   3.556   4.965   6.033  0.3621  0.2693  0.8525
14632TIP3    H243838   3.649   4.948   5.914 -0.0733 -1.2156  0.7024
14633TIP3   OH243839   0.631   7.434   0.550 -0.3815  0.1350 -0.0531
14633TIP3    H143840   0.689   7.359   0.560 -0.9412 -0.3351 -0.2606
14633TIP3    H243841   0.685   7.501   0.508  0.2997  0.0778  0.7222
14634TIP3   OH243842   0.602   2.905   3.966  0.0487  0.9555  0.0509
14634TIP3    H143843   0.507   2.906   3.951 -0.0833 -0.7304  0.5733
14634TIP3    H243844   0.638   2.863   3.888  0.2013  0.1638  0.5366
14635TIP3   OH243845   3.049   0.833   6.782 -0.1110 -0.1583 -0.0118
14635TIP3    H143846   3.106   0.805   6.853  0.6650 -1.9830 -1.2681
14635TIP3    H243847   2.988   0.761   6.770 -1.1779  0.7552 -0.2604
14636TIP3   OH243848   4.686   4.777   3.859 -0.6263 -0.0659  0.7646
14636TIP3    H143849   4.681   4.871   3.877 -1.3615  0.3639 -1.3892
14636TIP3    H243850   4.619   4.762   3.793  0.0997 -1.9484  0.3998
14637TIP3   OH243851   0.352   3.979   3.208 -0.3108  0.2711 -0.5903
14637TIP3    H143852   0.376   4.064   3.169  1.2560 -0.4067 -1.1878
14637TIP3    H243853   0.424   3.921   3.184 -1.2411 -1.1810  0.0273
14638TIP3   OH243854   3.269   6.311   1.899  0.1787  0.0042  0.7334
14638TIP3    H143855   3.337   6.296   1.965 -1.0951 -0.8946  1.9073
14638TIP3    H243856   3.221   6.228   1.895  1.3088 -0.6152 -2.7230
14639TIP3   OH243857   6.606   0.214   6.189 -0.1215 -0.1039  0.4387
14639TIP3    H143858   6.521   0.206   6.233 -0.5230 -0.7205 -0.4093
14639TIP3    H243859   6.670   0.214   6.260 -0.8826  1.5593  1.1623
14640TIP3   OH243860   5.571   3.216   2.877 -0.2872  0.2629 -1.0188
14640TIP3    H143861   5.507   3.271   2.921  0.1334  0.3718 -0.5319
14640TIP3    H243862   5.527   3.132   2.865 -0.2283  0.0632  0.0958
14641TIP3   OH243863   4.784   2.335   3.702 -0.0702  0.5103  0.1150
14641TIP3    H143864   4.875   2.341   3.729 -0.4708  0.0588  1.6806
14641TIP3    H243865   4.740   2.407   3.746 -0.0324  2.5899 -2.9452
14642TIP3   OH243866   4.877   7.029   6.054  0.3218 -0.0410  0.3186
14642TIP3    H143867   4.839   7.099   6.002 -0.1407  0.0770  0.8076
14642TIP3    H243868   4.946   7.072   6.105 -0.0031  0.0788  0.6645
14643TIP3   OH243869   2.806   6.842   6.240 -0.1694  0.2057 -0.2465
14643TIP3    H143870   2.836   6.765   6.289  0.4090  0.2923 -0.4531
14643TIP3    H243871   2.761   6.896   6.305 -0.4479 -0.2327 -0.0668
14644TIP3   OH243872   3.484   5.545   2.966  0.2843  0.0144  0.4394
14644TIP3    H143873   3.491   5.529   2.872 -1.2426 -0.6605  0.4038
14644TIP3    H243874   3.473   5.639   2.974 -0.9918 -0.0617 -0.1898
14645TIP3   OH243875   0.245   0.200   0.358  0.3416  0.2605  0.2209
14645TIP3    H143876   0.286   0.181   0.273  0.5627  1.6557 -0.0092
14645TIP3    H243877   0.256   0.119   0.408  1.5455 -0.0880 -0.5572
14646TIP3   OH243878   2.813   6.241   1.361 -0.5149  0.3553  0.1137
14646TIP3    H143879   2.879   6.250   1.293 -1.4123 -2.0126 -1.2147
14646TIP3    H243880   2.824   6.318   1.416  1.7508  1.2224 -1.4025
14647TIP3   OH243881   6.860   2.174   3.030  0.4049 -0.5823  0.4808
14647TIP3    H143882   6.867   2.128   3.113  2.0767  1.0922  1.3199
14647TIP3    H243883   6.948   2.168   2.991 -0.2518 -1.0394 -1.0361
14648TIP3   OH243884   2.127   0.226   0.129 -0.4484 -0.1335 -0.1202
14648TIP3    H143885   2.197   0.232   0.194 -1.2188 -0.3602  0.7528
14648TIP3    H243886   2.054   0.276   0.166 -2.2490 -3.3290  1.0256
14649TIP3   OH243887   1.824   0.910   0.420  0.0341 -0.2539  0.6083
14649TIP3    H143888   1.870   0.993   0.403  1.3081 -0.1300  4.0011
14649TIP3    H243889   1.891   0.843   0.407 -0.5358 -0.6460 -0.4170
14650TIP3   OH243890   5.074   2.479   5.534 -0.0514 -0.1494  0.1841
14650TIP3    H143891   5.024   2.493   5.614  1.2097  0.3094  0.9319
14650TIP3    H243892   5.088   2.384   5.531  0.4216 -0.1088  0.8605
14651TIP3   OH243893   4.114   1.669   0.146  0.2248 -0.0699  0.4496
14651TIP3    H143894   4.045   1.623   0.194 -0.6665  0.0640 -0.6566
14651TIP3    H243895   4.164   1.600   0.103  1.2715 -0.2184  1.8313
14652TIP3   OH243896   6.450   7.600   5.364 -0.7194 -0.0285 -0.4302
14652TIP3    H143897   6.393   7.532   5.327 -1.5385  0.7817 -0.6774
14652TIP3    H243898   6.434   7.677   5.311 -1.5522  1.0229  1.2558
14653TIP3   OH243899   8.333   6.535   1.683  0.4006 -0.0833  0.3162
14653TIP3    H143900   8.401   6.469   1.701  0.4189 -0.6729 -1.6467
14653TIP3    H243901   8.274   6.530   1.758  0.3205 -2.4879  0.1776
14654TIP3   OH243902   8.053   5.739   6.042 -0.6725  0.3787 -0.1818
14654TIP3    H143903   8.116   5.720   5.972  0.6094  2.2470  0.3997
14654TIP3    H243904   7.972   5.698   6.012  0.4184 -0.8597 -1.6458
14655TIP3   OH243905   6.867   5.227   5.644  0.1707 -0.0391  0.4141
14655TIP3    H143906   6.935   5.252   5.581 -0.4571  0.8254  0.0597
14655TIP3    H243907   6.818   5.308   5.660  0.6703 -0.0898  2.4697
14656TIP3   OH243908   3.782   0.746   5.943  0.8438  0.4780  0.1748
14656TIP3    H143909   3.769   0.652   5.954 -1.1642  0.8364  1.4491
14656TIP3    H243910   3.839   0.772   6.016  1.1633  0.3106 -0.0128
14657TIP3   OH243911   8.009   1.364   3.206 -0.0299  0.6672  0.1477
14657TIP3    H143912   8.028   1.299   3.138  3.2462 -0.5191  1.9616
14657TIP3    H243913   7.957   1.316   3.270  0.9903  0.2790  0.7065
14658TIP3   OH243914   5.752   2.311   2.286  0.7225  0.0061 -0.4366
14658TIP3    H143915   5.774   2.219   2.298  0.0217 -0.0790  0.2485
14658TIP3    H243916   5.701   2.313   2.205 -2.3293 -0.7687  1.3254
14659TIP3   OH243917   1.209   2.982   4.114 -0.8720  0.0918 -0.2661
14659TIP3    H143918   1.186   3.075   4.113  3.2988  1.3227 -1.6764
14659TIP3    H243919   1.216   2.958   4.022  0.1292 -1.0369  0.0912
14660TIP3   OH243920   6.647   1.888   4.950 -0.2614  0.4352  0.7207
14660TIP3    H143921   6.555   1.904   4.933  0.1578  0.4060 -2.1773
14660TIP3    H243922   6.655   1.792   4.952  0.2390  0.1009 -4.1997
14661TIP3   OH243923   3.218   5.380   3.671  0.2399  0.0251  0.4535
14661TIP3    H143924   3.211   5.289   3.699 -0.3458  0.3985  1.5362
14661TIP3    H243925   3.171   5.430   3.737 -0.8740  0.9764 -0.9763
14662TIP3   OH243926   8.286   4.805   2.544 -0.2269 -0.6714  0.3130
14662TIP3    H143927   8.328   4.720   2.557  1.1059 -0.1086 -0.0695
14662TIP3    H243928   8.210   4.786   2.489 -1.3604 -1.9276  2.2328
14663TIP3   OH243929   3.272   0.800   0.546  0.0610  0.0018 -0.0243
14663TIP3    H143930   3.363   0.773   0.551 -0.3761 -1.6709 -0.4309
14663TIP3    H243931   3.245   0.776   0.457 -1.2683 -1.3069  0.6826
14664TIP3   OH243932   5.372   5.081   1.101 -0.0026  0.3498  0.1921
14664TIP3    H143933   5.338   4.991   1.102 -1.8301  0.9897  1.2731
14664TIP3    H243934   5.301   5.133   1.139  1.2808  2.1651  0.2024
14665TIP3   OH243935   3.213   1.621   0.727 -0.4977  0.0999  0.1435
14665TIP3    H143936   3.283   1.679   0.697 -0.5755 -0.0457 -0.3274
14665TIP3    H243937   3.238   1.598   0.816  1.1022 -1.5366 -0.6694
14666TIP3   OH243938   0.930   6.446   1.481  0.4012  0.0001  0.5796
14666TIP3    H143939   0.859   6.486   1.532 -0.5491  2.6422 -2.4772
14666TIP3    H243940   0.887   6.374   1.435  0.8671 -1.2842  2.0508
14667TIP3   OH243941   6.106   4.013   1.968  0.2099 -0.3022 -0.7017
14667TIP3    H143942   6.061   3.929   1.976  0.4707 -0.3529  0.3665
14667TIP3    H243943   6.196   3.996   1.995 -0.1485  0.6609  1.2426
14668TIP3   OH243944   3.394   6.653   2.138 -0.3173  0.3643  0.0653
14668TIP3    H143945   3.418   6.567   2.173 -0.3188  0.5559  0.5457
14668TIP3    H243946   3.342   6.693   2.208 -0.9994  0.4377 -0.4793
14669TIP3   OH243947   5.267   1.502   0.999  0.5784  0.1343  0.6990
14669TIP3    H143948   5.318   1.505   0.919  0.0777  1.4673  0.3986
14669TIP3    H243949   5.195   1.563   0.984 -0.1016 -0.3620  1.7784
14670TIP3   OH243950   6.102   5.530   5.342  0.1068  0.5381  0.3427
14670TIP3    H143951   6.019   5.576   5.349 -0.4665  0.5975 -3.8296
14670TIP3    H243952   6.154   5.584   5.281  2.3144 -0.6428  1.0667
14671TIP3   OH243953   2.876   4.704   3.287 -0.0422 -0.2836  0.1304
14671TIP3    H143954   2.845   4.619   3.255  2.0992 -0.7547 -0.8416
14671TIP3    H243955   2.869   4.696   3.383 -1.6119 -0.8162  0.0081
14672TIP3   OH243956   8.253   4.924   6.205  0.3087  0.2064  0.0019
14672TIP3    H143957   8.183   4.884   6.257  1.7855 -0.1944  1.7740
14672TIP3    H243958   8.219   4.924   6.115 -0.6172 -3.0628  0.2336
14673TIP3   OH243959   2.766   1.304   3.517  0.1846  0.1940  0.2411
14673TIP3    H143960   2.744   1.230   3.575  0.0438 -1.4749 -1.8136
14673TIP3    H243961   2.860   1.316   3.529  0.3214 -0.7149  0.1782
14674TIP3   OH243962   8.282   5.379   3.472  0.3727 -0.3475  0.0736
14674TIP3    H143963   8.231   5.456   3.444  0.4575 -0.0549  0.7006
14674TIP3    H243964   8.217   5.310   3.485  0.2616 -0.2968 -0.2100
14675TIP3   OH243965   1.082   7.747   6.661 -0.2663  0.1617 -0.2479
14675TIP3    H143966   1.122   7.728   6.576 -0.3577  0.6563 -0.4070
14675TIP3    H243967   1.093   7.842   6.672 -1.5140  0.3414 -0.3561
14676TIP3   OH243968   1.901   4.883   1.562  0.1393 -0.0291  0.4243
14676TIP3    H143969   1.873   4.965   1.521 -2.1753 -1.0934 -0.3120
14676TIP3    H243970   1.851   4.879   1.643 -0.9513 -1.3848 -0.2771
14677TIP3   OH243971   1.284   5.803   6.036  0.2452 -0.1729 -0.0305
14677TIP3    H143972   1.246   5.719   6.013 -1.2891  0.4574  0.1318
14677TIP3    H243973   1.268   5.811   6.130  0.4170  0.2907 -0.0393
14678TIP3   OH243974   3.538   6.962   3.501 -0.3780 -1.0658  0.5514
14678TIP3    H143975   3.573   7.040   3.458 -0.2326 -0.7186  1.2861
14678TIP3    H243976   3.553   6.891   3.439 -2.7193 -0.1379 -1.2358
14679TIP3   OH243977   3.026   1.183   0.478 -0.2234 -0.4567  0.0863
14679TIP3    H143978   3.058   1.118   0.540 -0.4437 -0.0098  0.6813
14679TIP3    H243979   2.932   1.188   0.495 -0.1864  0.1125  0.1426
14680TIP3   OH243980   0.519   7.232   5.883 -0.1143  0.0615 -0.6842
14680TIP3    H143981   0.586   7.231   5.950 -1.7013  1.0536  1.0096
14680TIP3    H243982   0.480   7.145   5.886 -0.0281  0.0307 -0.4749
14681TIP3   OH243983   3.631   7.642   5.046 -0.7303 -0.3775  0.4403
14681TIP3    H143984   3.653   7.734   5.060 -1.3482 -0.1737  0.0952
14681TIP3    H243985   3.695   7.612   4.982 -0.2872 -0.2974  0.8363
14682TIP3   OH243986   7.589   2.493   3.040 -0.9926 -0.3124  0.1230
14682TIP3    H143987   7.547   2.409   3.062 -0.9838 -0.1351  0.8450
14682TIP3    H243988   7.658   2.503   3.106 -0.4350 -0.1448 -0.4824
14683TIP3   OH243989   3.065   5.174   4.997  0.1989 -0.4453  0.1361
14683TIP3    H143990   3.148   5.179   4.950 -0.0776 -0.5844 -0.3736
14683TIP3    H243991   3.056   5.259   5.040  0.5890 -0.4205  0.1713
14684TIP3   OH243992   2.772   3.295   0.393  0.3636 -0.1521 -0.0889
14684TIP3    H143993   2.853   3.338   0.367  0.0912 -0.2799 -1.2478
14684TIP3    H243994   2.724   3.283   0.310  0.0078 -1.7765  0.3101
14685TIP3   OH243995   7.083   0.211   2.293 -0.0448  0.1038 -1.2036
14685TIP3    H143996   7.067   0.122   2.325 -1.7259  0.6452 -0.4380
14685TIP3    H243997   7.057   0.208   2.201 -0.0653 -0.1994 -1.1902
14686TIP3   OH243998   2.847   2.898   2.388 -0.7078  0.0159 -0.2430
14686TIP3    H143999   2.858   2.803   2.381  1.2428  0.0865  1.0201
14686TIP3    H244000   2.866   2.931   2.301  2.8077 -0.5249  0.1572
14687TIP3   OH244001   6.466   0.811   5.927 -0.3237  0.2082  0.1435
14687TIP3    H144002   6.526   0.803   5.853  0.0127 -1.3018  0.5304
14687TIP3    H244003   6.381   0.785   5.892 -0.5005  1.0915 -0.0953
14688TIP3   OH244004   5.402   2.586   6.750  0.2656  0.3621 -0.2805
14688TIP3    H144005   5.484   2.541   6.769  0.0559 -0.5381 -1.4036
14688TIP3    H244006   5.408   2.607   6.656 -1.0864 -0.3476 -0.5366
14689TIP3   OH244007   7.008   2.065   0.319 -0.4435  0.2003 -0.2209
14689TIP3    H144008   7.065   2.086   0.244 -0.1686 -3.1325 -1.1173
14689TIP3    H244009   6.925   2.038   0.279 -0.6341 -0.6484  0.7010
14690TIP3   OH244010   0.529   5.568   6.243 -0.2195  0.0981  0.7292
14690TIP3    H144011   0.569   5.553   6.158  0.5614 -2.5026  1.4583
14690TIP3    H244012   0.596   5.614   6.294 -0.2226  0.5614  0.3155
14691TIP3   OH244013   3.339   0.665   0.835 -0.3266 -0.0710  0.3131
14691TIP3    H144014   3.302   0.687   0.749  0.7707 -1.1148 -0.4681
14691TIP3    H244015   3.282   0.709   0.898 -0.8323  1.1894 -0.9639
14692TIP3   OH244016   2.348   3.341   0.474  0.1684 -0.0696 -0.1910
14692TIP3    H144017   2.391   3.401   0.414 -4.5690  0.7643 -3.2267
14692TIP3    H244018   2.397   3.259   0.465  1.6710  0.9840 -2.5157
14693TIP3   OH244019   3.587   7.408   4.896  0.0958 -0.2862 -0.2033
14693TIP3    H144020   3.504   7.360   4.893 -0.3529  0.3624  1.1635
14693TIP3    H244021   3.627   7.383   4.979  1.0199 -0.1599 -0.5939
14694TIP3   OH244022   7.017   1.638   2.340  0.1579  0.0773 -0.1566
14694TIP3    H144023   7.013   1.710   2.276  0.1415 -0.4359 -0.7438
14694TIP3    H244024   6.937   1.647   2.391  0.1375  0.4544 -0.2519
14695TIP3   OH244025   1.528   3.625   2.232 -0.7135  0.2219 -0.0593
14695TIP3    H144026   1.481   3.706   2.252 -0.4832  0.3535 -0.0550
14695TIP3    H244027   1.505   3.566   2.304 -0.1579  0.5842  0.4233
14696TIP3   OH244028   5.261   1.575   6.443 -0.1085 -0.4596 -0.1778
14696TIP3    H144029   5.306   1.599   6.362  0.2780  0.3903  0.2778
14696TIP3    H244030   5.171   1.557   6.416 -0.1272  0.4152 -0.7049
14697TIP3   OH244031   6.571   3.386   0.890  0.2251 -0.3584  0.1029
14697TIP3    H144032   6.486   3.423   0.867  0.0642 -0.4222  0.5885
14697TIP3    H244033   6.627   3.462   0.908  0.1496 -0.3295  0.2127
14698TIP3   OH244034   6.872   2.130   2.587 -0.4233 -0.4498  0.3936
14698TIP3    H144035   6.783   2.133   2.622 -0.4358 -1.2619  0.4607
14698TIP3    H244036   6.861   2.105   2.495 -0.2081 -2.0519  0.7705
14699TIP3   OH244037   3.636   3.899   6.239  0.3260 -0.2495 -0.2181
14699TIP3    H144038   3.622   3.804   6.244  0.3597 -0.3632 -1.9805
14699TIP3    H244039   3.730   3.908   6.226  0.4358  0.0862  0.7032
14700TIP3   OH244040   1.458   5.068   4.761  0.1298  0.1918 -0.0561
14700TIP3    H144041   1.389   5.126   4.727  0.4961  0.6258 -0.0758
14700TIP3    H244042   1.432   4.980   4.734 -0.3756  0.3610 -0.1314
14701TIP3   OH244043   4.820   6.103   5.919 -0.3172 -0.6185  0.6414
14701TIP3    H144044   4.880   6.028   5.915 -0.7709 -0.9430 -0.3897
14701TIP3    H244045   4.828   6.135   6.009  1.3525 -0.6816  0.5391
14702TIP3   OH244046   7.378   4.745   1.707  0.3239  0.1786  0.5911
14702TIP3    H144047   7.294   4.788   1.721  0.4483  0.8574 -0.5689
14702TIP3    H244048   7.365   4.655   1.737 -1.4718 -0.3114 -1.4158
14703TIP3   OH244049   5.052   1.571   1.615 -0.1464 -0.8972 -0.1075
14703TIP3    H144050   4.961   1.598   1.618 -0.0516 -0.3726 -1.3744
14703TIP3    H244051   5.100   1.646   1.651 -0.1835 -1.0598  0.2896
14704TIP3   OH244052   2.189   3.359   4.299  0.6135 -0.4976 -0.4530
14704TIP3    H144053   2.222   3.298   4.365 -1.8511 -0.8804  0.5477
14704TIP3    H244054   2.202   3.314   4.216  1.1688 -1.2534  0.0261
14705TIP3   OH244055   7.086   3.919   4.550  0.6016 -0.3465  0.1886
14705TIP3    H144056   7.104   3.960   4.634 -1.3133 -0.4269  0.6781
14705TIP3    H244057   7.152   3.956   4.491  0.3996  1.6800  1.1371
14706TIP3   OH244058   7.665   5.472   6.812 -0.3752  0.2922  0.4953
14706TIP3    H144059   7.645   5.450   6.903  1.0756 -0.4995  0.6578
14706TIP3    H244060   7.745   5.423   6.793 -0.5687  0.5770 -1.1619
14707TIP3   OH244061   3.954   1.351   6.498  0.0496 -0.3519  0.1359
14707TIP3    H144062   3.908   1.395   6.427 -0.4443  0.0054  0.6623
14707TIP3    H244063   3.894   1.283   6.527  0.0279 -0.1572  0.5525
14708TIP3   OH244064   6.150   1.691   4.854 -0.2669 -0.4155 -0.1361
14708TIP3    H144065   6.193   1.689   4.939 -1.2394  1.5349  0.4591
14708TIP3    H244066   6.090   1.616   4.855 -1.1565  0.2829  1.4178
14709TIP3   OH244067   4.408   5.578   2.285  0.4681  0.3858  0.7078
14709TIP3    H144068   4.357   5.565   2.206  2.8975 -0.1992 -0.8749
14709TIP3    H244069   4.429   5.672   2.285  0.8136  0.3119  0.4026
14710TIP3   OH244070   6.663   3.700   5.959  0.2051  0.0082 -0.2127
14710TIP3    H144071   6.587   3.647   5.980  0.4380 -0.2386  0.0020
14710TIP3    H244072   6.724   3.640   5.917  0.8658 -0.1226  0.8995
14711TIP3   OH244073   7.570   6.110   3.623  0.2921 -0.0625 -0.1815
14711TIP3    H144074   7.597   6.018   3.625 -0.6118 -0.3287  0.1663
14711TIP3    H244075   7.486   6.110   3.578  0.8876  0.7741 -1.3436
14712TIP3   OH244076   0.957   7.004   0.706  0.4925  0.6310  0.3820
14712TIP3    H144077   0.873   6.959   0.703 -0.3105  2.0462  0.5414
14712TIP3    H244078   1.020   6.940   0.672 -0.7023 -0.3118 -0.1392
14713TIP3   OH244079   3.957   4.196   0.900  0.6175  0.1847  0.3180
14713TIP3    H144080   3.927   4.247   0.975  0.2772  0.2461  0.1388
14713TIP3    H244081   4.026   4.140   0.936 -0.7784 -1.0980  1.0794
14714TIP3   OH244082   7.396   0.733   3.811 -0.4780  0.1738  0.5567
14714TIP3    H144083   7.340   0.655   3.813  0.4123 -0.5121  3.4128
14714TIP3    H244084   7.471   0.707   3.758 -0.9205 -0.3745  0.1902
14715TIP3   OH244085   0.270   0.514   1.196  0.6460  0.4787  0.0348
14715TIP3    H144086   0.341   0.507   1.260  0.5694 -3.0691 -0.1067
14715TIP3    H244087   0.310   0.554   1.119  2.0858 -0.0940  0.4683
14716TIP3   OH244088   6.070   5.775   1.882 -0.3012 -0.2918  0.4994
14716TIP3    H144089   6.028   5.699   1.922 -1.3926  0.2460  0.4119
14716TIP3    H244090   6.012   5.849   1.902  0.1648  0.3293 -0.3402
14717TIP3   OH244091   7.330   1.628   0.473  0.8408  0.5561 -0.0203
14717TIP3    H144092   7.337   1.723   0.461  1.2836  0.3170 -2.1775
14717TIP3    H244093   7.236   1.612   0.481  0.6975  1.1142 -0.4761
14718TIP3   OH244094   1.659   2.748   0.167 -0.3985 -0.4374 -0.4020
14718TIP3    H144095   1.708   2.667   0.180  0.0218 -0.2992 -1.0822
14718TIP3    H244096   1.659   2.790   0.253 -0.9879 -1.3544  0.0630
14719TIP3   OH244097   3.050   2.268   6.044 -0.5133 -0.6026  0.2570
14719TIP3    H144098   3.072   2.178   6.020  1.6103  0.0949 -0.5989
14719TIP3    H244099   2.994   2.299   5.972 -2.3152 -1.5775  1.1725
14720TIP3   OH244100   2.951   0.395   6.327  0.3142 -0.3306 -0.1496
14720TIP3    H144101   2.952   0.481   6.285  2.9757 -1.2819 -2.4013
14720TIP3    H244102   3.032   0.393   6.379 -0.8066 -0.7521  1.6676
14721TIP3   OH244103   2.192   3.382   1.100  0.0272 -0.0054 -0.0784
14721TIP3    H144104   2.207   3.418   1.012 -0.3270 -0.6228 -0.4046
14721TIP3    H244105   2.097   3.387   1.111  0.0591 -0.0608  0.2163
14722TIP3   OH244106   6.430   6.476   0.557 -0.1693 -0.1935 -0.2439
14722TIP3    H144107   6.432   6.571   0.542  0.6502 -0.2139 -0.2997
14722TIP3    H244108   6.511   6.458   0.605  1.0175 -1.2368 -2.4749
14723TIP3   OH244109   8.119   3.759   5.862  0.1508 -0.1081  0.0258
14723TIP3    H144110   8.180   3.807   5.807 -0.4108 -0.1398 -0.6371
14723TIP3    H244111   8.175   3.712   5.924  0.7029  1.4953  0.7954
14724TIP3   OH244112   0.923   5.603   0.439  0.0042 -0.6209 -0.1910
14724TIP3    H144113   0.876   5.614   0.357  0.2951  1.1917 -0.1592
14724TIP3    H244114   0.881   5.528   0.481 -1.2609 -0.5333 -1.2299
14725TIP3   OH244115   5.035   4.543   3.743 -0.5277 -0.2391 -0.3024
14725TIP3    H144116   5.003   4.547   3.833  1.3785 -0.9513  0.4554
14725TIP3    H244117   4.970   4.592   3.692 -1.1842  0.9505  1.5834
14726TIP3   OH244118   0.192   2.806   6.171 -0.4919  0.0038  0.3468
14726TIP3    H144119   0.151   2.720   6.164 -0.2017 -0.1587  0.6193
14726TIP3    H244120   0.196   2.839   6.081  1.3769 -1.1996 -0.0688
14727TIP3   OH244121   7.681   3.580   4.223 -0.0998 -0.0020 -0.4567
14727TIP3    H144122   7.684   3.509   4.286 -0.0864 -0.2158 -0.6981
14727TIP3    H244123   7.695   3.659   4.276 -2.0524  0.0251  0.1038
14728TIP3   OH244124   2.915   1.981   0.391 -0.4481  0.1284 -0.0535
14728TIP3    H144125   3.007   1.996   0.412 -0.0899 -2.7221  0.8276
14728TIP3    H244126   2.913   1.968   0.296  0.5806 -2.3147  0.1787
14729TIP3   OH244127   5.166   5.329   2.937  0.2507 -0.2584 -0.2857
14729TIP3    H144128   5.197   5.239   2.942 -0.0771 -0.4766 -1.5752
14729TIP3    H244129   5.102   5.328   2.865  0.2031  0.9898 -0.2883
14730TIP3   OH244130   3.291   1.804   2.883  0.1949 -0.2778 -0.4061
14730TIP3    H144131   3.289   1.771   2.973  1.8704 -1.2321 -0.6759
14730TIP3    H244132   3.242   1.739   2.833  1.1156 -0.9098 -0.5041
14731TIP3   OH244133   1.832   3.552   3.348  0.3955  0.1074  0.6343
14731TIP3    H144134   1.772   3.494   3.395  1.9881 -0.0819  2.5496
14731TIP3    H244135   1.849   3.507   3.265 -1.8972  0.0743  0.1208
14732TIP3   OH244136   4.890   3.749   1.313 -0.1320 -0.4903  0.0779
14732TIP3    H144137   4.971   3.704   1.338 -0.5886 -0.8014  1.0438
14732TIP3    H244138   4.832   3.739   1.389 -0.3898  1.4129  0.1873
14733TIP3   OH244139   0.832   2.592   0.146  0.1212  0.4593  0.1753
14733TIP3    H144140   0.787   2.653   0.088  0.2056  0.3462 -0.0135
14733TIP3    H244141   0.865   2.645   0.218 -1.8396  0.2939  1.2577
14734TIP3   OH244142   5.827   4.959   5.006 -0.0141 -0.2300  0.1295
14734TIP3    H144143   5.903   4.913   5.042 -0.7444 -0.3824  1.5620
14734TIP3    H244144   5.824   5.041   5.055  0.3507  0.6706 -1.3029
14735TIP3   OH244145   5.221   0.661   5.189 -0.1486  0.0071  0.0085
14735TIP3    H144146   5.199   0.747   5.224  0.4002  0.5089 -0.8197
14735TIP3    H244147   5.294   0.630   5.243 -0.0765  0.2490  0.0486
14736TIP3   OH244148   0.060   2.806   1.232 -0.4087 -0.1510  0.2441
14736TIP3    H144149   0.119   2.861   1.181  0.6478 -0.5886  0.9641
14736TIP3    H244150   0.006   2.762   1.166 -0.6506  1.0282 -0.3789
14737TIP3   OH244151   1.985   2.852   6.769  0.0853 -0.1953  0.6059
14737TIP3    H144152   2.048   2.800   6.720  0.8067  0.5391  0.7365
14737TIP3    H244153   1.902   2.837   6.724  0.8703  1.1833 -1.4779
14738TIP3   OH244154   8.347   2.124   5.765  0.2552 -0.3195  0.2431
14738TIP3    H144155   8.277   2.062   5.787  0.6978 -1.4239 -1.2871
14738TIP3    H244156   8.428   2.074   5.775  0.7000  0.3619  0.1048
14739TIP3   OH244157   2.717   0.280   6.337  0.4398  0.3411  0.1044
14739TIP3    H144158   2.721   0.257   6.430  0.4652 -1.9615 -0.4163
14739TIP3    H244159   2.799   0.327   6.321  1.0316 -0.3674  0.9663
14740TIP3   OH244160   2.591   6.139   0.220 -0.1185 -0.7689  0.3597
14740TIP3    H144161   2.597   6.230   0.191  0.5651  0.0693  2.9301
14740TIP3    H244162   2.682   6.108   0.220 -0.1853 -0.9620  0.9697
14741TIP3   OH244163   4.614   2.326   0.671  0.3987 -0.1826  0.0960
14741TIP3    H144164   4.647   2.273   0.744  0.8315  1.5223  1.2178
14741TIP3    H244165   4.693   2.353   0.624  0.2855  0.4370  0.2571
14742TIP3   OH244166   3.054   5.498   6.053  0.3594 -0.4743 -0.5656
14742TIP3    H144167   3.033   5.518   6.144  0.8891 -0.5548 -0.4215
14742TIP3    H244168   3.079   5.406   6.053 -0.0412 -0.5850 -0.8655
14743TIP3   OH244169   6.960   5.299   5.129  0.5435  0.4116  0.2509
14743TIP3    H144170   6.955   5.256   5.044 -0.4889  0.5054  0.2487
14743TIP3    H244171   6.899   5.373   5.122 -0.2023 -0.0765  1.3360
14744TIP3   OH244172   4.628   7.688   1.834 -0.2074  0.1089 -0.2973
14744TIP3    H144173   4.555   7.628   1.813  0.8614 -0.7785 -1.6947
14744TIP3    H244174   4.626   7.752   1.763  0.1019  0.3435 -0.0932
14745TIP3   OH244175   7.545   3.814   1.600  0.2566  0.1697 -0.0619
14745TIP3    H144176   7.476   3.781   1.542 -0.8433  0.4373  1.0380
14745TIP3    H244177   7.622   3.763   1.576 -0.5741 -0.8790 -0.6519
14746TIP3   OH244178   5.904   6.823   5.538 -0.2575 -0.0366  0.5045
14746TIP3    H144179   5.822   6.774   5.536  0.1765 -0.9123  2.0394
14746TIP3    H244180   5.925   6.839   5.446 -2.1591  0.2723  0.0706
14747TIP3   OH244181   5.591   2.924   3.230 -0.1303  0.3617 -0.2356
14747TIP3    H144182   5.609   2.831   3.235  0.9901  0.5000 -1.2302
14747TIP3    H244183   5.527   2.940   3.300  0.7219 -0.8819  0.8799
14748TIP3   OH244184   2.798   2.641   3.067  0.6146  0.6123 -0.1939
14748TIP3    H144185   2.889   2.669   3.063  1.0816 -0.8622 -0.6566
14748TIP3    H244186   2.796   2.577   3.138 -0.2865  1.3483  0.4673
14749TIP3   OH244187   3.730   7.406   6.054  0.3176  0.9879 -0.5656
14749TIP3    H144188   3.741   7.483   5.997  1.3049  1.5059  0.2766
14749TIP3    H244189   3.695   7.442   6.136  3.7460  1.1339  1.0183
14750TIP3   OH244190   4.090   7.690   5.326  0.0120 -0.3234 -0.7617
14750TIP3    H144191   4.134   7.640   5.257  0.6973 -1.5220  0.5101
14750TIP3    H244192   4.154   7.756   5.352 -0.7506  1.0413 -2.1707
14751TIP3   OH244193   5.028   4.327   6.241  0.5036  0.4223  0.3145
14751TIP3    H144194   5.053   4.411   6.203  0.7269 -0.3183 -1.2517
14751TIP3    H244195   5.018   4.344   6.335  0.5955  2.1691  0.0225
14752TIP3   OH244196   6.628   1.990   1.135 -0.3696 -0.0543  0.4946
14752TIP3    H144197   6.696   2.007   1.071 -0.2170 -0.7780  0.4580
14752TIP3    H244198   6.674   1.986   1.219  0.0550 -2.8040  0.2540
14753TIP3   OH244199   7.878   7.033   5.295 -0.0839 -0.6503 -0.0808
14753TIP3    H144200   7.790   7.043   5.258 -0.0695 -0.2582 -0.0096
14753TIP3    H244201   7.866   7.047   5.389  0.5337  2.6833 -0.3715
14754TIP3   OH244202   2.371   3.766   0.046 -0.3965 -0.0498  0.5416
14754TIP3    H144203   2.345   3.783  -0.045  1.3933  0.3400  0.0601
14754TIP3    H244204   2.460   3.802   0.052 -0.2453 -0.6482  2.2768
14755TIP3   OH244205   0.392   5.413   5.629 -0.6686  0.1426 -0.1472
14755TIP3    H144206   0.335   5.344   5.596 -1.6960  0.6004  0.6115
14755TIP3    H244207   0.421   5.382   5.714 -1.0661  0.5920  0.1607
14756TIP3   OH244208   7.154   0.677   3.549  0.0844 -0.4474  0.2419
14756TIP3    H144209   7.177   0.764   3.583  0.0763  0.2484 -1.4491
14756TIP3    H244210   7.230   0.651   3.496 -0.2738 -1.0896  0.0277
14757TIP3   OH244211   6.819   1.593   2.052  0.0872  0.0240 -0.1670
14757TIP3    H144212   6.906   1.600   2.090  0.2241 -0.2548 -0.4169
14757TIP3    H244213   6.824   1.514   1.997  0.1751  0.9220 -1.4921
14758TIP3   OH244214   6.615   3.402   1.809  0.1446 -0.3542 -0.5452
14758TIP3    H144215   6.657   3.486   1.795  1.6953 -0.8598  0.7155
14758TIP3    H244216   6.558   3.390   1.734  0.9194  1.2066 -1.4214
14759TIP3   OH244217   7.379   5.863   0.102 -0.7857 -0.1416 -0.0422
14759TIP3    H144218   7.334   5.947   0.093  0.3378  0.4918  0.0632
14759TIP3    H244219   7.435   5.857   0.025  0.4660  0.0420  0.8305
14760TIP3   OH244220   3.170   4.984   3.481 -0.2280 -0.4717 -0.3888
14760TIP3    H144221   3.225   5.053   3.518 -0.5106  0.2676 -1.3024
14760TIP3    H244222   3.143   4.932   3.556 -1.2471  1.3039  0.5525
14761TIP3   OH244223   0.036   4.588   6.204 -0.1057 -0.2337 -0.5647
14761TIP3    H144224   0.096   4.517   6.229 -1.3091 -1.4847 -1.0807
14761TIP3    H244225   0.008   4.625   6.288 -0.7701 -1.5115 -0.1990
14762TIP3   OH244226   6.400   7.017   5.947  0.3265  0.2187  0.4542
14762TIP3    H144227   6.312   6.981   5.959 -0.0960  1.3940  0.9412
14762TIP3    H244228   6.458   6.948   5.980 -0.4812  0.1040  1.6801
14763TIP3   OH244229   1.774   4.541   0.804  0.0483 -0.5769  0.0385
14763TIP3    H144230   1.793   4.601   0.732  1.4778 -1.7720 -0.6363
14763TIP3    H244231   1.736   4.596   0.872 -0.7523  0.6982 -1.3809
14764TIP3   OH244232   0.602   1.106   5.971 -0.3935 -0.1544 -0.0387
14764TIP3    H144233   0.579   1.198   5.984 -2.5839 -0.6159 -0.2288
14764TIP3    H244234   0.612   1.071   6.059  0.9414  0.3518  0.0292
14765TIP3   OH244235   6.901   2.798   5.516  0.0662 -0.5439  0.1933
14765TIP3    H144236   6.823   2.749   5.539  0.8774 -1.2249  1.6081
14765TIP3    H244237   6.948   2.742   5.454 -0.2780 -0.3868 -0.2126
14766TIP3   OH244238   7.537   1.991   6.435  0.0414  0.1894  0.6679
14766TIP3    H144239   7.618   1.949   6.464 -0.3024 -0.7774  0.2908
14766TIP3    H244240   7.476   1.977   6.508 -0.2914 -0.6510  0.2462
14767TIP3   OH244241   1.274   0.808   0.315  0.6750  0.1561 -0.3489
14767TIP3    H144242   1.299   0.861   0.391 -0.3690  1.0272 -0.5870
14767TIP3    H244243   1.189   0.770   0.340  1.1277 -0.9421 -0.4209
14768TIP3   OH244244   7.869   0.726   4.672 -0.0957 -0.0451 -0.2697
14768TIP3    H144245   7.852   0.632   4.684  0.1069 -0.0983 -0.3887
14768TIP3    H244246   7.784   0.762   4.644  0.1706 -0.4676 -1.7492
14769TIP3   OH244247   4.397   7.491   4.740 -0.3288  0.0758 -0.8587
14769TIP3    H144248   4.351   7.425   4.689  0.7711  0.2462 -2.0991
14769TIP3    H244249   4.330   7.526   4.799 -1.0672 -1.7033 -0.5793
14770TIP3   OH244250   6.775   3.922   2.644 -0.2527 -0.6798  0.0457
14770TIP3    H144251   6.824   3.934   2.725 -0.0325 -1.1707 -0.0127
14770TIP3    H244252   6.708   3.857   2.666  1.2800 -2.6453 -0.7612
14771TIP3   OH244253   5.533   3.129   5.828 -0.3750  0.2861 -0.3337
14771TIP3    H144254   5.522   3.198   5.763 -0.7259 -1.2397 -1.9767
14771TIP3    H244255   5.444   3.099   5.846 -0.2688  0.6200  0.7880
14772TIP3   OH244256   6.674   0.665   0.909 -0.0868 -0.3362 -0.2138
14772TIP3    H144257   6.630   0.629   0.832 -1.0352 -0.5645  0.4090
14772TIP3    H244258   6.678   0.759   0.893  1.5677 -0.5622 -1.4338
14773TIP3   OH244259   4.625   6.872   5.073  0.2857 -0.0786  0.2360
14773TIP3    H144260   4.560   6.935   5.105  0.3272 -0.7589  1.7379
14773TIP3    H244261   4.702   6.925   5.054  0.7216  0.2592  2.5966
14774TIP3   OH244262   0.807   6.237   5.489 -0.2223  0.0123 -0.5215
14774TIP3    H144263   0.782   6.326   5.464  0.2869  0.3109 -0.0005
14774TIP3    H244264   0.885   6.249   5.544 -0.5198 -0.7143  0.0681
14775TIP3   OH244265   5.336   6.045   0.129 -0.6634 -0.2421  0.0151
14775TIP3    H144266   5.341   6.066   0.036  1.3166  1.0860  0.3562
14775TIP3    H244267   5.269   5.977   0.135  1.0307 -2.3833 -2.7424
14776TIP3   OH244268   1.122   6.652   1.126 -0.9202  0.6025 -0.0533
14776TIP3    H144269   1.058   6.649   1.197 -0.7076  3.7431  0.3964
14776TIP3    H244270   1.207   6.652   1.170 -0.7065  0.3511 -0.4517
14777TIP3   OH244271   5.794   3.178   0.623  0.5013  0.1679  0.7139
14777TIP3    H144272   5.759   3.257   0.665  0.9637  0.3862  0.6937
14777TIP3    H244273   5.862   3.147   0.683  1.0312  0.3709  0.2323
14778TIP3   OH244274   3.650   3.123   5.891  0.0643 -0.0865 -0.0686
14778TIP3    H144275   3.557   3.114   5.873  0.3023 -0.0930 -1.4602
14778TIP3    H244276   3.664   3.075   5.972 -0.9188 -1.3058 -0.5874
14779TIP3   OH244277   6.907   0.521   3.688 -0.0894 -0.3964 -0.2112
14779TIP3    H144278   6.909   0.597   3.629  0.0029 -0.0583  0.2293
14779TIP3    H244279   6.823   0.528   3.734 -0.1922 -0.6989 -0.3456
14780TIP3   OH244280   6.931   5.068   0.049 -0.2350  0.1223  0.6018
14780TIP3    H144281   6.908   4.982   0.014  1.1886 -0.3358  0.7450
14780TIP3    H244282   6.863   5.127   0.014 -1.3704 -1.0744  0.6973
14781TIP3   OH244283   5.791   6.908   5.052  0.2043  0.3132 -0.3707
14781TIP3    H144284   5.743   6.825   5.055  0.2165  0.3263  0.1740
14781TIP3    H244285   5.730   6.969   5.011  0.1327  0.0828 -0.6164
14782TIP3   OH244286   7.620   1.322   6.038 -0.1375 -0.2432 -0.6813
14782TIP3    H144287   7.655   1.239   6.069  2.8910  0.4657 -1.8773
14782TIP3    H244288   7.679   1.388   6.074 -0.7065  1.1296 -2.1376
14783TIP3   OH244289   3.890   0.756   3.287  0.4236 -0.2226  0.1165
14783TIP3    H144290   3.839   0.691   3.334 -0.0849 -0.4462 -0.7251
14783TIP3    H244291   3.939   0.802   3.356 -0.7127 -0.1665  0.9236
14784TIP3   OH244292   2.033   7.496   2.947 -0.1046 -0.0707 -0.3203
14784TIP3    H144293   2.123   7.526   2.956 -0.0784  0.1335 -1.1922
14784TIP3    H244294   2.038   7.401   2.957  0.1597 -0.0327 -0.0788
14785TIP3   OH244295   4.787   7.073   5.397 -0.2464 -0.3564  0.2745
14785TIP3    H144296   4.810   7.157   5.436  2.7179 -1.7986  1.9859
14785TIP3    H244297   4.790   7.089   5.302 -0.2315  1.5499  0.5658
14786TIP3   OH244298   7.113   5.822   0.488  0.0890  0.2793 -0.1423
14786TIP3    H144299   7.075   5.875   0.418 -0.1672  1.0673  0.5624
14786TIP3    H244300   7.176   5.765   0.444  1.6583  2.3554 -0.7870
14787TIP3   OH244301   3.782   4.711   3.244  0.7082 -0.0847 -0.2412
14787TIP3    H144302   3.764   4.752   3.329  0.1318  0.7717 -0.7612
14787TIP3    H244303   3.821   4.782   3.192  0.2549 -0.3606 -0.9670
14788TIP3   OH244304   3.556   7.645   1.407 -0.3262  0.5166  0.0466
14788TIP3    H144305   3.625   7.677   1.349 -0.1926  0.0144 -0.0764
14788TIP3    H244306   3.476   7.688   1.375  0.0851  1.9717  0.8844
14789TIP3   OH244307   4.097   6.701   6.001 -0.2572  0.4848 -0.1467
14789TIP3    H144308   4.120   6.704   5.908 -1.9638  0.7550 -0.5842
14789TIP3    H244309   4.181   6.693   6.045  0.7458  1.9698 -1.6321
14790TIP3   OH244310   1.499   5.877   1.143 -0.1481 -0.5104 -0.5618
14790TIP3    H144311   1.582   5.837   1.117  0.7865  1.1150 -0.1861
14790TIP3    H244312   1.485   5.847   1.233  1.6236  1.5427  0.4997
14791TIP3   OH244313   3.422   7.152   3.680  0.0693 -0.0861 -0.2714
14791TIP3    H144314   3.482   7.224   3.700 -0.4614 -0.0875  1.4355
14791TIP3    H244315   3.479   7.076   3.669  0.4010 -0.1244  1.4895
14792TIP3   OH244316   5.243   3.970   6.800  0.0900 -0.3432 -0.5122
14792TIP3    H144317   5.337   3.985   6.809  0.0770 -0.6751  0.2054
14792TIP3    H244318   5.217   3.926   6.881 -1.2016  2.2097  0.5705
14793TIP3   OH244319   5.587   4.785   5.332  0.4587 -0.3560  1.0283
14793TIP3    H144320   5.655   4.730   5.372  0.5912 -0.6757  0.3837
14793TIP3    H244321   5.531   4.722   5.286  0.8497  0.0766 -0.0716
14794TIP3   OH244322   5.894   3.256   6.634  0.0562  0.0949 -0.7802
14794TIP3    H144323   5.854   3.210   6.708  0.0696  1.1536 -0.0802
14794TIP3    H244324   5.985   3.227   6.633  0.5638  1.4813  0.8529
14795TIP3   OH244325   4.365   6.001   5.112  0.2814 -0.1320 -0.1229
14795TIP3    H144326   4.376   5.957   5.196 -0.6190 -0.6736 -0.2805
14795TIP3    H244327   4.375   5.932   5.046 -0.7259 -0.0395 -0.3889
14796TIP3   OH244328   2.359   0.362   4.277  0.2927 -0.2310  0.5424
14796TIP3    H144329   2.394   0.366   4.366 -1.5375  1.4075  1.2622
14796TIP3    H244330   2.327   0.451   4.260 -0.0048 -0.6792 -1.5084
14797TIP3   OH244331   3.148   3.087   3.030  0.5148  0.3052 -0.0023
14797TIP3    H144332   3.070   3.120   2.985 -0.6616  0.1252  1.8164
14797TIP3    H244333   3.188   3.166   3.069 -1.1345 -0.0068  2.5672
14798TIP3   OH244334   0.885   2.347   0.274  0.0759  0.6719 -0.0305
14798TIP3    H144335   0.827   2.367   0.348  1.8121  0.2873  1.5151
14798TIP3    H244336   0.869   2.418   0.212 -0.2495  1.9712  1.4579
14799TIP3   OH244337   5.816   1.744   6.402  0.1255 -0.3457 -0.2640
14799TIP3    H144338   5.738   1.775   6.448 -0.6038 -1.1053 -0.9601
14799TIP3    H244339   5.830   1.655   6.435  1.6466  0.3129  1.0194
14800TIP3   OH244340   7.911   0.782   2.915  0.2162 -0.1323 -0.3594
14800TIP3    H144341   7.947   0.721   2.850  0.0666  0.2480 -0.8028
14800TIP3    H244342   7.981   0.791   2.980  0.7592  0.2680 -0.9941
14801TIP3   OH244343   6.497   5.403   1.367  0.4550 -0.3845 -0.3401
14801TIP3    H144344   6.581   5.420   1.408  0.5670 -2.0916  0.2060
14801TIP3    H244345   6.462   5.490   1.347  1.3087  0.4400  1.5071
14802TIP3   OH244346   7.509   4.840   6.242 -0.1304  0.5930 -0.4624
14802TIP3    H144347   7.553   4.887   6.313 -2.6783  3.1255 -0.3932
14802TIP3    H244348   7.577   4.827   6.176  1.2471  2.3234  0.5308
14803TIP3   OH244349   5.678   4.746   3.089  0.0033  0.9279  0.0903
14803TIP3    H144350   5.651   4.792   3.169  0.1485  0.7160  0.2614
14803TIP3    H244351   5.768   4.774   3.075  0.3730  0.0737  0.6521
14804TIP3   OH244352   2.930   5.390   4.801  0.3111 -0.0135  0.3106
14804TIP3    H144353   2.948   5.404   4.894  0.9985 -0.2658  0.2186
14804TIP3    H244354   3.007   5.344   4.768 -0.5043 -1.1098 -0.1048
14805TIP3   OH244355   5.260   1.222   2.984  0.5113 -0.0493 -0.5336
14805TIP3    H144356   5.348   1.189   2.965  0.2789  0.2455 -2.2405
14805TIP3    H244357   5.201   1.160   2.941  0.0156  1.4547 -2.1513
14806TIP3   OH244358   5.341   7.854   5.912 -0.3935  0.3090  0.3208
14806TIP3    H144359   5.337   7.948   5.926 -1.4142  0.5423 -1.2941
14806TIP3    H244360   5.272   7.835   5.848 -0.7278 -1.6573  1.1685
14807TIP3   OH244361   6.859   7.442   0.995  0.2799 -0.1209  0.0414
14807TIP3    H144362   6.942   7.484   0.973  1.3243 -1.0911  1.8843
14807TIP3    H244363   6.839   7.387   0.919  1.3006  0.1500 -0.4469
14808TIP3   OH244364   1.226   7.386   1.844  0.1636  0.5823 -0.1017
14808TIP3    H144365   1.151   7.347   1.890  1.8687 -1.1721  1.3877
14808TIP3    H244366   1.229   7.339   1.761  0.1515 -0.0494  0.2421
14809TIP3   OH244367   8.168   6.047   5.757  0.1295 -0.4421  0.4565
14809TIP3    H144368   8.236   5.981   5.769 -0.1655 -0.7515  0.4395
14809TIP3    H244369   8.088   5.997   5.742  0.1364 -0.0909 -0.9004
14810TIP3   OH244370   2.400   3.058   3.237  0.4575  0.0642 -0.2325
14810TIP3    H144371   2.395   3.126   3.170 -1.0725  0.0156 -0.2047
14810TIP3    H244372   2.424   3.104   3.317  1.1945  0.2862 -0.5750
14811TIP3   OH244373   2.803   1.026   5.090  0.0190 -0.3507 -0.2846
14811TIP3    H144374   2.874   1.032   5.027 -0.6201  0.1621 -0.9870
14811TIP3    H244375   2.734   1.083   5.054 -0.0093  0.7394  1.3504
14812TIP3   OH244376   6.530   2.289   3.656 -0.0355  0.4778  0.4252
14812TIP3    H144377   6.464   2.346   3.615 -0.3709 -1.1840 -1.5203
14812TIP3    H244378   6.613   2.324   3.624 -0.3083 -1.1504 -2.4142
14813TIP3   OH244379   3.378   1.884   1.658 -0.1126  0.1397 -0.3540
14813TIP3    H144380   3.339   1.936   1.588 -1.2630 -1.0208 -0.6055
14813TIP3    H244381   3.448   1.836   1.616 -1.5322 -1.4372 -1.0289
14814TIP3   OH244382   5.499   0.566   6.197 -0.1821 -0.0484 -0.0916
14814TIP3    H144383   5.545   0.607   6.124  1.6104 -1.4404  0.2026
14814TIP3    H244384   5.563   0.508   6.237 -1.5051 -0.2964  1.8175
14815TIP3   OH244385   5.780   6.873   6.763  0.1448  0.0571  0.2474
14815TIP3    H144386   5.825   6.807   6.817  0.6619 -1.8730 -2.3686
14815TIP3    H244387   5.687   6.858   6.779  0.2952 -0.0333  1.0866
14816TIP3   OH244388   5.526   0.410   0.818  0.1926  0.3698 -0.2119
14816TIP3    H144389   5.448   0.394   0.871  0.3820 -1.0427 -0.3235
14816TIP3    H244390   5.595   0.357   0.860  0.8147  0.7200 -0.7718
14817TIP3   OH244391   5.215   0.366   1.652  0.1516  0.1299  0.1053
14817TIP3    H144392   5.286   0.408   1.604 -1.9907  2.1325 -1.5483
14817TIP3    H244393   5.188   0.430   1.717  0.4594 -0.9992  1.3800
14818TIP3   OH244394   4.316   3.876   3.243 -0.6635  1.0725 -0.5664
14818TIP3    H144395   4.262   3.876   3.322  0.1236  0.7288 -0.0098
14818TIP3    H244396   4.383   3.942   3.260  0.6528 -0.2963 -0.1045
14819TIP3   OH244397   0.990   7.264   0.178  0.3458  0.2795 -0.1173
14819TIP3    H144398   0.940   7.344   0.192  1.3160  0.9628 -0.4242
14819TIP3    H244399   1.071   7.293   0.136  1.5353 -0.6265  1.4356
14820TIP3   OH244400   2.305   7.488   2.948 -0.7093 -0.7006 -0.2522
14820TIP3    H144401   2.333   7.512   2.860 -2.8689 -1.9684 -1.3794
14820TIP3    H244402   2.297   7.393   2.945  0.2556 -0.8870  1.7038
14821TIP3   OH244403   5.728   0.374   4.791 -0.2180  0.0931  0.3566
14821TIP3    H144404   5.778   0.414   4.862 -1.4280 -1.1726  2.0164
14821TIP3    H244405   5.669   0.443   4.761 -0.0877  0.4746  0.9742
14822TIP3   OH244406   7.731   0.342   6.676  0.4261  0.2528 -0.7211
14822TIP3    H144407   7.751   0.430   6.709  0.9912  0.6852 -2.1507
14822TIP3    H244408   7.712   0.291   6.755  1.2513  1.3564  0.2300
14823TIP3   OH244409   6.176   7.007   1.906 -0.1887 -0.8812 -0.6773
14823TIP3    H144410   6.240   6.946   1.944 -1.1250  0.0102  2.6973
14823TIP3    H244411   6.160   7.071   1.975 -1.3635  1.6056 -3.0533
14824TIP3   OH244412   2.285   7.498   5.530  0.2541 -0.0328 -0.7426
14824TIP3    H144413   2.298   7.570   5.592 -1.1455  0.1611 -0.6439
14824TIP3    H244414   2.350   7.514   5.461 -0.1884  1.4805 -0.8555
14825TIP3   OH244415   3.048   0.296   2.229  0.1516 -0.0499  0.6109
14825TIP3    H144416   3.053   0.213   2.276  0.4581 -1.2584 -1.4252
14825TIP3    H244417   3.105   0.284   2.153  0.5212  2.1982  0.4786
14826TIP3   OH244418   5.525   4.615   3.844  0.4075 -0.3838  0.2242
14826TIP3    H144419   5.583   4.686   3.818  0.9740 -2.1850 -4.3572
14826TIP3    H244420   5.440   4.657   3.856  1.3780  1.4662  0.9617
14827TIP3   OH244421   6.333   7.895   6.678 -0.3937  0.4974 -0.7055
14827TIP3    H144422   6.400   7.831   6.700 -0.1580  0.5813 -1.1893
14827TIP3    H244423   6.379   7.964   6.631 -0.4379  1.5543  0.7201
14828TIP3   OH244424   8.195   2.858   5.225 -0.3722 -0.1719  0.1157
14828TIP3    H144425   8.144   2.933   5.255 -0.4530 -0.2498  0.1782
14828TIP3    H244426   8.147   2.782   5.260 -0.8047 -0.2906 -0.6982
14829TIP3   OH244427   0.372   0.778   4.959  0.6071 -0.0477  0.3017
14829TIP3    H144428   0.357   0.771   4.865 -0.7313  0.0402  0.4764
14829TIP3    H244429   0.446   0.720   4.977 -0.0184 -1.1621 -0.6146
14830TIP3   OH244430   4.607   6.908   4.691 -0.1170  0.5586  0.3555
14830TIP3    H144431   4.569   6.967   4.755 -1.9065  0.8588 -0.9003
14830TIP3    H244432   4.607   6.957   4.609 -0.9778 -0.9030 -0.5682
14831TIP3   OH244433   2.907   1.795   3.122 -0.6426  0.2235  0.3639
14831TIP3    H144434   2.934   1.703   3.122  0.0969  0.4320  0.3303
14831TIP3    H244435   2.903   1.819   3.215  0.5077  0.5308  0.3425
14832TIP3   OH244436   5.007   2.311   3.464 -0.1601  0.5343 -0.7060
14832TIP3    H144437   5.054   2.371   3.407  0.4916  0.2978 -0.4309
14832TIP3    H244438   5.028   2.341   3.553 -1.5898  1.2247 -0.5835
14833TIP3   OH244439   6.943   0.546   4.208 -0.5153 -0.4272  0.3211
14833TIP3    H144440   6.945   0.637   4.182  1.4474 -0.7781 -0.9319
14833TIP3    H244441   6.923   0.498   4.128  1.5191 -1.2569  0.2463
14834TIP3   OH244442   6.649   6.373   3.510  0.0943  0.3154 -0.4742
14834TIP3    H144443   6.566   6.373   3.557  0.2364  0.0278 -0.2149
14834TIP3    H244444   6.675   6.465   3.508 -0.0329  0.3597 -0.1961
14835TIP3   OH244445   4.253   6.559   3.093  0.4018 -0.3340 -0.0392
14835TIP3    H144446   4.300   6.617   3.034  2.3474 -2.0361 -0.2506
14835TIP3    H244447   4.183   6.521   3.039 -1.8023  2.6572  0.4339
14836TIP3   OH244448   2.716   5.733   1.372 -0.1894  0.1878  0.0380
14836TIP3    H144449   2.672   5.761   1.291  1.4946  0.6094 -0.7752
14836TIP3    H244450   2.761   5.812   1.403  1.4012 -0.6278 -0.1256
14837TIP3   OH244451   2.354   3.614   1.135 -0.5940  0.0461 -0.2021
14837TIP3    H144452   2.418   3.546   1.115  0.6646  0.3138  2.5117
14837TIP3    H244453   2.284   3.568   1.182 -0.0040  0.4779  1.1488
14838TIP3   OH244454   2.838   2.221   0.188  0.0789  0.1039  0.1163
14838TIP3    H144455   2.778   2.257   0.123 -2.3583 -2.5751  0.6676
14838TIP3    H244456   2.810   2.261   0.271  0.7185  0.7059  0.0482
14839TIP3   OH244457   3.844   6.056   1.139  0.5159  0.1551 -0.0910
14839TIP3    H144458   3.764   6.024   1.180 -0.1210  1.0489 -0.5927
14839TIP3    H244459   3.890   5.977   1.111 -0.0370 -0.3813  0.4906
14840TIP3   OH244460   1.079   7.693   3.353 -0.3841 -0.1992 -0.1442
14840TIP3    H144461   1.136   7.641   3.409  0.6271 -0.0456 -1.0046
14840TIP3    H244462   0.999   7.704   3.404  0.9868  1.1102  1.8501
14841TIP3   OH244463   7.362   0.606   2.632 -0.0688 -0.3813 -0.7376
14841TIP3    H144464   7.330   0.521   2.663 -1.0530 -0.0368 -0.7693
14841TIP3    H244465   7.296   0.636   2.570 -0.1151  0.7285 -0.1890
14842TIP3   OH244466   5.884   6.599   6.712  0.0891  0.1717 -0.4402
14842TIP3    H144467   5.803   6.641   6.681 -1.4668 -1.1881  1.5281
14842TIP3    H244468   5.859   6.508   6.726  1.1777  0.2395  2.7171
14843TIP3   OH244469   1.674   2.764   3.384  0.0261 -0.3773  0.1784
14843TIP3    H144470   1.681   2.789   3.292 -0.6661 -1.6144 -0.2297
14843TIP3    H244471   1.753   2.713   3.401  1.1355  1.4440  0.8465
14844TIP3   OH244472   1.046   3.770   5.241  0.1827  0.4279 -0.7238
14844TIP3    H144473   1.059   3.761   5.336  1.9701  0.3796 -0.9303
14844TIP3    H244474   1.077   3.859   5.222 -0.9777  0.7475 -1.1496
14845TIP3   OH244475   7.073   7.488   1.339 -0.2937 -0.9080 -0.1745
14845TIP3    H144476   7.036   7.402   1.359  0.0327 -0.9401  0.2914
14845TIP3    H244477   7.167   7.478   1.354 -0.3603 -0.2268  0.7508
14846TIP3   OH244478   1.989   1.860   0.265 -0.2689  0.2405  0.1700
14846TIP3    H144479   1.997   1.788   0.327  1.0470 -0.4424 -0.7324
14846TIP3    H244480   1.972   1.818   0.181  1.2112  0.8826 -0.5056
14847TIP3   OH244481   5.385   6.180   1.725 -0.5054 -0.2789 -0.0448
14847TIP3    H144482   5.354   6.238   1.794  0.4551 -1.0065  1.0330
14847TIP3    H244483   5.359   6.223   1.644 -1.2061  0.8528  0.7573
14848TIP3   OH244484   4.627   4.651   5.454 -0.2633 -0.3073  0.3584
14848TIP3    H144485   4.656   4.625   5.541 -0.2426  1.1272  0.7968
14848TIP3    H244486   4.634   4.746   5.453 -0.2743 -0.2941 -1.2151
14849TIP3   OH244487   3.150   2.851   2.311  0.0791 -0.3343  0.9734
14849TIP3    H144488   3.119   2.777   2.363  1.5482 -0.9968  0.9371
14849TIP3    H244489   3.232   2.821   2.272 -0.1887  0.6942 -0.4762
14850TIP3   OH244490   7.050   7.001   4.856  0.1940 -0.2687  0.0015
14850TIP3    H144491   7.076   6.910   4.843 -0.7773 -0.4524 -0.8875
14850TIP3    H244492   6.997   7.000   4.935 -0.0868 -0.5528 -0.1848
14851TIP3   OH244493   2.977   0.859   0.810  0.2618 -0.7421  0.6394
14851TIP3    H144494   2.974   0.795   0.738  0.8607  1.4854 -1.5065
14851TIP3    H244495   2.886   0.866   0.839  0.1671 -2.4516  0.8579
14852TIP3   OH244496   1.533   3.638   1.651  0.1636  0.1630 -0.1985
14852TIP3    H144497   1.554   3.570   1.587 -1.1898  0.1338 -0.6322
14852TIP3    H244498   1.575   3.607   1.732 -1.3587 -1.8167 -0.0765
14853TIP3   OH244499   2.081   7.216   0.663  0.4791  0.3169  0.5242
14853TIP3    H144500   2.138   7.142   0.684  1.0554  0.2033 -1.2465
14853TIP3    H244501   2.131   7.266   0.598 -0.3234  1.7266  0.9537
14854TIP3   OH244502   2.361   4.916   2.504 -0.1615 -0.0761  0.4226
14854TIP3    H144503   2.266   4.917   2.516 -0.1248  0.2688  0.6856
14854TIP3    H244504   2.374   4.957   2.418 -0.3797 -1.9943 -0.5957
14855TIP3   OH244505   1.160   1.912   0.272 -0.4685 -0.7459 -0.4854
14855TIP3    H144506   1.205   1.980   0.223 -1.6015 -2.1852 -3.8008
14855TIP3    H244507   1.078   1.953   0.300  0.8569  0.5629  1.8064
14856TIP3   OH244508   7.876   7.892   1.357 -0.1864  0.0792 -0.7079
14856TIP3    H144509   7.865   7.971   1.410 -1.2562  0.0855 -0.9296
14856TIP3    H244510   7.938   7.838   1.407 -0.5316  0.4492  0.1415
14857TIP3   OH244511   5.803   4.745   1.523 -0.1970  0.2110  0.6573
14857TIP3    H144512   5.896   4.725   1.532 -0.1537  0.5499  1.0000
14857TIP3    H244513   5.788   4.820   1.582 -0.6361  0.3038  0.4383
14858TIP3   OH244514   0.088   1.898   0.782  0.2638 -0.2543 -0.1165
14858TIP3    H144515   0.096   1.803   0.771 -0.8117 -0.2912 -0.7979
14858TIP3    H244516   0.135   1.935   0.708  1.2273 -0.2317  0.4998
14859TIP3   OH244517   6.349   4.438   5.985 -0.3391 -0.3105  0.1214
14859TIP3    H144518   6.310   4.493   5.917 -0.4156 -0.6929 -0.1488
14859TIP3    H244519   6.314   4.350   5.967  3.3581 -1.5057 -2.3358
14860TIP3   OH244520   0.905   6.058   5.990  0.1149  0.2101 -0.6045
14860TIP3    H144521   0.837   6.004   6.029  0.5545 -0.5025 -0.8001
14860TIP3    H244522   0.909   6.029   5.899 -0.3426  1.2865 -0.9782
14861TIP3   OH244523   2.236   6.800   4.870 -0.2516 -0.5142  0.1536
14861TIP3    H144524   2.173   6.856   4.916  1.0939 -0.3643  1.8889
14861TIP3    H244525   2.302   6.860   4.835  0.0078 -0.8402  0.0760
14862TIP3   OH244526   0.399   5.676   6.664  0.5882 -0.1839  0.4798
14862TIP3    H144527   0.478   5.721   6.694 -0.4214  1.5225  0.6850
14862TIP3    H244528   0.400   5.593   6.711  3.2426 -1.1111 -0.9590
14863TIP3   OH244529   4.217   0.968   4.912 -0.3451  0.1321 -0.1593
14863TIP3    H144530   4.192   1.051   4.870  0.5297 -0.2620 -1.5211
14863TIP3    H244531   4.171   0.901   4.862  1.4747 -0.4189 -1.1852
14864TIP3   OH244532   3.655   1.847   2.575  0.6230  0.2361  0.4537
14864TIP3    H144533   3.734   1.869   2.622  1.9489  0.7788 -1.8675
14864TIP3    H244534   3.685   1.798   2.498 -1.0093  2.1937 -1.5897
14865TIP3   OH244535   1.011   3.599   3.401 -0.6560 -0.2972 -0.1116
14865TIP3    H144536   0.986   3.507   3.409 -0.7675 -0.1467  1.6178
14865TIP3    H244537   1.094   3.596   3.354  1.3820 -1.6809  3.1801
14866TIP3   OH244538   5.347   3.808   6.350 -0.4592 -0.2134 -0.0906
14866TIP3    H144539   5.419   3.755   6.384  0.0026 -1.1082 -2.2998
14866TIP3    H244540   5.363   3.896   6.385  2.1049 -0.2365 -1.0373
14867TIP3   OH244541   5.584   3.455   5.658  0.1518  0.0364  0.4653
14867TIP3    H144542   5.500   3.409   5.652  0.9783 -1.5320  0.2390
14867TIP3    H244543   5.579   3.501   5.742 -0.0499 -2.0033  1.6654
14868TIP3   OH244544   6.170   3.150   3.563  0.2105  0.0325  0.7665
14868TIP3    H144545   6.118   3.218   3.606 -0.3802 -1.1515  1.9844
14868TIP3    H244546   6.148   3.070   3.610  2.4870 -0.6565  0.7379
14869TIP3   OH244547   5.630   3.027   1.824 -0.2881 -0.2913  0.2329
14869TIP3    H144548   5.604   3.013   1.733 -0.1985 -2.2092  0.4689
14869TIP3    H244549   5.671   2.945   1.850 -1.8332 -0.4137  2.5231
14870TIP3   OH244550   0.083   0.434   4.809 -0.0491  0.4181  0.4101
14870TIP3    H144551   0.090   0.494   4.735 -0.1351  1.8949  1.5508
14870TIP3    H244552  -0.004   0.452   4.847 -0.1717 -0.5915  0.6567
14871TIP3   OH244553   8.236   6.914   3.721  0.1399  0.2690  0.1317
14871TIP3    H144554   8.192   6.908   3.636 -0.9889 -0.7130  0.7515
14871TIP3    H244555   8.202   6.839   3.771  1.0743  0.6024  1.3130
14872TIP3   OH244556   6.464   6.667   6.395 -0.3390 -0.9406 -0.0884
14872TIP3    H144557   6.435   6.643   6.483 -2.1851  0.8736 -0.1434
14872TIP3    H244558   6.435   6.757   6.383 -1.1406 -1.4737 -2.9619
14873TIP3   OH244559   1.351   6.063   1.399  0.1473 -0.0885 -0.1359
14873TIP3    H144560   1.306   5.982   1.423  1.5122 -0.5698  0.9160
14873TIP3    H244561   1.436   6.035   1.364  0.5645  0.8709  0.0507
14874TIP3   OH244562   4.535   0.397   0.299 -0.3776  0.4690 -0.1619
14874TIP3    H144563   4.496   0.482   0.278  2.3707  2.2547  1.3811
14874TIP3    H244564   4.612   0.392   0.244  0.5036 -0.1345  1.0800
14875TIP3   OH244565   2.443   5.103   3.971  0.3341  0.4062 -0.1331
14875TIP3    H144566   2.378   5.034   3.959  0.4323  0.5229 -1.3796
14875TIP3    H244567   2.395   5.174   4.013  0.3455 -0.5692  1.6460
14876TIP3   OH244568   5.648   4.168   5.753 -0.1978 -0.4769  0.0905
14876TIP3    H144569   5.717   4.200   5.810 -0.0596  0.0769 -0.3793
14876TIP3    H244570   5.631   4.078   5.783  0.3313 -0.4182  0.5653
14877TIP3   OH244571   1.435   2.817   1.982 -0.0587 -0.2675 -0.4785
14877TIP3    H144572   1.435   2.729   2.019  0.3276 -0.8018 -1.7153
14877TIP3    H244573   1.515   2.857   2.015 -0.2273 -0.3829  0.0764
14878TIP3   OH244574   3.053   1.371   4.431  0.4381  0.2552 -0.6812
14878TIP3    H144575   3.059   1.278   4.409 -0.5758 -0.0986  0.4196
14878TIP3    H244576   2.966   1.398   4.403  0.3090  0.5782  0.0016
14879TIP3   OH244577   3.642   3.489   4.636  0.3799  0.1015  0.0815
14879TIP3    H144578   3.696   3.412   4.651  0.3086  0.1122  0.4123
14879TIP3    H244579   3.703   3.556   4.603 -0.0499 -0.9945 -3.2875
14880TIP3   OH244580   7.714   6.395   0.360 -0.0735 -0.3215  0.0488
14880TIP3    H144581   7.775   6.448   0.412 -0.6646  0.0743  0.3558
14880TIP3    H244582   7.770   6.340   0.306  0.5563  0.2720  0.0816
14881TIP3   OH244583   4.930   2.875   4.246  0.5020 -0.0241  0.1414
14881TIP3    H144584   4.857   2.813   4.243 -1.6001  2.1605  1.5471
14881TIP3    H244585   4.985   2.844   4.318  0.6160 -1.3443 -0.4969
14882TIP3   OH244586   3.356   4.679   2.951  0.0044 -0.4494 -0.2817
14882TIP3    H144587   3.425   4.621   2.982 -0.0980  0.4598  1.8177
14882TIP3    H244588   3.372   4.762   2.998 -1.9866  0.0479 -0.4118
14883TIP3   OH244589   3.631   6.031   2.461  0.1178 -0.5297  0.7894
14883TIP3    H144590   3.669   6.085   2.392 -2.2585  0.6530  0.3239
14883TIP3    H244591   3.618   6.091   2.534 -1.4168 -0.7054  0.6972
14884TIP3   OH244592   4.615   0.525   3.381 -0.2410  0.6948  0.4507
14884TIP3    H144593   4.633   0.542   3.474  0.4040  0.3512  0.3931
14884TIP3    H244594   4.547   0.458   3.381 -1.8366  2.2259  0.6766
14885TIP3   OH244595   6.019   6.515   2.039 -0.1603  0.5374 -0.2911
14885TIP3    H144596   5.948   6.532   1.978 -0.6325  0.4858  0.2400
14885TIP3    H244597   5.977   6.512   2.125  0.2694 -0.8138 -0.1086
14886TIP3   OH244598   5.274   6.979   2.477  0.2693 -0.0498 -0.1318
14886TIP3    H144599   5.210   7.024   2.422 -1.2482 -1.5899  0.2690
14886TIP3    H244600   5.356   6.983   2.428 -0.3011  1.2927 -1.0347
14887TIP3   OH244601   7.382   5.298   3.562 -0.1541 -0.6578 -1.0516
14887TIP3    H144602   7.438   5.229   3.597 -1.1346 -1.7466 -1.5891
14887TIP3    H244603   7.308   5.302   3.623  1.4849  2.3956  1.0432
14888TIP3   OH244604   1.641   3.633   4.503  0.3360 -0.0790  0.2675
14888TIP3    H144605   1.641   3.648   4.408 -0.0901 -0.0977  0.2623
14888TIP3    H244606   1.667   3.717   4.541 -0.3054  0.1702  0.1673
14889TIP3   OH244607   4.142   6.554   0.782 -0.3232  0.3153  0.2617
14889TIP3    H144608   4.114   6.496   0.853  0.9028 -0.7415 -0.0909
14889TIP3    H244609   4.217   6.601   0.818 -0.3247  0.5251 -0.0057
14890TIP3   OH244610   8.189   1.085   2.821  0.2255 -0.5420 -0.4173
14890TIP3    H144611   8.189   0.990   2.826  1.8024 -0.5005  1.4932
14890TIP3    H244612   8.277   1.108   2.791  0.6491  0.3287  1.3537
14891TIP3   OH244613   2.635   6.276   6.832  0.0740  0.2644  0.5905
14891TIP3    H144614   2.611   6.299   6.921  0.8269  2.4413  0.2958
14891TIP3    H244615   2.697   6.345   6.805 -0.3254 -0.1705 -1.6788
14892TIP3   OH244616   4.658   0.347   1.754 -0.1446  0.0880  0.1627
14892TIP3    H144617   4.680   0.431   1.714 -0.7984  0.0633 -0.2632
14892TIP3    H244618   4.574   0.362   1.798 -0.6963 -0.5456 -0.6284
14893TIP3   OH244619   5.436   4.438   3.328 -0.0716  0.2236  0.2031
14893TIP3    H144620   5.371   4.484   3.382 -0.4175 -1.0234  0.8889
14893TIP3    H244621   5.443   4.491   3.248 -1.0006  1.0461  0.6471
14894TIP3   OH244622   2.227   7.690   2.409  0.7802  0.2958 -0.7221
14894TIP3    H144623   2.189   7.613   2.452  1.4988  1.8374  3.0912
14894TIP3    H244624   2.151   7.742   2.382  0.1472  0.4798  1.2242
14895TIP3   OH244625   5.555   4.004   5.079  0.0562  0.5720 -0.4915
14895TIP3    H144626   5.465   3.991   5.108  0.6433  0.4635  1.4393
14895TIP3    H244627   5.595   3.917   5.087  1.0143  1.1250  1.3979
14896TIP3   OH244628   1.865   0.061   3.377  0.5080  0.3879 -0.3276
14896TIP3    H144629   1.806   0.100   3.313 -1.6574 -1.7995  0.1895
14896TIP3    H244630   1.844   0.105   3.459 -0.8799 -0.7518 -0.0355
14897TIP3   OH244631   6.227   0.122   1.012  0.0852 -0.0795 -0.1005
14897TIP3    H144632   6.279   0.081   1.081  1.8634 -0.4130 -1.5671
14897TIP3    H244633   6.292   0.161   0.953 -1.4247  1.3790 -0.8724
14898TIP3   OH244634   0.960   2.267   1.898  0.0680 -0.1291 -0.3829
14898TIP3    H144635   0.897   2.316   1.951  1.2424 -0.1674  1.1358
14898TIP3    H244636   0.911   2.192   1.865 -0.7170 -0.0831  0.6264
14899TIP3   OH244637   0.880   5.940   5.743 -0.5166 -0.6501 -0.6219
14899TIP3    H144638   0.893   5.847   5.762  3.3739  0.0720  1.4322
14899TIP3    H244639   0.934   5.956   5.665  0.3069  0.1254  0.0836
14900TIP3   OH244640   1.742   3.691   5.506 -0.0072  0.2027 -0.6080
14900TIP3    H144641   1.803   3.723   5.573 -1.2377  0.8235  0.2566
14900TIP3    H244642   1.739   3.597   5.519  0.9794  0.1270 -0.8548
14901TIP3   OH244643   3.960   7.683   1.233  0.4170 -0.8268  0.3888
14901TIP3    H144644   4.014   7.761   1.246  0.4479 -1.0041  1.3835
14901TIP3    H244645   3.930   7.660   1.321 -2.3615  0.0147 -0.2181
14902TIP3   OH244646   1.791   0.730   4.690 -0.0960  0.0662  0.2582
14902TIP3    H144647   1.845   0.656   4.717  1.4849  1.7419  1.9669
14902TIP3    H244648   1.825   0.755   4.604 -0.0077 -0.5767  0.1006
14903TIP3   OH244649   1.988   5.685   6.115 -0.8223 -0.2615 -0.0469
14903TIP3    H144650   1.974   5.594   6.141 -0.8377 -0.6377 -1.3143
14903TIP3    H244651   1.914   5.705   6.057 -0.6478  0.4571 -0.0300
14904TIP3   OH244652   1.765   1.560   4.518 -0.0821  0.2376 -0.3463
14904TIP3    H144653   1.687   1.555   4.464 -1.1226  1.0370  1.0226
14904TIP3    H244654   1.798   1.649   4.506  1.0741 -0.3083 -1.4750
14905TIP3   OH244655   1.327   1.025   1.156 -0.0522  0.3573 -0.3661
14905TIP3    H144656   1.377   1.037   1.237  1.4772 -0.7071 -1.1078
14905TIP3    H244657   1.324   0.930   1.143  0.7990  0.5357 -2.1816
14906TIP3   OH244658   5.273  -0.006   4.263  0.3322  0.0666  0.3974
14906TIP3    H144659   5.359  -0.046   4.274  0.1489  0.0967  2.4513
14906TIP3    H244660   5.283   0.082   4.301 -0.1578  0.7299 -0.9606
14907TIP3   OH244661   1.703   5.042   1.139  0.0033  0.3402  0.3389
14907TIP3    H144662   1.745   5.097   1.072 -0.0531 -0.2479 -0.1866
14907TIP3    H244663   1.610   5.061   1.130  0.1154  1.4289  1.3111
14908TIP3   OH244664   4.026   5.001   6.808  0.2130 -0.7891  0.1934
14908TIP3    H144665   3.983   5.060   6.747  1.0899 -1.0184 -0.6550
14908TIP3    H244666   4.067   5.059   6.872 -1.3450 -0.5614  1.0568
14909TIP3   OH244667   8.331   1.922   1.912  0.0505 -0.1047 -0.7000
14909TIP3    H144668   8.358   1.830   1.913 -0.9953 -0.4268 -0.7919
14909TIP3    H244669   8.409   1.970   1.939  0.3347 -1.0844  0.2831
14910TIP3   OH244670   2.304   4.684   5.061  0.0907  0.2022  0.7720
14910TIP3    H144671   2.353   4.721   4.988  0.8095 -1.3366  0.4478
14910TIP3    H244672   2.338   4.728   5.138  1.6892 -0.5166  0.5056
14911TIP3   OH244673   1.120   6.136   4.904 -0.1688  0.2035 -0.0508
14911TIP3    H144674   1.116   6.187   4.823  1.6571 -0.6710 -0.7517
14911TIP3    H244675   1.029   6.118   4.926 -0.7693  2.0515 -0.8562
14912TIP3   OH244676   7.328   0.576   1.594  0.0732 -0.0241 -0.0116
14912TIP3    H144677   7.360   0.506   1.651  1.0842  0.1977 -0.3001
14912TIP3    H244678   7.250   0.539   1.553  0.8800 -1.1691 -0.5496
14913TIP3   OH244679   0.588   5.017   3.085  0.4863  0.3014 -0.3918
14913TIP3    H144680   0.579   4.923   3.075  0.7623  0.0537  1.4565
14913TIP3    H244681   0.651   5.029   3.155 -0.0202  1.8602 -0.1444
14914TIP3   OH244682   2.142   3.115   4.525 -0.7044  0.1689 -0.0393
14914TIP3    H144683   2.056   3.126   4.564 -1.1602 -1.7022 -0.4165
14914TIP3    H244684   2.179   3.038   4.570  0.7308  0.8673  0.0386
14915TIP3   OH244685   3.336   4.437   3.654  0.3310  0.1996  0.0434
14915TIP3    H144686   3.408   4.484   3.612 -0.8006  0.6503 -1.5004
14915TIP3    H244687   3.378   4.383   3.721  2.2871 -0.7585 -1.8348
14916TIP3   OH244688   2.733   6.824   1.858 -0.0714  0.4888 -0.3664
14916TIP3    H144689   2.653   6.787   1.894  0.1663  0.6633  0.3427
14916TIP3    H244690   2.801   6.806   1.923  0.0905  1.9533 -0.0922
14917TIP3   OH244691   0.309   7.806   6.384  0.2808 -0.2933 -0.4527
14917TIP3    H144692   0.397   7.776   6.409  0.6462 -0.2547 -1.6453
14917TIP3    H244693   0.324   7.874   6.319 -0.6288  0.2536 -0.1031
14918TIP3   OH244694   0.487   5.389   6.500 -0.3459 -0.0162 -0.0984
14918TIP3    H144695   0.517   5.431   6.420  0.3106  2.0831  1.1737
14918TIP3    H244696   0.404   5.432   6.520 -0.3718 -0.3369  0.4908
14919TIP3   OH244697   2.732   1.966   3.027 -0.0305 -0.3287 -0.1903
14919TIP3    H144698   2.784   1.886   3.037 -1.5313 -1.1068  2.5939
14919TIP3    H244699   2.751   2.018   3.105 -3.6231 -0.9220  1.3106
14920TIP3   OH244700   0.668   2.728   3.286  0.8018  0.3574 -0.3037
14920TIP3    H144701   0.589   2.674   3.283  0.8563  0.2887 -3.0612
14920TIP3    H244702   0.732   2.674   3.333 -0.0495 -0.6260 -0.2261
14921TIP3   OH244703   8.137   3.386   3.950  0.3997 -0.3503  0.1570
14921TIP3    H144704   8.173   3.428   4.028 -1.0923  0.4884  0.4226
14921TIP3    H244705   8.044   3.379   3.967  0.0013  0.0427 -1.6280
14922TIP3   OH244706   1.555   2.441   4.556  0.1748 -0.0452  0.3523
14922TIP3    H144707   1.613   2.368   4.576 -0.7447 -0.9365 -0.1254
14922TIP3    H244708   1.611   2.518   4.560  0.9064 -0.6224  2.0775
14923TIP3   OH244709   4.552   3.396   2.892 -0.3368  0.4040  0.0559
14923TIP3    H144710   4.640   3.365   2.870 -0.2802  0.3253  0.3890
14923TIP3    H244711   4.541   3.375   2.984 -0.9819 -0.2566 -0.1572
14924TIP3   OH244712   7.105   5.142   4.181  0.6585 -0.5076  0.2097
14924TIP3    H144713   7.152   5.159   4.099 -0.3810 -0.3049 -0.3587
14924TIP3    H244714   7.096   5.227   4.222  0.9045 -0.5645  0.3799
14925TIP3   OH244715   5.056   0.634   5.637  0.2571 -0.1856  0.2282
14925TIP3    H144716   5.060   0.629   5.733 -1.8113 -1.4282  0.3006
14925TIP3    H244717   5.147   0.639   5.610  0.8706  2.2300  2.3307
14926TIP3   OH244718   6.106   4.953   4.508  0.3604 -0.1243 -0.1395
14926TIP3    H144719   6.147   4.888   4.451  0.3528 -0.9601  0.7859
14926TIP3    H244720   6.038   4.993   4.453  1.4781  0.3287 -1.2601
14927TIP3   OH244721   6.317   5.369   4.786 -0.4775  0.5542 -0.0801
14927TIP3    H144722   6.341   5.385   4.877  0.6603  3.6685 -0.7943
14927TIP3    H244723   6.357   5.285   4.765 -1.9272 -0.9341  2.5966
14928TIP3   OH244724   3.744   3.855   1.527  0.0264 -0.0584  0.2366
14928TIP3    H144725   3.712   3.914   1.596 -0.6058 -1.4695  1.1947
14928TIP3    H244726   3.741   3.908   1.448 -0.7703  1.1296  1.0213
14929TIP3   OH244727   5.879   5.713   4.181 -0.2207  0.5853  0.4565
14929TIP3    H144728   5.920   5.681   4.261  0.8062  0.2654 -0.1877
14929TIP3    H244729   5.837   5.795   4.207 -0.2260  0.2950  1.4051
14930TIP3   OH244730   2.926   6.336   1.115 -0.0130  0.1401 -0.1325
14930TIP3    H144731   2.957   6.395   1.046 -0.5333  0.3740 -0.1755
14930TIP3    H244732   2.962   6.251   1.093 -1.5551 -0.1703 -1.6691
14931TIP3   OH244733   0.632   4.791   0.030  0.1844  0.1784  0.4224
14931TIP3    H144734   0.661   4.757   0.114 -0.0818  0.5079  0.6477
14931TIP3    H244735   0.539   4.771   0.027  0.1917  0.1746  0.2094
14932TIP3   OH244736   3.430   4.275   6.321  0.5215 -0.1764  1.1352
14932TIP3    H144737   3.502   4.238   6.269 -0.2201  1.0148 -0.8790
14932TIP3    H244738   3.353   4.265   6.266  0.1022  3.3146  0.8274
14933TIP3   OH244739   8.226   1.262   1.537  0.1403  0.3866  0.6734
14933TIP3    H144740   8.308   1.309   1.525  1.9944 -2.6966  0.2586
14933TIP3    H244741   8.181   1.271   1.453 -1.7057  4.8252  1.8699
14934TIP3   OH244742   7.207   5.210   5.628 -0.5191 -0.6435 -0.1724
14934TIP3    H144743   7.285   5.203   5.573  0.4983 -0.4306  1.1837
14934TIP3    H244744   7.209   5.299   5.661 -1.7571 -0.4067 -0.6827
14935TIP3   OH244745   2.911   1.989   2.267 -0.5114 -0.2470 -0.4381
14935TIP3    H144746   2.829   2.010   2.312 -0.4876 -1.8491  0.4078
14935TIP3    H244747   2.888   1.917   2.208  0.2373 -0.5323 -0.3821
14936TIP3   OH244748   3.540   6.400   5.787 -0.3714 -0.2044  0.4368
14936TIP3    H144749   3.576   6.458   5.854  2.5321  0.4947 -1.5285
14936TIP3    H244750   3.530   6.315   5.831 -0.4863  0.7039  2.2376
14937TIP3   OH244751   7.153   4.771   2.074  0.2458  0.5896 -0.0516
14937TIP3    H144752   7.098   4.840   2.113  0.8794  0.5325  1.0048
14937TIP3    H244753   7.093   4.720   2.020 -0.3068  1.7734 -0.6043
14938TIP3   OH244754   6.293   7.864   2.085  0.0975  0.0333 -0.7350
14938TIP3    H144755   6.361   7.836   2.024  0.7627 -1.3011  0.5748
14938TIP3    H244756   6.248   7.783   2.110 -1.3014  0.7605 -0.7488
14939TIP3   OH244757   2.432   4.820   4.844 -0.2545 -0.0628  0.5089
14939TIP3    H144758   2.432   4.905   4.889 -0.2144  0.2654 -0.0974
14939TIP3    H244759   2.508   4.825   4.786 -1.8063  0.5888 -1.5720
14940TIP3   OH244760   0.527   0.136   3.133  0.2667 -0.2051  0.6818
14940TIP3    H144761   0.548   0.047   3.104  1.2245 -0.5806  2.3549
14940TIP3    H244762   0.508   0.184   3.053 -2.6529 -2.4664 -0.1327
14941TIP3   OH244763   6.971   5.649   2.984  0.5562 -0.2616 -0.3865
14941TIP3    H144764   6.950   5.556   2.990  0.5948 -0.2066  0.8003
14941TIP3    H244765   6.887   5.693   2.999  0.5337 -0.1034 -0.9684
14942TIP3   OH244766   7.940   5.139   2.189 -0.2686  0.0865 -0.4115
14942TIP3    H144767   7.943   5.219   2.242 -1.0808  0.3797 -0.7977
14942TIP3    H244768   8.029   5.127   2.158 -0.4452  1.7574 -1.6884
14943TIP3   OH244769   1.275   2.446   5.587  0.2489  0.3098 -0.3734
14943TIP3    H144770   1.302   2.534   5.613 -0.2244 -0.1985  2.0551
14943TIP3    H244771   1.335   2.387   5.634 -0.3959 -0.6824 -0.7486
14944TIP3   OH244772   0.819   1.580   6.067 -0.3553 -0.0201 -0.0572
14944TIP3    H144773   0.912   1.585   6.089 -0.3511  0.2499 -0.1361
14944TIP3    H244774   0.792   1.671   6.054 -0.6049 -0.1044 -0.1369
14945TIP3   OH244775   3.204   4.209   4.346 -0.1136  0.0783 -0.3640
14945TIP3    H144776   3.147   4.253   4.410 -1.2277 -1.5333 -0.1899
14945TIP3    H244777   3.182   4.250   4.263  0.3305  1.2297  0.0672
14946TIP3   OH244778   3.631   0.703   5.269  0.0629 -0.1341  0.1668
14946TIP3    H144779   3.596   0.708   5.180 -1.0668  1.3903  0.6514
14946TIP3    H244780   3.634   0.794   5.299 -0.9029 -0.7057  2.1690
14947TIP3   OH244781   1.480   6.980   1.320 -0.3144 -0.6065 -0.1156
14947TIP3    H144782   1.495   7.030   1.240 -1.4376  1.1084  0.7098
14947TIP3    H244783   1.565   6.978   1.364 -0.5903  2.2961  0.7474
14948TIP3   OH244784   0.408   6.655   0.709  0.0593 -0.0877 -0.2369
14948TIP3    H144785   0.455   6.726   0.665 -0.5555  0.5323  0.0799
14948TIP3    H244786   0.460   6.636   0.787  0.5311 -0.3873 -0.6199
14949TIP3   OH244787   1.401   1.225   2.742 -0.7971  0.0068 -0.4864
14949TIP3    H144788   1.456   1.150   2.765 -1.0545 -0.4727 -1.4165
14949TIP3    H244789   1.440   1.261   2.663 -2.0130 -0.5632 -1.3741
14950TIP3   OH244790   8.216   7.837   1.241  0.2721  0.3992 -0.8638
14950TIP3    H144791   8.225   7.926   1.276  1.9842  0.9957 -2.6552
14950TIP3    H244792   8.146   7.844   1.176 -1.7691 -0.3447  1.1182
14951TIP3   OH244793   7.213   5.387   0.246 -0.5938  0.1781  0.4580
14951TIP3    H144794   7.302   5.364   0.271 -1.3756 -2.0683  1.3841
14951TIP3    H244795   7.215   5.483   0.236  2.0919  0.1173 -0.4265
14952TIP3   OH244796   7.446   2.027   3.454 -0.1181  0.5161 -0.0939
14952TIP3    H144797   7.383   2.069   3.512 -0.8253  1.3417 -1.4014
14952TIP3    H244798   7.531   2.046   3.492 -0.5457  1.3802  0.4484
14953TIP3   OH244799   8.071   6.094   2.164 -0.2994  0.2463  0.4863
14953TIP3    H144800   8.042   6.038   2.236 -0.6839  1.6758  1.4954
14953TIP3    H244801   7.990   6.125   2.124 -0.1110  0.4764  0.2800
14954TIP3   OH244802   3.656   3.198   0.332 -0.3445 -0.2044  0.0329
14954TIP3    H144803   3.714   3.235   0.398  0.3181 -1.3030  0.0870
14954TIP3    H244804   3.584   3.161   0.382 -0.0963 -0.5866  0.1133
14955TIP3   OH244805   1.946   5.926   4.017 -0.6834 -0.0013  0.5319
14955TIP3    H144806   1.906   5.903   3.934 -0.4881 -1.7533  0.8893
14955TIP3    H244807   2.011   5.857   4.033  1.9953  2.2765  0.3441
14956TIP3   OH244808   3.229   1.186   6.417  0.0382 -0.0890  0.1330
14956TIP3    H144809   3.214   1.096   6.445  1.5163 -0.8816 -1.4096
14956TIP3    H244810   3.142   1.223   6.407 -0.5959 -0.6493  2.7734
14957TIP3   OH244811   1.470   7.503   0.546  0.0445 -0.1437  0.8675
14957TIP3    H144812   1.406   7.573   0.557 -1.0190 -1.0680  0.8468
14957TIP3    H244813   1.503   7.486   0.635  0.5961  0.6314  0.8148
14958TIP3   OH244814   4.661   5.476   5.521 -0.3841  0.1446 -0.2913
14958TIP3    H144815   4.683   5.402   5.465 -1.8885 -0.6823  0.1679
14958TIP3    H244816   4.714   5.462   5.600  0.5365  0.4589 -0.8297
14959TIP3   OH244817   7.184   2.741   4.385  0.0706  0.2387  0.0621
14959TIP3    H144818   7.165   2.783   4.301 -1.2999  0.0324  0.2510
14959TIP3    H244819   7.117   2.674   4.394 -0.0772  0.5579  1.5367
14960TIP3   OH244820   8.133   5.117   0.515 -0.4152  0.3164 -0.4460
14960TIP3    H144821   8.175   5.061   0.580  2.5509  1.6268 -1.0223
14960TIP3    H244822   8.098   5.191   0.565  1.0188  0.8524 -0.1737
14961TIP3   OH244823   7.740   3.426   3.353 -0.0132  0.8668  0.4847
14961TIP3    H144824   7.799   3.500   3.364 -0.4695  1.0400  1.9581
14961TIP3    H244825   7.795   3.349   3.373 -0.1274  0.9846  1.2716
14962TIP3   OH244826   6.462   4.464   3.199  0.3939 -0.7401 -0.1106
14962TIP3    H144827   6.544   4.414   3.205 -1.1109 -3.3281  0.1921
14962TIP3    H244828   6.426   4.463   3.287 -0.1665  0.0505 -0.3179
14963TIP3   OH244829   4.711   3.329   4.221  0.2808 -0.6190  0.1446
14963TIP3    H144830   4.773   3.280   4.167  0.5278  1.3757 -1.4866
14963TIP3    H244831   4.625   3.295   4.196  0.4629 -0.4212 -0.7977
14964TIP3   OH244832   0.730   1.391   4.746  0.1548 -0.0302 -0.2623
14964TIP3    H144833   0.746   1.481   4.719 -1.2249 -0.0257 -1.1110
14964TIP3    H244834   0.655   1.396   4.805 -0.5395 -0.7107 -1.0634
14965TIP3   OH244835   0.565   0.068   4.727 -0.0608  0.3230  0.3521
14965TIP3    H144836   0.579   0.023   4.811  0.2345  1.0826  0.7180
14965TIP3    H244837   0.621   0.020   4.665  0.5024  0.3843  0.8026
14966TIP3   OH244838   3.844   1.888   2.807 -0.3378  0.3924 -0.0659
14966TIP3    H144839   3.812   1.804   2.841  0.4790  0.4133  0.8021
14966TIP3    H244840   3.796   1.954   2.858 -1.2274  0.4785 -0.9784
14967TIP3   OH244841   7.356   2.593   0.623  0.3353 -0.0762  0.2026
14967TIP3    H144842   7.401   2.588   0.539 -0.9016 -0.6634 -0.4529
14967TIP3    H244843   7.264   2.573   0.603  0.1023 -0.7628  1.7699
14968TIP3   OH244844   1.781   1.420   2.793 -0.2104  0.3354  0.0437
14968TIP3    H144845   1.853   1.476   2.765  0.1379 -0.0577  0.1560
14968TIP3    H244846   1.761   1.449   2.882  0.1339  0.1130  0.1921
14969TIP3   OH244847   7.055   1.121   3.756  0.5307 -0.5921 -0.1843
14969TIP3    H144848   7.031   1.053   3.821 -0.9149 -1.3999 -1.4895
14969TIP3    H244849   6.973   1.167   3.739  1.3012  0.8816 -0.0575
14970TIP3   OH244850   2.429   4.724   0.326  0.1532 -0.2282 -0.3485
14970TIP3    H144851   2.335   4.716   0.342  0.1475  0.5777  0.0758
14970TIP3    H244852   2.470   4.707   0.411  0.4919 -1.9618 -0.8217
14971TIP3   OH244853   4.017   6.907   2.864  0.2930 -0.3697 -0.0937
14971TIP3    H144854   4.029   6.983   2.807  0.8871 -0.2841  0.1430
14971TIP3    H244855   3.962   6.939   2.935 -2.1895 -0.9704 -1.5946
14972TIP3   OH244856   7.169   5.260   3.780 -0.2187  0.1720  0.0005
14972TIP3    H144857   7.123   5.343   3.772 -0.0330  0.1698 -1.1862
14972TIP3    H244858   7.233   5.275   3.849 -0.4882  0.8682  0.1044
14973TIP3   OH244859   6.229   7.239   0.598 -0.4217  0.9478 -0.2517
14973TIP3    H144860   6.234   7.312   0.536 -2.2144  0.9145 -0.4993
14973TIP3    H244861   6.165   7.179   0.559  1.6587 -1.2567 -0.5189
14974TIP3   OH244862   4.326   3.415   0.801  0.8660 -0.0560  0.4574
14974TIP3    H144863   4.299   3.507   0.796  1.9892  0.2614 -0.3440
14974TIP3    H244864   4.402   3.415   0.859  0.4434 -0.5938  1.0147
14975TIP3   OH244865   1.401   4.761   3.091  0.3331  0.1327  0.1646
14975TIP3    H144866   1.453   4.838   3.071 -1.0279  1.3410  1.1091
14975TIP3    H244867   1.326   4.766   3.033  0.0968 -0.3411  0.4169
14976TIP3   OH244868   0.367   4.496   6.658  0.0282 -0.0021  0.2587
14976TIP3    H144869   0.447   4.545   6.675  1.5588 -2.3749  0.4574
14976TIP3    H244870   0.376   4.466   6.567 -0.5761 -0.3361  0.3035
14977TIP3   OH244871   1.787   7.207   2.278  0.2359  0.2330  0.1134
14977TIP3    H144872   1.744   7.151   2.215 -1.5836 -0.5547  1.9502
14977TIP3    H244873   1.724   7.217   2.349  2.2481  0.8648  1.9387
14978TIP3   OH244874   1.662   2.025   2.252  0.1498 -0.2223 -0.0498
14978TIP3    H144875   1.581   2.013   2.300  0.7806  0.8477  1.3309
14978TIP3    H244876   1.687   1.937   2.224 -0.5024 -0.7958  1.1342
14979TIP3   OH244877   1.928   6.213   1.544 -0.4430 -0.2053  0.8057
14979TIP3    H144878   1.932   6.175   1.457  0.8113  1.1085  0.2415
14979TIP3    H244879   1.853   6.271   1.542 -1.2694 -1.2262  1.0904
14980TIP3   OH244880   5.039   5.588   0.421  0.1586 -0.3133 -0.7278
14980TIP3    H144881   5.057   5.514   0.478 -0.4587  0.5883  0.6970
14980TIP3    H244882   5.097   5.658   0.453 -0.7813  0.4563 -0.6602
14981TIP3   OH244883   6.994   6.953   2.712  0.2711 -0.3788 -0.2269
14981TIP3    H144884   7.041   6.941   2.630 -0.6348  0.8244 -0.9712
14981TIP3    H244885   7.043   7.021   2.758  1.3564 -1.7620  0.7231
14982TIP3   OH244886   2.658   4.546   6.345 -0.6187 -0.6099 -0.6839
14982TIP3    H144887   2.671   4.641   6.349  0.1229 -0.7271  0.2251
14982TIP3    H244888   2.738   4.510   6.383 -1.0757 -1.5877 -0.6267
14983TIP3   OH244889   4.741   1.876   4.059  0.2507  0.2598  0.2874
14983TIP3    H144890   4.736   1.796   4.006 -0.9175  0.5032  0.0120
14983TIP3    H244891   4.835   1.896   4.062  0.4171 -0.1775 -1.0648
14984TIP3   OH244892   0.953   3.070   6.101 -0.1172 -0.7531 -0.6571
14984TIP3    H144893   0.892   3.143   6.099  0.2665 -0.4442 -2.0995
14984TIP3    H244894   0.943   3.032   6.189 -0.0726  1.2234  0.2518
14985TIP3   OH244895   6.158   6.922   5.988  0.5075 -0.1657 -0.0406
14985TIP3    H144896   6.126   6.902   6.076 -1.8140  2.6026 -0.1263
14985TIP3    H244897   6.090   6.891   5.929  0.2362  1.3768 -0.5792
14986TIP3   OH244898   5.278   7.765   0.567 -0.0219  0.6594 -0.3369
14986TIP3    H144899   5.347   7.819   0.530 -0.3774  1.5269  0.2276
14986TIP3    H244900   5.283   7.780   0.661  0.5284 -1.1052 -0.0475
14987TIP3   OH244901   1.824   1.836   4.518 -0.6107  0.8191 -0.1295
14987TIP3    H144902   1.802   1.837   4.611 -0.3034  0.5918 -0.0530
14987TIP3    H244903   1.907   1.884   4.513 -0.7601  1.0619 -0.3219
14988TIP3   OH244904   5.855   7.080   5.913  0.5878 -0.7105 -0.1828
14988TIP3    H144905   5.847   7.134   5.835 -1.3880 -1.4405 -0.5437
14988TIP3    H244906   5.920   7.125   5.967 -0.7731  1.8798 -0.5539
14989TIP3   OH244907   8.314   6.185   5.433  0.2307 -0.8991  0.0877
14989TIP3    H144908   8.327   6.255   5.369  1.2727 -1.0816  0.0902
14989TIP3    H244909   8.377   6.117   5.408 -0.6534 -1.7866  0.1730
14990TIP3   OH244910   0.187   5.192   6.553  0.2102  0.2587  0.2548
14990TIP3    H144911   0.279   5.165   6.557  0.5936  1.1873 -1.1802
14990TIP3    H244912   0.190   5.286   6.571 -0.2458  0.5837 -1.2109
14991TIP3   OH244913   4.886   2.440   4.870 -0.0980 -0.1169  0.0307
14991TIP3    H144914   4.935   2.365   4.906 -1.4582 -1.0442  0.0288
14991TIP3    H244915   4.953   2.505   4.851  0.9523 -0.6059  1.7863
14992TIP3   OH244916   0.146   7.570   6.169 -0.2610  0.5856  0.1319
14992TIP3    H144917   0.141   7.586   6.263 -0.6094 -0.2893  0.2694
14992TIP3    H244918   0.229   7.611   6.142 -0.4358  1.3462  0.7000
14993TIP3   OH244919   3.814   6.882   3.182 -0.0226 -0.1186 -0.5211
14993TIP3    H144920   3.745   6.857   3.242  0.8695 -0.6693  0.3051
14993TIP3    H244921   3.838   6.800   3.138  0.7114 -0.1197 -0.1388
14994TIP3   OH244922   0.679   5.936   5.131 -0.1189  0.7075 -0.5181
14994TIP3    H144923   0.659   5.887   5.051  1.9961  0.2728 -0.8512
14994TIP3    H244924   0.625   5.895   5.199 -0.2468 -0.4455 -1.2872
14995TIP3   OH244925   5.842   5.937   4.352  0.4365  0.5102  0.0907
14995TIP3    H144926   5.790   5.910   4.427  2.1335  1.8080  1.8514
14995TIP3    H244927   5.933   5.919   4.378  1.0237 -0.0219 -2.1201
14996TIP3   OH244928   6.671   0.722   6.849 -0.0053  0.0342 -0.1975
14996TIP3    H144929   6.679   0.810   6.887 -1.0798  0.0242  0.0769
14996TIP3    H244930   6.593   0.727   6.793  0.8601 -0.2890 -1.4922
14997TIP3   OH244931   7.452   0.900   0.628 -0.2547 -0.6271  0.6208
14997TIP3    H144932   7.434   0.810   0.657 -2.5217  0.2527  2.3022
14997TIP3    H244933   7.453   0.951   0.709  2.2165  0.7576 -0.1760
14998TIP3   OH244934   1.530   6.444   5.902  0.1373 -0.0583  0.6104
14998TIP3    H144935   1.459   6.409   5.956 -1.8644  1.4260 -0.9058
14998TIP3    H244936   1.552   6.528   5.942 -0.4457  0.4478 -0.1170
14999TIP3   OH244937   7.135   7.125   0.868  0.5586  0.0139  0.1238
14999TIP3    H144938   7.225   7.143   0.893 -0.0696  1.9642  1.1257
14999TIP3    H244939   7.086   7.126   0.950 -0.7755  1.6405 -0.6254
15000TIP3   OH244940   1.209   7.658   5.578 -0.2397 -0.5440 -0.1803
15000TIP3    H144941   1.179   7.702   5.658 -0.1797  0.9135 -0.9298
15000TIP3    H244942   1.158   7.577   5.575 -0.1949 -0.6602  1.3547
15001TIP3   OH244943   6.733   4.700   1.125 -0.8066 -0.0397 -0.0914
15001TIP3    H144944   6.824   4.671   1.129 -0.3180  1.5523  1.3849
15001TIP3    H244945   6.689   4.633   1.072  1.3810 -0.3428 -1.6596
15002TIP3   OH244946   6.559   0.479   4.970  0.3283 -0.0907 -0.7658
15002TIP3    H144947   6.539   0.389   4.945 -1.6737  0.1452 -0.2255
15002TIP3    H244948   6.524   0.487   5.059 -1.2767  1.7032 -1.4716
15003TIP3   OH244949   1.778   2.253   4.611 -0.4490  0.1469  0.1418
15003TIP3    H144950   1.825   2.192   4.666  1.3539  1.0158 -0.3626
15003TIP3    H244951   1.838   2.327   4.599 -0.2090 -0.4381 -3.8345
15004TIP3   OH244952   1.866   1.428   2.030  0.1487  0.1710 -0.0429
15004TIP3    H144953   1.862   1.521   2.053 -0.1548  0.1842 -0.1394
15004TIP3    H244954   1.776   1.397   2.044  0.4121 -0.2806  0.7164
15005TIP3   OH244955   6.722   6.619   3.493 -0.3869 -0.1044 -0.0604
15005TIP3    H144956   6.785   6.623   3.566 -0.7718 -1.0202  0.3286
15005TIP3    H244957   6.739   6.699   3.443 -0.6983  1.0104  1.5248
15006TIP3   OH244958   5.915   2.405   6.481  0.2244  0.0851  0.0016
15006TIP3    H144959   5.941   2.370   6.566  1.2442 -0.1683 -0.3993
15006TIP3    H244960   5.951   2.344   6.417 -0.3962  0.3559 -0.6263
15007TIP3   OH244961   0.630   3.194   4.911 -0.0408 -0.3048 -0.1807
15007TIP3    H144962   0.570   3.167   4.842 -0.4669  0.2448 -0.0340
15007TIP3    H244963   0.714   3.207   4.867  0.0329 -1.2972 -0.3477
15008TIP3   OH244964   7.836   1.907   0.249  0.1770  0.4195  0.3696
15008TIP3    H144965   7.772   1.882   0.315 -0.7566  2.5685  0.3469
15008TIP3    H244966   7.796   1.981   0.203  1.3346 -0.1886 -1.7672
15009TIP3   OH244967   0.349   2.626   1.669 -0.3758  1.0836 -0.1159
15009TIP3    H144968   0.316   2.580   1.746 -1.0397  1.4163 -0.2004
15009TIP3    H244969   0.338   2.719   1.689 -0.7652  1.1721 -0.6980
15010TIP3   OH244970   6.107   4.637   3.229 -0.4429  0.6823  0.4214
15010TIP3    H144971   6.025   4.596   3.201 -0.7944  1.6081  0.0420
15010TIP3    H244972   6.080   4.705   3.291  0.0233  1.0891  0.1834
15011TIP3   OH244973   3.552   7.750   5.323  0.2509  0.6943  0.3758
15011TIP3    H144974   3.519   7.818   5.265 -1.3518 -0.8120 -0.5623
15011TIP3    H244975   3.515   7.669   5.289  2.1941 -0.7036  1.3710
15012TIP3   OH244976   5.922   7.530   1.590  0.1104  0.3826 -0.3989
15012TIP3    H144977   5.921   7.440   1.623 -1.6369  0.5980  0.2010
15012TIP3    H244978   5.927   7.520   1.495  0.6154 -0.3162 -0.3147
15013TIP3   OH244979   6.544   0.549   3.018 -0.0999  0.4009 -0.8911
15013TIP3    H144980   6.590   0.562   3.101 -1.5374  0.3712 -0.0498
15013TIP3    H244981   6.591   0.604   2.955  2.9241 -1.9158 -0.8328
15014TIP3   OH244982   3.779   3.229   6.685  0.0938  0.5607 -0.0227
15014TIP3    H144983   3.829   3.149   6.671 -1.7645 -0.7075  0.2437
15014TIP3    H244984   3.760   3.262   6.597  0.1449  0.2307 -0.1576
15015TIP3   OH244985   7.820   5.082   1.067  0.1012 -0.0125 -0.1861
15015TIP3    H144986   7.856   5.136   1.138 -0.9312 -0.5625  0.7800
15015TIP3    H244987   7.862   4.997   1.078 -1.2056 -0.5619  0.7489
15016TIP3   OH244988   0.043   2.011   6.606  0.2555 -0.4060  0.3158
15016TIP3    H144989  -0.026   1.992   6.669 -0.4606 -2.2351 -0.9406
15016TIP3    H244990   0.049   1.932   6.552  1.9612  0.4741 -0.8747
15017TIP3   OH244991   4.634   6.833   0.315  0.5842  0.2298 -0.1533
15017TIP3    H144992   4.589   6.914   0.291 -2.3471 -1.3038 -0.1711
15017TIP3    H244993   4.603   6.768   0.252 -0.4074 -1.8415  2.3104
15018TIP3   OH244994   1.733   4.852   3.486 -0.4626 -0.3119 -0.4981
15018TIP3    H144995   1.818   4.887   3.512 -2.0087  2.7834  1.1111
15018TIP3    H244996   1.695   4.818   3.568 -1.5616  0.3380 -0.7116
15019TIP3   OH244997   2.099   4.921   0.247  0.4500  0.0086 -0.0652
15019TIP3    H144998   2.045   4.972   0.187 -0.8584  0.3831  1.3610
15019TIP3    H244999   2.174   4.977   0.266  0.1423  0.4900 -0.2491
15020TIP3   OH245000   1.288   3.083   4.891 -0.4287 -0.0603  0.1659
15020TIP3    H145001   1.197   3.103   4.868 -0.2486  1.0492  0.3573
15020TIP3    H245002   1.329   3.064   4.806 -0.9975 -1.3719  0.1520
15021TIP3   OH245003   4.613   5.315   4.693 -0.0687 -0.2095 -0.4683
15021TIP3    H145004   4.621   5.405   4.724 -0.1041  0.2191 -1.6364
15021TIP3    H245005   4.628   5.261   4.770  0.8148  0.7832  0.0763
15022TIP3   OH245006   2.032   4.013   4.892  0.2149  0.1836 -0.0921
15022TIP3    H145007   2.111   4.006   4.838  0.4105 -0.4716  0.2632
15022TIP3    H245008   2.061   4.059   4.970  0.4279 -0.6745  0.3517
15023TIP3   OH245009   3.432   1.455   4.414  0.2232  0.5726 -0.4449
15023TIP3    H145010   3.526   1.475   4.412  0.8191 -1.3386  2.2663
15023TIP3    H245011   3.422   1.381   4.354  0.6961  0.1011  0.0402
15024TIP3   OH245012   1.299  -0.016   3.760  0.5346  0.1050 -0.2825
15024TIP3    H145013   1.257   0.029   3.834  0.3722  0.5441 -0.6383
15024TIP3    H245014   1.376   0.037   3.740 -0.4670  1.1028 -1.6708
15025TIP3   OH245015   5.053   6.512   1.547 -0.1563  0.3692  0.6563
15025TIP3    H145016   5.123   6.448   1.534 -0.7443 -0.2685  0.5644
15025TIP3    H245017   5.091   6.596   1.521  0.0788 -0.2059 -0.9220
15026TIP3   OH245018   1.455   4.699   1.746  0.3707 -0.1547  0.4096
15026TIP3    H145019   1.397   4.624   1.736 -0.3828  0.3372  0.9442
15026TIP3    H245020   1.396   4.774   1.756  1.1029  0.4085  0.6218
15027TIP3   OH245021   3.092   0.411   1.050  0.5819  0.2904 -0.2189
15027TIP3    H145022   3.147   0.414   0.972  1.5270 -0.9763  0.3639
15027TIP3    H245023   3.152   0.389   1.121 -0.2466  1.4988  0.8996
15028TIP3   OH245024   8.194   3.156   5.415  0.5321  0.0807 -0.3636
15028TIP3    H145025   8.114   3.117   5.450  1.8354 -1.8899  0.5478
15028TIP3    H245026   8.225   3.214   5.484  0.2127  0.4035 -0.4872
15029TIP3   OH245027   3.169   0.088   5.039 -0.1044  0.0225  0.3991
15029TIP3    H145028   3.170   0.175   5.000 -0.1985  1.6284  3.5987
15029TIP3    H245029   3.076   0.070   5.055 -0.0468 -0.3883  0.2634
15030TIP3   OH245030   1.095   4.095   2.575 -0.1102  0.5699 -0.1464
15030TIP3    H145031   1.054   4.110   2.490  0.1910 -0.4968 -0.5055
15030TIP3    H245032   1.022   4.092   2.637 -0.4172  0.4521 -0.5091
15031TIP3   OH245033   1.315   1.823   4.406 -0.2734  0.3490  0.0544
15031TIP3    H145034   1.348   1.892   4.463  0.7341 -0.5813  0.6368
15031TIP3    H245035   1.297   1.750   4.465 -0.5556 -0.1646 -0.6490
15032TIP3   OH245036   6.769   3.202   4.790 -0.7809 -0.4037 -0.1564
15032TIP3    H145037   6.839   3.212   4.725  0.0817 -0.2194  0.7622
15032TIP3    H245038   6.766   3.286   4.835 -0.5741 -0.8699  0.7788
15033TIP3   OH245039   4.842   7.889   6.069 -0.1245  0.0092  0.7435
15033TIP3    H145040   4.875   7.837   6.142 -0.6858 -1.6701 -0.1225
15033TIP3    H245041   4.804   7.824   6.010  2.1309  1.0207 -2.0458
15034TIP3   OH245042   8.183   5.449   4.127  0.4707  0.4568  0.2450
15034TIP3    H145043   8.197   5.532   4.172 -2.3253  1.7854 -1.0230
15034TIP3    H245044   8.091   5.452   4.100  0.4980 -2.7005 -0.6424
15035TIP3   OH245045   0.859   7.700   3.826  0.2336  0.1090  0.2907
15035TIP3    H145046   0.838   7.607   3.828  0.6591 -0.0128 -0.4694
15035TIP3    H245047   0.917   7.710   3.751  1.6315  0.7074  1.4198
15036TIP3   OH245048   0.759   6.682   4.741  0.2558 -0.4894 -0.5188
15036TIP3    H145049   0.667   6.709   4.741 -0.1574 -1.8116 -0.2789
15036TIP3    H245050   0.804   6.748   4.793 -0.4998  0.3517 -0.9141
15037TIP3   OH245051   5.717   4.789   6.599  0.4444  0.2196 -0.0302
15037TIP3    H145052   5.804   4.782   6.638  1.1723 -1.0579 -1.7565
15037TIP3    H245053   5.686   4.876   6.625  2.4582  0.9249  0.1949
15038TIP3   OH245054   0.449   4.066   3.930  0.2166  0.4110 -0.2324
15038TIP3    H145055   0.379   4.129   3.914  0.5646  0.6965 -0.6575
15038TIP3    H245056   0.522   4.118   3.963  0.3736  0.1731 -0.2001
15039TIP3   OH245057   2.836   7.614   2.674 -0.1789  0.1468 -0.2854
15039TIP3    H145058   2.828   7.653   2.587  1.1357  0.5731 -0.2452
15039TIP3    H245059   2.845   7.520   2.658  1.3601  0.3441 -0.7268
15040TIP3   OH245060   5.525   3.002   1.573 -0.4360  0.5986  1.0543
15040TIP3    H145061   5.442   2.960   1.593 -0.4445  0.2180  0.2558
15040TIP3    H245062   5.546   2.973   1.484  0.5502  0.6878  1.2482
15041TIP3   OH245063   2.699   4.874   3.802  0.2037 -0.1972 -0.0445
15041TIP3    H145064   2.666   4.945   3.748 -1.0066 -0.2920  0.5281
15041TIP3    H245065   2.620   4.832   3.837  0.9186  0.0996  2.0716
15042TIP3   OH245066   7.205   7.224   5.041  0.1200 -0.3743  0.1944
15042TIP3    H145067   7.291   7.219   5.000 -0.4662  1.0851 -1.3041
15042TIP3    H245068   7.154   7.155   5.000 -0.2122  0.5416 -0.9972
15043TIP3   OH245069   2.346   4.043   2.675  0.2118 -0.4005 -0.5716
15043TIP3    H145070   2.305   4.129   2.669 -2.2720 -1.5084 -0.5037
15043TIP3    H245071   2.389   4.043   2.760  2.0106  1.4358 -1.4008
15044TIP3   OH245072   5.343   1.040   4.414  0.0989 -0.2353  0.0051
15044TIP3    H145073   5.408   0.990   4.464  0.3856 -0.5143 -0.6317
15044TIP3    H245074   5.284   1.076   4.480  0.0158 -1.2309  0.4973
15045TIP3   OH245075   3.467   6.755   5.117  0.0128  0.1270  0.1392
15045TIP3    H145076   3.388   6.704   5.137  0.0430  0.0114 -0.0320
15045TIP3    H245077   3.440   6.847   5.128 -0.1383  0.0862  0.1074
15046TIP3   OH245078   6.151   7.614   2.108  0.0590  0.1920  0.1286
15046TIP3    H145079   6.193   7.605   2.194  0.0065 -0.3562  0.1031
15046TIP3    H245080   6.097   7.535   2.100 -0.0368  0.3039 -0.3526
15047TIP3   OH245081   7.967   6.433   5.276 -0.1146  0.3233  0.3577
15047TIP3    H145082   7.957   6.479   5.192 -0.3663  0.6228  0.5497
15047TIP3    H245083   7.998   6.345   5.252 -0.1889  0.4067 -0.0468
15048TIP3   OH245084   0.066   4.178   5.483 -0.1363  0.2873 -0.2778
15048TIP3    H145085   0.133   4.238   5.451 -0.3677  0.4374 -0.4804
15048TIP3    H245086  -0.016   4.226   5.473 -0.1167  0.8047  1.6482
15049TIP3   OH245087   3.478   6.213   6.771 -0.1357 -0.3730 -0.3641
15049TIP3    H145088   3.400   6.244   6.724 -0.2020 -0.8218 -0.5512
15049TIP3    H245089   3.550   6.263   6.733 -0.2162 -0.5972 -0.8176
15050TIP3   OH245090   1.492   0.416   2.944 -0.4438 -0.0267 -0.4616
15050TIP3    H145091   1.459   0.351   2.882 -1.9683  0.3700 -0.1102
15050TIP3    H245092   1.587   0.414   2.932 -0.4993 -1.7857 -0.9763
15051TIP3   OH245093   2.983   0.409   4.838  0.5130 -0.3423  0.7685
15051TIP3    H145094   3.026   0.441   4.917  0.5191 -1.2537  1.1482
15051TIP3    H245095   3.052   0.363   4.790  0.5716  0.4433  0.0982
15052TIP3   OH245096   1.619   6.572   1.369  0.0062  0.1795  0.0003
15052TIP3    H145097   1.675   6.580   1.292  1.4271 -2.3326  0.6578
15052TIP3    H245098   1.676   6.590   1.443 -0.5896 -0.2686  0.5820
15053TIP3   OH245099   2.745   0.966   6.752  0.1216  0.3965 -0.0999
15053TIP3    H145100   2.806   0.910   6.800 -0.5255  1.0984  1.6115
15053TIP3    H245101   2.662   0.919   6.754  0.9512 -1.8475 -4.6799
15054TIP3   OH245102   6.409   3.630   4.339  0.3519  0.2758 -0.1577
15054TIP3    H145103   6.472   3.637   4.410 -1.2638  2.7950  1.1462
15054TIP3    H245104   6.350   3.560   4.367 -0.1186  1.0713  0.8851
15055TIP3   OH245105   5.309   6.098   4.360 -0.1411 -0.2626 -0.1301
15055TIP3    H145106   5.335   6.189   4.371  0.7333 -0.4356 -0.6744
15055TIP3    H245107   5.385   6.056   4.319 -0.8584 -1.0466 -0.6753
15056TIP3   OH245108   3.919   7.251   5.414  0.6123 -0.1033 -0.4911
15056TIP3    H145109   4.013   7.265   5.403  0.2506  2.3563 -1.1290
15056TIP3    H245110   3.882   7.340   5.415 -1.7453 -1.0229 -0.6687
15057TIP3   OH245111   6.200   5.298   1.752  0.3574  0.6129  0.2363
15057TIP3    H145112   6.211   5.393   1.756  0.7451  0.6515 -1.0390
15057TIP3    H245113   6.219   5.277   1.660  0.3997 -0.7087  0.5397
15058TIP3   OH245114   0.314   6.771   2.591 -0.1610 -0.3516 -0.0044
15058TIP3    H145115   0.307   6.681   2.558  0.3658  0.1785 -1.6860
15058TIP3    H245116   0.264   6.823   2.528  1.2297  0.7771 -0.2199
15059TIP3   OH245117   4.588   0.358   3.711  0.1364 -0.0528 -0.3631
15059TIP3    H145118   4.567   0.299   3.639 -3.5377  0.4383  0.1247
15059TIP3    H245119   4.617   0.438   3.668  1.6058 -0.9483 -1.1181
15060TIP3   OH245120   6.067   0.046   6.501 -0.0651 -0.1294  0.1071
15060TIP3    H145121   6.031  -0.002   6.575 -0.7294 -0.4946 -0.4418
15060TIP3    H245122   6.061  -0.015   6.428 -0.6448  0.6692 -0.5344
15061TIP3   OH245123   2.200   5.212   5.834  0.4596  0.9992  0.1720
15061TIP3    H145124   2.132   5.211   5.767 -1.0916  0.9461  1.6746
15061TIP3    H245125   2.155   5.240   5.914  1.5825 -1.4812  1.8295
15062TIP3   OH245126   2.208   7.710   3.457  0.0597 -0.0373  0.4469
15062TIP3    H145127   2.151   7.782   3.431  0.0475 -0.0244  0.5071
15062TIP3    H245128   2.221   7.659   3.377  0.9123  0.6033  0.1633
15063TIP3   OH245129   1.879   1.636   0.410 -0.1123 -0.1331  0.0885
15063TIP3    H145130   1.915   1.556   0.449 -0.5774  0.1327  1.1263
15063TIP3    H245131   1.866   1.694   0.485  0.0566  0.8505 -0.6359
15064TIP3   OH245132   4.728   4.601   4.308  0.1134 -0.8034  0.3188
15064TIP3    H145133   4.802   4.659   4.287  0.1602 -0.6327  0.9300
15064TIP3    H245134   4.675   4.600   4.229  0.2919 -0.1903  0.1853
15065TIP3   OH245135   4.068   2.931   2.338  0.3719 -0.0767  0.1821
15065TIP3    H145136   4.086   3.009   2.285  3.4071 -0.9229 -0.2405
15065TIP3    H245137   4.141   2.872   2.319 -1.6714 -2.9729  0.6767
15066TIP3   OH245138   5.433   7.457   4.031  0.3205  0.2131 -0.3389
15066TIP3    H145139   5.351   7.427   4.068  0.3571 -0.7698 -1.0459
15066TIP3    H245140   5.413   7.477   3.940  0.8415  0.0513 -0.4925
15067TIP3   OH245141   3.934   7.748   5.823  0.2541  0.5986  0.1091
15067TIP3    H145142   3.924   7.799   5.743  2.5851  0.9475 -0.0252
15067TIP3    H245143   4.004   7.686   5.803  0.6578  0.4708  1.7613
15068TIP3   OH245144   0.412   4.238   3.097 -0.0582 -0.1185  0.2629
15068TIP3    H145145   0.371   4.268   3.016  1.1267 -2.1982 -1.1966
15068TIP3    H245146   0.491   4.291   3.105 -0.8848  1.0522  0.8441
15069TIP3   OH245147   2.233   1.017   4.746  0.3274  0.0881 -0.2101
15069TIP3    H145148   2.156   0.965   4.724  0.5664  0.1897 -1.3499
15069TIP3    H245149   2.307   0.966   4.712  0.7693  0.0310  0.7956
15070TIP3   OH245150   6.374   6.650   4.575 -0.0419 -0.5570  0.4353
15070TIP3    H145151   6.323   6.673   4.498  0.0721  0.8055  0.7385
15070TIP3    H245152   6.326   6.688   4.648  0.3779 -0.9623  0.9292
15071TIP3   OH245153   5.025   4.591   0.894  0.5504 -0.5693  0.3478
15071TIP3    H145154   4.994   4.598   0.803 -0.7767 -1.7900  0.6790
15071TIP3    H245155   4.959   4.638   0.945  1.4099  0.2991  0.6793
15072TIP3   OH245156   2.716   7.843   3.877  0.6582  0.7202  0.3047
15072TIP3    H145157   2.694   7.934   3.897 -0.4398  0.2738  1.1684
15072TIP3    H245158   2.633   7.796   3.879  1.2987 -0.4476  0.6128
15073TIP3   OH245159   7.173   1.828   0.763  0.2203 -0.5983  0.2486
15073TIP3    H145160   7.198   1.914   0.798 -0.6784 -1.6202  3.8284
15073TIP3    H245161   7.251   1.774   0.773 -0.3639 -1.1953  1.9537
15074TIP3   OH245162   5.824   3.779   1.610 -0.2377  0.1592  0.0383
15074TIP3    H145163   5.769   3.705   1.635 -0.9855  1.3016  1.9902
15074TIP3    H245164   5.804   3.846   1.675  2.0207  1.3110 -0.3786
15075TIP3   OH245165   6.428   7.429   3.972 -0.5104 -0.0631 -0.3101
15075TIP3    H145166   6.480   7.404   4.049 -0.9553  0.2428  0.0960
15075TIP3    H245167   6.339   7.441   4.005 -0.6293  0.4717 -0.7912
15076TIP3   OH245168   6.458   0.798   6.712  0.1826 -0.4408  0.0146
15076TIP3    H145169   6.373   0.817   6.752  0.2213 -1.1622  0.4593
15076TIP3    H245170   6.440   0.794   6.618 -0.9836 -3.7552  0.2475
15077TIP3   OH245171   5.937   0.097   1.572 -0.0089  0.1750  0.2156
15077TIP3    H145172   5.960   0.024   1.516  1.8919  0.4764  0.5344
15077TIP3    H245173   5.866   0.064   1.627 -0.6589 -0.6945 -1.1051
15078TIP3   OH245174   5.075   2.805   6.819 -0.1595  0.3823  0.1935
15078TIP3    H145175   4.982   2.812   6.837 -0.1465 -0.6288  0.7420
15078TIP3    H245176   5.113   2.768   6.899  0.7847  1.1734  0.1358
15079TIP3   OH245177   7.502   2.567   5.247 -0.1708  0.1555 -0.0771
15079TIP3    H145178   7.505   2.495   5.310 -0.4080 -0.4077 -0.7048
15079TIP3    H245179   7.465   2.640   5.297  2.7013  0.7513  1.4114
15080TIP3   OH245180   0.824   1.197   0.557  0.9241 -0.2296  0.5511
15080TIP3    H145181   0.869   1.280   0.539 -1.4666  1.1536  0.4949
15080TIP3    H245182   0.888   1.145   0.606  2.7438  1.3572 -0.0172
15081TIP3   OH245183   0.644   6.841   5.214 -0.0264 -0.2312 -0.0930
15081TIP3    H145184   0.646   6.780   5.141 -0.6596  1.2780 -1.4437
15081TIP3    H245185   0.555   6.876   5.213  0.2262  0.4629  0.8418
15082TIP3   OH245186   5.800   0.507   1.462  0.2497  0.2122 -0.6662
15082TIP3    H145187   5.856   0.479   1.534 -1.2083  0.6855  0.7144
15082TIP3    H245188   5.719   0.457   1.473 -0.0204  0.3236 -1.9711
15083TIP3   OH245189   1.027   3.832   1.891  0.0820  0.0771  0.2357
15083TIP3    H145190   1.018   3.777   1.969 -0.8878  0.7529  0.6300
15083TIP3    H245191   0.944   3.880   1.887  0.7048  1.1378 -0.3740
15084TIP3   OH245192   1.861   4.764   6.762 -0.1598  0.3617 -0.4447
15084TIP3    H145193   1.848   4.843   6.710  1.0994  1.4364  0.7797
15084TIP3    H245194   1.797   4.770   6.833 -0.8485 -0.3194 -1.0051
15085TIP3   OH245195   2.867   0.758   2.252  0.0706 -0.0101  0.6720
15085TIP3    H145196   2.863   0.665   2.276 -2.0170 -0.3889 -0.9116
15085TIP3    H245197   2.778   0.790   2.261  0.3096  1.2594 -0.9436
15086TIP3   OH245198   0.341   6.990   5.869  0.0171 -0.4912  0.0315
15086TIP3    H145199   0.299   7.034   5.943  0.1394 -1.3581  0.6451
15086TIP3    H245200   0.280   7.000   5.797  0.2586  1.0662  0.0210
15087TIP3   OH245201   5.005   0.254   1.989  0.5197  0.0817 -0.0181
15087TIP3    H145202   5.037   0.166   2.010  1.2320 -0.0474 -1.5321
15087TIP3    H245203   5.076   0.312   2.016  1.1347 -0.0299 -1.3232
15088TIP3   OH245204   3.474   6.042   5.421 -0.0632 -0.4870  0.0715
15088TIP3    H145205   3.460   5.968   5.479 -0.3519  0.0879  0.7515
15088TIP3    H245206   3.452   6.119   5.474  0.9020  0.1335 -0.4004
15089TIP3   OH245207   6.863   0.663   0.316  1.0131 -0.1791 -0.0628
15089TIP3    H145208   6.863   0.638   0.408  1.3399 -1.3033 -0.3466
15089TIP3    H245209   6.944   0.625   0.281  0.8285  0.1210 -0.8447
15090TIP3   OH245210   5.767   4.701   3.743  0.2226 -0.1348  0.1018
15090TIP3    H145211   5.850   4.662   3.768 -0.5339 -1.0835  1.2715
15090TIP3    H245212   5.767   4.698   3.648  1.1940 -0.8441  0.1077
15091TIP3   OH245213   0.158   5.555   5.025  1.0027 -0.2919 -0.4022
15091TIP3    H145214   0.151   5.648   5.049 -0.6144 -0.1591 -1.2548
15091TIP3    H245215   0.068   5.526   5.016  1.4789 -1.3421 -2.3909
15092TIP3   OH245216   3.014   6.657   0.392  0.2495 -0.0595 -0.0490
15092TIP3    H145217   2.945   6.595   0.416  0.4946 -0.1626  0.3957
15092TIP3    H245218   3.090   6.602   0.373  0.4177  0.0937  0.1786
15093TIP3   OH245219   7.220   4.450   5.149  1.0771  0.0747  0.3417
15093TIP3    H145220   7.312   4.454   5.123  1.0602  1.2326  0.4380
15093TIP3    H245221   7.214   4.370   5.201  1.7323 -0.7422 -0.7799
15094TIP3   OH245222   7.649   6.780   0.599  0.0720 -0.2498  0.4001
15094TIP3    H145223   7.666   6.787   0.693  1.0728 -0.4036  0.2430
15094TIP3    H245224   7.729   6.811   0.558 -0.9529  1.3672 -0.4470
15095TIP3   OH245225   0.340   2.339   2.221  0.2284  0.4063 -0.1276
15095TIP3    H145226   0.384   2.423   2.207  0.6512  0.3761  0.9816
15095TIP3    H245227   0.253   2.352   2.184  0.2699  1.3461  0.0753
15096TIP3   OH245228   4.122   4.863   2.157 -0.1298  0.6629 -0.5325
15096TIP3    H145229   4.189   4.821   2.104  0.8730  2.0282 -0.4297
15096TIP3    H245230   4.069   4.913   2.095 -1.5393 -0.9661 -0.7007
15097TIP3   OH245231   4.027   2.554   3.807 -0.3324  0.0764  0.2875
15097TIP3    H145232   4.078   2.482   3.770  0.8089  0.1848  1.5379
15097TIP3    H245233   4.068   2.633   3.772  0.3567  0.1626  1.2421
15098TIP3   OH245234   5.372   5.352   1.434  0.4090  0.4473 -0.2381
15098TIP3    H145235   5.399   5.438   1.400  0.0317  0.3971 -0.6793
15098TIP3    H245236   5.392   5.356   1.527 -1.3158  1.7217  0.1357
15099TIP3   OH245237   4.501   7.578   5.588 -0.3452  0.0932 -0.1799
15099TIP3    H145238   4.556   7.564   5.511 -2.0758 -0.5303 -1.3486
15099TIP3    H245239   4.523   7.666   5.617  2.5648 -0.7430  0.5196
15100TIP3   OH245240   4.578   7.654   3.001  0.1649 -1.3408  0.1534
15100TIP3    H145241   4.587   7.656   2.906 -2.4189  0.7613 -0.1766
15100TIP3    H245242   4.641   7.719   3.033  0.7642 -1.7776 -0.1220
15101TIP3   OH245243   8.184   4.295   4.078 -0.0648  0.1533 -0.1022
15101TIP3    H145244   8.234   4.242   4.015 -1.2112  0.8866 -1.6617
15101TIP3    H245245   8.151   4.231   4.141  0.0417 -0.7610 -0.9519
15102TIP3   OH245246   5.153   1.510   0.262  0.4398 -0.0054 -0.0379
15102TIP3    H145247   5.236   1.481   0.299  0.3016  0.3830  0.5866
15102TIP3    H245248   5.164   1.605   0.251  0.1296  0.0250 -0.0921
15103TIP3   OH245249   6.483   0.117   5.943 -0.7224  0.3112 -0.0809
15103TIP3    H145250   6.551   0.080   5.887 -0.8515  0.0960 -0.0995
15103TIP3    H245251   6.527   0.138   6.025 -0.8319 -0.7644  0.2700
15104TIP3   OH245252   7.846   5.521   5.696  0.5633  0.2912 -0.3943
15104TIP3    H145253   7.792   5.443   5.704  0.7997  0.0390 -1.1405
15104TIP3    H245254   7.843   5.562   5.783  1.5643 -1.2722  0.4194
15105TIP3   OH245255   8.069   3.473   4.749  0.0214  0.1431 -0.5162
15105TIP3    H145256   8.104   3.538   4.810  1.4103 -0.8089 -0.2674
15105TIP3    H245257   8.074   3.390   4.795 -1.6864 -0.1920 -0.8582
15106TIP3   OH245258   7.539   4.553   0.064  0.0420  0.2817 -0.1156
15106TIP3    H145259   7.507   4.516  -0.019  0.4072  2.1677 -1.1537
15106TIP3    H245260   7.615   4.500   0.087 -0.8491 -1.1102 -0.2441
15107TIP3   OH245261   6.265   1.893   2.614  0.0268 -0.0278 -0.1217
15107TIP3    H145262   6.288   1.804   2.590  1.7498  0.3759 -0.1663
15107TIP3    H245263   6.237   1.888   2.705  1.1167 -0.4883  0.1993
15108TIP3   OH245264   2.780   2.797   5.783 -0.3336  0.2163  0.0414
15108TIP3    H145265   2.861   2.800   5.835  0.2800 -2.4453 -0.6008
15108TIP3    H245266   2.789   2.870   5.721  0.9028  0.8297  0.8914
15109TIP3   OH245267   7.205   0.924   3.633 -0.0207  0.0651  0.3482
15109TIP3    H145268   7.290   0.942   3.672  0.6706  1.2647 -1.5785
15109TIP3    H245269   7.150   0.998   3.661 -0.0682 -0.0478  0.5553
15110TIP3   OH245270   1.143   4.051   0.258  0.5104 -0.0530  0.3018
15110TIP3    H145271   1.072   3.995   0.288  0.3226  0.0133 -0.0144
15110TIP3    H245272   1.123   4.068   0.166  1.6461 -1.1665 -0.1920
15111TIP3   OH245273   7.588   1.174   6.316  0.4593 -0.0540  0.0335
15111TIP3    H145274   7.529   1.103   6.340 -0.8280  1.3534  1.2859
15111TIP3    H245275   7.623   1.206   6.399  0.6088  1.0821 -0.4403
15112TIP3   OH245276   0.548   6.182   4.375  0.2771 -0.4226  0.0474
15112TIP3    H145277   0.565   6.275   4.393 -1.7947 -0.0311  0.2491
15112TIP3    H245278   0.482   6.157   4.440  0.5328 -1.9490 -0.2458
15113TIP3   OH245279   2.113   4.799   4.292  0.4565  0.6095 -0.0341
15113TIP3    H145280   2.071   4.884   4.304 -1.3968 -0.2087 -0.2690
15113TIP3    H245281   2.045   4.735   4.317  0.5875 -0.8701 -2.9771
15114TIP3   OH245282   7.702   6.395   3.355  0.1618  0.1151  0.1255
15114TIP3    H145283   7.697   6.449   3.276  1.2414 -0.0497 -0.0684
15114TIP3    H245284   7.648   6.442   3.419  0.8996  1.3063 -0.1032
15115TIP3   OH245285   6.354   5.137   0.452 -0.5631  0.2732  0.0301
15115TIP3    H145286   6.366   5.223   0.492  3.5228  1.1401 -2.5464
15115TIP3    H245287   6.306   5.155   0.371  2.2147  0.6817 -1.6538
15116TIP3   OH245288   3.563   1.609   1.814  0.0087  0.3989  0.0032
15116TIP3    H145289   3.515   1.678   1.860 -0.6613  0.8622 -1.3514
15116TIP3    H245290   3.627   1.579   1.878  0.1737  2.1197  0.7121
15117TIP3   OH245291   6.875   3.607   0.933  0.5347 -0.0798 -0.2737
15117TIP3    H145292   6.908   3.538   0.990 -2.8588 -0.7274  1.1235
15117TIP3    H245293   6.919   3.686   0.963  2.0302 -1.0831  0.2944
15118TIP3   OH245294   7.173   1.409   6.800  0.5313 -0.4266  0.4306
15118TIP3    H145295   7.179   1.503   6.786  3.1163 -0.5524  0.0995
15118TIP3    H245296   7.231   1.372   6.733 -1.1008 -2.3394 -0.0130
15119TIP3   OH245297   4.506   4.637   4.489 -0.2038  0.0026  0.1888
15119TIP3    H145298   4.590   4.646   4.444  0.2512 -1.6413  0.6287
15119TIP3    H245299   4.491   4.542   4.494 -1.6924  0.2379  0.8358
15120TIP3   OH245300   8.182   7.095   4.748  0.1348  0.1764  0.1583
15120TIP3    H145301   8.172   7.030   4.679 -0.5328  0.4638 -0.0240
15120TIP3    H245302   8.175   7.046   4.830  0.1272 -0.0446  0.0242
15121TIP3   OH245303   3.443   4.215   2.331 -0.4480  0.0649 -0.4313
15121TIP3    H145304   3.383   4.229   2.258 -0.5548 -0.1794 -0.3910
15121TIP3    H245305   3.530   4.212   2.291 -0.1423  3.0151 -0.2401
15122TIP3   OH245306   3.683   1.375   0.646 -0.0241  0.2990 -0.1882
15122TIP3    H145307   3.631   1.437   0.697  0.4296  0.5551 -0.0336
15122TIP3    H245308   3.664   1.397   0.555 -0.3227  0.2785 -0.1296
15123TIP3   OH245309   7.987   3.934   3.898  0.6096  0.6950 -0.2866
15123TIP3    H145310   7.919   3.874   3.925 -2.8049  4.0372 -0.5942
15123TIP3    H245311   8.042   3.946   3.976 -1.2684  0.4914  1.1156
15124TIP3   OH245312   1.287   4.658   4.058  0.9699  0.1539 -0.1586
15124TIP3    H145313   1.266   4.618   3.974  0.8903  2.0238 -1.0891
15124TIP3    H245314   1.203   4.665   4.104  0.8920 -0.1425 -0.2555
15125TIP3   OH245315   8.313   6.223   2.247  0.2419  0.1013 -0.6829
15125TIP3    H145316   8.366   6.145   2.230 -0.4156 -0.7874  1.0420
15125TIP3    H245317   8.224   6.197   2.226  0.0538  0.4873 -0.3807
15126TIP3   OH245318   5.537   1.376   1.321 -0.7987 -0.9155 -0.9632
15126TIP3    H145319   5.456   1.325   1.312 -0.2830 -1.7831 -0.7459
15126TIP3    H245320   5.571   1.383   1.232 -0.6676 -1.2951 -0.9453
15127TIP3   OH245321   2.514   4.961   1.262  0.2261 -0.0182  0.0214
15127TIP3    H145322   2.509   5.055   1.249 -1.1648 -0.1793 -0.8127
15127TIP3    H245323   2.527   4.950   1.357  1.7914  1.0070 -0.0363
15128TIP3   OH245324   7.321   3.064   0.001  0.1152  0.0970 -0.1529
15128TIP3    H145325   7.272   3.105  -0.070 -0.8125 -1.3118 -0.3634
15128TIP3    H245326   7.271   3.085   0.080  0.8119  1.1409  0.0342
15129TIP3   OH245327   0.998   1.293   4.876  0.1784  0.2257 -0.0272
15129TIP3    H145328   0.994   1.237   4.953  0.9150 -0.5688 -0.5468
15129TIP3    H245329   0.909   1.329   4.868 -0.7087 -1.9265 -0.4387
15130TIP3   OH245330   3.952   1.257   2.134 -0.5643  0.4531  0.2239
15130TIP3    H145331   3.916   1.215   2.056 -0.0736 -0.0867  0.2801
15130TIP3    H245332   3.890   1.237   2.204 -0.3918 -0.0854  0.2252
15131TIP3   OH245333   7.084   6.503   3.538 -0.4682  0.1541  0.1401
15131TIP3    H145334   7.028   6.545   3.604  2.0059  1.1753  1.7252
15131TIP3    H245335   7.072   6.556   3.459 -3.1090 -0.7961 -0.1941
15132TIP3   OH245336   1.913   6.160   6.541  0.4040 -0.8925 -0.1564
15132TIP3    H145337   1.973   6.089   6.516  1.2192  0.1360 -1.2776
15132TIP3    H245338   1.967   6.219   6.593 -0.1213 -0.8030  0.2924
15133TIP3   OH245339   5.543   5.651   2.585 -0.2816 -0.2471 -0.2090
15133TIP3    H145340   5.507   5.738   2.602  0.3184 -0.1256  0.5079
15133TIP3    H245341   5.478   5.591   2.620 -1.2815 -0.1496 -1.8015
15134TIP3   OH245342   2.753   6.538   3.576  0.1868 -0.2946 -0.3067
15134TIP3    H145343   2.829   6.525   3.518  0.9712 -0.4020  0.7087
15134TIP3    H245344   2.679   6.505   3.526  1.1320 -2.3360 -0.4829
15135TIP3   OH245345   4.034   5.088   4.972 -0.1980 -0.3265 -0.5129
15135TIP3    H145346   4.040   5.181   4.951 -0.8596 -0.2000 -0.1514
15135TIP3    H245347   4.051   5.044   4.888 -0.5943  0.1353 -0.8423
15136TIP3   OH245348   2.282   3.985   4.795 -0.3296  1.0517  0.2691
15136TIP3    H145349   2.324   4.071   4.795  0.3650  0.7164 -0.3450
15136TIP3    H245350   2.296   3.951   4.707  0.5422 -0.2440  0.8779
15137TIP3   OH245351   7.364   3.643   3.822  0.2165  0.6058 -0.2174
15137TIP3    H145352   7.407   3.613   3.742 -0.8160  0.8078 -0.8616
15137TIP3    H245353   7.410   3.598   3.893  1.8942  1.2789 -0.8262
15138TIP3   OH245354   4.023   5.138   2.046 -0.2515  0.8223 -0.3278
15138TIP3    H145355   3.973   5.218   2.039 -0.2174  0.7935 -0.9469
15138TIP3    H245356   4.035   5.125   2.140 -0.2470  1.5440 -0.2253
15139TIP3   OH245357   5.802   7.219   0.022  0.3091 -0.2236 -0.1098
15139TIP3    H145358   5.735   7.278   0.058 -0.6544 -1.8712  0.9509
15139TIP3    H245359   5.801   7.236  -0.072  1.5030  2.8409  0.3356
15140TIP3   OH245360   4.342   5.025   4.494 -0.3181 -0.4624 -0.1649
15140TIP3    H145361   4.280   4.978   4.437  0.2502 -2.0834  0.5163
15140TIP3    H245362   4.428   5.005   4.457  0.0688 -1.6338  1.2927
15141TIP3   OH245363   3.600   7.140   6.562  0.6428  0.5123  0.2494
15141TIP3    H145364   3.585   7.138   6.656  2.6673 -0.3440  0.6005
15141TIP3    H245365   3.688   7.105   6.550  0.2727  0.1653 -2.0110
15142TIP3   OH245366   1.115   0.928   0.843  0.2393  0.2685 -0.1461
15142TIP3    H145367   1.049   0.877   0.890  0.3286 -0.2793 -0.5956
15142TIP3    H245368   1.129   1.005   0.897 -0.7974  0.4178 -0.0649
15143TIP3   OH245369   0.359   0.693   1.023 -0.4102  0.1749  0.2900
15143TIP3    H145370   0.434   0.740   1.058  0.5493 -1.8786  1.1368
15143TIP3    H245371   0.374   0.693   0.928  0.3985  0.2174  0.4066
15144TIP3   OH245372   2.343   7.468   4.842  0.0938 -0.3588  0.3636
15144TIP3    H145373   2.301   7.552   4.823  0.5787 -0.5446 -1.8274
15144TIP3    H245374   2.386   7.444   4.760  3.8907 -0.5338  2.2061
15145TIP3   OH245375   5.879   0.487   2.563 -0.0495  0.0780  0.1884
15145TIP3    H145376   5.842   0.484   2.475 -0.5548 -3.1076  0.4124
15145TIP3    H245377   5.806   0.516   2.618  0.0609  1.3364 -0.2796
15146TIP3   OH245378   7.172   6.183   2.319 -0.7225 -0.0896 -0.0477
15146TIP3    H145379   7.244   6.149   2.267  0.1365  1.8749 -0.2365
15146TIP3    H245380   7.197   6.167   2.410 -0.7806 -0.7590 -0.1437
15147TIP3   OH245381   2.597   0.070   6.217  0.3220  0.5157 -0.0190
15147TIP3    H145382   2.521   0.110   6.177  0.5013  0.2729 -0.6262
15147TIP3    H245383   2.643   0.142   6.260 -0.1101  0.7053  0.1271
15148TIP3   OH245384   2.961   7.774   1.434 -0.6310 -0.4770  0.1440
15148TIP3    H145385   2.888   7.765   1.373 -0.3304  1.0058 -0.4856
15148TIP3    H245386   3.019   7.701   1.414  0.9829  1.5621 -3.5704
15149TIP3   OH245387   5.689   1.527   2.471 -0.3307 -0.2124  0.5747
15149TIP3    H145388   5.737   1.488   2.398  0.9624  1.3191  0.5488
15149TIP3    H245389   5.612   1.471   2.483 -1.4974  0.3615 -3.0503
15150TIP3   OH245390   0.790   3.345   6.735 -0.0832 -0.2265 -0.1660
15150TIP3    H145391   0.737   3.302   6.668  0.6505 -1.8304  0.2189
15150TIP3    H245392   0.746   3.324   6.818 -0.6352  1.2059 -0.0695
15151TIP3   OH245393   0.759   1.732   5.362 -0.0770  0.2697 -0.1208
15151TIP3    H145394   0.676   1.686   5.376  0.0585  0.5732  1.9791
15151TIP3    H245395   0.735   1.813   5.318 -0.9033  0.3171  0.3974
15152TIP3   OH245396   4.718   4.340   5.123 -0.3018 -0.8598 -0.2516
15152TIP3    H145397   4.796   4.328   5.069 -0.1223  0.0689 -0.2129
15152TIP3    H245398   4.700   4.433   5.119  0.2247 -0.5874  1.9688
15153TIP3   OH245399   4.631   6.864   4.063 -0.6076  0.4738 -0.6835
15153TIP3    H145400   4.670   6.848   3.977  1.7086 -1.1541  0.5496
15153TIP3    H245401   4.677   6.942   4.096 -0.8866  0.6000 -0.5889
15154TIP3   OH245402   1.050   7.051   0.354  0.6562  0.7618 -0.0089
15154TIP3    H145403   1.054   6.981   0.289 -3.5470  0.1088  0.1634
15154TIP3    H245404   1.061   7.132   0.304 -0.3600  0.1824 -1.2047
15155TIP3   OH245405   3.310   4.640   2.012 -0.3038 -0.0358 -0.0569
15155TIP3    H145406   3.260   4.679   2.083  0.0804 -0.2716  0.3447
15155TIP3    H245407   3.297   4.546   2.021  1.1958 -0.1951  0.8121
15156TIP3   OH245408   4.614   5.463   5.910 -0.3393 -0.5502  0.4431
15156TIP3    H145409   4.652   5.375   5.911 -0.2248 -0.4994  0.5583
15156TIP3    H245410   4.679   5.517   5.865 -1.1841 -0.8713 -1.2210
15157TIP3   OH245411   3.970   2.745   2.130 -0.2790  0.2015 -0.3379
15157TIP3    H145412   4.045   2.765   2.186 -1.1471  0.7529  0.6721
15157TIP3    H245413   3.993   2.662   2.088  0.3583 -0.2954  0.9450
15158TIP3   OH245414   7.552   3.649   5.654  0.2863  0.2287  0.3766
15158TIP3    H145415   7.607   3.583   5.696  0.3814  0.4157  0.5511
15158TIP3    H245416   7.614   3.713   5.619  0.1874  0.3426  0.4091
15159TIP3   OH245417   1.235   7.395   5.407  0.4076 -0.6195 -0.0071
15159TIP3    H145418   1.238   7.485   5.375  1.1381  0.2454  2.2515
15159TIP3    H245419   1.208   7.343   5.332  1.8215  1.2329 -1.9143
15160TIP3   OH245420   3.236   5.368   5.347  0.5831 -0.0091  0.4526
15160TIP3    H145421   3.271   5.351   5.434  1.2575  0.6745  0.3284
15160TIP3    H245422   3.242   5.464   5.337 -1.5646  0.1754  0.5105
15161TIP3   OH245423   7.096   0.667   2.514 -0.1936 -0.4543 -0.1411
15161TIP3    H145424   7.017   0.710   2.545  0.3028  0.4257 -0.0559
15161TIP3    H245425   7.094   0.677   2.419 -0.5837 -1.1601 -0.2171
15162TIP3   OH245426   7.200   2.921   1.029  0.0252 -0.5756 -0.0324
15162TIP3    H145427   7.254   2.849   1.062 -0.3497 -0.3503  1.0979
15162TIP3    H245428   7.114   2.905   1.068 -0.0278  0.5605  0.3306
15163TIP3   OH245429   6.726   1.789   3.119 -0.6793 -0.1654 -0.5093
15163TIP3    H145430   6.640   1.764   3.152 -0.8111  1.7653  0.8127
15163TIP3    H245431   6.710   1.820   3.030 -1.4957  0.7899 -0.0478
15164TIP3   OH245432   7.754   0.042   1.080 -0.3665 -0.1693 -0.5741
15164TIP3    H145433   7.782   0.113   1.023 -0.4125  1.0558  0.8452
15164TIP3    H245434   7.751  -0.035   1.024 -0.5060  0.9876 -2.2150
15165TIP3   OH245435   5.189   5.251   1.224  0.1086  0.1135  0.0912
15165TIP3    H145436   5.102   5.235   1.261 -0.1413  1.0622 -0.0537
15165TIP3    H245437   5.237   5.295   1.294  0.8960 -1.5066  0.6102
15166TIP3   OH245438   7.446   6.705   0.922  0.0679 -0.2513  0.0423
15166TIP3    H145439   7.454   6.612   0.901  0.2084 -0.6587  1.8031
15166TIP3    H245440   7.536   6.735   0.934 -0.0548 -0.4817  1.7984
15167TIP3   OH245441   4.447   3.327   2.192  0.3564 -0.3507  0.1340
15167TIP3    H145442   4.477   3.334   2.101  1.4555 -2.1272  0.2958
15167TIP3    H245443   4.405   3.411   2.211 -1.0209 -0.3752 -2.3991
15168TIP3   OH245444   2.253   0.343   5.337  0.0309 -0.4875 -0.0319
15168TIP3    H145445   2.223   0.338   5.246  0.4689 -1.9963 -0.1253
15168TIP3    H245446   2.173   0.355   5.388 -0.3483 -0.7827 -0.5427
15169TIP3   OH245447   5.634   4.152   0.798  0.3481  0.1401 -0.3419
15169TIP3    H145448   5.560   4.206   0.825 -0.2245 -0.8798  0.1962
15169TIP3    H245449   5.711   4.202   0.825 -0.1728 -0.0035  1.6243
15170TIP3   OH245450   4.886   3.762   6.118 -0.0132  0.3827  0.7649
15170TIP3    H145451   4.940   3.840   6.133  0.2204  0.5214 -0.6539
15170TIP3    H245452   4.933   3.691   6.161  0.4366  0.8000  0.9666
15171TIP3   OH245453   3.230   2.547   0.377  0.2362  0.1387  0.4060
15171TIP3    H145454   3.300   2.597   0.333  0.3400  0.0313  0.4509
15171TIP3    H245455   3.268   2.461   0.391 -0.3391 -0.3236 -0.7312
15172TIP3   OH245456   5.353   1.088   5.918 -0.0449  0.6061  0.1445
15172TIP3    H145457   5.381   1.059   6.005  0.3843 -1.8041 -0.7225
15172TIP3    H245458   5.432   1.124   5.878  1.4493 -3.5693 -1.2371
15173TIP3   OH245459   4.490   0.452   0.928 -0.4927 -0.4070 -0.1411
15173TIP3    H145460   4.531   0.371   0.957 -2.3814 -1.5754 -0.6353
15173TIP3    H245461   4.482   0.442   0.833 -0.9921  0.2458 -0.1744
15174TIP3   OH245462   4.257   1.298   6.215  0.4918 -0.1000 -0.0250
15174TIP3    H145463   4.242   1.349   6.294 -0.4234  1.9592 -1.4217
15174TIP3    H245464   4.174   1.252   6.200 -0.0924  1.1464 -0.8350
15175TIP3   OH245465   7.277   0.696   5.432  0.3305  0.1327  0.1014
15175TIP3    H145466   7.244   0.744   5.355  0.3421  1.6436  0.9953
15175TIP3    H245467   7.371   0.694   5.419  0.3161  0.2152 -0.0270
15176TIP3   OH245468   0.561   5.600   0.463 -0.0694  0.0048  0.3399
15176TIP3    H145469   0.586   5.565   0.377 -2.1075  1.6650 -1.0380
15176TIP3    H245470   0.628   5.666   0.482 -0.0327  0.1830 -0.3669
15177TIP3   OH245471   6.078   7.393   4.545  0.0794  0.6364  0.3315
15177TIP3    H145472   6.132   7.459   4.588 -0.6607  0.2205  1.9699
15177TIP3    H245473   6.093   7.407   4.452  0.3501  2.7503  0.6462
15178TIP3   OH245474   3.290   2.277   0.448 -0.5306  0.2356  0.2555
15178TIP3    H145475   3.303   2.193   0.492  0.6141  0.8069  1.0953
15178TIP3    H245476   3.222   2.261   0.383  0.4392 -1.6188 -0.3665
15179TIP3   OH245477   0.732   5.727   2.379  0.4529  0.2869  0.7197
15179TIP3    H145478   0.807   5.780   2.349  0.3761  0.2270  0.4126
15179TIP3    H245479   0.665   5.742   2.312 -0.6502  2.1709  2.1483
15180TIP3   OH245480   3.344   1.892   1.383 -0.3681  0.3250  0.4213
15180TIP3    H145481   3.407   1.904   1.312  1.2496  0.7514  1.8337
15180TIP3    H245482   3.347   1.798   1.402 -2.0987 -0.0941 -1.1409
15181TIP3   OH245483   5.797   1.127   0.558 -0.3837 -0.3109 -0.4375
15181TIP3    H145484   5.763   1.143   0.470  0.0178  0.2724 -0.4922
15181TIP3    H245485   5.721   1.099   0.609 -0.2233 -3.0408 -1.5275
15182TIP3   OH245486   1.156   4.706   6.759 -0.2969 -0.1690 -0.0725
15182TIP3    H145487   1.243   4.677   6.782  0.0455  0.3140 -0.7088
15182TIP3    H245488   1.120   4.743   6.840  0.2262 -0.0439  0.1037
15183TIP3   OH245489   2.945   6.314   2.550  0.1659 -0.2347  0.1844
15183TIP3    H145490   3.035   6.318   2.519  0.0411 -1.5332 -0.4000
15183TIP3    H245491   2.942   6.374   2.624  1.8042 -1.0105  0.9183
15184TIP3   OH245492   0.185   0.509   5.807  0.3688 -0.3152  0.3987
15184TIP3    H145493   0.216   0.451   5.877 -0.1296 -0.9962  0.0571
15184TIP3    H245494   0.242   0.490   5.733  0.6379  0.1221  0.4882
15185TIP3   OH245495   4.775   0.505   6.025  0.6842  0.1932  0.0596
15185TIP3    H145496   4.777   0.594   6.061 -0.6477  0.7067 -1.0605
15185TIP3    H245497   4.794   0.449   6.100 -0.5492  1.3118  1.2609
15186TIP3   OH245498   2.779   1.866   6.456 -0.4015 -1.0039 -0.0675
15186TIP3    H145499   2.701   1.867   6.512  0.0902 -1.0404  0.6365
15186TIP3    H245500   2.745   1.850   6.368 -1.2944  0.1602  0.0376
15187TIP3   OH245501   2.949   6.419   5.542  0.5554 -0.1646 -0.3007
15187TIP3    H145502   3.031   6.387   5.579 -0.3645 -0.5944  1.4560
15187TIP3    H245503   2.901   6.455   5.616  0.8946  4.1452 -1.8645
15188TIP3   OH245504   0.023   3.882   2.207 -0.3542  0.1913 -0.0275
15188TIP3    H145505  -0.020   3.923   2.282  0.2348  0.0110  0.4220
15188TIP3    H245506   0.014   3.788   2.222 -0.7774  0.1496 -0.5109
15189TIP3   OH245507   7.723   4.352   5.185 -0.1743  0.1833 -0.1316
15189TIP3    H145508   7.644   4.356   5.239  0.3088  1.1774  0.5380
15189TIP3    H245509   7.793   4.380   5.244  0.4693  0.6502 -1.0965
15190TIP3   OH245510   0.551   1.679   2.261  0.2853 -0.3126 -0.3787
15190TIP3    H145511   0.575   1.624   2.186  2.2560  0.3263 -0.2611
15190TIP3    H245512   0.611   1.653   2.331  1.0963  1.7268 -0.2404
15191TIP3   OH245513   6.968   1.873   1.495 -0.1467  0.2811 -0.0529
15191TIP3    H145514   6.886   1.872   1.445 -1.2541  1.2409  1.6353
15191TIP3    H245515   6.965   1.794   1.548  0.2345  0.0983 -0.3005
15192TIP3   OH245516   7.603   7.942   6.082 -0.3683 -0.3711 -0.6750
15192TIP3    H145517   7.591   7.870   6.019  2.4799 -0.5085 -1.1995
15192TIP3    H245518   7.577   7.905   6.166 -1.7196 -1.0330 -1.3382
15193TIP3   OH245519   0.259   3.129   4.348  0.7642 -0.0305 -0.2791
15193TIP3    H145520   0.193   3.166   4.407  1.4505 -0.2614  0.6679
15193TIP3    H245521   0.210   3.070   4.291  0.1542 -0.2166  0.4174
15194TIP3   OH245522   7.755   4.665   6.379  0.3585  0.0558  0.3183
15194TIP3    H145523   7.771   4.714   6.299  0.2018 -0.4966 -0.0562
15194TIP3    H245524   7.708   4.726   6.436  1.1175  0.6907  0.2719
15195TIP3   OH245525   3.386   7.601   5.890  0.1709 -0.3268  0.4757
15195TIP3    H145526   3.365   7.534   5.956  0.9689 -2.5399 -1.3980
15195TIP3    H245527   3.360   7.561   5.807  0.9485  1.6139 -0.7458
15196TIP3   OH245528   7.769   2.262   5.129 -0.0328 -0.5438 -0.2188
15196TIP3    H145529   7.746   2.173   5.154 -0.7156 -0.1909  0.4493
15196TIP3    H245530   7.746   2.315   5.206 -1.4842  0.4716 -1.2960
15197TIP3   OH245531   1.793   7.806   6.534 -0.1493  0.1481 -0.2715
15197TIP3    H145532   1.836   7.764   6.608  0.3760  0.8075 -0.1948
15197TIP3    H245533   1.745   7.735   6.491 -0.8849 -0.1371  0.9857
15198TIP3   OH245534   2.462   3.813   6.130 -0.7003 -0.3632  0.8515
15198TIP3    H145535   2.482   3.719   6.133  0.6647 -0.0801  1.4396
15198TIP3    H245536   2.533   3.851   6.079 -0.6620  0.4795  1.5022
15199TIP3   OH245537   0.652   5.047   0.271  0.1049  0.0788 -0.4381
15199TIP3    H145538   0.720   4.985   0.246 -0.4543 -0.7578  0.0599
15199TIP3    H245539   0.583   5.034   0.206  0.0442  0.2956 -0.4204
15200TIP3   OH245540   4.792   0.654   4.521 -0.3230  0.1743 -0.2760
15200TIP3    H145541   4.793   0.721   4.590 -1.2496  0.6905 -0.7404
15200TIP3    H245542   4.828   0.576   4.563 -3.2298 -0.2916  1.6282
15201TIP3   OH245543   7.210   2.070   4.286 -0.3249 -0.0675 -0.5674
15201TIP3    H145544   7.293   2.078   4.239  0.2471  0.4925  0.5099
15201TIP3    H245545   7.197   1.975   4.295  0.6281 -0.1588 -0.0313
15202TIP3   OH245546   0.175   2.287   4.558 -0.4916  0.0158 -0.3666
15202TIP3    H145547   0.188   2.361   4.499 -2.4346  0.8287  0.1172
15202TIP3    H245548   0.252   2.231   4.546 -0.3231  0.6803 -2.8571
15203TIP3   OH245549   3.808   4.318   0.093  0.4889  0.2911 -0.4284
15203TIP3    H145550   3.742   4.385   0.110 -0.3838 -0.3441 -1.2276
15203TIP3    H245551   3.890   4.367   0.087 -0.0479  1.2170 -0.3986
15204TIP3   OH245552   4.032   5.688   3.656 -0.1080  0.3104 -0.4674
15204TIP3    H145553   3.983   5.765   3.687  0.9941  0.9126 -0.1972
15204TIP3    H245554   4.088   5.664   3.730  0.7772  0.2781 -1.1354
15205TIP3   OH245555   3.385   3.042   1.702 -0.2640  0.5558 -0.0527
15205TIP3    H145556   3.416   3.119   1.750  0.7111  0.0568  0.1440
15205TIP3    H245557   3.465   3.002   1.668 -0.8915  0.7857 -1.9530
15206TIP3   OH245558   8.370   7.269   4.710 -0.1312 -0.0081 -0.6975
15206TIP3    H145559   8.402   7.223   4.632  1.9582  0.8603 -0.4105
15206TIP3    H245560   8.297   7.215   4.741  1.8593 -2.9317 -0.6586
15207TIP3   OH245561   6.504   7.853   4.329  0.4434  0.1276 -0.3571
15207TIP3    H145562   6.509   7.925   4.265 -0.5143 -0.4276 -1.0840
15207TIP3    H245563   6.595   7.836   4.351  0.6888  1.6871 -0.0161
15208TIP3   OH245564   3.766   3.143   0.065  0.0796 -0.1788 -0.1483
15208TIP3    H145565   3.845   3.194   0.050 -0.1047  0.6538  1.3964
15208TIP3    H245566   3.749   3.153   0.159 -2.1204  0.0921 -0.5147
15209TIP3   OH245567   5.308   1.604   0.645  0.2395 -0.1705 -0.4893
15209TIP3    H145568   5.350   1.604   0.559  0.2731  1.6127 -0.5025
15209TIP3    H245569   5.380   1.589   0.707  0.5167  0.4494 -0.6599
15210TIP3   OH245570   2.041   6.820   1.238 -0.0106 -0.1049 -0.1540
15210TIP3    H145571   2.106   6.886   1.215 -1.7607  1.1762 -1.7281
15210TIP3    H245572   2.067   6.791   1.326  1.8502  1.3565 -0.1524
15211TIP3   OH245573   3.143   4.418   4.781 -0.2426 -0.3724 -0.5021
15211TIP3    H145574   3.205   4.347   4.797  1.5439  1.2472  0.1800
15211TIP3    H245575   3.088   4.420   4.859  1.0545  0.2631  0.4378
15212TIP3   OH245576   5.058   0.217   3.188  0.0155 -0.3369  0.1145
15212TIP3    H145577   5.095   0.136   3.223  0.2559  0.6455  2.3557
15212TIP3    H245578   4.981   0.189   3.138  0.7077 -2.0048 -0.0684
15213TIP3   OH245579   4.533   1.362   6.558  0.2936  0.1001 -0.3733
15213TIP3    H145580   4.531   1.446   6.513 -1.1351  1.2335  1.6153
15213TIP3    H245581   4.448   1.356   6.602 -0.1097 -2.9443 -1.3361
15214TIP3   OH245582   6.662   7.791   3.417 -0.2131  0.4970  0.2058
15214TIP3    H145583   6.682   7.851   3.345  1.1033 -0.0706  0.0550
15214TIP3    H245584   6.574   7.815   3.445 -0.6201  0.9631 -1.3633
15215TIP3   OH245585   3.802   1.111   2.462 -0.5477  0.3718  0.0509
15215TIP3    H145586   3.851   1.030   2.444  0.1187  0.8058 -0.1128
15215TIP3    H245587   3.768   1.099   2.551  0.5421  0.3997  0.4799
15216TIP3   OH245588   0.557   4.751   1.532  0.3167 -0.3309 -0.1550
15216TIP3    H145589   0.527   4.792   1.613 -1.1155 -0.2663 -0.6847
15216TIP3    H245590   0.653   4.749   1.539  0.2950  1.0931  0.8329
15217TIP3   OH245591   2.622   0.552   3.391  0.1611 -0.3971 -0.1118
15217TIP3    H145592   2.547   0.492   3.383  0.9813 -1.4124 -0.3291
15217TIP3    H245593   2.643   0.552   3.485  0.6692 -1.0921 -0.2216
15218TIP3   OH245594   2.035   0.704   0.341  0.6155 -0.3051  0.1497
15218TIP3    H145595   1.980   0.675   0.414 -0.2370  0.8453  0.0087
15218TIP3    H245596   2.096   0.632   0.327  0.3403 -0.8552  1.5288
15219TIP3   OH245597   7.920   1.620   2.526 -0.3652  0.0629 -0.0457
15219TIP3    H145598   7.894   1.583   2.610  1.3003 -0.0092  0.4757
15219TIP3    H245599   8.016   1.621   2.528 -0.2171 -0.9768 -2.3911
15220TIP3   OH245600   7.822   7.113   1.018 -0.0601  0.1515  0.6627
15220TIP3    H145601   7.843   7.202   1.046 -1.6812  0.0363  2.4226
15220TIP3    H245602   7.730   7.101   1.042 -0.5403 -1.2681 -1.5428
15221TIP3   OH245603   2.087   0.019   6.761  0.1035  0.4192  0.1299
15221TIP3    H145604   2.051   0.031   6.673 -1.5161  0.7066  0.7858
15221TIP3    H245605   2.101   0.109   6.793 -1.5179  0.4234  0.9700
15222TIP3   OH245606   4.622   6.113   1.578 -0.1787  0.8315 -0.3849
15222TIP3    H145607   4.605   6.207   1.587  1.2354  1.0809 -0.0506
15222TIP3    H245608   4.682   6.093   1.650  0.7689  0.0072 -1.3669
15223TIP3   OH245609   5.953   2.457   4.750  0.0428 -0.1543 -0.4045
15223TIP3    H145610   6.049   2.458   4.751  0.0560 -0.5969  1.1833
15223TIP3    H245611   5.931   2.391   4.684  0.9204 -2.4018  1.4214
15224TIP3   OH245612   6.907   3.150   6.431 -0.1395 -0.0610 -0.1277
15224TIP3    H145613   6.941   3.139   6.520 -0.7981 -0.8886  0.0419
15224TIP3    H245614   6.964   3.215   6.391  0.6168 -0.2175  0.6666
15225TIP3   OH245615   0.606   7.267   2.513 -0.1500  0.3669  0.4906
15225TIP3    H145616   0.613   7.227   2.427  0.2433  0.2142  0.5906
15225TIP3    H245617   0.556   7.347   2.499  0.4752  0.6772  0.0120
15226TIP3   OH245618   4.889   2.127   5.053  0.5514 -0.9684  0.4746
15226TIP3    H145619   4.861   2.038   5.074 -0.7806 -0.7762 -0.3971
15226TIP3    H245620   4.811   2.170   5.017  1.6100 -0.0000 -0.7762
15227TIP3   OH245621   8.143   4.684   0.882 -0.1201 -0.5925  0.1382
15227TIP3    H145622   8.124   4.647   0.969  0.4501  1.8272  1.3776
15227TIP3    H245623   8.230   4.721   0.890 -0.1754 -0.0640 -1.4060
15228TIP3   OH245624   1.738   4.398   5.959  0.4196  0.5398 -0.0255
15228TIP3    H145625   1.687   4.362   6.032 -0.1062  0.5004 -0.4036
15228TIP3    H245626   1.805   4.452   6.001  2.7799 -2.6733  0.7069
15229TIP3   OH245627   4.625   2.950   4.103  0.5378 -0.6429  0.0095
15229TIP3    H145628   4.676   2.892   4.046  1.8831 -1.7994  2.2224
15229TIP3    H245629   4.683   3.024   4.120  1.1448 -1.4701  1.7282
15230TIP3   OH245630   6.594   5.471   6.058 -0.3467 -0.2846  0.0358
15230TIP3    H145631   6.524   5.473   6.124 -0.3443  2.0466  0.0424
15230TIP3    H245632   6.663   5.528   6.095  0.9601 -1.3792 -0.6289
15231TIP3   OH245633   2.143   1.469   4.767  0.4928 -0.2500 -0.6644
15231TIP3    H145634   2.211   1.451   4.833 -0.0439  1.0025  0.2905
15231TIP3    H245635   2.158   1.561   4.744 -0.7969  0.0062 -0.5256
15232TIP3   OH245636   2.375   3.593   1.839 -0.1422 -0.5558 -0.1688
15232TIP3    H145637   2.332   3.635   1.765  2.3311 -3.6917 -3.8057
15232TIP3    H245638   2.455   3.643   1.854 -0.4788 -0.1174  0.1787
15233TIP3   OH245639   5.361   0.614   6.620 -0.0933 -0.2143  0.1584
15233TIP3    H145640   5.278   0.660   6.629 -0.4403 -0.4000 -1.7855
15233TIP3    H245641   5.344   0.544   6.558  1.2178 -1.0490  0.6783
15234TIP3   OH245642   3.753   1.073   2.023 -0.1761  0.4411 -0.6125
15234TIP3    H145643   3.664   1.060   1.992 -0.2907  0.6313 -0.3642
15234TIP3    H245644   3.762   1.014   2.097  0.3592 -0.6109 -1.4884
15235TIP3   OH245645   6.026   1.014   1.053 -0.0517  0.0559 -0.2189
15235TIP3    H145646   6.026   1.001   1.148  0.3734 -0.8425 -0.3305
15235TIP3    H245647   5.956   0.957   1.020 -0.0688  0.2137 -0.4605
15236TIP3   OH245648   2.278   0.646   3.567 -0.2766  0.3345  0.1671
15236TIP3    H145649   2.302   0.713   3.502  1.7785  0.7804  1.3008
15236TIP3    H245650   2.221   0.586   3.519  1.0671  0.6948 -2.0422
15237TIP3   OH245651   3.691   0.679   5.626 -0.0456  0.5792  0.0240
15237TIP3    H145652   3.721   0.657   5.537 -2.2772  0.4187 -0.7570
15237TIP3    H245653   3.768   0.666   5.681  0.5977 -2.6530 -1.3912
15238TIP3   OH245654   7.856   6.478   6.520  0.1372 -0.6155 -0.0443
15238TIP3    H145655   7.846   6.396   6.471 -1.5627 -0.3290 -0.2545
15238TIP3    H245656   7.772   6.488   6.566  0.6308  0.5924  0.6435
15239TIP3   OH245657   7.629   3.595   2.189 -0.2122 -0.2471  0.0272
15239TIP3    H145658   7.542   3.622   2.161 -0.0098  1.0597  0.5735
15239TIP3    H245659   7.675   3.677   2.208  1.1706 -0.9046 -0.3335
15240TIP3   OH245660   0.162   4.538   3.087  0.6657 -0.6114  0.0419
15240TIP3    H145661   0.198   4.468   3.033  2.5251  0.1335  0.2204
15240TIP3    H245662   0.090   4.574   3.035  0.5223 -1.8137 -0.6108
15241TIP3   OH245663   3.087   7.089   3.766  0.8541  0.0040  0.3739
15241TIP3    H145664   3.115   7.179   3.746  2.2711 -0.3210  0.8183
15241TIP3    H245665   3.031   7.098   3.843 -1.2676  0.7846 -1.1542
15242TIP3   OH245666   4.639   6.439   1.885 -0.2653  0.1424  0.4700
15242TIP3    H145667   4.547   6.443   1.858 -0.7749  0.7192  2.1613
15242TIP3    H245668   4.682   6.504   1.829 -1.6040  2.5575  2.0205
15243TIP3   OH245669   0.673   1.168   2.660 -0.0101 -0.8009  0.2578
15243TIP3    H145670   0.731   1.224   2.608 -0.6232  1.1965  1.6364
15243TIP3    H245671   0.678   1.204   2.749 -3.9458  0.0276  0.3316
15244TIP3   OH245672   5.425   2.862   5.812 -0.1787 -0.0060 -0.1460
15244TIP3    H145673   5.337   2.898   5.825 -0.4358  0.2601 -2.3052
15244TIP3    H245674   5.481   2.939   5.801  0.3680 -0.1735  1.2582
15245TIP3   OH245675   7.805   0.925   6.601  0.3473  0.0657 -0.1864
15245TIP3    H145676   7.747   0.998   6.627 -0.1103 -0.5409  0.5502
15245TIP3    H245677   7.890   0.947   6.640  0.3081  0.3941 -0.2856
15246TIP3   OH245678   7.958   4.768   3.208 -0.2003 -0.1069  0.5009
15246TIP3    H145679   7.946   4.673   3.210 -0.0090 -0.2342 -1.8075
15246TIP3    H245680   8.044   4.782   3.247 -0.3460 -0.8565  1.1045
15247TIP3   OH245681   3.201   2.909   6.836  0.2829  0.4247 -0.4446
15247TIP3    H145682   3.255   2.987   6.849 -0.1260  0.6933 -0.3548
15247TIP3    H245683   3.113   2.942   6.821  0.0155 -0.0350  0.0664
15248TIP3   OH245684   3.951   6.568   1.440  0.0013  0.0964  0.1491
15248TIP3    H145685   4.002   6.564   1.359  0.1083 -0.3706  0.2341
15248TIP3    H245686   3.888   6.496   1.431  1.4948 -1.4609  1.4584
15249TIP3   OH245687   6.222   7.427   2.480 -0.0577 -0.2347 -0.2141
15249TIP3    H145688   6.180   7.486   2.542  0.8345 -0.4689  0.6392
15249TIP3    H245689   6.243   7.482   2.405  0.0094  0.3555  0.2283
15250TIP3   OH245690   0.392   3.235   4.055 -0.0634  0.5740 -0.3991
15250TIP3    H145691   0.422   3.304   3.995  0.9932  0.5979  0.1218
15250TIP3    H245692   0.421   3.265   4.142 -0.7464  0.0931  0.0076
15251TIP3   OH245693   7.504   4.260   1.392 -0.3424 -0.0916 -0.4731
15251TIP3    H145694   7.451   4.330   1.429 -1.9030 -1.8156  0.6832
15251TIP3    H245695   7.484   4.262   1.298 -0.2947  1.0130 -0.4803
15252TIP3   OH245696   1.095   4.295   6.601 -0.1722  0.3792  0.1191
15252TIP3    H145697   1.033   4.361   6.632  0.3126  0.9064 -0.0239
15252TIP3    H245698   1.043   4.215   6.592 -0.9151  0.9151 -0.3899
15253TIP3   OH245699   0.018   1.899   4.791  0.4946  0.1181  0.3829
15253TIP3    H145700   0.012   1.990   4.820 -1.9205  0.0151  0.3920
15253TIP3    H245701   0.055   1.904   4.703  2.4587  0.8799  1.1839
15254TIP3   OH245702   1.521   6.730   6.681  0.0887  0.2333 -0.1769
15254TIP3    H145703   1.549   6.758   6.594  1.3364 -1.0682 -0.2311
15254TIP3    H245704   1.506   6.636   6.672 -0.2177  0.1662  0.8998
15255TIP3   OH245705   2.732   2.774   6.547  0.2195  0.6983 -0.1062
15255TIP3    H145706   2.780   2.709   6.495  0.1036  0.5063  0.0297
15255TIP3    H245707   2.798   2.842   6.566  0.7079 -0.0468  0.9383
15256TIP3   OH245708   6.267   3.992   6.483 -0.3253 -0.1610  0.4040
15256TIP3    H145709   6.295   3.902   6.465  1.4269  0.3425  0.4373
15256TIP3    H245710   6.192   4.005   6.424 -0.1163 -1.3769 -0.1749
15257TIP3   OH245711   3.003   2.662   2.157 -0.5844 -0.9835 -0.3021
15257TIP3    H145712   3.041   2.732   2.210  0.0666 -2.4381  1.2723
15257TIP3    H245713   3.038   2.675   2.069 -0.0557  0.3237  0.0852
15258TIP3   OH245714   4.493   3.797   3.016 -0.3957  0.2914 -0.1007
15258TIP3    H145715   4.434   3.853   3.065  0.0469  0.9561 -0.3063
15258TIP3    H245716   4.436   3.739   2.966 -0.8493 -0.1109  0.8672
15259TIP3   OH245717   7.005   3.901   1.776 -0.4397 -0.0150 -0.1898
15259TIP3    H145718   6.913   3.929   1.777 -0.1213  1.0665 -0.5571
15259TIP3    H245719   7.033   3.914   1.686  0.0721 -0.3724 -0.0850
15260TIP3   OH245720   5.490   4.021   4.612  0.4328 -0.4876 -0.1381
15260TIP3    H145721   5.516   3.929   4.615 -1.9339 -1.2213  0.1616
15260TIP3    H245722   5.572   4.069   4.600  2.1431 -2.4038  2.5634
15261TIP3   OH245723   0.269   1.180   1.064  0.7722  0.2981 -0.4662
15261TIP3    H145724   0.334   1.208   1.129  1.2863  2.2674 -1.7280
15261TIP3    H245725   0.223   1.107   1.106  2.5328  0.0591  1.2080
15262TIP3   OH245726   6.900   3.702   2.350  0.2017 -0.6634 -0.0336
15262TIP3    H145727   6.878   3.790   2.321  0.6382 -0.3794  0.4832
15262TIP3    H245728   6.817   3.653   2.345 -0.9290  0.6753  2.9817
15263TIP3   OH245729   6.307   5.211   5.599  0.0877  0.2226  0.7495
15263TIP3    H145730   6.224   5.223   5.554 -0.4529 -0.6646  1.4768
15263TIP3    H245731   6.368   5.270   5.554 -0.9605  0.9904  0.3029
15264TIP3   OH245732   7.896   5.230   1.276 -0.4168 -0.0466 -0.0367
15264TIP3    H145733   7.830   5.297   1.292  0.4900  1.4219 -2.0534
15264TIP3    H245734   7.961   5.243   1.345 -0.7243  0.5204  0.1501
15265TIP3   OH245735   2.076   2.163   4.461  0.2145  0.2945 -0.1243
15265TIP3    H145736   2.083   2.094   4.394  0.8415  0.2518 -0.0152
15265TIP3    H245737   2.052   2.115   4.541  0.7719  0.1878 -0.0208
15266TIP3   OH245738   1.640   1.480   0.611  0.3019 -0.3235 -0.0299
15266TIP3    H145739   1.694   1.559   0.613  0.6837 -0.5389 -1.0839
15266TIP3    H245740   1.667   1.430   0.688  0.9077  0.0279 -0.0067
15267TIP3   OH245741   1.750   4.129   6.416  0.2580 -0.0060 -0.0031
15267TIP3    H145742   1.822   4.082   6.458 -0.3920 -0.3299  0.7854
15267TIP3    H245743   1.691   4.151   6.488 -0.8603 -0.5119 -0.7269
15268TIP3   OH245744   0.182   2.227   0.658  0.5664 -0.4582  0.5209
15268TIP3    H145745   0.101   2.271   0.684  1.2386  1.3378 -0.2208
15268TIP3    H245746   0.153   2.143   0.623 -1.1993  0.8316 -1.3945
15269TIP3   OH245747   7.155   1.197   3.498 -0.3383  0.1247  0.2378
15269TIP3    H145748   7.224   1.131   3.492 -0.3310  0.1434  0.0982
15269TIP3    H245749   7.102   1.170   3.573  0.1928  0.4666  0.7459
15270TIP3   OH245750   3.533   0.215   2.470 -0.2469 -0.3849  0.2766
15270TIP3    H145751   3.511   0.248   2.383 -0.1894 -0.1408  0.3551
15270TIP3    H245752   3.550   0.293   2.522 -0.3111 -0.5292  0.5161
15271TIP3   OH245753   6.017   2.147   4.810  0.7373 -0.4082 -0.0856
15271TIP3    H145754   6.076   2.221   4.794  0.4507 -0.5851 -2.3211
15271TIP3    H245755   6.057   2.100   4.883  2.3827  0.4730 -0.3594
15272TIP3   OH245756   4.780   7.758   5.044 -0.0040 -0.1028 -0.3519
15272TIP3    H145757   4.770   7.774   4.950 -1.7905  0.1755 -0.1645
15272TIP3    H245758   4.690   7.760   5.078  0.5194 -1.1975  1.2122
15273TIP3   OH245759   8.036   7.869   2.953 -0.4041 -0.0251 -0.3313
15273TIP3    H145760   8.045   7.954   2.996  1.4013 -0.1430 -0.3767
15273TIP3    H245761   7.969   7.883   2.886 -0.1018  1.3921 -0.3795
15274TIP3   OH245762   0.595   4.560   2.531  0.2463  0.3488  0.5886
15274TIP3    H145763   0.644   4.558   2.449 -1.9812 -0.0330 -0.8027
15274TIP3    H245764   0.625   4.482   2.579 -0.2439 -0.8801 -1.0168
15275TIP3   OH245765   4.676   6.932   1.417  0.1653 -0.4201  0.4523
15275TIP3    H145766   4.601   6.878   1.444 -0.4810 -0.5757 -1.4536
15275TIP3    H245767   4.751   6.891   1.460 -0.8124 -0.1434  2.5761
15276TIP3   OH245768   5.247   0.495   3.674 -0.2502 -0.1707 -0.7016
15276TIP3    H145769   5.178   0.457   3.619  0.1652 -1.9522 -0.0583
15276TIP3    H245770   5.218   0.477   3.763  0.1176  0.7974 -0.3818
15277TIP3   OH245771   3.913   5.026   2.812  0.6788 -0.3571 -0.6295
15277TIP3    H145772   3.829   5.050   2.851  0.6849  1.0659 -1.4380
15277TIP3    H245773   3.889   4.980   2.731  0.6747 -2.9292  0.7102
15278TIP3   OH245774   6.786   5.797   5.098 -0.0789 -0.9242 -0.0922
15278TIP3    H145775   6.718   5.793   5.031  0.0713 -0.8196 -0.2531
15278TIP3    H245776   6.756   5.865   5.158  0.1602 -0.4627 -0.4794
15279TIP3   OH245777   6.111   2.222   4.283 -0.3563 -0.5842 -0.3296
15279TIP3    H145778   6.201   2.254   4.288 -0.6561  0.1879  0.5769
15279TIP3    H245779   6.077   2.260   4.202 -0.9285  2.1178  1.0798
15280TIP3   OH245780  -0.025   7.923   6.578  0.6923  0.4298  0.1315
15280TIP3    H145781   0.005   7.833   6.589 -0.5577  0.0570  0.7052
15280TIP3    H245782   0.056   7.974   6.569  1.5169 -0.5215  1.5814
15281TIP3   OH245783   7.393   0.175   6.099  0.0356 -0.0227  0.6490
15281TIP3    H145784   7.464   0.223   6.141  1.4965 -0.5505 -1.1305
15281TIP3    H245785   7.423   0.084   6.097  0.8378  0.1920 -2.9661
15282TIP3   OH245786   3.628   6.189   5.251 -0.1408  0.0315 -0.2800
15282TIP3    H145787   3.699   6.129   5.275 -0.9715 -1.1911 -0.7825
15282TIP3    H245788   3.554   6.163   5.306 -0.4343  0.7910 -0.3001
15283TIP3   OH245789   0.162   4.938   2.706 -0.2617  0.3930  0.2805
15283TIP3    H145790   0.146   4.844   2.691 -1.0992  0.6706 -0.6154
15283TIP3    H245791   0.077   4.979   2.691  0.1828  1.3483  0.3469
15284TIP3   OH245792   4.314   5.035   5.422  0.4630 -0.3939  0.1423
15284TIP3    H145793   4.247   5.063   5.360 -1.6435 -0.8365  2.0812
15284TIP3    H245794   4.328   5.112   5.478  2.3456  0.0088 -0.7921
15285TIP3   OH245795   0.516   3.550   5.601 -0.1507  0.0513  0.8083
15285TIP3    H145796   0.454   3.623   5.599 -1.3088 -0.9000  0.9903
15285TIP3    H245797   0.592   3.583   5.553 -1.6205  0.5170 -1.3888
15286TIP3   OH245798   3.019   7.173   1.185  0.1950  0.0620  0.4775
15286TIP3    H145799   3.092   7.147   1.242 -1.0675 -0.1409  2.0885
15286TIP3    H245800   2.970   7.237   1.237 -0.9259 -0.0067 -0.4488
15287TIP3   OH245801   1.077   0.815   1.288  0.0745 -0.6502  0.0761
15287TIP3    H145802   1.167   0.832   1.262  0.0078  2.3240  1.3312
15287TIP3    H245803   1.052   0.892   1.340 -1.8475 -3.1589  3.2640
15288TIP3   OH245804   5.408   4.873   4.219 -0.5031  0.4220 -0.0004
15288TIP3    H145805   5.371   4.961   4.224  1.4428  1.2624  0.6426
15288TIP3    H245806   5.419   4.847   4.311  0.7057  0.3263 -0.1552
15289TIP3   OH245807   3.789   0.067   6.249 -0.2839  0.3258  0.2281
15289TIP3    H145808   3.779   0.114   6.165 -3.7289  0.8076  0.7511
15289TIP3    H245809   3.842   0.126   6.303  1.1388  0.4643 -1.2288
15290TIP3   OH245810   3.224   3.744   3.880 -0.2461 -0.3045 -0.6318
15290TIP3    H145811   3.210   3.650   3.893 -0.4907 -0.2056 -0.1783
15290TIP3    H245812   3.153   3.772   3.823 -1.7174  0.1070  1.2953
15291TIP3   OH245813   0.329   3.377   5.729  0.2832  0.6202  0.3240
15291TIP3    H145814   0.252   3.370   5.673 -0.5989  3.2707  1.0663
15291TIP3    H245815   0.397   3.411   5.671  0.3375  0.1571  0.1131
15292TIP3   OH245816   6.357   5.041   4.849  0.3280  0.1355 -0.3808
15292TIP3    H145817   6.382   5.095   4.774  0.9391  1.7681  0.9432
15292TIP3    H245818   6.261   5.048   4.853  0.4854  2.7268  0.8325
15293TIP3   OH245819   8.228   4.886   5.165  0.0763  0.1348  0.3068
15293TIP3    H145820   8.243   4.796   5.138  4.0910  0.9216 -0.8000
15293TIP3    H245821   8.193   4.929   5.087 -1.0087 -0.2276  0.5733
15294TIP3   OH245822   3.930   1.905   6.016 -0.3565 -0.6567 -0.3790
15294TIP3    H145823   3.859   1.928   6.076 -0.1120 -1.2545  0.1589
15294TIP3    H245824   4.002   1.963   6.041 -0.3972 -0.6044 -0.3838
15295TIP3   OH245825   7.275   7.137   6.384  0.4811 -0.3284  0.0521
15295TIP3    H145826   7.366   7.130   6.413  0.2011 -0.2994  0.9804
15295TIP3    H245827   7.227   7.158   6.464 -0.8089 -3.5983  0.2869
15296TIP3   OH245828   8.300   6.290   4.153 -0.1190 -0.6956 -1.0565
15296TIP3    H145829   8.331   6.208   4.191 -1.1160 -0.3499  0.6631
15296TIP3    H245830   8.227   6.316   4.210 -0.3588  0.9570 -2.0478
15297TIP3   OH245831   6.461   1.269   3.142 -0.5637  0.1145  0.7872
15297TIP3    H145832   6.551   1.245   3.164 -0.3700  0.4889  0.4115
15297TIP3    H245833   6.412   1.252   3.222  0.0621  1.1151  1.3999
15298TIP3   OH245834   6.319   1.924   3.296  0.3879 -0.1400  0.3520
15298TIP3    H145835   6.253   1.923   3.365  0.4524  0.6689  0.4416
15298TIP3    H245836   6.393   1.876   3.333 -0.6267 -2.3116 -0.2840
15299TIP3   OH245837   7.131   0.240   5.308 -0.3582 -0.2232  0.4299
15299TIP3    H145838   7.125   0.317   5.364 -1.4654 -0.5184  0.7458
15299TIP3    H245839   7.156   0.274   5.222 -0.6254  0.4615  0.6189
15300TIP3   OH245840   0.291   3.309   2.996  0.6531  0.2683 -0.3887
15300TIP3    H145841   0.208   3.313   3.044 -0.7059  0.2668 -2.6144
15300TIP3    H245842   0.332   3.228   3.027  0.8537  1.2543  2.2051
15301TIP3   OH245843   7.806   0.480   5.631  0.0983  0.0377  0.0253
15301TIP3    H145844   7.768   0.394   5.615  0.3521  0.0257 -0.5152
15301TIP3    H245845   7.733   0.541   5.620  0.3165  0.0627 -1.5346
15302TIP3   OH245846   2.466   1.371   2.747 -0.0782 -0.0700  0.4164
15302TIP3    H145847   2.497   1.445   2.799 -2.0282  1.5730 -0.6227
15302TIP3    H245848   2.512   1.380   2.663 -1.5587  1.0082 -0.3082
15303TIP3   OH245849   7.915   3.718   5.153  0.0813 -0.1743  0.4010
15303TIP3    H145850   7.954   3.660   5.218  0.0649 -0.5717  0.0556
15303TIP3    H245851   7.951   3.804   5.174 -0.5048 -0.1632  1.3971
15304TIP3   OH245852   0.952   0.563   2.497  0.2555  0.2158  0.0123
15304TIP3    H145853   0.884   0.626   2.522  0.6347  0.7612 -0.3024
15304TIP3    H245854   0.904   0.485   2.469 -0.4449  1.6807 -3.3766
15305TIP3   OH245855   2.293   3.462   1.415  0.1099 -0.2358 -0.2509
15305TIP3    H145856   2.276   3.427   1.328  2.2289 -1.2984 -0.3079
15305TIP3    H245857   2.387   3.447   1.429 -0.1204  0.1306  2.1229
15306TIP3   OH245858   2.732   7.484   5.530  0.1529  0.4705  0.1045
15306TIP3    H145859   2.722   7.393   5.500  1.5889 -0.1219  1.2966
15306TIP3    H245860   2.781   7.477   5.611  1.9978  2.4400 -0.7453
15307TIP3   OH245861   1.443   5.837   2.126  0.0607 -1.2566 -0.0599
15307TIP3    H145862   1.495   5.906   2.167  0.3617 -0.8725 -1.0563
15307TIP3    H245863   1.363   5.881   2.095 -0.8827 -1.8400  1.4490
15308TIP3   OH245864   4.832   0.709   5.179 -0.0564 -0.0310  0.5602
15308TIP3    H145865   4.775   0.681   5.250 -0.4481 -0.0051  0.2580
15308TIP3    H245866   4.774   0.720   5.104  0.5241 -1.3617 -0.1255
15309TIP3   OH245867   5.822   2.738   4.365  0.0307 -0.5854  0.3587
15309TIP3    H145868   5.885   2.774   4.302 -0.1977 -1.2673 -0.2740
15309TIP3    H245869   5.761   2.809   4.382 -0.5560 -0.7243 -1.0616
15310TIP3   OH245870   3.257   6.332   4.374 -0.1692  0.1837  0.1320
15310TIP3    H145871   3.215   6.271   4.434  0.5000 -0.7322 -0.3139
15310TIP3    H245872   3.338   6.357   4.419  0.3459 -0.5245 -0.3827
15311TIP3   OH245873   2.813   0.348   5.578 -0.0715  1.1353  0.0205
15311TIP3    H145874   2.902   0.383   5.579  0.0583  0.8407 -0.7704
15311TIP3    H245875   2.780   0.364   5.666  1.3604 -0.2574  0.8691
15312TIP3   OH245876   3.513   5.044   1.729 -0.2454 -0.0852  0.2619
15312TIP3    H145877   3.441   5.093   1.688 -0.5303 -0.4327  0.3433
15312TIP3    H245878   3.470   4.972   1.775  0.2566 -1.1472 -0.8803
15313TIP3   OH245879   4.859   1.134   0.241  0.5952  0.0488  0.2018
15313TIP3    H145880   4.910   1.197   0.293  0.9048 -0.6279  0.7275
15313TIP3    H245881   4.799   1.189   0.191 -0.9747  0.6514  2.5839
15314TIP3   OH245882   7.567   4.985   3.082  0.0227  0.1106  0.7876
15314TIP3    H145883   7.507   4.939   3.023 -0.3775  0.9798  0.5060
15314TIP3    H245884   7.520   5.064   3.108  0.8520  0.5606  0.9595
15315TIP3   OH245885   3.354   1.100   3.613  0.3414  0.1077  0.7190
15315TIP3    H145886   3.357   1.062   3.525  1.1204  2.4435 -0.3542
15315TIP3    H245887   3.446   1.114   3.635  0.1014  2.8209  0.3048
15316TIP3   OH245888   7.723   5.527   5.097 -0.2466 -0.0724 -0.2779
15316TIP3    H145889   7.644   5.479   5.074  0.7100 -1.5015 -0.7700
15316TIP3    H245890   7.794   5.472   5.064  1.0362 -0.0082  2.1675
15317TIP3   OH245891   4.843   3.666   3.319  0.0145  0.0053  0.0334
15317TIP3    H145892   4.838   3.573   3.298 -0.7218 -0.1432  0.7709
15317TIP3    H245893   4.780   3.677   3.391  1.4830  0.7032  1.2767
15318TIP3   OH245894   0.303   0.240   6.727  0.3226 -0.2030 -0.4304
15318TIP3    H145895   0.361   0.219   6.654  2.1822  0.4421  0.8154
15318TIP3    H245896   0.249   0.161   6.737  2.2086 -1.5737 -0.4956
15319TIP3   OH245897   2.246   3.426   6.469 -0.5043 -0.5426  0.5795
15319TIP3    H145898   2.237   3.410   6.375 -1.3397  3.0746 -0.1059
15319TIP3    H245899   2.158   3.450   6.498  0.2579  1.2446  1.5940
15320TIP3   OH245900   6.261   0.834   4.048  0.3028  0.1450 -0.0184
15320TIP3    H145901   6.211   0.759   4.015  0.3455 -0.2539  0.7779
15320TIP3    H245902   6.249   0.830   4.143 -1.9565  2.7192 -0.0649
15321TIP3   OH245903   7.579   2.432   1.757  0.1865  0.1510 -0.4131
15321TIP3    H145904   7.633   2.358   1.728  1.8892  1.2206 -0.1456
15321TIP3    H245905   7.615   2.507   1.709 -1.2285  0.8852 -0.3581
15322TIP3   OH245906   8.058   2.214   4.385 -0.3558  0.7825  0.4115
15322TIP3    H145907   8.007   2.221   4.304  0.9454 -1.3706 -0.6925
15322TIP3    H245908   8.142   2.254   4.363  1.0527 -2.2798 -0.4012
15323TIP3   OH245909   6.075   2.471   1.562 -0.3883  0.7232  0.4345
15323TIP3    H145910   6.082   2.534   1.634 -4.5424  0.6069  1.1578
15323TIP3    H245911   6.035   2.394   1.601 -1.2855  0.0372 -1.6783
15324TIP3   OH245912   0.267   4.840   0.554 -0.2711  0.2837  0.1751
15324TIP3    H145913   0.228   4.764   0.597  0.5485  0.6714  1.6715
15324TIP3    H245914   0.263   4.909   0.620  3.2234  0.2657  0.5809
15325TIP3   OH245915   7.260   1.536   2.800 -0.1353 -0.5571  0.2978
15325TIP3    H145916   7.209   1.544   2.720 -1.2337 -0.1419  1.0232
15325TIP3    H245917   7.195   1.531   2.870  0.7776 -2.0751  1.0858
15326TIP3   OH245918   4.887   6.176   6.200 -0.1735 -0.4188 -0.4961
15326TIP3    H145919   4.937   6.198   6.278  0.2591 -0.1588 -0.8453
15326TIP3    H245920   4.820   6.116   6.231 -0.5896  0.4042  0.2474
15327TIP3   OH245921   7.005   4.055   0.562  0.2848 -0.7028 -0.2513
15327TIP3    H145922   7.068   4.108   0.612 -0.7990  2.3084 -1.8314
15327TIP3    H245923   7.059   4.006   0.500  1.2493 -0.1322  0.1068
15328TIP3   OH245924   1.883   3.349   1.719 -0.0741  0.2836 -0.1331
15328TIP3    H145925   1.950   3.404   1.678 -1.4841  2.6310  0.5033
15328TIP3    H245926   1.818   3.334   1.650 -0.0133 -0.0462 -0.1219
15329TIP3   OH245927   7.784   7.336   5.773 -0.2395  0.2079  0.3762
15329TIP3    H145928   7.807   7.422   5.809 -0.4528  0.2477  0.4205
15329TIP3    H245929   7.862   7.283   5.785  0.0925  0.5582 -0.1543
15330TIP3   OH245930   1.353   1.516   0.777  0.2443 -0.1346 -0.1365
15330TIP3    H145931   1.395   1.431   0.781 -0.8653 -0.6539  1.0331
15330TIP3    H245932   1.421   1.578   0.804  0.3224 -0.9407  1.6462
15331TIP3   OH245933   7.980   4.479   1.934  0.2966  0.1344  0.0633
15331TIP3    H145934   7.925   4.444   2.004 -0.4746 -0.6997 -0.9090
15331TIP3    H245935   7.957   4.571   1.928 -1.1897 -0.2455 -0.4602
15332TIP3   OH245936   1.263   1.227   2.053  0.1664  0.2171 -0.2801
15332TIP3    H145937   1.329   1.161   2.072  0.6433  0.7160 -0.1572
15332TIP3    H245938   1.233   1.208   1.964  0.1691 -0.2693 -0.1752
15333TIP3   OH245939   6.932   2.145   5.765  0.2689  0.2588 -0.1414
15333TIP3    H145940   6.973   2.085   5.703 -1.0029 -0.2409 -0.5334
15333TIP3    H245941   7.005   2.178   5.818  1.0311 -1.5405  0.0183
15334TIP3   OH245942   2.915   2.221   1.279 -0.3325  0.0714  0.2881
15334TIP3    H145943   2.919   2.236   1.184  1.1899  0.4716  0.3945
15334TIP3    H245944   2.972   2.147   1.295  0.2381  0.6477  1.0071
15335TIP3   OH245945   1.433   3.279   2.283 -0.8016  0.0580  0.2135
15335TIP3    H145946   1.516   3.232   2.288 -1.1995 -0.7130 -0.2320
15335TIP3    H245947   1.375   3.233   2.344 -0.9758  0.4474  0.3480
15336TIP3   OH245948   5.763   2.600   1.257  0.4624 -0.0577  0.5269
15336TIP3    H145949   5.837   2.545   1.231  0.5737 -0.4230  1.5669
15336TIP3    H245950   5.692   2.576   1.197  1.1748  0.2888 -0.4673
15337TIP3   OH245951   3.406   7.227   1.201 -0.0762 -0.0807  0.2357
15337TIP3    H145952   3.374   7.197   1.117 -0.1611  1.1820 -0.2036
15337TIP3    H245953   3.464   7.300   1.180 -0.4493  0.5410  1.2985
15338TIP3   OH245954   2.791   1.141   5.837 -0.1100 -0.7327  0.3439
15338TIP3    H145955   2.735   1.218   5.842 -0.6510 -1.2041  3.2311
15338TIP3    H245956   2.797   1.121   5.744  0.0591  2.7741 -0.5151
15339TIP3   OH245957   7.043   4.109   6.696 -0.3714 -0.7029 -0.0253
15339TIP3    H145958   7.116   4.165   6.669  0.4396 -0.6646  2.0590
15339TIP3    H245959   6.966   4.150   6.657  0.5690 -0.0583 -1.2874
15340TIP3   OH245960   2.548   0.775   1.271  0.4672 -0.0937 -0.1386
15340TIP3    H145961   2.454   0.765   1.290  0.6164  0.1352  0.7934
15340TIP3    H245962   2.586   0.689   1.290  0.5790  0.0660  0.3815
15341TIP3   OH245963   2.605   1.567   0.906  0.6827 -0.2571 -0.6116
15341TIP3    H145964   2.606   1.485   0.857 -1.7529 -0.0217 -1.1657
15341TIP3    H245965   2.597   1.539   0.998  1.5227 -0.6462 -0.6503
15342TIP3   OH245966   2.156   6.662   3.295  0.9832  0.4257  0.1445
15342TIP3    H145967   2.111   6.599   3.351  1.2574 -0.3735 -0.5046
15342TIP3    H245968   2.199   6.723   3.356  2.1294 -1.0237  0.8571
15343TIP3   OH245969   7.702   0.610   5.118  0.5157 -0.5407 -0.9254
15343TIP3    H145970   7.720   0.698   5.152  1.7614 -1.2356  0.3102
15343TIP3    H245971   7.712   0.552   5.194 -1.3503 -1.6611 -1.4692
15344TIP3   OH245972   5.686   0.199   0.102 -0.0388 -0.0119  0.1532
15344TIP3    H145973   5.639   0.163   0.027  0.3230 -1.7195  0.6984
15344TIP3    H245974   5.710   0.288   0.076 -1.4967  0.0631 -1.0317
15345TIP3   OH245975   1.999   1.896   1.153 -0.4054 -0.7168  0.1997
15345TIP3    H145976   2.048   1.890   1.071  1.2947  3.0198  0.7314
15345TIP3    H245977   1.908   1.906   1.127  0.0637 -0.0263 -1.2362
15346TIP3   OH245978   5.161   1.155   6.483  0.4553 -0.1248 -0.4102
15346TIP3    H145979   5.201   1.242   6.497 -0.4516  0.2416 -0.0130
15346TIP3    H245980   5.164   1.114   6.569  0.7072 -0.4194 -0.5574
15347TIP3   OH245981   6.406   6.648   6.106 -0.3843  0.5554 -0.2936
15347TIP3    H145982   6.376   6.667   6.194 -1.4829  1.3308 -0.8099
15347TIP3    H245983   6.493   6.689   6.102 -0.2923  0.4460  0.4444
15348TIP3   OH245984   0.582   2.342   6.322 -0.1956  0.0935  0.5035
15348TIP3    H145985   0.509   2.308   6.271  1.5156 -1.6139 -0.9885
15348TIP3    H245986   0.573   2.301   6.408 -0.4325 -0.9512 -0.0005
15349TIP3   OH245987   4.299   1.940   1.909  0.2159 -0.0322 -0.0791
15349TIP3    H145988   4.252   1.867   1.868  1.3694 -0.0788 -1.4218
15349TIP3    H245989   4.292   2.011   1.846  1.7366  0.0140 -0.2381
15350TIP3   OH245990   7.070   6.380   1.415  0.0308  0.6229  0.0184
15350TIP3    H145991   7.064   6.303   1.358 -1.7827  0.5672  0.2150
15350TIP3    H245992   6.983   6.387   1.454  0.6102  1.9073  1.1639
15351TIP3   OH245993   4.048   4.483   1.338 -0.2373  0.3486  0.1679
15351TIP3    H145994   4.093   4.413   1.291 -0.5384 -0.2755  0.7921
15351TIP3    H245995   4.061   4.561   1.284  0.4599 -0.1005 -0.3227
15352TIP3   OH245996   0.822   2.399   6.226  0.0233 -0.3501 -0.1914
15352TIP3    H145997   0.727   2.397   6.241  0.0056 -1.1620 -0.3742
15352TIP3    H245998   0.859   2.418   6.312 -0.2948 -0.2456 -0.0757
15353TIP3   OH245999   8.284   5.710   4.268 -0.2068 -0.5061  0.0379
15353TIP3    H146000   8.226   5.683   4.340 -0.0695  0.2912  0.4581
15353TIP3    H246001   8.369   5.672   4.290  0.1028  0.6083  0.8707
15354TIP3   OH246002   4.199   2.418   3.637  0.2145 -0.2666 -0.2439
15354TIP3    H146003   4.182   2.447   3.548 -0.1473  0.1163 -0.0589
15354TIP3    H246004   4.291   2.438   3.652 -0.0153  0.8086 -0.1293
15355TIP3   OH246005   5.934   4.141   0.028  0.7795  0.2766 -0.1464
15355TIP3    H146006   5.921   4.235   0.014  1.4387  0.1603 -1.8338
15355TIP3    H246007   5.941   4.131   0.122 -0.7314  1.7226  0.1710
15356TIP3   OH246008   3.714   2.443   1.519  0.4524 -0.3654  0.3014
15356TIP3    H146009   3.741   2.519   1.570 -0.9252 -0.4258  1.1840
15356TIP3    H246010   3.778   2.375   1.541 -0.1923 -0.4360  2.1251
15357TIP3   OH246011   1.868   7.447   3.220 -0.0551 -0.1401 -0.0081
15357TIP3    H146012   1.951   7.426   3.176  0.0916 -1.0633  0.6989
15357TIP3    H246013   1.807   7.463   3.148  0.9744  1.6174 -0.5543
15358TIP3   OH246014   3.071   2.368   3.825  0.5094 -0.6590  0.0585
15358TIP3    H146015   3.155   2.348   3.784 -1.2269 -0.7164 -3.8822
15358TIP3    H246016   3.085   2.451   3.871  2.3613  0.1620 -1.8581
15359TIP3   OH246017   7.372   4.997   1.200  0.4114 -0.1759  0.2699
15359TIP3    H146018   7.352   5.040   1.116 -2.9420 -1.6020  0.1552
15359TIP3    H246019   7.466   4.984   1.199  0.4808 -0.4347 -3.4838
15360TIP3   OH246020   6.894   7.391   6.863  0.1247 -0.2547 -0.1087
15360TIP3    H146021   6.884   7.333   6.788  1.1697 -2.2012  1.1913
15360TIP3    H246022   6.973   7.361   6.907  1.0106  2.5126  0.3674
15361TIP3   OH246023   0.756   1.873   0.206  0.1239 -0.3077 -0.2947
15361TIP3    H146024   0.786   1.890   0.116  1.2383  1.5989  0.3872
15361TIP3    H246025   0.817   1.922   0.261 -0.7040 -1.2288  1.5091
15362TIP3   OH246026   2.929   0.399   3.668 -0.2574 -0.0462  0.0103
15362TIP3    H146027   2.985   0.452   3.725  1.1528  0.6657 -1.9372
15362TIP3    H246028   2.984   0.326   3.640 -0.5527  0.1910 -1.2631
15363TIP3   OH246029   1.785   5.661   0.092 -0.1958  0.0399 -0.6465
15363TIP3    H146030   1.703   5.703   0.119  0.0165  0.2675 -0.3513
15363TIP3    H246031   1.769   5.568   0.105 -0.8115 -0.0225 -1.6877
15364TIP3   OH246032   5.160   5.923   2.216 -0.1986  0.0855  0.4242
15364TIP3    H146033   5.183   5.830   2.220  1.1596  0.4251  1.1899
15364TIP3    H246034   5.237   5.964   2.177 -1.5850  0.6725 -1.8891
15365TIP3   OH246035   1.515   5.410   4.287  0.1001  0.2959 -0.6437
15365TIP3    H146036   1.540   5.326   4.249  1.0613  0.0058  0.5645
15365TIP3    H246037   1.420   5.404   4.300  0.1969 -0.7099 -0.3411
15366TIP3   OH246038   1.661   6.387   1.760 -0.0966  0.4711 -0.0039
15366TIP3    H146039   1.641   6.417   1.849  3.2155  0.6661  0.7956
15366TIP3    H246040   1.665   6.292   1.767  1.4229  0.5387  0.4342
15367TIP3   OH246041   4.565   1.464   3.233 -0.0729  0.5099 -0.6812
15367TIP3    H146042   4.643   1.414   3.256 -0.0754  0.4641 -0.7722
15367TIP3    H246043   4.591   1.517   3.158 -0.1718  0.3843 -0.8050
15368TIP3   OH246044   6.211   5.825   0.892  0.3035 -0.1559 -0.0084
15368TIP3    H146045   6.240   5.906   0.850 -1.2204  0.2498 -0.3389
15368TIP3    H246046   6.142   5.853   0.951  1.4087 -0.9247  1.7159
15369TIP3   OH246047   4.649   1.497   4.357  0.5041 -0.1422  0.1062
15369TIP3    H146048   4.679   1.553   4.284  0.2595  0.5120  0.4943
15369TIP3    H246049   4.574   1.449   4.321  0.8940 -0.4408 -0.3210
15370TIP3   OH246050   1.948   5.928   5.416 -0.1370 -0.1745  0.1511
15370TIP3    H146051   2.009   5.991   5.455  0.5991 -1.7514  1.6779
15370TIP3    H246052   1.879   5.982   5.378  1.4820  1.6290 -0.4308
15371TIP3   OH246053   3.658   4.319   0.443  0.3267  0.0969 -0.0295
15371TIP3    H146054   3.610   4.266   0.378  1.1024 -1.0274  0.2793
15371TIP3    H246055   3.750   4.305   0.421  0.5640  0.8641  0.4444
   8.39382   7.91378   6.85352   0.00000   0.00000  -2.79794   0.00000  -2.79794  -3.95688
