Title t= 458.00000 step= 229000
44469
    1GLY      N    1   6.140   4.964   3.823
    1GLY    HT1    2   6.149   5.049   3.881
    1GLY    HT2    3   6.192   4.887   3.871
    1GLY    HT3    4   6.038   4.944   3.822
    1GLY     CA    5   6.189   4.969   3.688
    1GLY    HA1    6   6.159   4.877   3.639
    1GLY    HA2    7   6.294   4.990   3.696
    1GLY      C    8   6.131   5.081   3.606
    1GLY      O    9   6.045   5.156   3.658
    2PRO      N   10   6.172   5.097   3.478
    2PRO     CD   11   6.283   5.024   3.415
    2PRO    HD1   12   6.242   4.960   3.334
    2PRO    HD2   13   6.343   4.973   3.493
    2PRO     CA   14   6.154   5.227   3.415
    2PRO     HA   15   6.172   5.304   3.487
    2PRO     CB   16   6.247   5.220   3.299
    2PRO    HB1   17   6.295   5.319   3.293
    2PRO    HB2   18   6.200   5.201   3.200
    2PRO     CG   19   6.360   5.133   3.349
    2PRO    HG1   20   6.418   5.093   3.262
    2PRO    HG2   21   6.417   5.185   3.428
    2PRO      C   22   6.005   5.230   3.378
    2PRO      O   23   5.959   5.342   3.362
    3GLY      N   24   5.935   5.117   3.364
    3GLY     HN   25   5.971   5.028   3.391
    3GLY     CA   26   5.795   5.117   3.336
    3GLY    HA1   27   5.766   5.015   3.319
    3GLY    HA2   28   5.768   5.184   3.256
    3GLY      C   29   5.708   5.145   3.454
    3GLY      O   30   5.585   5.159   3.443
    4ASN      N   31   5.766   5.142   3.578
    4ASN     HN   32   5.864   5.129   3.588
    4ASN     CA   33   5.688   5.165   3.704
    4ASN     HA   34   5.591   5.123   3.681
    4ASN     CB   35   5.747   5.086   3.827
    4ASN    HB1   36   5.680   5.098   3.914
    4ASN    HB2   37   5.850   5.122   3.845
    4ASN     CG   38   5.763   4.946   3.795
    4ASN    OD1   39   5.878   4.895   3.822
    4ASN    ND2   40   5.665   4.874   3.732
    4ASN   HD21   41   5.689   4.786   3.692
    4ASN   HD22   42   5.571   4.907   3.727
    4ASN      C   43   5.661   5.313   3.740
    4ASN      O   44   5.762   5.382   3.734
    5PRO      N   45   5.542   5.365   3.771
    5PRO     CD   46   5.418   5.282   3.795
    5PRO    HD1   47   5.417   5.230   3.893
    5PRO    HD2   48   5.410   5.205   3.715
    5PRO     CA   49   5.517   5.507   3.798
    5PRO     HA   50   5.526   5.567   3.709
    5PRO     CB   51   5.366   5.510   3.833
    5PRO    HB1   52   5.326   5.602   3.785
    5PRO    HB2   53   5.342   5.513   3.942
    5PRO     CG   54   5.297   5.383   3.780
    5PRO    HG1   55   5.211   5.359   3.846
    5PRO    HG2   56   5.263   5.402   3.676
    5PRO      C   57   5.601   5.571   3.905
    5PRO      O   58   5.625   5.510   4.008
    6GLY      N   59   5.652   5.694   3.880
    6GLY     HN   60   5.629   5.734   3.792
    6GLY     CA   61   5.716   5.777   3.987
    6GLY    HA1   62   5.759   5.861   3.934
    6GLY    HA2   63   5.782   5.721   4.051
    6GLY      C   64   5.614   5.843   4.084
    6GLY      O   65   5.493   5.814   4.069
    7PRO      N   66   5.648   5.938   4.174
    7PRO     CD   67   5.789   5.949   4.224
    7PRO    HD1   68   5.854   5.998   4.148
    7PRO    HD2   69   5.835   5.849   4.243
    7PRO     CA   70   5.560   5.998   4.273
    7PRO     HA   71   5.533   5.915   4.337
    7PRO     CB   72   5.651   6.087   4.355
    7PRO    HB1   73   5.610   6.092   4.459
    7PRO    HB2   74   5.653   6.190   4.314
    7PRO     CG   75   5.784   6.020   4.359
    7PRO    HG1   76   5.871   6.084   4.385
    7PRO    HG2   77   5.774   5.942   4.437
    7PRO      C   78   5.434   6.069   4.228
    7PRO      O   79   5.442   6.180   4.171
    8GLY      N   80   5.314   6.006   4.270
    8GLY     HN   81   5.317   5.915   4.310
    8GLY     CA   82   5.182   6.076   4.266
    8GLY    HA1   83   5.180   6.159   4.335
    8GLY    HA2   84   5.105   6.007   4.299
    8GLY      C   85   5.127   6.128   4.132
    8GLY      O   86   5.189   6.116   4.032
    9ASN      N   87   5.007   6.184   4.138
    9ASN     HN   88   4.964   6.196   4.227
    9ASN     CA   89   4.936   6.237   4.020
    9ASN     HA   90   5.006   6.260   3.941
    9ASN     CB   91   4.826   6.134   3.979
    9ASN    HB1   92   4.750   6.169   3.907
    9ASN    HB2   93   4.773   6.105   4.073
    9ASN     CG   94   4.903   6.017   3.915
    9ASN    OD1   95   4.951   6.032   3.802
    9ASN    ND2   96   4.891   5.903   3.981
    9ASN   HD21   97   4.921   5.823   3.929
    9ASN   HD22   98   4.856   5.897   4.075
    9ASN      C   99   4.867   6.372   4.052
    9ASN      O  100   4.850   6.409   4.169
   10PRO      N  101   4.837   6.455   3.946
   10PRO     CD  102   4.891   6.437   3.809
   10PRO    HD1  103   4.827   6.360   3.761
   10PRO    HD2  104   4.999   6.413   3.812
   10PRO     CA  105   4.774   6.592   3.960
   10PRO     HA  106   4.847   6.660   4.002
   10PRO     CB  107   4.749   6.628   3.812
   10PRO    HB1  108   4.736   6.735   3.785
   10PRO    HB2  109   4.659   6.582   3.765
   10PRO     CG  110   4.875   6.577   3.751
   10PRO    HG1  111   4.868   6.573   3.640
   10PRO    HG2  112   4.961   6.639   3.781
   10PRO      C  113   4.644   6.609   4.040
   10PRO      O  114   4.556   6.525   4.027
   11GLY      N  115   4.631   6.709   4.131
   11GLY     HN  116   4.710   6.767   4.148
   11GLY     CA  117   4.508   6.736   4.201
   11GLY    HA1  118   4.527   6.817   4.270
   11GLY    HA2  119   4.484   6.642   4.248
   11GLY      C  120   4.387   6.776   4.114
   11GLY      O  121   4.394   6.777   3.993
   12PRO      N  122   4.271   6.811   4.167
   12PRO     CD  123   4.248   6.784   4.307
   12PRO    HD1  124   4.300   6.860   4.369
   12PRO    HD2  125   4.283   6.681   4.328
   12PRO     CA  126   4.149   6.805   4.083
   12PRO     HA  127   4.169   6.738   4.000
   12PRO     CB  128   4.054   6.743   4.181
   12PRO    HB1  129   4.063   6.632   4.176
   12PRO    HB2  130   3.947   6.761   4.156
   12PRO     CG  131   4.102   6.789   4.321
   12PRO    HG1  132   4.056   6.888   4.337
   12PRO    HG2  133   4.074   6.720   4.403
   12PRO      C  134   4.104   6.943   4.045
   12PRO      O  135   4.028   6.948   3.950
   13GLY      N  136   4.133   7.051   4.117
   13GLY     HN  137   4.195   7.031   4.192
   13GLY     CA  138   4.072   7.181   4.096
   13GLY    HA1  139   4.031   7.198   3.998
   13GLY    HA2  140   4.141   7.259   4.124
   13GLY      C  141   3.951   7.198   4.185
   13GLY      O  142   3.906   7.102   4.239
   14ASN      N  143   3.900   7.314   4.210
   14ASN     HN  144   3.952   7.389   4.170
   14ASN     CA  145   3.790   7.352   4.299
   14ASN     HA  146   3.738   7.266   4.339
   14ASN     CB  147   3.835   7.447   4.416
   14ASN    HB1  148   3.745   7.455   4.480
   14ASN    HB2  149   3.870   7.548   4.385
   14ASN     CG  150   3.944   7.386   4.500
   14ASN    OD1  151   3.967   7.267   4.503
   14ASN    ND2  152   4.018   7.472   4.569
   14ASN   HD21  153   4.080   7.432   4.637
   14ASN   HD22  154   4.015   7.571   4.557
   14ASN      C  155   3.690   7.418   4.213
   14ASN      O  156   3.721   7.513   4.142
   15PRO      N  157   3.562   7.376   4.214
   15PRO     CD  158   3.521   7.239   4.239
   15PRO    HD1  159   3.509   7.212   4.347
   15PRO    HD2  160   3.597   7.169   4.197
   15PRO     CA  161   3.460   7.460   4.153
   15PRO     HA  162   3.491   7.474   4.050
   15PRO     CB  163   3.331   7.372   4.154
   15PRO    HB1  164   3.267   7.375   4.063
   15PRO    HB2  165   3.269   7.391   4.244
   15PRO     CG  166   3.394   7.228   4.169
   15PRO    HG1  167   3.323   7.146   4.193
   15PRO    HG2  168   3.424   7.212   4.063
   15PRO      C  169   3.435   7.591   4.213
   15PRO    OT1  170   3.396   7.695   4.149
   15PRO    OT2  171   3.437   7.606   4.333
   16LIT    LIT  172   1.949   6.457   4.141
   17LIT    LIT  173   4.801   1.895   1.160
   18LIT    LIT  174   0.148   7.508   0.193
   19LIT    LIT  175   0.901   6.115   5.115
   20LIT    LIT  176   3.148   0.888   5.223
   21LIT    LIT  177   2.307   6.098   6.728
   22LIT    LIT  178   7.881   0.206   3.576
   23LIT    LIT  179   4.164   0.805   5.835
   24LIT    LIT  180   4.091   6.090   0.646
   25LIT    LIT  181   6.057   6.077   5.351
   26LIT    LIT  182   4.928   7.269   2.094
   27LIT    LIT  183   1.479   1.719   0.940
   28LIT    LIT  184   2.240   3.109   6.206
   29LIT    LIT  185   7.533   0.616   1.129
   30LIT    LIT  186   6.256   2.085   6.319
   31LIT    LIT  187   0.223   2.145   1.208
   32LIT    LIT  188   5.503   2.252   2.879
   33LIT    LIT  189   0.572   5.249   4.624
   34LIT    LIT  190   0.128   1.306   2.654
   35LIT    LIT  191   7.124   5.435   4.603
   36LIT    LIT  192   5.896   3.793   1.432
   37LIT    LIT  193   2.359   1.502   6.743
   38LIT    LIT  194   2.019   1.536   3.045
   39LIT    LIT  195   3.788   6.011   6.085
   40LIT    LIT  196   5.563   1.007   6.653
   41LIT    LIT  197   1.008   7.055   5.856
   42LIT    LIT  198   0.387   2.443   3.495
   43LIT    LIT  199   3.293   7.744   4.319
   44LIT    LIT  200   3.816   3.795   4.474
   45LIT    LIT  201   3.167   2.350   5.596
   46LIT    LIT  202   5.646   4.520   6.462
   47LIT    LIT  203   5.856   3.638   3.651
   48LIT    LIT  204   5.932   3.451   0.203
   49LIT    LIT  205   8.331   3.100   3.543
   50LIT    LIT  206   2.714   4.640   1.537
   51LIT    LIT  207   4.258   1.257   2.025
   52LIT    LIT  208   4.451   3.838   1.531
   53LIT    LIT  209   7.365   6.883   0.117
   54LIT    LIT  210   7.004   0.079   2.668
   55LIT    LIT  211   8.127   4.566   0.646
   56LIT    LIT  212   3.074   7.608   6.729
   57LIT    LIT  213   7.217   5.341   3.278
   58CLA    CLA  214   2.354   2.239   2.682
   59CLA    CLA  215   6.148   0.090   2.206
   60CLA    CLA  216   1.578   1.518   3.285
   61CLA    CLA  217   5.176   5.226   4.780
   62CLA    CLA  218   6.088   7.082   1.259
   63CLA    CLA  219   1.819   0.010   2.907
   64CLA    CLA  220   1.633   5.671   3.205
   65CLA    CLA  221   8.116   7.642   5.824
   66CLA    CLA  222   5.538   3.375   6.045
   67CLA    CLA  223   0.320   4.592   4.094
   68CLA    CLA  224   0.877   5.602   4.517
   69CLA    CLA  225   5.424   4.133   1.960
   70CLA    CLA  226   2.770   0.549   6.584
   71CLA    CLA  227   7.429   4.939   4.256
   72CLA    CLA  228   4.503   2.384   1.551
   73CLA    CLA  229   0.973   2.622   2.590
   74CLA    CLA  230   3.270   2.540   5.504
   75CLA    CLA  231   2.582   4.013   5.194
   76CLA    CLA  232   4.099   2.592   4.450
   77CLA    CLA  233   5.697   3.825   4.787
   78CLA    CLA  234   1.686   0.014   5.483
   79CLA    CLA  235   5.779  -0.029   3.934
   80CLA    CLA  236   1.323   5.296   2.236
   81CLA    CLA  237   4.915   2.842   0.536
   82CLA    CLA  238   7.818   1.979   2.425
   83CLA    CLA  239   4.772   6.026   1.637
   84CLA    CLA  240   3.090   6.866   1.781
   85CLA    CLA  241   7.928   1.297   1.230
   86CLA    CLA  242   5.977   0.941   4.104
   87CLA    CLA  243   8.221   2.659   3.376
   88CLA    CLA  244   4.471   5.097   4.486
   89CLA    CLA  245   7.080   4.811   2.797
   90CLA    CLA  246   6.480   3.810   0.288
   91CLA    CLA  247   3.526   0.188   0.865
   92CLA    CLA  248   7.397   0.786   1.196
   93CLA    CLA  249   6.710   5.931   0.543
   94CLA    CLA  250   2.372   5.185   2.992
   95CLA    CLA  251   7.392   1.910   5.475
   96CLA    CLA  252   1.190   1.099   0.930
   97CLA    CLA  253   1.985   7.564   6.688
   98CLA    CLA  254   0.255   4.852   5.478
   99CLA    CLA  255   6.993   3.641   0.788
  100TIP3   OH2  256   4.845   1.861   4.742
  100TIP3    H1  257   4.887   1.895   4.821
  100TIP3    H2  258   4.919   1.838   4.685
  101TIP3   OH2  259   5.670   2.628   0.532
  101TIP3    H1  260   5.577   2.646   0.546
  101TIP3    H2  261   5.710   2.634   0.619
  102TIP3   OH2  262   4.124   1.487   0.051
  102TIP3    H1  263   4.045   1.483   0.104
  102TIP3    H2  264   4.141   1.580   0.039
  103TIP3   OH2  265   2.041   4.610   6.118
  103TIP3    H1  266   2.044   4.703   6.094
  103TIP3    H2  267   1.951   4.597   6.149
  104TIP3   OH2  268   4.295   6.850   6.362
  104TIP3    H1  269   4.349   6.857   6.441
  104TIP3    H2  270   4.221   6.908   6.379
  105TIP3   OH2  271   5.581   2.109   5.843
  105TIP3    H1  272   5.517   2.051   5.884
  105TIP3    H2  273   5.564   2.195   5.881
  106TIP3   OH2  274   2.395   5.042   1.499
  106TIP3    H1  275   2.451   5.104   1.452
  106TIP3    H2  276   2.423   5.048   1.590
  107TIP3   OH2  277   4.191   1.876   1.005
  107TIP3    H1  278   4.129   1.818   0.961
  107TIP3    H2  279   4.212   1.943   0.940
  108TIP3   OH2  280   7.096   1.799   4.739
  108TIP3    H1  281   7.020   1.741   4.743
  108TIP3    H2  282   7.172   1.741   4.747
  109TIP3   OH2  283   0.081   3.997   1.836
  109TIP3    H1  284   0.036   4.021   1.916
  109TIP3    H2  285   0.030   3.925   1.799
  110TIP3   OH2  286   3.903   0.631   2.372
  110TIP3    H1  287   3.875   0.710   2.419
  110TIP3    H2  288   3.982   0.658   2.326
  111TIP3   OH2  289   7.952   0.429   4.239
  111TIP3    H1  290   7.864   0.395   4.255
  111TIP3    H2  291   8.011   0.357   4.263
  112TIP3   OH2  292   6.996   4.323   3.383
  112TIP3    H1  293   7.035   4.293   3.465
  112TIP3    H2  294   6.905   4.292   3.386
  113TIP3   OH2  295   7.571   1.466   4.331
  113TIP3    H1  296   7.515   1.488   4.405
  113TIP3    H2  297   7.546   1.527   4.262
  114TIP3   OH2  298   6.513   5.169   1.330
  114TIP3    H1  299   6.497   5.138   1.240
  114TIP3    H2  300   6.608   5.181   1.333
  115TIP3   OH2  301   2.564   5.823   1.373
  115TIP3    H1  302   2.590   5.915   1.368
  115TIP3    H2  303   2.477   5.820   1.335
  116TIP3   OH2  304   5.232   2.067   4.026
  116TIP3    H1  305   5.147   2.034   3.996
  116TIP3    H2  306   5.212   2.114   4.107
  117TIP3   OH2  307   5.173   5.320   5.433
  117TIP3    H1  308   5.145   5.276   5.352
  117TIP3    H2  309   5.098   5.313   5.491
  118TIP3   OH2  310   0.866   1.834   2.259
  118TIP3    H1  311   0.857   1.908   2.199
  118TIP3    H2  312   0.805   1.768   2.226
  119TIP3   OH2  313   3.238   3.171   5.971
  119TIP3    H1  314   3.225   3.233   5.899
  119TIP3    H2  315   3.150   3.154   6.005
  120TIP3   OH2  316   2.083   5.685   1.325
  120TIP3    H1  317   2.003   5.635   1.311
  120TIP3    H2  318   2.135   5.632   1.386
  121TIP3   OH2  319   1.953   4.487   1.168
  121TIP3    H1  320   2.013   4.415   1.148
  121TIP3    H2  321   1.866   4.447   1.163
  122TIP3   OH2  322   3.823   7.287   6.560
  122TIP3    H1  323   3.864   7.363   6.517
  122TIP3    H2  324   3.749   7.324   6.608
  123TIP3   OH2  325   3.236   5.802   1.467
  123TIP3    H1  326   3.290   5.862   1.519
  123TIP3    H2  327   3.269   5.813   1.378
  124TIP3   OH2  328   4.658   6.260   2.162
  124TIP3    H1  329   4.740   6.306   2.179
  124TIP3    H2  330   4.591   6.312   2.206
  125TIP3   OH2  331   7.294   0.891   2.392
  125TIP3    H1  332   7.332   0.862   2.475
  125TIP3    H2  333   7.356   0.955   2.357
  126TIP3   OH2  334   4.907   7.697   4.597
  126TIP3    H1  335   4.999   7.708   4.574
  126TIP3    H2  336   4.874   7.786   4.609
  127TIP3   OH2  337   6.964   6.204   1.968
  127TIP3    H1  338   6.930   6.293   1.974
  127TIP3    H2  339   6.961   6.171   2.058
  128TIP3   OH2  340   7.227   2.156   5.625
  128TIP3    H1  341   7.138   2.122   5.625
  128TIP3    H2  342   7.282   2.081   5.604
  129TIP3   OH2  343   5.072   5.921   0.872
  129TIP3    H1  344   5.159   5.952   0.848
  129TIP3    H2  345   5.021   6.000   0.885
  130TIP3   OH2  346   1.371   0.201   1.972
  130TIP3    H1  347   1.379   0.112   2.006
  130TIP3    H2  348   1.461   0.227   1.951
  131TIP3   OH2  349   7.873   1.723   3.201
  131TIP3    H1  350   7.952   1.753   3.155
  131TIP3    H2  351   7.802   1.740   3.139
  132TIP3   OH2  352   7.785   3.521   3.930
  132TIP3    H1  353   7.861   3.501   3.985
  132TIP3    H2  354   7.783   3.617   3.926
  133TIP3   OH2  355   1.121   2.865   0.447
  133TIP3    H1  356   1.029   2.868   0.476
  133TIP3    H2  357   1.141   2.955   0.422
  134TIP3   OH2  358   3.370   6.863   6.735
  134TIP3    H1  359   3.369   6.767   6.732
  134TIP3    H2  360   3.317   6.889   6.660
  135TIP3   OH2  361   6.567   2.790   2.452
  135TIP3    H1  362   6.574   2.784   2.357
  135TIP3    H2  363   6.475   2.769   2.471
  136TIP3   OH2  364   4.961   6.411   0.463
  136TIP3    H1  365   5.044   6.395   0.418
  136TIP3    H2  366   4.920   6.481   0.413
  137TIP3   OH2  367   4.164   5.895   3.366
  137TIP3    H1  368   4.251   5.930   3.384
  137TIP3    H2  369   4.153   5.825   3.430
  138TIP3   OH2  370   3.865   2.782   2.166
  138TIP3    H1  371   3.776   2.801   2.138
  138TIP3    H2  372   3.897   2.865   2.200
  139TIP3   OH2  373   7.870   2.054   4.307
  139TIP3    H1  374   7.935   2.038   4.375
  139TIP3    H2  375   7.811   2.119   4.345
  140TIP3   OH2  376   0.752   6.647   4.433
  140TIP3    H1  377   0.805   6.572   4.461
  140TIP3    H2  378   0.666   6.609   4.415
  141TIP3   OH2  379   6.775   2.145   4.722
  141TIP3    H1  380   6.720   2.101   4.658
  141TIP3    H2  381   6.782   2.082   4.794
  142TIP3   OH2  382   3.335   2.465   0.302
  142TIP3    H1  383   3.249   2.494   0.272
  142TIP3    H2  384   3.358   2.526   0.373
  143TIP3   OH2  385   1.982   4.846   5.250
  143TIP3    H1  386   2.022   4.811   5.330
  143TIP3    H2  387   2.056   4.877   5.198
  144TIP3   OH2  388   5.121   7.146   5.558
  144TIP3    H1  389   5.031   7.174   5.546
  144TIP3    H2  390   5.153   7.199   5.631
  145TIP3   OH2  391   6.612   2.062   4.478
  145TIP3    H1  392   6.523   2.073   4.443
  145TIP3    H2  393   6.641   1.978   4.443
  146TIP3   OH2  394   2.888   6.053   2.517
  146TIP3    H1  395   2.822   6.081   2.581
  146TIP3    H2  396   2.924   6.135   2.483
  147TIP3   OH2  397   7.054   4.860   6.344
  147TIP3    H1  398   7.106   4.925   6.391
  147TIP3    H2  399   7.037   4.792   6.409
  148TIP3   OH2  400   5.686   0.361   2.646
  148TIP3    H1  401   5.665   0.269   2.662
  148TIP3    H2  402   5.731   0.360   2.561
  149TIP3   OH2  403   2.095   2.672   3.843
  149TIP3    H1  404   2.010   2.714   3.853
  149TIP3    H2  405   2.135   2.717   3.768
  150TIP3   OH2  406   0.790   7.238   1.276
  150TIP3    H1  407   0.744   7.164   1.237
  150TIP3    H2  408   0.878   7.205   1.295
  151TIP3   OH2  409   4.018   6.937   1.583
  151TIP3    H1  410   4.001   6.971   1.495
  151TIP3    H2  411   4.096   6.984   1.612
  152TIP3   OH2  412   4.841   1.055   2.016
  152TIP3    H1  413   4.780   1.011   2.075
  152TIP3    H2  414   4.854   0.992   1.945
  153TIP3   OH2  415   5.943   0.355   4.502
  153TIP3    H1  416   6.022   0.365   4.450
  153TIP3    H2  417   5.974   0.334   4.590
  154TIP3   OH2  418   0.720   0.562   3.182
  154TIP3    H1  419   0.669   0.614   3.243
  154TIP3    H2  420   0.727   0.616   3.103
  155TIP3   OH2  421   1.204   2.145   2.239
  155TIP3    H1  422   1.265   2.144   2.312
  155TIP3    H2  423   1.133   2.202   2.268
  156TIP3   OH2  424   0.377   3.686   2.495
  156TIP3    H1  425   0.361   3.777   2.469
  156TIP3    H2  426   0.380   3.688   2.591
  157TIP3   OH2  427   6.311   0.906   1.959
  157TIP3    H1  428   6.224   0.946   1.952
  157TIP3    H2  429   6.297   0.815   1.934
  158TIP3   OH2  430   0.160   1.931   5.420
  158TIP3    H1  431   0.103   1.863   5.385
  158TIP3    H2  432   0.116   2.013   5.399
  159TIP3   OH2  433   1.700   0.827   6.444
  159TIP3    H1  434   1.788   0.789   6.447
  159TIP3    H2  435   1.704   0.890   6.372
  160TIP3   OH2  436   6.214   7.125   6.067
  160TIP3    H1  437   6.288   7.169   6.025
  160TIP3    H2  438   6.139   7.147   6.012
  161TIP3   OH2  439   4.430   4.470   4.180
  161TIP3    H1  440   4.377   4.495   4.256
  161TIP3    H2  441   4.382   4.503   4.105
  162TIP3   OH2  442   1.717   6.518   4.084
  162TIP3    H1  443   1.679   6.460   4.149
  162TIP3    H2  444   1.673   6.602   4.097
  163TIP3   OH2  445   6.834   7.343   4.686
  163TIP3    H1  446   6.851   7.422   4.738
  163TIP3    H2  447   6.823   7.274   4.751
  164TIP3   OH2  448   0.362   5.178   1.290
  164TIP3    H1  449   0.301   5.248   1.267
  164TIP3    H2  450   0.320   5.133   1.363
  165TIP3   OH2  451   3.505   2.263   5.650
  165TIP3    H1  452   3.507   2.227   5.739
  165TIP3    H2  453   3.425   2.227   5.611
  166TIP3   OH2  454   5.369   3.188   3.452
  166TIP3    H1  455   5.460   3.205   3.429
  166TIP3    H2  456   5.331   3.149   3.373
  167TIP3   OH2  457   4.229   4.515   0.460
  167TIP3    H1  458   4.262   4.579   0.397
  167TIP3    H2  459   4.281   4.436   0.444
  168TIP3   OH2  460   5.681   3.462   2.981
  168TIP3    H1  461   5.609   3.401   2.999
  168TIP3    H2  462   5.640   3.549   2.981
  169TIP3   OH2  463   5.652   6.103   1.717
  169TIP3    H1  464   5.671   6.184   1.670
  169TIP3    H2  465   5.597   6.129   1.791
  170TIP3   OH2  466   6.119   3.417   0.186
  170TIP3    H1  467   6.169   3.497   0.201
  170TIP3    H2  468   6.183   3.356   0.150
  171TIP3   OH2  469   3.265   3.391   2.690
  171TIP3    H1  470   3.336   3.453   2.707
  171TIP3    H2  471   3.293   3.342   2.613
  172TIP3   OH2  472   3.378   1.809   4.895
  172TIP3    H1  473   3.404   1.841   4.809
  172TIP3    H2  474   3.336   1.885   4.937
  173TIP3   OH2  475   6.375   3.092   2.976
  173TIP3    H1  476   6.373   2.998   2.995
  173TIP3    H2  477   6.326   3.132   3.048
  174TIP3   OH2  478   7.334   5.654   3.803
  174TIP3    H1  479   7.420   5.695   3.799
  174TIP3    H2  480   7.285   5.692   3.730
  175TIP3   OH2  481   2.677   1.372   3.493
  175TIP3    H1  482   2.733   1.426   3.437
  175TIP3    H2  483   2.588   1.396   3.467
  176TIP3   OH2  484   0.174   1.355   5.095
  176TIP3    H1  485   0.231   1.420   5.055
  176TIP3    H2  486   0.178   1.374   5.188
  177TIP3   OH2  487   7.265   5.318   0.478
  177TIP3    H1  488   7.308   5.289   0.559
  177TIP3    H2  489   7.177   5.344   0.506
  178TIP3   OH2  490   7.825   5.401   3.886
  178TIP3    H1  491   7.750   5.376   3.940
  178TIP3    H2  492   7.859   5.318   3.852
  179TIP3   OH2  493   2.794   5.089   4.428
  179TIP3    H1  494   2.846   5.026   4.379
  179TIP3    H2  495   2.758   5.148   4.361
  180TIP3   OH2  496   0.488   3.684   0.612
  180TIP3    H1  497   0.584   3.686   0.621
  180TIP3    H2  498   0.461   3.773   0.635
  181TIP3   OH2  499   5.428   0.608   4.614
  181TIP3    H1  500   5.519   0.639   4.603
  181TIP3    H2  501   5.376   0.688   4.611
  182TIP3   OH2  502   1.816   4.894   1.995
  182TIP3    H1  503   1.753   4.936   1.937
  182TIP3    H2  504   1.901   4.927   1.968
  183TIP3   OH2  505   2.222   7.773   2.932
  183TIP3    H1  506   2.305   7.795   2.975
  183TIP3    H2  507   2.241   7.778   2.838
  184TIP3   OH2  508   5.489   6.483   1.938
  184TIP3    H1  509   5.539   6.505   2.017
  184TIP3    H2  510   5.534   6.407   1.901
  185TIP3   OH2  511   0.442   0.878   0.295
  185TIP3    H1  512   0.401   0.963   0.285
  185TIP3    H2  513   0.471   0.875   0.387
  186TIP3   OH2  514   1.364   4.236   2.218
  186TIP3    H1  515   1.339   4.171   2.151
  186TIP3    H2  516   1.361   4.187   2.300
  187TIP3   OH2  517   4.819   0.848   5.205
  187TIP3    H1  518   4.902   0.878   5.242
  187TIP3    H2  519   4.844   0.787   5.136
  188TIP3   OH2  520   5.181   5.380   3.371
  188TIP3    H1  521   5.241   5.315   3.408
  188TIP3    H2  522   5.231   5.422   3.301
  189TIP3   OH2  523   4.015   5.877   1.401
  189TIP3    H1  524   4.041   5.793   1.440
  189TIP3    H2  525   4.034   5.867   1.308
  190TIP3   OH2  526   2.523   3.110   3.809
  190TIP3    H1  527   2.459   3.046   3.839
  190TIP3    H2  528   2.596   3.100   3.871
  191TIP3   OH2  529   3.159   5.120   1.845
  191TIP3    H1  530   3.094   5.180   1.809
  191TIP3    H2  531   3.214   5.174   1.902
  192TIP3   OH2  532   2.884   3.534   0.783
  192TIP3    H1  533   2.979   3.530   0.787
  192TIP3    H2  534   2.862   3.512   0.692
  193TIP3   OH2  535   5.351   5.565   1.275
  193TIP3    H1  536   5.368   5.474   1.250
  193TIP3    H2  537   5.436   5.599   1.303
  194TIP3   OH2  538   1.901   0.953   6.323
  194TIP3    H1  539   1.934   1.029   6.276
  194TIP3    H2  540   1.910   0.976   6.416
  195TIP3   OH2  541   4.048   4.666   0.643
  195TIP3    H1  542   4.077   4.755   0.660
  195TIP3    H2  543   4.087   4.643   0.558
  196TIP3   OH2  544   8.253   7.398   2.353
  196TIP3    H1  545   8.270   7.482   2.310
  196TIP3    H2  546   8.300   7.403   2.436
  197TIP3   OH2  547   6.047   3.286   4.496
  197TIP3    H1  548   6.137   3.274   4.466
  197TIP3    H2  549   6.055   3.333   4.579
  198TIP3   OH2  550   6.739   5.800   2.203
  198TIP3    H1  551   6.691   5.879   2.225
  198TIP3    H2  552   6.714   5.737   2.271
  199TIP3   OH2  553   7.839   1.798   4.939
  199TIP3    H1  554   7.842   1.879   4.990
  199TIP3    H2  555   7.926   1.761   4.948
  200TIP3   OH2  556   0.033   1.067   4.079
  200TIP3    H1  557   0.030   1.131   4.150
  200TIP3    H2  558   0.116   1.085   4.034
  201TIP3   OH2  559   6.134   3.663   5.964
  201TIP3    H1  560   6.120   3.743   5.913
  201TIP3    H2  561   6.145   3.594   5.899
  202TIP3   OH2  562   4.477   3.888   2.545
  202TIP3    H1  563   4.557   3.843   2.572
  202TIP3    H2  564   4.411   3.819   2.540
  203TIP3   OH2  565   4.142   3.672   6.724
  203TIP3    H1  566   4.099   3.724   6.656
  203TIP3    H2  567   4.221   3.638   6.681
  204TIP3   OH2  568   4.111   7.665   0.643
  204TIP3    H1  569   4.133   7.674   0.550
  204TIP3    H2  570   4.042   7.730   0.657
  205TIP3   OH2  571   5.825   3.378   5.525
  205TIP3    H1  572   5.915   3.357   5.498
  205TIP3    H2  573   5.835   3.456   5.580
  206TIP3   OH2  574   0.540   0.536   4.030
  206TIP3    H1  575   0.595   0.572   3.960
  206TIP3    H2  576   0.459   0.587   4.024
  207TIP3   OH2  577   8.211   3.692   5.326
  207TIP3    H1  578   8.215   3.724   5.236
  207TIP3    H2  579   8.159   3.757   5.372
  208TIP3   OH2  580   4.729   2.408   1.075
  208TIP3    H1  581   4.716   2.500   1.100
  208TIP3    H2  582   4.694   2.402   0.987
  209TIP3   OH2  583   1.420   2.565   5.360
  209TIP3    H1  584   1.336   2.575   5.315
  209TIP3    H2  585   1.452   2.655   5.373
  210TIP3   OH2  586   5.259   0.162   4.838
  210TIP3    H1  587   5.306   0.103   4.779
  210TIP3    H2  588   5.274   0.249   4.803
  211TIP3   OH2  589   7.901   3.475   1.029
  211TIP3    H1  590   7.893   3.400   0.970
  211TIP3    H2  591   7.830   3.464   1.092
  212TIP3   OH2  592   5.817   0.048   3.060
  212TIP3    H1  593   5.844  -0.009   2.988
  212TIP3    H2  594   5.747   0.102   3.024
  213TIP3   OH2  595   4.811   0.913   0.340
  213TIP3    H1  596   4.791   1.002   0.368
  213TIP3    H2  597   4.859   0.875   0.414
  214TIP3   OH2  598   1.993   0.162   1.667
  214TIP3    H1  599   2.030   0.133   1.583
  214TIP3    H2  600   1.899   0.154   1.655
  215TIP3   OH2  601   5.721   2.909   1.833
  215TIP3    H1  602   5.745   2.862   1.912
  215TIP3    H2  603   5.628   2.930   1.844
  216TIP3   OH2  604   6.452   6.489   4.103
  216TIP3    H1  605   6.540   6.518   4.128
  216TIP3    H2  606   6.394   6.546   4.153
  217TIP3   OH2  607   5.864   5.630   1.773
  217TIP3    H1  608   5.821   5.715   1.768
  217TIP3    H2  609   5.802   5.569   1.733
  218TIP3   OH2  610   4.660   0.903   2.166
  218TIP3    H1  611   4.699   0.824   2.206
  218TIP3    H2  612   4.568   0.881   2.154
  219TIP3   OH2  613   0.708   7.214   5.278
  219TIP3    H1  614   0.620   7.177   5.267
  219TIP3    H2  615   0.742   7.221   5.189
  220TIP3   OH2  616   0.956   1.715   6.650
  220TIP3    H1  617   0.936   1.663   6.572
  220TIP3    H2  618   0.904   1.676   6.720
  221TIP3   OH2  619   2.357   0.802   3.483
  221TIP3    H1  620   2.387   0.715   3.455
  221TIP3    H2  621   2.356   0.797   3.578
  222TIP3   OH2  622   3.286   3.376   1.015
  222TIP3    H1  623   3.293   3.348   1.106
  222TIP3    H2  624   3.376   3.389   0.987
  223TIP3   OH2  625   3.696   0.354   6.241
  223TIP3    H1  626   3.637   0.280   6.250
  223TIP3    H2  627   3.731   0.347   6.152
  224TIP3   OH2  628   2.545   3.361   4.295
  224TIP3    H1  629   2.463   3.315   4.315
  224TIP3    H2  630   2.562   3.414   4.373
  225TIP3   OH2  631   2.584   1.220   1.204
  225TIP3    H1  632   2.599   1.311   1.181
  225TIP3    H2  633   2.546   1.181   1.124
  226TIP3   OH2  634   6.464   5.293   6.236
  226TIP3    H1  635   6.449   5.385   6.257
  226TIP3    H2  636   6.555   5.276   6.263
  227TIP3   OH2  637   4.025   1.425   2.581
  227TIP3    H1  638   4.117   1.405   2.569
  227TIP3    H2  639   4.006   1.399   2.672
  228TIP3   OH2  640   7.785   2.328   3.417
  228TIP3    H1  641   7.708   2.313   3.363
  228TIP3    H2  642   7.827   2.404   3.379
  229TIP3   OH2  643   5.607   2.866   5.334
  229TIP3    H1  644   5.667   2.921   5.385
  229TIP3    H2  645   5.650   2.781   5.329
  230TIP3   OH2  646   3.452   3.407   4.794
  230TIP3    H1  647   3.427   3.318   4.770
  230TIP3    H2  648   3.412   3.421   4.880
  231TIP3   OH2  649   7.468   0.135   4.133
  231TIP3    H1  650   7.459   0.217   4.085
  231TIP3    H2  651   7.378   0.109   4.152
  232TIP3   OH2  652   3.549   4.174   0.159
  232TIP3    H1  653   3.477   4.216   0.206
  232TIP3    H2  654   3.599   4.129   0.228
  233TIP3   OH2  655   4.651   2.900   6.111
  233TIP3    H1  656   4.638   2.972   6.049
  233TIP3    H2  657   4.706   2.837   6.065
  234TIP3   OH2  658   3.200   4.627   3.255
  234TIP3    H1  659   3.186   4.563   3.185
  234TIP3    H2  660   3.268   4.685   3.220
  235TIP3   OH2  661   7.042   3.786   4.842
  235TIP3    H1  662   7.041   3.820   4.752
  235TIP3    H2  663   6.960   3.816   4.880
  236TIP3   OH2  664   5.794   6.490   3.162
  236TIP3    H1  665   5.821   6.486   3.070
  236TIP3    H2  666   5.724   6.555   3.164
  237TIP3   OH2  667   3.738   0.676   2.912
  237TIP3    H1  668   3.686   0.633   2.844
  237TIP3    H2  669   3.826   0.680   2.877
  238TIP3   OH2  670   7.192   7.694   1.754
  238TIP3    H1  671   7.106   7.721   1.724
  238TIP3    H2  672   7.174   7.633   1.826
  239TIP3   OH2  673   2.448   4.385   5.256
  239TIP3    H1  674   2.525   4.374   5.201
  239TIP3    H2  675   2.463   4.328   5.332
  240TIP3   OH2  676   1.489   4.462   2.764
  240TIP3    H1  677   1.481   4.547   2.721
  240TIP3    H2  678   1.494   4.399   2.692
  241TIP3   OH2  679   1.572   7.576   6.608
  241TIP3    H1  680   1.629   7.510   6.568
  241TIP3    H2  681   1.624   7.612   6.680
  242TIP3   OH2  682   3.942   0.393   1.565
  242TIP3    H1  683   3.875   0.348   1.514
  242TIP3    H2  684   3.917   0.485   1.562
  243TIP3   OH2  685   5.792   3.571   0.579
  243TIP3    H1  686   5.817   3.589   0.669
  243TIP3    H2  687   5.706   3.529   0.586
  244TIP3   OH2  688   2.741   3.319   1.818
  244TIP3    H1  689   2.719   3.355   1.904
  244TIP3    H2  690   2.715   3.227   1.823
  245TIP3   OH2  691   2.165   5.734   2.404
  245TIP3    H1  692   2.165   5.816   2.354
  245TIP3    H2  693   2.234   5.682   2.364
  246TIP3   OH2  694   3.769   4.420   6.791
  246TIP3    H1  695   3.839   4.410   6.727
  246TIP3    H2  696   3.755   4.514   6.797
  247TIP3   OH2  697   0.150   1.513   5.328
  247TIP3    H1  698   0.095   1.581   5.290
  247TIP3    H2  699   0.216   1.560   5.379
  248TIP3   OH2  700   0.286   5.924   6.486
  248TIP3    H1  701   0.280   6.003   6.539
  248TIP3    H2  702   0.268   5.853   6.546
  249TIP3   OH2  703   6.724   4.758   0.061
  249TIP3    H1  704   6.649   4.753   0.120
  249TIP3    H2  705   6.765   4.843   0.082
  250TIP3   OH2  706   2.607   4.339   0.710
  250TIP3    H1  707   2.589   4.293   0.628
  250TIP3    H2  708   2.522   4.342   0.755
  251TIP3   OH2  709   4.640   1.050   2.842
  251TIP3    H1  710   4.736   1.048   2.841
  251TIP3    H2  711   4.617   1.131   2.797
  252TIP3   OH2  712   2.232   6.077   4.885
  252TIP3    H1  713   2.306   6.138   4.889
  252TIP3    H2  714   2.193   6.092   4.799
  253TIP3   OH2  715   1.329   2.609   2.088
  253TIP3    H1  716   1.243   2.651   2.095
  253TIP3    H2  717   1.388   2.666   2.137
  254TIP3   OH2  718   0.364   5.397   5.065
  254TIP3    H1  719   0.378   5.318   5.013
  254TIP3    H2  720   0.302   5.371   5.132
  255TIP3   OH2  721   5.878   3.633   6.313
  255TIP3    H1  722   5.786   3.622   6.334
  255TIP3    H2  723   5.902   3.551   6.269
  256TIP3   OH2  724   8.224   1.870   0.152
  256TIP3    H1  725   8.274   1.923   0.089
  256TIP3    H2  726   8.133   1.880   0.125
  257TIP3   OH2  727   1.063   2.082   2.006
  257TIP3    H1  728   1.085   2.153   2.067
  257TIP3    H2  729   1.097   2.003   2.047
  258TIP3   OH2  730   0.471   3.346   3.401
  258TIP3    H1  731   0.541   3.377   3.342
  258TIP3    H2  732   0.390   3.363   3.353
  259TIP3   OH2  733   1.593   0.877   6.684
  259TIP3    H1  734   1.637   0.850   6.603
  259TIP3    H2  735   1.500   0.871   6.663
  260TIP3   OH2  736   5.103   6.629   2.915
  260TIP3    H1  737   5.051   6.654   2.839
  260TIP3    H2  738   5.194   6.635   2.885
  261TIP3   OH2  739   2.886   4.596   2.749
  261TIP3    H1  740   2.855   4.590   2.659
  261TIP3    H2  741   2.861   4.684   2.777
  262TIP3   OH2  742   3.931   2.560   5.225
  262TIP3    H1  743   3.931   2.480   5.277
  262TIP3    H2  744   4.008   2.552   5.169
  263TIP3   OH2  745   8.277   6.939   5.249
  263TIP3    H1  746   8.264   7.000   5.176
  263TIP3    H2  747   8.349   6.882   5.221
  264TIP3   OH2  748   3.308   1.782   3.932
  264TIP3    H1  749   3.269   1.711   3.984
  264TIP3    H2  750   3.367   1.737   3.871
  265TIP3   OH2  751   0.640   4.580   1.280
  265TIP3    H1  752   0.599   4.651   1.231
  265TIP3    H2  753   0.651   4.616   1.368
  266TIP3   OH2  754   6.491   0.446   4.729
  266TIP3    H1  755   6.529   0.481   4.648
  266TIP3    H2  756   6.564   0.405   4.775
  267TIP3   OH2  757   7.034   4.854   3.405
  267TIP3    H1  758   6.990   4.785   3.456
  267TIP3    H2  759   6.971   4.926   3.404
  268TIP3   OH2  760   5.427   6.543   1.475
  268TIP3    H1  761   5.486   6.579   1.542
  268TIP3    H2  762   5.343   6.586   1.491
  269TIP3   OH2  763   2.518   1.968   3.134
  269TIP3    H1  764   2.467   1.986   3.055
  269TIP3    H2  765   2.536   1.874   3.129
  270TIP3   OH2  766   7.319   3.685   5.338
  270TIP3    H1  767   7.286   3.645   5.419
  270TIP3    H2  768   7.409   3.655   5.331
  271TIP3   OH2  769   2.946   0.624   1.981
  271TIP3    H1  770   3.007   0.683   1.938
  271TIP3    H2  771   2.878   0.681   2.016
  272TIP3   OH2  772   2.142   7.800   6.609
  272TIP3    H1  773   2.110   7.842   6.530
  272TIP3    H2  774   2.095   7.717   6.614
  273TIP3   OH2  775   4.397   7.208   0.376
  273TIP3    H1  776   4.356   7.274   0.319
  273TIP3    H2  777   4.476   7.250   0.410
  274TIP3   OH2  778   5.054   4.793   3.490
  274TIP3    H1  779   5.085   4.786   3.400
  274TIP3    H2  780   4.961   4.771   3.484
  275TIP3   OH2  781   7.979   6.876   4.568
  275TIP3    H1  782   7.935   6.825   4.500
  275TIP3    H2  783   7.932   6.960   4.568
  276TIP3   OH2  784   6.150   6.572   5.544
  276TIP3    H1  785   6.199   6.533   5.471
  276TIP3    H2  786   6.058   6.565   5.517
  277TIP3   OH2  787   4.701   3.735   2.599
  277TIP3    H1  788   4.709   3.648   2.560
  277TIP3    H2  789   4.756   3.791   2.543
  278TIP3   OH2  790   5.074   7.054   1.720
  278TIP3    H1  791   5.126   7.091   1.648
  278TIP3    H2  792   5.114   6.970   1.738
  279TIP3   OH2  793   3.755   0.245   1.422
  279TIP3    H1  794   3.842   0.205   1.420
  279TIP3    H2  795   3.741   0.276   1.333
  280TIP3   OH2  796   4.580   1.863   3.352
  280TIP3    H1  797   4.485   1.862   3.341
  280TIP3    H2  798   4.612   1.793   3.295
  281TIP3   OH2  799   8.268   3.624   0.177
  281TIP3    H1  800   8.344   3.592   0.129
  281TIP3    H2  801   8.226   3.546   0.212
  282TIP3   OH2  802   0.932   3.014   5.304
  282TIP3    H1  803   0.863   3.025   5.369
  282TIP3    H2  804   0.978   3.098   5.304
  283TIP3   OH2  805   6.272   0.539   6.288
  283TIP3    H1  806   6.258   0.622   6.333
  283TIP3    H2  807   6.363   0.517   6.307
  284TIP3   OH2  808   3.305   5.189   1.339
  284TIP3    H1  809   3.267   5.244   1.270
  284TIP3    H2  810   3.320   5.104   1.297
  285TIP3   OH2  811   7.801   3.568   6.535
  285TIP3    H1  812   7.721   3.587   6.487
  285TIP3    H2  813   7.792   3.616   6.617
  286TIP3   OH2  814   7.828   2.397   4.424
  286TIP3    H1  815   7.903   2.448   4.453
  286TIP3    H2  816   7.778   2.380   4.504
  287TIP3   OH2  817   2.926   6.522   6.399
  287TIP3    H1  818   2.889   6.609   6.412
  287TIP3    H2  819   2.900   6.473   6.478
  288TIP3   OH2  820   5.685   2.371   5.260
  288TIP3    H1  821   5.688   2.406   5.171
  288TIP3    H2  822   5.618   2.303   5.256
  289TIP3   OH2  823   3.342   5.104   4.194
  289TIP3    H1  824   3.406   5.170   4.170
  289TIP3    H2  825   3.388   5.020   4.183
  290TIP3   OH2  826   7.448   3.996   1.429
  290TIP3    H1  827   7.510   4.064   1.453
  290TIP3    H2  828   7.371   4.014   1.483
  291TIP3   OH2  829   8.104   6.317   4.069
  291TIP3    H1  830   8.173   6.328   4.003
  291TIP3    H2  831   8.042   6.255   4.030
  292TIP3   OH2  832   2.435   2.254   5.961
  292TIP3    H1  833   2.366   2.320   5.956
  292TIP3    H2  834   2.393   2.174   5.928
  293TIP3   OH2  835   8.169   1.345   1.920
  293TIP3    H1  836   8.201   1.366   1.832
  293TIP3    H2  837   8.166   1.249   1.921
  294TIP3   OH2  838   2.677   6.890   0.378
  294TIP3    H1  839   2.750   6.832   0.355
  294TIP3    H2  840   2.682   6.898   0.473
  295TIP3   OH2  841   2.375   2.947   5.395
  295TIP3    H1  842   2.449   2.974   5.449
  295TIP3    H2  843   2.392   2.985   5.309
  296TIP3   OH2  844   2.099   4.390   4.002
  296TIP3    H1  845   2.145   4.372   4.084
  296TIP3    H2  846   2.048   4.469   4.019
  297TIP3   OH2  847   2.391   0.643   4.752
  297TIP3    H1  848   2.447   0.700   4.805
  297TIP3    H2  849   2.366   0.698   4.677
  298TIP3   OH2  850   2.270   5.095   5.845
  298TIP3    H1  851   2.260   5.165   5.909
  298TIP3    H2  852   2.339   5.039   5.880
  299TIP3   OH2  853   4.279   2.122   6.263
  299TIP3    H1  854   4.305   2.215   6.263
  299TIP3    H2  855   4.282   2.097   6.355
  300TIP3   OH2  856   7.924   2.327   1.279
  300TIP3    H1  857   7.893   2.409   1.239
  300TIP3    H2  858   7.981   2.288   1.213
  301TIP3   OH2  859   2.020   6.523   5.040
  301TIP3    H1  860   2.047   6.615   5.049
  301TIP3    H2  861   2.095   6.480   4.999
  302TIP3   OH2  862   6.459   2.030   6.672
  302TIP3    H1  863   6.526   2.075   6.620
  302TIP3    H2  864   6.508   1.983   6.739
  303TIP3   OH2  865   2.187   7.444   3.856
  303TIP3    H1  866   2.170   7.525   3.808
  303TIP3    H2  867   2.123   7.445   3.927
  304TIP3   OH2  868   4.602   3.568   5.874
  304TIP3    H1  869   4.670   3.632   5.851
  304TIP3    H2  870   4.623   3.491   5.821
  305TIP3   OH2  871   7.301   1.961   0.546
  305TIP3    H1  872   7.218   1.996   0.578
  305TIP3    H2  873   7.276   1.900   0.477
  306TIP3   OH2  874   0.330   0.593   4.409
  306TIP3    H1  875   0.405   0.600   4.351
  306TIP3    H2  876   0.317   0.498   4.420
  307TIP3   OH2  877   3.103   2.090   5.863
  307TIP3    H1  878   3.151   2.042   5.930
  307TIP3    H2  879   3.103   2.031   5.787
  308TIP3   OH2  880   6.558   3.713   1.266
  308TIP3    H1  881   6.627   3.648   1.258
  308TIP3    H2  882   6.572   3.773   1.193
  309TIP3   OH2  883   5.265   6.898   5.337
  309TIP3    H1  884   5.179   6.900   5.294
  309TIP3    H2  885   5.323   6.945   5.277
  310TIP3   OH2  886   4.201   3.104   4.248
  310TIP3    H1  887   4.224   3.153   4.327
  310TIP3    H2  888   4.241   3.018   4.261
  311TIP3   OH2  889   6.435   7.144   2.622
  311TIP3    H1  890   6.354   7.119   2.665
  311TIP3    H2  891   6.479   7.202   2.684
  312TIP3   OH2  892   3.647   0.936   2.954
  312TIP3    H1  893   3.599   0.946   2.872
  312TIP3    H2  894   3.680   0.846   2.952
  313TIP3   OH2  895   7.473   0.414   6.293
  313TIP3    H1  896   7.492   0.408   6.200
  313TIP3    H2  897   7.391   0.366   6.304
  314TIP3   OH2  898   3.603   7.381   6.701
  314TIP3    H1  899   3.563   7.468   6.699
  314TIP3    H2  900   3.530   7.322   6.720
  315TIP3   OH2  901   0.494   0.273   4.057
  315TIP3    H1  902   0.406   0.275   4.095
  315TIP3    H2  903   0.513   0.364   4.035
  316TIP3   OH2  904   3.675   7.811   5.009
  316TIP3    H1  905   3.649   7.899   5.036
  316TIP3    H2  906   3.622   7.753   5.064
  317TIP3   OH2  907   1.730   4.105   6.213
  317TIP3    H1  908   1.710   4.111   6.119
  317TIP3    H2  909   1.650   4.070   6.253
  318TIP3   OH2  910   3.640   1.741   4.578
  318TIP3    H1  911   3.710   1.806   4.572
  318TIP3    H2  912   3.645   1.692   4.496
  319TIP3   OH2  913   3.843   0.643   2.013
  319TIP3    H1  914   3.791   0.633   1.934
  319TIP3    H2  915   3.906   0.570   2.010
  320TIP3   OH2  916   6.154   6.439   1.116
  320TIP3    H1  917   6.080   6.406   1.065
  320TIP3    H2  918   6.220   6.369   1.112
  321TIP3   OH2  919   3.951   0.683   1.578
  321TIP3    H1  920   4.046   0.694   1.583
  321TIP3    H2  921   3.919   0.768   1.546
  322TIP3   OH2  922   3.611   3.139   5.441
  322TIP3    H1  923   3.616   3.213   5.381
  322TIP3    H2  924   3.555   3.075   5.396
  323TIP3   OH2  925   3.419   4.396   4.389
  323TIP3    H1  926   3.359   4.322   4.378
  323TIP3    H2  927   3.480   4.390   4.316
  324TIP3   OH2  928   1.573   2.613   4.393
  324TIP3    H1  929   1.618   2.579   4.315
  324TIP3    H2  930   1.508   2.546   4.414
  325TIP3   OH2  931   1.640   2.900   1.797
  325TIP3    H1  932   1.676   2.816   1.766
  325TIP3    H2  933   1.713   2.941   1.844
  326TIP3   OH2  934   3.629   7.283   1.844
  326TIP3    H1  935   3.602   7.317   1.929
  326TIP3    H2  936   3.664   7.196   1.864
  327TIP3   OH2  937   0.461   5.497   6.000
  327TIP3    H1  938   0.540   5.444   5.993
  327TIP3    H2  939   0.492   5.588   5.998
  328TIP3   OH2  940   0.448   1.614   0.440
  328TIP3    H1  941   0.364   1.642   0.405
  328TIP3    H2  942   0.483   1.691   0.484
  329TIP3   OH2  943   3.836   2.491   1.492
  329TIP3    H1  944   3.911   2.436   1.467
  329TIP3    H2  945   3.874   2.559   1.547
  330TIP3   OH2  946   5.581   5.397   6.579
  330TIP3    H1  947   5.558   5.347   6.501
  330TIP3    H2  948   5.569   5.335   6.651
  331TIP3   OH2  949   7.174   0.742   5.216
  331TIP3    H1  950   7.238   0.813   5.222
  331TIP3    H2  951   7.177   0.700   5.302
  332TIP3   OH2  952   4.661   4.148   0.989
  332TIP3    H1  953   4.750   4.114   0.984
  332TIP3    H2  954   4.617   4.114   0.911
  333TIP3   OH2  955   7.273   7.672   6.441
  333TIP3    H1  956   7.182   7.700   6.440
  333TIP3    H2  957   7.312   7.713   6.364
  334TIP3   OH2  958   2.448   6.040   5.168
  334TIP3    H1  959   2.435   6.090   5.088
  334TIP3    H2  960   2.388   6.080   5.231
  335TIP3   OH2  961   8.162   3.816   5.071
  335TIP3    H1  962   8.077   3.829   5.029
  335TIP3    H2  963   8.223   3.804   4.997
  336TIP3   OH2  964   4.130   1.795   4.703
  336TIP3    H1  965   4.097   1.870   4.655
  336TIP3    H2  966   4.082   1.797   4.786
  337TIP3   OH2  967   4.078   3.815   6.482
  337TIP3    H1  968   4.069   3.909   6.464
  337TIP3    H2  969   4.130   3.782   6.409
  338TIP3   OH2  970   0.415   1.322   3.228
  338TIP3    H1  971   0.405   1.417   3.216
  338TIP3    H2  972   0.510   1.308   3.231
  339TIP3   OH2  973   3.276   0.976   5.336
  339TIP3    H1  974   3.251   0.973   5.429
  339TIP3    H2  975   3.367   1.006   5.337
  340TIP3   OH2  976   7.738   4.276   1.965
  340TIP3    H1  977   7.804   4.212   1.990
  340TIP3    H2  978   7.689   4.293   2.045
  341TIP3   OH2  979   4.266   2.218  -0.072
  341TIP3    H1  980   4.206   2.195  -0.001
  341TIP3    H2  981   4.347   2.242  -0.027
  342TIP3   OH2  982   6.451   4.449   5.374
  342TIP3    H1  983   6.498   4.371   5.403
  342TIP3    H2  984   6.407   4.481   5.454
  343TIP3   OH2  985   7.961   7.025   5.530
  343TIP3    H1  986   7.905   7.085   5.581
  343TIP3    H2  987   8.028   6.996   5.593
  344TIP3   OH2  988   7.574   5.686   2.020
  344TIP3    H1  989   7.527   5.624   2.076
  344TIP3    H2  990   7.648   5.715   2.073
  345TIP3   OH2  991   7.792   2.628   6.013
  345TIP3    H1  992   7.835   2.594   6.091
  345TIP3    H2  993   7.718   2.568   5.998
  346TIP3   OH2  994   0.968   2.127   2.700
  346TIP3    H1  995   0.892   2.172   2.738
  346TIP3    H2  996   0.998   2.185   2.630
  347TIP3   OH2  997   1.647   5.890   5.913
  347TIP3    H1  998   1.642   5.893   5.817
  347TIP3    H2  999   1.698   5.968   5.936
  348TIP3   OH2 1000   4.250   4.564   3.967
  348TIP3    H1 1001   4.308   4.610   3.907
  348TIP3    H2 1002   4.163   4.598   3.947
  349TIP3   OH2 1003   0.555   6.534   3.299
  349TIP3    H1 1004   0.462   6.515   3.291
  349TIP3    H2 1005   0.586   6.477   3.369
  350TIP3   OH2 1006   1.702   5.846   6.635
  350TIP3    H1 1007   1.631   5.904   6.663
  350TIP3    H2 1008   1.657   5.765   6.609
  351TIP3   OH2 1009   2.841   3.527   4.404
  351TIP3    H1 1010   2.767   3.521   4.464
  351TIP3    H2 1011   2.896   3.452   4.427
  352TIP3   OH2 1012   7.734   5.544   3.013
  352TIP3    H1 1013   7.706   5.617   3.069
  352TIP3    H2 1014   7.813   5.511   3.054
  353TIP3   OH2 1015   7.483   1.990   2.457
  353TIP3    H1 1016   7.574   1.967   2.439
  353TIP3    H2 1017   7.432   1.934   2.397
  354TIP3   OH2 1018   4.312   2.367   0.576
  354TIP3    H1 1019   4.397   2.357   0.619
  354TIP3    H2 1020   4.250   2.377   0.648
  355TIP3   OH2 1021   2.232   3.022   5.752
  355TIP3    H1 1022   2.201   2.949   5.699
  355TIP3    H2 1023   2.327   3.017   5.747
  356TIP3   OH2 1024   4.657   2.764   5.760
  356TIP3    H1 1025   4.590   2.730   5.819
  356TIP3    H2 1026   4.727   2.794   5.817
  357TIP3   OH2 1027   8.076   1.014   0.300
  357TIP3    H1 1028   8.095   0.928   0.262
  357TIP3    H2 1029   8.152   1.033   0.356
  358TIP3   OH2 1030   5.832   2.033   4.269
  358TIP3    H1 1031   5.882   1.952   4.277
  358TIP3    H2 1032   5.794   2.047   4.355
  359TIP3   OH2 1033   4.874   7.552   1.841
  359TIP3    H1 1034   4.811   7.574   1.909
  359TIP3    H2 1035   4.897   7.636   1.801
  360TIP3   OH2 1036   5.228   7.012   3.295
  360TIP3    H1 1037   5.172   6.972   3.362
  360TIP3    H2 1038   5.285   6.940   3.267
  361TIP3   OH2 1039   0.656   6.373   0.862
  361TIP3    H1 1040   0.658   6.305   0.929
  361TIP3    H2 1041   0.594   6.438   0.895
  362TIP3   OH2 1042   4.339   6.021   5.785
  362TIP3    H1 1043   4.308   6.049   5.872
  362TIP3    H2 1044   4.434   6.035   5.788
  363TIP3   OH2 1045   1.847   4.556   0.640
  363TIP3    H1 1046   1.867   4.583   0.729
  363TIP3    H2 1047   1.753   4.534   0.642
  364TIP3   OH2 1048   6.952   5.017   6.130
  364TIP3    H1 1049   6.977   4.989   6.218
  364TIP3    H2 1050   7.009   4.967   6.072
  365TIP3   OH2 1051   3.342   7.059   1.819
  365TIP3    H1 1052   3.355   7.078   1.912
  365TIP3    H2 1053   3.262   7.007   1.816
  366TIP3   OH2 1054   4.257   3.718   6.283
  366TIP3    H1 1055   4.212   3.698   6.201
  366TIP3    H2 1056   4.350   3.711   6.262
  367TIP3   OH2 1057   2.468   7.251   0.139
  367TIP3    H1 1058   2.533   7.215   0.200
  367TIP3    H2 1059   2.401   7.289   0.194
  368TIP3   OH2 1060   0.157   5.605   5.336
  368TIP3    H1 1061   0.123   5.654   5.411
  368TIP3    H2 1062   0.124   5.652   5.260
  369TIP3   OH2 1063   2.400   2.432   1.572
  369TIP3    H1 1064   2.342   2.450   1.646
  369TIP3    H2 1065   2.378   2.499   1.507
  370TIP3   OH2 1066   0.694   2.160   3.113
  370TIP3    H1 1067   0.607   2.195   3.130
  370TIP3    H2 1068   0.746   2.235   3.084
  371TIP3   OH2 1069   2.563   5.106   5.746
  371TIP3    H1 1070   2.649   5.087   5.784
  371TIP3    H2 1071   2.538   5.191   5.782
  372TIP3   OH2 1072   0.778   2.006   0.200
  372TIP3    H1 1073   0.723   2.032   0.126
  372TIP3    H2 1074   0.803   1.915   0.181
  373TIP3   OH2 1075   7.027   4.008   0.511
  373TIP3    H1 1076   6.973   3.929   0.510
  373TIP3    H2 1077   7.109   3.981   0.554
  374TIP3   OH2 1078   6.766   5.442   2.195
  374TIP3    H1 1079   6.818   5.386   2.138
  374TIP3    H2 1080   6.822   5.518   2.212
  375TIP3   OH2 1081   7.899   3.854   4.980
  375TIP3    H1 1082   7.865   3.823   4.896
  375TIP3    H2 1083   7.855   3.799   5.045
  376TIP3   OH2 1084   2.270   1.124   6.687
  376TIP3    H1 1085   2.186   1.088   6.658
  376TIP3    H2 1086   2.276   1.099   6.779
  377TIP3   OH2 1087   6.948   0.436   6.696
  377TIP3    H1 1088   7.024   0.465   6.645
  377TIP3    H2 1089   6.977   0.442   6.787
  378TIP3   OH2 1090   0.663   0.841   1.011
  378TIP3    H1 1091   0.711   0.761   1.032
  378TIP3    H2 1092   0.711   0.910   1.057
  379TIP3   OH2 1093   3.442   5.580   2.887
  379TIP3    H1 1094   3.373   5.519   2.862
  379TIP3    H2 1095   3.468   5.622   2.805
  380TIP3   OH2 1096   4.202   5.691   5.536
  380TIP3    H1 1097   4.266   5.665   5.603
  380TIP3    H2 1098   4.251   5.688   5.454
  381TIP3   OH2 1099   5.415   0.092   4.367
  381TIP3    H1 1100   5.510   0.094   4.354
  381TIP3    H2 1101   5.379   0.121   4.284
  382TIP3   OH2 1102   2.743   4.862   6.721
  382TIP3    H1 1103   2.660   4.877   6.676
  382TIP3    H2 1104   2.769   4.948   6.753
  383TIP3   OH2 1105   8.125   2.179   4.962
  383TIP3    H1 1106   8.150   2.243   5.029
  383TIP3    H2 1107   8.038   2.206   4.933
  384TIP3   OH2 1108   2.718   1.289   0.015
  384TIP3    H1 1109   2.665   1.348   0.068
  384TIP3    H2 1110   2.800   1.280   0.063
  385TIP3   OH2 1111   7.835   2.740   3.157
  385TIP3    H1 1112   7.899   2.806   3.133
  385TIP3    H2 1113   7.799   2.710   3.073
  386TIP3   OH2 1114   4.838   5.638   4.341
  386TIP3    H1 1115   4.868   5.548   4.337
  386TIP3    H2 1116   4.879   5.674   4.419
  387TIP3   OH2 1117   1.191   6.939   1.084
  387TIP3    H1 1118   1.163   7.021   1.126
  387TIP3    H2 1119   1.279   6.957   1.053
  388TIP3   OH2 1120   5.225   5.710   2.396
  388TIP3    H1 1121   5.225   5.752   2.482
  388TIP3    H2 1122   5.295   5.645   2.401
  389TIP3   OH2 1123   8.113   6.229   0.715
  389TIP3    H1 1124   8.185   6.276   0.672
  389TIP3    H2 1125   8.080   6.169   0.648
  390TIP3   OH2 1126   7.391   4.979   3.699
  390TIP3    H1 1127   7.313   4.940   3.740
  390TIP3    H2 1128   7.464   4.928   3.734
  391TIP3   OH2 1129   6.500   1.272   6.399
  391TIP3    H1 1130   6.538   1.186   6.380
  391TIP3    H2 1131   6.435   1.255   6.468
  392TIP3   OH2 1132   3.853   4.587   4.841
  392TIP3    H1 1133   3.840   4.539   4.759
  392TIP3    H2 1134   3.845   4.679   4.817
  393TIP3   OH2 1135   0.505   2.465   1.023
  393TIP3    H1 1136   0.570   2.431   0.962
  393TIP3    H2 1137   0.503   2.559   1.006
  394TIP3   OH2 1138   7.068   0.450   0.578
  394TIP3    H1 1139   7.158   0.457   0.545
  394TIP3    H2 1140   7.042   0.541   0.595
  395TIP3   OH2 1141   0.865   6.846   0.555
  395TIP3    H1 1142   0.926   6.913   0.526
  395TIP3    H2 1143   0.779   6.885   0.543
  396TIP3   OH2 1144   3.026   0.664   4.740
  396TIP3    H1 1145   3.025   0.585   4.686
  396TIP3    H2 1146   3.106   0.656   4.792
  397TIP3   OH2 1147   1.214   4.031   2.627
  397TIP3    H1 1148   1.168   3.973   2.566
  397TIP3    H2 1149   1.164   4.113   2.624
  398TIP3   OH2 1150   6.765   5.580   6.599
  398TIP3    H1 1151   6.757   5.550   6.508
  398TIP3    H2 1152   6.826   5.653   6.594
  399TIP3   OH2 1153   5.891   7.729   4.144
  399TIP3    H1 1154   5.830   7.802   4.150
  399TIP3    H2 1155   5.958   7.748   4.209
  400TIP3   OH2 1156   0.591   0.290   2.534
  400TIP3    H1 1157   0.649   0.275   2.459
  400TIP3    H2 1158   0.606   0.381   2.558
  401TIP3   OH2 1159   2.113   5.379   2.876
  401TIP3    H1 1160   2.126   5.377   2.781
  401TIP3    H2 1161   2.190   5.335   2.911
  402TIP3   OH2 1162   2.417   7.527   0.094
  402TIP3    H1 1163   2.330   7.506   0.130
  402TIP3    H2 1164   2.442   7.448   0.046
  403TIP3   OH2 1165   1.341   5.375   4.062
  403TIP3    H1 1166   1.293   5.456   4.077
  403TIP3    H2 1167   1.426   5.389   4.104
  404TIP3   OH2 1168   1.074   7.202   1.219
  404TIP3    H1 1169   1.165   7.207   1.248
  404TIP3    H2 1170   1.051   7.291   1.194
  405TIP3   OH2 1171   7.285   0.674   4.912
  405TIP3    H1 1172   7.354   0.679   4.978
  405TIP3    H2 1173   7.325   0.710   4.832
  406TIP3   OH2 1174   6.389   3.511   3.740
  406TIP3    H1 1175   6.469   3.466   3.716
  406TIP3    H2 1176   6.413   3.566   3.815
  407TIP3   OH2 1177   4.321   4.065   6.752
  407TIP3    H1 1178   4.286   4.154   6.751
  407TIP3    H2 1179   4.288   4.027   6.834
  408TIP3   OH2 1180   0.484   1.116   2.386
  408TIP3    H1 1181   0.447   1.186   2.332
  408TIP3    H2 1182   0.484   1.153   2.474
  409TIP3   OH2 1183   2.161   0.183   3.617
  409TIP3    H1 1184   2.182   0.215   3.529
  409TIP3    H2 1185   2.234   0.124   3.639
  410TIP3   OH2 1186   3.787   4.572   1.408
  410TIP3    H1 1187   3.844   4.603   1.478
  410TIP3    H2 1188   3.702   4.610   1.428
  411TIP3   OH2 1189   7.894   0.277   2.862
  411TIP3    H1 1190   7.945   0.198   2.884
  411TIP3    H2 1191   7.957   0.334   2.819
  412TIP3   OH2 1192   6.730   2.103   5.094
  412TIP3    H1 1193   6.693   2.036   5.152
  412TIP3    H2 1194   6.811   2.064   5.061
  413TIP3   OH2 1195   4.655   5.572   4.953
  413TIP3    H1 1196   4.693   5.601   5.036
  413TIP3    H2 1197   4.726   5.584   4.889
  414TIP3   OH2 1198   3.289   3.744   5.173
  414TIP3    H1 1199   3.312   3.819   5.119
  414TIP3    H2 1200   3.211   3.707   5.132
  415TIP3   OH2 1201   5.255   6.592   1.852
  415TIP3    H1 1202   5.343   6.570   1.884
  415TIP3    H2 1203   5.234   6.522   1.790
  416TIP3   OH2 1204   5.876   6.199   0.405
  416TIP3    H1 1205   5.943   6.191   0.473
  416TIP3    H2 1206   5.906   6.271   0.350
  417TIP3   OH2 1207   2.072   1.884   1.291
  417TIP3    H1 1208   2.046   1.974   1.311
  417TIP3    H2 1209   2.088   1.884   1.197
  418TIP3   OH2 1210   5.221   0.299   1.528
  418TIP3    H1 1211   5.205   0.208   1.554
  418TIP3    H2 1212   5.295   0.326   1.583
  419TIP3   OH2 1213   1.967   3.687   4.888
  419TIP3    H1 1214   1.915   3.666   4.811
  419TIP3    H2 1215   2.058   3.677   4.860
  420TIP3   OH2 1216   2.313   0.754   2.542
  420TIP3    H1 1217   2.384   0.721   2.487
  420TIP3    H2 1218   2.331   0.717   2.629
  421TIP3   OH2 1219   8.144   7.290   4.538
  421TIP3    H1 1220   8.097   7.373   4.532
  421TIP3    H2 1221   8.135   7.263   4.630
  422TIP3   OH2 1222   4.661   3.185   4.767
  422TIP3    H1 1223   4.638   3.227   4.684
  422TIP3    H2 1224   4.755   3.173   4.762
  423TIP3   OH2 1225   1.591   3.059   3.751
  423TIP3    H1 1226   1.508   3.013   3.760
  423TIP3    H2 1227   1.566   3.151   3.738
  424TIP3   OH2 1228   3.015   5.166   0.893
  424TIP3    H1 1229   3.070   5.195   0.966
  424TIP3    H2 1230   3.040   5.075   0.878
  425TIP3   OH2 1231   4.390   7.676   3.081
  425TIP3    H1 1232   4.346   7.647   3.001
  425TIP3    H2 1233   4.381   7.603   3.141
  426TIP3   OH2 1234   3.436   1.664   1.494
  426TIP3    H1 1235   3.406   1.705   1.413
  426TIP3    H2 1236   3.508   1.607   1.468
  427TIP3   OH2 1237   1.255   5.682   3.988
  427TIP3    H1 1238   1.251   5.766   4.033
  427TIP3    H2 1239   1.165   5.648   3.991
  428TIP3   OH2 1240   5.274   0.430   6.222
  428TIP3    H1 1241   5.252   0.344   6.185
  428TIP3    H2 1242   5.224   0.492   6.170
  429TIP3   OH2 1243   6.856   1.017   4.213
  429TIP3    H1 1244   6.765   0.988   4.206
  429TIP3    H2 1245   6.891   0.966   4.286
  430TIP3   OH2 1246   3.395   2.606   5.028
  430TIP3    H1 1247   3.437   2.534   4.981
  430TIP3    H2 1248   3.301   2.596   5.010
  431TIP3   OH2 1249   2.729   0.578   5.492
  431TIP3    H1 1250   2.743   0.638   5.565
  431TIP3    H2 1251   2.634   0.575   5.481
  432TIP3   OH2 1252   1.053   1.962   0.940
  432TIP3    H1 1253   1.102   1.885   0.969
  432TIP3    H2 1254   0.962   1.943   0.964
  433TIP3   OH2 1255   7.243   6.873   1.627
  433TIP3    H1 1256   7.235   6.802   1.690
  433TIP3    H2 1257   7.204   6.949   1.670
  434TIP3   OH2 1258   7.108   0.949   4.030
  434TIP3    H1 1259   7.087   0.974   3.940
  434TIP3    H2 1260   7.031   0.974   4.080
  435TIP3   OH2 1261   5.343   1.795   2.753
  435TIP3    H1 1262   5.382   1.721   2.707
  435TIP3    H2 1263   5.357   1.869   2.695
  436TIP3   OH2 1264   7.589   0.326   5.197
  436TIP3    H1 1265   7.664   0.272   5.172
  436TIP3    H2 1266   7.512   0.278   5.165
  437TIP3   OH2 1267   6.513   0.692   2.361
  437TIP3    H1 1268   6.532   0.767   2.305
  437TIP3    H2 1269   6.594   0.678   2.410
  438TIP3   OH2 1270   0.378   4.615   5.361
  438TIP3    H1 1271   0.326   4.690   5.391
  438TIP3    H2 1272   0.416   4.645   5.278
  439TIP3   OH2 1273   4.724   1.688   3.174
  439TIP3    H1 1274   4.752   1.656   3.088
  439TIP3    H2 1275   4.792   1.659   3.234
  440TIP3   OH2 1276   7.367   6.883   3.980
  440TIP3    H1 1277   7.414   6.959   3.947
  440TIP3    H2 1278   7.289   6.877   3.925
  441TIP3   OH2 1279   6.949   1.854   0.299
  441TIP3    H1 1280   6.882   1.900   0.248
  441TIP3    H2 1281   6.910   1.841   0.385
  442TIP3   OH2 1282   0.924   5.551   6.545
  442TIP3    H1 1283   0.919   5.460   6.573
  442TIP3    H2 1284   1.007   5.558   6.499
  443TIP3   OH2 1285   4.970   3.161   0.143
  443TIP3    H1 1286   4.919   3.175   0.063
  443TIP3    H2 1287   5.042   3.104   0.115
  444TIP3   OH2 1288   0.710   4.410   1.629
  444TIP3    H1 1289   0.672   4.492   1.660
  444TIP3    H2 1290   0.635   4.357   1.601
  445TIP3   OH2 1291   2.292   7.637   6.069
  445TIP3    H1 1292   2.340   7.672   5.993
  445TIP3    H2 1293   2.343   7.665   6.144
  446TIP3   OH2 1294   5.791   5.301   4.087
  446TIP3    H1 1295   5.738   5.294   4.166
  446TIP3    H2 1296   5.753   5.375   4.040
  447TIP3   OH2 1297   6.017   1.390   2.858
  447TIP3    H1 1298   5.981   1.304   2.879
  447TIP3    H2 1299   6.082   1.373   2.790
  448TIP3   OH2 1300   2.740   5.660   2.677
  448TIP3    H1 1301   2.667   5.631   2.622
  448TIP3    H2 1302   2.698   5.710   2.748
  449TIP3   OH2 1303   8.051   3.504   1.648
  449TIP3    H1 1304   7.962   3.479   1.672
  449TIP3    H2 1305   8.102   3.424   1.659
  450TIP3   OH2 1306   1.192   0.587   5.060
  450TIP3    H1 1307   1.152   0.545   5.136
  450TIP3    H2 1308   1.268   0.633   5.096
  451TIP3   OH2 1309   8.231   0.055   6.562
  451TIP3    H1 1310   8.276   0.031   6.481
  451TIP3    H2 1311   8.286   0.125   6.599
  452TIP3   OH2 1312   4.315   6.558   3.844
  452TIP3    H1 1313   4.323   6.636   3.899
  452TIP3    H2 1314   4.372   6.493   3.886
  453TIP3   OH2 1315   1.178   7.300   6.293
  453TIP3    H1 1316   1.217   7.213   6.297
  453TIP3    H2 1317   1.094   7.290   6.338
  454TIP3   OH2 1318   5.466   4.294   4.495
  454TIP3    H1 1319   5.390   4.302   4.553
  454TIP3    H2 1320   5.540   4.325   4.547
  455TIP3   OH2 1321   3.326   0.969   0.757
  455TIP3    H1 1322   3.285   1.018   0.685
  455TIP3    H2 1323   3.354   0.887   0.718
  456TIP3   OH2 1324   0.699   4.193   6.148
  456TIP3    H1 1325   0.771   4.235   6.101
  456TIP3    H2 1326   0.620   4.225   6.105
  457TIP3   OH2 1327   6.890   3.941   1.345
  457TIP3    H1 1328   6.917   3.857   1.381
  457TIP3    H2 1329   6.945   3.953   1.267
  458TIP3   OH2 1330   6.336   7.397   2.864
  458TIP3    H1 1331   6.270   7.328   2.863
  458TIP3    H2 1332   6.415   7.354   2.831
  459TIP3   OH2 1333   1.923   4.079   0.521
  459TIP3    H1 1334   1.925   4.134   0.443
  459TIP3    H2 1335   1.940   3.990   0.489
  460TIP3   OH2 1336   5.435   7.549   5.133
  460TIP3    H1 1337   5.516   7.575   5.090
  460TIP3    H2 1338   5.370   7.613   5.101
  461TIP3   OH2 1339   2.533   6.078   4.146
  461TIP3    H1 1340   2.452   6.065   4.194
  461TIP3    H2 1341   2.601   6.083   4.214
  462TIP3   OH2 1342   0.279   4.988   0.926
  462TIP3    H1 1343   0.364   4.984   0.971
  462TIP3    H2 1344   0.297   5.035   0.845
  463TIP3   OH2 1345   8.193   4.753   6.163
  463TIP3    H1 1346   8.197   4.837   6.210
  463TIP3    H2 1347   8.270   4.705   6.192
  464TIP3   OH2 1348   6.700   4.388   0.303
  464TIP3    H1 1349   6.780   4.363   0.257
  464TIP3    H2 1350   6.729   4.413   0.391
  465TIP3   OH2 1351   4.944   5.373   4.647
  465TIP3    H1 1352   5.006   5.308   4.682
  465TIP3    H2 1353   4.859   5.343   4.679
  466TIP3   OH2 1354   2.699   4.336   6.419
  466TIP3    H1 1355   2.634   4.362   6.354
  466TIP3    H2 1356   2.708   4.241   6.408
  467TIP3   OH2 1357   1.173   0.820   1.046
  467TIP3    H1 1358   1.156   0.912   1.029
  467TIP3    H2 1359   1.239   0.795   0.981
  468TIP3   OH2 1360   6.019   3.508   1.789
  468TIP3    H1 1361   6.089   3.511   1.723
  468TIP3    H2 1362   5.954   3.449   1.750
  469TIP3   OH2 1363   3.270   2.195   5.539
  469TIP3    H1 1364   3.245   2.111   5.578
  469TIP3    H2 1365   3.251   2.185   5.446
  470TIP3   OH2 1366   5.628   5.991   2.996
  470TIP3    H1 1367   5.542   6.018   3.027
  470TIP3    H2 1368   5.633   5.898   3.017
  471TIP3   OH2 1369   2.901   4.957   2.659
  471TIP3    H1 1370   2.914   4.939   2.752
  471TIP3    H2 1371   2.952   5.037   2.643
  472TIP3   OH2 1372   1.486   6.030   0.067
  472TIP3    H1 1373   1.432   5.983   0.130
  472TIP3    H2 1374   1.552   5.967   0.039
  473TIP3   OH2 1375   7.501   4.110   2.592
  473TIP3    H1 1376   7.569   4.093   2.657
  473TIP3    H2 1377   7.433   4.045   2.612
  474TIP3   OH2 1378   4.188   3.595   3.419
  474TIP3    H1 1379   4.270   3.565   3.380
  474TIP3    H2 1380   4.120   3.542   3.378
  475TIP3   OH2 1381   1.087   4.660   3.050
  475TIP3    H1 1382   1.116   4.740   3.094
  475TIP3    H2 1383   1.079   4.685   2.958
  476TIP3   OH2 1384   6.777   4.169   6.201
  476TIP3    H1 1385   6.838   4.237   6.174
  476TIP3    H2 1386   6.793   4.097   6.139
  477TIP3   OH2 1387   6.566   7.015   5.328
  477TIP3    H1 1388   6.538   6.995   5.417
  477TIP3    H2 1389   6.640   7.075   5.339
  478TIP3   OH2 1390   4.550   7.398   1.975
  478TIP3    H1 1391   4.582   7.316   1.938
  478TIP3    H2 1392   4.540   7.457   1.900
  479TIP3   OH2 1393   3.565   2.599   0.918
  479TIP3    H1 1394   3.520   2.514   0.913
  479TIP3    H2 1395   3.587   2.608   1.011
  480TIP3   OH2 1396   0.800   7.733   4.773
  480TIP3    H1 1397   0.734   7.676   4.733
  480TIP3    H2 1398   0.881   7.711   4.728
  481TIP3   OH2 1399   7.118   4.565   6.207
  481TIP3    H1 1400   7.172   4.643   6.195
  481TIP3    H2 1401   7.166   4.512   6.270
  482TIP3   OH2 1402   0.875   0.244   6.261
  482TIP3    H1 1403   0.861   0.293   6.342
  482TIP3    H2 1404   0.798   0.187   6.255
  483TIP3   OH2 1405   2.352   5.386   2.074
  483TIP3    H1 1406   2.260   5.399   2.098
  483TIP3    H2 1407   2.396   5.466   2.105
  484TIP3   OH2 1408   2.572   5.361   1.276
  484TIP3    H1 1409   2.622   5.281   1.260
  484TIP3    H2 1410   2.570   5.368   1.372
  485TIP3   OH2 1411   3.672   0.294   2.094
  485TIP3    H1 1412   3.624   0.361   2.143
  485TIP3    H2 1413   3.641   0.304   2.004
  486TIP3   OH2 1414   8.210   2.294   1.842
  486TIP3    H1 1415   8.223   2.387   1.822
  486TIP3    H2 1416   8.297   2.263   1.868
  487TIP3   OH2 1417   3.754   1.821   1.426
  487TIP3    H1 1418   3.837   1.865   1.447
  487TIP3    H2 1419   3.773   1.728   1.436
  488TIP3   OH2 1420   8.185   5.961   2.046
  488TIP3    H1 1421   8.102   5.914   2.047
  488TIP3    H2 1422   8.251   5.894   2.060
  489TIP3   OH2 1423   3.083   1.576   5.516
  489TIP3    H1 1424   3.121   1.644   5.460
  489TIP3    H2 1425   2.994   1.565   5.482
  490TIP3   OH2 1426   1.066   7.364   1.658
  490TIP3    H1 1427   1.065   7.287   1.600
  490TIP3    H2 1428   1.013   7.429   1.612
  491TIP3   OH2 1429   8.095   0.764   0.161
  491TIP3    H1 1430   8.013   0.716   0.147
  491TIP3    H2 1431   8.160   0.695   0.177
  492TIP3   OH2 1432   3.083   2.078   1.980
  492TIP3    H1 1433   3.068   2.139   1.908
  492TIP3    H2 1434   3.114   1.998   1.937
  493TIP3   OH2 1435   3.947   6.828   2.945
  493TIP3    H1 1436   3.874   6.805   3.001
  493TIP3    H2 1437   4.006   6.878   3.002
  494TIP3   OH2 1438   6.736   6.113   6.121
  494TIP3    H1 1439   6.742   6.149   6.209
  494TIP3    H2 1440   6.769   6.023   6.129
  495TIP3   OH2 1441   1.286   7.648   4.349
  495TIP3    H1 1442   1.199   7.680   4.326
  495TIP3    H2 1443   1.301   7.577   4.286
  496TIP3   OH2 1444   5.845   7.475   5.248
  496TIP3    H1 1445   5.844   7.412   5.321
  496TIP3    H2 1446   5.883   7.426   5.175
  497TIP3   OH2 1447   5.282   0.956   3.194
  497TIP3    H1 1448   5.265   0.979   3.285
  497TIP3    H2 1449   5.317   0.867   3.198
  498TIP3   OH2 1450   3.339   6.964   5.899
  498TIP3    H1 1451   3.334   6.922   5.813
  498TIP3    H2 1452   3.296   7.048   5.887
  499TIP3   OH2 1453   5.898   7.290   4.108
  499TIP3    H1 1454   5.811   7.298   4.070
  499TIP3    H2 1455   5.945   7.367   4.075
  500TIP3   OH2 1456   2.667   5.840   5.116
  500TIP3    H1 1457   2.620   5.877   5.190
  500TIP3    H2 1458   2.649   5.746   5.121
  501TIP3   OH2 1459   4.463   4.447   6.659
  501TIP3    H1 1460   4.488   4.401   6.739
  501TIP3    H2 1461   4.510   4.402   6.589
  502TIP3   OH2 1462   3.873   3.042   0.856
  502TIP3    H1 1463   3.826   3.009   0.932
  502TIP3    H2 1464   3.909   3.126   0.885
  503TIP3   OH2 1465   1.499   6.520   3.390
  503TIP3    H1 1466   1.489   6.542   3.298
  503TIP3    H2 1467   1.413   6.487   3.416
  504TIP3   OH2 1468   0.562   5.723   6.470
  504TIP3    H1 1469   0.624   5.743   6.540
  504TIP3    H2 1470   0.488   5.783   6.485
  505TIP3   OH2 1471   3.949   7.219   0.584
  505TIP3    H1 1472   3.903   7.198   0.666
  505TIP3    H2 1473   4.011   7.148   0.571
  506TIP3   OH2 1474   1.758   6.615   0.634
  506TIP3    H1 1475   1.834   6.596   0.689
  506TIP3    H2 1476   1.765   6.709   0.615
  507TIP3   OH2 1477   0.975   7.659   4.312
  507TIP3    H1 1478   0.929   7.629   4.233
  507TIP3    H2 1479   0.907   7.699   4.366
  508TIP3   OH2 1480   3.612   4.838   0.053
  508TIP3    H1 1481   3.603   4.929   0.080
  508TIP3    H2 1482   3.677   4.802   0.113
  509TIP3   OH2 1483   2.710   6.890   6.203
  509TIP3    H1 1484   2.797   6.920   6.229
  509TIP3    H2 1485   2.704   6.909   6.110
  510TIP3   OH2 1486   8.053   2.591   3.630
  510TIP3    H1 1487   8.118   2.594   3.559
  510TIP3    H2 1488   8.063   2.675   3.675
  511TIP3   OH2 1489   7.867   5.614   4.255
  511TIP3    H1 1490   7.941   5.594   4.197
  511TIP3    H2 1491   7.812   5.672   4.203
  512TIP3   OH2 1492   2.799   0.363   0.821
  512TIP3    H1 1493   2.708   0.366   0.850
  512TIP3    H2 1494   2.827   0.273   0.839
  513TIP3   OH2 1495   6.362   3.893   2.424
  513TIP3    H1 1496   6.271   3.914   2.405
  513TIP3    H2 1497   6.409   3.976   2.411
  514TIP3   OH2 1498   7.699   3.696   5.094
  514TIP3    H1 1499   7.676   3.771   5.149
  514TIP3    H2 1500   7.616   3.670   5.053
  515TIP3   OH2 1501   1.479   5.002   5.349
  515TIP3    H1 1502   1.437   4.946   5.415
  515TIP3    H2 1503   1.565   5.021   5.386
  516TIP3   OH2 1504   0.329   0.156   3.791
  516TIP3    H1 1505   0.339   0.155   3.886
  516TIP3    H2 1506   0.401   0.103   3.759
  517TIP3   OH2 1507   8.146   6.718   0.542
  517TIP3    H1 1508   8.224   6.722   0.596
  517TIP3    H2 1509   8.082   6.773   0.587
  518TIP3   OH2 1510   6.532   1.088   5.490
  518TIP3    H1 1511   6.504   1.178   5.506
  518TIP3    H2 1512   6.569   1.059   5.574
  519TIP3   OH2 1513   2.526   2.871   2.832
  519TIP3    H1 1514   2.451   2.844   2.885
  519TIP3    H2 1515   2.489   2.926   2.763
  520TIP3   OH2 1516   2.398   3.854   4.365
  520TIP3    H1 1517   2.473   3.871   4.308
  520TIP3    H2 1518   2.431   3.867   4.454
  521TIP3   OH2 1519   6.884   7.290   0.678
  521TIP3    H1 1520   6.836   7.323   0.753
  521TIP3    H2 1521   6.966   7.257   0.714
  522TIP3   OH2 1522   5.612   6.259   0.332
  522TIP3    H1 1523   5.607   6.354   0.324
  522TIP3    H2 1524   5.697   6.243   0.373
  523TIP3   OH2 1525   5.413   5.006   2.414
  523TIP3    H1 1526   5.368   5.007   2.498
  523TIP3    H2 1527   5.493   5.057   2.429
  524TIP3   OH2 1528   2.337   6.274   6.653
  524TIP3    H1 1529   2.274   6.345   6.657
  524TIP3    H2 1530   2.408   6.308   6.597
  525TIP3   OH2 1531   5.825   7.363   1.394
  525TIP3    H1 1532   5.807   7.431   1.459
  525TIP3    H2 1533   5.824   7.281   1.444
  526TIP3   OH2 1534   6.431   6.622   6.094
  526TIP3    H1 1535   6.361   6.686   6.082
  526TIP3    H2 1536   6.504   6.673   6.129
  527TIP3   OH2 1537   1.453   3.750   5.355
  527TIP3    H1 1538   1.481   3.680   5.296
  527TIP3    H2 1539   1.534   3.784   5.393
  528TIP3   OH2 1540   6.800   2.733   2.560
  528TIP3    H1 1541   6.781   2.661   2.620
  528TIP3    H2 1542   6.716   2.756   2.522
  529TIP3   OH2 1543   3.655   6.128   6.436
  529TIP3    H1 1544   3.615   6.201   6.388
  529TIP3    H2 1545   3.668   6.060   6.369
  530TIP3   OH2 1546   0.626   2.831   1.415
  530TIP3    H1 1547   0.562   2.851   1.346
  530TIP3    H2 1548   0.577   2.844   1.497
  531TIP3   OH2 1549   8.278   4.218   5.654
  531TIP3    H1 1550   8.325   4.215   5.737
  531TIP3    H2 1551   8.216   4.145   5.659
  532TIP3   OH2 1552   2.663   6.757   1.290
  532TIP3    H1 1553   2.712   6.751   1.208
  532TIP3    H2 1554   2.672   6.849   1.316
  533TIP3   OH2 1555   7.335   6.581   6.721
  533TIP3    H1 1556   7.300   6.663   6.685
  533TIP3    H2 1557   7.342   6.523   6.645
  534TIP3   OH2 1558   7.034   4.577   0.338
  534TIP3    H1 1559   7.076   4.613   0.416
  534TIP3    H2 1560   6.947   4.550   0.368
  535TIP3   OH2 1561   2.827   2.260   5.332
  535TIP3    H1 1562   2.735   2.255   5.358
  535TIP3    H2 1563   2.826   2.308   5.249
  536TIP3   OH2 1564   4.748   1.533   4.112
  536TIP3    H1 1565   4.819   1.565   4.168
  536TIP3    H2 1566   4.785   1.457   4.067
  537TIP3   OH2 1567   3.968   0.220   1.095
  537TIP3    H1 1568   3.872   0.223   1.089
  537TIP3    H2 1569   3.997   0.226   1.004
  538TIP3   OH2 1570   5.848   4.252   1.279
  538TIP3    H1 1571   5.910   4.265   1.351
  538TIP3    H2 1572   5.777   4.314   1.296
  539TIP3   OH2 1573   2.761   2.167   2.176
  539TIP3    H1 1574   2.723   2.119   2.249
  539TIP3    H2 1575   2.850   2.187   2.204
  540TIP3   OH2 1576   3.915   2.838   0.667
  540TIP3    H1 1577   3.896   2.925   0.703
  540TIP3    H2 1578   3.873   2.777   0.727
  541TIP3   OH2 1579   6.294   5.113   1.491
  541TIP3    H1 1580   6.321   5.069   1.571
  541TIP3    H2 1581   6.376   5.130   1.444
  542TIP3   OH2 1582   2.237   4.050   0.560
  542TIP3    H1 1583   2.235   3.955   0.549
  542TIP3    H2 1584   2.147   4.078   0.548
  543TIP3   OH2 1585   7.776   3.234   3.877
  543TIP3    H1 1586   7.828   3.293   3.823
  543TIP3    H2 1587   7.779   3.272   3.965
  544TIP3   OH2 1588   7.539   6.099   1.790
  544TIP3    H1 1589   7.452   6.060   1.788
  544TIP3    H2 1590   7.574   6.077   1.876
  545TIP3   OH2 1591   4.684   2.800   5.457
  545TIP3    H1 1592   4.613   2.863   5.462
  545TIP3    H2 1593   4.680   2.752   5.540
  546TIP3   OH2 1594   4.298   3.267   3.557
  546TIP3    H1 1595   4.363   3.271   3.627
  546TIP3    H2 1596   4.218   3.240   3.601
  547TIP3   OH2 1597   3.070   1.960   5.595
  547TIP3    H1 1598   3.108   1.903   5.528
  547TIP3    H2 1599   3.046   1.901   5.666
  548TIP3   OH2 1600   3.521   1.917   6.627
  548TIP3    H1 1601   3.564   1.997   6.656
  548TIP3    H2 1602   3.590   1.851   6.626
  549TIP3   OH2 1603   2.682   7.259   2.639
  549TIP3    H1 1604   2.703   7.250   2.546
  549TIP3    H2 1605   2.587   7.253   2.644
  550TIP3   OH2 1606   7.701   6.850   6.048
  550TIP3    H1 1607   7.614   6.864   6.085
  550TIP3    H2 1608   7.702   6.757   6.025
  551TIP3   OH2 1609   4.980   7.642   6.299
  551TIP3    H1 1610   5.035   7.654   6.377
  551TIP3    H2 1611   4.943   7.729   6.282
  552TIP3   OH2 1612   6.089   6.650   2.277
  552TIP3    H1 1613   6.183   6.642   2.291
  552TIP3    H2 1614   6.080   6.680   2.187
  553TIP3   OH2 1615   6.423   3.152   0.769
  553TIP3    H1 1616   6.390   3.226   0.819
  553TIP3    H2 1617   6.360   3.141   0.698
  554TIP3   OH2 1618   2.732   0.551   2.412
  554TIP3    H1 1619   2.801   0.509   2.463
  554TIP3    H2 1620   2.748   0.524   2.322
  555TIP3   OH2 1621   4.861   7.271   3.150
  555TIP3    H1 1622   4.823   7.358   3.137
  555TIP3    H2 1623   4.947   7.288   3.189
  556TIP3   OH2 1624   5.141   7.225   4.006
  556TIP3    H1 1625   5.088   7.147   3.987
  556TIP3    H2 1626   5.139   7.232   4.101
  557TIP3   OH2 1627   4.723   4.006   5.334
  557TIP3    H1 1628   4.642   4.036   5.294
  557TIP3    H2 1629   4.792   4.036   5.275
  558TIP3   OH2 1630   0.176   3.185   3.651
  558TIP3    H1 1631   0.256   3.235   3.664
  558TIP3    H2 1632   0.138   3.176   3.739
  559TIP3   OH2 1633   4.940   1.300   6.057
  559TIP3    H1 1634   4.907   1.356   5.986
  559TIP3    H2 1635   4.864   1.284   6.112
  560TIP3   OH2 1636   6.126   6.145   4.565
  560TIP3    H1 1637   6.123   6.179   4.476
  560TIP3    H2 1638   6.219   6.140   4.586
  561TIP3   OH2 1639   4.469   4.138   5.332
  561TIP3    H1 1640   4.425   4.053   5.326
  561TIP3    H2 1641   4.414   4.197   5.281
  562TIP3   OH2 1642   7.877   5.897   4.095
  562TIP3    H1 1643   7.962   5.878   4.134
  562TIP3    H2 1644   7.855   5.818   4.046
  563TIP3   OH2 1645   2.501   6.873   0.159
  563TIP3    H1 1646   2.428   6.852   0.217
  563TIP3    H2 1647   2.577   6.877   0.217
  564TIP3   OH2 1648   2.430   1.655   0.454
  564TIP3    H1 1649   2.494   1.670   0.524
  564TIP3    H2 1650   2.473   1.687   0.375
  565TIP3   OH2 1651   3.301   4.585   0.763
  565TIP3    H1 1652   3.367   4.527   0.724
  565TIP3    H2 1653   3.217   4.548   0.736
  566TIP3   OH2 1654   8.135   6.236   2.013
  566TIP3    H1 1655   8.126   6.172   2.083
  566TIP3    H2 1656   8.195   6.195   1.950
  567TIP3   OH2 1657   4.132   3.932   2.031
  567TIP3    H1 1658   4.081   3.875   2.090
  567TIP3    H2 1659   4.214   3.947   2.078
  568TIP3   OH2 1660   1.492   5.650   5.635
  568TIP3    H1 1661   1.449   5.573   5.598
  568TIP3    H2 1662   1.575   5.617   5.668
  569TIP3   OH2 1663   6.156   2.246   4.941
  569TIP3    H1 1664   6.197   2.299   4.873
  569TIP3    H2 1665   6.063   2.247   4.920
  570TIP3   OH2 1666   2.705   3.365   3.279
  570TIP3    H1 1667   2.690   3.271   3.293
  570TIP3    H2 1668   2.632   3.408   3.324
  571TIP3   OH2 1669   0.269   1.672   1.117
  571TIP3    H1 1670   0.285   1.579   1.104
  571TIP3    H2 1671   0.207   1.676   1.191
  572TIP3   OH2 1672   5.638   3.797   4.373
  572TIP3    H1 1673   5.632   3.751   4.457
  572TIP3    H2 1674   5.549   3.798   4.339
  573TIP3   OH2 1675   4.867   3.027   6.238
  573TIP3    H1 1676   4.922   3.043   6.161
  573TIP3    H2 1677   4.794   2.974   6.205
  574TIP3   OH2 1678   2.315   7.770   5.567
  574TIP3    H1 1679   2.247   7.704   5.582
  574TIP3    H2 1680   2.291   7.809   5.483
  575TIP3   OH2 1681   6.795   1.845   3.777
  575TIP3    H1 1682   6.870   1.795   3.744
  575TIP3    H2 1683   6.724   1.822   3.717
  576TIP3   OH2 1684   0.745   4.378   2.009
  576TIP3    H1 1685   0.658   4.343   2.028
  576TIP3    H2 1686   0.745   4.465   2.049
  577TIP3   OH2 1687   1.424   1.891   5.870
  577TIP3    H1 1688   1.488   1.962   5.876
  577TIP3    H2 1689   1.339   1.936   5.866
  578TIP3   OH2 1690   2.138   7.245   6.253
  578TIP3    H1 1691   2.104   7.308   6.317
  578TIP3    H2 1692   2.076   7.172   6.255
  579TIP3   OH2 1693   0.401   7.463   1.289
  579TIP3    H1 1694   0.495   7.471   1.275
  579TIP3    H2 1695   0.389   7.485   1.382
  580TIP3   OH2 1696   5.728   1.364   6.517
  580TIP3    H1 1697   5.753   1.456   6.521
  580TIP3    H2 1698   5.760   1.335   6.431
  581TIP3   OH2 1699   7.433   0.161   3.554
  581TIP3    H1 1700   7.374   0.224   3.594
  581TIP3    H2 1701   7.482   0.123   3.627
  582TIP3   OH2 1702   7.102   3.154   5.209
  582TIP3    H1 1703   7.130   3.180   5.121
  582TIP3    H2 1704   7.093   3.237   5.257
  583TIP3   OH2 1705   4.411   0.011   0.481
  583TIP3    H1 1706   4.446  -0.045   0.412
  583TIP3    H2 1707   4.466  -0.007   0.557
  584TIP3   OH2 1708   2.278   7.398   4.127
  584TIP3    H1 1709   2.339   7.344   4.076
  584TIP3    H2 1710   2.324   7.414   4.209
  585TIP3   OH2 1711   1.335   6.722   1.092
  585TIP3    H1 1712   1.258   6.766   1.129
  585TIP3    H2 1713   1.305   6.688   1.007
  586TIP3   OH2 1714   7.232   6.369   4.454
  586TIP3    H1 1715   7.226   6.332   4.543
  586TIP3    H2 1716   7.149   6.413   4.441
  587TIP3   OH2 1717   1.208   1.953   6.120
  587TIP3    H1 1718   1.282   1.925   6.175
  587TIP3    H2 1719   1.238   2.035   6.080
  588TIP3   OH2 1720   8.082   6.832   2.661
  588TIP3    H1 1721   8.034   6.825   2.579
  588TIP3    H2 1722   8.173   6.847   2.634
  589TIP3   OH2 1723   6.294   0.013   1.937
  589TIP3    H1 1724   6.216  -0.010   1.988
  589TIP3    H2 1725   6.314   0.103   1.963
  590TIP3   OH2 1726   1.832   7.693   3.234
  590TIP3    H1 1727   1.767   7.728   3.173
  590TIP3    H2 1728   1.791   7.699   3.320
  591TIP3   OH2 1729   4.446   7.542   0.570
  591TIP3    H1 1730   4.448   7.601   0.495
  591TIP3    H2 1731   4.370   7.487   0.555
  592TIP3   OH2 1732   5.215   3.303   4.550
  592TIP3    H1 1733   5.180   3.273   4.466
  592TIP3    H2 1734   5.171   3.386   4.567
  593TIP3   OH2 1735   0.687   3.215   5.729
  593TIP3    H1 1736   0.608   3.165   5.709
  593TIP3    H2 1737   0.662   3.306   5.712
  594TIP3   OH2 1738   3.725   6.483   1.787
  594TIP3    H1 1739   3.680   6.537   1.723
  594TIP3    H2 1740   3.789   6.542   1.827
  595TIP3   OH2 1741   0.306   7.060   0.302
  595TIP3    H1 1742   0.374   7.004   0.264
  595TIP3    H2 1743   0.250   7.084   0.228
  596TIP3   OH2 1744   7.213   5.917   5.039
  596TIP3    H1 1745   7.249   5.853   4.978
  596TIP3    H2 1746   7.133   5.948   4.997
  597TIP3   OH2 1747   0.994   6.381   4.126
  597TIP3    H1 1748   0.967   6.385   4.218
  597TIP3    H2 1749   1.038   6.464   4.110
  598TIP3   OH2 1750   0.662   5.728   2.533
  598TIP3    H1 1751   0.743   5.718   2.582
  598TIP3    H2 1752   0.598   5.757   2.598
  599TIP3   OH2 1753   7.326   6.439   1.143
  599TIP3    H1 1754   7.336   6.416   1.236
  599TIP3    H2 1755   7.245   6.395   1.117
  600TIP3   OH2 1756   6.003   1.975   0.067
  600TIP3    H1 1757   6.091   2.000   0.039
  600TIP3    H2 1758   5.995   1.883   0.041
  601TIP3   OH2 1759   0.392   4.415   5.065
  601TIP3    H1 1760   0.420   4.368   5.143
  601TIP3    H2 1761   0.423   4.504   5.077
  602TIP3   OH2 1762   6.072   4.300   1.447
  602TIP3    H1 1763   6.160   4.265   1.459
  602TIP3    H2 1764   6.039   4.314   1.535
  603TIP3   OH2 1765   1.945   1.037   5.335
  603TIP3    H1 1766   2.014   1.073   5.391
  603TIP3    H2 1767   1.935   0.947   5.365
  604TIP3   OH2 1768   8.031   3.458   4.068
  604TIP3    H1 1769   8.085   3.466   3.990
  604TIP3    H2 1770   8.077   3.510   4.134
  605TIP3   OH2 1771   6.268   4.014   1.295
  605TIP3    H1 1772   6.244   3.971   1.213
  605TIP3    H2 1773   6.308   4.097   1.269
  606TIP3   OH2 1774   5.266   6.670   6.158
  606TIP3    H1 1775   5.238   6.587   6.197
  606TIP3    H2 1776   5.238   6.665   6.067
  607TIP3   OH2 1777   3.217   5.422   4.562
  607TIP3    H1 1778   3.254   5.445   4.477
  607TIP3    H2 1779   3.177   5.336   4.548
  608TIP3   OH2 1780   5.227   3.671   6.326
  608TIP3    H1 1781   5.134   3.663   6.346
  608TIP3    H2 1782   5.243   3.604   6.260
  609TIP3   OH2 1783   6.837   2.820   5.123
  609TIP3    H1 1784   6.811   2.894   5.067
  609TIP3    H2 1785   6.756   2.771   5.136
  610TIP3   OH2 1786   6.496   6.551   5.479
  610TIP3    H1 1787   6.449   6.633   5.497
  610TIP3    H2 1788   6.485   6.500   5.559
  611TIP3   OH2 1789   2.598   3.298   5.740
  611TIP3    H1 1790   2.662   3.231   5.715
  611TIP3    H2 1791   2.598   3.296   5.836
  612TIP3   OH2 1792   4.602   1.309   3.901
  612TIP3    H1 1793   4.681   1.302   3.954
  612TIP3    H2 1794   4.634   1.319   3.811
  613TIP3   OH2 1795   1.315   3.109   5.635
  613TIP3    H1 1796   1.260   3.072   5.566
  613TIP3    H2 1797   1.264   3.181   5.671
  614TIP3   OH2 1798   6.925   4.960   6.692
  614TIP3    H1 1799   6.868   4.885   6.677
  614TIP3    H2 1800   7.013   4.927   6.678
  615TIP3   OH2 1801   1.066   1.097   4.569
  615TIP3    H1 1802   1.024   1.113   4.485
  615TIP3    H2 1803   1.003   1.130   4.633
  616TIP3   OH2 1804   7.599   6.317   0.043
  616TIP3    H1 1805   7.606   6.244  -0.019
  616TIP3    H2 1806   7.643   6.390  -0.001
  617TIP3   OH2 1807   6.826   0.207   3.433
  617TIP3    H1 1808   6.832   0.300   3.456
  617TIP3    H2 1809   6.843   0.204   3.339
  618TIP3   OH2 1810   4.099   0.816   4.607
  618TIP3    H1 1811   4.155   0.832   4.531
  618TIP3    H2 1812   4.024   0.768   4.573
  619TIP3   OH2 1813   8.163   4.775   1.866
  619TIP3    H1 1814   8.205   4.802   1.784
  619TIP3    H2 1815   8.209   4.826   1.934
  620TIP3   OH2 1816   0.980   6.613   5.049
  620TIP3    H1 1817   1.017   6.591   5.135
  620TIP3    H2 1818   1.056   6.621   4.991
  621TIP3   OH2 1819   7.862   7.754   6.476
  621TIP3    H1 1820   7.769   7.734   6.459
  621TIP3    H2 1821   7.909   7.682   6.433
  622TIP3   OH2 1822   2.585   7.172   4.225
  622TIP3    H1 1823   2.493   7.153   4.243
  622TIP3    H2 1824   2.584   7.257   4.181
  623TIP3   OH2 1825   7.799   4.623   5.247
  623TIP3    H1 1826   7.751   4.690   5.199
  623TIP3    H2 1827   7.732   4.565   5.283
  624TIP3   OH2 1828   1.110   0.868   6.476
  624TIP3    H1 1829   1.088   0.810   6.403
  624TIP3    H2 1830   1.028   0.913   6.497
  625TIP3   OH2 1831   3.693   6.852   3.021
  625TIP3    H1 1832   3.641   6.917   2.974
  625TIP3    H2 1833   3.662   6.858   3.112
  626TIP3   OH2 1834   1.946   2.943   5.618
  626TIP3    H1 1835   1.972   3.004   5.548
  626TIP3    H2 1836   2.014   2.875   5.617
  627TIP3   OH2 1837   6.383   2.391   0.252
  627TIP3    H1 1838   6.319   2.344   0.305
  627TIP3    H2 1839   6.455   2.410   0.313
  628TIP3   OH2 1840   4.071   6.399   4.020
  628TIP3    H1 1841   4.000   6.429   3.964
  628TIP3    H2 1842   4.150   6.415   3.968
  629TIP3   OH2 1843   0.393   4.295   0.131
  629TIP3    H1 1844   0.422   4.326   0.045
  629TIP3    H2 1845   0.470   4.306   0.188
  630TIP3   OH2 1846   6.780   5.854   5.448
  630TIP3    H1 1847   6.788   5.765   5.482
  630TIP3    H2 1848   6.707   5.892   5.497
  631TIP3   OH2 1849   1.151   7.748   1.579
  631TIP3    H1 1850   1.194   7.727   1.662
  631TIP3    H2 1851   1.209   7.813   1.538
  632TIP3   OH2 1852   4.153   3.661   4.098
  632TIP3    H1 1853   4.187   3.648   4.009
  632TIP3    H2 1854   4.217   3.620   4.155
  633TIP3   OH2 1855   3.100   7.638   0.952
  633TIP3    H1 1856   3.058   7.724   0.945
  633TIP3    H2 1857   3.086   7.612   1.043
  634TIP3   OH2 1858   6.397   6.224   3.262
  634TIP3    H1 1859   6.309   6.206   3.295
  634TIP3    H2 1860   6.424   6.304   3.307
  635TIP3   OH2 1861   3.643   2.262   0.231
  635TIP3    H1 1862   3.619   2.234   0.142
  635TIP3    H2 1863   3.620   2.355   0.233
  636TIP3   OH2 1864   2.908   6.527   2.158
  636TIP3    H1 1865   2.998   6.494   2.153
  636TIP3    H2 1866   2.857   6.453   2.190
  637TIP3   OH2 1867   5.478   2.609   5.740
  637TIP3    H1 1868   5.500   2.685   5.794
  637TIP3    H2 1869   5.554   2.598   5.682
  638TIP3   OH2 1870   7.233   2.995   6.797
  638TIP3    H1 1871   7.290   3.071   6.811
  638TIP3    H2 1872   7.222   2.991   6.702
  639TIP3   OH2 1873   6.657   0.771   2.106
  639TIP3    H1 1874   6.748   0.799   2.104
  639TIP3    H2 1875   6.634   0.754   2.015
  640TIP3   OH2 1876   3.789   5.538   6.423
  640TIP3    H1 1877   3.723   5.600   6.393
  640TIP3    H2 1878   3.823   5.498   6.343
  641TIP3   OH2 1879   1.051   6.210   0.241
  641TIP3    H1 1880   1.072   6.215   0.334
  641TIP3    H2 1881   0.995   6.132   0.234
  642TIP3   OH2 1882   6.768   2.670   2.954
  642TIP3    H1 1883   6.707   2.728   3.000
  642TIP3    H2 1884   6.855   2.698   2.984
  643TIP3   OH2 1885   7.345   3.881   1.174
  643TIP3    H1 1886   7.407   3.860   1.104
  643TIP3    H2 1887   7.397   3.930   1.237
  644TIP3   OH2 1888   5.797   2.680   6.186
  644TIP3    H1 1889   5.843   2.733   6.121
  644TIP3    H2 1890   5.712   2.723   6.197
  645TIP3   OH2 1891   0.725   1.873   0.532
  645TIP3    H1 1892   0.687   1.959   0.518
  645TIP3    H2 1893   0.791   1.864   0.464
  646TIP3   OH2 1894   6.927   0.845   1.677
  646TIP3    H1 1895   6.913   0.762   1.722
  646TIP3    H2 1896   6.994   0.826   1.611
  647TIP3   OH2 1897   2.556   7.410   1.070
  647TIP3    H1 1898   2.561   7.410   1.166
  647TIP3    H2 1899   2.548   7.317   1.047
  648TIP3   OH2 1900   5.563   1.843   0.033
  648TIP3    H1 1901   5.544   1.760   0.077
  648TIP3    H2 1902   5.654   1.834   0.004
  649TIP3   OH2 1903   3.817   4.011   1.055
  649TIP3    H1 1904   3.812   3.969   1.141
  649TIP3    H2 1905   3.784   3.945   0.994
  650TIP3   OH2 1906   0.696   7.696   1.468
  650TIP3    H1 1907   0.601   7.702   1.462
  650TIP3    H2 1908   0.723   7.780   1.504
  651TIP3   OH2 1909   4.905   4.574   3.954
  651TIP3    H1 1910   4.916   4.515   3.880
  651TIP3    H2 1911   4.874   4.656   3.916
  652TIP3   OH2 1912   4.789   4.548   2.533
  652TIP3    H1 1913   4.751   4.632   2.506
  652TIP3    H2 1914   4.837   4.568   2.613
  653TIP3   OH2 1915   2.619   3.510   4.584
  653TIP3    H1 1916   2.605   3.563   4.663
  653TIP3    H2 1917   2.533   3.503   4.544
  654TIP3   OH2 1918   5.413   0.419   3.862
  654TIP3    H1 1919   5.468   0.342   3.877
  654TIP3    H2 1920   5.388   0.414   3.770
  655TIP3   OH2 1921   6.562   1.623   2.448
  655TIP3    H1 1922   6.556   1.719   2.451
  655TIP3    H2 1923   6.602   1.599   2.531
  656TIP3   OH2 1924   5.645   5.640  -0.018
  656TIP3    H1 1925   5.629   5.551   0.013
  656TIP3    H2 1926   5.666   5.689   0.061
  657TIP3   OH2 1927   4.543   5.266   4.040
  657TIP3    H1 1928   4.633   5.271   4.009
  657TIP3    H2 1929   4.548   5.291   4.132
  658TIP3   OH2 1930   1.242   2.938   2.937
  658TIP3    H1 1931   1.152   2.972   2.943
  658TIP3    H2 1932   1.236   2.868   2.872
  659TIP3   OH2 1933   5.676   4.670   2.062
  659TIP3    H1 1934   5.693   4.764   2.069
  659TIP3    H2 1935   5.764   4.631   2.054
  660TIP3   OH2 1936   7.604   5.878   4.828
  660TIP3    H1 1937   7.511   5.856   4.816
  660TIP3    H2 1938   7.638   5.808   4.884
  661TIP3   OH2 1939   0.377   5.493   1.755
  661TIP3    H1 1940   0.437   5.512   1.827
  661TIP3    H2 1941   0.297   5.541   1.776
  662TIP3   OH2 1942   3.995   6.232   4.836
  662TIP3    H1 1943   4.022   6.314   4.878
  662TIP3    H2 1944   3.910   6.251   4.798
  663TIP3   OH2 1945   0.123   6.271   5.172
  663TIP3    H1 1946   0.034   6.249   5.198
  663TIP3    H2 1947   0.136   6.361   5.203
  664TIP3   OH2 1948   2.908   3.068   3.210
  664TIP3    H1 1949   2.841   3.040   3.148
  664TIP3    H2 1950   2.911   3.163   3.203
  665TIP3   OH2 1951   3.546   0.457   3.345
  665TIP3    H1 1952   3.642   0.463   3.346
  665TIP3    H2 1953   3.527   0.364   3.336
  666TIP3   OH2 1954   2.164   3.774   0.595
  666TIP3    H1 1955   2.231   3.769   0.663
  666TIP3    H2 1956   2.082   3.779   0.643
  667TIP3   OH2 1957   5.599   1.610   0.199
  667TIP3    H1 1958   5.658   1.559   0.142
  667TIP3    H2 1959   5.656   1.640   0.270
  668TIP3   OH2 1960   1.242   4.475   0.242
  668TIP3    H1 1961   1.315   4.445   0.187
  668TIP3    H2 1962   1.228   4.566   0.216
  669TIP3   OH2 1963   7.264   5.047   4.637
  669TIP3    H1 1964   7.270   5.093   4.553
  669TIP3    H2 1965   7.338   4.987   4.636
  670TIP3   OH2 1966   5.718   7.548   0.889
  670TIP3    H1 1967   5.801   7.502   0.880
  670TIP3    H2 1968   5.721   7.586   0.977
  671TIP3   OH2 1969   6.367   7.766   3.074
  671TIP3    H1 1970   6.363   7.772   2.978
  671TIP3    H2 1971   6.402   7.850   3.102
  672TIP3   OH2 1972   4.473   3.461   3.343
  672TIP3    H1 1973   4.472   3.374   3.383
  672TIP3    H2 1974   4.489   3.444   3.250
  673TIP3   OH2 1975   3.028   7.177   1.035
  673TIP3    H1 1976   3.100   7.200   1.094
  673TIP3    H2 1977   3.027   7.247   0.970
  674TIP3   OH2 1978   2.647   1.818   5.529
  674TIP3    H1 1979   2.672   1.910   5.536
  674TIP3    H2 1980   2.597   1.801   5.609
  675TIP3   OH2 1981   4.452   1.235   4.983
  675TIP3    H1 1982   4.421   1.318   5.019
  675TIP3    H2 1983   4.453   1.175   5.058
  676TIP3   OH2 1984   5.058   3.878   5.031
  676TIP3    H1 1985   5.139   3.828   5.019
  676TIP3    H2 1986   4.988   3.813   5.028
  677TIP3   OH2 1987   4.431   6.450   4.492
  677TIP3    H1 1988   4.486   6.372   4.501
  677TIP3    H2 1989   4.366   6.426   4.426
  678TIP3   OH2 1990   1.404   2.079   0.285
  678TIP3    H1 1991   1.354   2.156   0.310
  678TIP3    H2 1992   1.340   2.019   0.249
  679TIP3   OH2 1993   1.287   6.160   4.307
  679TIP3    H1 1994   1.306   6.075   4.269
  679TIP3    H2 1995   1.209   6.146   4.360
  680TIP3   OH2 1996   3.842   7.524   0.033
  680TIP3    H1 1997   3.846   7.441   0.080
  680TIP3    H2 1998   3.768   7.515  -0.027
  681TIP3   OH2 1999   5.173   6.408   4.790
  681TIP3    H1 2000   5.220   6.392   4.708
  681TIP3    H2 2001   5.082   6.384   4.771
  682TIP3   OH2 2002   3.207   7.596   3.244
  682TIP3    H1 2003   3.213   7.603   3.339
  682TIP3    H2 2004   3.298   7.598   3.213
  683TIP3   OH2 2005   5.157   1.997   5.054
  683TIP3    H1 2006   5.253   1.988   5.053
  683TIP3    H2 2007   5.139   2.046   5.135
  684TIP3   OH2 2008   5.942   1.298   3.223
  684TIP3    H1 2009   6.024   1.316   3.270
  684TIP3    H2 2010   5.902   1.385   3.212
  685TIP3   OH2 2011   4.582   0.830   6.566
  685TIP3    H1 2012   4.578   0.735   6.576
  685TIP3    H2 2013   4.676   0.851   6.566
  686TIP3   OH2 2014   6.796   4.172   3.557
  686TIP3    H1 2015   6.709   4.212   3.564
  686TIP3    H2 2016   6.781   4.078   3.562
  687TIP3   OH2 2017   8.129   3.060   6.360
  687TIP3    H1 2018   8.221   3.037   6.351
  687TIP3    H2 2019   8.127   3.122   6.433
  688TIP3   OH2 2020   1.356   0.128   0.187
  688TIP3    H1 2021   1.302   0.207   0.183
  688TIP3    H2 2022   1.357   0.103   0.279
  689TIP3   OH2 2023   6.160   4.646   2.966
  689TIP3    H1 2024   6.073   4.629   3.004
  689TIP3    H2 2025   6.220   4.631   3.039
  690TIP3   OH2 2026   6.832   4.842   5.266
  690TIP3    H1 2027   6.870   4.874   5.184
  690TIP3    H2 2028   6.905   4.800   5.312
  691TIP3   OH2 2029   1.857   6.117   1.427
  691TIP3    H1 2030   1.907   6.156   1.356
  691TIP3    H2 2031   1.921   6.102   1.497
  692TIP3   OH2 2032   3.570   7.530   5.750
  692TIP3    H1 2033   3.617   7.464   5.800
  692TIP3    H2 2034   3.614   7.612   5.772
  693TIP3   OH2 2035   4.982   1.073   0.972
  693TIP3    H1 2036   4.955   1.151   0.923
  693TIP3    H2 2037   5.071   1.092   1.001
  694TIP3   OH2 2038   2.640   4.470   4.621
  694TIP3    H1 2039   2.641   4.552   4.572
  694TIP3    H2 2040   2.553   4.434   4.604
  695TIP3   OH2 2041   0.421   7.762   4.188
  695TIP3    H1 2042   0.344   7.728   4.234
  695TIP3    H2 2043   0.488   7.695   4.201
  696TIP3   OH2 2044   2.654   5.845   3.842
  696TIP3    H1 2045   2.574   5.855   3.893
  696TIP3    H2 2046   2.673   5.933   3.810
  697TIP3   OH2 2047   2.549   1.415   3.887
  697TIP3    H1 2048   2.604   1.347   3.848
  697TIP3    H2 2049   2.540   1.389   3.979
  698TIP3   OH2 2050   4.688   0.848   6.263
  698TIP3    H1 2051   4.732   0.856   6.347
  698TIP3    H2 2052   4.655   0.758   6.261
  699TIP3   OH2 2053   5.743   7.484   3.805
  699TIP3    H1 2054   5.680   7.554   3.819
  699TIP3    H2 2055   5.772   7.495   3.715
  700TIP3   OH2 2056   1.693   7.866   1.958
  700TIP3    H1 2057   1.690   7.777   1.992
  700TIP3    H2 2058   1.601   7.891   1.948
  701TIP3   OH2 2059   3.306   3.727   0.924
  701TIP3    H1 2060   3.269   3.749   1.009
  701TIP3    H2 2061   3.394   3.696   0.942
  702TIP3   OH2 2062   5.742   2.756   6.646
  702TIP3    H1 2063   5.820   2.809   6.664
  702TIP3    H2 2064   5.757   2.722   6.558
  703TIP3   OH2 2065   6.293   7.838   5.695
  703TIP3    H1 2066   6.221   7.777   5.676
  703TIP3    H2 2067   6.276   7.868   5.784
  704TIP3   OH2 2068   4.669   5.279   4.707
  704TIP3    H1 2069   4.648   5.355   4.652
  704TIP3    H2 2070   4.626   5.205   4.664
  705TIP3   OH2 2071   3.469   3.736   1.638
  705TIP3    H1 2072   3.417   3.690   1.704
  705TIP3    H2 2073   3.466   3.828   1.665
  706TIP3   OH2 2074   3.681   1.858   5.242
  706TIP3    H1 2075   3.741   1.879   5.314
  706TIP3    H2 2076   3.732   1.801   5.185
  707TIP3   OH2 2077   0.361   0.209   1.140
  707TIP3    H1 2078   0.347   0.115   1.150
  707TIP3    H2 2079   0.431   0.216   1.075
  708TIP3   OH2 2080   8.007   2.081   5.766
  708TIP3    H1 2081   8.096   2.050   5.783
  708TIP3    H2 2082   7.954   2.041   5.835
  709TIP3   OH2 2083   3.334   2.860   3.972
  709TIP3    H1 2084   3.382   2.934   3.933
  709TIP3    H2 2085   3.383   2.783   3.943
  710TIP3   OH2 2086   5.575   1.591   4.333
  710TIP3    H1 2087   5.549   1.521   4.274
  710TIP3    H2 2088   5.614   1.658   4.276
  711TIP3   OH2 2089   3.503   7.043   0.380
  711TIP3    H1 2090   3.422   7.090   0.401
  711TIP3    H2 2091   3.548   7.035   0.464
  712TIP3   OH2 2092   6.665   5.981   5.658
  712TIP3    H1 2093   6.624   6.067   5.662
  712TIP3    H2 2094   6.604   5.923   5.704
  713TIP3   OH2 2095   1.227   1.674   0.564
  713TIP3    H1 2096   1.255   1.617   0.492
  713TIP3    H2 2097   1.133   1.682   0.553
  714TIP3   OH2 2098   4.674   0.673   5.366
  714TIP3    H1 2099   4.730   0.739   5.326
  714TIP3    H2 2100   4.693   0.592   5.318
  715TIP3   OH2 2101   0.638   6.302   4.783
  715TIP3    H1 2102   0.551   6.289   4.822
  715TIP3    H2 2103   0.622   6.303   4.689
  716TIP3   OH2 2104   0.094   6.160   0.354
  716TIP3    H1 2105   0.045   6.081   0.333
  716TIP3    H2 2106   0.135   6.185   0.271
  717TIP3   OH2 2107   5.275   3.956   6.415
  717TIP3    H1 2108   5.369   3.967   6.397
  717TIP3    H2 2109   5.265   3.861   6.428
  718TIP3   OH2 2110   4.446   2.781   2.290
  718TIP3    H1 2111   4.506   2.744   2.225
  718TIP3    H2 2112   4.401   2.851   2.242
  719TIP3   OH2 2113   2.439   5.830   2.332
  719TIP3    H1 2114   2.482   5.748   2.354
  719TIP3    H2 2115   2.448   5.885   2.410
  720TIP3   OH2 2116   3.560   6.683   1.050
  720TIP3    H1 2117   3.495   6.749   1.025
  720TIP3    H2 2118   3.633   6.698   0.990
  721TIP3   OH2 2119   1.344   6.861   5.372
  721TIP3    H1 2120   1.428   6.821   5.351
  721TIP3    H2 2121   1.322   6.913   5.294
  722TIP3   OH2 2122   0.601   5.081   5.453
  722TIP3    H1 2123   0.673   5.017   5.450
  722TIP3    H2 2124   0.531   5.041   5.402
  723TIP3   OH2 2125   0.234   2.413   6.292
  723TIP3    H1 2126   0.194   2.335   6.328
  723TIP3    H2 2127   0.256   2.389   6.202
  724TIP3   OH2 2128   0.911   1.274   1.576
  724TIP3    H1 2129   0.860   1.239   1.504
  724TIP3    H2 2130   0.957   1.199   1.613
  725TIP3   OH2 2131   1.727   1.186   6.095
  725TIP3    H1 2132   1.707   1.153   6.007
  725TIP3    H2 2133   1.707   1.113   6.153
  726TIP3   OH2 2134   2.154   3.645   2.632
  726TIP3    H1 2135   2.099   3.679   2.703
  726TIP3    H2 2136   2.149   3.713   2.565
  727TIP3   OH2 2137   1.941   5.924   4.798
  727TIP3    H1 2138   1.885   6.001   4.795
  727TIP3    H2 2139   1.931   5.890   4.887
  728TIP3   OH2 2140   5.634   7.225   6.399
  728TIP3    H1 2141   5.603   7.184   6.319
  728TIP3    H2 2142   5.721   7.188   6.413
  729TIP3   OH2 2143   7.053   3.351   4.398
  729TIP3    H1 2144   7.109   3.275   4.414
  729TIP3    H2 2145   6.994   3.323   4.328
  730TIP3   OH2 2146   6.970   2.306   5.817
  730TIP3    H1 2147   7.019   2.260   5.885
  730TIP3    H2 2148   7.037   2.353   5.766
  731TIP3   OH2 2149   6.711   3.185   5.282
  731TIP3    H1 2150   6.676   3.272   5.299
  731TIP3    H2 2151   6.757   3.194   5.199
  732TIP3   OH2 2152   5.305   0.050   0.644
  732TIP3    H1 2153   5.300   0.112   0.716
  732TIP3    H2 2154   5.374  -0.012   0.671
  733TIP3   OH2 2155   0.925   1.929   2.927
  733TIP3    H1 2156   0.851   1.934   2.986
  733TIP3    H2 2157   0.939   2.019   2.896
  734TIP3   OH2 2158   3.856   5.471   1.880
  734TIP3    H1 2159   3.832   5.530   1.951
  734TIP3    H2 2160   3.812   5.389   1.900
  735TIP3   OH2 2161   3.838   4.339   4.107
  735TIP3    H1 2162   3.863   4.427   4.137
  735TIP3    H2 2163   3.915   4.285   4.126
  736TIP3   OH2 2164   2.116   7.692   3.798
  736TIP3    H1 2165   2.056   7.726   3.865
  736TIP3    H2 2166   2.189   7.753   3.798
  737TIP3   OH2 2167   7.213   0.782   3.777
  737TIP3    H1 2168   7.217   0.728   3.856
  737TIP3    H2 2169   7.300   0.823   3.771
  738TIP3   OH2 2170   1.903   6.977   1.642
  738TIP3    H1 2171   1.926   7.067   1.667
  738TIP3    H2 2172   1.836   6.987   1.575
  739TIP3   OH2 2173   4.606   5.078   2.558
  739TIP3    H1 2174   4.542   5.043   2.496
  739TIP3    H2 2175   4.658   5.140   2.507
  740TIP3   OH2 2176   6.024   5.585   1.033
  740TIP3    H1 2177   6.041   5.676   1.010
  740TIP3    H2 2178   6.018   5.540   0.949
  741TIP3   OH2 2179   3.723   3.335   1.496
  741TIP3    H1 2180   3.714   3.258   1.552
  741TIP3    H2 2181   3.761   3.402   1.554
  742TIP3   OH2 2182   2.696   4.336   5.094
  742TIP3    H1 2183   2.630   4.268   5.084
  742TIP3    H2 2184   2.705   4.375   5.007
  743TIP3   OH2 2185   5.544   3.396   0.620
  743TIP3    H1 2186   5.451   3.403   0.638
  743TIP3    H2 2187   5.550   3.337   0.545
  744TIP3   OH2 2188   3.033   6.861   5.716
  744TIP3    H1 2189   3.069   6.841   5.630
  744TIP3    H2 2190   3.015   6.955   5.714
  745TIP3   OH2 2191   2.487   0.720   0.362
  745TIP3    H1 2192   2.491   0.677   0.448
  745TIP3    H2 2193   2.394   0.730   0.345
  746TIP3   OH2 2194   5.177   4.904   2.601
  746TIP3    H1 2195   5.225   4.918   2.683
  746TIP3    H2 2196   5.170   4.809   2.593
  747TIP3   OH2 2197   2.696   4.548   3.506
  747TIP3    H1 2198   2.642   4.576   3.580
  747TIP3    H2 2199   2.740   4.468   3.536
  748TIP3   OH2 2200   6.673   1.014   5.724
  748TIP3    H1 2201   6.657   0.954   5.796
  748TIP3    H2 2202   6.748   1.067   5.752
  749TIP3   OH2 2203   3.738   5.066   4.498
  749TIP3    H1 2204   3.829   5.039   4.488
  749TIP3    H2 2205   3.687   4.985   4.491
  750TIP3   OH2 2206   1.907   3.200   1.203
  750TIP3    H1 2207   1.898   3.262   1.131
  750TIP3    H2 2208   1.818   3.172   1.222
  751TIP3   OH2 2209   0.894   7.315   0.453
  751TIP3    H1 2210   0.946   7.351   0.525
  751TIP3    H2 2211   0.813   7.366   0.454
  752TIP3   OH2 2212   3.840   5.981   1.738
  752TIP3    H1 2213   3.791   5.899   1.732
  752TIP3    H2 2214   3.802   6.037   1.670
  753TIP3   OH2 2215   5.954   5.152   6.332
  753TIP3    H1 2216   6.049   5.151   6.343
  753TIP3    H2 2217   5.920   5.162   6.421
  754TIP3   OH2 2218   2.901   5.929   1.567
  754TIP3    H1 2219   2.860   5.999   1.515
  754TIP3    H2 2220   2.970   5.895   1.510
  755TIP3   OH2 2221   4.972   3.369   2.209
  755TIP3    H1 2222   4.930   3.454   2.217
  755TIP3    H2 2223   4.994   3.361   2.116
  756TIP3   OH2 2224   6.981   5.628   3.510
  756TIP3    H1 2225   6.894   5.653   3.481
  756TIP3    H2 2226   6.966   5.561   3.577
  757TIP3   OH2 2227   5.786   1.545   3.514
  757TIP3    H1 2228   5.773   1.596   3.594
  757TIP3    H2 2229   5.785   1.454   3.544
  758TIP3   OH2 2230   7.699   6.865   5.507
  758TIP3    H1 2231   7.775   6.921   5.522
  758TIP3    H2 2232   7.724   6.809   5.433
  759TIP3   OH2 2233   7.521   1.180   6.641
  759TIP3    H1 2234   7.579   1.246   6.680
  759TIP3    H2 2235   7.576   1.134   6.577
  760TIP3   OH2 2236   6.468   2.181   5.384
  760TIP3    H1 2237   6.495   2.157   5.295
  760TIP3    H2 2238   6.377   2.153   5.390
  761TIP3   OH2 2239   8.097   1.125   2.879
  761TIP3    H1 2240   8.159   1.158   2.944
  761TIP3    H2 2241   8.128   1.036   2.859
  762TIP3   OH2 2242   6.916   0.629   3.143
  762TIP3    H1 2243   7.007   0.621   3.114
  762TIP3    H2 2244   6.881   0.540   3.135
  763TIP3   OH2 2245   3.742   0.234   3.560
  763TIP3    H1 2246   3.648   0.218   3.564
  763TIP3    H2 2247   3.758   0.294   3.634
  764TIP3   OH2 2248   7.348   7.443   3.894
  764TIP3    H1 2249   7.339   7.521   3.839
  764TIP3    H2 2250   7.263   7.436   3.938
  765TIP3   OH2 2251   4.630   1.134   1.459
  765TIP3    H1 2252   4.624   1.128   1.554
  765TIP3    H2 2253   4.721   1.112   1.439
  766TIP3   OH2 2254   0.849   2.090   6.772
  766TIP3    H1 2255   0.854   2.094   6.676
  766TIP3    H2 2256   0.763   2.052   6.789
  767TIP3   OH2 2257   1.761   3.121   3.435
  767TIP3    H1 2258   1.824   3.055   3.465
  767TIP3    H2 2259   1.698   3.072   3.382
  768TIP3   OH2 2260   2.621   1.699   0.675
  768TIP3    H1 2261   2.636   1.740   0.760
  768TIP3    H2 2262   2.666   1.614   0.681
  769TIP3   OH2 2263   4.676   1.629   0.646
  769TIP3    H1 2264   4.640   1.708   0.605
  769TIP3    H2 2265   4.600   1.580   0.675
  770TIP3   OH2 2266   0.228   5.313   2.324
  770TIP3    H1 2267   0.275   5.292   2.404
  770TIP3    H2 2268   0.157   5.370   2.352
  771TIP3   OH2 2269   1.947   2.212   2.360
  771TIP3    H1 2270   1.881   2.172   2.417
  771TIP3    H2 2271   1.935   2.169   2.275
  772TIP3   OH2 2272   1.994   6.795   1.163
  772TIP3    H1 2273   2.081   6.801   1.122
  772TIP3    H2 2274   2.012   6.779   1.256
  773TIP3   OH2 2275   2.210   0.438   4.832
  773TIP3    H1 2276   2.262   0.514   4.807
  773TIP3    H2 2277   2.219   0.377   4.759
  774TIP3   OH2 2278   3.578   0.879   1.209
  774TIP3    H1 2279   3.627   0.914   1.135
  774TIP3    H2 2280   3.645   0.853   1.272
  775TIP3   OH2 2281   3.053   6.036   3.074
  775TIP3    H1 2282   3.148   6.028   3.063
  775TIP3    H2 2283   3.040   6.127   3.103
  776TIP3   OH2 2284   8.005   2.568   4.580
  776TIP3    H1 2285   7.924   2.619   4.581
  776TIP3    H2 2286   8.020   2.545   4.672
  777TIP3   OH2 2287   1.764   5.034   2.478
  777TIP3    H1 2288   1.739   5.028   2.386
  777TIP3    H2 2289   1.690   5.076   2.521
  778TIP3   OH2 2290   2.296   4.574   3.144
  778TIP3    H1 2291   2.209   4.603   3.117
  778TIP3    H2 2292   2.295   4.581   3.240
  779TIP3   OH2 2293   5.358   3.042   0.489
  779TIP3    H1 2294   5.290   3.109   0.486
  779TIP3    H2 2295   5.317   2.964   0.451
  780TIP3   OH2 2296   6.569   6.304   4.790
  780TIP3    H1 2297   6.621   6.241   4.740
  780TIP3    H2 2298   6.591   6.389   4.751
  781TIP3   OH2 2299   0.453   1.080   1.491
  781TIP3    H1 2300   0.498   1.069   1.575
  781TIP3    H2 2301   0.379   1.020   1.496
  782TIP3   OH2 2302   2.686   2.910   2.211
  782TIP3    H1 2303   2.716   3.001   2.212
  782TIP3    H2 2304   2.613   2.907   2.272
  783TIP3   OH2 2305   1.317   1.876   1.624
  783TIP3    H1 2306   1.279   1.935   1.689
  783TIP3    H2 2307   1.375   1.932   1.572
  784TIP3   OH2 2308   3.402   2.035   2.726
  784TIP3    H1 2309   3.436   2.107   2.778
  784TIP3    H2 2310   3.346   2.077   2.661
  785TIP3   OH2 2311   2.116   5.396   3.707
  785TIP3    H1 2312   2.088   5.391   3.616
  785TIP3    H2 2313   2.035   5.392   3.758
  786TIP3   OH2 2314   1.123   6.835   3.871
  786TIP3    H1 2315   1.187   6.810   3.804
  786TIP3    H2 2316   1.175   6.857   3.947
  787TIP3   OH2 2317   4.004   2.428   0.297
  787TIP3    H1 2318   3.962   2.420   0.382
  787TIP3    H2 2319   3.938   2.469   0.241
  788TIP3   OH2 2320   5.967   3.690   5.061
  788TIP3    H1 2321   5.908   3.729   4.996
  788TIP3    H2 2322   5.913   3.625   5.106
  789TIP3   OH2 2323   0.704   3.035   1.963
  789TIP3    H1 2324   0.683   2.973   1.893
  789TIP3    H2 2325   0.670   2.994   2.042
  790TIP3   OH2 2326   6.904   7.007   4.572
  790TIP3    H1 2327   6.823   7.020   4.621
  790TIP3    H2 2328   6.970   7.055   4.622
  791TIP3   OH2 2329   7.660   3.926   4.247
  791TIP3    H1 2330   7.655   4.004   4.193
  791TIP3    H2 2331   7.750   3.895   4.236
  792TIP3   OH2 2332   1.779   4.762   3.239
  792TIP3    H1 2333   1.710   4.724   3.186
  792TIP3    H2 2334   1.742   4.842   3.274
  793TIP3   OH2 2335   1.869   5.992   4.259
  793TIP3    H1 2336   1.841   5.928   4.194
  793TIP3    H2 2337   1.958   5.966   4.281
  794TIP3   OH2 2338   7.272   1.889   2.812
  794TIP3    H1 2339   7.344   1.952   2.808
  794TIP3    H2 2340   7.284   1.843   2.895
  795TIP3   OH2 2341   6.823   4.994   0.144
  795TIP3    H1 2342   6.770   5.074   0.150
  795TIP3    H2 2343   6.865   4.987   0.230
  796TIP3   OH2 2344   2.319   0.428   6.271
  796TIP3    H1 2345   2.399   0.397   6.312
  796TIP3    H2 2346   2.254   0.361   6.291
  797TIP3   OH2 2347   5.319   6.803   5.604
  797TIP3    H1 2348   5.335   6.870   5.670
  797TIP3    H2 2349   5.288   6.852   5.527
  798TIP3   OH2 2350   3.770   0.023   5.886
  798TIP3    H1 2351   3.787   0.034   5.980
  798TIP3    H2 2352   3.688   0.068   5.871
  799TIP3   OH2 2353   7.949   2.319   0.655
  799TIP3    H1 2354   8.003   2.377   0.708
  799TIP3    H2 2355   7.989   2.233   0.666
  800TIP3   OH2 2356   1.617   1.435   5.642
  800TIP3    H1 2357   1.634   1.425   5.548
  800TIP3    H2 2358   1.701   1.459   5.680
  801TIP3   OH2 2359   4.139   3.094   3.356
  801TIP3    H1 2360   4.046   3.083   3.377
  801TIP3    H2 2361   4.167   3.166   3.412
  802TIP3   OH2 2362   0.323   1.135   0.263
  802TIP3    H1 2363   0.307   1.213   0.316
  802TIP3    H2 2364   0.412   1.147   0.229
  803TIP3   OH2 2365   8.069   7.286   6.373
  803TIP3    H1 2366   8.020   7.367   6.360
  803TIP3    H2 2367   8.015   7.234   6.432
  804TIP3   OH2 2368   3.069   5.957   0.939
  804TIP3    H1 2369   2.984   5.923   0.969
  804TIP3    H2 2370   3.067   6.050   0.960
  805TIP3   OH2 2371   3.710   4.876   2.629
  805TIP3    H1 2372   3.686   4.783   2.627
  805TIP3    H2 2373   3.806   4.876   2.629
  806TIP3   OH2 2374   2.487   4.809   1.146
  806TIP3    H1 2375   2.475   4.896   1.107
  806TIP3    H2 2376   2.428   4.809   1.221
  807TIP3   OH2 2377   4.753   6.435   3.148
  807TIP3    H1 2378   4.687   6.371   3.121
  807TIP3    H2 2379   4.837   6.394   3.126
  808TIP3   OH2 2380   5.352   4.597   5.414
  808TIP3    H1 2381   5.323   4.659   5.480
  808TIP3    H2 2382   5.282   4.532   5.410
  809TIP3   OH2 2383   0.305   5.164   4.928
  809TIP3    H1 2384   0.294   5.117   5.011
  809TIP3    H2 2385   0.240   5.125   4.870
  810TIP3   OH2 2386   0.885   7.493   1.471
  810TIP3    H1 2387   0.824   7.419   1.472
  810TIP3    H2 2388   0.832   7.568   1.496
  811TIP3   OH2 2389   6.864   0.442   3.851
  811TIP3    H1 2390   6.917   0.514   3.884
  811TIP3    H2 2391   6.857   0.382   3.925
  812TIP3   OH2 2392   1.378   7.612   3.981
  812TIP3    H1 2393   1.301   7.636   4.033
  812TIP3    H2 2394   1.385   7.517   3.990
  813TIP3   OH2 2395   1.590   4.254   6.503
  813TIP3    H1 2396   1.498   4.280   6.504
  813TIP3    H2 2397   1.633   4.321   6.449
  814TIP3   OH2 2398   3.394   0.137   5.090
  814TIP3    H1 2399   3.420   0.210   5.145
  814TIP3    H2 2400   3.305   0.158   5.061
  815TIP3   OH2 2401   3.412   1.703   2.006
  815TIP3    H1 2402   3.425   1.687   1.912
  815TIP3    H2 2403   3.447   1.624   2.048
  816TIP3   OH2 2404   4.291   5.426   2.547
  816TIP3    H1 2405   4.351   5.459   2.480
  816TIP3    H2 2406   4.207   5.419   2.503
  817TIP3   OH2 2407   5.647   5.431   5.288
  817TIP3    H1 2408   5.618   5.444   5.379
  817TIP3    H2 2409   5.635   5.338   5.272
  818TIP3   OH2 2410   2.359   4.380   1.223
  818TIP3    H1 2411   2.395   4.298   1.189
  818TIP3    H2 2412   2.383   4.380   1.316
  819TIP3   OH2 2413   1.913   6.606   3.449
  819TIP3    H1 2414   1.947   6.650   3.527
  819TIP3    H2 2415   1.991   6.575   3.403
  820TIP3   OH2 2416   6.797   5.660   0.280
  820TIP3    H1 2417   6.836   5.633   0.197
  820TIP3    H2 2418   6.740   5.733   0.257
  821TIP3   OH2 2419   5.996   5.072   5.009
  821TIP3    H1 2420   5.977   5.108   4.922
  821TIP3    H2 2421   6.014   4.979   4.993
  822TIP3   OH2 2422   5.452   2.706   1.950
  822TIP3    H1 2423   5.480   2.648   1.880
  822TIP3    H2 2424   5.481   2.663   2.030
  823TIP3   OH2 2425   1.138   3.496   2.844
  823TIP3    H1 2426   1.172   3.477   2.932
  823TIP3    H2 2427   1.215   3.522   2.794
  824TIP3   OH2 2428   1.282   3.513   1.290
  824TIP3    H1 2429   1.341   3.529   1.216
  824TIP3    H2 2430   1.297   3.587   1.349
  825TIP3   OH2 2431   7.298   1.296   5.666
  825TIP3    H1 2432   7.284   1.312   5.573
  825TIP3    H2 2433   7.261   1.374   5.709
  826TIP3   OH2 2434   1.555   5.705   0.944
  826TIP3    H1 2435   1.548   5.657   1.026
  826TIP3    H2 2436   1.640   5.747   0.948
  827TIP3   OH2 2437   3.017   0.514   1.099
  827TIP3    H1 2438   2.992   0.446   1.162
  827TIP3    H2 2439   3.108   0.494   1.076
  828TIP3   OH2 2440   4.092   4.044   3.794
  828TIP3    H1 2441   4.149   3.990   3.849
  828TIP3    H2 2442   4.026   4.079   3.854
  829TIP3   OH2 2443   7.996   7.513   4.520
  829TIP3    H1 2444   7.944   7.542   4.595
  829TIP3    H2 2445   8.010   7.593   4.468
  830TIP3   OH2 2446   3.297   2.473   3.818
  830TIP3    H1 2447   3.356   2.535   3.861
  830TIP3    H2 2448   3.223   2.527   3.788
  831TIP3   OH2 2449   7.788   7.656   2.551
  831TIP3    H1 2450   7.729   7.647   2.626
  831TIP3    H2 2451   7.873   7.629   2.585
  832TIP3   OH2 2452   7.888   4.497   3.072
  832TIP3    H1 2453   7.822   4.550   3.026
  832TIP3    H2 2454   7.845   4.413   3.086
  833TIP3   OH2 2455   3.074   6.430   6.052
  833TIP3    H1 2456   3.046   6.445   5.962
  833TIP3    H2 2457   2.997   6.396   6.097
  834TIP3   OH2 2458   4.284   4.089   3.585
  834TIP3    H1 2459   4.354   4.127   3.637
  834TIP3    H2 2460   4.218   4.063   3.650
  835TIP3   OH2 2461  -0.003   3.053   6.110
  835TIP3    H1 2462   0.028   3.011   6.190
  835TIP3    H2 2463  -0.038   2.980   6.057
  836TIP3   OH2 2464   0.053   0.145   2.839
  836TIP3    H1 2465   0.102   0.215   2.881
  836TIP3    H2 2466   0.057   0.165   2.746
  837TIP3   OH2 2467   3.933   4.973   6.204
  837TIP3    H1 2468   3.885   4.899   6.166
  837TIP3    H2 2469   4.021   4.966   6.166
  838TIP3   OH2 2470   7.615   5.320   3.300
  838TIP3    H1 2471   7.674   5.391   3.322
  838TIP3    H2 2472   7.622   5.259   3.373
  839TIP3   OH2 2473   5.554   5.262   6.330
  839TIP3    H1 2474   5.598   5.210   6.398
  839TIP3    H2 2475   5.599   5.237   6.249
  840TIP3   OH2 2476   5.239   1.322   3.457
  840TIP3    H1 2477   5.181   1.398   3.448
  840TIP3    H2 2478   5.212   1.282   3.540
  841TIP3   OH2 2479   4.821   1.994   3.024
  841TIP3    H1 2480   4.872   1.922   3.063
  841TIP3    H2 2481   4.865   2.073   3.055
  842TIP3   OH2 2482   2.939   5.203   1.281
  842TIP3    H1 2483   2.858   5.224   1.233
  842TIP3    H2 2484   2.932   5.109   1.299
  843TIP3   OH2 2485   0.352   1.380  -0.043
  843TIP3    H1 2486   0.437   1.412  -0.013
  843TIP3    H2 2487   0.289   1.417   0.019
  844TIP3   OH2 2488   7.508   3.264   4.678
  844TIP3    H1 2489   7.504   3.176   4.715
  844TIP3    H2 2490   7.459   3.257   4.596
  845TIP3   OH2 2491   2.679   5.939   6.525
  845TIP3    H1 2492   2.604   5.879   6.529
  845TIP3    H2 2493   2.720   5.919   6.441
  846TIP3   OH2 2494   0.201   4.305   6.626
  846TIP3    H1 2495   0.239   4.391   6.641
  846TIP3    H2 2496   0.243   4.248   6.691
  847TIP3   OH2 2497   1.242   5.546   5.008
  847TIP3    H1 2498   1.203   5.459   5.015
  847TIP3    H2 2499   1.205   5.582   4.927
  848TIP3   OH2 2500   2.419   6.702   6.490
  848TIP3    H1 2501   2.475   6.631   6.523
  848TIP3    H2 2502   2.368   6.662   6.420
  849TIP3   OH2 2503   4.731   1.583   2.909
  849TIP3    H1 2504   4.707   1.633   2.831
  849TIP3    H2 2505   4.815   1.542   2.886
  850TIP3   OH2 2506   6.863   4.199   1.687
  850TIP3    H1 2507   6.830   4.181   1.599
  850TIP3    H2 2508   6.930   4.133   1.702
  851TIP3   OH2 2509   4.470   3.271   3.770
  851TIP3    H1 2510   4.433   3.199   3.821
  851TIP3    H2 2511   4.559   3.242   3.748
  852TIP3   OH2 2512   0.914   4.332   6.336
  852TIP3    H1 2513   0.943   4.317   6.246
  852TIP3    H2 2514   0.975   4.397   6.370
  853TIP3   OH2 2515   7.941   3.702   2.883
  853TIP3    H1 2516   7.949   3.684   2.977
  853TIP3    H2 2517   8.006   3.644   2.843
  854TIP3   OH2 2518   0.671   7.556   1.835
  854TIP3    H1 2519   0.665   7.523   1.745
  854TIP3    H2 2520   0.647   7.481   1.889
  855TIP3   OH2 2521   8.165   2.579   3.053
  855TIP3    H1 2522   8.185   2.659   3.006
  855TIP3    H2 2523   8.181   2.600   3.145
  856TIP3   OH2 2524   3.162   6.578   4.279
  856TIP3    H1 2525   3.138   6.617   4.195
  856TIP3    H2 2526   3.157   6.484   4.264
  857TIP3   OH2 2527   7.072   0.251   6.062
  857TIP3    H1 2528   7.045   0.160   6.056
  857TIP3    H2 2529   7.020   0.296   5.996
  858TIP3   OH2 2530   6.368   0.461   3.012
  858TIP3    H1 2531   6.312   0.508   3.074
  858TIP3    H2 2532   6.318   0.383   2.989
  859TIP3   OH2 2533   4.400   6.628   6.219
  859TIP3    H1 2534   4.423   6.545   6.261
  859TIP3    H2 2535   4.403   6.692   6.290
  860TIP3   OH2 2536   4.333   4.526   6.382
  860TIP3    H1 2537   4.306   4.544   6.471
  860TIP3    H2 2538   4.309   4.604   6.332
  861TIP3   OH2 2539   5.984   0.304   0.026
  861TIP3    H1 2540   6.012   0.325   0.115
  861TIP3    H2 2541   6.007   0.212   0.014
  862TIP3   OH2 2542   1.147   0.129   5.094
  862TIP3    H1 2543   1.205   0.052   5.094
  862TIP3    H2 2544   1.112   0.132   5.005
  863TIP3   OH2 2545   6.578   5.335   2.358
  863TIP3    H1 2546   6.659   5.367   2.320
  863TIP3    H2 2547   6.549   5.404   2.417
  864TIP3   OH2 2548   0.426   4.979   0.420
  864TIP3    H1 2549   0.409   5.071   0.440
  864TIP3    H2 2550   0.509   4.980   0.373
  865TIP3   OH2 2551   4.158   7.736   6.442
  865TIP3    H1 2552   4.102   7.795   6.493
  865TIP3    H2 2553   4.182   7.786   6.365
  866TIP3   OH2 2554   5.513   4.544   4.334
  866TIP3    H1 2555   5.421   4.524   4.346
  866TIP3    H2 2556   5.558   4.460   4.342
  867TIP3   OH2 2557   6.663   0.900   3.725
  867TIP3    H1 2558   6.590   0.901   3.787
  867TIP3    H2 2559   6.664   0.811   3.690
  868TIP3   OH2 2560   3.738   5.546   0.881
  868TIP3    H1 2561   3.828   5.579   0.890
  868TIP3    H2 2562   3.720   5.505   0.966
  869TIP3   OH2 2563   6.503   7.626   0.924
  869TIP3    H1 2564   6.516   7.591   1.012
  869TIP3    H2 2565   6.576   7.687   0.912
  870TIP3   OH2 2566   3.990   1.162   1.699
  870TIP3    H1 2567   3.978   1.068   1.710
  870TIP3    H2 2568   3.904   1.199   1.716
  871TIP3   OH2 2569   7.453   5.525   3.493
  871TIP3    H1 2570   7.468   5.440   3.533
  871TIP3    H2 2571   7.536   5.572   3.504
  872TIP3   OH2 2572   7.713   6.870   3.574
  872TIP3    H1 2573   7.631   6.910   3.604
  872TIP3    H2 2574   7.688   6.784   3.542
  873TIP3   OH2 2575   7.450   1.765   0.078
  873TIP3    H1 2576   7.363   1.749   0.113
  873TIP3    H2 2577   7.504   1.784   0.154
  874TIP3   OH2 2578   1.390   6.795   4.378
  874TIP3    H1 2579   1.480   6.789   4.408
  874TIP3    H2 2580   1.350   6.861   4.434
  875TIP3   OH2 2581   6.527   3.109   3.304
  875TIP3    H1 2582   6.435   3.112   3.277
  875TIP3    H2 2583   6.524   3.115   3.400
  876TIP3   OH2 2584   3.683   2.091   2.237
  876TIP3    H1 2585   3.639   2.042   2.168
  876TIP3    H2 2586   3.740   2.026   2.279
  877TIP3   OH2 2587   6.248   7.023   0.542
  877TIP3    H1 2588   6.165   7.058   0.509
  877TIP3    H2 2589   6.315   7.063   0.486
  878TIP3   OH2 2590   2.760   3.966   3.981
  878TIP3    H1 2591   2.724   3.925   3.902
  878TIP3    H2 2592   2.852   3.941   3.980
  879TIP3   OH2 2593   1.139   6.579   5.780
  879TIP3    H1 2594   1.182   6.663   5.795
  879TIP3    H2 2595   1.074   6.573   5.850
  880TIP3   OH2 2596   2.506   5.074   1.751
  880TIP3    H1 2597   2.489   4.991   1.796
  880TIP3    H2 2598   2.552   5.127   1.816
  881TIP3   OH2 2599   4.152   4.695   2.609
  881TIP3    H1 2600   4.222   4.645   2.651
  881TIP3    H2 2601   4.177   4.698   2.517
  882TIP3   OH2 2602   5.073   3.114   0.506
  882TIP3    H1 2603   5.053   3.021   0.516
  882TIP3    H2 2604   4.988   3.157   0.513
  883TIP3   OH2 2605   3.463   4.058   2.779
  883TIP3    H1 2606   3.537   4.076   2.722
  883TIP3    H2 2607   3.476   4.115   2.855
  884TIP3   OH2 2608   3.625   5.898   5.388
  884TIP3    H1 2609   3.638   5.937   5.474
  884TIP3    H2 2610   3.634   5.970   5.327
  885TIP3   OH2 2611   6.536   3.181   6.102
  885TIP3    H1 2612   6.475   3.254   6.092
  885TIP3    H2 2613   6.582   3.177   6.018
  886TIP3   OH2 2614   5.930   3.629   5.350
  886TIP3    H1 2615   5.970   3.711   5.378
  886TIP3    H2 2616   5.836   3.649   5.346
  887TIP3   OH2 2617   6.068   7.693   4.359
  887TIP3    H1 2618   6.108   7.781   4.362
  887TIP3    H2 2619   6.117   7.648   4.291
  888TIP3   OH2 2620   7.990   1.867   2.784
  888TIP3    H1 2621   7.969   1.789   2.835
  888TIP3    H2 2622   8.040   1.923   2.844
  889TIP3   OH2 2623   5.587   3.808   2.608
  889TIP3    H1 2624   5.666   3.845   2.647
  889TIP3    H2 2625   5.570   3.729   2.660
  890TIP3   OH2 2626   5.163   4.942   4.303
  890TIP3    H1 2627   5.203   4.890   4.233
  890TIP3    H2 2628   5.176   4.890   4.382
  891TIP3   OH2 2629   7.842   1.104   4.193
  891TIP3    H1 2630   7.923   1.053   4.189
  891TIP3    H2 2631   7.861   1.181   4.139
  892TIP3   OH2 2632   4.494   0.204   0.923
  892TIP3    H1 2633   4.556   0.175   0.989
  892TIP3    H2 2634   4.421   0.242   0.973
  893TIP3   OH2 2635   5.251   6.717   2.187
  893TIP3    H1 2636   5.299   6.729   2.105
  893TIP3    H2 2637   5.251   6.804   2.227
  894TIP3   OH2 2638   6.480   5.180   4.762
  894TIP3    H1 2639   6.456   5.118   4.831
  894TIP3    H2 2640   6.511   5.126   4.690
  895TIP3   OH2 2641   5.793   4.218   3.701
  895TIP3    H1 2642   5.805   4.280   3.773
  895TIP3    H2 2643   5.710   4.243   3.660
  896TIP3   OH2 2644   1.447   7.439   3.696
  896TIP3    H1 2645   1.499   7.398   3.765
  896TIP3    H2 2646   1.509   7.453   3.625
  897TIP3   OH2 2647   5.527   1.858   5.289
  897TIP3    H1 2648   5.604   1.907   5.317
  897TIP3    H2 2649   5.560   1.770   5.271
  898TIP3   OH2 2650   3.033   1.594   0.435
  898TIP3    H1 2651   3.108   1.589   0.375
  898TIP3    H2 2652   3.070   1.624   0.518
  899TIP3   OH2 2653   2.714   1.836   4.208
  899TIP3    H1 2654   2.673   1.784   4.139
  899TIP3    H2 2655   2.657   1.913   4.216
  900TIP3   OH2 2656   1.773   1.670   2.761
  900TIP3    H1 2657   1.703   1.648   2.699
  900TIP3    H2 2658   1.728   1.683   2.845
  901TIP3   OH2 2659   2.033   0.045   1.923
  901TIP3    H1 2660   2.111   0.069   1.973
  901TIP3    H2 2661   2.048   0.082   1.836
  902TIP3   OH2 2662   4.560   6.280   1.242
  902TIP3    H1 2663   4.548   6.186   1.234
  902TIP3    H2 2664   4.615   6.304   1.168
  903TIP3   OH2 2665   4.121   3.881   0.509
  903TIP3    H1 2666   4.197   3.938   0.511
  903TIP3    H2 2667   4.141   3.816   0.442
  904TIP3   OH2 2668   1.086   0.202   5.358
  904TIP3    H1 2669   1.080   0.174   5.267
  904TIP3    H2 2670   1.180   0.200   5.377
  905TIP3   OH2 2671   1.070   6.831   4.802
  905TIP3    H1 2672   1.068   6.804   4.710
  905TIP3    H2 2673   0.980   6.859   4.821
  906TIP3   OH2 2674   6.501   0.846   3.952
  906TIP3    H1 2675   6.463   0.883   4.031
  906TIP3    H2 2676   6.556   0.774   3.983
  907TIP3   OH2 2677   2.535   1.429   4.168
  907TIP3    H1 2678   2.584   1.393   4.242
  907TIP3    H2 2679   2.456   1.465   4.208
  908TIP3   OH2 2680   6.930   3.479   2.386
  908TIP3    H1 2681   6.842   3.496   2.420
  908TIP3    H2 2682   6.930   3.520   2.299
  909TIP3   OH2 2683   7.137   4.559   5.019
  909TIP3    H1 2684   7.155   4.618   5.093
  909TIP3    H2 2685   7.114   4.476   5.060
  910TIP3   OH2 2686   2.916   3.028   1.010
  910TIP3    H1 2687   2.887   2.947   0.968
  910TIP3    H2 2688   2.948   3.083   0.939
  911TIP3   OH2 2689   3.091   4.186   5.411
  911TIP3    H1 2690   3.142   4.248   5.359
  911TIP3    H2 2691   3.120   4.100   5.382
  912TIP3   OH2 2692   6.873   3.100   2.640
  912TIP3    H1 2693   6.902   3.015   2.672
  912TIP3    H2 2694   6.930   3.118   2.565
  913TIP3   OH2 2695   3.563   7.021   4.626
  913TIP3    H1 2696   3.648   6.981   4.606
  913TIP3    H2 2697   3.580   7.115   4.626
  914TIP3   OH2 2698   3.699   5.140   1.203
  914TIP3    H1 2699   3.692   5.235   1.196
  914TIP3    H2 2700   3.786   5.119   1.169
  915TIP3   OH2 2701   0.928   7.170   5.445
  915TIP3    H1 2702   0.855   7.183   5.385
  915TIP3    H2 2703   0.997   7.227   5.411
  916TIP3   OH2 2704   4.627   3.584   3.546
  916TIP3    H1 2705   4.552   3.554   3.494
  916TIP3    H2 2706   4.589   3.643   3.611
  917TIP3   OH2 2707   4.956   2.561   0.709
  917TIP3    H1 2708   4.864   2.566   0.735
  917TIP3    H2 2709   4.967   2.628   0.642
  918TIP3   OH2 2710   5.500   5.257   2.530
  918TIP3    H1 2711   5.581   5.242   2.579
  918TIP3    H2 2712   5.431   5.227   2.589
  919TIP3   OH2 2713   6.256   5.762   5.189
  919TIP3    H1 2714   6.259   5.831   5.122
  919TIP3    H2 2715   6.204   5.692   5.149
  920TIP3   OH2 2716   3.668   3.840   4.604
  920TIP3    H1 2717   3.577   3.840   4.574
  920TIP3    H2 2718   3.662   3.818   4.697
  921TIP3   OH2 2719   6.466   4.253   6.364
  921TIP3    H1 2720   6.510   4.245   6.279
  921TIP3    H2 2721   6.478   4.167   6.405
  922TIP3   OH2 2722   3.901   7.507   2.463
  922TIP3    H1 2723   3.875   7.416   2.473
  922TIP3    H2 2724   3.907   7.520   2.368
  923TIP3   OH2 2725   5.648   3.171   1.065
  923TIP3    H1 2726   5.687   3.128   0.989
  923TIP3    H2 2727   5.639   3.262   1.039
  924TIP3   OH2 2728   2.944   3.089   6.684
  924TIP3    H1 2729   3.020   3.057   6.734
  924TIP3    H2 2730   2.963   3.065   6.593
  925TIP3   OH2 2731   0.023   6.628   1.909
  925TIP3    H1 2732   0.027   6.596   1.818
  925TIP3    H2 2733   0.050   6.553   1.962
  926TIP3   OH2 2734   6.975   1.526   5.796
  926TIP3    H1 2735   6.971   1.463   5.724
  926TIP3    H2 2736   7.067   1.555   5.797
  927TIP3   OH2 2737   6.204   1.573   6.431
  927TIP3    H1 2738   6.216   1.626   6.509
  927TIP3    H2 2739   6.273   1.602   6.372
  928TIP3   OH2 2740   3.518   0.387   5.207
  928TIP3    H1 2741   3.579   0.400   5.135
  928TIP3    H2 2742   3.498   0.475   5.238
  929TIP3   OH2 2743   2.795   5.599   4.050
  929TIP3    H1 2744   2.835   5.620   3.966
  929TIP3    H2 2745   2.754   5.681   4.079
  930TIP3   OH2 2746   5.639   5.309   4.352
  930TIP3    H1 2747   5.650   5.319   4.447
  930TIP3    H2 2748   5.567   5.246   4.343
  931TIP3   OH2 2749   7.710   5.562   5.280
  931TIP3    H1 2750   7.722   5.476   5.322
  931TIP3    H2 2751   7.717   5.625   5.351
  932TIP3   OH2 2752   7.749   3.565   0.124
  932TIP3    H1 2753   7.696   3.607   0.056
  932TIP3    H2 2754   7.817   3.629   0.145
  933TIP3   OH2 2755   3.164   6.399   0.330
  933TIP3    H1 2756   3.095   6.355   0.280
  933TIP3    H2 2757   3.146   6.493   0.319
  934TIP3   OH2 2758   1.496   4.305   0.175
  934TIP3    H1 2759   1.514   4.221   0.132
  934TIP3    H2 2760   1.436   4.284   0.247
  935TIP3   OH2 2761   1.517   3.076   1.535
  935TIP3    H1 2762   1.496   2.983   1.537
  935TIP3    H2 2763   1.437   3.118   1.504
  936TIP3   OH2 2764   2.602   1.077   3.398
  936TIP3    H1 2765   2.577   1.105   3.487
  936TIP3    H2 2766   2.633   0.988   3.409
  937TIP3   OH2 2767   4.752   1.027   4.997
  937TIP3    H1 2768   4.786   0.985   5.076
  937TIP3    H2 2769   4.740   1.118   5.021
  938TIP3   OH2 2770   1.279   0.057   0.432
  938TIP3    H1 2771   1.266   0.134   0.486
  938TIP3    H2 2772   1.306  -0.011   0.493
  939TIP3   OH2 2773   5.561   7.185   2.183
  939TIP3    H1 2774   5.577   7.194   2.089
  939TIP3    H2 2775   5.483   7.238   2.199
  940TIP3   OH2 2776   3.064   0.640   2.531
  940TIP3    H1 2777   2.980   0.680   2.506
  940TIP3    H2 2778   3.092   0.689   2.608
  941TIP3   OH2 2779   3.946   5.024   1.676
  941TIP3    H1 2780   3.964   4.950   1.735
  941TIP3    H2 2781   3.994   5.097   1.714
  942TIP3   OH2 2782   0.981   3.555   0.718
  942TIP3    H1 2783   1.001   3.471   0.677
  942TIP3    H2 2784   1.014   3.547   0.807
  943TIP3   OH2 2785   0.714   0.938   2.620
  943TIP3    H1 2786   0.794   0.984   2.644
  943TIP3    H2 2787   0.697   0.965   2.530
  944TIP3   OH2 2788   5.393   6.572   2.353
  944TIP3    H1 2789   5.447   6.507   2.308
  944TIP3    H2 2790   5.347   6.618   2.283
  945TIP3   OH2 2791   4.434   2.545   5.036
  945TIP3    H1 2792   4.498   2.520   4.970
  945TIP3    H2 2793   4.412   2.636   5.016
  946TIP3   OH2 2794   3.480   6.772   6.264
  946TIP3    H1 2795   3.418   6.730   6.206
  946TIP3    H2 2796   3.430   6.841   6.308
  947TIP3   OH2 2797   2.064   3.406  -0.021
  947TIP3    H1 2798   2.047   3.337  -0.086
  947TIP3    H2 2799   2.136   3.371   0.032
  948TIP3   OH2 2800   0.048   2.324   4.155
  948TIP3    H1 2801   0.019   2.356   4.241
  948TIP3    H2 2802  -0.015   2.363   4.093
  949TIP3   OH2 2803   5.344   6.849   1.450
  949TIP3    H1 2804   5.297   6.924   1.486
  949TIP3    H2 2805   5.279   6.801   1.399
  950TIP3   OH2 2806   1.218   3.901   5.896
  950TIP3    H1 2807   1.158   3.883   5.968
  950TIP3    H2 2808   1.240   3.814   5.861
  951TIP3   OH2 2809   1.102   5.220   1.119
  951TIP3    H1 2810   1.099   5.253   1.029
  951TIP3    H2 2811   1.187   5.250   1.152
  952TIP3   OH2 2812   5.938   7.762   5.948
  952TIP3    H1 2813   6.002   7.709   5.994
  952TIP3    H2 2814   5.982   7.845   5.931
  953TIP3   OH2 2815   0.084   5.313   0.394
  953TIP3    H1 2816   0.105   5.311   0.300
  953TIP3    H2 2817   0.149   5.256   0.434
  954TIP3   OH2 2818   3.450   3.727   6.235
  954TIP3    H1 2819   3.441   3.651   6.292
  954TIP3    H2 2820   3.406   3.701   6.154
  955TIP3   OH2 2821   6.307   2.064   4.784
  955TIP3    H1 2822   6.390   2.109   4.797
  955TIP3    H2 2823   6.245   2.112   4.839
  956TIP3   OH2 2824   8.141   0.349   0.149
  956TIP3    H1 2825   8.091   0.400   0.085
  956TIP3    H2 2826   8.168   0.413   0.215
  957TIP3   OH2 2827   6.399   3.493   0.570
  957TIP3    H1 2828   6.416   3.538   0.652
  957TIP3    H2 2829   6.473   3.434   0.559
  958TIP3   OH2 2830   3.134   0.980   0.224
  958TIP3    H1 2831   3.221   0.959   0.192
  958TIP3    H2 2832   3.125   0.932   0.306
  959TIP3   OH2 2833   3.033   7.542   6.386
  959TIP3    H1 2834   3.060   7.517   6.297
  959TIP3    H2 2835   2.994   7.463   6.423
  960TIP3   OH2 2836   5.870   4.098   6.419
  960TIP3    H1 2837   5.958   4.079   6.451
  960TIP3    H2 2838   5.872   4.076   6.326
  961TIP3   OH2 2839   7.013   0.782   1.107
  961TIP3    H1 2840   7.074   0.808   1.176
  961TIP3    H2 2841   7.065   0.726   1.049
  962TIP3   OH2 2842   3.576   2.492   6.246
  962TIP3    H1 2843   3.529   2.488   6.329
  962TIP3    H2 2844   3.663   2.523   6.269
  963TIP3   OH2 2845   2.370   4.075   3.420
  963TIP3    H1 2846   2.451   4.085   3.370
  963TIP3    H2 2847   2.332   4.163   3.422
  964TIP3   OH2 2848   4.955   3.860   1.945
  964TIP3    H1 2849   5.021   3.926   1.967
  964TIP3    H2 2850   4.964   3.849   1.850
  965TIP3   OH2 2851   3.907   3.829   5.784
  965TIP3    H1 2852   3.970   3.887   5.827
  965TIP3    H2 2853   3.837   3.817   5.848
  966TIP3   OH2 2854   4.501   0.976   3.510
  966TIP3    H1 2855   4.454   1.010   3.586
  966TIP3    H2 2856   4.553   0.904   3.543
  967TIP3   OH2 2857   8.119   5.934   5.923
  967TIP3    H1 2858   8.087   6.017   5.889
  967TIP3    H2 2859   8.058   5.869   5.888
  968TIP3   OH2 2860   4.344   7.670   0.797
  968TIP3    H1 2861   4.381   7.620   0.724
  968TIP3    H2 2862   4.255   7.692   0.767
  969TIP3   OH2 2863   3.608   5.632   5.954
  969TIP3    H1 2864   3.612   5.542   5.923
  969TIP3    H2 2865   3.618   5.685   5.875
  970TIP3   OH2 2866   6.312   5.941   4.970
  970TIP3    H1 2867   6.391   5.976   4.929
  970TIP3    H2 2868   6.246   6.010   4.959
  971TIP3   OH2 2869   0.127   7.281   1.695
  971TIP3    H1 2870   0.058   7.237   1.646
  971TIP3    H2 2871   0.093   7.369   1.711
  972TIP3   OH2 2872   3.592   7.356   0.586
  972TIP3    H1 2873   3.608   7.443   0.621
  972TIP3    H2 2874   3.545   7.372   0.504
  973TIP3   OH2 2875   1.670   5.543   0.343
  973TIP3    H1 2876   1.754   5.526   0.385
  973TIP3    H2 2877   1.675   5.497   0.259
  974TIP3   OH2 2878   7.373   4.578   0.826
  974TIP3    H1 2879   7.294   4.596   0.877
  974TIP3    H2 2880   7.423   4.516   0.880
  975TIP3   OH2 2881   7.134   2.065   0.206
  975TIP3    H1 2882   7.089   1.994   0.251
  975TIP3    H2 2883   7.094   2.068   0.120
  976TIP3   OH2 2884   5.310   6.113   6.040
  976TIP3    H1 2885   5.234   6.057   6.027
  976TIP3    H2 2886   5.303   6.142   6.131
  977TIP3   OH2 2887   2.227   6.367   2.696
  977TIP3    H1 2888   2.289   6.380   2.624
  977TIP3    H2 2889   2.209   6.456   2.728
  978TIP3   OH2 2890   5.822   0.644   4.056
  978TIP3    H1 2891   5.743   0.655   4.005
  978TIP3    H2 2892   5.844   0.732   4.087
  979TIP3   OH2 2893   6.672   0.138   5.586
  979TIP3    H1 2894   6.625   0.221   5.591
  979TIP3    H2 2895   6.669   0.115   5.493
  980TIP3   OH2 2896   6.073   0.993   4.787
  980TIP3    H1 2897   6.114   0.948   4.860
  980TIP3    H2 2898   6.007   0.932   4.755
  981TIP3   OH2 2899   7.176   2.620   5.218
  981TIP3    H1 2900   7.121   2.698   5.217
  981TIP3    H2 2901   7.132   2.559   5.158
  982TIP3   OH2 2902   3.272   0.657   1.267
  982TIP3    H1 2903   3.228   0.586   1.314
  982TIP3    H2 2904   3.332   0.696   1.331
  983TIP3   OH2 2905   2.104   2.323   0.896
  983TIP3    H1 2906   2.100   2.304   0.990
  983TIP3    H2 2907   2.196   2.316   0.873
  984TIP3   OH2 2908   3.941   5.971   5.489
  984TIP3    H1 2909   4.012   6.014   5.537
  984TIP3    H2 2910   3.950   6.003   5.400
  985TIP3   OH2 2911   5.139   5.336   0.148
  985TIP3    H1 2912   5.185   5.265   0.192
  985TIP3    H2 2913   5.114   5.396   0.218
  986TIP3   OH2 2914   0.572   0.109   1.010
  986TIP3    H1 2915   0.568   0.038   1.074
  986TIP3    H2 2916   0.599   0.068   0.929
  987TIP3   OH2 2917   6.558   4.390   5.861
  987TIP3    H1 2918   6.483   4.341   5.828
  987TIP3    H2 2919   6.529   4.481   5.861
  988TIP3   OH2 2920   6.316   4.288   1.113
  988TIP3    H1 2921   6.269   4.351   1.168
  988TIP3    H2 2922   6.261   4.277   1.036
  989TIP3   OH2 2923   1.538   2.571   1.911
  989TIP3    H1 2924   1.588   2.542   1.987
  989TIP3    H2 2925   1.450   2.591   1.945
  990TIP3   OH2 2926   1.198   4.563   3.876
  990TIP3    H1 2927   1.154   4.560   3.791
  990TIP3    H2 2928   1.236   4.651   3.880
  991TIP3   OH2 2929   7.930   0.846   1.192
  991TIP3    H1 2930   7.919   0.809   1.280
  991TIP3    H2 2931   8.016   0.814   1.163
  992TIP3   OH2 2932   1.413   6.414   1.156
  992TIP3    H1 2933   1.387   6.457   1.075
  992TIP3    H2 2934   1.489   6.465   1.186
  993TIP3   OH2 2935   3.558   1.263   5.314
  993TIP3    H1 2936   3.624   1.331   5.301
  993TIP3    H2 2937   3.608   1.183   5.324
  994TIP3   OH2 2938   3.513   0.719   5.681
  994TIP3    H1 2939   3.520   0.811   5.702
  994TIP3    H2 2940   3.456   0.683   5.749
  995TIP3   OH2 2941   5.446   4.888   2.031
  995TIP3    H1 2942   5.454   4.969   1.981
  995TIP3    H2 2943   5.455   4.818   1.967
  996TIP3   OH2 2944   4.990   4.392   4.643
  996TIP3    H1 2945   4.905   4.436   4.643
  996TIP3    H2 2946   5.053   4.461   4.622
  997TIP3   OH2 2947   2.140   7.598   3.153
  997TIP3    H1 2948   2.184   7.618   3.070
  997TIP3    H2 2949   2.052   7.634   3.143
  998TIP3   OH2 2950   6.251   6.499   4.476
  998TIP3    H1 2951   6.253   6.423   4.418
  998TIP3    H2 2952   6.159   6.528   4.475
  999TIP3   OH2 2953   5.098   2.692   3.067
  999TIP3    H1 2954   5.181   2.655   3.039
  999TIP3    H2 2955   5.043   2.692   2.989
 1000TIP3   OH2 2956   1.828   5.872   1.862
 1000TIP3    H1 2957   1.866   5.934   1.924
 1000TIP3    H2 2958   1.801   5.926   1.788
 1001TIP3   OH2 2959   4.885   7.542   1.153
 1001TIP3    H1 2960   4.814   7.530   1.090
 1001TIP3    H2 2961   4.845   7.523   1.238
 1002TIP3   OH2 2962   6.154   6.087   2.998
 1002TIP3    H1 2963   6.090   6.155   2.977
 1002TIP3    H2 2964   6.238   6.133   3.004
 1003TIP3   OH2 2965   8.008   0.201   5.924
 1003TIP3    H1 2966   7.937   0.161   5.874
 1003TIP3    H2 2967   8.055   0.254   5.860
 1004TIP3   OH2 2968   7.344   7.708   1.143
 1004TIP3    H1 2969   7.408   7.749   1.085
 1004TIP3    H2 2970   7.397   7.652   1.201
 1005TIP3   OH2 2971   1.590   7.466   0.207
 1005TIP3    H1 2972   1.649   7.391   0.215
 1005TIP3    H2 2973   1.507   7.436   0.244
 1006TIP3   OH2 2974   6.194   3.256   3.489
 1006TIP3    H1 2975   6.230   3.344   3.481
 1006TIP3    H2 2976   6.270   3.200   3.505
 1007TIP3   OH2 2977   7.662   7.623   3.818
 1007TIP3    H1 2978   7.735   7.577   3.860
 1007TIP3    H2 2979   7.585   7.570   3.840
 1008TIP3   OH2 2980   1.477   3.787   1.654
 1008TIP3    H1 2981   1.544   3.767   1.720
 1008TIP3    H2 2982   1.409   3.721   1.667
 1009TIP3   OH2 2983   7.140   1.898   0.835
 1009TIP3    H1 2984   7.105   1.885   0.923
 1009TIP3    H2 2985   7.234   1.914   0.849
 1010TIP3   OH2 2986   1.027   2.312   2.499
 1010TIP3    H1 2987   1.110   2.342   2.461
 1010TIP3    H2 2988   0.978   2.392   2.518
 1011TIP3   OH2 2989   7.743   1.687   2.452
 1011TIP3    H1 2990   7.683   1.731   2.512
 1011TIP3    H2 2991   7.791   1.759   2.410
 1012TIP3   OH2 2992   5.193   2.699   5.522
 1012TIP3    H1 2993   5.263   2.764   5.525
 1012TIP3    H2 2994   5.238   2.615   5.529
 1013TIP3   OH2 2995   4.789   5.845   1.892
 1013TIP3    H1 2996   4.755   5.902   1.823
 1013TIP3    H2 2997   4.881   5.832   1.868
 1014TIP3   OH2 2998   1.315   6.467   3.754
 1014TIP3    H1 2999   1.409   6.449   3.751
 1014TIP3    H2 3000   1.301   6.514   3.836
 1015TIP3   OH2 3001   7.020   6.648   6.015
 1015TIP3    H1 3002   6.973   6.624   5.936
 1015TIP3    H2 3003   7.110   6.662   5.987
 1016TIP3   OH2 3004   0.928   7.015   0.243
 1016TIP3    H1 3005   0.934   6.964   0.324
 1016TIP3    H2 3006   0.953   6.954   0.174
 1017TIP3   OH2 3007   3.882   4.968   1.083
 1017TIP3    H1 3008   3.974   4.977   1.058
 1017TIP3    H2 3009   3.859   4.879   1.057
 1018TIP3   OH2 3010   2.433   2.423   5.705
 1018TIP3    H1 3011   2.437   2.454   5.795
 1018TIP3    H2 3012   2.440   2.328   5.711
 1019TIP3   OH2 3013   7.655   1.387   3.398
 1019TIP3    H1 3014   7.623   1.426   3.479
 1019TIP3    H2 3015   7.691   1.302   3.425
 1020TIP3   OH2 3016   3.082   2.462   4.235
 1020TIP3    H1 3017   3.157   2.406   4.213
 1020TIP3    H2 3018   3.110   2.550   4.210
 1021TIP3   OH2 3019   2.532   5.081   1.048
 1021TIP3    H1 3020   2.568   5.094   1.136
 1021TIP3    H2 3021   2.607   5.053   0.995
 1022TIP3   OH2 3022   4.601   2.920   4.472
 1022TIP3    H1 3023   4.638   2.890   4.555
 1022TIP3    H2 3024   4.515   2.956   4.495
 1023TIP3   OH2 3025   3.155   2.235   2.893
 1023TIP3    H1 3026   3.078   2.190   2.860
 1023TIP3    H2 3027   3.155   2.217   2.987
 1024TIP3   OH2 3028   3.541   5.390   1.272
 1024TIP3    H1 3029   3.475   5.391   1.342
 1024TIP3    H2 3030   3.496   5.429   1.197
 1025TIP3   OH2 3031   2.551   6.973   3.966
 1025TIP3    H1 3032   2.575   6.909   3.898
 1025TIP3    H2 3033   2.528   6.920   4.042
 1026TIP3   OH2 3034   7.500   1.264   2.496
 1026TIP3    H1 3035   7.577   1.310   2.527
 1026TIP3    H2 3036   7.426   1.319   2.523
 1027TIP3   OH2 3037   2.707   6.236   4.782
 1027TIP3    H1 3038   2.768   6.234   4.856
 1027TIP3    H2 3039   2.763   6.232   4.705
 1028TIP3   OH2 3040   6.061   4.551   2.591
 1028TIP3    H1 3041   5.974   4.590   2.599
 1028TIP3    H2 3042   6.119   4.616   2.630
 1029TIP3   OH2 3043   4.665   5.186   1.296
 1029TIP3    H1 3044   4.688   5.169   1.205
 1029TIP3    H2 3045   4.733   5.141   1.347
 1030TIP3   OH2 3046   3.849   6.204   4.547
 1030TIP3    H1 3047   3.879   6.295   4.546
 1030TIP3    H2 3048   3.849   6.177   4.455
 1031TIP3   OH2 3049   6.402   0.238   0.076
 1031TIP3    H1 3050   6.410   0.263  -0.016
 1031TIP3    H2 3051   6.490   0.206   0.099
 1032TIP3   OH2 3052   4.193   0.004   1.270
 1032TIP3    H1 3053   4.202  -0.010   1.364
 1032TIP3    H2 3054   4.195  -0.083   1.232
 1033TIP3   OH2 3055   6.617   6.494   6.535
 1033TIP3    H1 3056   6.582   6.420   6.487
 1033TIP3    H2 3057   6.712   6.481   6.534
 1034TIP3   OH2 3058   5.582   5.004   4.898
 1034TIP3    H1 3059   5.644   4.969   4.962
 1034TIP3    H2 3060   5.615   4.971   4.814
 1035TIP3   OH2 3061   4.425   3.215   5.438
 1035TIP3    H1 3062   4.339   3.189   5.407
 1035TIP3    H2 3063   4.414   3.306   5.466
 1036TIP3   OH2 3064   8.162   0.719   4.788
 1036TIP3    H1 3065   8.253   0.693   4.772
 1036TIP3    H2 3066   8.146   0.788   4.723
 1037TIP3   OH2 3067   8.218   5.687   2.642
 1037TIP3    H1 3068   8.289   5.744   2.673
 1037TIP3    H2 3069   8.138   5.732   2.668
 1038TIP3   OH2 3070   0.818   5.179   6.071
 1038TIP3    H1 3071   0.782   5.112   6.014
 1038TIP3    H2 3072   0.909   5.154   6.085
 1039TIP3   OH2 3073   2.119   7.710   2.594
 1039TIP3    H1 3074   2.034   7.753   2.584
 1039TIP3    H2 3075   2.106   7.645   2.662
 1040TIP3   OH2 3076   5.393   0.064   2.301
 1040TIP3    H1 3077   5.323   0.012   2.339
 1040TIP3    H2 3078   5.471   0.008   2.308
 1041TIP3   OH2 3079   3.279   4.439   3.705
 1041TIP3    H1 3080   3.338   4.486   3.648
 1041TIP3    H2 3081   3.304   4.466   3.794
 1042TIP3   OH2 3082   3.683   5.003   6.045
 1042TIP3    H1 3083   3.596   4.974   6.019
 1042TIP3    H2 3084   3.670   5.048   6.128
 1043TIP3   OH2 3085   1.383   4.687   4.132
 1043TIP3    H1 3086   1.392   4.719   4.223
 1043TIP3    H2 3087   1.298   4.645   4.130
 1044TIP3   OH2 3088   2.413   5.720   1.812
 1044TIP3    H1 3089   2.459   5.683   1.737
 1044TIP3    H2 3090   2.448   5.809   1.820
 1045TIP3   OH2 3091   8.019   7.138   3.818
 1045TIP3    H1 3092   8.036   7.183   3.735
 1045TIP3    H2 3093   8.049   7.200   3.884
 1046TIP3   OH2 3094   2.400   4.195   4.515
 1046TIP3    H1 3095   2.334   4.127   4.526
 1046TIP3    H2 3096   2.385   4.255   4.588
 1047TIP3   OH2 3097   0.910   4.741   1.428
 1047TIP3    H1 3098   0.945   4.705   1.347
 1047TIP3    H2 3099   0.932   4.676   1.495
 1048TIP3   OH2 3100   4.003   6.968   3.487
 1048TIP3    H1 3101   3.960   7.009   3.562
 1048TIP3    H2 3102   4.096   6.965   3.511
 1049TIP3   OH2 3103   0.482   6.572   0.916
 1049TIP3    H1 3104   0.489   6.648   0.858
 1049TIP3    H2 3105   0.388   6.556   0.923
 1050TIP3   OH2 3106   3.360   3.622   5.728
 1050TIP3    H1 3107   3.400   3.708   5.740
 1050TIP3    H2 3108   3.431   3.560   5.746
 1051TIP3   OH2 3109   8.062   0.829   3.090
 1051TIP3    H1 3110   8.139   0.880   3.116
 1051TIP3    H2 3111   8.024   0.800   3.173
 1052TIP3   OH2 3112   2.099   7.518   2.771
 1052TIP3    H1 3113   2.034   7.448   2.773
 1052TIP3    H2 3114   2.183   7.474   2.780
 1053TIP3   OH2 3115   3.493   3.855   3.056
 1053TIP3    H1 3116   3.487   3.760   3.046
 1053TIP3    H2 3117   3.404   3.882   3.077
 1054TIP3   OH2 3118   4.116   4.695   4.698
 1054TIP3    H1 3119   4.026   4.726   4.687
 1054TIP3    H2 3120   4.169   4.760   4.653
 1055TIP3   OH2 3121   1.198   0.230   1.764
 1055TIP3    H1 3122   1.214   0.323   1.749
 1055TIP3    H2 3123   1.246   0.210   1.845
 1056TIP3   OH2 3124   1.438   6.295   1.910
 1056TIP3    H1 3125   1.515   6.259   1.866
 1056TIP3    H2 3126   1.368   6.289   1.844
 1057TIP3   OH2 3127   0.978   0.913   0.740
 1057TIP3    H1 3128   0.999   0.821   0.752
 1057TIP3    H2 3129   1.042   0.959   0.796
 1058TIP3   OH2 3130   4.124   6.235   5.244
 1058TIP3    H1 3131   4.138   6.141   5.250
 1058TIP3    H2 3132   4.210   6.271   5.222
 1059TIP3   OH2 3133   6.447   1.320   0.538
 1059TIP3    H1 3134   6.379   1.352   0.479
 1059TIP3    H2 3135   6.467   1.395   0.594
 1060TIP3   OH2 3136   0.934   0.766  -0.030
 1060TIP3    H1 3137   0.985   0.821   0.029
 1060TIP3    H2 3138   0.845   0.766   0.005
 1061TIP3   OH2 3139   1.158   5.096   1.833
 1061TIP3    H1 3140   1.108   5.015   1.831
 1061TIP3    H2 3141   1.196   5.104   1.746
 1062TIP3   OH2 3142   0.313   3.398   0.216
 1062TIP3    H1 3143   0.258   3.359   0.284
 1062TIP3    H2 3144   0.367   3.462   0.263
 1063TIP3   OH2 3145   6.514   3.851   2.115
 1063TIP3    H1 3146   6.487   3.785   2.179
 1063TIP3    H2 3147   6.461   3.928   2.136
 1064TIP3   OH2 3148   8.166   2.853   5.563
 1064TIP3    H1 3149   8.195   2.936   5.601
 1064TIP3    H2 3150   8.075   2.844   5.592
 1065TIP3   OH2 3151   1.553   0.376   1.793
 1065TIP3    H1 3152   1.623   0.434   1.826
 1065TIP3    H2 3153   1.474   0.407   1.838
 1066TIP3   OH2 3154   6.092   7.573   6.069
 1066TIP3    H1 3155   6.179   7.614   6.074
 1066TIP3    H2 3156   6.100   7.494   6.123
 1067TIP3   OH2 3157   1.661   5.794   0.108
 1067TIP3    H1 3158   1.707   5.770   0.188
 1067TIP3    H2 3159   1.569   5.775   0.127
 1068TIP3   OH2 3160   3.525   4.246   1.545
 1068TIP3    H1 3161   3.577   4.206   1.475
 1068TIP3    H2 3162   3.477   4.317   1.502
 1069TIP3   OH2 3163   5.277   5.772   3.334
 1069TIP3    H1 3164   5.219   5.807   3.267
 1069TIP3    H2 3165   5.261   5.828   3.411
 1070TIP3   OH2 3166   7.825   0.726   2.579
 1070TIP3    H1 3167   7.746   0.779   2.567
 1070TIP3    H2 3168   7.819   0.659   2.512
 1071TIP3   OH2 3169   5.010   4.402   4.927
 1071TIP3    H1 3170   4.941   4.468   4.925
 1071TIP3    H2 3171   5.044   4.401   4.837
 1072TIP3   OH2 3172   3.267   3.457   6.402
 1072TIP3    H1 3173   3.359   3.462   6.426
 1072TIP3    H2 3174   3.225   3.410   6.475
 1073TIP3   OH2 3175   3.373   5.566   0.898
 1073TIP3    H1 3176   3.295   5.621   0.902
 1073TIP3    H2 3177   3.431   5.612   0.838
 1074TIP3   OH2 3178   4.154   2.933   5.360
 1074TIP3    H1 3179   4.247   2.950   5.349
 1074TIP3    H2 3180   4.111   3.015   5.337
 1075TIP3   OH2 3181   8.038   0.953   6.145
 1075TIP3    H1 3182   8.055   0.894   6.071
 1075TIP3    H2 3183   8.087   1.033   6.123
 1076TIP3   OH2 3184   2.002   0.687   0.459
 1076TIP3    H1 3185   1.977   0.697   0.550
 1076TIP3    H2 3186   1.925   0.647   0.417
 1077TIP3   OH2 3187   6.707   2.040   1.272
 1077TIP3    H1 3188   6.633   2.024   1.215
 1077TIP3    H2 3189   6.675   2.018   1.360
 1078TIP3   OH2 3190   4.264   0.939   4.108
 1078TIP3    H1 3191   4.181   0.987   4.109
 1078TIP3    H2 3192   4.326   0.999   4.066
 1079TIP3   OH2 3193   6.352   4.148   3.509
 1079TIP3    H1 3194   6.435   4.100   3.508
 1079TIP3    H2 3195   6.377   4.240   3.507
 1080TIP3   OH2 3196   3.885   1.441   2.138
 1080TIP3    H1 3197   3.861   1.405   2.223
 1080TIP3    H2 3198   3.928   1.524   2.159
 1081TIP3   OH2 3199   0.775   0.266   2.329
 1081TIP3    H1 3200   0.777   0.171   2.340
 1081TIP3    H2 3201   0.864   0.295   2.350
 1082TIP3   OH2 3202   6.230   7.035   0.216
 1082TIP3    H1 3203   6.317   7.008   0.244
 1082TIP3    H2 3204   6.221   7.125   0.249
 1083TIP3   OH2 3205   7.478   5.528   2.710
 1083TIP3    H1 3206   7.488   5.436   2.735
 1083TIP3    H2 3207   7.400   5.557   2.757
 1084TIP3   OH2 3208   0.798   1.704   1.951
 1084TIP3    H1 3209   0.892   1.697   1.969
 1084TIP3    H2 3210   0.782   1.638   1.884
 1085TIP3   OH2 3211   1.662   2.508   3.843
 1085TIP3    H1 3212   1.581   2.492   3.892
 1085TIP3    H2 3213   1.710   2.572   3.896
 1086TIP3   OH2 3214   5.138   5.239   5.721
 1086TIP3    H1 3215   5.184   5.322   5.707
 1086TIP3    H2 3216   5.060   5.264   5.771
 1087TIP3   OH2 3217   0.578   5.877   4.718
 1087TIP3    H1 3218   0.531   5.954   4.750
 1087TIP3    H2 3219   0.508   5.816   4.692
 1088TIP3   OH2 3220   3.885   3.095   3.417
 1088TIP3    H1 3221   3.843   3.177   3.442
 1088TIP3    H2 3222   3.847   3.029   3.474
 1089TIP3   OH2 3223   4.444   5.934   6.510
 1089TIP3    H1 3224   4.356   5.972   6.506
 1089TIP3    H2 3225   4.441   5.873   6.583
 1090TIP3   OH2 3226   6.814   6.353   3.299
 1090TIP3    H1 3227   6.766   6.420   3.250
 1090TIP3    H2 3228   6.846   6.399   3.377
 1091TIP3   OH2 3229   8.067   7.707   2.353
 1091TIP3    H1 3230   8.051   7.689   2.260
 1091TIP3    H2 3231   8.081   7.802   2.357
 1092TIP3   OH2 3232   6.667   2.760   4.252
 1092TIP3    H1 3233   6.662   2.666   4.272
 1092TIP3    H2 3234   6.754   2.773   4.217
 1093TIP3   OH2 3235   6.723   5.179   5.585
 1093TIP3    H1 3236   6.798   5.210   5.635
 1093TIP3    H2 3237   6.720   5.085   5.601
 1094TIP3   OH2 3238   5.483   6.432   4.122
 1094TIP3    H1 3239   5.479   6.342   4.153
 1094TIP3    H2 3240   5.499   6.484   4.202
 1095TIP3   OH2 3241   0.162   5.667   0.849
 1095TIP3    H1 3242   0.076   5.697   0.878
 1095TIP3    H2 3243   0.148   5.637   0.759
 1096TIP3   OH2 3244   3.526   5.729   2.646
 1096TIP3    H1 3245   3.501   5.805   2.593
 1096TIP3    H2 3246   3.494   5.654   2.596
 1097TIP3   OH2 3247   2.088   5.948   3.199
 1097TIP3    H1 3248   2.019   5.982   3.141
 1097TIP3    H2 3249   2.165   6.002   3.179
 1098TIP3   OH2 3250   8.277   1.864   2.917
 1098TIP3    H1 3251   8.257   1.957   2.908
 1098TIP3    H2 3252   8.347   1.848   2.853
 1099TIP3   OH2 3253   0.529   1.068   2.090
 1099TIP3    H1 3254   0.493   1.101   2.172
 1099TIP3    H2 3255   0.453   1.058   2.033
 1100TIP3   OH2 3256   3.776   2.986   0.068
 1100TIP3    H1 3257   3.713   2.951   0.131
 1100TIP3    H2 3258   3.813   2.908   0.026
 1101TIP3   OH2 3259   3.729   5.325   3.850
 1101TIP3    H1 3260   3.787   5.353   3.921
 1101TIP3    H2 3261   3.771   5.359   3.771
 1102TIP3   OH2 3262   1.202   0.537   4.783
 1102TIP3    H1 3263   1.233   0.556   4.872
 1102TIP3    H2 3264   1.238   0.451   4.762
 1103TIP3   OH2 3265   5.916   1.964   2.525
 1103TIP3    H1 3266   5.927   1.931   2.614
 1103TIP3    H2 3267   5.948   1.893   2.469
 1104TIP3   OH2 3268   4.584   5.625   1.981
 1104TIP3    H1 3269   4.501   5.654   1.944
 1104TIP3    H2 3270   4.624   5.705   2.016
 1105TIP3   OH2 3271   7.500   1.324   4.681
 1105TIP3    H1 3272   7.542   1.400   4.641
 1105TIP3    H2 3273   7.573   1.271   4.714
 1106TIP3   OH2 3274   8.001   4.674   4.723
 1106TIP3    H1 3275   8.015   4.750   4.779
 1106TIP3    H2 3276   8.083   4.626   4.726
 1107TIP3   OH2 3277   3.965   4.227   5.706
 1107TIP3    H1 3278   3.876   4.214   5.672
 1107TIP3    H2 3279   4.018   4.246   5.629
 1108TIP3   OH2 3280   4.862   5.820   0.664
 1108TIP3    H1 3281   4.863   5.826   0.759
 1108TIP3    H2 3282   4.928   5.883   0.635
 1109TIP3   OH2 3283   0.022   1.108   0.418
 1109TIP3    H1 3284   0.065   1.190   0.396
 1109TIP3    H2 3285   0.068   1.077   0.496
 1110TIP3   OH2 3286   2.447   5.844   5.370
 1110TIP3    H1 3287   2.495   5.823   5.450
 1110TIP3    H2 3288   2.436   5.939   5.373
 1111TIP3   OH2 3289   6.810   5.661   2.448
 1111TIP3    H1 3290   6.730   5.656   2.500
 1111TIP3    H2 3291   6.880   5.640   2.511
 1112TIP3   OH2 3292   7.122   7.442   6.223
 1112TIP3    H1 3293   7.210   7.416   6.194
 1112TIP3    H2 3294   7.121   7.538   6.213
 1113TIP3   OH2 3295   4.510   3.469   0.028
 1113TIP3    H1 3296   4.488   3.435  -0.059
 1113TIP3    H2 3297   4.430   3.458   0.079
 1114TIP3   OH2 3298   7.770   2.089   3.616
 1114TIP3    H1 3299   7.775   2.176   3.576
 1114TIP3    H2 3300   7.797   2.030   3.546
 1115TIP3   OH2 3301   4.088   1.459   0.484
 1115TIP3    H1 3302   4.113   1.371   0.514
 1115TIP3    H2 3303   4.027   1.443   0.412
 1116TIP3   OH2 3304   0.551   3.396   1.627
 1116TIP3    H1 3305   0.621   3.390   1.692
 1116TIP3    H2 3306   0.595   3.397   1.543
 1117TIP3   OH2 3307   4.622   0.352   0.718
 1117TIP3    H1 3308   4.554   0.373   0.654
 1117TIP3    H2 3309   4.577   0.301   0.785
 1118TIP3   OH2 3310   5.879   1.753   5.018
 1118TIP3    H1 3311   5.797   1.732   5.062
 1118TIP3    H2 3312   5.934   1.676   5.030
 1119TIP3   OH2 3313   5.246   2.139   2.414
 1119TIP3    H1 3314   5.172   2.162   2.471
 1119TIP3    H2 3315   5.215   2.157   2.326
 1120TIP3   OH2 3316   4.292   2.898   6.066
 1120TIP3    H1 3317   4.305   2.962   6.136
 1120TIP3    H2 3318   4.271   2.816   6.112
 1121TIP3   OH2 3319   5.960   6.211   6.577
 1121TIP3    H1 3320   5.939   6.126   6.615
 1121TIP3    H2 3321   5.933   6.204   6.485
 1122TIP3   OH2 3322   1.582   5.208   3.478
 1122TIP3    H1 3323   1.590   5.303   3.468
 1122TIP3    H2 3324   1.524   5.197   3.554
 1123TIP3   OH2 3325   6.947   2.465   4.027
 1123TIP3    H1 3326   6.859   2.477   3.991
 1123TIP3    H2 3327   6.934   2.411   4.105
 1124TIP3   OH2 3328   2.098   2.902   2.854
 1124TIP3    H1 3329   2.114   2.876   2.764
 1124TIP3    H2 3330   2.013   2.947   2.852
 1125TIP3   OH2 3331   4.079   5.297   0.353
 1125TIP3    H1 3332   4.038   5.341   0.279
 1125TIP3    H2 3333   4.070   5.204   0.333
 1126TIP3   OH2 3334   2.335   3.184   3.071
 1126TIP3    H1 3335   2.354   3.143   3.155
 1126TIP3    H2 3336   2.364   3.121   3.006
 1127TIP3   OH2 3337   2.432   0.324   2.159
 1127TIP3    H1 3338   2.464   0.342   2.247
 1127TIP3    H2 3339   2.364   0.258   2.171
 1128TIP3   OH2 3340   1.480   6.237   0.366
 1128TIP3    H1 3341   1.533   6.297   0.418
 1128TIP3    H2 3342   1.407   6.214   0.424
 1129TIP3   OH2 3343   5.956   0.883   3.312
 1129TIP3    H1 3344   5.974   0.904   3.403
 1129TIP3    H2 3345   5.860   0.879   3.307
 1130TIP3   OH2 3346   4.877   2.234   0.330
 1130TIP3    H1 3347   4.914   2.281   0.405
 1130TIP3    H2 3348   4.921   2.149   0.332
 1131TIP3   OH2 3349   3.822   1.842   0.371
 1131TIP3    H1 3350   3.843   1.795   0.290
 1131TIP3    H2 3351   3.831   1.935   0.348
 1132TIP3   OH2 3352   1.946   1.241   5.829
 1132TIP3    H1 3353   1.986   1.175   5.886
 1132TIP3    H2 3354   1.877   1.193   5.782
 1133TIP3   OH2 3355   6.988   0.355   3.069
 1133TIP3    H1 3356   7.023   0.306   3.143
 1133TIP3    H2 3357   6.919   0.299   3.033
 1134TIP3   OH2 3358   6.225   2.259   3.189
 1134TIP3    H1 3359   6.261   2.274   3.102
 1134TIP3    H2 3360   6.195   2.168   3.188
 1135TIP3   OH2 3361   6.950   1.743   6.674
 1135TIP3    H1 3362   6.870   1.760   6.624
 1135TIP3    H2 3363   6.925   1.675   6.737
 1136TIP3   OH2 3364   6.779   1.616   0.242
 1136TIP3    H1 3365   6.862   1.649   0.208
 1136TIP3    H2 3366   6.730   1.590   0.164
 1137TIP3   OH2 3367   4.544   2.230   5.385
 1137TIP3    H1 3368   4.497   2.197   5.308
 1137TIP3    H2 3369   4.502   2.313   5.405
 1138TIP3   OH2 3370   7.032   0.322   4.528
 1138TIP3    H1 3371   6.957   0.357   4.575
 1138TIP3    H2 3372   6.995   0.260   4.465
 1139TIP3   OH2 3373   3.158   5.389   5.136
 1139TIP3    H1 3374   3.161   5.294   5.126
 1139TIP3    H2 3375   3.248   5.418   5.122
 1140TIP3   OH2 3376   7.136   2.862   4.978
 1140TIP3    H1 3377   7.197   2.789   4.970
 1140TIP3    H2 3378   7.075   2.851   4.905
 1141TIP3   OH2 3379   5.100   6.950   2.828
 1141TIP3    H1 3380   5.175   7.008   2.840
 1141TIP3    H2 3381   5.057   6.947   2.914
 1142TIP3   OH2 3382   8.234   7.190   3.184
 1142TIP3    H1 3383   8.263   7.100   3.168
 1142TIP3    H2 3384   8.255   7.237   3.104
 1143TIP3   OH2 3385   2.949   7.335   0.802
 1143TIP3    H1 3386   2.885   7.380   0.857
 1143TIP3    H2 3387   2.971   7.399   0.734
 1144TIP3   OH2 3388   0.029   4.106   2.095
 1144TIP3    H1 3389  -0.042   4.110   2.159
 1144TIP3    H2 3390   0.077   4.027   2.117
 1145TIP3   OH2 3391   3.201   1.150   1.381
 1145TIP3    H1 3392   3.264   1.126   1.312
 1145TIP3    H2 3393   3.122   1.175   1.334
 1146TIP3   OH2 3394   1.486   2.898   1.050
 1146TIP3    H1 3395   1.409   2.883   1.105
 1146TIP3    H2 3396   1.478   2.990   1.022
 1147TIP3   OH2 3397   4.611   0.850   4.032
 1147TIP3    H1 3398   4.556   0.797   3.975
 1147TIP3    H2 3399   4.555   0.871   4.107
 1148TIP3   OH2 3400   2.895   1.064   1.121
 1148TIP3    H1 3401   2.971   1.009   1.141
 1148TIP3    H2 3402   2.902   1.137   1.183
 1149TIP3   OH2 3403   3.182   3.518   4.583
 1149TIP3    H1 3404   3.237   3.580   4.631
 1149TIP3    H2 3405   3.128   3.573   4.526
 1150TIP3   OH2 3406   1.305   7.686   1.823
 1150TIP3    H1 3407   1.273   7.608   1.870
 1150TIP3    H2 3408   1.379   7.717   1.875
 1151TIP3   OH2 3409   0.745   0.502   2.694
 1151TIP3    H1 3410   0.667   0.520   2.747
 1151TIP3    H2 3411   0.818   0.533   2.747
 1152TIP3   OH2 3412   2.999   6.235   2.760
 1152TIP3    H1 3413   3.053   6.199   2.689
 1152TIP3    H2 3414   3.047   6.312   2.790
 1153TIP3   OH2 3415   0.717   5.952   2.838
 1153TIP3    H1 3416   0.656   6.024   2.820
 1153TIP3    H2 3417   0.731   5.957   2.933
 1154TIP3   OH2 3418   7.436   4.875   3.380
 1154TIP3    H1 3419   7.506   4.933   3.411
 1154TIP3    H2 3420   7.367   4.934   3.351
 1155TIP3   OH2 3421   2.817   2.021   4.625
 1155TIP3    H1 3422   2.759   1.956   4.666
 1155TIP3    H2 3423   2.866   2.059   4.697
 1156TIP3   OH2 3424   1.869   6.124   6.621
 1156TIP3    H1 3425   1.807   6.112   6.550
 1156TIP3    H2 3426   1.843   6.059   6.687
 1157TIP3   OH2 3427   6.544   2.370   3.926
 1157TIP3    H1 3428   6.546   2.288   3.975
 1157TIP3    H2 3429   6.571   2.345   3.837
 1158TIP3   OH2 3430   3.098   0.197   3.171
 1158TIP3    H1 3431   3.016   0.148   3.181
 1158TIP3    H2 3432   3.167   0.131   3.183
 1159TIP3   OH2 3433   8.136   5.935   0.776
 1159TIP3    H1 3434   8.119   6.022   0.813
 1159TIP3    H2 3435   8.200   5.950   0.707
 1160TIP3   OH2 3436   5.201   2.619   2.757
 1160TIP3    H1 3437   5.219   2.713   2.761
 1160TIP3    H2 3438   5.248   2.583   2.832
 1161TIP3   OH2 3439   1.704   0.930   3.207
 1161TIP3    H1 3440   1.725   0.852   3.156
 1161TIP3    H2 3441   1.784   0.984   3.202
 1162TIP3   OH2 3442   4.384   0.401   6.758
 1162TIP3    H1 3443   4.442   0.468   6.795
 1162TIP3    H2 3444   4.441   0.327   6.740
 1163TIP3   OH2 3445   8.195   3.042   5.816
 1163TIP3    H1 3446   8.182   2.958   5.860
 1163TIP3    H2 3447   8.137   3.102   5.862
 1164TIP3   OH2 3448   5.412   5.516   2.490
 1164TIP3    H1 3449   5.483   5.576   2.511
 1164TIP3    H2 3450   5.454   5.431   2.479
 1165TIP3   OH2 3451   4.002   2.144   3.353
 1165TIP3    H1 3452   3.963   2.223   3.392
 1165TIP3    H2 3453   3.959   2.072   3.399
 1166TIP3   OH2 3454   4.041   5.851   1.899
 1166TIP3    H1 3455   3.997   5.885   1.822
 1166TIP3    H2 3456   4.076   5.766   1.871
 1167TIP3   OH2 3457   4.799   1.838   2.769
 1167TIP3    H1 3458   4.793   1.877   2.856
 1167TIP3    H2 3459   4.889   1.805   2.764
 1168TIP3   OH2 3460   2.754   1.350   1.557
 1168TIP3    H1 3461   2.707   1.431   1.576
 1168TIP3    H2 3462   2.688   1.291   1.522
 1169TIP3   OH2 3463   7.181   6.117   5.481
 1169TIP3    H1 3464   7.242   6.188   5.498
 1169TIP3    H2 3465   7.124   6.151   5.411
 1170TIP3   OH2 3466   7.524   0.307   5.686
 1170TIP3    H1 3467   7.509   0.216   5.713
 1170TIP3    H2 3468   7.499   0.309   5.593
 1171TIP3   OH2 3469   6.665   7.363   3.321
 1171TIP3    H1 3470   6.571   7.353   3.308
 1171TIP3    H2 3471   6.696   7.275   3.341
 1172TIP3   OH2 3472   8.081   2.455   6.677
 1172TIP3    H1 3473   8.144   2.491   6.614
 1172TIP3    H2 3474   8.112   2.486   6.762
 1173TIP3   OH2 3475   0.615   2.806   2.139
 1173TIP3    H1 3476   0.685   2.792   2.203
 1173TIP3    H2 3477   0.535   2.782   2.185
 1174TIP3   OH2 3478   6.574   5.415   3.462
 1174TIP3    H1 3479   6.597   5.505   3.440
 1174TIP3    H2 3480   6.527   5.383   3.385
 1175TIP3   OH2 3481   2.570   2.629   2.172
 1175TIP3    H1 3482   2.547   2.605   2.262
 1175TIP3    H2 3483   2.582   2.724   2.175
 1176TIP3   OH2 3484   7.134   0.487   5.058
 1176TIP3    H1 3485   7.168   0.533   5.134
 1176TIP3    H2 3486   7.162   0.541   4.983
 1177TIP3   OH2 3487   2.174   2.952   0.332
 1177TIP3    H1 3488   2.166   2.901   0.251
 1177TIP3    H2 3489   2.182   2.886   0.401
 1178TIP3   OH2 3490   6.941   4.322   6.411
 1178TIP3    H1 3491   6.958   4.256   6.344
 1178TIP3    H2 3492   6.894   4.276   6.479
 1179TIP3   OH2 3493   7.354   3.688   2.502
 1179TIP3    H1 3494   7.300   3.618   2.538
 1179TIP3    H2 3495   7.326   3.696   2.411
 1180TIP3   OH2 3496   3.405   2.973   5.341
 1180TIP3    H1 3497   3.344   2.940   5.274
 1180TIP3    H2 3498   3.445   2.895   5.377
 1181TIP3   OH2 3499   6.729   6.673   5.460
 1181TIP3    H1 3500   6.755   6.704   5.373
 1181TIP3    H2 3501   6.644   6.632   5.447
 1182TIP3   OH2 3502   2.137   6.990   3.129
 1182TIP3    H1 3503   2.088   7.061   3.169
 1182TIP3    H2 3504   2.204   7.033   3.076
 1183TIP3   OH2 3505   0.781   3.936   0.839
 1183TIP3    H1 3506   0.732   3.930   0.921
 1183TIP3    H2 3507   0.716   3.961   0.773
 1184TIP3   OH2 3508   2.132   0.763   5.482
 1184TIP3    H1 3509   2.163   0.823   5.550
 1184TIP3    H2 3510   2.139   0.676   5.521
 1185TIP3   OH2 3511   0.687   2.978   1.148
 1185TIP3    H1 3512   0.632   2.956   1.072
 1185TIP3    H2 3513   0.670   3.071   1.163
 1186TIP3   OH2 3514   5.323   0.398   4.127
 1186TIP3    H1 3515   5.353   0.390   4.037
 1186TIP3    H2 3516   5.360   0.480   4.158
 1187TIP3   OH2 3517   2.957   2.011   2.497
 1187TIP3    H1 3518   2.976   1.930   2.543
 1187TIP3    H2 3519   2.892   1.987   2.431
 1188TIP3   OH2 3520   1.753   2.067   2.516
 1188TIP3    H1 3521   1.713   1.993   2.471
 1188TIP3    H2 3522   1.681   2.106   2.566
 1189TIP3   OH2 3523   0.146   5.295   0.132
 1189TIP3    H1 3524   0.161   5.213   0.086
 1189TIP3    H2 3525   0.228   5.343   0.121
 1190TIP3   OH2 3526   0.520   3.083   5.408
 1190TIP3    H1 3527   0.497   3.040   5.325
 1190TIP3    H2 3528   0.439   3.124   5.437
 1191TIP3   OH2 3529   4.929   5.431   6.527
 1191TIP3    H1 3530   5.001   5.391   6.576
 1191TIP3    H2 3531   4.866   5.360   6.514
 1192TIP3   OH2 3532   2.800   5.044   1.994
 1192TIP3    H1 3533   2.718   5.093   2.003
 1192TIP3    H2 3534   2.817   5.010   2.082
 1193TIP3   OH2 3535   7.558   4.143   4.090
 1193TIP3    H1 3536   7.558   4.214   4.154
 1193TIP3    H2 3537   7.534   4.184   4.007
 1194TIP3   OH2 3538   3.043   2.568   6.421
 1194TIP3    H1 3539   3.070   2.511   6.350
 1194TIP3    H2 3540   3.115   2.565   6.484
 1195TIP3   OH2 3541   8.138   0.407   4.550
 1195TIP3    H1 3542   8.072   0.462   4.593
 1195TIP3    H2 3543   8.200   0.469   4.513
 1196TIP3   OH2 3544   4.227   0.294   0.727
 1196TIP3    H1 3545   4.286   0.338   0.788
 1196TIP3    H2 3546   4.141   0.330   0.747
 1197TIP3   OH2 3547   3.129   7.349   3.297
 1197TIP3    H1 3548   3.171   7.432   3.274
 1197TIP3    H2 3549   3.085   7.321   3.216
 1198TIP3   OH2 3550   2.412   2.437   4.492
 1198TIP3    H1 3551   2.433   2.456   4.400
 1198TIP3    H2 3552   2.414   2.342   4.498
 1199TIP3   OH2 3553   1.121   6.757   2.406
 1199TIP3    H1 3554   1.038   6.736   2.449
 1199TIP3    H2 3555   1.162   6.672   2.392
 1200TIP3   OH2 3556   1.683   3.315   6.762
 1200TIP3    H1 3557   1.727   3.384   6.713
 1200TIP3    H2 3558   1.598   3.352   6.785
 1201TIP3   OH2 3559   7.588   5.316   1.150
 1201TIP3    H1 3560   7.504   5.309   1.194
 1201TIP3    H2 3561   7.582   5.395   1.097
 1202TIP3   OH2 3562   2.597   3.133   5.321
 1202TIP3    H1 3563   2.547   3.089   5.252
 1202TIP3    H2 3564   2.667   3.072   5.342
 1203TIP3   OH2 3565   0.588   4.443   4.065
 1203TIP3    H1 3566   0.562   4.352   4.049
 1203TIP3    H2 3567   0.512   4.482   4.109
 1204TIP3   OH2 3568   3.686   4.020   0.377
 1204TIP3    H1 3569   3.757   3.966   0.341
 1204TIP3    H2 3570   3.626   3.957   0.417
 1205TIP3   OH2 3571   3.940   2.800   5.671
 1205TIP3    H1 3572   3.853   2.809   5.708
 1205TIP3    H2 3573   3.926   2.763   5.584
 1206TIP3   OH2 3574   4.245   1.530   3.146
 1206TIP3    H1 3575   4.256   1.554   3.238
 1206TIP3    H2 3576   4.150   1.533   3.132
 1207TIP3   OH2 3577   2.427   7.701   0.461
 1207TIP3    H1 3578   2.505   7.670   0.414
 1207TIP3    H2 3579   2.462   7.748   0.536
 1208TIP3   OH2 3580   3.372   6.235   0.303
 1208TIP3    H1 3581   3.298   6.288   0.332
 1208TIP3    H2 3582   3.436   6.299   0.272
 1209TIP3   OH2 3583   1.669   4.993   0.595
 1209TIP3    H1 3584   1.612   4.920   0.621
 1209TIP3    H2 3585   1.637   5.020   0.510
 1210TIP3   OH2 3586   5.075   4.344   0.011
 1210TIP3    H1 3587   5.153   4.310  -0.032
 1210TIP3    H2 3588   5.016   4.269   0.017
 1211TIP3   OH2 3589   5.824   4.416   1.703
 1211TIP3    H1 3590   5.894   4.457   1.652
 1211TIP3    H2 3591   5.746   4.467   1.682
 1212TIP3   OH2 3592   6.623   6.025   2.327
 1212TIP3    H1 3593   6.551   6.057   2.273
 1212TIP3    H2 3594   6.674   6.103   2.349
 1213TIP3   OH2 3595   2.135   6.221   0.030
 1213TIP3    H1 3596   2.123   6.250   0.120
 1213TIP3    H2 3597   2.165   6.298  -0.017
 1214TIP3   OH2 3598   4.093   3.718   0.266
 1214TIP3    H1 3599   4.010   3.761   0.246
 1214TIP3    H2 3600   4.071   3.625   0.271
 1215TIP3   OH2 3601   1.245   0.500   0.492
 1215TIP3    H1 3602   1.164   0.494   0.543
 1215TIP3    H2 3603   1.236   0.581   0.442
 1216TIP3   OH2 3604   5.187   6.382   3.285
 1216TIP3    H1 3605   5.135   6.303   3.301
 1216TIP3    H2 3606   5.215   6.409   3.373
 1217TIP3   OH2 3607   3.576   2.899   1.407
 1217TIP3    H1 3608   3.659   2.856   1.428
 1217TIP3    H2 3609   3.544   2.933   1.491
 1218TIP3   OH2 3610   6.733   0.448   2.720
 1218TIP3    H1 3611   6.697   0.475   2.805
 1218TIP3    H2 3612   6.692   0.506   2.657
 1219TIP3   OH2 3613   0.566   6.902   5.445
 1219TIP3    H1 3614   0.477   6.930   5.465
 1219TIP3    H2 3615   0.610   6.982   5.416
 1220TIP3   OH2 3616   0.210   2.995   2.987
 1220TIP3    H1 3617   0.290   3.044   2.972
 1220TIP3    H2 3618   0.238   2.905   2.997
 1221TIP3   OH2 3619   1.969   4.562   1.840
 1221TIP3    H1 3620   1.976   4.651   1.806
 1221TIP3    H2 3621   1.890   4.563   1.894
 1222TIP3   OH2 3622   4.593   7.789   0.917
 1222TIP3    H1 3623   4.549   7.807   1.000
 1222TIP3    H2 3624   4.534   7.730   0.870
 1223TIP3   OH2 3625   7.114   6.206   1.441
 1223TIP3    H1 3626   7.064   6.230   1.519
 1223TIP3    H2 3627   7.069   6.253   1.370
 1224TIP3   OH2 3628   3.157   5.260   1.105
 1224TIP3    H1 3629   3.114   5.236   1.188
 1224TIP3    H2 3630   3.176   5.353   1.113
 1225TIP3   OH2 3631   1.549   7.076   1.451
 1225TIP3    H1 3632   1.638   7.092   1.419
 1225TIP3    H2 3633   1.557   6.994   1.501
 1226TIP3   OH2 3634   8.172   3.287   1.742
 1226TIP3    H1 3635   8.191   3.365   1.795
 1226TIP3    H2 3636   8.230   3.220   1.777
 1227TIP3   OH2 3637   2.625   3.730   3.072
 1227TIP3    H1 3638   2.667   3.745   3.157
 1227TIP3    H2 3639   2.534   3.756   3.084
 1228TIP3   OH2 3640   2.501   2.616   6.706
 1228TIP3    H1 3641   2.508   2.602   6.801
 1228TIP3    H2 3642   2.576   2.671   6.684
 1229TIP3   OH2 3643   7.586   0.498   4.050
 1229TIP3    H1 3644   7.607   0.567   4.113
 1229TIP3    H2 3645   7.670   0.477   4.009
 1230TIP3   OH2 3646   6.377   6.952   4.534
 1230TIP3    H1 3647   6.284   6.970   4.544
 1230TIP3    H2 3648   6.404   7.004   4.458
 1231TIP3   OH2 3649   0.939   6.595   3.553
 1231TIP3    H1 3650   0.914   6.575   3.463
 1231TIP3    H2 3651   1.033   6.579   3.556
 1232TIP3   OH2 3652   0.752   0.359   6.482
 1232TIP3    H1 3653   0.750   0.421   6.554
 1232TIP3    H2 3654   0.719   0.277   6.520
 1233TIP3   OH2 3655   5.286   2.881   6.368
 1233TIP3    H1 3656   5.313   2.912   6.282
 1233TIP3    H2 3657   5.224   2.810   6.349
 1234TIP3   OH2 3658   7.994   1.708   4.403
 1234TIP3    H1 3659   7.910   1.691   4.360
 1234TIP3    H2 3660   7.971   1.729   4.493
 1235TIP3   OH2 3661   7.092   7.407   0.961
 1235TIP3    H1 3662   6.997   7.401   0.966
 1235TIP3    H2 3663   7.117   7.457   1.038
 1236TIP3   OH2 3664   8.173   6.104   5.153
 1236TIP3    H1 3665   8.127   6.150   5.083
 1236TIP3    H2 3666   8.124   6.022   5.163
 1237TIP3   OH2 3667   5.244   7.343   1.391
 1237TIP3    H1 3668   5.221   7.435   1.384
 1237TIP3    H2 3669   5.160   7.297   1.387
 1238TIP3   OH2 3670   6.913   2.597   5.453
 1238TIP3    H1 3671   6.906   2.503   5.438
 1238TIP3    H2 3672   6.823   2.627   5.459
 1239TIP3   OH2 3673   1.134   3.258   6.661
 1239TIP3    H1 3674   1.055   3.209   6.683
 1239TIP3    H2 3675   1.120   3.288   6.571
 1240TIP3   OH2 3676   5.910   4.837   2.893
 1240TIP3    H1 3677   5.868   4.888   2.963
 1240TIP3    H2 3678   6.003   4.858   2.900
 1241TIP3   OH2 3679   8.326   0.132   0.141
 1241TIP3    H1 3680   8.396   0.190   0.171
 1241TIP3    H2 3681   8.248   0.188   0.138
 1242TIP3   OH2 3682   4.241   1.546   2.299
 1242TIP3    H1 3683   4.164   1.592   2.264
 1242TIP3    H2 3684   4.243   1.570   2.391
 1243TIP3   OH2 3685   3.020   0.416   1.792
 1243TIP3    H1 3686   3.084   0.354   1.827
 1243TIP3    H2 3687   3.002   0.477   1.864
 1244TIP3   OH2 3688   7.121   3.621   0.219
 1244TIP3    H1 3689   7.160   3.535   0.204
 1244TIP3    H2 3690   7.045   3.604   0.275
 1245TIP3   OH2 3691   0.529   7.816   5.628
 1245TIP3    H1 3692   0.470   7.807   5.703
 1245TIP3    H2 3693   0.518   7.735   5.579
 1246TIP3   OH2 3694   2.494   6.840   4.750
 1246TIP3    H1 3695   2.508   6.934   4.739
 1246TIP3    H2 3696   2.557   6.815   4.817
 1247TIP3   OH2 3697   7.127   0.841   3.313
 1247TIP3    H1 3698   7.049   0.865   3.363
 1247TIP3    H2 3699   7.139   0.913   3.251
 1248TIP3   OH2 3700   0.709   4.215   3.252
 1248TIP3    H1 3701   0.640   4.244   3.192
 1248TIP3    H2 3702   0.666   4.205   3.336
 1249TIP3   OH2 3703   4.381   1.427   3.973
 1249TIP3    H1 3704   4.315   1.365   3.940
 1249TIP3    H2 3705   4.464   1.381   3.962
 1250TIP3   OH2 3706   0.061   2.439   3.557
 1250TIP3    H1 3707   0.043   2.441   3.651
 1250TIP3    H2 3708   0.026   2.523   3.525
 1251TIP3   OH2 3709   5.934   4.434   5.925
 1251TIP3    H1 3710   6.016   4.476   5.949
 1251TIP3    H2 3711   5.922   4.456   5.833
 1252TIP3   OH2 3712   3.612   3.312   6.395
 1252TIP3    H1 3713   3.683   3.320   6.331
 1252TIP3    H2 3714   3.575   3.400   6.401
 1253TIP3   OH2 3715   0.602   3.942   2.667
 1253TIP3    H1 3716   0.671   3.884   2.634
 1253TIP3    H2 3717   0.643   3.991   2.738
 1254TIP3   OH2 3718   2.635   7.306   0.552
 1254TIP3    H1 3719   2.668   7.221   0.580
 1254TIP3    H2 3720   2.677   7.369   0.611
 1255TIP3   OH2 3721   6.630   6.164   0.071
 1255TIP3    H1 3722   6.616   6.123  -0.014
 1255TIP3    H2 3723   6.548   6.151   0.118
 1256TIP3   OH2 3724   2.033   1.046   4.638
 1256TIP3    H1 3725   1.939   1.064   4.643
 1256TIP3    H2 3726   2.040   0.952   4.656
 1257TIP3   OH2 3727   2.027   7.098   1.151
 1257TIP3    H1 3728   2.041   7.140   1.066
 1257TIP3    H2 3729   2.113   7.102   1.194
 1258TIP3   OH2 3730   6.046   4.569   4.361
 1258TIP3    H1 3731   5.986   4.618   4.418
 1258TIP3    H2 3732   6.043   4.480   4.394
 1259TIP3   OH2 3733   4.694   0.128   4.692
 1259TIP3    H1 3734   4.702   0.223   4.686
 1259TIP3    H2 3735   4.615   0.107   4.642
 1260TIP3   OH2 3736   0.163   0.080   5.817
 1260TIP3    H1 3737   0.224   0.047   5.883
 1260TIP3    H2 3738   0.215   0.090   5.738
 1261TIP3   OH2 3739   4.857   6.150   1.172
 1261TIP3    H1 3740   4.882   6.061   1.149
 1261TIP3    H2 3741   4.872   6.156   1.267
 1262TIP3   OH2 3742   7.804   4.724   0.116
 1262TIP3    H1 3743   7.840   4.644   0.078
 1262TIP3    H2 3744   7.731   4.694   0.170
 1263TIP3   OH2 3745   6.296   2.809   0.746
 1263TIP3    H1 3746   6.307   2.829   0.839
 1263TIP3    H2 3747   6.267   2.718   0.744
 1264TIP3   OH2 3748   2.142   3.753   1.807
 1264TIP3    H1 3749   2.161   3.711   1.892
 1264TIP3    H2 3750   2.081   3.693   1.765
 1265TIP3   OH2 3751   6.291   6.418   3.061
 1265TIP3    H1 3752   6.243   6.486   3.107
 1265TIP3    H2 3753   6.270   6.337   3.110
 1266TIP3   OH2 3754   0.379   0.704   4.801
 1266TIP3    H1 3755   0.432   0.625   4.815
 1266TIP3    H2 3756   0.415   0.768   4.861
 1267TIP3   OH2 3757   5.581   1.438   5.685
 1267TIP3    H1 3758   5.487   1.427   5.669
 1267TIP3    H2 3759   5.588   1.439   5.781
 1268TIP3   OH2 3760   1.870   2.283   1.991
 1268TIP3    H1 3761   1.785   2.254   2.025
 1268TIP3    H2 3762   1.910   2.330   2.064
 1269TIP3   OH2 3763   2.129   7.742   1.890
 1269TIP3    H1 3764   2.072   7.702   1.956
 1269TIP3    H2 3765   2.133   7.835   1.915
 1270TIP3   OH2 3766   2.964   1.266   1.335
 1270TIP3    H1 3767   2.894   1.285   1.398
 1270TIP3    H2 3768   2.975   1.348   1.287
 1271TIP3   OH2 3769   1.065   1.730   1.663
 1271TIP3    H1 3770   1.102   1.798   1.605
 1271TIP3    H2 3771   1.009   1.678   1.605
 1272TIP3   OH2 3772   1.968   6.484   1.082
 1272TIP3    H1 3773   1.947   6.575   1.101
 1272TIP3    H2 3774   2.054   6.487   1.040
 1273TIP3   OH2 3775   1.973   2.379   1.560
 1273TIP3    H1 3776   1.907   2.364   1.492
 1273TIP3    H2 3777   2.056   2.361   1.517
 1274TIP3   OH2 3778   1.253   3.316   3.160
 1274TIP3    H1 3779   1.251   3.407   3.189
 1274TIP3    H2 3780   1.161   3.292   3.149
 1275TIP3   OH2 3781   6.162   2.661   5.285
 1275TIP3    H1 3782   6.190   2.722   5.217
 1275TIP3    H2 3783   6.235   2.599   5.293
 1276TIP3   OH2 3784   2.847   4.593   4.300
 1276TIP3    H1 3785   2.755   4.596   4.329
 1276TIP3    H2 3786   2.870   4.500   4.303
 1277TIP3   OH2 3787   2.642   0.492   6.108
 1277TIP3    H1 3788   2.712   0.544   6.147
 1277TIP3    H2 3789   2.574   0.491   6.174
 1278TIP3   OH2 3790   0.757   5.910   3.571
 1278TIP3    H1 3791   0.825   5.850   3.603
 1278TIP3    H2 3792   0.766   5.987   3.626
 1279TIP3   OH2 3793   6.375   0.319   0.385
 1279TIP3    H1 3794   6.413   0.234   0.407
 1279TIP3    H2 3795   6.328   0.304   0.303
 1280TIP3   OH2 3796   1.296   5.777   5.784
 1280TIP3    H1 3797   1.222   5.727   5.748
 1280TIP3    H2 3798   1.370   5.755   5.728
 1281TIP3   OH2 3799   2.914   0.668   5.006
 1281TIP3    H1 3800   2.940   0.713   4.926
 1281TIP3    H2 3801   2.944   0.578   4.993
 1282TIP3   OH2 3802   4.415   2.221   2.674
 1282TIP3    H1 3803   4.454   2.137   2.652
 1282TIP3    H2 3804   4.362   2.244   2.598
 1283TIP3   OH2 3805   1.061   4.893   2.586
 1283TIP3    H1 3806   1.123   4.960   2.557
 1283TIP3    H2 3807   0.975   4.934   2.576
 1284TIP3   OH2 3808   0.887   5.474   2.455
 1284TIP3    H1 3809   0.973   5.432   2.461
 1284TIP3    H2 3810   0.905   5.561   2.419
 1285TIP3   OH2 3811   0.422   5.748   5.381
 1285TIP3    H1 3812   0.446   5.795   5.301
 1285TIP3    H2 3813   0.334   5.714   5.364
 1286TIP3   OH2 3814   6.068   0.069   5.648
 1286TIP3    H1 3815   6.105   0.017   5.576
 1286TIP3    H2 3816   6.034   0.148   5.606
 1287TIP3   OH2 3817   7.675   2.155   5.261
 1287TIP3    H1 3818   7.651   2.145   5.353
 1287TIP3    H2 3819   7.595   2.132   5.213
 1288TIP3   OH2 3820   6.875   2.202   6.349
 1288TIP3    H1 3821   6.924   2.285   6.347
 1288TIP3    H2 3822   6.814   2.212   6.422
 1289TIP3   OH2 3823   0.972   0.324   0.376
 1289TIP3    H1 3824   0.877   0.314   0.365
 1289TIP3    H2 3825   0.982   0.380   0.452
 1290TIP3   OH2 3826   6.635   0.626   5.605
 1290TIP3    H1 3827   6.605   0.680   5.679
 1290TIP3    H2 3828   6.555   0.599   5.561
 1291TIP3   OH2 3829   5.140   5.289   2.795
 1291TIP3    H1 3830   5.188   5.359   2.750
 1291TIP3    H2 3831   5.100   5.331   2.871
 1292TIP3   OH2 3832   2.635   5.188   0.233
 1292TIP3    H1 3833   2.697   5.156   0.300
 1292TIP3    H2 3834   2.670   5.273   0.206
 1293TIP3   OH2 3835   2.915   6.019   4.399
 1293TIP3    H1 3836   2.929   6.095   4.343
 1293TIP3    H2 3837   2.975   5.953   4.366
 1294TIP3   OH2 3838   4.319   2.423   4.308
 1294TIP3    H1 3839   4.382   2.418   4.380
 1294TIP3    H2 3840   4.249   2.479   4.341
 1295TIP3   OH2 3841   7.421   7.603   6.660
 1295TIP3    H1 3842   7.356   7.649   6.606
 1295TIP3    H2 3843   7.375   7.528   6.696
 1296TIP3   OH2 3844   7.202   1.298   5.156
 1296TIP3    H1 3845   7.271   1.349   5.114
 1296TIP3    H2 3846   7.226   1.207   5.138
 1297TIP3   OH2 3847   7.898   2.693   2.666
 1297TIP3    H1 3848   7.925   2.602   2.654
 1297TIP3    H2 3849   7.981   2.741   2.674
 1298TIP3   OH2 3850   0.561   7.305   1.045
 1298TIP3    H1 3851   0.522   7.241   1.104
 1298TIP3    H2 3852   0.631   7.345   1.097
 1299TIP3   OH2 3853   6.829   3.944   6.047
 1299TIP3    H1 3854   6.921   3.928   6.068
 1299TIP3    H2 3855   6.816   3.903   5.962
 1300TIP3   OH2 3856   8.253   4.904   1.598
 1300TIP3    H1 3857   8.202   4.969   1.647
 1300TIP3    H2 3858   8.246   4.931   1.507
 1301TIP3   OH2 3859   4.247   0.775   2.000
 1301TIP3    H1 3860   4.163   0.816   2.019
 1301TIP3    H2 3861   4.240   0.687   2.039
 1302TIP3   OH2 3862   1.393   2.729   2.446
 1302TIP3    H1 3863   1.309   2.751   2.405
 1302TIP3    H2 3864   1.457   2.785   2.402
 1303TIP3   OH2 3865   0.228   4.203   5.199
 1303TIP3    H1 3866   0.269   4.124   5.233
 1303TIP3    H2 3867   0.148   4.172   5.157
 1304TIP3   OH2 3868   3.474   6.627   1.913
 1304TIP3    H1 3869   3.531   6.597   1.984
 1304TIP3    H2 3870   3.400   6.566   1.914
 1305TIP3   OH2 3871   5.166   5.673   0.766
 1305TIP3    H1 3872   5.079   5.636   0.750
 1305TIP3    H2 3873   5.149   5.755   0.812
 1306TIP3   OH2 3874   6.520   1.088   1.808
 1306TIP3    H1 3875   6.456   1.036   1.857
 1306TIP3    H2 3876   6.535   1.037   1.728
 1307TIP3   OH2 3877   7.296   6.095   0.199
 1307TIP3    H1 3878   7.230   6.028   0.216
 1307TIP3    H2 3879   7.331   6.117   0.285
 1308TIP3   OH2 3880   4.324   3.179   5.074
 1308TIP3    H1 3881   4.390   3.220   5.130
 1308TIP3    H2 3882   4.331   3.085   5.095
 1309TIP3   OH2 3883   3.313   1.503   3.163
 1309TIP3    H1 3884   3.279   1.592   3.156
 1309TIP3    H2 3885   3.395   1.513   3.212
 1310TIP3   OH2 3886   2.498   1.149   2.800
 1310TIP3    H1 3887   2.552   1.208   2.853
 1310TIP3    H2 3888   2.489   1.194   2.716
 1311TIP3   OH2 3889   6.701   0.960   2.391
 1311TIP3    H1 3890   6.660   0.949   2.477
 1311TIP3    H2 3891   6.633   0.935   2.329
 1312TIP3   OH2 3892   3.780   5.855   6.195
 1312TIP3    H1 3893   3.701   5.804   6.215
 1312TIP3    H2 3894   3.850   5.809   6.242
 1313TIP3   OH2 3895   8.089   0.645   1.876
 1313TIP3    H1 3896   8.030   0.581   1.836
 1313TIP3    H2 3897   8.070   0.727   1.830
 1314TIP3   OH2 3898   0.475   6.306   2.997
 1314TIP3    H1 3899   0.543   6.370   3.018
 1314TIP3    H2 3900   0.437   6.284   3.081
 1315TIP3   OH2 3901   4.598   3.928   1.656
 1315TIP3    H1 3902   4.631   3.943   1.744
 1315TIP3    H2 3903   4.656   3.980   1.599
 1316TIP3   OH2 3904   3.710   4.946   5.404
 1316TIP3    H1 3905   3.756   5.014   5.355
 1316TIP3    H2 3906   3.769   4.871   5.403
 1317TIP3   OH2 3907   0.229   6.408   1.559
 1317TIP3    H1 3908   0.148   6.392   1.511
 1317TIP3    H2 3909   0.295   6.358   1.511
 1318TIP3   OH2 3910   0.099   2.042   4.199
 1318TIP3    H1 3911   0.071   2.002   4.281
 1318TIP3    H2 3912   0.061   2.130   4.201
 1319TIP3   OH2 3913   6.360   3.924   0.614
 1319TIP3    H1 3914   6.362   3.853   0.550
 1319TIP3    H2 3915   6.298   3.987   0.579
 1320TIP3   OH2 3916   7.541   1.978   4.394
 1320TIP3    H1 3917   7.469   2.032   4.425
 1320TIP3    H2 3918   7.570   2.021   4.313
 1321TIP3   OH2 3919   7.176   1.418   0.438
 1321TIP3    H1 3920   7.261   1.413   0.483
 1321TIP3    H2 3921   7.178   1.346   0.376
 1322TIP3   OH2 3922   7.183   1.246   2.862
 1322TIP3    H1 3923   7.227   1.163   2.881
 1322TIP3    H2 3924   7.141   1.271   2.945
 1323TIP3   OH2 3925   7.807   3.524   6.119
 1323TIP3    H1 3926   7.815   3.431   6.143
 1323TIP3    H2 3927   7.872   3.536   6.050
 1324TIP3   OH2 3928   2.592   6.399   1.568
 1324TIP3    H1 3929   2.647   6.451   1.510
 1324TIP3    H2 3930   2.502   6.420   1.541
 1325TIP3   OH2 3931   7.184   6.164   3.085
 1325TIP3    H1 3932   7.262   6.211   3.056
 1325TIP3    H2 3933   7.132   6.153   3.005
 1326TIP3   OH2 3934   3.024   0.717   6.471
 1326TIP3    H1 3935   2.951   0.779   6.473
 1326TIP3    H2 3936   2.982   0.631   6.467
 1327TIP3   OH2 3937   3.467  -0.007   6.440
 1327TIP3    H1 3938   3.425   0.076   6.419
 1327TIP3    H2 3939   3.526   0.014   6.513
 1328TIP3   OH2 3940   4.385   6.333   5.154
 1328TIP3    H1 3941   4.459   6.312   5.212
 1328TIP3    H2 3942   4.423   6.392   5.089
 1329TIP3   OH2 3943   1.015   7.507   1.894
 1329TIP3    H1 3944   1.017   7.603   1.899
 1329TIP3    H2 3945   1.044   7.488   1.805
 1330TIP3   OH2 3946   1.764   6.272   1.932
 1330TIP3    H1 3947   1.738   6.270   1.840
 1330TIP3    H2 3948   1.822   6.197   1.942
 1331TIP3   OH2 3949   8.356   7.414   5.872
 1331TIP3    H1 3950   8.287   7.480   5.865
 1331TIP3    H2 3951   8.314   7.331   5.850
 1332TIP3   OH2 3952   0.208   2.485   1.688
 1332TIP3    H1 3953   0.251   2.425   1.749
 1332TIP3    H2 3954   0.135   2.521   1.737
 1333TIP3   OH2 3955   2.749   7.651   5.302
 1333TIP3    H1 3956   2.799   7.580   5.343
 1333TIP3    H2 3957   2.678   7.668   5.362
 1334TIP3   OH2 3958   3.183   5.394   2.829
 1334TIP3    H1 3959   3.179   5.342   2.909
 1334TIP3    H2 3960   3.096   5.433   2.821
 1335TIP3   OH2 3961   0.070   3.408   6.423
 1335TIP3    H1 3962  -0.021   3.396   6.450
 1335TIP3    H2 3963   0.082   3.503   6.418
 1336TIP3   OH2 3964   4.451   0.565   6.008
 1336TIP3    H1 3965   4.364   0.597   6.033
 1336TIP3    H2 3966   4.433   0.483   5.963
 1337TIP3   OH2 3967   1.383   5.495   3.280
 1337TIP3    H1 3968   1.450   5.558   3.255
 1337TIP3    H2 3969   1.330   5.540   3.346
 1338TIP3   OH2 3970   7.106   5.255   4.697
 1338TIP3    H1 3971   7.029   5.225   4.745
 1338TIP3    H2 3972   7.140   5.177   4.655
 1339TIP3   OH2 3973   4.721   1.912   6.709
 1339TIP3    H1 3974   4.636   1.888   6.673
 1339TIP3    H2 3975   4.763   1.828   6.728
 1340TIP3   OH2 3976   5.851   6.988   1.852
 1340TIP3    H1 3977   5.904   7.031   1.784
 1340TIP3    H2 3978   5.806   6.917   1.806
 1341TIP3   OH2 3979   2.804   2.083   5.782
 1341TIP3    H1 3980   2.892   2.091   5.817
 1341TIP3    H2 3981   2.815   2.076   5.687
 1342TIP3   OH2 3982   1.221   1.411   2.041
 1342TIP3    H1 3983   1.167   1.460   2.103
 1342TIP3    H2 3984   1.306   1.402   2.084
 1343TIP3   OH2 3985   7.452   0.305   1.407
 1343TIP3    H1 3986   7.389   0.353   1.353
 1343TIP3    H2 3987   7.455   0.217   1.369
 1344TIP3   OH2 3988   4.406   6.018   6.227
 1344TIP3    H1 3989   4.440   6.066   6.303
 1344TIP3    H2 3990   4.413   6.081   6.154
 1345TIP3   OH2 3991   7.931   7.433   0.910
 1345TIP3    H1 3992   7.915   7.339   0.903
 1345TIP3    H2 3993   7.853   7.473   0.870
 1346TIP3   OH2 3994   3.425   7.569   2.176
 1346TIP3    H1 3995   3.384   7.572   2.089
 1346TIP3    H2 3996   3.412   7.658   2.211
 1347TIP3   OH2 3997   6.125   4.124   4.938
 1347TIP3    H1 3998   6.191   4.115   4.869
 1347TIP3    H2 3999   6.045   4.091   4.899
 1348TIP3   OH2 4000   1.356   4.015   5.342
 1348TIP3    H1 4001   1.389   3.930   5.369
 1348TIP3    H2 4002   1.407   4.078   5.393
 1349TIP3   OH2 4003   8.217   2.513   0.314
 1349TIP3    H1 4004   8.307   2.525   0.283
 1349TIP3    H2 4005   8.214   2.561   0.397
 1350TIP3   OH2 4006   6.143   3.457   3.186
 1350TIP3    H1 4007   6.074   3.409   3.231
 1350TIP3    H2 4008   6.120   3.449   3.093
 1351TIP3   OH2 4009   5.899   0.105   6.651
 1351TIP3    H1 4010   5.982   0.126   6.694
 1351TIP3    H2 4011   5.832   0.148   6.705
 1352TIP3   OH2 4012   5.226   1.203   3.714
 1352TIP3    H1 4013   5.260   1.114   3.719
 1352TIP3    H2 4014   5.269   1.250   3.786
 1353TIP3   OH2 4015   8.197   6.522   4.307
 1353TIP3    H1 4016   8.213   6.466   4.231
 1353TIP3    H2 4017   8.143   6.593   4.275
 1354TIP3   OH2 4018   5.848   1.680   3.751
 1354TIP3    H1 4019   5.807   1.724   3.825
 1354TIP3    H2 4020   5.939   1.668   3.777
 1355TIP3   OH2 4021   5.329   5.570   1.638
 1355TIP3    H1 4022   5.262   5.504   1.623
 1355TIP3    H2 4023   5.303   5.644   1.582
 1356TIP3   OH2 4024   3.253   6.021   2.086
 1356TIP3    H1 4025   3.267   6.096   2.028
 1356TIP3    H2 4026   3.310   5.953   2.051
 1357TIP3   OH2 4027   0.884   7.153   4.628
 1357TIP3    H1 4028   0.872   7.129   4.536
 1357TIP3    H2 4029   0.858   7.075   4.676
 1358TIP3   OH2 4030   6.186   1.338   4.028
 1358TIP3    H1 4031   6.262   1.387   3.999
 1358TIP3    H2 4032   6.211   1.301   4.112
 1359TIP3   OH2 4033   5.548   1.727   3.612
 1359TIP3    H1 4034   5.512   1.643   3.640
 1359TIP3    H2 4035   5.593   1.707   3.530
 1360TIP3   OH2 4036   3.502   2.711   5.369
 1360TIP3    H1 4037   3.543   2.654   5.304
 1360TIP3    H2 4038   3.424   2.663   5.396
 1361TIP3   OH2 4039   0.185   2.732   6.619
 1361TIP3    H1 4040   0.277   2.735   6.592
 1361TIP3    H2 4041   0.187   2.690   6.705
 1362TIP3   OH2 4042   7.807   6.395   1.123
 1362TIP3    H1 4043   7.866   6.339   1.073
 1362TIP3    H2 4044   7.729   6.341   1.138
 1363TIP3   OH2 4045   3.129   2.844   5.738
 1363TIP3    H1 4046   3.083   2.776   5.786
 1363TIP3    H2 4047   3.216   2.847   5.778
 1364TIP3   OH2 4048   0.999   3.244   6.158
 1364TIP3    H1 4049   0.945   3.304   6.107
 1364TIP3    H2 4050   1.089   3.271   6.140
 1365TIP3   OH2 4051   0.208   2.956   0.054
 1365TIP3    H1 4052   0.289   2.935   0.101
 1365TIP3    H2 4053   0.228   3.035   0.004
 1366TIP3   OH2 4054   8.138  -0.009   4.133
 1366TIP3    H1 4055   8.049  -0.040   4.117
 1366TIP3    H2 4056   8.130   0.051   4.207
 1367TIP3   OH2 4057   2.589   1.100   1.766
 1367TIP3    H1 4058   2.595   1.121   1.672
 1367TIP3    H2 4059   2.655   1.156   1.807
 1368TIP3   OH2 4060   6.904   1.540   4.312
 1368TIP3    H1 4061   6.905   1.446   4.295
 1368TIP3    H2 4062   6.820   1.570   4.276
 1369TIP3   OH2 4063   1.022   6.157   4.492
 1369TIP3    H1 4064   0.983   6.070   4.484
 1369TIP3    H2 4065   1.098   6.145   4.549
 1370TIP3   OH2 4066   6.283   6.526   2.452
 1370TIP3    H1 4067   6.361   6.574   2.425
 1370TIP3    H2 4068   6.310   6.434   2.450
 1371TIP3   OH2 4069   7.975   5.641   6.486
 1371TIP3    H1 4070   7.942   5.551   6.482
 1371TIP3    H2 4071   8.063   5.633   6.522
 1372TIP3   OH2 4072   2.392   5.894   3.859
 1372TIP3    H1 4073   2.309   5.902   3.907
 1372TIP3    H2 4074   2.367   5.902   3.767
 1373TIP3   OH2 4075   1.169   7.540   0.211
 1373TIP3    H1 4076   1.129   7.473   0.156
 1373TIP3    H2 4077   1.117   7.619   0.195
 1374TIP3   OH2 4078   5.193   6.345   5.069
 1374TIP3    H1 4079   5.170   6.378   4.983
 1374TIP3    H2 4080   5.259   6.277   5.053
 1375TIP3   OH2 4081   4.612   4.957   5.494
 1375TIP3    H1 4082   4.618   4.863   5.478
 1375TIP3    H2 4083   4.692   4.979   5.542
 1376TIP3   OH2 4084   4.761   2.373   4.415
 1376TIP3    H1 4085   4.683   2.375   4.471
 1376TIP3    H2 4086   4.768   2.281   4.388
 1377TIP3   OH2 4087   6.204   5.350   1.154
 1377TIP3    H1 4088   6.179   5.433   1.112
 1377TIP3    H2 4089   6.267   5.375   1.221
 1378TIP3   OH2 4090   6.253   3.526   3.481
 1378TIP3    H1 4091   6.318   3.554   3.416
 1378TIP3    H2 4092   6.291   3.550   3.565
 1379TIP3   OH2 4093   8.063   1.451   2.343
 1379TIP3    H1 4094   8.035   1.488   2.426
 1379TIP3    H2 4095   7.984   1.450   2.289
 1380TIP3   OH2 4096   4.597   3.743   4.840
 1380TIP3    H1 4097   4.571   3.789   4.760
 1380TIP3    H2 4098   4.684   3.709   4.821
 1381TIP3   OH2 4099   2.314   3.662   3.491
 1381TIP3    H1 4100   2.225   3.690   3.511
 1381TIP3    H2 4101   2.347   3.727   3.429
 1382TIP3   OH2 4102   5.014   0.121   5.881
 1382TIP3    H1 4103   5.010   0.144   5.974
 1382TIP3    H2 4104   5.079   0.180   5.844
 1383TIP3   OH2 4105   7.144   6.347   2.391
 1383TIP3    H1 4106   7.229   6.390   2.391
 1383TIP3    H2 4107   7.087   6.404   2.340
 1384TIP3   OH2 4108   4.546   6.131   2.654
 1384TIP3    H1 4109   4.496   6.125   2.572
 1384TIP3    H2 4110   4.485   6.170   2.716
 1385TIP3   OH2 4111   5.257   6.235   6.291
 1385TIP3    H1 4112   5.206   6.316   6.299
 1385TIP3    H2 4113   5.346   6.260   6.317
 1386TIP3   OH2 4114   3.036   4.969   3.863
 1386TIP3    H1 4115   3.066   4.879   3.851
 1386TIP3    H2 4116   3.090   5.021   3.804
 1387TIP3   OH2 4117   4.287   0.964   5.220
 1387TIP3    H1 4118   4.345   1.035   5.192
 1387TIP3    H2 4119   4.310   0.949   5.312
 1388TIP3   OH2 4120   0.408   3.171   5.041
 1388TIP3    H1 4121   0.314   3.163   5.057
 1388TIP3    H2 4122   0.414   3.201   4.951
 1389TIP3   OH2 4123   5.076   1.108   3.393
 1389TIP3    H1 4124   5.105   1.082   3.480
 1389TIP3    H2 4125   5.105   1.199   3.384
 1390TIP3   OH2 4126   1.968   4.282   2.422
 1390TIP3    H1 4127   1.879   4.258   2.447
 1390TIP3    H2 4128   1.958   4.347   2.352
 1391TIP3   OH2 4129   0.272   2.610   0.303
 1391TIP3    H1 4130   0.234   2.568   0.380
 1391TIP3    H2 4131   0.203   2.667   0.269
 1392TIP3   OH2 4132   5.940   4.388   0.884
 1392TIP3    H1 4133   5.968   4.464   0.833
 1392TIP3    H2 4134   5.995   4.317   0.851
 1393TIP3   OH2 4135   5.966   7.524   3.967
 1393TIP3    H1 4136   5.930   7.596   4.019
 1393TIP3    H2 4137   5.902   7.509   3.898
 1394TIP3   OH2 4138   5.194   3.688   4.860
 1394TIP3    H1 4139   5.249   3.759   4.827
 1394TIP3    H2 4140   5.205   3.617   4.797
 1395TIP3   OH2 4141   5.307   7.434   0.938
 1395TIP3    H1 4142   5.235   7.492   0.965
 1395TIP3    H2 4143   5.331   7.388   1.018
 1396TIP3   OH2 4144   0.784   3.880   4.936
 1396TIP3    H1 4145   0.848   3.821   4.976
 1396TIP3    H2 4146   0.699   3.840   4.956
 1397TIP3   OH2 4147   7.825   5.505   2.296
 1397TIP3    H1 4148   7.803   5.436   2.234
 1397TIP3    H2 4149   7.751   5.508   2.357
 1398TIP3   OH2 4150   3.115   1.423   6.528
 1398TIP3    H1 4151   3.135   1.350   6.587
 1398TIP3    H2 4152   3.026   1.449   6.552
 1399TIP3   OH2 4153   7.121   7.197   4.254
 1399TIP3    H1 4154   7.107   7.211   4.160
 1399TIP3    H2 4155   7.043   7.233   4.295
 1400TIP3   OH2 4156   3.777   4.674   0.393
 1400TIP3    H1 4157   3.688   4.645   0.413
 1400TIP3    H2 4158   3.833   4.602   0.423
 1401TIP3   OH2 4159   1.148   1.551   5.126
 1401TIP3    H1 4160   1.167   1.624   5.066
 1401TIP3    H2 4161   1.156   1.473   5.072
 1402TIP3   OH2 4162   0.036   3.786   3.042
 1402TIP3    H1 4163   0.101   3.764   3.109
 1402TIP3    H2 4164   0.086   3.833   2.975
 1403TIP3   OH2 4165   3.921   1.791   4.207
 1403TIP3    H1 4166   3.936   1.844   4.285
 1403TIP3    H2 4167   3.846   1.832   4.164
 1404TIP3   OH2 4168   2.438   5.276   4.743
 1404TIP3    H1 4169   2.463   5.363   4.711
 1404TIP3    H2 4170   2.517   5.223   4.732
 1405TIP3   OH2 4171  -0.054   6.112   6.087
 1405TIP3    H1 4172  -0.083   6.037   6.035
 1405TIP3    H2 4173   0.039   6.095   6.103
 1406TIP3   OH2 4174   7.300   0.190   1.590
 1406TIP3    H1 4175   7.312   0.238   1.672
 1406TIP3    H2 4176   7.347   0.242   1.525
 1407TIP3   OH2 4177   5.160   3.654   2.032
 1407TIP3    H1 4178   5.117   3.723   1.982
 1407TIP3    H2 4179   5.133   3.573   1.988
 1408TIP3   OH2 4180   7.257   6.185   4.722
 1408TIP3    H1 4181   7.195   6.234   4.777
 1408TIP3    H2 4182   7.216   6.100   4.709
 1409TIP3   OH2 4183   7.288   2.047   1.882
 1409TIP3    H1 4184   7.271   1.962   1.841
 1409TIP3    H2 4185   7.384   2.051   1.888
 1410TIP3   OH2 4186   5.163   2.135   1.800
 1410TIP3    H1 4187   5.216   2.055   1.802
 1410TIP3    H2 4188   5.096   2.121   1.867
 1411TIP3   OH2 4189   5.087   6.143   4.682
 1411TIP3    H1 4190   5.047   6.060   4.707
 1411TIP3    H2 4191   5.176   6.120   4.656
 1412TIP3   OH2 4192   5.534   2.388   1.062
 1412TIP3    H1 4193   5.571   2.372   0.976
 1412TIP3    H2 4194   5.469   2.457   1.048
 1413TIP3   OH2 4195   6.764   3.131   3.133
 1413TIP3    H1 4196   6.712   3.123   3.053
 1413TIP3    H2 4197   6.701   3.157   3.200
 1414TIP3   OH2 4198   3.907   7.383   5.505
 1414TIP3    H1 4199   3.999   7.362   5.520
 1414TIP3    H2 4200   3.879   7.319   5.439
 1415TIP3   OH2 4201   0.471   2.572   2.763
 1415TIP3    H1 4202   0.474   2.476   2.756
 1415TIP3    H2 4203   0.428   2.588   2.847
 1416TIP3   OH2 4204   0.499   0.559   0.400
 1416TIP3    H1 4205   0.505   0.481   0.455
 1416TIP3    H2 4206   0.566   0.618   0.433
 1417TIP3   OH2 4207   6.636   2.858   3.123
 1417TIP3    H1 4208   6.602   2.929   3.178
 1417TIP3    H2 4209   6.588   2.780   3.152
 1418TIP3   OH2 4210   2.682   4.839   5.942
 1418TIP3    H1 4211   2.687   4.771   6.010
 1418TIP3    H2 4212   2.620   4.903   5.977
 1419TIP3   OH2 4213   3.675   4.600   2.568
 1419TIP3    H1 4214   3.757   4.568   2.529
 1419TIP3    H2 4215   3.656   4.537   2.637
 1420TIP3   OH2 4216   4.689   5.898   5.538
 1420TIP3    H1 4217   4.689   5.829   5.605
 1420TIP3    H2 4218   4.779   5.898   5.504
 1421TIP3   OH2 4219   6.242   5.581   4.737
 1421TIP3    H1 4220   6.262   5.495   4.773
 1421TIP3    H2 4221   6.254   5.571   4.642
 1422TIP3   OH2 4222   5.526   0.644   5.467
 1422TIP3    H1 4223   5.520   0.570   5.527
 1422TIP3    H2 4224   5.448   0.696   5.484
 1423TIP3   OH2 4225   4.581   3.023   5.004
 1423TIP3    H1 4226   4.596   3.116   4.986
 1423TIP3    H2 4227   4.647   3.000   5.069
 1424TIP3   OH2 4228   7.366   0.842   4.400
 1424TIP3    H1 4229   7.288   0.892   4.425
 1424TIP3    H2 4230   7.348   0.815   4.310
 1425TIP3   OH2 4231   7.149   2.472   1.152
 1425TIP3    H1 4232   7.237   2.491   1.185
 1425TIP3    H2 4233   7.160   2.401   1.090
 1426TIP3   OH2 4234   2.853   0.031   2.654
 1426TIP3    H1 4235   2.783  -0.034   2.653
 1426TIP3    H2 4236   2.838   0.081   2.735
 1427TIP3   OH2 4237   0.582   1.830   1.748
 1427TIP3    H1 4238   0.540   1.787   1.672
 1427TIP3    H2 4239   0.660   1.777   1.765
 1428TIP3   OH2 4240   2.206   3.020   1.828
 1428TIP3    H1 4241   2.154   2.950   1.866
 1428TIP3    H2 4242   2.227   3.077   1.902
 1429TIP3   OH2 4243   2.367   4.263   0.816
 1429TIP3    H1 4244   2.357   4.236   0.907
 1429TIP3    H2 4245   2.383   4.181   0.768
 1430TIP3   OH2 4246   1.321   5.350   6.203
 1430TIP3    H1 4247   1.242   5.314   6.241
 1430TIP3    H2 4248   1.293   5.432   6.161
 1431TIP3   OH2 4249   0.065   3.900   2.439
 1431TIP3    H1 4250   0.149   3.910   2.484
 1431TIP3    H2 4251   0.004   3.872   2.507
 1432TIP3   OH2 4252   8.203   3.051   2.653
 1432TIP3    H1 4253   8.230   3.102   2.577
 1432TIP3    H2 4254   8.250   3.089   2.727
 1433TIP3   OH2 4255   4.681   4.189   6.632
 1433TIP3    H1 4256   4.698   4.212   6.723
 1433TIP3    H2 4257   4.719   4.101   6.622
 1434TIP3   OH2 4258   4.719   0.235   2.413
 1434TIP3    H1 4259   4.725   0.202   2.323
 1434TIP3    H2 4260   4.799   0.203   2.456
 1435TIP3   OH2 4261   7.902   0.513   6.477
 1435TIP3    H1 4262   7.963   0.453   6.519
 1435TIP3    H2 4263   7.952   0.552   6.406
 1436TIP3   OH2 4264   5.734   4.689   6.378
 1436TIP3    H1 4265   5.819   4.697   6.334
 1436TIP3    H2 4266   5.696   4.776   6.372
 1437TIP3   OH2 4267   4.382   0.444   0.211
 1437TIP3    H1 4268   4.326   0.476   0.141
 1437TIP3    H2 4269   4.334   0.371   0.250
 1438TIP3   OH2 4270   4.266   4.596   4.440
 1438TIP3    H1 4271   4.257   4.677   4.490
 1438TIP3    H2 4272   4.304   4.534   4.501
 1439TIP3   OH2 4273   5.671   2.847   4.616
 1439TIP3    H1 4274   5.738   2.900   4.660
 1439TIP3    H2 4275   5.667   2.766   4.668
 1440TIP3   OH2 4276   1.664   1.737   0.882
 1440TIP3    H1 4277   1.734   1.736   0.817
 1440TIP3    H2 4278   1.709   1.747   0.966
 1441TIP3   OH2 4279   2.791   5.025   5.484
 1441TIP3    H1 4280   2.769   5.092   5.549
 1441TIP3    H2 4281   2.820   4.950   5.536
 1442TIP3   OH2 4282   5.980   6.289   5.864
 1442TIP3    H1 4283   5.895   6.306   5.904
 1442TIP3    H2 4284   6.033   6.251   5.934
 1443TIP3   OH2 4285   6.027   0.461   6.212
 1443TIP3    H1 4286   6.120   0.456   6.232
 1443TIP3    H2 4287   6.014   0.550   6.179
 1444TIP3   OH2 4288   7.674   7.236   3.808
 1444TIP3    H1 4289   7.759   7.281   3.804
 1444TIP3    H2 4290   7.646   7.231   3.716
 1445TIP3   OH2 4291   1.514   0.822   2.952
 1445TIP3    H1 4292   1.503   0.779   3.037
 1445TIP3    H2 4293   1.519   0.916   2.973
 1446TIP3   OH2 4294   6.012   1.644   1.496
 1446TIP3    H1 4295   6.021   1.548   1.489
 1446TIP3    H2 4296   5.936   1.665   1.441
 1447TIP3   OH2 4297   4.573   7.076   0.178
 1447TIP3    H1 4298   4.523   7.130   0.116
 1447TIP3    H2 4299   4.543   7.106   0.264
 1448TIP3   OH2 4300   2.074   6.784   5.588
 1448TIP3    H1 4301   2.084   6.721   5.660
 1448TIP3    H2 4302   2.128   6.859   5.615
 1449TIP3   OH2 4303   3.893   0.351   2.745
 1449TIP3    H1 4304   3.798   0.364   2.750
 1449TIP3    H2 4305   3.906   0.260   2.772
 1450TIP3   OH2 4306   5.469   3.062   5.699
 1450TIP3    H1 4307   5.524   3.045   5.776
 1450TIP3    H2 4308   5.507   3.140   5.659
 1451TIP3   OH2 4309   5.503   4.410   0.437
 1451TIP3    H1 4310   5.483   4.488   0.386
 1451TIP3    H2 4311   5.574   4.367   0.389
 1452TIP3   OH2 4312   1.891   6.427   1.441
 1452TIP3    H1 4313   1.943   6.373   1.381
 1452TIP3    H2 4314   1.868   6.369   1.513
 1453TIP3   OH2 4315   2.887   7.387   2.715
 1453TIP3    H1 4316   2.934   7.369   2.634
 1453TIP3    H2 4317   2.797   7.360   2.697
 1454TIP3   OH2 4318   2.571   4.218   3.688
 1454TIP3    H1 4319   2.622   4.172   3.621
 1454TIP3    H2 4320   2.637   4.269   3.736
 1455TIP3   OH2 4321   7.897   4.549   5.637
 1455TIP3    H1 4322   7.937   4.630   5.604
 1455TIP3    H2 4323   7.949   4.479   5.598
 1456TIP3   OH2 4324   3.927   5.892   2.883
 1456TIP3    H1 4325   3.979   5.870   2.960
 1456TIP3    H2 4326   3.839   5.860   2.904
 1457TIP3   OH2 4327   4.229   0.560   4.898
 1457TIP3    H1 4328   4.142   0.585   4.869
 1457TIP3    H2 4329   4.249   0.621   4.969
 1458TIP3   OH2 4330   5.089   2.487   1.508
 1458TIP3    H1 4331   5.062   2.478   1.416
 1458TIP3    H2 4332   5.062   2.404   1.549
 1459TIP3   OH2 4333   6.912   7.691   5.420
 1459TIP3    H1 4334   7.005   7.712   5.419
 1459TIP3    H2 4335   6.908   7.598   5.443
 1460TIP3   OH2 4336   6.211   1.099   2.847
 1460TIP3    H1 4337   6.242   1.026   2.793
 1460TIP3    H2 4338   6.279   1.166   2.837
 1461TIP3   OH2 4339   2.935   3.732   0.484
 1461TIP3    H1 4340   2.913   3.639   0.472
 1461TIP3    H2 4341   3.004   3.749   0.420
 1462TIP3   OH2 4342   2.907   0.482   3.906
 1462TIP3    H1 4343   2.862   0.399   3.893
 1462TIP3    H2 4344   2.979   0.481   3.843
 1463TIP3   OH2 4345   1.548   6.005   2.553
 1463TIP3    H1 4346   1.578   5.933   2.608
 1463TIP3    H2 4347   1.453   5.995   2.551
 1464TIP3   OH2 4348   3.620   3.626   3.306
 1464TIP3    H1 4349   3.657   3.686   3.370
 1464TIP3    H2 4350   3.529   3.615   3.333
 1465TIP3   OH2 4351   4.271   2.111   3.433
 1465TIP3    H1 4352   4.189   2.118   3.384
 1465TIP3    H2 4353   4.245   2.124   3.524
 1466TIP3   OH2 4354   0.334   4.263   1.129
 1466TIP3    H1 4355   0.302   4.350   1.109
 1466TIP3    H2 4356   0.427   4.275   1.149
 1467TIP3   OH2 4357   2.280   1.007   2.430
 1467TIP3    H1 4358   2.279   0.991   2.336
 1467TIP3    H2 4359   2.261   0.922   2.469
 1468TIP3   OH2 4360   1.717   4.570   3.012
 1468TIP3    H1 4361   1.629   4.538   3.028
 1468TIP3    H2 4362   1.707   4.641   2.948
 1469TIP3   OH2 4363   4.004   1.044   4.379
 1469TIP3    H1 4364   3.942   1.106   4.418
 1469TIP3    H2 4365   4.089   1.087   4.388
 1470TIP3   OH2 4366   7.218   0.517   6.100
 1470TIP3    H1 4367   7.228   0.422   6.106
 1470TIP3    H2 4368   7.285   0.545   6.038
 1471TIP3   OH2 4369   1.606   1.297   0.602
 1471TIP3    H1 4370   1.574   1.383   0.576
 1471TIP3    H2 4371   1.556   1.275   0.681
 1472TIP3   OH2 4372   1.500   3.600   2.039
 1472TIP3    H1 4373   1.521   3.553   1.959
 1472TIP3    H2 4374   1.524   3.691   2.021
 1473TIP3   OH2 4375   7.010   3.946  -0.007
 1473TIP3    H1 4376   6.969   3.944   0.080
 1473TIP3    H2 4377   7.080   3.881  -0.002
 1474TIP3   OH2 4378   7.487   4.153   5.805
 1474TIP3    H1 4379   7.446   4.113   5.881
 1474TIP3    H2 4380   7.459   4.244   5.806
 1475TIP3   OH2 4381   0.823   6.324   1.810
 1475TIP3    H1 4382   0.818   6.410   1.854
 1475TIP3    H2 4383   0.888   6.276   1.860
 1476TIP3   OH2 4384   4.310   1.280   1.832
 1476TIP3    H1 4385   4.371   1.342   1.793
 1476TIP3    H2 4386   4.270   1.235   1.758
 1477TIP3   OH2 4387   2.326   5.802   5.983
 1477TIP3    H1 4388   2.315   5.754   5.901
 1477TIP3    H2 4389   2.380   5.745   6.037
 1478TIP3   OH2 4390   6.301   2.724   2.535
 1478TIP3    H1 4391   6.255   2.807   2.520
 1478TIP3    H2 4392   6.331   2.729   2.626
 1479TIP3   OH2 4393   6.718   1.380   1.550
 1479TIP3    H1 4394   6.712   1.340   1.637
 1479TIP3    H2 4395   6.657   1.454   1.554
 1480TIP3   OH2 4396   5.915   5.845   2.645
 1480TIP3    H1 4397   5.844   5.787   2.673
 1480TIP3    H2 4398   5.878   5.933   2.653
 1481TIP3   OH2 4399   7.153   4.987   0.533
 1481TIP3    H1 4400   7.105   4.906   0.516
 1481TIP3    H2 4401   7.224   4.986   0.468
 1482TIP3   OH2 4402   5.410   0.275   2.834
 1482TIP3    H1 4403   5.351   0.205   2.863
 1482TIP3    H2 4404   5.356   0.354   2.840
 1483TIP3   OH2 4405   0.935   1.512   0.656
 1483TIP3    H1 4406   0.989   1.433   0.655
 1483TIP3    H2 4407   0.845   1.480   0.657
 1484TIP3   OH2 4408   3.061   1.420   1.814
 1484TIP3    H1 4409   3.037   1.493   1.756
 1484TIP3    H2 4410   3.089   1.350   1.754
 1485TIP3   OH2 4411   4.213   5.462   2.811
 1485TIP3    H1 4412   4.159   5.484   2.736
 1485TIP3    H2 4413   4.302   5.457   2.776
 1486TIP3   OH2 4414   1.604   2.540   2.913
 1486TIP3    H1 4415   1.556   2.607   2.962
 1486TIP3    H2 4416   1.695   2.567   2.919
 1487TIP3   OH2 4417   6.345   7.710   4.977
 1487TIP3    H1 4418   6.406   7.681   5.045
 1487TIP3    H2 4419   6.353   7.644   4.908
 1488TIP3   OH2 4420   6.179   7.664   2.524
 1488TIP3    H1 4421   6.253   7.625   2.570
 1488TIP3    H2 4422   6.129   7.590   2.492
 1489TIP3   OH2 4423   2.310   0.357   2.917
 1489TIP3    H1 4424   2.300   0.401   3.001
 1489TIP3    H2 4425   2.326   0.265   2.941
 1490TIP3   OH2 4426   3.033   4.452   0.748
 1490TIP3    H1 4427   3.030   4.370   0.698
 1490TIP3    H2 4428   2.946   4.459   0.788
 1491TIP3   OH2 4429   1.119   2.980   0.171
 1491TIP3    H1 4430   1.100   2.887   0.189
 1491TIP3    H2 4431   1.074   2.998   0.089
 1492TIP3   OH2 4432   5.491   6.932   2.108
 1492TIP3    H1 4433   5.541   7.013   2.109
 1492TIP3    H2 4434   5.490   6.904   2.200
 1493TIP3   OH2 4435   7.601   2.697   3.289
 1493TIP3    H1 4436   7.564   2.785   3.274
 1493TIP3    H2 4437   7.694   2.707   3.269
 1494TIP3   OH2 4438   8.237   7.348   3.425
 1494TIP3    H1 4439   8.283   7.309   3.351
 1494TIP3    H2 4440   8.148   7.312   3.419
 1495TIP3   OH2 4441   6.858   4.150   0.768
 1495TIP3    H1 4442   6.833   4.213   0.835
 1495TIP3    H2 4443   6.779   4.141   0.714
 1496TIP3   OH2 4444   0.199   5.427   4.630
 1496TIP3    H1 4445   0.174   5.362   4.564
 1496TIP3    H2 4446   0.280   5.393   4.668
 1497TIP3   OH2 4447   6.396   7.604   2.696
 1497TIP3    H1 4448   6.382   7.545   2.770
 1497TIP3    H2 4449   6.412   7.689   2.736
 1498TIP3   OH2 4450   6.385   6.815   2.890
 1498TIP3    H1 4451   6.420   6.756   2.823
 1498TIP3    H2 4452   6.427   6.785   2.971
 1499TIP3   OH2 4453   3.684   2.023   2.688
 1499TIP3    H1 4454   3.735   2.038   2.768
 1499TIP3    H2 4455   3.599   1.991   2.720
 1500TIP3   OH2 4456   6.419   6.560   0.337
 1500TIP3    H1 4457   6.357   6.632   0.349
 1500TIP3    H2 4458   6.388   6.514   0.260
 1501TIP3   OH2 4459   7.141   5.593   2.990
 1501TIP3    H1 4460   7.221   5.638   3.018
 1501TIP3    H2 4461   7.075   5.619   3.054
 1502TIP3   OH2 4462   3.911   6.015   5.920
 1502TIP3    H1 4463   3.925   6.096   5.870
 1502TIP3    H2 4464   3.981   5.957   5.890
 1503TIP3   OH2 4465   0.715   3.639   4.456
 1503TIP3    H1 4466   0.731   3.670   4.546
 1503TIP3    H2 4467   0.699   3.719   4.406
 1504TIP3   OH2 4468   0.449   2.906   0.182
 1504TIP3    H1 4469   0.449   2.958   0.262
 1504TIP3    H2 4470   0.522   2.941   0.131
 1505TIP3   OH2 4471   4.239   6.973   2.761
 1505TIP3    H1 4472   4.157   6.978   2.712
 1505TIP3    H2 4473   4.213   6.956   2.851
 1506TIP3   OH2 4474   6.693   1.634   3.948
 1506TIP3    H1 4475   6.608   1.647   3.905
 1506TIP3    H2 4476   6.748   1.704   3.913
 1507TIP3   OH2 4477   6.101   2.426   6.069
 1507TIP3    H1 4478   6.082   2.516   6.096
 1507TIP3    H2 4479   6.106   2.431   5.974
 1508TIP3   OH2 4480   1.702   1.231   1.914
 1508TIP3    H1 4481   1.684   1.197   1.826
 1508TIP3    H2 4482   1.664   1.166   1.973
 1509TIP3   OH2 4483   5.071   6.641   4.138
 1509TIP3    H1 4484   5.115   6.646   4.053
 1509TIP3    H2 4485   5.041   6.730   4.154
 1510TIP3   OH2 4486   0.230   2.127   2.669
 1510TIP3    H1 4487   0.204   2.036   2.660
 1510TIP3    H2 4488   0.172   2.162   2.737
 1511TIP3   OH2 4489   5.927   1.320   0.128
 1511TIP3    H1 4490   6.012   1.290   0.159
 1511TIP3    H2 4491   5.941   1.411   0.103
 1512TIP3   OH2 4492   1.960   7.791   1.436
 1512TIP3    H1 4493   1.989   7.707   1.401
 1512TIP3    H2 4494   2.012   7.804   1.515
 1513TIP3   OH2 4495   5.360   7.563   6.364
 1513TIP3    H1 4496   5.452   7.570   6.389
 1513TIP3    H2 4497   5.314   7.616   6.429
 1514TIP3   OH2 4498   0.574   5.629   4.458
 1514TIP3    H1 4499   0.660   5.600   4.488
 1514TIP3    H2 4500   0.587   5.720   4.432
 1515TIP3   OH2 4501   4.125   1.011   0.799
 1515TIP3    H1 4502   4.211   0.975   0.820
 1515TIP3    H2 4503   4.066   0.972   0.864
 1516TIP3   OH2 4504   1.927   2.526   5.542
 1516TIP3    H1 4505   1.952   2.520   5.449
 1516TIP3    H2 4506   2.010   2.518   5.589
 1517TIP3   OH2 4507   8.061   5.690   0.248
 1517TIP3    H1 4508   8.010   5.633   0.305
 1517TIP3    H2 4509   8.119   5.631   0.201
 1518TIP3   OH2 4510   2.041   3.211   5.776
 1518TIP3    H1 4511   2.093   3.135   5.751
 1518TIP3    H2 4512   1.973   3.217   5.708
 1519TIP3   OH2 4513   5.943   7.774   3.482
 1519TIP3    H1 4514   5.960   7.725   3.401
 1519TIP3    H2 4515   5.861   7.821   3.466
 1520TIP3   OH2 4516   7.955   1.674   5.525
 1520TIP3    H1 4517   7.992   1.587   5.538
 1520TIP3    H2 4518   7.906   1.668   5.443
 1521TIP3   OH2 4519   1.175   3.556   2.521
 1521TIP3    H1 4520   1.194   3.593   2.606
 1521TIP3    H2 4521   1.218   3.470   2.521
 1522TIP3   OH2 4522   4.892   6.546   0.834
 1522TIP3    H1 4523   4.979   6.568   0.802
 1522TIP3    H2 4524   4.891   6.577   0.924
 1523TIP3   OH2 4525   7.181   2.893   3.360
 1523TIP3    H1 4526   7.090   2.874   3.337
 1523TIP3    H2 4527   7.217   2.810   3.388
 1524TIP3   OH2 4528   1.571   4.175   3.958
 1524TIP3    H1 4529   1.509   4.233   3.913
 1524TIP3    H2 4530   1.646   4.230   3.979
 1525TIP3   OH2 4531   7.210   7.591   5.225
 1525TIP3    H1 4532   7.243   7.502   5.209
 1525TIP3    H2 4533   7.262   7.621   5.300
 1526TIP3   OH2 4534   7.108   5.861   0.248
 1526TIP3    H1 4535   7.023   5.860   0.205
 1526TIP3    H2 4536   7.151   5.781   0.217
 1527TIP3   OH2 4537   4.411   5.752   3.108
 1527TIP3    H1 4538   4.404   5.843   3.136
 1527TIP3    H2 4539   4.433   5.758   3.015
 1528TIP3   OH2 4540   7.465   1.746   1.849
 1528TIP3    H1 4541   7.511   1.736   1.932
 1528TIP3    H2 4542   7.386   1.693   1.858
 1529TIP3   OH2 4543   1.736   0.157   1.272
 1529TIP3    H1 4544   1.670   0.226   1.279
 1529TIP3    H2 4545   1.696   0.080   1.313
 1530TIP3   OH2 4546   2.731   2.891   1.277
 1530TIP3    H1 4547   2.660   2.915   1.336
 1530TIP3    H2 4548   2.786   2.969   1.273
 1531TIP3   OH2 4549   5.735   1.536   6.226
 1531TIP3    H1 4550   5.767   1.448   6.247
 1531TIP3    H2 4551   5.813   1.591   6.225
 1532TIP3   OH2 4552   3.097   4.664   4.442
 1532TIP3    H1 4553   3.108   4.570   4.427
 1532TIP3    H2 4554   3.028   4.689   4.380
 1533TIP3   OH2 4555   5.901   1.055   0.745
 1533TIP3    H1 4556   5.990   1.057   0.782
 1533TIP3    H2 4557   5.861   1.136   0.778
 1534TIP3   OH2 4558   8.184   5.666   5.791
 1534TIP3    H1 4559   8.215   5.695   5.877
 1534TIP3    H2 4560   8.195   5.743   5.735
 1535TIP3   OH2 4561   7.771   1.387   0.081
 1535TIP3    H1 4562   7.776   1.467   0.133
 1535TIP3    H2 4563   7.842   1.332   0.114
 1536TIP3   OH2 4564   2.476   2.069   0.356
 1536TIP3    H1 4565   2.439   2.052   0.442
 1536TIP3    H2 4566   2.556   2.118   0.373
 1537TIP3   OH2 4567   4.855   6.695   0.505
 1537TIP3    H1 4568   4.858   6.735   0.418
 1537TIP3    H2 4569   4.855   6.769   0.566
 1538TIP3   OH2 4570   1.012   4.333   2.905
 1538TIP3    H1 4571   0.970   4.418   2.916
 1538TIP3    H2 4572   0.978   4.300   2.821
 1539TIP3   OH2 4573   7.935   0.911   2.848
 1539TIP3    H1 4574   7.875   0.836   2.855
 1539TIP3    H2 4575   7.984   0.910   2.931
 1540TIP3   OH2 4576   1.887   2.817   2.084
 1540TIP3    H1 4577   1.960   2.768   2.121
 1540TIP3    H2 4578   1.904   2.908   2.110
 1541TIP3   OH2 4579   1.095   5.217   6.318
 1541TIP3    H1 4580   1.114   5.135   6.273
 1541TIP3    H2 4581   1.010   5.244   6.282
 1542TIP3   OH2 4582   0.862   2.351   6.603
 1542TIP3    H1 4583   0.771   2.367   6.628
 1542TIP3    H2 4584   0.859   2.269   6.552
 1543TIP3   OH2 4585   1.367   2.740   0.362
 1543TIP3    H1 4586   1.367   2.671   0.428
 1543TIP3    H2 4587   1.291   2.793   0.384
 1544TIP3   OH2 4588   7.228   2.875   5.746
 1544TIP3    H1 4589   7.306   2.870   5.691
 1544TIP3    H2 4590   7.155   2.878   5.685
 1545TIP3   OH2 4591   5.154   4.380   2.067
 1545TIP3    H1 4592   5.180   4.343   1.982
 1545TIP3    H2 4593   5.079   4.327   2.094
 1546TIP3   OH2 4594   3.983   1.294   5.252
 1546TIP3    H1 4595   3.927   1.301   5.175
 1546TIP3    H2 4596   3.999   1.200   5.262
 1547TIP3   OH2 4597   7.188   7.090   2.006
 1547TIP3    H1 4598   7.241   7.037   1.946
 1547TIP3    H2 4599   7.142   7.152   1.950
 1548TIP3   OH2 4600   7.464   7.771   4.059
 1548TIP3    H1 4601   7.373   7.799   4.048
 1548TIP3    H2 4602   7.515   7.852   4.058
 1549TIP3   OH2 4603   6.758   0.229   2.969
 1549TIP3    H1 4604   6.718   0.247   2.884
 1549TIP3    H2 4605   6.696   0.264   3.033
 1550TIP3   OH2 4606   6.827   4.464   0.524
 1550TIP3    H1 4607   6.770   4.452   0.600
 1550TIP3    H2 4608   6.898   4.400   0.536
 1551TIP3   OH2 4609   1.837   6.041   2.102
 1551TIP3    H1 4610   1.850   5.948   2.121
 1551TIP3    H2 4611   1.788   6.074   2.176
 1552TIP3   OH2 4612   4.806   1.616   1.658
 1552TIP3    H1 4613   4.862   1.607   1.735
 1552TIP3    H2 4614   4.866   1.607   1.584
 1553TIP3   OH2 4615   7.707   6.782   2.163
 1553TIP3    H1 4616   7.781   6.773   2.104
 1553TIP3    H2 4617   7.670   6.868   2.144
 1554TIP3   OH2 4618   0.585   5.497   6.316
 1554TIP3    H1 4619   0.587   5.582   6.360
 1554TIP3    H2 4620   0.676   5.478   6.297
 1555TIP3   OH2 4621   5.135   7.244   2.974
 1555TIP3    H1 4622   5.152   7.238   3.068
 1555TIP3    H2 4623   5.211   7.202   2.933
 1556TIP3   OH2 4624   6.824   3.022   1.645
 1556TIP3    H1 4625   6.891   2.967   1.606
 1556TIP3    H2 4626   6.774   2.963   1.701
 1557TIP3   OH2 4627   3.035   0.135   4.137
 1557TIP3    H1 4628   3.087   0.062   4.170
 1557TIP3    H2 4629   3.061   0.145   4.046
 1558TIP3   OH2 4630   4.158   5.821   5.793
 1558TIP3    H1 4631   4.214   5.898   5.806
 1558TIP3    H2 4632   4.153   5.811   5.698
 1559TIP3   OH2 4633   0.141   3.905   2.831
 1559TIP3    H1 4634   0.068   3.874   2.777
 1559TIP3    H2 4635   0.120   3.997   2.849
 1560TIP3   OH2 4636   8.155   4.581   3.740
 1560TIP3    H1 4637   8.167   4.598   3.647
 1560TIP3    H2 4638   8.237   4.611   3.781
 1561TIP3   OH2 4639   2.233   6.414   3.013
 1561TIP3    H1 4640   2.203   6.405   2.922
 1561TIP3    H2 4641   2.185   6.490   3.046
 1562TIP3   OH2 4642   4.405   6.707   1.276
 1562TIP3    H1 4643   4.310   6.705   1.270
 1562TIP3    H2 4644   4.435   6.670   1.193
 1563TIP3   OH2 4645   3.306   6.501   4.560
 1563TIP3    H1 4646   3.353   6.521   4.479
 1563TIP3    H2 4647   3.215   6.488   4.533
 1564TIP3   OH2 4648   1.513   0.642   5.141
 1564TIP3    H1 4649   1.497   0.639   5.236
 1564TIP3    H2 4650   1.530   0.551   5.117
 1565TIP3   OH2 4651   4.016   3.122   4.532
 1565TIP3    H1 4652   4.026   3.028   4.521
 1565TIP3    H2 4653   4.030   3.138   4.625
 1566TIP3   OH2 4654   1.224   4.384   1.082
 1566TIP3    H1 4655   1.197   4.410   1.170
 1566TIP3    H2 4656   1.311   4.346   1.093
 1567TIP3   OH2 4657   0.116   5.108   1.404
 1567TIP3    H1 4658   0.172   5.030   1.412
 1567TIP3    H2 4659   0.051   5.084   1.337
 1568TIP3   OH2 4660   4.269   7.772   5.908
 1568TIP3    H1 4661   4.364   7.760   5.903
 1568TIP3    H2 4662   4.246   7.813   5.824
 1569TIP3   OH2 4663   6.854   4.452   3.656
 1569TIP3    H1 4664   6.881   4.371   3.612
 1569TIP3    H2 4665   6.870   4.434   3.749
 1570TIP3   OH2 4666   4.937   4.609   3.164
 1570TIP3    H1 4667   5.015   4.649   3.204
 1570TIP3    H2 4668   4.969   4.527   3.126
 1571TIP3   OH2 4669   1.616   6.970   5.454
 1571TIP3    H1 4670   1.662   7.019   5.522
 1571TIP3    H2 4671   1.547   7.029   5.425
 1572TIP3   OH2 4672   6.710   6.567   0.374
 1572TIP3    H1 4673   6.724   6.509   0.449
 1572TIP3    H2 4674   6.615   6.569   0.363
 1573TIP3   OH2 4675   1.409   5.866   3.077
 1573TIP3    H1 4676   1.415   5.851   2.983
 1573TIP3    H2 4677   1.465   5.799   3.116
 1574TIP3   OH2 4678   8.291   4.162   2.901
 1574TIP3    H1 4679   8.291   4.198   2.812
 1574TIP3    H2 4680   8.283   4.239   2.958
 1575TIP3   OH2 4681   2.495   1.923   6.342
 1575TIP3    H1 4682   2.538   1.995   6.388
 1575TIP3    H2 4683   2.504   1.848   6.400
 1576TIP3   OH2 4684   6.094   2.816   2.159
 1576TIP3    H1 4685   6.112   2.725   2.181
 1576TIP3    H2 4686   6.179   2.860   2.165
 1577TIP3   OH2 4687   6.829   2.194   0.649
 1577TIP3    H1 4688   6.743   2.235   0.663
 1577TIP3    H2 4689   6.817   2.137   0.573
 1578TIP3   OH2 4690   6.848   5.870   1.231
 1578TIP3    H1 4691   6.885   5.812   1.298
 1578TIP3    H2 4692   6.924   5.904   1.185
 1579TIP3   OH2 4693   5.175   2.402   5.551
 1579TIP3    H1 4694   5.260   2.358   5.549
 1579TIP3    H2 4695   5.113   2.334   5.578
 1580TIP3   OH2 4696   5.676   7.646   5.083
 1580TIP3    H1 4697   5.728   7.584   5.134
 1580TIP3    H2 4698   5.732   7.668   5.008
 1581TIP3   OH2 4699   6.443   4.840   1.158
 1581TIP3    H1 4700   6.478   4.763   1.203
 1581TIP3    H2 4701   6.353   4.847   1.189
 1582TIP3   OH2 4702   3.199   2.714   3.024
 1582TIP3    H1 4703   3.231   2.733   2.936
 1582TIP3    H2 4704   3.188   2.801   3.064
 1583TIP3   OH2 4705   4.772   1.845   4.339
 1583TIP3    H1 4706   4.845   1.785   4.352
 1583TIP3    H2 4707   4.694   1.791   4.351
 1584TIP3   OH2 4708   4.485   2.087   0.962
 1584TIP3    H1 4709   4.468   2.181   0.967
 1584TIP3    H2 4710   4.482   2.066   0.869
 1585TIP3   OH2 4711   4.986   0.219   1.892
 1585TIP3    H1 4712   4.941   0.279   1.832
 1585TIP3    H2 4713   5.018   0.275   1.963
 1586TIP3   OH2 4714   2.124   2.118   6.051
 1586TIP3    H1 4715   2.147   2.088   5.963
 1586TIP3    H2 4716   2.056   2.184   6.037
 1587TIP3   OH2 4717   6.282   0.058   3.383
 1587TIP3    H1 4718   6.229   0.137   3.369
 1587TIP3    H2 4719   6.369   0.092   3.404
 1588TIP3   OH2 4720   3.339   3.591   3.378
 1588TIP3    H1 4721   3.299   3.574   3.293
 1588TIP3    H2 4722   3.309   3.679   3.401
 1589TIP3   OH2 4723   7.674   6.511   0.366
 1589TIP3    H1 4724   7.634   6.566   0.299
 1589TIP3    H2 4725   7.733   6.453   0.318
 1590TIP3   OH2 4726   1.169   2.417   1.922
 1590TIP3    H1 4727   1.231   2.360   1.877
 1590TIP3    H2 4728   1.219   2.496   1.942
 1591TIP3   OH2 4729   4.284   5.809   3.812
 1591TIP3    H1 4730   4.239   5.725   3.803
 1591TIP3    H2 4731   4.376   5.786   3.823
 1592TIP3   OH2 4732   5.246   4.924   2.202
 1592TIP3    H1 4733   5.328   4.905   2.156
 1592TIP3    H2 4734   5.273   4.960   2.286
 1593TIP3   OH2 4735   1.336   7.163   1.278
 1593TIP3    H1 4736   1.392   7.166   1.356
 1593TIP3    H2 4737   1.384   7.213   1.212
 1594TIP3   OH2 4738   2.948   5.246   3.294
 1594TIP3    H1 4739   2.859   5.277   3.274
 1594TIP3    H2 4740   2.957   5.260   3.388
 1595TIP3   OH2 4741   3.724   2.740   4.230
 1595TIP3    H1 4742   3.806   2.787   4.217
 1595TIP3    H2 4743   3.704   2.751   4.323
 1596TIP3   OH2 4744   1.223   3.126   4.129
 1596TIP3    H1 4745   1.162   3.199   4.128
 1596TIP3    H2 4746   1.305   3.163   4.163
 1597TIP3   OH2 4747   1.919   2.430   0.238
 1597TIP3    H1 4748   2.014   2.425   0.232
 1597TIP3    H2 4749   1.896   2.513   0.195
 1598TIP3   OH2 4750   4.149   1.656   6.063
 1598TIP3    H1 4751   4.195   1.596   6.004
 1598TIP3    H2 4752   4.077   1.691   6.010
 1599TIP3   OH2 4753   0.857   3.139   6.641
 1599TIP3    H1 4754   0.814   3.110   6.561
 1599TIP3    H2 4755   0.858   3.062   6.697
 1600TIP3   OH2 4756   1.581   4.312   2.566
 1600TIP3    H1 4757   1.535   4.236   2.533
 1600TIP3    H2 4758   1.654   4.325   2.505
 1601TIP3   OH2 4759   0.035   0.502   2.745
 1601TIP3    H1 4760   0.106   0.444   2.718
 1601TIP3    H2 4761   0.039   0.575   2.682
 1602TIP3   OH2 4762   4.633   2.635   3.591
 1602TIP3    H1 4763   4.702   2.699   3.610
 1602TIP3    H2 4764   4.652   2.561   3.648
 1603TIP3   OH2 4765   2.733   3.046   6.084
 1603TIP3    H1 4766   2.826   3.042   6.060
 1603TIP3    H2 4767   2.733   3.076   6.175
 1604TIP3   OH2 4768   1.602   4.115   2.988
 1604TIP3    H1 4769   1.551   4.144   3.063
 1604TIP3    H2 4770   1.539   4.068   2.934
 1605TIP3   OH2 4771   5.023   4.340   3.082
 1605TIP3    H1 4772   4.958   4.272   3.066
 1605TIP3    H2 4773   5.059   4.359   2.995
 1606TIP3   OH2 4774   0.758   2.254   6.036
 1606TIP3    H1 4775   0.676   2.205   6.027
 1606TIP3    H2 4776   0.820   2.192   6.075
 1607TIP3   OH2 4777   4.030   3.224   1.266
 1607TIP3    H1 4778   3.999   3.148   1.217
 1607TIP3    H2 4779   4.125   3.215   1.268
 1608TIP3   OH2 4780   0.940   1.742   5.882
 1608TIP3    H1 4781   0.970   1.818   5.831
 1608TIP3    H2 4782   1.000   1.672   5.857
 1609TIP3   OH2 4783   3.536   7.795   2.797
 1609TIP3    H1 4784   3.453   7.753   2.773
 1609TIP3    H2 4785   3.573   7.822   2.713
 1610TIP3   OH2 4786   5.847   4.211   4.660
 1610TIP3    H1 4787   5.790   4.275   4.704
 1610TIP3    H2 4788   5.876   4.153   4.730
 1611TIP3   OH2 4789   2.970   2.324   6.608
 1611TIP3    H1 4790   2.950   2.267   6.534
 1611TIP3    H2 4791   2.958   2.413   6.573
 1612TIP3   OH2 4792   0.764   7.170   5.003
 1612TIP3    H1 4793   0.699   7.099   5.004
 1612TIP3    H2 4794   0.756   7.209   4.916
 1613TIP3   OH2 4795   7.478   6.620   4.612
 1613TIP3    H1 4796   7.437   6.638   4.696
 1613TIP3    H2 4797   7.566   6.590   4.634
 1614TIP3   OH2 4798   0.625   5.416   1.603
 1614TIP3    H1 4799   0.543   5.466   1.604
 1614TIP3    H2 4800   0.610   5.346   1.667
 1615TIP3   OH2 4801   4.489   6.947   0.778
 1615TIP3    H1 4802   4.513   7.023   0.725
 1615TIP3    H2 4803   4.456   6.883   0.716
 1616TIP3   OH2 4804   2.887   5.329   5.597
 1616TIP3    H1 4805   2.918   5.290   5.515
 1616TIP3    H2 4806   2.830   5.400   5.570
 1617TIP3   OH2 4807   3.995   4.516   0.874
 1617TIP3    H1 4808   4.049   4.593   0.858
 1617TIP3    H2 4809   4.004   4.463   0.795
 1618TIP3   OH2 4810   0.793   2.556   5.246
 1618TIP3    H1 4811   0.778   2.650   5.260
 1618TIP3    H2 4812   0.739   2.534   5.170
 1619TIP3   OH2 4813   7.550   1.650   1.072
 1619TIP3    H1 4814   7.624   1.694   1.031
 1619TIP3    H2 4815   7.493   1.626   0.999
 1620TIP3   OH2 4816   1.369   2.101   3.079
 1620TIP3    H1 4817   1.284   2.110   3.037
 1620TIP3    H2 4818   1.409   2.187   3.071
 1621TIP3   OH2 4819   1.998   6.970   6.343
 1621TIP3    H1 4820   1.902   6.972   6.339
 1621TIP3    H2 4821   2.019   6.997   6.432
 1622TIP3   OH2 4822   4.175   0.430   5.374
 1622TIP3    H1 4823   4.097   0.378   5.394
 1622TIP3    H2 4824   4.212   0.388   5.297
 1623TIP3   OH2 4825   2.427   6.787   3.166
 1623TIP3    H1 4826   2.436   6.842   3.243
 1623TIP3    H2 4827   2.472   6.705   3.189
 1624TIP3   OH2 4828   6.061   1.026   5.082
 1624TIP3    H1 4829   6.131   1.051   5.141
 1624TIP3    H2 4830   6.088   0.941   5.047
 1625TIP3   OH2 4831   3.792   5.018   5.780
 1625TIP3    H1 4832   3.812   4.998   5.872
 1625TIP3    H2 4833   3.817   4.938   5.733
 1626TIP3   OH2 4834   2.455   1.355   0.821
 1626TIP3    H1 4835   2.495   1.283   0.869
 1626TIP3    H2 4836   2.362   1.335   0.821
 1627TIP3   OH2 4837   5.515   6.286   6.348
 1627TIP3    H1 4838   5.593   6.229   6.347
 1627TIP3    H2 4839   5.536   6.356   6.286
 1628TIP3   OH2 4840   2.678   0.515   5.052
 1628TIP3    H1 4841   2.726   0.432   5.060
 1628TIP3    H2 4842   2.746   0.582   5.059
 1629TIP3   OH2 4843   1.083   5.819   0.078
 1629TIP3    H1 4844   1.172   5.850   0.096
 1629TIP3    H2 4845   1.092   5.723   0.076
 1630TIP3   OH2 4846   7.318   4.385   5.322
 1630TIP3    H1 4847   7.359   4.399   5.407
 1630TIP3    H2 4848   7.238   4.336   5.343
 1631TIP3   OH2 4849   7.872   7.492   5.486
 1631TIP3    H1 4850   7.902   7.487   5.396
 1631TIP3    H2 4851   7.866   7.585   5.505
 1632TIP3   OH2 4852   8.255   4.945   5.127
 1632TIP3    H1 4853   8.252   4.856   5.164
 1632TIP3    H2 4854   8.194   4.995   5.181
 1633TIP3   OH2 4855   7.157   4.011   5.800
 1633TIP3    H1 4856   7.219   4.030   5.729
 1633TIP3    H2 4857   7.203   4.036   5.880
 1634TIP3   OH2 4858   5.284   6.874   1.808
 1634TIP3    H1 4859   5.249   6.792   1.843
 1634TIP3    H2 4860   5.370   6.851   1.774
 1635TIP3   OH2 4861   5.742   0.851   2.524
 1635TIP3    H1 4862   5.809   0.793   2.559
 1635TIP3    H2 4863   5.790   0.925   2.488
 1636TIP3   OH2 4864   2.345   0.090   1.526
 1636TIP3    H1 4865   2.336   0.037   1.605
 1636TIP3    H2 4866   2.292   0.045   1.461
 1637TIP3   OH2 4867   5.341   3.534   4.296
 1637TIP3    H1 4868   5.368   3.508   4.208
 1637TIP3    H2 4869   5.350   3.629   4.297
 1638TIP3   OH2 4870   5.536   0.622   1.549
 1638TIP3    H1 4871   5.566   0.602   1.637
 1638TIP3    H2 4872   5.523   0.537   1.508
 1639TIP3   OH2 4873   5.709   0.806   6.256
 1639TIP3    H1 4874   5.631   0.769   6.296
 1639TIP3    H2 4875   5.677   0.860   6.184
 1640TIP3   OH2 4876   6.112   6.622   1.712
 1640TIP3    H1 4877   6.129   6.715   1.699
 1640TIP3    H2 4878   6.121   6.608   1.806
 1641TIP3   OH2 4879   2.306   5.887   3.593
 1641TIP3    H1 4880   2.321   5.792   3.594
 1641TIP3    H2 4881   2.327   5.913   3.503
 1642TIP3   OH2 4882   0.551   1.042   5.652
 1642TIP3    H1 4883   0.554   1.030   5.747
 1642TIP3    H2 4884   0.642   1.058   5.627
 1643TIP3   OH2 4885   5.373   6.576   4.867
 1643TIP3    H1 4886   5.295   6.525   4.844
 1643TIP3    H2 4887   5.346   6.627   4.943
 1644TIP3   OH2 4888   0.642   0.088   6.248
 1644TIP3    H1 4889   0.570   0.103   6.310
 1644TIP3    H2 4890   0.687   0.011   6.282
 1645TIP3   OH2 4891   3.696   1.468   5.143
 1645TIP3    H1 4892   3.684   1.386   5.095
 1645TIP3    H2 4893   3.637   1.529   5.099
 1646TIP3   OH2 4894   2.804   1.031   4.012
 1646TIP3    H1 4895   2.887   1.062   4.048
 1646TIP3    H2 4896   2.753   1.004   4.088
 1647TIP3   OH2 4897   8.001   2.445   2.629
 1647TIP3    H1 4898   8.086   2.471   2.595
 1647TIP3    H2 4899   7.966   2.385   2.562
 1648TIP3   OH2 4900   6.513   2.298   6.549
 1648TIP3    H1 4901   6.523   2.273   6.457
 1648TIP3    H2 4902   6.593   2.268   6.591
 1649TIP3   OH2 4903   4.504   4.209   1.442
 1649TIP3    H1 4904   4.495   4.260   1.523
 1649TIP3    H2 4905   4.594   4.177   1.445
 1650TIP3   OH2 4906   7.531   6.412   0.575
 1650TIP3    H1 4907   7.575   6.460   0.505
 1650TIP3    H2 4908   7.518   6.477   0.645
 1651TIP3   OH2 4909   3.298   6.023   3.290
 1651TIP3    H1 4910   3.265   5.967   3.219
 1651TIP3    H2 4911   3.289   5.969   3.369
 1652TIP3   OH2 4912   2.530   7.421   5.039
 1652TIP3    H1 4913   2.469   7.350   5.057
 1652TIP3    H2 4914   2.616   7.387   5.064
 1653TIP3   OH2 4915   7.881   2.931   5.898
 1653TIP3    H1 4916   7.891   3.019   5.934
 1653TIP3    H2 4917   7.896   2.873   5.972
 1654TIP3   OH2 4918   0.321   2.664   5.237
 1654TIP3    H1 4919   0.291   2.622   5.157
 1654TIP3    H2 4920   0.241   2.678   5.288
 1655TIP3   OH2 4921   2.370   3.674   6.569
 1655TIP3    H1 4922   2.309   3.603   6.546
 1655TIP3    H2 4923   2.355   3.688   6.662
 1656TIP3   OH2 4924   2.602   6.377   6.331
 1656TIP3    H1 4925   2.512   6.346   6.320
 1656TIP3    H2 4926   2.594   6.452   6.390
 1657TIP3   OH2 4927   1.863   0.455   3.591
 1657TIP3    H1 4928   1.957   0.469   3.581
 1657TIP3    H2 4929   1.850   0.362   3.572
 1658TIP3   OH2 4930   0.526   5.993   3.492
 1658TIP3    H1 4931   0.505   6.027   3.580
 1658TIP3    H2 4932   0.610   5.948   3.504
 1659TIP3   OH2 4933   6.780   7.283   5.704
 1659TIP3    H1 4934   6.731   7.224   5.646
 1659TIP3    H2 4935   6.859   7.234   5.725
 1660TIP3   OH2 4936   0.100   0.956   5.638
 1660TIP3    H1 4937   0.052   0.997   5.710
 1660TIP3    H2 4938   0.043   0.884   5.609
 1661TIP3   OH2 4939   2.063   3.242   4.371
 1661TIP3    H1 4940   1.977   3.201   4.383
 1661TIP3    H2 4941   2.044   3.326   4.330
 1662TIP3   OH2 4942   4.877   4.356   1.094
 1662TIP3    H1 4943   4.832   4.351   1.010
 1662TIP3    H2 4944   4.962   4.315   1.079
 1663TIP3   OH2 4945   7.336   2.321   0.226
 1663TIP3    H1 4946   7.250   2.344   0.189
 1663TIP3    H2 4947   7.373   2.259   0.163
 1664TIP3   OH2 4948   3.376   1.843   2.461
 1664TIP3    H1 4949   3.333   1.924   2.486
 1664TIP3    H2 4950   3.424   1.865   2.381
 1665TIP3   OH2 4951   7.811   3.354   4.172
 1665TIP3    H1 4952   7.870   3.413   4.126
 1665TIP3    H2 4953   7.859   3.271   4.176
 1666TIP3   OH2 4954   6.790   7.570   1.614
 1666TIP3    H1 4955   6.744   7.536   1.690
 1666TIP3    H2 4956   6.821   7.492   1.568
 1667TIP3   OH2 4957   5.834   7.538   2.750
 1667TIP3    H1 4958   5.869   7.627   2.745
 1667TIP3    H2 4959   5.753   7.547   2.799
 1668TIP3   OH2 4960   7.158   4.896   3.822
 1668TIP3    H1 4961   7.087   4.925   3.765
 1668TIP3    H2 4962   7.115   4.874   3.905
 1669TIP3   OH2 4963   1.345   5.400   5.640
 1669TIP3    H1 4964   1.399   5.376   5.715
 1669TIP3    H2 4965   1.262   5.429   5.678
 1670TIP3   OH2 4966   1.740   7.727   3.487
 1670TIP3    H1 4967   1.804   7.689   3.546
 1670TIP3    H2 4968   1.668   7.663   3.484
 1671TIP3   OH2 4969   0.969   2.728   6.416
 1671TIP3    H1 4970   1.040   2.780   6.378
 1671TIP3    H2 4971   0.889   2.761   6.373
 1672TIP3   OH2 4972   5.519   3.857   0.237
 1672TIP3    H1 4973   5.536   3.854   0.331
 1672TIP3    H2 4974   5.516   3.950   0.216
 1673TIP3   OH2 4975   3.944   4.569   2.765
 1673TIP3    H1 4976   3.882   4.624   2.814
 1673TIP3    H2 4977   4.001   4.632   2.721
 1674TIP3   OH2 4978   2.971   4.740   0.704
 1674TIP3    H1 4979   2.988   4.656   0.662
 1674TIP3    H2 4980   2.878   4.756   0.688
 1675TIP3   OH2 4981   5.631   5.577   4.298
 1675TIP3    H1 4982   5.561   5.567   4.234
 1675TIP3    H2 4983   5.644   5.490   4.333
 1676TIP3   OH2 4984   6.768   2.770   6.218
 1676TIP3    H1 4985   6.802   2.681   6.228
 1676TIP3    H2 4986   6.790   2.813   6.300
 1677TIP3   OH2 4987   5.946   1.303   4.587
 1677TIP3    H1 4988   5.896   1.368   4.537
 1677TIP3    H2 4989   5.880   1.240   4.616
 1678TIP3   OH2 4990  -0.017   6.183   1.769
 1678TIP3    H1 4991   0.073   6.152   1.758
 1678TIP3    H2 4992  -0.063   6.152   1.690
 1679TIP3   OH2 4993   5.108   5.695   2.777
 1679TIP3    H1 4994   5.085   5.784   2.806
 1679TIP3    H2 4995   5.029   5.644   2.791
 1680TIP3   OH2 4996   3.892   5.469   4.032
 1680TIP3    H1 4997   3.842   5.550   4.022
 1680TIP3    H2 4998   3.909   5.464   4.126
 1681TIP3   OH2 4999   6.796   6.142   5.354
 1681TIP3    H1 5000   6.713   6.189   5.348
 1681TIP3    H2 5001   6.793   6.101   5.441
 1682TIP3   OH2 5002   4.544   0.124   4.155
 1682TIP3    H1 5003   4.514   0.041   4.120
 1682TIP3    H2 5004   4.532   0.186   4.084
 1683TIP3   OH2 5005   1.036   5.251   6.601
 1683TIP3    H1 5006   1.109   5.282   6.547
 1683TIP3    H2 5007   1.050   5.157   6.608
 1684TIP3   OH2 5008   5.457   5.717   4.852
 1684TIP3    H1 5009   5.397   5.749   4.919
 1684TIP3    H2 5010   5.432   5.626   4.839
 1685TIP3   OH2 5011   0.946   4.661   0.613
 1685TIP3    H1 5012   0.907   4.682   0.698
 1685TIP3    H2 5013   1.032   4.624   0.634
 1686TIP3   OH2 5014   4.462   6.697   5.766
 1686TIP3    H1 5015   4.448   6.782   5.725
 1686TIP3    H2 5016   4.432   6.633   5.701
 1687TIP3   OH2 5017   1.651   5.115   4.012
 1687TIP3    H1 5018   1.696   5.077   3.937
 1687TIP3    H2 5019   1.640   5.208   3.990
 1688TIP3   OH2 5020   5.649   4.360   4.922
 1688TIP3    H1 5021   5.700   4.437   4.949
 1688TIP3    H2 5022   5.563   4.395   4.899
 1689TIP3   OH2 5023   4.135   6.460   1.082
 1689TIP3    H1 5024   4.155   6.445   0.990
 1689TIP3    H2 5025   4.212   6.428   1.129
 1690TIP3   OH2 5026   6.338   7.339   5.441
 1690TIP3    H1 5027   6.311   7.420   5.396
 1690TIP3    H2 5028   6.372   7.284   5.371
 1691TIP3   OH2 5029   5.523   6.827   2.357
 1691TIP3    H1 5030   5.616   6.822   2.379
 1691TIP3    H2 5031   5.498   6.736   2.341
 1692TIP3   OH2 5032   1.452   7.095   3.589
 1692TIP3    H1 5033   1.540   7.111   3.624
 1692TIP3    H2 5034   1.394   7.142   3.649
 1693TIP3   OH2 5035   7.783   2.841   4.263
 1693TIP3    H1 5036   7.805   2.859   4.354
 1693TIP3    H2 5037   7.794   2.746   4.254
 1694TIP3   OH2 5038   7.080   5.859   5.483
 1694TIP3    H1 5039   7.103   5.952   5.475
 1694TIP3    H2 5040   6.986   5.860   5.502
 1695TIP3   OH2 5041   6.413   6.628   1.022
 1695TIP3    H1 5042   6.344   6.565   1.043
 1695TIP3    H2 5043   6.406   6.694   1.091
 1696TIP3   OH2 5044   3.959   3.751   3.485
 1696TIP3    H1 5045   4.038   3.724   3.438
 1696TIP3    H2 5046   3.973   3.718   3.574
 1697TIP3   OH2 5047   1.860   5.289   2.691
 1697TIP3    H1 5048   1.940   5.292   2.744
 1697TIP3    H2 5049   1.890   5.263   2.604
 1698TIP3   OH2 5050   6.119   1.632   3.163
 1698TIP3    H1 5051   6.143   1.539   3.163
 1698TIP3    H2 5052   6.024   1.632   3.153
 1699TIP3   OH2 5053   8.252   1.735   3.733
 1699TIP3    H1 5054   8.258   1.705   3.824
 1699TIP3    H2 5055   8.193   1.809   3.736
 1700TIP3   OH2 5056   5.891   6.623   5.440
 1700TIP3    H1 5057   5.932   6.676   5.371
 1700TIP3    H2 5058   5.815   6.584   5.399
 1701TIP3   OH2 5059   6.480   3.226   1.171
 1701TIP3    H1 5060   6.398   3.212   1.124
 1701TIP3    H2 5061   6.509   3.313   1.143
 1702TIP3   OH2 5062   2.375   0.869   1.055
 1702TIP3    H1 5063   2.295   0.853   1.105
 1702TIP3    H2 5064   2.446   0.837   1.112
 1703TIP3   OH2 5065   0.829   6.419   6.747
 1703TIP3    H1 5066   0.833   6.324   6.762
 1703TIP3    H2 5067   0.799   6.454   6.831
 1704TIP3   OH2 5068   3.672   1.351   1.993
 1704TIP3    H1 5069   3.695   1.371   1.903
 1704TIP3    H2 5070   3.745   1.385   2.045
 1705TIP3   OH2 5071   5.178   4.590   4.676
 1705TIP3    H1 5072   5.231   4.525   4.721
 1705TIP3    H2 5073   5.136   4.640   4.746
 1706TIP3   OH2 5074   5.436   4.838   6.472
 1706TIP3    H1 5075   5.435   4.744   6.491
 1706TIP3    H2 5076   5.447   4.879   6.557
 1707TIP3   OH2 5077   0.798   6.363   5.456
 1707TIP3    H1 5078   0.728   6.314   5.412
 1707TIP3    H2 5079   0.763   6.452   5.463
 1708TIP3   OH2 5080   4.274   2.102   0.732
 1708TIP3    H1 5081   4.209   2.089   0.663
 1708TIP3    H2 5082   4.258   2.190   0.766
 1709TIP3   OH2 5083   6.294   2.483   1.680
 1709TIP3    H1 5084   6.344   2.402   1.689
 1709TIP3    H2 5085   6.217   2.458   1.629
 1710TIP3   OH2 5086   6.275   5.099   4.320
 1710TIP3    H1 5087   6.329   5.141   4.253
 1710TIP3    H2 5088   6.223   5.171   4.357
 1711TIP3   OH2 5089   7.413   1.833   6.070
 1711TIP3    H1 5090   7.501   1.848   6.105
 1711TIP3    H2 5091   7.415   1.742   6.040
 1712TIP3   OH2 5092   7.206   4.609   1.394
 1712TIP3    H1 5093   7.181   4.531   1.444
 1712TIP3    H2 5094   7.242   4.574   1.312
 1713TIP3   OH2 5095   3.266   0.109   0.267
 1713TIP3    H1 5096   3.256   0.021   0.303
 1713TIP3    H2 5097   3.296   0.161   0.341
 1714TIP3   OH2 5098   6.902   2.938   6.466
 1714TIP3    H1 5099   6.871   3.003   6.403
 1714TIP3    H2 5100   6.848   2.951   6.544
 1715TIP3   OH2 5101   2.185   3.609   4.708
 1715TIP3    H1 5102   2.151   3.520   4.699
 1715TIP3    H2 5103   2.271   3.607   4.666
 1716TIP3   OH2 5104   7.103   4.283   5.036
 1716TIP3    H1 5105   7.047   4.265   4.960
 1716TIP3    H2 5106   7.055   4.247   5.110
 1717TIP3   OH2 5107   6.224   4.271   0.837
 1717TIP3    H1 5108   6.283   4.199   0.858
 1717TIP3    H2 5109   6.162   4.234   0.775
 1718TIP3   OH2 5110   2.635   6.487   3.879
 1718TIP3    H1 5111   2.715   6.440   3.904
 1718TIP3    H2 5112   2.582   6.488   3.958
 1719TIP3   OH2 5113   2.647   5.193   4.215
 1719TIP3    H1 5114   2.706   5.165   4.145
 1719TIP3    H2 5115   2.656   5.288   4.218
 1720TIP3   OH2 5116   0.686   7.483   0.549
 1720TIP3    H1 5117   0.639   7.490   0.632
 1720TIP3    H2 5118   0.760   7.543   0.559
 1721TIP3   OH2 5119   5.640   7.095   4.191
 1721TIP3    H1 5120   5.719   7.043   4.177
 1721TIP3    H2 5121   5.640   7.159   4.120
 1722TIP3   OH2 5122   7.281   4.403   0.653
 1722TIP3    H1 5123   7.353   4.365   0.602
 1722TIP3    H2 5124   7.319   4.479   0.696
 1723TIP3   OH2 5125   5.249   3.893   5.665
 1723TIP3    H1 5126   5.207   3.979   5.665
 1723TIP3    H2 5127   5.340   3.910   5.691
 1724TIP3   OH2 5128   8.293   0.765   5.075
 1724TIP3    H1 5129   8.302   0.697   5.009
 1724TIP3    H2 5130   8.279   0.718   5.157
 1725TIP3   OH2 5131   7.138   6.797   5.703
 1725TIP3    H1 5132   7.060   6.846   5.678
 1725TIP3    H2 5133   7.185   6.784   5.621
 1726TIP3   OH2 5134   7.152   7.516   1.521
 1726TIP3    H1 5135   7.170   7.539   1.612
 1726TIP3    H2 5136   7.106   7.432   1.526
 1727TIP3   OH2 5137   1.894   5.071   5.976
 1727TIP3    H1 5138   1.978   5.028   5.993
 1727TIP3    H2 5139   1.829   5.001   5.983
 1728TIP3   OH2 5140   5.402   5.384   2.985
 1728TIP3    H1 5141   5.315   5.396   2.947
 1728TIP3    H2 5142   5.403   5.443   3.061
 1729TIP3   OH2 5143   0.986   6.656   6.045
 1729TIP3    H1 5144   0.938   6.597   6.103
 1729TIP3    H2 5145   1.058   6.689   6.098
 1730TIP3   OH2 5146   1.711   3.772   1.786
 1730TIP3    H1 5147   1.753   3.692   1.817
 1730TIP3    H2 5148   1.758   3.794   1.705
 1731TIP3   OH2 5149   5.307   5.094   3.438
 1731TIP3    H1 5150   5.278   5.060   3.524
 1731TIP3    H2 5151   5.401   5.078   3.437
 1732TIP3   OH2 5152   3.307   7.351   2.560
 1732TIP3    H1 5153   3.401   7.371   2.561
 1732TIP3    H2 5154   3.296   7.283   2.627
 1733TIP3   OH2 5155  -0.006   1.485   1.445
 1733TIP3    H1 5156   0.036   1.402   1.421
 1733TIP3    H2 5157  -0.019   1.479   1.539
 1734TIP3   OH2 5158   5.530   7.005   3.378
 1734TIP3    H1 5159   5.606   6.957   3.411
 1734TIP3    H2 5160   5.477   7.021   3.456
 1735TIP3   OH2 5161   6.333   6.984   5.790
 1735TIP3    H1 5162   6.307   7.071   5.761
 1735TIP3    H2 5163   6.254   6.946   5.826
 1736TIP3   OH2 5164   1.446   2.263   2.033
 1736TIP3    H1 5165   1.416   2.263   1.942
 1736TIP3    H2 5166   1.390   2.199   2.077
 1737TIP3   OH2 5167   0.760   0.085   4.802
 1737TIP3    H1 5168   0.700   0.036   4.746
 1737TIP3    H2 5169   0.746   0.050   4.890
 1738TIP3   OH2 5170   1.189   2.059   4.419
 1738TIP3    H1 5171   1.175   2.008   4.339
 1738TIP3    H2 5172   1.104   2.097   4.439
 1739TIP3   OH2 5173   0.493   6.189   5.710
 1739TIP3    H1 5174   0.579   6.172   5.750
 1739TIP3    H2 5175   0.489   6.128   5.636
 1740TIP3   OH2 5176   3.644   5.867   3.752
 1740TIP3    H1 5177   3.551   5.843   3.755
 1740TIP3    H2 5178   3.685   5.798   3.699
 1741TIP3   OH2 5179   1.123   1.852   4.202
 1741TIP3    H1 5180   1.075   1.802   4.267
 1741TIP3    H2 5181   1.149   1.788   4.136
 1742TIP3   OH2 5182   6.446   0.903   6.167
 1742TIP3    H1 5183   6.495   0.867   6.242
 1742TIP3    H2 5184   6.439   0.830   6.106
 1743TIP3   OH2 5185   1.015   3.038   4.401
 1743TIP3    H1 5186   1.063   2.970   4.355
 1743TIP3    H2 5187   0.957   2.991   4.461
 1744TIP3   OH2 5188   6.931   4.303   0.189
 1744TIP3    H1 5189   7.005   4.298   0.249
 1744TIP3    H2 5190   6.966   4.271   0.105
 1745TIP3   OH2 5191   1.534   1.913   4.750
 1745TIP3    H1 5192   1.589   1.957   4.685
 1745TIP3    H2 5193   1.521   1.978   4.819
 1746TIP3   OH2 5194   1.992   0.046   5.510
 1746TIP3    H1 5195   1.900   0.070   5.499
 1746TIP3    H2 5196   2.034   0.075   5.429
 1747TIP3   OH2 5197   7.603   5.432   0.840
 1747TIP3    H1 5198   7.595   5.340   0.813
 1747TIP3    H2 5199   7.532   5.476   0.794
 1748TIP3   OH2 5200   1.448   5.523   3.649
 1748TIP3    H1 5201   1.500   5.540   3.728
 1748TIP3    H2 5202   1.434   5.429   3.650
 1749TIP3   OH2 5203   5.412   1.306   0.027
 1749TIP3    H1 5204   5.504   1.286   0.044
 1749TIP3    H2 5205   5.364   1.243   0.080
 1750TIP3   OH2 5206   7.374   5.207   3.249
 1750TIP3    H1 5207   7.457   5.211   3.296
 1750TIP3    H2 5208   7.392   5.153   3.172
 1751TIP3   OH2 5209   2.888   2.485   2.219
 1751TIP3    H1 5210   2.949   2.420   2.251
 1751TIP3    H2 5211   2.819   2.434   2.176
 1752TIP3   OH2 5212   2.128   0.059   5.947
 1752TIP3    H1 5213   2.153   0.021   6.031
 1752TIP3    H2 5214   2.032   0.063   5.951
 1753TIP3   OH2 5215   7.774   6.819   2.810
 1753TIP3    H1 5216   7.798   6.736   2.850
 1753TIP3    H2 5217   7.838   6.882   2.845
 1754TIP3   OH2 5218   7.737   1.386   2.558
 1754TIP3    H1 5219   7.716   1.468   2.512
 1754TIP3    H2 5220   7.747   1.412   2.649
 1755TIP3   OH2 5221   2.519   1.524   0.023
 1755TIP3    H1 5222   2.459   1.462  -0.018
 1755TIP3    H2 5223   2.583   1.544  -0.046
 1756TIP3   OH2 5224   2.765   4.739   2.044
 1756TIP3    H1 5225   2.844   4.725   1.991
 1756TIP3    H2 5226   2.693   4.717   1.985
 1757TIP3   OH2 5227   4.863   7.040   0.162
 1757TIP3    H1 5228   4.872   6.950   0.192
 1757TIP3    H2 5229   4.769   7.050   0.146
 1758TIP3   OH2 5230   7.229   2.284   0.919
 1758TIP3    H1 5231   7.310   2.245   0.888
 1758TIP3    H2 5232   7.197   2.336   0.845
 1759TIP3   OH2 5233   3.366   7.038   2.162
 1759TIP3    H1 5234   3.456   7.005   2.166
 1759TIP3    H2 5235   3.370   7.126   2.198
 1760TIP3   OH2 5236   6.409   4.526   0.299
 1760TIP3    H1 5237   6.492   4.490   0.267
 1760TIP3    H2 5238   6.388   4.474   0.376
 1761TIP3   OH2 5239   5.588   7.147   5.842
 1761TIP3    H1 5240   5.626   7.170   5.927
 1761TIP3    H2 5241   5.550   7.229   5.811
 1762TIP3   OH2 5242   0.990   0.841   5.803
 1762TIP3    H1 5243   0.931   0.897   5.853
 1762TIP3    H2 5244   0.966   0.752   5.828
 1763TIP3   OH2 5245   7.234   5.041   3.498
 1763TIP3    H1 5246   7.168   4.974   3.515
 1763TIP3    H2 5247   7.307   5.017   3.555
 1764TIP3   OH2 5248   6.266   2.935   1.369
 1764TIP3    H1 5249   6.360   2.953   1.359
 1764TIP3    H2 5250   6.230   3.019   1.399
 1765TIP3   OH2 5251   0.166   7.790   1.204
 1765TIP3    H1 5252   0.247   7.813   1.159
 1765TIP3    H2 5253   0.126   7.723   1.149
 1766TIP3   OH2 5254   7.111   1.114   5.833
 1766TIP3    H1 5255   7.186   1.114   5.774
 1766TIP3    H2 5256   7.110   1.202   5.871
 1767TIP3   OH2 5257   7.955   1.912   1.017
 1767TIP3    H1 5258   7.878   1.876   0.974
 1767TIP3    H2 5259   7.964   1.861   1.097
 1768TIP3   OH2 5260   0.611   4.086   1.846
 1768TIP3    H1 5261   0.546   4.054   1.783
 1768TIP3    H2 5262   0.669   4.012   1.861
 1769TIP3   OH2 5263   8.187   3.616   2.485
 1769TIP3    H1 5264   8.136   3.677   2.433
 1769TIP3    H2 5265   8.129   3.542   2.500
 1770TIP3   OH2 5266   2.034   3.484   6.627
 1770TIP3    H1 5267   2.078   3.505   6.545
 1770TIP3    H2 5268   1.944   3.461   6.601
 1771TIP3   OH2 5269   2.767   3.407   2.116
 1771TIP3    H1 5270   2.856   3.376   2.101
 1771TIP3    H2 5271   2.714   3.327   2.121
 1772TIP3   OH2 5272   5.239   3.047   2.253
 1772TIP3    H1 5273   5.291   3.096   2.190
 1772TIP3    H2 5274   5.175   3.000   2.200
 1773TIP3   OH2 5275   1.045   0.866   1.352
 1773TIP3    H1 5276   1.067   0.959   1.358
 1773TIP3    H2 5277   0.952   0.862   1.370
 1774TIP3   OH2 5278   7.463   7.339   5.463
 1774TIP3    H1 5279   7.439   7.428   5.438
 1774TIP3    H2 5280   7.395   7.311   5.524
 1775TIP3   OH2 5281   7.187   0.073   4.499
 1775TIP3    H1 5282   7.220  -0.004   4.544
 1775TIP3    H2 5283   7.211   0.146   4.557
 1776TIP3   OH2 5284   6.235   6.013   6.313
 1776TIP3    H1 5285   6.219   6.102   6.345
 1776TIP3    H2 5286   6.327   6.013   6.286
 1777TIP3   OH2 5287   0.319   4.688   6.580
 1777TIP3    H1 5288   0.310   4.639   6.498
 1777TIP3    H2 5289   0.402   4.735   6.570
 1778TIP3   OH2 5290   5.848   5.662   3.089
 1778TIP3    H1 5291   5.915   5.689   3.026
 1778TIP3    H2 5292   5.857   5.723   3.162
 1779TIP3   OH2 5293   3.221   7.415   5.187
 1779TIP3    H1 5294   3.310   7.390   5.163
 1779TIP3    H2 5295   3.166   7.346   5.150
 1780TIP3   OH2 5296   0.010   5.154   3.653
 1780TIP3    H1 5297  -0.015   5.079   3.600
 1780TIP3    H2 5298   0.106   5.156   3.648
 1781TIP3   OH2 5299   7.207   1.842   2.140
 1781TIP3    H1 5300   7.251   1.847   2.055
 1781TIP3    H2 5301   7.180   1.931   2.159
 1782TIP3   OH2 5302   1.824   2.074   3.645
 1782TIP3    H1 5303   1.842   2.091   3.738
 1782TIP3    H2 5304   1.856   1.984   3.631
 1783TIP3   OH2 5305   4.962   0.045   4.060
 1783TIP3    H1 5306   4.938   0.120   4.006
 1783TIP3    H2 5307   5.053   0.027   4.037
 1784TIP3   OH2 5308   5.770   0.436   3.181
 1784TIP3    H1 5309   5.717   0.481   3.246
 1784TIP3    H2 5310   5.767   0.344   3.206
 1785TIP3   OH2 5311   4.117   5.595   6.520
 1785TIP3    H1 5312   4.144   5.516   6.567
 1785TIP3    H2 5313   4.182   5.661   6.544
 1786TIP3   OH2 5314   6.349   1.171   3.192
 1786TIP3    H1 5315   6.358   1.075   3.191
 1786TIP3    H2 5316   6.378   1.196   3.280
 1787TIP3   OH2 5317   1.886   1.188   2.175
 1787TIP3    H1 5318   1.890   1.220   2.265
 1787TIP3    H2 5319   1.889   1.267   2.121
 1788TIP3   OH2 5320   0.149   0.286   4.831
 1788TIP3    H1 5321   0.059   0.282   4.797
 1788TIP3    H2 5322   0.143   0.345   4.907
 1789TIP3   OH2 5323   5.582   5.692   3.058
 1789TIP3    H1 5324   5.549   5.639   3.130
 1789TIP3    H2 5325   5.674   5.664   3.048
 1790TIP3   OH2 5326   1.085   6.481   3.165
 1790TIP3    H1 5327   1.043   6.423   3.229
 1790TIP3    H2 5328   1.168   6.439   3.146
 1791TIP3   OH2 5329   5.574   6.316   5.714
 1791TIP3    H1 5330   5.589   6.365   5.795
 1791TIP3    H2 5331   5.509   6.367   5.667
 1792TIP3   OH2 5332   4.095   0.492   3.923
 1792TIP3    H1 5333   4.078   0.413   3.973
 1792TIP3    H2 5334   4.039   0.559   3.963
 1793TIP3   OH2 5335   4.002   1.238   3.173
 1793TIP3    H1 5336   3.922   1.192   3.146
 1793TIP3    H2 5337   4.073   1.182   3.144
 1794TIP3   OH2 5338   1.165   2.593   5.220
 1794TIP3    H1 5339   1.153   2.669   5.276
 1794TIP3    H2 5340   1.193   2.628   5.136
 1795TIP3   OH2 5341   6.648   4.185   1.484
 1795TIP3    H1 5342   6.694   4.195   1.400
 1795TIP3    H2 5343   6.602   4.102   1.477
 1796TIP3   OH2 5344   5.056   2.522   0.209
 1796TIP3    H1 5345   5.002   2.548   0.284
 1796TIP3    H2 5346   5.014   2.443   0.175
 1797TIP3   OH2 5347   3.136   5.694   0.921
 1797TIP3    H1 5348   3.052   5.657   0.950
 1797TIP3    H2 5349   3.116   5.786   0.903
 1798TIP3   OH2 5350   7.601   3.243   3.388
 1798TIP3    H1 5351   7.516   3.286   3.391
 1798TIP3    H2 5352   7.661   3.306   3.426
 1799TIP3   OH2 5353   2.942   2.935   0.536
 1799TIP3    H1 5354   2.891   3.012   0.509
 1799TIP3    H2 5355   2.881   2.862   0.527
 1800TIP3   OH2 5356   3.041   3.310   2.149
 1800TIP3    H1 5357   3.053   3.314   2.054
 1800TIP3    H2 5358   3.094   3.236   2.177
 1801TIP3   OH2 5359   2.157   7.542   5.606
 1801TIP3    H1 5360   2.144   7.475   5.673
 1801TIP3    H2 5361   2.100   7.515   5.534
 1802TIP3   OH2 5362   0.767   3.099   5.499
 1802TIP3    H1 5363   0.680   3.065   5.478
 1802TIP3    H2 5364   0.753   3.157   5.573
 1803TIP3   OH2 5365   0.836   1.864   4.209
 1803TIP3    H1 5366   0.777   1.788   4.204
 1803TIP3    H2 5367   0.866   1.863   4.300
 1804TIP3   OH2 5368   7.742   6.125   0.504
 1804TIP3    H1 5369   7.705   6.160   0.585
 1804TIP3    H2 5370   7.692   6.167   0.434
 1805TIP3   OH2 5371   2.019   5.666   3.597
 1805TIP3    H1 5372   2.020   5.576   3.566
 1805TIP3    H2 5373   1.971   5.715   3.530
 1806TIP3   OH2 5374   7.258   6.971   4.229
 1806TIP3    H1 5375   7.248   7.067   4.231
 1806TIP3    H2 5376   7.299   6.953   4.144
 1807TIP3   OH2 5377   1.441   6.753   0.456
 1807TIP3    H1 5378   1.351   6.753   0.425
 1807TIP3    H2 5379   1.494   6.757   0.377
 1808TIP3   OH2 5380   2.804   6.847   1.626
 1808TIP3    H1 5381   2.781   6.938   1.648
 1808TIP3    H2 5382   2.891   6.835   1.665
 1809TIP3   OH2 5383   1.715   4.769   5.607
 1809TIP3    H1 5384   1.806   4.755   5.635
 1809TIP3    H2 5385   1.716   4.749   5.513
 1810TIP3   OH2 5386   6.984   0.833   5.047
 1810TIP3    H1 5387   6.902   0.853   5.092
 1810TIP3    H2 5388   7.049   0.825   5.117
 1811TIP3   OH2 5389   3.244   7.272   1.212
 1811TIP3    H1 5390   3.254   7.185   1.251
 1811TIP3    H2 5391   3.333   7.305   1.205
 1812TIP3   OH2 5392   5.803   6.705   3.678
 1812TIP3    H1 5393   5.722   6.656   3.691
 1812TIP3    H2 5394   5.822   6.743   3.764
 1813TIP3   OH2 5395   1.151   2.123   5.082
 1813TIP3    H1 5396   1.152   2.108   4.987
 1813TIP3    H2 5397   1.126   2.039   5.120
 1814TIP3   OH2 5398   1.333   3.791   4.798
 1814TIP3    H1 5399   1.335   3.814   4.705
 1814TIP3    H2 5400   1.398   3.848   4.838
 1815TIP3   OH2 5401   5.215   4.775   5.578
 1815TIP3    H1 5402   5.128   4.766   5.538
 1815TIP3    H2 5403   5.197   4.773   5.672
 1816TIP3   OH2 5404   3.527   1.215   1.232
 1816TIP3    H1 5405   3.543   1.239   1.141
 1816TIP3    H2 5406   3.473   1.136   1.228
 1817TIP3   OH2 5407   2.793   5.086   3.668
 1817TIP3    H1 5408   2.729   5.140   3.621
 1817TIP3    H2 5409   2.794   5.003   3.620
 1818TIP3   OH2 5410   0.032   3.358   1.422
 1818TIP3    H1 5411   0.061   3.418   1.354
 1818TIP3    H2 5412   0.026   3.413   1.501
 1819TIP3   OH2 5413   5.747   6.833   3.418
 1819TIP3    H1 5414   5.812   6.888   3.375
 1819TIP3    H2 5415   5.794   6.789   3.488
 1820TIP3   OH2 5416   4.589   3.503   2.042
 1820TIP3    H1 5417   4.503   3.493   2.083
 1820TIP3    H2 5418   4.612   3.415   2.012
 1821TIP3   OH2 5419   7.290   7.319   3.600
 1821TIP3    H1 5420   7.236   7.281   3.670
 1821TIP3    H2 5421   7.232   7.322   3.524
 1822TIP3   OH2 5422   1.808   2.864   0.586
 1822TIP3    H1 5423   1.848   2.876   0.672
 1822TIP3    H2 5424   1.723   2.825   0.604
 1823TIP3   OH2 5425   6.836   6.917   0.005
 1823TIP3    H1 5426   6.848   6.834  -0.042
 1823TIP3    H2 5427   6.762   6.901   0.064
 1824TIP3   OH2 5428   7.053   7.574   1.950
 1824TIP3    H1 5429   7.033   7.665   1.971
 1824TIP3    H2 5430   7.029   7.525   2.029
 1825TIP3   OH2 5431   6.888   3.942   4.315
 1825TIP3    H1 5432   6.885   3.939   4.411
 1825TIP3    H2 5433   6.967   3.993   4.296
 1826TIP3   OH2 5434   0.192   3.064   1.521
 1826TIP3    H1 5435   0.218   3.101   1.436
 1826TIP3    H2 5436   0.150   3.137   1.567
 1827TIP3   OH2 5437   2.306   2.168   6.596
 1827TIP3    H1 5438   2.347   2.128   6.672
 1827TIP3    H2 5439   2.380   2.196   6.541
 1828TIP3   OH2 5440   3.598   6.840   5.908
 1828TIP3    H1 5441   3.666   6.898   5.874
 1828TIP3    H2 5442   3.517   6.891   5.901
 1829TIP3   OH2 5443   2.451   4.073   4.900
 1829TIP3    H1 5444   2.456   4.167   4.884
 1829TIP3    H2 5445   2.478   4.063   4.992
 1830TIP3   OH2 5446   6.277   3.918   1.752
 1830TIP3    H1 5447   6.331   3.997   1.745
 1830TIP3    H2 5448   6.292   3.887   1.841
 1831TIP3   OH2 5449   3.699   7.729   4.395
 1831TIP3    H1 5450   3.626   7.692   4.346
 1831TIP3    H2 5451   3.682   7.823   4.397
 1832TIP3   OH2 5452   2.953   4.900   0.218
 1832TIP3    H1 5453   3.043   4.897   0.251
 1832TIP3    H2 5454   2.961   4.923   0.125
 1833TIP3   OH2 5455   2.563   5.192   3.512
 1833TIP3    H1 5456   2.594   5.236   3.433
 1833TIP3    H2 5457   2.488   5.243   3.541
 1834TIP3   OH2 5458   6.913   3.627   2.729
 1834TIP3    H1 5459   6.865   3.561   2.679
 1834TIP3    H2 5460   6.975   3.665   2.667
 1835TIP3   OH2 5461   7.501   2.065   2.869
 1835TIP3    H1 5462   7.577   2.091   2.817
 1835TIP3    H2 5463   7.436   2.134   2.852
 1836TIP3   OH2 5464   3.743   0.154   5.392
 1836TIP3    H1 5465   3.708   0.071   5.362
 1836TIP3    H2 5466   3.666   0.206   5.416
 1837TIP3   OH2 5467   3.409   2.384   0.933
 1837TIP3    H1 5468   3.344   2.321   0.902
 1837TIP3    H2 5469   3.397   2.386   1.028
 1838TIP3   OH2 5470   7.325   7.506   0.106
 1838TIP3    H1 5471   7.405   7.493   0.055
 1838TIP3    H2 5472   7.331   7.443   0.178
 1839TIP3   OH2 5473   1.153   5.920   1.132
 1839TIP3    H1 5474   1.222   5.977   1.166
 1839TIP3    H2 5475   1.198   5.841   1.103
 1840TIP3   OH2 5476   1.842   1.933   4.309
 1840TIP3    H1 5477   1.910   1.984   4.353
 1840TIP3    H2 5478   1.785   1.999   4.269
 1841TIP3   OH2 5479   5.235   5.093   3.183
 1841TIP3    H1 5480   5.152   5.044   3.186
 1841TIP3    H2 5481   5.256   5.111   3.274
 1842TIP3   OH2 5482   7.722   6.264   0.764
 1842TIP3    H1 5483   7.752   6.187   0.812
 1842TIP3    H2 5484   7.638   6.286   0.804
 1843TIP3   OH2 5485   0.535   0.657   0.123
 1843TIP3    H1 5486   0.522   0.691   0.212
 1843TIP3    H2 5487   0.450   0.666   0.081
 1844TIP3   OH2 5488   5.022   5.429   4.950
 1844TIP3    H1 5489   5.059   5.383   4.875
 1844TIP3    H2 5490   5.000   5.359   5.012
 1845TIP3   OH2 5491   4.752   2.875   1.613
 1845TIP3    H1 5492   4.821   2.841   1.557
 1845TIP3    H2 5493   4.692   2.802   1.627
 1846TIP3   OH2 5494   4.909   6.897   3.690
 1846TIP3    H1 5495   4.967   6.894   3.614
 1846TIP3    H2 5496   4.822   6.874   3.655
 1847TIP3   OH2 5497   5.224   3.411   3.770
 1847TIP3    H1 5498   5.294   3.450   3.717
 1847TIP3    H2 5499   5.185   3.344   3.714
 1848TIP3   OH2 5500   0.441   2.566   4.609
 1848TIP3    H1 5501   0.430   2.518   4.691
 1848TIP3    H2 5502   0.476   2.651   4.636
 1849TIP3   OH2 5503   7.187   3.307   4.966
 1849TIP3    H1 5504   7.151   3.269   4.886
 1849TIP3    H2 5505   7.180   3.402   4.953
 1850TIP3   OH2 5506   4.217   7.185   3.298
 1850TIP3    H1 5507   4.293   7.129   3.313
 1850TIP3    H2 5508   4.221   7.205   3.204
 1851TIP3   OH2 5509   3.666   1.262   0.071
 1851TIP3    H1 5510   3.620   1.246  -0.011
 1851TIP3    H2 5511   3.605   1.314   0.123
 1852TIP3   OH2 5512   1.975   1.000   3.500
 1852TIP3    H1 5513   2.063   1.035   3.512
 1852TIP3    H2 5514   1.988   0.908   3.478
 1853TIP3   OH2 5515   5.522   6.785   4.310
 1853TIP3    H1 5516   5.427   6.794   4.301
 1853TIP3    H2 5517   5.554   6.874   4.324
 1854TIP3   OH2 5518   6.342   0.462   1.697
 1854TIP3    H1 5519   6.289   0.403   1.643
 1854TIP3    H2 5520   6.278   0.519   1.740
 1855TIP3   OH2 5521   5.130   0.083   6.414
 1855TIP3    H1 5522   5.126   0.108   6.321
 1855TIP3    H2 5523   5.048   0.035   6.428
 1856TIP3   OH2 5524   3.974   7.472   3.007
 1856TIP3    H1 5525   3.893   7.479   3.057
 1856TIP3    H2 5526   4.043   7.494   3.069
 1857TIP3   OH2 5527   7.724   3.858   3.544
 1857TIP3    H1 5528   7.675   3.815   3.614
 1857TIP3    H2 5529   7.804   3.807   3.535
 1858TIP3   OH2 5530   3.833   1.940   3.891
 1858TIP3    H1 5531   3.907   1.996   3.866
 1858TIP3    H2 5532   3.865   1.851   3.877
 1859TIP3   OH2 5533   2.293   7.131   2.380
 1859TIP3    H1 5534   2.229   7.082   2.432
 1859TIP3    H2 5535   2.313   7.208   2.432
 1860TIP3   OH2 5536   0.497   4.441   3.372
 1860TIP3    H1 5537   0.480   4.454   3.279
 1860TIP3    H2 5538   0.472   4.351   3.389
 1861TIP3   OH2 5539   3.244   5.791   0.392
 1861TIP3    H1 5540   3.206   5.708   0.366
 1861TIP3    H2 5541   3.194   5.817   0.470
 1862TIP3   OH2 5542   2.377   7.741   2.489
 1862TIP3    H1 5543   2.296   7.732   2.539
 1862TIP3    H2 5544   2.436   7.676   2.528
 1863TIP3   OH2 5545   4.022   5.516   4.281
 1863TIP3    H1 5546   4.108   5.556   4.266
 1863TIP3    H2 5547   3.991   5.556   4.362
 1864TIP3   OH2 5548   1.639   0.327   2.374
 1864TIP3    H1 5549   1.702   0.367   2.434
 1864TIP3    H2 5550   1.683   0.247   2.344
 1865TIP3   OH2 5551   7.641   6.317   3.143
 1865TIP3    H1 5552   7.657   6.232   3.101
 1865TIP3    H2 5553   7.696   6.316   3.221
 1866TIP3   OH2 5554   3.329   3.454   1.993
 1866TIP3    H1 5555   3.270   3.522   2.025
 1866TIP3    H2 5556   3.284   3.416   1.918
 1867TIP3   OH2 5557   7.302   3.144   2.165
 1867TIP3    H1 5558   7.259   3.086   2.102
 1867TIP3    H2 5559   7.388   3.105   2.179
 1868TIP3   OH2 5560   2.433   7.422   4.358
 1868TIP3    H1 5561   2.465   7.407   4.447
 1868TIP3    H2 5562   2.512   7.433   4.306
 1869TIP3   OH2 5563   7.524   5.003   1.154
 1869TIP3    H1 5564   7.568   5.084   1.133
 1869TIP3    H2 5565   7.592   4.936   1.151
 1870TIP3   OH2 5566   4.234   1.062   3.071
 1870TIP3    H1 5567   4.178   0.987   3.052
 1870TIP3    H2 5568   4.270   1.044   3.158
 1871TIP3   OH2 5569   2.058   1.886   3.719
 1871TIP3    H1 5570   2.150   1.889   3.691
 1871TIP3    H2 5571   2.024   1.806   3.681
 1872TIP3   OH2 5572   6.774   6.680   3.007
 1872TIP3    H1 5573   6.868   6.672   3.021
 1872TIP3    H2 5574   6.735   6.622   3.072
 1873TIP3   OH2 5575   0.190   5.460   3.624
 1873TIP3    H1 5576   0.109   5.419   3.654
 1873TIP3    H2 5577   0.182   5.551   3.652
 1874TIP3   OH2 5578   5.690   0.834   2.861
 1874TIP3    H1 5579   5.692   0.744   2.893
 1874TIP3    H2 5580   5.783   0.860   2.859
 1875TIP3   OH2 5581   3.103   3.223   4.921
 1875TIP3    H1 5582   3.073   3.290   4.982
 1875TIP3    H2 5583   3.103   3.265   4.836
 1876TIP3   OH2 5584   4.045   2.866   3.908
 1876TIP3    H1 5585   4.054   2.958   3.930
 1876TIP3    H2 5586   4.113   2.822   3.959
 1877TIP3   OH2 5587   6.497   5.480   3.206
 1877TIP3    H1 5588   6.402   5.485   3.189
 1877TIP3    H2 5589   6.523   5.571   3.222
 1878TIP3   OH2 5590   7.485   2.339   3.519
 1878TIP3    H1 5591   7.489   2.244   3.516
 1878TIP3    H2 5592   7.478   2.365   3.427
 1879TIP3   OH2 5593   2.567   3.028   4.881
 1879TIP3    H1 5594   2.649   3.030   4.832
 1879TIP3    H2 5595   2.531   3.116   4.870
 1880TIP3   OH2 5596   6.562   3.339   4.888
 1880TIP3    H1 5597   6.565   3.370   4.797
 1880TIP3    H2 5598   6.640   3.284   4.897
 1881TIP3   OH2 5599   1.357   3.599   2.735
 1881TIP3    H1 5600   1.438   3.648   2.752
 1881TIP3    H2 5601   1.379   3.542   2.661
 1882TIP3   OH2 5602   6.770   0.586   4.267
 1882TIP3    H1 5603   6.862   0.560   4.266
 1882TIP3    H2 5604   6.770   0.672   4.308
 1883TIP3   OH2 5605   5.244   4.061   1.696
 1883TIP3    H1 5606   5.291   4.013   1.764
 1883TIP3    H2 5607   5.307   4.069   1.624
 1884TIP3   OH2 5608   1.136   7.449   0.660
 1884TIP3    H1 5609   1.157   7.538   0.634
 1884TIP3    H2 5610   1.219   7.412   0.690
 1885TIP3   OH2 5611   5.780   5.914   1.102
 1885TIP3    H1 5612   5.707   5.851   1.102
 1885TIP3    H2 5613   5.857   5.861   1.082
 1886TIP3   OH2 5614   1.869   5.817   3.382
 1886TIP3    H1 5615   1.935   5.850   3.321
 1886TIP3    H2 5616   1.802   5.778   3.325
 1887TIP3   OH2 5617   6.269   3.171   3.220
 1887TIP3    H1 5618   6.265   3.256   3.264
 1887TIP3    H2 5619   6.208   3.116   3.268
 1888TIP3   OH2 5620   1.892   7.110   0.052
 1888TIP3    H1 5621   1.967   7.124   0.109
 1888TIP3    H2 5622   1.877   7.195   0.010
 1889TIP3   OH2 5623   2.698   2.720   4.931
 1889TIP3    H1 5624   2.604   2.700   4.933
 1889TIP3    H2 5625   2.704   2.805   4.888
 1890TIP3   OH2 5626   5.925   2.008   3.615
 1890TIP3    H1 5627   5.929   1.921   3.576
 1890TIP3    H2 5628   5.998   2.055   3.575
 1891TIP3   OH2 5629  -0.035   1.317   6.075
 1891TIP3    H1 5630   0.047   1.357   6.048
 1891TIP3    H2 5631  -0.017   1.282   6.162
 1892TIP3   OH2 5632   1.042   4.335   5.111
 1892TIP3    H1 5633   0.989   4.409   5.081
 1892TIP3    H2 5634   1.038   4.272   5.039
 1893TIP3   OH2 5635   4.828   0.210   6.097
 1893TIP3    H1 5636   4.824   0.304   6.113
 1893TIP3    H2 5637   4.774   0.196   6.019
 1894TIP3   OH2 5638   3.182   6.564   2.179
 1894TIP3    H1 5639   3.202   6.530   2.091
 1894TIP3    H2 5640   3.189   6.659   2.170
 1895TIP3   OH2 5641   5.122   5.565   4.574
 1895TIP3    H1 5642   5.054   5.509   4.612
 1895TIP3    H2 5643   5.159   5.512   4.503
 1896TIP3   OH2 5644   2.481   1.924   0.139
 1896TIP3    H1 5645   2.495   1.972   0.220
 1896TIP3    H2 5646   2.492   1.989   0.070
 1897TIP3   OH2 5647   2.741   1.245   2.958
 1897TIP3    H1 5648   2.822   1.197   2.975
 1897TIP3    H2 5649   2.701   1.255   3.045
 1898TIP3   OH2 5650   4.104   4.006   5.852
 1898TIP3    H1 5651   4.163   3.993   5.777
 1898TIP3    H2 5652   4.074   4.097   5.843
 1899TIP3   OH2 5653   0.932   4.184   5.750
 1899TIP3    H1 5654   0.890   4.203   5.666
 1899TIP3    H2 5655   1.024   4.206   5.736
 1900TIP3   OH2 5656   1.262   6.745   2.965
 1900TIP3    H1 5657   1.175   6.784   2.953
 1900TIP3    H2 5658   1.294   6.732   2.876
 1901TIP3   OH2 5659   1.026   7.165   1.841
 1901TIP3    H1 5660   1.047   7.238   1.782
 1901TIP3    H2 5661   1.072   7.090   1.803
 1902TIP3   OH2 5662   0.114   7.663   0.080
 1902TIP3    H1 5663   0.172   7.726   0.037
 1902TIP3    H2 5664   0.028   7.678   0.041
 1903TIP3   OH2 5665   5.508   1.897   3.165
 1903TIP3    H1 5666   5.583   1.858   3.209
 1903TIP3    H2 5667   5.474   1.961   3.227
 1904TIP3   OH2 5668   2.627   3.029   2.490
 1904TIP3    H1 5669   2.716   3.063   2.481
 1904TIP3    H2 5670   2.591   3.078   2.564
 1905TIP3   OH2 5671   1.851   1.599   3.128
 1905TIP3    H1 5672   1.848   1.693   3.146
 1905TIP3    H2 5673   1.767   1.566   3.160
 1906TIP3   OH2 5674   7.511   4.602   6.091
 1906TIP3    H1 5675   7.587   4.655   6.068
 1906TIP3    H2 5676   7.445   4.666   6.118
 1907TIP3   OH2 5677   7.448   3.020   5.322
 1907TIP3    H1 5678   7.511   3.080   5.362
 1907TIP3    H2 5679   7.445   2.946   5.381
 1908TIP3   OH2 5680   3.461   4.767   5.864
 1908TIP3    H1 5681   3.473   4.840   5.802
 1908TIP3    H2 5682   3.406   4.704   5.817
 1909TIP3   OH2 5683   6.785   5.808   5.157
 1909TIP3    H1 5684   6.695   5.777   5.146
 1909TIP3    H2 5685   6.785   5.850   5.243
 1910TIP3   OH2 5686   0.102   5.799   5.522
 1910TIP3    H1 5687   0.133   5.888   5.507
 1910TIP3    H2 5688   0.141   5.773   5.605
 1911TIP3   OH2 5689   1.246   3.479   2.028
 1911TIP3    H1 5690   1.211   3.419   1.962
 1911TIP3    H2 5691   1.331   3.506   1.994
 1912TIP3   OH2 5692   6.568   4.917   6.241
 1912TIP3    H1 5693   6.525   4.844   6.285
 1912TIP3    H2 5694   6.606   4.879   6.162
 1913TIP3   OH2 5695   1.663   0.277   4.348
 1913TIP3    H1 5696   1.750   0.315   4.361
 1913TIP3    H2 5697   1.670   0.229   4.265
 1914TIP3   OH2 5698   7.893   3.042   6.731
 1914TIP3    H1 5699   7.882   2.950   6.705
 1914TIP3    H2 5700   7.947   3.039   6.809
 1915TIP3   OH2 5701   1.304   1.230   0.522
 1915TIP3    H1 5702   1.283   1.154   0.467
 1915TIP3    H2 5703   1.400   1.233   0.524
 1916TIP3   OH2 5704   3.292   6.577   4.990
 1916TIP3    H1 5705   3.209   6.579   4.942
 1916TIP3    H2 5706   3.320   6.486   4.987
 1917TIP3   OH2 5707   3.495   1.556   6.050
 1917TIP3    H1 5708   3.421   1.613   6.029
 1917TIP3    H2 5709   3.484   1.538   6.143
 1918TIP3   OH2 5710   4.901   3.800   1.491
 1918TIP3    H1 5711   4.975   3.846   1.530
 1918TIP3    H2 5712   4.885   3.845   1.408
 1919TIP3   OH2 5713   3.185   3.000   0.383
 1919TIP3    H1 5714   3.154   3.038   0.301
 1919TIP3    H2 5715   3.107   2.962   0.423
 1920TIP3   OH2 5716   2.607   0.686   0.831
 1920TIP3    H1 5717   2.582   0.617   0.892
 1920TIP3    H2 5718   2.595   0.767   0.881
 1921TIP3   OH2 5719   0.765   1.476   4.641
 1921TIP3    H1 5720   0.790   1.413   4.573
 1921TIP3    H2 5721   0.724   1.423   4.709
 1922TIP3   OH2 5722   0.378   0.518   0.813
 1922TIP3    H1 5723   0.461   0.484   0.848
 1922TIP3    H2 5724   0.319   0.519   0.888
 1923TIP3   OH2 5725   7.758   3.302   6.715
 1923TIP3    H1 5726   7.702   3.268   6.646
 1923TIP3    H2 5727   7.833   3.242   6.716
 1924TIP3   OH2 5728   0.547   0.792   4.513
 1924TIP3    H1 5729   0.479   0.728   4.536
 1924TIP3    H2 5730   0.588   0.756   4.434
 1925TIP3   OH2 5731   4.069   5.380   5.597
 1925TIP3    H1 5732   3.978   5.358   5.579
 1925TIP3    H2 5733   4.077   5.371   5.692
 1926TIP3   OH2 5734   2.544   0.375   0.432
 1926TIP3    H1 5735   2.637   0.355   0.430
 1926TIP3    H2 5736   2.536   0.447   0.493
 1927TIP3   OH2 5737   4.806   5.011   5.217
 1927TIP3    H1 5738   4.754   4.940   5.254
 1927TIP3    H2 5739   4.871   4.967   5.163
 1928TIP3   OH2 5740   1.065   0.422   4.321
 1928TIP3    H1 5741   1.073   0.327   4.310
 1928TIP3    H2 5742   1.125   0.443   4.393
 1929TIP3   OH2 5743   3.347   3.910   0.238
 1929TIP3    H1 5744   3.371   3.999   0.215
 1929TIP3    H2 5745   3.260   3.917   0.278
 1930TIP3   OH2 5746   5.617   5.295   0.386
 1930TIP3    H1 5747   5.571   5.297   0.470
 1930TIP3    H2 5748   5.650   5.205   0.378
 1931TIP3   OH2 5749   5.832   3.319   1.306
 1931TIP3    H1 5750   5.823   3.414   1.297
 1931TIP3    H2 5751   5.917   3.299   1.267
 1932TIP3   OH2 5752   6.348   6.266   4.982
 1932TIP3    H1 5753   6.258   6.288   4.961
 1932TIP3    H2 5754   6.400   6.336   4.943
 1933TIP3   OH2 5755   7.646   6.813   1.295
 1933TIP3    H1 5756   7.644   6.737   1.353
 1933TIP3    H2 5757   7.569   6.802   1.239
 1934TIP3   OH2 5758   5.762   0.037   4.578
 1934TIP3    H1 5759   5.699   0.091   4.625
 1934TIP3    H2 5760   5.729   0.035   4.488
 1935TIP3   OH2 5761   4.421   0.211   1.387
 1935TIP3    H1 5762   4.340   0.176   1.425
 1935TIP3    H2 5763   4.427   0.169   1.301
 1936TIP3   OH2 5764   6.361   6.300   1.382
 1936TIP3    H1 5765   6.286   6.296   1.441
 1936TIP3    H2 5766   6.346   6.229   1.320
 1937TIP3   OH2 5767   5.867   5.562   3.459
 1937TIP3    H1 5768   5.896   5.478   3.424
 1937TIP3    H2 5769   5.938   5.623   3.438
 1938TIP3   OH2 5770   4.071   0.368   0.205
 1938TIP3    H1 5771   3.983   0.338   0.181
 1938TIP3    H2 5772   4.082   0.450   0.155
 1939TIP3   OH2 5773   3.214   5.241   5.811
 1939TIP3    H1 5774   3.177   5.165   5.766
 1939TIP3    H2 5775   3.165   5.247   5.893
 1940TIP3   OH2 5776   7.411   4.763   6.473
 1940TIP3    H1 5777   7.444   4.686   6.519
 1940TIP3    H2 5778   7.484   4.825   6.474
 1941TIP3   OH2 5779   2.614   4.374   2.927
 1941TIP3    H1 5780   2.519   4.370   2.916
 1941TIP3    H2 5781   2.629   4.346   3.018
 1942TIP3   OH2 5782   7.780   2.487   1.764
 1942TIP3    H1 5783   7.784   2.578   1.735
 1942TIP3    H2 5784   7.815   2.489   1.854
 1943TIP3   OH2 5785   8.032   1.360   5.922
 1943TIP3    H1 5786   8.068   1.391   5.839
 1943TIP3    H2 5787   8.108   1.353   5.980
 1944TIP3   OH2 5788   2.048   0.988   4.128
 1944TIP3    H1 5789   1.988   1.045   4.176
 1944TIP3    H2 5790   2.134   1.007   4.166
 1945TIP3   OH2 5791   0.895   7.749   1.187
 1945TIP3    H1 5792   0.912   7.687   1.258
 1945TIP3    H2 5793   0.939   7.712   1.111
 1946TIP3   OH2 5794   7.868   1.723   5.221
 1946TIP3    H1 5795   7.887   1.667   5.146
 1946TIP3    H2 5796   7.920   1.802   5.206
 1947TIP3   OH2 5797   3.243   3.248   4.601
 1947TIP3    H1 5798   3.232   3.343   4.596
 1947TIP3    H2 5799   3.338   3.236   4.606
 1948TIP3   OH2 5800   7.099   3.356   0.695
 1948TIP3    H1 5801   7.184   3.361   0.738
 1948TIP3    H2 5802   7.060   3.443   0.707
 1949TIP3   OH2 5803   8.141   4.071   2.298
 1949TIP3    H1 5804   8.122   3.980   2.320
 1949TIP3    H2 5805   8.117   4.120   2.377
 1950TIP3   OH2 5806   8.022   6.937   1.760
 1950TIP3    H1 5807   7.971   6.867   1.801
 1950TIP3    H2 5808   8.112   6.921   1.787
 1951TIP3   OH2 5809   2.342   1.867   2.143
 1951TIP3    H1 5810   2.367   1.954   2.112
 1951TIP3    H2 5811   2.422   1.815   2.135
 1952TIP3   OH2 5812   0.761   5.386   2.149
 1952TIP3    H1 5813   0.811   5.427   2.220
 1952TIP3    H2 5814   0.683   5.350   2.192
 1953TIP3   OH2 5815   2.026   7.085   4.094
 1953TIP3    H1 5816   1.985   7.111   4.176
 1953TIP3    H2 5817   2.037   6.990   4.101
 1954TIP3   OH2 5818   6.505   4.629   3.968
 1954TIP3    H1 5819   6.499   4.534   3.976
 1954TIP3    H2 5820   6.519   4.660   4.058
 1955TIP3   OH2 5821   0.150   0.767   1.236
 1955TIP3    H1 5822   0.198   0.753   1.317
 1955TIP3    H2 5823   0.085   0.834   1.259
 1956TIP3   OH2 5824   8.197   3.139   2.293
 1956TIP3    H1 5825   8.225   3.225   2.323
 1956TIP3    H2 5826   8.125   3.157   2.233
 1957TIP3   OH2 5827   2.612   3.597   0.474
 1957TIP3    H1 5828   2.678   3.540   0.435
 1957TIP3    H2 5829   2.607   3.568   0.565
 1958TIP3   OH2 5830   0.267   7.157   1.002
 1958TIP3    H1 5831   0.307   7.143   1.088
 1958TIP3    H2 5832   0.244   7.250   1.002
 1959TIP3   OH2 5833   0.952   5.259   1.697
 1959TIP3    H1 5834   0.916   5.190   1.641
 1959TIP3    H2 5835   1.008   5.213   1.759
 1960TIP3   OH2 5836   1.913   1.991   6.193
 1960TIP3    H1 5837   1.979   2.017   6.129
 1960TIP3    H2 5838   1.941   2.031   6.275
 1961TIP3   OH2 5839   5.752   0.484   2.111
 1961TIP3    H1 5840   5.714   0.559   2.156
 1961TIP3    H2 5841   5.826   0.458   2.165
 1962TIP3   OH2 5842   5.246   6.412   3.027
 1962TIP3    H1 5843   5.223   6.386   3.117
 1962TIP3    H2 5844   5.177   6.472   3.001
 1963TIP3   OH2 5845   1.768   7.206   6.090
 1963TIP3    H1 5846   1.780   7.252   6.006
 1963TIP3    H2 5847   1.687   7.244   6.126
 1964TIP3   OH2 5848   7.890   4.935   1.511
 1964TIP3    H1 5849   7.844   4.880   1.574
 1964TIP3    H2 5850   7.915   4.875   1.441
 1965TIP3   OH2 5851   6.772   7.268   2.170
 1965TIP3    H1 5852   6.682   7.271   2.202
 1965TIP3    H2 5853   6.777   7.187   2.121
 1966TIP3   OH2 5854   1.747   3.313   2.225
 1966TIP3    H1 5855   1.668   3.259   2.220
 1966TIP3    H2 5856   1.715   3.403   2.226
 1967TIP3   OH2 5857   1.903   3.122   5.234
 1967TIP3    H1 5858   1.969   3.122   5.304
 1967TIP3    H2 5859   1.820   3.107   5.280
 1968TIP3   OH2 5860   7.505   3.441   5.623
 1968TIP3    H1 5861   7.568   3.460   5.693
 1968TIP3    H2 5862   7.427   3.491   5.648
 1969TIP3   OH2 5863   5.433   2.810   3.995
 1969TIP3    H1 5864   5.399   2.899   3.987
 1969TIP3    H2 5865   5.501   2.817   4.063
 1970TIP3   OH2 5866   1.249   0.239   0.650
 1970TIP3    H1 5867   1.196   0.279   0.718
 1970TIP3    H2 5868   1.251   0.304   0.580
 1971TIP3   OH2 5869   5.660   3.367   6.316
 1971TIP3    H1 5870   5.594   3.432   6.342
 1971TIP3    H2 5871   5.642   3.351   6.224
 1972TIP3   OH2 5872   8.260   6.992   0.532
 1972TIP3    H1 5873   8.348   6.957   0.522
 1972TIP3    H2 5874   8.242   7.035   0.449
 1973TIP3   OH2 5875   6.874   6.069   6.476
 1973TIP3    H1 5876   6.938   6.100   6.540
 1973TIP3    H2 5877   6.878   6.132   6.404
 1974TIP3   OH2 5878   1.495   3.296   4.875
 1974TIP3    H1 5879   1.426   3.357   4.900
 1974TIP3    H2 5880   1.511   3.315   4.782
 1975TIP3   OH2 5881   6.316   5.164   0.252
 1975TIP3    H1 5882   6.342   5.109   0.178
 1975TIP3    H2 5883   6.397   5.183   0.298
 1976TIP3   OH2 5884   1.844   5.323   1.882
 1976TIP3    H1 5885   1.789   5.255   1.922
 1976TIP3    H2 5886   1.878   5.281   1.803
 1977TIP3   OH2 5887   2.168   0.541   2.731
 1977TIP3    H1 5888   2.122   0.546   2.815
 1977TIP3    H2 5889   2.256   0.510   2.754
 1978TIP3   OH2 5890   4.710   1.160   5.402
 1978TIP3    H1 5891   4.799   1.177   5.370
 1978TIP3    H2 5892   4.693   1.231   5.464
 1979TIP3   OH2 5893   4.908   0.339   0.638
 1979TIP3    H1 5894   4.970   0.389   0.692
 1979TIP3    H2 5895   4.828   0.337   0.689
 1980TIP3   OH2 5896   6.749   4.956   1.777
 1980TIP3    H1 5897   6.837   4.944   1.814
 1980TIP3    H2 5898   6.760   5.025   1.712
 1981TIP3   OH2 5899   8.145   4.370   0.611
 1981TIP3    H1 5900   8.179   4.328   0.532
 1981TIP3    H2 5901   8.131   4.299   0.673
 1982TIP3   OH2 5902   3.764   6.318   0.486
 1982TIP3    H1 5903   3.679   6.351   0.517
 1982TIP3    H2 5904   3.741   6.258   0.415
 1983TIP3   OH2 5905   3.590   7.655   3.856
 1983TIP3    H1 5906   3.563   7.565   3.838
 1983TIP3    H2 5907   3.511   7.697   3.890
 1984TIP3   OH2 5908   3.513   6.461   0.190
 1984TIP3    H1 5909   3.585   6.402   0.166
 1984TIP3    H2 5910   3.463   6.471   0.109
 1985TIP3   OH2 5911   4.016   3.104   2.181
 1985TIP3    H1 5912   4.085   3.088   2.245
 1985TIP3    H2 5913   3.936   3.112   2.234
 1986TIP3   OH2 5914   3.228   1.948   0.588
 1986TIP3    H1 5915   3.321   1.928   0.582
 1986TIP3    H2 5916   3.207   1.994   0.507
 1987TIP3   OH2 5917   5.898   3.113   0.615
 1987TIP3    H1 5918   5.948   3.047   0.568
 1987TIP3    H2 5919   5.951   3.133   0.692
 1988TIP3   OH2 5920   6.002   1.389   5.799
 1988TIP3    H1 5921   6.044   1.417   5.718
 1988TIP3    H2 5922   5.918   1.352   5.771
 1989TIP3   OH2 5923   5.225   7.160   0.856
 1989TIP3    H1 5924   5.276   7.220   0.911
 1989TIP3    H2 5925   5.290   7.107   0.810
 1990TIP3   OH2 5926   6.377   1.624   2.758
 1990TIP3    H1 5927   6.454   1.568   2.764
 1990TIP3    H2 5928   6.313   1.571   2.709
 1991TIP3   OH2 5929   7.096   5.712   3.927
 1991TIP3    H1 5930   7.167   5.710   3.863
 1991TIP3    H2 5931   7.125   5.652   3.996
 1992TIP3   OH2 5932   7.278   5.933   5.980
 1992TIP3    H1 5933   7.244   6.010   5.936
 1992TIP3    H2 5934   7.238   5.859   5.934
 1993TIP3   OH2 5935   3.453   4.007   1.760
 1993TIP3    H1 5936   3.469   4.033   1.851
 1993TIP3    H2 5937   3.360   4.022   1.747
 1994TIP3   OH2 5938   5.792   0.618   5.619
 1994TIP3    H1 5939   5.713   0.564   5.621
 1994TIP3    H2 5940   5.794   0.661   5.705
 1995TIP3   OH2 5941   4.844   6.889   5.791
 1995TIP3    H1 5942   4.919   6.876   5.734
 1995TIP3    H2 5943   4.772   6.911   5.732
 1996TIP3   OH2 5944   0.027   5.645   4.003
 1996TIP3    H1 5945  -0.058   5.656   4.044
 1996TIP3    H2 5946   0.077   5.722   4.028
 1997TIP3   OH2 5947   0.205   1.843   4.036
 1997TIP3    H1 5948   0.296   1.819   4.057
 1997TIP3    H2 5949   0.182   1.907   4.104
 1998TIP3   OH2 5950   3.599   5.320   2.334
 1998TIP3    H1 5951   3.621   5.229   2.350
 1998TIP3    H2 5952   3.575   5.324   2.241
 1999TIP3   OH2 5953   5.461   2.974   1.867
 1999TIP3    H1 5954   5.385   2.952   1.813
 1999TIP3    H2 5955   5.467   2.901   1.930
 2000TIP3   OH2 5956   3.825   3.414   1.114
 2000TIP3    H1 5957   3.852   3.505   1.125
 2000TIP3    H2 5958   3.890   3.376   1.055
 2001TIP3   OH2 5959   0.525   4.185   4.358
 2001TIP3    H1 5960   0.494   4.149   4.441
 2001TIP3    H2 5961   0.446   4.193   4.304
 2002TIP3   OH2 5962   1.420   6.768   6.650
 2002TIP3    H1 5963   1.398   6.850   6.695
 2002TIP3    H2 5964   1.515   6.768   6.646
 2003TIP3   OH2 5965   4.341   0.252   2.345
 2003TIP3    H1 5966   4.251   0.285   2.352
 2003TIP3    H2 5967   4.393   0.329   2.322
 2004TIP3   OH2 5968   7.510   2.722   2.004
 2004TIP3    H1 5969   7.552   2.737   2.089
 2004TIP3    H2 5970   7.523   2.628   1.988
 2005TIP3   OH2 5971   8.306   4.616   6.530
 2005TIP3    H1 5972   8.311   4.543   6.469
 2005TIP3    H2 5973   8.307   4.575   6.617
 2006TIP3   OH2 5974   0.614   4.910   6.636
 2006TIP3    H1 5975   0.661   4.946   6.560
 2006TIP3    H2 5976   0.530   4.956   6.636
 2007TIP3   OH2 5977   1.242   7.258   2.303
 2007TIP3    H1 5978   1.237   7.292   2.214
 2007TIP3    H2 5979   1.208   7.169   2.297
 2008TIP3   OH2 5980   1.500   5.175   6.058
 2008TIP3    H1 5981   1.442   5.237   6.102
 2008TIP3    H2 5982   1.479   5.091   6.099
 2009TIP3   OH2 5983   4.478   6.305   6.695
 2009TIP3    H1 5984   4.520   6.387   6.719
 2009TIP3    H2 5985   4.532   6.238   6.737
 2010TIP3   OH2 5986   6.372   1.910   2.695
 2010TIP3    H1 5987   6.422   1.928   2.616
 2010TIP3    H2 5988   6.375   1.815   2.705
 2011TIP3   OH2 5989   0.276   6.963   2.965
 2011TIP3    H1 5990   0.291   6.897   3.032
 2011TIP3    H2 5991   0.356   6.961   2.912
 2012TIP3   OH2 5992   0.093   2.703   0.558
 2012TIP3    H1 5993   0.023   2.691   0.622
 2012TIP3    H2 5994   0.125   2.614   0.541
 2013TIP3   OH2 5995   5.640   7.601   2.114
 2013TIP3    H1 5996   5.566   7.573   2.168
 2013TIP3    H2 5997   5.702   7.640   2.175
 2014TIP3   OH2 5998   6.284   1.559   2.392
 2014TIP3    H1 5999   6.263   1.480   2.342
 2014TIP3    H2 6000   6.380   1.557   2.399
 2015TIP3   OH2 6001   3.335   4.223   6.152
 2015TIP3    H1 6002   3.307   4.134   6.172
 2015TIP3    H2 6003   3.423   4.229   6.191
 2016TIP3   OH2 6004   8.254   4.459   6.756
 2016TIP3    H1 6005   8.343   4.441   6.787
 2016TIP3    H2 6006   8.215   4.372   6.743
 2017TIP3   OH2 6007   5.994   2.395   3.288
 2017TIP3    H1 6008   6.078   2.358   3.261
 2017TIP3    H2 6009   5.944   2.403   3.207
 2018TIP3   OH2 6010   6.159   4.571   1.987
 2018TIP3    H1 6011   6.064   4.559   1.984
 2018TIP3    H2 6012   6.194   4.482   1.977
 2019TIP3   OH2 6013   2.618   3.153   3.484
 2019TIP3    H1 6014   2.551   3.120   3.424
 2019TIP3    H2 6015   2.570   3.178   3.563
 2020TIP3   OH2 6016   4.406   5.186   1.920
 2020TIP3    H1 6017   4.423   5.263   1.866
 2020TIP3    H2 6018   4.370   5.122   1.858
 2021TIP3   OH2 6019   8.152   6.876   2.975
 2021TIP3    H1 6020   8.145   6.787   2.942
 2021TIP3    H2 6021   8.221   6.916   2.922
 2022TIP3   OH2 6022   5.307   1.030   4.420
 2022TIP3    H1 6023   5.254   0.955   4.445
 2022TIP3    H2 6024   5.298   1.092   4.493
 2023TIP3   OH2 6025   8.032   1.704   5.866
 2023TIP3    H1 6026   7.999   1.696   5.776
 2023TIP3    H2 6027   7.976   1.646   5.918
 2024TIP3   OH2 6028   6.057   7.728   1.395
 2024TIP3    H1 6029   6.040   7.807   1.447
 2024TIP3    H2 6030   6.063   7.658   1.459
 2025TIP3   OH2 6031   6.484   0.262   5.885
 2025TIP3    H1 6032   6.564   0.314   5.874
 2025TIP3    H2 6033   6.413   0.326   5.874
 2026TIP3   OH2 6034   6.466   3.488   6.516
 2026TIP3    H1 6035   6.555   3.521   6.533
 2026TIP3    H2 6036   6.445   3.436   6.594
 2027TIP3   OH2 6037   7.526   5.078   2.189
 2027TIP3    H1 6038   7.479   5.162   2.188
 2027TIP3    H2 6039   7.540   5.060   2.282
 2028TIP3   OH2 6040   2.677   3.514   1.629
 2028TIP3    H1 6041   2.707   3.585   1.686
 2028TIP3    H2 6042   2.699   3.434   1.676
 2029TIP3   OH2 6043   0.141   0.157   5.215
 2029TIP3    H1 6044   0.173   0.150   5.305
 2029TIP3    H2 6045   0.189   0.090   5.167
 2030TIP3   OH2 6046   1.700   4.019   1.415
 2030TIP3    H1 6047   1.721   3.947   1.356
 2030TIP3    H2 6048   1.702   3.980   1.502
 2031TIP3   OH2 6049   7.994   4.599   3.319
 2031TIP3    H1 6050   7.978   4.581   3.226
 2031TIP3    H2 6051   7.924   4.659   3.344
 2032TIP3   OH2 6052   6.989   0.734   0.576
 2032TIP3    H1 6053   6.902   0.774   0.572
 2032TIP3    H2 6054   7.040   0.781   0.510
 2033TIP3   OH2 6055   5.345   0.386   4.749
 2033TIP3    H1 6056   5.382   0.472   4.729
 2033TIP3    H2 6057   5.306   0.357   4.666
 2034TIP3   OH2 6058   1.874   7.222   2.535
 2034TIP3    H1 6059   1.812   7.295   2.536
 2034TIP3    H2 6060   1.900   7.213   2.443
 2035TIP3   OH2 6061   3.753   6.283   5.610
 2035TIP3    H1 6062   3.792   6.335   5.539
 2035TIP3    H2 6063   3.707   6.348   5.664
 2036TIP3   OH2 6064   2.124   4.713   1.076
 2036TIP3    H1 6065   2.105   4.799   1.113
 2036TIP3    H2 6066   2.087   4.651   1.138
 2037TIP3   OH2 6067   5.933   5.087   4.731
 2037TIP3    H1 6068   5.953   5.001   4.769
 2037TIP3    H2 6069   5.843   5.078   4.700
 2038TIP3   OH2 6070   2.054   7.372   1.963
 2038TIP3    H1 6071   2.087   7.310   2.028
 2038TIP3    H2 6072   2.040   7.453   2.012
 2039TIP3   OH2 6073   4.011   7.664   5.961
 2039TIP3    H1 6074   4.098   7.703   5.966
 2039TIP3    H2 6075   3.964   7.717   5.896
 2040TIP3   OH2 6076   6.192   3.858   3.864
 2040TIP3    H1 6077   6.281   3.870   3.830
 2040TIP3    H2 6078   6.205   3.809   3.946
 2041TIP3   OH2 6079   3.902   5.218   6.028
 2041TIP3    H1 6080   3.841   5.194   5.958
 2041TIP3    H2 6081   3.906   5.141   6.084
 2042TIP3   OH2 6082   7.078   2.000   3.317
 2042TIP3    H1 6083   7.112   1.912   3.332
 2042TIP3    H2 6084   7.138   2.038   3.252
 2043TIP3   OH2 6085   1.514   7.615   0.563
 2043TIP3    H1 6086   1.437   7.623   0.506
 2043TIP3    H2 6087   1.550   7.704   0.567
 2044TIP3   OH2 6088   6.945   5.087   0.395
 2044TIP3    H1 6089   7.004   5.081   0.470
 2044TIP3    H2 6090   6.926   5.181   0.387
 2045TIP3   OH2 6091   5.532   0.755   4.058
 2045TIP3    H1 6092   5.522   0.704   4.139
 2045TIP3    H2 6093   5.454   0.809   4.054
 2046TIP3   OH2 6094   0.253   3.337   6.190
 2046TIP3    H1 6095   0.237   3.388   6.111
 2046TIP3    H2 6096   0.183   3.362   6.250
 2047TIP3   OH2 6097   5.167   5.894   6.061
 2047TIP3    H1 6098   5.140   5.816   6.012
 2047TIP3    H2 6099   5.262   5.886   6.069
 2048TIP3   OH2 6100   6.638   6.264   3.869
 2048TIP3    H1 6101   6.713   6.310   3.906
 2048TIP3    H2 6102   6.676   6.199   3.810
 2049TIP3   OH2 6103   1.627   7.632   2.085
 2049TIP3    H1 6104   1.550   7.575   2.089
 2049TIP3    H2 6105   1.629   7.675   2.171
 2050TIP3   OH2 6106   3.898   0.842   0.126
 2050TIP3    H1 6107   3.821   0.899   0.124
 2050TIP3    H2 6108   3.927   0.838   0.035
 2051TIP3   OH2 6109   7.127   3.002   1.230
 2051TIP3    H1 6110   7.044   3.041   1.204
 2051TIP3    H2 6111   7.105   2.911   1.252
 2052TIP3   OH2 6112   6.749   2.002   3.213
 2052TIP3    H1 6113   6.726   1.920   3.170
 2052TIP3    H2 6114   6.833   1.984   3.256
 2053TIP3   OH2 6115   7.042   3.783   3.795
 2053TIP3    H1 6116   6.963   3.731   3.809
 2053TIP3    H2 6117   7.100   3.725   3.745
 2054TIP3   OH2 6118   7.887   0.210   3.768
 2054TIP3    H1 6119   7.836   0.164   3.835
 2054TIP3    H2 6120   7.931   0.281   3.815
 2055TIP3   OH2 6121   3.300   5.881   0.074
 2055TIP3    H1 6122   3.252   5.962   0.091
 2055TIP3    H2 6123   3.295   5.833   0.157
 2056TIP3   OH2 6124   4.263   1.195   4.334
 2056TIP3    H1 6125   4.356   1.176   4.321
 2056TIP3    H2 6126   4.242   1.258   4.265
 2057TIP3   OH2 6127   6.840   3.276   3.450
 2057TIP3    H1 6128   6.786   3.202   3.423
 2057TIP3    H2 6129   6.819   3.289   3.543
 2058TIP3   OH2 6130   6.371   7.029   3.061
 2058TIP3    H1 6131   6.284   7.020   3.100
 2058TIP3    H2 6132   6.369   6.970   2.986
 2059TIP3   OH2 6133   2.700   2.664   0.385
 2059TIP3    H1 6134   2.683   2.754   0.412
 2059TIP3    H2 6135   2.738   2.672   0.298
 2060TIP3   OH2 6136   8.286   7.418   0.246
 2060TIP3    H1 6137   8.191   7.418   0.247
 2060TIP3    H2 6138   8.311   7.334   0.283
 2061TIP3   OH2 6139   7.047   2.043   0.632
 2061TIP3    H1 6140   7.059   1.992   0.712
 2061TIP3    H2 6141   6.981   2.108   0.655
 2062TIP3   OH2 6142   0.929   1.292   6.716
 2062TIP3    H1 6143   0.857   1.278   6.777
 2062TIP3    H2 6144   0.995   1.338   6.768
 2063TIP3   OH2 6145   1.265   4.887   6.422
 2063TIP3    H1 6146   1.295   4.821   6.484
 2063TIP3    H2 6147   1.178   4.912   6.454
 2064TIP3   OH2 6148   1.165   5.535   6.411
 2064TIP3    H1 6149   1.235   5.472   6.423
 2064TIP3    H2 6150   1.201   5.618   6.442
 2065TIP3   OH2 6151   6.004   1.288   2.540
 2065TIP3    H1 6152   6.000   1.338   2.459
 2065TIP3    H2 6153   6.094   1.301   2.571
 2066TIP3   OH2 6154   6.473   7.817   6.717
 2066TIP3    H1 6155   6.519   7.741   6.682
 2066TIP3    H2 6156   6.387   7.783   6.742
 2067TIP3   OH2 6157   0.601   3.187   4.519
 2067TIP3    H1 6158   0.683   3.193   4.470
 2067TIP3    H2 6159   0.554   3.268   4.498
 2068TIP3   OH2 6160   3.000   6.631   2.429
 2068TIP3    H1 6161   2.910   6.663   2.437
 2068TIP3    H2 6162   3.018   6.633   2.335
 2069TIP3   OH2 6163   2.549   3.921   6.242
 2069TIP3    H1 6164   2.536   3.972   6.161
 2069TIP3    H2 6165   2.617   3.858   6.219
 2070TIP3   OH2 6166   7.418   0.911   5.421
 2070TIP3    H1 6167   7.453   0.993   5.385
 2070TIP3    H2 6168   7.323   0.926   5.427
 2071TIP3   OH2 6169   0.715   4.794   0.486
 2071TIP3    H1 6170   0.810   4.802   0.495
 2071TIP3    H2 6171   0.684   4.778   0.575
 2072TIP3   OH2 6172   6.234   6.769   0.394
 2072TIP3    H1 6173   6.273   6.834   0.453
 2072TIP3    H2 6174   6.156   6.738   0.441
 2073TIP3   OH2 6175   8.275   0.939   1.313
 2073TIP3    H1 6176   8.212   0.891   1.367
 2073TIP3    H2 6177   8.259   1.031   1.333
 2074TIP3   OH2 6178   3.887   7.636   5.641
 2074TIP3    H1 6179   3.870   7.564   5.580
 2074TIP3    H2 6180   3.823   7.703   5.616
 2075TIP3   OH2 6181   5.614   6.125   1.395
 2075TIP3    H1 6182   5.636   6.180   1.470
 2075TIP3    H2 6183   5.520   6.138   1.383
 2076TIP3   OH2 6184   7.694   0.499   1.529
 2076TIP3    H1 6185   7.735   0.423   1.488
 2076TIP3    H2 6186   7.608   0.467   1.557
 2077TIP3   OH2 6187   6.756   1.750   1.166
 2077TIP3    H1 6188   6.679   1.734   1.221
 2077TIP3    H2 6189   6.762   1.846   1.160
 2078TIP3   OH2 6190  -0.029   6.023   2.422
 2078TIP3    H1 6191   0.000   6.099   2.472
 2078TIP3    H2 6192   0.052   5.976   2.402
 2079TIP3   OH2 6193   2.225   1.749   1.520
 2079TIP3    H1 6194   2.312   1.772   1.552
 2079TIP3    H2 6195   2.189   1.832   1.488
 2080TIP3   OH2 6196   3.328   1.114   4.131
 2080TIP3    H1 6197   3.242   1.083   4.160
 2080TIP3    H2 6198   3.385   1.101   4.207
 2081TIP3   OH2 6199   6.760   1.005   1.928
 2081TIP3    H1 6200   6.830   0.941   1.945
 2081TIP3    H2 6201   6.696   0.957   1.876
 2082TIP3   OH2 6202   7.988   3.202   2.114
 2082TIP3    H1 6203   7.929   3.275   2.094
 2082TIP3    H2 6204   7.984   3.146   2.036
 2083TIP3   OH2 6205   3.663   2.519   4.812
 2083TIP3    H1 6206   3.678   2.574   4.889
 2083TIP3    H2 6207   3.741   2.530   4.759
 2084TIP3   OH2 6208   3.268   2.481   3.307
 2084TIP3    H1 6209   3.204   2.425   3.351
 2084TIP3    H2 6210   3.272   2.560   3.360
 2085TIP3   OH2 6211   7.088   3.534   6.713
 2085TIP3    H1 6212   7.089   3.538   6.809
 2085TIP3    H2 6213   7.154   3.598   6.686
 2086TIP3   OH2 6214   3.242   2.949   2.371
 2086TIP3    H1 6215   3.245   3.044   2.375
 2086TIP3    H2 6216   3.186   2.924   2.444
 2087TIP3   OH2 6217   7.695   0.401   3.046
 2087TIP3    H1 6218   7.767   0.372   2.991
 2087TIP3    H2 6219   7.735   0.459   3.110
 2088TIP3   OH2 6220   6.741   3.869   0.425
 2088TIP3    H1 6221   6.733   3.814   0.503
 2088TIP3    H2 6222   6.660   3.852   0.376
 2089TIP3   OH2 6223   5.826   0.452   0.819
 2089TIP3    H1 6224   5.842   0.543   0.796
 2089TIP3    H2 6225   5.902   0.426   0.871
 2090TIP3   OH2 6226   1.406   1.331   3.479
 2090TIP3    H1 6227   1.471   1.388   3.438
 2090TIP3    H2 6228   1.416   1.248   3.433
 2091TIP3   OH2 6229   7.463   7.629   1.749
 2091TIP3    H1 6230   7.523   7.642   1.823
 2091TIP3    H2 6231   7.379   7.663   1.780
 2092TIP3   OH2 6232   5.427   1.404   1.917
 2092TIP3    H1 6233   5.463   1.419   2.004
 2092TIP3    H2 6234   5.435   1.309   1.904
 2093TIP3   OH2 6235   4.655   5.917   5.830
 2093TIP3    H1 6236   4.677   5.909   5.923
 2093TIP3    H2 6237   4.609   5.836   5.809
 2094TIP3   OH2 6238   3.318   0.335   1.045
 2094TIP3    H1 6239   3.254   0.373   0.985
 2094TIP3    H2 6240   3.383   0.293   0.989
 2095TIP3   OH2 6241   4.901   2.592   5.527
 2095TIP3    H1 6242   4.994   2.575   5.519
 2095TIP3    H2 6243   4.888   2.679   5.488
 2096TIP3   OH2 6244   1.520   3.813   5.875
 2096TIP3    H1 6245   1.450   3.843   5.933
 2096TIP3    H2 6246   1.589   3.783   5.935
 2097TIP3   OH2 6247   0.796   3.984   1.325
 2097TIP3    H1 6248   0.838   4.061   1.363
 2097TIP3    H2 6249   0.778   3.927   1.400
 2098TIP3   OH2 6250   5.494   4.388   0.110
 2098TIP3    H1 6251   5.482   4.410   0.017
 2098TIP3    H2 6252   5.491   4.473   0.155
 2099TIP3   OH2 6253   4.692   5.908   2.513
 2099TIP3    H1 6254   4.758   5.971   2.482
 2099TIP3    H2 6255   4.658   5.869   2.432
 2100TIP3   OH2 6256   7.078   4.095   4.155
 2100TIP3    H1 6257   7.130   4.069   4.231
 2100TIP3    H2 6258   7.139   4.090   4.081
 2101TIP3   OH2 6259   3.641   4.599   5.585
 2101TIP3    H1 6260   3.566   4.650   5.556
 2101TIP3    H2 6261   3.634   4.516   5.538
 2102TIP3   OH2 6262   4.787   7.694   2.069
 2102TIP3    H1 6263   4.874   7.701   2.110
 2102TIP3    H2 6264   4.729   7.743   2.127
 2103TIP3   OH2 6265   1.388   1.817   3.158
 2103TIP3    H1 6266   1.415   1.834   3.248
 2103TIP3    H2 6267   1.353   1.901   3.127
 2104TIP3   OH2 6268   5.113   1.635   5.802
 2104TIP3    H1 6269   5.191   1.604   5.847
 2104TIP3    H2 6270   5.098   1.723   5.837
 2105TIP3   OH2 6271   6.251   5.585   0.812
 2105TIP3    H1 6272   6.325   5.569   0.753
 2105TIP3    H2 6273   6.178   5.607   0.754
 2106TIP3   OH2 6274   6.645   2.300   5.537
 2106TIP3    H1 6275   6.598   2.258   5.464
 2106TIP3    H2 6276   6.625   2.245   5.613
 2107TIP3   OH2 6277   3.812   4.323   6.020
 2107TIP3    H1 6278   3.787   4.245   5.971
 2107TIP3    H2 6279   3.731   4.372   6.030
 2108TIP3   OH2 6280   6.127   2.336   1.952
 2108TIP3    H1 6281   6.106   2.338   1.859
 2108TIP3    H2 6282   6.089   2.255   1.984
 2109TIP3   OH2 6283   5.487   5.915   5.351
 2109TIP3    H1 6284   5.542   5.855   5.301
 2109TIP3    H2 6285   5.477   5.872   5.437
 2110TIP3   OH2 6286   5.636   0.758   2.166
 2110TIP3    H1 6287   5.655   0.811   2.089
 2110TIP3    H2 6288   5.714   0.765   2.221
 2111TIP3   OH2 6289   0.895   6.636   1.706
 2111TIP3    H1 6290   0.840   6.559   1.697
 2111TIP3    H2 6291   0.979   6.611   1.666
 2112TIP3   OH2 6292   0.172   1.362   2.472
 2112TIP3    H1 6293   0.251   1.387   2.423
 2112TIP3    H2 6294   0.102   1.366   2.407
 2113TIP3   OH2 6295   1.189   4.180   4.907
 2113TIP3    H1 6296   1.265   4.186   4.965
 2113TIP3    H2 6297   1.221   4.130   4.831
 2114TIP3   OH2 6298   2.368   7.201   5.292
 2114TIP3    H1 6299   2.341   7.109   5.296
 2114TIP3    H2 6300   2.318   7.238   5.219
 2115TIP3   OH2 6301   7.407   2.034   5.096
 2115TIP3    H1 6302   7.376   2.007   5.010
 2115TIP3    H2 6303   7.373   1.968   5.156
 2116TIP3   OH2 6304   4.919   2.779   4.483
 2116TIP3    H1 6305   4.872   2.806   4.562
 2116TIP3    H2 6306   4.939   2.861   4.437
 2117TIP3   OH2 6307   4.902   2.597   4.284
 2117TIP3    H1 6308   4.871   2.525   4.339
 2117TIP3    H2 6309   4.932   2.663   4.346
 2118TIP3   OH2 6310   3.144   5.790   2.823
 2118TIP3    H1 6311   3.140   5.717   2.885
 2118TIP3    H2 6312   3.104   5.756   2.743
 2119TIP3   OH2 6313   0.359   2.081   5.640
 2119TIP3    H1 6314   0.340   2.139   5.567
 2119TIP3    H2 6315   0.273   2.053   5.671
 2120TIP3   OH2 6316   5.739   2.621   3.164
 2120TIP3    H1 6317   5.744   2.531   3.196
 2120TIP3    H2 6318   5.806   2.625   3.095
 2121TIP3   OH2 6319   1.276   6.051   2.576
 2121TIP3    H1 6320   1.304   6.124   2.632
 2121TIP3    H2 6321   1.197   6.018   2.618
 2122TIP3   OH2 6322   3.382   5.369   6.827
 2122TIP3    H1 6323   3.425   5.413   6.900
 2122TIP3    H2 6324   3.450   5.364   6.759
 2123TIP3   OH2 6325   1.148   1.031   2.075
 2123TIP3    H1 6326   1.231   1.014   2.120
 2123TIP3    H2 6327   1.168   1.019   1.982
 2124TIP3   OH2 6328   6.038   4.161   0.658
 2124TIP3    H1 6329   6.091   4.189   0.583
 2124TIP3    H2 6330   5.948   4.160   0.625
 2125TIP3   OH2 6331   0.174   6.373   2.771
 2125TIP3    H1 6332   0.160   6.311   2.843
 2125TIP3    H2 6333   0.248   6.427   2.799
 2126TIP3   OH2 6334   1.464   3.846   2.625
 2126TIP3    H1 6335   1.371   3.866   2.616
 2126TIP3    H2 6336   1.486   3.873   2.715
 2127TIP3   OH2 6337   5.468   1.767   2.271
 2127TIP3    H1 6338   5.405   1.726   2.330
 2127TIP3    H2 6339   5.550   1.766   2.319
 2128TIP3   OH2 6340   1.128   7.112   4.727
 2128TIP3    H1 6341   1.042   7.132   4.688
 2128TIP3    H2 6342   1.118   7.024   4.762
 2129TIP3   OH2 6343   0.580   0.598   2.887
 2129TIP3    H1 6344   0.577   0.677   2.833
 2129TIP3    H2 6345   0.527   0.619   2.964
 2130TIP3   OH2 6346   3.978   4.896   2.606
 2130TIP3    H1 6347   4.051   4.834   2.598
 2130TIP3    H2 6348   3.975   4.941   2.521
 2131TIP3   OH2 6349   5.661   2.785   1.063
 2131TIP3    H1 6350   5.618   2.869   1.048
 2131TIP3    H2 6351   5.627   2.755   1.146
 2132TIP3   OH2 6352   2.556   0.968   4.178
 2132TIP3    H1 6353   2.572   0.919   4.259
 2132TIP3    H2 6354   2.570   1.059   4.202
 2133TIP3   OH2 6355   7.113   0.853   6.018
 2133TIP3    H1 6356   7.175   0.847   6.091
 2133TIP3    H2 6357   7.157   0.908   5.954
 2134TIP3   OH2 6358   8.112   4.397   4.379
 2134TIP3    H1 6359   8.086   4.444   4.459
 2134TIP3    H2 6360   8.165   4.460   4.331
 2135TIP3   OH2 6361   5.604   0.294   0.822
 2135TIP3    H1 6362   5.669   0.363   0.810
 2135TIP3    H2 6363   5.521   0.335   0.798
 2136TIP3   OH2 6364   4.968   0.262   3.899
 2136TIP3    H1 6365   4.980   0.347   3.941
 2136TIP3    H2 6366   5.035   0.261   3.830
 2137TIP3   OH2 6367   0.346   6.177   0.951
 2137TIP3    H1 6368   0.326   6.268   0.929
 2137TIP3    H2 6369   0.321   6.128   0.872
 2138TIP3   OH2 6370   5.467   7.755   4.688
 2138TIP3    H1 6371   5.534   7.788   4.628
 2138TIP3    H2 6372   5.499   7.670   4.717
 2139TIP3   OH2 6373   3.462   5.194   3.865
 2139TIP3    H1 6374   3.541   5.247   3.860
 2139TIP3    H2 6375   3.494   5.105   3.878
 2140TIP3   OH2 6376   1.246   7.248   3.744
 2140TIP3    H1 6377   1.292   7.315   3.694
 2140TIP3    H2 6378   1.160   7.286   3.761
 2141TIP3   OH2 6379   4.171   2.520   5.664
 2141TIP3    H1 6380   4.157   2.447   5.603
 2141TIP3    H2 6381   4.175   2.598   5.608
 2142TIP3   OH2 6382   1.367   0.266   5.466
 2142TIP3    H1 6383   1.426   0.201   5.503
 2142TIP3    H2 6384   1.392   0.348   5.507
 2143TIP3   OH2 6385   7.548   5.270   1.919
 2143TIP3    H1 6386   7.641   5.269   1.899
 2143TIP3    H2 6387   7.513   5.193   1.874
 2144TIP3   OH2 6388   6.193   3.462   1.136
 2144TIP3    H1 6389   6.210   3.478   1.229
 2144TIP3    H2 6390   6.164   3.546   1.101
 2145TIP3   OH2 6391   4.469   0.493   2.313
 2145TIP3    H1 6392   4.520   0.513   2.392
 2145TIP3    H2 6393   4.516   0.538   2.242
 2146TIP3   OH2 6394   8.232   7.367   4.863
 2146TIP3    H1 6395   8.208   7.459   4.852
 2146TIP3    H2 6396   8.151   7.325   4.893
 2147TIP3   OH2 6397   4.522   1.982   1.785
 2147TIP3    H1 6398   4.532   2.041   1.860
 2147TIP3    H2 6399   4.432   1.949   1.793
 2148TIP3   OH2 6400   5.888   2.511   3.924
 2148TIP3    H1 6401   5.831   2.499   3.999
 2148TIP3    H2 6402   5.859   2.446   3.861
 2149TIP3   OH2 6403   5.033   1.904   3.425
 2149TIP3    H1 6404   5.042   1.913   3.330
 2149TIP3    H2 6405   4.943   1.930   3.443
 2150TIP3   OH2 6406   4.197   4.330   6.704
 2150TIP3    H1 6407   4.174   4.331   6.797
 2150TIP3    H2 6408   4.289   4.356   6.701
 2151TIP3   OH2 6409   4.109   5.040   0.484
 2151TIP3    H1 6410   4.019   5.011   0.470
 2151TIP3    H2 6411   4.121   5.039   0.579
 2152TIP3   OH2 6412   3.105   7.470   6.122
 2152TIP3    H1 6413   3.194   7.446   6.095
 2152TIP3    H2 6414   3.048   7.407   6.077
 2153TIP3   OH2 6415   3.063   0.498   3.647
 2153TIP3    H1 6416   3.120   0.574   3.661
 2153TIP3    H2 6417   3.037   0.505   3.555
 2154TIP3   OH2 6418   4.729   2.709   2.713
 2154TIP3    H1 6419   4.762   2.729   2.625
 2154TIP3    H2 6420   4.634   2.723   2.706
 2155TIP3   OH2 6421   1.945   6.169   3.412
 2155TIP3    H1 6422   1.906   6.131   3.333
 2155TIP3    H2 6423   1.888   6.243   3.434
 2156TIP3   OH2 6424   0.710   3.673   2.383
 2156TIP3    H1 6425   0.702   3.727   2.461
 2156TIP3    H2 6426   0.790   3.622   2.396
 2157TIP3   OH2 6427   7.605   3.898   5.237
 2157TIP3    H1 6428   7.657   3.919   5.315
 2157TIP3    H2 6429   7.544   3.971   5.228
 2158TIP3   OH2 6430   7.094   7.494   2.826
 2158TIP3    H1 6431   7.157   7.526   2.891
 2158TIP3    H2 6432   7.015   7.474   2.877
 2159TIP3   OH2 6433   3.702   0.463   4.507
 2159TIP3    H1 6434   3.620   0.502   4.537
 2159TIP3    H2 6435   3.701   0.374   4.543
 2160TIP3   OH2 6436   4.251   4.667   1.108
 2160TIP3    H1 6437   4.227   4.599   1.170
 2160TIP3    H2 6438   4.317   4.625   1.052
 2161TIP3   OH2 6439   2.753   4.803   0.386
 2161TIP3    H1 6440   2.827   4.859   0.361
 2161TIP3    H2 6441   2.704   4.855   0.450
 2162TIP3   OH2 6442   2.378   4.896   5.673
 2162TIP3    H1 6443   2.456   4.844   5.654
 2162TIP3    H2 6444   2.412   4.984   5.691
 2163TIP3   OH2 6445   0.702   1.179   6.525
 2163TIP3    H1 6446   0.651   1.191   6.445
 2163TIP3    H2 6447   0.691   1.261   6.573
 2164TIP3   OH2 6448   6.885   1.147   2.297
 2164TIP3    H1 6449   6.954   1.143   2.363
 2164TIP3    H2 6450   6.819   1.084   2.328
 2165TIP3   OH2 6451   2.903   1.595   1.008
 2165TIP3    H1 6452   2.871   1.676   0.969
 2165TIP3    H2 6453   2.968   1.563   0.945
 2166TIP3   OH2 6454   4.962   3.598   6.381
 2166TIP3    H1 6455   4.930   3.562   6.298
 2166TIP3    H2 6456   4.946   3.529   6.445
 2167TIP3   OH2 6457   2.739   1.887   1.238
 2167TIP3    H1 6458   2.777   1.856   1.320
 2167TIP3    H2 6459   2.660   1.934   1.265
 2168TIP3   OH2 6460   0.768   1.522   5.160
 2168TIP3    H1 6461   0.677   1.507   5.137
 2168TIP3    H2 6462   0.813   1.442   5.133
 2169TIP3   OH2 6463   4.646   0.367   3.657
 2169TIP3    H1 6464   4.579   0.316   3.702
 2169TIP3    H2 6465   4.664   0.441   3.715
 2170TIP3   OH2 6466   3.172   5.731   3.937
 2170TIP3    H1 6467   3.094   5.751   3.989
 2170TIP3    H2 6468   3.168   5.636   3.924
 2171TIP3   OH2 6469   4.913   3.703   6.668
 2171TIP3    H1 6470   4.956   3.721   6.584
 2171TIP3    H2 6471   4.985   3.678   6.726
 2172TIP3   OH2 6472   7.593   3.266   1.909
 2172TIP3    H1 6473   7.577   3.198   1.844
 2172TIP3    H2 6474   7.665   3.317   1.873
 2173TIP3   OH2 6475   4.156   1.835   5.636
 2173TIP3    H1 6476   4.204   1.900   5.687
 2173TIP3    H2 6477   4.077   1.818   5.687
 2174TIP3   OH2 6478   7.265   1.110   6.164
 2174TIP3    H1 6479   7.281   1.146   6.251
 2174TIP3    H2 6480   7.198   1.166   6.126
 2175TIP3   OH2 6481   4.928   6.172   0.888
 2175TIP3    H1 6482   4.899   6.220   0.966
 2175TIP3    H2 6483   4.920   6.235   0.816
 2176TIP3   OH2 6484   4.954   6.317   5.978
 2176TIP3    H1 6485   4.998   6.310   5.894
 2176TIP3    H2 6486   4.956   6.228   6.014
 2177TIP3   OH2 6487   4.065   5.874   0.687
 2177TIP3    H1 6488   4.140   5.830   0.726
 2177TIP3    H2 6489   4.022   5.807   0.634
 2178TIP3   OH2 6490   6.552   0.077   0.381
 2178TIP3    H1 6491   6.591   0.090   0.295
 2178TIP3    H2 6492   6.614   0.117   0.442
 2179TIP3   OH2 6493   3.460   7.079   2.487
 2179TIP3    H1 6494   3.479   7.153   2.430
 2179TIP3    H2 6495   3.364   7.077   2.493
 2180TIP3   OH2 6496   2.311   0.538   6.007
 2180TIP3    H1 6497   2.215   0.539   6.012
 2180TIP3    H2 6498   2.338   0.482   6.079
 2181TIP3   OH2 6499   0.529   0.209   0.678
 2181TIP3    H1 6500   0.590   0.148   0.719
 2181TIP3    H2 6501   0.532   0.287   0.733
 2182TIP3   OH2 6502   3.377   7.381   4.936
 2182TIP3    H1 6503   3.307   7.362   4.873
 2182TIP3    H2 6504   3.432   7.303   4.934
 2183TIP3   OH2 6505   6.008   7.330   6.216
 2183TIP3    H1 6506   6.079   7.266   6.214
 2183TIP3    H2 6507   5.930   7.279   6.238
 2184TIP3   OH2 6508   6.753   7.428   6.394
 2184TIP3    H1 6509   6.723   7.348   6.437
 2184TIP3    H2 6510   6.843   7.440   6.425
 2185TIP3   OH2 6511   7.182   2.982   6.473
 2185TIP3    H1 6512   7.194   3.075   6.494
 2185TIP3    H2 6513   7.089   2.965   6.489
 2186TIP3   OH2 6514   1.119   1.302   3.328
 2186TIP3    H1 6515   1.036   1.348   3.317
 2186TIP3    H2 6516   1.186   1.370   3.316
 2187TIP3   OH2 6517   4.085   7.346   6.739
 2187TIP3    H1 6518   4.095   7.271   6.680
 2187TIP3    H2 6519   4.141   7.414   6.701
 2188TIP3   OH2 6520   5.576   1.395   2.167
 2188TIP3    H1 6521   5.608   1.358   2.249
 2188TIP3    H2 6522   5.653   1.435   2.127
 2189TIP3   OH2 6523   2.862   5.826   1.058
 2189TIP3    H1 6524   2.894   5.799   1.144
 2189TIP3    H2 6525   2.767   5.824   1.066
 2190TIP3   OH2 6526   6.307   0.582   0.391
 2190TIP3    H1 6527   6.340   0.613   0.475
 2190TIP3    H2 6528   6.342   0.493   0.383
 2191TIP3   OH2 6529   4.276   3.875   0.918
 2191TIP3    H1 6530   4.202   3.930   0.943
 2191TIP3    H2 6531   4.330   3.932   0.862
 2192TIP3   OH2 6532   4.164   7.191   5.771
 2192TIP3    H1 6533   4.222   7.194   5.847
 2192TIP3    H2 6534   4.143   7.282   5.752
 2193TIP3   OH2 6535   2.082   4.912   4.784
 2193TIP3    H1 6536   2.029   4.953   4.852
 2193TIP3    H2 6537   2.114   4.985   4.731
 2194TIP3   OH2 6538   3.111   3.573   1.246
 2194TIP3    H1 6539   3.196   3.576   1.289
 2194TIP3    H2 6540   3.107   3.653   1.194
 2195TIP3   OH2 6541   5.669   1.319   5.008
 2195TIP3    H1 6542   5.692   1.228   4.989
 2195TIP3    H2 6543   5.670   1.362   4.923
 2196TIP3   OH2 6544   4.639   0.132   2.119
 2196TIP3    H1 6545   4.603   0.072   2.184
 2196TIP3    H2 6546   4.597   0.108   2.037
 2197TIP3   OH2 6547   4.751   1.773   1.300
 2197TIP3    H1 6548   4.695   1.706   1.339
 2197TIP3    H2 6549   4.810   1.798   1.372
 2198TIP3   OH2 6550   3.075   4.237   0.066
 2198TIP3    H1 6551   2.993   4.262   0.108
 2198TIP3    H2 6552   3.069   4.142   0.055
 2199TIP3   OH2 6553   5.862   6.251   6.331
 2199TIP3    H1 6554   5.858   6.342   6.301
 2199TIP3    H2 6555   5.873   6.200   6.250
 2200TIP3   OH2 6556   1.119   4.320   5.370
 2200TIP3    H1 6557   1.097   4.322   5.277
 2200TIP3    H2 6558   1.166   4.402   5.386
 2201TIP3   OH2 6559   4.619   4.546   2.019
 2201TIP3    H1 6560   4.567   4.514   1.946
 2201TIP3    H2 6561   4.578   4.508   2.097
 2202TIP3   OH2 6562   0.948   3.180   3.515
 2202TIP3    H1 6563   1.036   3.180   3.553
 2202TIP3    H2 6564   0.936   3.269   3.481
 2203TIP3   OH2 6565   7.676   4.021   2.789
 2203TIP3    H1 6566   7.707   4.106   2.819
 2203TIP3    H2 6567   7.659   3.973   2.870
 2204TIP3   OH2 6568   2.077   5.265   1.452
 2204TIP3    H1 6569   2.096   5.356   1.478
 2204TIP3    H2 6570   2.111   5.258   1.363
 2205TIP3   OH2 6571   3.885   2.792   5.336
 2205TIP3    H1 6572   3.877   2.707   5.293
 2205TIP3    H2 6573   3.978   2.801   5.354
 2206TIP3   OH2 6574   2.697   1.118   2.060
 2206TIP3    H1 6575   2.626   1.084   2.006
 2206TIP3    H2 6576   2.766   1.141   1.997
 2207TIP3   OH2 6577   7.479   7.594   2.329
 2207TIP3    H1 6578   7.428   7.596   2.410
 2207TIP3    H2 6579   7.429   7.649   2.268
 2208TIP3   OH2 6580   4.188   3.667   3.100
 2208TIP3    H1 6581   4.252   3.604   3.067
 2208TIP3    H2 6582   4.103   3.628   3.078
 2209TIP3   OH2 6583   7.675   5.147   0.780
 2209TIP3    H1 6584   7.641   5.058   0.771
 2209TIP3    H2 6585   7.756   5.147   0.729
 2210TIP3   OH2 6586   8.067   1.738   6.183
 2210TIP3    H1 6587   8.047   1.828   6.207
 2210TIP3    H2 6588   8.017   1.685   6.244
 2211TIP3   OH2 6589   5.497   1.794   6.104
 2211TIP3    H1 6590   5.452   1.773   6.186
 2211TIP3    H2 6591   5.457   1.876   6.075
 2212TIP3   OH2 6592   2.679   7.381   3.134
 2212TIP3    H1 6593   2.703   7.314   3.070
 2212TIP3    H2 6594   2.713   7.463   3.097
 2213TIP3   OH2 6595   1.887   4.001   5.473
 2213TIP3    H1 6596   1.912   4.091   5.454
 2213TIP3    H2 6597   1.962   3.949   5.445
 2214TIP3   OH2 6598   2.671   1.817   6.554
 2214TIP3    H1 6599   2.732   1.878   6.513
 2214TIP3    H2 6600   2.678   1.835   6.648
 2215TIP3   OH2 6601   6.935   1.569   4.789
 2215TIP3    H1 6602   6.920   1.477   4.770
 2215TIP3    H2 6603   6.854   1.599   4.830
 2216TIP3   OH2 6604   2.851   7.602   4.598
 2216TIP3    H1 6605   2.896   7.518   4.583
 2216TIP3    H2 6606   2.922   7.666   4.598
 2217TIP3   OH2 6607   4.031   5.082   2.823
 2217TIP3    H1 6608   3.964   5.144   2.850
 2217TIP3    H2 6609   3.991   5.033   2.751
 2218TIP3   OH2 6610   8.313   7.057   5.506
 2218TIP3    H1 6611   8.244   7.008   5.551
 2218TIP3    H2 6612   8.292   7.049   5.413
 2219TIP3   OH2 6613   5.865   3.578   4.707
 2219TIP3    H1 6614   5.852   3.671   4.726
 2219TIP3    H2 6615   5.910   3.576   4.623
 2220TIP3   OH2 6616   5.508   0.183   5.509
 2220TIP3    H1 6617   5.454   0.162   5.433
 2220TIP3    H2 6618   5.512   0.279   5.510
 2221TIP3   OH2 6619   2.916   2.038   0.442
 2221TIP3    H1 6620   2.859   1.961   0.443
 2221TIP3    H2 6621   2.994   2.010   0.394
 2222TIP3   OH2 6622   3.863   4.057   6.550
 2222TIP3    H1 6623   3.785   4.073   6.498
 2222TIP3    H2 6624   3.936   4.069   6.488
 2223TIP3   OH2 6625   4.991   2.610   2.353
 2223TIP3    H1 6626   4.920   2.667   2.382
 2223TIP3    H2 6627   4.999   2.545   2.423
 2224TIP3   OH2 6628   1.548   3.833   2.372
 2224TIP3    H1 6629   1.526   3.744   2.346
 2224TIP3    H2 6630   1.547   3.831   2.468
 2225TIP3   OH2 6631   2.083   0.979   0.936
 2225TIP3    H1 6632   2.117   0.942   0.854
 2225TIP3    H2 6633   1.998   0.937   0.947
 2226TIP3   OH2 6634   3.129   1.798   5.355
 2226TIP3    H1 6635   3.187   1.781   5.281
 2226TIP3    H2 6636   3.041   1.800   5.318
 2227TIP3   OH2 6637   6.581   1.329   3.725
 2227TIP3    H1 6638   6.616   1.250   3.683
 2227TIP3    H2 6639   6.593   1.398   3.660
 2228TIP3   OH2 6640   7.181   7.651   2.275
 2228TIP3    H1 6641   7.175   7.556   2.278
 2228TIP3    H2 6642   7.100   7.682   2.316
 2229TIP3   OH2 6643   4.953   1.047   4.361
 2229TIP3    H1 6644   4.991   1.067   4.447
 2229TIP3    H2 6645   4.862   1.024   4.380
 2230TIP3   OH2 6646   2.665   1.085   0.758
 2230TIP3    H1 6647   2.621   1.119   0.680
 2230TIP3    H2 6648   2.695   0.997   0.733
 2231TIP3   OH2 6649   1.495   2.135   3.799
 2231TIP3    H1 6650   1.443   2.056   3.812
 2231TIP3    H2 6651   1.573   2.121   3.852
 2232TIP3   OH2 6652   4.098   3.368   5.613
 2232TIP3    H1 6653   4.090   3.372   5.709
 2232TIP3    H2 6654   4.076   3.456   5.583
 2233TIP3   OH2 6655   7.946   1.827   3.540
 2233TIP3    H1 6656   7.919   1.773   3.466
 2233TIP3    H2 6657   7.919   1.778   3.617
 2234TIP3   OH2 6658   6.782   7.263   1.218
 2234TIP3    H1 6659   6.779   7.228   1.307
 2234TIP3    H2 6660   6.695   7.247   1.183
 2235TIP3   OH2 6661   5.723   4.900   6.186
 2235TIP3    H1 6662   5.646   4.862   6.144
 2235TIP3    H2 6663   5.708   4.995   6.182
 2236TIP3   OH2 6664   7.656   4.613   0.745
 2236TIP3    H1 6665   7.569   4.592   0.778
 2236TIP3    H2 6666   7.642   4.639   0.654
 2237TIP3   OH2 6667   0.763   4.335   4.300
 2237TIP3    H1 6668   0.805   4.320   4.216
 2237TIP3    H2 6669   0.672   4.307   4.287
 2238TIP3   OH2 6670   0.420   5.994   5.976
 2238TIP3    H1 6671   0.390   6.060   5.913
 2238TIP3    H2 6672   0.398   6.031   6.062
 2239TIP3   OH2 6673   7.689   5.170   6.326
 2239TIP3    H1 6674   7.701   5.250   6.377
 2239TIP3    H2 6675   7.602   5.179   6.287
 2240TIP3   OH2 6676   3.360   4.660   5.580
 2240TIP3    H1 6677   3.277   4.673   5.626
 2240TIP3    H2 6678   3.400   4.585   5.625
 2241TIP3   OH2 6679   3.580   7.670   4.761
 2241TIP3    H1 6680   3.525   7.728   4.708
 2241TIP3    H2 6681   3.593   7.719   4.843
 2242TIP3   OH2 6682   5.616   2.087   4.749
 2242TIP3    H1 6683   5.545   2.136   4.708
 2242TIP3    H2 6684   5.645   2.142   4.822
 2243TIP3   OH2 6685   2.708   3.725   0.885
 2243TIP3    H1 6686   2.702   3.785   0.810
 2243TIP3    H2 6687   2.781   3.667   0.864
 2244TIP3   OH2 6688   1.129   1.652   3.994
 2244TIP3    H1 6689   1.171   1.566   3.985
 2244TIP3    H2 6690   1.096   1.671   3.906
 2245TIP3   OH2 6691   6.403   3.781   6.772
 2245TIP3    H1 6692   6.352   3.828   6.707
 2245TIP3    H2 6693   6.463   3.847   6.808
 2246TIP3   OH2 6694   6.543   7.665   5.213
 2246TIP3    H1 6695   6.488   7.710   5.276
 2246TIP3    H2 6696   6.621   7.720   5.206
 2247TIP3   OH2 6697   7.572   3.860   6.463
 2247TIP3    H1 6698   7.539   3.776   6.494
 2247TIP3    H2 6699   7.621   3.839   6.383
 2248TIP3   OH2 6700   2.414   4.139   6.404
 2248TIP3    H1 6701   2.383   4.065   6.352
 2248TIP3    H2 6702   2.365   4.134   6.485
 2249TIP3   OH2 6703   2.105   1.846   1.956
 2249TIP3    H1 6704   2.100   1.759   1.915
 2249TIP3    H2 6705   2.165   1.834   2.030
 2250TIP3   OH2 6706   7.051   0.766   1.435
 2250TIP3    H1 6707   7.087   0.836   1.381
 2250TIP3    H2 6708   6.961   0.756   1.404
 2251TIP3   OH2 6709   2.472   2.675   5.627
 2251TIP3    H1 6710   2.524   2.633   5.558
 2251TIP3    H2 6711   2.429   2.602   5.672
 2252TIP3   OH2 6712   6.778   1.909   4.064
 2252TIP3    H1 6713   6.771   1.895   3.969
 2252TIP3    H2 6714   6.854   1.965   4.074
 2253TIP3   OH2 6715   2.920   7.283   6.061
 2253TIP3    H1 6716   2.838   7.301   6.106
 2253TIP3    H2 6717   2.960   7.211   6.111
 2254TIP3   OH2 6718   8.035   5.521   0.780
 2254TIP3    H1 6719   8.089   5.520   0.700
 2254TIP3    H2 6720   8.046   5.434   0.816
 2255TIP3   OH2 6721   3.352   3.838   3.951
 2255TIP3    H1 6722   3.338   3.815   3.859
 2255TIP3    H2 6723   3.371   3.754   3.993
 2256TIP3   OH2 6724   6.564   3.255   6.660
 2256TIP3    H1 6725   6.543   3.265   6.753
 2256TIP3    H2 6726   6.653   3.290   6.653
 2257TIP3   OH2 6727   2.627   2.272   1.943
 2257TIP3    H1 6728   2.694   2.322   1.897
 2257TIP3    H2 6729   2.668   2.246   2.025
 2258TIP3   OH2 6730   0.676   1.763   2.720
 2258TIP3    H1 6731   0.671   1.845   2.769
 2258TIP3    H2 6732   0.755   1.773   2.666
 2259TIP3   OH2 6733   1.354   0.838   3.182
 2259TIP3    H1 6734   1.317   0.879   3.260
 2259TIP3    H2 6735   1.345   0.905   3.114
 2260TIP3   OH2 6736   7.768   4.193   2.440
 2260TIP3    H1 6737   7.678   4.223   2.424
 2260TIP3    H2 6738   7.790   4.228   2.526
 2261TIP3   OH2 6739   5.141   7.739   6.056
 2261TIP3    H1 6740   5.218   7.753   6.111
 2261TIP3    H2 6741   5.071   7.788   6.099
 2262TIP3   OH2 6742  -0.017   2.917   1.664
 2262TIP3    H1 6743   0.066   2.953   1.632
 2262TIP3    H2 6744  -0.016   2.936   1.758
 2263TIP3   OH2 6745   6.988   5.839   2.052
 2263TIP3    H1 6746   6.918   5.841   2.117
 2263TIP3    H2 6747   7.065   5.808   2.101
 2264TIP3   OH2 6748   2.292   4.707   0.827
 2264TIP3    H1 6749   2.243   4.694   0.908
 2264TIP3    H2 6750   2.368   4.648   0.835
 2265TIP3   OH2 6751   3.256   3.913   2.393
 2265TIP3    H1 6752   3.167   3.886   2.372
 2265TIP3    H2 6753   3.246   3.996   2.440
 2266TIP3   OH2 6754   1.092   1.694   1.161
 2266TIP3    H1 6755   1.056   1.612   1.194
 2266TIP3    H2 6756   1.030   1.722   1.093
 2267TIP3   OH2 6757   5.373   5.565   0.255
 2267TIP3    H1 6758   5.347   5.656   0.244
 2267TIP3    H2 6759   5.357   5.547   0.347
 2268TIP3   OH2 6760   8.315   6.575   2.991
 2268TIP3    H1 6761   8.388   6.589   2.931
 2268TIP3    H2 6762   8.237   6.589   2.938
 2269TIP3   OH2 6763   2.821   4.637   2.484
 2269TIP3    H1 6764   2.898   4.684   2.449
 2269TIP3    H2 6765   2.755   4.646   2.415
 2270TIP3   OH2 6766   7.412   0.783   4.689
 2270TIP3    H1 6767   7.393   0.872   4.659
 2270TIP3    H2 6768   7.438   0.736   4.610
 2271TIP3   OH2 6769   6.225   0.152   4.031
 2271TIP3    H1 6770   6.163   0.140   3.959
 2271TIP3    H2 6771   6.211   0.077   4.088
 2272TIP3   OH2 6772   0.246   7.077   5.085
 2272TIP3    H1 6773   0.168   7.129   5.105
 2272TIP3    H2 6774   0.211   6.994   5.052
 2273TIP3   OH2 6775   6.305   3.611   5.381
 2273TIP3    H1 6776   6.221   3.572   5.357
 2273TIP3    H2 6777   6.310   3.690   5.328
 2274TIP3   OH2 6778   5.879   3.863   4.495
 2274TIP3    H1 6779   5.818   3.835   4.427
 2274TIP3    H2 6780   5.824   3.879   4.572
 2275TIP3   OH2 6781   0.591   7.674   3.721
 2275TIP3    H1 6782   0.685   7.664   3.711
 2275TIP3    H2 6783   0.564   7.599   3.773
 2276TIP3   OH2 6784   3.958   7.364   0.371
 2276TIP3    H1 6785   3.920   7.301   0.311
 2276TIP3    H2 6786   3.952   7.322   0.457
 2277TIP3   OH2 6787   1.375   7.328   3.193
 2277TIP3    H1 6788   1.459   7.305   3.152
 2277TIP3    H2 6789   1.400   7.374   3.273
 2278TIP3   OH2 6790   1.385   1.879   1.348
 2278TIP3    H1 6791   1.397   1.935   1.271
 2278TIP3    H2 6792   1.473   1.845   1.367
 2279TIP3   OH2 6793   1.463   5.252   3.731
 2279TIP3    H1 6794   1.521   5.263   3.807
 2279TIP3    H2 6795   1.384   5.211   3.768
 2280TIP3   OH2 6796   2.325   4.776   3.774
 2280TIP3    H1 6797   2.384   4.847   3.746
 2280TIP3    H2 6798   2.241   4.798   3.734
 2281TIP3   OH2 6799   3.234   2.822   5.143
 2281TIP3    H1 6800   3.230   2.743   5.196
 2281TIP3    H2 6801   3.279   2.795   5.062
 2282TIP3   OH2 6802   0.313   1.928   4.578
 2282TIP3    H1 6803   0.304   2.023   4.587
 2282TIP3    H2 6804   0.256   1.906   4.504
 2283TIP3   OH2 6805   1.530   3.788   0.351
 2283TIP3    H1 6806   1.494   3.725   0.415
 2283TIP3    H2 6807   1.586   3.735   0.294
 2284TIP3   OH2 6808   8.230   5.882   4.618
 2284TIP3    H1 6809   8.154   5.826   4.601
 2284TIP3    H2 6810   8.304   5.821   4.622
 2285TIP3   OH2 6811   5.343   3.468   1.388
 2285TIP3    H1 6812   5.255   3.505   1.389
 2285TIP3    H2 6813   5.372   3.471   1.479
 2286TIP3   OH2 6814   4.062   4.588   3.691
 2286TIP3    H1 6815   3.986   4.572   3.634
 2286TIP3    H2 6816   4.026   4.639   3.764
 2287TIP3   OH2 6817   1.120   0.443   5.678
 2287TIP3    H1 6818   1.191   0.459   5.739
 2287TIP3    H2 6819   1.121   0.348   5.664
 2288TIP3   OH2 6820   6.208   2.038   5.389
 2288TIP3    H1 6821   6.186   2.043   5.296
 2288TIP3    H2 6822   6.161   2.112   5.428
 2289TIP3   OH2 6823   4.606   4.797   4.982
 2289TIP3    H1 6824   4.657   4.768   5.058
 2289TIP3    H2 6825   4.589   4.717   4.932
 2290TIP3   OH2 6826   5.009   5.938   2.886
 2290TIP3    H1 6827   5.039   6.020   2.846
 2290TIP3    H2 6828   4.917   5.953   2.905
 2291TIP3   OH2 6829   3.585   5.131   5.096
 2291TIP3    H1 6830   3.652   5.093   5.153
 2291TIP3    H2 6831   3.605   5.098   5.009
 2292TIP3   OH2 6832   2.810   1.119   6.185
 2292TIP3    H1 6833   2.905   1.115   6.170
 2292TIP3    H2 6834   2.774   1.049   6.131
 2293TIP3   OH2 6835   4.236   3.748   3.838
 2293TIP3    H1 6836   4.286   3.668   3.854
 2293TIP3    H2 6837   4.231   3.754   3.743
 2294TIP3   OH2 6838   5.383   1.020   0.854
 2294TIP3    H1 6839   5.450   0.958   0.882
 2294TIP3    H2 6840   5.394   1.026   0.760
 2295TIP3   OH2 6841   0.229   4.375   2.933
 2295TIP3    H1 6842   0.243   4.417   2.848
 2295TIP3    H2 6843   0.174   4.436   2.982
 2296TIP3   OH2 6844   1.433   4.750   5.511
 2296TIP3    H1 6845   1.460   4.665   5.476
 2296TIP3    H2 6846   1.494   4.768   5.581
 2297TIP3   OH2 6847   3.962   7.489   4.917
 2297TIP3    H1 6848   3.898   7.448   4.859
 2297TIP3    H2 6849   3.950   7.583   4.902
 2298TIP3   OH2 6850   1.788   7.456   6.478
 2298TIP3    H1 6851   1.833   7.444   6.395
 2298TIP3    H2 6852   1.851   7.506   6.532
 2299TIP3   OH2 6853   1.610   1.058   2.342
 2299TIP3    H1 6854   1.621   1.069   2.437
 2299TIP3    H2 6855   1.663   1.128   2.303
 2300TIP3   OH2 6856   1.120   0.424   6.093
 2300TIP3    H1 6857   1.063   0.353   6.124
 2300TIP3    H2 6858   1.137   0.476   6.171
 2301TIP3   OH2 6859   5.807   1.211   4.082
 2301TIP3    H1 6860   5.809   1.116   4.084
 2301TIP3    H2 6861   5.896   1.237   4.058
 2302TIP3   OH2 6862   4.913   2.788   2.893
 2302TIP3    H1 6863   4.872   2.817   2.974
 2302TIP3    H2 6864   4.847   2.802   2.826
 2303TIP3   OH2 6865   0.127   7.639   6.036
 2303TIP3    H1 6866   0.139   7.703   5.966
 2303TIP3    H2 6867   0.097   7.560   5.991
 2304TIP3   OH2 6868   5.568   3.045   5.962
 2304TIP3    H1 6869   5.623   3.045   6.040
 2304TIP3    H2 6870   5.525   3.131   5.962
 2305TIP3   OH2 6871   8.025   0.297   0.500
 2305TIP3    H1 6872   8.000   0.250   0.580
 2305TIP3    H2 6873   8.116   0.324   0.515
 2306TIP3   OH2 6874   5.121   7.581   1.334
 2306TIP3    H1 6875   5.080   7.555   1.251
 2306TIP3    H2 6876   5.196   7.634   1.308
 2307TIP3   OH2 6877   6.403   0.645   4.941
 2307TIP3    H1 6878   6.437   0.568   4.896
 2307TIP3    H2 6879   6.411   0.716   4.877
 2308TIP3   OH2 6880   1.302   6.480   2.036
 2308TIP3    H1 6881   1.295   6.465   2.130
 2308TIP3    H2 6882   1.368   6.417   2.006
 2309TIP3   OH2 6883   6.659   1.131   3.551
 2309TIP3    H1 6884   6.715   1.134   3.473
 2309TIP3    H2 6885   6.673   1.044   3.588
 2310TIP3   OH2 6886   5.851   6.232   2.572
 2310TIP3    H1 6887   5.850   6.190   2.658
 2310TIP3    H2 6888   5.934   6.205   2.534
 2311TIP3   OH2 6889   6.749   2.486   5.730
 2311TIP3    H1 6890   6.728   2.418   5.666
 2311TIP3    H2 6891   6.799   2.441   5.798
 2312TIP3   OH2 6892   6.322   1.869   5.081
 2312TIP3    H1 6893   6.266   1.807   5.128
 2312TIP3    H2 6894   6.282   1.955   5.098
 2313TIP3   OH2 6895   4.743   6.778   1.500
 2313TIP3    H1 6896   4.658   6.735   1.507
 2313TIP3    H2 6897   4.786   6.736   1.425
 2314TIP3   OH2 6898   2.178   2.755   5.600
 2314TIP3    H1 6899   2.256   2.755   5.544
 2314TIP3    H2 6900   2.166   2.663   5.624
 2315TIP3   OH2 6901   6.290   6.470   0.080
 2315TIP3    H1 6902   6.257   6.560   0.077
 2315TIP3    H2 6903   6.348   6.463   0.004
 2316TIP3   OH2 6904   2.623   4.337   5.995
 2316TIP3    H1 6905   2.593   4.284   6.069
 2316TIP3    H2 6906   2.622   4.427   6.028
 2317TIP3   OH2 6907   5.634   1.207   6.165
 2317TIP3    H1 6908   5.615   1.115   6.185
 2317TIP3    H2 6909   5.550   1.251   6.174
 2318TIP3   OH2 6910   5.932   3.159   5.714
 2318TIP3    H1 6911   5.972   3.225   5.657
 2318TIP3    H2 6912   5.904   3.090   5.654
 2319TIP3   OH2 6913   2.748   4.180   5.813
 2319TIP3    H1 6914   2.702   4.249   5.861
 2319TIP3    H2 6915   2.825   4.160   5.867
 2320TIP3   OH2 6916   3.967   6.115   6.528
 2320TIP3    H1 6917   3.877   6.144   6.512
 2320TIP3    H2 6918   3.979   6.124   6.622
 2321TIP3   OH2 6919   1.664   0.743   0.154
 2321TIP3    H1 6920   1.660   0.672   0.218
 2321TIP3    H2 6921   1.730   0.802   0.188
 2322TIP3   OH2 6922   2.717   2.403   3.138
 2322TIP3    H1 6923   2.738   2.314   3.168
 2322TIP3    H2 6924   2.799   2.436   3.103
 2323TIP3   OH2 6925   7.908   1.634   3.744
 2323TIP3    H1 6926   7.946   1.642   3.832
 2323TIP3    H2 6927   7.959   1.564   3.703
 2324TIP3   OH2 6928   4.709   5.285   0.023
 2324TIP3    H1 6929   4.643   5.287  -0.046
 2324TIP3    H2 6930   4.713   5.375   0.056
 2325TIP3   OH2 6931   1.629   6.254   4.159
 2325TIP3    H1 6932   1.604   6.172   4.201
 2325TIP3    H2 6933   1.589   6.248   4.072
 2326TIP3   OH2 6934   3.354   2.798   5.863
 2326TIP3    H1 6935   3.320   2.761   5.945
 2326TIP3    H2 6936   3.394   2.723   5.818
 2327TIP3   OH2 6937   2.535   5.418   0.653
 2327TIP3    H1 6938   2.485   5.488   0.694
 2327TIP3    H2 6939   2.481   5.387   0.581
 2328TIP3   OH2 6940   1.451   6.777   0.735
 2328TIP3    H1 6941   1.465   6.764   0.642
 2328TIP3    H2 6942   1.533   6.749   0.776
 2329TIP3   OH2 6943   2.073   6.638   1.417
 2329TIP3    H1 6944   2.131   6.605   1.486
 2329TIP3    H2 6945   2.002   6.575   1.413
 2330TIP3   OH2 6946   6.556   3.976   4.741
 2330TIP3    H1 6947   6.522   4.048   4.793
 2330TIP3    H2 6948   6.481   3.919   4.726
 2331TIP3   OH2 6949   2.761   3.584   5.182
 2331TIP3    H1 6950   2.695   3.524   5.149
 2331TIP3    H2 6951   2.745   3.666   5.136
 2332TIP3   OH2 6952   0.017   7.013   1.616
 2332TIP3    H1 6953  -0.011   7.007   1.707
 2332TIP3    H2 6954   0.101   6.968   1.613
 2333TIP3   OH2 6955   6.026   7.096   2.027
 2333TIP3    H1 6956   5.974   7.032   1.978
 2333TIP3    H2 6957   5.999   7.180   1.992
 2334TIP3   OH2 6958   1.680   1.104   5.237
 2334TIP3    H1 6959   1.650   1.110   5.327
 2334TIP3    H2 6960   1.764   1.058   5.242
 2335TIP3   OH2 6961   0.513   2.737   1.010
 2335TIP3    H1 6962   0.508   2.816   0.955
 2335TIP3    H2 6963   0.446   2.750   1.076
 2336TIP3   OH2 6964   6.355   6.141   6.709
 2336TIP3    H1 6965   6.335   6.052   6.737
 2336TIP3    H2 6966   6.419   6.131   6.638
 2337TIP3   OH2 6967   0.808   6.256   3.963
 2337TIP3    H1 6968   0.884   6.305   3.994
 2337TIP3    H2 6969   0.773   6.214   4.042
 2338TIP3   OH2 6970   7.728   6.148   2.954
 2338TIP3    H1 6971   7.804   6.198   2.984
 2338TIP3    H2 6972   7.756   6.107   2.873
 2339TIP3   OH2 6973   2.642   4.826   1.587
 2339TIP3    H1 6974   2.569   4.838   1.647
 2339TIP3    H2 6975   2.685   4.912   1.583
 2340TIP3   OH2 6976   4.560   1.944   2.669
 2340TIP3    H1 6977   4.497   1.938   2.742
 2340TIP3    H2 6978   4.643   1.915   2.707
 2341TIP3   OH2 6979   1.161   5.455   3.002
 2341TIP3    H1 6980   1.231   5.519   2.998
 2341TIP3    H2 6981   1.148   5.429   2.911
 2342TIP3   OH2 6982   6.530   7.527   0.535
 2342TIP3    H1 6983   6.529   7.521   0.440
 2342TIP3    H2 6984   6.619   7.501   0.559
 2343TIP3   OH2 6985   0.097   5.018   2.257
 2343TIP3    H1 6986   0.036   5.090   2.240
 2343TIP3    H2 6987   0.129   5.034   2.346
 2344TIP3   OH2 6988   0.499   4.747   5.636
 2344TIP3    H1 6989   0.529   4.829   5.676
 2344TIP3    H2 6990   0.417   4.770   5.593
 2345TIP3   OH2 6991   4.656   3.368   4.556
 2345TIP3    H1 6992   4.683   3.431   4.623
 2345TIP3    H2 6993   4.702   3.396   4.477
 2346TIP3   OH2 6994   6.455   6.374   5.983
 2346TIP3    H1 6995   6.533   6.395   5.932
 2346TIP3    H2 6996   6.449   6.443   6.048
 2347TIP3   OH2 6997   6.321   7.001   4.006
 2347TIP3    H1 6998   6.305   6.995   3.913
 2347TIP3    H2 6999   6.236   7.022   4.045
 2348TIP3   OH2 7000   7.559   6.721   3.158
 2348TIP3    H1 7001   7.507   6.662   3.213
 2348TIP3    H2 7002   7.519   6.714   3.071
 2349TIP3   OH2 7003   0.803   3.055   3.267
 2349TIP3    H1 7004   0.715   3.090   3.285
 2349TIP3    H2 7005   0.862   3.126   3.292
 2350TIP3   OH2 7006   0.112   6.604   0.650
 2350TIP3    H1 7007   0.198   6.619   0.610
 2350TIP3    H2 7008   0.132   6.588   0.742
 2351TIP3   OH2 7009   7.448   7.145   0.399
 2351TIP3    H1 7010   7.514   7.151   0.468
 2351TIP3    H2 7011   7.379   7.089   0.437
 2352TIP3   OH2 7012   3.590   4.390   4.602
 2352TIP3    H1 7013   3.567   4.461   4.662
 2352TIP3    H2 7014   3.536   4.405   4.525
 2353TIP3   OH2 7015   3.354   4.431   1.388
 2353TIP3    H1 7016   3.404   4.512   1.396
 2353TIP3    H2 7017   3.360   4.408   1.295
 2354TIP3   OH2 7018   1.011   2.124   0.270
 2354TIP3    H1 7019   1.016   2.106   0.176
 2354TIP3    H2 7020   0.930   2.080   0.299
 2355TIP3   OH2 7021   1.863   4.808   3.938
 2355TIP3    H1 7022   1.889   4.889   3.894
 2355TIP3    H2 7023   1.814   4.759   3.871
 2356TIP3   OH2 7024   5.130   2.875   3.448
 2356TIP3    H1 7025   5.046   2.920   3.442
 2356TIP3    H2 7026   5.152   2.879   3.541
 2357TIP3   OH2 7027   5.756   6.893   0.395
 2357TIP3    H1 7028   5.819   6.954   0.357
 2357TIP3    H2 7029   5.680   6.898   0.337
 2358TIP3   OH2 7030   3.184   2.244   1.329
 2358TIP3    H1 7031   3.258   2.229   1.270
 2358TIP3    H2 7032   3.107   2.232   1.274
 2359TIP3   OH2 7033   1.129   4.987   1.273
 2359TIP3    H1 7034   1.114   5.075   1.237
 2359TIP3    H2 7035   1.130   4.929   1.197
 2360TIP3   OH2 7036   1.178   0.599   1.219
 2360TIP3    H1 7037   1.172   0.688   1.184
 2360TIP3    H2 7038   1.092   0.582   1.257
 2361TIP3   OH2 7039   7.541   6.344   4.731
 2361TIP3    H1 7040   7.604   6.272   4.726
 2361TIP3    H2 7041   7.456   6.302   4.713
 2362TIP3   OH2 7042   2.119   3.441   0.379
 2362TIP3    H1 7043   2.179   3.480   0.443
 2362TIP3    H2 7044   2.105   3.352   0.410
 2363TIP3   OH2 7045   2.617   5.808   5.595
 2363TIP3    H1 7046   2.643   5.817   5.687
 2363TIP3    H2 7047   2.617   5.713   5.580
 2364TIP3   OH2 7048   7.398   6.396   6.555
 2364TIP3    H1 7049   7.452   6.445   6.493
 2364TIP3    H2 7050   7.452   6.323   6.582
 2365TIP3   OH2 7051   7.909   5.336   6.475
 2365TIP3    H1 7052   7.968   5.272   6.514
 2365TIP3    H2 7053   7.822   5.310   6.504
 2366TIP3   OH2 7054   5.051   0.456   3.581
 2366TIP3    H1 7055   4.989   0.474   3.651
 2366TIP3    H2 7056   5.002   0.404   3.517
 2367TIP3   OH2 7057   1.812   7.527   4.807
 2367TIP3    H1 7058   1.865   7.448   4.796
 2367TIP3    H2 7059   1.873   7.599   4.787
 2368TIP3   OH2 7060   7.852   4.195   0.171
 2368TIP3    H1 7061   7.783   4.205   0.235
 2368TIP3    H2 7062   7.854   4.101   0.151
 2369TIP3   OH2 7063   8.289   2.885   0.825
 2369TIP3    H1 7064   8.288   2.893   0.729
 2369TIP3    H2 7065   8.249   2.967   0.856
 2370TIP3   OH2 7066   4.490   5.210   5.381
 2370TIP3    H1 7067   4.395   5.213   5.377
 2370TIP3    H2 7068   4.509   5.162   5.462
 2371TIP3   OH2 7069   3.767   3.328   4.727
 2371TIP3    H1 7070   3.847   3.293   4.764
 2371TIP3    H2 7071   3.745   3.269   4.655
 2372TIP3   OH2 7072   3.231   3.312   5.240
 2372TIP3    H1 7073   3.173   3.236   5.245
 2372TIP3    H2 7074   3.208   3.364   5.317
 2373TIP3   OH2 7075   1.265   6.564   4.405
 2373TIP3    H1 7076   1.321   6.642   4.395
 2373TIP3    H2 7077   1.227   6.573   4.492
 2374TIP3   OH2 7078   6.266   1.538   5.027
 2374TIP3    H1 7079   6.185   1.527   5.076
 2374TIP3    H2 7080   6.257   1.479   4.952
 2375TIP3   OH2 7081   5.377   4.276   6.697
 2375TIP3    H1 7082   5.460   4.317   6.719
 2375TIP3    H2 7083   5.310   4.333   6.735
 2376TIP3   OH2 7084   1.653   1.338   1.106
 2376TIP3    H1 7085   1.571   1.325   1.155
 2376TIP3    H2 7086   1.710   1.384   1.167
 2377TIP3   OH2 7087   7.126   4.948   4.374
 2377TIP3    H1 7088   7.078   4.985   4.300
 2377TIP3    H2 7089   7.218   4.968   4.356
 2378TIP3   OH2 7090   0.927   0.844   2.054
 2378TIP3    H1 7091   0.943   0.890   2.136
 2378TIP3    H2 7092   1.003   0.865   2.000
 2379TIP3   OH2 7093   6.947   5.998   4.896
 2379TIP3    H1 7094   6.938   5.903   4.899
 2379TIP3    H2 7095   6.863   6.029   4.864
 2380TIP3   OH2 7096   4.555   2.035   3.007
 2380TIP3    H1 7097   4.500   1.957   3.003
 2380TIP3    H2 7098   4.644   2.001   3.016
 2381TIP3   OH2 7099   3.020   7.687   3.507
 2381TIP3    H1 7100   3.084   7.661   3.573
 2381TIP3    H2 7101   2.951   7.622   3.514
 2382TIP3   OH2 7102   0.096   1.149   3.352
 2382TIP3    H1 7103   0.058   1.237   3.360
 2382TIP3    H2 7104   0.030   1.091   3.388
 2383TIP3   OH2 7105   5.193   0.884   0.635
 2383TIP3    H1 7106   5.267   0.935   0.603
 2383TIP3    H2 7107   5.202   0.800   0.590
 2384TIP3   OH2 7108   8.208   2.678   1.496
 2384TIP3    H1 7109   8.224   2.730   1.574
 2384TIP3    H2 7110   8.135   2.722   1.452
 2385TIP3   OH2 7111   5.744   6.049   2.144
 2385TIP3    H1 7112   5.731   6.142   2.125
 2385TIP3    H2 7113   5.720   6.039   2.236
 2386TIP3   OH2 7114   3.540   7.795   1.678
 2386TIP3    H1 7115   3.480   7.721   1.668
 2386TIP3    H2 7116   3.538   7.815   1.771
 2387TIP3   OH2 7117   0.336   5.104   2.782
 2387TIP3    H1 7118   0.356   5.020   2.741
 2387TIP3    H2 7119   0.309   5.081   2.871
 2388TIP3   OH2 7120   6.234   3.031   4.092
 2388TIP3    H1 7121   6.306   3.083   4.127
 2388TIP3    H2 7122   6.276   2.951   4.059
 2389TIP3   OH2 7123   7.349   4.048   5.568
 2389TIP3    H1 7124   7.328   4.053   5.475
 2389TIP3    H2 7125   7.410   3.974   5.575
 2390TIP3   OH2 7126   7.685   4.045   1.223
 2390TIP3    H1 7127   7.609   4.069   1.169
 2390TIP3    H2 7128   7.706   4.123   1.272
 2391TIP3   OH2 7129   2.353   1.573   4.687
 2391TIP3    H1 7130   2.323   1.636   4.752
 2391TIP3    H2 7131   2.284   1.507   4.683
 2392TIP3   OH2 7132   3.197   1.816   4.504
 2392TIP3    H1 7133   3.244   1.895   4.532
 2392TIP3    H2 7134   3.109   1.848   4.483
 2393TIP3   OH2 7135   3.026   4.047   1.292
 2393TIP3    H1 7136   3.015   3.970   1.347
 2393TIP3    H2 7137   2.939   4.086   1.287
 2394TIP3   OH2 7138   8.091   2.011   4.705
 2394TIP3    H1 7139   8.036   2.080   4.742
 2394TIP3    H2 7140   8.030   1.944   4.676
 2395TIP3   OH2 7141   5.816   6.298   3.564
 2395TIP3    H1 7142   5.725   6.305   3.593
 2395TIP3    H2 7143   5.810   6.285   3.469
 2396TIP3   OH2 7144   8.135   2.401   3.960
 2396TIP3    H1 7145   8.071   2.426   4.026
 2396TIP3    H2 7146   8.104   2.317   3.927
 2397TIP3   OH2 7147   2.410   3.256   0.569
 2397TIP3    H1 7148   2.493   3.231   0.528
 2397TIP3    H2 7149   2.346   3.255   0.498
 2398TIP3   OH2 7150   0.939   2.481   0.998
 2398TIP3    H1 7151   0.887   2.559   0.981
 2398TIP3    H2 7152   0.891   2.433   1.065
 2399TIP3   OH2 7153   6.283   4.707   4.972
 2399TIP3    H1 7154   6.201   4.721   5.020
 2399TIP3    H2 7155   6.348   4.692   5.041
 2400TIP3   OH2 7156   7.644   3.587   3.284
 2400TIP3    H1 7157   7.586   3.523   3.325
 2400TIP3    H2 7158   7.674   3.544   3.204
 2401TIP3   OH2 7159   5.431   3.488   5.756
 2401TIP3    H1 7160   5.484   3.562   5.727
 2401TIP3    H2 7161   5.458   3.471   5.846
 2402TIP3   OH2 7162   7.918   5.621   3.613
 2402TIP3    H1 7163   8.009   5.645   3.634
 2402TIP3    H2 7164   7.897   5.550   3.674
 2403TIP3   OH2 7165   0.372   3.373   3.089
 2403TIP3    H1 7166   0.429   3.441   3.126
 2403TIP3    H2 7167   0.381   3.383   2.995
 2404TIP3   OH2 7168   3.318   1.143   6.304
 2404TIP3    H1 7169   3.256   1.086   6.349
 2404TIP3    H2 7170   3.276   1.164   6.220
 2405TIP3   OH2 7171   4.900   4.158   4.221
 2405TIP3    H1 7172   4.826   4.200   4.266
 2405TIP3    H2 7173   4.864   4.076   4.189
 2406TIP3   OH2 7174   6.983   6.125   2.233
 2406TIP3    H1 7175   6.970   6.043   2.281
 2406TIP3    H2 7176   6.966   6.193   2.298
 2407TIP3   OH2 7177   0.004   4.421   6.322
 2407TIP3    H1 7178  -0.006   4.345   6.264
 2407TIP3    H2 7179   0.054   4.484   6.270
 2408TIP3   OH2 7180   0.665   2.880   2.545
 2408TIP3    H1 7181   0.689   2.956   2.598
 2408TIP3    H2 7182   0.677   2.805   2.604
 2409TIP3   OH2 7183   0.726   1.562   0.262
 2409TIP3    H1 7184   0.679   1.598   0.337
 2409TIP3    H2 7185   0.806   1.613   0.257
 2410TIP3   OH2 7186   1.226   5.662   2.555
 2410TIP3    H1 7187   1.226   5.678   2.649
 2410TIP3    H2 7188   1.261   5.742   2.516
 2411TIP3   OH2 7189   7.255   5.963   2.220
 2411TIP3    H1 7190   7.199   6.037   2.242
 2411TIP3    H2 7191   7.323   6.000   2.163
 2412TIP3   OH2 7192   8.253   3.636   6.195
 2412TIP3    H1 7193   8.283   3.649   6.285
 2412TIP3    H2 7194   8.245   3.541   6.186
 2413TIP3   OH2 7195   1.648   4.003   5.158
 2413TIP3    H1 7196   1.720   3.941   5.147
 2413TIP3    H2 7197   1.614   3.986   5.246
 2414TIP3   OH2 7198   6.910   6.340   1.602
 2414TIP3    H1 7199   6.877   6.252   1.582
 2414TIP3    H2 7200   6.831   6.393   1.611
 2415TIP3   OH2 7201   0.952   6.548   4.600
 2415TIP3    H1 7202   1.009   6.485   4.645
 2415TIP3    H2 7203   0.879   6.562   4.661
 2416TIP3   OH2 7204   4.349   3.423   4.666
 2416TIP3    H1 7205   4.413   3.440   4.734
 2416TIP3    H2 7206   4.284   3.366   4.708
 2417TIP3   OH2 7207   7.934   2.353   3.767
 2417TIP3    H1 7208   7.978   2.279   3.725
 2417TIP3    H2 7209   7.994   2.427   3.756
 2418TIP3   OH2 7210   6.116   2.941   2.460
 2418TIP3    H1 7211   6.067   2.960   2.540
 2418TIP3    H2 7212   6.050   2.914   2.397
 2419TIP3   OH2 7213   3.388   6.136   5.684
 2419TIP3    H1 7214   3.403   6.153   5.591
 2419TIP3    H2 7215   3.389   6.223   5.725
 2420TIP3   OH2 7216   1.125   4.819   1.030
 2420TIP3    H1 7217   1.041   4.855   1.001
 2420TIP3    H2 7218   1.102   4.744   1.084
 2421TIP3   OH2 7219   6.371   6.743   1.471
 2421TIP3    H1 7220   6.380   6.662   1.520
 2421TIP3    H2 7221   6.287   6.736   1.426
 2422TIP3   OH2 7222   0.720   3.936   4.443
 2422TIP3    H1 7223   0.761   3.930   4.530
 2422TIP3    H2 7224   0.656   4.006   4.452
 2423TIP3   OH2 7225   8.031   5.989   6.343
 2423TIP3    H1 7226   8.108   6.038   6.315
 2423TIP3    H2 7227   7.976   6.054   6.387
 2424TIP3   OH2 7228   2.416   7.415   2.008
 2424TIP3    H1 7229   2.413   7.411   1.913
 2424TIP3    H2 7230   2.444   7.327   2.035
 2425TIP3   OH2 7231   8.147   2.242   0.281
 2425TIP3    H1 7232   8.233   2.205   0.296
 2425TIP3    H2 7233   8.164   2.332   0.253
 2426TIP3   OH2 7234   2.711   2.512   1.484
 2426TIP3    H1 7235   2.801   2.487   1.506
 2426TIP3    H2 7236   2.665   2.512   1.568
 2427TIP3   OH2 7237   0.423   2.493   2.095
 2427TIP3    H1 7238   0.415   2.474   2.001
 2427TIP3    H2 7239   0.457   2.412   2.132
 2428TIP3   OH2 7240   1.005   4.832   4.957
 2428TIP3    H1 7241   0.992   4.739   4.937
 2428TIP3    H2 7242   0.992   4.876   4.873
 2429TIP3   OH2 7243   6.242   6.098   1.556
 2429TIP3    H1 7244   6.231   6.103   1.651
 2429TIP3    H2 7245   6.154   6.078   1.523
 2430TIP3   OH2 7246   3.979   1.870   1.963
 2430TIP3    H1 7247   3.964   1.954   2.006
 2430TIP3    H2 7248   3.896   1.847   1.923
 2431TIP3   OH2 7249   3.863   6.461   2.213
 2431TIP3    H1 7250   3.914   6.417   2.281
 2431TIP3    H2 7251   3.868   6.403   2.138
 2432TIP3   OH2 7252   4.310   3.445   3.012
 2432TIP3    H1 7253   4.248   3.385   3.054
 2432TIP3    H2 7254   4.396   3.414   3.041
 2433TIP3   OH2 7255   0.385   5.656   4.215
 2433TIP3    H1 7256   0.441   5.675   4.290
 2433TIP3    H2 7257   0.309   5.611   4.252
 2434TIP3   OH2 7258   3.871   3.550   6.426
 2434TIP3    H1 7259   3.945   3.523   6.482
 2434TIP3    H2 7260   3.850   3.638   6.456
 2435TIP3   OH2 7261   3.283   2.161   0.810
 2435TIP3    H1 7262   3.327   2.161   0.725
 2435TIP3    H2 7263   3.309   2.079   0.851
 2436TIP3   OH2 7264   0.440   4.958   3.281
 2436TIP3    H1 7265   0.465   5.016   3.354
 2436TIP3    H2 7266   0.492   4.879   3.294
 2437TIP3   OH2 7267   2.592   6.156   0.830
 2437TIP3    H1 7268   2.532   6.121   0.764
 2437TIP3    H2 7269   2.678   6.126   0.802
 2438TIP3   OH2 7270   2.668   7.254   5.797
 2438TIP3    H1 7271   2.731   7.325   5.783
 2438TIP3    H2 7272   2.587   7.299   5.821
 2439TIP3   OH2 7273   4.701   3.093   1.035
 2439TIP3    H1 7274   4.773   3.049   1.081
 2439TIP3    H2 7275   4.631   3.028   1.033
 2440TIP3   OH2 7276   5.054   6.267   1.713
 2440TIP3    H1 7277   4.979   6.289   1.769
 2440TIP3    H2 7278   5.020   6.202   1.651
 2441TIP3   OH2 7279   1.977   4.275   5.319
 2441TIP3    H1 7280   2.017   4.361   5.329
 2441TIP3    H2 7281   2.034   4.230   5.256
 2442TIP3   OH2 7282   4.297   5.336   2.154
 2442TIP3    H1 7283   4.306   5.301   2.065
 2442TIP3    H2 7284   4.378   5.385   2.168
 2443TIP3   OH2 7285   1.028   7.402   4.899
 2443TIP3    H1 7286   1.067   7.411   4.811
 2443TIP3    H2 7287   0.935   7.415   4.885
 2444TIP3   OH2 7288   3.547   7.147   5.656
 2444TIP3    H1 7289   3.556   7.055   5.631
 2444TIP3    H2 7290   3.630   7.169   5.698
 2445TIP3   OH2 7291   4.882   6.441   4.975
 2445TIP3    H1 7292   4.864   6.490   4.895
 2445TIP3    H2 7293   4.835   6.358   4.963
 2446TIP3   OH2 7294   1.778   6.908   2.454
 2446TIP3    H1 7295   1.811   6.936   2.539
 2446TIP3    H2 7296   1.702   6.853   2.475
 2447TIP3   OH2 7297   3.093   6.707   3.660
 2447TIP3    H1 7298   3.163   6.731   3.720
 2447TIP3    H2 7299   3.137   6.691   3.577
 2448TIP3   OH2 7300   5.244   0.265   4.519
 2448TIP3    H1 7301   5.170   0.209   4.540
 2448TIP3    H2 7302   5.288   0.221   4.447
 2449TIP3   OH2 7303   7.501   6.639   5.768
 2449TIP3    H1 7304   7.572   6.628   5.706
 2449TIP3    H2 7305   7.468   6.728   5.753
 2450TIP3   OH2 7306   3.447   0.780   6.636
 2450TIP3    H1 7307   3.375   0.821   6.685
 2450TIP3    H2 7308   3.481   0.850   6.581
 2451TIP3   OH2 7309   0.185   4.165   0.045
 2451TIP3    H1 7310   0.133   4.158   0.125
 2451TIP3    H2 7311   0.267   4.205   0.073
 2452TIP3   OH2 7312   7.520   1.129   2.020
 2452TIP3    H1 7313   7.445   1.167   1.975
 2452TIP3    H2 7314   7.535   1.045   1.976
 2453TIP3   OH2 7315   3.840   2.335   3.500
 2453TIP3    H1 7316   3.823   2.287   3.581
 2453TIP3    H2 7317   3.834   2.427   3.525
 2454TIP3   OH2 7318   4.311   0.924   6.628
 2454TIP3    H1 7319   4.394   0.893   6.591
 2454TIP3    H2 7320   4.277   0.849   6.677
 2455TIP3   OH2 7321   2.615   7.435   2.320
 2455TIP3    H1 7322   2.611   7.343   2.294
 2455TIP3    H2 7323   2.572   7.482   2.249
 2456TIP3   OH2 7324   7.564   7.165   6.730
 2456TIP3    H1 7325   7.589   7.246   6.775
 2456TIP3    H2 7326   7.522   7.195   6.649
 2457TIP3   OH2 7327   2.199   0.227   0.802
 2457TIP3    H1 7328   2.239   0.142   0.817
 2457TIP3    H2 7329   2.271   0.283   0.772
 2458TIP3   OH2 7330   3.311   2.635   1.709
 2458TIP3    H1 7331   3.310   2.620   1.803
 2458TIP3    H2 7332   3.270   2.557   1.672
 2459TIP3   OH2 7333   2.108   1.430   4.642
 2459TIP3    H1 7334   2.027   1.479   4.629
 2459TIP3    H2 7335   2.087   1.365   4.709
 2460TIP3   OH2 7336   1.386   7.125   4.920
 2460TIP3    H1 7337   1.293   7.122   4.899
 2460TIP3    H2 7338   1.418   7.203   4.874
 2461TIP3   OH2 7339   3.042   1.576   4.464
 2461TIP3    H1 7340   3.020   1.587   4.557
 2461TIP3    H2 7341   3.103   1.648   4.445
 2462TIP3   OH2 7342   5.246   2.709   2.111
 2462TIP3    H1 7343   5.306   2.723   2.038
 2462TIP3    H2 7344   5.183   2.781   2.104
 2463TIP3   OH2 7345   6.476   5.648   0.356
 2463TIP3    H1 7346   6.530   5.727   0.359
 2463TIP3    H2 7347   6.501   5.605   0.275
 2464TIP3   OH2 7348   7.317   1.452   3.090
 2464TIP3    H1 7349   7.315   1.442   3.185
 2464TIP3    H2 7350   7.231   1.488   3.068
 2465TIP3   OH2 7351   1.925   7.588   0.334
 2465TIP3    H1 7352   1.938   7.493   0.329
 2465TIP3    H2 7353   1.911   7.605   0.427
 2466TIP3   OH2 7354   2.727   2.124   3.176
 2466TIP3    H1 7355   2.815   2.091   3.196
 2466TIP3    H2 7356   2.681   2.048   3.140
 2467TIP3   OH2 7357   3.820   5.898   4.690
 2467TIP3    H1 7358   3.766   5.977   4.697
 2467TIP3    H2 7359   3.904   5.930   4.656
 2468TIP3   OH2 7360   0.600   2.859   2.982
 2468TIP3    H1 7361   0.546   2.939   2.974
 2468TIP3    H2 7362   0.595   2.819   2.895
 2469TIP3   OH2 7363   1.589   4.464   4.569
 2469TIP3    H1 7364   1.665   4.515   4.543
 2469TIP3    H2 7365   1.615   4.422   4.651
 2470TIP3   OH2 7366   4.656   0.710   5.644
 2470TIP3    H1 7367   4.711   0.783   5.615
 2470TIP3    H2 7368   4.641   0.659   5.565
 2471TIP3   OH2 7369   0.696   7.285   3.104
 2471TIP3    H1 7370   0.776   7.303   3.054
 2471TIP3    H2 7371   0.688   7.360   3.164
 2472TIP3   OH2 7372   7.726   3.395   2.157
 2472TIP3    H1 7373   7.650   3.357   2.112
 2472TIP3    H2 7374   7.688   3.455   2.221
 2473TIP3   OH2 7375   3.762   6.349   1.354
 2473TIP3    H1 7376   3.811   6.410   1.408
 2473TIP3    H2 7377   3.674   6.386   1.349
 2474TIP3   OH2 7378   4.440   7.118   5.292
 2474TIP3    H1 7379   4.396   7.042   5.331
 2474TIP3    H2 7380   4.456   7.177   5.366
 2475TIP3   OH2 7381   2.719   1.297   6.630
 2475TIP3    H1 7382   2.786   1.362   6.612
 2475TIP3    H2 7383   2.729   1.231   6.561
 2476TIP3   OH2 7384   2.304   2.942   1.280
 2476TIP3    H1 7385   2.388   2.970   1.315
 2476TIP3    H2 7386   2.275   2.871   1.337
 2477TIP3   OH2 7387   7.661   6.875   2.542
 2477TIP3    H1 7388   7.681   6.828   2.623
 2477TIP3    H2 7389   7.622   6.958   2.570
 2478TIP3   OH2 7390   7.892   0.542   5.031
 2478TIP3    H1 7391   7.945   0.605   5.079
 2478TIP3    H2 7392   7.953   0.473   5.005
 2479TIP3   OH2 7393   0.371   3.768   0.125
 2479TIP3    H1 7394   0.318   3.794   0.201
 2479TIP3    H2 7395   0.458   3.751   0.162
 2480TIP3   OH2 7396   7.520   0.682   3.379
 2480TIP3    H1 7397   7.591   0.639   3.330
 2480TIP3    H2 7398   7.459   0.711   3.311
 2481TIP3   OH2 7399   6.042   2.575   0.533
 2481TIP3    H1 7400   6.036   2.574   0.629
 2481TIP3    H2 7401   6.136   2.576   0.515
 2482TIP3   OH2 7402   3.885   5.148   3.121
 2482TIP3    H1 7403   3.937   5.177   3.195
 2482TIP3    H2 7404   3.799   5.189   3.134
 2483TIP3   OH2 7405   7.346   0.459   2.361
 2483TIP3    H1 7406   7.408   0.514   2.314
 2483TIP3    H2 7407   7.264   0.509   2.360
 2484TIP3   OH2 7408   0.553   3.662   0.924
 2484TIP3    H1 7409   0.459   3.670   0.942
 2484TIP3    H2 7410   0.559   3.652   0.829
 2485TIP3   OH2 7411   0.370   7.185   2.476
 2485TIP3    H1 7412   0.413   7.245   2.537
 2485TIP3    H2 7413   0.317   7.241   2.421
 2486TIP3   OH2 7414   7.043   5.471   0.532
 2486TIP3    H1 7415   7.029   5.565   0.535
 2486TIP3    H2 7416   6.995   5.441   0.454
 2487TIP3   OH2 7417   1.312   6.463   0.597
 2487TIP3    H1 7418   1.364   6.479   0.676
 2487TIP3    H2 7419   1.232   6.513   0.610
 2488TIP3   OH2 7420   0.951   6.723   3.245
 2488TIP3    H1 7421   1.012   6.652   3.222
 2488TIP3    H2 7422   1.000   6.803   3.224
 2489TIP3   OH2 7423   5.620   7.253   4.778
 2489TIP3    H1 7424   5.650   7.253   4.687
 2489TIP3    H2 7425   5.595   7.162   4.795
 2490TIP3   OH2 7426   4.966   4.055   0.946
 2490TIP3    H1 7427   5.030   4.101   1.002
 2490TIP3    H2 7428   5.010   3.974   0.922
 2491TIP3   OH2 7429   1.686   1.573   4.030
 2491TIP3    H1 7430   1.727   1.548   4.113
 2491TIP3    H2 7431   1.652   1.490   3.996
 2492TIP3   OH2 7432   3.404   4.375   1.123
 2492TIP3    H1 7433   3.343   4.302   1.111
 2492TIP3    H2 7434   3.462   4.371   1.046
 2493TIP3   OH2 7435   6.311   1.209   1.058
 2493TIP3    H1 7436   6.400   1.236   1.034
 2493TIP3    H2 7437   6.320   1.116   1.079
 2494TIP3   OH2 7438   1.688   1.558   6.103
 2494TIP3    H1 7439   1.615   1.522   6.054
 2494TIP3    H2 7440   1.671   1.652   6.106
 2495TIP3   OH2 7441   3.548   2.354   4.577
 2495TIP3    H1 7442   3.587   2.392   4.656
 2495TIP3    H2 7443   3.475   2.301   4.610
 2496TIP3   OH2 7444   4.603   7.198   1.353
 2496TIP3    H1 7445   4.526   7.142   1.342
 2496TIP3    H2 7446   4.667   7.142   1.397
 2497TIP3   OH2 7447   0.119   4.107   0.293
 2497TIP3    H1 7448   0.036   4.113   0.342
 2497TIP3    H2 7449   0.153   4.020   0.314
 2498TIP3   OH2 7450   5.112   0.670   4.684
 2498TIP3    H1 7451   5.142   0.627   4.604
 2498TIP3    H2 7452   5.024   0.702   4.663
 2499TIP3   OH2 7453   6.171   5.153   4.635
 2499TIP3    H1 7454   6.077   5.139   4.646
 2499TIP3    H2 7455   6.206   5.153   4.724
 2500TIP3   OH2 7456   4.006   3.069   6.026
 2500TIP3    H1 7457   4.101   3.067   6.018
 2500TIP3    H2 7458   3.974   3.026   5.947
 2501TIP3   OH2 7459   3.349   6.715   4.758
 2501TIP3    H1 7460   3.340   6.689   4.850
 2501TIP3    H2 7461   3.328   6.636   4.709
 2502TIP3   OH2 7462   5.195   2.825   0.385
 2502TIP3    H1 7463   5.164   2.801   0.298
 2502TIP3    H2 7464   5.117   2.816   0.441
 2503TIP3   OH2 7465   4.546   3.648   0.658
 2503TIP3    H1 7466   4.602   3.615   0.729
 2503TIP3    H2 7467   4.538   3.575   0.597
 2504TIP3   OH2 7468   6.140   1.030   0.864
 2504TIP3    H1 7469   6.220   0.984   0.838
 2504TIP3    H2 7470   6.156   1.057   0.954
 2505TIP3   OH2 7471   3.667   0.577   0.233
 2505TIP3    H1 7472   3.727   0.638   0.276
 2505TIP3    H2 7473   3.608   0.633   0.182
 2506TIP3   OH2 7474   1.062   7.458   2.362
 2506TIP3    H1 7475   1.001   7.471   2.289
 2506TIP3    H2 7476   1.118   7.385   2.334
 2507TIP3   OH2 7477   7.415   7.380   1.028
 2507TIP3    H1 7478   7.323   7.404   1.020
 2507TIP3    H2 7479   7.458   7.461   1.058
 2508TIP3   OH2 7480   3.762   6.138   1.973
 2508TIP3    H1 7481   3.799   6.088   1.900
 2508TIP3    H2 7482   3.812   6.219   1.974
 2509TIP3   OH2 7483   6.424   2.889   4.295
 2509TIP3    H1 7484   6.499   2.836   4.267
 2509TIP3    H2 7485   6.452   2.979   4.281
 2510TIP3   OH2 7486   6.565   0.212   2.750
 2510TIP3    H1 7487   6.595   0.302   2.739
 2510TIP3    H2 7488   6.471   0.220   2.765
 2511TIP3   OH2 7489   1.333   6.600   2.716
 2511TIP3    H1 7490   1.254   6.547   2.707
 2511TIP3    H2 7491   1.399   6.539   2.749
 2512TIP3   OH2 7492   4.390   0.117   4.718
 2512TIP3    H1 7493   4.333   0.162   4.780
 2512TIP3    H2 7494   4.362   0.026   4.722
 2513TIP3   OH2 7495   2.420   5.804   0.862
 2513TIP3    H1 7496   2.395   5.716   0.891
 2513TIP3    H2 7497   2.347   5.832   0.806
 2514TIP3   OH2 7498   0.518   2.318   4.071
 2514TIP3    H1 7499   0.511   2.238   4.123
 2514TIP3    H2 7500   0.436   2.324   4.023
 2515TIP3   OH2 7501   2.382   6.909   1.637
 2515TIP3    H1 7502   2.436   6.858   1.697
 2515TIP3    H2 7503   2.293   6.901   1.671
 2516TIP3   OH2 7504   4.645   2.491   3.874
 2516TIP3    H1 7505   4.564   2.490   3.924
 2516TIP3    H2 7506   4.711   2.522   3.936
 2517TIP3   OH2 7507   1.265   7.745   6.596
 2517TIP3    H1 7508   1.248   7.776   6.508
 2517TIP3    H2 7509   1.342   7.795   6.624
 2518TIP3   OH2 7510   2.635   5.990   4.389
 2518TIP3    H1 7511   2.598   5.960   4.473
 2518TIP3    H2 7512   2.729   5.999   4.406
 2519TIP3   OH2 7513   0.360   6.119   1.250
 2519TIP3    H1 7514   0.389   6.100   1.161
 2519TIP3    H2 7515   0.304   6.196   1.241
 2520TIP3   OH2 7516   6.731   0.098   2.330
 2520TIP3    H1 7517   6.715   0.097   2.424
 2520TIP3    H2 7518   6.645   0.081   2.291
 2521TIP3   OH2 7519   4.882   0.578   3.788
 2521TIP3    H1 7520   4.943   0.566   3.860
 2521TIP3    H2 7521   4.874   0.672   3.778
 2522TIP3   OH2 7522   2.698   5.460   2.086
 2522TIP3    H1 7523   2.610   5.486   2.060
 2522TIP3    H2 7524   2.729   5.532   2.141
 2523TIP3   OH2 7525   7.452   0.301   3.900
 2523TIP3    H1 7526   7.387   0.315   3.831
 2523TIP3    H2 7527   7.509   0.377   3.895
 2524TIP3   OH2 7528   2.082   2.169   0.647
 2524TIP3    H1 7529   2.173   2.192   0.666
 2524TIP3    H2 7530   2.038   2.174   0.732
 2525TIP3   OH2 7531   8.260   0.867   2.370
 2525TIP3    H1 7532   8.318   0.791   2.377
 2525TIP3    H2 7533   8.212   0.868   2.453
 2526TIP3   OH2 7534   6.479   6.601   5.198
 2526TIP3    H1 7535   6.444   6.561   5.277
 2526TIP3    H2 7536   6.403   6.616   5.142
 2527TIP3   OH2 7537   5.531   0.021   1.619
 2527TIP3    H1 7538   5.591  -0.051   1.600
 2527TIP3    H2 7539   5.470   0.022   1.545
 2528TIP3   OH2 7540   7.115   6.331   6.534
 2528TIP3    H1 7541   7.090   6.268   6.601
 2528TIP3    H2 7542   7.207   6.351   6.553
 2529TIP3   OH2 7543   4.703   7.600   3.431
 2529TIP3    H1 7544   4.689   7.664   3.500
 2529TIP3    H2 7545   4.790   7.620   3.396
 2530TIP3   OH2 7546   2.158   1.479   3.638
 2530TIP3    H1 7547   2.197   1.522   3.714
 2530TIP3    H2 7548   2.161   1.544   3.568
 2531TIP3   OH2 7549   7.845   0.760   3.795
 2531TIP3    H1 7550   7.925   0.806   3.769
 2531TIP3    H2 7551   7.784   0.774   3.722
 2532TIP3   OH2 7552   5.107   3.849   3.226
 2532TIP3    H1 7553   5.041   3.881   3.287
 2532TIP3    H2 7554   5.084   3.891   3.143
 2533TIP3   OH2 7555   3.390   0.535   3.563
 2533TIP3    H1 7556   3.312   0.574   3.524
 2533TIP3    H2 7557   3.444   0.511   3.488
 2534TIP3   OH2 7558   2.983   0.073   5.180
 2534TIP3    H1 7559   2.926  -0.004   5.179
 2534TIP3    H2 7560   3.026   0.071   5.265
 2535TIP3   OH2 7561   0.545   2.423   3.406
 2535TIP3    H1 7562   0.565   2.435   3.313
 2535TIP3    H2 7563   0.619   2.373   3.439
 2536TIP3   OH2 7564   6.759   5.886   0.921
 2536TIP3    H1 7565   6.783   5.898   1.013
 2536TIP3    H2 7566   6.716   5.968   0.896
 2537TIP3   OH2 7567   4.456   2.345   3.398
 2537TIP3    H1 7568   4.399   2.269   3.385
 2537TIP3    H2 7569   4.531   2.330   3.341
 2538TIP3   OH2 7570   6.771   5.158   2.862
 2538TIP3    H1 7571   6.846   5.112   2.901
 2538TIP3    H2 7572   6.803   5.188   2.777
 2539TIP3   OH2 7573   4.449   7.763   0.415
 2539TIP3    H1 7574   4.502   7.807   0.482
 2539TIP3    H2 7575   4.383   7.828   0.391
 2540TIP3   OH2 7576   5.684   1.737   1.587
 2540TIP3    H1 7577   5.595   1.737   1.621
 2540TIP3    H2 7578   5.732   1.678   1.646
 2541TIP3   OH2 7579   4.111   4.417   5.427
 2541TIP3    H1 7580   4.056   4.340   5.415
 2541TIP3    H2 7581   4.062   4.488   5.385
 2542TIP3   OH2 7582   2.618   1.552   4.723
 2542TIP3    H1 7583   2.656   1.602   4.650
 2542TIP3    H2 7584   2.526   1.543   4.700
 2543TIP3   OH2 7585   3.605   6.470   5.840
 2543TIP3    H1 7586   3.534   6.432   5.892
 2543TIP3    H2 7587   3.560   6.527   5.777
 2544TIP3   OH2 7588   2.295   7.244   1.298
 2544TIP3    H1 7589   2.242   7.307   1.249
 2544TIP3    H2 7590   2.384   7.279   1.292
 2545TIP3   OH2 7591   1.085   0.439   5.246
 2545TIP3    H1 7592   1.013   0.493   5.280
 2545TIP3    H2 7593   1.081   0.358   5.297
 2546TIP3   OH2 7594   0.458   3.665   2.800
 2546TIP3    H1 7595   0.552   3.660   2.812
 2546TIP3    H2 7596   0.435   3.756   2.818
 2547TIP3   OH2 7597   0.935   5.904   6.737
 2547TIP3    H1 7598   1.008   5.863   6.783
 2547TIP3    H2 7599   0.973   5.934   6.655
 2548TIP3   OH2 7600   6.756   2.708   1.312
 2548TIP3    H1 7601   6.729   2.797   1.337
 2548TIP3    H2 7602   6.741   2.656   1.390
 2549TIP3   OH2 7603   2.520   3.329   4.020
 2549TIP3    H1 7604   2.600   3.281   3.998
 2549TIP3    H2 7605   2.530   3.349   4.113
 2550TIP3   OH2 7606   5.377   4.299   2.651
 2550TIP3    H1 7607   5.413   4.337   2.571
 2550TIP3    H2 7608   5.437   4.228   2.673
 2551TIP3   OH2 7609   8.235   3.953   0.019
 2551TIP3    H1 7610   8.299   4.020   0.043
 2551TIP3    H2 7611   8.192   3.931   0.102
 2552TIP3   OH2 7612   6.542   0.760   6.449
 2552TIP3    H1 7613   6.458   0.756   6.495
 2552TIP3    H2 7614   6.605   0.726   6.512
 2553TIP3   OH2 7615   5.046   1.162   2.151
 2553TIP3    H1 7616   4.969   1.135   2.100
 2553TIP3    H2 7617   5.091   1.226   2.096
 2554TIP3   OH2 7618   7.973   7.510   5.211
 2554TIP3    H1 7619   8.049   7.468   5.170
 2554TIP3    H2 7620   7.901   7.497   5.149
 2555TIP3   OH2 7621   6.370   3.029   5.013
 2555TIP3    H1 7622   6.449   3.031   5.068
 2555TIP3    H2 7623   6.403   3.015   4.924
 2556TIP3   OH2 7624   2.480   0.587   0.584
 2556TIP3    H1 7625   2.541   0.610   0.653
 2556TIP3    H2 7626   2.399   0.565   0.630
 2557TIP3   OH2 7627   5.224   7.028   3.763
 2557TIP3    H1 7628   5.225   6.966   3.835
 2557TIP3    H2 7629   5.148   7.084   3.780
 2558TIP3   OH2 7630   1.664   1.851   1.363
 2558TIP3    H1 7631   1.672   1.789   1.435
 2558TIP3    H2 7632   1.732   1.916   1.380
 2559TIP3   OH2 7633   0.137   4.337   5.449
 2559TIP3    H1 7634   0.081   4.267   5.483
 2559TIP3    H2 7635   0.168   4.304   5.364
 2560TIP3   OH2 7636   3.712   1.003   3.274
 2560TIP3    H1 7637   3.761   1.060   3.214
 2560TIP3    H2 7638   3.759   0.919   3.270
 2561TIP3   OH2 7639   0.487   5.717   3.718
 2561TIP3    H1 7640   0.526   5.744   3.636
 2561TIP3    H2 7641   0.541   5.643   3.747
 2562TIP3   OH2 7642   4.413   2.514   5.351
 2562TIP3    H1 7643   4.375   2.601   5.360
 2562TIP3    H2 7644   4.409   2.495   5.257
 2563TIP3   OH2 7645   7.016   1.766   2.434
 2563TIP3    H1 7646   6.980   1.725   2.356
 2563TIP3    H2 7647   7.107   1.736   2.438
 2564TIP3   OH2 7648   2.856   6.670   0.103
 2564TIP3    H1 7649   2.848   6.671   0.199
 2564TIP3    H2 7650   2.812   6.750   0.074
 2565TIP3   OH2 7651   3.078   3.567   2.056
 2565TIP3    H1 7652   3.081   3.563   2.152
 2565TIP3    H2 7653   3.062   3.477   2.028
 2566TIP3   OH2 7654   3.529   2.167   3.903
 2566TIP3    H1 7655   3.435   2.180   3.905
 2566TIP3    H2 7656   3.540   2.073   3.920
 2567TIP3   OH2 7657   3.158   0.810   1.078
 2567TIP3    H1 7658   3.185   0.756   1.153
 2567TIP3    H2 7659   3.066   0.829   1.095
 2568TIP3   OH2 7660   4.854   4.750   4.337
 2568TIP3    H1 7661   4.850   4.816   4.405
 2568TIP3    H2 7662   4.944   4.754   4.304
 2569TIP3   OH2 7663   1.920   2.755   4.448
 2569TIP3    H1 7664   1.875   2.760   4.364
 2569TIP3    H2 7665   1.987   2.689   4.436
 2570TIP3   OH2 7666   7.684   1.763   5.432
 2570TIP3    H1 7667   7.734   1.760   5.350
 2570TIP3    H2 7668   7.641   1.849   5.430
 2571TIP3   OH2 7669   0.835   7.156   2.364
 2571TIP3    H1 7670   0.753   7.109   2.349
 2571TIP3    H2 7671   0.883   7.147   2.282
 2572TIP3   OH2 7672   2.553   2.940   0.779
 2572TIP3    H1 7673   2.534   2.895   0.861
 2572TIP3    H2 7674   2.566   3.032   0.804
 2573TIP3   OH2 7675   3.741   6.764   4.368
 2573TIP3    H1 7676   3.784   6.840   4.406
 2573TIP3    H2 7677   3.708   6.716   4.444
 2574TIP3   OH2 7678   6.378   6.093   4.739
 2574TIP3    H1 7679   6.353   6.163   4.799
 2574TIP3    H2 7680   6.472   6.082   4.751
 2575TIP3   OH2 7681   3.523   0.198   3.216
 2575TIP3    H1 7682   3.429   0.187   3.204
 2575TIP3    H2 7683   3.556   0.110   3.233
 2576TIP3   OH2 7684   3.233   4.806   2.801
 2576TIP3    H1 7685   3.147   4.811   2.842
 2576TIP3    H2 7686   3.279   4.737   2.849
 2577TIP3   OH2 7687   3.533   1.177   0.380
 2577TIP3    H1 7688   3.500   1.134   0.301
 2577TIP3    H2 7689   3.456   1.213   0.422
 2578TIP3   OH2 7690   4.025   5.025   5.547
 2578TIP3    H1 7691   4.055   5.013   5.637
 2578TIP3    H2 7692   3.939   5.068   5.556
 2579TIP3   OH2 7693   1.142   4.535   4.165
 2579TIP3    H1 7694   1.176   4.451   4.197
 2579TIP3    H2 7695   1.119   4.519   4.074
 2580TIP3   OH2 7696   1.827   4.461   6.441
 2580TIP3    H1 7697   1.814   4.550   6.408
 2580TIP3    H2 7698   1.818   4.404   6.365
 2581TIP3   OH2 7699   8.170   7.229   4.274
 2581TIP3    H1 7700   8.124   7.146   4.286
 2581TIP3    H2 7701   8.166   7.271   4.360
 2582TIP3   OH2 7702   2.663   4.053   6.511
 2582TIP3    H1 7703   2.617   4.008   6.441
 2582TIP3    H2 7704   2.599   4.059   6.582
 2583TIP3   OH2 7705   1.385   1.531   4.819
 2583TIP3    H1 7706   1.351   1.620   4.821
 2583TIP3    H2 7707   1.453   1.533   4.751
 2584TIP3   OH2 7708   7.511   3.027   4.825
 2584TIP3    H1 7709   7.436   3.061   4.875
 2584TIP3    H2 7710   7.575   3.003   4.892
 2585TIP3   OH2 7711   6.056   2.490   6.571
 2585TIP3    H1 7712   6.109   2.564   6.542
 2585TIP3    H2 7713   5.966   2.519   6.562
 2586TIP3   OH2 7714   4.662   5.708   4.634
 2586TIP3    H1 7715   4.577   5.674   4.661
 2586TIP3    H2 7716   4.724   5.673   4.698
 2587TIP3   OH2 7717   2.174   0.018   1.178
 2587TIP3    H1 7718   2.248   0.074   1.154
 2587TIP3    H2 7719   2.200  -0.023   1.260
 2588TIP3   OH2 7720   3.414   6.325   5.959
 2588TIP3    H1 7721   3.400   6.236   5.927
 2588TIP3    H2 7722   3.428   6.315   6.053
 2589TIP3   OH2 7723   6.721   3.254   2.355
 2589TIP3    H1 7724   6.767   3.203   2.421
 2589TIP3    H2 7725   6.645   3.290   2.400
 2590TIP3   OH2 7726   2.249   1.262   6.134
 2590TIP3    H1 7727   2.313   1.268   6.064
 2590TIP3    H2 7728   2.240   1.352   6.166
 2591TIP3   OH2 7729   5.260   5.592   6.400
 2591TIP3    H1 7730   5.195   5.634   6.345
 2591TIP3    H2 7731   5.253   5.636   6.485
 2592TIP3   OH2 7732   7.231   5.652   0.128
 2592TIP3    H1 7733   7.285   5.587   0.173
 2592TIP3    H2 7734   7.165   5.601   0.081
 2593TIP3   OH2 7735   3.346   1.227   3.878
 2593TIP3    H1 7736   3.340   1.160   3.946
 2593TIP3    H2 7737   3.363   1.177   3.798
 2594TIP3   OH2 7738   5.219   1.705   3.744
 2594TIP3    H1 7739   5.193   1.668   3.660
 2594TIP3    H2 7740   5.139   1.741   3.781
 2595TIP3   OH2 7741   5.052   5.511   1.998
 2595TIP3    H1 7742   5.083   5.483   2.084
 2595TIP3    H2 7743   5.003   5.436   1.965
 2596TIP3   OH2 7744   0.672   5.431   4.016
 2596TIP3    H1 7745   0.648   5.522   4.000
 2596TIP3    H2 7746   0.744   5.437   4.079
 2597TIP3   OH2 7747   6.927   4.280   4.408
 2597TIP3    H1 7748   7.023   4.286   4.408
 2597TIP3    H2 7749   6.898   4.356   4.358
 2598TIP3   OH2 7750   3.999   1.827   3.128
 2598TIP3    H1 7751   3.961   1.846   3.214
 2598TIP3    H2 7752   4.056   1.901   3.110
 2599TIP3   OH2 7753   8.227   1.377   0.176
 2599TIP3    H1 7754   8.186   1.426   0.247
 2599TIP3    H2 7755   8.190   1.415   0.096
 2600TIP3   OH2 7756   6.455   5.553   2.884
 2600TIP3    H1 7757   6.487   5.639   2.856
 2600TIP3    H2 7758   6.523   5.492   2.857
 2601TIP3   OH2 7759   0.301   7.721   0.811
 2601TIP3    H1 7760   0.354   7.676   0.877
 2601TIP3    H2 7761   0.301   7.662   0.736
 2602TIP3   OH2 7762   4.763   5.891   6.136
 2602TIP3    H1 7763   4.691   5.952   6.153
 2602TIP3    H2 7764   4.758   5.827   6.207
 2603TIP3   OH2 7765   6.401   4.339   2.268
 2603TIP3    H1 7766   6.380   4.394   2.343
 2603TIP3    H2 7767   6.474   4.285   2.296
 2604TIP3   OH2 7768   6.094   1.734   1.739
 2604TIP3    H1 7769   6.167   1.679   1.766
 2604TIP3    H2 7770   6.059   1.692   1.661
 2605TIP3   OH2 7771   4.480   4.370   2.204
 2605TIP3    H1 7772   4.518   4.398   2.287
 2605TIP3    H2 7773   4.398   4.328   2.228
 2606TIP3   OH2 7774   4.005   7.783   4.259
 2606TIP3    H1 7775   3.909   7.780   4.255
 2606TIP3    H2 7776   4.033   7.692   4.257
 2607TIP3   OH2 7777   0.855   1.549   6.449
 2607TIP3    H1 7778   0.787   1.497   6.492
 2607TIP3    H2 7779   0.886   1.495   6.376
 2608TIP3   OH2 7780   0.522   4.185   3.477
 2608TIP3    H1 7781   0.466   4.178   3.554
 2608TIP3    H2 7782   0.579   4.108   3.480
 2609TIP3   OH2 7783   6.961   3.591   1.645
 2609TIP3    H1 7784   6.883   3.558   1.691
 2609TIP3    H2 7785   7.034   3.563   1.700
 2610TIP3   OH2 7786   0.081   3.265   4.610
 2610TIP3    H1 7787   0.020   3.278   4.682
 2610TIP3    H2 7788   0.127   3.349   4.602
 2611TIP3   OH2 7789   4.338   0.538   0.905
 2611TIP3    H1 7790   4.319   0.506   0.993
 2611TIP3    H2 7791   4.258   0.583   0.878
 2612TIP3   OH2 7792   5.739   4.805   1.375
 2612TIP3    H1 7793   5.823   4.775   1.341
 2612TIP3    H2 7794   5.757   4.830   1.466
 2613TIP3   OH2 7795   6.526   2.275   4.824
 2613TIP3    H1 7796   6.503   2.335   4.753
 2613TIP3    H2 7797   6.619   2.259   4.812
 2614TIP3   OH2 7798   0.352   3.612   4.325
 2614TIP3    H1 7799   0.419   3.581   4.264
 2614TIP3    H2 7800   0.352   3.707   4.315
 2615TIP3   OH2 7801   3.965   3.440   3.322
 2615TIP3    H1 7802   3.911   3.494   3.266
 2615TIP3    H2 7803   3.906   3.411   3.392
 2616TIP3   OH2 7804   4.265   6.674   3.099
 2616TIP3    H1 7805   4.298   6.674   3.009
 2616TIP3    H2 7806   4.238   6.765   3.115
 2617TIP3   OH2 7807   3.546   1.829   4.322
 2617TIP3    H1 7808   3.474   1.877   4.363
 2617TIP3    H2 7809   3.542   1.855   4.230
 2618TIP3   OH2 7810   7.445   2.146   1.210
 2618TIP3    H1 7811   7.374   2.093   1.174
 2618TIP3    H2 7812   7.421   2.236   1.189
 2619TIP3   OH2 7813   5.183   7.539   3.208
 2619TIP3    H1 7814   5.205   7.532   3.115
 2619TIP3    H2 7815   5.164   7.450   3.236
 2620TIP3   OH2 7816   3.416   4.771   6.124
 2620TIP3    H1 7817   3.451   4.786   6.036
 2620TIP3    H2 7818   3.347   4.706   6.112
 2621TIP3   OH2 7819   7.185   4.123   0.308
 2621TIP3    H1 7820   7.258   4.061   0.303
 2621TIP3    H2 7821   7.133   4.093   0.383
 2622TIP3   OH2 7822   4.749   4.979   4.843
 2622TIP3    H1 7823   4.687   4.917   4.880
 2622TIP3    H2 7824   4.731   5.062   4.887
 2623TIP3   OH2 7825   6.231   6.067   5.271
 2623TIP3    H1 7826   6.294   6.117   5.323
 2623TIP3    H2 7827   6.281   5.994   5.235
 2624TIP3   OH2 7828   6.841   7.705   6.247
 2624TIP3    H1 7829   6.757   7.711   6.294
 2624TIP3    H2 7830   6.816   7.699   6.155
 2625TIP3   OH2 7831   6.257   4.199   4.110
 2625TIP3    H1 7832   6.245   4.119   4.160
 2625TIP3    H2 7833   6.229   4.269   4.169
 2626TIP3   OH2 7834   0.936   0.967   2.776
 2626TIP3    H1 7835   0.973   1.055   2.770
 2626TIP3    H2 7836   0.924   0.953   2.870
 2627TIP3   OH2 7837   5.324   2.296   1.554
 2627TIP3    H1 7838   5.252   2.303   1.616
 2627TIP3    H2 7839   5.304   2.362   1.487
 2628TIP3   OH2 7840   7.632   5.888   4.236
 2628TIP3    H1 7841   7.701   5.927   4.183
 2628TIP3    H2 7842   7.551   5.916   4.195
 2629TIP3   OH2 7843   6.197   4.814   5.591
 2629TIP3    H1 7844   6.103   4.798   5.581
 2629TIP3    H2 7845   6.208   4.907   5.572
 2630TIP3   OH2 7846   1.878   3.749   2.101
 2630TIP3    H1 7847   1.846   3.838   2.118
 2630TIP3    H2 7848   1.815   3.692   2.145
 2631TIP3   OH2 7849   3.029   4.816   3.491
 2631TIP3    H1 7850   3.102   4.877   3.492
 2631TIP3    H2 7851   3.069   4.729   3.496
 2632TIP3   OH2 7852   1.697   4.744   6.538
 2632TIP3    H1 7853   1.635   4.678   6.509
 2632TIP3    H2 7854   1.655   4.828   6.515
 2633TIP3   OH2 7855   3.053   2.830   3.597
 2633TIP3    H1 7856   2.987   2.838   3.528
 2633TIP3    H2 7857   3.032   2.901   3.658
 2634TIP3   OH2 7858   7.817   0.369   0.054
 2634TIP3    H1 7859   7.825   0.349   0.147
 2634TIP3    H2 7860   7.804   0.464   0.050
 2635TIP3   OH2 7861   4.141   6.390   6.568
 2635TIP3    H1 7862   4.053   6.382   6.531
 2635TIP3    H2 7863   4.127   6.425   6.656
 2636TIP3   OH2 7864   0.215   0.192   1.591
 2636TIP3    H1 7865   0.282   0.211   1.525
 2636TIP3    H2 7866   0.134   0.185   1.540
 2637TIP3   OH2 7867   2.981   1.136   4.605
 2637TIP3    H1 7868   2.888   1.112   4.603
 2637TIP3    H2 7869   3.024   1.070   4.550
 2638TIP3   OH2 7870   1.458   1.785   3.428
 2638TIP3    H1 7871   1.503   1.852   3.480
 2638TIP3    H2 7872   1.515   1.709   3.432
 2639TIP3   OH2 7873   1.396   4.010   2.853
 2639TIP3    H1 7874   1.324   4.042   2.799
 2639TIP3    H2 7875   1.353   3.952   2.917
 2640TIP3   OH2 7876   0.077   0.753   1.951
 2640TIP3    H1 7877   0.027   0.706   2.018
 2640TIP3    H2 7878   0.021   0.826   1.925
 2641TIP3   OH2 7879   0.042   7.469   0.817
 2641TIP3    H1 7880   0.026   7.375   0.807
 2641TIP3    H2 7881   0.130   7.482   0.782
 2642TIP3   OH2 7882   5.485   3.505   2.353
 2642TIP3    H1 7883   5.462   3.500   2.260
 2642TIP3    H2 7884   5.454   3.423   2.390
 2643TIP3   OH2 7885   5.266   0.255   6.583
 2643TIP3    H1 7886   5.228   0.188   6.526
 2643TIP3    H2 7887   5.332   0.297   6.529
 2644TIP3   OH2 7888   1.536   6.240   0.727
 2644TIP3    H1 7889   1.452   6.239   0.774
 2644TIP3    H2 7890   1.569   6.151   0.737
 2645TIP3   OH2 7891   2.846   6.407   6.176
 2645TIP3    H1 7892   2.905   6.458   6.232
 2645TIP3    H2 7893   2.762   6.407   6.222
 2646TIP3   OH2 7894   1.155   4.382   0.602
 2646TIP3    H1 7895   1.073   4.341   0.630
 2646TIP3    H2 7896   1.195   4.415   0.682
 2647TIP3   OH2 7897   2.909   6.636   0.792
 2647TIP3    H1 7898   2.986   6.649   0.848
 2647TIP3    H2 7899   2.902   6.716   0.742
 2648TIP3   OH2 7900   4.558   1.899   4.783
 2648TIP3    H1 7901   4.653   1.892   4.790
 2648TIP3    H2 7902   4.543   1.985   4.743
 2649TIP3   OH2 7903   4.996   7.752   5.087
 2649TIP3    H1 7904   4.977   7.787   5.174
 2649TIP3    H2 7905   5.092   7.750   5.082
 2650TIP3   OH2 7906   5.821   0.760   3.721
 2650TIP3    H1 7907   5.900   0.713   3.750
 2650TIP3    H2 7908   5.749   0.713   3.762
 2651TIP3   OH2 7909   1.014   7.066   5.007
 2651TIP3    H1 7910   0.989   6.992   5.062
 2651TIP3    H2 7911   0.935   7.119   5.001
 2652TIP3   OH2 7912   4.136   6.127   2.327
 2652TIP3    H1 7913   4.113   6.214   2.360
 2652TIP3    H2 7914   4.092   6.121   2.243
 2653TIP3   OH2 7915   0.462   7.524   3.930
 2653TIP3    H1 7916   0.454   7.585   4.003
 2653TIP3    H2 7917   0.379   7.476   3.930
 2654TIP3   OH2 7918   2.496   6.327   0.433
 2654TIP3    H1 7919   2.566   6.336   0.498
 2654TIP3    H2 7920   2.439   6.258   0.468
 2655TIP3   OH2 7921   6.601   2.282   6.289
 2655TIP3    H1 7922   6.688   2.252   6.263
 2655TIP3    H2 7923   6.591   2.367   6.245
 2656TIP3   OH2 7924   6.923   2.804   4.798
 2656TIP3    H1 7925   6.856   2.855   4.842
 2656TIP3    H2 7926   6.892   2.713   4.803
 2657TIP3   OH2 7927   6.842   7.825   6.692
 2657TIP3    H1 7928   6.818   7.879   6.767
 2657TIP3    H2 7929   6.937   7.818   6.697
 2658TIP3   OH2 7930   3.502   6.687   3.675
 2658TIP3    H1 7931   3.557   6.758   3.709
 2658TIP3    H2 7932   3.424   6.731   3.641
 2659TIP3   OH2 7933   7.845   1.639   1.557
 2659TIP3    H1 7934   7.884   1.569   1.504
 2659TIP3    H2 7935   7.854   1.718   1.503
 2660TIP3   OH2 7936   4.420   0.895   0.803
 2660TIP3    H1 7937   4.422   0.990   0.815
 2660TIP3    H2 7938   4.457   0.882   0.716
 2661TIP3   OH2 7939   0.270   3.204   6.480
 2661TIP3    H1 7940   0.241   3.182   6.569
 2661TIP3    H2 7941   0.222   3.283   6.458
 2662TIP3   OH2 7942   1.936   4.661   5.780
 2662TIP3    H1 7943   1.935   4.582   5.834
 2662TIP3    H2 7944   2.029   4.685   5.775
 2663TIP3   OH2 7945   5.462   6.114   6.557
 2663TIP3    H1 7946   5.452   6.021   6.536
 2663TIP3    H2 7947   5.464   6.158   6.472
 2664TIP3   OH2 7948   3.375   7.630   1.342
 2664TIP3    H1 7949   3.375   7.622   1.246
 2664TIP3    H2 7950   3.468   7.630   1.365
 2665TIP3   OH2 7951   5.761   5.865   1.641
 2665TIP3    H1 7952   5.718   5.944   1.673
 2665TIP3    H2 7953   5.838   5.896   1.593
 2666TIP3   OH2 7954   5.950   4.678   6.695
 2666TIP3    H1 7955   5.966   4.637   6.780
 2666TIP3    H2 7956   6.036   4.688   6.655
 2667TIP3   OH2 7957   1.950   7.351   5.462
 2667TIP3    H1 7958   1.946   7.403   5.382
 2667TIP3    H2 7959   1.862   7.315   5.472
 2668TIP3   OH2 7960   3.134   1.321   5.614
 2668TIP3    H1 7961   3.087   1.402   5.595
 2668TIP3    H2 7962   3.202   1.317   5.546
 2669TIP3   OH2 7963   4.841   0.901   6.044
 2669TIP3    H1 7964   4.796   0.887   6.127
 2669TIP3    H2 7965   4.805   0.834   5.986
 2670TIP3   OH2 7966   5.051   1.923   4.338
 2670TIP3    H1 7967   5.126   1.977   4.313
 2670TIP3    H2 7968   4.975   1.976   4.316
 2671TIP3   OH2 7969   0.573   1.223   0.187
 2671TIP3    H1 7970   0.651   1.226   0.241
 2671TIP3    H2 7971   0.576   1.304   0.135
 2672TIP3   OH2 7972   2.366   3.851   2.721
 2672TIP3    H1 7973   2.405   3.928   2.680
 2672TIP3    H2 7974   2.339   3.796   2.647
 2673TIP3   OH2 7975   6.216   6.096   2.086
 2673TIP3    H1 7976   6.281   6.160   2.115
 2673TIP3    H2 7977   6.226   6.023   2.146
 2674TIP3   OH2 7978   3.237   0.934   5.050
 2674TIP3    H1 7979   3.325   0.934   5.012
 2674TIP3    H2 7980   3.179   0.944   4.974
 2675TIP3   OH2 7981   1.216   6.962   1.756
 2675TIP3    H1 7982   1.191   6.895   1.694
 2675TIP3    H2 7983   1.308   6.945   1.775
 2676TIP3   OH2 7984   5.254   0.874   4.045
 2676TIP3    H1 7985   5.183   0.820   4.080
 2676TIP3    H2 7986   5.224   0.964   4.057
 2677TIP3   OH2 7987   4.888   6.603   5.492
 2677TIP3    H1 7988   4.877   6.577   5.583
 2677TIP3    H2 7989   4.948   6.678   5.495
 2678TIP3   OH2 7990   4.364   2.255   2.995
 2678TIP3    H1 7991   4.410   2.178   3.028
 2678TIP3    H2 7992   4.428   2.299   2.939
 2679TIP3   OH2 7993   7.710   3.812   5.960
 2679TIP3    H1 7994   7.709   3.893   5.908
 2679TIP3    H2 7995   7.803   3.799   5.981
 2680TIP3   OH2 7996   5.216   2.823   0.710
 2680TIP3    H1 7997   5.149   2.861   0.768
 2680TIP3    H2 7998   5.166   2.777   0.643
 2681TIP3   OH2 7999   6.186   0.442   3.229
 2681TIP3    H1 8000   6.248   0.428   3.300
 2681TIP3    H2 8001   6.102   0.458   3.272
 2682TIP3   OH2 8002   1.278   2.269   0.523
 2682TIP3    H1 8003   1.205   2.225   0.566
 2682TIP3    H2 8004   1.356   2.241   0.571
 2683TIP3   OH2 8005   5.741   0.447   3.784
 2683TIP3    H1 8006   5.745   0.412   3.695
 2683TIP3    H2 8007   5.812   0.402   3.830
 2684TIP3   OH2 8008   7.160   4.645   1.879
 2684TIP3    H1 8009   7.110   4.564   1.882
 2684TIP3    H2 8010   7.202   4.650   1.965
 2685TIP3   OH2 8011   0.675   1.963   0.869
 2685TIP3    H1 8012   0.660   1.897   0.937
 2685TIP3    H2 8013   0.689   2.044   0.918
 2686TIP3   OH2 8014   2.005   0.557   1.984
 2686TIP3    H1 8015   2.014   0.526   1.894
 2686TIP3    H2 8016   2.036   0.648   1.980
 2687TIP3   OH2 8017   5.874   3.319   3.948
 2687TIP3    H1 8018   5.813   3.255   3.985
 2687TIP3    H2 8019   5.939   3.266   3.902
 2688TIP3   OH2 8020   1.605   4.874   4.556
 2688TIP3    H1 8021   1.561   4.827   4.626
 2688TIP3    H2 8022   1.697   4.877   4.583
 2689TIP3   OH2 8023   8.205   0.849   6.499
 2689TIP3    H1 8024   8.152   0.784   6.545
 2689TIP3    H2 8025   8.163   0.933   6.519
 2690TIP3   OH2 8026   4.947   5.322   3.483
 2690TIP3    H1 8027   4.875   5.361   3.434
 2690TIP3    H2 8028   5.021   5.323   3.422
 2691TIP3   OH2 8029   1.702   3.818   0.079
 2691TIP3    H1 8030   1.781   3.871   0.091
 2691TIP3    H2 8031   1.725   3.732   0.115
 2692TIP3   OH2 8032   0.254   5.590   4.895
 2692TIP3    H1 8033   0.216   5.504   4.877
 2692TIP3    H2 8034   0.275   5.587   4.989
 2693TIP3   OH2 8035   2.114   6.649   5.834
 2693TIP3    H1 8036   2.088   6.557   5.827
 2693TIP3    H2 8037   2.164   6.653   5.916
 2694TIP3   OH2 8038   3.215   5.175   0.280
 2694TIP3    H1 8039   3.129   5.211   0.259
 2694TIP3    H2 8040   3.231   5.202   0.371
 2695TIP3   OH2 8041   3.820   5.255   2.842
 2695TIP3    H1 8042   3.864   5.337   2.821
 2695TIP3    H2 8043   3.841   5.239   2.935
 2696TIP3   OH2 8044   1.761   3.978   4.661
 2696TIP3    H1 8045   1.836   3.919   4.651
 2696TIP3    H2 8046   1.791   4.062   4.628
 2697TIP3   OH2 8047   6.889   6.498   6.537
 2697TIP3    H1 8048   6.907   6.508   6.630
 2697TIP3    H2 8049   6.958   6.441   6.505
 2698TIP3   OH2 8050   1.522   5.259   3.223
 2698TIP3    H1 8051   1.465   5.335   3.235
 2698TIP3    H2 8052   1.555   5.240   3.310
 2699TIP3   OH2 8053   7.186   0.907   0.759
 2699TIP3    H1 8054   7.231   0.828   0.787
 2699TIP3    H2 8055   7.190   0.905   0.663
 2700TIP3   OH2 8056   1.792   0.757   2.489
 2700TIP3    H1 8057   1.716   0.717   2.533
 2700TIP3    H2 8058   1.854   0.774   2.560
 2701TIP3   OH2 8059   5.518   7.101   1.662
 2701TIP3    H1 8060   5.606   7.128   1.636
 2701TIP3    H2 8061   5.533   7.029   1.724
 2702TIP3   OH2 8062   2.478   2.619   2.455
 2702TIP3    H1 8063   2.459   2.712   2.448
 2702TIP3    H2 8064   2.438   2.592   2.537
 2703TIP3   OH2 8065   8.004   2.048   0.643
 2703TIP3    H1 8066   7.977   2.054   0.551
 2703TIP3    H2 8067   8.060   1.971   0.647
 2704TIP3   OH2 8068   4.482   0.670   2.089
 2704TIP3    H1 8069   4.405   0.726   2.076
 2704TIP3    H2 8070   4.455   0.584   2.054
 2705TIP3   OH2 8071   6.880   4.404   3.935
 2705TIP3    H1 8072   6.970   4.373   3.944
 2705TIP3    H2 8073   6.827   4.327   3.953
 2706TIP3   OH2 8074   1.494   3.322   0.603
 2706TIP3    H1 8075   1.563   3.259   0.626
 2706TIP3    H2 8076   1.439   3.327   0.681
 2707TIP3   OH2 8077   2.903   7.019   6.416
 2707TIP3    H1 8078   2.952   7.083   6.365
 2707TIP3    H2 8079   2.907   7.051   6.506
 2708TIP3   OH2 8080   7.560   1.957   0.548
 2708TIP3    H1 8081   7.467   1.957   0.526
 2708TIP3    H2 8082   7.581   1.865   0.564
 2709TIP3   OH2 8083   2.385   3.748   2.088
 2709TIP3    H1 8084   2.309   3.718   2.138
 2709TIP3    H2 8085   2.394   3.685   2.017
 2710TIP3   OH2 8086   4.038   4.495   5.887
 2710TIP3    H1 8087   3.969   4.429   5.898
 2710TIP3    H2 8088   4.090   4.463   5.813
 2711TIP3   OH2 8089   8.008   7.705   2.872
 2711TIP3    H1 8090   7.977   7.616   2.885
 2711TIP3    H2 8091   7.951   7.759   2.928
 2712TIP3   OH2 8092   5.808   0.668   1.246
 2712TIP3    H1 8093   5.811   0.640   1.337
 2712TIP3    H2 8094   5.869   0.742   1.242
 2713TIP3   OH2 8095   3.691   5.686   4.305
 2713TIP3    H1 8096   3.658   5.601   4.276
 2713TIP3    H2 8097   3.638   5.749   4.256
 2714TIP3   OH2 8098   5.418   3.181   2.095
 2714TIP3    H1 8099   5.510   3.205   2.101
 2714TIP3    H2 8100   5.411   3.133   2.013
 2715TIP3   OH2 8101   0.905   5.871   2.640
 2715TIP3    H1 8102   0.900   5.929   2.564
 2715TIP3    H2 8103   0.862   5.921   2.710
 2716TIP3   OH2 8104   3.972   6.263   5.766
 2716TIP3    H1 8105   3.889   6.238   5.725
 2716TIP3    H2 8106   3.958   6.353   5.797
 2717TIP3   OH2 8107   3.488   3.098   6.493
 2717TIP3    H1 8108   3.519   3.168   6.436
 2717TIP3    H2 8109   3.501   3.132   6.582
 2718TIP3   OH2 8110   1.197   6.078   6.642
 2718TIP3    H1 8111   1.206   6.156   6.697
 2718TIP3    H2 8112   1.250   6.097   6.565
 2719TIP3   OH2 8113   3.248   0.609   4.892
 2719TIP3    H1 8114   3.332   0.618   4.847
 2719TIP3    H2 8115   3.272   0.601   4.985
 2720TIP3   OH2 8116   1.399   1.883   4.304
 2720TIP3    H1 8117   1.358   1.927   4.379
 2720TIP3    H2 8118   1.325   1.850   4.252
 2721TIP3   OH2 8119   6.503   7.480   0.245
 2721TIP3    H1 8120   6.409   7.496   0.234
 2721TIP3    H2 8121   6.545   7.558   0.206
 2722TIP3   OH2 8122   0.645   7.195   6.604
 2722TIP3    H1 8123   0.553   7.207   6.629
 2722TIP3    H2 8124   0.690   7.272   6.639
 2723TIP3   OH2 8125   8.110   5.411   5.854
 2723TIP3    H1 8126   8.041   5.421   5.919
 2723TIP3    H2 8127   8.115   5.497   5.811
 2724TIP3   OH2 8128   4.236   6.402   5.841
 2724TIP3    H1 8129   4.331   6.400   5.852
 2724TIP3    H2 8130   4.208   6.313   5.859
 2725TIP3   OH2 8131   1.667   0.419   0.123
 2725TIP3    H1 8132   1.690   0.359   0.195
 2725TIP3    H2 8133   1.590   0.465   0.155
 2726TIP3   OH2 8134   2.736   2.739   6.683
 2726TIP3    H1 8135   2.810   2.694   6.723
 2726TIP3    H2 8136   2.750   2.831   6.703
 2727TIP3   OH2 8137   6.179   7.173   4.424
 2727TIP3    H1 8138   6.192   7.265   4.404
 2727TIP3    H2 8139   6.229   7.126   4.357
 2728TIP3   OH2 8140   0.633   1.720   5.915
 2728TIP3    H1 8141   0.707   1.773   5.943
 2728TIP3    H2 8142   0.577   1.712   5.992
 2729TIP3   OH2 8143   6.149   1.207   1.668
 2729TIP3    H1 8144   6.106   1.255   1.598
 2729TIP3    H2 8145   6.144   1.115   1.641
 2730TIP3   OH2 8146   6.681   5.120   1.062
 2730TIP3    H1 8147   6.650   5.100   0.973
 2730TIP3    H2 8148   6.716   5.208   1.055
 2731TIP3   OH2 8149   5.875   0.267   3.967
 2731TIP3    H1 8150   5.849   0.180   3.937
 2731TIP3    H2 8151   5.796   0.302   4.009
 2732TIP3   OH2 8152   5.965   5.113   4.155
 2732TIP3    H1 8153   5.968   5.148   4.244
 2732TIP3    H2 8154   5.886   5.152   4.116
 2733TIP3   OH2 8155   3.367   0.409   6.247
 2733TIP3    H1 8156   3.410   0.495   6.252
 2733TIP3    H2 8157   3.402   0.369   6.168
 2734TIP3   OH2 8158   7.288   4.460   1.138
 2734TIP3    H1 8159   7.296   4.389   1.074
 2734TIP3    H2 8160   7.195   4.480   1.140
 2735TIP3   OH2 8161   7.421   4.851   1.590
 2735TIP3    H1 8162   7.393   4.768   1.629
 2735TIP3    H2 8163   7.387   4.848   1.500
 2736TIP3   OH2 8164   1.829   3.962   3.044
 2736TIP3    H1 8165   1.740   3.997   3.038
 2736TIP3    H2 8166   1.817   3.867   3.040
 2737TIP3   OH2 8167   6.118   6.571   0.716
 2737TIP3    H1 8168   6.168   6.650   0.735
 2737TIP3    H2 8169   6.115   6.566   0.620
 2738TIP3   OH2 8170   5.480   2.385   6.493
 2738TIP3    H1 8171   5.400   2.335   6.510
 2738TIP3    H2 8172   5.514   2.349   6.410
 2739TIP3   OH2 8173   3.442   7.357   3.283
 2739TIP3    H1 8174   3.462   7.446   3.314
 2739TIP3    H2 8175   3.376   7.325   3.344
 2740TIP3   OH2 8176   2.153   4.940   3.313
 2740TIP3    H1 8177   2.248   4.949   3.301
 2740TIP3    H2 8178   2.117   4.950   3.225
 2741TIP3   OH2 8179   6.981   6.416   1.315
 2741TIP3    H1 8180   6.995   6.431   1.221
 2741TIP3    H2 8181   6.962   6.503   1.350
 2742TIP3   OH2 8182   4.208   4.890   4.151
 2742TIP3    H1 8183   4.228   4.840   4.231
 2742TIP3    H2 8184   4.236   4.979   4.171
 2743TIP3   OH2 8185   1.178   1.388   3.600
 2743TIP3    H1 8186   1.270   1.380   3.578
 2743TIP3    H2 8187   1.137   1.309   3.565
 2744TIP3   OH2 8188   5.552   4.851   0.969
 2744TIP3    H1 8189   5.546   4.876   1.060
 2744TIP3    H2 8190   5.539   4.756   0.969
 2745TIP3   OH2 8191   5.780   6.680   2.944
 2745TIP3    H1 8192   5.852   6.721   2.993
 2745TIP3    H2 8193   5.701   6.720   2.980
 2746TIP3   OH2 8194   5.252   2.551   6.775
 2746TIP3    H1 8195   5.218   2.574   6.689
 2746TIP3    H2 8196   5.307   2.626   6.800
 2747TIP3   OH2 8197   6.198   0.983   0.508
 2747TIP3    H1 8198   6.207   0.895   0.544
 2747TIP3    H2 8199   6.186   1.039   0.585
 2748TIP3   OH2 8200   8.277   0.205   3.974
 2748TIP3    H1 8201   8.238   0.143   4.036
 2748TIP3    H2 8202   8.203   0.258   3.944
 2749TIP3   OH2 8203   3.016   7.765   1.834
 2749TIP3    H1 8204   2.978   7.722   1.757
 2749TIP3    H2 8205   2.944   7.814   1.873
 2750TIP3   OH2 8206   1.141   2.322   3.329
 2750TIP3    H1 8207   1.138   2.227   3.326
 2750TIP3    H2 8208   1.144   2.344   3.423
 2751TIP3   OH2 8209   2.045   1.314   3.439
 2751TIP3    H1 8210   2.101   1.247   3.479
 2751TIP3    H2 8211   2.038   1.383   3.505
 2752TIP3   OH2 8212   4.422   3.676   2.248
 2752TIP3    H1 8213   4.481   3.601   2.243
 2752TIP3    H2 8214   4.358   3.652   2.315
 2753TIP3   OH2 8215   4.338   6.432   3.269
 2753TIP3    H1 8216   4.293   6.514   3.250
 2753TIP3    H2 8217   4.274   6.364   3.247
 2754TIP3   OH2 8218   7.070   3.157   3.974
 2754TIP3    H1 8219   7.160   3.184   3.953
 2754TIP3    H2 8220   7.039   3.114   3.894
 2755TIP3   OH2 8221   5.319   1.865   3.419
 2755TIP3    H1 8222   5.238   1.914   3.400
 2755TIP3    H2 8223   5.357   1.911   3.494
 2756TIP3   OH2 8224   7.609   3.782   1.716
 2756TIP3    H1 8225   7.675   3.851   1.722
 2756TIP3    H2 8226   7.534   3.817   1.765
 2757TIP3   OH2 8227   8.095   5.540   1.935
 2757TIP3    H1 8228   8.155   5.563   1.864
 2757TIP3    H2 8229   8.098   5.445   1.939
 2758TIP3   OH2 8230   5.881   5.402   0.860
 2758TIP3    H1 8231   5.832   5.337   0.809
 2758TIP3    H2 8232   5.818   5.434   0.925
 2759TIP3   OH2 8233   2.319   2.750   5.967
 2759TIP3    H1 8234   2.410   2.778   5.962
 2759TIP3    H2 8235   2.273   2.824   6.008
 2760TIP3   OH2 8236   5.840   7.626   6.195
 2760TIP3    H1 8237   5.899   7.642   6.269
 2760TIP3    H2 8238   5.898   7.613   6.120
 2761TIP3   OH2 8239   1.202   4.075   3.282
 2761TIP3    H1 8240   1.289   4.066   3.319
 2761TIP3    H2 8241   1.211   4.139   3.211
 2762TIP3   OH2 8242   6.970   1.045   4.620
 2762TIP3    H1 8243   6.875   1.054   4.625
 2762TIP3    H2 8244   6.999   1.051   4.711
 2763TIP3   OH2 8245   4.628   7.370   0.449
 2763TIP3    H1 8246   4.639   7.433   0.377
 2763TIP3    H2 8247   4.617   7.424   0.527
 2764TIP3   OH2 8248   1.233   0.139   2.517
 2764TIP3    H1 8249   1.171   0.191   2.466
 2764TIP3    H2 8250   1.319   0.172   2.491
 2765TIP3   OH2 8251   6.837   6.576   5.686
 2765TIP3    H1 8252   6.806   6.606   5.601
 2765TIP3    H2 8253   6.907   6.514   5.666
 2766TIP3   OH2 8254   2.329   2.395   6.361
 2766TIP3    H1 8255   2.348   2.305   6.334
 2766TIP3    H2 8256   2.234   2.399   6.367
 2767TIP3   OH2 8257   0.933   3.295   0.155
 2767TIP3    H1 8258   0.922   3.333   0.068
 2767TIP3    H2 8259   0.917   3.202   0.143
 2768TIP3   OH2 8260   5.087   2.219   3.745
 2768TIP3    H1 8261   5.030   2.151   3.782
 2768TIP3    H2 8262   5.042   2.301   3.766
 2769TIP3   OH2 8263   3.701   5.143   4.232
 2769TIP3    H1 8264   3.711   5.122   4.325
 2769TIP3    H2 8265   3.777   5.102   4.190
 2770TIP3   OH2 8266   1.373   2.982   1.813
 2770TIP3    H1 8267   1.324   3.007   1.735
 2770TIP3    H2 8268   1.456   2.948   1.779
 2771TIP3   OH2 8269   5.250   4.287   1.296
 2771TIP3    H1 8270   5.199   4.357   1.336
 2771TIP3    H2 8271   5.297   4.247   1.369
 2772TIP3   OH2 8272   7.768   5.269   2.127
 2772TIP3    H1 8273   7.680   5.233   2.118
 2772TIP3    H2 8274   7.799   5.280   2.036
 2773TIP3   OH2 8275   6.923   1.669   5.382
 2773TIP3    H1 8276   6.919   1.762   5.359
 2773TIP3    H2 8277   6.839   1.652   5.426
 2774TIP3   OH2 8278   0.376   6.007   2.174
 2774TIP3    H1 8279   0.462   6.024   2.212
 2774TIP3    H2 8280   0.323   5.978   2.248
 2775TIP3   OH2 8281   1.521   7.332   1.537
 2775TIP3    H1 8282   1.518   7.236   1.539
 2775TIP3    H2 8283   1.615   7.353   1.537
 2776TIP3   OH2 8284   1.869   0.160   0.340
 2776TIP3    H1 8285   1.950   0.120   0.372
 2776TIP3    H2 8286   1.869   0.143   0.246
 2777TIP3   OH2 8287   4.628   2.568   2.174
 2777TIP3    H1 8288   4.714   2.596   2.142
 2777TIP3    H2 8289   4.625   2.474   2.154
 2778TIP3   OH2 8290   6.202   7.309   6.697
 2778TIP3    H1 8291   6.155   7.389   6.721
 2778TIP3    H2 8292   6.272   7.339   6.639
 2779TIP3   OH2 8293   5.538   7.827   0.659
 2779TIP3    H1 8294   5.615   7.859   0.707
 2779TIP3    H2 8295   5.560   7.842   0.567
 2780TIP3   OH2 8296   2.856   1.837   3.327
 2780TIP3    H1 8297   2.914   1.912   3.317
 2780TIP3    H2 8298   2.909   1.771   3.372
 2781TIP3   OH2 8299   1.968   0.416   5.434
 2781TIP3    H1 8300   1.891   0.392   5.485
 2781TIP3    H2 8301   1.962   0.362   5.355
 2782TIP3   OH2 8302   4.701   0.634   4.393
 2782TIP3    H1 8303   4.664   0.559   4.344
 2782TIP3    H2 8304   4.664   0.625   4.481
 2783TIP3   OH2 8305   2.835   1.550   5.406
 2783TIP3    H1 8306   2.868   1.494   5.336
 2783TIP3    H2 8307   2.809   1.631   5.361
 2784TIP3   OH2 8308   7.166   5.594   4.183
 2784TIP3    H1 8309   7.154   5.666   4.245
 2784TIP3    H2 8310   7.253   5.559   4.204
 2785TIP3   OH2 8311   4.336   7.658   5.117
 2785TIP3    H1 8312   4.333   7.683   5.024
 2785TIP3    H2 8313   4.285   7.725   5.161
 2786TIP3   OH2 8314   4.533   5.891   3.996
 2786TIP3    H1 8315   4.603   5.839   4.036
 2786TIP3    H2 8316   4.484   5.925   4.070
 2787TIP3   OH2 8317   5.507   3.197   4.519
 2787TIP3    H1 8318   5.415   3.210   4.496
 2787TIP3    H2 8319   5.550   3.278   4.492
 2788TIP3   OH2 8320   5.271   6.699   3.250
 2788TIP3    H1 8321   5.196   6.720   3.195
 2788TIP3    H2 8322   5.246   6.619   3.296
 2789TIP3   OH2 8323   2.243   2.312   2.074
 2789TIP3    H1 8324   2.220   2.341   2.163
 2789TIP3    H2 8325   2.299   2.382   2.040
 2790TIP3   OH2 8326   5.184   5.913  -0.010
 2790TIP3    H1 8327   5.139   5.873   0.065
 2790TIP3    H2 8328   5.275   5.885  -0.001
 2791TIP3   OH2 8329   7.395   4.624   1.721
 2791TIP3    H1 8330   7.393   4.545   1.667
 2791TIP3    H2 8331   7.306   4.633   1.755
 2792TIP3   OH2 8332   2.984   0.599   4.142
 2792TIP3    H1 8333   2.912   0.584   4.203
 2792TIP3    H2 8334   2.958   0.554   4.062
 2793TIP3   OH2 8335   4.009   5.522   2.968
 2793TIP3    H1 8336   4.090   5.479   2.940
 2793TIP3    H2 8337   4.037   5.607   3.002
 2794TIP3   OH2 8338   0.767   2.709   0.941
 2794TIP3    H1 8339   0.676   2.712   0.972
 2794TIP3    H2 8340   0.764   2.748   0.854
 2795TIP3   OH2 8341   5.710   1.276   0.421
 2795TIP3    H1 8342   5.758   1.200   0.453
 2795TIP3    H2 8343   5.690   1.255   0.329
 2796TIP3   OH2 8344   5.177   2.913   5.889
 2796TIP3    H1 8345   5.190   2.950   5.802
 2796TIP3    H2 8346   5.151   2.822   5.872
 2797TIP3   OH2 8347   5.870   2.237   5.415
 2797TIP3    H1 8348   5.831   2.300   5.354
 2797TIP3    H2 8349   5.833   2.153   5.389
 2798TIP3   OH2 8350   6.960   6.331   0.331
 2798TIP3    H1 8351   6.960   6.282   0.249
 2798TIP3    H2 8352   6.868   6.335   0.357
 2799TIP3   OH2 8353   2.329   6.736   0.374
 2799TIP3    H1 8354   2.400   6.711   0.433
 2799TIP3    H2 8355   2.271   6.659   0.372
 2800TIP3   OH2 8356   3.128   3.871   6.478
 2800TIP3    H1 8357   3.190   3.829   6.538
 2800TIP3    H2 8358   3.083   3.936   6.531
 2801TIP3   OH2 8359   0.719   6.862   1.635
 2801TIP3    H1 8360   0.654   6.841   1.568
 2801TIP3    H2 8361   0.788   6.797   1.621
 2802TIP3   OH2 8362   6.311   1.347   1.316
 2802TIP3    H1 8363   6.355   1.294   1.382
 2802TIP3    H2 8364   6.343   1.312   1.232
 2803TIP3   OH2 8365   2.513   2.504   4.765
 2803TIP3    H1 8366   2.519   2.469   4.676
 2803TIP3    H2 8367   2.467   2.587   4.756
 2804TIP3   OH2 8368   6.094   4.861   2.628
 2804TIP3    H1 8369   6.088   4.925   2.558
 2804TIP3    H2 8370   6.109   4.912   2.707
 2805TIP3   OH2 8371   1.778   4.064   2.504
 2805TIP3    H1 8372   1.856   4.010   2.517
 2805TIP3    H2 8373   1.740   4.071   2.592
 2806TIP3   OH2 8374   3.218   5.005   6.704
 2806TIP3    H1 8375   3.204   5.099   6.707
 2806TIP3    H2 8376   3.305   4.992   6.743
 2807TIP3   OH2 8377   5.832   0.500   0.344
 2807TIP3    H1 8378   5.901   0.556   0.309
 2807TIP3    H2 8379   5.782   0.557   0.401
 2808TIP3   OH2 8380   1.116   6.476   2.606
 2808TIP3    H1 8381   1.045   6.537   2.625
 2808TIP3    H2 8382   1.071   6.394   2.585
 2809TIP3   OH2 8383   3.737   0.565   5.508
 2809TIP3    H1 8384   3.794   0.639   5.531
 2809TIP3    H2 8385   3.787   0.487   5.533
 2810TIP3   OH2 8386   5.375   6.905   6.281
 2810TIP3    H1 8387   5.414   6.935   6.199
 2810TIP3    H2 8388   5.345   6.816   6.262
 2811TIP3   OH2 8389   1.705   6.765   6.556
 2811TIP3    H1 8390   1.786   6.721   6.580
 2811TIP3    H2 8391   1.729   6.858   6.553
 2812TIP3   OH2 8392   1.729   5.702   5.342
 2812TIP3    H1 8393   1.648   5.750   5.358
 2812TIP3    H2 8394   1.788   5.767   5.304
 2813TIP3   OH2 8395   1.455   6.223   3.556
 2813TIP3    H1 8396   1.487   6.303   3.597
 2813TIP3    H2 8397   1.522   6.200   3.492
 2814TIP3   OH2 8398   8.271   3.455   5.523
 2814TIP3    H1 8399   8.223   3.447   5.606
 2814TIP3    H2 8400   8.253   3.544   5.494
 2815TIP3   OH2 8401   3.357   6.478   6.180
 2815TIP3    H1 8402   3.371   6.546   6.114
 2815TIP3    H2 8403   3.271   6.441   6.159
 2816TIP3   OH2 8404   0.933   3.043   3.858
 2816TIP3    H1 8405   0.907   3.104   3.927
 2816TIP3    H2 8406   0.971   3.098   3.791
 2817TIP3   OH2 8407   2.109   1.477   3.220
 2817TIP3    H1 8408   2.067   1.405   3.266
 2817TIP3    H2 8409   2.136   1.538   3.289
 2818TIP3   OH2 8410   5.601   3.050   3.785
 2818TIP3    H1 8411   5.665   3.069   3.717
 2818TIP3    H2 8412   5.653   3.020   3.859
 2819TIP3   OH2 8413   7.903   3.533   5.584
 2819TIP3    H1 8414   7.894   3.521   5.489
 2819TIP3    H2 8415   7.872   3.622   5.600
 2820TIP3   OH2 8416   3.182   7.395   5.465
 2820TIP3    H1 8417   3.233   7.391   5.384
 2820TIP3    H2 8418   3.091   7.395   5.437
 2821TIP3   OH2 8419   3.020   4.692   1.932
 2821TIP3    H1 8420   3.075   4.757   1.976
 2821TIP3    H2 8421   3.071   4.666   1.855
 2822TIP3   OH2 8422   2.950   6.526   3.826
 2822TIP3    H1 8423   3.035   6.547   3.864
 2822TIP3    H2 8424   2.947   6.576   3.745
 2823TIP3   OH2 8425   7.164   7.699   0.258
 2823TIP3    H1 8426   7.206   7.635   0.199
 2823TIP3    H2 8427   7.215   7.779   0.247
 2824TIP3   OH2 8428   3.730   7.636   2.015
 2824TIP3    H1 8429   3.640   7.664   2.033
 2824TIP3    H2 8430   3.740   7.646   1.920
 2825TIP3   OH2 8431   5.791   3.468   5.113
 2825TIP3    H1 8432   5.808   3.437   5.202
 2825TIP3    H2 8433   5.696   3.470   5.106
 2826TIP3   OH2 8434   1.209   2.223   0.030
 2826TIP3    H1 8435   1.200   2.280   0.106
 2826TIP3    H2 8436   1.304   2.219   0.014
 2827TIP3   OH2 8437   6.725   4.958   3.960
 2827TIP3    H1 8438   6.765   4.874   3.940
 2827TIP3    H2 8439   6.648   4.962   3.903
 2828TIP3   OH2 8440   3.581   2.512   5.209
 2828TIP3    H1 8441   3.611   2.422   5.222
 2828TIP3    H2 8442   3.512   2.505   5.144
 2829TIP3   OH2 8443   0.398   6.510   0.150
 2829TIP3    H1 8444   0.367   6.428   0.188
 2829TIP3    H2 8445   0.485   6.489   0.115
 2830TIP3   OH2 8446   1.930   7.661   5.222
 2830TIP3    H1 8447   2.013   7.622   5.248
 2830TIP3    H2 8448   1.948   7.755   5.217
 2831TIP3   OH2 8449   0.199   6.036   3.182
 2831TIP3    H1 8450   0.137   6.042   3.109
 2831TIP3    H2 8451   0.244   5.953   3.168
 2832TIP3   OH2 8452   3.855   6.797   4.801
 2832TIP3    H1 8453   3.790   6.729   4.782
 2832TIP3    H2 8454   3.930   6.775   4.745
 2833TIP3   OH2 8455   4.106   7.490   3.233
 2833TIP3    H1 8456   4.074   7.498   3.323
 2833TIP3    H2 8457   4.201   7.496   3.240
 2834TIP3   OH2 8458   0.250   0.105   5.466
 2834TIP3    H1 8459   0.325   0.153   5.500
 2834TIP3    H2 8460   0.282   0.015   5.455
 2835TIP3   OH2 8461   3.226   6.929   6.518
 2835TIP3    H1 8462   3.254   6.997   6.456
 2835TIP3    H2 8463   3.194   6.858   6.463
 2836TIP3   OH2 8464   0.017   7.839   3.857
 2836TIP3    H1 8465   0.050   7.882   3.779
 2836TIP3    H2 8466   0.088   7.782   3.886
 2837TIP3   OH2 8467   8.055   5.465   4.106
 2837TIP3    H1 8468   8.104   5.400   4.157
 2837TIP3    H2 8469   7.997   5.412   4.050
 2838TIP3   OH2 8470   4.286   2.643   3.913
 2838TIP3    H1 8471   4.340   2.586   3.967
 2838TIP3    H2 8472   4.313   2.625   3.823
 2839TIP3   OH2 8473   7.340   4.057   6.013
 2839TIP3    H1 8474   7.393   3.996   6.065
 2839TIP3    H2 8475   7.294   4.110   6.078
 2840TIP3   OH2 8476   4.302   0.906   5.735
 2840TIP3    H1 8477   4.322   0.864   5.651
 2840TIP3    H2 8478   4.380   0.956   5.756
 2841TIP3   OH2 8479   1.366   6.846   4.669
 2841TIP3    H1 8480   1.275   6.815   4.669
 2841TIP3    H2 8481   1.409   6.793   4.737
 2842TIP3   OH2 8482   3.896   4.592   2.400
 2842TIP3    H1 8483   3.817   4.560   2.356
 2842TIP3    H2 8484   3.895   4.687   2.384
 2843TIP3   OH2 8485   7.401   7.599   5.961
 2843TIP3    H1 8486   7.439   7.615   5.875
 2843TIP3    H2 8487   7.399   7.685   6.003
 2844TIP3   OH2 8488   1.946   0.527   4.510
 2844TIP3    H1 8489   1.951   0.431   4.505
 2844TIP3    H2 8490   1.935   0.544   4.604
 2845TIP3   OH2 8491   6.444   3.032   6.316
 2845TIP3    H1 8492   6.456   3.084   6.236
 2845TIP3    H2 8493   6.533   3.003   6.338
 2846TIP3   OH2 8494   3.704   6.598   4.593
 2846TIP3    H1 8495   3.645   6.637   4.657
 2846TIP3    H2 8496   3.673   6.508   4.583
 2847TIP3   OH2 8497   1.917   0.679   0.008
 2847TIP3    H1 8498   1.823   0.695   0.007
 2847TIP3    H2 8499   1.936   0.647  -0.080
 2848TIP3   OH2 8500   6.254   6.819   6.048
 2848TIP3    H1 8501   6.235   6.912   6.036
 2848TIP3    H2 8502   6.184   6.787   6.104
 2849TIP3   OH2 8503   1.897   5.580   0.131
 2849TIP3    H1 8504   1.899   5.675   0.141
 2849TIP3    H2 8505   1.804   5.557   0.132
 2850TIP3   OH2 8506   3.830   4.780   4.582
 2850TIP3    H1 8507   3.857   4.689   4.573
 2850TIP3    H2 8508   3.787   4.801   4.500
 2851TIP3   OH2 8509   3.992   1.014   5.231
 2851TIP3    H1 8510   4.084   0.996   5.249
 2851TIP3    H2 8511   3.971   0.957   5.157
 2852TIP3   OH2 8512   7.988   4.800   3.068
 2852TIP3    H1 8513   8.064   4.767   3.020
 2852TIP3    H2 8514   7.956   4.873   3.016
 2853TIP3   OH2 8515   4.279   6.143   1.133
 2853TIP3    H1 8516   4.282   6.238   1.144
 2853TIP3    H2 8517   4.371   6.116   1.142
 2854TIP3   OH2 8518   0.383   3.412   2.828
 2854TIP3    H1 8519   0.423   3.370   2.751
 2854TIP3    H2 8520   0.418   3.501   2.828
 2855TIP3   OH2 8521   6.682   0.062   2.005
 2855TIP3    H1 8522   6.602   0.024   2.041
 2855TIP3    H2 8523   6.750   0.037   2.067
 2856TIP3   OH2 8524   4.350   0.352   3.691
 2856TIP3    H1 8525   4.304   0.306   3.621
 2856TIP3    H2 8526   4.377   0.435   3.652
 2857TIP3   OH2 8527   6.311   4.175   1.518
 2857TIP3    H1 8528   6.325   4.084   1.493
 2857TIP3    H2 8529   6.390   4.200   1.566
 2858TIP3   OH2 8530   6.044   0.843   3.572
 2858TIP3    H1 8531   5.977   0.861   3.637
 2858TIP3    H2 8532   6.127   0.859   3.617
 2859TIP3   OH2 8533   6.090   4.408   0.480
 2859TIP3    H1 8534   6.076   4.479   0.543
 2859TIP3    H2 8535   6.032   4.429   0.407
 2860TIP3   OH2 8536   3.367   4.856   0.890
 2860TIP3    H1 8537   3.344   4.774   0.934
 2860TIP3    H2 8538   3.420   4.904   0.953
 2861TIP3   OH2 8539   6.796   0.714   0.079
 2861TIP3    H1 8540   6.831   0.768   0.008
 2861TIP3    H2 8541   6.873   0.684   0.127
 2862TIP3   OH2 8542   4.903   0.746   4.941
 2862TIP3    H1 8543   4.964   0.818   4.959
 2862TIP3    H2 8544   4.832   0.787   4.892
 2863TIP3   OH2 8545   2.903   3.864   1.492
 2863TIP3    H1 8546   2.962   3.789   1.495
 2863TIP3    H2 8547   2.888   3.886   1.584
 2864TIP3   OH2 8548   0.435   3.893   4.819
 2864TIP3    H1 8549   0.407   3.974   4.862
 2864TIP3    H2 8550   0.455   3.833   4.892
 2865TIP3   OH2 8551   1.363   6.088   1.210
 2865TIP3    H1 8552   1.345   6.178   1.237
 2865TIP3    H2 8553   1.423   6.096   1.136
 2866TIP3   OH2 8554   5.262   1.577   4.039
 2866TIP3    H1 8555   5.283   1.667   4.012
 2866TIP3    H2 8556   5.275   1.577   4.134
 2867TIP3   OH2 8557   4.069   3.465   6.577
 2867TIP3    H1 8558   4.142   3.460   6.516
 2867TIP3    H2 8559   4.103   3.515   6.651
 2868TIP3   OH2 8560   0.087   6.136   3.430
 2868TIP3    H1 8561   0.112   6.104   3.344
 2868TIP3    H2 8562   0.149   6.094   3.490
 2869TIP3   OH2 8563   2.053   4.581   6.515
 2869TIP3    H1 8564   1.967   4.540   6.517
 2869TIP3    H2 8565   2.108   4.518   6.467
 2870TIP3   OH2 8566   2.539   1.067   5.229
 2870TIP3    H1 8567   2.516   0.981   5.264
 2870TIP3    H2 8568   2.614   1.095   5.281
 2871TIP3   OH2 8569   4.370   3.365   6.037
 2871TIP3    H1 8570   4.279   3.343   6.056
 2871TIP3    H2 8571   4.379   3.456   6.067
 2872TIP3   OH2 8572   4.918   3.126   4.137
 2872TIP3    H1 8573   4.831   3.158   4.114
 2872TIP3    H2 8574   4.968   3.132   4.055
 2873TIP3   OH2 8575   4.103   2.408   1.608
 2873TIP3    H1 8576   4.156   2.479   1.575
 2873TIP3    H2 8577   4.147   2.381   1.689
 2874TIP3   OH2 8578   7.778   6.323   1.760
 2874TIP3    H1 8579   7.686   6.306   1.745
 2874TIP3    H2 8580   7.823   6.281   1.687
 2875TIP3   OH2 8581   5.267   1.722   4.804
 2875TIP3    H1 8582   5.276   1.666   4.880
 2875TIP3    H2 8583   5.205   1.790   4.832
 2876TIP3   OH2 8584   7.640   1.594   2.073
 2876TIP3    H1 8585   7.690   1.579   1.993
 2876TIP3    H2 8586   7.671   1.680   2.104
 2877TIP3   OH2 8587   7.164   2.203   5.080
 2877TIP3    H1 8588   7.190   2.172   5.167
 2877TIP3    H2 8589   7.085   2.255   5.095
 2878TIP3   OH2 8590   0.350   5.119   0.029
 2878TIP3    H1 8591   0.346   5.028   0.059
 2878TIP3    H2 8592   0.416   5.160   0.084
 2879TIP3   OH2 8593   5.475   5.161   1.952
 2879TIP3    H1 8594   5.382   5.184   1.947
 2879TIP3    H2 8595   5.520   5.245   1.939
 2880TIP3   OH2 8596   8.175   0.218   4.764
 2880TIP3    H1 8597   8.151   0.255   4.679
 2880TIP3    H2 8598   8.204   0.129   4.744
 2881TIP3   OH2 8599   2.435   0.157   5.122
 2881TIP3    H1 8600   2.438   0.157   5.217
 2881TIP3    H2 8601   2.523   0.128   5.096
 2882TIP3   OH2 8602   1.432   4.101   2.471
 2882TIP3    H1 8603   1.475   4.015   2.461
 2882TIP3    H2 8604   1.355   4.083   2.526
 2883TIP3   OH2 8605   4.721   5.460   4.530
 2883TIP3    H1 8606   4.816   5.458   4.538
 2883TIP3    H2 8607   4.698   5.552   4.541
 2884TIP3   OH2 8608   0.385   1.978   5.174
 2884TIP3    H1 8609   0.416   1.889   5.189
 2884TIP3    H2 8610   0.410   2.026   5.254
 2885TIP3   OH2 8611   6.932   6.940   3.640
 2885TIP3    H1 8612   6.931   7.033   3.662
 2885TIP3    H2 8613   6.999   6.932   3.572
 2886TIP3   OH2 8614   3.504   0.640   6.366
 2886TIP3    H1 8615   3.588   0.666   6.326
 2886TIP3    H2 8616   3.515   0.661   6.459
 2887TIP3   OH2 8617   0.415   1.353   2.274
 2887TIP3    H1 8618   0.504   1.388   2.275
 2887TIP3    H2 8619   0.378   1.386   2.191
 2888TIP3   OH2 8620   4.977   2.162   4.658
 2888TIP3    H1 8621   4.990   2.257   4.659
 2888TIP3    H2 8622   4.974   2.137   4.750
 2889TIP3   OH2 8623   6.263   5.454   2.419
 2889TIP3    H1 8624   6.269   5.358   2.421
 2889TIP3    H2 8625   6.206   5.474   2.346
 2890TIP3   OH2 8626   5.494   5.838   6.442
 2890TIP3    H1 8627   5.507   5.868   6.352
 2890TIP3    H2 8628   5.509   5.744   6.438
 2891TIP3   OH2 8629   5.393   3.059   1.108
 2891TIP3    H1 8630   5.476   3.103   1.093
 2891TIP3    H2 8631   5.361   3.094   1.191
 2892TIP3   OH2 8632   4.624   7.466   6.138
 2892TIP3    H1 8633   4.718   7.481   6.137
 2892TIP3    H2 8634   4.596   7.496   6.225
 2893TIP3   OH2 8635   6.062   1.347   1.433
 2893TIP3    H1 8636   6.144   1.349   1.382
 2893TIP3    H2 8637   5.997   1.313   1.371
 2894TIP3   OH2 8638   6.100   4.708   5.981
 2894TIP3    H1 8639   6.147   4.628   6.005
 2894TIP3    H2 8640   6.167   4.764   5.942
 2895TIP3   OH2 8641   5.066   6.026   1.518
 2895TIP3    H1 8642   5.102   5.990   1.599
 2895TIP3    H2 8643   4.974   6.042   1.539
 2896TIP3   OH2 8644   4.929   3.165   2.840
 2896TIP3    H1 8645   4.965   3.174   2.929
 2896TIP3    H2 8646   4.980   3.228   2.788
 2897TIP3   OH2 8647   2.623   7.727   6.561
 2897TIP3    H1 8648   2.531   7.709   6.577
 2897TIP3    H2 8649   2.648   7.789   6.630
 2898TIP3   OH2 8650   7.490   4.112   3.255
 2898TIP3    H1 8651   7.507   4.022   3.282
 2898TIP3    H2 8652   7.427   4.145   3.319
 2899TIP3   OH2 8653   2.675   1.505   5.613
 2899TIP3    H1 8654   2.722   1.514   5.530
 2899TIP3    H2 8655   2.744   1.500   5.679
 2900TIP3   OH2 8656   4.239   6.372   0.852
 2900TIP3    H1 8657   4.218   6.390   0.760
 2900TIP3    H2 8658   4.318   6.318   0.848
 2901TIP3   OH2 8659   3.540   6.943   0.668
 2901TIP3    H1 8660   3.586   6.908   0.744
 2901TIP3    H2 8661   3.533   6.870   0.607
 2902TIP3   OH2 8662   0.425   1.703   2.635
 2902TIP3    H1 8663   0.417   1.669   2.545
 2902TIP3    H2 8664   0.518   1.727   2.643
 2903TIP3   OH2 8665   7.669   6.045   6.144
 2903TIP3    H1 8666   7.670   6.136   6.175
 2903TIP3    H2 8667   7.611   6.047   6.067
 2904TIP3   OH2 8668   7.014   4.873   1.813
 2904TIP3    H1 8669   7.064   4.791   1.812
 2904TIP3    H2 8670   7.045   4.919   1.891
 2905TIP3   OH2 8671   0.950   4.572   6.005
 2905TIP3    H1 8672   0.888   4.591   6.076
 2905TIP3    H2 8673   0.905   4.505   5.953
 2906TIP3   OH2 8674   2.841   1.514   3.705
 2906TIP3    H1 8675   2.930   1.478   3.703
 2906TIP3    H2 8676   2.785   1.441   3.678
 2907TIP3   OH2 8677   2.237   1.980   4.175
 2907TIP3    H1 8678   2.176   1.976   4.101
 2907TIP3    H2 8679   2.184   2.009   4.249
 2908TIP3   OH2 8680   4.040   3.103   1.828
 2908TIP3    H1 8681   4.067   3.030   1.883
 2908TIP3    H2 8682   4.052   3.072   1.739
 2909TIP3   OH2 8683   5.818   2.845   2.073
 2909TIP3    H1 8684   5.738   2.863   2.122
 2909TIP3    H2 8685   5.884   2.824   2.140
 2910TIP3   OH2 8686   4.775   0.080   3.053
 2910TIP3    H1 8687   4.739   0.154   3.004
 2910TIP3    H2 8688   4.840   0.041   2.995
 2911TIP3   OH2 8689   5.415   2.510   2.604
 2911TIP3    H1 8690   5.331   2.512   2.650
 2911TIP3    H2 8691   5.393   2.487   2.514
 2912TIP3   OH2 8692   4.255   7.558   5.569
 2912TIP3    H1 8693   4.351   7.550   5.564
 2912TIP3    H2 8694   4.223   7.501   5.499
 2913TIP3   OH2 8695   6.768   0.420   4.564
 2913TIP3    H1 8696   6.719   0.338   4.563
 2913TIP3    H2 8697   6.804   0.426   4.653
 2914TIP3   OH2 8698   0.096   3.542   1.622
 2914TIP3    H1 8699   0.153   3.470   1.647
 2914TIP3    H2 8700   0.126   3.616   1.676
 2915TIP3   OH2 8701   7.103   2.237   0.431
 2915TIP3    H1 8702   7.135   2.184   0.358
 2915TIP3    H2 8703   7.087   2.174   0.501
 2916TIP3   OH2 8704   6.947   3.054   2.193
 2916TIP3    H1 8705   6.958   2.971   2.146
 2916TIP3    H2 8706   6.912   3.114   2.127
 2917TIP3   OH2 8707   0.325   2.903   3.352
 2917TIP3    H1 8708   0.349   2.897   3.445
 2917TIP3    H2 8709   0.392   2.958   3.313
 2918TIP3   OH2 8710   7.791   3.798   3.918
 2918TIP3    H1 8711   7.826   3.868   3.864
 2918TIP3    H2 8712   7.788   3.834   4.007
 2919TIP3   OH2 8713   4.548   1.658   3.555
 2919TIP3    H1 8714   4.515   1.690   3.639
 2919TIP3    H2 8715   4.590   1.734   3.515
 2920TIP3   OH2 8716   4.689   6.144   5.697
 2920TIP3    H1 8717   4.681   6.056   5.733
 2920TIP3    H2 8718   4.764   6.140   5.638
 2921TIP3   OH2 8719   1.789   7.110   5.033
 2921TIP3    H1 8720   1.745   7.195   5.038
 2921TIP3    H2 8721   1.875   7.125   5.071
 2922TIP3   OH2 8722   2.115   3.051   1.085
 2922TIP3    H1 8723   2.145   3.011   1.166
 2922TIP3    H2 8724   2.030   3.089   1.106
 2923TIP3   OH2 8725   4.008   4.460   2.152
 2923TIP3    H1 8726   4.086   4.406   2.150
 2923TIP3    H2 8727   3.947   4.412   2.209
 2924TIP3   OH2 8728   4.528   0.535   4.999
 2924TIP3    H1 8729   4.466   0.547   4.927
 2924TIP3    H2 8730   4.476   0.547   5.078
 2925TIP3   OH2 8731   2.156   4.010   1.008
 2925TIP3    H1 8732   2.114   3.929   0.979
 2925TIP3    H2 8733   2.241   3.983   1.041
 2926TIP3   OH2 8734   4.325   0.820   4.421
 2926TIP3    H1 8735   4.317   0.857   4.333
 2926TIP3    H2 8736   4.297   0.729   4.411
 2927TIP3   OH2 8737   2.364   1.409   0.319
 2927TIP3    H1 8738   2.458   1.388   0.312
 2927TIP3    H2 8739   2.360   1.503   0.306
 2928TIP3   OH2 8740   1.218   0.989   2.993
 2928TIP3    H1 8741   1.173   1.071   3.013
 2928TIP3    H2 8742   1.260   1.004   2.909
 2929TIP3   OH2 8743   2.332   7.185   4.613
 2929TIP3    H1 8744   2.409   7.225   4.654
 2929TIP3    H2 8745   2.271   7.170   4.685
 2930TIP3   OH2 8746   7.463   6.872   5.636
 2930TIP3    H1 8747   7.397   6.823   5.587
 2930TIP3    H2 8748   7.529   6.896   5.570
 2931TIP3   OH2 8749   2.609   2.138   0.692
 2931TIP3    H1 8750   2.577   2.049   0.677
 2931TIP3    H2 8751   2.632   2.170   0.605
 2932TIP3   OH2 8752   1.978   6.928   0.382
 2932TIP3    H1 8753   1.942   6.847   0.345
 2932TIP3    H2 8754   1.996   6.983   0.305
 2933TIP3   OH2 8755   6.660   1.980   1.521
 2933TIP3    H1 8756   6.583   1.952   1.570
 2933TIP3    H2 8757   6.732   1.929   1.558
 2934TIP3   OH2 8758   4.672   1.342   4.388
 2934TIP3    H1 8759   4.729   1.366   4.315
 2934TIP3    H2 8760   4.724   1.359   4.466
 2935TIP3   OH2 8761   0.032   7.190   2.638
 2935TIP3    H1 8762   0.063   7.281   2.630
 2935TIP3    H2 8763   0.107   7.137   2.613
 2936TIP3   OH2 8764   1.150   3.725   4.210
 2936TIP3    H1 8765   1.080   3.663   4.196
 2936TIP3    H2 8766   1.115   3.809   4.179
 2937TIP3   OH2 8767   8.168   2.801   6.518
 2937TIP3    H1 8768   8.191   2.708   6.520
 2937TIP3    H2 8769   8.155   2.820   6.425
 2938TIP3   OH2 8770   5.528   5.555   1.823
 2938TIP3    H1 8771   5.442   5.571   1.784
 2938TIP3    H2 8772   5.545   5.462   1.806
 2939TIP3   OH2 8773   0.694   2.795   5.322
 2939TIP3    H1 8774   0.722   2.863   5.261
 2939TIP3    H2 8775   0.609   2.824   5.353
 2940TIP3   OH2 8776   5.217   6.896   4.258
 2940TIP3    H1 8777   5.241   6.983   4.290
 2940TIP3    H2 8778   5.127   6.884   4.288
 2941TIP3   OH2 8779   4.778   7.571   4.809
 2941TIP3    H1 8780   4.834   7.605   4.740
 2941TIP3    H2 8781   4.711   7.638   4.821
 2942TIP3   OH2 8782   2.144   3.629   2.164
 2942TIP3    H1 8783   2.125   3.559   2.102
 2942TIP3    H2 8784   2.059   3.670   2.181
 2943TIP3   OH2 8785   1.492   6.272   4.785
 2943TIP3    H1 8786   1.583   6.300   4.796
 2943TIP3    H2 8787   1.463   6.312   4.703
 2944TIP3   OH2 8788   2.181   0.373   1.596
 2944TIP3    H1 8789   2.254   0.336   1.547
 2944TIP3    H2 8790   2.128   0.298   1.621
 2945TIP3   OH2 8791   7.640   6.568   1.466
 2945TIP3    H1 8792   7.550   6.536   1.464
 2945TIP3    H2 8793   7.671   6.549   1.554
 2946TIP3   OH2 8794   4.979   1.596  -0.007
 2946TIP3    H1 8795   4.938   1.609   0.078
 2946TIP3    H2 8796   5.071   1.578   0.014
 2947TIP3   OH2 8797   7.624   1.853   1.647
 2947TIP3    H1 8798   7.559   1.896   1.592
 2947TIP3    H2 8799   7.573   1.814   1.718
 2948TIP3   OH2 8800   7.020   6.371   4.737
 2948TIP3    H1 8801   7.009   6.328   4.822
 2948TIP3    H2 8802   7.075   6.447   4.755
 2949TIP3   OH2 8803   0.903   2.113   2.381
 2949TIP3    H1 8804   0.963   2.081   2.314
 2949TIP3    H2 8805   0.938   2.198   2.408
 2950TIP3   OH2 8806   2.259   3.349   3.923
 2950TIP3    H1 8807   2.349   3.337   3.954
 2950TIP3    H2 8808   2.266   3.416   3.855
 2951TIP3   OH2 8809   1.649   0.476   5.341
 2951TIP3    H1 8810   1.690   0.429   5.413
 2951TIP3    H2 8811   1.692   0.442   5.262
 2952TIP3   OH2 8812   7.611   7.582   4.626
 2952TIP3    H1 8813   7.606   7.617   4.715
 2952TIP3    H2 8814   7.614   7.659   4.570
 2953TIP3   OH2 8815   4.655   4.305   4.239
 2953TIP3    H1 8816   4.714   4.377   4.217
 2953TIP3    H2 8817   4.567   4.340   4.223
 2954TIP3   OH2 8818   7.407   3.757   0.445
 2954TIP3    H1 8819   7.314   3.738   0.453
 2954TIP3    H2 8820   7.438   3.697   0.378
 2955TIP3   OH2 8821   1.190   0.679   0.299
 2955TIP3    H1 8822   1.190   0.753   0.237
 2955TIP3    H2 8823   1.111   0.692   0.351
 2956TIP3   OH2 8824   6.479   2.707   1.604
 2956TIP3    H1 8825   6.552   2.660   1.563
 2956TIP3    H2 8826   6.405   2.647   1.596
 2957TIP3   OH2 8827   0.641   7.795   1.026
 2957TIP3    H1 8828   0.676   7.845   0.953
 2957TIP3    H2 8829   0.717   7.779   1.082
 2958TIP3   OH2 8830   2.909   6.082   5.894
 2958TIP3    H1 8831   2.937   6.139   5.823
 2958TIP3    H2 8832   2.932   5.994   5.865
 2959TIP3   OH2 8833   2.562   0.919   3.892
 2959TIP3    H1 8834   2.550   0.949   3.982
 2959TIP3    H2 8835   2.656   0.920   3.878
 2960TIP3   OH2 8836   3.873   7.030   1.164
 2960TIP3    H1 8837   3.819   7.099   1.202
 2960TIP3    H2 8838   3.962   7.048   1.194
 2961TIP3   OH2 8839   7.366   5.249   0.722
 2961TIP3    H1 8840   7.415   5.169   0.708
 2961TIP3    H2 8841   7.341   5.246   0.815
 2962TIP3   OH2 8842   3.587   1.908   3.733
 2962TIP3    H1 8843   3.666   1.951   3.765
 2962TIP3    H2 8844   3.569   1.950   3.648
 2963TIP3   OH2 8845   2.521   6.718   2.504
 2963TIP3    H1 8846   2.436   6.720   2.460
 2963TIP3    H2 8847   2.514   6.784   2.573
 2964TIP3   OH2 8848   3.345   4.268   0.298
 2964TIP3    H1 8849   3.289   4.301   0.227
 2964TIP3    H2 8850   3.292   4.201   0.341
 2965TIP3   OH2 8851   1.517   3.991   6.413
 2965TIP3    H1 8852   1.565   4.064   6.453
 2965TIP3    H2 8853   1.443   3.976   6.472
 2966TIP3   OH2 8854   0.701   6.017   0.210
 2966TIP3    H1 8855   0.716   6.094   0.265
 2966TIP3    H2 8856   0.766   5.953   0.240
 2967TIP3   OH2 8857   7.950   6.977   3.484
 2967TIP3    H1 8858   7.933   6.962   3.391
 2967TIP3    H2 8859   7.874   6.939   3.528
 2968TIP3   OH2 8860   7.481   7.516   0.621
 2968TIP3    H1 8861   7.431   7.591   0.652
 2968TIP3    H2 8862   7.490   7.531   0.527
 2969TIP3   OH2 8863   1.859   3.677   4.412
 2969TIP3    H1 8864   1.844   3.747   4.348
 2969TIP3    H2 8865   1.818   3.600   4.372
 2970TIP3   OH2 8866   1.009   5.284   4.302
 2970TIP3    H1 8867   1.073   5.352   4.281
 2970TIP3    H2 8868   1.060   5.205   4.313
 2971TIP3   OH2 8869   2.742   0.214   5.095
 2971TIP3    H1 8870   2.733   0.270   5.172
 2971TIP3    H2 8871   2.824   0.167   5.109
 2972TIP3   OH2 8872   2.177   0.556   0.687
 2972TIP3    H1 8873   2.177   0.603   0.770
 2972TIP3    H2 8874   2.090   0.515   0.683
 2973TIP3   OH2 8875   5.241   3.655   2.958
 2973TIP3    H1 8876   5.146   3.654   2.965
 2973TIP3    H2 8877   5.263   3.746   2.938
 2974TIP3   OH2 8878   3.310   1.082   2.901
 2974TIP3    H1 8879   3.288   1.174   2.881
 2974TIP3    H2 8880   3.395   1.069   2.859
 2975TIP3   OH2 8881   1.360   1.530   0.361
 2975TIP3    H1 8882   1.429   1.468   0.338
 2975TIP3    H2 8883   1.406   1.611   0.385
 2976TIP3   OH2 8884   5.417   0.642   2.656
 2976TIP3    H1 8885   5.505   0.611   2.677
 2976TIP3    H2 8886   5.411   0.728   2.697
 2977TIP3   OH2 8887   7.265   3.280   1.078
 2977TIP3    H1 8888   7.298   3.296   0.990
 2977TIP3    H2 8889   7.312   3.202   1.107
 2978TIP3   OH2 8890   5.547   5.727   6.049
 2978TIP3    H1 8891   5.500   5.758   5.971
 2978TIP3    H2 8892   5.549   5.631   6.039
 2979TIP3   OH2 8893   0.475   0.176   4.699
 2979TIP3    H1 8894   0.431   0.096   4.671
 2979TIP3    H2 8895   0.539   0.194   4.630
 2980TIP3   OH2 8896   3.986   5.096   2.063
 2980TIP3    H1 8897   3.989   5.159   1.990
 2980TIP3    H2 8898   4.025   5.143   2.136
 2981TIP3   OH2 8899   1.069   3.266   2.500
 2981TIP3    H1 8900   1.101   3.284   2.412
 2981TIP3    H2 8901   1.121   3.191   2.529
 2982TIP3   OH2 8902   2.006   3.876   6.573
 2982TIP3    H1 8903   2.022   3.855   6.481
 2982TIP3    H2 8904   2.071   3.943   6.595
 2983TIP3   OH2 8905   2.768   1.069   5.372
 2983TIP3    H1 8906   2.784   0.975   5.373
 2983TIP3    H2 8907   2.803   1.101   5.455
 2984TIP3   OH2 8908   4.425   5.169   0.679
 2984TIP3    H1 8909   4.389   5.233   0.741
 2984TIP3    H2 8910   4.462   5.222   0.609
 2985TIP3   OH2 8911   0.437   4.468   0.507
 2985TIP3    H1 8912   0.447   4.412   0.583
 2985TIP3    H2 8913   0.394   4.547   0.540
 2986TIP3   OH2 8914   4.192   7.823   5.652
 2986TIP3    H1 8915   4.098   7.819   5.668
 2986TIP3    H2 8916   4.216   7.735   5.624
 2987TIP3   OH2 8917   1.343   7.197   3.977
 2987TIP3    H1 8918   1.290   7.211   3.898
 2987TIP3    H2 8919   1.433   7.208   3.947
 2988TIP3   OH2 8920   7.393   3.942   1.827
 2988TIP3    H1 8921   7.317   3.888   1.851
 2988TIP3    H2 8922   7.366   4.031   1.848
 2989TIP3   OH2 8923   6.801   2.919   3.843
 2989TIP3    H1 8924   6.801   2.832   3.804
 2989TIP3    H2 8925   6.889   2.953   3.826
 2990TIP3   OH2 8926   1.660   4.606   1.899
 2990TIP3    H1 8927   1.632   4.698   1.894
 2990TIP3    H2 8928   1.642   4.571   1.812
 2991TIP3   OH2 8929   7.002   6.287   4.165
 2991TIP3    H1 8930   6.977   6.202   4.201
 2991TIP3    H2 8931   7.002   6.346   4.241
 2992TIP3   OH2 8932   4.996   4.348   3.723
 2992TIP3    H1 8933   4.938   4.321   3.652
 2992TIP3    H2 8934   4.979   4.284   3.792
 2993TIP3   OH2 8935   5.797   4.723   5.875
 2993TIP3    H1 8936   5.731   4.657   5.900
 2993TIP3    H2 8937   5.881   4.680   5.891
 2994TIP3   OH2 8938   3.987   0.528   5.094
 2994TIP3    H1 8939   3.997   0.474   5.016
 2994TIP3    H2 8940   4.003   0.469   5.167
 2995TIP3   OH2 8941   2.564   6.291   5.718
 2995TIP3    H1 8942   2.596   6.325   5.802
 2995TIP3    H2 8943   2.476   6.259   5.737
 2996TIP3   OH2 8944   8.124   6.039   5.610
 2996TIP3    H1 8945   8.146   6.093   5.534
 2996TIP3    H2 8946   8.199   6.048   5.669
 2997TIP3   OH2 8947   1.824   3.677   2.537
 2997TIP3    H1 8948   1.851   3.769   2.542
 2997TIP3    H2 8949   1.773   3.663   2.617
 2998TIP3   OH2 8950   6.781   0.766   0.911
 2998TIP3    H1 8951   6.782   0.816   0.829
 2998TIP3    H2 8952   6.838   0.815   0.970
 2999TIP3   OH2 8953   5.397   2.156   0.330
 2999TIP3    H1 8954   5.409   2.080   0.273
 2999TIP3    H2 8955   5.402   2.231   0.271
 3000TIP3   OH2 8956   7.360   4.158   4.973
 3000TIP3    H1 8957   7.310   4.208   5.038
 3000TIP3    H2 8958   7.365   4.217   4.898
 3001TIP3   OH2 8959   0.625   7.708   2.078
 3001TIP3    H1 8960   0.590   7.628   2.118
 3001TIP3    H2 8961   0.666   7.678   1.996
 3002TIP3   OH2 8962   7.755   7.165   0.877
 3002TIP3    H1 8963   7.716   7.165   0.965
 3002TIP3    H2 8964   7.824   7.099   0.880
 3003TIP3   OH2 8965   0.954   0.584   5.887
 3003TIP3    H1 8966   0.999   0.554   5.966
 3003TIP3    H2 8967   0.938   0.504   5.837
 3004TIP3   OH2 8968   3.328   3.871   3.476
 3004TIP3    H1 8969   3.309   3.819   3.554
 3004TIP3    H2 8970   3.424   3.878   3.474
 3005TIP3   OH2 8971   4.062   3.963   1.752
 3005TIP3    H1 8972   4.067   3.923   1.839
 3005TIP3    H2 8973   4.042   4.055   1.768
 3006TIP3   OH2 8974   2.129   1.030   1.222
 3006TIP3    H1 8975   2.173   1.106   1.184
 3006TIP3    H2 8976   2.137   0.962   1.154
 3007TIP3   OH2 8977   7.539   4.980   2.451
 3007TIP3    H1 8978   7.598   4.905   2.446
 3007TIP3    H2 8979   7.480   4.959   2.523
 3008TIP3   OH2 8980   2.024   5.167   2.197
 3008TIP3    H1 8981   2.052   5.076   2.187
 3008TIP3    H2 8982   1.968   5.184   2.122
 3009TIP3   OH2 8983   3.453   7.699   3.181
 3009TIP3    H1 8984   3.480   7.766   3.245
 3009TIP3    H2 8985   3.522   7.702   3.115
 3010TIP3   OH2 8986   3.547   4.830   2.169
 3010TIP3    H1 8987   3.536   4.872   2.254
 3010TIP3    H2 8988   3.600   4.752   2.187
 3011TIP3   OH2 8989   7.751   3.673   0.898
 3011TIP3    H1 8990   7.814   3.612   0.936
 3011TIP3    H2 8991   7.686   3.617   0.856
 3012TIP3   OH2 8992   0.298   4.905   0.200
 3012TIP3    H1 8993   0.364   4.944   0.258
 3012TIP3    H2 8994   0.297   4.812   0.225
 3013TIP3   OH2 8995   4.458   5.877   1.625
 3013TIP3    H1 8996   4.547   5.913   1.620
 3013TIP3    H2 8997   4.426   5.879   1.535
 3014TIP3   OH2 8998   3.899   6.012   3.664
 3014TIP3    H1 8999   3.858   6.099   3.659
 3014TIP3    H2 9000   3.826   5.952   3.680
 3015TIP3   OH2 9001   7.654   0.736   2.300
 3015TIP3    H1 9002   7.700   0.656   2.324
 3015TIP3    H2 9003   7.711   0.779   2.236
 3016TIP3   OH2 9004   5.704   4.223   0.832
 3016TIP3    H1 9005   5.709   4.243   0.739
 3016TIP3    H2 9006   5.774   4.275   0.871
 3017TIP3   OH2 9007   4.703   6.780   5.378
 3017TIP3    H1 9008   4.760   6.717   5.422
 3017TIP3    H2 9009   4.629   6.728   5.347
 3018TIP3   OH2 9010   6.287   1.273   1.910
 3018TIP3    H1 9011   6.369   1.319   1.893
 3018TIP3    H2 9012   6.252   1.253   1.823
 3019TIP3   OH2 9013   3.391   3.958   4.561
 3019TIP3    H1 9014   3.383   3.868   4.592
 3019TIP3    H2 9015   3.343   4.010   4.626
 3020TIP3   OH2 9016   5.858   1.559   3.244
 3020TIP3    H1 9017   5.858   1.565   3.339
 3020TIP3    H2 9018   5.768   1.579   3.218
 3021TIP3   OH2 9019   6.282   0.199   1.344
 3021TIP3    H1 9020   6.215   0.256   1.305
 3021TIP3    H2 9021   6.263   0.201   1.438
 3022TIP3   OH2 9022   1.472   1.406   2.168
 3022TIP3    H1 9023   1.499   1.426   2.078
 3022TIP3    H2 9024   1.439   1.489   2.202
 3023TIP3   OH2 9025   3.486   3.573   3.092
 3023TIP3    H1 9026   3.554   3.590   3.158
 3023TIP3    H2 9027   3.475   3.478   3.093
 3024TIP3   OH2 9028   0.252   2.686   6.277
 3024TIP3    H1 9029   0.258   2.594   6.301
 3024TIP3    H2 9030   0.336   2.706   6.235
 3025TIP3   OH2 9031   8.042   5.881   2.420
 3025TIP3    H1 9032   8.108   5.948   2.438
 3025TIP3    H2 9033   8.060   5.812   2.484
 3026TIP3   OH2 9034   3.504   2.576   5.692
 3026TIP3    H1 9035   3.429   2.583   5.633
 3026TIP3    H2 9036   3.488   2.495   5.741
 3027TIP3   OH2 9037   6.060   4.051   3.690
 3027TIP3    H1 9038   6.066   4.138   3.731
 3027TIP3    H2 9039   6.098   3.992   3.755
 3028TIP3   OH2 9040   3.079   3.778   4.486
 3028TIP3    H1 9041   3.153   3.814   4.535
 3028TIP3    H2 9042   3.097   3.801   4.395
 3029TIP3   OH2 9043   1.422   1.106   6.561
 3029TIP3    H1 9044   1.399   1.110   6.654
 3029TIP3    H2 9045   1.402   1.016   6.535
 3030TIP3   OH2 9046   2.714   2.727   0.670
 3030TIP3    H1 9047   2.661   2.796   0.710
 3030TIP3    H2 9048   2.651   2.676   0.618
 3031TIP3   OH2 9049   5.591   0.960   6.048
 3031TIP3    H1 9050   5.497   0.979   6.049
 3031TIP3    H2 9051   5.608   0.929   5.959
 3032TIP3   OH2 9052   0.927   4.338   1.784
 3032TIP3    H1 9053   0.859   4.348   1.717
 3032TIP3    H2 9054   0.880   4.347   1.867
 3033TIP3   OH2 9055   4.163   5.672   3.551
 3033TIP3    H1 9056   4.178   5.632   3.637
 3033TIP3    H2 9057   4.140   5.599   3.494
 3034TIP3   OH2 9058   7.633   3.934   3.068
 3034TIP3    H1 9059   7.560   3.882   3.036
 3034TIP3    H2 9060   7.593   3.995   3.130
 3035TIP3   OH2 9061   4.603   1.080   1.173
 3035TIP3    H1 9062   4.657   1.001   1.160
 3035TIP3    H2 9063   4.618   1.103   1.265
 3036TIP3   OH2 9064   1.235   7.350   6.004
 3036TIP3    H1 9065   1.245   7.321   6.094
 3036TIP3    H2 9066   1.153   7.398   6.003
 3037TIP3   OH2 9067   6.066   4.550   3.871
 3037TIP3    H1 9068   6.125   4.625   3.880
 3037TIP3    H2 9069   5.981   4.583   3.898
 3038TIP3   OH2 9070   3.904   3.278   5.129
 3038TIP3    H1 9071   3.827   3.287   5.074
 3038TIP3    H2 9072   3.915   3.364   5.170
 3039TIP3   OH2 9073   1.051   7.722   4.607
 3039TIP3    H1 9074   1.142   7.693   4.595
 3039TIP3    H2 9075   1.035   7.781   4.533
 3040TIP3   OH2 9076   1.373   5.300   5.339
 3040TIP3    H1 9077   1.466   5.280   5.326
 3040TIP3    H2 9078   1.370   5.350   5.420
 3041TIP3   OH2 9079   6.614   2.620   0.024
 3041TIP3    H1 9080   6.577   2.708   0.033
 3041TIP3    H2 9081   6.537   2.564   0.013
 3042TIP3   OH2 9082   3.401   0.520   2.116
 3042TIP3    H1 9083   3.404   0.459   2.190
 3042TIP3    H2 9084   3.357   0.597   2.150
 3043TIP3   OH2 9085   5.860   1.770   4.452
 3043TIP3    H1 9086   5.873   1.761   4.547
 3043TIP3    H2 9087   5.800   1.845   4.443
 3044TIP3   OH2 9088   5.123   7.693   5.454
 3044TIP3    H1 9089   5.154   7.649   5.533
 3044TIP3    H2 9090   5.184   7.666   5.386
 3045TIP3   OH2 9091   3.330   7.618   1.635
 3045TIP3    H1 9092   3.342   7.638   1.542
 3045TIP3    H2 9093   3.365   7.530   1.645
 3046TIP3   OH2 9094   2.876   2.830   0.159
 3046TIP3    H1 9095   2.902   2.779   0.082
 3046TIP3    H2 9096   2.948   2.820   0.220
 3047TIP3   OH2 9097   3.097   0.411   2.976
 3047TIP3    H1 9098   3.117   0.484   3.034
 3047TIP3    H2 9099   3.091   0.335   3.033
 3048TIP3   OH2 9100   1.286   5.899   3.458
 3048TIP3    H1 9101   1.253   5.810   3.463
 3048TIP3    H2 9102   1.381   5.889   3.450
 3049TIP3   OH2 9103   5.362   6.195   2.437
 3049TIP3    H1 9104   5.444   6.150   2.420
 3049TIP3    H2 9105   5.300   6.126   2.458
 3050TIP3   OH2 9106   2.769   7.009   4.770
 3050TIP3    H1 9107   2.827   7.036   4.841
 3050TIP3    H2 9108   2.828   6.982   4.699
 3051TIP3   OH2 9109   3.640   0.518   5.963
 3051TIP3    H1 9110   3.578   0.577   5.922
 3051TIP3    H2 9111   3.586   0.448   6.000
 3052TIP3   OH2 9112   7.404   2.092   0.104
 3052TIP3    H1 9113   7.449   2.061   0.182
 3052TIP3    H2 9114   7.311   2.079   0.122
 3053TIP3   OH2 9115   2.720   6.329   1.263
 3053TIP3    H1 9116   2.783   6.381   1.213
 3053TIP3    H2 9117   2.700   6.254   1.206
 3054TIP3   OH2 9118   3.649   6.641   2.144
 3054TIP3    H1 9119   3.621   6.662   2.233
 3054TIP3    H2 9120   3.720   6.577   2.156
 3055TIP3   OH2 9121   0.820   4.104   2.453
 3055TIP3    H1 9122   0.884   4.074   2.389
 3055TIP3    H2 9123   0.735   4.081   2.415
 3056TIP3   OH2 9124   7.533   3.149   3.111
 3056TIP3    H1 9125   7.493   3.213   3.053
 3056TIP3    H2 9126   7.569   3.200   3.184
 3057TIP3   OH2 9127   5.505   3.901   5.322
 3057TIP3    H1 9128   5.549   3.880   5.239
 3057TIP3    H2 9129   5.445   3.828   5.336
 3058TIP3   OH2 9130   4.686   6.103   3.399
 3058TIP3    H1 9131   4.716   6.016   3.426
 3058TIP3    H2 9132   4.606   6.118   3.450
 3059TIP3   OH2 9133   3.782   5.747   3.982
 3059TIP3    H1 9134   3.796   5.774   3.892
 3059TIP3    H2 9135   3.687   5.734   3.989
 3060TIP3   OH2 9136   5.930   0.077   3.629
 3060TIP3    H1 9137   5.910   0.018   3.703
 3060TIP3    H2 9138   5.921   0.022   3.552
 3061TIP3   OH2 9139   7.727   1.048   1.173
 3061TIP3    H1 9140   7.786   1.121   1.196
 3061TIP3    H2 9141   7.785   0.973   1.166
 3062TIP3   OH2 9142   1.875   4.091   0.802
 3062TIP3    H1 9143   1.880   4.086   0.707
 3062TIP3    H2 9144   1.912   4.008   0.833
 3063TIP3   OH2 9145   0.321   2.623   3.464
 3063TIP3    H1 9146   0.271   2.636   3.383
 3063TIP3    H2 9147   0.329   2.711   3.502
 3064TIP3   OH2 9148   1.472   0.615   6.522
 3064TIP3    H1 9149   1.451   0.680   6.588
 3064TIP3    H2 9150   1.499   0.666   6.446
 3065TIP3   OH2 9151   3.373   7.659   0.675
 3065TIP3    H1 9152   3.437   7.604   0.630
 3065TIP3    H2 9153   3.398   7.748   0.653
 3066TIP3   OH2 9154   2.821   6.890   3.404
 3066TIP3    H1 9155   2.732   6.900   3.371
 3066TIP3    H2 9156   2.873   6.950   3.351
 3067TIP3   OH2 9157   0.660   7.354   4.435
 3067TIP3    H1 9158   0.745   7.396   4.446
 3067TIP3    H2 9159   0.628   7.341   4.525
 3068TIP3   OH2 9160   0.675   3.766   5.688
 3068TIP3    H1 9161   0.763   3.752   5.653
 3068TIP3    H2 9162   0.687   3.826   5.761
 3069TIP3   OH2 9163   4.150   3.059   1.050
 3069TIP3    H1 9164   4.130   3.000   0.977
 3069TIP3    H2 9165   4.246   3.058   1.055
 3070TIP3   OH2 9166   6.990   6.661   1.151
 3070TIP3    H1 9167   7.027   6.746   1.175
 3070TIP3    H2 9168   6.901   6.681   1.123
 3071TIP3   OH2 9169   7.143   0.129   5.316
 3071TIP3    H1 9170   7.119   0.216   5.348
 3071TIP3    H2 9171   7.060   0.082   5.308
 3072TIP3   OH2 9172   3.914   0.294   6.658
 3072TIP3    H1 9173   4.006   0.268   6.652
 3072TIP3    H2 9174   3.877   0.239   6.727
 3073TIP3   OH2 9175   6.300   3.566   0.327
 3073TIP3    H1 9176   6.344   3.533   0.405
 3073TIP3    H2 9177   6.346   3.648   0.308
 3074TIP3   OH2 9178   8.036   2.541   4.861
 3074TIP3    H1 9179   8.062   2.597   4.933
 3074TIP3    H2 9180   7.953   2.502   4.889
 3075TIP3   OH2 9181   4.162   4.307   4.367
 3075TIP3    H1 9182   4.150   4.387   4.419
 3075TIP3    H2 9183   4.226   4.256   4.417
 3076TIP3   OH2 9184   4.068   2.080   3.998
 3076TIP3    H1 9185   4.038   2.035   4.077
 3076TIP3    H2 9186   4.059   2.173   4.019
 3077TIP3   OH2 9187   5.111   2.085   0.302
 3077TIP3    H1 9188   5.163   2.005   0.288
 3077TIP3    H2 9189   5.174   2.149   0.336
 3078TIP3   OH2 9190   7.157   0.122   2.087
 3078TIP3    H1 9191   7.213   0.092   2.015
 3078TIP3    H2 9192   7.120   0.041   2.123
 3079TIP3   OH2 9193   7.365   7.245   6.530
 3079TIP3    H1 9194   7.386   7.313   6.467
 3079TIP3    H2 9195   7.352   7.166   6.477
 3080TIP3   OH2 9196   0.163   3.416   3.315
 3080TIP3    H1 9197   0.174   3.504   3.279
 3080TIP3    H2 9198   0.125   3.430   3.402
 3081TIP3   OH2 9199   3.143   2.498   2.576
 3081TIP3    H1 9200   3.067   2.442   2.560
 3081TIP3    H2 9201   3.218   2.440   2.561
 3082TIP3   OH2 9202   5.080   1.748   5.480
 3082TIP3    H1 9203   5.047   1.758   5.569
 3082TIP3    H2 9204   5.174   1.768   5.487
 3083TIP3   OH2 9205   3.656   6.636   0.727
 3083TIP3    H1 9206   3.743   6.673   0.713
 3083TIP3    H2 9207   3.664   6.546   0.695
 3084TIP3   OH2 9208   5.296   1.473   5.637
 3084TIP3    H1 9209   5.306   1.479   5.542
 3084TIP3    H2 9210   5.230   1.538   5.659
 3085TIP3   OH2 9211   3.097   3.016   4.620
 3085TIP3    H1 9212   3.139   3.102   4.614
 3085TIP3    H2 9213   3.118   2.986   4.709
 3086TIP3   OH2 9214   1.714   7.170   0.288
 3086TIP3    H1 9215   1.620   7.160   0.299
 3086TIP3    H2 9216   1.736   7.116   0.212
 3087TIP3   OH2 9217   1.490   1.790   0.389
 3087TIP3    H1 9218   1.577   1.830   0.379
 3087TIP3    H2 9219   1.434   1.838   0.328
 3088TIP3   OH2 9220   1.958   2.512   6.061
 3088TIP3    H1 9221   1.971   2.602   6.092
 3088TIP3    H2 9222   1.870   2.489   6.089
 3089TIP3   OH2 9223   2.699   4.538   3.979
 3089TIP3    H1 9224   2.635   4.607   3.959
 3089TIP3    H2 9225   2.780   4.568   3.937
 3090TIP3   OH2 9226   4.011   3.360   2.015
 3090TIP3    H1 9227   4.087   3.304   1.998
 3090TIP3    H2 9228   3.936   3.301   2.011
 3091TIP3   OH2 9229   5.207   4.598   6.263
 3091TIP3    H1 9230   5.173   4.687   6.266
 3091TIP3    H2 9231   5.147   4.547   6.317
 3092TIP3   OH2 9232   6.600   1.860   5.150
 3092TIP3    H1 9233   6.518   1.875   5.103
 3092TIP3    H2 9234   6.572   1.822   5.234
 3093TIP3   OH2 9235   3.837   2.966   6.603
 3093TIP3    H1 9236   3.841   3.054   6.567
 3093TIP3    H2 9237   3.765   2.924   6.556
 3094TIP3   OH2 9238   2.339   3.179   4.351
 3094TIP3    H1 9239   2.248   3.210   4.352
 3094TIP3    H2 9240   2.351   3.138   4.436
 3095TIP3   OH2 9241   4.689   2.980   3.398
 3095TIP3    H1 9242   4.668   2.892   3.367
 3095TIP3    H2 9243   4.620   3.035   3.361
 3096TIP3   OH2 9244   0.813   4.925   3.545
 3096TIP3    H1 9245   0.887   4.911   3.604
 3096TIP3    H2 9246   0.745   4.964   3.600
 3097TIP3   OH2 9247   5.702   0.282   1.700
 3097TIP3    H1 9248   5.655   0.246   1.775
 3097TIP3    H2 9249   5.794   0.264   1.719
 3098TIP3   OH2 9250   7.131   7.223   3.813
 3098TIP3    H1 9251   7.041   7.210   3.783
 3098TIP3    H2 9252   7.125   7.298   3.872
 3099TIP3   OH2 9253   7.942   4.608   2.419
 3099TIP3    H1 9254   8.035   4.631   2.418
 3099TIP3    H2 9255   7.928   4.571   2.506
 3100TIP3   OH2 9256   2.494   3.627   5.542
 3100TIP3    H1 9257   2.492   3.533   5.524
 3100TIP3    H2 9258   2.563   3.661   5.486
 3101TIP3   OH2 9259   3.811   6.725   2.579
 3101TIP3    H1 9260   3.791   6.806   2.626
 3101TIP3    H2 9261   3.899   6.701   2.608
 3102TIP3   OH2 9262   5.581   2.290   1.848
 3102TIP3    H1 9263   5.657   2.252   1.806
 3102TIP3    H2 9264   5.613   2.323   1.932
 3103TIP3   OH2 9265   6.844   6.557   0.766
 3103TIP3    H1 9266   6.916   6.550   0.829
 3103TIP3    H2 9267   6.793   6.477   0.778
 3104TIP3   OH2 9268   0.928   7.662   6.346
 3104TIP3    H1 9269   0.859   7.702   6.400
 3104TIP3    H2 9270   0.888   7.581   6.314
 3105TIP3   OH2 9271   6.571   4.184   2.385
 3105TIP3    H1 9272   6.664   4.207   2.391
 3105TIP3    H2 9273   6.543   4.177   2.476
 3106TIP3   OH2 9274   3.775   0.731   6.292
 3106TIP3    H1 9275   3.792   0.786   6.368
 3106TIP3    H2 9276   3.797   0.642   6.321
 3107TIP3   OH2 9277   2.250   5.039   2.592
 3107TIP3    H1 9278   2.274   4.970   2.655
 3107TIP3    H2 9279   2.159   5.058   2.612
 3108TIP3   OH2 9280   8.176   3.375   0.337
 3108TIP3    H1 9281   8.225   3.347   0.259
 3108TIP3    H2 9282   8.087   3.345   0.321
 3109TIP3   OH2 9283   6.025   5.427   4.062
 3109TIP3    H1 9284   5.959   5.381   4.114
 3109TIP3    H2 9285   5.999   5.412   3.971
 3110TIP3   OH2 9286   6.245   5.373   5.690
 3110TIP3    H1 9287   6.335   5.404   5.693
 3110TIP3    H2 9288   6.232   5.343   5.600
 3111TIP3   OH2 9289   6.703   5.895   4.259
 3111TIP3    H1 9290   6.658   5.904   4.175
 3111TIP3    H2 9291   6.655   5.826   4.305
 3112TIP3   OH2 9292   4.187   7.663   1.047
 3112TIP3    H1 9293   4.102   7.632   1.017
 3112TIP3    H2 9294   4.241   7.665   0.967
 3113TIP3   OH2 9295   2.707   0.724   2.076
 3113TIP3    H1 9296   2.625   0.734   2.027
 3113TIP3    H2 9297   2.693   0.772   2.157
 3114TIP3   OH2 9298   6.449   2.626   3.153
 3114TIP3    H1 9299   6.505   2.548   3.147
 3114TIP3    H2 9300   6.389   2.607   3.226
 3115TIP3   OH2 9301   5.606   3.387   4.349
 3115TIP3    H1 9302   5.514   3.377   4.329
 3115TIP3    H2 9303   5.613   3.476   4.384
 3116TIP3   OH2 9304   7.371   1.557   0.831
 3116TIP3    H1 9305   7.318   1.533   0.908
 3116TIP3    H2 9306   7.307   1.587   0.767
 3117TIP3   OH2 9307   6.766   5.153   5.283
 3117TIP3    H1 9308   6.757   5.178   5.375
 3117TIP3    H2 9309   6.732   5.063   5.280
 3118TIP3   OH2 9310   1.218   6.255   1.753
 3118TIP3    H1 9311   1.215   6.173   1.704
 3118TIP3    H2 9312   1.149   6.246   1.818
 3119TIP3   OH2 9313   1.409   0.878   5.761
 3119TIP3    H1 9314   1.346   0.854   5.694
 3119TIP3    H2 9315   1.357   0.917   5.831
 3120TIP3   OH2 9316   5.486   6.600   1.202
 3120TIP3    H1 9317   5.529   6.515   1.192
 3120TIP3    H2 9318   5.458   6.601   1.293
 3121TIP3   OH2 9319   3.583   3.573   1.902
 3121TIP3    H1 9320   3.654   3.572   1.966
 3121TIP3    H2 9321   3.503   3.578   1.955
 3122TIP3   OH2 9322   4.376   4.256   1.749
 3122TIP3    H1 9323   4.390   4.171   1.793
 3122TIP3    H2 9324   4.312   4.237   1.681
 3123TIP3   OH2 9325   0.790   0.315   3.760
 3123TIP3    H1 9326   0.841   0.390   3.730
 3123TIP3    H2 9327   0.854   0.252   3.791
 3124TIP3   OH2 9328   2.329   2.614   3.295
 3124TIP3    H1 9329   2.313   2.523   3.322
 3124TIP3    H2 9330   2.248   2.641   3.253
 3125TIP3   OH2 9331   5.438   7.443   6.083
 3125TIP3    H1 9332   5.470   7.532   6.098
 3125TIP3    H2 9333   5.381   7.425   6.158
 3126TIP3   OH2 9334   5.270   0.261   0.843
 3126TIP3    H1 9335   5.184   0.302   0.843
 3126TIP3    H2 9336   5.326   0.322   0.795
 3127TIP3   OH2 9337   2.284   6.068   4.223
 3127TIP3    H1 9338   2.247   6.019   4.296
 3127TIP3    H2 9339   2.240   6.033   4.146
 3128TIP3   OH2 9340   5.174   4.191   1.063
 3128TIP3    H1 9341   5.209   4.200   1.151
 3128TIP3    H2 9342   5.248   4.209   1.005
 3129TIP3   OH2 9343   6.378   0.946   5.182
 3129TIP3    H1 9344   6.322   0.940   5.104
 3129TIP3    H2 9345   6.404   1.038   5.185
 3130TIP3   OH2 9346   0.905   2.496   0.607
 3130TIP3    H1 9347   0.900   2.401   0.593
 3130TIP3    H2 9348   0.982   2.523   0.559
 3131TIP3   OH2 9349   8.094   1.365   6.490
 3131TIP3    H1 9350   8.038   1.334   6.419
 3131TIP3    H2 9351   8.103   1.459   6.473
 3132TIP3   OH2 9352   2.584   0.467   1.015
 3132TIP3    H1 9353   2.653   0.513   1.065
 3132TIP3    H2 9354   2.542   0.410   1.079
 3133TIP3   OH2 9355   3.506   5.432   6.534
 3133TIP3    H1 9356   3.596   5.415   6.562
 3133TIP3    H2 9357   3.513   5.452   6.441
 3134TIP3   OH2 9358   2.565   5.967   4.657
 3134TIP3    H1 9359   2.607   6.047   4.686
 3134TIP3    H2 9360   2.520   5.934   4.734
 3135TIP3   OH2 9361   0.103   1.950   5.712
 3135TIP3    H1 9362   0.062   1.869   5.742
 3135TIP3    H2 9363   0.107   1.942   5.617
 3136TIP3   OH2 9364   4.806   6.234   2.604
 3136TIP3    H1 9365   4.727   6.181   2.611
 3136TIP3    H2 9366   4.877   6.170   2.605
 3137TIP3   OH2 9367   0.113   2.787   5.722
 3137TIP3    H1 9368   0.168   2.747   5.655
 3137TIP3    H2 9369   0.139   2.745   5.804
 3138TIP3   OH2 9370   7.805   1.984   5.922
 3138TIP3    H1 9371   7.788   1.957   6.012
 3138TIP3    H2 9372   7.772   1.912   5.868
 3139TIP3   OH2 9373   1.228   6.396   5.021
 3139TIP3    H1 9374   1.291   6.326   5.010
 3139TIP3    H2 9375   1.241   6.427   5.110
 3140TIP3   OH2 9376   7.168   2.727   6.082
 3140TIP3    H1 9377   7.217   2.676   6.146
 3140TIP3    H2 9378   7.166   2.816   6.118
 3141TIP3   OH2 9379   0.983   1.385   5.323
 3141TIP3    H1 9380   1.015   1.446   5.257
 3141TIP3    H2 9381   0.931   1.438   5.383
 3142TIP3   OH2 9382   6.668   3.869   1.075
 3142TIP3    H1 9383   6.737   3.912   1.126
 3142TIP3    H2 9384   6.714   3.800   1.027
 3143TIP3   OH2 9385   4.979   6.132   0.266
 3143TIP3    H1 9386   4.921   6.156   0.194
 3143TIP3    H2 9387   4.923   6.140   0.344
 3144TIP3   OH2 9388   5.209   0.679   3.539
 3144TIP3    H1 9389   5.228   0.741   3.609
 3144TIP3    H2 9390   5.160   0.609   3.582
 3145TIP3   OH2 9391   4.275   5.330   0.814
 3145TIP3    H1 9392   4.222   5.358   0.739
 3145TIP3    H2 9393   4.232   5.250   0.845
 3146TIP3   OH2 9394   6.073   0.308   3.760
 3146TIP3    H1 9395   6.026   0.246   3.705
 3146TIP3    H2 9396   6.059   0.277   3.849
 3147TIP3   OH2 9397   0.760   7.054   3.784
 3147TIP3    H1 9398   0.795   6.990   3.721
 3147TIP3    H2 9399   0.668   7.065   3.758
 3148TIP3   OH2 9400   7.375   1.989   1.505
 3148TIP3    H1 9401   7.404   1.998   1.414
 3148TIP3    H2 9402   7.342   2.075   1.529
 3149TIP3   OH2 9403   1.772   0.601   6.240
 3149TIP3    H1 9404   1.793   0.522   6.290
 3149TIP3    H2 9405   1.680   0.617   6.258
 3150TIP3   OH2 9406   1.733   2.321   5.533
 3150TIP3    H1 9407   1.741   2.279   5.447
 3150TIP3    H2 9408   1.800   2.390   5.532
 3151TIP3   OH2 9409   3.792   6.062   1.204
 3151TIP3    H1 9410   3.800   6.158   1.202
 3151TIP3    H2 9411   3.853   6.031   1.138
 3152TIP3   OH2 9412   5.388   7.330   3.404
 3152TIP3    H1 9413   5.418   7.305   3.492
 3152TIP3    H2 9414   5.467   7.322   3.349
 3153TIP3   OH2 9415   7.282   1.576   0.237
 3153TIP3    H1 9416   7.248   1.518   0.306
 3153TIP3    H2 9417   7.235   1.549   0.158
 3154TIP3   OH2 9418   0.615   1.717   2.161
 3154TIP3    H1 9419   0.583   1.653   2.098
 3154TIP3    H2 9420   0.609   1.801   2.115
 3155TIP3   OH2 9421   0.331   7.052   2.089
 3155TIP3    H1 9422   0.421   7.085   2.097
 3155TIP3    H2 9423   0.336   6.961   2.118
 3156TIP3   OH2 9424   3.024   4.912   2.416
 3156TIP3    H1 9425   2.996   4.927   2.506
 3156TIP3    H2 9426   3.108   4.957   2.409
 3157TIP3   OH2 9427   2.161   7.382   0.628
 3157TIP3    H1 9428   2.128   7.466   0.660
 3157TIP3    H2 9429   2.244   7.403   0.585
 3158TIP3   OH2 9430   7.632   4.432   5.329
 3158TIP3    H1 9431   7.622   4.476   5.414
 3158TIP3    H2 9432   7.687   4.356   5.348
 3159TIP3   OH2 9433   5.690   1.637   2.097
 3159TIP3    H1 9434   5.696   1.691   2.018
 3159TIP3    H2 9435   5.609   1.664   2.139
 3160TIP3   OH2 9436   7.309   4.813   1.171
 3160TIP3    H1 9437   7.401   4.814   1.143
 3160TIP3    H2 9438   7.302   4.885   1.233
 3161TIP3   OH2 9439   0.143   6.113   3.738
 3161TIP3    H1 9440   0.169   6.095   3.828
 3161TIP3    H2 9441   0.166   6.033   3.690
 3162TIP3   OH2 9442   6.111   5.150   1.014
 3162TIP3    H1 9443   6.145   5.237   1.035
 3162TIP3    H2 9444   6.050   5.165   0.942
 3163TIP3   OH2 9445   3.608   6.146   5.184
 3163TIP3    H1 9446   3.599   6.111   5.096
 3163TIP3    H2 9447   3.690   6.194   5.183
 3164TIP3   OH2 9448   0.399   0.412   5.444
 3164TIP3    H1 9449   0.456   0.473   5.396
 3164TIP3    H2 9450   0.440   0.327   5.430
 3165TIP3   OH2 9451   6.277   0.249   6.295
 3165TIP3    H1 9452   6.200   0.260   6.350
 3165TIP3    H2 9453   6.307   0.339   6.278
 3166TIP3   OH2 9454   5.018   0.204   1.143
 3166TIP3    H1 9455   5.015   0.116   1.181
 3166TIP3    H2 9456   4.931   0.240   1.159
 3167TIP3   OH2 9457   4.343   1.613   1.911
 3167TIP3    H1 9458   4.418   1.569   1.870
 3167TIP3    H2 9459   4.368   1.624   2.002
 3168TIP3   OH2 9460   6.656   5.813   4.625
 3168TIP3    H1 9461   6.568   5.824   4.591
 3168TIP3    H2 9462   6.645   5.758   4.703
 3169TIP3   OH2 9463   3.460   4.038   0.890
 3169TIP3    H1 9464   3.455   4.132   0.874
 3169TIP3    H2 9465   3.443   4.030   0.984
 3170TIP3   OH2 9466   3.562   2.658   2.405
 3170TIP3    H1 9467   3.467   2.658   2.411
 3170TIP3    H2 9468   3.586   2.567   2.387
 3171TIP3   OH2 9469   6.303   4.569   5.635
 3171TIP3    H1 9470   6.348   4.582   5.719
 3171TIP3    H2 9471   6.256   4.651   5.621
 3172TIP3   OH2 9472   0.084   4.451   0.981
 3172TIP3    H1 9473   0.029   4.504   1.039
 3172TIP3    H2 9474   0.041   4.365   0.979
 3173TIP3   OH2 9475   5.401   1.705   1.591
 3173TIP3    H1 9476   5.403   1.610   1.581
 3173TIP3    H2 9477   5.368   1.738   1.507
 3174TIP3   OH2 9478   2.861   6.520   3.242
 3174TIP3    H1 9479   2.923   6.592   3.238
 3174TIP3    H2 9480   2.795   6.541   3.176
 3175TIP3   OH2 9481   6.801   0.960   0.567
 3175TIP3    H1 9482   6.715   0.923   0.588
 3175TIP3    H2 9483   6.784   1.015   0.491
 3176TIP3   OH2 9484   3.350   5.626   6.071
 3176TIP3    H1 9485   3.309   5.693   6.015
 3176TIP3    H2 9486   3.435   5.609   6.030
 3177TIP3   OH2 9487   1.672   6.045   3.052
 3177TIP3    H1 9488   1.757   6.063   3.012
 3177TIP3    H2 9489   1.657   5.952   3.036
 3178TIP3   OH2 9490   0.277   5.142   3.561
 3178TIP3    H1 9491   0.283   5.048   3.579
 3178TIP3    H2 9492   0.363   5.165   3.525
 3179TIP3   OH2 9493   0.217   4.006   5.550
 3179TIP3    H1 9494   0.207   4.069   5.621
 3179TIP3    H2 9495   0.297   3.958   5.571
 3180TIP3   OH2 9496   4.110   7.646   2.028
 3180TIP3    H1 9497   4.161   7.700   2.088
 3180TIP3    H2 9498   4.174   7.614   1.964
 3181TIP3   OH2 9499   3.863   1.676   5.645
 3181TIP3    H1 9500   3.886   1.693   5.554
 3181TIP3    H2 9501   3.922   1.606   5.673
 3182TIP3   OH2 9502   4.746   7.193   2.145
 3182TIP3    H1 9503   4.746   7.101   2.121
 3182TIP3    H2 9504   4.665   7.205   2.195
 3183TIP3   OH2 9505   1.442   0.677   1.812
 3183TIP3    H1 9506   1.462   0.765   1.845
 3183TIP3    H2 9507   1.516   0.656   1.755
 3184TIP3   OH2 9508   1.844   4.411   3.657
 3184TIP3    H1 9509   1.867   4.332   3.608
 3184TIP3    H2 9510   1.886   4.482   3.609
 3185TIP3   OH2 9511   2.677   7.211   2.926
 3185TIP3    H1 9512   2.689   7.235   2.834
 3185TIP3    H2 9513   2.691   7.116   2.928
 3186TIP3   OH2 9514   6.702   3.218   2.838
 3186TIP3    H1 9515   6.617   3.177   2.821
 3186TIP3    H2 9516   6.756   3.195   2.763
 3187TIP3   OH2 9517   4.409   1.408   0.172
 3187TIP3    H1 9518   4.321   1.397   0.136
 3187TIP3    H2 9519   4.464   1.425   0.095
 3188TIP3   OH2 9520   6.849   4.701   3.522
 3188TIP3    H1 9521   6.856   4.628   3.583
 3188TIP3    H2 9522   6.819   4.662   3.440
 3189TIP3   OH2 9523   7.604   0.467   1.212
 3189TIP3    H1 9524   7.699   0.462   1.223
 3189TIP3    H2 9525   7.569   0.406   1.278
 3190TIP3   OH2 9526   1.717   7.740   5.069
 3190TIP3    H1 9527   1.709   7.674   5.000
 3190TIP3    H2 9528   1.784   7.706   5.128
 3191TIP3   OH2 9529   1.157   5.310   5.895
 3191TIP3    H1 9530   1.221   5.379   5.876
 3191TIP3    H2 9531   1.074   5.356   5.902
 3192TIP3   OH2 9532   7.873   3.085   3.056
 3192TIP3    H1 9533   7.949   3.028   3.041
 3192TIP3    H2 9534   7.855   3.122   2.970
 3193TIP3   OH2 9535   2.469   4.927   6.681
 3193TIP3    H1 9536   2.419   4.845   6.689
 3193TIP3    H2 9537   2.435   4.983   6.750
 3194TIP3   OH2 9538   3.838   6.334   1.073
 3194TIP3    H1 9539   3.921   6.380   1.080
 3194TIP3    H2 9540   3.788   6.361   1.150
 3195TIP3   OH2 9541   6.266   5.894   3.788
 3195TIP3    H1 9542   6.243   5.826   3.851
 3195TIP3    H2 9543   6.202   5.883   3.717
 3196TIP3   OH2 9544   3.816   7.731   4.640
 3196TIP3    H1 9545   3.782   7.721   4.551
 3196TIP3    H2 9546   3.766   7.668   4.691
 3197TIP3   OH2 9547   7.983   3.326   4.477
 3197TIP3    H1 9548   7.897   3.305   4.441
 3197TIP3    H2 9549   8.024   3.241   4.495
 3198TIP3   OH2 9550   2.607   2.030   5.183
 3198TIP3    H1 9551   2.536   1.981   5.142
 3198TIP3    H2 9552   2.564   2.081   5.252
 3199TIP3   OH2 9553   7.031   4.500   1.052
 3199TIP3    H1 9554   7.002   4.419   1.010
 3199TIP3    H2 9555   6.957   4.526   1.107
 3200TIP3   OH2 9556   5.625   7.685   2.905
 3200TIP3    H1 9557   5.616   7.715   2.996
 3200TIP3    H2 9558   5.658   7.762   2.858
 3201TIP3   OH2 9559   2.068   6.493   5.335
 3201TIP3    H1 9560   2.045   6.515   5.245
 3201TIP3    H2 9561   2.007   6.544   5.388
 3202TIP3   OH2 9562   5.589   0.685   3.804
 3202TIP3    H1 9563   5.548   0.702   3.888
 3202TIP3    H2 9564   5.583   0.590   3.793
 3203TIP3   OH2 9565   0.786   6.982   6.152
 3203TIP3    H1 9566   0.742   7.044   6.210
 3203TIP3    H2 9567   0.768   6.896   6.190
 3204TIP3   OH2 9568   8.130   2.784   0.398
 3204TIP3    H1 9569   8.111   2.878   0.398
 3204TIP3    H2 9570   8.222   2.778   0.369
 3205TIP3   OH2 9571   3.757   1.556   0.844
 3205TIP3    H1 9572   3.725   1.522   0.928
 3205TIP3    H2 9573   3.777   1.477   0.793
 3206TIP3   OH2 9574   4.950   2.416   1.261
 3206TIP3    H1 9575   4.873   2.443   1.311
 3206TIP3    H2 9576   4.920   2.412   1.171
 3207TIP3   OH2 9577   6.712   1.485   0.458
 3207TIP3    H1 9578   6.755   1.534   0.388
 3207TIP3    H2 9579   6.740   1.395   0.444
 3208TIP3   OH2 9580   6.663   5.829   1.669
 3208TIP3    H1 9581   6.688   5.889   1.739
 3208TIP3    H2 9582   6.601   5.879   1.615
 3209TIP3   OH2 9583   4.804   3.309   1.324
 3209TIP3    H1 9584   4.839   3.382   1.376
 3209TIP3    H2 9585   4.751   3.259   1.387
 3210TIP3   OH2 9586   8.065   7.132   2.639
 3210TIP3    H1 9587   8.050   7.077   2.562
 3210TIP3    H2 9588   8.158   7.153   2.636
 3211TIP3   OH2 9589   5.410   2.829   2.913
 3211TIP3    H1 9590   5.341   2.890   2.941
 3211TIP3    H2 9591   5.430   2.778   2.991
 3212TIP3   OH2 9592   3.777   5.712   0.560
 3212TIP3    H1 9593   3.864   5.672   0.552
 3212TIP3    H2 9594   3.773   5.776   0.490
 3213TIP3   OH2 9595   8.281   5.683   6.057
 3213TIP3    H1 9596   8.219   5.712   6.123
 3213TIP3    H2 9597   8.318   5.602   6.091
 3214TIP3   OH2 9598   0.558   0.872   2.844
 3214TIP3    H1 9599   0.617   0.886   2.769
 3214TIP3    H2 9600   0.617   0.864   2.919
 3215TIP3   OH2 9601   2.492   6.959   6.564
 3215TIP3    H1 9602   2.578   6.948   6.605
 3215TIP3    H2 9603   2.454   6.871   6.566
 3216TIP3   OH2 9604   5.079   1.442   3.879
 3216TIP3    H1 9605   5.143   1.375   3.855
 3216TIP3    H2 9606   5.124   1.496   3.944
 3217TIP3   OH2 9607   6.398   6.750   4.097
 3217TIP3    H1 9608   6.418   6.744   4.003
 3217TIP3    H2 9609   6.374   6.841   4.111
 3218TIP3   OH2 9610   6.321   7.604   0.700
 3218TIP3    H1 9611   6.367   7.612   0.783
 3218TIP3    H2 9612   6.388   7.582   0.636
 3219TIP3   OH2 9613   5.408   2.620   0.771
 3219TIP3    H1 9614   5.368   2.636   0.685
 3219TIP3    H2 9615   5.396   2.702   0.818
 3220TIP3   OH2 9616   1.090   0.071   1.562
 3220TIP3    H1 9617   1.020   0.128   1.530
 3220TIP3    H2 9618   1.134   0.123   1.630
 3221TIP3   OH2 9619   3.705   0.278   2.357
 3221TIP3    H1 9620   3.791   0.302   2.390
 3221TIP3    H2 9621   3.719   0.253   2.266
 3222TIP3   OH2 9622   3.851   3.836   1.954
 3222TIP3    H1 9623   3.842   3.920   1.998
 3222TIP3    H2 9624   3.845   3.857   1.861
 3223TIP3   OH2 9625   7.352  -0.007   5.438
 3223TIP3    H1 9626   7.289   0.035   5.380
 3223TIP3    H2 9627   7.435  -0.001   5.392
 3224TIP3   OH2 9628   5.448   7.445   0.283
 3224TIP3    H1 9629   5.430   7.492   0.365
 3224TIP3    H2 9630   5.511   7.377   0.307
 3225TIP3   OH2 9631   7.680   0.047   6.487
 3225TIP3    H1 9632   7.602   0.063   6.434
 3225TIP3    H2 9633   7.737   0.122   6.470
 3226TIP3   OH2 9634   3.225   2.075   2.465
 3226TIP3    H1 9635   3.134   2.048   2.476
 3226TIP3    H2 9636   3.225   2.168   2.488
 3227TIP3   OH2 9637   4.501   6.350   6.257
 3227TIP3    H1 9638   4.588   6.378   6.229
 3227TIP3    H2 9639   4.475   6.284   6.193
 3228TIP3   OH2 9640   7.152   7.220   0.763
 3228TIP3    H1 9641   7.231   7.206   0.815
 3228TIP3    H2 9642   7.110   7.297   0.802
 3229TIP3   OH2 9643   7.952   1.589   6.372
 3229TIP3    H1 9644   7.871   1.634   6.346
 3229TIP3    H2 9645   7.945   1.503   6.331
 3230TIP3   OH2 9646   3.006   0.408   2.180
 3230TIP3    H1 9647   2.962   0.479   2.133
 3230TIP3    H2 9648   2.938   0.343   2.195
 3231TIP3   OH2 9649   7.445   3.221   4.178
 3231TIP3    H1 9650   7.416   3.234   4.088
 3231TIP3    H2 9651   7.518   3.159   4.171
 3232TIP3   OH2 9652   3.847   4.717   1.987
 3232TIP3    H1 9653   3.785   4.679   1.924
 3232TIP3    H2 9654   3.837   4.662   2.065
 3233TIP3   OH2 9655   8.193   6.314   0.142
 3233TIP3    H1 9656   8.120   6.361   0.184
 3233TIP3    H2 9657   8.151   6.247   0.088
 3234TIP3   OH2 9658   0.636   5.218   3.869
 3234TIP3    H1 9659   0.629   5.301   3.917
 3234TIP3    H2 9660   0.602   5.152   3.928
 3235TIP3   OH2 9661   2.016   0.205   5.230
 3235TIP3    H1 9662   2.062   0.160   5.160
 3235TIP3    H2 9663   1.933   0.232   5.190
 3236TIP3   OH2 9664   7.574   3.863   1.000
 3236TIP3    H1 9665   7.603   3.773   0.981
 3236TIP3    H2 9666   7.633   3.893   1.069
 3237TIP3   OH2 9667   6.271   0.597   5.490
 3237TIP3    H1 9668   6.178   0.594   5.467
 3237TIP3    H2 9669   6.304   0.675   5.447
 3238TIP3   OH2 9670   2.826   2.773   0.954
 3238TIP3    H1 9671   2.754   2.715   0.927
 3238TIP3    H2 9672   2.816   2.781   1.049
 3239TIP3   OH2 9673   1.943   5.097   4.047
 3239TIP3    H1 9674   1.848   5.104   4.038
 3239TIP3    H2 9675   1.976   5.099   3.957
 3240TIP3   OH2 9676   3.469   6.299   3.051
 3240TIP3    H1 9677   3.376   6.311   3.068
 3240TIP3    H2 9678   3.509   6.382   3.078
 3241TIP3   OH2 9679   7.821   7.147   5.159
 3241TIP3    H1 9680   7.876   7.075   5.189
 3241TIP3    H2 9681   7.767   7.170   5.235
 3242TIP3   OH2 9682   4.276   3.651   2.485
 3242TIP3    H1 9683   4.204   3.713   2.501
 3242TIP3    H2 9684   4.266   3.584   2.553
 3243TIP3   OH2 9685   4.044   4.671   5.613
 3243TIP3    H1 9686   4.079   4.582   5.604
 3243TIP3    H2 9687   4.122   4.727   5.610
 3244TIP3   OH2 9688   7.307   1.740   4.926
 3244TIP3    H1 9689   7.321   1.661   4.875
 3244TIP3    H2 9690   7.296   1.709   5.016
 3245TIP3   OH2 9691   0.431   1.702   4.590
 3245TIP3    H1 9692   0.405   1.792   4.570
 3245TIP3    H2 9693   0.371   1.674   4.658
 3246TIP3   OH2 9694   4.974   4.076   0.020
 3246TIP3    H1 9695   5.053   4.037   0.057
 3246TIP3    H2 9696   4.903   4.017   0.045
 3247TIP3   OH2 9697   7.476   4.647   5.621
 3247TIP3    H1 9698   7.553   4.613   5.666
 3247TIP3    H2 9699   7.410   4.579   5.631
 3248TIP3   OH2 9700   5.153   2.665   6.304
 3248TIP3    H1 9701   5.178   2.573   6.312
 3248TIP3    H2 9702   5.066   2.663   6.263
 3249TIP3   OH2 9703   3.659   7.273   4.630
 3249TIP3    H1 9704   3.685   7.340   4.692
 3249TIP3    H2 9705   3.580   7.308   4.588
 3250TIP3   OH2 9706   7.398   1.415   2.011
 3250TIP3    H1 9707   7.342   1.470   2.067
 3250TIP3    H2 9708   7.487   1.435   2.040
 3251TIP3   OH2 9709   6.078   3.464   2.554
 3251TIP3    H1 9710   6.160   3.464   2.504
 3251TIP3    H2 9711   6.082   3.544   2.607
 3252TIP3   OH2 9712   7.217  -0.027   1.419
 3252TIP3    H1 9713   7.216   0.049   1.478
 3252TIP3    H2 9714   7.126  -0.057   1.418
 3253TIP3   OH2 9715   0.064   6.882   2.774
 3253TIP3    H1 9716   0.108   6.928   2.702
 3253TIP3    H2 9717   0.135   6.852   2.830
 3254TIP3   OH2 9718   0.375   5.781   1.284
 3254TIP3    H1 9719   0.300   5.737   1.244
 3254TIP3    H2 9720   0.337   5.859   1.326
 3255TIP3   OH2 9721   8.060   4.351   5.528
 3255TIP3    H1 9722   8.078   4.336   5.435
 3255TIP3    H2 9723   8.144   4.341   5.572
 3256TIP3   OH2 9724   6.344   1.417   4.765
 3256TIP3    H1 9725   6.402   1.399   4.840
 3256TIP3    H2 9726   6.279   1.347   4.768
 3257TIP3   OH2 9727   5.744   3.896   5.511
 3257TIP3    H1 9728   5.678   3.907   5.442
 3257TIP3    H2 9729   5.827   3.891   5.463
 3258TIP3   OH2 9730   7.232   0.144   5.642
 3258TIP3    H1 9731   7.265   0.091   5.570
 3258TIP3    H2 9732   7.138   0.129   5.641
 3259TIP3   OH2 9733   6.210   4.646   2.268
 3259TIP3    H1 9734   6.211   4.638   2.173
 3259TIP3    H2 9735   6.129   4.695   2.287
 3260TIP3   OH2 9736   1.166   1.628   4.651
 3260TIP3    H1 9737   1.165   1.533   4.663
 3260TIP3    H2 9738   1.101   1.660   4.714
 3261TIP3   OH2 9739   6.829   2.514   4.802
 3261TIP3    H1 9740   6.750   2.559   4.829
 3261TIP3    H2 9741   6.835   2.438   4.860
 3262TIP3   OH2 9742   0.812   3.495   6.776
 3262TIP3    H1 9743   0.791   3.472   6.686
 3262TIP3    H2 9744   0.799   3.414   6.826
 3263TIP3   OH2 9745   4.875   5.270   5.219
 3263TIP3    H1 9746   4.855   5.179   5.242
 3263TIP3    H2 9747   4.967   5.268   5.192
 3264TIP3   OH2 9748   4.409   6.249   4.745
 3264TIP3    H1 9749   4.340   6.250   4.679
 3264TIP3    H2 9750   4.393   6.327   4.798
 3265TIP3   OH2 9751   8.307   2.564   1.843
 3265TIP3    H1 9752   8.345   2.651   1.834
 3265TIP3    H2 9753   8.240   2.574   1.910
 3266TIP3   OH2 9754   6.887   1.286   4.201
 3266TIP3    H1 9755   6.821   1.302   4.133
 3266TIP3    H2 9756   6.883   1.192   4.216
 3267TIP3   OH2 9757   1.086   6.204   3.726
 3267TIP3    H1 9758   1.137   6.199   3.645
 3267TIP3    H2 9759   1.004   6.246   3.700
 3268TIP3   OH2 9760   7.692   5.549   4.526
 3268TIP3    H1 9761   7.717   5.526   4.616
 3268TIP3    H2 9762   7.698   5.466   4.479
 3269TIP3   OH2 9763   7.577   1.259   3.013
 3269TIP3    H1 9764   7.575   1.217   2.927
 3269TIP3    H2 9765   7.485   1.281   3.031
 3270TIP3   OH2 9766   3.224   2.406   1.553
 3270TIP3    H1 9767   3.275   2.357   1.618
 3270TIP3    H2 9768   3.222   2.348   1.477
 3271TIP3   OH2 9769   0.505   1.911   1.980
 3271TIP3    H1 9770   0.524   2.004   1.966
 3271TIP3    H2 9771   0.537   1.868   1.901
 3272TIP3   OH2 9772   6.449   0.999   0.355
 3272TIP3    H1 9773   6.454   0.917   0.306
 3272TIP3    H2 9774   6.371   0.990   0.410
 3273TIP3   OH2 9775   2.390   3.142   0.324
 3273TIP3    H1 9776   2.319   3.078   0.328
 3273TIP3    H2 9777   2.464   3.093   0.288
 3274TIP3   OH2 9778   5.893   4.037   4.863
 3274TIP3    H1 9779   5.868   4.065   4.951
 3274TIP3    H2 9780   5.825   3.976   4.837
 3275TIP3   OH2 9781   3.945   0.980   2.818
 3275TIP3    H1 9782   3.969   0.954   2.907
 3275TIP3    H2 9783   4.014   0.943   2.763
 3276TIP3   OH2 9784   2.142   6.394   0.244
 3276TIP3    H1 9785   2.182   6.436   0.320
 3276TIP3    H2 9786   2.048   6.395   0.262
 3277TIP3   OH2 9787   7.942   2.027   6.267
 3277TIP3    H1 9788   7.847   2.021   6.271
 3277TIP3    H2 9789   7.959   2.087   6.194
 3278TIP3   OH2 9790   5.542   6.693   0.218
 3278TIP3    H1 9791   5.461   6.656   0.183
 3278TIP3    H2 9792   5.534   6.787   0.205
 3279TIP3   OH2 9793   6.550   2.227   3.683
 3279TIP3    H1 9794   6.576   2.211   3.593
 3279TIP3    H2 9795   6.457   2.249   3.678
 3280TIP3   OH2 9796   7.668   4.915   6.448
 3280TIP3    H1 9797   7.682   5.010   6.443
 3280TIP3    H2 9798   7.756   4.877   6.438
 3281TIP3   OH2 9799   3.703   1.380   0.447
 3281TIP3    H1 9800   3.654   1.300   0.427
 3281TIP3    H2 9801   3.755   1.357   0.524
 3282TIP3   OH2 9802   3.461   0.664   1.076
 3282TIP3    H1 9803   3.394   0.636   1.138
 3282TIP3    H2 9804   3.512   0.730   1.123
 3283TIP3   OH2 9805   2.751   1.604   5.100
 3283TIP3    H1 9806   2.683   1.669   5.116
 3283TIP3    H2 9807   2.704   1.528   5.065
 3284TIP3   OH2 9808   0.562   4.008   0.063
 3284TIP3    H1 9809   0.485   3.971   0.106
 3284TIP3    H2 9810   0.626   4.019   0.133
 3285TIP3   OH2 9811   1.668   6.751   1.280
 3285TIP3    H1 9812   1.764   6.758   1.283
 3285TIP3    H2 9813   1.637   6.821   1.337
 3286TIP3   OH2 9814   5.176   3.567   5.783
 3286TIP3    H1 9815   5.205   3.652   5.815
 3286TIP3    H2 9816   5.255   3.527   5.746
 3287TIP3   OH2 9817   0.369   5.045   6.654
 3287TIP3    H1 9818   0.372   5.101   6.732
 3287TIP3    H2 9819   0.330   5.100   6.586
 3288TIP3   OH2 9820   5.370   3.455   4.015
 3288TIP3    H1 9821   5.435   3.389   3.994
 3288TIP3    H2 9822   5.319   3.466   3.935
 3289TIP3   OH2 9823   5.066   4.584   5.159
 3289TIP3    H1 9824   5.058   4.527   5.082
 3289TIP3    H2 9825   5.011   4.542   5.225
 3290TIP3   OH2 9826   1.087   7.278   4.323
 3290TIP3    H1 9827   1.039   7.197   4.310
 3290TIP3    H2 9828   1.042   7.321   4.396
 3291TIP3   OH2 9829   7.909   7.009   0.129
 3291TIP3    H1 9830   7.872   6.989   0.044
 3291TIP3    H2 9831   7.881   6.936   0.186
 3292TIP3   OH2 9832   5.372   6.064   3.165
 3292TIP3    H1 9833   5.409   6.151   3.181
 3292TIP3    H2 9834   5.358   6.027   3.252
 3293TIP3   OH2 9835   1.667   7.623   3.778
 3293TIP3    H1 9836   1.572   7.610   3.780
 3293TIP3    H2 9837   1.678   7.717   3.791
 3294TIP3   OH2 9838   3.497   7.478   5.456
 3294TIP3    H1 9839   3.496   7.504   5.548
 3294TIP3    H2 9840   3.576   7.518   5.420
 3295TIP3   OH2 9841   5.477   2.227   4.069
 3295TIP3    H1 9842   5.442   2.143   4.039
 3295TIP3    H2 9843   5.404   2.288   4.056
 3296TIP3   OH2 9844   7.806   3.208   6.115
 3296TIP3    H1 9845   7.743   3.136   6.110
 3296TIP3    H2 9846   7.818   3.223   6.209
 3297TIP3   OH2 9847   3.674   3.684   5.520
 3297TIP3    H1 9848   3.624   3.761   5.494
 3297TIP3    H2 9849   3.641   3.662   5.607
 3298TIP3   OH2 9850   5.538   6.934   2.659
 3298TIP3    H1 9851   5.578   6.850   2.635
 3298TIP3    H2 9852   5.534   6.984   2.578
 3299TIP3   OH2 9853   6.721   2.061   2.709
 3299TIP3    H1 9854   6.733   2.155   2.698
 3299TIP3    H2 9855   6.674   2.051   2.791
 3300TIP3   OH2 9856   2.322   4.864   2.285
 3300TIP3    H1 9857   2.371   4.946   2.292
 3300TIP3    H2 9858   2.364   4.805   2.347
 3301TIP3   OH2 9859   2.557   6.331   3.668
 3301TIP3    H1 9860   2.576   6.405   3.611
 3301TIP3    H2 9861   2.568   6.365   3.757
 3302TIP3   OH2 9862   6.984   2.630   5.893
 3302TIP3    H1 9863   7.063   2.662   5.936
 3302TIP3    H2 9864   7.014   2.556   5.840
 3303TIP3   OH2 9865   7.197   2.956   1.985
 3303TIP3    H1 9866   7.170   2.869   2.015
 3303TIP3    H2 9867   7.120   2.992   1.942
 3304TIP3   OH2 9868   5.407   4.138   5.224
 3304TIP3    H1 9869   5.491   4.182   5.218
 3304TIP3    H2 9870   5.423   4.060   5.278
 3305TIP3   OH2 9871   8.260   5.491   2.198
 3305TIP3    H1 9872   8.171   5.522   2.213
 3305TIP3    H2 9873   8.305   5.567   2.160
 3306TIP3   OH2 9874   1.951   4.175   1.730
 3306TIP3    H1 9875   1.962   4.249   1.672
 3306TIP3    H2 9876   1.861   4.182   1.762
 3307TIP3   OH2 9877   3.227   3.789   4.247
 3307TIP3    H1 9878   3.316   3.819   4.265
 3307TIP3    H2 9879   3.206   3.826   4.161
 3308TIP3   OH2 9880   2.761   4.555   0.586
 3308TIP3    H1 9881   2.692   4.510   0.634
 3308TIP3    H2 9882   2.727   4.644   0.573
 3309TIP3   OH2 9883   5.768   0.110   0.941
 3309TIP3    H1 9884   5.774   0.147   1.029
 3309TIP3    H2 9885   5.709   0.168   0.894
 3310TIP3   OH2 9886   4.320   4.948   1.258
 3310TIP3    H1 9887   4.384   4.934   1.188
 3310TIP3    H2 9888   4.279   4.862   1.271
 3311TIP3   OH2 9889   2.446   5.356   5.132
 3311TIP3    H1 9890   2.379   5.308   5.181
 3311TIP3    H2 9891   2.405   5.375   5.048
 3312TIP3   OH2 9892   8.053   4.059   5.684
 3312TIP3    H1 9893   8.016   3.984   5.732
 3312TIP3    H2 9894   8.027   4.135   5.736
 3313TIP3   OH2 9895   6.611   0.823   3.401
 3313TIP3    H1 9896   6.524   0.811   3.439
 3313TIP3    H2 9897   6.594   0.853   3.311
 3314TIP3   OH2 9898   3.227   7.057   4.990
 3314TIP3    H1 9899   3.251   7.041   4.899
 3314TIP3    H2 9900   3.299   7.020   5.041
 3315TIP3   OH2 9901   4.448   6.378   2.385
 3315TIP3    H1 9902   4.436   6.284   2.396
 3315TIP3    H2 9903   4.439   6.415   2.473
 3316TIP3   OH2 9904   6.879   1.696   3.551
 3316TIP3    H1 9905   6.943   1.740   3.495
 3316TIP3    H2 9906   6.932   1.650   3.616
 3317TIP3   OH2 9907   3.969   0.133   3.140
 3317TIP3    H1 9908   3.955   0.049   3.095
 3317TIP3    H2 9909   3.901   0.190   3.105
 3318TIP3   OH2 9910   3.832   5.429   3.586
 3318TIP3    H1 9911   3.782   5.511   3.593
 3318TIP3    H2 9912   3.917   5.456   3.553
 3319TIP3   OH2 9913   3.603   7.074   6.249
 3319TIP3    H1 9914   3.683   7.030   6.220
 3319TIP3    H2 9915   3.634   7.158   6.284
 3320TIP3   OH2 9916   5.807   5.467   6.061
 3320TIP3    H1 9917   5.713   5.482   6.074
 3320TIP3    H2 9918   5.815   5.450   5.967
 3321TIP3   OH2 9919   2.578   3.772   5.009
 3321TIP3    H1 9920   2.560   3.827   5.085
 3321TIP3    H2 9921   2.629   3.828   4.950
 3322TIP3   OH2 9922   5.950   5.160   0.559
 3322TIP3    H1 9923   5.890   5.174   0.633
 3322TIP3    H2 9924   5.892   5.156   0.483
 3323TIP3   OH2 9925   2.167   2.506   5.691
 3323TIP3    H1 9926   2.251   2.470   5.662
 3323TIP3    H2 9927   2.179   2.522   5.784
 3324TIP3   OH2 9928   2.844   2.988   3.465
 3324TIP3    H1 9929   2.772   3.042   3.497
 3324TIP3    H2 9930   2.867   3.025   3.380
 3325TIP3   OH2 9931   2.336   2.002   5.284
 3325TIP3    H1 9932   2.270   2.071   5.291
 3325TIP3    H2 9933   2.343   1.984   5.190
 3326TIP3   OH2 9934   7.309   1.288   6.770
 3326TIP3    H1 9935   7.376   1.232   6.732
 3326TIP3    H2 9936   7.229   1.235   6.768
 3327TIP3   OH2 9937   5.161   4.904   3.920
 3327TIP3    H1 9938   5.071   4.872   3.919
 3327TIP3    H2 9939   5.183   4.915   3.828
 3328TIP3   OH2 9940   6.668   7.313   5.956
 3328TIP3    H1 9941   6.747   7.325   6.009
 3328TIP3    H2 9942   6.699   7.273   5.875
 3329TIP3   OH2 9943   1.680   0.510   1.047
 3329TIP3    H1 9944   1.605   0.550   1.089
 3329TIP3    H2 9945   1.660   0.513   0.953
 3330TIP3   OH2 9946   2.119   5.392   4.003
 3330TIP3    H1 9947   2.103   5.384   4.097
 3330TIP3    H2 9948   2.207   5.358   3.990
 3331TIP3   OH2 9949   2.190   3.863   4.187
 3331TIP3    H1 9950   2.264   3.860   4.247
 3331TIP3    H2 9951   2.215   3.927   4.121
 3332TIP3   OH2 9952   0.444   2.668   4.367
 3332TIP3    H1 9953   0.395   2.746   4.393
 3332TIP3    H2 9954   0.423   2.603   4.434
 3333TIP3   OH2 9955   5.846   4.975   6.593
 3333TIP3    H1 9956   5.875   4.899   6.643
 3333TIP3    H2 9957   5.923   5.000   6.541
 3334TIP3   OH2 9958   2.948   1.897   0.781
 3334TIP3    H1 9959   2.901   1.930   0.705
 3334TIP3    H2 9960   3.003   1.970   0.809
 3335TIP3   OH2 9961   2.502   6.076   2.541
 3335TIP3    H1 9962   2.513   6.153   2.486
 3335TIP3    H2 9963   2.540   6.102   2.625
 3336TIP3   OH2 9964   0.173   1.258   4.570
 3336TIP3    H1 9965   0.108   1.194   4.598
 3336TIP3    H2 9966   0.123   1.338   4.556
 3337TIP3   OH2 9967   3.721   3.231   4.039
 3337TIP3    H1 9968   3.813   3.226   4.014
 3337TIP3    H2 9969   3.717   3.300   4.105
 3338TIP3   OH2 9970   5.882   5.378   2.228
 3338TIP3    H1 9971   5.930   5.382   2.311
 3338TIP3    H2 9972   5.915   5.452   2.177
 3339TIP3   OH2 9973   7.157   1.811   5.900
 3339TIP3    H1 9974   7.171   1.888   5.955
 3339TIP3    H2 9975   7.231   1.811   5.840
 3340TIP3   OH2 9976   3.389   4.413   4.943
 3340TIP3    H1 9977   3.337   4.454   5.012
 3340TIP3    H2 9978   3.424   4.486   4.893
 3341TIP3   OH2 9979   5.965   1.741   5.329
 3341TIP3    H1 9980   6.058   1.761   5.333
 3341TIP3    H2 9981   5.957   1.679   5.257
 3342TIP3   OH2 9982   2.060   2.707   3.270
 3342TIP3    H1 9983   1.986   2.751   3.227
 3342TIP3    H2 9984   2.036   2.707   3.363
 3343TIP3   OH2 9985   6.513   4.867   2.516
 3343TIP3    H1 9986   6.577   4.937   2.518
 3343TIP3    H2 9987   6.443   4.899   2.459
 3344TIP3   OH2 9988   4.454   5.404   1.753
 3344TIP3    H1 9989   4.429   5.486   1.798
 3344TIP3    H2 9990   4.514   5.432   1.684
 3345TIP3   OH2 9991   8.038   1.563   1.361
 3345TIP3    H1 9992   8.016   1.475   1.329
 3345TIP3    H2 9993   8.133   1.561   1.372
 3346TIP3   OH2 9994   0.899   6.883   5.924
 3346TIP3    H1 9995   0.867   6.928   6.002
 3346TIP3    H2 9996   0.931   6.799   5.956
 3347TIP3   OH2 9997   1.570   5.046   4.949
 3347TIP3    H1 9998   1.563   5.100   4.870
 3347TIP3    H2 9999   1.511   5.087   5.012
 3348TIP3   OH210000   7.881   1.091   0.501
 3348TIP3    H110001   7.822   1.017   0.488
 3348TIP3    H210002   7.954   1.075   0.441
 3349TIP3   OH210003   2.013   3.633   6.078
 3349TIP3    H110004   2.072   3.571   6.036
 3349TIP3    H210005   2.046   3.719   6.053
 3350TIP3   OH210006   0.318   2.782   1.193
 3350TIP3    H110007   0.272   2.865   1.206
 3350TIP3    H210008   0.328   2.746   1.281
 3351TIP3   OH210009   3.563   1.011   4.334
 3351TIP3    H110010   3.634   0.950   4.356
 3351TIP3    H210011   3.572   1.082   4.399
 3352TIP3   OH210012   2.491   5.327   2.718
 3352TIP3    H110013   2.410   5.282   2.694
 3352TIP3    H210014   2.514   5.290   2.804
 3353TIP3   OH210015   0.699   5.580   2.985
 3353TIP3    H110016   0.725   5.609   2.898
 3353TIP3    H210017   0.624   5.636   3.008
 3354TIP3   OH210018   4.934   6.360   2.130
 3354TIP3    H110019   4.902   6.304   2.059
 3354TIP3    H210020   4.956   6.442   2.087
 3355TIP3   OH210021   5.236   0.353   5.858
 3355TIP3    H110022   5.204   0.413   5.925
 3355TIP3    H210023   5.197   0.384   5.776
 3356TIP3   OH210024   6.904   2.828   2.000
 3356TIP3    H110025   6.878   2.819   1.908
 3356TIP3    H210026   6.844   2.771   2.047
 3357TIP3   OH210027   3.623   6.090   6.051
 3357TIP3    H110028   3.632   6.179   6.083
 3357TIP3    H210029   3.529   6.077   6.039
 3358TIP3   OH210030   7.789   2.740   1.751
 3358TIP3    H110031   7.796   2.765   1.843
 3358TIP3    H210032   7.871   2.771   1.711
 3359TIP3   OH210033   0.264   4.966   5.774
 3359TIP3    H110034   0.355   4.993   5.788
 3359TIP3    H210035   0.261   4.938   5.683
 3360TIP3   OH210036   3.699   6.359   6.080
 3360TIP3    H110037   3.696   6.438   6.135
 3360TIP3    H210038   3.692   6.392   5.990
 3361TIP3   OH210039   5.421   7.578   2.301
 3361TIP3    H110040   5.352   7.522   2.337
 3361TIP3    H210041   5.398   7.666   2.332
 3362TIP3   OH210042   6.553   0.602   0.997
 3362TIP3    H110043   6.594   0.584   1.082
 3362TIP3    H210044   6.609   0.668   0.957
 3363TIP3   OH210045   0.049   4.512   3.128
 3363TIP3    H110046  -0.036   4.503   3.086
 3363TIP3    H210047   0.057   4.434   3.183
 3364TIP3   OH210048   1.710   2.768   3.960
 3364TIP3    H110049   1.628   2.812   3.983
 3364TIP3    H210050   1.741   2.816   3.883
 3365TIP3   OH210051   2.370   0.860   4.557
 3365TIP3    H110052   2.279   0.849   4.585
 3365TIP3    H210053   2.379   0.954   4.541
 3366TIP3   OH210054   1.694   2.631   5.717
 3366TIP3    H110055   1.762   2.578   5.673
 3366TIP3    H210056   1.612   2.595   5.685
 3367TIP3   OH210057   8.245   3.857   6.037
 3367TIP3    H110058   8.169   3.908   6.066
 3367TIP3    H210059   8.242   3.777   6.089
 3368TIP3   OH210060   7.807   2.470   6.612
 3368TIP3    H110061   7.898   2.462   6.643
 3368TIP3    H210062   7.778   2.554   6.647
 3369TIP3   OH210063   0.603   4.926   2.091
 3369TIP3    H110064   0.532   4.949   2.032
 3369TIP3    H210065   0.660   5.003   2.092
 3370TIP3   OH210066   1.935  -0.017   4.327
 3370TIP3    H110067   1.870  -0.079   4.359
 3370TIP3    H210068   1.967  -0.055   4.245
 3371TIP3   OH210069   0.539   3.837   4.259
 3371TIP3    H110070   0.451   3.865   4.285
 3371TIP3    H210071   0.598   3.890   4.312
 3372TIP3   OH210072   6.388   4.477   4.856
 3372TIP3    H110073   6.429   4.551   4.812
 3372TIP3    H210074   6.335   4.515   4.926
 3373TIP3   OH210075   4.754   0.429   0.422
 3373TIP3    H110076   4.816   0.428   0.495
 3373TIP3    H210077   4.668   0.431   0.464
 3374TIP3   OH210078   7.728   1.115   3.628
 3374TIP3    H110079   7.695   1.125   3.717
 3374TIP3    H210080   7.821   1.140   3.633
 3375TIP3   OH210081   4.159   0.607   5.658
 3375TIP3    H110082   4.249   0.578   5.642
 3375TIP3    H210083   4.129   0.638   5.572
 3376TIP3   OH210084   1.769   1.486   3.571
 3376TIP3    H110085   1.751   1.546   3.499
 3376TIP3    H210086   1.747   1.399   3.535
 3377TIP3   OH210087   6.026   3.990   3.006
 3377TIP3    H110088   6.063   4.074   3.032
 3377TIP3    H210089   5.977   3.961   3.083
 3378TIP3   OH210090   4.495   2.626   3.345
 3378TIP3    H110091   4.441   2.547   3.336
 3378TIP3    H210092   4.537   2.617   3.431
 3379TIP3   OH210093   4.246   1.838   2.194
 3379TIP3    H110094   4.229   1.926   2.160
 3379TIP3    H210095   4.297   1.853   2.273
 3380TIP3   OH210096   4.999   1.632   0.912
 3380TIP3    H110097   5.083   1.648   0.869
 3380TIP3    H210098   5.011   1.664   1.001
 3381TIP3   OH210099   1.592   7.431   4.353
 3381TIP3    H110100   1.609   7.354   4.407
 3381TIP3    H210101   1.509   7.412   4.309
 3382TIP3   OH210102   6.059   2.377   1.065
 3382TIP3    H110103   6.020   2.461   1.042
 3382TIP3    H210104   5.994   2.335   1.122
 3383TIP3   OH210105   6.410   1.145   0.731
 3383TIP3    H110106   6.419   1.196   0.650
 3383TIP3    H210107   6.389   1.210   0.798
 3384TIP3   OH210108   1.558   2.728   0.653
 3384TIP3    H110109   1.492   2.797   0.660
 3384TIP3    H210110   1.509   2.647   0.652
 3385TIP3   OH210111   5.246   3.917   0.727
 3385TIP3    H110112   5.209   3.915   0.639
 3385TIP3    H210113   5.170   3.924   0.785
 3386TIP3   OH210114   5.096   2.363   5.292
 3386TIP3    H110115   5.102   2.449   5.250
 3386TIP3    H210116   5.086   2.383   5.386
 3387TIP3   OH210117   2.891   7.731   4.323
 3387TIP3    H110118   2.805   7.704   4.353
 3387TIP3    H210119   2.903   7.687   4.239
 3388TIP3   OH210120   3.910   2.208   0.788
 3388TIP3    H110121   3.839   2.253   0.833
 3388TIP3    H210122   3.982   2.271   0.788
 3389TIP3   OH210123   1.487   4.070   4.188
 3389TIP3    H110124   1.496   4.067   4.093
 3389TIP3    H210125   1.535   4.149   4.214
 3390TIP3   OH210126   2.579   2.878   1.667
 3390TIP3    H110127   2.525   2.807   1.703
 3390TIP3    H210128   2.599   2.933   1.742
 3391TIP3   OH210129   4.246   4.896   3.465
 3391TIP3    H110130   4.318   4.958   3.450
 3391TIP3    H210131   4.244   4.884   3.560
 3392TIP3   OH210132   6.423   1.096   1.404
 3392TIP3    H110133   6.518   1.095   1.412
 3392TIP3    H210134   6.399   1.005   1.388
 3393TIP3   OH210135   1.037   6.988   6.276
 3393TIP3    H110136   0.943   6.988   6.255
 3393TIP3    H210137   1.044   7.038   6.357
 3394TIP3   OH210138   4.113   2.859   1.938
 3394TIP3    H110139   4.149   2.791   1.881
 3394TIP3    H210140   4.040   2.817   1.983
 3395TIP3   OH210141   4.432   6.891   1.721
 3395TIP3    H110142   4.435   6.800   1.691
 3395TIP3    H210143   4.521   6.909   1.751
 3396TIP3   OH210144   3.408   1.197   6.039
 3396TIP3    H110145   3.430   1.261   6.107
 3396TIP3    H210146   3.331   1.234   5.996
 3397TIP3   OH210147   2.561   6.532   2.201
 3397TIP3    H110148   2.614   6.607   2.174
 3397TIP3    H210149   2.474   6.568   2.218
 3398TIP3   OH210150   5.973   3.225   3.667
 3398TIP3    H110151   6.036   3.217   3.596
 3398TIP3    H210152   5.915   3.149   3.656
 3399TIP3   OH210153   6.540   5.493   0.098
 3399TIP3    H110154   6.622   5.445   0.095
 3399TIP3    H210155   6.472   5.426   0.087
 3400TIP3   OH210156   2.376   0.948   1.850
 3400TIP3    H110157   2.415   0.884   1.909
 3400TIP3    H210158   2.447   1.010   1.831
 3401TIP3   OH210159   3.594   3.024   0.572
 3401TIP3    H110160   3.655   2.974   0.626
 3401TIP3    H210161   3.531   2.958   0.540
 3402TIP3   OH210162   8.193   3.207   4.831
 3402TIP3    H110163   8.108   3.250   4.834
 3402TIP3    H210164   8.180   3.130   4.775
 3403TIP3   OH210165   6.483   5.639   4.099
 3403TIP3    H110166   6.427   5.576   4.144
 3403TIP3    H210167   6.502   5.597   4.015
 3404TIP3   OH210168   7.722   2.106   2.696
 3404TIP3    H110169   7.800   2.154   2.724
 3404TIP3    H210170   7.742   2.077   2.607
 3405TIP3   OH210171   6.209   0.761   0.658
 3405TIP3    H110172   6.134   0.703   0.647
 3405TIP3    H210173   6.258   0.723   0.731
 3406TIP3   OH210174   6.715   2.918   0.696
 3406TIP3    H110175   6.706   2.827   0.726
 3406TIP3    H210176   6.625   2.946   0.680
 3407TIP3   OH210177   2.613   3.566   6.458
 3407TIP3    H110178   2.537   3.605   6.501
 3407TIP3    H210179   2.678   3.636   6.456
 3408TIP3   OH210180   2.118   5.110   5.592
 3408TIP3    H110181   2.152   5.073   5.511
 3408TIP3    H210182   2.175   5.074   5.661
 3409TIP3   OH210183   7.324   0.379   4.485
 3409TIP3    H110184   7.229   0.379   4.475
 3409TIP3    H210185   7.357   0.400   4.398
 3410TIP3   OH210186   0.916   5.929   4.450
 3410TIP3    H110187   0.824   5.928   4.421
 3410TIP3    H210188   0.935   5.838   4.470
 3411TIP3   OH210189   0.967   5.737   2.397
 3411TIP3    H110190   1.058   5.707   2.402
 3411TIP3    H210191   0.945   5.761   2.487
 3412TIP3   OH210192   6.870   7.782   4.697
 3412TIP3    H110193   6.915   7.731   4.630
 3412TIP3    H210194   6.940   7.817   4.752
 3413TIP3   OH210195   0.070   3.187   2.821
 3413TIP3    H110196   0.065   3.127   2.895
 3413TIP3    H210197   0.041   3.271   2.857
 3414TIP3   OH210198   0.713   1.595   1.312
 3414TIP3    H110199   0.747   1.516   1.271
 3414TIP3    H210200   0.644   1.564   1.371
 3415TIP3   OH210201   2.223   3.509   2.887
 3415TIP3    H110202   2.181   3.570   2.947
 3415TIP3    H210203   2.231   3.557   2.805
 3416TIP3   OH210204   4.581   7.474   6.404
 3416TIP3    H110205   4.563   7.380   6.405
 3416TIP3    H210206   4.613   7.493   6.492
 3417TIP3   OH210207   6.689   1.075   4.524
 3417TIP3    H110208   6.650   1.012   4.462
 3417TIP3    H210209   6.639   1.155   4.510
 3418TIP3   OH210210   7.499   6.804   5.091
 3418TIP3    H110211   7.537   6.883   5.053
 3418TIP3    H210212   7.572   6.743   5.098
 3419TIP3   OH210213   7.448   2.828   1.562
 3419TIP3    H110214   7.367   2.777   1.551
 3419TIP3    H210215   7.457   2.839   1.657
 3420TIP3   OH210216   4.120   0.674   5.355
 3420TIP3    H110217   4.187   0.613   5.384
 3420TIP3    H210218   4.116   0.664   5.260
 3421TIP3   OH210219   4.534   1.347   1.156
 3421TIP3    H110220   4.557   1.254   1.146
 3421TIP3    H210221   4.618   1.393   1.152
 3422TIP3   OH210222   1.315   1.202   3.981
 3422TIP3    H110223   1.362   1.207   3.898
 3422TIP3    H210224   1.253   1.130   3.969
 3423TIP3   OH210225   0.738   3.874   3.891
 3423TIP3    H110226   0.761   3.917   3.973
 3423TIP3    H210227   0.788   3.920   3.824
 3424TIP3   OH210228   4.346   4.665   5.569
 3424TIP3    H110229   4.331   4.732   5.502
 3424TIP3    H210230   4.334   4.582   5.523
 3425TIP3   OH210231   7.596   6.228   1.196
 3425TIP3    H110232   7.512   6.271   1.210
 3425TIP3    H210233   7.631   6.214   1.284
 3426TIP3   OH210234   3.712   2.888   2.438
 3426TIP3    H110235   3.654   2.813   2.431
 3426TIP3    H210236   3.769   2.868   2.512
 3427TIP3   OH210237   3.853   2.110   4.221
 3427TIP3    H110238   3.851   2.171   4.148
 3427TIP3    H210239   3.771   2.125   4.268
 3428TIP3   OH210240   3.690   2.247   0.935
 3428TIP3    H110241   3.635   2.295   0.996
 3428TIP3    H210242   3.650   2.160   0.929
 3429TIP3   OH210243   1.522   7.781   4.337
 3429TIP3    H110244   1.449   7.720   4.345
 3429TIP3    H210245   1.480   7.866   4.322
 3430TIP3   OH210246   6.314   6.874   6.656
 3430TIP3    H110247   6.350   6.888   6.743
 3430TIP3    H210248   6.222   6.898   6.664
 3431TIP3   OH210249   7.399   5.703   3.060
 3431TIP3    H110250   7.491   5.700   3.086
 3431TIP3    H210251   7.389   5.785   3.012
 3432TIP3   OH210252   1.967   7.602   0.064
 3432TIP3    H110253   2.030   7.671   0.043
 3432TIP3    H210254   1.963   7.602   0.160
 3433TIP3   OH210255   4.651   3.177   1.528
 3433TIP3    H110256   4.672   3.244   1.593
 3433TIP3    H210257   4.696   3.099   1.560
 3434TIP3   OH210258   3.503   4.706   1.719
 3434TIP3    H110259   3.555   4.785   1.703
 3434TIP3    H210260   3.462   4.721   1.805
 3435TIP3   OH210261   1.438   4.235   1.150
 3435TIP3    H110262   1.453   4.213   1.242
 3435TIP3    H210263   1.523   4.224   1.108
 3436TIP3   OH210264   1.934   0.511   0.812
 3436TIP3    H110265   1.894   0.424   0.820
 3436TIP3    H210266   1.951   0.538   0.902
 3437TIP3   OH210267   4.545   5.886   3.659
 3437TIP3    H110268   4.641   5.878   3.655
 3437TIP3    H210269   4.525   5.880   3.752
 3438TIP3   OH210270   0.395   2.354   0.272
 3438TIP3    H110271   0.445   2.346   0.353
 3438TIP3    H210272   0.383   2.448   0.260
 3439TIP3   OH210273   0.357   7.821   6.312
 3439TIP3    H110274   0.421   7.869   6.366
 3439TIP3    H210275   0.272   7.847   6.347
 3440TIP3   OH210276   6.807   2.044   0.151
 3440TIP3    H110277   6.745   2.116   0.164
 3440TIP3    H210278   6.775   1.998   0.073
 3441TIP3   OH210279   3.076   1.425   2.632
 3441TIP3    H110280   3.032   1.460   2.553
 3441TIP3    H210281   3.123   1.500   2.668
 3442TIP3   OH210282   0.534   1.497   1.497
 3442TIP3    H110283   0.490   1.579   1.521
 3442TIP3    H210284   0.530   1.444   1.576
 3443TIP3   OH210285   6.838   5.852   6.155
 3443TIP3    H110286   6.894   5.832   6.231
 3443TIP3    H210287   6.897   5.845   6.080
 3444TIP3   OH210288   0.464   3.133   4.247
 3444TIP3    H110289   0.372   3.113   4.231
 3444TIP3    H210290   0.485   3.087   4.329
 3445TIP3   OH210291   5.424   1.024   5.008
 3445TIP3    H110292   5.468   0.943   5.032
 3445TIP3    H210293   5.438   1.032   4.913
 3446TIP3   OH210294   1.993   4.272   4.889
 3446TIP3    H110295   1.997   4.177   4.894
 3446TIP3    H210296   1.929   4.297   4.956
 3447TIP3   OH210297   4.500   5.113   3.038
 3447TIP3    H110298   4.431   5.146   3.096
 3447TIP3    H210299   4.461   5.119   2.950
 3448TIP3   OH210300   6.908   0.519   0.900
 3448TIP3    H110301   6.842   0.583   0.876
 3448TIP3    H210302   6.990   0.569   0.901
 3449TIP3   OH210303   5.226   6.649   3.897
 3449TIP3    H110304   5.231   6.672   3.805
 3449TIP3    H210305   5.240   6.554   3.899
 3450TIP3   OH210306   3.596   1.250   0.968
 3450TIP3    H110307   3.643   1.320   1.013
 3450TIP3    H210308   3.663   1.207   0.915
 3451TIP3   OH210309   1.596   1.575   0.594
 3451TIP3    H110310   1.536   1.649   0.589
 3451TIP3    H210311   1.646   1.579   0.513
 3452TIP3   OH210312   4.814   6.656   1.255
 3452TIP3    H110313   4.828   6.722   1.187
 3452TIP3    H210314   4.861   6.579   1.223
 3453TIP3   OH210315   7.308   2.262   2.850
 3453TIP3    H110316   7.260   2.344   2.865
 3453TIP3    H210317   7.271   2.228   2.769
 3454TIP3   OH210318   4.093   1.237   6.661
 3454TIP3    H110319   4.066   1.182   6.735
 3454TIP3    H210320   4.188   1.245   6.671
 3455TIP3   OH210321   0.311   3.940   3.425
 3455TIP3    H110322   0.352   4.011   3.473
 3455TIP3    H210323   0.272   3.884   3.492
 3456TIP3   OH210324   1.815   7.325   1.433
 3456TIP3    H110325   1.790   7.363   1.349
 3456TIP3    H210326   1.809   7.230   1.419
 3457TIP3   OH210327   7.538   4.293   0.299
 3457TIP3    H110328   7.460   4.349   0.292
 3457TIP3    H210329   7.505   4.204   0.291
 3458TIP3   OH210330   6.509   7.654   1.680
 3458TIP3    H110331   6.559   7.735   1.677
 3458TIP3    H210332   6.536   7.613   1.763
 3459TIP3   OH210333   4.623   0.246   0.138
 3459TIP3    H110334   4.566   0.321   0.156
 3459TIP3    H210335   4.631   0.202   0.223
 3460TIP3   OH210336   4.758   0.121   5.186
 3460TIP3    H110337   4.679   0.157   5.146
 3460TIP3    H210338   4.814   0.096   5.112
 3461TIP3   OH210339   0.595   1.026   1.738
 3461TIP3    H110340   0.527   0.978   1.785
 3461TIP3    H210341   0.674   0.972   1.750
 3462TIP3   OH210342   7.511   7.466   2.020
 3462TIP3    H110343   7.468   7.538   2.065
 3462TIP3    H210344   7.541   7.408   2.091
 3463TIP3   OH210345   3.538   2.127   1.380
 3463TIP3    H110346   3.565   2.091   1.465
 3463TIP3    H210347   3.570   2.218   1.382
 3464TIP3   OH210348   2.600   2.667   3.798
 3464TIP3    H110349   2.695   2.666   3.809
 3464TIP3    H210350   2.566   2.613   3.869
 3465TIP3   OH210351   2.311   7.010   0.356
 3465TIP3    H110352   2.347   7.027   0.443
 3465TIP3    H210353   2.310   6.915   0.348
 3466TIP3   OH210354   6.808   3.088   6.259
 3466TIP3    H110355   6.784   3.173   6.296
 3466TIP3    H210356   6.738   3.069   6.197
 3467TIP3   OH210357   0.936   5.288   4.558
 3467TIP3    H110358   0.919   5.382   4.556
 3467TIP3    H210359   0.964   5.267   4.469
 3468TIP3   OH210360   6.900   7.279   4.058
 3468TIP3    H110361   6.854   7.235   3.986
 3468TIP3    H210362   6.835   7.336   4.098
 3469TIP3   OH210363   7.184   3.791   6.399
 3469TIP3    H110364   7.105   3.810   6.449
 3469TIP3    H210365   7.254   3.839   6.444
 3470TIP3   OH210366   0.951   3.562   4.089
 3470TIP3    H110367   0.858   3.579   4.107
 3470TIP3    H210368   0.956   3.559   3.994
 3471TIP3   OH210369   6.743  -0.009   3.633
 3471TIP3    H110370   6.700  -0.055   3.562
 3471TIP3    H210371   6.814   0.040   3.591
 3472TIP3   OH210372   7.918   4.539   0.712
 3472TIP3    H110373   7.833   4.581   0.723
 3472TIP3    H210374   7.899   4.460   0.661
 3473TIP3   OH210375   5.932   1.051   5.320
 3473TIP3    H110376   5.965   1.019   5.236
 3473TIP3    H210377   5.837   1.040   5.314
 3474TIP3   OH210378   5.072   0.950   4.982
 3474TIP3    H110379   5.093   1.036   4.947
 3474TIP3    H210380   5.131   0.890   4.934
 3475TIP3   OH210381   0.951   1.440   2.618
 3475TIP3    H110382   1.025   1.419   2.561
 3475TIP3    H210383   0.889   1.487   2.561
 3476TIP3   OH210384   3.939   1.755   0.617
 3476TIP3    H110385   3.910   1.834   0.663
 3476TIP3    H210386   3.942   1.781   0.525
 3477TIP3   OH210387   1.013   1.528   1.438
 3477TIP3    H110388   0.971   1.520   1.352
 3477TIP3    H210389   0.991   1.447   1.483
 3478TIP3   OH210390   6.665   2.792   3.424
 3478TIP3    H110391   6.695   2.703   3.404
 3478TIP3    H210392   6.745   2.842   3.438
 3479TIP3   OH210393   1.794   1.351   1.580
 3479TIP3    H110394   1.766   1.263   1.603
 3479TIP3    H210395   1.872   1.366   1.633
 3480TIP3   OH210396   3.534   0.959   5.002
 3480TIP3    H110397   3.624   0.942   4.973
 3480TIP3    H210398   3.521   1.052   4.987
 3481TIP3   OH210399   7.629   1.537   5.098
 3481TIP3    H110400   7.623   1.632   5.112
 3481TIP3    H210401   7.724   1.520   5.093
 3482TIP3   OH210402   1.528   5.537   2.931
 3482TIP3    H110403   1.556   5.569   3.016
 3482TIP3    H210404   1.482   5.455   2.950
 3483TIP3   OH210405   2.390   3.114   1.035
 3483TIP3    H110406   2.295   3.120   1.050
 3483TIP3    H210407   2.415   3.031   1.075
 3484TIP3   OH210408   4.888   4.161   5.476
 3484TIP3    H110409   4.825   4.091   5.465
 3484TIP3    H210410   4.963   4.134   5.423
 3485TIP3   OH210411   1.697   3.084   4.127
 3485TIP3    H110412   1.786   3.062   4.101
 3485TIP3    H210413   1.641   3.031   4.070
 3486TIP3   OH210414   4.191   6.490   1.868
 3486TIP3    H110415   4.155   6.546   1.798
 3486TIP3    H210416   4.276   6.529   1.888
 3487TIP3   OH210417   4.525   7.425   6.709
 3487TIP3    H110418   4.462   7.359   6.738
 3487TIP3    H210419   4.608   7.376   6.701
 3488TIP3   OH210420   1.354   1.470   4.087
 3488TIP3    H110421   1.343   1.377   4.071
 3488TIP3    H210422   1.320   1.484   4.175
 3489TIP3   OH210423   3.077   2.718   0.358
 3489TIP3    H110424   3.120   2.746   0.439
 3489TIP3    H210425   3.104   2.627   0.346
 3490TIP3   OH210426   2.063   3.303   3.704
 3490TIP3    H110427   2.126   3.303   3.777
 3490TIP3    H210428   2.027   3.214   3.705
 3491TIP3   OH210429   4.729   1.563   5.904
 3491TIP3    H110430   4.642   1.594   5.879
 3491TIP3    H210431   4.767   1.530   5.823
 3492TIP3   OH210432   5.814   5.486   5.756
 3492TIP3    H110433   5.760   5.557   5.721
 3492TIP3    H210434   5.904   5.512   5.734
 3493TIP3   OH210435   7.617   4.118   1.638
 3493TIP3    H110436   7.596   4.207   1.667
 3493TIP3    H210437   7.575   4.062   1.703
 3494TIP3   OH210438   7.079   6.188   3.927
 3494TIP3    H110439   7.115   6.273   3.953
 3494TIP3    H210440   7.003   6.176   3.985
 3495TIP3   OH210441   7.202   7.059   0.515
 3495TIP3    H110442   7.176   7.127   0.577
 3495TIP3    H210443   7.122   7.037   0.468
 3496TIP3   OH210444   1.283   1.552   3.239
 3496TIP3    H110445   1.328   1.632   3.211
 3496TIP3    H210446   1.338   1.516   3.309
 3497TIP3   OH210447   0.951   6.175   6.274
 3497TIP3    H110448   1.046   6.179   6.283
 3497TIP3    H210449   0.935   6.187   6.181
 3498TIP3   OH210450   1.742   1.199   4.801
 3498TIP3    H110451   1.755   1.157   4.716
 3498TIP3    H210452   1.650   1.223   4.802
 3499TIP3   OH210453   7.598   3.820   2.065
 3499TIP3    H110454   7.561   3.870   1.993
 3499TIP3    H210455   7.538   3.746   2.077
 3500TIP3   OH210456   1.637   7.834   6.043
 3500TIP3    H110457   1.686   7.792   6.113
 3500TIP3    H210458   1.583   7.899   6.087
 3501TIP3   OH210459   4.662   1.738   5.631
 3501TIP3    H110460   4.587   1.685   5.658
 3501TIP3    H210461   4.632   1.828   5.637
 3502TIP3   OH210462   4.461   3.620   6.141
 3502TIP3    H110463   4.515   3.617   6.062
 3502TIP3    H210464   4.499   3.553   6.199
 3503TIP3   OH210465   7.393   5.200   3.853
 3503TIP3    H110466   7.341   5.162   3.924
 3503TIP3    H210467   7.410   5.126   3.794
 3504TIP3   OH210468   1.676   4.551   6.029
 3504TIP3    H110469   1.719   4.474   6.066
 3504TIP3    H210470   1.617   4.515   5.963
 3505TIP3   OH210471   1.956   1.344   3.802
 3505TIP3    H110472   1.958   1.388   3.887
 3505TIP3    H210473   2.021   1.390   3.750
 3506TIP3   OH210474   1.434   6.941   0.949
 3506TIP3    H110475   1.436   6.870   1.012
 3506TIP3    H210476   1.461   6.900   0.866
 3507TIP3   OH210477   2.401   2.855   3.859
 3507TIP3    H110478   2.413   2.851   3.954
 3507TIP3    H210479   2.454   2.781   3.826
 3508TIP3   OH210480   1.838   2.222   4.645
 3508TIP3    H110481   1.830   2.282   4.719
 3508TIP3    H210482   1.826   2.278   4.568
 3509TIP3   OH210483   4.975   3.389   6.626
 3509TIP3    H110484   5.061   3.406   6.666
 3509TIP3    H210485   4.991   3.316   6.566
 3510TIP3   OH210486   2.883   6.131   6.149
 3510TIP3    H110487   2.902   6.133   6.055
 3510TIP3    H210488   2.855   6.220   6.170
 3511TIP3   OH210489   3.737   1.259   1.709
 3511TIP3    H110490   3.749   1.223   1.621
 3511TIP3    H210491   3.666   1.208   1.747
 3512TIP3   OH210492   7.821   6.120   5.686
 3512TIP3    H110493   7.839   6.053   5.752
 3512TIP3    H210494   7.886   6.105   5.617
 3513TIP3   OH210495   6.188   1.421   3.704
 3513TIP3    H110496   6.240   1.398   3.781
 3513TIP3    H210497   6.133   1.344   3.689
 3514TIP3   OH210498   2.203   0.258   0.138
 3514TIP3    H110499   2.273   0.318   0.163
 3514TIP3    H210500   2.123   0.311   0.142
 3515TIP3   OH210501   1.458   6.457   0.859
 3515TIP3    H110502   1.510   6.381   0.833
 3515TIP3    H210503   1.523   6.523   0.883
 3516TIP3   OH210504   0.625   3.840   5.978
 3516TIP3    H110505   0.713   3.873   5.959
 3516TIP3    H210506   0.609   3.865   6.068
 3517TIP3   OH210507   6.093   6.139   2.444
 3517TIP3    H110508   6.188   6.137   2.437
 3517TIP3    H210509   6.070   6.230   2.427
 3518TIP3   OH210510   5.045   4.663   6.548
 3518TIP3    H110511   4.955   4.685   6.528
 3518TIP3    H210512   5.086   4.747   6.571
 3519TIP3   OH210513   2.676   0.986   1.353
 3519TIP3    H110514   2.616   0.999   1.427
 3519TIP3    H210515   2.643   1.044   1.284
 3520TIP3   OH210516   4.417   0.322   3.206
 3520TIP3    H110517   4.321   0.321   3.208
 3520TIP3    H210518   4.442   0.252   3.266
 3521TIP3   OH210519   8.281   1.165   6.743
 3521TIP3    H110520   8.361   1.111   6.742
 3521TIP3    H210521   8.278   1.201   6.832
 3522TIP3   OH210522   1.328   4.969   3.565
 3522TIP3    H110523   1.338   5.063   3.577
 3522TIP3    H210524   1.267   4.961   3.491
 3523TIP3   OH210525   6.285   1.146   2.148
 3523TIP3    H110526   6.305   1.187   2.063
 3523TIP3    H210527   6.345   1.189   2.209
 3524TIP3   OH210528   6.527   7.460   4.453
 3524TIP3    H110529   6.528   7.393   4.522
 3524TIP3    H210530   6.567   7.537   4.494
 3525TIP3   OH210531   0.813   5.104   0.775
 3525TIP3    H110532   0.851   5.064   0.697
 3525TIP3    H210533   0.752   5.170   0.740
 3526TIP3   OH210534   5.538   7.749   5.570
 3526TIP3    H110535   5.603   7.770   5.637
 3526TIP3    H210536   5.587   7.752   5.487
 3527TIP3   OH210537   2.439   2.813   0.582
 3527TIP3    H110538   2.485   2.863   0.650
 3527TIP3    H210539   2.370   2.766   0.630
 3528TIP3   OH210540   5.247   1.780   1.079
 3528TIP3    H110541   5.306   1.855   1.080
 3528TIP3    H210542   5.226   1.768   0.986
 3529TIP3   OH210543   8.107   0.333   6.586
 3529TIP3    H110544   8.098   0.302   6.496
 3529TIP3    H210545   8.201   0.332   6.602
 3530TIP3   OH210546   0.481   7.305   4.687
 3530TIP3    H110547   0.390   7.315   4.715
 3530TIP3    H210548   0.515   7.233   4.739
 3531TIP3   OH210549   7.504   3.511   2.648
 3531TIP3    H110550   7.497   3.545   2.559
 3531TIP3    H210551   7.581   3.556   2.684
 3532TIP3   OH210552   2.541   5.686   6.125
 3532TIP3    H110553   2.508   5.601   6.152
 3532TIP3    H210554   2.591   5.669   6.045
 3533TIP3   OH210555   4.318   5.019   4.781
 3533TIP3    H110556   4.367   5.069   4.716
 3533TIP3    H210557   4.228   5.019   4.749
 3534TIP3   OH210558   5.754   5.757   2.190
 3534TIP3    H110559   5.708   5.741   2.108
 3534TIP3    H210560   5.740   5.850   2.208
 3535TIP3   OH210561   5.606   2.135   0.515
 3535TIP3    H110562   5.583   2.055   0.563
 3535TIP3    H210563   5.535   2.148   0.452
 3536TIP3   OH210564   2.937   5.154   0.607
 3536TIP3    H110565   2.937   5.153   0.703
 3536TIP3    H210566   3.024   5.187   0.584
 3537TIP3   OH210567   1.163   4.580   6.194
 3537TIP3    H110568   1.209   4.506   6.155
 3537TIP3    H210569   1.121   4.624   6.120
 3538TIP3   OH210570   5.269   2.529   3.668
 3538TIP3    H110571   5.355   2.569   3.652
 3538TIP3    H210572   5.279   2.439   3.639
 3539TIP3   OH210573   8.098   6.289   6.226
 3539TIP3    H110574   8.145   6.228   6.169
 3539TIP3    H210575   8.156   6.364   6.233
 3540TIP3   OH210576   5.069   2.508   4.979
 3540TIP3    H110577   5.164   2.502   4.966
 3540TIP3    H210578   5.050   2.443   5.047
 3541TIP3   OH210579   5.932   2.192   0.853
 3541TIP3    H110580   5.979   2.262   0.900
 3541TIP3    H210581   5.933   2.118   0.913
 3542TIP3   OH210582  -0.042   3.074   1.923
 3542TIP3    H110583   0.037   3.096   1.973
 3542TIP3    H210584  -0.074   2.993   1.962
 3543TIP3   OH210585   0.518   5.546   5.524
 3543TIP3    H110586   0.442   5.501   5.486
 3543TIP3    H210587   0.510   5.636   5.493
 3544TIP3   OH210588   5.926   0.026   1.435
 3544TIP3    H110589   5.857   0.020   1.370
 3544TIP3    H210590   6.003  -0.014   1.393
 3545TIP3   OH210591   0.119   4.875   1.109
 3545TIP3    H110592   0.168   4.925   1.044
 3545TIP3    H210593   0.034   4.858   1.068
 3546TIP3   OH210594   6.060   4.444   6.308
 3546TIP3    H110595   6.016   4.370   6.266
 3546TIP3    H210596   5.990   4.508   6.324
 3547TIP3   OH210597   6.199   6.671   1.233
 3547TIP3    H110598   6.184   6.581   1.205
 3547TIP3    H210599   6.120   6.718   1.207
 3548TIP3   OH210600   4.656   7.150   1.870
 3548TIP3    H110601   4.622   7.120   1.954
 3548TIP3    H210602   4.670   7.069   1.820
 3549TIP3   OH210603   5.674   1.234   0.129
 3549TIP3    H110604   5.767   1.259   0.122
 3549TIP3    H210605   5.668   1.155   0.075
 3550TIP3   OH210606   7.742   0.573   4.443
 3550TIP3    H110607   7.738   0.649   4.501
 3550TIP3    H210608   7.746   0.610   4.355
 3551TIP3   OH210609   2.759   7.203   2.385
 3551TIP3    H110610   2.852   7.183   2.370
 3551TIP3    H210611   2.712   7.129   2.347
 3552TIP3   OH210612   0.284   0.864   2.553
 3552TIP3    H110613   0.222   0.929   2.519
 3552TIP3    H210614   0.355   0.862   2.488
 3553TIP3   OH210615   6.414   5.547   5.519
 3553TIP3    H110616   6.463   5.483   5.571
 3553TIP3    H210617   6.456   5.631   5.539
 3554TIP3   OH210618   7.766   7.713   4.211
 3554TIP3    H110619   7.707   7.757   4.150
 3554TIP3    H210620   7.708   7.659   4.265
 3555TIP3   OH210621   4.267   2.482   0.272
 3555TIP3    H110622   4.173   2.468   0.278
 3555TIP3    H210623   4.302   2.399   0.241
 3556TIP3   OH210624   6.223   7.439   4.385
 3556TIP3    H110625   6.238   7.515   4.442
 3556TIP3    H210626   6.239   7.472   4.297
 3557TIP3   OH210627   7.334   2.632   5.856
 3557TIP3    H110628   7.320   2.717   5.812
 3557TIP3    H210629   7.317   2.650   5.948
 3558TIP3   OH210630   7.766   2.331   3.971
 3558TIP3    H110631   7.687   2.334   3.916
 3558TIP3    H210632   7.838   2.345   3.909
 3559TIP3   OH210633   5.700   2.668   0.812
 3559TIP3    H110634   5.617   2.622   0.814
 3559TIP3    H210635   5.700   2.720   0.893
 3560TIP3   OH210636   2.737   1.648   1.926
 3560TIP3    H110637   2.827   1.664   1.955
 3560TIP3    H210638   2.683   1.670   2.001
 3561TIP3   OH210639   3.375   7.421   6.059
 3561TIP3    H110640   3.443   7.383   6.004
 3561TIP3    H210641   3.423   7.463   6.131
 3562TIP3   OH210642   6.325   6.239   5.688
 3562TIP3    H110643   6.321   6.323   5.733
 3562TIP3    H210644   6.318   6.174   5.759
 3563TIP3   OH210645   1.792   6.612   1.708
 3563TIP3    H110646   1.861   6.677   1.695
 3563TIP3    H210647   1.836   6.528   1.702
 3564TIP3   OH210648   5.018   7.826   1.440
 3564TIP3    H110649   5.013   7.733   1.417
 3564TIP3    H210650   5.107   7.838   1.472
 3565TIP3   OH210651   3.340   2.427   3.038
 3565TIP3    H110652   3.256   2.412   2.996
 3565TIP3    H210653   3.319   2.452   3.128
 3566TIP3   OH210654   5.887   7.200   4.696
 3566TIP3    H110655   5.878   7.230   4.605
 3566TIP3    H210656   5.896   7.281   4.746
 3567TIP3   OH210657   7.045   6.394   1.038
 3567TIP3    H110658   7.082   6.389   0.950
 3567TIP3    H210659   7.029   6.487   1.053
 3568TIP3   OH210660   7.122   2.463   0.107
 3568TIP3    H110661   7.107   2.554   0.132
 3568TIP3    H210662   7.036   2.421   0.117
 3569TIP3   OH210663   6.360   1.830   1.570
 3569TIP3    H110664   6.302   1.856   1.499
 3569TIP3    H210665   6.405   1.752   1.538
 3570TIP3   OH210666   3.424   1.635   5.401
 3570TIP3    H110667   3.388   1.639   5.312
 3570TIP3    H210668   3.393   1.715   5.443
 3571TIP3   OH210669   2.281   7.488   4.854
 3571TIP3    H110670   2.216   7.455   4.792
 3571TIP3    H210671   2.339   7.543   4.802
 3572TIP3   OH210672   8.233   0.190   3.350
 3572TIP3    H110673   8.312   0.234   3.319
 3572TIP3    H210674   8.202   0.140   3.275
 3573TIP3   OH210675   7.514   4.209   0.613
 3573TIP3    H110676   7.609   4.205   0.601
 3573TIP3    H210677   7.492   4.128   0.660
 3574TIP3   OH210678   4.664   1.531   1.391
 3574TIP3    H110679   4.602   1.528   1.464
 3574TIP3    H210680   4.701   1.443   1.386
 3575TIP3   OH210681   1.482   5.822   5.382
 3575TIP3    H110682   1.476   5.776   5.465
 3575TIP3    H210683   1.423   5.774   5.323
 3576TIP3   OH210684   5.617   2.965   2.249
 3576TIP3    H110685   5.566   2.937   2.325
 3576TIP3    H210686   5.597   3.058   2.239
 3577TIP3   OH210687   2.331   2.764   1.510
 3577TIP3    H110688   2.357   2.760   1.602
 3577TIP3    H210689   2.413   2.760   1.461
 3578TIP3   OH210690   4.083   7.119   6.333
 3578TIP3    H110691   4.108   7.115   6.241
 3578TIP3    H210692   4.098   7.210   6.358
 3579TIP3   OH210693   0.819   5.091   2.127
 3579TIP3    H110694   0.802   5.181   2.155
 3579TIP3    H210695   0.913   5.088   2.112
 3580TIP3   OH210696   4.241   2.461   3.163
 3580TIP3    H110697   4.153   2.450   3.127
 3580TIP3    H210698   4.296   2.401   3.113
 3581TIP3   OH210699   8.248   2.380   2.884
 3581TIP3    H110700   8.294   2.430   2.818
 3581TIP3    H210701   8.222   2.446   2.950
 3582TIP3   OH210702   6.860   5.430   2.986
 3582TIP3    H110703   6.806   5.489   2.933
 3582TIP3    H210704   6.823   5.343   2.970
 3583TIP3   OH210705   5.583   1.247   0.693
 3583TIP3    H110706   5.626   1.261   0.608
 3583TIP3    H210707   5.508   1.191   0.673
 3584TIP3   OH210708   2.783   7.301   5.090
 3584TIP3    H110709   2.879   7.293   5.094
 3584TIP3    H210710   2.751   7.211   5.103
 3585TIP3   OH210711   3.052   7.259   5.060
 3585TIP3    H110712   3.094   7.173   5.054
 3585TIP3    H210713   3.088   7.308   4.986
 3586TIP3   OH210714   7.221   3.211   5.557
 3586TIP3    H110715   7.243   3.120   5.535
 3586TIP3    H210716   7.197   3.251   5.474
 3587TIP3   OH210717   0.260   5.923   3.549
 3587TIP3    H110718   0.352   5.937   3.528
 3587TIP3    H210719   0.232   5.854   3.490
 3588TIP3   OH210720   5.407   3.012   2.462
 3588TIP3    H110721   5.331   3.025   2.405
 3588TIP3    H210722   5.371   3.010   2.550
 3589TIP3   OH210723   2.000   1.826   2.452
 3589TIP3    H110724   2.059   1.828   2.377
 3589TIP3    H210725   2.033   1.894   2.510
 3590TIP3   OH210726   7.134   1.047   3.143
 3590TIP3    H110727   7.172   1.022   3.059
 3590TIP3    H210728   7.069   1.113   3.120
 3591TIP3   OH210729   3.062   3.075   0.142
 3591TIP3    H110730   3.055   3.023   0.062
 3591TIP3    H210731   3.143   3.125   0.131
 3592TIP3   OH210732   5.863   4.601   1.060
 3592TIP3    H110733   5.868   4.522   1.006
 3592TIP3    H210734   5.811   4.662   1.008
 3593TIP3   OH210735   1.801   3.778   5.091
 3593TIP3    H110736   1.832   3.712   5.153
 3593TIP3    H210737   1.848   3.760   5.010
 3594TIP3   OH210738   6.289   5.061   2.008
 3594TIP3    H110739   6.358   5.124   2.028
 3594TIP3    H210740   6.317   4.981   2.053
 3595TIP3   OH210741   3.850   0.849   6.524
 3595TIP3    H110742   3.857   0.798   6.606
 3595TIP3    H210743   3.941   0.868   6.500
 3596TIP3   OH210744   7.530   2.592   5.623
 3596TIP3    H110745   7.481   2.602   5.704
 3596TIP3    H210746   7.478   2.531   5.571
 3597TIP3   OH210747   3.497   3.146   4.654
 3597TIP3    H110748   3.575   3.132   4.707
 3597TIP3    H210749   3.491   3.067   4.599
 3598TIP3   OH210750   6.929   4.924   5.020
 3598TIP3    H110751   7.021   4.919   5.045
 3598TIP3    H210752   6.923   5.001   4.962
 3599TIP3   OH210753   5.342   4.589   6.684
 3599TIP3    H110754   5.253   4.622   6.689
 3599TIP3    H210755   5.376   4.597   6.773
 3600TIP3   OH210756   5.808   1.149   3.429
 3600TIP3    H110757   5.724   1.140   3.384
 3600TIP3    H210758   5.867   1.182   3.362
 3601TIP3   OH210759   0.539   4.465   2.712
 3601TIP3    H110760   0.585   4.530   2.660
 3601TIP3    H210761   0.602   4.395   2.725
 3602TIP3   OH210762   5.767   1.870   6.133
 3602TIP3    H110763   5.694   1.809   6.120
 3602TIP3    H210764   5.844   1.813   6.138
 3603TIP3   OH210765   7.257   1.965   4.219
 3603TIP3    H110766   7.302   2.010   4.290
 3603TIP3    H210767   7.215   1.889   4.260
 3604TIP3   OH210768   5.646   2.068   6.800
 3604TIP3    H110769   5.680   2.074   6.711
 3604TIP3    H210770   5.559   2.030   6.790
 3605TIP3   OH210771   5.263   6.385   3.947
 3605TIP3    H110772   5.245   6.294   3.968
 3605TIP3    H210773   5.340   6.407   4.000
 3606TIP3   OH210774   2.058   1.915   3.222
 3606TIP3    H110775   2.035   1.858   3.149
 3606TIP3    H210776   1.986   1.978   3.226
 3607TIP3   OH210777   5.482   1.339   3.115
 3607TIP3    H110778   5.532   1.420   3.101
 3607TIP3    H210779   5.527   1.296   3.189
 3608TIP3   OH210780   3.656   6.803   5.100
 3608TIP3    H110781   3.708   6.854   5.038
 3608TIP3    H210782   3.719   6.769   5.163
 3609TIP3   OH210783   0.691   5.904   5.644
 3609TIP3    H110784   0.693   5.985   5.696
 3609TIP3    H210785   0.680   5.834   5.709
 3610TIP3   OH210786   0.338   6.106   2.604
 3610TIP3    H110787   0.253   6.146   2.625
 3610TIP3    H210788   0.403   6.172   2.630
 3611TIP3   OH210789   1.293   6.382   5.285
 3611TIP3    H110790   1.338   6.299   5.269
 3611TIP3    H210791   1.349   6.429   5.347
 3612TIP3   OH210792   7.231   2.799   2.663
 3612TIP3    H110793   7.303   2.781   2.723
 3612TIP3    H210794   7.273   2.836   2.585
 3613TIP3   OH210795   4.494   4.286   1.166
 3613TIP3    H110796   4.557   4.238   1.113
 3613TIP3    H210797   4.512   4.257   1.256
 3614TIP3   OH210798   1.934   5.956   1.200
 3614TIP3    H110799   1.845   5.929   1.178
 3614TIP3    H210800   1.952   5.913   1.284
 3615TIP3   OH210801   8.249   0.771   4.208
 3615TIP3    H110802   8.161   0.735   4.221
 3615TIP3    H210803   8.251   0.851   4.261
 3616TIP3   OH210804   1.360   1.971   1.902
 3616TIP3    H110805   1.412   1.953   1.980
 3616TIP3    H210806   1.272   1.939   1.923
 3617TIP3   OH210807   5.972   1.764   3.493
 3617TIP3    H110808   6.061   1.736   3.516
 3617TIP3    H210809   5.915   1.703   3.541
 3618TIP3   OH210810   4.282   2.079   5.749
 3618TIP3    H110811   4.350   2.147   5.742
 3618TIP3    H210812   4.250   2.088   5.839
 3619TIP3   OH210813   3.371   2.023   1.700
 3619TIP3    H110814   3.459   2.009   1.665
 3619TIP3    H210815   3.317   1.954   1.661
 3620TIP3   OH210816   7.199   2.117   5.343
 3620TIP3    H110817   7.224   2.173   5.416
 3620TIP3    H210818   7.257   2.041   5.350
 3621TIP3   OH210819   5.655   2.806   0.321
 3621TIP3    H110820   5.587   2.784   0.258
 3621TIP3    H210821   5.658   2.731   0.381
 3622TIP3   OH210822   1.424   4.764   6.691
 3622TIP3    H110823   1.515   4.736   6.680
 3622TIP3    H210824   1.431   4.857   6.713
 3623TIP3   OH210825   4.468   1.404   0.472
 3623TIP3    H110826   4.455   1.309   0.478
 3623TIP3    H210827   4.435   1.427   0.385
 3624TIP3   OH210828   3.912   4.045   4.005
 3624TIP3    H110829   3.977   4.084   4.063
 3624TIP3    H210830   3.929   3.951   4.010
 3625TIP3   OH210831   5.804   3.993   3.362
 3625TIP3    H110832   5.873   3.971   3.426
 3625TIP3    H210833   5.852   4.021   3.284
 3626TIP3   OH210834   7.397   6.127   2.033
 3626TIP3    H110835   7.444   6.202   2.069
 3626TIP3    H210836   7.379   6.150   1.942
 3627TIP3   OH210837   2.886   6.386   0.079
 3627TIP3    H110838   2.881   6.481   0.090
 3627TIP3    H210839   2.807   6.352   0.121
 3628TIP3   OH210840   4.759   4.304   0.191
 3628TIP3    H110841   4.754   4.380   0.248
 3628TIP3    H210842   4.831   4.252   0.226
 3629TIP3   OH210843   4.558   5.599   0.336
 3629TIP3    H110844   4.651   5.604   0.357
 3629TIP3    H210845   4.514   5.628   0.416
 3630TIP3   OH210846   1.975   6.481   3.946
 3630TIP3    H110847   1.916   6.544   3.903
 3630TIP3    H210848   2.021   6.439   3.874
 3631TIP3   OH210849   4.331   5.480   5.754
 3631TIP3    H110850   4.290   5.430   5.825
 3631TIP3    H210851   4.277   5.461   5.677
 3632TIP3   OH210852   4.814   6.177   0.484
 3632TIP3    H110853   4.741   6.179   0.547
 3632TIP3    H210854   4.891   6.200   0.536
 3633TIP3   OH210855   4.618   6.586   2.022
 3633TIP3    H110856   4.681   6.655   2.000
 3633TIP3    H210857   4.550   6.594   1.955
 3634TIP3   OH210858   0.913   7.654   0.525
 3634TIP3    H110859   0.886   7.659   0.433
 3634TIP3    H210860   0.988   7.713   0.531
 3635TIP3   OH210861   3.167   1.125   5.807
 3635TIP3    H110862   3.152   1.210   5.766
 3635TIP3    H210863   3.255   1.100   5.778
 3636TIP3   OH210864   5.250   0.392   5.552
 3636TIP3    H110865   5.251   0.320   5.489
 3636TIP3    H210866   5.213   0.466   5.502
 3637TIP3   OH210867   5.495   7.851   2.061
 3637TIP3    H110868   5.589   7.833   2.053
 3637TIP3    H210869   5.463   7.784   2.122
 3638TIP3   OH210870   2.337   4.687   5.988
 3638TIP3    H110871   2.377   4.650   5.909
 3638TIP3    H210872   2.244   4.693   5.967
 3639TIP3   OH210873   3.305   2.325   4.177
 3639TIP3    H110874   3.366   2.260   4.212
 3639TIP3    H210875   3.245   2.274   4.122
 3640TIP3   OH210876   5.787   4.967   4.391
 3640TIP3    H110877   5.841   5.042   4.418
 3640TIP3    H210878   5.774   4.979   4.297
 3641TIP3   OH210879   2.629   3.467   6.172
 3641TIP3    H110880   2.632   3.555   6.134
 3641TIP3    H210881   2.630   3.481   6.267
 3642TIP3   OH210882   3.854   0.877   6.061
 3642TIP3    H110883   3.801   0.956   6.063
 3642TIP3    H210884   3.816   0.820   6.128
 3643TIP3   OH210885   0.904   5.661   5.020
 3643TIP3    H110886   0.918   5.685   4.929
 3643TIP3    H210887   0.809   5.656   5.030
 3644TIP3   OH210888   2.767   3.189   0.660
 3644TIP3    H110889   2.708   3.188   0.736
 3644TIP3    H210890   2.708   3.187   0.584
 3645TIP3   OH210891   3.584   4.966   2.397
 3645TIP3    H110892   3.629   4.930   2.474
 3645TIP3    H210893   3.655   4.993   2.339
 3646TIP3   OH210894   2.125   5.727   2.024
 3646TIP3    H110895   2.098   5.786   2.094
 3646TIP3    H210896   2.203   5.769   1.987
 3647TIP3   OH210897   7.576   5.899   2.668
 3647TIP3    H110898   7.660   5.907   2.622
 3647TIP3    H210899   7.534   5.823   2.629
 3648TIP3   OH210900   6.285   6.286   3.644
 3648TIP3    H110901   6.192   6.265   3.646
 3648TIP3    H210902   6.296   6.355   3.710
 3649TIP3   OH210903   6.489   4.334   4.009
 3649TIP3    H110904   6.404   4.323   4.052
 3649TIP3    H210905   6.551   4.287   4.064
 3650TIP3   OH210906   2.938   6.330   3.516
 3650TIP3    H110907   3.018   6.383   3.518
 3650TIP3    H210908   2.964   6.247   3.555
 3651TIP3   OH210909   3.311   6.564   6.732
 3651TIP3    H110910   3.393   6.520   6.757
 3651TIP3    H210911   3.288   6.527   6.647
 3652TIP3   OH210912   2.893   2.575   4.785
 3652TIP3    H110913   2.868   2.482   4.790
 3652TIP3    H210914   2.829   2.620   4.840
 3653TIP3   OH210915   6.899   0.294   4.107
 3653TIP3    H110916   6.945   0.369   4.145
 3653TIP3    H210917   6.909   0.224   4.172
 3654TIP3   OH210918   1.401   5.193   1.952
 3654TIP3    H110919   1.319   5.153   1.923
 3654TIP3    H210920   1.381   5.228   2.039
 3655TIP3   OH210921   4.423   4.007   1.892
 3655TIP3    H110922   4.514   4.010   1.920
 3655TIP3    H210923   4.375   3.981   1.971
 3656TIP3   OH210924   3.953   4.348   6.590
 3656TIP3    H110925   3.923   4.264   6.555
 3656TIP3    H210926   4.046   4.335   6.608
 3657TIP3   OH210927   4.960   2.335   6.528
 3657TIP3    H110928   4.898   2.262   6.523
 3657TIP3    H210929   4.916   2.406   6.480
 3658TIP3   OH210930   7.200   5.888   6.606
 3658TIP3    H110931   7.165   5.977   6.615
 3658TIP3    H210932   7.283   5.890   6.653
 3659TIP3   OH210933   7.033   7.220   5.287
 3659TIP3    H110934   7.125   7.242   5.294
 3659TIP3    H210935   7.013   7.173   5.368
 3660TIP3   OH210936   0.679   7.375   1.605
 3660TIP3    H110937   0.685   7.295   1.658
 3660TIP3    H210938   0.591   7.373   1.570
 3661TIP3   OH210939   6.720   5.685   0.755
 3661TIP3    H110940   6.727   5.731   0.671
 3661TIP3    H210941   6.721   5.755   0.821
 3662TIP3   OH210942   4.756   1.419   0.513
 3662TIP3    H110943   4.739   1.508   0.542
 3662TIP3    H210944   4.704   1.364   0.571
 3663TIP3   OH210945   5.061   7.803   2.483
 3663TIP3    H110946   5.150   7.807   2.448
 3663TIP3    H210947   5.073   7.785   2.576
 3664TIP3   OH210948   1.526   4.061   0.025
 3664TIP3    H110949   1.576   3.979   0.024
 3664TIP3    H210950   1.442   4.036   0.065
 3665TIP3   OH210951   6.636   3.325   0.316
 3665TIP3    H110952   6.631   3.332   0.412
 3665TIP3    H210953   6.636   3.416   0.286
 3666TIP3   OH210954   1.764   7.520   0.580
 3666TIP3    H110955   1.685   7.563   0.548
 3666TIP3    H210956   1.735   7.433   0.607
 3667TIP3   OH210957   5.129   4.137   5.328
 3667TIP3    H110958   5.097   4.046   5.330
 3667TIP3    H210959   5.219   4.130   5.294
 3668TIP3   OH210960   2.510   6.508   4.980
 3668TIP3    H110961   2.559   6.589   4.966
 3668TIP3    H210962   2.495   6.505   5.074
 3669TIP3   OH210963   1.161   5.781   2.803
 3669TIP3    H110964   1.132   5.733   2.879
 3669TIP3    H210965   1.125   5.869   2.814
 3670TIP3   OH210966   3.279   3.612   6.036
 3670TIP3    H110967   3.335   3.535   6.025
 3670TIP3    H210968   3.197   3.587   5.995
 3671TIP3   OH210969   0.864   5.526   1.836
 3671TIP3    H110970   0.921   5.497   1.908
 3671TIP3    H210971   0.854   5.448   1.781
 3672TIP3   OH210972   1.716   4.343   4.797
 3672TIP3    H110973   1.724   4.331   4.892
 3672TIP3    H210974   1.806   4.351   4.766
 3673TIP3   OH210975   5.089   5.256   6.694
 3673TIP3    H110976   5.134   5.172   6.683
 3673TIP3    H210977   5.024   5.239   6.762
 3674TIP3   OH210978   6.498   1.323   4.986
 3674TIP3    H110979   6.526   1.373   5.063
 3674TIP3    H210980   6.577   1.276   4.958
 3675TIP3   OH210981   3.434   0.028   0.590
 3675TIP3    H110982   3.454   0.073   0.672
 3675TIP3    H210983   3.510  -0.027   0.575
 3676TIP3   OH210984   8.302   1.321   2.258
 3676TIP3    H110985   8.225   1.370   2.285
 3676TIP3    H210986   8.344   1.375   2.191
 3677TIP3   OH210987   4.490   6.229   6.019
 3677TIP3    H110988   4.573   6.205   5.978
 3677TIP3    H210989   4.486   6.325   6.009
 3678TIP3   OH210990   2.553   2.264   5.389
 3678TIP3    H110991   2.537   2.358   5.382
 3678TIP3    H210992   2.500   2.236   5.464
 3679TIP3   OH210993   5.898   0.418   6.442
 3679TIP3    H110994   5.823   0.373   6.403
 3679TIP3    H210995   5.956   0.435   6.368
 3680TIP3   OH210996   1.032   4.072   3.803
 3680TIP3    H110997   1.072   3.988   3.824
 3680TIP3    H210998   0.961   4.051   3.743
 3681TIP3   OH210999   7.727   5.726   5.055
 3681TIP3    H111000   7.733   5.656   5.120
 3681TIP3    H211001   7.678   5.796   5.099
 3682TIP3   OH211002   4.297   7.782   2.535
 3682TIP3    H111003   4.389   7.763   2.519
 3682TIP3    H211004   4.251   7.703   2.505
 3683TIP3   OH211005   7.700   2.210   1.458
 3683TIP3    H111006   7.640   2.207   1.383
 3683TIP3    H211007   7.778   2.254   1.425
 3684TIP3   OH211008   0.644   6.242   4.468
 3684TIP3    H111009   0.592   6.164   4.449
 3684TIP3    H211010   0.712   6.243   4.401
 3685TIP3   OH211011   1.645   4.136   5.959
 3685TIP3    H111012   1.552   4.118   5.976
 3685TIP3    H211013   1.658   4.108   5.869
 3686TIP3   OH211014   3.244   5.961   2.365
 3686TIP3    H111015   3.219   5.969   2.273
 3686TIP3    H211016   3.223   6.047   2.402
 3687TIP3   OH211017   3.909   0.179   3.930
 3687TIP3    H111018   3.984   0.189   3.988
 3687TIP3    H211019   3.932   0.105   3.874
 3688TIP3   OH211020   2.239   0.258   4.323
 3688TIP3    H111021   2.206   0.269   4.413
 3688TIP3    H211022   2.307   0.191   4.331
 3689TIP3   OH211023   5.105   3.618   1.351
 3689TIP3    H111024   5.111   3.713   1.339
 3689TIP3    H211025   5.019   3.595   1.317
 3690TIP3   OH211026   5.489   2.542   4.599
 3690TIP3    H111027   5.554   2.566   4.665
 3690TIP3    H211028   5.525   2.573   4.517
 3691TIP3   OH211029   7.706   4.744   2.342
 3691TIP3    H111030   7.787   4.699   2.367
 3691TIP3    H211031   7.691   4.719   2.251
 3692TIP3   OH211032   4.404   1.140   0.476
 3692TIP3    H111033   4.337   1.115   0.412
 3692TIP3    H211034   4.438   1.057   0.509
 3693TIP3   OH211035   0.582   5.274   5.638
 3693TIP3    H111036   0.539   5.349   5.598
 3693TIP3    H211037   0.621   5.227   5.565
 3694TIP3   OH211038   1.161   0.431   4.018
 3694TIP3    H111039   1.256   0.444   4.011
 3694TIP3    H211040   1.147   0.402   4.109
 3695TIP3   OH211041   5.750   2.608   2.468
 3695TIP3    H111042   5.670   2.599   2.417
 3695TIP3    H211043   5.796   2.683   2.429
 3696TIP3   OH211044   3.252   2.256   6.729
 3696TIP3    H111045   3.163   2.277   6.699
 3696TIP3    H211046   3.240   2.183   6.789
 3697TIP3   OH211047   0.099   5.280   5.132
 3697TIP3    H111048   0.033   5.285   5.202
 3697TIP3    H211049   0.049   5.255   5.054
 3698TIP3   OH211050   3.868   6.210   5.162
 3698TIP3    H111051   3.909   6.138   5.115
 3698TIP3    H211052   3.938   6.249   5.214
 3699TIP3   OH211053   3.155   0.252   3.624
 3699TIP3    H111054   3.188   0.251   3.534
 3699TIP3    H211055   3.134   0.344   3.641
 3700TIP3   OH211056   2.038   4.695   3.179
 3700TIP3    H111057   2.056   4.756   3.250
 3700TIP3    H211058   1.944   4.679   3.183
 3701TIP3   OH211059   2.743   1.230   3.839
 3701TIP3    H111060   2.753   1.155   3.898
 3701TIP3    H211061   2.821   1.227   3.783
 3702TIP3   OH211062   8.119   2.676   5.080
 3702TIP3    H111063   8.074   2.705   5.160
 3702TIP3    H211064   8.165   2.755   5.049
 3703TIP3   OH211065   4.028   3.996   2.335
 3703TIP3    H111066   4.018   3.904   2.310
 3703TIP3    H211067   4.122   4.008   2.343
 3704TIP3   OH211068   6.260   0.102   0.675
 3704TIP3    H111069   6.253   0.197   0.665
 3704TIP3    H211070   6.317   0.090   0.751
 3705TIP3   OH211071   2.610   2.574   5.407
 3705TIP3    H111072   2.572   2.596   5.321
 3705TIP3    H211073   2.684   2.634   5.416
 3706TIP3   OH211074   2.405   7.195   1.698
 3706TIP3    H111075   2.332   7.166   1.754
 3706TIP3    H211076   2.451   7.115   1.676
 3707TIP3   OH211077   5.716   5.744   3.598
 3707TIP3    H111078   5.653   5.751   3.526
 3707TIP3    H211079   5.783   5.684   3.566
 3708TIP3   OH211080   0.587   2.163   5.248
 3708TIP3    H111081   0.678   2.172   5.222
 3708TIP3    H211082   0.588   2.095   5.316
 3709TIP3   OH211083   4.632   0.648   4.650
 3709TIP3    H111084   4.537   0.643   4.651
 3709TIP3    H211085   4.652   0.723   4.707
 3710TIP3   OH211086   1.058   2.700   0.126
 3710TIP3    H111087   1.052   2.715   0.032
 3710TIP3    H211088   1.017   2.614   0.139
 3711TIP3   OH211089   6.182   2.836   4.385
 3711TIP3    H111090   6.267   2.858   4.346
 3711TIP3    H211091   6.120   2.890   4.337
 3712TIP3   OH211092   1.725   3.290   1.870
 3712TIP3    H111093   1.754   3.377   1.896
 3712TIP3    H211094   1.716   3.295   1.774
 3713TIP3   OH211095   3.588   6.493   5.527
 3713TIP3    H111096   3.522   6.438   5.568
 3713TIP3    H211097   3.555   6.506   5.437
 3714TIP3   OH211098   8.345   1.506   2.056
 3714TIP3    H111099   8.307   1.594   2.057
 3714TIP3    H211100   8.278   1.452   2.014
 3715TIP3   OH211101   6.969   7.056   0.216
 3715TIP3    H111102   6.927   7.016   0.292
 3715TIP3    H211103   6.915   7.029   0.142
 3716TIP3   OH211104   0.372   1.174   5.274
 3716TIP3    H111105   0.325   1.198   5.194
 3716TIP3    H211106   0.312   1.117   5.321
 3717TIP3   OH211107   1.390   2.682   6.479
 3717TIP3    H111108   1.337   2.660   6.402
 3717TIP3    H211109   1.329   2.679   6.552
 3718TIP3   OH211110   8.050   2.598   0.858
 3718TIP3    H111111   8.121   2.535   0.870
 3718TIP3    H211112   8.064   2.634   0.770
 3719TIP3   OH211113   5.665   0.764   4.599
 3719TIP3    H111114   5.633   0.825   4.533
 3719TIP3    H211115   5.740   0.721   4.558
 3720TIP3   OH211116   1.748   7.549   1.583
 3720TIP3    H111117   1.791   7.489   1.523
 3720TIP3    H211118   1.790   7.634   1.567
 3721TIP3   OH211119   0.171   3.612   5.669
 3721TIP3    H111120   0.223   3.545   5.713
 3721TIP3    H211121   0.135   3.569   5.592
 3722TIP3   OH211122   5.860   4.261   3.147
 3722TIP3    H111123   5.894   4.285   3.061
 3722TIP3    H211124   5.805   4.185   3.131
 3723TIP3   OH211125   8.080   6.212   2.301
 3723TIP3    H111126   8.150   6.272   2.326
 3723TIP3    H211127   8.103   6.130   2.345
 3724TIP3   OH211128   0.560   6.700   0.358
 3724TIP3    H111129   0.577   6.688   0.451
 3724TIP3    H211130   0.473   6.665   0.344
 3725TIP3   OH211131   7.947   2.078   0.385
 3725TIP3    H111132   7.875   2.140   0.378
 3725TIP3    H211133   8.024   2.128   0.357
 3726TIP3   OH211134   0.707   6.680   5.366
 3726TIP3    H111135   0.633   6.737   5.388
 3726TIP3    H211136   0.767   6.689   5.441
 3727TIP3   OH211137   8.012   4.581   1.066
 3727TIP3    H111138   8.020   4.652   1.003
 3727TIP3    H211139   8.099   4.575   1.107
 3728TIP3   OH211140   0.929   4.078   2.993
 3728TIP3    H111141   0.856   4.090   2.933
 3728TIP3    H211142   0.977   4.160   2.989
 3729TIP3   OH211143   7.890   4.708   6.259
 3729TIP3    H111144   7.807   4.743   6.228
 3729TIP3    H211145   7.954   4.735   6.193
 3730TIP3   OH211146   1.413   0.901   3.811
 3730TIP3    H111147   1.440   0.908   3.902
 3730TIP3    H211148   1.496   0.895   3.763
 3731TIP3   OH211149   6.859   7.062   6.203
 3731TIP3    H111150   6.944   7.042   6.164
 3731TIP3    H211151   6.846   7.155   6.184
 3732TIP3   OH211152   0.925   3.235   4.838
 3732TIP3    H111153   0.859   3.265   4.901
 3732TIP3    H211154   0.964   3.158   4.880
 3733TIP3   OH211155   2.961   4.376   5.574
 3733TIP3    H111156   2.978   4.467   5.552
 3733TIP3    H211157   3.010   4.326   5.509
 3734TIP3   OH211158   6.883   0.921   3.431
 3734TIP3    H111159   6.807   0.864   3.427
 3734TIP3    H211160   6.900   0.932   3.525
 3735TIP3   OH211161   3.419   5.373   5.024
 3735TIP3    H111162   3.478   5.301   5.048
 3735TIP3    H211163   3.470   5.428   4.965
 3736TIP3   OH211164   2.145   4.548   5.261
 3736TIP3    H111165   2.219   4.602   5.289
 3736TIP3    H211166   2.168   4.522   5.171
 3737TIP3   OH211167   2.522   6.608   0.501
 3737TIP3    H111168   2.500   6.521   0.468
 3737TIP3    H211169   2.617   6.604   0.516
 3738TIP3   OH211170   7.800   6.308   3.362
 3738TIP3    H111171   7.876   6.348   3.404
 3738TIP3    H211172   7.761   6.253   3.431
 3739TIP3   OH211173   6.621   0.198   3.997
 3739TIP3    H111174   6.620   0.103   3.983
 3739TIP3    H211175   6.713   0.223   3.985
 3740TIP3   OH211176   7.995   2.169   3.289
 3740TIP3    H111177   8.072   2.216   3.322
 3740TIP3    H211178   7.921   2.218   3.322
 3741TIP3   OH211179   3.474   4.890   4.121
 3741TIP3    H111180   3.520   4.928   4.047
 3741TIP3    H211181   3.399   4.844   4.082
 3742TIP3   OH211182   1.172   0.354   0.186
 3742TIP3    H111183   1.108   0.388   0.124
 3742TIP3    H211184   1.123   0.343   0.268
 3743TIP3   OH211185   1.144   1.857   2.124
 3743TIP3    H111186   1.100   1.841   2.208
 3743TIP3    H211187   1.126   1.778   2.073
 3744TIP3   OH211188   0.436   3.466   2.322
 3744TIP3    H111189   0.401   3.533   2.381
 3744TIP3    H211190   0.381   3.390   2.337
 3745TIP3   OH211191   5.901   5.692   0.781
 3745TIP3    H111192   5.843   5.768   0.777
 3745TIP3    H211193   5.850   5.624   0.826
 3746TIP3   OH211194   2.958   3.025   3.781
 3746TIP3    H111195   2.977   2.951   3.839
 3746TIP3    H211196   2.883   2.995   3.729
 3747TIP3   OH211197   3.204   3.964   2.811
 3747TIP3    H111198   3.296   3.980   2.790
 3747TIP3    H211199   3.160   3.959   2.726
 3748TIP3   OH211200   0.636   5.642   5.763
 3748TIP3    H111201   0.654   5.556   5.803
 3748TIP3    H211202   0.610   5.621   5.674
 3749TIP3   OH211203   4.212   6.605   5.670
 3749TIP3    H111204   4.161   6.671   5.716
 3749TIP3    H211205   4.227   6.536   5.735
 3750TIP3   OH211206   6.006   4.309   6.687
 3750TIP3    H111207   5.978   4.298   6.778
 3750TIP3    H211208   5.966   4.392   6.660
 3751TIP3   OH211209   7.454   2.930   3.266
 3751TIP3    H111210   7.359   2.917   3.273
 3751TIP3    H211211   7.463   3.007   3.209
 3752TIP3   OH211212   3.075   5.172   2.623
 3752TIP3    H111213   3.159   5.141   2.657
 3752TIP3    H211214   3.070   5.263   2.651
 3753TIP3   OH211215   5.465   7.160   0.059
 3753TIP3    H111216   5.538   7.212   0.023
 3753TIP3    H211217   5.389   7.217   0.050
 3754TIP3   OH211218   0.925   5.654   3.552
 3754TIP3    H111219   0.960   5.635   3.639
 3754TIP3    H211220   0.884   5.572   3.524
 3755TIP3   OH211221   0.706   5.761   3.300
 3755TIP3    H111222   0.717   5.668   3.281
 3755TIP3    H211223   0.751   5.774   3.384
 3756TIP3   OH211224   5.782   1.626   6.555
 3756TIP3    H111225   5.849   1.627   6.623
 3756TIP3    H211226   5.799   1.705   6.504
 3757TIP3   OH211227   1.847   6.896   0.937
 3757TIP3    H111228   1.854   6.990   0.919
 3757TIP3    H211229   1.894   6.884   1.020
 3758TIP3   OH211230   8.155   5.723   1.727
 3758TIP3    H111231   8.104   5.784   1.673
 3758TIP3    H211232   8.239   5.767   1.742
 3759TIP3   OH211233   7.871   5.791   5.970
 3759TIP3    H111234   7.781   5.759   5.973
 3759TIP3    H211235   7.919   5.731   6.028
 3760TIP3   OH211236   6.962   6.054   4.299
 3760TIP3    H111237   6.894   5.988   4.283
 3760TIP3    H211238   6.937   6.095   4.382
 3761TIP3   OH211239   7.589   7.202   0.649
 3761TIP3    H111240   7.588   7.296   0.630
 3761TIP3    H211241   7.641   7.194   0.729
 3762TIP3   OH211242   5.879   7.274   4.995
 3762TIP3    H111243   5.817   7.306   4.930
 3762TIP3    H211244   5.838   7.195   5.031
 3763TIP3   OH211245   5.852   0.074   2.145
 3763TIP3    H111246   5.805   0.043   2.222
 3763TIP3    H211247   5.944   0.078   2.172
 3764TIP3   OH211248   6.914   1.322   0.297
 3764TIP3    H111249   7.000   1.335   0.336
 3764TIP3    H211250   6.883   1.239   0.332
 3765TIP3   OH211251   6.185   0.681   4.561
 3765TIP3    H111252   6.104   0.732   4.566
 3765TIP3    H211253   6.241   0.731   4.503
 3766TIP3   OH211254   6.477   1.307   2.258
 3766TIP3    H111255   6.536   1.243   2.216
 3766TIP3    H211256   6.511   1.392   2.229
 3767TIP3   OH211257   8.181   1.436   3.028
 3767TIP3    H111258   8.220   1.349   3.026
 3767TIP3    H211259   8.158   1.450   3.120
 3768TIP3   OH211260   4.292   6.380   1.277
 3768TIP3    H111261   4.262   6.388   1.368
 3768TIP3    H211262   4.387   6.376   1.283
 3769TIP3   OH211263   3.396   5.153   0.078
 3769TIP3    H111264   3.470   5.105   0.116
 3769TIP3    H211265   3.338   5.171   0.152
 3770TIP3   OH211266   0.545   2.537   3.882
 3770TIP3    H111267   0.486   2.560   3.954
 3770TIP3    H211268   0.601   2.469   3.919
 3771TIP3   OH211269   4.406   0.072   3.796
 3771TIP3    H111270   4.326   0.069   3.745
 3771TIP3    H211271   4.404   0.157   3.840
 3772TIP3   OH211272   1.238   2.079   5.617
 3772TIP3    H111273   1.307   2.091   5.552
 3772TIP3    H211274   1.172   2.145   5.594
 3773TIP3   OH211275   7.490   4.446   5.066
 3773TIP3    H111276   7.407   4.433   5.020
 3773TIP3    H211277   7.473   4.418   5.155
 3774TIP3   OH211278  -0.013   4.846   5.628
 3774TIP3    H111279   0.071   4.874   5.590
 3774TIP3    H211280   0.009   4.771   5.682
 3775TIP3   OH211281   1.463   7.428   2.304
 3775TIP3    H111282   1.393   7.363   2.304
 3775TIP3    H211283   1.537   7.383   2.263
 3776TIP3   OH211284   7.912   4.702   1.319
 3776TIP3    H111285   7.947   4.669   1.236
 3776TIP3    H211286   7.966   4.660   1.386
 3777TIP3   OH211287   4.628   2.018   5.626
 3777TIP3    H111288   4.638   2.101   5.673
 3777TIP3    H211289   4.694   2.021   5.557
 3778TIP3   OH211290   4.575   7.805   1.916
 3778TIP3    H111291   4.638   7.733   1.919
 3778TIP3    H211292   4.629   7.883   1.904
 3779TIP3   OH211293   3.570   6.714   2.396
 3779TIP3    H111294   3.651   6.706   2.447
 3779TIP3    H211295   3.530   6.628   2.400
 3780TIP3   OH211296   5.628   6.771   6.217
 3780TIP3    H111297   5.700   6.791   6.277
 3780TIP3    H211298   5.549   6.773   6.272
 3781TIP3   OH211299   7.903   3.850   3.176
 3781TIP3    H111300   7.814   3.842   3.142
 3781TIP3    H211301   7.954   3.885   3.103
 3782TIP3   OH211302   5.363   3.086   4.250
 3782TIP3    H111303   5.432   3.111   4.189
 3782TIP3    H211304   5.404   3.025   4.310
 3783TIP3   OH211305   2.107   5.823   0.802
 3783TIP3    H111306   2.091   5.891   0.868
 3783TIP3    H211307   2.152   5.869   0.732
 3784TIP3   OH211308   3.782   7.740   4.022
 3784TIP3    H111309   3.698   7.760   3.982
 3784TIP3    H211310   3.767   7.658   4.069
 3785TIP3   OH211311   6.001   4.675   0.414
 3785TIP3    H111312   6.004   4.709   0.325
 3785TIP3    H211313   6.042   4.744   0.467
 3786TIP3   OH211314   7.655   3.124   6.531
 3786TIP3    H111315   7.585   3.109   6.595
 3786TIP3    H211316   7.667   3.039   6.488
 3787TIP3   OH211317   3.618   2.817   6.175
 3787TIP3    H111318   3.646   2.725   6.181
 3787TIP3    H211319   3.607   2.832   6.081
 3788TIP3   OH211320   4.269   0.052   0.088
 3788TIP3    H111321   4.224   0.098   0.159
 3788TIP3    H211322   4.338   0.002   0.132
 3789TIP3   OH211323   7.709   4.993   3.673
 3789TIP3    H111324   7.670   4.958   3.753
 3789TIP3    H211325   7.795   5.024   3.700
 3790TIP3   OH211326   6.113   6.053   5.539
 3790TIP3    H111327   6.054   6.013   5.602
 3790TIP3    H211328   6.168   6.111   5.591
 3791TIP3   OH211329   4.572   7.262   2.539
 3791TIP3    H111330   4.551   7.355   2.526
 3791TIP3    H211331   4.628   7.261   2.617
 3792TIP3   OH211332   7.616   6.320   3.988
 3792TIP3    H111333   7.690   6.360   3.943
 3792TIP3    H211334   7.604   6.372   4.067
 3793TIP3   OH211335   2.259   3.991   5.127
 3793TIP3    H111336   2.196   3.977   5.199
 3793TIP3    H211337   2.326   4.048   5.165
 3794TIP3   OH211338   3.247   4.316   2.262
 3794TIP3    H111339   3.243   4.407   2.292
 3794TIP3    H211340   3.220   4.265   2.338
 3795TIP3   OH211341   5.048   1.741   2.828
 3795TIP3    H111342   5.066   1.647   2.835
 3795TIP3    H211343   5.134   1.780   2.810
 3796TIP3   OH211344   1.194   5.535   0.740
 3796TIP3    H111345   1.192   5.479   0.817
 3796TIP3    H211346   1.208   5.476   0.667
 3797TIP3   OH211347   0.595   4.717   3.236
 3797TIP3    H111348   0.664   4.728   3.301
 3797TIP3    H211349   0.522   4.677   3.284
 3798TIP3   OH211350   5.168   5.135   1.903
 3798TIP3    H111351   5.138   5.045   1.893
 3798TIP3    H211352   5.119   5.169   1.978
 3799TIP3   OH211353   0.394   6.386   5.456
 3799TIP3    H111354   0.390   6.422   5.545
 3799TIP3    H211355   0.455   6.313   5.463
 3800TIP3   OH211356   4.222   7.378   3.898
 3800TIP3    H111357   4.198   7.466   3.869
 3800TIP3    H211358   4.296   7.354   3.842
 3801TIP3   OH211359   1.643   6.699   0.925
 3801TIP3    H111360   1.610   6.719   1.012
 3801TIP3    H211361   1.721   6.754   0.916
 3802TIP3   OH211362   2.735   3.635   1.975
 3802TIP3    H111363   2.825   3.637   1.942
 3802TIP3    H211364   2.733   3.558   2.032
 3803TIP3   OH211365   0.463   7.331   0.011
 3803TIP3    H111366   0.538   7.386   0.034
 3803TIP3    H211367   0.481   7.247   0.054
 3804TIP3   OH211368   4.046   4.881   3.046
 3804TIP3    H111369   4.114   4.825   3.010
 3804TIP3    H211370   4.029   4.945   2.977
 3805TIP3   OH211371   5.940   5.309   1.549
 3805TIP3    H111372   5.978   5.222   1.543
 3805TIP3    H211373   5.956   5.349   1.463
 3806TIP3   OH211374   4.388   3.502   6.672
 3806TIP3    H111375   4.440   3.571   6.713
 3806TIP3    H211376   4.385   3.432   6.737
 3807TIP3   OH211377   1.150   2.863   5.334
 3807TIP3    H111378   1.167   2.852   5.427
 3807TIP3    H211379   1.064   2.903   5.330
 3808TIP3   OH211380   4.081   5.082   0.023
 3808TIP3    H111381   4.009   5.077   0.086
 3808TIP3    H211382   4.087   5.176   0.001
 3809TIP3   OH211383   7.994   6.322   5.849
 3809TIP3    H111384   8.021   6.329   5.941
 3809TIP3    H211385   7.925   6.256   5.849
 3810TIP3   OH211386   2.561   1.063   2.477
 3810TIP3    H111387   2.467   1.045   2.469
 3810TIP3    H211388   2.572   1.151   2.443
 3811TIP3   OH211389   5.914   4.812   5.525
 3811TIP3    H111390   5.822   4.787   5.515
 3811TIP3    H211391   5.958   4.773   5.450
 3812TIP3   OH211392   7.972   6.468   3.474
 3812TIP3    H111393   8.013   6.554   3.486
 3812TIP3    H211394   8.045   6.407   3.470
 3813TIP3   OH211395   2.382   5.813   4.515
 3813TIP3    H111396   2.287   5.817   4.528
 3813TIP3    H211397   2.417   5.872   4.581
 3814TIP3   OH211398   4.870   5.217   2.496
 3814TIP3    H111399   4.923   5.279   2.447
 3814TIP3    H211400   4.898   5.131   2.464
 3815TIP3   OH211401   4.083   2.861   4.574
 3815TIP3    H111402   4.011   2.850   4.636
 3815TIP3    H211403   4.090   2.777   4.530
 3816TIP3   OH211404   1.534   4.532   3.433
 3816TIP3    H111405   1.469   4.576   3.379
 3816TIP3    H211406   1.551   4.449   3.388
 3817TIP3   OH211407   0.657   7.829   1.749
 3817TIP3    H111408   0.580   7.859   1.796
 3817TIP3    H211409   0.668   7.738   1.776
 3818TIP3   OH211410   7.163   3.144   4.685
 3818TIP3    H111411   7.225   3.168   4.616
 3818TIP3    H211412   7.085   3.115   4.638
 3819TIP3   OH211413   3.023   4.341   2.796
 3819TIP3    H111414   2.976   4.275   2.846
 3819TIP3    H211415   2.963   4.416   2.793
 3820TIP3   OH211416   0.122   4.076   3.819
 3820TIP3    H111417   0.083   3.988   3.820
 3820TIP3    H211418   0.048   4.134   3.802
 3821TIP3   OH211419   7.536   3.520   6.446
 3821TIP3    H111420   7.521   3.484   6.533
 3821TIP3    H211421   7.455   3.503   6.399
 3822TIP3   OH211422   7.573   1.256   0.863
 3822TIP3    H111423   7.545   1.263   0.954
 3822TIP3    H211424   7.521   1.185   0.827
 3823TIP3   OH211425   3.237   3.198   1.676
 3823TIP3    H111426   3.258   3.120   1.728
 3823TIP3    H211427   3.233   3.166   1.586
 3824TIP3   OH211428   8.023   1.623   3.996
 3824TIP3    H111429   8.004   1.642   4.088
 3824TIP3    H211430   8.093   1.558   4.000
 3825TIP3   OH211431   1.543   5.598   1.213
 3825TIP3    H111432   1.491   5.520   1.232
 3825TIP3    H211433   1.523   5.658   1.285
 3826TIP3   OH211434   4.002   6.482   3.485
 3826TIP3    H111435   4.060   6.418   3.443
 3826TIP3    H211436   4.051   6.510   3.563
 3827TIP3   OH211437   2.895   7.462   4.873
 3827TIP3    H111438   2.836   7.430   4.804
 3827TIP3    H211439   2.850   7.442   4.955
 3828TIP3   OH211440   3.354   1.018   1.175
 3828TIP3    H111441   3.427   0.960   1.194
 3828TIP3    H211442   3.295   0.965   1.121
 3829TIP3   OH211443   5.265   5.413   6.045
 3829TIP3    H111444   5.240   5.340   5.989
 3829TIP3    H211445   5.246   5.383   6.134
 3830TIP3   OH211446   2.366   7.652   5.222
 3830TIP3    H111447   2.424   7.577   5.238
 3830TIP3    H211448   2.409   7.700   5.151
 3831TIP3   OH211449   1.084   0.032   2.181
 3831TIP3    H111450   1.091   0.126   2.168
 3831TIP3    H211451   1.012   0.021   2.243
 3832TIP3   OH211452   1.013   2.284   5.543
 3832TIP3    H111453   0.937   2.317   5.593
 3832TIP3    H211454   1.005   2.326   5.458
 3833TIP3   OH211455   0.778   0.513   6.728
 3833TIP3    H111456   0.694   0.482   6.762
 3833TIP3    H211457   0.844   0.464   6.777
 3834TIP3   OH211458   0.782   4.775   3.062
 3834TIP3    H111459   0.710   4.733   3.108
 3834TIP3    H211460   0.838   4.811   3.132
 3835TIP3   OH211461   2.799   1.835   6.050
 3835TIP3    H111462   2.868   1.848   5.985
 3835TIP3    H211463   2.749   1.760   6.017
 3836TIP3   OH211464   0.095   4.662   3.840
 3836TIP3    H111465   0.080   4.749   3.879
 3836TIP3    H211466   0.139   4.613   3.909
 3837TIP3   OH211467   5.917   7.252   3.424
 3837TIP3    H111468   5.841   7.234   3.480
 3837TIP3    H211469   5.982   7.290   3.483
 3838TIP3   OH211470   7.771   5.337   2.823
 3838TIP3    H111471   7.737   5.418   2.862
 3838TIP3    H211472   7.694   5.280   2.817
 3839TIP3   OH211473   4.862   1.294   0.851
 3839TIP3    H111474   4.916   1.288   0.772
 3839TIP3    H211475   4.808   1.372   0.838
 3840TIP3   OH211476   0.100   5.377   4.052
 3840TIP3    H111477   0.072   5.467   4.034
 3840TIP3    H211478   0.161   5.358   3.980
 3841TIP3   OH211479   7.795   5.659   3.971
 3841TIP3    H111480   7.700   5.670   3.962
 3841TIP3    H211481   7.808   5.564   3.963
 3842TIP3   OH211482   1.954   4.388   5.686
 3842TIP3    H111483   1.922   4.452   5.623
 3842TIP3    H211484   2.044   4.370   5.658
 3843TIP3   OH211485   6.472   2.122   3.101
 3843TIP3    H111486   6.513   2.073   3.030
 3843TIP3    H211487   6.467   2.212   3.068
 3844TIP3   OH211488   4.702   3.895   6.658
 3844TIP3    H111489   4.678   3.842   6.582
 3844TIP3    H211490   4.788   3.862   6.683
 3845TIP3   OH211491   1.215   1.750   4.948
 3845TIP3    H111492   1.172   1.834   4.929
 3845TIP3    H211493   1.300   1.775   4.985
 3846TIP3   OH211494   6.522   2.866   6.023
 3846TIP3    H111495   6.602   2.849   5.974
 3846TIP3    H211496   6.552   2.875   6.114
 3847TIP3   OH211497   7.187   6.439   2.797
 3847TIP3    H111498   7.186   6.518   2.742
 3847TIP3    H211499   7.257   6.385   2.760
 3848TIP3   OH211500   2.163   0.886   2.787
 3848TIP3    H111501   2.211   0.959   2.825
 3848TIP3    H211502   2.113   0.925   2.715
 3849TIP3   OH211503   3.465   1.228   6.515
 3849TIP3    H111504   3.417   1.212   6.434
 3849TIP3    H211505   3.551   1.189   6.501
 3850TIP3   OH211506   5.692   2.264   4.970
 3850TIP3    H111507   5.732   2.210   5.038
 3850TIP3    H211508   5.598   2.254   4.983
 3851TIP3   OH211509   7.154   5.602   6.619
 3851TIP3    H111510   7.063   5.628   6.632
 3851TIP3    H211511   7.204   5.683   6.627
 3852TIP3   OH211512   5.150   4.300   2.794
 3852TIP3    H111513   5.216   4.302   2.724
 3852TIP3    H211514   5.071   4.266   2.751
 3853TIP3   OH211515   5.248   1.548   0.108
 3853TIP3    H111516   5.220   1.507   0.190
 3853TIP3    H211517   5.299   1.481   0.063
 3854TIP3   OH211518   2.263   2.204   3.742
 3854TIP3    H111519   2.246   2.268   3.811
 3854TIP3    H211520   2.189   2.213   3.682
 3855TIP3   OH211521   3.885   2.880   4.747
 3855TIP3    H111522   3.809   2.937   4.763
 3855TIP3    H211523   3.864   2.799   4.793
 3856TIP3   OH211524   4.858   3.872   2.441
 3856TIP3    H111525   4.944   3.897   2.407
 3856TIP3    H211526   4.798   3.939   2.407
 3857TIP3   OH211527   5.781   4.742   0.827
 3857TIP3    H111528   5.733   4.824   0.841
 3857TIP3    H211529   5.714   4.674   0.837
 3858TIP3   OH211530   4.692   5.808   1.202
 3858TIP3    H111531   4.780   5.834   1.176
 3858TIP3    H211532   4.698   5.793   1.296
 3859TIP3   OH211533   6.185   7.721   6.658
 3859TIP3    H111534   6.252   7.666   6.618
 3859TIP3    H211535   6.121   7.659   6.693
 3860TIP3   OH211536   7.941   2.250   1.845
 3860TIP3    H111537   8.037   2.251   1.845
 3860TIP3    H211538   7.917   2.308   1.773
 3861TIP3   OH211539   6.725   2.975   6.707
 3861TIP3    H111540   6.634   2.975   6.734
 3861TIP3    H211541   6.774   2.954   6.786
 3862TIP3   OH211542   5.460   6.126   3.913
 3862TIP3    H111543   5.550   6.157   3.921
 3862TIP3    H211544   5.415   6.160   3.991
 3863TIP3   OH211545   0.861   5.945   0.801
 3863TIP3    H111546   0.801   5.873   0.819
 3863TIP3    H211547   0.947   5.910   0.822
 3864TIP3   OH211548   4.256   2.436   5.987
 3864TIP3    H111549   4.217   2.394   5.911
 3864TIP3    H211550   4.309   2.507   5.951
 3865TIP3   OH211551   3.649   2.367   0.677
 3865TIP3    H111552   3.621   2.362   0.768
 3865TIP3    H211553   3.684   2.455   0.667
 3866TIP3   OH211554   2.729   6.123   2.752
 3866TIP3    H111555   2.821   6.128   2.776
 3866TIP3    H211556   2.683   6.110   2.834
 3867TIP3   OH211557   3.405   7.358   1.721
 3867TIP3    H111558   3.367   7.271   1.714
 3867TIP3    H211559   3.499   7.343   1.728
 3868TIP3   OH211560   0.475   1.630   3.432
 3868TIP3    H111561   0.404   1.597   3.377
 3868TIP3    H211562   0.522   1.692   3.377
 3869TIP3   OH211563   5.440   3.471   1.673
 3869TIP3    H111564   5.483   3.525   1.739
 3869TIP3    H211565   5.433   3.385   1.714
 3870TIP3   OH211566   7.453   3.786   4.118
 3870TIP3    H111567   7.500   3.704   4.105
 3870TIP3    H211568   7.518   3.846   4.155
 3871TIP3   OH211569   1.651   1.740   4.388
 3871TIP3    H111570   1.566   1.785   4.391
 3871TIP3    H211571   1.711   1.804   4.350
 3872TIP3   OH211572   0.543   7.224   2.812
 3872TIP3    H111573   0.583   7.262   2.891
 3872TIP3    H211574   0.494   7.297   2.773
 3873TIP3   OH211575   0.851   2.254   5.133
 3873TIP3    H111576   0.894   2.199   5.198
 3873TIP3    H211577   0.913   2.324   5.117
 3874TIP3   OH211578   2.581   5.206   2.009
 3874TIP3    H111579   2.619   5.294   2.009
 3874TIP3    H211580   2.488   5.220   1.989
 3875TIP3   OH211581   0.653   2.545   5.835
 3875TIP3    H111582   0.673   2.624   5.785
 3875TIP3    H211583   0.737   2.516   5.870
 3876TIP3   OH211584   5.868   0.759   6.468
 3876TIP3    H111585   5.815   0.748   6.389
 3876TIP3    H211586   5.812   0.729   6.539
 3877TIP3   OH211587   4.428   5.523   0.925
 3877TIP3    H111588   4.496   5.470   0.966
 3877TIP3    H211589   4.364   5.460   0.894
 3878TIP3   OH211590   5.809   1.489   4.443
 3878TIP3    H111591   5.715   1.508   4.442
 3878TIP3    H211592   5.851   1.575   4.445
 3879TIP3   OH211593   0.086   4.034   0.970
 3879TIP3    H111594   0.091   4.106   1.033
 3879TIP3    H211595   0.112   4.074   0.887
 3880TIP3   OH211596   7.321   2.485   4.657
 3880TIP3    H111597   7.265   2.530   4.721
 3880TIP3    H211598   7.268   2.413   4.624
 3881TIP3   OH211599   7.695   2.863   6.378
 3881TIP3    H111600   7.710   2.783   6.328
 3881TIP3    H211601   7.644   2.919   6.320
 3882TIP3   OH211602   2.084   0.775   4.633
 3882TIP3    H111603   2.043   0.710   4.690
 3882TIP3    H211604   2.085   0.734   4.546
 3883TIP3   OH211605   1.390   1.179   2.469
 3883TIP3    H111606   1.448   1.233   2.522
 3883TIP3    H211607   1.431   1.177   2.382
 3884TIP3   OH211608   0.219   7.155   6.436
 3884TIP3    H111609   0.199   7.150   6.343
 3884TIP3    H211610   0.149   7.209   6.473
 3885TIP3   OH211611   4.070   1.790   4.964
 3885TIP3    H111612   4.023   1.707   4.973
 3885TIP3    H211613   4.002   1.853   4.941
 3886TIP3   OH211614   4.558   0.170   6.733
 3886TIP3    H111615   4.536   0.127   6.650
 3886TIP3    H211616   4.515   0.117   6.800
 3887TIP3   OH211617   1.943   7.027   5.971
 3887TIP3    H111618   1.883   7.083   6.020
 3887TIP3    H211619   2.029   7.045   6.010
 3888TIP3   OH211620   6.980   4.609   5.674
 3888TIP3    H111621   6.899   4.579   5.716
 3888TIP3    H211622   6.950   4.665   5.602
 3889TIP3   OH211623   7.559   7.315   0.059
 3889TIP3    H111624   7.630   7.352   0.112
 3889TIP3    H211625   7.594   7.312  -0.030
 3890TIP3   OH211626   0.133   7.796   3.148
 3890TIP3    H111627   0.079   7.760   3.078
 3890TIP3    H211628   0.069   7.824   3.215
 3891TIP3   OH211629   0.297   7.720   3.690
 3891TIP3    H111630   0.358   7.664   3.737
 3891TIP3    H211631   0.282   7.675   3.607
 3892TIP3   OH211632   3.750   3.382   3.483
 3892TIP3    H111633   3.682   3.322   3.513
 3892TIP3    H211634   3.720   3.468   3.513
 3893TIP3   OH211635   1.804   3.992   6.750
 3893TIP3    H111636   1.763   3.922   6.802
 3893TIP3    H211637   1.866   3.946   6.693
 3894TIP3   OH211638   1.246   5.634   3.504
 3894TIP3    H111639   1.295   5.583   3.569
 3894TIP3    H211640   1.154   5.624   3.530
 3895TIP3   OH211641   1.767   4.551   2.420
 3895TIP3    H111642   1.795   4.572   2.509
 3895TIP3    H211643   1.801   4.622   2.366
 3896TIP3   OH211644   7.158   6.628   3.390
 3896TIP3    H111645   7.142   6.584   3.306
 3896TIP3    H211646   7.180   6.556   3.450
 3897TIP3   OH211647   2.606   2.486   3.453
 3897TIP3    H111648   2.654   2.568   3.445
 3897TIP3    H211649   2.638   2.432   3.380
 3898TIP3   OH211650   6.100   6.519   0.464
 3898TIP3    H111651   6.038   6.537   0.394
 3898TIP3    H211652   6.098   6.424   0.473
 3899TIP3   OH211653   7.671   5.287   4.417
 3899TIP3    H111654   7.696   5.289   4.325
 3899TIP3    H211655   7.587   5.240   4.418
 3900TIP3   OH211656   4.186   3.420   4.898
 3900TIP3    H111657   4.248   3.378   4.957
 3900TIP3    H211658   4.155   3.497   4.947
 3901TIP3   OH211659   0.375   0.743   6.769
 3901TIP3    H111660   0.368   0.719   6.677
 3901TIP3    H211661   0.438   0.816   6.771
 3902TIP3   OH211662   0.602   1.304   1.713
 3902TIP3    H111663   0.610   1.209   1.715
 3902TIP3    H211664   0.687   1.335   1.684
 3903TIP3   OH211665   7.214   2.529   2.841
 3903TIP3    H111666   7.131   2.568   2.813
 3903TIP3    H211667   7.266   2.604   2.870
 3904TIP3   OH211668   0.435   3.291   0.512
 3904TIP3    H111669   0.363   3.279   0.574
 3904TIP3    H211670   0.514   3.281   0.565
 3905TIP3   OH211671   8.161   1.506   4.799
 3905TIP3    H111672   8.109   1.493   4.720
 3905TIP3    H211673   8.184   1.418   4.827
 3906TIP3   OH211674   6.519   3.985   6.453
 3906TIP3    H111675   6.461   3.910   6.464
 3906TIP3    H211676   6.607   3.946   6.452
 3907TIP3   OH211677   5.242   6.771   0.120
 3907TIP3    H111678   5.233   6.760   0.025
 3907TIP3    H211679   5.228   6.865   0.134
 3908TIP3   OH211680   4.077   4.076   0.960
 3908TIP3    H111681   3.988   4.054   0.989
 3908TIP3    H211682   4.072   4.072   0.865
 3909TIP3   OH211683   2.280   5.694   4.194
 3909TIP3    H111684   2.366   5.653   4.194
 3909TIP3    H211685   2.281   5.752   4.118
 3910TIP3   OH211686   1.312   1.013   5.426
 3910TIP3    H111687   1.261   1.025   5.506
 3910TIP3    H211688   1.276   1.076   5.364
 3911TIP3   OH211689   4.106   4.629   5.241
 3911TIP3    H111690   4.094   4.592   5.153
 3911TIP3    H211691   4.196   4.662   5.240
 3912TIP3   OH211692   7.552   2.999   6.188
 3912TIP3    H111693   7.460   2.975   6.197
 3912TIP3    H211694   7.553   3.066   6.120
 3913TIP3   OH211695   5.694   6.336   2.900
 3913TIP3    H111696   5.644   6.284   2.837
 3913TIP3    H211697   5.631   6.397   2.938
 3914TIP3   OH211698   0.514   1.855   3.987
 3914TIP3    H111699   0.538   1.777   3.937
 3914TIP3    H211700   0.533   1.928   3.929
 3915TIP3   OH211701   7.862   2.288   2.438
 3915TIP3    H111702   7.770   2.315   2.436
 3915TIP3    H211703   7.862   2.200   2.402
 3916TIP3   OH211704   7.824   5.898   3.781
 3916TIP3    H111705   7.895   5.909   3.718
 3916TIP3    H211706   7.833   5.807   3.811
 3917TIP3   OH211707   4.893   5.675   5.732
 3917TIP3    H111708   4.821   5.613   5.748
 3917TIP3    H211709   4.923   5.655   5.643
 3918TIP3   OH211710   5.820   7.513   1.634
 3918TIP3    H111711   5.834   7.608   1.634
 3918TIP3    H211712   5.754   7.498   1.701
 3919TIP3   OH211713   1.469   2.257   2.689
 3919TIP3    H111714   1.490   2.338   2.643
 3919TIP3    H211715   1.490   2.275   2.781
 3920TIP3   OH211716   8.139   4.692   2.695
 3920TIP3    H111717   8.070   4.756   2.712
 3920TIP3    H211718   8.220   4.738   2.718
 3921TIP3   OH211719   3.748   3.474   5.375
 3921TIP3    H111720   3.702   3.531   5.437
 3921TIP3    H211721   3.678   3.427   5.330
 3922TIP3   OH211722   3.484   6.910   4.363
 3922TIP3    H111723   3.496   6.944   4.452
 3922TIP3    H211724   3.573   6.904   4.328
 3923TIP3   OH211725   3.807   4.295   1.371
 3923TIP3    H111726   3.779   4.303   1.280
 3923TIP3    H211727   3.804   4.385   1.404
 3924TIP3   OH211728   5.250   4.734   1.186
 3924TIP3    H111729   5.202   4.674   1.129
 3924TIP3    H211730   5.342   4.723   1.161
 3925TIP3   OH211731   2.586   6.739   0.851
 3925TIP3    H111732   2.594   6.644   0.862
 3925TIP3    H211733   2.621   6.776   0.932
 3926TIP3   OH211734   2.377   1.157   4.486
 3926TIP3    H111735   2.335   1.234   4.449
 3926TIP3    H211736   2.443   1.193   4.545
 3927TIP3   OH211737   1.602   1.828   4.059
 3927TIP3    H111738   1.548   1.822   4.138
 3927TIP3    H211739   1.642   1.742   4.050
 3928TIP3   OH211740   5.152   1.762   6.047
 3928TIP3    H111741   5.177   1.789   6.135
 3928TIP3    H211742   5.076   1.817   6.026
 3929TIP3   OH211743   5.560   6.687   5.610
 3929TIP3    H111744   5.567   6.673   5.516
 3929TIP3    H211745   5.482   6.741   5.621
 3930TIP3   OH211746   3.658   2.992   4.891
 3930TIP3    H111747   3.579   2.939   4.906
 3930TIP3    H211748   3.719   2.962   4.958
 3931TIP3   OH211749   4.127   6.088   2.050
 3931TIP3    H111750   4.221   6.109   2.053
 3931TIP3    H211751   4.123   6.007   1.999
 3932TIP3   OH211752   3.119   6.538   1.747
 3932TIP3    H111753   3.138   6.632   1.754
 3932TIP3    H211754   3.163   6.500   1.823
 3933TIP3   OH211755   2.259   3.497   5.100
 3933TIP3    H111756   2.243   3.587   5.072
 3933TIP3    H211757   2.263   3.447   5.019
 3934TIP3   OH211758   6.349   5.821   5.543
 3934TIP3    H111759   6.312   5.733   5.547
 3934TIP3    H211760   6.278   5.876   5.510
 3935TIP3   OH211761   0.057   3.205   3.902
 3935TIP3    H111762   0.085   3.117   3.924
 3935TIP3    H211763  -0.037   3.207   3.920
 3936TIP3   OH211764   1.828   6.319   5.032
 3936TIP3    H111765   1.836   6.265   5.111
 3936TIP3    H211766   1.898   6.384   5.039
 3937TIP3   OH211767   6.645   0.094   5.321
 3937TIP3    H111768   6.662   0.178   5.279
 3937TIP3    H211769   6.556   0.071   5.295
 3938TIP3   OH211770   2.157   2.437   3.042
 3938TIP3    H111771   2.123   2.483   2.964
 3938TIP3    H211772   2.241   2.400   3.013
 3939TIP3   OH211773   5.303   6.005   2.917
 3939TIP3    H111774   5.339   5.919   2.898
 3939TIP3    H211775   5.308   6.012   3.013
 3940TIP3   OH211776   4.500   4.543   1.110
 3940TIP3    H111777   4.492   4.447   1.115
 3940TIP3    H211778   4.523   4.569   1.199
 3941TIP3   OH211779   5.890   7.445   0.575
 3941TIP3    H111780   5.812   7.478   0.530
 3941TIP3    H211781   5.927   7.522   0.618
 3942TIP3   OH211782   4.094   2.021   1.278
 3942TIP3    H111783   4.135   1.955   1.222
 3942TIP3    H211784   4.164   2.085   1.294
 3943TIP3   OH211785   6.062   2.702   1.720
 3943TIP3    H111786   6.119   2.629   1.699
 3943TIP3    H211787   6.020   2.725   1.637
 3944TIP3   OH211788   4.197   5.200   5.427
 3944TIP3    H111789   4.201   5.259   5.502
 3944TIP3    H211790   4.135   5.132   5.452
 3945TIP3   OH211791   3.259   1.663   5.142
 3945TIP3    H111792   3.300   1.685   5.058
 3945TIP3    H211793   3.182   1.612   5.117
 3946TIP3   OH211794   3.700   5.019   3.405
 3946TIP3    H111795   3.795   5.014   3.410
 3946TIP3    H211796   3.680   5.110   3.427
 3947TIP3   OH211797   4.222   7.576   1.299
 3947TIP3    H111798   4.222   7.593   1.204
 3947TIP3    H211799   4.129   7.563   1.321
 3948TIP3   OH211800   3.122   2.747   0.639
 3948TIP3    H111801   3.135   2.719   0.729
 3948TIP3    H211802   3.063   2.822   0.646
 3949TIP3   OH211803   3.859   2.971   3.172
 3949TIP3    H111804   3.862   3.032   3.246
 3949TIP3    H211805   3.790   2.909   3.196
 3950TIP3   OH211806   5.088   0.822   6.079
 3950TIP3    H111807   4.996   0.846   6.076
 3950TIP3    H211808   5.130   0.878   6.014
 3951TIP3   OH211809   2.010   5.621   5.658
 3951TIP3    H111810   1.933   5.615   5.602
 3951TIP3    H211811   2.038   5.530   5.670
 3952TIP3   OH211812   8.177   6.757   1.079
 3952TIP3    H111813   8.135   6.722   1.158
 3952TIP3    H211814   8.154   6.695   1.010
 3953TIP3   OH211815   7.684   1.666   6.284
 3953TIP3    H111816   7.653   1.600   6.221
 3953TIP3    H211817   7.659   1.630   6.369
 3954TIP3   OH211818   3.622   4.190   5.065
 3954TIP3    H111819   3.708   4.152   5.081
 3954TIP3    H211820   3.614   4.192   4.970
 3955TIP3   OH211821   6.356   2.688   1.301
 3955TIP3    H111822   6.347   2.771   1.347
 3955TIP3    H211823   6.424   2.641   1.348
 3956TIP3   OH211824   2.431   1.215   6.471
 3956TIP3    H111825   2.410   1.184   6.559
 3956TIP3    H211826   2.354   1.266   6.445
 3957TIP3   OH211827   8.192   1.207   1.374
 3957TIP3    H111828   8.102   1.234   1.356
 3957TIP3    H211829   8.244   1.254   1.309
 3958TIP3   OH211830   5.625   1.412   4.035
 3958TIP3    H111831   5.593   1.391   4.124
 3958TIP3    H211832   5.701   1.355   4.023
 3959TIP3   OH211833   2.600   7.737   0.045
 3959TIP3    H111834   2.628   7.789   0.120
 3959TIP3    H211835   2.517   7.698   0.073
 3960TIP3   OH211836   5.238   5.885   3.930
 3960TIP3    H111837   5.168   5.951   3.934
 3960TIP3    H211838   5.290   5.900   4.009
 3961TIP3   OH211839   1.862   4.854   4.608
 3961TIP3    H111840   1.935   4.865   4.668
 3961TIP3    H211841   1.898   4.873   4.522
 3962TIP3   OH211842   7.840   0.072   3.223
 3962TIP3    H111843   7.934   0.066   3.242
 3962TIP3    H211844   7.835   0.128   3.146
 3963TIP3   OH211845   7.338   2.618   6.274
 3963TIP3    H111846   7.404   2.678   6.239
 3963TIP3    H211847   7.382   2.574   6.347
 3964TIP3   OH211848   2.305   0.784   6.349
 3964TIP3    H111849   2.243   0.727   6.393
 3964TIP3    H211850   2.356   0.824   6.420
 3965TIP3   OH211851   6.210   7.124   6.339
 3965TIP3    H111852   6.224   7.144   6.247
 3965TIP3    H211853   6.258   7.042   6.353
 3966TIP3   OH211854   7.481   5.710   2.509
 3966TIP3    H111855   7.488   5.639   2.573
 3966TIP3    H211856   7.516   5.673   2.428
 3967TIP3   OH211857   4.986   5.414   5.934
 3967TIP3    H111858   4.916   5.415   5.869
 3967TIP3    H211859   4.944   5.382   6.014
 3968TIP3   OH211860   3.778   2.830   3.836
 3968TIP3    H111861   3.748   2.914   3.870
 3968TIP3    H211862   3.872   2.828   3.855
 3969TIP3   OH211863   6.599   5.829   2.908
 3969TIP3    H111864   6.677   5.788   2.947
 3969TIP3    H211865   6.632   5.907   2.865
 3970TIP3   OH211866   3.699   3.850   6.288
 3970TIP3    H111867   3.730   3.839   6.377
 3970TIP3    H211868   3.607   3.822   6.290
 3971TIP3   OH211869   2.425   2.702   1.782
 3971TIP3    H111870   2.347   2.731   1.829
 3971TIP3    H211871   2.459   2.629   1.833
 3972TIP3   OH211872   7.996   7.263   6.067
 3972TIP3    H111873   7.930   7.318   6.025
 3972TIP3    H211874   7.966   7.254   6.157
 3973TIP3   OH211875   2.377   1.334   3.518
 3973TIP3    H111876   2.306   1.379   3.564
 3973TIP3    H211877   2.446   1.326   3.584
 3974TIP3   OH211878   2.803   0.810   5.325
 3974TIP3    H111879   2.823   0.740   5.387
 3974TIP3    H211880   2.707   0.819   5.330
 3975TIP3   OH211881   4.419   7.771   3.778
 3975TIP3    H111882   4.377   7.823   3.708
 3975TIP3    H211883   4.456   7.695   3.733
 3976TIP3   OH211884   3.755   6.474   3.089
 3976TIP3    H111885   3.849   6.489   3.101
 3976TIP3    H211886   3.714   6.512   3.167
 3977TIP3   OH211887   5.125   0.595   5.417
 3977TIP3    H111888   5.071   0.557   5.348
 3977TIP3    H211889   5.078   0.674   5.444
 3978TIP3   OH211890   2.065   3.686   1.049
 3978TIP3    H111891   2.124   3.721   1.116
 3978TIP3    H211892   2.099   3.598   1.032
 3979TIP3   OH211893   1.316   4.349   6.520
 3979TIP3    H111894   1.274   4.263   6.519
 3979TIP3    H211895   1.247   4.410   6.495
 3980TIP3   OH211896   3.326   1.726   0.023
 3980TIP3    H111897   3.364   1.643  -0.007
 3980TIP3    H211898   3.266   1.752  -0.047
 3981TIP3   OH211899   0.622   4.173   2.867
 3981TIP3    H111900   0.539   4.171   2.819
 3981TIP3    H211901   0.602   4.220   2.947
 3982TIP3   OH211902   3.992   0.361   2.075
 3982TIP3    H111903   3.969   0.339   1.984
 3982TIP3    H211904   3.975   0.281   2.124
 3983TIP3   OH211905   3.898   3.610   0.830
 3983TIP3    H111906   3.898   3.691   0.779
 3983TIP3    H211907   3.921   3.637   0.919
 3984TIP3   OH211908   5.088   3.409   3.378
 3984TIP3    H111909   5.128   3.339   3.325
 3984TIP3    H211910   4.997   3.412   3.349
 3985TIP3   OH211911   7.831   1.580   1.831
 3985TIP3    H111912   7.809   1.487   1.836
 3985TIP3    H211913   7.846   1.597   1.738
 3986TIP3   OH211914   5.382   7.291   1.157
 3986TIP3    H111915   5.428   7.207   1.156
 3986TIP3    H211916   5.353   7.302   1.248
 3987TIP3   OH211917   3.965   1.452   5.755
 3987TIP3    H111918   3.910   1.409   5.821
 3987TIP3    H211919   3.953   1.400   5.676
 3988TIP3   OH211920   5.810   4.003   2.551
 3988TIP3    H111921   5.783   4.012   2.460
 3988TIP3    H211922   5.885   4.061   2.560
 3989TIP3   OH211923   7.829   5.891   0.661
 3989TIP3    H111924   7.806   5.967   0.608
 3989TIP3    H211925   7.832   5.925   0.751
 3990TIP3   OH211926   3.899   7.613   1.088
 3990TIP3    H111927   3.922   7.703   1.112
 3990TIP3    H211928   3.813   7.621   1.046
 3991TIP3   OH211929   8.198   5.114   3.969
 3991TIP3    H111930   8.213   5.071   3.885
 3991TIP3    H211931   8.279   5.100   4.018
 3992TIP3   OH211932   6.610   3.658   4.662
 3992TIP3    H111933   6.654   3.680   4.580
 3992TIP3    H211934   6.540   3.723   4.670
 3993TIP3   OH211935   7.603   5.418   1.464
 3993TIP3    H111936   7.626   5.407   1.556
 3993TIP3    H211937   7.603   5.329   1.429
 3994TIP3   OH211938   3.467   5.142   6.608
 3994TIP3    H111939   3.399   5.203   6.578
 3994TIP3    H211940   3.517   5.123   6.528
 3995TIP3   OH211941   1.251   6.971   4.125
 3995TIP3    H111942   1.289   7.049   4.083
 3995TIP3    H211943   1.325   6.931   4.171
 3996TIP3   OH211944   1.585   1.906   2.319
 3996TIP3    H111945   1.493   1.920   2.342
 3996TIP3    H211946   1.585   1.893   2.224
 3997TIP3   OH211947   3.129   6.298   4.330
 3997TIP3    H111948   3.057   6.282   4.268
 3997TIP3    H211949   3.087   6.296   4.416
 3998TIP3   OH211950   7.938   5.379   1.396
 3998TIP3    H111951   7.883   5.452   1.422
 3998TIP3    H211952   7.879   5.303   1.395
 3999TIP3   OH211953   1.792   4.570   2.689
 3999TIP3    H111954   1.720   4.512   2.715
 3999TIP3    H211955   1.775   4.652   2.735
 4000TIP3   OH211956   0.480   7.717   0.437
 4000TIP3    H111957   0.518   7.631   0.423
 4000TIP3    H211958   0.537   7.758   0.503
 4001TIP3   OH211959   5.542   7.204   6.129
 4001TIP3    H111960   5.469   7.152   6.095
 4001TIP3    H211961   5.515   7.295   6.113
 4002TIP3   OH211962   6.234   3.496   4.375
 4002TIP3    H111963   6.215   3.441   4.299
 4002TIP3    H211964   6.310   3.548   4.349
 4003TIP3   OH211965   0.449   1.559   0.840
 4003TIP3    H111966   0.398   1.505   0.780
 4003TIP3    H211967   0.436   1.519   0.926
 4004TIP3   OH211968   5.716   3.671   3.529
 4004TIP3    H111969   5.639   3.717   3.563
 4004TIP3    H211970   5.704   3.671   3.434
 4005TIP3   OH211971   4.810   1.821   0.982
 4005TIP3    H111972   4.872   1.774   0.926
 4005TIP3    H211973   4.732   1.832   0.928
 4006TIP3   OH211974   1.494   2.433   2.263
 4006TIP3    H111975   1.468   2.382   2.186
 4006TIP3    H211976   1.549   2.502   2.228
 4007TIP3   OH211977   8.278   0.376   0.605
 4007TIP3    H111978   8.318   0.461   0.620
 4007TIP3    H211979   8.326   0.316   0.662
 4008TIP3   OH211980   2.815   0.380   5.314
 4008TIP3    H111981   2.789   0.457   5.365
 4008TIP3    H211982   2.788   0.305   5.368
 4009TIP3   OH211983   2.906   6.246   3.872
 4009TIP3    H111984   2.924   6.340   3.865
 4009TIP3    H211985   2.970   6.205   3.815
 4010TIP3   OH211986   3.849   2.119   0.361
 4010TIP3    H111987   3.812   2.121   0.449
 4010TIP3    H211988   3.806   2.192   0.316
 4011TIP3   OH211989   7.119   1.089   6.833
 4011TIP3    H111990   7.049   1.046   6.784
 4011TIP3    H211991   7.190   1.025   6.835
 4012TIP3   OH211992   4.431   1.962   4.208
 4012TIP3    H111993   4.377   1.955   4.287
 4012TIP3    H211994   4.393   1.897   4.148
 4013TIP3   OH211995   1.966   0.401   0.085
 4013TIP3    H111996   1.988   0.492   0.063
 4013TIP3    H211997   1.884   0.408   0.134
 4014TIP3   OH211998   3.466   6.325   4.700
 4014TIP3    H111999   3.504   6.277   4.625
 4014TIP3    H212000   3.405   6.387   4.660
 4015TIP3   OH212001   6.920   1.990   1.951
 4015TIP3    H112002   6.983   1.918   1.946
 4015TIP3    H212003   6.920   2.029   1.864
 4016TIP3   OH212004   0.084   2.513   1.098
 4016TIP3    H112005   0.083   2.608   1.108
 4016TIP3    H212006  -0.007   2.486   1.111
 4017TIP3   OH212007   8.019   5.820   5.490
 4017TIP3    H112008   8.054   5.905   5.517
 4017TIP3    H212009   7.925   5.828   5.503
 4018TIP3   OH212010   6.840   6.880   5.634
 4018TIP3    H112011   6.775   6.823   5.592
 4018TIP3    H212012   6.829   6.865   5.727
 4019TIP3   OH212013   0.870   0.346   1.763
 4019TIP3    H112014   0.786   0.318   1.800
 4019TIP3    H212015   0.883   0.434   1.798
 4020TIP3   OH212016   4.127   0.269   4.082
 4020TIP3    H112017   4.218   0.291   4.062
 4020TIP3    H212018   4.126   0.256   4.177
 4021TIP3   OH212019   3.991   6.483   0.447
 4021TIP3    H112020   3.911   6.431   0.453
 4021TIP3    H212021   3.976   6.541   0.373
 4022TIP3   OH212022   2.290   7.453   3.599
 4022TIP3    H112023   2.372   7.500   3.585
 4022TIP3    H212024   2.286   7.441   3.694
 4023TIP3   OH212025   4.015   0.096   2.196
 4023TIP3    H112026   4.076   0.024   2.183
 4023TIP3    H212027   3.948   0.060   2.254
 4024TIP3   OH212028   8.183   3.838   4.306
 4024TIP3    H112029   8.134   3.816   4.384
 4024TIP3    H212030   8.237   3.913   4.332
 4025TIP3   OH212031   2.139   6.361   3.728
 4025TIP3    H112032   2.137   6.425   3.657
 4025TIP3    H212033   2.173   6.281   3.687
 4026TIP3   OH212034   7.275   4.740   5.229
 4026TIP3    H112035   7.268   4.830   5.198
 4026TIP3    H212036   7.362   4.734   5.268
 4027TIP3   OH212037   1.991   1.309   4.208
 4027TIP3    H112038   2.065   1.291   4.266
 4027TIP3    H212039   2.011   1.393   4.169
 4028TIP3   OH212040   6.270   0.617   1.935
 4028TIP3    H112041   6.178   0.593   1.949
 4028TIP3    H212042   6.319   0.537   1.955
 4029TIP3   OH212043   6.518   3.398   4.594
 4029TIP3    H112044   6.534   3.381   4.501
 4029TIP3    H212045   6.559   3.483   4.611
 4030TIP3   OH212046   1.424   1.127   4.433
 4030TIP3    H112047   1.360   1.163   4.494
 4030TIP3    H212048   1.481   1.201   4.411
 4031TIP3   OH212049   8.054   4.497   6.102
 4031TIP3    H112050   8.054   4.456   6.188
 4031TIP3    H212051   8.096   4.582   6.115
 4032TIP3   OH212052   1.147   2.645   6.606
 4032TIP3    H112053   1.136   2.551   6.589
 4032TIP3    H212054   1.090   2.688   6.542
 4033TIP3   OH212055   2.183   4.524   3.687
 4033TIP3    H112056   2.254   4.478   3.732
 4033TIP3    H212057   2.199   4.616   3.705
 4034TIP3   OH212058   5.625   4.151   2.390
 4034TIP3    H112059   5.535   4.149   2.357
 4034TIP3    H212060   5.651   4.243   2.382
 4035TIP3   OH212061   4.276   5.763   0.825
 4035TIP3    H112062   4.348   5.825   0.828
 4035TIP3    H212063   4.318   5.677   0.829
 4036TIP3   OH212064   4.280   7.298   0.853
 4036TIP3    H112065   4.233   7.333   0.777
 4036TIP3    H212066   4.216   7.297   0.923
 4037TIP3   OH212067   2.549   6.747   4.152
 4037TIP3    H112068   2.643   6.760   4.152
 4037TIP3    H212069   2.537   6.655   4.127
 4038TIP3   OH212070   8.138   5.375   1.589
 4038TIP3    H112071   8.059   5.377   1.536
 4038TIP3    H212072   8.139   5.287   1.628
 4039TIP3   OH212073   5.547   3.927   6.406
 4039TIP3    H112074   5.585   3.972   6.482
 4039TIP3    H212075   5.602   3.850   6.394
 4040TIP3   OH212076   6.726   3.667   4.910
 4040TIP3    H112077   6.689   3.631   4.991
 4040TIP3    H212078   6.669   3.634   4.841
 4041TIP3   OH212079   3.650   3.875   6.764
 4041TIP3    H112080   3.676   3.829   6.843
 4041TIP3    H212081   3.655   3.968   6.788
 4042TIP3   OH212082   2.406   7.113   4.948
 4042TIP3    H112083   2.386   7.025   4.981
 4042TIP3    H212084   2.321   7.150   4.926
 4043TIP3   OH212085   3.292   7.509   5.727
 4043TIP3    H112086   3.285   7.479   5.636
 4043TIP3    H212087   3.383   7.490   5.751
 4044TIP3   OH212088   0.131   5.003   2.523
 4044TIP3    H112089   0.166   4.938   2.584
 4044TIP3    H212090   0.094   5.071   2.579
 4045TIP3   OH212091   7.254   0.604   6.338
 4045TIP3    H112092   7.235   0.600   6.245
 4045TIP3    H212093   7.339   0.560   6.348
 4046TIP3   OH212094   7.225   7.443   5.553
 4046TIP3    H112095   7.130   7.455   5.545
 4046TIP3    H212096   7.240   7.438   5.647
 4047TIP3   OH212097   7.176   1.688   5.511
 4047TIP3    H112098   7.221   1.767   5.482
 4047TIP3    H212099   7.089   1.694   5.472
 4048TIP3   OH212100   8.066   3.373   6.419
 4048TIP3    H112101   7.989   3.322   6.397
 4048TIP3    H212102   8.079   3.357   6.513
 4049TIP3   OH212103   3.988   1.533   5.040
 4049TIP3    H112104   3.898   1.500   5.044
 4049TIP3    H212105   4.012   1.548   5.131
 4050TIP3   OH212106   1.800   5.833   4.037
 4050TIP3    H112107   1.838   5.770   3.975
 4050TIP3    H212108   1.728   5.873   3.989
 4051TIP3   OH212109   1.926   1.915   2.807
 4051TIP3    H112110   1.844   1.908   2.757
 4051TIP3    H212111   1.994   1.927   2.740
 4052TIP3   OH212112   5.464   6.205   0.995
 4052TIP3    H112113   5.408   6.283   0.994
 4052TIP3    H212114   5.549   6.237   1.024
 4053TIP3   OH212115   8.029   2.179   1.066
 4053TIP3    H112116   7.988   2.093   1.073
 4053TIP3    H212117   8.095   2.169   0.997
 4054TIP3   OH212118   0.280   5.263   2.017
 4054TIP3    H112119   0.291   5.237   2.109
 4054TIP3    H212120   0.307   5.355   2.016
 4055TIP3   OH212121   7.915   5.546   1.679
 4055TIP3    H112122   7.910   5.639   1.655
 4055TIP3    H212123   8.008   5.524   1.667
 4056TIP3   OH212124   3.577   4.132   3.027
 4056TIP3    H112125   3.658   4.162   3.069
 4056TIP3    H212126   3.576   4.038   3.043
 4057TIP3   OH212127   5.823   2.127   2.203
 4057TIP3    H112128   5.738   2.121   2.248
 4057TIP3    H212129   5.858   2.213   2.229
 4058TIP3   OH212130   2.940   3.319   5.863
 4058TIP3    H112131   2.936   3.363   5.777
 4058TIP3    H212132   2.916   3.228   5.844
 4059TIP3   OH212133   4.206   7.393   0.603
 4059TIP3    H112134   4.161   7.342   0.536
 4059TIP3    H212135   4.145   7.465   0.623
 4060TIP3   OH212136   0.985   7.060   4.049
 4060TIP3    H112137   0.968   6.997   3.978
 4060TIP3    H212138   1.068   7.031   4.086
 4061TIP3   OH212139   6.813   4.710   6.637
 4061TIP3    H112140   6.738   4.654   6.657
 4061TIP3    H212141   6.864   4.662   6.572
 4062TIP3   OH212142   2.787   1.043   0.393
 4062TIP3    H112143   2.792   0.981   0.466
 4062TIP3    H212144   2.726   1.111   0.423
 4063TIP3   OH212145   6.296   3.147   2.385
 4063TIP3    H112146   6.345   3.102   2.315
 4063TIP3    H212147   6.231   3.083   2.413
 4064TIP3   OH212148   6.138   0.113   4.336
 4064TIP3    H112149   6.149   0.203   4.306
 4064TIP3    H212150   6.175   0.113   4.424
 4065TIP3   OH212151   8.130   1.814   3.132
 4065TIP3    H112152   8.186   1.832   3.056
 4065TIP3    H212153   8.096   1.900   3.158
 4066TIP3   OH212154   2.758   6.062   3.722
 4066TIP3    H112155   2.733   6.128   3.788
 4066TIP3    H212156   2.853   6.073   3.713
 4067TIP3   OH212157   3.585   4.855   1.214
 4067TIP3    H112158   3.631   4.832   1.133
 4067TIP3    H212159   3.639   4.924   1.253
 4068TIP3   OH212160   5.251   6.154   0.255
 4068TIP3    H112161   5.277   6.091   0.322
 4068TIP3    H212162   5.166   6.123   0.225
 4069TIP3   OH212163   2.375   4.005   3.682
 4069TIP3    H112164   2.426   4.086   3.683
 4069TIP3    H212165   2.344   3.998   3.591
 4070TIP3   OH212166   3.160   5.421   1.618
 4070TIP3    H112167   3.234   5.429   1.558
 4070TIP3    H212168   3.083   5.416   1.562
 4071TIP3   OH212169   4.351   2.926   2.071
 4071TIP3    H112170   4.261   2.903   2.048
 4071TIP3    H212171   4.375   2.994   2.008
 4072TIP3   OH212172   5.954   0.724   2.236
 4072TIP3    H112173   6.032   0.760   2.194
 4072TIP3    H212174   5.987   0.671   2.308
 4073TIP3   OH212175   0.665   2.193   1.057
 4073TIP3    H112176   0.734   2.231   1.112
 4073TIP3    H212177   0.671   2.240   0.974
 4074TIP3   OH212178   7.107   1.865   3.725
 4074TIP3    H112179   7.113   1.858   3.820
 4074TIP3    H212180   7.196   1.883   3.696
 4075TIP3   OH212181   6.172   6.284   1.893
 4075TIP3    H112182   6.228   6.354   1.924
 4075TIP3    H212183   6.196   6.208   1.946
 4076TIP3   OH212184   4.309   0.296   5.154
 4076TIP3    H112185   4.404   0.301   5.147
 4076TIP3    H212186   4.279   0.286   5.063
 4077TIP3   OH212187   8.128   5.957   0.292
 4077TIP3    H112188   8.097   5.868   0.274
 4077TIP3    H212189   8.089   6.011   0.223
 4078TIP3   OH212190   4.646   0.818   0.146
 4078TIP3    H112191   4.618   0.902   0.110
 4078TIP3    H212192   4.695   0.841   0.225
 4079TIP3   OH212193   7.955   3.033   2.488
 4079TIP3    H112194   8.050   3.021   2.490
 4079TIP3    H212195   7.944   3.127   2.472
 4080TIP3   OH212196   4.677   4.199   3.060
 4080TIP3    H112197   4.608   4.155   3.011
 4080TIP3    H212198   4.756   4.147   3.044
 4081TIP3   OH212199   7.161   5.236   6.182
 4081TIP3    H112200   7.164   5.169   6.114
 4081TIP3    H212201   7.133   5.189   6.260
 4082TIP3   OH212202   5.724   5.359   1.975
 4082TIP3    H112203   5.736   5.369   1.881
 4082TIP3    H212204   5.809   5.378   2.013
 4083TIP3   OH212205   1.841   0.272   1.039
 4083TIP3    H112206   1.781   0.347   1.041
 4083TIP3    H212207   1.815   0.219   1.114
 4084TIP3   OH212208   2.867   3.129   1.249
 4084TIP3    H112209   2.885   3.098   1.160
 4084TIP3    H212210   2.894   3.221   1.249
 4085TIP3   OH212211   2.096   0.687   3.013
 4085TIP3    H112212   2.174   0.688   2.958
 4085TIP3    H212213   2.116   0.748   3.084
 4086TIP3   OH212214   8.156   0.167   5.202
 4086TIP3    H112215   8.249   0.161   5.222
 4086TIP3    H212216   8.114   0.172   5.288
 4087TIP3   OH212217   4.383   1.713   4.642
 4087TIP3    H112218   4.295   1.742   4.665
 4087TIP3    H212219   4.438   1.790   4.655
 4088TIP3   OH212220   1.813   0.714   2.994
 4088TIP3    H112221   1.770   0.630   3.009
 4088TIP3    H212222   1.906   0.694   2.999
 4089TIP3   OH212223   4.066   5.603   1.791
 4089TIP3    H112224   4.111   5.530   1.749
 4089TIP3    H212225   3.991   5.562   1.836
 4090TIP3   OH212226   6.638   7.729   3.972
 4090TIP3    H112227   6.710   7.687   3.926
 4090TIP3    H212228   6.664   7.821   3.980
 4091TIP3   OH212229   1.991   1.213   6.207
 4091TIP3    H112230   1.936   1.244   6.136
 4091TIP3    H212231   2.081   1.225   6.176
 4092TIP3   OH212232   4.660   2.186   5.016
 4092TIP3    H112233   4.663   2.192   4.921
 4092TIP3    H212234   4.742   2.225   5.046
 4093TIP3   OH212235   1.410   1.585   6.395
 4093TIP3    H112236   1.474   1.516   6.407
 4093TIP3    H212237   1.345   1.548   6.334
 4094TIP3   OH212238   2.464   3.752   1.280
 4094TIP3    H112239   2.506   3.835   1.304
 4094TIP3    H212240   2.373   3.763   1.307
 4095TIP3   OH212241   0.851   3.749   2.157
 4095TIP3    H112242   0.928   3.695   2.174
 4095TIP3    H212243   0.795   3.736   2.234
 4096TIP3   OH212244   5.448   1.898   4.342
 4096TIP3    H112245   5.530   1.849   4.330
 4096TIP3    H212246   5.421   1.879   4.432
 4097TIP3   OH212247   7.688   3.177   1.146
 4097TIP3    H112248   7.596   3.154   1.157
 4097TIP3    H212249   7.735   3.096   1.166
 4098TIP3   OH212250   2.297   3.989   1.305
 4098TIP3    H112251   2.331   3.994   1.395
 4098TIP3    H212252   2.211   3.947   1.315
 4099TIP3   OH212253   2.425   4.421   3.887
 4099TIP3    H112254   2.486   4.415   3.960
 4099TIP3    H212255   2.343   4.386   3.922
 4100TIP3   OH212256   0.704   3.104   6.426
 4100TIP3    H112257   0.745   3.084   6.342
 4100TIP3    H212258   0.642   3.174   6.407
 4101TIP3   OH212259   7.324   6.832   2.428
 4101TIP3    H112260   7.294   6.906   2.374
 4101TIP3    H212261   7.418   6.825   2.410
 4102TIP3   OH212262   4.126   6.045   1.618
 4102TIP3    H112263   4.050   6.042   1.676
 4102TIP3    H212264   4.098   5.999   1.538
 4103TIP3   OH212265   0.535   1.325   2.636
 4103TIP3    H112266   0.601   1.342   2.704
 4103TIP3    H212267   0.566   1.376   2.560
 4104TIP3   OH212268   3.824   4.692   1.100
 4104TIP3    H112269   3.874   4.616   1.131
 4104TIP3    H212270   3.783   4.662   1.019
 4105TIP3   OH212271   2.206   0.629   6.575
 4105TIP3    H112272   2.277   0.587   6.624
 4105TIP3    H212273   2.143   0.559   6.558
 4106TIP3   OH212274   2.636   4.049   0.111
 4106TIP3    H112275   2.566   4.114   0.110
 4106TIP3    H212276   2.685   4.065   0.031
 4107TIP3   OH212277   5.577   4.546   5.701
 4107TIP3    H112278   5.569   4.636   5.669
 4107TIP3    H212279   5.574   4.554   5.796
 4108TIP3   OH212280   0.703   1.290   5.347
 4108TIP3    H112281   0.638   1.357   5.367
 4108TIP3    H212282   0.782   1.340   5.324
 4109TIP3   OH212283   5.307   3.647   0.798
 4109TIP3    H112284   5.279   3.722   0.744
 4109TIP3    H212285   5.226   3.602   0.821
 4110TIP3   OH212286   1.142   6.089   0.676
 4110TIP3    H112287   1.060   6.103   0.629
 4110TIP3    H212288   1.125   6.016   0.735
 4111TIP3   OH212289   4.676   7.694   4.361
 4111TIP3    H112290   4.637   7.776   4.331
 4111TIP3    H212291   4.648   7.629   4.296
 4112TIP3   OH212292   5.997   6.825   1.120
 4112TIP3    H112293   6.016   6.918   1.115
 4112TIP3    H212294   5.965   6.802   1.033
 4113TIP3   OH212295   4.914   2.900   1.097
 4113TIP3    H112296   5.000   2.876   1.132
 4113TIP3    H212297   4.925   2.896   1.002
 4114TIP3   OH212298   2.552   7.702   1.284
 4114TIP3    H112299   2.460   7.727   1.287
 4114TIP3    H212300   2.571   7.667   1.370
 4115TIP3   OH212301   7.131   5.649   2.728
 4115TIP3    H112302   7.115   5.627   2.819
 4115TIP3    H212303   7.147   5.743   2.728
 4116TIP3   OH212304   8.308   5.545   1.471
 4116TIP3    H112305   8.364   5.592   1.533
 4116TIP3    H212306   8.272   5.472   1.522
 4117TIP3   OH212307   7.969   2.567   0.217
 4117TIP3    H112308   8.062   2.557   0.239
 4117TIP3    H212309   7.923   2.536   0.295
 4118TIP3   OH212310   6.114   2.669   6.196
 4118TIP3    H112311   6.177   2.616   6.244
 4118TIP3    H212312   6.101   2.746   6.251
 4119TIP3   OH212313   0.627   5.292   1.359
 4119TIP3    H112314   0.537   5.269   1.337
 4119TIP3    H212315   0.623   5.321   1.450
 4120TIP3   OH212316   4.850   1.959   1.778
 4120TIP3    H112317   4.929   1.906   1.770
 4120TIP3    H212318   4.845   2.007   1.695
 4121TIP3   OH212319   0.209   1.979   5.992
 4121TIP3    H112320   0.177   1.969   5.902
 4121TIP3    H212321   0.237   1.891   6.017
 4122TIP3   OH212322   6.758   5.003   3.161
 4122TIP3    H112323   6.666   4.974   3.163
 4122TIP3    H212324   6.802   4.937   3.108
 4123TIP3   OH212325   2.065   0.665   5.215
 4123TIP3    H112326   2.059   0.637   5.306
 4123TIP3    H212327   2.114   0.747   5.218
 4124TIP3   OH212328   1.890   7.714   2.827
 4124TIP3    H112329   1.896   7.771   2.904
 4124TIP3    H212330   1.960   7.650   2.839
 4125TIP3   OH212331   6.140   1.619   4.723
 4125TIP3    H112332   6.151   1.650   4.634
 4125TIP3    H212333   6.226   1.584   4.748
 4126TIP3   OH212334   1.612   2.367   1.029
 4126TIP3    H112335   1.635   2.287   0.981
 4126TIP3    H212336   1.559   2.418   0.967
 4127TIP3   OH212337   4.200   5.349   6.630
 4127TIP3    H112338   4.276   5.367   6.685
 4127TIP3    H212339   4.220   5.266   6.587
 4128TIP3   OH212340   1.085   1.185   6.472
 4128TIP3    H112341   1.001   1.195   6.517
 4128TIP3    H212342   1.140   1.137   6.535
 4129TIP3   OH212343   1.377   3.402   0.839
 4129TIP3    H112344   1.285   3.400   0.864
 4129TIP3    H212345   1.401   3.495   0.841
 4130TIP3   OH212346   4.971   0.532   2.701
 4130TIP3    H112347   4.904   0.557   2.637
 4130TIP3    H212348   4.946   0.577   2.781
 4131TIP3   OH212349   7.393   6.573   6.131
 4131TIP3    H112350   7.396   6.623   6.050
 4131TIP3    H212351   7.400   6.482   6.103
 4132TIP3   OH212352   4.810   2.349   2.987
 4132TIP3    H112353   4.849   2.415   2.929
 4132TIP3    H212354   4.724   2.331   2.948
 4133TIP3   OH212355   6.906   4.691   2.427
 4133TIP3    H112356   6.977   4.638   2.463
 4133TIP3    H212357   6.827   4.638   2.443
 4134TIP3   OH212358   2.515   0.722   2.361
 4134TIP3    H112359   2.588   0.666   2.390
 4134TIP3    H212360   2.557   0.801   2.327
 4135TIP3   OH212361   6.784   3.572   1.211
 4135TIP3    H112362   6.831   3.594   1.291
 4135TIP3    H212363   6.823   3.627   1.144
 4136TIP3   OH212364   7.020   7.741   6.450
 4136TIP3    H112365   7.024   7.834   6.427
 4136TIP3    H212366   6.936   7.711   6.416
 4137TIP3   OH212367   4.692   6.039   6.425
 4137TIP3    H112368   4.605   6.015   6.455
 4137TIP3    H212369   4.742   5.957   6.429
 4138TIP3   OH212370   5.978   5.577   0.535
 4138TIP3    H112371   5.935   5.622   0.607
 4138TIP3    H212372   6.063   5.619   0.528
 4139TIP3   OH212373   5.007   3.959   1.693
 4139TIP3    H112374   4.961   4.039   1.720
 4139TIP3    H212375   5.100   3.980   1.704
 4140TIP3   OH212376   6.007   6.526   3.599
 4140TIP3    H112377   5.942   6.577   3.648
 4140TIP3    H212378   5.962   6.444   3.577
 4141TIP3   OH212379   1.657   1.799   3.667
 4141TIP3    H112380   1.583   1.740   3.687
 4141TIP3    H212381   1.732   1.740   3.658
 4142TIP3   OH212382   6.599   4.151   0.652
 4142TIP3    H112383   6.580   4.161   0.559
 4142TIP3    H212384   6.539   4.082   0.681
 4143TIP3   OH212385   2.402   7.005   3.006
 4143TIP3    H112386   2.412   6.920   3.049
 4143TIP3    H212387   2.451   7.066   3.061
 4144TIP3   OH212388   7.218   3.550   1.755
 4144TIP3    H112389   7.278   3.493   1.804
 4144TIP3    H212390   7.240   3.533   1.663
 4145TIP3   OH212391   4.964   5.886   1.133
 4145TIP3    H112392   4.992   5.878   1.042
 4145TIP3    H212393   5.033   5.840   1.183
 4146TIP3   OH212394   0.531   2.642   0.240
 4146TIP3    H112395   0.455   2.629   0.297
 4146TIP3    H212396   0.505   2.712   0.180
 4147TIP3   OH212397   0.005   1.189   3.066
 4147TIP3    H112398   0.100   1.204   3.071
 4147TIP3    H212399  -0.014   1.134   3.141
 4148TIP3   OH212400   7.637   3.469   0.668
 4148TIP3    H112401   7.681   3.494   0.587
 4148TIP3    H212402   7.617   3.376   0.657
 4149TIP3   OH212403   1.731   3.595   0.971
 4149TIP3    H112404   1.787   3.528   1.010
 4149TIP3    H212405   1.722   3.568   0.879
 4150TIP3   OH212406   6.942   4.727   5.968
 4150TIP3    H112407   6.975   4.665   6.032
 4150TIP3    H212408   6.967   4.690   5.883
 4151TIP3   OH212409   7.348   0.264   0.845
 4151TIP3    H112410   7.323   0.172   0.853
 4151TIP3    H212411   7.438   0.268   0.876
 4152TIP3   OH212412   2.694   0.659   3.814
 4152TIP3    H112413   2.749   0.581   3.820
 4152TIP3    H212414   2.606   0.625   3.795
 4153TIP3   OH212415   1.955   0.508   1.722
 4153TIP3    H112416   2.029   0.472   1.672
 4153TIP3    H212417   1.928   0.585   1.672
 4154TIP3   OH212418   7.859   0.833   4.056
 4154TIP3    H112419   7.935   0.887   4.035
 4154TIP3    H212420   7.836   0.791   3.973
 4155TIP3   OH212421   3.979   3.477   0.241
 4155TIP3    H112422   3.953   3.388   0.218
 4155TIP3    H212423   3.934   3.495   0.324
 4156TIP3   OH212424   4.725   1.355   3.647
 4156TIP3    H112425   4.781   1.314   3.581
 4156TIP3    H212426   4.696   1.437   3.606
 4157TIP3   OH212427   3.648   6.037   0.644
 4157TIP3    H112428   3.589   6.098   0.689
 4157TIP3    H212429   3.602   6.015   0.563
 4158TIP3   OH212430   8.028   0.342   1.536
 4158TIP3    H112431   8.106   0.385   1.501
 4158TIP3    H212432   8.008   0.273   1.473
 4159TIP3   OH212433   5.381   0.726   3.324
 4159TIP3    H112434   5.461   0.676   3.342
 4159TIP3    H212435   5.319   0.697   3.391
 4160TIP3   OH212436   6.695   0.418   6.000
 4160TIP3    H112437   6.648   0.440   6.080
 4160TIP3    H212438   6.758   0.489   5.989
 4161TIP3   OH212439   0.947   3.220   1.246
 4161TIP3    H112440   0.853   3.216   1.231
 4161TIP3    H212441   0.976   3.297   1.196
 4162TIP3   OH212442   4.146   5.244   5.117
 4162TIP3    H112443   4.222   5.207   5.162
 4162TIP3    H212444   4.143   5.335   5.146
 4163TIP3   OH212445   2.939   5.763   2.029
 4163TIP3    H112446   2.988   5.692   1.987
 4163TIP3    H212447   2.871   5.786   1.966
 4164TIP3   OH212448   0.409   2.923   5.217
 4164TIP3    H112449   0.376   2.837   5.194
 4164TIP3    H212450   0.371   2.982   5.152
 4165TIP3   OH212451   6.373   3.624   3.251
 4165TIP3    H112452   6.415   3.673   3.180
 4165TIP3    H212453   6.295   3.586   3.210
 4166TIP3   OH212454   0.416   5.229   2.540
 4166TIP3    H112455   0.414   5.200   2.631
 4166TIP3    H212456   0.439   5.151   2.490
 4167TIP3   OH212457   7.843   3.038   3.723
 4167TIP3    H112458   7.804   3.108   3.775
 4167TIP3    H212459   7.777   3.018   3.657
 4168TIP3   OH212460   0.033   7.358   6.498
 4168TIP3    H112461   0.075   7.395   6.420
 4168TIP3    H212462  -0.060   7.367   6.482
 4169TIP3   OH212463   4.365   5.107   0.327
 4169TIP3    H112464   4.324   5.044   0.267
 4169TIP3    H212465   4.299   5.121   0.395
 4170TIP3   OH212466   0.659   4.936   0.044
 4170TIP3    H112467   0.624   4.892   0.121
 4170TIP3    H212468   0.629   4.882  -0.030
 4171TIP3   OH212469   3.658   0.465   0.974
 4171TIP3    H112470   3.617   0.404   0.913
 4171TIP3    H212471   3.584   0.513   1.013
 4172TIP3   OH212472   4.107   7.529   4.255
 4172TIP3    H112473   4.177   7.533   4.189
 4172TIP3    H212474   4.150   7.548   4.338
 4173TIP3   OH212475   5.329   6.292   1.733
 4173TIP3    H112476   5.372   6.254   1.809
 4173TIP3    H212477   5.237   6.265   1.741
 4174TIP3   OH212478   0.273   1.837  -0.055
 4174TIP3    H112479   0.239   1.748  -0.043
 4174TIP3    H212480   0.359   1.836  -0.013
 4175TIP3   OH212481   0.463   2.742   4.952
 4175TIP3    H112482   0.487   2.788   5.032
 4175TIP3    H212483   0.479   2.649   4.971
 4176TIP3   OH212484   1.541   2.914   6.384
 4176TIP3    H112485   1.492   2.833   6.398
 4176TIP3    H212486   1.490   2.981   6.428
 4177TIP3   OH212487   4.191   0.333   1.529
 4177TIP3    H112488   4.101   0.352   1.555
 4177TIP3    H212489   4.245   0.390   1.585
 4178TIP3   OH212490   7.821   2.596   1.247
 4178TIP3    H112491   7.858   2.618   1.333
 4178TIP3    H212492   7.852   2.667   1.190
 4179TIP3   OH212493   2.447   5.017   4.274
 4179TIP3    H112494   2.391   5.031   4.198
 4179TIP3    H212495   2.524   5.073   4.259
 4180TIP3   OH212496   4.060   5.756   6.274
 4180TIP3    H112497   4.088   5.845   6.294
 4180TIP3    H212498   4.055   5.713   6.360
 4181TIP3   OH212499   2.387   2.316   1.055
 4181TIP3    H112500   2.422   2.404   1.066
 4181TIP3    H212501   2.366   2.287   1.144
 4182TIP3   OH212502   7.891   4.167   1.520
 4182TIP3    H112503   7.926   4.086   1.484
 4182TIP3    H212504   7.802   4.145   1.545
 4183TIP3   OH212505   6.892   0.011   5.083
 4183TIP3    H112506   6.825  -0.032   5.030
 4183TIP3    H212507   6.851   0.025   5.168
 4184TIP3   OH212508   6.247   2.346   4.701
 4184TIP3    H112509   6.323   2.376   4.651
 4184TIP3    H212510   6.189   2.308   4.635
 4185TIP3   OH212511   1.637   5.546   1.676
 4185TIP3    H112512   1.658   5.457   1.646
 4185TIP3    H212513   1.711   5.599   1.648
 4186TIP3   OH212514   2.487   7.619   2.144
 4186TIP3    H112515   2.449   7.554   2.084
 4186TIP3    H212516   2.550   7.667   2.090
 4187TIP3   OH212517   7.384   6.285   5.559
 4187TIP3    H112518   7.335   6.352   5.606
 4187TIP3    H212519   7.475   6.299   5.586
 4188TIP3   OH212520   7.248   6.825   0.251
 4188TIP3    H112521   7.303   6.774   0.310
 4188TIP3    H212522   7.163   6.832   0.296
 4189TIP3   OH212523   5.241   3.971   0.122
 4189TIP3    H112524   5.239   4.007   0.211
 4189TIP3    H212525   5.333   3.979   0.095
 4190TIP3   OH212526   6.003   4.598   0.717
 4190TIP3    H112527   6.079   4.656   0.723
 4190TIP3    H212528   5.928   4.654   0.740
 4191TIP3   OH212529   0.388   0.001   0.203
 4191TIP3    H112530   0.421   0.019   0.291
 4191TIP3    H212531   0.451   0.041   0.144
 4192TIP3   OH212532   3.532   3.825   0.530
 4192TIP3    H112533   3.462   3.880   0.567
 4192TIP3    H212534   3.516   3.738   0.567
 4193TIP3   OH212535   7.340   1.463   2.571
 4193TIP3    H112536   7.310   1.551   2.548
 4193TIP3    H212537   7.373   1.471   2.661
 4194TIP3   OH212538   3.964   3.725   1.081
 4194TIP3    H112539   4.019   3.797   1.112
 4194TIP3    H212540   3.918   3.695   1.159
 4195TIP3   OH212541   6.334   3.312   5.183
 4195TIP3    H112542   6.320   3.270   5.098
 4195TIP3    H212543   6.249   3.350   5.206
 4196TIP3   OH212544   3.400   2.121   1.160
 4196TIP3    H112545   3.458   2.125   1.236
 4196TIP3    H212546   3.345   2.045   1.176
 4197TIP3   OH212547   2.653   1.236   3.203
 4197TIP3    H112548   2.645   1.324   3.240
 4197TIP3    H212549   2.648   1.178   3.279
 4198TIP3   OH212550   6.929   0.939   0.278
 4198TIP3    H112551   6.841   0.918   0.247
 4198TIP3    H212552   6.976   0.856   0.272
 4199TIP3   OH212553   7.171   5.882   4.618
 4199TIP3    H112554   7.189   5.856   4.528
 4199TIP3    H212555   7.082   5.916   4.616
 4200TIP3   OH212556   2.976   5.985   0.179
 4200TIP3    H112557   3.019   6.066   0.151
 4200TIP3    H212558   2.956   5.939   0.097
 4201TIP3   OH212559   4.836   1.566   5.004
 4201TIP3    H112560   4.763   1.614   4.965
 4201TIP3    H212561   4.798   1.524   5.081
 4202TIP3   OH212562   3.875   6.634   6.231
 4202TIP3    H112563   3.911   6.683   6.158
 4202TIP3    H212564   3.782   6.622   6.208
 4203TIP3   OH212565   3.687   3.615   0.218
 4203TIP3    H112566   3.630   3.541   0.197
 4203TIP3    H212567   3.724   3.593   0.304
 4204TIP3   OH212568   0.298   3.054   4.592
 4204TIP3    H112569   0.369   3.115   4.612
 4204TIP3    H212570   0.220   3.093   4.631
 4205TIP3   OH212571   0.658   2.555   1.528
 4205TIP3    H112572   0.674   2.645   1.498
 4205TIP3    H212573   0.649   2.504   1.448
 4206TIP3   OH212574   4.526   3.737   6.502
 4206TIP3    H112575   4.464   3.667   6.521
 4206TIP3    H212576   4.472   3.817   6.501
 4207TIP3   OH212577   1.833   0.207   6.724
 4207TIP3    H112578   1.820   0.253   6.807
 4207TIP3    H212579   1.869   0.122   6.750
 4208TIP3   OH212580   7.396   6.432   2.605
 4208TIP3    H112581   7.377   6.487   2.529
 4208TIP3    H212582   7.490   6.417   2.601
 4209TIP3   OH212583   5.796   5.207   1.302
 4209TIP3    H112584   5.737   5.175   1.370
 4209TIP3    H212585   5.878   5.160   1.317
 4210TIP3   OH212586   5.017   2.770   3.957
 4210TIP3    H112587   4.943   2.715   3.981
 4210TIP3    H212588   5.094   2.719   3.981
 4211TIP3   OH212589   3.737   1.149   1.456
 4211TIP3    H112590   3.800   1.081   1.432
 4211TIP3    H212591   3.696   1.174   1.373
 4212TIP3   OH212592   3.662   1.977   1.963
 4212TIP3    H112593   3.735   2.025   1.924
 4212TIP3    H212594   3.685   1.885   1.950
 4213TIP3   OH212595   7.396   6.278   4.243
 4213TIP3    H112596   7.358   6.303   4.327
 4213TIP3    H212597   7.351   6.333   4.179
 4214TIP3   OH212598   4.449   5.609   5.385
 4214TIP3    H112599   4.447   5.544   5.315
 4214TIP3    H212600   4.500   5.681   5.350
 4215TIP3   OH212601   6.318   4.303   5.829
 4215TIP3    H112602   6.295   4.213   5.854
 4215TIP3    H212603   6.255   4.325   5.761
 4216TIP3   OH212604   2.405   5.152   0.028
 4216TIP3    H112605   2.485   5.137   0.079
 4216TIP3    H212606   2.376   5.065   0.002
 4217TIP3   OH212607   6.564   2.972   0.967
 4217TIP3    H112608   6.647   3.020   0.962
 4217TIP3    H212609   6.501   3.029   0.922
 4218TIP3   OH212610   0.850   3.474   5.513
 4218TIP3    H112611   0.881   3.453   5.425
 4218TIP3    H212612   0.763   3.511   5.500
 4219TIP3   OH212613   4.913   4.193   3.947
 4219TIP3    H112614   4.828   4.226   3.918
 4219TIP3    H212615   4.911   4.200   4.042
 4220TIP3   OH212616   4.862   1.330   1.364
 4220TIP3    H112617   4.854   1.234   1.363
 4220TIP3    H212618   4.851   1.356   1.273
 4221TIP3   OH212619   0.135   0.340   1.205
 4221TIP3    H112620   0.224   0.304   1.213
 4221TIP3    H212621   0.146   0.434   1.219
 4222TIP3   OH212622   7.529   5.240   2.774
 4222TIP3    H112623   7.464   5.252   2.843
 4222TIP3    H212624   7.557   5.149   2.783
 4223TIP3   OH212625   2.755   5.850   3.445
 4223TIP3    H112626   2.699   5.786   3.488
 4223TIP3    H212627   2.695   5.919   3.416
 4224TIP3   OH212628   6.235   6.470   5.310
 4224TIP3    H112629   6.159   6.475   5.252
 4224TIP3    H212630   6.247   6.377   5.327
 4225TIP3   OH212631   3.168   0.077   1.110
 4225TIP3    H112632   3.207   0.163   1.127
 4225TIP3    H212633   3.235   0.029   1.062
 4226TIP3   OH212634   5.752   0.565   4.432
 4226TIP3    H112635   5.798   0.492   4.474
 4226TIP3    H212636   5.821   0.619   4.395
 4227TIP3   OH212637   7.804   6.713   5.269
 4227TIP3    H112638   7.783   6.646   5.204
 4227TIP3    H212639   7.860   6.775   5.222
 4228TIP3   OH212640   5.145   7.008   6.747
 4228TIP3    H112641   5.117   6.951   6.676
 4228TIP3    H212642   5.191   7.080   6.704
 4229TIP3   OH212643   6.030   2.219   2.396
 4229TIP3    H112644   5.979   2.143   2.425
 4229TIP3    H212645   6.047   2.268   2.477
 4230TIP3   OH212646   7.293   1.732   2.543
 4230TIP3    H112647   7.365   1.762   2.488
 4230TIP3    H212648   7.289   1.796   2.614
 4231TIP3   OH212649   6.383   7.391   3.983
 4231TIP3    H112650   6.429   7.333   4.043
 4231TIP3    H212651   6.395   7.479   4.021
 4232TIP3   OH212652   6.652   7.652   4.582
 4232TIP3    H112653   6.731   7.673   4.631
 4232TIP3    H212654   6.584   7.707   4.620
 4233TIP3   OH212655   5.800   0.368   6.088
 4233TIP3    H112656   5.890   0.382   6.115
 4233TIP3    H212657   5.805   0.348   5.994
 4234TIP3   OH212658   6.401   5.883   4.557
 4234TIP3    H112659   6.307   5.869   4.567
 4234TIP3    H212660   6.415   5.973   4.585
 4235TIP3   OH212661   0.679   4.924   2.881
 4235TIP3    H112662   0.711   4.872   2.955
 4235TIP3    H212663   0.641   5.002   2.921
 4236TIP3   OH212664   0.634   4.715   0.755
 4236TIP3    H112665   0.599   4.698   0.842
 4236TIP3    H212666   0.719   4.671   0.754
 4237TIP3   OH212667   6.459   4.783   0.203
 4237TIP3    H112668   6.442   4.702   0.250
 4237TIP3    H212669   6.499   4.840   0.268
 4238TIP3   OH212670   4.026   5.391   0.645
 4238TIP3    H112671   3.964   5.340   0.696
 4238TIP3    H212672   4.035   5.343   0.563
 4239TIP3   OH212673   0.873   1.742   2.538
 4239TIP3    H112674   0.959   1.784   2.539
 4239TIP3    H212675   0.835   1.768   2.454
 4240TIP3   OH212676   6.558   5.947   3.715
 4240TIP3    H112677   6.468   5.915   3.723
 4240TIP3    H212678   6.551   6.025   3.661
 4241TIP3   OH212679   5.800   7.561   5.696
 4241TIP3    H112680   5.777   7.543   5.787
 4241TIP3    H212681   5.836   7.479   5.664
 4242TIP3   OH212682   2.910   7.782   5.922
 4242TIP3    H112683   2.887   7.761   5.832
 4242TIP3    H212684   2.996   7.741   5.935
 4243TIP3   OH212685   4.787   1.127   4.579
 4243TIP3    H112686   4.713   1.140   4.639
 4243TIP3    H212687   4.841   1.205   4.591
 4244TIP3   OH212688   1.987   2.028   0.354
 4244TIP3    H112689   2.076   1.995   0.361
 4244TIP3    H212690   1.990   2.114   0.397
 4245TIP3   OH212691   8.324   1.760   2.540
 4245TIP3    H112692   8.230   1.750   2.527
 4245TIP3    H212693   8.363   1.734   2.456
 4246TIP3   OH212694   3.063   4.519   3.505
 4246TIP3    H112695   3.115   4.460   3.451
 4246TIP3    H212696   2.977   4.477   3.510
 4247TIP3   OH212697   8.241   0.287   1.001
 4247TIP3    H112698   8.286   0.355   0.952
 4247TIP3    H212699   8.292   0.276   1.081
 4248TIP3   OH212700   8.075   1.918   2.253
 4248TIP3    H112701   8.010   1.893   2.319
 4248TIP3    H212702   8.045   2.004   2.222
 4249TIP3   OH212703   0.200   6.737   6.093
 4249TIP3    H112704   0.151   6.814   6.120
 4249TIP3    H212705   0.164   6.714   6.007
 4250TIP3   OH212706   8.206   1.986   6.655
 4250TIP3    H112707   8.166   2.026   6.578
 4250TIP3    H212708   8.142   2.000   6.725
 4251TIP3   OH212709   0.338   0.871   5.757
 4251TIP3    H112710   0.261   0.895   5.705
 4251TIP3    H212711   0.402   0.939   5.738
 4252TIP3   OH212712   0.843   1.658   6.123
 4252TIP3    H112713   0.922   1.642   6.174
 4252TIP3    H212714   0.870   1.648   6.032
 4253TIP3   OH212715   7.396   0.529   2.101
 4253TIP3    H112716   7.305   0.502   2.097
 4253TIP3    H212717   7.395   0.622   2.077
 4254TIP3   OH212718   5.739   1.177   5.889
 4254TIP3    H112719   5.689   1.140   5.961
 4254TIP3    H212720   5.744   1.106   5.825
 4255TIP3   OH212721   3.732   6.110   4.297
 4255TIP3    H112722   3.827   6.097   4.288
 4255TIP3    H212723   3.697   6.093   4.210
 4256TIP3   OH212724   5.273   1.810   6.291
 4256TIP3    H112725   5.205   1.764   6.340
 4256TIP3    H212726   5.322   1.859   6.357
 4257TIP3   OH212727   6.256   5.514   5.981
 4257TIP3    H112728   6.311   5.484   5.909
 4257TIP3    H212729   6.315   5.518   6.057
 4258TIP3   OH212730   3.804   4.554   3.143
 4258TIP3    H112731   3.871   4.609   3.185
 4258TIP3    H212732   3.778   4.604   3.066
 4259TIP3   OH212733   3.316   6.972   1.242
 4259TIP3    H112734   3.396   6.946   1.289
 4259TIP3    H212735   3.249   6.913   1.275
 4260TIP3   OH212736   0.738   6.196   1.048
 4260TIP3    H112737   0.830   6.212   1.027
 4260TIP3    H212738   0.741   6.133   1.121
 4261TIP3   OH212739   0.725   5.309   5.270
 4261TIP3    H112740   0.664   5.243   5.303
 4261TIP3    H212741   0.793   5.259   5.225
 4262TIP3   OH212742   0.803   3.932   3.231
 4262TIP3    H112743   0.815   4.026   3.218
 4262TIP3    H212744   0.815   3.894   3.144
 4263TIP3   OH212745   7.695   3.511   4.688
 4263TIP3    H112746   7.676   3.427   4.646
 4263TIP3    H212747   7.660   3.502   4.776
 4264TIP3   OH212748   1.440   7.489   5.021
 4264TIP3    H112749   1.402   7.564   4.975
 4264TIP3    H212750   1.412   7.413   4.969
 4265TIP3   OH212751   1.304   0.955   4.267
 4265TIP3    H112752   1.211   0.977   4.268
 4265TIP3    H212753   1.348   1.031   4.305
 4266TIP3   OH212754   4.394   4.870   0.679
 4266TIP3    H112755   4.411   4.964   0.676
 4266TIP3    H212756   4.401   4.840   0.589
 4267TIP3   OH212757   6.571   4.904   5.214
 4267TIP3    H112758   6.529   4.824   5.182
 4267TIP3    H212759   6.662   4.879   5.227
 4268TIP3   OH212760   6.883   3.952   4.596
 4268TIP3    H112761   6.942   4.027   4.602
 4268TIP3    H212762   6.840   3.948   4.681
 4269TIP3   OH212763   6.681   0.948   1.524
 4269TIP3    H112764   6.752   0.942   1.588
 4269TIP3    H212765   6.702   0.881   1.459
 4270TIP3   OH212766  -0.043   3.007   5.197
 4270TIP3    H112767   0.014   2.961   5.258
 4270TIP3    H212768  -0.035   2.958   5.115
 4271TIP3   OH212769   7.959   1.130   5.793
 4271TIP3    H112770   7.973   1.206   5.849
 4271TIP3    H212771   8.018   1.144   5.719
 4272TIP3   OH212772   2.295   5.637   3.650
 4272TIP3    H112773   2.309   5.610   3.741
 4272TIP3    H212774   2.200   5.637   3.640
 4273TIP3   OH212775   4.965   2.050   2.333
 4273TIP3    H112776   4.977   2.071   2.425
 4273TIP3    H212777   5.047   2.009   2.306
 4274TIP3   OH212778   3.936   0.455   5.642
 4274TIP3    H112779   4.027   0.485   5.637
 4274TIP3    H212780   3.936   0.391   5.714
 4275TIP3   OH212781   6.288   4.441   6.457
 4275TIP3    H112782   6.344   4.371   6.424
 4275TIP3    H212783   6.206   4.431   6.409
 4276TIP3   OH212784   8.137   1.212   5.324
 4276TIP3    H112785   8.163   1.290   5.275
 4276TIP3    H212786   8.207   1.149   5.306
 4277TIP3   OH212787   7.554   4.993   6.726
 4277TIP3    H112788   7.622   5.019   6.788
 4277TIP3    H212789   7.601   4.945   6.658
 4278TIP3   OH212790   3.065   1.007   3.283
 4278TIP3    H112791   3.020   1.006   3.368
 4278TIP3    H212792   3.124   1.082   3.289
 4279TIP3   OH212793   5.552   4.018   3.983
 4279TIP3    H112794   5.542   4.082   4.053
 4279TIP3    H212795   5.475   3.961   3.991
 4280TIP3   OH212796   4.819   1.305   6.355
 4280TIP3    H112797   4.913   1.303   6.375
 4280TIP3    H212798   4.807   1.383   6.301
 4281TIP3   OH212799   6.354   1.975   3.471
 4281TIP3    H112800   6.362   1.881   3.451
 4281TIP3    H212801   6.432   2.014   3.431
 4282TIP3   OH212802   3.827   2.103   6.624
 4282TIP3    H112803   3.876   2.132   6.547
 4282TIP3    H212804   3.866   2.019   6.648
 4283TIP3   OH212805   6.764   0.576   1.659
 4283TIP3    H112806   6.847   0.532   1.641
 4283TIP3    H212807   6.713   0.563   1.578
 4284TIP3   OH212808   5.505   2.619   4.267
 4284TIP3    H112809   5.564   2.662   4.205
 4284TIP3    H212810   5.459   2.691   4.310
 4285TIP3   OH212811   0.686   4.636   6.174
 4285TIP3    H112812   0.604   4.626   6.127
 4285TIP3    H212813   0.686   4.565   6.238
 4286TIP3   OH212814   3.548   2.430   1.552
 4286TIP3    H112815   3.638   2.414   1.581
 4286TIP3    H212816   3.494   2.381   1.614
 4287TIP3   OH212817   8.117   2.958   0.131
 4287TIP3    H112818   8.041   2.902   0.146
 4287TIP3    H212819   8.118   2.971   0.036
 4288TIP3   OH212820   4.711   6.644   2.942
 4288TIP3    H112821   4.750   6.582   2.881
 4288TIP3    H212822   4.728   6.607   3.029
 4289TIP3   OH212823   0.167   2.677   5.958
 4289TIP3    H112824   0.121   2.598   5.986
 4289TIP3    H212825   0.211   2.709   6.037
 4290TIP3   OH212826   0.187   1.185   1.017
 4290TIP3    H112827   0.273   1.143   1.017
 4290TIP3    H212828   0.126   1.112   1.026
 4291TIP3   OH212829   6.564   4.477   2.038
 4291TIP3    H112830   6.535   4.462   2.128
 4291TIP3    H212831   6.646   4.429   2.030
 4292TIP3   OH212832   6.820   0.462   2.060
 4292TIP3    H112833   6.726   0.464   2.076
 4292TIP3    H212834   6.829   0.483   1.967
 4293TIP3   OH212835   1.242   5.151   3.867
 4293TIP3    H112836   1.276   5.208   3.936
 4293TIP3    H212837   1.226   5.067   3.910
 4294TIP3   OH212838   7.562   5.793   3.843
 4294TIP3    H112839   7.645   5.817   3.801
 4294TIP3    H212840   7.540   5.869   3.897
 4295TIP3   OH212841   8.001   5.172   0.836
 4295TIP3    H112842   8.079   5.188   0.889
 4295TIP3    H212843   7.933   5.146   0.898
 4296TIP3   OH212844   5.327   7.468   4.329
 4296TIP3    H112845   5.264   7.540   4.326
 4296TIP3    H212846   5.292   7.403   4.269
 4297TIP3   OH212847   4.524   7.721   6.598
 4297TIP3    H112848   4.506   7.695   6.688
 4297TIP3    H212849   4.602   7.671   6.573
 4298TIP3   OH212850   1.900   4.352   6.204
 4298TIP3    H112851   1.863   4.333   6.118
 4298TIP3    H212852   1.935   4.268   6.234
 4299TIP3   OH212853   5.725   6.382   5.250
 4299TIP3    H112854   5.738   6.474   5.226
 4299TIP3    H212855   5.640   6.380   5.293
 4300TIP3   OH212856   5.043   5.729   1.809
 4300TIP3    H112857   5.020   5.676   1.733
 4300TIP3    H212858   5.054   5.666   1.880
 4301TIP3   OH212859   0.773   5.616   5.329
 4301TIP3    H112860   0.732   5.533   5.353
 4301TIP3    H212861   0.710   5.657   5.269
 4302TIP3   OH212862   0.278   1.810   6.352
 4302TIP3    H112863   0.191   1.775   6.367
 4302TIP3    H212864   0.266   1.905   6.349
 4303TIP3   OH212865   5.951   6.962   0.027
 4303TIP3    H112866   6.026   6.906   0.012
 4303TIP3    H212867   5.973   7.011   0.106
 4304TIP3   OH212868   5.905   1.769   4.760
 4304TIP3    H112869   5.891   1.760   4.854
 4304TIP3    H212870   5.994   1.737   4.746
 4305TIP3   OH212871   1.086   7.776   2.397
 4305TIP3    H112872   1.071   7.684   2.373
 4305TIP3    H212873   1.008   7.802   2.445
 4306TIP3   OH212874   5.582   2.103   2.980
 4306TIP3    H112875   5.541   2.042   3.042
 4306TIP3    H212876   5.671   2.115   3.014
 4307TIP3   OH212877   2.143   0.120   0.377
 4307TIP3    H112878   2.182   0.133   0.290
 4307TIP3    H212879   2.172   0.196   0.427
 4308TIP3   OH212880   8.276   5.446   1.213
 4308TIP3    H112881   8.252   5.519   1.156
 4308TIP3    H212882   8.234   5.467   1.297
 4309TIP3   OH212883   0.646   2.816   0.441
 4309TIP3    H112884   0.722   2.850   0.392
 4309TIP3    H212885   0.606   2.753   0.381
 4310TIP3   OH212886   4.075   5.613   6.044
 4310TIP3    H112887   4.075   5.659   6.129
 4310TIP3    H212888   4.153   5.645   6.000
 4311TIP3   OH212889   5.283   0.911   5.229
 4311TIP3    H112890   5.337   0.929   5.152
 4311TIP3    H212891   5.197   0.948   5.207
 4312TIP3   OH212892   1.988   3.593   5.178
 4312TIP3    H112893   2.026   3.582   5.091
 4312TIP3    H212894   2.056   3.640   5.227
 4313TIP3   OH212895   2.849   5.689   1.368
 4313TIP3    H112896   2.763   5.724   1.390
 4313TIP3    H212897   2.902   5.766   1.349
 4314TIP3   OH212898   6.387   0.727   4.269
 4314TIP3    H112899   6.400   0.632   4.275
 4314TIP3    H212900   6.309   0.738   4.216
 4315TIP3   OH212901   4.714   2.239   4.745
 4315TIP3    H112902   4.733   2.204   4.658
 4315TIP3    H212903   4.776   2.311   4.756
 4316TIP3   OH212904   6.321   2.498   2.713
 4316TIP3    H112905   6.328   2.523   2.621
 4316TIP3    H212906   6.343   2.577   2.762
 4317TIP3   OH212907   8.165   2.994   4.331
 4317TIP3    H112908   8.219   3.073   4.324
 4317TIP3    H212909   8.227   2.923   4.347
 4318TIP3   OH212910   3.446   3.694   2.443
 4318TIP3    H112911   3.491   3.706   2.359
 4318TIP3    H212912   3.377   3.761   2.443
 4319TIP3   OH212913   7.343   2.744   4.079
 4319TIP3    H112914   7.299   2.660   4.072
 4319TIP3    H212915   7.374   2.764   3.991
 4320TIP3   OH212916   3.494   6.469   5.247
 4320TIP3    H112917   3.471   6.557   5.215
 4320TIP3    H212918   3.417   6.416   5.228
 4321TIP3   OH212919   6.061   6.326   0.246
 4321TIP3    H112920   6.132   6.355   0.189
 4321TIP3    H212921   6.055   6.232   0.232
 4322TIP3   OH212922   3.548   7.078   6.532
 4322TIP3    H112923   3.528   7.159   6.486
 4322TIP3    H212924   3.551   7.011   6.464
 4323TIP3   OH212925   8.185   2.026   1.436
 4323TIP3    H112926   8.178   2.004   1.529
 4323TIP3    H212927   8.095   2.019   1.403
 4324TIP3   OH212928   0.781   4.513   1.050
 4324TIP3    H112929   0.764   4.423   1.021
 4324TIP3    H212930   0.738   4.518   1.136
 4325TIP3   OH212931   5.743   2.577   5.632
 4325TIP3    H112932   5.770   2.634   5.705
 4325TIP3    H212933   5.752   2.488   5.667
 4326TIP3   OH212934   3.748   3.796   1.245
 4326TIP3    H112935   3.732   3.867   1.308
 4326TIP3    H212936   3.718   3.717   1.289
 4327TIP3   OH212937   6.742   2.373   5.033
 4327TIP3    H112938   6.730   2.282   5.060
 4327TIP3    H212939   6.664   2.418   5.066
 4328TIP3   OH212940   4.979   2.036   3.916
 4328TIP3    H112941   4.929   2.094   3.973
 4328TIP3    H212942   4.921   1.960   3.903
 4329TIP3   OH212943   4.133   2.216   0.170
 4329TIP3    H112944   4.087   2.292   0.207
 4329TIP3    H212945   4.179   2.178   0.245
 4330TIP3   OH212946   5.136   3.113   1.812
 4330TIP3    H112947   5.198   3.056   1.766
 4330TIP3    H212948   5.130   3.191   1.757
 4331TIP3   OH212949   2.372   4.802   0.186
 4331TIP3    H112950   2.448   4.745   0.198
 4331TIP3    H212951   2.362   4.809   0.091
 4332TIP3   OH212952   2.268   3.947   0.261
 4332TIP3    H112953   2.323   3.890   0.315
 4332TIP3    H212954   2.297   4.036   0.282
 4333TIP3   OH212955   2.986   6.031   6.422
 4333TIP3    H112956   2.902   6.042   6.376
 4333TIP3    H212957   3.046   5.998   6.355
 4334TIP3   OH212958   4.300   0.232   2.905
 4334TIP3    H112959   4.322   0.318   2.869
 4334TIP3    H212960   4.284   0.177   2.828
 4335TIP3   OH212961   4.035   6.364   2.427
 4335TIP3    H112962   4.011   6.321   2.509
 4335TIP3    H212963   4.096   6.433   2.454
 4336TIP3   OH212964   5.802   2.150   1.766
 4336TIP3    H112965   5.809   2.165   1.672
 4336TIP3    H212966   5.891   2.133   1.794
 4337TIP3   OH212967   3.594   3.930   5.414
 4337TIP3    H112968   3.511   3.978   5.425
 4337TIP3    H212969   3.652   3.969   5.480
 4338TIP3   OH212970   4.497   5.615   1.426
 4338TIP3    H112971   4.569   5.674   1.447
 4338TIP3    H212972   4.513   5.537   1.479
 4339TIP3   OH212973   2.795   7.719   0.403
 4339TIP3    H112974   2.731   7.782   0.370
 4339TIP3    H212975   2.758   7.633   0.382
 4340TIP3   OH212976   2.967   4.358   2.491
 4340TIP3    H112977   2.924   4.443   2.479
 4340TIP3    H212978   3.021   4.369   2.570
 4341TIP3   OH212979   2.287   3.154   6.013
 4341TIP3    H112980   2.312   3.103   5.936
 4341TIP3    H212981   2.344   3.232   6.009
 4342TIP3   OH212982   0.175   2.490   0.782
 4342TIP3    H112983   0.126   2.497   0.864
 4342TIP3    H212984   0.233   2.566   0.782
 4343TIP3   OH212985   3.734   2.764   4.497
 4343TIP3    H112986   3.744   2.670   4.480
 4343TIP3    H212987   3.804   2.785   4.559
 4344TIP3   OH212988   0.457   4.938   5.230
 4344TIP3    H112989   0.389   4.993   5.189
 4344TIP3    H212990   0.411   4.892   5.301
 4345TIP3   OH212991   6.260   7.167   4.937
 4345TIP3    H112992   6.268   7.072   4.939
 4345TIP3    H212993   6.246   7.188   4.844
 4346TIP3   OH212994   2.213   2.542   1.365
 4346TIP3    H112995   2.225   2.621   1.419
 4346TIP3    H212996   2.230   2.572   1.275
 4347TIP3   OH212997   4.746   6.394   6.139
 4347TIP3    H112998   4.803   6.351   6.075
 4347TIP3    H212999   4.792   6.476   6.161
 4348TIP3   OH213000   4.884   6.601   3.329
 4348TIP3    H113001   4.939   6.645   3.264
 4348TIP3    H213002   4.840   6.531   3.280
 4349TIP3   OH213003   6.798   2.090   0.915
 4349TIP3    H113004   6.807   1.995   0.923
 4349TIP3    H213005   6.844   2.112   0.834
 4350TIP3   OH213006   1.186   4.749   5.392
 4350TIP3    H113007   1.275   4.739   5.426
 4350TIP3    H213008   1.135   4.779   5.467
 4351TIP3   OH213009   6.412   2.306   5.771
 4351TIP3    H113010   6.365   2.363   5.709
 4351TIP3    H213011   6.428   2.362   5.847
 4352TIP3   OH213012   4.304   0.228   6.179
 4352TIP3    H113013   4.236   0.215   6.245
 4352TIP3    H213014   4.273   0.302   6.126
 4353TIP3   OH213015   0.381   4.300   0.822
 4353TIP3    H113016   0.403   4.370   0.884
 4353TIP3    H213017   0.386   4.220   0.874
 4354TIP3   OH213018   1.070   5.162   2.079
 4354TIP3    H113019   1.100   5.147   1.989
 4354TIP3    H213020   1.149   5.187   2.127
 4355TIP3   OH213021   7.576   4.499   6.345
 4355TIP3    H113022   7.653   4.444   6.331
 4355TIP3    H213023   7.539   4.511   6.258
 4356TIP3   OH213024   4.258   2.742   5.523
 4356TIP3    H113025   4.210   2.812   5.477
 4356TIP3    H213026   4.328   2.787   5.570
 4357TIP3   OH213027   7.748   3.795   6.683
 4357TIP3    H113028   7.834   3.836   6.680
 4357TIP3    H213029   7.690   3.857   6.639
 4358TIP3   OH213030   6.796   5.513   4.169
 4358TIP3    H113031   6.776   5.424   4.140
 4358TIP3    H213032   6.799   5.564   4.088
 4359TIP3   OH213033   3.338   5.804   5.141
 4359TIP3    H113034   3.372   5.881   5.187
 4359TIP3    H213035   3.405   5.783   5.076
 4360TIP3   OH213036   4.813   6.592   0.073
 4360TIP3    H113037   4.850   6.576  -0.014
 4360TIP3    H213038   4.883   6.566   0.133
 4361TIP3   OH213039   3.935   5.809   4.238
 4361TIP3    H113040   3.882   5.785   4.162
 4361TIP3    H213041   3.876   5.798   4.313
 4362TIP3   OH213042   4.706   7.314   1.116
 4362TIP3    H113043   4.684   7.284   1.205
 4362TIP3    H213044   4.624   7.348   1.082
 4363TIP3   OH213045   2.083   7.706   4.708
 4363TIP3    H113046   2.040   7.786   4.739
 4363TIP3    H213047   2.176   7.727   4.710
 4364TIP3   OH213048   2.028   2.061   6.428
 4364TIP3    H113049   2.120   2.087   6.424
 4364TIP3    H213050   2.005   2.070   6.520
 4365TIP3   OH213051   3.283   3.455   1.584
 4365TIP3    H113052   3.294   3.434   1.491
 4365TIP3    H213053   3.241   3.378   1.621
 4366TIP3   OH213054   4.220   3.432   0.023
 4366TIP3    H113055   4.207   3.338   0.008
 4366TIP3    H213056   4.228   3.440   0.118
 4367TIP3   OH213057   1.314   5.186   5.051
 4367TIP3    H113058   1.343   5.250   5.116
 4367TIP3    H213059   1.284   5.112   5.103
 4368TIP3   OH213060   0.775   4.628   3.456
 4368TIP3    H113061   0.869   4.638   3.438
 4368TIP3    H213062   0.766   4.536   3.482
 4369TIP3   OH213063   3.399   5.438   5.754
 4369TIP3    H113064   3.330   5.392   5.802
 4369TIP3    H213065   3.399   5.399   5.667
 4370TIP3   OH213066   1.167   6.234   3.993
 4370TIP3    H113067   1.126   6.233   3.907
 4370TIP3    H213068   1.115   6.296   4.043
 4371TIP3   OH213069   0.929   1.419   1.179
 4371TIP3    H113070   1.018   1.424   1.142
 4371TIP3    H213071   0.874   1.392   1.106
 4372TIP3   OH213072   6.599   4.565   3.236
 4372TIP3    H113073   6.635   4.500   3.296
 4372TIP3    H213074   6.669   4.580   3.172
 4373TIP3   OH213075   6.151   1.615   4.445
 4373TIP3    H113076   6.225   1.562   4.415
 4373TIP3    H213077   6.079   1.590   4.387
 4374TIP3   OH213078   4.559   0.067   6.469
 4374TIP3    H113079   4.649   0.036   6.476
 4374TIP3    H213080   4.514  -0.001   6.419
 4375TIP3   OH213081   0.271   6.723   3.595
 4375TIP3    H113082   0.182   6.726   3.631
 4375TIP3    H213083   0.266   6.770   3.512
 4376TIP3   OH213084   1.750   6.980   6.277
 4376TIP3    H113085   1.767   7.050   6.213
 4376TIP3    H213086   1.655   6.978   6.286
 4377TIP3   OH213087   5.284   3.992   6.694
 4377TIP3    H113088   5.341   4.070   6.693
 4377TIP3    H213089   5.271   3.971   6.601
 4378TIP3   OH213090   6.095   5.944   0.452
 4378TIP3    H113091   6.165   5.992   0.497
 4378TIP3    H213092   6.129   5.856   0.441
 4379TIP3   OH213093   2.359   6.679   2.899
 4379TIP3    H113094   2.443   6.678   2.853
 4379TIP3    H213095   2.383   6.695   2.991
 4380TIP3   OH213096   0.048   7.669   1.008
 4380TIP3    H113097   0.066   7.632   0.921
 4380TIP3    H213098  -0.021   7.613   1.043
 4381TIP3   OH213099   0.511   5.495   0.593
 4381TIP3    H113100   0.451   5.533   0.529
 4381TIP3    H213101   0.504   5.552   0.669
 4382TIP3   OH213102   5.309   4.082   3.728
 4382TIP3    H113103   5.293   4.028   3.805
 4382TIP3    H213104   5.231   4.070   3.674
 4383TIP3   OH213105   0.958   0.887   2.357
 4383TIP3    H113106   0.956   0.794   2.380
 4383TIP3    H213107   1.022   0.926   2.416
 4384TIP3   OH213108   2.286   1.748   2.820
 4384TIP3    H113109   2.341   1.746   2.741
 4384TIP3    H213110   2.333   1.696   2.884
 4385TIP3   OH213111   6.588   3.562   5.604
 4385TIP3    H113112   6.668   3.521   5.571
 4385TIP3    H213113   6.536   3.488   5.637
 4386TIP3   OH213114   2.214   4.048   3.986
 4386TIP3    H113115   2.153   4.092   3.926
 4386TIP3    H213116   2.291   4.106   3.988
 4387TIP3   OH213117   2.687   1.900   3.555
 4387TIP3    H113118   2.619   1.958   3.520
 4387TIP3    H213119   2.753   1.897   3.485
 4388TIP3   OH213120   2.942   6.825   3.044
 4388TIP3    H113121   3.022   6.847   2.997
 4388TIP3    H213122   2.887   6.779   2.980
 4389TIP3   OH213123   2.788   2.657   4.368
 4389TIP3    H113124   2.867   2.650   4.421
 4389TIP3    H213125   2.793   2.582   4.308
 4390TIP3   OH213126   4.943   2.745   4.855
 4390TIP3    H113127   4.931   2.655   4.885
 4390TIP3    H213128   5.037   2.761   4.862
 4391TIP3   OH213129   2.186   4.498   2.471
 4391TIP3    H113130   2.125   4.427   2.493
 4391TIP3    H213131   2.254   4.492   2.538
 4392TIP3   OH213132   1.907   3.100   2.046
 4392TIP3    H113133   1.836   3.158   2.073
 4392TIP3    H213134   1.928   3.129   1.956
 4393TIP3   OH213135   1.489   3.781   1.387
 4393TIP3    H113136   1.494   3.779   1.482
 4393TIP3    H213137   1.573   3.748   1.357
 4394TIP3   OH213138   3.706   6.760   1.819
 4394TIP3    H113139   3.632   6.728   1.869
 4394TIP3    H213140   3.670   6.780   1.733
 4395TIP3   OH213141   3.818   6.956   2.738
 4395TIP3    H113142   3.857   6.902   2.806
 4395TIP3    H213143   3.778   7.029   2.786
 4396TIP3   OH213144   3.713   2.880   5.789
 4396TIP3    H113145   3.669   2.953   5.834
 4396TIP3    H213146   3.672   2.877   5.703
 4397TIP3   OH213147   7.371   0.816   6.154
 4397TIP3    H113148   7.455   0.772   6.171
 4397TIP3    H213149   7.393   0.890   6.097
 4398TIP3   OH213150   0.869   6.724   0.817
 4398TIP3    H113151   0.871   6.776   0.736
 4398TIP3    H213152   0.872   6.789   0.887
 4399TIP3   OH213153   5.967   4.184   2.178
 4399TIP3    H113154   6.006   4.194   2.265
 4399TIP3    H213155   5.874   4.201   2.192
 4400TIP3   OH213156   7.804   3.913   4.555
 4400TIP3    H113157   7.769   3.895   4.642
 4400TIP3    H213158   7.768   3.999   4.532
 4401TIP3   OH213159   0.492   5.463   3.185
 4401TIP3    H113160   0.476   5.505   3.270
 4401TIP3    H213161   0.418   5.404   3.173
 4402TIP3   OH213162   2.884   7.764   5.612
 4402TIP3    H113163   2.970   7.739   5.579
 4402TIP3    H213164   2.868   7.851   5.574
 4403TIP3   OH213165   1.642   7.725   4.075
 4403TIP3    H113166   1.565   7.696   4.027
 4403TIP3    H213167   1.610   7.744   4.163
 4404TIP3   OH213168   1.436   6.113   6.470
 4404TIP3    H113169   1.449   6.073   6.385
 4404TIP3    H213170   1.488   6.194   6.467
 4405TIP3   OH213171   1.304   6.363   1.410
 4405TIP3    H113172   1.329   6.375   1.318
 4405TIP3    H213173   1.209   6.352   1.408
 4406TIP3   OH213174   3.582   1.797   1.216
 4406TIP3    H113175   3.643   1.817   1.287
 4406TIP3    H213176   3.634   1.803   1.136
 4407TIP3   OH213177   2.878   1.437   2.821
 4407TIP3    H113178   2.960   1.418   2.776
 4407TIP3    H213179   2.846   1.352   2.852
 4408TIP3   OH213180   2.979   7.112   4.242
 4408TIP3    H113181   2.957   7.198   4.279
 4408TIP3    H213182   2.900   7.059   4.255
 4409TIP3   OH213183   0.591   4.728   4.140
 4409TIP3    H113184   0.501   4.710   4.113
 4409TIP3    H213185   0.641   4.651   4.109
 4410TIP3   OH213186   0.987   4.006   2.245
 4410TIP3    H113187   0.987   3.936   2.180
 4410TIP3    H213188   1.042   4.075   2.207
 4411TIP3   OH213189   0.812   4.217   5.485
 4411TIP3    H113190   0.776   4.163   5.415
 4411TIP3    H213191   0.879   4.270   5.443
 4412TIP3   OH213192   0.786   2.389   5.633
 4412TIP3    H113193   0.712   2.429   5.680
 4412TIP3    H213194   0.747   2.354   5.553
 4413TIP3   OH213195   3.508   2.256   6.674
 4413TIP3    H113196   3.416   2.245   6.696
 4413TIP3    H213197   3.548   2.292   6.753
 4414TIP3   OH213198   1.764   5.529   5.542
 4414TIP3    H113199   1.741   5.581   5.465
 4414TIP3    H213200   1.715   5.448   5.532
 4415TIP3   OH213201   1.983   6.275   5.667
 4415TIP3    H113202   1.986   6.285   5.762
 4415TIP3    H213203   1.953   6.359   5.634
 4416TIP3   OH213204   4.069   6.290   2.674
 4416TIP3    H113205   4.023   6.282   2.757
 4416TIP3    H213206   4.122   6.369   2.683
 4417TIP3   OH213207   6.379   4.705   4.499
 4417TIP3    H113208   6.302   4.760   4.507
 4417TIP3    H213209   6.403   4.683   4.589
 4418TIP3   OH213210   0.274   3.031   1.921
 4418TIP3    H113211   0.304   3.105   1.869
 4418TIP3    H213212   0.335   3.028   1.995
 4419TIP3   OH213213   5.561   4.156   6.043
 4419TIP3    H113214   5.466   4.162   6.054
 4419TIP3    H213215   5.581   4.219   5.974
 4420TIP3   OH213216   8.175   4.285   0.980
 4420TIP3    H113217   8.110   4.263   1.046
 4420TIP3    H213218   8.136   4.258   0.897
 4421TIP3   OH213219   4.910   4.991   4.071
 4421TIP3    H113220   4.976   4.947   4.124
 4421TIP3    H213221   4.843   5.019   4.134
 4422TIP3   OH213222   2.361   7.688   4.673
 4422TIP3    H113223   2.399   7.769   4.637
 4422TIP3    H213224   2.410   7.618   4.630
 4423TIP3   OH213225   1.439   6.510   5.490
 4423TIP3    H113226   1.486   6.589   5.517
 4423TIP3    H213227   1.500   6.438   5.509
 4424TIP3   OH213228   6.374   2.077   1.241
 4424TIP3    H113229   6.363   2.137   1.167
 4424TIP3    H213230   6.386   2.134   1.317
 4425TIP3   OH213231   6.503   1.786   6.412
 4425TIP3    H113232   6.533   1.763   6.324
 4425TIP3    H213233   6.475   1.877   6.405
 4426TIP3   OH213234   3.514   2.144   4.830
 4426TIP3    H113235   3.474   2.230   4.845
 4426TIP3    H213236   3.550   2.119   4.915
 4427TIP3   OH213237   3.911   6.128   0.632
 4427TIP3    H113238   3.888   6.206   0.582
 4427TIP3    H213239   3.827   6.083   0.646
 4428TIP3   OH213240   4.135   1.104   2.437
 4428TIP3    H113241   4.161   1.184   2.480
 4428TIP3    H213242   4.213   1.075   2.390
 4429TIP3   OH213243   0.988   0.220   3.530
 4429TIP3    H113244   0.957   0.129   3.528
 4429TIP3    H213245   0.933   0.265   3.465
 4430TIP3   OH213246   6.524   4.178   6.096
 4430TIP3    H113247   6.617   4.191   6.112
 4430TIP3    H213248   6.506   4.225   6.015
 4431TIP3   OH213249   8.079   0.303   2.564
 4431TIP3    H113250   8.048   0.360   2.635
 4431TIP3    H213251   7.999   0.276   2.519
 4432TIP3   OH213252   5.572   3.550   4.944
 4432TIP3    H113253   5.527   3.489   4.885
 4432TIP3    H213254   5.618   3.610   4.885
 4433TIP3   OH213255   0.087   7.293   5.195
 4433TIP3    H113256   0.069   7.379   5.158
 4433TIP3    H213257   0.021   7.281   5.264
 4434TIP3   OH213258   1.869   1.608   5.814
 4434TIP3    H113259   1.890   1.619   5.722
 4434TIP3    H213260   1.926   1.671   5.859
 4435TIP3   OH213261   6.591   6.925   3.876
 4435TIP3    H113262   6.588   7.018   3.902
 4435TIP3    H213263   6.659   6.887   3.933
 4436TIP3   OH213264   6.659   0.308   1.867
 4436TIP3    H113265   6.683   0.293   1.776
 4436TIP3    H213266   6.677   0.224   1.911
 4437TIP3   OH213267   5.864   7.248   4.396
 4437TIP3    H113268   5.888   7.156   4.387
 4437TIP3    H213269   5.868   7.282   4.307
 4438TIP3   OH213270   2.603   7.256   3.356
 4438TIP3    H113271   2.552   7.310   3.416
 4438TIP3    H213272   2.627   7.315   3.285
 4439TIP3   OH213273   0.196   3.152   2.577
 4439TIP3    H113274   0.291   3.163   2.590
 4439TIP3    H213275   0.159   3.160   2.665
 4440TIP3   OH213276   2.465   5.630   4.819
 4440TIP3    H113277   2.547   5.592   4.849
 4440TIP3    H213278   2.460   5.714   4.863
 4441TIP3   OH213279   5.075   4.001   2.661
 4441TIP3    H113280   5.014   3.998   2.587
 4441TIP3    H213281   5.161   3.988   2.621
 4442TIP3   OH213282   2.300   7.787   1.327
 4442TIP3    H113283   2.291   7.725   1.399
 4442TIP3    H213284   2.216   7.784   1.282
 4443TIP3   OH213285   8.213   5.713   0.915
 4443TIP3    H113286   8.184   5.794   0.874
 4443TIP3    H213287   8.155   5.646   0.878
 4444TIP3   OH213288   5.578   3.314   3.900
 4444TIP3    H113289   5.581   3.365   3.819
 4444TIP3    H213290   5.583   3.223   3.871
 4445TIP3   OH213291  -0.022   4.058   6.448
 4445TIP3    H113292   0.026   4.084   6.369
 4445TIP3    H213293   0.005   4.121   6.514
 4446TIP3   OH213294   6.915   0.252   2.621
 4446TIP3    H113295   6.970   0.310   2.568
 4446TIP3    H213296   6.832   0.297   2.629
 4447TIP3   OH213297   0.439   5.382   4.175
 4447TIP3    H113298   0.531   5.406   4.165
 4447TIP3    H213299   0.398   5.409   4.093
 4448TIP3   OH213300   3.669   5.329   3.410
 4448TIP3    H113301   3.577   5.352   3.421
 4448TIP3    H213302   3.712   5.369   3.486
 4449TIP3   OH213303   4.939   4.235   0.355
 4449TIP3    H113304   4.941   4.244   0.450
 4449TIP3    H213305   5.026   4.203   0.332
 4450TIP3   OH213306   8.293   4.323   3.731
 4450TIP3    H113307   8.252   4.409   3.740
 4450TIP3    H213308   8.267   4.293   3.644
 4451TIP3   OH213309   1.825   5.514   2.100
 4451TIP3    H113310   1.787   5.471   2.177
 4451TIP3    H213311   1.786   5.467   2.025
 4452TIP3   OH213312   4.846   3.462   6.180
 4452TIP3    H113313   4.866   3.471   6.087
 4452TIP3    H213314   4.770   3.404   6.183
 4453TIP3   OH213315   2.838   6.199   5.021
 4453TIP3    H113316   2.869   6.234   5.105
 4453TIP3    H213317   2.890   6.119   5.008
 4454TIP3   OH213318   7.776   4.839   5.785
 4454TIP3    H113319   7.748   4.924   5.752
 4454TIP3    H213320   7.836   4.805   5.718
 4455TIP3   OH213321   6.559   3.300   2.126
 4455TIP3    H113322   6.603   3.255   2.198
 4455TIP3    H213323   6.591   3.256   2.047
 4456TIP3   OH213324   2.950   2.398   1.580
 4456TIP3    H113325   3.035   2.418   1.620
 4456TIP3    H213326   2.943   2.303   1.585
 4457TIP3   OH213327   6.789   3.403   0.862
 4457TIP3    H113328   6.784   3.355   0.780
 4457TIP3    H213329   6.860   3.466   0.849
 4458TIP3   OH213330   7.474   5.160   1.433
 4458TIP3    H113331   7.432   5.077   1.408
 4458TIP3    H213332   7.406   5.209   1.479
 4459TIP3   OH213333   7.977   7.466   3.190
 4459TIP3    H113334   7.987   7.400   3.259
 4459TIP3    H213335   8.039   7.440   3.122
 4460TIP3   OH213336   3.829   5.228   5.591
 4460TIP3    H113337   3.784   5.157   5.636
 4460TIP3    H213338   3.796   5.308   5.632
 4461TIP3   OH213339   3.429   7.743   5.460
 4461TIP3    H113340   3.450   7.651   5.441
 4461TIP3    H213341   3.490   7.792   5.405
 4462TIP3   OH213342   3.108   6.406   1.098
 4462TIP3    H113343   3.177   6.426   1.035
 4462TIP3    H213344   3.120   6.470   1.169
 4463TIP3   OH213345   7.321   1.039   4.597
 4463TIP3    H113346   7.402   1.086   4.578
 4463TIP3    H213347   7.256   1.079   4.540
 4464TIP3   OH213348   3.180   4.310   5.716
 4464TIP3    H113349   3.182   4.216   5.731
 4464TIP3    H213350   3.093   4.326   5.677
 4465TIP3   OH213351   2.546   4.819   4.059
 4465TIP3    H113352   2.573   4.896   4.008
 4465TIP3    H213353   2.592   4.829   4.142
 4466TIP3   OH213354   5.708   1.958   5.643
 4466TIP3    H113355   5.677   2.029   5.700
 4466TIP3    H213356   5.663   1.880   5.675
 4467TIP3   OH213357   4.237   1.816   4.081
 4467TIP3    H113358   4.296   1.804   4.006
 4467TIP3    H213359   4.168   1.750   4.068
 4468TIP3   OH213360   3.002   3.123   0.762
 4468TIP3    H113361   3.044   3.060   0.705
 4468TIP3    H213362   2.919   3.145   0.718
 4469TIP3   OH213363  -0.005   4.241   2.629
 4469TIP3    H113364  -0.022   4.325   2.588
 4469TIP3    H213365   0.022   4.184   2.557
 4470TIP3   OH213366   8.225   3.355   6.159
 4470TIP3    H113367   8.247   3.266   6.130
 4470TIP3    H213368   8.190   3.344   6.247
 4471TIP3   OH213369   4.720   4.983   3.696
 4471TIP3    H113370   4.665   4.977   3.774
 4471TIP3    H213371   4.774   5.061   3.710
 4472TIP3   OH213372   3.013   2.440   0.350
 4472TIP3    H113373   2.959   2.470   0.422
 4472TIP3    H213374   2.951   2.419   0.280
 4473TIP3   OH213375   1.485   4.441   5.828
 4473TIP3    H113376   1.487   4.382   5.753
 4473TIP3    H213377   1.483   4.528   5.790
 4474TIP3   OH213378   8.203   5.234   4.229
 4474TIP3    H113379   8.216   5.149   4.271
 4474TIP3    H213380   8.287   5.255   4.190
 4475TIP3   OH213381   1.306   4.240   0.340
 4475TIP3    H113382   1.258   4.322   0.355
 4475TIP3    H213383   1.253   4.173   0.383
 4476TIP3   OH213384   3.924   4.422   0.431
 4476TIP3    H113385   3.891   4.406   0.343
 4476TIP3    H213386   3.872   4.366   0.488
 4477TIP3   OH213387   1.835   4.704   2.205
 4477TIP3    H113388   1.852   4.752   2.124
 4477TIP3    H213389   1.905   4.732   2.265
 4478TIP3   OH213390   0.704   7.764   2.461
 4478TIP3    H113391   0.646   7.833   2.428
 4478TIP3    H213392   0.784   7.809   2.487
 4479TIP3   OH213393   6.455   1.369   5.512
 4479TIP3    H113394   6.509   1.441   5.544
 4479TIP3    H213395   6.396   1.410   5.449
 4480TIP3   OH213396   6.432   5.191   2.533
 4480TIP3    H113397   6.364   5.149   2.480
 4480TIP3    H213398   6.494   5.226   2.470
 4481TIP3   OH213399   5.851   2.169   6.293
 4481TIP3    H113400   5.765   2.150   6.257
 4481TIP3    H213401   5.869   2.259   6.266
 4482TIP3   OH213402   7.778   5.154   1.402
 4482TIP3    H113403   7.823   5.088   1.454
 4482TIP3    H213404   7.687   5.125   1.401
 4483TIP3   OH213405   3.304   7.072   0.123
 4483TIP3    H113406   3.359   7.011   0.172
 4483TIP3    H213407   3.270   7.021   0.050
 4484TIP3   OH213408   5.202   5.945   3.528
 4484TIP3    H113409   5.223   5.994   3.607
 4484TIP3    H213410   5.121   5.899   3.549
 4485TIP3   OH213411   5.350   1.310   4.981
 4485TIP3    H113412   5.423   1.248   4.988
 4485TIP3    H213413   5.284   1.276   5.042
 4486TIP3   OH213414   1.808   0.196   3.567
 4486TIP3    H113415   1.834   0.177   3.657
 4486TIP3    H213416   1.712   0.189   3.569
 4487TIP3   OH213417   1.061   1.609   3.694
 4487TIP3    H113418   1.082   1.681   3.635
 4487TIP3    H213419   1.091   1.530   3.648
 4488TIP3   OH213420   4.521   3.493   4.921
 4488TIP3    H113421   4.473   3.507   5.002
 4488TIP3    H213422   4.525   3.579   4.880
 4489TIP3   OH213423   3.164   6.436   2.829
 4489TIP3    H113424   3.157   6.529   2.809
 4489TIP3    H213425   3.178   6.433   2.924
 4490TIP3   OH213426   5.602   0.226   5.818
 4490TIP3    H113427   5.692   0.259   5.815
 4490TIP3    H213428   5.606   0.152   5.879
 4491TIP3   OH213429   7.454   3.366   2.272
 4491TIP3    H113430   7.403   3.309   2.214
 4491TIP3    H213431   7.492   3.306   2.336
 4492TIP3   OH213432   5.035   0.366   0.885
 4492TIP3    H113433   5.030   0.449   0.933
 4492TIP3    H213434   5.033   0.299   0.954
 4493TIP3   OH213435   4.477   1.444   6.156
 4493TIP3    H113436   4.558   1.487   6.183
 4493TIP3    H213437   4.420   1.516   6.129
 4494TIP3   OH213438   4.643   4.058   2.725
 4494TIP3    H113439   4.676   3.988   2.781
 4494TIP3    H213440   4.554   4.031   2.704
 4495TIP3   OH213441   0.761   2.884   4.207
 4495TIP3    H113442   0.857   2.891   4.205
 4495TIP3    H213443   0.744   2.799   4.247
 4496TIP3   OH213444   1.235   0.806   2.218
 4496TIP3    H113445   1.287   0.824   2.297
 4496TIP3    H213446   1.144   0.811   2.247
 4497TIP3   OH213447   1.655   5.437   4.910
 4497TIP3    H113448   1.676   5.438   5.003
 4497TIP3    H213449   1.736   5.465   4.867
 4498TIP3   OH213450   2.144   5.019   0.856
 4498TIP3    H113451   2.203   4.945   0.868
 4498TIP3    H213452   2.083   4.991   0.789
 4499TIP3   OH213453   6.949   2.328   3.334
 4499TIP3    H113454   7.015   2.270   3.296
 4499TIP3    H213455   6.972   2.333   3.427
 4500TIP3   OH213456   3.950   6.372   6.334
 4500TIP3    H113457   3.930   6.451   6.284
 4500TIP3    H213458   3.899   6.382   6.415
 4501TIP3   OH213459   1.623   2.870   2.337
 4501TIP3    H113460   1.718   2.860   2.331
 4501TIP3    H213461   1.597   2.901   2.251
 4502TIP3   OH213462   0.507   4.231   2.040
 4502TIP3    H113463   0.419   4.237   2.003
 4502TIP3    H213464   0.556   4.178   1.977
 4503TIP3   OH213465   0.256   4.778   4.372
 4503TIP3    H113466   0.332   4.792   4.428
 4503TIP3    H213467   0.286   4.717   4.305
 4504TIP3   OH213468   6.933   1.361   5.538
 4504TIP3    H113469   7.022   1.365   5.503
 4504TIP3    H213470   6.927   1.275   5.580
 4505TIP3   OH213471   1.631   4.522   1.329
 4505TIP3    H113472   1.638   4.615   1.305
 4505TIP3    H213473   1.708   4.506   1.383
 4506TIP3   OH213474   5.470   7.071   4.418
 4506TIP3    H113475   5.446   7.155   4.457
 4506TIP3    H213476   5.530   7.093   4.347
 4507TIP3   OH213477   6.774   6.106   1.586
 4507TIP3    H113478   6.680   6.087   1.576
 4507TIP3    H213479   6.796   6.071   1.672
 4508TIP3   OH213480   0.481   0.847   2.343
 4508TIP3    H113481   0.464   0.826   2.251
 4508TIP3    H213482   0.492   0.942   2.344
 4509TIP3   OH213483   4.004   0.876   0.988
 4509TIP3    H113484   4.001   0.781   0.978
 4509TIP3    H213485   3.929   0.896   1.044
 4510TIP3   OH213486   1.361   4.122   5.101
 4510TIP3    H113487   1.344   4.085   5.188
 4510TIP3    H213488   1.437   4.074   5.070
 4511TIP3   OH213489   4.096   1.551   5.299
 4511TIP3    H113490   4.179   1.552   5.345
 4511TIP3    H213491   4.063   1.462   5.310
 4512TIP3   OH213492   2.190   7.314   3.117
 4512TIP3    H113493   2.201   7.274   3.203
 4512TIP3    H213494   2.142   7.396   3.135
 4513TIP3   OH213495   4.357   0.928   1.479
 4513TIP3    H113496   4.364   1.023   1.492
 4513TIP3    H213497   4.406   0.890   1.552
 4514TIP3   OH213498   8.266   3.788   2.682
 4514TIP3    H113499   8.183   3.836   2.690
 4514TIP3    H213500   8.240   3.696   2.674
 4515TIP3   OH213501   4.682   4.146   0.452
 4515TIP3    H113502   4.724   4.176   0.372
 4515TIP3    H213503   4.735   4.071   0.480
 4516TIP3   OH213504   3.312   1.853   1.290
 4516TIP3    H113505   3.407   1.855   1.280
 4516TIP3    H213506   3.283   1.784   1.231
 4517TIP3   OH213507   6.100   6.124   4.942
 4517TIP3    H113508   6.048   6.184   4.888
 4517TIP3    H213509   6.044   6.105   5.017
 4518TIP3   OH213510   2.028   7.899   3.368
 4518TIP3    H113511   2.081   7.834   3.413
 4518TIP3    H213512   1.977   7.849   3.305
 4519TIP3   OH213513   2.439   0.218   5.401
 4519TIP3    H113514   2.437   0.216   5.497
 4519TIP3    H213515   2.389   0.295   5.377
 4520TIP3   OH213516   4.621   6.939   5.616
 4520TIP3    H113517   4.637   6.880   5.543
 4520TIP3    H213518   4.525   6.940   5.626
 4521TIP3   OH213519   2.591   4.630   1.384
 4521TIP3    H113520   2.542   4.555   1.350
 4521TIP3    H213521   2.527   4.701   1.385
 4522TIP3   OH213522   4.788   4.526   4.187
 4522TIP3    H113523   4.852   4.541   4.117
 4522TIP3    H213524   4.810   4.591   4.254
 4523TIP3   OH213525   5.650   3.973   6.648
 4523TIP3    H113526   5.649   4.068   6.662
 4523TIP3    H213527   5.742   3.950   6.639
 4524TIP3   OH213528   0.192   5.215   4.450
 4524TIP3    H113529   0.129   5.154   4.413
 4524TIP3    H213530   0.266   5.160   4.476
 4525TIP3   OH213531   7.847   7.061   6.232
 4525TIP3    H113532   7.774   7.123   6.236
 4525TIP3    H213533   7.836   7.016   6.148
 4526TIP3   OH213534   4.829   3.158   5.292
 4526TIP3    H113535   4.878   3.085   5.255
 4526TIP3    H213536   4.888   3.233   5.284
 4527TIP3   OH213537   6.256   7.259   4.679
 4527TIP3    H113538   6.209   7.231   4.601
 4527TIP3    H213539   6.348   7.241   4.659
 4528TIP3   OH213540   1.307   7.593   5.262
 4528TIP3    H113541   1.294   7.592   5.168
 4528TIP3    H213542   1.221   7.569   5.298
 4529TIP3   OH213543   1.464   3.180   5.375
 4529TIP3    H113544   1.479   3.166   5.282
 4529TIP3    H213545   1.550   3.170   5.416
 4530TIP3   OH213546   6.328   0.445   3.795
 4530TIP3    H113547   6.337   0.430   3.889
 4530TIP3    H213548   6.262   0.383   3.767
 4531TIP3   OH213549   3.578   7.539   5.051
 4531TIP3    H113550   3.511   7.507   4.990
 4531TIP3    H213551   3.572   7.479   5.126
 4532TIP3   OH213552   7.244   6.041   4.249
 4532TIP3    H113553   7.151   6.062   4.257
 4532TIP3    H213554   7.282   6.119   4.209
 4533TIP3   OH213555   1.072   6.489   0.206
 4533TIP3    H113556   0.997   6.547   0.195
 4533TIP3    H213557   1.038   6.413   0.252
 4534TIP3   OH213558   4.829   3.927   4.664
 4534TIP3    H113559   4.907   3.977   4.639
 4534TIP3    H213560   4.859   3.836   4.667
 4535TIP3   OH213561   0.330   6.125   6.681
 4535TIP3    H113562   0.328   6.118   6.777
 4535TIP3    H213563   0.415   6.165   6.661
 4536TIP3   OH213564   0.670   2.079   4.161
 4536TIP3    H113565   0.727   2.002   4.156
 4536TIP3    H213566   0.593   2.048   4.209
 4537TIP3   OH213567   6.753   3.463   3.077
 4537TIP3    H113568   6.766   3.369   3.073
 4537TIP3    H213569   6.666   3.477   3.037
 4538TIP3   OH213570   6.542   3.736   0.723
 4538TIP3    H113571   6.479   3.805   0.704
 4538TIP3    H213572   6.625   3.782   0.736
 4539TIP3   OH213573   5.671   0.543   2.842
 4539TIP3    H113574   5.662   0.480   2.770
 4539TIP3    H213575   5.764   0.566   2.842
 4540TIP3   OH213576   8.166   1.074   1.999
 4540TIP3    H113577   8.251   1.049   2.034
 4540TIP3    H213578   8.106   1.062   2.073
 4541TIP3   OH213579   0.460   1.819   6.141
 4541TIP3    H113580   0.389   1.782   6.089
 4541TIP3    H213581   0.429   1.812   6.231
 4542TIP3   OH213582   6.427   5.034   5.014
 4542TIP3    H113583   6.484   4.996   5.081
 4542TIP3    H213584   6.340   5.034   5.054
 4543TIP3   OH213585   2.313   4.644   1.622
 4543TIP3    H113586   2.219   4.651   1.611
 4543TIP3    H213587   2.326   4.563   1.672
 4544TIP3   OH213588   5.729   0.972   3.883
 4544TIP3    H113589   5.766   0.916   3.815
 4544TIP3    H213590   5.795   0.972   3.953
 4545TIP3   OH213591   5.811   2.087   6.557
 4545TIP3    H113592   5.889   2.136   6.583
 4545TIP3    H213593   5.805   2.100   6.463
 4546TIP3   OH213594   3.796   3.028   4.275
 4546TIP3    H113595   3.856   2.954   4.287
 4546TIP3    H213596   3.827   3.072   4.196
 4547TIP3   OH213597   1.584   7.276   3.858
 4547TIP3    H113598   1.647   7.242   3.794
 4547TIP3    H213599   1.633   7.343   3.906
 4548TIP3   OH213600   5.818   7.188   2.349
 4548TIP3    H113601   5.751   7.170   2.284
 4548TIP3    H213602   5.891   7.130   2.326
 4549TIP3   OH213603   4.528   2.753   1.329
 4549TIP3    H113604   4.500   2.821   1.390
 4549TIP3    H213605   4.550   2.679   1.386
 4550TIP3   OH213606   0.381   7.395   4.328
 4550TIP3    H113607   0.366   7.341   4.405
 4550TIP3    H213608   0.470   7.373   4.300
 4551TIP3   OH213609   2.459   2.489   0.377
 4551TIP3    H113610   2.513   2.555   0.421
 4551TIP3    H213611   2.374   2.495   0.421
 4552TIP3   OH213612   6.867   1.571   1.774
 4552TIP3    H113613   6.890   1.484   1.804
 4552TIP3    H213614   6.879   1.627   1.850
 4553TIP3   OH213615   5.255   5.712   6.660
 4553TIP3    H113616   5.336   5.747   6.695
 4553TIP3    H213617   5.217   5.663   6.733
 4554TIP3   OH213618   5.078   4.703   4.883
 4554TIP3    H113619   5.045   4.786   4.847
 4554TIP3    H213620   5.027   4.691   4.963
 4555TIP3   OH213621   0.819   5.480   4.232
 4555TIP3    H113622   0.874   5.413   4.273
 4555TIP3    H213623   0.802   5.543   4.302
 4556TIP3   OH213624   0.802   1.989   2.007
 4556TIP3    H113625   0.823   1.911   1.956
 4556TIP3    H213626   0.878   2.047   1.995
 4557TIP3   OH213627   1.320   4.743   3.314
 4557TIP3    H113628   1.286   4.829   3.340
 4557TIP3    H213629   1.389   4.763   3.251
 4558TIP3   OH213630   2.114   2.353   2.515
 4558TIP3    H113631   2.180   2.308   2.567
 4558TIP3    H213632   2.074   2.283   2.462
 4559TIP3   OH213633   1.513   2.211   3.541
 4559TIP3    H113634   1.419   2.206   3.528
 4559TIP3    H213635   1.527   2.173   3.628
 4560TIP3   OH213636   5.142   2.331   2.230
 4560TIP3    H113637   5.051   2.333   2.199
 4560TIP3    H213638   5.143   2.394   2.303
 4561TIP3   OH213639   0.230   1.082   0.651
 4561TIP3    H113640   0.219   1.006   0.708
 4561TIP3    H213641   0.303   1.060   0.594
 4562TIP3   OH213642   1.234   6.225   0.451
 4562TIP3    H113643   1.181   6.174   0.513
 4562TIP3    H213644   1.255   6.305   0.498
 4563TIP3   OH213645   6.344   0.527   1.319
 4563TIP3    H113646   6.409   0.464   1.350
 4563TIP3    H213647   6.287   0.475   1.261
 4564TIP3   OH213648   7.557   1.576   1.634
 4564TIP3    H113649   7.619   1.647   1.622
 4564TIP3    H213650   7.502   1.604   1.707
 4565TIP3   OH213651   4.501   1.959   6.179
 4565TIP3    H113652   4.562   2.032   6.162
 4565TIP3    H213653   4.415   1.999   6.179
 4566TIP3   OH213654   4.607   5.286   2.309
 4566TIP3    H113655   4.628   5.310   2.219
 4566TIP3    H213656   4.567   5.365   2.346
 4567TIP3   OH213657   1.022   2.529   6.115
 4567TIP3    H113658   1.000   2.522   6.022
 4567TIP3    H213659   1.032   2.439   6.144
 4568TIP3   OH213660   4.187   0.117   1.934
 4568TIP3    H113661   4.120   0.135   1.868
 4568TIP3    H213662   4.144   0.134   2.018
 4569TIP3   OH213663   0.469   4.975   1.534
 4569TIP3    H113664   0.499   4.962   1.624
 4569TIP3    H213665   0.547   4.962   1.481
 4570TIP3   OH213666   6.863   3.333   4.985
 4570TIP3    H113667   6.871   3.370   4.897
 4570TIP3    H213668   6.921   3.257   4.984
 4571TIP3   OH213669   3.353   2.492   1.168
 4571TIP3    H113670   3.297   2.556   1.124
 4571TIP3    H213671   3.360   2.523   1.258
 4572TIP3   OH213672   4.883   5.588   5.456
 4572TIP3    H113673   4.855   5.596   5.365
 4572TIP3    H213674   4.864   5.496   5.479
 4573TIP3   OH213675   4.714   3.893   1.137
 4573TIP3    H113676   4.797   3.920   1.097
 4573TIP3    H213677   4.650   3.899   1.066
 4574TIP3   OH213678   1.464   6.605   3.140
 4574TIP3    H113679   1.543   6.656   3.122
 4574TIP3    H213680   1.393   6.661   3.109
 4575TIP3   OH213681   1.587   3.940   4.864
 4575TIP3    H113682   1.664   3.945   4.807
 4575TIP3    H213683   1.619   3.968   4.950
 4576TIP3   OH213684   7.035   3.209   2.417
 4576TIP3    H113685   7.014   3.158   2.339
 4576TIP3    H213686   7.027   3.300   2.388
 4577TIP3   OH213687   3.228   1.318   2.426
 4577TIP3    H113688   3.181   1.365   2.494
 4577TIP3    H213689   3.279   1.386   2.380
 4578TIP3   OH213690   5.223   2.253   6.556
 4578TIP3    H113691   5.130   2.272   6.542
 4578TIP3    H213692   5.233   2.249   6.652
 4579TIP3   OH213693   6.222   4.049   5.211
 4579TIP3    H113694   6.210   3.955   5.220
 4579TIP3    H213695   6.181   4.071   5.127
 4580TIP3   OH213696   2.901   6.965   2.317
 4580TIP3    H113697   2.891   6.896   2.382
 4580TIP3    H213698   2.929   6.919   2.237
 4581TIP3   OH213699   7.795   1.179   2.385
 4581TIP3    H113700   7.800   1.244   2.455
 4581TIP3    H213701   7.774   1.230   2.307
 4582TIP3   OH213702   2.531   5.540   0.392
 4582TIP3    H113703   2.597   5.471   0.397
 4582TIP3    H213704   2.528   5.563   0.299
 4583TIP3   OH213705   2.149   4.957   4.182
 4583TIP3    H113706   2.195   4.889   4.133
 4583TIP3    H213707   2.088   4.995   4.118
 4584TIP3   OH213708   7.743   0.720   6.590
 4584TIP3    H113709   7.787   0.747   6.671
 4584TIP3    H213710   7.793   0.644   6.561
 4585TIP3   OH213711   1.570   5.960   0.744
 4585TIP3    H113712   1.547   5.893   0.680
 4585TIP3    H213713   1.567   5.914   0.828
 4586TIP3   OH213714   7.485   4.623   4.282
 4586TIP3    H113715   7.514   4.630   4.373
 4586TIP3    H213716   7.475   4.714   4.254
 4587TIP3   OH213717   3.547   0.079   6.189
 4587TIP3    H113718   3.508   0.045   6.108
 4587TIP3    H213719   3.521   0.017   6.256
 4588TIP3   OH213720   6.668   5.216   0.181
 4588TIP3    H113721   6.605   5.152   0.149
 4588TIP3    H213722   6.625   5.258   0.255
 4589TIP3   OH213723   4.757   4.894   2.279
 4589TIP3    H113724   4.691   4.963   2.279
 4589TIP3    H213725   4.829   4.929   2.331
 4590TIP3   OH213726   7.181   6.704   6.253
 4590TIP3    H113727   7.132   6.626   6.225
 4590TIP3    H213728   7.271   6.685   6.227
 4591TIP3   OH213729   4.571   5.015   2.054
 4591TIP3    H113730   4.541   4.937   2.007
 4591TIP3    H213731   4.532   5.088   2.005
 4592TIP3   OH213732   6.109   4.371   5.649
 4592TIP3    H113733   6.180   4.435   5.643
 4592TIP3    H213734   6.030   4.423   5.635
 4593TIP3   OH213735   7.805   6.427   6.695
 4593TIP3    H113736   7.767   6.501   6.742
 4593TIP3    H213737   7.844   6.465   6.616
 4594TIP3   OH213738   4.980   6.741   2.431
 4594TIP3    H113739   5.045   6.735   2.501
 4594TIP3    H213740   4.932   6.658   2.435
 4595TIP3   OH213741   0.450   6.019   5.468
 4595TIP3    H113742   0.363   6.057   5.477
 4595TIP3    H213743   0.437   5.925   5.472
 4596TIP3   OH213744   5.193   5.261   1.655
 4596TIP3    H113745   5.282   5.263   1.619
 4596TIP3    H213746   5.201   5.212   1.737
 4597TIP3   OH213747   1.641   5.293   2.239
 4597TIP3    H113748   1.672   5.330   2.322
 4597TIP3    H213749   1.547   5.314   2.238
 4598TIP3   OH213750   2.015   2.607   2.464
 4598TIP3    H113751   2.048   2.518   2.474
 4598TIP3    H213752   1.926   2.604   2.500
 4599TIP3   OH213753   2.704   7.596   6.023
 4599TIP3    H113754   2.790   7.629   5.998
 4599TIP3    H213755   2.713   7.501   6.022
 4600TIP3   OH213756   4.830   1.323   3.398
 4600TIP3    H113757   4.753   1.317   3.341
 4600TIP3    H213758   4.905   1.321   3.338
 4601TIP3   OH213759   7.871   2.753   3.940
 4601TIP3    H113760   7.809   2.685   3.967
 4601TIP3    H213761   7.816   2.826   3.911
 4602TIP3   OH213762   6.502   7.202   3.811
 4602TIP3    H113763   6.451   7.277   3.841
 4602TIP3    H213764   6.453   7.168   3.736
 4603TIP3   OH213765   4.732   2.255   3.482
 4603TIP3    H113766   4.700   2.243   3.393
 4603TIP3    H213767   4.804   2.317   3.474
 4604TIP3   OH213768   4.978   7.352   2.772
 4604TIP3    H113769   5.052   7.403   2.740
 4604TIP3    H213770   5.013   7.303   2.846
 4605TIP3   OH213771   7.497   5.175   5.198
 4605TIP3    H113772   7.436   5.220   5.140
 4605TIP3    H213773   7.579   5.223   5.188
 4606TIP3   OH213774   5.980   5.563   2.417
 4606TIP3    H113775   5.976   5.551   2.512
 4606TIP3    H213776   6.011   5.653   2.406
 4607TIP3   OH213777   6.491   2.472   1.074
 4607TIP3    H113778   6.559   2.539   1.066
 4607TIP3    H213779   6.477   2.464   1.169
 4608TIP3   OH213780   5.689   3.234   2.106
 4608TIP3    H113781   5.709   3.312   2.158
 4608TIP3    H213782   5.761   3.228   2.043
 4609TIP3   OH213783   4.625   3.108   5.953
 4609TIP3    H113784   4.542   3.093   5.908
 4609TIP3    H213785   4.664   3.182   5.907
 4610TIP3   OH213786   4.411   5.692   4.742
 4610TIP3    H113787   4.350   5.730   4.679
 4610TIP3    H213788   4.378   5.603   4.757
 4611TIP3   OH213789   1.159   5.030   5.665
 4611TIP3    H113790   1.167   5.093   5.594
 4611TIP3    H213791   1.248   5.019   5.698
 4612TIP3   OH213792   0.656   6.692   6.023
 4612TIP3    H113793   0.684   6.612   5.980
 4612TIP3    H213794   0.692   6.685   6.112
 4613TIP3   OH213795   2.826   0.642   6.258
 4613TIP3    H113796   2.913   0.604   6.275
 4613TIP3    H213797   2.808   0.695   6.335
 4614TIP3   OH213798   7.998   1.237   4.564
 4614TIP3    H113799   8.038   1.317   4.529
 4614TIP3    H213800   7.909   1.238   4.531
 4615TIP3   OH213801   6.461   5.781   3.200
 4615TIP3    H113802   6.377   5.798   3.157
 4615TIP3    H213803   6.524   5.835   3.151
 4616TIP3   OH213804   0.151   3.417   6.789
 4616TIP3    H113805   0.080   3.482   6.783
 4616TIP3    H213806   0.109   3.334   6.766
 4617TIP3   OH213807   6.237   3.309   5.795
 4617TIP3    H113808   6.319   3.358   5.788
 4617TIP3    H213809   6.239   3.271   5.883
 4618TIP3   OH213810   1.628   5.118   0.926
 4618TIP3    H113811   1.575   5.150   0.853
 4618TIP3    H213812   1.626   5.023   0.919
 4619TIP3   OH213813   2.493   7.229   3.918
 4619TIP3    H113814   2.417   7.199   3.868
 4619TIP3    H213815   2.545   7.150   3.931
 4620TIP3   OH213816   0.658   4.677   3.715
 4620TIP3    H113817   0.696   4.680   3.627
 4620TIP3    H213818   0.733   4.661   3.772
 4621TIP3   OH213819   0.554   6.555   1.658
 4621TIP3    H113820   0.512   6.477   1.694
 4621TIP3    H213821   0.514   6.628   1.705
 4622TIP3   OH213822   4.382   0.786   5.482
 4622TIP3    H113823   4.401   0.728   5.409
 4622TIP3    H213824   4.459   0.842   5.489
 4623TIP3   OH213825   4.154   1.189   6.133
 4623TIP3    H113826   4.114   1.276   6.121
 4623TIP3    H213827   4.186   1.190   6.224
 4624TIP3   OH213828   7.174   0.299   3.937
 4624TIP3    H113829   7.088   0.271   3.971
 4624TIP3    H213830   7.235   0.236   3.976
 4625TIP3   OH213831   1.449   6.374   2.318
 4625TIP3    H113832   1.520   6.388   2.381
 4625TIP3    H213833   1.403   6.458   2.316
 4626TIP3   OH213834   1.861   1.110   1.245
 4626TIP3    H113835   1.953   1.118   1.220
 4626TIP3    H213836   1.834   1.200   1.266
 4627TIP3   OH213837   5.398   6.111   5.760
 4627TIP3    H113838   5.373   6.138   5.848
 4627TIP3    H213839   5.450   6.184   5.727
 4628TIP3   OH213840   6.236   0.913   3.239
 4628TIP3    H113841   6.263   0.863   3.316
 4628TIP3    H213842   6.140   0.912   3.243
 4629TIP3   OH213843   7.816   6.744   1.673
 4629TIP3    H113844   7.880   6.809   1.643
 4629TIP3    H213845   7.849   6.661   1.639
 4630TIP3   OH213846   7.279   4.417   6.362
 4630TIP3    H113847   7.256   4.345   6.421
 4630TIP3    H213848   7.374   4.423   6.368
 4631TIP3   OH213849   7.211   5.791   2.426
 4631TIP3    H113850   7.238   5.853   2.359
 4631TIP3    H213851   7.290   5.775   2.477
 4632TIP3   OH213852   1.316   5.845   2.369
 4632TIP3    H113853   1.368   5.881   2.296
 4632TIP3    H213854   1.286   5.922   2.417
 4633TIP3   OH213855   0.546   4.464   2.333
 4633TIP3    H113856   0.609   4.509   2.277
 4633TIP3    H213857   0.462   4.475   2.287
 4634TIP3   OH213858   3.051   1.706   3.689
 4634TIP3    H113859   2.998   1.647   3.741
 4634TIP3    H213860   3.029   1.794   3.721
 4635TIP3   OH213861   2.348   7.673   3.317
 4635TIP3    H113862   2.297   7.627   3.251
 4635TIP3    H213863   2.284   7.695   3.386
 4636TIP3   OH213864   6.786   4.805   2.739
 4636TIP3    H113865   6.815   4.865   2.671
 4636TIP3    H213866   6.863   4.794   2.795
 4637TIP3   OH213867   5.582   1.043   4.101
 4637TIP3    H113868   5.638   1.118   4.082
 4637TIP3    H213869   5.603   0.980   4.032
 4638TIP3   OH213870   2.442   0.954   6.539
 4638TIP3    H113871   2.432   0.989   6.628
 4638TIP3    H213872   2.463   1.031   6.486
 4639TIP3   OH213873   2.047   2.222   3.565
 4639TIP3    H113874   1.959   2.194   3.591
 4639TIP3    H213875   2.034   2.310   3.530
 4640TIP3   OH213876   2.702   3.460   3.003
 4640TIP3    H113877   2.698   3.417   3.088
 4640TIP3    H213878   2.648   3.539   3.013
 4641TIP3   OH213879   7.726   7.122   3.251
 4641TIP3    H113880   7.693   7.034   3.269
 4641TIP3    H213881   7.751   7.119   3.158
 4642TIP3   OH213882   4.225   1.193   3.516
 4642TIP3    H113883   4.300   1.243   3.485
 4642TIP3    H213884   4.152   1.225   3.463
 4643TIP3   OH213885   4.866   1.871   0.697
 4643TIP3    H113886   4.942   1.841   0.747
 4643TIP3    H213887   4.840   1.795   0.645
 4644TIP3   OH213888   0.710   3.665   1.166
 4644TIP3    H113889   0.659   3.653   1.086
 4644TIP3    H213890   0.767   3.739   1.148
 4645TIP3   OH213891   4.555   0.992   5.539
 4645TIP3    H113892   4.565   1.044   5.619
 4645TIP3    H213893   4.615   1.031   5.477
 4646TIP3   OH213894   3.150   0.599   3.154
 4646TIP3    H113895   3.078   0.657   3.181
 4646TIP3    H213896   3.228   0.654   3.158
 4647TIP3   OH213897   0.326   3.634   1.084
 4647TIP3    H113898   0.339   3.709   1.142
 4647TIP3    H213899   0.244   3.594   1.113
 4648TIP3   OH213900   1.032   6.488   0.883
 4648TIP3    H113901   0.999   6.484   0.973
 4648TIP3    H213902   1.024   6.581   0.860
 4649TIP3   OH213903   0.276   6.619   0.408
 4649TIP3    H113904   0.207   6.600   0.345
 4649TIP3    H213905   0.329   6.540   0.410
 4650TIP3   OH213906   3.510   1.531   0.066
 4650TIP3    H113907   3.579   1.545   0.001
 4650TIP3    H213908   3.532   1.590   0.138
 4651TIP3   OH213909   7.189   6.658   2.568
 4651TIP3    H113910   7.232   6.724   2.513
 4651TIP3    H213911   7.142   6.708   2.634
 4652TIP3   OH213912   1.685   5.888   1.126
 4652TIP3    H113913   1.630   5.964   1.105
 4652TIP3    H213914   1.642   5.847   1.201
 4653TIP3   OH213915   3.524   1.230   3.365
 4653TIP3    H113916   3.474   1.182   3.299
 4653TIP3    H213917   3.608   1.184   3.369
 4654TIP3   OH213918   6.975   1.694   4.026
 4654TIP3    H113919   7.008   1.775   3.986
 4654TIP3    H213920   6.988   1.707   4.120
 4655TIP3   OH213921   0.497   7.277   6.113
 4655TIP3    H113922   0.424   7.250   6.056
 4655TIP3    H213923   0.464   7.353   6.160
 4656TIP3   OH213924   5.179   4.807   0.111
 4656TIP3    H113925   5.196   4.876   0.176
 4656TIP3    H213926   5.261   4.800   0.062
 4657TIP3   OH213927   2.879   3.410   1.310
 4657TIP3    H113928   2.804   3.465   1.287
 4657TIP3    H213929   2.954   3.454   1.270
 4658TIP3   OH213930   7.044   1.317   4.732
 4658TIP3    H113931   7.038   1.252   4.802
 4658TIP3    H213932   7.067   1.267   4.654
 4659TIP3   OH213933   4.643   2.368   6.255
 4659TIP3    H113934   4.549   2.350   6.252
 4659TIP3    H213935   4.650   2.449   6.305
 4660TIP3   OH213936   0.963   1.779   5.502
 4660TIP3    H113937   0.996   1.822   5.581
 4660TIP3    H213938   1.040   1.733   5.467
 4661TIP3   OH213939   2.662   7.407   4.117
 4661TIP3    H113940   2.655   7.502   4.127
 4661TIP3    H213941   2.752   7.392   4.088
 4662TIP3   OH213942   8.152   6.551   0.818
 4662TIP3    H113943   8.171   6.585   0.731
 4662TIP3    H213944   8.057   6.545   0.821
 4663TIP3   OH213945   7.746   7.416   6.487
 4663TIP3    H113946   7.840   7.428   6.472
 4663TIP3    H213947   7.738   7.415   6.582
 4664TIP3   OH213948   5.113   6.160   2.776
 4664TIP3    H113949   5.197   6.123   2.802
 4664TIP3    H213950   5.136   6.236   2.722
 4665TIP3   OH213951   0.238   1.714   5.998
 4665TIP3    H113952   0.187   1.723   5.917
 4665TIP3    H213953   0.217   1.626   6.030
 4666TIP3   OH213954   5.377   3.312   2.520
 4666TIP3    H113955   5.416   3.271   2.597
 4666TIP3    H213956   5.295   3.264   2.507
 4667TIP3   OH213957   1.724   3.987   2.236
 4667TIP3    H113958   1.745   4.058   2.297
 4667TIP3    H213959   1.655   3.937   2.280
 4668TIP3   OH213960   8.289   6.417   1.426
 4668TIP3    H113961   8.255   6.465   1.350
 4668TIP3    H213962   8.255   6.328   1.415
 4669TIP3   OH213963   4.869   6.054   3.166
 4669TIP3    H113964   4.819   6.016   3.094
 4669TIP3    H213965   4.804   6.079   3.231
 4670TIP3   OH213966   4.056   2.614   4.857
 4670TIP3    H113967   4.083   2.704   4.876
 4670TIP3    H213968   4.093   2.562   4.928
 4671TIP3   OH213969   3.538   3.567   6.487
 4671TIP3    H113970   3.526   3.545   6.579
 4671TIP3    H213971   3.615   3.624   6.486
 4672TIP3   OH213972   1.492   4.574   6.388
 4672TIP3    H113973   1.416   4.519   6.411
 4672TIP3    H213974   1.540   4.522   6.324
 4673TIP3   OH213975   5.756   7.713   6.566
 4673TIP3    H113976   5.693   7.670   6.508
 4673TIP3    H213977   5.761   7.655   6.642
 4674TIP3   OH213978   2.909   2.834   2.931
 4674TIP3    H113979   2.865   2.874   3.006
 4674TIP3    H213980   2.868   2.748   2.921
 4675TIP3   OH213981   2.575   5.773   0.523
 4675TIP3    H113982   2.583   5.688   0.479
 4675TIP3    H213983   2.498   5.813   0.484
 4676TIP3   OH213984   7.537   6.115   5.904
 4676TIP3    H113985   7.558   6.198   5.859
 4676TIP3    H213986   7.442   6.114   5.910
 4677TIP3   OH213987   6.168   6.205   4.302
 4677TIP3    H113988   6.250   6.219   4.255
 4677TIP3    H213989   6.100   6.224   4.238
 4678TIP3   OH213990   6.464   7.133   0.785
 4678TIP3    H113991   6.454   7.045   0.821
 4678TIP3    H213992   6.375   7.163   0.769
 4679TIP3   OH213993   7.167   2.295   1.896
 4679TIP3    H113994   7.075   2.277   1.878
 4679TIP3    H213995   7.207   2.208   1.907
 4680TIP3   OH213996   6.567   0.926   0.755
 4680TIP3    H113997   6.600   0.934   0.844
 4680TIP3    H213998   6.513   1.003   0.742
 4681TIP3   OH213999   2.187   5.642   6.295
 4681TIP3    H114000   2.102   5.604   6.273
 4681TIP3    H214001   2.250   5.591   6.244
 4682TIP3   OH214002   0.697   0.431   0.187
 4682TIP3    H114003   0.635   0.504   0.196
 4682TIP3    H214004   0.773   0.470   0.144
 4683TIP3   OH214005   2.658   0.279   4.393
 4683TIP3    H114006   2.705   0.229   4.460
 4683TIP3    H214007   2.714   0.272   4.315
 4684TIP3   OH214008   0.058   4.611   1.611
 4684TIP3    H114009   0.132   4.669   1.625
 4684TIP3    H214010   0.078   4.565   1.530
 4685TIP3   OH214011   3.204   7.289   6.569
 4685TIP3    H114012   3.182   7.379   6.593
 4685TIP3    H214013   3.282   7.297   6.514
 4686TIP3   OH214014   7.836   4.013   3.771
 4686TIP3    H114015   7.760   4.004   3.715
 4686TIP3    H214016   7.837   4.106   3.795
 4687TIP3   OH214017   7.213   6.423   2.082
 4687TIP3    H114018   7.280   6.392   2.021
 4687TIP3    H214019   7.259   6.436   2.165
 4688TIP3   OH214020   3.176   2.304   3.507
 4688TIP3    H114021   3.131   2.356   3.574
 4688TIP3    H214022   3.263   2.287   3.543
 4689TIP3   OH214023   8.116   6.477   4.558
 4689TIP3    H114024   8.140   6.479   4.466
 4689TIP3    H214025   8.173   6.409   4.596
 4690TIP3   OH214026   5.340   3.058   3.201
 4690TIP3    H114027   5.282   3.019   3.137
 4690TIP3    H214028   5.422   3.010   3.193
 4691TIP3   OH214029   1.964   6.424   1.750
 4691TIP3    H114030   1.919   6.418   1.834
 4691TIP3    H214031   2.050   6.385   1.766
 4692TIP3   OH214032   3.302   5.496   0.064
 4692TIP3    H114033   3.297   5.478   0.158
 4692TIP3    H214034   3.229   5.555   0.047
 4693TIP3   OH214035   1.532   7.798   5.565
 4693TIP3    H114036   1.541   7.798   5.469
 4693TIP3    H214037   1.607   7.848   5.596
 4694TIP3   OH214038   4.436   1.255   2.360
 4694TIP3    H114039   4.495   1.205   2.303
 4694TIP3    H214040   4.373   1.295   2.300
 4695TIP3   OH214041   2.955   0.942   5.833
 4695TIP3    H114042   2.957   0.908   5.922
 4695TIP3    H214043   3.024   1.009   5.832
 4696TIP3   OH214044   5.142   6.893   3.534
 4696TIP3    H114045   5.172   6.950   3.605
 4696TIP3    H214046   5.194   6.813   3.544
 4697TIP3   OH214047   4.823   2.652   0.015
 4697TIP3    H114048   4.750   2.637  -0.045
 4697TIP3    H214049   4.835   2.568   0.060
 4698TIP3   OH214050   2.780   6.566   1.780
 4698TIP3    H114051   2.841   6.635   1.806
 4698TIP3    H214052   2.807   6.541   1.692
 4699TIP3   OH214053   6.178   2.654   0.188
 4699TIP3    H114054   6.100   2.692   0.230
 4699TIP3    H214055   6.228   2.730   0.159
 4700TIP3   OH214056   2.775   3.361   4.889
 4700TIP3    H114057   2.847   3.388   4.833
 4700TIP3    H214058   2.810   3.364   4.978
 4701TIP3   OH214059   1.612   1.809   6.065
 4701TIP3    H114060   1.596   1.903   6.055
 4701TIP3    H214061   1.619   1.776   5.975
 4702TIP3   OH214062   7.923   0.527   1.722
 4702TIP3    H114063   7.864   0.590   1.681
 4702TIP3    H214064   7.947   0.467   1.651
 4703TIP3   OH214065   4.161   2.728   5.859
 4703TIP3    H114066   4.188   2.673   5.786
 4703TIP3    H214067   4.120   2.804   5.819
 4704TIP3   OH214068   7.547   7.371   3.586
 4704TIP3    H114069   7.535   7.350   3.494
 4704TIP3    H214070   7.461   7.355   3.626
 4705TIP3   OH214071   1.797   2.557   2.626
 4705TIP3    H114072   1.838   2.492   2.682
 4705TIP3    H214073   1.704   2.532   2.624
 4706TIP3   OH214074   6.477   1.661   3.079
 4706TIP3    H114075   6.566   1.697   3.073
 4706TIP3    H214076   6.488   1.568   3.062
 4707TIP3   OH214077   3.478   3.959   1.187
 4707TIP3    H114078   3.480   3.896   1.259
 4707TIP3    H214079   3.544   3.929   1.126
 4708TIP3   OH214080   1.399   7.380   0.675
 4708TIP3    H114081   1.436   7.450   0.622
 4708TIP3    H214082   1.451   7.380   0.755
 4709TIP3   OH214083   6.383   6.008   2.864
 4709TIP3    H114084   6.440   5.934   2.847
 4709TIP3    H214085   6.294   5.974   2.851
 4710TIP3   OH214086   3.789   2.364   1.196
 4710TIP3    H114087   3.847   2.368   1.273
 4710TIP3    H214088   3.788   2.272   1.172
 4711TIP3   OH214089   0.550   0.487   4.890
 4711TIP3    H114090   0.518   0.421   4.952
 4711TIP3    H214091   0.636   0.513   4.926
 4712TIP3   OH214092   0.687   6.051   5.882
 4712TIP3    H114093   0.752   6.086   5.943
 4712TIP3    H214094   0.612   6.027   5.937
 4713TIP3   OH214095   1.170   7.273   5.082
 4713TIP3    H114096   1.122   7.197   5.049
 4713TIP3    H214097   1.160   7.339   5.013
 4714TIP3   OH214098   0.915   3.339   2.798
 4714TIP3    H114099   0.993   3.393   2.805
 4714TIP3    H214100   0.942   3.254   2.834
 4715TIP3   OH214101   3.818   3.419   2.918
 4715TIP3    H114102   3.828   3.479   2.991
 4715TIP3    H214103   3.831   3.332   2.956
 4716TIP3   OH214104   5.968   2.602   4.428
 4716TIP3    H114105   5.925   2.540   4.368
 4716TIP3    H214106   5.910   2.678   4.429
 4717TIP3   OH214107   2.726   6.839   6.683
 4717TIP3    H114108   2.798   6.827   6.745
 4717TIP3    H214109   2.758   6.796   6.603
 4718TIP3   OH214110   6.224   7.043   0.971
 4718TIP3    H114111   6.287   7.115   0.974
 4718TIP3    H214112   6.172   7.053   1.050
 4719TIP3   OH214113   0.412   0.356   0.178
 4719TIP3    H114114   0.469   0.324   0.108
 4719TIP3    H214115   0.459   0.430   0.216
 4720TIP3   OH214116   1.306   7.648   2.165
 4720TIP3    H114117   1.363   7.643   2.241
 4720TIP3    H214118   1.293   7.557   2.139
 4721TIP3   OH214119   7.710   1.810   2.723
 4721TIP3    H114120   7.641   1.876   2.737
 4721TIP3    H214121   7.791   1.860   2.722
 4722TIP3   OH214122   8.087   2.840   3.739
 4722TIP3    H114123   8.036   2.921   3.744
 4722TIP3    H214124   8.074   2.798   3.824
 4723TIP3   OH214125   6.984   5.264   4.091
 4723TIP3    H114126   7.010   5.325   4.160
 4723TIP3    H214127   7.034   5.293   4.014
 4724TIP3   OH214128   5.186   1.903   2.233
 4724TIP3    H114129   5.198   1.823   2.284
 4724TIP3    H214130   5.271   1.917   2.191
 4725TIP3   OH214131   0.395   0.776   2.089
 4725TIP3    H114132   0.477   0.770   2.041
 4725TIP3    H214133   0.335   0.820   2.029
 4726TIP3   OH214134   2.677   4.641   3.264
 4726TIP3    H114135   2.684   4.597   3.348
 4726TIP3    H214136   2.758   4.693   3.257
 4727TIP3   OH214137   6.582   7.092   5.622
 4727TIP3    H114138   6.609   7.028   5.687
 4727TIP3    H214139   6.488   7.105   5.639
 4728TIP3   OH214140   1.876   5.674   5.007
 4728TIP3    H114141   1.795   5.717   4.982
 4728TIP3    H214142   1.849   5.590   5.044
 4729TIP3   OH214143   6.483   3.653   3.955
 4729TIP3    H114144   6.437   3.685   4.032
 4729TIP3    H214145   6.558   3.712   3.945
 4730TIP3   OH214146   8.035   0.509   2.759
 4730TIP3    H114147   8.123   0.543   2.777
 4730TIP3    H214148   7.978   0.586   2.766
 4731TIP3   OH214149   3.297   6.976   4.718
 4731TIP3    H114150   3.315   6.882   4.723
 4731TIP3    H214151   3.378   7.014   4.683
 4732TIP3   OH214152   1.489   1.254   4.753
 4732TIP3    H114153   1.423   1.189   4.732
 4732TIP3    H214154   1.474   1.326   4.692
 4733TIP3   OH214155   5.709   1.864   6.424
 4733TIP3    H114156   5.761   1.939   6.456
 4733TIP3    H214157   5.735   1.855   6.332
 4734TIP3   OH214158   7.252   4.406   3.230
 4734TIP3    H114159   7.226   4.314   3.243
 4734TIP3    H214160   7.231   4.449   3.313
 4735TIP3   OH214161   4.583   5.045   3.471
 4735TIP3    H114162   4.646   5.036   3.543
 4735TIP3    H214163   4.637   5.043   3.392
 4736TIP3   OH214164   0.950   2.071   6.100
 4736TIP3    H114165   0.939   1.977   6.114
 4736TIP3    H214166   1.040   2.080   6.069
 4737TIP3   OH214167   2.648   4.356   2.656
 4737TIP3    H114168   2.643   4.357   2.751
 4737TIP3    H214169   2.669   4.265   2.634
 4738TIP3   OH214170   0.868   5.572   1.121
 4738TIP3    H114171   0.936   5.567   1.188
 4738TIP3    H214172   0.910   5.544   1.040
 4739TIP3   OH214173   4.440   2.648   2.743
 4739TIP3    H114174   4.428   2.649   2.648
 4739TIP3    H214175   4.369   2.702   2.777
 4740TIP3   OH214176   5.926   5.210   4.406
 4740TIP3    H114177   5.848   5.262   4.383
 4740TIP3    H214178   5.984   5.273   4.449
 4741TIP3   OH214179   5.575   5.745   1.160
 4741TIP3    H114180   5.551   5.781   1.245
 4741TIP3    H214181   5.506   5.773   1.100
 4742TIP3   OH214182   2.446   2.098   1.854
 4742TIP3    H114183   2.493   2.181   1.850
 4742TIP3    H214184   2.498   2.044   1.913
 4743TIP3   OH214185   6.351   1.657   0.628
 4743TIP3    H114186   6.421   1.617   0.679
 4743TIP3    H214187   6.272   1.641   0.681
 4744TIP3   OH214188   4.367   3.083   2.800
 4744TIP3    H114189   4.317   3.154   2.761
 4744TIP3    H214190   4.454   3.120   2.814
 4745TIP3   OH214191   0.185   6.817   5.072
 4745TIP3    H114192   0.259   6.784   5.021
 4745TIP3    H214193   0.108   6.772   5.035
 4746TIP3   OH214194   5.938   3.806   3.683
 4746TIP3    H114195   5.880   3.836   3.753
 4746TIP3    H214196   5.999   3.878   3.670
 4747TIP3   OH214197   5.649   0.316   6.306
 4747TIP3    H114198   5.587   0.260   6.259
 4747TIP3    H214199   5.704   0.352   6.236
 4748TIP3   OH214200   4.111   0.899   6.420
 4748TIP3    H114201   4.168   0.882   6.345
 4748TIP3    H214202   4.170   0.904   6.495
 4749TIP3   OH214203   8.192   6.265   4.726
 4749TIP3    H114204   8.120   6.202   4.716
 4749TIP3    H214205   8.266   6.212   4.756
 4750TIP3   OH214206   2.712   2.608   6.138
 4750TIP3    H114207   2.627   2.565   6.128
 4750TIP3    H214208   2.774   2.536   6.151
 4751TIP3   OH214209   7.269   2.463   3.671
 4751TIP3    H114210   7.195   2.476   3.611
 4751TIP3    H214211   7.322   2.396   3.629
 4752TIP3   OH214212   0.658   0.554   1.707
 4752TIP3    H114213   0.747   0.586   1.722
 4752TIP3    H214214   0.602   0.630   1.719
 4753TIP3   OH214215   6.285   2.238   1.046
 4753TIP3    H114216   6.353   2.304   1.032
 4753TIP3    H214217   6.203   2.284   1.029
 4754TIP3   OH214218   5.902   3.051   2.602
 4754TIP3    H114219   5.922   3.138   2.567
 4754TIP3    H214220   5.809   3.054   2.624
 4755TIP3   OH214221   2.893   1.839   1.492
 4755TIP3    H114222   2.892   1.764   1.551
 4755TIP3    H214223   2.978   1.835   1.449
 4756TIP3   OH214224   5.175   5.418   0.964
 4756TIP3    H114225   5.120   5.472   1.021
 4756TIP3    H214226   5.249   5.475   0.942
 4757TIP3   OH214227   7.042   2.623   6.466
 4757TIP3    H114228   7.072   2.714   6.473
 4757TIP3    H214229   6.993   2.609   6.547
 4758TIP3   OH214230   2.597   4.447   6.651
 4758TIP3    H114231   2.642   4.417   6.572
 4758TIP3    H214232   2.510   4.472   6.621
 4759TIP3   OH214233   7.864   3.148   5.285
 4759TIP3    H114234   7.868   3.165   5.379
 4759TIP3    H214235   7.824   3.226   5.247
 4760TIP3   OH214236   6.319   4.684   2.745
 4760TIP3    H114237   6.270   4.696   2.827
 4760TIP3    H214238   6.309   4.767   2.698
 4761TIP3   OH214239   3.133   0.020   0.033
 4761TIP3    H114240   3.217   0.021  -0.015
 4761TIP3    H214241   3.156   0.049   0.121
 4762TIP3   OH214242   4.724   7.511   5.299
 4762TIP3    H114243   4.639   7.467   5.308
 4762TIP3    H214244   4.786   7.440   5.283
 4763TIP3   OH214245   6.451   0.912   1.053
 4763TIP3    H114246   6.435   0.833   1.002
 4763TIP3    H214247   6.373   0.922   1.108
 4764TIP3   OH214248   2.228   3.973   4.780
 4764TIP3    H114249   2.292   3.999   4.847
 4764TIP3    H214250   2.144   3.972   4.826
 4765TIP3   OH214251   0.916   3.491   2.452
 4765TIP3    H114252   0.940   3.404   2.482
 4765TIP3    H214253   0.997   3.541   2.455
 4766TIP3   OH214254   7.456   2.980   3.644
 4766TIP3    H114255   7.425   2.895   3.613
 4766TIP3    H214256   7.534   2.960   3.695
 4767TIP3   OH214257   0.707   6.888   5.032
 4767TIP3    H114258   0.633   6.841   5.071
 4767TIP3    H214259   0.774   6.887   5.100
 4768TIP3   OH214260   4.707   4.376   5.467
 4768TIP3    H114261   4.789   4.345   5.429
 4768TIP3    H214262   4.683   4.309   5.531
 4769TIP3   OH214263   7.727   3.739   2.706
 4769TIP3    H114264   7.678   3.821   2.700
 4769TIP3    H214265   7.794   3.756   2.773
 4770TIP3   OH214266   8.021   7.578   2.109
 4770TIP3    H114267   8.002   7.654   2.054
 4770TIP3    H214268   8.078   7.524   2.054
 4771TIP3   OH214269   2.062   6.054   0.979
 4771TIP3    H114270   1.998   6.014   1.037
 4771TIP3    H214271   2.139   6.067   1.035
 4772TIP3   OH214272   1.038   7.329   3.542
 4772TIP3    H114273   1.009   7.252   3.493
 4772TIP3    H214274   0.998   7.320   3.628
 4773TIP3   OH214275   0.931   4.548   0.138
 4773TIP3    H114276   0.948   4.537   0.232
 4773TIP3    H214277   0.901   4.639   0.130
 4774TIP3   OH214278   2.414   4.899   2.849
 4774TIP3    H114279   2.359   4.964   2.892
 4774TIP3    H214280   2.454   4.850   2.920
 4775TIP3   OH214281   3.274   5.595   6.577
 4775TIP3    H114282   3.349   5.549   6.537
 4775TIP3    H214283   3.297   5.602   6.670
 4776TIP3   OH214284   3.698   4.187   4.751
 4776TIP3    H114285   3.682   4.254   4.685
 4776TIP3    H214286   3.778   4.144   4.721
 4777TIP3   OH214287   6.577   0.057   3.222
 4777TIP3    H114288   6.564   0.148   3.194
 4777TIP3    H214289   6.531   0.006   3.156
 4778TIP3   OH214290   3.312   0.066   2.276
 4778TIP3    H114291   3.357   0.000   2.225
 4778TIP3    H214292   3.227   0.077   2.232
 4779TIP3   OH214293   2.225   1.387   6.649
 4779TIP3    H114294   2.164   1.396   6.577
 4779TIP3    H214295   2.222   1.294   6.672
 4780TIP3   OH214296   2.511   2.928   5.716
 4780TIP3    H114297   2.535   2.890   5.801
 4780TIP3    H214298   2.495   2.852   5.660
 4781TIP3   OH214299   1.221   2.111   6.592
 4781TIP3    H114300   1.289   2.126   6.526
 4781TIP3    H214301   1.158   2.054   6.549
 4782TIP3   OH214302   2.836   3.743   6.539
 4782TIP3    H114303   2.807   3.771   6.626
 4782TIP3    H214304   2.859   3.824   6.494
 4783TIP3   OH214305   7.354   7.101   5.063
 4783TIP3    H114306   7.272   7.077   5.020
 4783TIP3    H214307   7.411   7.130   4.992
 4784TIP3   OH214308   3.016   7.333   5.818
 4784TIP3    H114309   2.969   7.315   5.900
 4784TIP3    H214310   2.967   7.405   5.778
 4785TIP3   OH214311   2.468   0.710   1.953
 4785TIP3    H114312   2.408   0.672   2.018
 4785TIP3    H214313   2.441   0.670   1.870
 4786TIP3   OH214314   4.669   3.154   2.931
 4786TIP3    H114315   4.645   3.069   2.969
 4786TIP3    H214316   4.741   3.133   2.871
 4787TIP3   OH214317   4.540   0.448   4.296
 4787TIP3    H114318   4.458   0.491   4.271
 4787TIP3    H214319   4.516   0.358   4.314
 4788TIP3   OH214320   6.794   6.009   1.885
 4788TIP3    H114321   6.822   6.100   1.892
 4788TIP3    H214322   6.857   5.960   1.938
 4789TIP3   OH214323   4.103   4.805   6.470
 4789TIP3    H114324   4.177   4.776   6.523
 4789TIP3    H214325   4.143   4.838   6.390
 4790TIP3   OH214326   2.878   4.309   1.149
 4790TIP3    H114327   2.942   4.378   1.167
 4790TIP3    H214328   2.859   4.319   1.056
 4791TIP3   OH214329   6.311   7.247   1.751
 4791TIP3    H114330   6.298   7.222   1.659
 4791TIP3    H214331   6.384   7.193   1.780
 4792TIP3   OH214332   6.126   3.779   6.371
 4792TIP3    H114333   6.044   3.732   6.354
 4792TIP3    H214334   6.188   3.744   6.307
 4793TIP3   OH214335   5.901   3.201   1.919
 4793TIP3    H114336   5.929   3.116   1.884
 4793TIP3    H214337   5.947   3.265   1.865
 4794TIP3   OH214338   6.853   4.823   0.818
 4794TIP3    H114339   6.927   4.815   0.879
 4794TIP3    H214340   6.787   4.763   0.852
 4795TIP3   OH214341   2.766   5.071   1.536
 4795TIP3    H114342   2.745   5.131   1.607
 4795TIP3    H214343   2.859   5.085   1.519
 4796TIP3   OH214344   2.363   4.591   4.278
 4796TIP3    H114345   2.318   4.621   4.198
 4796TIP3    H214346   2.385   4.500   4.260
 4797TIP3   OH214347   5.429   4.714   1.824
 4797TIP3    H114348   5.430   4.621   1.846
 4797TIP3    H214349   5.519   4.733   1.800
 4798TIP3   OH214350   5.060   0.799   1.582
 4798TIP3    H114351   4.967   0.778   1.576
 4798TIP3    H214352   5.102   0.716   1.606
 4799TIP3   OH214353   0.056   7.848   0.691
 4799TIP3    H114354   0.024   7.760   0.669
 4799TIP3    H214355   0.133   7.833   0.745
 4800TIP3   OH214356   0.285   0.583   1.437
 4800TIP3    H114357   0.358   0.644   1.446
 4800TIP3    H214358   0.327   0.498   1.421
 4801TIP3   OH214359   3.939   5.944   0.961
 4801TIP3    H114360   3.999   5.989   0.902
 4801TIP3    H214361   3.864   5.921   0.907
 4802TIP3   OH214362   4.331   3.729   1.406
 4802TIP3    H114363   4.253   3.744   1.353
 4802TIP3    H214364   4.374   3.654   1.365
 4803TIP3   OH214365   0.629   0.203   3.318
 4803TIP3    H114366   0.635   0.170   3.408
 4803TIP3    H214367   0.537   0.227   3.307
 4804TIP3   OH214368   4.336   4.344   0.746
 4804TIP3    H114369   4.418   4.330   0.793
 4804TIP3    H214370   4.317   4.437   0.757
 4805TIP3   OH214371   6.789   4.315   5.509
 4805TIP3    H114372   6.837   4.260   5.572
 4805TIP3    H214373   6.699   4.284   5.515
 4806TIP3   OH214374   1.457   3.170   4.287
 4806TIP3    H114375   1.535   3.162   4.233
 4806TIP3    H214376   1.421   3.257   4.266
 4807TIP3   OH214377   1.806   1.985   5.604
 4807TIP3    H114378   1.734   2.025   5.653
 4807TIP3    H214379   1.884   2.004   5.656
 4808TIP3   OH214380   4.283   5.493   6.207
 4808TIP3    H114381   4.253   5.550   6.279
 4808TIP3    H214382   4.221   5.420   6.207
 4809TIP3   OH214383   4.244   4.156   4.651
 4809TIP3    H114384   4.304   4.135   4.579
 4809TIP3    H214385   4.292   4.130   4.730
 4810TIP3   OH214386   1.320   3.009   4.800
 4810TIP3    H114387   1.413   3.026   4.812
 4810TIP3    H214388   1.278   3.095   4.808
 4811TIP3   OH214389   2.358   1.685   3.752
 4811TIP3    H114390   2.361   1.781   3.749
 4811TIP3    H214391   2.443   1.658   3.717
 4812TIP3   OH214392   3.510   3.366   1.711
 4812TIP3    H114393   3.447   3.397   1.645
 4812TIP3    H214394   3.533   3.445   1.760
 4813TIP3   OH214395   1.673   0.967   3.699
 4813TIP3    H114396   1.756   0.999   3.736
 4813TIP3    H214397   1.699   0.892   3.646
 4814TIP3   OH214398   3.846   7.253   0.138
 4814TIP3    H114399   3.887   7.195   0.074
 4814TIP3    H214400   3.757   7.221   0.146
 4815TIP3   OH214401   7.050   1.876   1.094
 4815TIP3    H114402   7.082   1.966   1.085
 4815TIP3    H214403   6.998   1.876   1.174
 4816TIP3   OH214404   2.539   7.762   3.143
 4816TIP3    H114405   2.557   7.850   3.176
 4816TIP3    H214406   2.482   7.723   3.210
 4817TIP3   OH214407   7.152   0.123   6.543
 4817TIP3    H114408   7.094   0.142   6.616
 4817TIP3    H214409   7.218   0.064   6.580
 4818TIP3   OH214410   0.598   0.366   0.921
 4818TIP3    H114411   0.608   0.275   0.948
 4818TIP3    H214412   0.604   0.416   1.002
 4819TIP3   OH214413   4.009   6.108   4.305
 4819TIP3    H114414   4.058   6.054   4.242
 4819TIP3    H214415   4.069   6.121   4.378
 4820TIP3   OH214416   5.431   7.354   2.768
 4820TIP3    H114417   5.412   7.317   2.854
 4820TIP3    H214418   5.518   7.320   2.746
 4821TIP3   OH214419   1.024   5.557   4.084
 4821TIP3    H114420   1.079   5.559   4.162
 4821TIP3    H214421   0.940   5.524   4.115
 4822TIP3   OH214422   8.111   5.289   2.917
 4822TIP3    H114423   8.063   5.289   2.834
 4822TIP3    H214424   8.046   5.264   2.983
 4823TIP3   OH214425   0.361   4.548   6.351
 4823TIP3    H114426   0.350   4.462   6.311
 4823TIP3    H214427   0.456   4.559   6.360
 4824TIP3   OH214428   7.183   1.723   3.006
 4824TIP3    H114429   7.151   1.654   2.948
 4824TIP3    H214430   7.107   1.780   3.020
 4825TIP3   OH214431   4.523   4.806   1.899
 4825TIP3    H114432   4.502   4.723   1.943
 4825TIP3    H214433   4.442   4.830   1.853
 4826TIP3   OH214434   1.627   0.649   4.504
 4826TIP3    H114435   1.595   0.739   4.510
 4826TIP3    H214436   1.722   0.657   4.502
 4827TIP3   OH214437   6.817   1.696   6.268
 4827TIP3    H114438   6.888   1.652   6.222
 4827TIP3    H214439   6.834   1.789   6.255
 4828TIP3   OH214440   3.572   0.436   1.517
 4828TIP3    H114441   3.640   0.368   1.510
 4828TIP3    H214442   3.526   0.432   1.433
 4829TIP3   OH214443   1.346   6.144   4.973
 4829TIP3    H114444   1.406   6.090   5.024
 4829TIP3    H214445   1.400   6.184   4.905
 4830TIP3   OH214446   1.699   0.881   4.788
 4830TIP3    H114447   1.676   0.957   4.842
 4830TIP3    H214448   1.614   0.846   4.759
 4831TIP3   OH214449   6.693   1.770   4.573
 4831TIP3    H114450   6.694   1.762   4.478
 4831TIP3    H214451   6.609   1.733   4.600
 4832TIP3   OH214452   5.264   2.399   6.295
 4832TIP3    H114453   5.256   2.357   6.380
 4832TIP3    H214454   5.215   2.342   6.235
 4833TIP3   OH214455   4.110   0.574   0.727
 4833TIP3    H114456   4.017   0.577   0.751
 4833TIP3    H214457   4.112   0.520   0.648
 4834TIP3   OH214458   2.917   6.352   2.443
 4834TIP3    H114459   2.969   6.432   2.439
 4834TIP3    H214460   2.839   6.377   2.493
 4835TIP3   OH214461   1.109   7.009   3.459
 4835TIP3    H114462   1.180   7.073   3.455
 4835TIP3    H214463   1.153   6.925   3.472
 4836TIP3   OH214464   5.747   5.998   3.693
 4836TIP3    H114465   5.718   5.910   3.668
 4836TIP3    H214466   5.708   6.055   3.627
 4837TIP3   OH214467   3.390   0.033   3.498
 4837TIP3    H114468   3.387  -0.034   3.567
 4837TIP3    H214469   3.398   0.116   3.545
 4838TIP3   OH214470   1.354   5.955   1.551
 4838TIP3    H114471   1.373   5.891   1.619
 4838TIP3    H214472   1.261   5.943   1.531
 4839TIP3   OH214473   1.140   1.195   6.119
 4839TIP3    H114474   1.185   1.126   6.070
 4839TIP3    H214475   1.191   1.205   6.199
 4840TIP3   OH214476   5.834   2.266   3.706
 4840TIP3    H114477   5.863   2.177   3.686
 4840TIP3    H214478   5.752   2.254   3.753
 4841TIP3   OH214479   4.038   5.255   1.796
 4841TIP3    H114480   3.964   5.308   1.769
 4841TIP3    H214481   4.109   5.280   1.736
 4842TIP3   OH214482   5.347   7.513   0.020
 4842TIP3    H114483   5.389   7.504   0.105
 4842TIP3    H214484   5.418   7.540  -0.039
 4843TIP3   OH214485   0.884   1.259   0.932
 4843TIP3    H114486   0.975   1.239   0.911
 4843TIP3    H214487   0.854   1.314   0.860
 4844TIP3   OH214488   6.335   2.641   0.461
 4844TIP3    H114489   6.285   2.607   0.386
 4844TIP3    H214490   6.340   2.735   0.447
 4845TIP3   OH214491   5.507   5.835   3.439
 4845TIP3    H114492   5.457   5.858   3.517
 4845TIP3    H214493   5.447   5.782   3.386
 4846TIP3   OH214494   3.065   1.355   4.301
 4846TIP3    H114495   2.996   1.372   4.237
 4846TIP3    H214496   3.084   1.441   4.340
 4847TIP3   OH214497   5.486   7.576   3.932
 4847TIP3    H114498   5.524   7.563   4.018
 4847TIP3    H214499   5.499   7.670   3.914
 4848TIP3   OH214500   3.795   4.166   0.799
 4848TIP3    H114501   3.760   4.084   0.833
 4848TIP3    H214502   3.881   4.143   0.764
 4849TIP3   OH214503   0.876   7.600   2.176
 4849TIP3    H114504   0.929   7.645   2.110
 4849TIP3    H214505   0.799   7.656   2.187
 4850TIP3   OH214506   6.165   1.244   4.891
 4850TIP3    H114507   6.099   1.306   4.861
 4850TIP3    H214508   6.137   1.160   4.854
 4851TIP3   OH214509   6.571   2.252   0.910
 4851TIP3    H114510   6.660   2.221   0.921
 4851TIP3    H214511   6.572   2.342   0.942
 4852TIP3   OH214512   6.819   1.050   5.405
 4852TIP3    H114513   6.866   1.024   5.484
 4852TIP3    H214514   6.730   1.068   5.435
 4853TIP3   OH214515   6.415   3.806   3.457
 4853TIP3    H114516   6.414   3.743   3.385
 4853TIP3    H214517   6.486   3.866   3.434
 4854TIP3   OH214518   7.324   5.706   1.864
 4854TIP3    H114519   7.301   5.614   1.878
 4854TIP3    H214520   7.417   5.704   1.839
 4855TIP3   OH214521   0.361   0.146   4.937
 4855TIP3    H114522   0.429   0.153   4.870
 4855TIP3    H214523   0.279   0.167   4.892
 4856TIP3   OH214524   3.586   1.898   4.053
 4856TIP3    H114525   3.656   1.912   3.990
 4856TIP3    H214526   3.560   1.807   4.039
 4857TIP3   OH214527   0.618   3.828   0.271
 4857TIP3    H114528   0.683   3.862   0.332
 4857TIP3    H214529   0.670   3.798   0.196
 4858TIP3   OH214530   2.609   6.094   3.491
 4858TIP3    H114531   2.646   6.183   3.485
 4858TIP3    H214532   2.628   6.066   3.580
 4859TIP3   OH214533   1.399   4.290   1.858
 4859TIP3    H114534   1.341   4.366   1.867
 4859TIP3    H214535   1.359   4.238   1.787
 4860TIP3   OH214536   6.320   6.458   3.860
 4860TIP3    H114537   6.325   6.548   3.829
 4860TIP3    H214538   6.381   6.455   3.933
 4861TIP3   OH214539   6.892   2.286   4.222
 4861TIP3    H114540   6.807   2.244   4.229
 4861TIP3    H214541   6.944   2.246   4.292
 4862TIP3   OH214542   0.556   4.073   2.291
 4862TIP3    H114543   0.554   3.989   2.247
 4862TIP3    H214544   0.552   4.138   2.220
 4863TIP3   OH214545   8.052   0.374   3.932
 4863TIP3    H114546   8.098   0.424   4.000
 4863TIP3    H214547   7.966   0.416   3.926
 4864TIP3   OH214548   5.877   3.800   0.158
 4864TIP3    H114549   5.914   3.826   0.074
 4864TIP3    H214550   5.811   3.865   0.177
 4865TIP3   OH214551   7.169   5.106   6.437
 4865TIP3    H114552   7.251   5.137   6.476
 4865TIP3    H214553   7.111   5.182   6.440
 4866TIP3   OH214554   7.171   4.075   1.494
 4866TIP3    H114555   7.108   4.089   1.423
 4866TIP3    H214556   7.117   4.055   1.570
 4867TIP3   OH214557   1.790   7.363   5.865
 4867TIP3    H114558   1.717   7.425   5.857
 4867TIP3    H214559   1.857   7.398   5.806
 4868TIP3   OH214560   6.382   0.263   1.898
 4868TIP3    H114561   6.377   0.328   1.828
 4868TIP3    H214562   6.472   0.270   1.930
 4869TIP3   OH214563   7.249   3.915   0.665
 4869TIP3    H114564   7.242   3.833   0.617
 4869TIP3    H214565   7.342   3.920   0.689
 4870TIP3   OH214566   5.136   3.596   5.389
 4870TIP3    H114567   5.145   3.540   5.313
 4870TIP3    H214568   5.132   3.536   5.463
 4871TIP3   OH214569   5.582   4.002   1.684
 4871TIP3    H114570   5.539   3.925   1.720
 4871TIP3    H214571   5.581   4.066   1.756
 4872TIP3   OH214572   4.521   3.751   3.757
 4872TIP3    H114573   4.567   3.833   3.739
 4872TIP3    H214574   4.434   3.763   3.717
 4873TIP3   OH214575   6.775   7.456   0.489
 4873TIP3    H114576   6.847   7.482   0.431
 4873TIP3    H214577   6.811   7.384   0.541
 4874TIP3   OH214578   3.969   7.553   1.490
 4874TIP3    H114579   3.962   7.562   1.585
 4874TIP3    H214580   4.006   7.466   1.477
 4875TIP3   OH214581   0.001   4.542   4.213
 4875TIP3    H114582   0.009   4.638   4.208
 4875TIP3    H214583   0.080   4.510   4.170
 4876TIP3   OH214584   6.786   6.380   3.002
 4876TIP3    H114585   6.806   6.295   3.041
 4876TIP3    H214586   6.817   6.373   2.912
 4877TIP3   OH214587   4.042   1.840   3.700
 4877TIP3    H114588   4.058   1.750   3.674
 4877TIP3    H214589   4.129   1.874   3.722
 4878TIP3   OH214590   6.116   3.010   0.762
 4878TIP3    H114591   6.146   3.038   0.849
 4878TIP3    H214592   6.171   2.934   0.741
 4879TIP3   OH214593   0.329   3.446   0.830
 4879TIP3    H114594   0.276   3.482   0.902
 4879TIP3    H214595   0.399   3.397   0.874
 4880TIP3   OH214596   1.061   3.958   5.130
 4880TIP3    H114597   1.117   4.032   5.104
 4880TIP3    H214598   1.027   3.925   5.047
 4881TIP3   OH214599   1.350   3.956   4.387
 4881TIP3    H114600   1.406   3.988   4.316
 4881TIP3    H214601   1.409   3.911   4.447
 4882TIP3   OH214602   4.367   1.500   5.097
 4882TIP3    H114603   4.357   1.568   5.031
 4882TIP3    H214604   4.303   1.522   5.165
 4883TIP3   OH214605   3.689   6.678   4.107
 4883TIP3    H114606   3.705   6.709   4.196
 4883TIP3    H214607   3.689   6.758   4.054
 4884TIP3   OH214608   7.177   4.638   2.512
 4884TIP3    H114609   7.273   4.637   2.511
 4884TIP3    H214610   7.154   4.649   2.604
 4885TIP3   OH214611   3.993   6.747   6.016
 4885TIP3    H114612   4.039   6.817   5.971
 4885TIP3    H214613   4.060   6.681   6.034
 4886TIP3   OH214614   3.003   5.896   1.304
 4886TIP3    H114615   3.098   5.889   1.291
 4886TIP3    H214616   2.982   5.986   1.281
 4887TIP3   OH214617   3.813   3.000   2.895
 4887TIP3    H114618   3.849   3.004   2.984
 4887TIP3    H214619   3.720   2.981   2.907
 4888TIP3   OH214620   7.319   2.790   4.368
 4888TIP3    H114621   7.359   2.707   4.393
 4888TIP3    H214622   7.328   2.793   4.272
 4889TIP3   OH214623   6.215   2.991   4.631
 4889TIP3    H114624   6.217   2.923   4.565
 4889TIP3    H214625   6.210   3.073   4.581
 4890TIP3   OH214626   1.803   6.399   4.646
 4890TIP3    H114627   1.864   6.471   4.662
 4890TIP3    H214628   1.778   6.408   4.554
 4891TIP3   OH214629   5.018   1.025   5.247
 4891TIP3    H114630   4.984   1.114   5.242
 4891TIP3    H214631   5.043   1.003   5.157
 4892TIP3   OH214632   4.503   6.468   2.700
 4892TIP3    H114633   4.410   6.453   2.720
 4892TIP3    H214634   4.549   6.447   2.781
 4893TIP3   OH214635   1.099   5.832   5.122
 4893TIP3    H114636   1.155   5.785   5.184
 4893TIP3    H214637   1.026   5.772   5.106
 4894TIP3   OH214638   4.658   4.644   0.904
 4894TIP3    H114639   4.698   4.706   0.965
 4894TIP3    H214640   4.588   4.602   0.954
 4895TIP3   OH214641   0.307   0.819   5.288
 4895TIP3    H114642   0.372   0.829   5.358
 4895TIP3    H214643   0.250   0.748   5.319
 4896TIP3   OH214644   5.746   1.755   0.389
 4896TIP3    H114645   5.716   1.783   0.475
 4896TIP3    H214646   5.783   1.834   0.350
 4897TIP3   OH214647   7.066   4.693   0.103
 4897TIP3    H114648   7.069   4.788   0.115
 4897TIP3    H214649   7.053   4.658   0.192
 4898TIP3   OH214650   1.504   6.880   2.898
 4898TIP3    H114651   1.538   6.814   2.838
 4898TIP3    H214652   1.432   6.837   2.944
 4899TIP3   OH214653   7.789   5.499   3.403
 4899TIP3    H114654   7.837   5.536   3.478
 4899TIP3    H214655   7.845   5.516   3.328
 4900TIP3   OH214656   0.858   2.745   1.192
 4900TIP3    H114657   0.800   2.820   1.209
 4900TIP3    H214658   0.844   2.724   1.100
 4901TIP3   OH214659   2.909   0.245   6.679
 4901TIP3    H114660   2.931   0.335   6.655
 4901TIP3    H214661   2.850   0.216   6.610
 4902TIP3   OH214662   4.965   4.040   6.429
 4902TIP3    H114663   4.988   4.081   6.513
 4902TIP3    H214664   4.870   4.030   6.433
 4903TIP3   OH214665   3.131   3.689   2.868
 4903TIP3    H114666   3.182   3.770   2.859
 4903TIP3    H214667   3.041   3.719   2.879
 4904TIP3   OH214668   5.424   1.992   2.119
 4904TIP3    H114669   5.450   1.902   2.141
 4904TIP3    H214670   5.466   2.008   2.034
 4905TIP3   OH214671   6.232   5.532   2.716
 4905TIP3    H114672   6.312   5.523   2.767
 4905TIP3    H214673   6.252   5.492   2.632
 4906TIP3   OH214674   3.043   0.916   5.526
 4906TIP3    H114675   3.010   0.858   5.458
 4906TIP3    H214676   3.045   0.863   5.605
 4907TIP3   OH214677   6.387   7.539   6.601
 4907TIP3    H114678   6.478   7.564   6.618
 4907TIP3    H214679   6.393   7.461   6.545
 4908TIP3   OH214680   4.949   2.665   6.756
 4908TIP3    H114681   4.901   2.697   6.679
 4908TIP3    H214682   5.041   2.668   6.730
 4909TIP3   OH214683   4.813   7.459   5.608
 4909TIP3    H114684   4.816   7.412   5.691
 4909TIP3    H214685   4.825   7.391   5.542
 4910TIP3   OH214686   3.192   3.824   3.736
 4910TIP3    H114687   3.134   3.760   3.693
 4910TIP3    H214688   3.162   3.909   3.703
 4911TIP3   OH214689   2.403   3.186   1.989
 4911TIP3    H114690   2.397   3.231   1.904
 4911TIP3    H214691   2.315   3.194   2.026
 4912TIP3   OH214692   3.570   7.403   2.546
 4912TIP3    H114693   3.598   7.492   2.524
 4912TIP3    H214694   3.645   7.348   2.521
 4913TIP3   OH214695   2.153   4.051   6.215
 4913TIP3    H114696   2.103   4.089   6.287
 4913TIP3    H214697   2.208   3.984   6.255
 4914TIP3   OH214698   4.416   7.703   4.865
 4914TIP3    H114699   4.458   7.681   4.782
 4914TIP3    H214700   4.354   7.773   4.842
 4915TIP3   OH214701   2.243   7.126   2.799
 4915TIP3    H114702   2.158   7.160   2.828
 4915TIP3    H214703   2.292   7.111   2.880
 4916TIP3   OH214704   5.120   7.780   2.769
 4916TIP3    H114705   5.207   7.819   2.758
 4916TIP3    H214706   5.129   7.693   2.730
 4917TIP3   OH214707   7.975   0.036   6.335
 4917TIP3    H114708   8.060   0.034   6.292
 4917TIP3    H214709   7.931   0.113   6.298
 4918TIP3   OH214710   1.531   0.361   5.826
 4918TIP3    H114711   1.462   0.348   5.892
 4918TIP3    H214712   1.529   0.280   5.774
 4919TIP3   OH214713   3.362   5.714   3.158
 4919TIP3    H114714   3.402   5.652   3.096
 4919TIP3    H214715   3.352   5.795   3.108
 4920TIP3   OH214716   3.587   6.443   4.268
 4920TIP3    H114717   3.568   6.403   4.184
 4920TIP3    H214718   3.629   6.527   4.246
 4921TIP3   OH214719   0.846   6.476   0.428
 4921TIP3    H114720   0.772   6.535   0.436
 4921TIP3    H214721   0.870   6.455   0.518
 4922TIP3   OH214722   5.046   4.425   1.430
 4922TIP3    H114723   5.093   4.502   1.461
 4922TIP3    H214724   4.956   4.457   1.415
 4923TIP3   OH214725   4.862   0.521   5.717
 4923TIP3    H114726   4.834   0.439   5.676
 4923TIP3    H214727   4.795   0.585   5.695
 4924TIP3   OH214728   0.326   5.053   3.055
 4924TIP3    H114729   0.237   5.071   3.084
 4924TIP3    H214730   0.364   4.999   3.124
 4925TIP3   OH214731   6.100   6.299   3.256
 4925TIP3    H114732   6.034   6.272   3.192
 4925TIP3    H214733   6.091   6.235   3.327
 4926TIP3   OH214734   2.772   5.406   0.465
 4926TIP3    H114735   2.730   5.406   0.551
 4926TIP3    H214736   2.831   5.331   0.467
 4927TIP3   OH214737   7.141   4.426   4.508
 4927TIP3    H114738   7.161   4.519   4.495
 4927TIP3    H214739   7.226   4.383   4.511
 4928TIP3   OH214740   4.071   5.648   5.072
 4928TIP3    H114741   4.157   5.607   5.065
 4928TIP3    H214742   4.030   5.604   5.146
 4929TIP3   OH214743   7.459   0.980   0.561
 4929TIP3    H114744   7.371   1.016   0.555
 4929TIP3    H214745   7.517   1.053   0.538
 4930TIP3   OH214746   2.632   6.814   4.433
 4930TIP3    H114747   2.623   6.773   4.519
 4930TIP3    H214748   2.543   6.841   4.409
 4931TIP3   OH214749   4.085   7.553   3.762
 4931TIP3    H114750   4.134   7.606   3.699
 4931TIP3    H214751   3.994   7.581   3.751
 4932TIP3   OH214752   4.521   5.310   2.746
 4932TIP3    H114753   4.613   5.301   2.723
 4932TIP3    H214754   4.477   5.240   2.697
 4933TIP3   OH214755   4.315   4.705   2.139
 4933TIP3    H114756   4.280   4.794   2.137
 4933TIP3    H214757   4.406   4.715   2.164
 4934TIP3   OH214758   0.209   7.608   4.371
 4934TIP3    H114759   0.262   7.531   4.350
 4934TIP3    H214760   0.121   7.585   4.343
 4935TIP3   OH214761   1.166   3.611   5.159
 4935TIP3    H114762   1.097   3.674   5.141
 4935TIP3    H214763   1.225   3.656   5.219
 4936TIP3   OH214764   7.667   1.728   3.405
 4936TIP3    H114765   7.705   1.807   3.366
 4936TIP3    H214766   7.660   1.667   3.332
 4937TIP3   OH214767   0.459   4.763   1.201
 4937TIP3    H114768   0.379   4.797   1.243
 4937TIP3    H214769   0.518   4.838   1.199
 4938TIP3   OH214770   7.898   0.813   3.376
 4938TIP3    H114771   7.868   0.811   3.467
 4938TIP3    H214772   7.888   0.905   3.351
 4939TIP3   OH214773   3.585   3.435   0.982
 4939TIP3    H114774   3.600   3.374   0.910
 4939TIP3    H214775   3.663   3.429   1.036
 4940TIP3   OH214776   6.135   6.890   0.755
 4940TIP3    H114777   6.187   6.906   0.834
 4940TIP3    H214778   6.176   6.944   0.688
 4941TIP3   OH214779   1.003   4.296   6.058
 4941TIP3    H114780   1.016   4.388   6.034
 4941TIP3    H214781   1.007   4.249   5.975
 4942TIP3   OH214782   8.290   7.483   4.231
 4942TIP3    H114783   8.283   7.396   4.191
 4942TIP3    H214784   8.203   7.502   4.265
 4943TIP3   OH214785   3.673   2.816   3.294
 4943TIP3    H114786   3.583   2.789   3.276
 4943TIP3    H214787   3.676   2.825   3.390
 4944TIP3   OH214788   2.314   2.693   6.354
 4944TIP3    H114789   2.357   2.612   6.327
 4944TIP3    H214790   2.276   2.673   6.440
 4945TIP3   OH214791   0.061   5.964   5.014
 4945TIP3    H114792   0.060   5.881   5.062
 4945TIP3    H214793   0.017   6.026   5.072
 4946TIP3   OH214794   7.149   7.793   1.445
 4946TIP3    H114795   7.092   7.835   1.509
 4946TIP3    H214796   7.149   7.701   1.469
 4947TIP3   OH214797   6.057   5.801  -0.003
 4947TIP3    H114798   6.056   5.711   0.029
 4947TIP3    H214799   6.136   5.806  -0.058
 4948TIP3   OH214800   4.157   6.982   0.143
 4948TIP3    H114801   4.065   6.962   0.125
 4948TIP3    H214802   4.162   6.982   0.239
 4949TIP3   OH214803   7.983   6.929   5.256
 4949TIP3    H114804   8.074   6.910   5.233
 4949TIP3    H214805   7.986   6.954   5.348
 4950TIP3   OH214806   4.724   3.499   4.310
 4950TIP3    H114807   4.814   3.470   4.318
 4950TIP3    H214808   4.709   3.503   4.215
 4951TIP3   OH214809   6.173   4.278   1.995
 4951TIP3    H114810   6.117   4.241   1.927
 4951TIP3    H214811   6.114   4.292   2.069
 4952TIP3   OH214812   3.651   0.297   4.241
 4952TIP3    H114813   3.630   0.386   4.212
 4952TIP3    H214814   3.567   0.260   4.270
 4953TIP3   OH214815   3.969   4.122   4.690
 4953TIP3    H114816   3.980   4.045   4.745
 4953TIP3    H214817   4.058   4.145   4.662
 4954TIP3   OH214818   5.345   0.383   3.604
 4954TIP3    H114819   5.365   0.348   3.517
 4954TIP3    H214820   5.263   0.432   3.592
 4955TIP3   OH214821   4.658   1.121   1.732
 4955TIP3    H114822   4.688   1.195   1.785
 4955TIP3    H214823   4.579   1.090   1.776
 4956TIP3   OH214824   7.654   0.845   3.581
 4956TIP3    H114825   7.587   0.843   3.512
 4956TIP3    H214826   7.693   0.932   3.574
 4957TIP3   OH214827   3.248   3.159   3.556
 4957TIP3    H114828   3.192   3.087   3.528
 4957TIP3    H214829   3.199   3.238   3.532
 4958TIP3   OH214830   3.200   0.347   6.664
 4958TIP3    H114831   3.156   0.415   6.715
 4958TIP3    H214832   3.291   0.376   6.658
 4959TIP3   OH214833   1.505   3.208   0.984
 4959TIP3    H114834   1.472   3.282   0.932
 4959TIP3    H214835   1.462   3.217   1.068
 4960TIP3   OH214836   1.382   3.402   5.902
 4960TIP3    H114837   1.443   3.426   5.972
 4960TIP3    H214838   1.428   3.427   5.822
 4961TIP3   OH214839   7.279   6.775   5.947
 4961TIP3    H114840   7.305   6.866   5.961
 4961TIP3    H214841   7.221   6.779   5.870
 4962TIP3   OH214842   2.659   4.669   6.170
 4962TIP3    H114843   2.582   4.635   6.215
 4962TIP3    H214844   2.733   4.645   6.227
 4963TIP3   OH214845   5.979   4.701   1.296
 4963TIP3    H114846   5.959   4.632   1.232
 4963TIP3    H214847   6.049   4.752   1.256
 4964TIP3   OH214848   5.935   6.204   1.487
 4964TIP3    H114849   5.871   6.196   1.417
 4964TIP3    H214850   5.949   6.299   1.495
 4965TIP3   OH214851   1.650   0.197   2.042
 4965TIP3    H114852   1.692   0.168   2.124
 4965TIP3    H214853   1.717   0.251   1.999
 4966TIP3   OH214854   7.185   0.109   4.212
 4966TIP3    H114855   7.134   0.032   4.186
 4966TIP3    H214856   7.186   0.105   4.308
 4967TIP3   OH214857   8.116   1.402   4.162
 4967TIP3    H114858   8.054   1.443   4.223
 4967TIP3    H214859   8.202   1.415   4.203
 4968TIP3   OH214860   2.455   5.633   2.096
 4968TIP3    H114861   2.469   5.699   2.164
 4968TIP3    H214862   2.446   5.683   2.015
 4969TIP3   OH214863   3.882   6.123   3.385
 4969TIP3    H114864   3.859   6.160   3.299
 4969TIP3    H214865   3.938   6.049   3.365
 4970TIP3   OH214866   1.149   0.209   4.629
 4970TIP3    H114867   1.231   0.250   4.655
 4970TIP3    H214868   1.128   0.150   4.701
 4971TIP3   OH214869   1.875   5.296   5.294
 4971TIP3    H114870   1.847   5.213   5.334
 4971TIP3    H214871   1.963   5.310   5.330
 4972TIP3   OH214872   0.003   4.773   2.328
 4972TIP3    H114873  -0.016   4.839   2.394
 4972TIP3    H214874   0.081   4.805   2.282
 4973TIP3   OH214875   7.603   2.178   4.891
 4973TIP3    H114876   7.568   2.089   4.887
 4973TIP3    H214877   7.526   2.233   4.901
 4974TIP3   OH214878   1.002   2.636   2.988
 4974TIP3    H114879   0.948   2.695   3.039
 4974TIP3    H214880   1.079   2.688   2.965
 4975TIP3   OH214881   6.510   2.996   2.631
 4975TIP3    H114882   6.564   2.964   2.703
 4975TIP3    H214883   6.551   2.961   2.552
 4976TIP3   OH214884   6.343   7.193   3.586
 4976TIP3    H114885   6.365   7.213   3.495
 4976TIP3    H214886   6.278   7.259   3.610
 4977TIP3   OH214887   4.259   7.442   1.919
 4977TIP3    H114888   4.260   7.347   1.920
 4977TIP3    H214889   4.335   7.466   1.865
 4978TIP3   OH214890   1.545   4.982   6.479
 4978TIP3    H114891   1.490   4.952   6.406
 4978TIP3    H214892   1.582   5.065   6.449
 4979TIP3   OH214893   1.507   5.027   2.734
 4979TIP3    H114894   1.495   5.054   2.643
 4979TIP3    H214895   1.420   5.034   2.773
 4980TIP3   OH214896   6.368   5.345   5.133
 4980TIP3    H114897   6.287   5.394   5.124
 4980TIP3    H214898   6.341   5.254   5.144
 4981TIP3   OH214899   3.286   6.715   6.040
 4981TIP3    H114900   3.196   6.714   6.008
 4981TIP3    H214901   3.330   6.779   5.984
 4982TIP3   OH214902   5.206   3.919   0.428
 4982TIP3    H114903   5.117   3.886   0.415
 4982TIP3    H214904   5.262   3.843   0.414
 4983TIP3   OH214905   2.599   7.480   6.409
 4983TIP3    H114906   2.542   7.418   6.455
 4983TIP3    H214907   2.596   7.560   6.462
 4984TIP3   OH214908   7.087   3.801   5.511
 4984TIP3    H114909   7.069   3.756   5.594
 4984TIP3    H214910   7.144   3.874   5.535
 4985TIP3   OH214911   5.705   0.796   4.894
 4985TIP3    H114912   5.676   0.789   4.804
 4985TIP3    H214913   5.742   0.884   4.901
 4986TIP3   OH214914   8.252   3.275   3.192
 4986TIP3    H114915   8.330   3.321   3.222
 4986TIP3    H214916   8.242   3.203   3.253
 4987TIP3   OH214917   2.738   6.100   1.436
 4987TIP3    H114918   2.740   6.180   1.384
 4987TIP3    H214919   2.737   6.130   1.527
 4988TIP3   OH214920   8.252   1.753   1.805
 4988TIP3    H114921   8.214   1.840   1.794
 4988TIP3    H214922   8.227   1.726   1.894
 4989TIP3   OH214923   2.850   7.423   5.404
 4989TIP3    H114924   2.809   7.380   5.480
 4989TIP3    H214925   2.820   7.372   5.329
 4990TIP3   OH214926   0.406   3.034   2.156
 4990TIP3    H114927   0.467   3.077   2.217
 4990TIP3    H214928   0.375   2.958   2.204
 4991TIP3   OH214929   6.902   5.297   6.005
 4991TIP3    H114930   6.993   5.328   6.004
 4991TIP3    H214931   6.888   5.269   6.095
 4992TIP3   OH214932   4.827   2.394   0.139
 4992TIP3    H114933   4.858   2.348   0.216
 4992TIP3    H214934   4.772   2.330   0.094
 4993TIP3   OH214935   5.740   0.073   5.242
 4993TIP3    H114936   5.801   0.011   5.203
 4993TIP3    H214937   5.729   0.043   5.332
 4994TIP3   OH214938   3.247   4.746   5.358
 4994TIP3    H114939   3.320   4.799   5.326
 4994TIP3    H214940   3.282   4.700   5.434
 4995TIP3   OH214941   3.289   3.926   4.975
 4995TIP3    H114942   3.247   3.876   4.905
 4995TIP3    H214943   3.338   3.995   4.930
 4996TIP3   OH214944   3.634   2.069   5.071
 4996TIP3    H114945   3.725   2.044   5.087
 4996TIP3    H214946   3.586   2.028   5.143
 4997TIP3   OH214947   1.905   0.675   1.519
 4997TIP3    H114948   1.984   0.630   1.490
 4997TIP3    H214949   1.839   0.653   1.453
 4998TIP3   OH214950   2.343   3.082   4.612
 4998TIP3    H114951   2.432   3.117   4.615
 4998TIP3    H214952   2.337   3.026   4.689
 4999TIP3   OH214953   5.130   5.364   2.221
 4999TIP3    H114954   5.109   5.277   2.187
 4999TIP3    H214955   5.222   5.377   2.196
 5000TIP3   OH214956   5.315   7.076   6.068
 5000TIP3    H114957   5.282   7.064   6.157
 5000TIP3    H214958   5.262   7.148   6.033
 5001TIP3   OH214959   6.812   0.448   4.833
 5001TIP3    H114960   6.837   0.403   4.913
 5001TIP3    H214961   6.857   0.533   4.838
 5002TIP3   OH214962   2.563   3.269   6.003
 5002TIP3    H114963   2.627   3.199   5.997
 5002TIP3    H214964   2.603   3.333   6.062
 5003TIP3   OH214965   2.912   1.047   2.747
 5003TIP3    H114966   2.955   1.103   2.812
 5003TIP3    H214967   2.942   1.080   2.663
 5004TIP3   OH214968   2.820   7.198   3.518
 5004TIP3    H114969   2.772   7.161   3.592
 5004TIP3    H214970   2.760   7.189   3.444
 5005TIP3   OH214971   3.010   5.356   0.291
 5005TIP3    H114972   2.967   5.428   0.243
 5005TIP3    H214973   2.939   5.296   0.312
 5006TIP3   OH214974   6.027   2.211   6.668
 5006TIP3    H114975   6.031   2.301   6.637
 5006TIP3    H214976   6.031   2.219   6.764
 5007TIP3   OH214977   3.198   0.384   3.363
 5007TIP3    H114978   3.150   0.348   3.289
 5007TIP3    H214979   3.244   0.460   3.328
 5008TIP3   OH214980   0.886   6.717   3.839
 5008TIP3    H114981   0.973   6.755   3.848
 5008TIP3    H214982   0.888   6.670   3.756
 5009TIP3   OH214983   5.075   3.971   3.913
 5009TIP3    H114984   5.024   4.051   3.924
 5009TIP3    H214985   5.036   3.927   3.838
 5010TIP3   OH214986   8.298   0.972   4.385
 5010TIP3    H114987   8.366   0.927   4.436
 5010TIP3    H214988   8.235   1.003   4.450
 5011TIP3   OH214989   5.201   4.470   4.292
 5011TIP3    H114990   5.159   4.390   4.324
 5011TIP3    H214991   5.135   4.509   4.233
 5012TIP3   OH214992   6.392   6.969   2.211
 5012TIP3    H114993   6.346   7.036   2.261
 5012TIP3    H214994   6.348   6.969   2.125
 5013TIP3   OH214995   1.847   0.736   3.611
 5013TIP3    H114996   1.917   0.736   3.547
 5013TIP3    H214997   1.830   0.643   3.628
 5014TIP3   OH214998   8.057   0.113   5.443
 5014TIP3    H114999   8.004   0.170   5.499
 5014TIP3    H215000   8.048   0.026   5.482
 5015TIP3   OH215001   0.881   2.671   3.993
 5015TIP3    H115002   0.962   2.620   3.985
 5015TIP3    H215003   0.822   2.614   4.042
 5016TIP3   OH215004   0.359   7.119   3.337
 5016TIP3    H115005   0.284   7.084   3.385
 5016TIP3    H215006   0.398   7.043   3.295
 5017TIP3   OH215007   8.224   7.350   0.542
 5017TIP3    H115008   8.173   7.341   0.622
 5017TIP3    H215009   8.159   7.343   0.472
 5018TIP3   OH215010   0.245   2.388   4.909
 5018TIP3    H115011   0.294   2.426   4.982
 5018TIP3    H215012   0.237   2.296   4.931
 5019TIP3   OH215013   1.498   3.469   5.645
 5019TIP3    H115014   1.442   3.461   5.569
 5019TIP3    H215015   1.546   3.551   5.632
 5020TIP3   OH215016   6.175   2.351   4.161
 5020TIP3    H115017   6.088   2.317   4.144
 5020TIP3    H215018   6.219   2.352   4.076
 5021TIP3   OH215019   6.175   5.095   5.726
 5021TIP3    H115020   6.129   5.071   5.645
 5021TIP3    H215021   6.187   5.190   5.719
 5022TIP3   OH215022   5.330   3.264   0.915
 5022TIP3    H115023   5.361   3.338   0.968
 5022TIP3    H215024   5.336   3.188   0.973
 5023TIP3   OH215025   4.604   2.973   4.162
 5023TIP3    H115026   4.683   2.927   4.132
 5023TIP3    H215027   4.598   2.951   4.255
 5024TIP3   OH215028   1.987   1.328   4.894
 5024TIP3    H115029   1.964   1.289   4.979
 5024TIP3    H215030   1.931   1.282   4.831
 5025TIP3   OH215031   2.775   5.268   1.019
 5025TIP3    H115032   2.856   5.239   0.977
 5025TIP3    H215033   2.706   5.233   0.964
 5026TIP3   OH215034   5.089   4.587   1.024
 5026TIP3    H115035   5.012   4.532   1.040
 5026TIP3    H215036   5.055   4.658   0.969
 5027TIP3   OH215037   1.832   5.726   3.779
 5027TIP3    H115038   1.916   5.727   3.733
 5027TIP3    H215039   1.792   5.810   3.756
 5028TIP3   OH215040   4.445   5.183   5.024
 5028TIP3    H115041   4.538   5.200   5.014
 5028TIP3    H215042   4.421   5.128   4.950
 5029TIP3   OH215043   0.390   5.693   4.690
 5029TIP3    H115044   0.347   5.639   4.756
 5029TIP3    H215045   0.431   5.630   4.631
 5030TIP3   OH215046   1.554   0.075   4.849
 5030TIP3    H115047   1.646   0.061   4.825
 5030TIP3    H215048   1.550   0.053   4.942
 5031TIP3   OH215049   2.422   0.631   4.313
 5031TIP3    H115050   2.345   0.684   4.334
 5031TIP3    H215051   2.424   0.628   4.217
 5032TIP3   OH215052   1.838   2.215   4.294
 5032TIP3    H115053   1.828   2.241   4.202
 5032TIP3    H215054   1.909   2.270   4.327
 5033TIP3   OH215055   4.489   2.241   6.709
 5033TIP3    H115056   4.496   2.213   6.801
 5033TIP3    H215057   4.422   2.310   6.710
 5034TIP3   OH215058   5.662   3.590   1.498
 5034TIP3    H115059   5.650   3.646   1.574
 5034TIP3    H215060   5.604   3.515   1.513
 5035TIP3   OH215061   2.562   6.524   0.144
 5035TIP3    H115062   2.603   6.588   0.202
 5035TIP3    H215063   2.485   6.568   0.109
 5036TIP3   OH215064   7.291   4.004   6.689
 5036TIP3    H115065   7.329   4.006   6.777
 5036TIP3    H215066   7.316   4.087   6.649
 5037TIP3   OH215067   8.273   2.226   6.278
 5037TIP3    H115068   8.234   2.207   6.193
 5037TIP3    H215069   8.200   2.227   6.339
 5038TIP3   OH215070   2.551   1.113   3.666
 5038TIP3    H115071   2.522   1.047   3.730
 5038TIP3    H215072   2.629   1.152   3.706
 5039TIP3   OH215073   2.578   7.507   4.671
 5039TIP3    H115074   2.578   7.414   4.694
 5039TIP3    H215075   2.670   7.531   4.669
 5040TIP3   OH215076   4.308   6.575   4.795
 5040TIP3    H115077   4.240   6.510   4.815
 5040TIP3    H215078   4.318   6.571   4.700
 5041TIP3   OH215079   0.622   1.965   2.914
 5041TIP3    H115080   0.650   2.049   2.950
 5041TIP3    H215081   0.527   1.963   2.926
 5042TIP3   OH215082   3.740   7.499   3.133
 5042TIP3    H115083   3.714   7.522   3.222
 5042TIP3    H215084   3.709   7.409   3.121
 5043TIP3   OH215085   2.707   6.100   1.109
 5043TIP3    H115086   2.670   6.125   1.024
 5043TIP3    H215087   2.668   6.015   1.128
 5044TIP3   OH215088   0.888   6.386   0.684
 5044TIP3    H115089   0.805   6.377   0.732
 5044TIP3    H215090   0.948   6.426   0.747
 5045TIP3   OH215091   6.191   6.683   3.474
 5045TIP3    H115092   6.205   6.591   3.497
 5045TIP3    H215093   6.126   6.714   3.537
 5046TIP3   OH215094   5.871   6.710   6.483
 5046TIP3    H115095   5.880   6.647   6.412
 5046TIP3    H215096   5.794   6.762   6.460
 5047TIP3   OH215097   5.708   5.210   0.762
 5047TIP3    H115098   5.708   5.206   0.857
 5047TIP3    H215099   5.669   5.127   0.735
 5048TIP3   OH215100   3.338   1.196   0.919
 5048TIP3    H115101   3.426   1.171   0.948
 5048TIP3    H215102   3.315   1.129   0.854
 5049TIP3   OH215103   2.027   3.922   2.607
 5049TIP3    H115104   2.113   3.912   2.566
 5049TIP3    H215105   2.045   3.971   2.687
 5050TIP3   OH215106   6.872   4.954   4.525
 5050TIP3    H115107   6.887   4.911   4.609
 5050TIP3    H215108   6.947   4.928   4.471
 5051TIP3   OH215109   3.542   4.928   3.847
 5051TIP3    H115110   3.488   4.857   3.812
 5051TIP3    H215111   3.630   4.907   3.818
 5052TIP3   OH215112   8.027   2.396   1.551
 5052TIP3    H115113   8.008   2.393   1.457
 5052TIP3    H215114   8.118   2.368   1.558
 5053TIP3   OH215115   2.660   1.758   0.945
 5053TIP3    H115116   2.708   1.820   0.999
 5053TIP3    H215117   2.602   1.712   1.006
 5054TIP3   OH215118   0.888   0.191   3.199
 5054TIP3    H115119   0.803   0.193   3.242
 5054TIP3    H215120   0.919   0.281   3.201
 5055TIP3   OH215121   3.831   2.707   0.875
 5055TIP3    H115122   3.739   2.699   0.899
 5055TIP3    H215123   3.864   2.617   0.879
 5056TIP3   OH215124   0.494   0.760   1.700
 5056TIP3    H115125   0.483   0.787   1.609
 5056TIP3    H215126   0.407   0.729   1.726
 5057TIP3   OH215127   0.813   6.958   1.894
 5057TIP3    H115128   0.770   6.924   1.815
 5057TIP3    H215129   0.875   7.024   1.861
 5058TIP3   OH215130   4.081   3.094   5.029
 5058TIP3    H115131   4.167   3.134   5.023
 5058TIP3    H215132   4.029   3.155   5.081
 5059TIP3   OH215133   7.409   7.057   0.156
 5059TIP3    H115134   7.432   7.089   0.243
 5059TIP3    H215135   7.445   7.124   0.097
 5060TIP3   OH215136   8.043   3.921   2.735
 5060TIP3    H115137   7.995   3.993   2.777
 5060TIP3    H215138   8.003   3.842   2.769
 5061TIP3   OH215139   1.145   1.217   4.250
 5061TIP3    H115140   1.193   1.200   4.169
 5061TIP3    H215141   1.064   1.258   4.220
 5062TIP3   OH215142   1.978   2.172   2.919
 5062TIP3    H115143   1.954   2.080   2.910
 5062TIP3    H215144   2.048   2.172   2.985
 5063TIP3   OH215145   4.315   1.863   2.793
 5063TIP3    H115146   4.332   1.833   2.883
 5063TIP3    H215147   4.247   1.805   2.761
 5064TIP3   OH215148   8.022   6.094   0.509
 5064TIP3    H115149   7.927   6.104   0.503
 5064TIP3    H215150   8.044   6.036   0.436
 5065TIP3   OH215151   5.702   5.584   0.963
 5065TIP3    H115152   5.639   5.623   0.902
 5065TIP3    H215153   5.689   5.631   1.045
 5066TIP3   OH215154   8.182   5.178   2.232
 5066TIP3    H115155   8.124   5.201   2.305
 5066TIP3    H215156   8.225   5.260   2.210
 5067TIP3   OH215157   1.960   2.908   6.479
 5067TIP3    H115158   1.888   2.923   6.540
 5067TIP3    H215159   2.038   2.934   6.528
 5068TIP3   OH215160   2.856   0.758   2.923
 5068TIP3    H115161   2.947   0.737   2.901
 5068TIP3    H215162   2.827   0.818   2.854
 5069TIP3   OH215163   3.740   6.546   3.415
 5069TIP3    H115164   3.834   6.528   3.418
 5069TIP3    H215165   3.719   6.572   3.505
 5070TIP3   OH215166   6.211   0.373   4.241
 5070TIP3    H115167   6.269   0.386   4.166
 5070TIP3    H215168   6.126   0.406   4.213
 5071TIP3   OH215169   0.407   6.319   4.210
 5071TIP3    H115170   0.459   6.388   4.169
 5071TIP3    H215171   0.317   6.339   4.188
 5072TIP3   OH215172   1.397   0.345   6.588
 5072TIP3    H115173   1.460   0.415   6.604
 5072TIP3    H215174   1.449   0.274   6.549
 5073TIP3   OH215175   5.679   5.429   4.990
 5073TIP3    H115176   5.766   5.389   4.988
 5073TIP3    H215177   5.651   5.419   5.081
 5074TIP3   OH215178   4.224   6.037   0.516
 5074TIP3    H115179   4.294   6.091   0.481
 5074TIP3    H215180   4.212   5.967   0.452
 5075TIP3   OH215181   3.918   4.823   1.333
 5075TIP3    H115182   3.847   4.759   1.338
 5075TIP3    H215183   3.898   4.875   1.255
 5076TIP3   OH215184   2.183   5.158   6.312
 5076TIP3    H115185   2.269   5.117   6.321
 5076TIP3    H215186   2.202   5.251   6.297
 5077TIP3   OH215187   0.998   0.768   3.559
 5077TIP3    H115188   1.092   0.750   3.552
 5077TIP3    H215189   0.989   0.817   3.641
 5078TIP3   OH215190   2.878   7.524   2.960
 5078TIP3    H115191   2.892   7.611   2.921
 5078TIP3    H215192   2.875   7.465   2.885
 5079TIP3   OH215193   2.953   4.221   5.989
 5079TIP3    H115194   2.945   4.312   5.963
 5079TIP3    H215195   2.948   4.222   6.084
 5080TIP3   OH215196   7.066   0.845   6.442
 5080TIP3    H115197   7.015   0.799   6.376
 5080TIP3    H215198   7.152   0.803   6.439
 5081TIP3   OH215199   7.574   4.956   3.914
 5081TIP3    H115200   7.518   4.884   3.942
 5081TIP3    H215201   7.558   5.026   3.977
 5082TIP3   OH215202   4.905   2.486   4.020
 5082TIP3    H115203   4.903   2.391   4.017
 5082TIP3    H215204   4.922   2.507   4.112
 5083TIP3   OH215205   1.071   6.391   1.139
 5083TIP3    H115206   1.063   6.358   1.229
 5083TIP3    H215207   1.075   6.312   1.086
 5084TIP3   OH215208   5.914   3.311   3.226
 5084TIP3    H115209   5.895   3.319   3.133
 5084TIP3    H215210   5.941   3.220   3.237
 5085TIP3   OH215211   1.643   3.994   0.529
 5085TIP3    H115212   1.641   3.931   0.457
 5085TIP3    H215213   1.624   4.078   0.488
 5086TIP3   OH215214   1.246   4.790   2.004
 5086TIP3    H115215   1.266   4.860   2.066
 5086TIP3    H215216   1.150   4.793   1.995
 5087TIP3   OH215217   6.420   5.409   6.582
 5087TIP3    H115218   6.502   5.404   6.533
 5087TIP3    H215219   6.353   5.389   6.516
 5088TIP3   OH215220   4.482   2.162   2.010
 5088TIP3    H115221   4.575   2.174   1.991
 5088TIP3    H215222   4.456   2.244   2.051
 5089TIP3   OH215223   0.491   6.326   2.732
 5089TIP3    H115224   0.542   6.406   2.734
 5089TIP3    H215225   0.467   6.310   2.824
 5090TIP3   OH215226   5.935   3.349   0.926
 5090TIP3    H115227   5.983   3.288   0.983
 5090TIP3    H215228   5.997   3.368   0.855
 5091TIP3   OH215229   7.695   2.784   3.667
 5091TIP3    H115230   7.754   2.835   3.613
 5091TIP3    H215231   7.722   2.693   3.653
 5092TIP3   OH215232   4.076   2.632   6.104
 5092TIP3    H115233   4.104   2.542   6.090
 5092TIP3    H215234   4.100   2.678   6.024
 5093TIP3   OH215235   7.267   4.938   0.821
 5093TIP3    H115236   7.211   4.880   0.874
 5093TIP3    H215237   7.211   4.964   0.749
 5094TIP3   OH215238   2.722   4.483   5.742
 5094TIP3    H115239   2.739   4.407   5.687
 5094TIP3    H215240   2.796   4.487   5.802
 5095TIP3   OH215241   0.936   2.114   4.454
 5095TIP3    H115242   0.879   2.064   4.512
 5095TIP3    H215243   0.881   2.187   4.424
 5096TIP3   OH215244   7.438   2.588   0.238
 5096TIP3    H115245   7.532   2.594   0.256
 5096TIP3    H215246   7.418   2.495   0.250
 5097TIP3   OH215247   0.098   4.210   1.590
 5097TIP3    H115248   0.019   4.263   1.579
 5097TIP3    H215249   0.077   4.150   1.661
 5098TIP3   OH215250   2.064   7.843   5.705
 5098TIP3    H115251   2.083   7.750   5.714
 5098TIP3    H215252   2.109   7.883   5.780
 5099TIP3   OH215253   5.985   1.644   0.477
 5099TIP3    H115254   5.904   1.687   0.447
 5099TIP3    H215255   6.031   1.712   0.525
 5100TIP3   OH215256   2.574   6.733   1.769
 5100TIP3    H115257   2.663   6.734   1.735
 5100TIP3    H215258   2.555   6.640   1.784
 5101TIP3   OH215259   2.490   7.133   1.038
 5101TIP3    H115260   2.425   7.067   1.015
 5101TIP3    H215261   2.572   7.085   1.046
 5102TIP3   OH215262   7.102   7.424   3.996
 5102TIP3    H115263   7.035   7.369   4.036
 5102TIP3    H215264   7.096   7.507   4.044
 5103TIP3   OH215265   4.511   0.961   5.915
 5103TIP3    H115266   4.581   1.024   5.933
 5103TIP3    H215267   4.552   0.875   5.926
 5104TIP3   OH215268   6.096   3.974   0.886
 5104TIP3    H115269   6.063   4.033   0.818
 5104TIP3    H215270   6.066   4.013   0.968
 5105TIP3   OH215271   0.673   0.791   5.954
 5105TIP3    H115272   0.717   0.875   5.961
 5105TIP3    H215273   0.629   0.779   6.038
 5106TIP3   OH215274   4.566   3.236   5.213
 5106TIP3    H115275   4.534   3.232   5.303
 5106TIP3    H215276   4.661   3.227   5.221
 5107TIP3   OH215277   6.737   1.768   6.528
 5107TIP3    H115278   6.781   1.726   6.453
 5107TIP3    H215279   6.648   1.783   6.498
 5108TIP3   OH215280   7.494   0.204   1.954
 5108TIP3    H115281   7.579   0.204   1.911
 5108TIP3    H215282   7.513   0.177   2.044
 5109TIP3   OH215283   5.579   7.723   0.018
 5109TIP3    H115284   5.578   7.808   0.062
 5109TIP3    H215285   5.652   7.676   0.058
 5110TIP3   OH215286   3.376   7.753   2.494
 5110TIP3    H115287   3.472   7.745   2.489
 5110TIP3    H215288   3.352   7.795   2.411
 5111TIP3   OH215289   1.370   2.080   6.367
 5111TIP3    H115290   1.380   1.994   6.326
 5111TIP3    H215291   1.350   2.140   6.294
 5112TIP3   OH215292   0.242   7.345   4.046
 5112TIP3    H115293   0.300   7.340   4.122
 5112TIP3    H215294   0.203   7.258   4.039
 5113TIP3   OH215295   5.716   4.295   0.580
 5113TIP3    H115296   5.628   4.332   0.577
 5113TIP3    H215297   5.741   4.284   0.488
 5114TIP3   OH215298   6.620   5.313   4.511
 5114TIP3    H115299   6.525   5.324   4.515
 5114TIP3    H215300   6.636   5.225   4.543
 5115TIP3   OH215301   6.011   2.440   0.089
 5115TIP3    H115302   6.058   2.519   0.116
 5115TIP3    H215303   5.918   2.463   0.096
 5116TIP3   OH215304   0.428   7.394   2.648
 5116TIP3    H115305   0.362   7.462   2.660
 5116TIP3    H215306   0.504   7.440   2.613
 5117TIP3   OH215307   0.038   0.038   0.399
 5117TIP3    H115308  -0.002   0.034   0.312
 5117TIP3    H215309   0.077   0.125   0.403
 5118TIP3   OH215310   5.822   4.961   1.014
 5118TIP3    H115311   5.810   5.051   1.045
 5118TIP3    H215312   5.736   4.935   0.981
 5119TIP3   OH215313   0.518   3.960   1.588
 5119TIP3    H115314   0.539   3.870   1.609
 5119TIP3    H215315   0.427   3.971   1.615
 5120TIP3   OH215316   0.520   6.888   3.633
 5120TIP3    H115317   0.446   6.831   3.611
 5120TIP3    H215318   0.579   6.833   3.684
 5121TIP3   OH215319   3.482   0.279   3.634
 5121TIP3    H115320   3.511   0.294   3.724
 5121TIP3    H215321   3.443   0.362   3.607
 5122TIP3   OH215322   0.610   0.237   4.455
 5122TIP3    H115323   0.635   0.329   4.454
 5122TIP3    H215324   0.676   0.194   4.401
 5123TIP3   OH215325   2.351   3.482   4.512
 5123TIP3    H115326   2.342   3.456   4.420
 5123TIP3    H215327   2.305   3.414   4.561
 5124TIP3   OH215328   7.783   0.305   4.459
 5124TIP3    H115329   7.779   0.400   4.466
 5124TIP3    H215330   7.826   0.276   4.540
 5125TIP3   OH215331   7.371   6.641   0.424
 5125TIP3    H115332   7.369   6.614   0.516
 5125TIP3    H215333   7.326   6.571   0.377
 5126TIP3   OH215334   0.761   1.726   4.470
 5126TIP3    H115335   0.710   1.796   4.511
 5126TIP3    H215336   0.706   1.648   4.479
 5127TIP3   OH215337   6.947   2.437   1.392
 5127TIP3    H115338   7.034   2.453   1.430
 5127TIP3    H215339   6.966   2.403   1.304
 5128TIP3   OH215340   3.124   2.803   5.479
 5128TIP3    H115341   3.178   2.727   5.501
 5128TIP3    H215342   3.111   2.848   5.563
 5129TIP3   OH215343   2.693   5.672   5.900
 5129TIP3    H115344   2.682   5.767   5.897
 5129TIP3    H215345   2.784   5.658   5.926
 5130TIP3   OH215346   2.040   5.674   4.015
 5130TIP3    H115347   2.062   5.583   3.992
 5130TIP3    H215348   2.030   5.673   4.111
 5131TIP3   OH215349   0.751   3.228   0.829
 5131TIP3    H115350   0.728   3.304   0.775
 5131TIP3    H215351   0.804   3.173   0.772
 5132TIP3   OH215352   6.671   5.896   0.231
 5132TIP3    H115353   6.650   5.978   0.186
 5132TIP3    H215354   6.661   5.917   0.324
 5133TIP3   OH215355   5.903   4.489   2.016
 5133TIP3    H115356   5.904   4.422   2.084
 5133TIP3    H215357   5.859   4.447   1.942
 5134TIP3   OH215358   8.208   7.020   1.114
 5134TIP3    H115359   8.263   6.998   1.190
 5134TIP3    H215360   8.151   6.944   1.103
 5135TIP3   OH215361   3.634   6.127   4.812
 5135TIP3    H115362   3.557   6.170   4.774
 5135TIP3    H215363   3.707   6.157   4.758
 5136TIP3   OH215364   3.018   1.265   0.668
 5136TIP3    H115365   3.063   1.214   0.600
 5136TIP3    H215366   2.991   1.200   0.732
 5137TIP3   OH215367   0.810   3.782   2.647
 5137TIP3    H115368   0.890   3.791   2.596
 5137TIP3    H215369   0.839   3.754   2.734
 5138TIP3   OH215370   6.868   7.363   6.144
 5138TIP3    H115371   6.953   7.406   6.154
 5138TIP3    H215372   6.818   7.389   6.222
 5139TIP3   OH215373   6.089   6.788   4.288
 5139TIP3    H115374   6.071   6.742   4.206
 5139TIP3    H215375   6.089   6.881   4.264
 5140TIP3   OH215376   0.758   0.853   4.328
 5140TIP3    H115377   0.824   0.803   4.376
 5140TIP3    H215378   0.767   0.822   4.237
 5141TIP3   OH215379   4.740   5.068   4.262
 5141TIP3    H115380   4.765   5.031   4.347
 5141TIP3    H215381   4.718   5.159   4.281
 5142TIP3   OH215382   4.190   1.078   3.763
 5142TIP3    H115383   4.179   1.123   3.679
 5142TIP3    H215384   4.230   1.143   3.820
 5143TIP3   OH215385   7.512   6.763   0.083
 5143TIP3    H115386   7.603   6.782   0.106
 5143TIP3    H215387   7.510   6.669   0.065
 5144TIP3   OH215388   5.537   7.573   2.591
 5144TIP3    H115389   5.488   7.569   2.509
 5144TIP3    H215390   5.551   7.481   2.614
 5145TIP3   OH215391   5.284   3.292   4.901
 5145TIP3    H115392   5.271   3.210   4.947
 5145TIP3    H215393   5.198   3.315   4.867
 5146TIP3   OH215394   5.175   5.288   6.279
 5146TIP3    H115395   5.193   5.352   6.348
 5146TIP3    H215396   5.165   5.205   6.326
 5147TIP3   OH215397   2.922   3.963   6.105
 5147TIP3    H115398   2.964   4.008   6.179
 5147TIP3    H215399   2.903   4.033   6.043
 5148TIP3   OH215400   4.603   7.152   6.020
 5148TIP3    H115401   4.696   7.150   6.042
 5148TIP3    H215402   4.563   7.089   6.080
 5149TIP3   OH215403   5.263   5.872   2.617
 5149TIP3    H115404   5.202   5.861   2.690
 5149TIP3    H215405   5.346   5.895   2.659
 5150TIP3   OH215406   5.497   6.992   0.273
 5150TIP3    H115407   5.414   6.972   0.317
 5150TIP3    H215408   5.471   7.037   0.193
 5151TIP3   OH215409   6.056   6.289   4.004
 5151TIP3    H115410   5.999   6.225   3.962
 5151TIP3    H215411   6.141   6.276   3.963
 5152TIP3   OH215412   3.247   1.265   6.686
 5152TIP3    H115413   3.286   1.319   6.755
 5152TIP3    H215414   3.304   1.277   6.611
 5153TIP3   OH215415   2.761   4.821   3.539
 5153TIP3    H115416   2.839   4.840   3.487
 5153TIP3    H215417   2.723   4.743   3.498
 5154TIP3   OH215418   0.299   7.834   2.174
 5154TIP3    H115419   0.205   7.837   2.161
 5154TIP3    H215420   0.335   7.823   2.086
 5155TIP3   OH215421   4.767   3.760   6.156
 5155TIP3    H115422   4.852   3.735   6.119
 5155TIP3    H215423   4.739   3.684   6.206
 5156TIP3   OH215424   4.003   0.586   1.063
 5156TIP3    H115425   4.070   0.589   1.132
 5156TIP3    H215426   3.928   0.542   1.104
 5157TIP3   OH215427   6.546   3.792   3.062
 5157TIP3    H115428   6.622   3.822   3.113
 5157TIP3    H215429   6.583   3.731   2.998
 5158TIP3   OH215430   7.153   1.920   3.978
 5158TIP3    H115431   7.178   1.912   4.070
 5158TIP3    H215432   7.113   2.006   3.971
 5159TIP3   OH215433   4.770   2.747   4.106
 5159TIP3    H115434   4.696   2.704   4.149
 5159TIP3    H215435   4.844   2.732   4.165
 5160TIP3   OH215436   8.205   2.037   0.919
 5160TIP3    H115437   8.253   2.004   0.842
 5160TIP3    H215438   8.137   1.972   0.934
 5161TIP3   OH215439   0.454   0.258   6.411
 5161TIP3    H115440   0.510   0.335   6.399
 5161TIP3    H215441   0.503   0.201   6.470
 5162TIP3   OH215442   0.912   4.494   0.407
 5162TIP3    H115443   0.876   4.528   0.489
 5162TIP3    H215444   1.005   4.481   0.426
 5163TIP3   OH215445   0.704   4.933   1.399
 5163TIP3    H115446   0.743   5.004   1.349
 5163TIP3    H215447   0.771   4.865   1.400
 5164TIP3   OH215448   5.007   0.553   2.298
 5164TIP3    H115449   5.079   0.616   2.297
 5164TIP3    H215450   5.028   0.494   2.371
 5165TIP3   OH215451   3.747   5.245   0.409
 5165TIP3    H115452   3.746   5.338   0.387
 5165TIP3    H215453   3.758   5.242   0.504
 5166TIP3   OH215454   2.697   7.369   3.782
 5166TIP3    H115455   2.666   7.425   3.711
 5166TIP3    H215456   2.617   7.339   3.825
 5167TIP3   OH215457   1.905   7.458   3.319
 5167TIP3    H115458   1.921   7.476   3.412
 5167TIP3    H215459   1.878   7.543   3.283
 5168TIP3   OH215460   2.379   5.335   3.655
 5168TIP3    H115461   2.419   5.384   3.726
 5168TIP3    H215462   2.287   5.359   3.658
 5169TIP3   OH215463   2.175   0.922   5.716
 5169TIP3    H115464   2.111   0.864   5.759
 5169TIP3    H215465   2.233   0.950   5.787
 5170TIP3   OH215466   2.648   0.355   5.850
 5170TIP3    H115467   2.578   0.381   5.790
 5170TIP3    H215468   2.629   0.402   5.931
 5171TIP3   OH215469   7.761   1.037   5.460
 5171TIP3    H115470   7.824   0.992   5.404
 5171TIP3    H215471   7.732   0.971   5.523
 5172TIP3   OH215472   3.327   1.287   3.574
 5172TIP3    H115473   3.355   1.237   3.497
 5172TIP3    H215474   3.400   1.347   3.592
 5173TIP3   OH215475   6.477   0.112   0.856
 5173TIP3    H115476   6.568   0.085   0.866
 5173TIP3    H215477   6.481   0.206   0.837
 5174TIP3   OH215478   5.192   5.722   5.363
 5174TIP3    H115479   5.173   5.684   5.277
 5174TIP3    H215480   5.228   5.809   5.343
 5175TIP3   OH215481   7.762   6.557   5.633
 5175TIP3    H115482   7.819   6.527   5.562
 5175TIP3    H215483   7.798   6.642   5.658
 5176TIP3   OH215484   7.840   2.419   5.434
 5176TIP3    H115485   7.843   2.370   5.352
 5176TIP3    H215486   7.795   2.501   5.411
 5177TIP3   OH215487   2.132   3.423   5.955
 5177TIP3    H115488   2.086   3.351   5.914
 5177TIP3    H215489   2.214   3.431   5.906
 5178TIP3   OH215490   5.095   0.703   5.727
 5178TIP3    H115491   5.028   0.649   5.770
 5178TIP3    H215492   5.062   0.717   5.639
 5179TIP3   OH215493   3.929   4.847   2.282
 5179TIP3    H115494   3.935   4.834   2.187
 5179TIP3    H215495   4.015   4.881   2.307
 5180TIP3   OH215496   0.413   2.296   3.158
 5180TIP3    H115497   0.406   2.210   3.117
 5180TIP3    H215498   0.332   2.305   3.208
 5181TIP3   OH215499   4.509   4.162   3.724
 5181TIP3    H115500   4.574   4.096   3.700
 5181TIP3    H215501   4.543   4.201   3.804
 5182TIP3   OH215502   7.127   4.737   0.960
 5182TIP3    H115503   7.201   4.734   1.020
 5182TIP3    H215504   7.077   4.658   0.980
 5183TIP3   OH215505   6.632   3.261   6.375
 5183TIP3    H115506   6.563   3.291   6.317
 5183TIP3    H215507   6.592   3.260   6.462
 5184TIP3   OH215508   7.039   1.832   2.727
 5184TIP3    H115509   7.128   1.858   2.750
 5184TIP3    H215510   7.044   1.807   2.635
 5185TIP3   OH215511   4.273   0.739   0.575
 5185TIP3    H115512   4.260   0.685   0.497
 5185TIP3    H215513   4.213   0.702   0.640
 5186TIP3   OH215514   4.929   2.960   3.155
 5186TIP3    H115515   4.925   2.874   3.196
 5186TIP3    H215516   4.838   2.991   3.156
 5187TIP3   OH215517   0.096   2.123   0.379
 5187TIP3    H115518   0.143   2.156   0.302
 5187TIP3    H215519   0.162   2.077   0.430
 5188TIP3   OH215520   0.576   6.136   6.198
 5188TIP3    H115521   0.662   6.096   6.188
 5188TIP3    H215522   0.527   6.074   6.252
 5189TIP3   OH215523   0.277   1.195   3.048
 5189TIP3    H115524   0.346   1.153   2.996
 5189TIP3    H215525   0.325   1.252   3.108
 5190TIP3   OH215526   0.943   4.877   5.221
 5190TIP3    H115527   0.977   4.893   5.133
 5190TIP3    H215528   0.951   4.782   5.233
 5191TIP3   OH215529   1.033   0.822   4.661
 5191TIP3    H115530   1.091   0.852   4.591
 5191TIP3    H215531   1.077   0.745   4.697
 5192TIP3   OH215532   6.678   6.662   2.498
 5192TIP3    H115533   6.639   6.648   2.584
 5192TIP3    H215534   6.771   6.643   2.510
 5193TIP3   OH215535   7.978   5.639   2.772
 5193TIP3    H115536   7.892   5.605   2.795
 5193TIP3    H215537   8.013   5.576   2.709
 5194TIP3   OH215538   7.732   2.647   4.551
 5194TIP3    H115539   7.688   2.731   4.559
 5194TIP3    H215540   7.662   2.584   4.533
 5195TIP3   OH215541   7.990   6.033   6.682
 5195TIP3    H115542   7.927   5.982   6.632
 5195TIP3    H215543   8.072   5.984   6.674
 5196TIP3   OH215544   2.699   5.240   4.637
 5196TIP3    H115545   2.753   5.192   4.573
 5196TIP3    H215546   2.695   5.329   4.603
 5197TIP3   OH215547   6.473   5.020   0.071
 5197TIP3    H115548   6.448   5.028  -0.021
 5197TIP3    H215549   6.472   4.926   0.089
 5198TIP3   OH215550   8.122   5.191   1.944
 5198TIP3    H115551   8.135   5.161   2.034
 5198TIP3    H215552   8.200   5.160   1.897
 5199TIP3   OH215553   4.727   1.525   2.107
 5199TIP3    H115554   4.746   1.461   2.176
 5199TIP3    H215555   4.639   1.556   2.128
 5200TIP3   OH215556   3.572   5.564   0.086
 5200TIP3    H115557   3.482   5.555   0.056
 5200TIP3    H215558   3.566   5.624   0.160
 5201TIP3   OH215559   5.467   7.006   0.774
 5201TIP3    H115560   5.537   7.005   0.840
 5201TIP3    H215561   5.476   6.923   0.729
 5202TIP3   OH215562   6.861   2.495   6.118
 5202TIP3    H115563   6.928   2.480   6.185
 5202TIP3    H215564   6.906   2.546   6.051
 5203TIP3   OH215565   3.384   1.505   6.296
 5203TIP3    H115566   3.360   1.579   6.352
 5203TIP3    H215567   3.381   1.429   6.355
 5204TIP3   OH215568   3.980   1.945   4.416
 5204TIP3    H115569   3.934   1.950   4.500
 5204TIP3    H215570   3.944   2.018   4.365
 5205TIP3   OH215571   7.076   7.248   3.430
 5205TIP3    H115572   7.130   7.249   3.351
 5205TIP3    H215573   7.004   7.189   3.409
 5206TIP3   OH215574   7.181   4.902   3.191
 5206TIP3    H115575   7.167   4.827   3.133
 5206TIP3    H215576   7.138   4.878   3.273
 5207TIP3   OH215577   5.390   7.785   2.691
 5207TIP3    H115578   5.446   7.709   2.676
 5207TIP3    H215579   5.446   7.848   2.736
 5208TIP3   OH215580   4.189   2.598   6.371
 5208TIP3    H115581   4.242   2.674   6.396
 5208TIP3    H215582   4.135   2.629   6.299
 5209TIP3   OH215583   3.328   7.054   6.172
 5209TIP3    H115584   3.422   7.074   6.165
 5209TIP3    H215585   3.310   7.000   6.095
 5210TIP3   OH215586   0.430   4.769   2.367
 5210TIP3    H115587   0.422   4.720   2.285
 5210TIP3    H215588   0.507   4.731   2.410
 5211TIP3   OH215589   4.184   7.047   0.699
 5211TIP3    H115590   4.251   7.090   0.752
 5211TIP3    H215591   4.105   7.047   0.754
 5212TIP3   OH215592   4.304   4.077   2.378
 5212TIP3    H115593   4.365   4.053   2.449
 5212TIP3    H215594   4.269   4.162   2.405
 5213TIP3   OH215595   0.997   7.306   3.872
 5213TIP3    H115596   1.000   7.227   3.926
 5213TIP3    H215597   0.916   7.350   3.899
 5214TIP3   OH215598   4.748   1.453   0.186
 5214TIP3    H115599   4.704   1.425   0.267
 5214TIP3    H215600   4.679   1.496   0.135
 5215TIP3   OH215601   3.552   3.400   5.701
 5215TIP3    H115602   3.597   3.316   5.689
 5215TIP3    H215603   3.623   3.465   5.701
 5216TIP3   OH215604   7.258   3.200   2.921
 5216TIP3    H115605   7.181   3.188   2.976
 5216TIP3    H215606   7.255   3.292   2.895
 5217TIP3   OH215607   5.031   3.177   6.445
 5217TIP3    H115608   5.121   3.154   6.424
 5217TIP3    H215609   4.986   3.177   6.360
 5218TIP3   OH215610   8.017   6.452   4.900
 5218TIP3    H115611   8.050   6.391   4.835
 5218TIP3    H215612   8.038   6.539   4.865
 5219TIP3   OH215613   1.181   3.914   0.875
 5219TIP3    H115614   1.264   3.960   0.885
 5219TIP3    H215615   1.114   3.978   0.900
 5220TIP3   OH215616   1.686   7.455   4.033
 5220TIP3    H115617   1.688   7.548   4.007
 5220TIP3    H215618   1.662   7.456   4.125
 5221TIP3   OH215619   5.117   0.543   6.019
 5221TIP3    H115620   5.026   0.524   6.041
 5221TIP3    H215621   5.128   0.636   6.040
 5222TIP3   OH215622   5.568   2.399   2.987
 5222TIP3    H115623   5.579   2.397   3.082
 5222TIP3    H215624   5.589   2.489   2.962
 5223TIP3   OH215625   5.910   3.021   3.287
 5223TIP3    H115626   5.866   2.938   3.304
 5223TIP3    H215627   5.996   3.012   3.328
 5224TIP3   OH215628   6.943   2.694   0.745
 5224TIP3    H115629   6.966   2.780   0.711
 5224TIP3    H215630   7.027   2.654   0.768
 5225TIP3   OH215631   3.698   2.567   3.203
 5225TIP3    H115632   3.702   2.659   3.230
 5225TIP3    H215633   3.653   2.568   3.119
 5226TIP3   OH215634   7.658   7.384   2.430
 5226TIP3    H115635   7.727   7.429   2.478
 5226TIP3    H215636   7.604   7.455   2.394
 5227TIP3   OH215637   7.433   2.501   4.414
 5227TIP3    H115638   7.352   2.491   4.363
 5227TIP3    H215639   7.406   2.484   4.504
 5228TIP3   OH215640   6.974   2.855   2.728
 5228TIP3    H115641   6.936   2.811   2.652
 5228TIP3    H215642   7.069   2.853   2.711
 5229TIP3   OH215643   1.560   2.972   3.338
 5229TIP3    H115644   1.503   3.046   3.360
 5229TIP3    H215645   1.522   2.898   3.385
 5230TIP3   OH215646   2.199   6.825   3.893
 5230TIP3    H115647   2.188   6.746   3.840
 5230TIP3    H215648   2.142   6.812   3.969
 5231TIP3   OH215649   6.466   0.070   3.731
 5231TIP3    H115650   6.561   0.060   3.736
 5231TIP3    H215651   6.434   0.040   3.817
 5232TIP3   OH215652   0.119   3.444   2.895
 5232TIP3    H115653   0.155   3.452   2.983
 5232TIP3    H215654   0.194   3.422   2.841
 5233TIP3   OH215655   2.550   6.296   2.314
 5233TIP3    H115656   2.556   6.376   2.262
 5233TIP3    H215657   2.512   6.231   2.254
 5234TIP3   OH215658   4.661   2.102   1.563
 5234TIP3    H115659   4.630   2.191   1.549
 5234TIP3    H215660   4.610   2.071   1.638
 5235TIP3   OH215661   6.985   6.463   4.384
 5235TIP3    H115662   6.946   6.545   4.415
 5235TIP3    H215663   6.938   6.395   4.433
 5236TIP3   OH215664   3.967   6.305   1.995
 5236TIP3    H115665   4.021   6.364   1.943
 5236TIP3    H215666   4.026   6.232   2.018
 5237TIP3   OH215667   6.204   7.416   0.548
 5237TIP3    H115668   6.238   7.397   0.635
 5237TIP3    H215669   6.172   7.506   0.554
 5238TIP3   OH215670   4.921   7.006   3.057
 5238TIP3    H115671   4.926   7.095   3.090
 5238TIP3    H215672   4.879   7.013   2.971
 5239TIP3   OH215673   3.725   2.578   0.267
 5239TIP3    H115674   3.698   2.659   0.224
 5239TIP3    H215675   3.714   2.595   0.361
 5240TIP3   OH215676   6.052   0.278   0.323
 5240TIP3    H115677   6.029   0.186   0.336
 5240TIP3    H215678   5.969   0.324   0.334
 5241TIP3   OH215679   4.518   1.996   0.690
 5241TIP3    H115680   4.429   2.032   0.684
 5241TIP3    H215681   4.528   1.943   0.610
 5242TIP3   OH215682   5.626   5.770   1.943
 5242TIP3    H115683   5.645   5.841   1.882
 5242TIP3    H215684   5.601   5.696   1.886
 5243TIP3   OH215685   3.962   4.631   0.038
 5243TIP3    H115686   3.961   4.559  -0.025
 5243TIP3    H215687   3.990   4.590   0.121
 5244TIP3   OH215688   3.896   7.470   5.192
 5244TIP3    H115689   3.883   7.377   5.209
 5244TIP3    H215690   3.939   7.473   5.106
 5245TIP3   OH215691   0.907   3.661   3.281
 5245TIP3    H115692   0.970   3.695   3.345
 5245TIP3    H215693   0.854   3.737   3.257
 5246TIP3   OH215694   0.352   4.021   4.023
 5246TIP3    H115695   0.284   4.043   3.960
 5246TIP3    H215696   0.322   3.939   4.063
 5247TIP3   OH215697   3.949   6.874   3.240
 5247TIP3    H115698   3.922   6.962   3.211
 5247TIP3    H215699   3.995   6.890   3.322
 5248TIP3   OH215700   1.454   2.520   5.632
 5248TIP3    H115701   1.450   2.502   5.538
 5248TIP3    H215702   1.367   2.553   5.654
 5249TIP3   OH215703   3.613   4.120   2.308
 5249TIP3    H115704   3.645   4.046   2.359
 5249TIP3    H215705   3.552   4.080   2.245
 5250TIP3   OH215706   2.027   3.810   4.590
 5250TIP3    H115707   2.070   3.726   4.605
 5250TIP3    H215708   1.963   3.792   4.521
 5251TIP3   OH215709   1.670   2.051   2.794
 5251TIP3    H115710   1.745   2.111   2.789
 5251TIP3    H215711   1.646   2.051   2.886
 5252TIP3   OH215712   5.554   4.026   3.450
 5252TIP3    H115713   5.511   4.018   3.365
 5252TIP3    H215714   5.647   4.022   3.430
 5253TIP3   OH215715   8.216   7.724   0.321
 5253TIP3    H115716   8.121   7.731   0.310
 5253TIP3    H215717   8.249   7.711   0.232
 5254TIP3   OH215718   4.823   5.147   6.070
 5254TIP3    H115719   4.875   5.112   6.141
 5254TIP3    H215720   4.786   5.229   6.105
 5255TIP3   OH215721   5.932   2.563   2.683
 5255TIP3    H115722   6.009   2.551   2.627
 5255TIP3    H215723   5.860   2.525   2.633
 5256TIP3   OH215724   2.668   4.388   2.392
 5256TIP3    H115725   2.682   4.386   2.487
 5256TIP3    H215726   2.602   4.319   2.377
 5257TIP3   OH215727   4.727   7.301   2.759
 5257TIP3    H115728   4.822   7.298   2.765
 5257TIP3    H215729   4.704   7.392   2.777
 5258TIP3   OH215730   2.161   0.003   4.538
 5258TIP3    H115731   2.100   0.017   4.465
 5258TIP3    H215732   2.227   0.071   4.527
 5259TIP3   OH215733   3.547   0.564   6.782
 5259TIP3    H115734   3.503   0.633   6.733
 5259TIP3    H215735   3.635   0.597   6.798
 5260TIP3   OH215736   7.042   0.078   3.544
 5260TIP3    H115737   6.971   0.109   3.488
 5260TIP3    H215738   7.120   0.082   3.488
 5261TIP3   OH215739   3.498   6.231   2.442
 5261TIP3    H115740   3.476   6.303   2.383
 5261TIP3    H215741   3.487   6.267   2.530
 5262TIP3   OH215742   0.783   0.848   1.456
 5262TIP3    H115743   0.759   0.941   1.456
 5262TIP3    H215744   0.791   0.826   1.549
 5263TIP3   OH215745   2.452   2.963   6.528
 5263TIP3    H115746   2.522   2.965   6.593
 5263TIP3    H215747   2.481   2.900   6.462
 5264TIP3   OH215748   4.626   1.244   6.012
 5264TIP3    H115749   4.581   1.329   6.011
 5264TIP3    H215750   4.598   1.203   6.094
 5265TIP3   OH215751   1.785   2.771   5.383
 5265TIP3    H115752   1.812   2.790   5.473
 5265TIP3    H215753   1.837   2.694   5.358
 5266TIP3   OH215754   4.934   6.045   2.429
 5266TIP3    H115755   4.998   6.115   2.443
 5266TIP3    H215756   4.912   6.051   2.336
 5267TIP3   OH215757   4.240   2.372   2.485
 5267TIP3    H115758   4.210   2.334   2.403
 5267TIP3    H215759   4.162   2.412   2.523
 5268TIP3   OH215760   6.139   2.517   5.801
 5268TIP3    H115761   6.208   2.579   5.825
 5268TIP3    H215762   6.150   2.504   5.707
 5269TIP3   OH215763   4.224   6.055   3.939
 5269TIP3    H115764   4.236   5.974   3.890
 5269TIP3    H215765   4.193   6.026   4.025
 5270TIP3   OH215766   0.431   4.979   6.249
 5270TIP3    H115767   0.336   4.978   6.257
 5270TIP3    H215768   0.449   5.035   6.173
 5271TIP3   OH215769   7.779   5.782   2.193
 5271TIP3    H115770   7.852   5.794   2.132
 5271TIP3    H215771   7.809   5.714   2.253
 5272TIP3   OH215772   0.550   6.031   6.461
 5272TIP3    H115773   0.554   6.094   6.533
 5272TIP3    H215774   0.462   5.993   6.468
 5273TIP3   OH215775   2.633   7.355   6.158
 5273TIP3    H115776   2.641   7.433   6.212
 5273TIP3    H215777   2.540   7.334   6.160
 5274TIP3   OH215778   0.447   5.689   0.812
 5274TIP3    H115779   0.456   5.736   0.895
 5274TIP3    H215780   0.369   5.634   0.824
 5275TIP3   OH215781   6.433   6.230   2.716
 5275TIP3    H115782   6.418   6.153   2.771
 5275TIP3    H215783   6.475   6.293   2.775
 5276TIP3   OH215784   0.069   1.938   4.774
 5276TIP3    H115785  -0.001   2.002   4.785
 5276TIP3    H215786   0.140   1.971   4.830
 5277TIP3   OH215787   4.446   7.812   3.315
 5277TIP3    H115788   4.470   7.776   3.230
 5277TIP3    H215789   4.509   7.884   3.328
 5278TIP3   OH215790   2.359   4.421   2.933
 5278TIP3    H115791   2.360   4.473   3.013
 5278TIP3    H215792   2.293   4.354   2.948
 5279TIP3   OH215793   2.630   7.756   1.862
 5279TIP3    H115794   2.662   7.815   1.793
 5279TIP3    H215795   2.549   7.798   1.893
 5280TIP3   OH215796   4.546   4.459   3.792
 5280TIP3    H115797   4.521   4.549   3.816
 5280TIP3    H215798   4.471   4.427   3.742
 5281TIP3   OH215799   4.152   2.162   5.994
 5281TIP3    H115800   4.186   2.148   6.082
 5281TIP3    H215801   4.091   2.235   6.003
 5282TIP3   OH215802   3.538   0.604   4.814
 5282TIP3    H115803   3.613   0.649   4.775
 5282TIP3    H215804   3.576   0.541   4.875
 5283TIP3   OH215805   6.703   7.204   3.059
 5283TIP3    H115806   6.667   7.182   3.145
 5283TIP3    H215807   6.681   7.129   3.004
 5284TIP3   OH215808   5.661   7.534   1.849
 5284TIP3    H115809   5.694   7.579   1.927
 5284TIP3    H215810   5.584   7.487   1.879
 5285TIP3   OH215811   5.096   2.112   2.860
 5285TIP3    H115812   5.087   2.174   2.932
 5285TIP3    H215813   5.110   2.027   2.903
 5286TIP3   OH215814   5.163   1.371   1.994
 5286TIP3    H115815   5.246   1.389   1.950
 5286TIP3    H215816   5.182   1.381   2.088
 5287TIP3   OH215817   2.519   4.585   3.689
 5287TIP3    H115818   2.511   4.528   3.766
 5287TIP3    H215819   2.460   4.658   3.706
 5288TIP3   OH215820   3.532   3.825   5.725
 5288TIP3    H115821   3.590   3.877   5.780
 5288TIP3    H215822   3.502   3.886   5.657
 5289TIP3   OH215823   7.685   0.797   5.576
 5289TIP3    H115824   7.613   0.746   5.538
 5289TIP3    H215825   7.701   0.755   5.661
 5290TIP3   OH215826   5.691   5.134   2.228
 5290TIP3    H115827   5.752   5.191   2.182
 5290TIP3    H215828   5.610   5.139   2.177
 5291TIP3   OH215829   3.422   2.862   0.429
 5291TIP3    H115830   3.382   2.783   0.465
 5291TIP3    H215831   3.348   2.918   0.407
 5292TIP3   OH215832   6.712   0.345   5.179
 5292TIP3    H115833   6.783   0.343   5.115
 5292TIP3    H215834   6.681   0.436   5.178
 5293TIP3   OH215835   0.208   2.104   4.990
 5293TIP3    H115836   0.121   2.093   5.028
 5293TIP3    H215837   0.267   2.069   5.057
 5294TIP3   OH215838   3.205   3.070   4.331
 5294TIP3    H115839   3.285   3.105   4.293
 5294TIP3    H215840   3.233   3.028   4.413
 5295TIP3   OH215841   7.611   2.312   6.339
 5295TIP3    H115842   7.565   2.368   6.401
 5295TIP3    H215843   7.547   2.243   6.318
 5296TIP3   OH215844   4.989   5.811   3.403
 5296TIP3    H115845   4.897   5.802   3.377
 5296TIP3    H215846   5.037   5.813   3.320
 5297TIP3   OH215847   5.899   3.877   0.660
 5297TIP3    H115848   5.924   3.801   0.711
 5297TIP3    H215849   5.964   3.944   0.683
 5298TIP3   OH215850   3.834   3.849   0.195
 5298TIP3    H115851   3.782   3.773   0.222
 5298TIP3    H215852   3.797   3.874   0.110
 5299TIP3   OH215853   8.175   6.239   5.411
 5299TIP3    H115854   8.111   6.310   5.402
 5299TIP3    H215855   8.176   6.197   5.325
 5300TIP3   OH215856   6.154   4.051   6.360
 5300TIP3    H115857   6.235   4.071   6.312
 5300TIP3    H215858   6.151   3.956   6.364
 5301TIP3   OH215859   3.535   5.347   6.258
 5301TIP3    H115860   3.565   5.257   6.271
 5301TIP3    H215861   3.605   5.389   6.208
 5302TIP3   OH215862   1.241   2.080   3.553
 5302TIP3    H115863   1.208   2.066   3.464
 5302TIP3    H215864   1.190   2.154   3.586
 5303TIP3   OH215865   4.409   4.000   6.487
 5303TIP3    H115866   4.388   4.005   6.581
 5303TIP3    H215867   4.402   4.091   6.457
 5304TIP3   OH215868   5.210   6.175   1.305
 5304TIP3    H115869   5.262   6.225   1.367
 5304TIP3    H215870   5.171   6.105   1.358
 5305TIP3   OH215871   5.596   3.187   0.441
 5305TIP3    H115872   5.515   3.136   0.442
 5305TIP3    H215873   5.662   3.125   0.410
 5306TIP3   OH215874   1.300   2.153   5.878
 5306TIP3    H115875   1.282   2.152   5.784
 5306TIP3    H215876   1.327   2.244   5.895
 5307TIP3   OH215877   3.444   5.494   1.935
 5307TIP3    H115878   3.470   5.509   1.844
 5307TIP3    H215879   3.437   5.582   1.972
 5308TIP3   OH215880   7.692   7.211   5.389
 5308TIP3    H115881   7.620   7.264   5.422
 5308TIP3    H215882   7.743   7.188   5.467
 5309TIP3   OH215883   5.743   7.477   5.962
 5309TIP3    H115884   5.681   7.535   6.007
 5309TIP3    H215885   5.772   7.416   6.029
 5310TIP3   OH215886   5.443   3.004   0.091
 5310TIP3    H115887   5.467   3.096   0.085
 5310TIP3    H215888   5.393   2.997   0.173
 5311TIP3   OH215889   7.619   7.413   3.041
 5311TIP3    H115890   7.674   7.339   3.014
 5311TIP3    H215891   7.680   7.487   3.046
 5312TIP3   OH215892   1.852   4.089   2.006
 5312TIP3    H115893   1.806   4.054   2.083
 5312TIP3    H215894   1.796   4.160   1.976
 5313TIP3   OH215895   0.110   3.534   2.386
 5313TIP3    H115896   0.155   3.617   2.403
 5313TIP3    H215897   0.028   3.541   2.435
 5314TIP3   OH215898   7.931   2.415   4.169
 5314TIP3    H115899   7.857   2.389   4.114
 5314TIP3    H215900   7.915   2.372   4.253
 5315TIP3   OH215901   6.862   0.781   6.269
 5315TIP3    H115902   6.802   0.853   6.249
 5315TIP3    H215903   6.885   0.745   6.184
 5316TIP3   OH215904   7.958   2.633   2.148
 5316TIP3    H115905   7.988   2.552   2.188
 5316TIP3    H215906   7.896   2.605   2.081
 5317TIP3   OH215907   5.843   2.851   4.389
 5317TIP3    H115908   5.776   2.812   4.446
 5317TIP3    H215909   5.840   2.944   4.408
 5318TIP3   OH215910   2.634   4.612   0.195
 5318TIP3    H115911   2.649   4.669   0.270
 5318TIP3    H215912   2.614   4.526   0.233
 5319TIP3   OH215913   6.966   4.010   2.641
 5319TIP3    H115914   6.919   3.957   2.577
 5319TIP3    H215915   6.946   4.100   2.617
 5320TIP3   OH215916   0.919   3.079   0.601
 5320TIP3    H115917   0.888   3.053   0.514
 5320TIP3    H215918   0.953   3.167   0.589
 5321TIP3   OH215919   4.138   7.113   6.591
 5321TIP3    H115920   4.141   7.119   6.495
 5321TIP3    H215921   4.171   7.025   6.610
 5322TIP3   OH215922   6.781   2.335   2.071
 5322TIP3    H115923   6.869   2.372   2.066
 5322TIP3    H215924   6.779   2.286   2.153
 5323TIP3   OH215925   7.206   3.567   1.021
 5323TIP3    H115926   7.212   3.473   1.003
 5323TIP3    H215927   7.146   3.600   0.954
 5324TIP3   OH215928   3.923   0.847   4.196
 5324TIP3    H115929   3.862   0.906   4.153
 5324TIP3    H215930   3.990   0.904   4.235
 5325TIP3   OH215931   2.737   7.099   5.589
 5325TIP3    H115932   2.693   7.115   5.505
 5325TIP3    H215933   2.685   7.148   5.653
 5326TIP3   OH215934   2.609   0.849   4.424
 5326TIP3    H115935   2.536   0.844   4.485
 5326TIP3    H215936   2.676   0.792   4.462
 5327TIP3   OH215937   3.163   6.174   6.589
 5327TIP3    H115938   3.169   6.106   6.656
 5327TIP3    H215939   3.086   6.151   6.538
 5328TIP3   OH215940   7.927   0.443   0.938
 5328TIP3    H115941   7.858   0.472   0.878
 5328TIP3    H215942   7.926   0.347   0.931
 5329TIP3   OH215943   7.606   0.863   1.600
 5329TIP3    H115944   7.602   0.928   1.530
 5329TIP3    H215945   7.519   0.823   1.601
 5330TIP3   OH215946   4.711   0.188   4.369
 5330TIP3    H115947   4.744   0.114   4.419
 5330TIP3    H215948   4.667   0.147   4.294
 5331TIP3   OH215949   3.085   1.429   5.977
 5331TIP3    H115950   3.144   1.483   5.925
 5331TIP3    H215951   3.083   1.470   6.063
 5332TIP3   OH215952   2.695   5.547   5.446
 5332TIP3    H115953   2.764   5.611   5.459
 5332TIP3    H215954   2.684   5.541   5.351
 5333TIP3   OH215955   1.435   7.153   5.347
 5333TIP3    H115956   1.356   7.190   5.386
 5333TIP3    H215957   1.407   7.117   5.263
 5334TIP3   OH215958   6.522   3.028   0.296
 5334TIP3    H115959   6.526   2.988   0.383
 5334TIP3    H215960   6.548   3.119   0.311
 5335TIP3   OH215961   6.960   2.052   5.604
 5335TIP3    H115962   6.890   2.103   5.645
 5335TIP3    H215963   6.952   1.964   5.642
 5336TIP3   OH215964   8.230   4.514   2.514
 5336TIP3    H115965   8.294   4.562   2.461
 5336TIP3    H215966   8.211   4.573   2.587
 5337TIP3   OH215967   8.039   5.253   4.678
 5337TIP3    H115968   8.044   5.167   4.638
 5337TIP3    H215969   8.120   5.262   4.728
 5338TIP3   OH215970   5.972   0.246   2.394
 5338TIP3    H115971   6.020   0.225   2.314
 5338TIP3    H215972   5.933   0.163   2.421
 5339TIP3   OH215973   5.922   2.480   3.534
 5339TIP3    H115974   5.890   2.401   3.578
 5339TIP3    H215975   5.945   2.450   3.446
 5340TIP3   OH215976   4.853   7.186   6.115
 5340TIP3    H115977   4.842   7.255   6.181
 5340TIP3    H215978   4.941   7.151   6.131
 5341TIP3   OH215979   0.865   7.759   3.248
 5341TIP3    H115980   0.942   7.768   3.304
 5341TIP3    H215981   0.882   7.680   3.196
 5342TIP3   OH215982   1.797   0.105   0.080
 5342TIP3    H115983   1.754   0.176   0.032
 5342TIP3    H215984   1.829   0.047   0.011
 5343TIP3   OH215985   5.167   4.757   0.663
 5343TIP3    H115986   5.227   4.757   0.589
 5343TIP3    H215987   5.082   4.780   0.625
 5344TIP3   OH215988   2.650   6.034   3.016
 5344TIP3    H115989   2.719   5.969   3.032
 5344TIP3    H215990   2.646   6.085   3.097
 5345TIP3   OH215991   3.153   4.680   5.756
 5345TIP3    H115992   3.085   4.729   5.709
 5345TIP3    H215993   3.130   4.690   5.849
 5346TIP3   OH215994   3.538   2.019   0.328
 5346TIP3    H115995   3.575   2.103   0.356
 5346TIP3    H215996   3.512   1.976   0.409
 5347TIP3   OH215997   5.326   7.777   3.222
 5347TIP3    H115998   5.415   7.743   3.226
 5347TIP3    H215999   5.271   7.698   3.221
 5348TIP3   OH216000   2.791   5.290   1.710
 5348TIP3    H116001   2.825   5.354   1.646
 5348TIP3    H216002   2.846   5.301   1.787
 5349TIP3   OH216003   4.981   5.887   4.854
 5349TIP3    H116004   4.910   5.950   4.864
 5349TIP3    H216005   5.056   5.927   4.899
 5350TIP3   OH216006   0.277   0.298   6.100
 5350TIP3    H116007   0.237   0.245   6.170
 5350TIP3    H216008   0.347   0.346   6.143
 5351TIP3   OH216009   4.776   5.560   0.118
 5351TIP3    H116010   4.859   5.605   0.102
 5351TIP3    H216011   4.713   5.630   0.135
 5352TIP3   OH216012   5.012   5.496   4.009
 5352TIP3    H116013   5.043   5.542   3.931
 5352TIP3    H216014   4.993   5.407   3.980
 5353TIP3   OH216015   8.316   1.140   2.679
 5353TIP3    H116016   8.304   1.066   2.738
 5353TIP3    H216017   8.231   1.151   2.637
 5354TIP3   OH216018   2.986   6.942   4.965
 5354TIP3    H116019   2.985   6.874   5.032
 5354TIP3    H216020   3.075   6.976   4.965
 5355TIP3   OH216021   4.899   3.485   5.182
 5355TIP3    H116022   4.994   3.498   5.177
 5355TIP3    H216023   4.876   3.450   5.096
 5356TIP3   OH216024   4.649   0.582   0.005
 5356TIP3    H116025   4.716   0.540   0.058
 5356TIP3    H216026   4.631   0.665   0.049
 5357TIP3   OH216027   1.316   4.029   1.590
 5357TIP3    H116028   1.348   3.940   1.600
 5357TIP3    H216029   1.264   4.045   1.669
 5358TIP3   OH216030   5.948   2.722   0.312
 5358TIP3    H116031   5.854   2.726   0.300
 5358TIP3    H216032   5.961   2.655   0.379
 5359TIP3   OH216033   2.991   1.960   3.795
 5359TIP3    H116034   2.898   1.976   3.810
 5359TIP3    H216035   3.008   1.999   3.709
 5360TIP3   OH216036   2.061   0.437   3.229
 5360TIP3    H116037   2.051   0.481   3.145
 5360TIP3    H216038   1.978   0.394   3.245
 5361TIP3   OH216039   4.475   6.147   0.469
 5361TIP3    H116040   4.527   6.183   0.397
 5361TIP3    H216041   4.486   6.053   0.462
 5362TIP3   OH216042   3.966   6.655   1.763
 5362TIP3    H116043   3.886   6.705   1.782
 5362TIP3    H216044   4.010   6.706   1.695
 5363TIP3   OH216045   3.765   0.264   4.704
 5363TIP3    H116046   3.787   0.205   4.632
 5363TIP3    H216047   3.715   0.210   4.765
 5364TIP3   OH216048   6.115   2.997   1.052
 5364TIP3    H116049   6.048   2.934   1.026
 5364TIP3    H216050   6.195   2.944   1.059
 5365TIP3   OH216051   0.666   5.886   4.350
 5365TIP3    H116052   0.604   5.959   4.346
 5365TIP3    H216053   0.698   5.876   4.260
 5366TIP3   OH216054   2.690   7.004   5.945
 5366TIP3    H116055   2.722   6.946   5.876
 5366TIP3    H216056   2.709   7.092   5.913
 5367TIP3   OH216057   0.423   6.616   6.165
 5367TIP3    H116058   0.351   6.679   6.161
 5367TIP3    H216059   0.486   6.647   6.099
 5368TIP3   OH216060   7.298   5.451   1.930
 5368TIP3    H116061   7.389   5.429   1.911
 5368TIP3    H216062   7.257   5.369   1.957
 5369TIP3   OH216063   3.042   1.126   2.527
 5369TIP3    H116064   3.081   1.210   2.503
 5369TIP3    H216065   3.112   1.062   2.512
 5370TIP3   OH216066   5.284   6.654   3.613
 5370TIP3    H116067   5.254   6.564   3.601
 5370TIP3    H216068   5.370   6.657   3.570
 5371TIP3   OH216069   0.496   5.158   6.038
 5371TIP3    H116070   0.410   5.177   6.002
 5371TIP3    H216071   0.543   5.113   5.967
 5372TIP3   OH216072   2.216   1.898   0.358
 5372TIP3    H116073   2.229   1.817   0.308
 5372TIP3    H216074   2.258   1.966   0.305
 5373TIP3   OH216075   1.685   5.491   2.423
 5373TIP3    H116076   1.779   5.488   2.439
 5373TIP3    H216077   1.666   5.584   2.406
 5374TIP3   OH216078   7.096   3.988   1.147
 5374TIP3    H116079   7.180   3.946   1.163
 5374TIP3    H216080   7.110   4.040   1.069
 5375TIP3   OH216081   4.579   4.423   5.756
 5375TIP3    H116082   4.597   4.341   5.710
 5375TIP3    H216083   4.571   4.397   5.848
 5376TIP3   OH216084   6.199   7.200   5.638
 5376TIP3    H116085   6.209   7.237   5.550
 5376TIP3    H216086   6.241   7.265   5.696
 5377TIP3   OH216087   3.081   1.798   2.639
 5377TIP3    H116088   3.154   1.775   2.697
 5377TIP3    H216089   3.003   1.772   2.686
 5378TIP3   OH216090   7.476   0.559   0.942
 5378TIP3    H116091   7.500   0.614   0.868
 5378TIP3    H216092   7.508   0.472   0.919
 5379TIP3   OH216093   7.159   2.150   1.133
 5379TIP3    H116094   7.074   2.180   1.165
 5379TIP3    H216095   7.177   2.206   1.057
 5380TIP3   OH216096   7.303   6.101   6.197
 5380TIP3    H116097   7.215   6.085   6.231
 5380TIP3    H216098   7.318   6.029   6.135
 5381TIP3   OH216099   1.728   3.120   5.878
 5381TIP3    H116100   1.646   3.125   5.830
 5381TIP3    H216101   1.772   3.043   5.842
 5382TIP3   OH216102   3.928   7.210   3.325
 5382TIP3    H116103   4.015   7.168   3.326
 5382TIP3    H216104   3.945   7.300   3.352
 5383TIP3   OH216105   7.477   4.163   1.010
 5383TIP3    H116106   7.392   4.125   0.991
 5383TIP3    H216107   7.469   4.255   0.983
 5384TIP3   OH216108   7.235   7.178   5.985
 5384TIP3    H116109   7.310   7.128   5.954
 5384TIP3    H216110   7.186   7.117   6.041
 5385TIP3   OH216111   2.682   1.602   5.956
 5385TIP3    H116112   2.737   1.524   5.950
 5385TIP3    H216113   2.593   1.567   5.965
 5386TIP3   OH216114   3.408   3.696   4.738
 5386TIP3    H116115   3.428   3.605   4.760
 5386TIP3    H216116   3.469   3.747   4.792
 5387TIP3   OH216117   7.145   1.877   1.588
 5387TIP3    H116118   7.100   1.833   1.515
 5387TIP3    H216119   7.223   1.916   1.548
 5388TIP3   OH216120   1.918   4.910   0.719
 5388TIP3    H116121   1.897   4.838   0.778
 5388TIP3    H216122   1.832   4.941   0.689
 5389TIP3   OH216123   1.016   2.860   6.072
 5389TIP3    H116124   0.998   2.775   6.111
 5389TIP3    H216125   0.937   2.911   6.090
 5390TIP3   OH216126   2.201   4.671   5.705
 5390TIP3    H116127   2.243   4.757   5.714
 5390TIP3    H216128   2.270   4.614   5.670
 5391TIP3   OH216129   2.255   0.880   2.150
 5391TIP3    H116130   2.160   0.892   2.147
 5391TIP3    H216131   2.267   0.785   2.153
 5392TIP3   OH216132   0.563   2.816   1.862
 5392TIP3    H116133   0.540   2.816   1.955
 5392TIP3    H216134   0.590   2.726   1.844
 5393TIP3   OH216135   6.613   6.863   0.501
 5393TIP3    H116136   6.699   6.836   0.533
 5393TIP3    H216137   6.588   6.935   0.558
 5394TIP3   OH216138   1.597   1.636   5.832
 5394TIP3    H116139   1.590   1.588   5.749
 5394TIP3    H216140   1.685   1.615   5.864
 5395TIP3   OH216141   2.828   7.499   5.722
 5395TIP3    H116142   2.746   7.481   5.677
 5395TIP3    H216143   2.863   7.577   5.679
 5396TIP3   OH216144   1.331   7.265   2.566
 5396TIP3    H116145   1.321   7.280   2.472
 5396TIP3    H216146   1.404   7.204   2.573
 5397TIP3   OH216147   2.641   4.288   1.732
 5397TIP3    H116148   2.687   4.290   1.816
 5397TIP3    H216149   2.638   4.195   1.709
 5398TIP3   OH216150   7.491   0.655   6.643
 5398TIP3    H116151   7.464   0.697   6.726
 5398TIP3    H216152   7.573   0.698   6.620
 5399TIP3   OH216153   7.848   7.181   0.311
 5399TIP3    H116154   7.884   7.127   0.240
 5399TIP3    H216155   7.833   7.119   0.382
 5400TIP3   OH216156   8.028   4.180   0.770
 5400TIP3    H116157   7.992   4.140   0.691
 5400TIP3    H216158   7.998   4.124   0.841
 5401TIP3   OH216159   1.942   4.589   4.086
 5401TIP3    H116160   1.886   4.612   4.160
 5401TIP3    H216161   1.931   4.661   4.024
 5402TIP3   OH216162   5.776   2.327   1.231
 5402TIP3    H116163   5.728   2.271   1.291
 5402TIP3    H216164   5.713   2.396   1.208
 5403TIP3   OH216165   0.917   4.705   4.228
 5403TIP3    H116166   0.861   4.681   4.154
 5403TIP3    H216167   0.992   4.646   4.221
 5404TIP3   OH216168   6.396   7.821   2.330
 5404TIP3    H116169   6.324   7.777   2.283
 5404TIP3    H216170   6.410   7.767   2.408
 5405TIP3   OH216171   4.104   6.448   4.981
 5405TIP3    H116172   4.011   6.455   5.000
 5405TIP3    H216173   4.146   6.506   5.044
 5406TIP3   OH216174   4.166   7.200  -0.008
 5406TIP3    H116175   4.162   7.128   0.056
 5406TIP3    H216176   4.078   7.201  -0.047
 5407TIP3   OH216177   3.616   0.016   3.959
 5407TIP3    H116178   3.523   0.039   3.961
 5407TIP3    H216179   3.661   0.099   3.947
 5408TIP3   OH216180   0.528   3.447   1.174
 5408TIP3    H116181   0.464   3.506   1.135
 5408TIP3    H216182   0.565   3.496   1.247
 5409TIP3   OH216183   4.578   1.514   2.459
 5409TIP3    H116184   4.575   1.599   2.417
 5409TIP3    H216185   4.522   1.523   2.536
 5410TIP3   OH216186   2.212   3.758   5.845
 5410TIP3    H116187   2.173   3.840   5.817
 5410TIP3    H216188   2.255   3.724   5.767
 5411TIP3   OH216189   5.461   0.851   6.581
 5411TIP3    H116190   5.437   0.835   6.490
 5411TIP3    H216191   5.431   0.773   6.628
 5412TIP3   OH216192   4.458   3.298   4.363
 5412TIP3    H116193   4.408   3.229   4.407
 5412TIP3    H216194   4.528   3.321   4.425
 5413TIP3   OH216195   8.237   5.295   4.920
 5413TIP3    H116196   8.226   5.390   4.930
 5413TIP3    H216197   8.153   5.259   4.949
 5414TIP3   OH216198   2.729   4.693   5.074
 5414TIP3    H116199   2.823   4.710   5.069
 5414TIP3    H216200   2.697   4.749   5.145
 5415TIP3   OH216201   6.557   4.844   1.924
 5415TIP3    H116202   6.616   4.894   1.869
 5415TIP3    H216203   6.560   4.755   1.890
 5416TIP3   OH216204   3.158   4.164   3.736
 5416TIP3    H116205   3.114   4.117   3.665
 5416TIP3    H216206   3.173   4.252   3.700
 5417TIP3   OH216207   0.929   7.447   3.318
 5417TIP3    H116208   0.885   7.363   3.313
 5417TIP3    H216209   0.979   7.443   3.400
 5418TIP3   OH216210   5.783   3.983   3.826
 5418TIP3    H116211   5.794   4.059   3.769
 5418TIP3    H216212   5.702   4.001   3.874
 5419TIP3   OH216213   3.694   1.526   3.041
 5419TIP3    H116214   3.722   1.594   2.979
 5419TIP3    H216215   3.631   1.473   2.991
 5420TIP3   OH216216   6.104   6.608   4.064
 5420TIP3    H116217   6.107   6.512   4.062
 5420TIP3    H216218   6.177   6.636   4.009
 5421TIP3   OH216219   8.066   6.491   1.937
 5421TIP3    H116220   8.079   6.397   1.951
 5421TIP3    H216221   8.137   6.516   1.878
 5422TIP3   OH216222   4.995   5.449   0.346
 5422TIP3    H116223   4.925   5.385   0.357
 5422TIP3    H216224   4.952   5.534   0.361
 5423TIP3   OH216225   0.883   1.965   3.953
 5423TIP3    H116226   0.886   1.948   4.047
 5423TIP3    H216227   0.852   1.883   3.914
 5424TIP3   OH216228   7.267   2.555   2.482
 5424TIP3    H116229   7.260   2.584   2.573
 5424TIP3    H216230   7.361   2.541   2.468
 5425TIP3   OH216231   6.190   4.700   6.561
 5425TIP3    H116232   6.165   4.774   6.507
 5425TIP3    H216233   6.207   4.629   6.499
 5426TIP3   OH216234   4.178   6.644   1.534
 5426TIP3    H116235   4.120   6.665   1.460
 5426TIP3    H216236   4.190   6.549   1.528
 5427TIP3   OH216237   5.945   2.569   1.397
 5427TIP3    H116238   5.852   2.567   1.374
 5427TIP3    H216239   5.977   2.650   1.357
 5428TIP3   OH216240   4.238   1.741   0.110
 5428TIP3    H116241   4.229   1.725   0.204
 5428TIP3    H216242   4.171   1.808   0.091
 5429TIP3   OH216243   6.055   2.781   1.286
 5429TIP3    H116244   6.057   2.828   1.203
 5429TIP3    H216245   6.135   2.809   1.331
 5430TIP3   OH216246   1.932   7.241   3.161
 5430TIP3    H116247   1.894   7.178   3.222
 5430TIP3    H216248   1.927   7.325   3.207
 5431TIP3   OH216249   3.558   7.112   3.566
 5431TIP3    H116250   3.604   7.029   3.570
 5431TIP3    H216251   3.474   7.090   3.525
 5432TIP3   OH216252   8.238   5.019   4.356
 5432TIP3    H116253   8.147   4.995   4.370
 5432TIP3    H216254   8.288   4.950   4.399
 5433TIP3   OH216255   7.125   5.260   1.330
 5433TIP3    H116256   7.109   5.338   1.276
 5433TIP3    H216257   7.148   5.295   1.416
 5434TIP3   OH216258   7.928   1.751   0.370
 5434TIP3    H116259   7.950   1.841   0.348
 5434TIP3    H216260   7.901   1.755   0.462
 5435TIP3   OH216261   3.427   4.623   4.744
 5435TIP3    H116262   3.455   4.700   4.694
 5435TIP3    H216263   3.332   4.625   4.740
 5436TIP3   OH216264   3.271   3.792   1.434
 5436TIP3    H116265   3.198   3.756   1.485
 5436TIP3    H216266   3.342   3.802   1.498
 5437TIP3   OH216267   2.029   4.409   0.192
 5437TIP3    H116268   2.011   4.425   0.284
 5437TIP3    H216269   1.967   4.465   0.146
 5438TIP3   OH216270   6.639   7.418   5.150
 5438TIP3    H116271   6.565   7.360   5.167
 5438TIP3    H216272   6.605   7.506   5.167
 5439TIP3   OH216273   2.290   4.713   6.659
 5439TIP3    H116274   2.204   4.717   6.617
 5439TIP3    H216275   2.327   4.629   6.631
 5440TIP3   OH216276   2.762   3.935   2.338
 5440TIP3    H116277   2.803   4.015   2.306
 5440TIP3    H216278   2.721   3.897   2.261
 5441TIP3   OH216279   2.205   4.397   6.140
 5441TIP3    H116280   2.252   4.449   6.075
 5441TIP3    H216281   2.124   4.447   6.155
 5442TIP3   OH216282   3.612   7.377   2.116
 5442TIP3    H116283   3.547   7.400   2.182
 5442TIP3    H216284   3.679   7.445   2.123
 5443TIP3   OH216285   6.671   4.930   5.691
 5443TIP3    H116286   6.601   4.946   5.754
 5443TIP3    H216287   6.686   4.836   5.696
 5444TIP3   OH216288   1.488   5.558   6.301
 5444TIP3    H116289   1.505   5.629   6.240
 5444TIP3    H216290   1.442   5.492   6.248
 5445TIP3   OH216291   2.045   4.447   2.783
 5445TIP3    H116292   2.074   4.531   2.818
 5445TIP3    H216293   1.968   4.468   2.730
 5446TIP3   OH216294   2.279   1.140   0.405
 5446TIP3    H116295   2.347   1.117   0.468
 5446TIP3    H216296   2.308   1.223   0.368
 5447TIP3   OH216297   4.610   4.488   5.216
 5447TIP3    H116298   4.545   4.558   5.222
 5447TIP3    H216299   4.629   4.466   5.307
 5448TIP3   OH216300   2.907   3.365   5.119
 5448TIP3    H116301   2.946   3.332   5.200
 5448TIP3    H216302   2.879   3.454   5.140
 5449TIP3   OH216303   1.128   4.523   6.470
 5449TIP3    H116304   1.146   4.572   6.390
 5449TIP3    H216305   1.078   4.583   6.525
 5450TIP3   OH216306   7.710   5.589   6.213
 5450TIP3    H116307   7.623   5.604   6.174
 5450TIP3    H216308   7.693   5.529   6.286
 5451TIP3   OH216309   6.242   5.108   6.250
 5451TIP3    H116310   6.336   5.126   6.246
 5451TIP3    H216311   6.209   5.140   6.166
 5452TIP3   OH216312   4.126   6.301   0.604
 5452TIP3    H116313   4.195   6.302   0.536
 5452TIP3    H216314   4.058   6.359   0.570
 5453TIP3   OH216315   7.375   6.320   1.393
 5453TIP3    H116316   7.410   6.335   1.480
 5453TIP3    H216317   7.293   6.272   1.408
 5454TIP3   OH216318   4.884   6.411   4.702
 5454TIP3    H116319   4.824   6.337   4.711
 5454TIP3    H216320   4.891   6.425   4.607
 5455TIP3   OH216321   0.794   2.723   2.337
 5455TIP3    H116322   0.852   2.681   2.399
 5455TIP3    H216323   0.744   2.785   2.390
 5456TIP3   OH216324   7.812   3.481   5.250
 5456TIP3    H116325   7.845   3.436   5.172
 5456TIP3    H216326   7.807   3.573   5.224
 5457TIP3   OH216327   6.092   7.670   5.094
 5457TIP3    H116328   6.181   7.698   5.075
 5457TIP3    H216329   6.089   7.578   5.068
 5458TIP3   OH216330   2.411   5.018   6.340
 5458TIP3    H116331   2.404   4.954   6.411
 5458TIP3    H216332   2.504   5.035   6.333
 5459TIP3   OH216333   4.576   0.653   0.882
 5459TIP3    H116334   4.575   0.699   0.797
 5459TIP3    H216335   4.497   0.600   0.881
 5460TIP3   OH216336   0.954   6.158   6.006
 5460TIP3    H116337   0.984   6.175   5.917
 5460TIP3    H216338   0.996   6.076   6.030
 5461TIP3   OH216339   2.379   3.852   1.018
 5461TIP3    H116340   2.460   3.903   1.011
 5461TIP3    H216341   2.392   3.797   1.095
 5462TIP3   OH216342   5.249   3.384   3.106
 5462TIP3    H116343   5.251   3.460   3.165
 5462TIP3    H216344   5.258   3.422   3.019
 5463TIP3   OH216345   4.758   4.755   3.486
 5463TIP3    H116346   4.748   4.820   3.556
 5463TIP3    H216347   4.678   4.702   3.491
 5464TIP3   OH216348   1.325   1.557   1.605
 5464TIP3    H116349   1.310   1.650   1.617
 5464TIP3    H216350   1.238   1.518   1.610
 5465TIP3   OH216351   7.726   1.790   5.762
 5465TIP3    H116352   7.708   1.769   5.671
 5465TIP3    H216353   7.741   1.705   5.803
 5466TIP3   OH216354   1.093   5.857   3.732
 5466TIP3    H116355   1.147   5.887   3.806
 5466TIP3    H216356   1.154   5.856   3.658
 5467TIP3   OH216357   5.952   5.564   0.074
 5467TIP3    H116358   5.920   5.586  -0.013
 5467TIP3    H216359   5.882   5.590   0.134
 5468TIP3   OH216360   2.358   0.294   1.854
 5468TIP3    H116361   2.294   0.330   1.792
 5468TIP3    H216362   2.310   0.287   1.936
 5469TIP3   OH216363   4.310   1.186   5.912
 5469TIP3    H116364   4.279   1.163   6.000
 5469TIP3    H216365   4.356   1.108   5.882
 5470TIP3   OH216366   0.633   2.544   0.645
 5470TIP3    H116367   0.583   2.624   0.661
 5470TIP3    H216368   0.725   2.570   0.654
 5471TIP3   OH216369   4.594   2.366   0.305
 5471TIP3    H116370   4.566   2.451   0.338
 5471TIP3    H216371   4.685   2.381   0.277
 5472TIP3   OH216372   1.431   0.542   5.644
 5472TIP3    H116373   1.477   0.483   5.703
 5472TIP3    H216374   1.374   0.594   5.701
 5473TIP3   OH216375   7.501   6.084   6.741
 5473TIP3    H116376   7.557   6.017   6.780
 5473TIP3    H216377   7.553   6.119   6.668
 5474TIP3   OH216378   5.417   2.144   3.314
 5474TIP3    H116379   5.504   2.163   3.347
 5474TIP3    H216380   5.358   2.171   3.384
 5475TIP3   OH216381   2.432   5.485   3.400
 5475TIP3    H116382   2.357   5.426   3.408
 5475TIP3    H216383   2.477   5.477   3.484
 5476TIP3   OH216384   4.526   1.136   4.280
 5476TIP3    H116385   4.567   1.052   4.301
 5476TIP3    H216386   4.573   1.200   4.335
 5477TIP3   OH216387   2.184   5.108   1.182
 5477TIP3    H116388   2.182   5.126   1.088
 5477TIP3    H216389   2.254   5.163   1.216
 5478TIP3   OH216390   5.688   6.261   3.911
 5478TIP3    H116391   5.772   6.228   3.878
 5478TIP3    H216392   5.709   6.305   3.993
 5479TIP3   OH216393   4.262   4.321   2.485
 5479TIP3    H116394   4.323   4.394   2.479
 5479TIP3    H216395   4.178   4.360   2.509
 5480TIP3   OH216396   2.977   4.242   1.688
 5480TIP3    H116397   3.063   4.264   1.723
 5480TIP3    H216398   2.919   4.310   1.722
 5481TIP3   OH216399   7.742   1.461   0.763
 5481TIP3    H116400   7.780   1.501   0.841
 5481TIP3    H216401   7.679   1.397   0.797
 5482TIP3   OH216402   5.780   2.495   4.256
 5482TIP3    H116403   5.774   2.422   4.194
 5482TIP3    H216404   5.690   2.529   4.261
 5483TIP3   OH216405   2.294   6.577   0.076
 5483TIP3    H116406   2.237   6.542   0.145
 5483TIP3    H216407   2.233   6.606   0.008
 5484TIP3   OH216408   1.579   4.642   0.310
 5484TIP3    H116409   1.651   4.705   0.312
 5484TIP3    H216410   1.621   4.557   0.319
 5485TIP3   OH216411   1.559   5.928   3.387
 5485TIP3    H116412   1.616   6.002   3.367
 5485TIP3    H216413   1.593   5.856   3.334
 5486TIP3   OH216414   3.918   4.254   5.018
 5486TIP3    H116415   3.925   4.218   4.930
 5486TIP3    H216416   3.918   4.178   5.076
 5487TIP3   OH216417   0.917   1.262   5.046
 5487TIP3    H116418   0.853   1.222   5.104
 5487TIP3    H216419   0.988   1.197   5.041
 5488TIP3   OH216420   1.187   6.154   4.731
 5488TIP3    H116421   1.248   6.080   4.738
 5488TIP3    H216422   1.221   6.218   4.793
 5489TIP3   OH216423   0.741   6.043   2.136
 5489TIP3    H116424   0.706   6.120   2.091
 5489TIP3    H216425   0.696   6.043   2.220
 5490TIP3   OH216426   7.927   2.087   5.495
 5490TIP3    H116427   7.832   2.102   5.500
 5490TIP3    H216428   7.953   2.066   5.585
 5491TIP3   OH216429   1.223   6.736   1.980
 5491TIP3    H116430   1.255   6.650   2.010
 5491TIP3    H216431   1.301   6.780   1.948
 5492TIP3   OH216432   3.752   6.097   0.206
 5492TIP3    H116433   3.691   6.076   0.136
 5492TIP3    H216434   3.839   6.081   0.168
 5493TIP3   OH216435   6.732   2.638   3.961
 5493TIP3    H116436   6.643   2.659   3.989
 5493TIP3    H216437   6.725   2.623   3.867
 5494TIP3   OH216438   5.043   4.063   5.964
 5494TIP3    H116439   5.043   3.999   6.034
 5494TIP3    H216440   4.950   4.072   5.940
 5495TIP3   OH216441   2.372   7.847   1.931
 5495TIP3    H116442   2.321   7.767   1.939
 5495TIP3    H216443   2.307   7.917   1.927
 5496TIP3   OH216444   3.140   4.637   6.284
 5496TIP3    H116445   3.199   4.596   6.347
 5496TIP3    H216446   3.166   4.729   6.282
 5497TIP3   OH216447   7.993   3.906   1.420
 5497TIP3    H116448   7.981   3.811   1.411
 5497TIP3    H216449   8.082   3.915   1.456
 5498TIP3   OH216450   1.302   5.600   6.021
 5498TIP3    H116451   1.361   5.663   6.063
 5498TIP3    H216452   1.297   5.629   5.930
 5499TIP3   OH216453   0.499   2.148   4.919
 5499TIP3    H116454   0.439   2.131   4.991
 5499TIP3    H216455   0.566   2.080   4.927
 5500TIP3   OH216456   0.639   3.968   5.423
 5500TIP3    H116457   0.730   3.943   5.406
 5500TIP3    H216458   0.633   3.974   5.519
 5501TIP3   OH216459   4.257   7.252   5.037
 5501TIP3    H116460   4.345   7.218   5.019
 5501TIP3    H216461   4.272   7.328   5.092
 5502TIP3   OH216462   1.756   2.485   0.536
 5502TIP3    H116463   1.738   2.397   0.501
 5502TIP3    H216464   1.816   2.470   0.608
 5503TIP3   OH216465   4.160   1.949   6.541
 5503TIP3    H116466   4.156   1.948   6.637
 5503TIP3    H216467   4.181   1.859   6.518
 5504TIP3   OH216468   4.134   6.294   3.001
 5504TIP3    H116469   4.117   6.202   3.021
 5504TIP3    H216470   4.062   6.342   3.043
 5505TIP3   OH216471   0.225   7.360   0.111
 5505TIP3    H116472   0.193   7.269   0.111
 5505TIP3    H216473   0.310   7.355   0.067
 5506TIP3   OH216474   7.297   3.452   2.840
 5506TIP3    H116475   7.366   3.447   2.774
 5506TIP3    H216476   7.230   3.507   2.800
 5507TIP3   OH216477   7.344   2.222   2.178
 5507TIP3    H116478   7.292   2.164   2.122
 5507TIP3    H216479   7.282   2.290   2.206
 5508TIP3   OH216480   6.424   6.222   5.413
 5508TIP3    H116481   6.499   6.281   5.425
 5508TIP3    H216482   6.392   6.207   5.502
 5509TIP3   OH216483   1.861   7.172   0.904
 5509TIP3    H116484   1.949   7.172   0.867
 5509TIP3    H216485   1.804   7.197   0.831
 5510TIP3   OH216486   6.779   4.345   0.943
 5510TIP3    H116487   6.706   4.283   0.957
 5510TIP3    H216488   6.736   4.428   0.925
 5511TIP3   OH216489   0.032   2.873   4.978
 5511TIP3    H116490   0.053   2.790   4.935
 5511TIP3    H216491   0.100   2.933   4.950
 5512TIP3   OH216492   3.983   1.076   5.501
 5512TIP3    H116493   3.944   1.138   5.563
 5512TIP3    H216494   4.078   1.085   5.514
 5513TIP3   OH216495   2.458   5.405   5.472
 5513TIP3    H116496   2.413   5.482   5.439
 5513TIP3    H216497   2.539   5.438   5.510
 5514TIP3   OH216498   2.419   3.007   3.296
 5514TIP3    H116499   2.462   2.962   3.223
 5514TIP3    H216500   2.420   2.943   3.367
 5515TIP3   OH216501   5.611   3.289   1.487
 5515TIP3    H116502   5.668   3.284   1.411
 5515TIP3    H216503   5.550   3.215   1.477
 5516TIP3   OH216504   1.863   5.758   6.001
 5516TIP3    H116505   1.788   5.807   5.969
 5516TIP3    H216506   1.928   5.824   6.023
 5517TIP3   OH216507   4.363   3.448   5.543
 5517TIP3    H116508   4.282   3.495   5.559
 5517TIP3    H216509   4.378   3.396   5.622
 5518TIP3   OH216510   0.591   1.698   6.452
 5518TIP3    H116511   0.687   1.700   6.445
 5518TIP3    H216512   0.568   1.783   6.490
 5519TIP3   OH216513   7.996   7.005   0.923
 5519TIP3    H116514   7.967   6.991   1.013
 5519TIP3    H216515   8.045   7.087   0.926
 5520TIP3   OH216516   0.659   7.606   0.825
 5520TIP3    H116517   0.601   7.532   0.841
 5520TIP3    H216518   0.640   7.668   0.896
 5521TIP3   OH216519   3.488   7.647   6.678
 5521TIP3    H116520   3.510   7.730   6.635
 5521TIP3    H216521   3.530   7.652   6.764
 5522TIP3   OH216522   0.109   1.599   0.062
 5522TIP3    H116523   0.051   1.651   0.117
 5522TIP3    H216524   0.050   1.542   0.012
 5523TIP3   OH216525   1.507   5.372   5.845
 5523TIP3    H116526   1.513   5.294   5.900
 5523TIP3    H216527   1.585   5.423   5.866
 5524TIP3   OH216528   1.135   1.721   6.221
 5524TIP3    H116529   1.188   1.647   6.191
 5524TIP3    H216530   1.155   1.792   6.160
 5525TIP3   OH216531   6.300   6.408   6.677
 5525TIP3    H116532   6.221   6.448   6.714
 5525TIP3    H216533   6.305   6.321   6.716
 5526TIP3   OH216534   7.996   7.230   3.333
 5526TIP3    H116535   7.913   7.182   3.330
 5526TIP3    H216536   8.051   7.187   3.268
 5527TIP3   OH216537   7.720   0.849   0.485
 5527TIP3    H116538   7.665   0.798   0.544
 5527TIP3    H216539   7.671   0.853   0.403
 5528TIP3   OH216540   3.307   4.853   2.489
 5528TIP3    H116541   3.266   4.849   2.575
 5528TIP3    H216542   3.395   4.888   2.506
 5529TIP3   OH216543   3.640   1.668   6.576
 5529TIP3    H116544   3.658   1.598   6.639
 5529TIP3    H216545   3.547   1.661   6.558
 5530TIP3   OH216546   0.661   3.405   4.252
 5530TIP3    H116547   0.669   3.318   4.290
 5530TIP3    H216548   0.671   3.465   4.326
 5531TIP3   OH216549   0.796   3.863   1.901
 5531TIP3    H116550   0.858   3.799   1.867
 5531TIP3    H216551   0.790   3.844   1.994
 5532TIP3   OH216552   5.242   3.747   3.527
 5532TIP3    H116553   5.326   3.770   3.566
 5532TIP3    H216554   5.265   3.703   3.445
 5533TIP3   OH216555   2.285   4.765   4.062
 5533TIP3    H116556   2.278   4.754   3.967
 5533TIP3    H216557   2.378   4.783   4.077
 5534TIP3   OH216558   0.112   3.201   0.156
 5534TIP3    H116559   0.104   3.113   0.193
 5534TIP3    H216560   0.187   3.196   0.097
 5535TIP3   OH216561   4.124   7.268   2.165
 5535TIP3    H116562   4.110   7.333   2.096
 5535TIP3    H216563   4.075   7.191   2.137
 5536TIP3   OH216564   8.131   6.000   1.305
 5536TIP3    H116565   8.039   6.018   1.285
 5536TIP3    H216566   8.133   5.906   1.323
 5537TIP3   OH216567   0.884   6.947   5.242
 5537TIP3    H116568   0.961   6.894   5.263
 5537TIP3    H216569   0.848   6.971   5.327
 5538TIP3   OH216570   6.265   2.977   5.775
 5538TIP3    H116571   6.267   2.909   5.843
 5538TIP3    H216572   6.212   2.939   5.705
 5539TIP3   OH216573   1.751   6.308  -0.027
 5539TIP3    H116574   1.773   6.237   0.033
 5539TIP3    H216575   1.659   6.292  -0.050
 5540TIP3   OH216576   3.843   1.375   2.394
 5540TIP3    H116577   3.770   1.412   2.444
 5540TIP3    H216578   3.911   1.359   2.459
 5541TIP3   OH216579   7.261   2.376   6.105
 5541TIP3    H116580   7.275   2.337   6.019
 5541TIP3    H216581   7.309   2.459   6.102
 5542TIP3   OH216582   4.710   4.962   0.616
 5542TIP3    H116583   4.676   5.005   0.537
 5542TIP3    H216584   4.634   4.958   0.674
 5543TIP3   OH216585   6.580   3.291   0.577
 5543TIP3    H116586   6.539   3.212   0.612
 5543TIP3    H216587   6.674   3.278   0.592
 5544TIP3   OH216588   6.289   3.879   6.556
 5544TIP3    H116589   6.232   3.949   6.588
 5544TIP3    H216590   6.235   3.831   6.493
 5545TIP3   OH216591   2.557   3.498   0.723
 5545TIP3    H116592   2.552   3.404   0.707
 5545TIP3    H216593   2.630   3.508   0.784
 5546TIP3   OH216594   0.985   6.225   2.007
 5546TIP3    H116595   0.967   6.273   2.088
 5546TIP3    H216596   1.008   6.136   2.036
 5547TIP3   OH216597   6.431   6.273   0.540
 5547TIP3    H116598   6.423   6.360   0.501
 5547TIP3    H216599   6.405   6.284   0.631
 5548TIP3   OH216600   6.186   2.244   6.247
 5548TIP3    H116601   6.108   2.248   6.191
 5548TIP3    H216602   6.218   2.334   6.250
 5549TIP3   OH216603   0.363   6.997   3.846
 5549TIP3    H116604   0.398   6.950   3.770
 5549TIP3    H216605   0.398   7.086   3.838
 5550TIP3   OH216606   7.337   3.836   5.095
 5550TIP3    H116607   7.394   3.835   5.172
 5550TIP3    H216608   7.273   3.767   5.112
 5551TIP3   OH216609   6.543   6.443   2.178
 5551TIP3    H116610   6.597   6.495   2.118
 5551TIP3    H216611   6.597   6.434   2.256
 5552TIP3   OH216612   4.901   4.513   5.763
 5552TIP3    H116613   4.937   4.424   5.769
 5552TIP3    H216614   4.909   4.548   5.851
 5553TIP3   OH216615   3.387   1.035   0.091
 5553TIP3    H116616   3.395   1.130   0.096
 5553TIP3    H216617   3.463   1.006   0.040
 5554TIP3   OH216618   0.810   0.236   5.382
 5554TIP3    H116619   0.824   0.274   5.295
 5554TIP3    H216620   0.888   0.261   5.432
 5555TIP3   OH216621   2.831   1.443   4.843
 5555TIP3    H116622   2.801   1.374   4.903
 5555TIP3    H216623   2.751   1.473   4.800
 5556TIP3   OH216624   3.418   2.636   1.384
 5556TIP3    H116625   3.445   2.586   1.460
 5556TIP3    H216626   3.436   2.727   1.408
 5557TIP3   OH216627   5.131   7.151   6.292
 5557TIP3    H116628   5.135   7.243   6.265
 5557TIP3    H216629   5.164   7.150   6.382
 5558TIP3   OH216630   8.046   3.780   4.537
 5558TIP3    H116631   8.023   3.696   4.578
 5558TIP3    H216632   7.964   3.829   4.534
 5559TIP3   OH216633   3.806   7.018   4.483
 5559TIP3    H116634   3.818   7.073   4.405
 5559TIP3    H216635   3.869   7.052   4.547
 5560TIP3   OH216636   6.150   3.405   4.101
 5560TIP3    H116637   6.167   3.367   4.015
 5560TIP3    H216638   6.056   3.392   4.115
 5561TIP3   OH216639   0.417   3.659   5.912
 5561TIP3    H116640   0.491   3.720   5.916
 5561TIP3    H216641   0.384   3.657   6.002
 5562TIP3   OH216642   0.623   1.637   3.862
 5562TIP3    H116643   0.710   1.619   3.827
 5562TIP3    H216644   0.563   1.605   3.795
 5563TIP3   OH216645   5.592   0.184   3.026
 5563TIP3    H116646   5.536   0.233   2.966
 5563TIP3    H216647   5.551   0.196   3.112
 5564TIP3   OH216648   0.352   1.589   6.544
 5564TIP3    H116649   0.352   1.625   6.633
 5564TIP3    H216650   0.379   1.662   6.489
 5565TIP3   OH216651   2.464   4.779   3.094
 5565TIP3    H116652   2.550   4.740   3.104
 5565TIP3    H216653   2.403   4.706   3.105
 5566TIP3   OH216654   0.794   4.736   5.748
 5566TIP3    H116655   0.753   4.744   5.834
 5566TIP3    H216656   0.791   4.642   5.729
 5567TIP3   OH216657   6.350   5.607   4.463
 5567TIP3    H116658   6.394   5.689   4.488
 5567TIP3    H216659   6.418   5.556   4.419
 5568TIP3   OH216660   0.544   1.653   2.980
 5568TIP3    H116661   0.602   1.678   2.908
 5568TIP3    H216662   0.456   1.659   2.942
 5569TIP3   OH216663   1.582   1.412   5.067
 5569TIP3    H116664   1.605   1.418   4.974
 5569TIP3    H216665   1.527   1.335   5.074
 5570TIP3   OH216666   1.549   1.346   6.458
 5570TIP3    H116667   1.564   1.263   6.504
 5570TIP3    H216668   1.630   1.363   6.412
 5571TIP3   OH216669   7.976   5.327   5.582
 5571TIP3    H116670   8.020   5.409   5.601
 5571TIP3    H216671   8.035   5.259   5.616
 5572TIP3   OH216672   0.575   4.504   5.709
 5572TIP3    H116673   0.567   4.453   5.629
 5572TIP3    H216674   0.528   4.586   5.691
 5573TIP3   OH216675   4.224   1.656   0.374
 5573TIP3    H116676   4.221   1.725   0.441
 5573TIP3    H216677   4.186   1.580   0.417
 5574TIP3   OH216678   5.403   1.846   4.073
 5574TIP3    H116679   5.330   1.907   4.069
 5574TIP3    H216680   5.442   1.861   4.159
 5575TIP3   OH216681   3.383   4.664   4.301
 5575TIP3    H116682   3.289   4.681   4.299
 5575TIP3    H216683   3.391   4.580   4.346
 5576TIP3   OH216684   1.628   0.917   0.476
 5576TIP3    H116685   1.566   0.919   0.549
 5576TIP3    H216686   1.687   0.845   0.498
 5577TIP3   OH216687   5.701   7.627   0.398
 5577TIP3    H116688   5.654   7.709   0.389
 5577TIP3    H216689   5.705   7.591   0.310
 5578TIP3   OH216690   6.053   3.236   1.155
 5578TIP3    H116691   6.128   3.296   1.158
 5578TIP3    H216692   6.092   3.152   1.130
 5579TIP3   OH216693   4.801   2.225   3.992
 5579TIP3    H116694   4.732   2.242   3.928
 5579TIP3    H216695   4.763   2.160   4.051
 5580TIP3   OH216696   2.846   2.718   5.892
 5580TIP3    H116697   2.759   2.747   5.864
 5580TIP3    H216698   2.833   2.683   5.980
 5581TIP3   OH216699   3.228   1.687   1.664
 5581TIP3    H116700   3.155   1.649   1.615
 5581TIP3    H216701   3.306   1.647   1.627
 5582TIP3   OH216702   7.028   0.514   1.548
 5582TIP3    H116703   7.045   0.509   1.642
 5582TIP3    H216704   7.105   0.557   1.511
 5583TIP3   OH216705   3.431   5.069   1.093
 5583TIP3    H116706   3.428   5.125   1.015
 5583TIP3    H216707   3.509   5.098   1.140
 5584TIP3   OH216708   5.996   6.944   5.387
 5584TIP3    H116709   6.090   6.943   5.405
 5584TIP3    H216710   5.980   6.866   5.334
 5585TIP3   OH216711   5.309   2.892   1.421
 5585TIP3    H116712   5.311   2.987   1.410
 5585TIP3    H216713   5.395   2.870   1.456
 5586TIP3   OH216714   4.941   1.957   6.547
 5586TIP3    H116715   4.854   1.959   6.586
 5586TIP3    H216716   4.957   2.047   6.520
 5587TIP3   OH216717   6.202   1.961   5.930
 5587TIP3    H116718   6.120   1.923   5.897
 5587TIP3    H216719   6.238   2.008   5.855
 5588TIP3   OH216720   6.129   5.785   4.867
 5588TIP3    H116721   6.165   5.707   4.824
 5588TIP3    H216722   6.206   5.831   4.901
 5589TIP3   OH216723   0.857   6.090   5.299
 5589TIP3    H116724   0.864   6.024   5.368
 5589TIP3    H216725   0.772   6.131   5.314
 5590TIP3   OH216726   2.689   1.157   6.411
 5590TIP3    H116727   2.718   1.143   6.321
 5590TIP3    H216728   2.612   1.212   6.403
 5591TIP3   OH216729   5.827   3.885   2.271
 5591TIP3    H116730   5.889   3.857   2.203
 5591TIP3    H216731   5.847   3.829   2.346
 5592TIP3   OH216732   2.513   3.301   1.250
 5592TIP3    H116733   2.493   3.228   1.191
 5592TIP3    H216734   2.525   3.260   1.336
 5593TIP3   OH216735   2.277   5.695   5.746
 5593TIP3    H116736   2.357   5.644   5.737
 5593TIP3    H216737   2.212   5.650   5.693
 5594TIP3   OH216738   6.667   2.674   3.704
 5594TIP3    H116739   6.661   2.741   3.636
 5594TIP3    H216740   6.612   2.602   3.672
 5595TIP3   OH216741   8.068   0.823   1.468
 5595TIP3    H116742   8.107   0.893   1.519
 5595TIP3    H216743   7.989   0.798   1.517
 5596TIP3   OH216744   5.332   3.938   2.578
 5596TIP3    H116745   5.355   3.863   2.523
 5596TIP3    H216746   5.413   3.960   2.624
 5597TIP3   OH216747   5.486   0.182   3.952
 5597TIP3    H116748   5.416   0.136   3.906
 5597TIP3    H216749   5.558   0.119   3.955
 5598TIP3   OH216750   2.723   5.423   4.867
 5598TIP3    H116751   2.700   5.344   4.817
 5598TIP3    H216752   2.761   5.390   4.948
 5599TIP3   OH216753   1.343   6.116   5.572
 5599TIP3    H116754   1.254   6.079   5.570
 5599TIP3    H216755   1.332   6.202   5.611
 5600TIP3   OH216756   2.100   4.470   1.631
 5600TIP3    H116757   2.047   4.493   1.708
 5600TIP3    H216758   2.178   4.428   1.668
 5601TIP3   OH216759   5.250   1.599   6.595
 5601TIP3    H116760   5.219   1.650   6.521
 5601TIP3    H216761   5.193   1.624   6.667
 5602TIP3   OH216762   1.893   0.364   0.527
 5602TIP3    H116763   1.882   0.309   0.450
 5602TIP3    H216764   1.873   0.307   0.601
 5603TIP3   OH216765   3.170   2.904   1.141
 5603TIP3    H116766   3.136   2.841   1.077
 5603TIP3    H216767   3.147   2.989   1.105
 5604TIP3   OH216768   8.083   3.681   1.039
 5604TIP3    H116769   8.075   3.727   1.123
 5604TIP3    H216770   8.020   3.610   1.044
 5605TIP3   OH216771   4.445   0.246   5.427
 5605TIP3    H116772   4.400   0.223   5.345
 5605TIP3    H216773   4.457   0.162   5.472
 5606TIP3   OH216774   4.688   5.413   1.548
 5606TIP3    H116775   4.669   5.320   1.561
 5606TIP3    H216776   4.783   5.420   1.560
 5607TIP3   OH216777   2.213   0.545   0.315
 5607TIP3    H116778   2.132   0.593   0.329
 5607TIP3    H216779   2.211   0.475   0.381
 5608TIP3   OH216780   8.229   5.575   4.897
 5608TIP3    H116781   8.144   5.616   4.910
 5608TIP3    H216782   8.258   5.607   4.812
 5609TIP3   OH216783   0.488   6.410   5.157
 5609TIP3    H116784   0.418   6.473   5.174
 5609TIP3    H216785   0.563   6.463   5.129
 5610TIP3   OH216786   5.819   3.535   3.819
 5610TIP3    H116787   5.752   3.552   3.886
 5610TIP3    H216788   5.860   3.453   3.846
 5611TIP3   OH216789   3.122   5.303   6.442
 5611TIP3    H116790   3.182   5.350   6.385
 5611TIP3    H216791   3.136   5.340   6.529
 5612TIP3   OH216792   1.119   4.434   2.563
 5612TIP3    H116793   1.104   4.509   2.506
 5612TIP3    H216794   1.197   4.457   2.614
 5613TIP3   OH216795   7.055   3.742   5.235
 5613TIP3    H116796   6.965   3.721   5.258
 5613TIP3    H216797   7.104   3.731   5.317
 5614TIP3   OH216798   5.577   1.652   3.931
 5614TIP3    H116799   5.598   1.569   3.974
 5614TIP3    H216800   5.512   1.629   3.865
 5615TIP3   OH216801   7.111   1.803   1.847
 5615TIP3    H116802   7.163   1.723   1.850
 5615TIP3    H216803   7.109   1.827   1.755
 5616TIP3   OH216804   2.032   6.112   3.860
 5616TIP3    H116805   2.008   6.076   3.775
 5616TIP3    H216806   2.078   6.193   3.839
 5617TIP3   OH216807   4.482   7.042   3.958
 5617TIP3    H116808   4.495   7.037   3.863
 5617TIP3    H216809   4.454   6.954   3.983
 5618TIP3   OH216810   2.070  -0.070   2.747
 5618TIP3    H116811   2.000  -0.031   2.799
 5618TIP3    H216812   2.147  -0.017   2.768
 5619TIP3   OH216813   6.340   2.060   1.984
 5619TIP3    H116814   6.307   2.097   2.066
 5619TIP3    H216815   6.308   1.970   1.984
 5620TIP3   OH216816   2.482   6.211   4.952
 5620TIP3    H116817   2.453   6.301   4.968
 5620TIP3    H216818   2.561   6.221   4.899
 5621TIP3   OH216819   2.809   3.462   3.920
 5621TIP3    H116820   2.764   3.529   3.971
 5621TIP3    H216821   2.861   3.414   3.985
 5622TIP3   OH216822   0.403   2.136   0.075
 5622TIP3    H116823   0.445   2.055   0.103
 5622TIP3    H216824   0.405   2.193   0.152
 5623TIP3   OH216825   6.376   7.677   1.994
 5623TIP3    H116826   6.406   7.756   1.948
 5623TIP3    H216827   6.449   7.616   1.985
 5624TIP3   OH216828   5.709   0.668   0.547
 5624TIP3    H116829   5.617   0.667   0.521
 5624TIP3    H216830   5.734   0.761   0.544
 5625TIP3   OH216831   0.537   7.073   5.763
 5625TIP3    H116832   0.574   7.014   5.829
 5625TIP3    H216833   0.606   7.136   5.745
 5626TIP3   OH216834   0.500   3.596   3.198
 5626TIP3    H116835   0.515   3.633   3.285
 5626TIP3    H216836   0.549   3.653   3.139
 5627TIP3   OH216837   7.343   5.809   4.816
 5627TIP3    H116838   7.292   5.843   4.742
 5627TIP3    H216839   7.355   5.716   4.797
 5628TIP3   OH216840   3.706   2.646   0.529
 5628TIP3    H116841   3.780   2.702   0.550
 5628TIP3    H216842   3.630   2.690   0.568
 5629TIP3   OH216843   1.730   6.168   3.782
 5629TIP3    H116844   1.812   6.127   3.810
 5629TIP3    H216845   1.682   6.097   3.739
 5630TIP3   OH216846   1.672   2.504   6.110
 5630TIP3    H116847   1.653   2.449   6.186
 5630TIP3    H216848   1.625   2.586   6.128
 5631TIP3   OH216849   6.441   4.637   5.872
 5631TIP3    H116850   6.426   4.587   5.953
 5631TIP3    H216851   6.412   4.726   5.894
 5632TIP3   OH216852   2.928   2.345   2.498
 5632TIP3    H116853   2.927   2.255   2.464
 5632TIP3    H216854   2.854   2.349   2.559
 5633TIP3   OH216855   2.304   6.196   3.191
 5633TIP3    H116856   2.329   6.128   3.128
 5633TIP3    H216857   2.270   6.267   3.136
 5634TIP3   OH216858   0.821   5.691   6.302
 5634TIP3    H116859   0.783   5.771   6.340
 5634TIP3    H216860   0.841   5.636   6.378
 5635TIP3   OH216861   5.768   5.042   0.356
 5635TIP3    H116862   5.679   5.008   0.365
 5635TIP3    H216863   5.797   5.012   0.271
 5636TIP3   OH216864   4.699   1.282   1.948
 5636TIP3    H116865   4.737   1.344   2.011
 5636TIP3    H216866   4.725   1.196   1.980
 5637TIP3   OH216867   1.514   5.999   5.166
 5637TIP3    H116868   1.516   6.080   5.217
 5637TIP3    H216869   1.509   5.930   5.231
 5638TIP3   OH216870   6.125   2.147   4.575
 5638TIP3    H116871   6.174   2.111   4.649
 5638TIP3    H216872   6.107   2.071   4.519
 5639TIP3   OH216873   1.738   1.296   2.748
 5639TIP3    H116874   1.721   1.360   2.678
 5639TIP3    H216875   1.741   1.212   2.704
 5640TIP3   OH216876   2.977   2.135   5.070
 5640TIP3    H116877   2.892   2.113   5.031
 5640TIP3    H216878   2.985   2.230   5.057
 5641TIP3   OH216879   5.581   2.241   6.279
 5641TIP3    H116880   5.558   2.148   6.277
 5641TIP3    H216881   5.564   2.272   6.190
 5642TIP3   OH216882   6.740   7.679   3.227
 5642TIP3    H116883   6.662   7.725   3.195
 5642TIP3    H216884   6.716   7.587   3.225
 5643TIP3   OH216885   3.788   0.705   5.805
 5643TIP3    H116886   3.771   0.647   5.731
 5643TIP3    H216887   3.756   0.656   5.881
 5644TIP3   OH216888   5.609   3.473   1.935
 5644TIP3    H116889   5.609   3.380   1.912
 5644TIP3    H216890   5.535   3.482   1.995
 5645TIP3   OH216891   1.719   7.430   2.868
 5645TIP3    H116892   1.646   7.416   2.808
 5645TIP3    H216893   1.733   7.524   2.867
 5646TIP3   OH216894   4.849   0.310   3.490
 5646TIP3    H116895   4.828   0.233   3.437
 5646TIP3    H216896   4.788   0.306   3.563
 5647TIP3   OH216897   4.229   5.778   0.384
 5647TIP3    H116898   4.301   5.782   0.446
 5647TIP3    H216899   4.271   5.775   0.298
 5648TIP3   OH216900   6.967   0.677   3.977
 5648TIP3    H116901   7.055   0.651   4.003
 5648TIP3    H216902   6.974   0.771   3.960
 5649TIP3   OH216903   3.142   5.455   3.961
 5649TIP3    H116904   3.124   5.415   4.046
 5649TIP3    H216905   3.077   5.416   3.902
 5650TIP3   OH216906   0.178   5.601   0.595
 5650TIP3    H116907   0.219   5.642   0.518
 5650TIP3    H216908   0.084   5.616   0.582
 5651TIP3   OH216909   5.855   5.260   6.751
 5651TIP3    H116910   5.779   5.260   6.693
 5651TIP3    H216911   5.831   5.203   6.823
 5652TIP3   OH216912   6.564   4.203   1.035
 5652TIP3    H116913   6.528   4.132   0.982
 5652TIP3    H216914   6.487   4.244   1.076
 5653TIP3   OH216915   6.984   3.098   4.902
 5653TIP3    H116916   7.039   3.096   4.823
 5653TIP3    H216917   7.033   3.049   4.967
 5654TIP3   OH216918   8.110   2.142   3.739
 5654TIP3    H116919   8.150   2.126   3.653
 5654TIP3    H216920   8.145   2.072   3.795
 5655TIP3   OH216921   2.634   1.336   0.297
 5655TIP3    H116922   2.715   1.386   0.285
 5655TIP3    H216923   2.625   1.326   0.391
 5656TIP3   OH216924   7.803   5.109   5.649
 5656TIP3    H116925   7.812   5.068   5.563
 5656TIP3    H216926   7.825   5.201   5.634
 5657TIP3   OH216927   7.422   5.373   6.172
 5657TIP3    H116928   7.426   5.423   6.091
 5657TIP3    H216929   7.332   5.343   6.177
 5658TIP3   OH216930   2.047   1.972   6.716
 5658TIP3    H116931   2.072   2.062   6.739
 5658TIP3    H216932   1.957   1.963   6.748
 5659TIP3   OH216933   0.294   1.270   2.753
 5659TIP3    H116934   0.376   1.288   2.707
 5659TIP3    H216935   0.315   1.196   2.811
 5660TIP3   OH216936   0.726   2.369   0.851
 5660TIP3    H116937   0.676   2.390   0.773
 5660TIP3    H216938   0.803   2.426   0.846
 5661TIP3   OH216939   7.337   3.062   1.462
 5661TIP3    H116940   7.366   3.078   1.372
 5661TIP3    H216941   7.394   2.992   1.494
 5662TIP3   OH216942   1.688   3.382   3.238
 5662TIP3    H116943   1.685   3.408   3.329
 5662TIP3    H216944   1.782   3.373   3.219
 5663TIP3   OH216945   5.172   0.729   1.950
 5663TIP3    H116946   5.242   0.688   2.001
 5663TIP3    H216947   5.168   0.819   1.984
 5664TIP3   OH216948   8.327   3.297   5.289
 5664TIP3    H116949   8.312   3.359   5.361
 5664TIP3    H216950   8.268   3.326   5.220
 5665TIP3   OH216951   6.763   0.233   1.551
 5665TIP3    H116952   6.848   0.223   1.593
 5665TIP3    H216953   6.714   0.155   1.576
 5666TIP3   OH216954   3.314   5.506   1.418
 5666TIP3    H116955   3.267   5.487   1.336
 5666TIP3    H216956   3.302   5.601   1.430
 5667TIP3   OH216957   2.206   3.284   3.404
 5667TIP3    H116958   2.218   3.199   3.362
 5667TIP3    H216959   2.170   3.264   3.490
 5668TIP3   OH216960   1.374   7.088   6.105
 5668TIP3    H116961   1.419   7.172   6.104
 5668TIP3    H216962   1.419   7.036   6.171
 5669TIP3   OH216963   5.878   7.738   1.182
 5669TIP3    H116964   5.935   7.743   1.259
 5669TIP3    H216965   5.793   7.713   1.216
 5670TIP3   OH216966   8.189   3.872   4.800
 5670TIP3    H116967   8.136   3.872   4.720
 5670TIP3    H216968   8.254   3.940   4.786
 5671TIP3   OH216969   0.009   4.808   4.506
 5671TIP3    H116970   0.087   4.783   4.456
 5671TIP3    H216971   0.024   4.770   4.593
 5672TIP3   OH216972   7.740   3.766   4.786
 5672TIP3    H116973   7.741   3.677   4.751
 5672TIP3    H216974   7.688   3.760   4.866
 5673TIP3   OH216975   2.379   4.642   3.408
 5673TIP3    H116976   2.372   4.736   3.392
 5673TIP3    H216977   2.405   4.635   3.500
 5674TIP3   OH216978   4.741   4.297   3.569
 5674TIP3    H116979   4.731   4.341   3.484
 5674TIP3    H216980   4.652   4.289   3.603
 5675TIP3   OH216981   7.578   5.545  -0.003
 5675TIP3    H116982   7.663   5.524  -0.042
 5675TIP3    H216983   7.571   5.486   0.073
 5676TIP3   OH216984   4.263   0.779   6.206
 5676TIP3    H116985   4.203   0.803   6.135
 5676TIP3    H216986   4.244   0.687   6.223
 5677TIP3   OH216987   6.460   0.752   1.630
 5677TIP3    H116988   6.464   0.663   1.596
 5677TIP3    H216989   6.458   0.808   1.552
 5678TIP3   OH216990   4.443   4.324   0.476
 5678TIP3    H116991   4.523   4.276   0.457
 5678TIP3    H216992   4.451   4.350   0.568
 5679TIP3   OH216993   7.038   5.229   5.231
 5679TIP3    H116994   7.047   5.307   5.287
 5679TIP3    H216995   6.944   5.209   5.234
 5680TIP3   OH216996   5.555   4.095   2.697
 5680TIP3    H116997   5.637   4.118   2.741
 5680TIP3    H216998   5.582   4.062   2.611
 5681TIP3   OH216999   5.372   3.170   6.553
 5681TIP3    H117000   5.360   3.198   6.463
 5681TIP3    H217001   5.459   3.131   6.555
 5682TIP3   OH217002   0.815   0.975   5.604
 5682TIP3    H117003   0.811   0.887   5.567
 5682TIP3    H217004   0.869   1.025   5.542
 5683TIP3   OH217005   7.217   6.209   5.150
 5683TIP3    H117006   7.179   6.275   5.092
 5683TIP3    H217007   7.153   6.138   5.151
 5684TIP3   OH217008   6.106   2.242   5.596
 5684TIP3    H117009   6.085   2.215   5.685
 5684TIP3    H217010   6.025   2.228   5.547
 5685TIP3   OH217011   4.275   6.908   5.385
 5685TIP3    H117012   4.329   6.841   5.343
 5685TIP3    H217013   4.185   6.882   5.366
 5686TIP3   OH217014   5.932   0.191   4.723
 5686TIP3    H117015   5.862   0.254   4.741
 5686TIP3    H217016   5.885   0.111   4.696
 5687TIP3   OH217017   5.884   0.637   3.023
 5687TIP3    H117018   5.885   0.728   3.052
 5687TIP3    H217019   5.854   0.587   3.099
 5688TIP3   OH217020   6.350   6.244   2.457
 5688TIP3    H117021   6.412   6.199   2.401
 5688TIP3    H217022   6.384   6.232   2.546
 5689TIP3   OH217023   8.143   3.060   0.388
 5689TIP3    H117024   8.237   3.077   0.398
 5689TIP3    H217025   8.130   3.052   0.293
 5690TIP3   OH217026   5.187   2.727   0.101
 5690TIP3    H117027   5.127   2.653   0.110
 5690TIP3    H217028   5.242   2.703   0.026
 5691TIP3   OH217029   1.523   4.854   1.856
 5691TIP3    H117030   1.435   4.820   1.869
 5691TIP3    H217031   1.513   4.949   1.858
 5692TIP3   OH217032   1.927   1.595   2.558
 5692TIP3    H117033   1.888   1.614   2.643
 5692TIP3    H217034   1.930   1.680   2.514
 5693TIP3   OH217035   7.353   0.173   6.008
 5693TIP3    H117036   7.273   0.224   6.024
 5693TIP3    H217037   7.423   0.238   6.004
 5694TIP3   OH217038   1.767   1.077   1.661
 5694TIP3    H117039   1.851   1.051   1.623
 5694TIP3    H217040   1.722   0.994   1.679
 5695TIP3   OH217041   4.527   5.997   2.224
 5695TIP3    H117042   4.618   5.974   2.205
 5695TIP3    H217043   4.493   6.030   2.141
 5696TIP3   OH217044   0.867   5.823   5.452
 5696TIP3    H117045   0.813   5.838   5.529
 5696TIP3    H217046   0.836   5.740   5.416
 5697TIP3   OH217047   1.195   1.768   6.789
 5697TIP3    H117048   1.249   1.777   6.710
 5697TIP3    H217049   1.105   1.762   6.757
 5698TIP3   OH217050   1.504   0.140   3.567
 5698TIP3    H117051   1.427   0.193   3.546
 5698TIP3    H217052   1.471   0.076   3.630
 5699TIP3   OH217053   7.615   2.339   0.741
 5699TIP3    H117054   7.580   2.250   0.749
 5699TIP3    H217055   7.710   2.327   0.740
 5700TIP3   OH217056   3.543   3.056   3.317
 5700TIP3    H117057   3.460   3.033   3.277
 5700TIP3    H217058   3.599   2.980   3.305
 5701TIP3   OH217059   3.515   4.353   2.217
 5701TIP3    H117060   3.544   4.273   2.261
 5701TIP3    H217061   3.419   4.346   2.216
 5702TIP3   OH217062   0.893   6.656   2.586
 5702TIP3    H117063   0.858   6.712   2.655
 5702TIP3    H217064   0.842   6.678   2.509
 5703TIP3   OH217065   1.336   6.009   5.897
 5703TIP3    H117066   1.321   5.923   5.858
 5703TIP3    H217067   1.412   5.997   5.954
 5704TIP3   OH217068   0.841   6.615   5.615
 5704TIP3    H117069   0.927   6.601   5.574
 5704TIP3    H217070   0.824   6.534   5.664
 5705TIP3   OH217071   7.918   6.443   0.689
 5705TIP3    H117072   7.836   6.398   0.711
 5705TIP3    H217073   7.983   6.373   0.685
 5706TIP3   OH217074   2.984   4.481   0.422
 5706TIP3    H117075   2.922   4.470   0.494
 5706TIP3    H217076   2.952   4.557   0.374
 5707TIP3   OH217077   0.506   6.499   2.400
 5707TIP3    H117078   0.411   6.495   2.407
 5707TIP3    H217079   0.533   6.555   2.473
 5708TIP3   OH217080   3.503   1.012   2.731
 5708TIP3    H117081   3.469   0.987   2.645
 5708TIP3    H217082   3.557   1.089   2.714
 5709TIP3   OH217083   7.338   7.337   2.582
 5709TIP3    H117084   7.366   7.428   2.598
 5709TIP3    H217085   7.313   7.305   2.669
 5710TIP3   OH217086   7.791   5.957   2.498
 5710TIP3    H117087   7.740   6.016   2.443
 5710TIP3    H217088   7.857   5.921   2.438
 5711TIP3   OH217089   5.118   3.244   2.427
 5711TIP3    H117090   5.184   3.200   2.373
 5711TIP3    H217091   5.067   3.296   2.364
 5712TIP3   OH217092   0.287   3.842   6.665
 5712TIP3    H117093   0.230   3.843   6.742
 5712TIP3    H217094   0.347   3.769   6.682
 5713TIP3   OH217095   5.757   7.839   0.813
 5713TIP3    H117096   5.725   7.750   0.825
 5713TIP3    H217097   5.850   7.834   0.838
 5714TIP3   OH217098   4.509   7.549   3.631
 5714TIP3    H117099   4.564   7.544   3.553
 5714TIP3    H217100   4.526   7.468   3.679
 5715TIP3   OH217101   0.109   5.616   1.824
 5715TIP3    H117102   0.129   5.679   1.755
 5715TIP3    H217103   0.057   5.549   1.780
 5716TIP3   OH217104   3.202   3.926   5.397
 5716TIP3    H117105   3.222   3.863   5.328
 5716TIP3    H217106   3.180   3.873   5.473
 5717TIP3   OH217107   5.253   2.375   1.265
 5717TIP3    H117108   5.158   2.375   1.258
 5717TIP3    H217109   5.281   2.447   1.209
 5718TIP3   OH217110   1.205   6.520   3.517
 5718TIP3    H117111   1.161   6.444   3.480
 5718TIP3    H217112   1.258   6.485   3.588
 5719TIP3   OH217113   6.196   2.441   1.361
 5719TIP3    H117114   6.199   2.485   1.276
 5719TIP3    H217115   6.108   2.459   1.395
 5720TIP3   OH217116   1.865   4.156   4.137
 5720TIP3    H117117   1.788   4.212   4.137
 5720TIP3    H217118   1.885   4.143   4.044
 5721TIP3   OH217119   1.749   3.410   3.817
 5721TIP3    H117120   1.684   3.377   3.756
 5721TIP3    H217121   1.778   3.493   3.779
 5722TIP3   OH217122   3.714   3.904   0.809
 5722TIP3    H117123   3.626   3.919   0.775
 5722TIP3    H217124   3.709   3.821   0.856
 5723TIP3   OH217125   5.883   6.851   5.011
 5723TIP3    H117126   5.810   6.910   5.030
 5723TIP3    H217127   5.920   6.885   4.929
 5724TIP3   OH217128   6.610   3.294   4.361
 5724TIP3    H117129   6.591   3.206   4.394
 5724TIP3    H217130   6.696   3.287   4.321
 5725TIP3   OH217131   5.956   7.562   0.127
 5725TIP3    H117132   5.934   7.652   0.151
 5725TIP3    H217133   5.871   7.519   0.118
 5726TIP3   OH217134   4.397   6.810   6.004
 5726TIP3    H117135   4.376   6.730   6.053
 5726TIP3    H217136   4.435   6.778   5.921
 5727TIP3   OH217137   5.450   0.716   6.321
 5727TIP3    H117138   5.422   0.735   6.231
 5727TIP3    H217139   5.424   0.625   6.336
 5728TIP3   OH217140   2.185   4.366   0.653
 5728TIP3    H117141   2.260   4.348   0.710
 5728TIP3    H217142   2.109   4.346   0.707
 5729TIP3   OH217143   1.255   6.561   4.692
 5729TIP3    H117144   1.327   6.569   4.754
 5729TIP3    H217145   1.186   6.517   4.740
 5730TIP3   OH217146   4.641   4.335   4.804
 5730TIP3    H117147   4.676   4.307   4.719
 5730TIP3    H217148   4.609   4.254   4.845
 5731TIP3   OH217149   8.192   4.991   2.706
 5731TIP3    H117150   8.234   5.015   2.788
 5731TIP3    H217151   8.226   5.055   2.643
 5732TIP3   OH217152   5.548   1.127   3.317
 5732TIP3    H117153   5.588   1.084   3.241
 5732TIP3    H217154   5.483   1.064   3.348
 5733TIP3   OH217155   4.351   3.669   1.890
 5733TIP3    H117156   4.305   3.753   1.890
 5733TIP3    H217157   4.320   3.625   1.969
 5734TIP3   OH217158   7.881   0.801   2.076
 5734TIP3    H117159   7.915   0.777   2.162
 5734TIP3    H217160   7.945   0.863   2.042
 5735TIP3   OH217161   1.122   1.018   2.541
 5735TIP3    H117162   1.073   1.075   2.600
 5735TIP3    H217163   1.208   1.010   2.582
 5736TIP3   OH217164   7.086   5.327   0.044
 5736TIP3    H117165   7.148   5.296   0.110
 5736TIP3    H217166   7.102   5.271  -0.032
 5737TIP3   OH217167   2.085   6.391   5.917
 5737TIP3    H117168   1.995   6.402   5.948
 5737TIP3    H217169   2.130   6.349   5.990
 5738TIP3   OH217170   1.447   2.545   4.008
 5738TIP3    H117171   1.391   2.580   3.939
 5738TIP3    H217172   1.387   2.499   4.066
 5739TIP3   OH217173   0.253   5.846   4.001
 5739TIP3    H117174   0.300   5.927   4.020
 5739TIP3    H217175   0.290   5.782   4.062
 5740TIP3   OH217176   3.612   1.457   1.452
 5740TIP3    H117177   3.698   1.424   1.425
 5740TIP3    H217178   3.549   1.402   1.406
 5741TIP3   OH217179   1.636   5.812   4.944
 5741TIP3    H117180   1.627   5.877   5.014
 5741TIP3    H217181   1.546   5.787   4.923
 5742TIP3   OH217182   7.022   5.360   6.592
 5742TIP3    H117183   7.042   5.437   6.538
 5742TIP3    H217184   7.020   5.393   6.681
 5743TIP3   OH217185   0.883   4.472   3.766
 5743TIP3    H117186   0.825   4.419   3.711
 5743TIP3    H217187   0.964   4.479   3.716
 5744TIP3   OH217188   5.308   6.177   3.700
 5744TIP3    H117189   5.380   6.180   3.637
 5744TIP3    H217190   5.349   6.158   3.784
 5745TIP3   OH217191   8.068   7.747   3.241
 5745TIP3    H117192   8.035   7.661   3.217
 5745TIP3    H217193   8.091   7.739   3.334
 5746TIP3   OH217194   5.856   2.855   2.392
 5746TIP3    H117195   5.870   2.908   2.471
 5746TIP3    H217196   5.783   2.898   2.347
 5747TIP3   OH217197   0.645   5.971   1.329
 5747TIP3    H117198   0.740   5.977   1.314
 5747TIP3    H217199   0.624   5.879   1.315
 5748TIP3   OH217200   4.999   2.256   1.621
 5748TIP3    H117201   4.955   2.300   1.695
 5748TIP3    H217202   5.060   2.195   1.662
 5749TIP3   OH217203   1.679   3.690   2.797
 5749TIP3    H117204   1.675   3.594   2.793
 5749TIP3    H217205   1.701   3.709   2.888
 5750TIP3   OH217206   4.716   2.169   1.916
 5750TIP3    H117207   4.708   2.237   1.848
 5750TIP3    H217208   4.783   2.110   1.882
 5751TIP3   OH217209   2.004   3.586   3.774
 5751TIP3    H117210   2.015   3.494   3.751
 5751TIP3    H217211   2.055   3.598   3.854
 5752TIP3   OH217212   0.114   0.347   5.885
 5752TIP3    H117213   0.184   0.332   5.948
 5752TIP3    H217214   0.099   0.261   5.845
 5753TIP3   OH217215   6.905   1.890   4.922
 5753TIP3    H117216   6.846   1.817   4.941
 5753TIP3    H217217   6.986   1.848   4.891
 5754TIP3   OH217218   3.599   6.267   0.860
 5754TIP3    H117219   3.666   6.328   0.889
 5754TIP3    H217220   3.608   6.192   0.918
 5755TIP3   OH217221   7.196   2.456   1.541
 5755TIP3    H117222   7.263   2.393   1.570
 5755TIP3    H217223   7.166   2.498   1.622
 5756TIP3   OH217224   5.407   6.274   1.465
 5756TIP3    H117225   5.430   6.367   1.460
 5756TIP3    H217226   5.382   6.260   1.556
 5757TIP3   OH217227   5.651   5.758   5.179
 5757TIP3    H117228   5.614   5.691   5.120
 5757TIP3    H217229   5.686   5.707   5.252
 5758TIP3   OH217230   6.391   4.438   3.450
 5758TIP3    H117231   6.449   4.479   3.514
 5758TIP3    H217232   6.306   4.435   3.494
 5759TIP3   OH217233   0.391   2.992   6.368
 5759TIP3    H117234   0.451   3.001   6.293
 5759TIP3    H217235   0.367   3.082   6.389
 5760TIP3   OH217236   8.080   6.566   0.331
 5760TIP3    H117237   8.119   6.620   0.400
 5760TIP3    H217238   8.119   6.600   0.250
 5761TIP3   OH217239   6.165   2.718   6.504
 5761TIP3    H117240   6.260   2.717   6.515
 5761TIP3    H217241   6.148   2.800   6.457
 5762TIP3   OH217242   1.217   2.175   1.000
 5762TIP3    H117243   1.219   2.234   0.925
 5762TIP3    H217244   1.139   2.122   0.986
 5763TIP3   OH217245   3.162   6.071   5.006
 5763TIP3    H117246   3.086   6.029   5.046
 5763TIP3    H217247   3.235   6.050   5.065
 5764TIP3   OH217248   1.427   5.282   2.965
 5764TIP3    H117249   1.443   5.291   3.059
 5764TIP3    H217250   1.494   5.220   2.935
 5765TIP3   OH217251   3.252   7.252   2.801
 5765TIP3    H117252   3.165   7.250   2.841
 5765TIP3    H217253   3.311   7.230   2.872
 5766TIP3   OH217254   6.630   0.573   2.963
 5766TIP3    H117255   6.663   0.660   2.985
 5766TIP3    H217256   6.542   0.569   3.000
 5767TIP3   OH217257   1.928   3.603   3.290
 5767TIP3    H117258   1.977   3.641   3.363
 5767TIP3    H217259   1.946   3.509   3.294
 5768TIP3   OH217260   5.616   3.734   2.979
 5768TIP3    H117261   5.682   3.769   2.920
 5768TIP3    H217262   5.545   3.798   2.977
 5769TIP3   OH217263   5.064   4.846   0.917
 5769TIP3    H117264   5.081   4.808   0.831
 5769TIP3    H217265   4.969   4.860   0.919
 5770TIP3   OH217266   3.451   1.209   2.519
 5770TIP3    H117267   3.367   1.246   2.490
 5770TIP3    H217268   3.470   1.141   2.455
 5771TIP3   OH217269   7.324   1.353   3.851
 5771TIP3    H117270   7.292   1.270   3.817
 5771TIP3    H217271   7.381   1.329   3.925
 5772TIP3   OH217272   4.435   5.354   3.768
 5772TIP3    H117273   4.435   5.338   3.674
 5772TIP3    H217274   4.380   5.284   3.804
 5773TIP3   OH217275   0.843   3.588   4.858
 5773TIP3    H117276   0.770   3.633   4.815
 5773TIP3    H217277   0.875   3.526   4.792
 5774TIP3   OH217278   7.108   1.160   2.047
 5774TIP3    H117279   7.046   1.223   2.084
 5774TIP3    H217280   7.190   1.209   2.038
 5775TIP3   OH217281   1.604   5.949   5.659
 5775TIP3    H117282   1.528   5.998   5.627
 5775TIP3    H217283   1.667   5.953   5.588
 5776TIP3   OH217284   0.357   3.040   0.704
 5776TIP3    H117285   0.304   3.024   0.782
 5776TIP3    H217286   0.297   3.081   0.642
 5777TIP3   OH217287   7.231   3.025   2.495
 5777TIP3    H117288   7.251   2.978   2.414
 5777TIP3    H217289   7.160   3.084   2.471
 5778TIP3   OH217290   3.862   3.346   3.776
 5778TIP3    H117291   3.881   3.301   3.693
 5778TIP3    H217292   3.919   3.422   3.775
 5779TIP3   OH217293   2.870   5.126   4.012
 5779TIP3    H117294   2.918   5.045   3.996
 5779TIP3    H217295   2.903   5.187   3.946
 5780TIP3   OH217296   5.918   2.810   1.010
 5780TIP3    H117297   5.846   2.773   1.061
 5780TIP3    H217298   5.879   2.885   0.964
 5781TIP3   OH217299   7.807   1.542   5.856
 5781TIP3    H117300   7.766   1.499   5.930
 5781TIP3    H217301   7.848   1.472   5.806
 5782TIP3   OH217302   2.972   0.959   5.176
 5782TIP3    H117303   2.934   0.983   5.092
 5782TIP3    H217304   2.906   0.905   5.219
 5783TIP3   OH217305   7.390   7.016   3.389
 5783TIP3    H117306   7.403   6.962   3.311
 5783TIP3    H217307   7.404   7.106   3.359
 5784TIP3   OH217308   2.593   0.170   3.135
 5784TIP3    H117309   2.580   0.077   3.151
 5784TIP3    H217310   2.646   0.200   3.210
 5785TIP3   OH217311   3.201   5.869   5.458
 5785TIP3    H117312   3.293   5.850   5.476
 5785TIP3    H217313   3.178   5.808   5.388
 5786TIP3   OH217314   7.812   3.261   6.369
 5786TIP3    H117315   7.777   3.213   6.444
 5786TIP3    H217316   7.787   3.352   6.385
 5787TIP3   OH217317   4.718   0.553   1.640
 5787TIP3    H117318   4.659   0.523   1.571
 5787TIP3    H217319   4.793   0.590   1.593
 5788TIP3   OH217320   7.193   0.473   6.571
 5788TIP3    H117321   7.198   0.510   6.483
 5788TIP3    H217322   7.234   0.387   6.563
 5789TIP3   OH217323   5.405   6.946   5.067
 5789TIP3    H117324   5.348   7.020   5.091
 5789TIP3    H217325   5.346   6.871   5.061
 5790TIP3   OH217326   4.456   2.074   4.543
 5790TIP3    H117327   4.517   2.021   4.492
 5790TIP3    H217328   4.377   2.078   4.489
 5791TIP3   OH217329   1.232   4.983   5.201
 5791TIP3    H117330   1.299   5.011   5.264
 5791TIP3    H217331   1.180   4.919   5.249
 5792TIP3   OH217332   0.174   2.057   3.809
 5792TIP3    H117333   0.144   1.995   3.875
 5792TIP3    H217334   0.204   2.133   3.859
 5793TIP3   OH217335   0.204   1.806   3.671
 5793TIP3    H117336   0.205   1.892   3.713
 5793TIP3    H217337   0.115   1.772   3.689
 5794TIP3   OH217338   0.123   4.628   1.973
 5794TIP3    H117339   0.047   4.571   1.983
 5794TIP3    H217340   0.090   4.715   1.992
 5795TIP3   OH217341   2.234   5.666   6.726
 5795TIP3    H117342   2.153   5.681   6.676
 5795TIP3    H217343   2.205   5.623   6.806
 5796TIP3   OH217344   0.246   7.059   6.173
 5796TIP3    H117345   0.251   7.114   6.094
 5796TIP3    H217346   0.301   6.983   6.153
 5797TIP3   OH217347   2.485   0.893   4.875
 5797TIP3    H117348   2.457   0.973   4.830
 5797TIP3    H217349   2.413   0.874   4.936
 5798TIP3   OH217350   1.161   0.245   3.036
 5798TIP3    H117351   1.234   0.212   3.087
 5798TIP3    H217352   1.163   0.192   2.956
 5799TIP3   OH217353   0.316   6.752   3.149
 5799TIP3    H117354   0.232   6.769   3.192
 5799TIP3    H217355   0.381   6.788   3.209
 5800TIP3   OH217356   3.722   1.371   6.305
 5800TIP3    H117357   3.814   1.397   6.316
 5800TIP3    H217358   3.673   1.452   6.317
 5801TIP3   OH217359   2.944   3.272   4.105
 5801TIP3    H117360   2.965   3.199   4.163
 5801TIP3    H217361   3.021   3.330   4.111
 5802TIP3   OH217362   2.530   7.155   2.046
 5802TIP3    H117363   2.549   7.076   1.994
 5802TIP3    H217364   2.503   7.121   2.132
 5803TIP3   OH217365   7.210   4.019   4.400
 5803TIP3    H117366   7.173   4.046   4.484
 5803TIP3    H217367   7.283   3.962   4.423
 5804TIP3   OH217368   1.317   2.467   4.411
 5804TIP3    H117369   1.302   2.461   4.506
 5804TIP3    H217370   1.362   2.386   4.390
 5805TIP3   OH217371   7.629   1.422   1.218
 5805TIP3    H117372   7.718   1.388   1.226
 5805TIP3    H217373   7.636   1.495   1.156
 5806TIP3   OH217374   0.668   5.433   0.332
 5806TIP3    H117375   0.636   5.476   0.411
 5806TIP3    H217376   0.710   5.502   0.282
 5807TIP3   OH217377   5.850   6.436   1.989
 5807TIP3    H117378   5.811   6.382   2.057
 5807TIP3    H217379   5.873   6.374   1.920
 5808TIP3   OH217380   4.908   7.302   5.246
 5808TIP3    H117381   5.003   7.307   5.262
 5808TIP3    H217382   4.880   7.223   5.292
 5809TIP3   OH217383   7.958   0.042   6.615
 5809TIP3    H117384   7.935   0.036   6.523
 5809TIP3    H217385   8.053   0.058   6.615
 5810TIP3   OH217386   2.010   3.421   2.566
 5810TIP3    H117387   1.972   3.384   2.645
 5810TIP3    H217388   2.038   3.509   2.592
 5811TIP3   OH217389   4.394   4.093   4.420
 5811TIP3    H117390   4.369   4.032   4.351
 5811TIP3    H217391   4.488   4.079   4.432
 5812TIP3   OH217392   6.576   5.397   1.742
 5812TIP3    H117393   6.545   5.394   1.833
 5812TIP3    H217394   6.667   5.424   1.748
 5813TIP3   OH217395   7.580   0.364   4.729
 5813TIP3    H117396   7.548   0.413   4.654
 5813TIP3    H217397   7.566   0.423   4.804
 5814TIP3   OH217398   1.662   5.126   1.896
 5814TIP3    H117399   1.573   5.144   1.926
 5814TIP3    H217400   1.658   5.134   1.801
 5815TIP3   OH217401   7.681   5.846   6.327
 5815TIP3    H117402   7.773   5.821   6.315
 5815TIP3    H217403   7.672   5.929   6.280
 5816TIP3   OH217404   6.501   3.898   4.213
 5816TIP3    H117405   6.479   3.814   4.253
 5816TIP3    H217406   6.420   3.949   4.218
 5817TIP3   OH217407   2.977   4.936   1.735
 5817TIP3    H117408   2.933   4.930   1.820
 5817TIP3    H217409   3.050   4.996   1.749
 5818TIP3   OH217410   3.257   2.889   6.415
 5818TIP3    H117411   3.317   2.946   6.465
 5818TIP3    H217412   3.263   2.804   6.458
 5819TIP3   OH217413   7.088   4.074   2.390
 5819TIP3    H117414   7.063   4.139   2.323
 5819TIP3    H217415   7.153   4.019   2.347
 5820TIP3   OH217416   4.354   5.675   0.162
 5820TIP3    H117417   4.432   5.632   0.198
 5820TIP3    H217418   4.326   5.618   0.091
 5821TIP3   OH217419   5.920   6.080   3.896
 5821TIP3    H117420   5.860   6.042   3.832
 5821TIP3    H217421   5.946   6.005   3.950
 5822TIP3   OH217422   6.906   7.119   2.677
 5822TIP3    H117423   6.927   7.203   2.636
 5822TIP3    H217424   6.831   7.137   2.733
 5823TIP3   OH217425   7.988   2.774   1.075
 5823TIP3    H117426   7.999   2.722   0.995
 5823TIP3    H217427   8.048   2.848   1.063
 5824TIP3   OH217428   2.829   6.372   0.999
 5824TIP3    H117429   2.834   6.282   0.964
 5824TIP3    H217430   2.920   6.399   1.009
 5825TIP3   OH217431   1.675   5.037   3.165
 5825TIP3    H117432   1.757   5.083   3.146
 5825TIP3    H217433   1.618   5.105   3.203
 5826TIP3   OH217434   0.429   1.286   6.673
 5826TIP3    H117435   0.437   1.374   6.637
 5826TIP3    H217436   0.503   1.278   6.733
 5827TIP3   OH217437   7.103   5.328   3.125
 5827TIP3    H117438   7.090   5.238   3.096
 5827TIP3    H217439   7.036   5.378   3.077
 5828TIP3   OH217440   7.079   0.496   2.790
 5828TIP3    H117441   7.014   0.431   2.816
 5828TIP3    H217442   7.045   0.533   2.709
 5829TIP3   OH217443   5.371   5.433   5.124
 5829TIP3    H117444   5.380   5.360   5.064
 5829TIP3    H217445   5.452   5.431   5.176
 5830TIP3   OH217446   0.965   2.389   4.297
 5830TIP3    H117447   0.969   2.322   4.229
 5830TIP3    H217448   1.040   2.370   4.353
 5831TIP3   OH217449   6.401   6.228   4.134
 5831TIP3    H117450   6.445   6.308   4.105
 5831TIP3    H217451   6.399   6.172   4.057
 5832TIP3   OH217452   5.415   3.609   5.312
 5832TIP3    H117453   5.404   3.516   5.290
 5832TIP3    H217454   5.332   3.634   5.353
 5833TIP3   OH217455   2.951   1.567   1.289
 5833TIP3    H117456   2.942   1.577   1.195
 5833TIP3    H217457   2.862   1.576   1.323
 5834TIP3   OH217458   1.578   0.037   3.122
 5834TIP3    H117459   1.662   0.003   3.091
 5834TIP3    H217460   1.582   0.026   3.217
 5835TIP3   OH217461   3.223   2.165   0.187
 5835TIP3    H117462   3.315   2.138   0.190
 5835TIP3    H217463   3.225   2.259   0.203
 5836TIP3   OH217464   3.076   1.672   3.100
 5836TIP3    H117465   2.988   1.633   3.093
 5836TIP3    H217466   3.060   1.762   3.128
 5837TIP3   OH217467   7.181   4.839   5.564
 5837TIP3    H117468   7.229   4.795   5.634
 5837TIP3    H217469   7.142   4.915   5.605
 5838TIP3   OH217470   3.772   1.141   6.170
 5838TIP3    H117471   3.843   1.139   6.235
 5838TIP3    H217472   3.740   1.231   6.172
 5839TIP3   OH217473   2.755   6.802   5.753
 5839TIP3    H117474   2.731   6.713   5.727
 5839TIP3    H217475   2.849   6.808   5.733
 5840TIP3   OH217476   4.120   7.254   2.434
 5840TIP3    H117477   4.076   7.178   2.472
 5840TIP3    H217478   4.105   7.246   2.340
 5841TIP3   OH217479   6.036   5.883   4.034
 5841TIP3    H117480   6.057   5.799   3.995
 5841TIP3    H217481   6.121   5.917   4.065
 5842TIP3   OH217482   7.899   6.324   4.631
 5842TIP3    H117483   7.942   6.249   4.589
 5842TIP3    H217484   7.957   6.398   4.611
 5843TIP3   OH217485   1.197   3.719   6.474
 5843TIP3    H117486   1.242   3.654   6.527
 5843TIP3    H217487   1.106   3.715   6.503
 5844TIP3   OH217488   7.877   3.242   0.889
 5844TIP3    H117489   7.815   3.206   0.952
 5844TIP3    H217490   7.845   3.212   0.804
 5845TIP3   OH217491   0.925   0.018   2.816
 5845TIP3    H117492   0.882   0.084   2.763
 5845TIP3    H217493   1.017   0.045   2.819
 5846TIP3   OH217494   3.876   3.322   2.521
 5846TIP3    H117495   3.841   3.246   2.474
 5846TIP3    H217496   3.809   3.389   2.511
 5847TIP3   OH217497   1.591   6.802   1.578
 5847TIP3    H117498   1.591   6.770   1.668
 5847TIP3    H217499   1.636   6.734   1.528
 5848TIP3   OH217500   7.189   5.728   5.256
 5848TIP3    H117501   7.144   5.766   5.331
 5848TIP3    H217502   7.247   5.798   5.226
 5849TIP3   OH217503   0.373   2.005   3.405
 5849TIP3    H117504   0.278   1.989   3.406
 5849TIP3    H217505   0.410   1.928   3.361
 5850TIP3   OH217506   2.007   5.257   4.753
 5850TIP3    H117507   1.963   5.236   4.836
 5850TIP3    H217508   1.987   5.349   4.737
 5851TIP3   OH217509   4.495   4.445   3.389
 5851TIP3    H117510   4.566   4.394   3.349
 5851TIP3    H217511   4.423   4.383   3.396
 5852TIP3   OH217512   3.022   6.549   4.889
 5852TIP3    H117513   2.992   6.588   4.971
 5852TIP3    H217514   2.944   6.550   4.832
 5853TIP3   OH217515   7.263   7.077   2.281
 5853TIP3    H117516   7.238   7.081   2.189
 5853TIP3    H217517   7.227   7.157   2.319
 5854TIP3   OH217518   7.768   4.313   4.332
 5854TIP3    H117519   7.795   4.376   4.399
 5854TIP3    H217520   7.830   4.325   4.261
 5855TIP3   OH217521   6.736   2.519   2.717
 5855TIP3    H117522   6.719   2.591   2.777
 5855TIP3    H217523   6.798   2.463   2.764
 5856TIP3   OH217524   2.456   0.136   0.268
 5856TIP3    H117525   2.511   0.182   0.332
 5856TIP3    H217526   2.419   0.207   0.214
 5857TIP3   OH217527   4.733   0.903   2.605
 5857TIP3    H117528   4.821   0.884   2.572
 5857TIP3    H217529   4.744   0.978   2.663
 5858TIP3   OH217530   6.586   5.698   4.906
 5858TIP3    H117531   6.543   5.671   4.987
 5858TIP3    H217532   6.590   5.619   4.853
 5859TIP3   OH217533   6.914   4.205   3.078
 5859TIP3    H117534   6.968   4.245   3.146
 5859TIP3    H217535   6.846   4.271   3.059
 5860TIP3   OH217536   2.999   5.748   2.594
 5860TIP3    H117537   2.908   5.726   2.614
 5860TIP3    H217538   2.997   5.842   2.574
 5861TIP3   OH217539   1.706   1.931   6.368
 5861TIP3    H117540   1.780   1.936   6.307
 5861TIP3    H217541   1.672   1.842   6.356
 5862TIP3   OH217542   3.354   7.291   2.305
 5862TIP3    H117543   3.258   7.293   2.296
 5862TIP3    H217544   3.373   7.360   2.368
 5863TIP3   OH217545   7.410   7.034   1.802
 5863TIP3    H117546   7.438   6.949   1.768
 5863TIP3    H217547   7.417   7.093   1.728
 5864TIP3   OH217548   7.474   3.090   5.934
 5864TIP3    H117549   7.487   3.005   5.890
 5864TIP3    H217550   7.385   3.116   5.910
 5865TIP3   OH217551   3.610   7.683   0.317
 5865TIP3    H117552   3.693   7.643   0.344
 5865TIP3    H217553   3.621   7.776   0.334
 5866TIP3   OH217554   0.144   4.198   0.737
 5866TIP3    H117555   0.132   4.170   0.646
 5866TIP3    H217556   0.225   4.250   0.735
 5867TIP3   OH217557   5.361   6.959   5.819
 5867TIP3    H117558   5.331   6.977   5.908
 5867TIP3    H217559   5.436   7.017   5.806
 5868TIP3   OH217560   5.053   7.052   0.378
 5868TIP3    H117561   5.085   7.142   0.380
 5868TIP3    H217562   5.010   7.044   0.293
 5869TIP3   OH217563   0.805   4.090   0.164
 5869TIP3    H117564   0.804   4.132   0.250
 5869TIP3    H217565   0.878   4.131   0.118
 5870TIP3   OH217566   6.869   7.258   4.392
 5870TIP3    H117567   6.844   7.176   4.349
 5870TIP3    H217568   6.829   7.253   4.479
 5871TIP3   OH217569   7.770   5.007   3.255
 5871TIP3    H117570   7.746   5.060   3.178
 5871TIP3    H217571   7.748   4.918   3.230
 5872TIP3   OH217572   3.581   3.395   4.520
 5872TIP3    H117573   3.610   3.305   4.505
 5872TIP3    H217574   3.617   3.418   4.606
 5873TIP3   OH217575   1.936   2.992   4.071
 5873TIP3    H117576   1.910   2.917   4.124
 5873TIP3    H217577   2.023   3.015   4.103
 5874TIP3   OH217578   7.349   0.791   3.161
 5874TIP3    H117579   7.265   0.785   3.206
 5874TIP3    H217580   7.331   0.757   3.073
 5875TIP3   OH217581   6.600   4.539   3.610
 5875TIP3    H117582   6.678   4.495   3.642
 5875TIP3    H217583   6.536   4.528   3.681
 5876TIP3   OH217584   1.117   5.538   4.336
 5876TIP3    H117585   1.194   5.573   4.381
 5876TIP3    H217586   1.044   5.562   4.393
 5877TIP3   OH217587   3.132   6.509   5.545
 5877TIP3    H117588   3.101   6.520   5.635
 5877TIP3    H217589   3.051   6.507   5.493
 5878TIP3   OH217590   1.281   4.317   4.281
 5878TIP3    H117591   1.274   4.386   4.346
 5878TIP3    H217592   1.365   4.275   4.300
 5879TIP3   OH217593   1.217   7.409   2.053
 5879TIP3    H117594   1.128   7.444   2.043
 5879TIP3    H217595   1.232   7.358   1.973
 5880TIP3   OH217596   0.143   5.109   4.136
 5880TIP3    H117597   0.225   5.117   4.185
 5880TIP3    H217598   0.134   5.193   4.090
 5881TIP3   OH217599   2.564   3.534   4.854
 5881TIP3    H117600   2.634   3.482   4.893
 5881TIP3    H217601   2.552   3.607   4.915
 5882TIP3   OH217602   4.317   1.190   4.612
 5882TIP3    H117603   4.342   1.281   4.630
 5882TIP3    H217604   4.301   1.188   4.517
 5883TIP3   OH217605   7.086   5.719   3.238
 5883TIP3    H117606   7.156   5.712   3.304
 5883TIP3    H217607   7.072   5.813   3.228
 5884TIP3   OH217608   4.128   0.375   3.163
 5884TIP3    H117609   4.108   0.301   3.106
 5884TIP3    H217610   4.097   0.451   3.115
 5885TIP3   OH217611   2.203   7.394   0.214
 5885TIP3    H117612   2.249   7.373   0.295
 5885TIP3    H217613   2.110   7.392   0.237
 5886TIP3   OH217614   3.026   6.090   3.653
 5886TIP3    H117615   3.119   6.105   3.671
 5886TIP3    H217616   3.016   5.995   3.656
 5887TIP3   OH217617   3.560   2.544   2.959
 5887TIP3    H117618   3.572   2.516   2.868
 5887TIP3    H217619   3.486   2.494   2.990
 5888TIP3   OH217620   4.731   0.562   3.430
 5888TIP3    H117621   4.705   0.535   3.342
 5888TIP3    H217622   4.733   0.480   3.480
 5889TIP3   OH217623   4.250   7.262   3.031
 5889TIP3    H117624   4.254   7.256   2.936
 5889TIP3    H217625   4.287   7.348   3.051
 5890TIP3   OH217626   2.138   6.121   6.426
 5890TIP3    H117627   2.074   6.151   6.491
 5890TIP3    H217628   2.097   6.044   6.387
 5891TIP3   OH217629   3.039   4.730   6.005
 5891TIP3    H117630   3.065   4.725   6.097
 5891TIP3    H217631   3.029   4.824   5.988
 5892TIP3   OH217632   1.802   3.443   5.304
 5892TIP3    H117633   1.798   3.367   5.246
 5892TIP3    H217634   1.877   3.493   5.273
 5893TIP3   OH217635   6.180   0.245   2.584
 5893TIP3    H117636   6.128   0.245   2.664
 5893TIP3    H217637   6.117   0.266   2.514
 5894TIP3   OH217638   2.260   3.461   4.260
 5894TIP3    H117639   2.278   3.536   4.204
 5894TIP3    H217640   2.192   3.413   4.215
 5895TIP3   OH217641   3.830   0.308   0.496
 5895TIP3    H117642   3.796   0.387   0.538
 5895TIP3    H217643   3.806   0.317   0.403
 5896TIP3   OH217644   4.038   5.076   4.486
 5896TIP3    H117645   4.055   5.132   4.561
 5896TIP3    H217646   4.072   5.124   4.411
 5897TIP3   OH217647   1.826   4.890   1.481
 5897TIP3    H117648   1.910   4.875   1.438
 5897TIP3    H217649   1.761   4.863   1.417
 5898TIP3   OH217650   0.515   4.242   5.266
 5898TIP3    H117651   0.603   4.214   5.238
 5898TIP3    H217652   0.458   4.169   5.242
 5899TIP3   OH217653   7.751   0.107   3.487
 5899TIP3    H117654   7.656   0.095   3.488
 5899TIP3    H217655   7.777   0.090   3.397
 5900TIP3   OH217656   5.839   4.697   2.625
 5900TIP3    H117657   5.858   4.757   2.696
 5900TIP3    H217658   5.796   4.750   2.558
 5901TIP3   OH217659   6.186   3.097   5.328
 5901TIP3    H117660   6.182   3.011   5.370
 5901TIP3    H217661   6.270   3.097   5.282
 5902TIP3   OH217662   3.587   1.385   6.741
 5902TIP3    H117663   3.525   1.378   6.813
 5902TIP3    H217664   3.560   1.317   6.680
 5903TIP3   OH217665   7.055   6.189   2.852
 5903TIP3    H117666   7.076   6.139   2.772
 5903TIP3    H217667   7.094   6.275   2.838
 5904TIP3   OH217668   7.294   7.376   1.858
 5904TIP3    H117669   7.221   7.415   1.906
 5904TIP3    H217670   7.369   7.387   1.916
 5905TIP3   OH217671   6.025   0.264   5.339
 5905TIP3    H117672   6.093   0.291   5.400
 5905TIP3    H217673   6.072   0.243   5.258
 5906TIP3   OH217674   4.025   1.667   3.984
 5906TIP3    H117675   4.008   1.734   4.049
 5906TIP3    H217676   3.939   1.632   3.961
 5907TIP3   OH217677   1.168   1.392   1.054
 5907TIP3    H117678   1.196   1.317   1.002
 5907TIP3    H217679   1.160   1.464   0.992
 5908TIP3   OH217680   6.068   0.904   6.604
 5908TIP3    H117681   6.013   0.838   6.562
 5908TIP3    H217682   6.065   0.979   6.545
 5909TIP3   OH217683   5.302   1.168   3.017
 5909TIP3    H117684   5.300   1.090   3.072
 5909TIP3    H217685   5.369   1.223   3.056
 5910TIP3   OH217686   7.924   3.878   4.167
 5910TIP3    H117687   7.988   3.915   4.227
 5910TIP3    H217688   7.975   3.825   4.106
 5911TIP3   OH217689   5.803   5.890   0.418
 5911TIP3    H117690   5.887   5.855   0.447
 5911TIP3    H217691   5.809   5.984   0.434
 5912TIP3   OH217692   6.149   0.758   1.512
 5912TIP3    H117693   6.218   0.715   1.563
 5912TIP3    H217694   6.077   0.768   1.574
 5913TIP3   OH217695   0.461   5.759   2.927
 5913TIP3    H117696   0.479   5.839   2.975
 5913TIP3    H217697   0.470   5.783   2.835
 5914TIP3   OH217698   1.617   4.530   0.011
 5914TIP3    H117699   1.661   4.479  -0.057
 5914TIP3    H217700   1.603   4.467   0.082
 5915TIP3   OH217701   1.792   1.134   4.270
 5915TIP3    H117702   1.709   1.181   4.279
 5915TIP3    H217703   1.855   1.203   4.248
 5916TIP3   OH217704   2.141   0.313   2.039
 5916TIP3    H117705   2.163   0.338   2.129
 5916TIP3    H217706   2.048   0.336   2.030
 5917TIP3   OH217707   6.143   3.984   2.226
 5917TIP3    H117708   6.118   3.897   2.193
 5917TIP3    H217709   6.071   4.041   2.199
 5918TIP3   OH217710   0.257   2.934   4.839
 5918TIP3    H117711   0.294   2.917   4.752
 5918TIP3    H217712   0.325   2.984   4.884
 5919TIP3   OH217713   2.659   1.734   3.191
 5919TIP3    H117714   2.627   1.694   3.272
 5919TIP3    H217715   2.735   1.786   3.218
 5920TIP3   OH217716   1.469   3.579   2.315
 5920TIP3    H117717   1.436   3.588   2.225
 5920TIP3    H217718   1.452   3.487   2.337
 5921TIP3   OH217719   2.310   5.460   2.378
 5921TIP3    H117720   2.246   5.442   2.309
 5921TIP3    H217721   2.322   5.375   2.421
 5922TIP3   OH217722   1.069   2.281   6.233
 5922TIP3    H117723   1.006   2.209   6.247
 5922TIP3    H217724   1.099   2.304   6.321
 5923TIP3   OH217725   4.120   0.847   1.340
 5923TIP3    H117726   4.198   0.866   1.392
 5923TIP3    H217727   4.150   0.786   1.272
 5924TIP3   OH217728   2.535   6.884   5.225
 5924TIP3    H117729   2.547   6.790   5.210
 5924TIP3    H217730   2.441   6.894   5.241
 5925TIP3   OH217731   4.712   5.105   1.656
 5925TIP3    H117732   4.684   5.017   1.632
 5925TIP3    H217733   4.740   5.098   1.747
 5926TIP3   OH217734   0.950   4.022   6.560
 5926TIP3    H117735   0.895   4.010   6.638
 5926TIP3    H217736   0.966   3.932   6.529
 5927TIP3   OH217737   1.992   3.212   2.390
 5927TIP3    H117738   1.901   3.223   2.365
 5927TIP3    H217739   2.015   3.294   2.434
 5928TIP3   OH217740   1.783   0.277   4.090
 5928TIP3    H117741   1.840   0.307   4.161
 5928TIP3    H217742   1.801   0.337   4.018
 5929TIP3   OH217743   0.729   2.481   4.168
 5929TIP3    H117744   0.653   2.423   4.174
 5929TIP3    H217745   0.800   2.434   4.212
 5930TIP3   OH217746   1.771   3.718   3.813
 5930TIP3    H117747   1.847   3.746   3.763
 5930TIP3    H217748   1.805   3.700   3.900
 5931TIP3   OH217749   7.498   6.110   3.272
 5931TIP3    H117750   7.405   6.087   3.269
 5931TIP3    H217751   7.505   6.189   3.219
 5932TIP3   OH217752   6.446   2.067   6.279
 5932TIP3    H117753   6.504   2.142   6.289
 5932TIP3    H217754   6.491   2.011   6.215
 5933TIP3   OH217755   7.609   2.732   0.059
 5933TIP3    H117756   7.513   2.739   0.058
 5933TIP3    H217757   7.637   2.780  -0.018
 5934TIP3   OH217758   0.466   2.768   0.704
 5934TIP3    H117759   0.518   2.842   0.673
 5934TIP3    H217760   0.401   2.807   0.762
 5935TIP3   OH217761   7.223   6.112   0.691
 5935TIP3    H117762   7.136   6.084   0.718
 5935TIP3    H217763   7.261   6.036   0.647
 5936TIP3   OH217764   0.140   5.395   6.665
 5936TIP3    H117765   0.049   5.364   6.673
 5936TIP3    H217766   0.186   5.323   6.622
 5937TIP3   OH217767   0.374   6.793   5.702
 5937TIP3    H117768   0.452   6.756   5.743
 5937TIP3    H217769   0.406   6.832   5.620
 5938TIP3   OH217770   7.051   4.951   1.164
 5938TIP3    H117771   7.141   4.976   1.189
 5938TIP3    H217772   7.054   4.942   1.069
 5939TIP3   OH217773   0.206   0.361   4.584
 5939TIP3    H117774   0.232   0.315   4.664
 5939TIP3    H217775   0.167   0.442   4.616
 5940TIP3   OH217776   4.718   6.573   6.666
 5940TIP3    H117777   4.697   6.550   6.757
 5940TIP3    H217778   4.813   6.563   6.661
 5941TIP3   OH217779   4.436   0.340   5.836
 5941TIP3    H117780   4.357   0.288   5.852
 5941TIP3    H217781   4.506   0.290   5.879
 5942TIP3   OH217782   4.057   4.791   1.802
 5942TIP3    H117783   3.994   4.773   1.872
 5942TIP3    H217784   4.124   4.723   1.813
 5943TIP3   OH217785   5.758   2.478   0.335
 5943TIP3    H117786   5.837   2.432   0.365
 5943TIP3    H217787   5.718   2.512   0.415
 5944TIP3   OH217788   3.160   5.113   5.097
 5944TIP3    H117789   3.080   5.079   5.136
 5944TIP3    H217790   3.194   5.040   5.045
 5945TIP3   OH217791   6.443   2.819   0.144
 5945TIP3    H117792   6.472   2.892   0.199
 5945TIP3    H217793   6.386   2.860   0.078
 5946TIP3   OH217794   4.737   6.929   1.737
 5946TIP3    H117795   4.759   6.875   1.813
 5946TIP3    H217796   4.765   6.878   1.662
 5947TIP3   OH217797   7.683   1.830   0.867
 5947TIP3    H117798   7.696   1.923   0.850
 5947TIP3    H217799   7.637   1.797   0.789
 5948TIP3   OH217800   3.887   0.611   4.052
 5948TIP3    H117801   3.800   0.607   4.090
 5948TIP3    H217802   3.933   0.677   4.105
 5949TIP3   OH217803   0.598   4.979   1.765
 5949TIP3    H117804   0.517   4.995   1.814
 5949TIP3    H217805   0.648   5.061   1.775
 5950TIP3   OH217806   0.918   0.647   2.997
 5950TIP3    H117807   0.946   0.613   3.081
 5950TIP3    H217808   0.954   0.585   2.933
 5951TIP3   OH217809   3.319   4.740   3.482
 5951TIP3    H117810   3.375   4.804   3.437
 5951TIP3    H217811   3.290   4.681   3.413
 5952TIP3   OH217812   1.197   6.742   0.821
 5952TIP3    H117813   1.285   6.753   0.786
 5952TIP3    H217814   1.161   6.830   0.825
 5953TIP3   OH217815   7.202   3.153   3.538
 5953TIP3    H117816   7.239   3.084   3.484
 5953TIP3    H217817   7.275   3.183   3.592
 5954TIP3   OH217818   6.032   4.122   5.580
 5954TIP3    H117819   6.096   4.052   5.567
 5954TIP3    H217820   6.083   4.196   5.613
 5955TIP3   OH217821   0.915   6.371   4.382
 5955TIP3    H117822   0.949   6.285   4.407
 5955TIP3    H217823   0.919   6.423   4.462
 5956TIP3   OH217824   2.574   7.221   4.749
 5956TIP3    H117825   2.660   7.181   4.761
 5956TIP3    H217826   2.522   7.187   4.822
 5957TIP3   OH217827   6.684   2.664   0.789
 5957TIP3    H117828   6.779   2.657   0.799
 5957TIP3    H217829   6.652   2.689   0.875
 5958TIP3   OH217830   6.533   6.474   1.508
 5958TIP3    H117831   6.480   6.474   1.588
 5958TIP3    H217832   6.485   6.416   1.448
 5959TIP3   OH217833   7.352   7.527   2.986
 5959TIP3    H117834   7.358   7.621   2.971
 5959TIP3    H217835   7.442   7.499   2.999
 5960TIP3   OH217836   4.263   6.831   2.135
 5960TIP3    H117837   4.177   6.794   2.114
 5960TIP3    H217838   4.310   6.761   2.180
 5961TIP3   OH217839   5.166   7.282   3.249
 5961TIP3    H117840   5.158   7.193   3.282
 5961TIP3    H217841   5.252   7.312   3.280
 5962TIP3   OH217842   2.809   4.413   4.826
 5962TIP3    H117843   2.735   4.424   4.766
 5962TIP3    H217844   2.826   4.502   4.858
 5963TIP3   OH217845   1.210   0.079   6.430
 5963TIP3    H117846   1.268   0.038   6.494
 5963TIP3    H217847   1.143   0.122   6.483
 5964TIP3   OH217848   5.778   3.013   1.287
 5964TIP3    H117849   5.711   3.072   1.252
 5964TIP3    H217850   5.848   3.015   1.222
 5965TIP3   OH217851   0.996   6.599   2.927
 5965TIP3    H117852   1.046   6.584   3.007
 5965TIP3    H217853   0.985   6.512   2.888
 5966TIP3   OH217854   4.161   1.518   4.203
 5966TIP3    H117855   4.124   1.533   4.116
 5966TIP3    H217856   4.256   1.525   4.190
 5967TIP3   OH217857   1.619   7.399   0.862
 5967TIP3    H117858   1.579   7.332   0.918
 5967TIP3    H217859   1.654   7.351   0.788
 5968TIP3   OH217860   3.533   2.446   4.049
 5968TIP3    H117861   3.448   2.451   4.093
 5968TIP3    H217862   3.538   2.357   4.014
 5969TIP3   OH217863   1.408   2.061   1.154
 5969TIP3    H117864   1.484   2.094   1.107
 5969TIP3    H217865   1.333   2.095   1.106
 5970TIP3   OH217866   2.528   3.011   1.416
 5970TIP3    H117867   2.570   3.094   1.439
 5970TIP3    H217868   2.557   2.950   1.484
 5971TIP3   OH217869   1.336   3.394   4.201
 5971TIP3    H117870   1.240   3.396   4.201
 5971TIP3    H217871   1.362   3.481   4.230
 5972TIP3   OH217872   7.583   5.891   1.510
 5972TIP3    H117873   7.588   5.840   1.591
 5972TIP3    H217874   7.599   5.827   1.441
 5973TIP3   OH217875   1.840   4.737   6.280
 5973TIP3    H117876   1.806   4.794   6.349
 5973TIP3    H217877   1.791   4.762   6.202
 5974TIP3   OH217878   4.480   1.554   4.175
 5974TIP3    H117879   4.446   1.504   4.101
 5974TIP3    H217880   4.575   1.547   4.168
 5975TIP3   OH217881   7.212   4.295   0.923
 5975TIP3    H117882   7.189   4.205   0.900
 5975TIP3    H217883   7.185   4.347   0.847
 5976TIP3   OH217884   6.510   4.706   1.531
 5976TIP3    H117885   6.599   4.743   1.534
 5976TIP3    H217886   6.522   4.613   1.552
 5977TIP3   OH217887   2.370   1.090   3.204
 5977TIP3    H117888   2.414   1.088   3.290
 5977TIP3    H217889   2.417   1.157   3.155
 5978TIP3   OH217890   7.239   0.245   2.509
 5978TIP3    H117891   7.223   0.203   2.424
 5978TIP3    H217892   7.265   0.334   2.487
 5979TIP3   OH217893   7.124   2.121   6.474
 5979TIP3    H117894   7.121   2.177   6.551
 5979TIP3    H217895   7.041   2.138   6.429
 5980TIP3   OH217896   1.838   2.733   2.967
 5980TIP3    H117897   1.832   2.827   2.949
 5980TIP3    H217898   1.831   2.726   3.062
 5981TIP3   OH217899   2.471   7.415   5.885
 5981TIP3    H117900   2.483   7.394   5.978
 5981TIP3    H217901   2.470   7.510   5.882
 5982TIP3   OH217902   4.013   5.395   2.463
 5982TIP3    H117903   3.937   5.428   2.509
 5982TIP3    H217904   4.043   5.468   2.408
 5983TIP3   OH217905   1.064   1.044   4.913
 5983TIP3    H117906   1.039   0.952   4.908
 5983TIP3    H217907   0.991   1.091   4.872
 5984TIP3   OH217908   5.087   7.484   3.857
 5984TIP3    H117909   5.108   7.406   3.909
 5984TIP3    H217910   5.030   7.451   3.788
 5985TIP3   OH217911   0.705   7.536   5.221
 5985TIP3    H117912   0.633   7.476   5.242
 5985TIP3    H217913   0.707   7.538   5.125
 5986TIP3   OH217914   6.000   6.711   5.205
 5986TIP3    H117915   5.956   6.754   5.132
 5986TIP3    H217916   5.985   6.618   5.191
 5987TIP3   OH217917   6.718   1.003   1.117
 5987TIP3    H117918   6.732   1.096   1.105
 5987TIP3    H217919   6.629   0.988   1.088
 5988TIP3   OH217920   0.145   2.223   4.423
 5988TIP3    H117921   0.166   2.272   4.502
 5988TIP3    H217922   0.054   2.196   4.435
 5989TIP3   OH217923   8.166   7.577   6.538
 5989TIP3    H117924   8.245   7.625   6.513
 5989TIP3    H217925   8.163   7.584   6.633
 5990TIP3   OH217926   8.135   3.401   3.374
 5990TIP3    H117927   8.098   3.489   3.362
 5990TIP3    H217928   8.153   3.371   3.285
 5991TIP3   OH217929   1.498   2.180   0.640
 5991TIP3    H117930   1.485   2.087   0.620
 5991TIP3    H217931   1.590   2.187   0.664
 5992TIP3   OH217932   6.856   3.087   0.929
 5992TIP3    H117933   6.930   3.028   0.944
 5992TIP3    H217934   6.880   3.137   0.851
 5993TIP3   OH217935   1.508   2.355   3.083
 5993TIP3    H117936   1.487   2.404   3.163
 5993TIP3    H217937   1.533   2.423   3.020
 5994TIP3   OH217938   2.935   2.481   0.777
 5994TIP3    H117939   3.014   2.429   0.794
 5994TIP3    H217940   2.966   2.572   0.779
 5995TIP3   OH217941   3.453   2.338   5.372
 5995TIP3    H117942   3.423   2.418   5.415
 5995TIP3    H217943   3.535   2.317   5.416
 5996TIP3   OH217944   5.827   4.662   3.896
 5996TIP3    H117945   5.780   4.656   3.980
 5996TIP3    H217946   5.836   4.756   3.881
 5997TIP3   OH217947   3.344   0.669   2.815
 5997TIP3    H117948   3.283   0.725   2.766
 5997TIP3    H217949   3.350   0.589   2.763
 5998TIP3   OH217950   5.415   5.207   4.987
 5998TIP3    H117951   5.470   5.136   4.953
 5998TIP3    H217952   5.333   5.197   4.939
 5999TIP3   OH217953   1.848   0.473   2.490
 5999TIP3    H117954   1.841   0.486   2.585
 5999TIP3    H217955   1.908   0.542   2.461
 6000TIP3   OH217956   1.883   1.663   3.733
 6000TIP3    H117957   1.914   1.598   3.795
 6000TIP3    H217958   1.858   1.613   3.655
 6001TIP3   OH217959   3.737   6.120   1.510
 6001TIP3    H117960   3.763   6.204   1.472
 6001TIP3    H217961   3.759   6.056   1.442
 6002TIP3   OH217962   6.091   3.444   0.723
 6002TIP3    H117963   6.056   3.529   0.751
 6002TIP3    H217964   6.095   3.451   0.627
 6003TIP3   OH217965   1.376   3.083   0.183
 6003TIP3    H117966   1.286   3.051   0.189
 6003TIP3    H217967   1.368   3.177   0.168
 6004TIP3   OH217968   7.867   2.225   4.899
 6004TIP3    H117969   7.776   2.195   4.894
 6004TIP3    H217970   7.863   2.316   4.868
 6005TIP3   OH217971   0.228   4.338   4.869
 6005TIP3    H117972   0.146   4.313   4.911
 6005TIP3    H217973   0.288   4.354   4.942
 6006TIP3   OH217974   4.890   1.375   4.584
 6006TIP3    H117975   4.983   1.393   4.575
 6006TIP3    H217976   4.851   1.459   4.608
 6007TIP3   OH217977   7.811   0.264   1.351
 6007TIP3    H117978   7.804   0.169   1.346
 6007TIP3    H217979   7.844   0.291   1.265
 6008TIP3   OH217980   0.783   5.305   6.532
 6008TIP3    H117981   0.788   5.329   6.440
 6008TIP3    H217982   0.869   5.267   6.551
 6009TIP3   OH217983   1.577   0.091   6.051
 6009TIP3    H117984   1.530   0.040   5.985
 6009TIP3    H217985   1.521   0.167   6.068
 6010TIP3   OH217986   1.175   3.306   1.600
 6010TIP3    H117987   1.233   3.231   1.612
 6010TIP3    H217988   1.087   3.269   1.597
 6011TIP3   OH217989   6.017   6.880   3.614
 6011TIP3    H117990   5.934   6.834   3.627
 6011TIP3    H217991   6.012   6.956   3.672
 6012TIP3   OH217992   5.298   1.429   2.230
 6012TIP3    H117993   5.295   1.393   2.319
 6012TIP3    H217994   5.390   1.420   2.204
 6013TIP3   OH217995   1.291   0.567   2.084
 6013TIP3    H117996   1.272   0.655   2.115
 6013TIP3    H217997   1.384   0.554   2.104
 6014TIP3   OH217998   7.918   1.511   3.373
 6014TIP3    H117999   7.898   1.575   3.304
 6014TIP3    H218000   7.832   1.477   3.399
 6015TIP3   OH218001   0.356   1.218   3.484
 6015TIP3    H118002   0.261   1.217   3.469
 6015TIP3    H218003   0.391   1.272   3.414
 6016TIP3   OH218004   1.015   6.313   1.404
 6016TIP3    H118005   0.923   6.331   1.424
 6016TIP3    H218006   1.038   6.239   1.461
 6017TIP3   OH218007   0.073   0.646   0.574
 6017TIP3    H118008   0.040   0.724   0.531
 6017TIP3    H218009   0.083   0.671   0.666
 6018TIP3   OH218010   7.502   3.965   0.755
 6018TIP3    H118011   7.586   3.930   0.725
 6018TIP3    H218012   7.503   3.951   0.849
 6019TIP3   OH218013   7.058   7.088   2.926
 6019TIP3    H118014   6.967   7.083   2.955
 6019TIP3    H218015   7.053   7.074   2.832
 6020TIP3   OH218016   3.906   5.006   4.135
 6020TIP3    H118017   3.880   4.915   4.147
 6020TIP3    H218018   3.996   5.001   4.104
 6021TIP3   OH218019   0.241   2.523   5.578
 6021TIP3    H118020   0.329   2.553   5.555
 6021TIP3    H218021   0.192   2.528   5.496
 6022TIP3   OH218022   5.061   6.301   5.734
 6022TIP3    H118023   5.144   6.263   5.707
 6022TIP3    H218024   4.998   6.272   5.668
 6023TIP3   OH218025   7.108   4.631   0.596
 6023TIP3    H118026   7.141   4.543   0.580
 6023TIP3    H218027   7.013   4.620   0.603
 6024TIP3   OH218028   4.280   1.450   1.464
 6024TIP3    H118029   4.185   1.451   1.478
 6024TIP3    H218030   4.303   1.542   1.449
 6025TIP3   OH218031   0.178   3.500   4.546
 6025TIP3    H118032   0.214   3.544   4.469
 6025TIP3    H218033   0.186   3.564   4.616
 6026TIP3   OH218034   4.802   4.550   0.695
 6026TIP3    H118035   4.736   4.583   0.756
 6026TIP3    H218036   4.863   4.623   0.685
 6027TIP3   OH218037   5.101   3.231   5.279
 6027TIP3    H118038   5.133   3.167   5.343
 6027TIP3    H218039   5.145   3.312   5.303
 6028TIP3   OH218040   5.893   3.593   0.326
 6028TIP3    H118041   5.867   3.609   0.417
 6028TIP3    H218042   5.887   3.678   0.284
 6029TIP3   OH218043   3.954   2.479   1.000
 6029TIP3    H118044   4.022   2.523   1.050
 6029TIP3    H218045   3.899   2.436   1.066
 6030TIP3   OH218046   0.365   3.942   0.864
 6030TIP3    H118047   0.367   3.922   0.958
 6030TIP3    H218048   0.317   3.868   0.826
 6031TIP3   OH218049   3.998   3.290   0.967
 6031TIP3    H118050   4.042   3.215   1.010
 6031TIP3    H218051   4.067   3.331   0.916
 6032TIP3   OH218052   3.614   3.815   4.889
 6032TIP3    H118053   3.613   3.744   4.953
 6032TIP3    H218054   3.639   3.892   4.939
 6033TIP3   OH218055   1.976   0.280   4.281
 6033TIP3    H118056   2.069   0.267   4.298
 6033TIP3    H218057   1.938   0.193   4.287
 6034TIP3   OH218058   3.432   1.467   5.704
 6034TIP3    H118059   3.415   1.433   5.616
 6034TIP3    H218060   3.461   1.391   5.754
 6035TIP3   OH218061   3.335   1.549   4.349
 6035TIP3    H118062   3.326   1.564   4.443
 6035TIP3    H218063   3.415   1.596   4.325
 6036TIP3   OH218064   7.918   4.099   1.025
 6036TIP3    H118065   7.856   4.094   1.097
 6036TIP3    H218066   7.863   4.097   0.946
 6037TIP3   OH218067   5.916   2.282   4.778
 6037TIP3    H118068   5.832   2.273   4.822
 6037TIP3    H218069   5.907   2.228   4.699
 6038TIP3   OH218070   1.812   5.780   0.902
 6038TIP3    H118071   1.897   5.735   0.900
 6038TIP3    H218072   1.798   5.800   0.994
 6039TIP3   OH218073   7.176   4.121   3.199
 6039TIP3    H118074   7.204   4.119   3.291
 6039TIP3    H218075   7.147   4.031   3.181
 6040TIP3   OH218076   3.734   3.288   3.188
 6040TIP3    H118077   3.699   3.207   3.224
 6040TIP3    H218078   3.691   3.358   3.238
 6041TIP3   OH218079   6.086   5.853   1.029
 6041TIP3    H118080   6.171   5.813   1.047
 6041TIP3    H218081   6.099   5.947   1.043
 6042TIP3   OH218082   2.640   3.542   3.711
 6042TIP3    H118083   2.703   3.481   3.749
 6042TIP3    H218084   2.561   3.530   3.763
 6043TIP3   OH218085   5.825   2.831   1.583
 6043TIP3    H118086   5.855   2.913   1.543
 6043TIP3    H218087   5.818   2.851   1.676
 6044TIP3   OH218088   5.527   6.176   0.045
 6044TIP3    H118089   5.554   6.210   0.131
 6044TIP3    H218090   5.606   6.183  -0.009
 6045TIP3   OH218091   5.873   7.304   5.617
 6045TIP3    H118092   5.906   7.289   5.528
 6045TIP3    H218093   5.841   7.218   5.645
 6046TIP3   OH218094   1.590   7.525   5.317
 6046TIP3    H118095   1.625   7.614   5.329
 6046TIP3    H218096   1.495   7.536   5.326
 6047TIP3   OH218097   0.664   1.443   2.394
 6047TIP3    H118098   0.603   1.515   2.377
 6047TIP3    H218099   0.726   1.447   2.322
 6048TIP3   OH218100   3.702   5.543   3.040
 6048TIP3    H118101   3.636   5.596   2.995
 6048TIP3    H218102   3.785   5.571   3.001
 6049TIP3   OH218103   2.472   3.523   1.469
 6049TIP3    H118104   2.555   3.520   1.517
 6049TIP3    H218105   2.491   3.478   1.386
 6050TIP3   OH218106   6.263   5.344   4.882
 6050TIP3    H118107   6.342   5.333   4.829
 6050TIP3    H218108   6.295   5.345   4.972
 6051TIP3   OH218109   4.333   1.338   2.984
 6051TIP3    H118110   4.311   1.417   3.034
 6051TIP3    H218111   4.319   1.266   3.046
 6052TIP3   OH218112   2.187   1.565   2.585
 6052TIP3    H118113   2.183   1.639   2.645
 6052TIP3    H218114   2.100   1.561   2.545
 6053TIP3   OH218115   6.724   4.819   1.100
 6053TIP3    H118116   6.791   4.883   1.125
 6053TIP3    H218117   6.643   4.869   1.099
 6054TIP3   OH218118   6.288   0.725   3.753
 6054TIP3    H118119   6.213   0.667   3.763
 6054TIP3    H218120   6.362   0.673   3.784
 6055TIP3   OH218121   5.751   3.427   2.299
 6055TIP3    H118122   5.811   3.398   2.368
 6055TIP3    H218123   5.678   3.467   2.346
 6056TIP3   OH218124   4.229   4.296   1.522
 6056TIP3    H118125   4.299   4.241   1.486
 6056TIP3    H218126   4.217   4.365   1.457
 6057TIP3   OH218127  -0.023   2.218   5.988
 6057TIP3    H118128  -0.079   2.140   5.994
 6057TIP3    H218129   0.004   2.221   5.897
 6058TIP3   OH218130   3.547   2.210   2.894
 6058TIP3    H118131   3.508   2.270   2.958
 6058TIP3    H218132   3.631   2.250   2.871
 6059TIP3   OH218133   4.713   0.254   1.548
 6059TIP3    H118134   4.677   0.197   1.480
 6059TIP3    H218135   4.808   0.241   1.542
 6060TIP3   OH218136   6.642   6.547   4.663
 6060TIP3    H118137   6.687   6.506   4.589
 6060TIP3    H218138   6.575   6.603   4.624
 6061TIP3   OH218139   2.432   3.509   1.922
 6061TIP3    H118140   2.411   3.451   1.849
 6061TIP3    H218141   2.526   3.498   1.935
 6062TIP3   OH218142   5.324   4.462   5.799
 6062TIP3    H118143   5.406   4.478   5.753
 6062TIP3    H218144   5.333   4.375   5.836
 6063TIP3   OH218145   5.352   2.473   3.321
 6063TIP3    H118146   5.269   2.432   3.345
 6063TIP3    H218147   5.350   2.558   3.366
 6064TIP3   OH218148   3.727   6.335   0.057
 6064TIP3    H118149   3.697   6.303  -0.028
 6064TIP3    H218150   3.758   6.256   0.102
 6065TIP3   OH218151   2.177   2.279   1.389
 6065TIP3    H118152   2.247   2.236   1.438
 6065TIP3    H218153   2.199   2.372   1.394
 6066TIP3   OH218154   3.917   3.785   4.043
 6066TIP3    H118155   4.002   3.766   4.084
 6066TIP3    H218156   3.883   3.699   4.018
 6067TIP3   OH218157   5.454   4.186   1.448
 6067TIP3    H118158   5.483   4.160   1.360
 6067TIP3    H218159   5.515   4.142   1.507
 6068TIP3   OH218160   1.053   0.668   0.781
 6068TIP3    H118161   1.015   0.632   0.702
 6068TIP3    H218162   1.119   0.604   0.808
 6069TIP3   OH218163   1.250   3.360   0.489
 6069TIP3    H118164   1.262   3.381   0.397
 6069TIP3    H218165   1.337   3.368   0.527
 6070TIP3   OH218166   2.064   4.012   5.780
 6070TIP3    H118167   2.145   4.051   5.813
 6070TIP3    H218168   2.019   4.083   5.734
 6071TIP3   OH218169   1.739   3.234   1.580
 6071TIP3    H118170   1.667   3.171   1.572
 6071TIP3    H218171   1.816   3.186   1.549
 6072TIP3   OH218172   7.347   2.222   2.565
 6072TIP3    H118173   7.282   2.268   2.512
 6072TIP3    H218174   7.375   2.149   2.510
 6073TIP3   OH218175   4.663   3.950   3.374
 6073TIP3    H118176   4.588   4.010   3.367
 6073TIP3    H218177   4.650   3.887   3.304
 6074TIP3   OH218178   1.228   4.162   5.880
 6074TIP3    H118179   1.230   4.069   5.861
 6074TIP3    H218180   1.274   4.202   5.806
 6075TIP3   OH218181   4.533   0.706   3.027
 6075TIP3    H118182   4.451   0.727   3.072
 6075TIP3    H218183   4.598   0.763   3.069
 6076TIP3   OH218184   2.363   3.757   0.768
 6076TIP3    H118185   2.351   3.785   0.859
 6076TIP3    H218186   2.443   3.705   0.769
 6077TIP3   OH218187   7.878   3.661   2.490
 6077TIP3    H118188   7.812   3.636   2.426
 6077TIP3    H218189   7.830   3.712   2.555
 6078TIP3   OH218190   6.399   5.388   1.528
 6078TIP3    H118191   6.356   5.305   1.549
 6078TIP3    H218192   6.471   5.394   1.591
 6079TIP3   OH218193   7.017   3.851   6.622
 6079TIP3    H118194   7.009   3.760   6.648
 6079TIP3    H218195   7.037   3.898   6.704
 6080TIP3   OH218196   7.549   6.800   1.692
 6080TIP3    H118197   7.644   6.796   1.695
 6080TIP3    H218198   7.528   6.816   1.601
 6081TIP3   OH218199   0.625   6.378   1.246
 6081TIP3    H118200   0.658   6.353   1.333
 6081TIP3    H218201   0.651   6.306   1.189
 6082TIP3   OH218202   4.444   7.004   6.173
 6082TIP3    H118203   4.444   6.939   6.103
 6082TIP3    H218204   4.398   6.962   6.245
 6083TIP3   OH218205   6.822   2.239   3.065
 6083TIP3    H118206   6.858   2.272   3.148
 6083TIP3    H218207   6.784   2.154   3.089
 6084TIP3   OH218208   5.695   0.405   0.139
 6084TIP3    H118209   5.711   0.454   0.220
 6084TIP3    H218210   5.761   0.438   0.078
 6085TIP3   OH218211   5.603   0.558   5.210
 6085TIP3    H118212   5.664   0.485   5.204
 6085TIP3    H218213   5.611   0.588   5.301
 6086TIP3   OH218214   3.064   3.708   4.975
 6086TIP3    H118215   2.991   3.758   5.012
 6086TIP3    H218216   3.032   3.682   4.888
 6087TIP3   OH218217   2.429   6.522   3.193
 6087TIP3    H118218   2.381   6.475   3.124
 6087TIP3    H218219   2.416   6.469   3.271
 6088TIP3   OH218220   5.963   4.687   3.178
 6088TIP3    H118221   5.911   4.764   3.199
 6088TIP3    H218222   5.939   4.622   3.244
 6089TIP3   OH218223   3.037   7.565   2.507
 6089TIP3    H118224   3.088   7.485   2.495
 6089TIP3    H218225   2.993   7.578   2.423
 6090TIP3   OH218226   5.485   1.176   6.582
 6090TIP3    H118227   5.560   1.233   6.563
 6090TIP3    H218228   5.410   1.236   6.586
 6091TIP3   OH218229   0.312   5.364   3.888
 6091TIP3    H118230   0.323   5.275   3.856
 6091TIP3    H218231   0.302   5.417   3.809
 6092TIP3   OH218232   2.783   6.967   2.854
 6092TIP3    H118233   2.779   6.871   2.861
 6092TIP3    H218234   2.865   6.984   2.808
 6093TIP3   OH218235   3.396   6.836   2.868
 6093TIP3    H118236   3.413   6.817   2.960
 6093TIP3    H218237   3.416   6.754   2.822
 6094TIP3   OH218238   4.336   4.338   0.181
 6094TIP3    H118239   4.387   4.354   0.260
 6094TIP3    H218240   4.262   4.285   0.209
 6095TIP3   OH218241   8.061   5.617   2.344
 6095TIP3    H118242   7.985   5.562   2.323
 6095TIP3    H218243   8.036   5.704   2.315
 6096TIP3   OH218244   6.612   6.959   6.170
 6096TIP3    H118245   6.690   7.001   6.207
 6096TIP3    H218246   6.595   6.885   6.229
 6097TIP3   OH218247   7.281   0.583   3.523
 6097TIP3    H118248   7.209   0.644   3.533
 6097TIP3    H218249   7.349   0.633   3.477
 6098TIP3   OH218250   2.973   0.442   5.672
 6098TIP3    H118251   2.910   0.370   5.672
 6098TIP3    H218252   2.966   0.479   5.760
 6099TIP3   OH218253   4.605   1.428   3.206
 6099TIP3    H118254   4.637   1.518   3.201
 6099TIP3    H218255   4.650   1.382   3.136
 6100TIP3   OH218256   1.970   3.929   6.032
 6100TIP3    H118257   1.964   3.958   5.941
 6100TIP3    H218258   2.050   3.970   6.065
 6101TIP3   OH218259   1.216   2.796   1.160
 6101TIP3    H118260   1.275   2.747   1.218
 6101TIP3    H218261   1.154   2.731   1.129
 6102TIP3   OH218262   6.520   6.131   1.914
 6102TIP3    H118263   6.485   6.053   1.872
 6102TIP3    H218264   6.615   6.117   1.915
 6103TIP3   OH218265   6.345   5.061   0.920
 6103TIP3    H118266   6.255   5.085   0.942
 6103TIP3    H218267   6.366   4.991   0.982
 6104TIP3   OH218268   1.648   1.317   3.949
 6104TIP3    H118269   1.588   1.250   3.915
 6104TIP3    H218270   1.713   1.328   3.879
 6105TIP3   OH218271   2.618   4.141   2.088
 6105TIP3    H118272   2.523   4.148   2.089
 6105TIP3    H218273   2.637   4.061   2.039
 6106TIP3   OH218274   6.850   4.286   2.614
 6106TIP3    H118275   6.773   4.271   2.670
 6106TIP3    H218276   6.896   4.359   2.655
 6107TIP3   OH218277   6.497   5.841   2.469
 6107TIP3    H118278   6.409   5.854   2.431
 6107TIP3    H218279   6.552   5.905   2.423
 6108TIP3   OH218280   7.736   7.649   2.263
 6108TIP3    H118281   7.795   7.633   2.337
 6108TIP3    H218282   7.648   7.650   2.302
 6109TIP3   OH218283   2.546   7.058   2.306
 6109TIP3    H118284   2.459   7.091   2.330
 6109TIP3    H218285   2.533   6.964   2.293
 6110TIP3   OH218286   5.361   2.485   4.935
 6110TIP3    H118287   5.348   2.489   4.840
 6110TIP3    H218288   5.397   2.397   4.950
 6111TIP3   OH218289   7.563   4.351   1.753
 6111TIP3    H118290   7.579   4.445   1.765
 6111TIP3    H218291   7.625   4.309   1.813
 6112TIP3   OH218292   4.310   6.187   6.484
 6112TIP3    H118293   4.233   6.220   6.531
 6112TIP3    H218294   4.384   6.208   6.541
 6113TIP3   OH218295   0.677   3.016   4.742
 6113TIP3    H118296   0.665   3.111   4.739
 6113TIP3    H218297   0.746   2.998   4.679
 6114TIP3   OH218298   3.522   0.994   3.784
 6114TIP3    H118299   3.505   0.943   3.705
 6114TIP3    H218300   3.606   1.037   3.768
 6115TIP3   OH218301   1.862   4.961   4.992
 6115TIP3    H118302   1.872   4.893   5.058
 6115TIP3    H218303   1.772   4.951   4.960
 6116TIP3   OH218304   4.610   0.140   5.926
 6116TIP3    H118305   4.522   0.108   5.946
 6116TIP3    H218306   4.654   0.064   5.887
 6117TIP3   OH218307   6.623   4.229   2.750
 6117TIP3    H118308   6.655   4.266   2.832
 6117TIP3    H218309   6.543   4.278   2.731
 6118TIP3   OH218310   6.720   1.681   4.921
 6118TIP3    H118311   6.678   1.633   4.993
 6118TIP3    H218312   6.647   1.726   4.878
 6119TIP3   OH218313   4.822   4.786   1.135
 6119TIP3    H118314   4.888   4.776   1.204
 6119TIP3    H218315   4.757   4.845   1.172
 6120TIP3   OH218316   3.875   0.095   4.241
 6120TIP3    H118317   3.808   0.141   4.191
 6120TIP3    H218318   3.902   0.022   4.185
 6121TIP3   OH218319   7.031   3.095   6.112
 6121TIP3    H118320   6.999   3.087   6.022
 6121TIP3    H218321   6.952   3.091   6.166
 6122TIP3   OH218322   1.739   3.444   4.323
 6122TIP3    H118323   1.695   3.456   4.238
 6122TIP3    H218324   1.825   3.409   4.301
 6123TIP3   OH218325   4.476   7.272   5.503
 6123TIP3    H118326   4.537   7.217   5.552
 6123TIP3    H218327   4.485   7.359   5.543
 6124TIP3   OH218328   6.794   3.429   6.689
 6124TIP3    H118329   6.816   3.514   6.651
 6124TIP3    H218330   6.872   3.404   6.738
 6125TIP3   OH218331   3.577   4.384   4.147
 6125TIP3    H118332   3.662   4.340   4.138
 6125TIP3    H218333   3.595   4.475   4.123
 6126TIP3   OH218334   6.659   1.797   0.009
 6126TIP3    H118335   6.644   1.814   0.102
 6126TIP3    H218336   6.634   1.705  -0.003
 6127TIP3   OH218337   6.148   3.212   1.541
 6127TIP3    H118338   6.229   3.262   1.531
 6127TIP3    H218339   6.126   3.221   1.634
 6128TIP3   OH218340   2.147   0.943   0.675
 6128TIP3    H118341   2.144   1.016   0.613
 6128TIP3    H218342   2.100   0.872   0.632
 6129TIP3   OH218343   2.186   3.582   1.440
 6129TIP3    H118344   2.274   3.573   1.476
 6129TIP3    H218345   2.165   3.495   1.406
 6130TIP3   OH218346   2.760   0.090   2.224
 6130TIP3    H118347   2.692   0.132   2.277
 6130TIP3    H218348   2.777   0.151   2.153
 6131TIP3   OH218349   5.801   3.904   1.550
 6131TIP3    H118350   5.722   3.945   1.584
 6131TIP3    H218351   5.871   3.935   1.608
 6132TIP3   OH218352   1.478   2.876   4.050
 6132TIP3    H118353   1.423   2.835   3.984
 6132TIP3    H218354   1.423   2.879   4.129
 6133TIP3   OH218355   3.321   0.551   3.854
 6133TIP3    H118356   3.307   0.646   3.848
 6133TIP3    H218357   3.340   0.524   3.764
 6134TIP3   OH218358   2.178   4.039   4.508
 6134TIP3    H118359   2.198   3.956   4.464
 6134TIP3    H218360   2.169   4.015   4.600
 6135TIP3   OH218361   0.144   7.571   5.198
 6135TIP3    H118362   0.238   7.587   5.194
 6135TIP3    H218363   0.127   7.549   5.290
 6136TIP3   OH218364   0.132   1.137   5.440
 6136TIP3    H118365   0.130   1.075   5.512
 6136TIP3    H218366   0.198   1.202   5.465
 6137TIP3   OH218367   2.167   0.893   3.206
 6137TIP3    H118368   2.085   0.943   3.210
 6137TIP3    H218369   2.235   0.956   3.230
 6138TIP3   OH218370   8.071   4.755   0.639
 6138TIP3    H118371   8.080   4.850   0.644
 6138TIP3    H218372   7.978   4.740   0.623
 6139TIP3   OH218373   3.337   4.251   3.155
 6139TIP3    H118374   3.402   4.198   3.109
 6139TIP3    H218375   3.378   4.273   3.239
 6140TIP3   OH218376   0.461   4.056   4.569
 6140TIP3    H118377   0.501   4.027   4.651
 6140TIP3    H218378   0.371   4.025   4.574
 6141TIP3   OH218379   7.336   1.155   6.438
 6141TIP3    H118380   7.339   1.060   6.449
 6141TIP3    H218381   7.417   1.187   6.478
 6142TIP3   OH218382   2.111   6.096   4.617
 6142TIP3    H118383   2.107   6.034   4.544
 6142TIP3    H218384   2.020   6.104   4.646
 6143TIP3   OH218385   3.670   5.742   5.697
 6143TIP3    H118386   3.763   5.761   5.693
 6143TIP3    H218387   3.627   5.824   5.674
 6144TIP3   OH218388   6.299   7.178   1.477
 6144TIP3    H118389   6.223   7.140   1.433
 6144TIP3    H218390   6.300   7.269   1.447
 6145TIP3   OH218391   2.977   7.766   1.237
 6145TIP3    H118392   2.908   7.765   1.171
 6145TIP3    H218393   2.991   7.674   1.259
 6146TIP3   OH218394   6.053   6.894   5.826
 6146TIP3    H118395   5.974   6.866   5.779
 6146TIP3    H218396   6.029   6.979   5.864
 6147TIP3   OH218397   2.142   5.977   5.125
 6147TIP3    H118398   2.157   6.008   5.036
 6147TIP3    H218399   2.162   6.053   5.180
 6148TIP3   OH218400   3.204   3.228   2.397
 6148TIP3    H118401   3.132   3.243   2.458
 6148TIP3    H218402   3.262   3.304   2.408
 6149TIP3   OH218403   5.868   2.382   3.014
 6149TIP3    H118404   5.818   2.363   2.934
 6149TIP3    H218405   5.907   2.468   2.997
 6150TIP3   OH218406   0.308   5.238   0.556
 6150TIP3    H118407   0.236   5.291   0.589
 6150TIP3    H218408   0.349   5.201   0.634
 6151TIP3   OH218409   1.315   2.490   4.713
 6151TIP3    H118410   1.284   2.473   4.802
 6151TIP3    H218411   1.283   2.579   4.694
 6152TIP3   OH218412   0.638   6.651   1.151
 6152TIP3    H118413   0.604   6.636   1.063
 6152TIP3    H218414   0.586   6.594   1.207
 6153TIP3   OH218415   1.856   5.785   2.190
 6153TIP3    H118416   1.788   5.786   2.258
 6153TIP3    H218417   1.878   5.693   2.180
 6154TIP3   OH218418   3.967   1.157   1.151
 6154TIP3    H118419   3.950   1.194   1.065
 6154TIP3    H218420   4.012   1.226   1.199
 6155TIP3   OH218421   8.032   5.739   6.198
 6155TIP3    H118422   8.012   5.830   6.218
 6155TIP3    H218423   8.022   5.694   6.282
 6156TIP3   OH218424   5.143   1.485   6.189
 6156TIP3    H118425   5.163   1.565   6.140
 6156TIP3    H218426   5.071   1.445   6.140
 6157TIP3   OH218427   1.014   0.942   5.204
 6157TIP3    H118428   0.944   0.902   5.256
 6157TIP3    H218429   0.991   0.922   5.113
 6158TIP3   OH218430   6.556   7.602   6.334
 6158TIP3    H118431   6.627   7.549   6.370
 6158TIP3    H218432   6.552   7.679   6.392
 6159TIP3   OH218433   0.863   6.485   6.224
 6159TIP3    H118434   0.773   6.453   6.233
 6159TIP3    H218435   0.909   6.449   6.300
 6160TIP3   OH218436   8.172   3.199   3.546
 6160TIP3    H118437   8.146   3.275   3.494
 6160TIP3    H218438   8.101   3.187   3.609
 6161TIP3   OH218439   6.680   1.908   3.497
 6161TIP3    H118440   6.772   1.922   3.520
 6161TIP3    H218441   6.679   1.821   3.456
 6162TIP3   OH218442   3.885   4.096   2.028
 6162TIP3    H118443   3.978   4.082   2.043
 6162TIP3    H218444   3.881   4.174   1.973
 6163TIP3   OH218445   6.424   3.945   6.183
 6163TIP3    H118446   6.468   3.958   6.266
 6163TIP3    H218447   6.448   4.021   6.130
 6164TIP3   OH218448   3.811   2.087   1.165
 6164TIP3    H118449   3.779   2.001   1.140
 6164TIP3    H218450   3.889   2.070   1.219
 6165TIP3   OH218451   8.231   3.971   4.042
 6165TIP3    H118452   8.166   3.975   4.112
 6165TIP3    H218453   8.180   3.982   3.962
 6166TIP3   OH218454   1.913   0.088   3.334
 6166TIP3    H118455   1.900   0.132   3.418
 6166TIP3    H218456   1.862   0.007   3.342
 6167TIP3   OH218457   1.423  -0.014   1.638
 6167TIP3    H118458   1.386   0.073   1.651
 6167TIP3    H218459   1.348  -0.070   1.618
 6168TIP3   OH218460   2.551   0.485   6.396
 6168TIP3    H118461   2.629   0.494   6.451
 6168TIP3    H218462   2.542   0.570   6.353
 6169TIP3   OH218463   6.914   2.068   3.576
 6169TIP3    H118464   6.966   2.051   3.497
 6169TIP3    H218465   6.957   2.016   3.644
 6170TIP3   OH218466   4.139   3.173   0.535
 6170TIP3    H118467   4.094   3.253   0.561
 6170TIP3    H218468   4.074   3.123   0.487
 6171TIP3   OH218469   1.748   4.429   3.975
 6171TIP3    H118470   1.731   4.482   3.898
 6171TIP3    H218471   1.822   4.472   4.019
 6172TIP3   OH218472   3.383   5.338   5.503
 6172TIP3    H118473   3.354   5.252   5.475
 6172TIP3    H218474   3.428   5.374   5.426
 6173TIP3   OH218475   6.387   6.857   1.183
 6173TIP3    H118476   6.321   6.922   1.158
 6173TIP3    H218477   6.340   6.798   1.243
 6174TIP3   OH218478   5.678   6.442   0.710
 6174TIP3    H118479   5.709   6.516   0.658
 6174TIP3    H218480   5.691   6.469   0.801
 6175TIP3   OH218481   3.959   4.740   3.290
 6175TIP3    H118482   3.981   4.805   3.224
 6175TIP3    H218483   4.013   4.762   3.365
 6176TIP3   OH218484   0.972   3.466   4.647
 6176TIP3    H118485   0.986   3.487   4.554
 6176TIP3    H218486   0.947   3.374   4.647
 6177TIP3   OH218487   4.135   2.391   2.224
 6177TIP3    H118488   4.053   2.369   2.179
 6177TIP3    H218489   4.130   2.486   2.236
 6178TIP3   OH218490   8.209   7.159   5.913
 6178TIP3    H118491   8.127   7.197   5.943
 6178TIP3    H218492   8.265   7.159   5.991
 6179TIP3   OH218493   3.060   1.760   2.310
 6179TIP3    H118494   3.081   1.815   2.385
 6179TIP3    H218495   3.136   1.702   2.300
 6180TIP3   OH218496   1.772   1.391   6.292
 6180TIP3    H118497   1.780   1.311   6.240
 6180TIP3    H218498   1.755   1.460   6.228
 6181TIP3   OH218499   0.254   1.049   1.995
 6181TIP3    H118500   0.229   1.085   1.910
 6181TIP3    H218501   0.172   1.043   2.044
 6182TIP3   OH218502   0.869   4.228   0.682
 6182TIP3    H118503   0.923   4.149   0.674
 6182TIP3    H218504   0.854   4.237   0.776
 6183TIP3   OH218505   6.941   7.482   6.566
 6183TIP3    H118506   6.954   7.454   6.657
 6183TIP3    H218507   6.989   7.565   6.560
 6184TIP3   OH218508   4.044   3.934   3.259
 6184TIP3    H118509   3.999   3.891   3.332
 6184TIP3    H218510   3.983   3.926   3.185
 6185TIP3   OH218511   0.187   6.880   0.474
 6185TIP3    H118512   0.213   6.920   0.390
 6185TIP3    H218513   0.225   6.792   0.471
 6186TIP3   OH218514   5.406   0.734   6.049
 6186TIP3    H118515   5.445   0.656   6.009
 6186TIP3    H218516   5.352   0.772   5.979
 6187TIP3   OH218517   6.494   2.596   5.863
 6187TIP3    H118518   6.556   2.610   5.791
 6187TIP3    H218519   6.435   2.671   5.858
 6188TIP3   OH218520   0.244   1.351   0.713
 6188TIP3    H118521   0.165   1.382   0.757
 6188TIP3    H218522   0.230   1.257   0.703
 6189TIP3   OH218523   4.897   7.409   4.174
 6189TIP3    H118524   4.820   7.401   4.117
 6189TIP3    H218525   4.914   7.503   4.178
 6190TIP3   OH218526   4.101   0.619   3.686
 6190TIP3    H118527   4.082   0.541   3.739
 6190TIP3    H218528   4.157   0.673   3.741
 6191TIP3   OH218529   0.888   1.346   4.455
 6191TIP3    H118530   0.897   1.405   4.381
 6191TIP3    H218531   0.888   1.258   4.415
 6192TIP3   OH218532   1.445   1.318   0.915
 6192TIP3    H118533   1.394   1.242   0.941
 6192TIP3    H218534   1.526   1.312   0.966
 6193TIP3   OH218535   1.586   6.510   0.214
 6193TIP3    H118536   1.663   6.537   0.164
 6193TIP3    H218537   1.621   6.467   0.292
 6194TIP3   OH218538   4.771   3.923   4.173
 6194TIP3    H118539   4.809   3.838   4.194
 6194TIP3    H218540   4.703   3.904   4.108
 6195TIP3   OH218541   4.951   2.408   4.742
 6195TIP3    H118542   4.963   2.395   4.836
 6195TIP3    H218543   4.997   2.489   4.722
 6196TIP3   OH218544   2.444   6.837   2.164
 6196TIP3    H118545   2.437   6.872   2.075
 6196TIP3    H218546   2.356   6.805   2.184
 6197TIP3   OH218547   6.932   0.820   2.050
 6197TIP3    H118548   6.998   0.771   2.001
 6197TIP3    H218549   6.982   0.866   2.118
 6198TIP3   OH218550   4.210   1.798   0.638
 6198TIP3    H118551   4.207   1.889   0.607
 6198TIP3    H218552   4.118   1.770   0.638
 6199TIP3   OH218553   4.843   2.881   5.080
 6199TIP3    H118554   4.908   2.875   5.150
 6199TIP3    H218555   4.889   2.848   5.002
 6200TIP3   OH218556   2.015   0.952   6.611
 6200TIP3    H118557   1.942   0.927   6.667
 6200TIP3    H218558   2.069   0.874   6.605
 6201TIP3   OH218559   5.635   2.792   5.872
 6201TIP3    H118560   5.606   2.875   5.910
 6201TIP3    H218561   5.724   2.810   5.841
 6202TIP3   OH218562   6.857   4.422   5.843
 6202TIP3    H118563   6.763   4.419   5.858
 6202TIP3    H218564   6.875   4.345   5.788
 6203TIP3   OH218565   2.983   1.762   2.048
 6203TIP3    H118566   3.049   1.784   1.982
 6203TIP3    H218567   3.016   1.799   2.129
 6204TIP3   OH218568   6.006   7.646   0.726
 6204TIP3    H118569   5.989   7.619   0.816
 6204TIP3    H218570   6.088   7.694   0.730
 6205TIP3   OH218571   5.548   3.232   1.804
 6205TIP3    H118572   5.620   3.216   1.743
 6205TIP3    H218573   5.509   3.145   1.818
 6206TIP3   OH218574   0.420   2.848   3.618
 6206TIP3    H118575   0.480   2.792   3.569
 6206TIP3    H218576   0.445   2.835   3.710
 6207TIP3   OH218577   4.337   4.416   4.957
 6207TIP3    H118578   4.410   4.471   4.927
 6207TIP3    H218579   4.262   4.476   4.962
 6208TIP3   OH218580   1.798   4.594   4.349
 6208TIP3    H118581   1.851   4.643   4.412
 6208TIP3    H218582   1.746   4.661   4.304
 6209TIP3   OH218583   4.139   2.243   1.038
 6209TIP3    H118584   4.049   2.226   1.065
 6209TIP3    H218585   4.192   2.209   1.110
 6210TIP3   OH218586   7.918   4.941   5.131
 6210TIP3    H118587   7.868   4.876   5.082
 6210TIP3    H218588   7.993   4.892   5.165
 6211TIP3   OH218589   7.297   7.625   4.624
 6211TIP3    H118590   7.383   7.664   4.636
 6211TIP3    H218591   7.290   7.559   4.693
 6212TIP3   OH218592   6.596   4.309   3.340
 6212TIP3    H118593   6.526   4.368   3.368
 6212TIP3    H218594   6.565   4.273   3.257
 6213TIP3   OH218595   0.961   0.801   0.456
 6213TIP3    H118596   0.901   0.855   0.404
 6213TIP3    H218597   0.989   0.857   0.528
 6214TIP3   OH218598   5.501   4.856   1.234
 6214TIP3    H118599   5.584   4.834   1.277
 6214TIP3    H218600   5.441   4.877   1.306
 6215TIP3   OH218601   3.319   5.473   4.298
 6215TIP3    H118602   3.385   5.408   4.273
 6215TIP3    H218603   3.239   5.445   4.254
 6216TIP3   OH218604   8.044   6.993   4.067
 6216TIP3    H118605   7.988   7.037   4.131
 6216TIP3    H218606   8.027   7.039   3.985
 6217TIP3   OH218607   6.622   6.252   5.672
 6217TIP3    H118608   6.669   6.311   5.731
 6217TIP3    H218609   6.544   6.301   5.647
 6218TIP3   OH218610   5.681   7.005   5.621
 6218TIP3    H118611   5.641   7.040   5.701
 6218TIP3    H218612   5.742   6.938   5.651
 6219TIP3   OH218613   2.029   6.006   5.806
 6219TIP3    H118614   2.123   5.997   5.813
 6219TIP3    H218615   2.006   5.963   5.723
 6220TIP3   OH218616   1.382   0.898   0.660
 6220TIP3    H118617   1.362   0.825   0.718
 6220TIP3    H218618   1.321   0.967   0.687
 6221TIP3   OH218619   2.457   2.009   2.496
 6221TIP3    H118620   2.458   2.089   2.548
 6221TIP3    H218621   2.380   2.018   2.440
 6222TIP3   OH218622   2.170   7.429   2.499
 6222TIP3    H118623   2.132   7.513   2.524
 6222TIP3    H218624   2.192   7.439   2.406
 6223TIP3   OH218625   1.875   2.433   3.153
 6223TIP3    H118626   1.971   2.437   3.149
 6223TIP3    H218627   1.849   2.397   3.069
 6224TIP3   OH218628   4.788   3.410   3.381
 6224TIP3    H118629   4.792   3.462   3.300
 6224TIP3    H218630   4.729   3.460   3.438
 6225TIP3   OH218631   3.875   1.789   3.370
 6225TIP3    H118632   3.872   1.848   3.445
 6225TIP3    H218633   3.783   1.776   3.347
 6226TIP3   OH218634   7.046   0.241   1.692
 6226TIP3    H118635   7.108   0.269   1.759
 6226TIP3    H218636   7.096   0.244   1.610
 6227TIP3   OH218637   8.062   4.356   1.326
 6227TIP3    H118638   8.069   4.420   1.397
 6227TIP3    H218639   8.153   4.330   1.309
 6228TIP3   OH218640   2.943   6.691   5.114
 6228TIP3    H118641   2.990   6.659   5.190
 6228TIP3    H218642   2.850   6.683   5.137
 6229TIP3   OH218643   0.278   5.974   1.464
 6229TIP3    H118644   0.328   6.007   1.390
 6229TIP3    H218645   0.251   6.052   1.512
 6230TIP3   OH218646   7.161   6.462   3.174
 6230TIP3    H118647   7.127   6.373   3.167
 6230TIP3    H218648   7.243   6.460   3.126
 6231TIP3   OH218649   2.879   6.424   5.856
 6231TIP3    H118650   2.803   6.417   5.914
 6231TIP3    H218651   2.890   6.335   5.821
 6232TIP3   OH218652   7.931   1.782   1.244
 6232TIP3    H118653   7.972   1.712   1.295
 6232TIP3    H218654   7.903   1.846   1.309
 6233TIP3   OH218655   6.745   0.735   6.628
 6233TIP3    H118656   6.825   0.776   6.660
 6233TIP3    H218657   6.751   0.645   6.658
 6234TIP3   OH218658   7.683   4.689   2.988
 6234TIP3    H118659   7.715   4.715   3.075
 6234TIP3    H218660   7.593   4.659   3.004
 6235TIP3   OH218661   8.047   6.845   1.423
 6235TIP3    H118662   7.996   6.802   1.354
 6235TIP3    H218663   8.064   6.776   1.487
 6236TIP3   OH218664   7.817   1.697   4.182
 6236TIP3    H118665   7.727   1.716   4.208
 6236TIP3    H218666   7.845   1.774   4.132
 6237TIP3   OH218667   0.712   7.661   2.966
 6237TIP3    H118668   0.629   7.624   2.997
 6237TIP3    H218669   0.740   7.603   2.896
 6238TIP3   OH218670   3.868   7.701   3.416
 6238TIP3    H118671   3.874   7.778   3.359
 6238TIP3    H218672   3.786   7.659   3.390
 6239TIP3   OH218673   5.315   6.376   4.540
 6239TIP3    H118674   5.278   6.416   4.462
 6239TIP3    H218675   5.364   6.300   4.509
 6240TIP3   OH218676   5.762   6.279   3.310
 6240TIP3    H118677   5.793   6.356   3.261
 6240TIP3    H218678   5.774   6.206   3.250
 6241TIP3   OH218679   7.684   7.521   1.100
 6241TIP3    H118680   7.690   7.584   1.028
 6241TIP3    H218681   7.772   7.519   1.137
 6242TIP3   OH218682   6.644   3.707   6.596
 6242TIP3    H118683   6.712   3.774   6.598
 6242TIP3    H218684   6.582   3.733   6.664
 6243TIP3   OH218685   0.222   0.223   0.312
 6243TIP3    H118686   0.290   0.158   0.327
 6243TIP3    H218687   0.263   0.289   0.257
 6244TIP3   OH218688   4.061   4.477   5.015
 6244TIP3    H118689   4.007   4.521   4.949
 6244TIP3    H218690   4.015   4.395   5.034
 6245TIP3   OH218691   4.957   6.036   6.020
 6245TIP3    H118692   4.893   5.979   6.064
 6245TIP3    H218693   5.042   5.999   6.043
 6246TIP3   OH218694   3.976   0.891   2.062
 6246TIP3    H118695   3.919   0.963   2.087
 6246TIP3    H218696   3.929   0.812   2.090
 6247TIP3   OH218697   5.590   1.936   3.863
 6247TIP3    H118698   5.601   1.879   3.786
 6247TIP3    H218699   5.549   1.880   3.929
 6248TIP3   OH218700   5.522   5.828   6.704
 6248TIP3    H118701   5.510   5.826   6.609
 6248TIP3    H218702   5.564   5.912   6.722
 6249TIP3   OH218703   3.588   6.887   3.844
 6249TIP3    H118704   3.684   6.879   3.843
 6249TIP3    H218705   3.569   6.948   3.915
 6250TIP3   OH218706   7.940   0.840   5.726
 6250TIP3    H118707   7.983   0.788   5.794
 6250TIP3    H218708   7.948   0.930   5.756
 6251TIP3   OH218709   1.933   0.609   1.138
 6251TIP3    H118710   1.841   0.599   1.111
 6251TIP3    H218711   1.949   0.535   1.197
 6252TIP3   OH218712   1.700   5.027   4.273
 6252TIP3    H118713   1.672   5.069   4.191
 6252TIP3    H218714   1.664   4.939   4.268
 6253TIP3   OH218715   2.446   4.983   0.682
 6253TIP3    H118716   2.389   4.907   0.682
 6253TIP3    H218717   2.460   5.004   0.590
 6254TIP3   OH218718   7.951   1.863   0.120
 6254TIP3    H118719   7.891   1.844   0.047
 6254TIP3    H218720   7.914   1.815   0.194
 6255TIP3   OH218721   6.700   2.108   6.570
 6255TIP3    H118722   6.722   2.018   6.594
 6255TIP3    H218723   6.727   2.160   6.646
 6256TIP3   OH218724   1.182   0.127   2.811
 6256TIP3    H118725   1.178   0.126   2.715
 6256TIP3    H218726   1.263   0.080   2.832
 6257TIP3   OH218727   5.467   3.050   0.792
 6257TIP3    H118728   5.434   3.137   0.813
 6257TIP3    H218729   5.440   3.036   0.701
 6258TIP3   OH218730   6.907   2.818   0.359
 6258TIP3    H118731   6.817   2.789   0.370
 6258TIP3    H218732   6.960   2.749   0.400
 6259TIP3   OH218733   3.783   0.529   1.247
 6259TIP3    H118734   3.754   0.603   1.300
 6259TIP3    H218735   3.705   0.502   1.198
 6260TIP3   OH218736   4.522   6.992   3.685
 6260TIP3    H118737   4.595   7.009   3.625
 6260TIP3    H218738   4.492   6.904   3.662
 6261TIP3   OH218739   2.721   2.327   5.843
 6261TIP3    H118740   2.647   2.317   5.902
 6261TIP3    H218741   2.741   2.237   5.815
 6262TIP3   OH218742   7.061   5.507   6.163
 6262TIP3    H118743   7.116   5.429   6.177
 6262TIP3    H218744   7.122   5.577   6.144
 6263TIP3   OH218745   4.447   7.422   4.930
 6263TIP3    H118746   4.536   7.393   4.950
 6263TIP3    H218747   4.449   7.517   4.942
 6264TIP3   OH218748   3.210   0.296   5.960
 6264TIP3    H118749   3.151   0.368   5.938
 6264TIP3    H218750   3.154   0.232   6.005
 6265TIP3   OH218751   7.017   4.326   2.276
 6265TIP3    H118752   6.982   4.293   2.193
 6265TIP3    H218753   6.941   4.360   2.323
 6266TIP3   OH218754   6.946   5.009   4.177
 6266TIP3    H118755   6.904   4.956   4.109
 6266TIP3    H218756   6.946   5.098   4.141
 6267TIP3   OH218757   7.356   1.825   3.643
 6267TIP3    H118758   7.449   1.813   3.626
 6267TIP3    H218759   7.333   1.755   3.705
 6268TIP3   OH218760   7.210   2.686   0.705
 6268TIP3    H118761   7.282   2.647   0.755
 6268TIP3    H218762   7.234   2.778   0.697
 6269TIP3   OH218763   5.866   3.081   6.628
 6269TIP3    H118764   5.929   3.010   6.623
 6269TIP3    H218765   5.901   3.149   6.571
 6270TIP3   OH218766   7.823   1.127   0.765
 6270TIP3    H118767   7.833   1.138   0.671
 6270TIP3    H218768   7.756   1.190   0.790
 6271TIP3   OH218769   0.173   5.372   0.755
 6271TIP3    H118770   0.230   5.399   0.827
 6271TIP3    H218771   0.189   5.437   0.687
 6272TIP3   OH218772   7.106   2.442   3.099
 6272TIP3    H118773   7.027   2.436   3.047
 6272TIP3    H218774   7.169   2.486   3.042
 6273TIP3   OH218775   5.513   2.344   5.653
 6273TIP3    H118776   5.606   2.335   5.673
 6273TIP3    H218777   5.492   2.435   5.674
 6274TIP3   OH218778   1.388   0.973   6.235
 6274TIP3    H118779   1.348   1.044   6.285
 6274TIP3    H218780   1.482   0.992   6.237
 6275TIP3   OH218781   3.024   3.933   2.605
 6275TIP3    H118782   2.935   3.967   2.615
 6275TIP3    H218783   3.021   3.878   2.527
 6276TIP3   OH218784   4.798   5.748   6.445
 6276TIP3    H118785   4.871   5.769   6.503
 6276TIP3    H218786   4.832   5.679   6.388
 6277TIP3   OH218787   5.233   3.730   3.818
 6277TIP3    H118788   5.168   3.660   3.818
 6277TIP3    H218789   5.203   3.792   3.752
 6278TIP3   OH218790   5.322   2.444   4.104
 6278TIP3    H118791   5.287   2.503   4.038
 6278TIP3    H218792   5.389   2.495   4.149
 6279TIP3   OH218793   2.785   0.808   5.676
 6279TIP3    H118794   2.695   0.841   5.674
 6279TIP3    H218795   2.834   0.876   5.722
 6280TIP3   OH218796   4.955   3.847   0.552
 6280TIP3    H118797   4.929   3.920   0.608
 6280TIP3    H218798   4.895   3.852   0.477
 6281TIP3   OH218799   5.048   5.968   0.523
 6281TIP3    H118800   5.103   6.023   0.579
 6281TIP3    H218801   5.102   5.950   0.446
 6282TIP3   OH218802   0.690   7.135   0.222
 6282TIP3    H118803   0.620   7.070   0.213
 6282TIP3    H218804   0.764   7.087   0.259
 6283TIP3   OH218805   7.502   6.332   1.672
 6283TIP3    H118806   7.486   6.396   1.741
 6283TIP3    H218807   7.492   6.247   1.716
 6284TIP3   OH218808   1.070   1.914   5.720
 6284TIP3    H118809   1.019   1.995   5.722
 6284TIP3    H218810   1.157   1.941   5.693
 6285TIP3   OH218811   4.129   4.527   1.893
 6285TIP3    H118812   4.066   4.458   1.870
 6285TIP3    H218813   4.101   4.557   1.980
 6286TIP3   OH218814   0.087   2.215   5.515
 6286TIP3    H118815   0.069   2.260   5.598
 6286TIP3    H218816   0.000   2.202   5.476
 6287TIP3   OH218817   6.575   4.972   6.545
 6287TIP3    H118818   6.670   4.988   6.545
 6287TIP3    H218819   6.552   4.965   6.453
 6288TIP3   OH218820   6.430   5.662   1.774
 6288TIP3    H118821   6.481   5.709   1.708
 6288TIP3    H218822   6.495   5.616   1.827
 6289TIP3   OH218823   5.550   2.776   1.577
 6289TIP3    H118824   5.527   2.688   1.606
 6289TIP3    H218825   5.643   2.784   1.599
 6290TIP3   OH218826   0.286   1.124   3.918
 6290TIP3    H118827   0.363   1.072   3.941
 6290TIP3    H218828   0.321   1.201   3.873
 6291TIP3   OH218829   4.992   5.399   4.342
 6291TIP3    H118830   4.974   5.305   4.335
 6291TIP3    H218831   5.087   5.404   4.355
 6292TIP3   OH218832   5.643   0.857   0.168
 6292TIP3    H118833   5.637   0.909   0.087
 6292TIP3    H218834   5.736   0.857   0.189
 6293TIP3   OH218835   1.658   6.401   1.313
 6293TIP3    H118836   1.740   6.420   1.359
 6293TIP3    H218837   1.625   6.321   1.354
 6294TIP3   OH218838   4.173   2.464   3.416
 6294TIP3    H118839   4.250   2.453   3.471
 6294TIP3    H218840   4.207   2.464   3.327
 6295TIP3   OH218841   0.773   3.086   2.676
 6295TIP3    H118842   0.825   3.163   2.654
 6295TIP3    H218843   0.822   3.043   2.746
 6296TIP3   OH218844   7.113   1.309   6.038
 6296TIP3    H118845   7.023   1.339   6.055
 6296TIP3    H218846   7.165   1.351   6.106
 6297TIP3   OH218847   1.405   0.870   2.438
 6297TIP3    H118848   1.355   0.946   2.469
 6297TIP3    H218849   1.492   0.905   2.419
 6298TIP3   OH218850   4.581   5.012   0.867
 6298TIP3    H118851   4.527   5.078   0.823
 6298TIP3    H218852   4.634   5.062   0.930
 6299TIP3   OH218853   6.002   1.677   2.155
 6299TIP3    H118854   6.021   1.591   2.118
 6299TIP3    H218855   5.906   1.680   2.160
 6300TIP3   OH218856   7.198   0.936   4.854
 6300TIP3    H118857   7.178   0.842   4.857
 6300TIP3    H218858   7.213   0.954   4.761
 6301TIP3   OH218859   7.344   5.962   0.911
 6301TIP3    H118860   7.354   6.023   0.837
 6301TIP3    H218861   7.356   5.875   0.873
 6302TIP3   OH218862   2.830   5.070   2.295
 6302TIP3    H118863   2.896   5.015   2.336
 6302TIP3    H218864   2.817   5.142   2.356
 6303TIP3   OH218865   2.977   6.854   0.658
 6303TIP3    H118866   2.925   6.932   0.679
 6303TIP3    H218867   3.061   6.868   0.702
 6304TIP3   OH218868   2.537   4.051   1.629
 6304TIP3    H118869   2.535   3.973   1.685
 6304TIP3    H218870   2.447   4.083   1.631
 6305TIP3   OH218871   5.264   1.658   0.828
 6305TIP3    H118872   5.287   1.566   0.826
 6305TIP3    H218873   5.323   1.700   0.765
 6306TIP3   OH218874   6.956   3.066   4.229
 6306TIP3    H118875   7.051   3.079   4.225
 6306TIP3    H218876   6.929   3.057   4.137
 6307TIP3   OH218877   5.493   6.492   3.040
 6307TIP3    H118878   5.487   6.581   3.005
 6307TIP3    H218879   5.407   6.454   3.022
 6308TIP3   OH218880   6.982   7.537   4.536
 6308TIP3    H118881   7.057   7.488   4.569
 6308TIP3    H218882   6.909   7.474   4.537
 6309TIP3   OH218883   0.904   2.418   5.877
 6309TIP3    H118884   0.874   2.362   5.949
 6309TIP3    H218885   0.848   2.394   5.803
 6310TIP3   OH218886   1.253   4.832   0.652
 6310TIP3    H118887   1.333   4.801   0.693
 6310TIP3    H218888   1.266   4.815   0.558
 6311TIP3   OH218889   2.635   3.590   4.117
 6311TIP3    H118890   2.633   3.515   4.176
 6311TIP3    H218891   2.683   3.657   4.165
 6312TIP3   OH218892   4.774   2.076   4.502
 6312TIP3    H118893   4.757   1.991   4.460
 6312TIP3    H218894   4.858   2.064   4.546
 6313TIP3   OH218895   1.945   1.058   3.156
 6313TIP3    H118896   1.947   1.143   3.201
 6313TIP3    H218897   1.930   1.079   3.064
 6314TIP3   OH218898   5.343   1.901   1.776
 6314TIP3    H118899   5.429   1.923   1.813
 6314TIP3    H218900   5.363   1.837   1.707
 6315TIP3   OH218901   3.205   5.579   3.330
 6315TIP3    H118902   3.242   5.629   3.257
 6315TIP3    H218903   3.197   5.643   3.401
 6316TIP3   OH218904   5.862   3.761   6.071
 6316TIP3    H118905   5.878   3.736   6.162
 6316TIP3    H218906   5.829   3.850   6.076
 6317TIP3   OH218907   7.473   5.446   3.946
 6317TIP3    H118908   7.414   5.514   3.914
 6317TIP3    H218909   7.440   5.365   3.906
 6318TIP3   OH218910   6.212   7.710   1.164
 6318TIP3    H118911   6.308   7.721   1.164
 6318TIP3    H218912   6.188   7.714   1.257
 6319TIP3   OH218913   3.596   2.140   6.436
 6319TIP3    H118914   3.677   2.101   6.471
 6319TIP3    H218915   3.560   2.189   6.510
 6320TIP3   OH218916   1.088   3.624   2.192
 6320TIP3    H118917   1.138   3.697   2.230
 6320TIP3    H218918   1.146   3.588   2.124
 6321TIP3   OH218919   2.569   4.952   4.539
 6321TIP3    H118920   2.639   5.008   4.507
 6321TIP3    H218921   2.488   5.001   4.521
 6322TIP3   OH218922   6.316   3.006   6.572
 6322TIP3    H118923   6.296   3.096   6.598
 6322TIP3    H218924   6.368   3.015   6.492
 6323TIP3   OH218925   6.066   2.006   1.752
 6323TIP3    H118926   6.113   2.058   1.817
 6323TIP3    H218927   6.091   1.916   1.772
 6324TIP3   OH218928   1.555   1.777   5.593
 6324TIP3    H118929   1.508   1.816   5.667
 6324TIP3    H218930   1.629   1.836   5.579
 6325TIP3   OH218931   1.827   2.842   5.840
 6325TIP3    H118932   1.771   2.768   5.817
 6325TIP3    H218933   1.879   2.858   5.762
 6326TIP3   OH218934   1.358   1.393   4.541
 6326TIP3    H118935   1.316   1.421   4.460
 6326TIP3    H218936   1.293   1.411   4.609
 6327TIP3   OH218937   5.033   5.836   6.567
 6327TIP3    H118938   5.063   5.923   6.537
 6327TIP3    H218939   5.110   5.797   6.608
 6328TIP3   OH218940   5.463   0.416   6.455
 6328TIP3    H118941   5.409   0.459   6.389
 6328TIP3    H218942   5.529   0.368   6.405
 6329TIP3   OH218943   3.620   6.927   2.225
 6329TIP3    H118944   3.588   6.880   2.301
 6329TIP3    H218945   3.646   6.858   2.163
 6330TIP3   OH218946   0.268   0.186   4.405
 6330TIP3    H118947   0.360   0.212   4.408
 6330TIP3    H218948   0.220   0.264   4.435
 6331TIP3   OH218949   3.324   2.329   4.924
 6331TIP3    H118950   3.287   2.319   5.012
 6331TIP3    H218951   3.257   2.379   4.876
 6332TIP3   OH218952   2.394   3.525  -0.016
 6332TIP3    H118953   2.363   3.592   0.045
 6332TIP3    H218954   2.358   3.443   0.018
 6333TIP3   OH218955   6.706   5.699   3.668
 6333TIP3    H118956   6.630   5.745   3.702
 6333TIP3    H218957   6.703   5.713   3.574
 6334TIP3   OH218958   0.035   0.071   4.464
 6334TIP3    H118959   0.111   0.110   4.421
 6334TIP3    H218960   0.033  -0.019   4.431
 6335TIP3   OH218961   3.864   6.682   6.650
 6335TIP3    H118962   3.931   6.711   6.588
 6335TIP3    H218963   3.781   6.707   6.609
 6336TIP3   OH218964   0.815   1.301   2.993
 6336TIP3    H118965   0.760   1.236   3.037
 6336TIP3    H218966   0.754   1.364   2.957
 6337TIP3   OH218967   3.709   4.545   1.823
 6337TIP3    H118968   3.658   4.610   1.774
 6337TIP3    H218969   3.666   4.461   1.803
 6338TIP3   OH218970   3.351   2.690   0.000
 6338TIP3    H118971   3.302   2.757  -0.047
 6338TIP3    H218972   3.286   2.645   0.053
 6339TIP3   OH218973   1.206   2.148   2.862
 6339TIP3    H118974   1.228   2.236   2.831
 6339TIP3    H218975   1.130   2.123   2.810
 6340TIP3   OH218976   0.403   3.230   1.019
 6340TIP3    H118977   0.391   3.139   1.044
 6340TIP3    H218978   0.435   3.273   1.099
 6341TIP3   OH218979   4.959   2.508   2.825
 6341TIP3    H118980   5.042   2.556   2.813
 6341TIP3    H218981   4.891   2.572   2.802
 6342TIP3   OH218982   2.067   3.787   3.130
 6342TIP3    H118983   2.035   3.720   3.190
 6342TIP3    H218984   2.073   3.866   3.185
 6343TIP3   OH218985   4.845   4.927   5.616
 6343TIP3    H118986   4.839   4.927   5.711
 6343TIP3    H218987   4.887   4.844   5.594
 6344TIP3   OH218988   5.503   4.366   3.891
 6344TIP3    H118989   5.581   4.322   3.858
 6344TIP3    H218990   5.493   4.335   3.981
 6345TIP3   OH218991   4.107   7.816   2.775
 6345TIP3    H118992   4.063   7.732   2.760
 6345TIP3    H218993   4.091   7.835   2.867
 6346TIP3   OH218994   4.289   5.044   1.511
 6346TIP3    H118995   4.327   5.132   1.514
 6346TIP3    H218996   4.320   5.006   1.429
 6347TIP3   OH218997   6.809   6.541   6.183
 6347TIP3    H118998   6.876   6.570   6.121
 6347TIP3    H218999   6.790   6.618   6.236
 6348TIP3   OH219000   2.157   0.148   4.062
 6348TIP3    H119001   2.241   0.115   4.031
 6348TIP3    H219002   2.177   0.235   4.097
 6349TIP3   OH219003   0.251   1.925   1.813
 6349TIP3    H119004   0.327   1.897   1.864
 6349TIP3    H219005   0.287   1.981   1.744
 6350TIP3   OH219006   4.615   1.240   0.691
 6350TIP3    H119007   4.652   1.211   0.774
 6350TIP3    H219008   4.527   1.201   0.688
 6351TIP3   OH219009   2.513   5.568   5.717
 6351TIP3    H119010   2.587   5.603   5.767
 6351TIP3    H219011   2.512   5.475   5.739
 6352TIP3   OH219012   8.142   6.742   6.083
 6352TIP3    H119013   8.215   6.717   6.025
 6352TIP3    H219014   8.180   6.740   6.171
 6353TIP3   OH219015   0.671   4.982   5.012
 6353TIP3    H119016   0.686   4.901   4.965
 6353TIP3    H219017   0.626   4.955   5.092
 6354TIP3   OH219018   3.718   4.577   0.866
 6354TIP3    H119019   3.803   4.539   0.845
 6354TIP3    H219020   3.662   4.501   0.883
 6355TIP3   OH219021   5.366   5.899   1.980
 6355TIP3    H119022   5.300   5.862   2.039
 6355TIP3    H219023   5.445   5.846   1.996
 6356TIP3   OH219024   4.914   3.048   3.742
 6356TIP3    H119025   4.995   3.097   3.732
 6356TIP3    H219026   4.915   3.017   3.832
 6357TIP3   OH219027   1.893   5.458   0.484
 6357TIP3    H119028   1.907   5.373   0.524
 6357TIP3    H219029   1.888   5.519   0.557
 6358TIP3   OH219030   7.654   6.307   6.249
 6358TIP3    H119031   7.715   6.371   6.211
 6358TIP3    H219032   7.605   6.357   6.314
 6359TIP3   OH219033   4.460   5.958   5.382
 6359TIP3    H119034   4.446   5.874   5.338
 6359TIP3    H219035   4.542   5.947   5.430
 6360TIP3   OH219036   5.359   5.989   4.862
 6360TIP3    H119037   5.274   5.995   4.905
 6360TIP3    H219038   5.422   5.993   4.933
 6361TIP3   OH219039   8.114   7.715   4.006
 6361TIP3    H119040   8.196   7.732   3.960
 6361TIP3    H219041   8.141   7.685   4.093
 6362TIP3   OH219042   6.084   0.671   0.256
 6362TIP3    H119043   6.126   0.698   0.174
 6362TIP3    H219044   6.157   0.648   0.314
 6363TIP3   OH219045   5.346   4.421   4.819
 6363TIP3    H119046   5.348   4.401   4.913
 6363TIP3    H219047   5.324   4.338   4.777
 6364TIP3   OH219048   0.301   0.897   0.840
 6364TIP3    H119049   0.354   0.835   0.788
 6364TIP3    H219050   0.241   0.841   0.889
 6365TIP3   OH219051   7.361   3.380   0.800
 6365TIP3    H119052   7.408   3.462   0.795
 6365TIP3    H219053   7.419   3.316   0.758
 6366TIP3   OH219054   0.514   2.300   4.471
 6366TIP3    H119055   0.600   2.335   4.497
 6366TIP3    H219056   0.453   2.370   4.490
 6367TIP3   OH219057   5.509   4.278   2.982
 6367TIP3    H119058   5.561   4.224   3.042
 6367TIP3    H219059   5.570   4.305   2.914
 6368TIP3   OH219060   5.689   6.981   0.924
 6368TIP3    H119061   5.657   6.929   0.998
 6368TIP3    H219062   5.690   7.071   0.956
 6369TIP3   OH219063   7.416   4.530   2.776
 6369TIP3    H119064   7.367   4.496   2.851
 6369TIP3    H219065   7.389   4.475   2.702
 6370TIP3   OH219066   7.926   3.974   2.490
 6370TIP3    H119067   7.876   4.055   2.490
 6370TIP3    H219068   7.953   3.963   2.582
 6371TIP3   OH219069   1.389   1.885   0.642
 6371TIP3    H119070   1.480   1.900   0.618
 6371TIP3    H219071   1.363   1.810   0.590
 6372TIP3   OH219072   0.692   7.693   4.433
 6372TIP3    H119073   0.696   7.788   4.418
 6372TIP3    H219074   0.650   7.684   4.518
 6373TIP3   OH219075   0.029   4.032   4.436
 6373TIP3    H119076  -0.050   4.047   4.488
 6373TIP3    H219077   0.063   4.120   4.418
 6374TIP3   OH219078   2.975   2.099   3.551
 6374TIP3    H119079   2.884   2.118   3.528
 6374TIP3    H219080   3.017   2.184   3.556
 6375TIP3   OH219081   4.912   3.151   3.425
 6375TIP3    H119082   4.870   3.236   3.412
 6375TIP3    H219083   4.844   3.087   3.405
 6376TIP3   OH219084   0.832   1.176   0.614
 6376TIP3    H119085   0.758   1.137   0.661
 6376TIP3    H219086   0.907   1.160   0.672
 6377TIP3   OH219087   3.234   7.402   3.717
 6377TIP3    H119088   3.150   7.418   3.676
 6377TIP3    H219089   3.224   7.316   3.759
 6378TIP3   OH219090   5.401   0.605   6.664
 6378TIP3    H119091   5.351   0.552   6.725
 6378TIP3    H219092   5.438   0.542   6.602
 6379TIP3   OH219093   5.014   1.201   2.972
 6379TIP3    H119094   5.109   1.191   2.984
 6379TIP3    H219095   4.987   1.117   2.935
 6380TIP3   OH219096   5.929   1.733   4.144
 6380TIP3    H119097   5.932   1.641   4.170
 6380TIP3    H219098   5.968   1.734   4.056
 6381TIP3   OH219099   7.797   5.909   0.212
 6381TIP3    H119100   7.741   5.985   0.230
 6381TIP3    H219101   7.793   5.857   0.292
 6382TIP3   OH219102   0.742   2.449   3.073
 6382TIP3    H119103   0.671   2.500   3.111
 6382TIP3    H219104   0.818   2.468   3.128
 6383TIP3   OH219105   0.067   3.623   0.908
 6383TIP3    H119106  -0.027   3.608   0.901
 6383TIP3    H219107   0.079   3.657   0.996
 6384TIP3   OH219108   8.303   3.658   6.703
 6384TIP3    H119109   8.381   3.703   6.735
 6384TIP3    H219110   8.229   3.710   6.734
 6385TIP3   OH219111   0.948   5.902   1.996
 6385TIP3    H119112   0.871   5.941   2.037
 6385TIP3    H219113   0.957   5.816   2.038
 6386TIP3   OH219114   0.459   5.502   2.524
 6386TIP3    H119115   0.543   5.548   2.524
 6386TIP3    H219116   0.482   5.411   2.545
 6387TIP3   OH219117   3.971   0.522   4.794
 6387TIP3    H119118   3.915   0.593   4.763
 6387TIP3    H219119   3.915   0.445   4.793
 6388TIP3   OH219120   3.902   4.288   3.545
 6388TIP3    H119121   3.866   4.374   3.565
 6388TIP3    H219122   3.980   4.306   3.492
 6389TIP3   OH219123   3.865   5.928   2.128
 6389TIP3    H119124   3.816   6.004   2.096
 6389TIP3    H219125   3.927   5.909   2.058
 6390TIP3   OH219126   7.366   4.778   2.891
 6390TIP3    H119127   7.271   4.783   2.880
 6390TIP3    H219128   7.392   4.701   2.842
 6391TIP3   OH219129   1.267   1.845   0.202
 6391TIP3    H119130   1.221   1.895   0.134
 6391TIP3    H219131   1.199   1.824   0.266
 6392TIP3   OH219132   1.168   2.949   6.324
 6392TIP3    H119133   1.109   2.964   6.250
 6392TIP3    H219134   1.254   2.975   6.292
 6393TIP3   OH219135   4.341   7.141   4.375
 6393TIP3    H119136   4.407   7.209   4.389
 6393TIP3    H219137   4.284   7.147   4.451
 6394TIP3   OH219138   1.570   7.851   3.074
 6394TIP3    H119139   1.633   7.794   3.031
 6394TIP3    H219140   1.579   7.935   3.029
 6395TIP3   OH219141   2.002   5.260   0.865
 6395TIP3    H119142   1.995   5.233   0.773
 6395TIP3    H219143   2.077   5.211   0.899
 6396TIP3   OH219144   5.568   2.523   2.246
 6396TIP3    H119145   5.549   2.443   2.197
 6396TIP3    H219146   5.485   2.545   2.288
 6397TIP3   OH219147   6.561   0.887   2.609
 6397TIP3    H119148   6.562   0.818   2.676
 6397TIP3    H219149   6.470   0.891   2.581
 6398TIP3   OH219150   5.963   1.332   5.350
 6398TIP3    H119151   5.878   1.357   5.385
 6398TIP3    H219152   5.960   1.237   5.345
 6399TIP3   OH219153   6.472   5.286   0.843
 6399TIP3    H119154   6.442   5.286   0.753
 6399TIP3    H219155   6.437   5.205   0.880
 6400TIP3   OH219156   4.819   6.428   1.869
 6400TIP3    H119157   4.733   6.456   1.901
 6400TIP3    H219158   4.879   6.497   1.898
 6401TIP3   OH219159   3.944   2.148   6.376
 6401TIP3    H119160   3.899   2.168   6.294
 6401TIP3    H219161   3.998   2.071   6.355
 6402TIP3   OH219162   4.317   3.050   3.118
 6402TIP3    H119163   4.271   2.970   3.091
 6402TIP3    H219164   4.352   3.086   3.036
 6403TIP3   OH219165   7.448   1.047   2.666
 6403TIP3    H119166   7.497   0.996   2.601
 6403TIP3    H219167   7.441   1.135   2.628
 6404TIP3   OH219168   7.066   5.007   5.738
 6404TIP3    H119169   6.980   5.038   5.767
 6404TIP3    H219170   7.124   5.028   5.811
 6405TIP3   OH219171   3.785   7.032   5.869
 6405TIP3    H119172   3.803   7.124   5.846
 6405TIP3    H219173   3.805   7.027   5.963
 6406TIP3   OH219174   2.134   1.073   5.006
 6406TIP3    H119175   2.186   1.016   5.063
 6406TIP3    H219176   2.051   1.084   5.051
 6407TIP3   OH219177   2.529   0.914   2.918
 6407TIP3    H119178   2.611   0.891   2.874
 6407TIP3    H219179   2.498   0.992   2.873
 6408TIP3   OH219180   6.525   4.812   0.741
 6408TIP3    H119181   6.583   4.742   0.770
 6408TIP3    H219182   6.469   4.771   0.675
 6409TIP3   OH219183   6.444   4.381   3.749
 6409TIP3    H119184   6.363   4.335   3.728
 6409TIP3    H219185   6.459   4.361   3.842
 6410TIP3   OH219186   7.654   6.149   1.458
 6410TIP3    H119187   7.604   6.187   1.530
 6410TIP3    H219188   7.637   6.055   1.464
 6411TIP3   OH219189   4.574   0.084   5.621
 6411TIP3    H119190   4.658   0.042   5.638
 6411TIP3    H219191   4.592   0.178   5.632
 6412TIP3   OH219192   4.900   5.037   1.360
 6412TIP3    H119193   4.922   4.943   1.363
 6412TIP3    H219194   4.967   5.076   1.304
 6413TIP3   OH219195   4.964   3.683   3.484
 6413TIP3    H119196   5.037   3.631   3.518
 6413TIP3    H219197   4.951   3.652   3.395
 6414TIP3   OH219198   5.613   1.719   4.776
 6414TIP3    H119199   5.563   1.758   4.705
 6414TIP3    H219200   5.699   1.761   4.773
 6415TIP3   OH219201   4.891   5.398   6.198
 6415TIP3    H119202   4.861   5.473   6.249
 6415TIP3    H219203   4.976   5.375   6.236
 6416TIP3   OH219204   6.544   2.177   0.544
 6416TIP3    H119205   6.599   2.100   0.530
 6416TIP3    H219206   6.559   2.232   0.467
 6417TIP3   OH219207   2.081   3.269   3.005
 6417TIP3    H119208   2.142   3.342   2.997
 6417TIP3    H219209   2.137   3.194   3.028
 6418TIP3   OH219210   4.685   3.359   1.725
 6418TIP3    H119211   4.599   3.385   1.756
 6418TIP3    H219212   4.727   3.440   1.697
 6419TIP3   OH219213   6.601   0.551   3.341
 6419TIP3    H119214   6.591   0.646   3.340
 6419TIP3    H219215   6.595   0.527   3.433
 6420TIP3   OH219216   7.219   6.817   4.463
 6420TIP3    H119217   7.296   6.767   4.435
 6420TIP3    H219218   7.212   6.888   4.399
 6421TIP3   OH219219   5.868   7.208   5.362
 6421TIP3    H119220   5.778   7.180   5.378
 6421TIP3    H219221   5.917   7.126   5.351
 6422TIP3   OH219222   7.418   3.562   0.256
 6422TIP3    H119223   7.417   3.545   0.162
 6422TIP3    H219224   7.342   3.513   0.290
 6423TIP3   OH219225   4.718   4.043   4.902
 6423TIP3    H119226   4.738   4.031   4.809
 6423TIP3    H219227   4.622   4.038   4.907
 6424TIP3   OH219228   2.894   1.419   5.777
 6424TIP3    H119229   2.956   1.450   5.843
 6424TIP3    H219230   2.826   1.374   5.826
 6425TIP3   OH219231   5.624   7.700   1.304
 6425TIP3    H119232   5.605   7.639   1.375
 6425TIP3    H219233   5.606   7.786   1.340
 6426TIP3   OH219234   6.876   4.779   3.052
 6426TIP3    H119235   6.964   4.786   3.015
 6426TIP3    H219236   6.869   4.689   3.082
 6427TIP3   OH219237   0.518   6.892   3.288
 6427TIP3    H119238   0.566   6.845   3.357
 6427TIP3    H219239   0.582   6.950   3.249
 6428TIP3   OH219240   5.777   3.050   3.566
 6428TIP3    H119241   5.758   3.117   3.500
 6428TIP3    H219242   5.785   2.969   3.516
 6429TIP3   OH219243   1.927   4.641   0.882
 6429TIP3    H119244   1.927   4.545   0.886
 6429TIP3    H219245   2.015   4.666   0.910
 6430TIP3   OH219246   7.040   3.032   3.726
 6430TIP3    H119247   7.095   3.063   3.655
 6430TIP3    H219248   7.072   2.944   3.745
 6431TIP3   OH219249   7.640   3.021   5.080
 6431TIP3    H119250   7.729   3.033   5.112
 6431TIP3    H219251   7.585   3.061   5.147
 6432TIP3   OH219252   1.678   4.784   2.816
 6432TIP3    H119253   1.626   4.863   2.799
 6432TIP3    H219254   1.755   4.816   2.863
 6433TIP3   OH219255   4.884   0.485   0.120
 6433TIP3    H119256   4.921   0.414   0.067
 6433TIP3    H219257   4.879   0.449   0.209
 6434TIP3   OH219258   1.469   0.285   3.088
 6434TIP3    H119259   1.419   0.309   3.165
 6434TIP3    H219260   1.513   0.204   3.112
 6435TIP3   OH219261   4.868   7.372   3.747
 6435TIP3    H119262   4.817   7.348   3.825
 6435TIP3    H219263   4.808   7.355   3.674
 6436TIP3   OH219264   6.779   6.724   6.424
 6436TIP3    H119265   6.828   6.805   6.437
 6436TIP3    H219266   6.834   6.656   6.460
 6437TIP3   OH219267   5.842   6.318   5.635
 6437TIP3    H119268   5.895   6.325   5.714
 6437TIP3    H219269   5.752   6.331   5.665
 6438TIP3   OH219270   4.346   2.521   3.628
 6438TIP3    H119271   4.437   2.541   3.606
 6438TIP3    H219272   4.299   2.603   3.614
 6439TIP3   OH219273   3.894   4.749   5.395
 6439TIP3    H119274   3.928   4.740   5.484
 6439TIP3    H219275   3.968   4.723   5.339
 6440TIP3   OH219276   1.736   3.591   2.285
 6440TIP3    H119277   1.782   3.619   2.364
 6440TIP3    H219278   1.645   3.615   2.300
 6441TIP3   OH219279   2.933   5.837   5.694
 6441TIP3    H119280   3.029   5.836   5.703
 6441TIP3    H219281   2.917   5.797   5.609
 6442TIP3   OH219282   5.031   7.441   4.901
 6442TIP3    H119283   5.045   7.505   4.971
 6442TIP3    H219284   4.944   7.461   4.867
 6443TIP3   OH219285   3.163   4.892   6.172
 6443TIP3    H119286   3.179   4.952   6.245
 6443TIP3    H219287   3.250   4.874   6.136
 6444TIP3   OH219288   2.173   2.682   1.934
 6444TIP3    H119289   2.188   2.671   2.027
 6444TIP3    H219290   2.148   2.595   1.903
 6445TIP3   OH219291   6.075   1.995   3.941
 6445TIP3    H119292   5.998   2.051   3.951
 6445TIP3    H219293   6.063   1.927   4.008
 6446TIP3   OH219294   7.819   7.437   1.365
 6446TIP3    H119295   7.874   7.482   1.430
 6446TIP3    H219296   7.767   7.375   1.416
 6447TIP3   OH219297   4.021   4.775   3.976
 6447TIP3    H119298   4.101   4.802   4.022
 6447TIP3    H219299   3.968   4.731   4.043
 6448TIP3   OH219300   6.344   2.833   1.057
 6448TIP3    H119301   6.432   2.865   1.036
 6448TIP3    H219302   6.358   2.763   1.120
 6449TIP3   OH219303   6.259   1.663   1.048
 6449TIP3    H119304   6.345   1.683   1.012
 6449TIP3    H219305   6.231   1.744   1.090
 6450TIP3   OH219306   3.313   5.071   2.686
 6450TIP3    H119307   3.407   5.086   2.696
 6450TIP3    H219308   3.295   4.993   2.739
 6451TIP3   OH219309   5.776   6.557   0.940
 6451TIP3    H119310   5.686   6.591   0.941
 6451TIP3    H219311   5.830   6.634   0.923
 6452TIP3   OH219312   2.892   4.038   0.493
 6452TIP3    H119313   2.832   3.980   0.446
 6452TIP3    H219314   2.907   4.111   0.432
 6453TIP3   OH219315   6.549   2.942   5.216
 6453TIP3    H119316   6.612   3.008   5.246
 6453TIP3    H219317   6.500   2.919   5.295
 6454TIP3   OH219318   3.578   4.480   6.053
 6454TIP3    H119319   3.484   4.487   6.073
 6454TIP3    H219320   3.596   4.558   6.000
 6455TIP3   OH219321   5.789   5.624   6.338
 6455TIP3    H119322   5.700   5.590   6.327
 6455TIP3    H219323   5.845   5.558   6.297
 6456TIP3   OH219324   5.325   2.248   3.051
 6456TIP3    H119325   5.232   2.254   3.073
 6456TIP3    H219326   5.369   2.234   3.135
 6457TIP3   OH219327   7.361   6.064   2.615
 6457TIP3    H119328   7.430   5.998   2.625
 6457TIP3    H219329   7.405   6.138   2.573
 6458TIP3   OH219330   0.288   4.247   1.397
 6458TIP3    H119331   0.217   4.215   1.453
 6458TIP3    H219332   0.263   4.220   1.309
 6459TIP3   OH219333   4.434   4.416   4.567
 6459TIP3    H119334   4.486   4.477   4.514
 6459TIP3    H219335   4.491   4.391   4.639
 6460TIP3   OH219336   7.443   6.335   3.522
 6460TIP3    H119337   7.458   6.349   3.615
 6460TIP3    H219338   7.470   6.245   3.506
 6461TIP3   OH219339   6.063   7.725   5.648
 6461TIP3    H119340   5.985   7.701   5.598
 6461TIP3    H219341   6.030   7.783   5.717
 6462TIP3   OH219342   5.255   3.496   6.090
 6462TIP3    H119343   5.342   3.458   6.084
 6462TIP3    H219344   5.261   3.578   6.041
 6463TIP3   OH219345   6.469   1.687   3.800
 6463TIP3    H119346   6.500   1.657   3.715
 6463TIP3    H219347   6.397   1.747   3.780
 6464TIP3   OH219348   4.631   4.671   5.497
 6464TIP3    H119349   4.545   4.663   5.538
 6464TIP3    H219350   4.683   4.602   5.536
 6465TIP3   OH219351   4.925   5.720   2.328
 6465TIP3    H119352   4.880   5.644   2.364
 6465TIP3    H219353   4.987   5.745   2.397
 6466TIP3   OH219354   4.410   7.189   2.250
 6466TIP3    H119355   4.319   7.182   2.278
 6466TIP3    H219356   4.423   7.281   2.231
 6467TIP3   OH219357   0.609   0.091   2.749
 6467TIP3    H119358   0.597   0.158   2.682
 6467TIP3    H219359   0.634   0.140   2.828
 6468TIP3   OH219360   3.783   1.940   5.548
 6468TIP3    H119361   3.792   1.908   5.638
 6468TIP3    H219362   3.829   1.875   5.494
 6469TIP3   OH219363   2.287   6.766   0.739
 6469TIP3    H119364   2.381   6.747   0.747
 6469TIP3    H219365   2.244   6.692   0.782
 6470TIP3   OH219366   4.390   5.880   4.462
 6470TIP3    H119367   4.319   5.901   4.400
 6470TIP3    H219368   4.427   5.966   4.484
 6471TIP3   OH219369   5.038   6.598   2.018
 6471TIP3    H119370   5.114   6.580   1.963
 6471TIP3    H219371   5.076   6.633   2.099
 6472TIP3   OH219372   4.127   4.415   4.645
 6472TIP3    H119373   4.134   4.501   4.686
 6472TIP3    H219374   4.204   4.367   4.675
 6473TIP3   OH219375   7.092   1.297   6.413
 6473TIP3    H119376   7.178   1.262   6.433
 6473TIP3    H219377   7.102   1.392   6.418
 6474TIP3   OH219378   5.317   4.188   4.701
 6474TIP3    H119379   5.272   4.104   4.692
 6474TIP3    H219380   5.395   4.167   4.754
 6475TIP3   OH219381   2.981   1.848   5.003
 6475TIP3    H119382   3.022   1.921   4.956
 6475TIP3    H219383   3.054   1.794   5.031
 6476TIP3   OH219384   5.818   3.805   1.244
 6476TIP3    H119385   5.775   3.868   1.185
 6476TIP3    H219386   5.831   3.727   1.190
 6477TIP3   OH219387   8.068   1.017   3.999
 6477TIP3    H119388   8.051   1.109   3.977
 6477TIP3    H219389   8.152   1.018   4.044
 6478TIP3   OH219390   4.043   2.117   2.734
 6478TIP3    H119391   4.137   2.118   2.748
 6478TIP3    H219392   4.019   2.024   2.738
 6479TIP3   OH219393   4.909   3.125   4.640
 6479TIP3    H119394   4.874   3.042   4.672
 6479TIP3    H219395   4.884   3.128   4.547
 6480TIP3   OH219396   1.673   6.153   3.298
 6480TIP3    H119397   1.689   6.246   3.286
 6480TIP3    H219398   1.659   6.119   3.210
 6481TIP3   OH219399   6.035   7.837   2.344
 6481TIP3    H119400   6.088   7.809   2.419
 6481TIP3    H219401   6.076   7.794   2.269
 6482TIP3   OH219402   3.302   2.186   6.158
 6482TIP3    H119403   3.286   2.127   6.085
 6482TIP3    H219404   3.396   2.178   6.175
 6483TIP3   OH219405   3.180   2.531   4.818
 6483TIP3    H119406   3.216   2.595   4.757
 6483TIP3    H219407   3.089   2.558   4.831
 6484TIP3   OH219408   2.269   1.756   5.392
 6484TIP3    H119409   2.283   1.846   5.362
 6484TIP3    H219410   2.181   1.734   5.363
 6485TIP3   OH219411   1.103   1.623   0.876
 6485TIP3    H119412   1.061   1.609   0.791
 6485TIP3    H219413   1.191   1.655   0.854
 6486TIP3   OH219414   8.288   1.258   4.899
 6486TIP3    H119415   8.373   1.275   4.939
 6486TIP3    H219416   8.254   1.182   4.946
 6487TIP3   OH219417   3.390   4.115   5.225
 6487TIP3    H119418   3.440   4.122   5.144
 6487TIP3    H219419   3.361   4.024   5.228
 6488TIP3   OH219420   0.659   3.371   2.435
 6488TIP3    H119421   0.600   3.423   2.380
 6488TIP3    H219422   0.733   3.429   2.454
 6489TIP3   OH219423   3.037   4.327   3.186
 6489TIP3    H119424   3.022   4.395   3.120
 6489TIP3    H219425   3.130   4.305   3.177
 6490TIP3   OH219426   1.690   2.561   3.308
 6490TIP3    H119427   1.670   2.509   3.386
 6490TIP3    H219428   1.744   2.503   3.254
 6491TIP3   OH219429   4.468   5.417   5.180
 6491TIP3    H119430   4.413   5.456   5.113
 6491TIP3    H219431   4.468   5.323   5.161
 6492TIP3   OH219432   6.316   1.960   0.590
 6492TIP3    H119433   6.343   1.868   0.591
 6492TIP3    H219434   6.368   2.001   0.659
 6493TIP3   OH219435   3.464   1.507   0.427
 6493TIP3    H119436   3.426   1.486   0.513
 6493TIP3    H219437   3.557   1.488   0.436
 6494TIP3   OH219438   1.101   5.558   1.283
 6494TIP3    H119439   1.192   5.534   1.265
 6494TIP3    H219440   1.079   5.509   1.363
 6495TIP3   OH219441   7.842   7.709   0.287
 6495TIP3    H119442   7.853   7.714   0.382
 6495TIP3    H219443   7.888   7.786   0.254
 6496TIP3   OH219444   0.185   6.703   2.577
 6496TIP3    H119445   0.238   6.764   2.527
 6496TIP3    H219446   0.154   6.754   2.652
 6497TIP3   OH219447   3.215   4.875   1.195
 6497TIP3    H119448   3.171   4.837   1.119
 6497TIP3    H219449   3.281   4.934   1.158
 6498TIP3   OH219450   5.675   7.220   3.568
 6498TIP3    H119451   5.655   7.126   3.571
 6498TIP3    H219452   5.596   7.262   3.603
 6499TIP3   OH219453   0.213   0.941   5.036
 6499TIP3    H119454   0.277   0.909   5.100
 6499TIP3    H219455   0.131   0.897   5.061
 6500TIP3   OH219456   1.687   3.837   5.433
 6500TIP3    H119457   1.681   3.788   5.515
 6500TIP3    H219458   1.766   3.890   5.442
 6501TIP3   OH219459   4.742   5.508   5.224
 6501TIP3    H119460   4.803   5.434   5.220
 6501TIP3    H219461   4.659   5.471   5.192
 6502TIP3   OH219462   6.430   4.539   6.149
 6502TIP3    H119463   6.380   4.601   6.203
 6502TIP3    H219464   6.511   4.525   6.197
 6503TIP3   OH219465   6.946   1.064   0.767
 6503TIP3    H119466   7.016   1.000   0.778
 6503TIP3    H219467   6.893   1.030   0.694
 6504TIP3   OH219468   2.968   3.448   3.007
 6504TIP3    H119469   2.999   3.539   3.000
 6504TIP3    H219470   2.873   3.455   2.998
 6505TIP3   OH219471   3.358   5.291   0.851
 6505TIP3    H119472   3.363   5.386   0.854
 6505TIP3    H219473   3.280   5.270   0.903
 6506TIP3   OH219474   3.758   5.554   2.322
 6506TIP3    H119475   3.724   5.465   2.326
 6506TIP3    H219476   3.721   5.598   2.398
 6507TIP3   OH219477   8.283   7.678   2.961
 6507TIP3    H119478   8.215   7.712   2.902
 6507TIP3    H219479   8.256   7.588   2.979
 6508TIP3   OH219480   5.064   4.529   0.198
 6508TIP3    H119481   5.119   4.602   0.169
 6508TIP3    H219482   5.073   4.464   0.128
 6509TIP3   OH219483   3.008   1.577   5.027
 6509TIP3    H119484   2.921   1.576   5.066
 6509TIP3    H219485   2.996   1.542   4.939
 6510TIP3   OH219486   5.016   3.215   3.099
 6510TIP3    H119487   5.112   3.215   3.108
 6510TIP3    H219488   4.990   3.125   3.119
 6511TIP3   OH219489   4.146   7.251   5.433
 6511TIP3    H119490   4.238   7.226   5.439
 6511TIP3    H219491   4.142   7.310   5.358
 6512TIP3   OH219492   3.119   1.751   6.549
 6512TIP3    H119493   3.143   1.839   6.578
 6512TIP3    H219494   3.026   1.744   6.569
 6513TIP3   OH219495   8.048   4.351   6.349
 6513TIP3    H119496   8.141   4.354   6.373
 6513TIP3    H219497   8.002   4.361   6.432
 6514TIP3   OH219498   5.080   1.292   1.732
 6514TIP3    H119499   5.102   1.300   1.825
 6514TIP3    H219500   5.029   1.211   1.726
 6515TIP3   OH219501   6.881   0.654   5.516
 6515TIP3    H119502   6.794   0.645   5.554
 6515TIP3    H219503   6.941   0.661   5.590
 6516TIP3   OH219504   5.496   2.670   6.522
 6516TIP3    H119505   5.552   2.644   6.596
 6516TIP3    H219506   5.462   2.587   6.488
 6517TIP3   OH219507   2.328   2.629   0.753
 6517TIP3    H119508   2.328   2.534   0.767
 6517TIP3    H219509   2.367   2.665   0.833
 6518TIP3   OH219510   1.040   7.129   1.492
 6518TIP3    H119511   1.046   7.150   1.399
 6518TIP3    H219512   1.054   7.034   1.495
 6519TIP3   OH219513   0.211   3.296   2.325
 6519TIP3    H119514   0.176   3.382   2.346
 6519TIP3    H219515   0.173   3.237   2.390
 6520TIP3   OH219516   0.591   0.317   1.870
 6520TIP3    H119517   0.583   0.393   1.813
 6520TIP3    H219518   0.575   0.351   1.958
 6521TIP3   OH219519   4.969   0.058   4.349
 6521TIP3    H119520   4.950   0.123   4.282
 6521TIP3    H219521   4.946  -0.026   4.309
 6522TIP3   OH219522   6.998   0.821   6.703
 6522TIP3    H119523   7.022   0.849   6.615
 6522TIP3    H219524   7.072   0.769   6.733
 6523TIP3   OH219525   4.576   4.838   0.054
 6523TIP3    H119526   4.576   4.765   0.116
 6523TIP3    H219527   4.488   4.838   0.017
 6524TIP3   OH219528   4.289   2.853   4.361
 6524TIP3    H119529   4.238   2.786   4.408
 6524TIP3    H219530   4.322   2.808   4.283
 6525TIP3   OH219531   2.405   2.569   4.245
 6525TIP3    H119532   2.433   2.541   4.158
 6525TIP3    H219533   2.467   2.637   4.270
 6526TIP3   OH219534   0.330   3.437   1.463
 6526TIP3    H119535   0.331   3.522   1.418
 6526TIP3    H219536   0.414   3.434   1.510
 6527TIP3   OH219537   2.429   7.687   5.823
 6527TIP3    H119538   2.500   7.745   5.850
 6527TIP3    H219539   2.385   7.734   5.752
 6528TIP3   OH219540   4.441   7.271   4.669
 6528TIP3    H119541   4.349   7.259   4.646
 6528TIP3    H219542   4.438   7.332   4.744
 6529TIP3   OH219543   2.039   7.024   3.571
 6529TIP3    H119544   2.030   7.070   3.655
 6529TIP3    H219545   1.988   6.944   3.583
 6530TIP3   OH219546   0.357   4.220   3.712
 6530TIP3    H119547   0.270   4.179   3.715
 6530TIP3    H219548   0.377   4.238   3.804
 6531TIP3   OH219549   4.711   7.512   3.098
 6531TIP3    H119550   4.770   7.585   3.114
 6531TIP3    H219551   4.625   7.545   3.124
 6532TIP3   OH219552   7.965   6.875   6.566
 6532TIP3    H119553   7.984   6.795   6.518
 6532TIP3    H219554   8.037   6.934   6.544
 6533TIP3   OH219555   1.334   4.505   2.255
 6533TIP3    H119556   1.423   4.540   2.265
 6533TIP3    H219557   1.348   4.412   2.235
 6534TIP3   OH219558   7.366   2.856   2.296
 6534TIP3    H119559   7.410   2.828   2.376
 6534TIP3    H219560   7.434   2.899   2.245
 6535TIP3   OH219561   1.988   3.118   1.504
 6535TIP3    H119562   1.983   3.038   1.451
 6535TIP3    H219563   2.079   3.120   1.534
 6536TIP3   OH219564   2.002   7.524   4.433
 6536TIP3    H119565   1.912   7.553   4.416
 6536TIP3    H219566   2.057   7.589   4.389
 6537TIP3   OH219567   5.761   6.037   6.774
 6537TIP3    H119568   5.830   6.061   6.836
 6537TIP3    H219569   5.806   6.027   6.690
 6538TIP3   OH219570   7.168   0.973   1.279
 6538TIP3    H119571   7.188   1.016   1.362
 6538TIP3    H219572   7.245   0.918   1.262
 6539TIP3   OH219573   7.827   4.115   5.180
 6539TIP3    H119574   7.802   4.085   5.093
 6539TIP3    H219575   7.771   4.191   5.197
 6540TIP3   OH219576   4.944   2.741   1.417
 6540TIP3    H119577   4.994   2.689   1.480
 6540TIP3    H219578   5.010   2.771   1.354
 6541TIP3   OH219579   8.362   5.712   5.100
 6541TIP3    H119580   8.279   5.714   5.148
 6541TIP3    H219581   8.347   5.651   5.028
 6542TIP3   OH219582   0.206   0.411   3.907
 6542TIP3    H119583   0.240   0.443   3.823
 6542TIP3    H219584   0.146   0.340   3.882
 6543TIP3   OH219585   6.061   2.960   0.431
 6543TIP3    H119586   6.057   2.865   0.417
 6543TIP3    H219587   6.057   2.997   0.342
 6544TIP3   OH219588   5.574   7.192   0.585
 6544TIP3    H119589   5.611   7.267   0.632
 6544TIP3    H219590   5.523   7.145   0.652
 6545TIP3   OH219591   5.431   4.210   0.940
 6545TIP3    H119592   5.511   4.212   0.887
 6545TIP3    H219593   5.459   4.241   1.026
 6546TIP3   OH219594   4.183   5.693   1.546
 6546TIP3    H119595   4.222   5.605   1.546
 6546TIP3    H219596   4.123   5.693   1.620
 6547TIP3   OH219597   4.403   4.690   5.197
 6547TIP3    H119598   4.383   4.715   5.107
 6547TIP3    H219599   4.386   4.769   5.249
 6548TIP3   OH219600   3.568   5.075   2.769
 6548TIP3    H119601   3.612   5.001   2.728
 6548TIP3    H219602   3.638   5.125   2.810
 6549TIP3   OH219603   1.207   1.968   4.682
 6549TIP3    H119604   1.192   1.996   4.591
 6549TIP3    H219605   1.298   1.939   4.683
 6550TIP3   OH219606   6.539   2.980   1.319
 6550TIP3    H119607   6.540   3.043   1.247
 6550TIP3    H219608   6.572   3.029   1.395
 6551TIP3   OH219609   1.733   5.656   4.235
 6551TIP3    H119610   1.650   5.618   4.205
 6551TIP3    H219611   1.766   5.703   4.158
 6552TIP3   OH219612   3.599   5.008   1.969
 6552TIP3    H119613   3.548   4.963   2.036
 6552TIP3    H219614   3.690   4.986   1.989
 6553TIP3   OH219615   6.218   4.474   4.178
 6553TIP3    H119616   6.199   4.487   4.085
 6553TIP3    H219617   6.161   4.535   4.224
 6554TIP3   OH219618   6.943   6.713   4.500
 6554TIP3    H119619   7.028   6.743   4.468
 6554TIP3    H219620   6.917   6.778   4.566
 6555TIP3   OH219621   1.993   4.054   2.841
 6555TIP3    H119622   1.955   4.043   2.928
 6555TIP3    H219623   1.929   4.107   2.793
 6556TIP3   OH219624   2.990   4.806   5.096
 6556TIP3    H119625   3.079   4.821   5.063
 6556TIP3    H219626   2.986   4.855   5.178
 6557TIP3   OH219627   4.434   1.612   6.498
 6557TIP3    H119628   4.434   1.705   6.475
 6557TIP3    H219629   4.367   1.573   6.441
 6558TIP3   OH219630   1.673   2.431   3.549
 6558TIP3    H119631   1.683   2.443   3.644
 6558TIP3    H219632   1.615   2.355   3.541
 6559TIP3   OH219633   7.146   7.753   2.714
 6559TIP3    H119634   7.126   7.679   2.771
 6559TIP3    H219635   7.212   7.803   2.761
 6560TIP3   OH219636   0.214   2.116   1.404
 6560TIP3    H119637   0.280   2.098   1.470
 6560TIP3    H219638   0.134   2.076   1.438
 6561TIP3   OH219639   1.859   3.530   4.656
 6561TIP3    H119640   1.875   3.440   4.629
 6561TIP3    H219641   1.834   3.576   4.576
 6562TIP3   OH219642   7.040   0.097   4.835
 6562TIP3    H119643   6.980   0.133   4.769
 6562TIP3    H219644   6.983   0.066   4.905
 6563TIP3   OH219645   7.330   1.389   3.577
 6563TIP3    H119646   7.379   1.470   3.584
 6563TIP3    H219647   7.328   1.354   3.666
 6564TIP3   OH219648   5.284   0.437   0.421
 6564TIP3    H119649   5.217   0.375   0.391
 6564TIP3    H219650   5.311   0.482   0.341
 6565TIP3   OH219651   2.778   1.270   5.166
 6565TIP3    H119652   2.784   1.180   5.196
 6565TIP3    H219653   2.862   1.309   5.191
 6566TIP3   OH219654   5.992   7.841   5.279
 6566TIP3    H119655   5.924   7.789   5.321
 6566TIP3    H219656   6.002   7.801   5.192
 6567TIP3   OH219657   3.949   5.721   2.640
 6567TIP3    H119658   3.970   5.770   2.561
 6567TIP3    H219659   3.943   5.788   2.709
 6568TIP3   OH219660   4.014   3.231   4.798
 6568TIP3    H119661   4.070   3.303   4.827
 6568TIP3    H219662   4.020   3.166   4.868
 6569TIP3   OH219663   3.655   2.661   6.620
 6569TIP3    H119664   3.705   2.705   6.689
 6569TIP3    H219665   3.619   2.732   6.567
 6570TIP3   OH219666   5.657   4.642   4.118
 6570TIP3    H119667   5.584   4.662   4.176
 6570TIP3    H219668   5.680   4.551   4.138
 6571TIP3   OH219669   6.394   0.363   4.045
 6571TIP3    H119670   6.345   0.281   4.044
 6571TIP3    H219671   6.482   0.339   4.014
 6572TIP3   OH219672   7.417   1.383   5.007
 6572TIP3    H119673   7.479   1.312   4.988
 6572TIP3    H219674   7.471   1.455   5.038
 6573TIP3   OH219675   8.104   4.020   3.781
 6573TIP3    H119676   8.013   3.996   3.765
 6573TIP3    H219677   8.121   4.093   3.722
 6574TIP3   OH219678   7.429   6.309   6.083
 6574TIP3    H119679   7.390   6.229   6.120
 6574TIP3    H219680   7.520   6.308   6.114
 6575TIP3   OH219681   2.403   6.840   1.148
 6575TIP3    H119682   2.347   6.869   1.220
 6575TIP3    H219683   2.488   6.825   1.188
 6576TIP3   OH219684   4.763   4.508   5.011
 6576TIP3    H119685   4.697   4.513   5.080
 6576TIP3    H219686   4.725   4.450   4.945
 6577TIP3   OH219687   6.536   1.397   1.916
 6577TIP3    H119688   6.605   1.339   1.883
 6577TIP3    H219689   6.545   1.394   2.011
 6578TIP3   OH219690   1.052   1.047   1.657
 6578TIP3    H119691   1.094   0.982   1.601
 6578TIP3    H219692   1.081   1.024   1.746
 6579TIP3   OH219693   1.414   7.474   1.288
 6579TIP3    H119694   1.324   7.496   1.315
 6579TIP3    H219695   1.461   7.460   1.370
 6580TIP3   OH219696   4.069   2.814   0.914
 6580TIP3    H119697   3.987   2.768   0.894
 6580TIP3    H219698   4.089   2.863   0.835
 6581TIP3   OH219699   6.120   6.653   2.629
 6581TIP3    H119700   6.137   6.618   2.541
 6581TIP3    H219701   6.177   6.602   2.686
 6582TIP3   OH219702   7.745   4.059   5.817
 6582TIP3    H119703   7.809   4.130   5.825
 6582TIP3    H219704   7.660   4.103   5.819
 6583TIP3   OH219705   0.452   7.613   5.458
 6583TIP3    H119706   0.357   7.611   5.472
 6583TIP3    H219707   0.462   7.612   5.363
 6584TIP3   OH219708   3.548   3.087   1.700
 6584TIP3    H119709   3.468   3.047   1.733
 6584TIP3    H219710   3.537   3.181   1.716
 6585TIP3   OH219711   4.154   6.683   5.173
 6585TIP3    H119712   4.194   6.651   5.254
 6585TIP3    H219713   4.091   6.749   5.202
 6586TIP3   OH219714   1.508   5.010   1.229
 6586TIP3    H119715   1.538   5.100   1.214
 6586TIP3    H219716   1.466   4.985   1.147
 6587TIP3   OH219717   1.354   3.714   0.063
 6587TIP3    H119718   1.435   3.698   0.015
 6587TIP3    H219719   1.376   3.781   0.127
 6588TIP3   OH219720   3.920   5.485   3.229
 6588TIP3    H119721   3.955   5.495   3.140
 6588TIP3    H219722   3.841   5.540   3.229
 6589TIP3   OH219723   5.323   7.093   6.511
 6589TIP3    H119724   5.414   7.119   6.527
 6589TIP3    H219725   5.328   7.035   6.436
 6590TIP3   OH219726   6.307   0.722   6.046
 6590TIP3    H119727   6.292   0.644   6.098
 6590TIP3    H219728   6.283   0.697   5.957
 6591TIP3   OH219729   5.249   7.021   2.024
 6591TIP3    H119730   5.244   6.998   1.931
 6591TIP3    H219731   5.327   6.976   2.055
 6592TIP3   OH219732   8.167   4.889   3.709
 6592TIP3    H119733   8.164   4.794   3.722
 6592TIP3    H219734   8.191   4.900   3.617
 6593TIP3   OH219735   0.079   3.777   1.171
 6593TIP3    H119736   0.084   3.804   1.263
 6593TIP3    H219737   0.096   3.858   1.122
 6594TIP3   OH219738   2.537   7.379   1.365
 6594TIP3    H119739   2.582   7.315   1.421
 6594TIP3    H219740   2.507   7.447   1.426
 6595TIP3   OH219741   0.410   4.660   1.514
 6595TIP3    H119742   0.428   4.622   1.600
 6595TIP3    H219743   0.445   4.749   1.519
 6596TIP3   OH219744   2.570   2.196   1.412
 6596TIP3    H119745   2.584   2.287   1.386
 6596TIP3    H219746   2.549   2.200   1.505
 6597TIP3   OH219747   8.206   4.584   0.435
 6597TIP3    H119748   8.202   4.610   0.343
 6597TIP3    H219749   8.292   4.613   0.465
 6598TIP3   OH219750   0.766   2.729   5.644
 6598TIP3    H119751   0.852   2.765   5.624
 6598TIP3    H219752   0.712   2.750   5.568
 6599TIP3   OH219753   0.266   6.943   5.469
 6599TIP3    H119754   0.192   6.985   5.512
 6599TIP3    H219755   0.283   6.997   5.392
 6600TIP3   OH219756   5.136   3.003   5.451
 6600TIP3    H119757   5.115   3.054   5.529
 6600TIP3    H219758   5.228   2.979   5.462
 6601TIP3   OH219759   2.850   4.243   0.288
 6601TIP3    H119760   2.766   4.285   0.271
 6601TIP3    H219761   2.904   4.311   0.329
 6602TIP3   OH219762   3.534   5.523   4.538
 6602TIP3    H119763   3.608   5.462   4.531
 6602TIP3    H219764   3.458   5.467   4.553
 6603TIP3   OH219765   5.012   3.559   3.837
 6603TIP3    H119766   4.919   3.533   3.839
 6603TIP3    H219767   5.057   3.480   3.807
 6604TIP3   OH219768   5.322   1.449   5.346
 6604TIP3    H119769   5.244   1.453   5.292
 6604TIP3    H219770   5.395   1.448   5.284
 6605TIP3   OH219771   5.377   4.033   4.444
 6605TIP3    H119772   5.422   3.978   4.509
 6605TIP3    H219773   5.413   4.121   4.458
 6606TIP3   OH219774   6.855   6.140   1.070
 6606TIP3    H119775   6.924   6.206   1.069
 6606TIP3    H219776   6.824   6.139   1.161
 6607TIP3   OH219777   4.141   1.335   3.933
 6607TIP3    H119778   4.054   1.360   3.903
 6607TIP3    H219779   4.125   1.277   4.008
 6608TIP3   OH219780   6.003   4.856   2.206
 6608TIP3    H119781   5.915   4.825   2.228
 6608TIP3    H219782   5.999   4.951   2.222
 6609TIP3   OH219783   1.604   4.548   0.789
 6609TIP3    H119784   1.631   4.533   0.880
 6609TIP3    H219785   1.551   4.471   0.768
 6610TIP3   OH219786   1.112   5.798   1.648
 6610TIP3    H119787   1.077   5.768   1.564
 6610TIP3    H219788   1.122   5.718   1.699
 6611TIP3   OH219789   5.106   0.005   3.796
 6611TIP3    H119790   5.153   0.021   3.714
 6611TIP3    H219791   5.163  -0.056   3.845
 6612TIP3   OH219792   5.004   2.038   2.012
 6612TIP3    H119793   5.066   1.998   2.073
 6612TIP3    H219794   4.976   1.965   1.956
 6613TIP3   OH219795   1.935   2.818   1.809
 6613TIP3    H119796   1.924   2.823   1.904
 6613TIP3    H219797   2.025   2.785   1.798
 6614TIP3   OH219798   0.407   7.548   0.994
 6614TIP3    H119799   0.437   7.536   1.084
 6614TIP3    H219800   0.438   7.470   0.948
 6615TIP3   OH219801   7.288   3.602   3.947
 6615TIP3    H119802   7.215   3.641   3.995
 6615TIP3    H219803   7.362   3.607   4.008
 6616TIP3   OH219804   3.600   5.877   6.577
 6616TIP3    H119805   3.687   5.847   6.554
 6616TIP3    H219806   3.606   5.973   6.578
 6617TIP3   OH219807   3.016   6.089   5.427
 6617TIP3    H119808   2.932   6.042   5.431
 6617TIP3    H219809   3.082   6.021   5.444
 6618TIP3   OH219810   1.121   7.018   6.018
 6618TIP3    H119811   1.207   7.057   6.035
 6618TIP3    H219812   1.077   7.019   6.103
 6619TIP3   OH219813   1.568   3.421   4.532
 6619TIP3    H119814   1.569   3.329   4.561
 6619TIP3    H219815   1.621   3.421   4.453
 6620TIP3   OH219816   8.058   7.274   5.058
 6620TIP3    H119817   7.973   7.233   5.039
 6620TIP3    H219818   8.082   7.240   5.144
 6621TIP3   OH219819   2.820   2.743   5.583
 6621TIP3    H119820   2.789   2.670   5.636
 6621TIP3    H219821   2.916   2.739   5.589
 6622TIP3   OH219822   4.629   4.848   1.633
 6622TIP3    H119823   4.665   4.764   1.604
 6622TIP3    H219824   4.612   4.837   1.726
 6623TIP3   OH219825   0.054   3.237   4.285
 6623TIP3    H119826   0.080   3.250   4.376
 6623TIP3    H219827   0.080   3.318   4.241
 6624TIP3   OH219828   2.178   5.383   3.214
 6624TIP3    H119829   2.243   5.343   3.157
 6624TIP3    H219830   2.199   5.477   3.213
 6625TIP3   OH219831   2.204   3.261   2.714
 6625TIP3    H119832   2.216   3.316   2.792
 6625TIP3    H219833   2.159   3.318   2.651
 6626TIP3   OH219834   1.731   5.326   1.534
 6626TIP3    H119835   1.686   5.243   1.551
 6626TIP3    H219836   1.822   5.308   1.559
 6627TIP3   OH219837   6.430   2.197   5.109
 6627TIP3    H119838   6.357   2.248   5.076
 6627TIP3    H219839   6.498   2.206   5.042
 6628TIP3   OH219840   2.152   7.545   1.006
 6628TIP3    H119841   2.116   7.631   1.026
 6628TIP3    H219842   2.247   7.559   1.000
 6629TIP3   OH219843   0.149   0.428   6.330
 6629TIP3    H119844   0.104   0.513   6.321
 6629TIP3    H219845   0.235   0.442   6.292
 6630TIP3   OH219846   0.230   3.419   5.161
 6630TIP3    H119847   0.210   3.444   5.071
 6630TIP3    H219848   0.156   3.364   5.187
 6631TIP3   OH219849   1.233   4.184   3.021
 6631TIP3    H119850   1.166   4.197   2.954
 6631TIP3    H219851   1.242   4.269   3.063
 6632TIP3   OH219852   3.651   7.398   5.976
 6632TIP3    H119853   3.691   7.445   6.049
 6632TIP3    H219854   3.725   7.354   5.933
 6633TIP3   OH219855   0.612   5.142   3.025
 6633TIP3    H119856   0.524   5.111   3.050
 6633TIP3    H219857   0.596   5.210   2.960
 6634TIP3   OH219858   2.923   5.505   1.109
 6634TIP3    H119859   2.862   5.549   1.168
 6634TIP3    H219860   2.869   5.443   1.060
 6635TIP3   OH219861   3.812   5.065   3.784
 6635TIP3    H119862   3.869   5.107   3.721
 6635TIP3    H219863   3.772   5.138   3.832
 6636TIP3   OH219864   4.285   4.986   3.731
 6636TIP3    H119865   4.214   5.024   3.783
 6636TIP3    H219866   4.364   5.006   3.780
 6637TIP3   OH219867   6.847   0.807   2.778
 6637TIP3    H119868   6.916   0.776   2.836
 6637TIP3    H219869   6.766   0.795   2.828
 6638TIP3   OH219870   2.140   1.261   2.705
 6638TIP3    H119871   2.229   1.295   2.714
 6638TIP3    H219872   2.130   1.203   2.780
 6639TIP3   OH219873   6.897   0.817   4.414
 6639TIP3    H119874   6.833   0.802   4.483
 6639TIP3    H219875   6.973   0.763   4.438
 6640TIP3   OH219876   1.841   7.139   2.021
 6640TIP3    H119877   1.883   7.202   1.962
 6640TIP3    H219878   1.790   7.193   2.082
 6641TIP3   OH219879   1.574   1.102   2.847
 6641TIP3    H119880   1.605   1.187   2.876
 6641TIP3    H219881   1.650   1.044   2.856
 6642TIP3   OH219882   1.573   1.316   4.259
 6642TIP3    H119883   1.561   1.411   4.265
 6642TIP3    H219884   1.572   1.298   4.165
 6643TIP3   OH219885   1.294   0.674   4.240
 6643TIP3    H119886   1.302   0.768   4.260
 6643TIP3    H219887   1.331   0.630   4.316
 6644TIP3   OH219888   3.635   1.369   2.813
 6644TIP3    H119889   3.659   1.303   2.749
 6644TIP3    H219890   3.541   1.357   2.826
 6645TIP3   OH219891   5.591   7.718   6.040
 6645TIP3    H119892   5.599   7.752   5.951
 6645TIP3    H219893   5.676   7.736   6.081
 6646TIP3   OH219894   1.565   5.898   3.904
 6646TIP3    H119895   1.581   5.881   3.811
 6646TIP3    H219896   1.499   5.968   3.904
 6647TIP3   OH219897   0.112   7.745   6.635
 6647TIP3    H119898   0.184   7.740   6.698
 6647TIP3    H219899   0.129   7.825   6.585
 6648TIP3   OH219900   4.771   1.668   6.483
 6648TIP3    H119901   4.687   1.698   6.449
 6648TIP3    H219902   4.749   1.629   6.568
 6649TIP3   OH219903   3.570   3.284   5.944
 6649TIP3    H119904   3.546   3.321   5.859
 6649TIP3    H219905   3.529   3.343   6.007
 6650TIP3   OH219906   3.055   2.827   2.559
 6650TIP3    H119907   3.022   2.903   2.607
 6650TIP3    H219908   2.977   2.785   2.523
 6651TIP3   OH219909   0.556   3.424   5.111
 6651TIP3    H119910   0.483   3.366   5.089
 6651TIP3    H219911   0.543   3.446   5.203
 6652TIP3   OH219912   5.166   5.925   5.050
 6652TIP3    H119913   5.173   5.833   5.076
 6652TIP3    H219914   5.164   5.973   5.133
 6653TIP3   OH219915   0.129   2.777   2.576
 6653TIP3    H119916   0.107   2.810   2.489
 6653TIP3    H219917   0.224   2.787   2.583
 6654TIP3   OH219918   2.783   2.958   5.416
 6654TIP3    H119919   2.772   2.891   5.483
 6654TIP3    H219920   2.873   2.949   5.387
 6655TIP3   OH219921   5.707   4.541   6.644
 6655TIP3    H119922   5.676   4.505   6.727
 6655TIP3    H219923   5.781   4.597   6.668
 6656TIP3   OH219924   2.114   3.652   4.007
 6656TIP3    H119925   2.205   3.624   4.008
 6656TIP3    H219926   2.111   3.728   4.065
 6657TIP3   OH219927   1.598   3.602   5.029
 6657TIP3    H119928   1.643   3.685   5.046
 6657TIP3    H219929   1.578   3.604   4.935
 6658TIP3   OH219930   0.809   3.140   2.981
 6658TIP3    H119931   0.738   3.203   2.988
 6658TIP3    H219932   0.792   3.076   3.050
 6659TIP3   OH219933   5.256   0.977   2.090
 6659TIP3    H119934   5.346   1.006   2.105
 6659TIP3    H219935   5.204   1.033   2.148
 6660TIP3   OH219936   7.766   5.350   0.568
 6660TIP3    H119937   7.710   5.371   0.643
 6660TIP3    H219938   7.728   5.271   0.531
 6661TIP3   OH219939   8.025   2.843   2.982
 6661TIP3    H119940   8.114   2.878   2.978
 6661TIP3    H219941   8.015   2.796   2.899
 6662TIP3   OH219942   7.680   5.790   3.153
 6662TIP3    H119943   7.761   5.791   3.203
 6662TIP3    H219944   7.662   5.882   3.135
 6663TIP3   OH219945   4.848   7.184   5.525
 6663TIP3    H119946   4.802   7.115   5.478
 6663TIP3    H219947   4.795   7.199   5.603
 6664TIP3   OH219948   6.311   6.939   5.268
 6664TIP3    H119949   6.298   6.902   5.355
 6664TIP3    H219950   6.394   6.987   5.274
 6665TIP3   OH219951   3.184   6.132   0.067
 6665TIP3    H119952   3.231   6.174  -0.005
 6665TIP3    H219953   3.235   6.153   0.145
 6666TIP3   OH219954   0.394   5.708   2.037
 6666TIP3    H119955   0.462   5.735   2.099
 6666TIP3    H219956   0.428   5.628   1.997
 6667TIP3   OH219957   6.339   1.883   4.147
 6667TIP3    H119958   6.368   1.914   4.061
 6667TIP3    H219959   6.378   1.945   4.209
 6668TIP3   OH219960   4.891   5.170   5.498
 6668TIP3    H119961   4.861   5.188   5.409
 6668TIP3    H219962   4.887   5.074   5.506
 6669TIP3   OH219963   6.711   1.861   5.834
 6669TIP3    H119964   6.739   1.924   5.900
 6669TIP3    H219965   6.788   1.850   5.778
 6670TIP3   OH219966   0.967   7.615   5.756
 6670TIP3    H119967   0.978   7.709   5.769
 6670TIP3    H219968   0.909   7.608   5.680
 6671TIP3   OH219969   7.949   2.885   4.852
 6671TIP3    H119970   8.021   2.916   4.797
 6671TIP3    H219971   7.958   2.935   4.933
 6672TIP3   OH219972   6.893   4.549   1.931
 6672TIP3    H119973   6.918   4.546   1.839
 6672TIP3    H219974   6.826   4.617   1.936
 6673TIP3   OH219975   5.960   6.577   0.232
 6673TIP3    H119976   6.003   6.494   0.214
 6673TIP3    H219977   5.883   6.554   0.285
 6674TIP3   OH219978   6.935   2.681   3.571
 6674TIP3    H119979   6.973   2.631   3.498
 6674TIP3    H219980   6.863   2.627   3.603
 6675TIP3   OH219981   8.152   4.002   3.352
 6675TIP3    H119982   8.088   3.940   3.388
 6675TIP3    H219983   8.163   3.975   3.261
 6676TIP3   OH219984   7.578   1.761   4.244
 6676TIP3    H119985   7.563   1.825   4.314
 6676TIP3    H219986   7.513   1.783   4.177
 6677TIP3   OH219987   1.876   5.295   5.845
 6677TIP3    H119988   1.884   5.271   5.752
 6677TIP3    H219989   1.887   5.212   5.892
 6678TIP3   OH219990   4.805   6.439   2.818
 6678TIP3    H119991   4.859   6.391   2.881
 6678TIP3    H219992   4.776   6.373   2.755
 6679TIP3   OH219993   4.017   2.693   3.656
 6679TIP3    H119994   4.000   2.722   3.567
 6679TIP3    H219995   4.042   2.772   3.704
 6680TIP3   OH219996   7.304   5.526   4.572
 6680TIP3    H119997   7.335   5.530   4.662
 6680TIP3    H219998   7.342   5.603   4.530
 6681TIP3   OH219999   1.171   3.763   0.582
 6681TIP3    H120000   1.113   3.687   0.586
 6681TIP3    H220001   1.260   3.727   0.584
 6682TIP3   OH220002   1.708   7.019   3.918
 6682TIP3    H120003   1.638   7.084   3.925
 6682TIP3    H220004   1.759   7.046   3.842
 6683TIP3   OH220005   2.426   3.369   6.729
 6683TIP3    H120006   2.435   3.342   6.637
 6683TIP3    H220007   2.447   3.462   6.729
 6684TIP3   OH220008   8.034   1.749   2.466
 6684TIP3    H120009   7.999   1.680   2.522
 6684TIP3    H220010   7.992   1.829   2.498
 6685TIP3   OH220011   7.930   6.826   2.418
 6685TIP3    H120012   7.840   6.829   2.448
 6685TIP3    H220013   7.933   6.755   2.355
 6686TIP3   OH220014   3.394   3.429   2.451
 6686TIP3    H120015   3.449   3.397   2.379
 6686TIP3    H220016   3.415   3.522   2.457
 6687TIP3   OH220017   0.862   4.502   4.527
 6687TIP3    H120018   0.874   4.470   4.437
 6687TIP3    H220019   0.866   4.423   4.581
 6688TIP3   OH220020   0.180   4.323   2.402
 6688TIP3    H120021   0.209   4.370   2.323
 6688TIP3    H220022   0.261   4.288   2.439
 6689TIP3   OH220023   2.263   0.127   2.453
 6689TIP3    H120024   2.281   0.039   2.487
 6689TIP3    H220025   2.237   0.177   2.531
 6690TIP3   OH220026   5.774   7.027   2.766
 6690TIP3    H120027   5.685   7.000   2.741
 6690TIP3    H220028   5.831   6.965   2.721
 6691TIP3   OH220029   6.308   0.234   2.858
 6691TIP3    H120030   6.306   0.141   2.878
 6691TIP3    H220031   6.216   0.261   2.857
 6692TIP3   OH220032   6.554   3.936   2.815
 6692TIP3    H120033   6.542   3.989   2.894
 6692TIP3    H220034   6.648   3.920   2.811
 6693TIP3   OH220035   1.595   1.597   4.608
 6693TIP3    H120036   1.612   1.657   4.535
 6693TIP3    H220037   1.530   1.535   4.574
 6694TIP3   OH220038   3.434   4.710   0.257
 6694TIP3    H120039   3.373   4.639   0.278
 6694TIP3    H220040   3.451   4.700   0.164
 6695TIP3   OH220041   1.345   3.859   3.140
 6695TIP3    H120042   1.266   3.911   3.158
 6695TIP3    H220043   1.418   3.916   3.163
 6696TIP3   OH220044   5.557   6.843   3.848
 6696TIP3    H120045   5.517   6.877   3.928
 6696TIP3    H220046   5.534   6.750   3.847
 6697TIP3   OH220047   2.359   0.835   0.043
 6697TIP3    H120048   2.416   0.841   0.120
 6697TIP3    H220049   2.276   0.802   0.077
 6698TIP3   OH220050   6.243   1.779   5.352
 6698TIP3    H120051   6.332   1.746   5.362
 6698TIP3    H220052   6.251   1.874   5.363
 6699TIP3   OH220053   1.448   7.202   0.123
 6699TIP3    H120054   1.402   7.121   0.143
 6699TIP3    H220055   1.418   7.263   0.191
 6700TIP3   OH220056   5.895   5.134   5.258
 6700TIP3    H120057   5.803   5.146   5.234
 6700TIP3    H220058   5.939   5.112   5.175
 6701TIP3   OH220059   5.365   6.471   5.612
 6701TIP3    H120060   5.402   6.509   5.533
 6701TIP3    H220061   5.331   6.546   5.661
 6702TIP3   OH220062   7.674   4.453   3.387
 6702TIP3    H120063   7.688   4.408   3.304
 6702TIP3    H220064   7.761   4.471   3.421
 6703TIP3   OH220065   7.786   0.640   2.851
 6703TIP3    H120066   7.721   0.574   2.874
 6703TIP3    H220067   7.771   0.657   2.758
 6704TIP3   OH220068   0.921   5.142   4.785
 6704TIP3    H120069   1.007   5.103   4.772
 6704TIP3    H220070   0.918   5.215   4.723
 6705TIP3   OH220071   3.891   5.109   0.214
 6705TIP3    H120072   3.840   5.150   0.284
 6705TIP3    H220073   3.863   5.018   0.214
 6706TIP3   OH220074   3.713   6.285   3.565
 6706TIP3    H120075   3.761   6.261   3.486
 6706TIP3    H220076   3.753   6.367   3.594
 6707TIP3   OH220077   2.166   0.815   1.634
 6707TIP3    H120078   2.248   0.862   1.650
 6707TIP3    H220079   2.101   0.884   1.626
 6708TIP3   OH220080   1.639   3.174   6.182
 6708TIP3    H120081   1.707   3.114   6.213
 6708TIP3    H220082   1.668   3.199   6.094
 6709TIP3   OH220083   7.109   5.535   1.138
 6709TIP3    H120084   7.085   5.569   1.052
 6709TIP3    H220085   7.176   5.594   1.170
 6710TIP3   OH220086   2.013   1.982   4.618
 6710TIP3    H120087   1.941   2.045   4.623
 6710TIP3    H220088   2.014   1.940   4.704
 6711TIP3   OH220089   4.754   3.320   5.015
 6711TIP3    H120090   4.699   3.325   4.937
 6711TIP3    H220091   4.697   3.349   5.086
 6712TIP3   OH220092   2.449   2.637   5.162
 6712TIP3    H120093   2.443   2.678   5.076
 6712TIP3    H220094   2.371   2.665   5.208
 6713TIP3   OH220095   1.705   7.404   5.090
 6713TIP3    H120096   1.694   7.464   5.164
 6713TIP3    H220097   1.633   7.426   5.031
 6714TIP3   OH220098   2.645   4.096   3.284
 6714TIP3    H120099   2.714   4.161   3.300
 6714TIP3    H220100   2.586   4.139   3.222
 6715TIP3   OH220101   2.304   5.353   1.268
 6715TIP3    H120102   2.284   5.421   1.332
 6715TIP3    H220103   2.400   5.353   1.263
 6716TIP3   OH220104   7.575   2.337   2.657
 6716TIP3    H120105   7.632   2.264   2.681
 6716TIP3    H220106   7.501   2.296   2.613
 6717TIP3   OH220107   0.337   6.107   3.985
 6717TIP3    H120108   0.389   6.186   3.976
 6717TIP3    H220109   0.302   6.111   4.074
 6718TIP3   OH220110   3.883   7.095   6.747
 6718TIP3    H120111   3.874   7.175   6.694
 6718TIP3    H220112   3.977   7.079   6.750
 6719TIP3   OH220113   3.017   1.153   2.982
 6719TIP3    H120114   3.035   1.070   3.028
 6719TIP3    H220115   3.051   1.220   3.041
 6720TIP3   OH220116   5.845   2.108   3.071
 6720TIP3    H120117   5.849   2.203   3.081
 6720TIP3    H220118   5.923   2.076   3.117
 6721TIP3   OH220119   8.253   1.747   0.408
 6721TIP3    H120120   8.218   1.799   0.336
 6721TIP3    H220121   8.200   1.667   0.408
 6722TIP3   OH220122   1.780   0.847   1.298
 6722TIP3    H120123   1.795   0.942   1.293
 6722TIP3    H220124   1.855   0.809   1.253
 6723TIP3   OH220125   3.035   6.163   1.212
 6723TIP3    H120126   3.048   6.205   1.297
 6723TIP3    H220127   3.074   6.224   1.150
 6724TIP3   OH220128   7.924   6.670   3.968
 6724TIP3    H120129   7.915   6.744   3.909
 6724TIP3    H220130   7.995   6.694   4.027
 6725TIP3   OH220131   1.331   4.575   1.833
 6725TIP3    H120132   1.299   4.632   1.903
 6725TIP3    H220133   1.416   4.543   1.865
 6726TIP3   OH220134   2.168   6.104   2.831
 6726TIP3    H120135   2.191   6.185   2.785
 6726TIP3    H220136   2.231   6.040   2.799
 6727TIP3   OH220137   0.903   4.871   3.290
 6727TIP3    H120138   0.982   4.823   3.313
 6727TIP3    H220139   0.861   4.890   3.374
 6728TIP3   OH220140   5.551   4.272   4.226
 6728TIP3    H120141   5.479   4.274   4.289
 6728TIP3    H220142   5.625   4.237   4.276
 6729TIP3   OH220143   6.080   6.127   0.973
 6729TIP3    H120144   6.152   6.172   1.017
 6729TIP3    H220145   6.033   6.197   0.927
 6730TIP3   OH220146   5.449   7.334   3.701
 6730TIP3    H120147   5.436   7.423   3.734
 6730TIP3    H220148   5.410   7.277   3.767
 6731TIP3   OH220149   7.237   6.424   0.295
 6731TIP3    H120150   7.271   6.352   0.347
 6731TIP3    H220151   7.142   6.411   0.295
 6732TIP3   OH220152   4.447   4.127   4.888
 6732TIP3    H120153   4.401   4.046   4.908
 6732TIP3    H220154   4.403   4.194   4.940
 6733TIP3   OH220155   7.757   3.117   0.681
 6733TIP3    H120156   7.760   3.022   0.681
 6733TIP3    H220157   7.832   3.144   0.628
 6734TIP3   OH220158   7.672   1.038   6.459
 6734TIP3    H120159   7.697   1.069   6.372
 6734TIP3    H220160   7.621   0.959   6.442
 6735TIP3   OH220161   1.844   5.447   3.735
 6735TIP3    H120162   1.789   5.444   3.657
 6735TIP3    H220163   1.849   5.540   3.757
 6736TIP3   OH220164   0.535   1.199   6.298
 6736TIP3    H120165   0.501   1.126   6.246
 6736TIP3    H220166   0.471   1.269   6.285
 6737TIP3   OH220167   8.180   5.553   3.024
 6737TIP3    H120168   8.237   5.612   2.974
 6737TIP3    H220169   8.207   5.465   2.998
 6738TIP3   OH220170   1.515   2.434   0.263
 6738TIP3    H120171   1.561   2.516   0.276
 6738TIP3    H220172   1.455   2.451   0.191
 6739TIP3   OH220173   3.373   2.931   4.871
 6739TIP3    H120174   3.278   2.936   4.872
 6739TIP3    H220175   3.402   3.014   4.910
 6740TIP3   OH220176   0.783   3.270   5.114
 6740TIP3    H120177   0.702   3.321   5.115
 6740TIP3    H220178   0.837   3.308   5.183
 6741TIP3   OH220179   4.018   7.033   5.568
 6741TIP3    H120180   4.019   7.053   5.662
 6741TIP3    H220181   4.069   7.103   5.528
 6742TIP3   OH220182   3.930   3.017   0.461
 6742TIP3    H120183   3.952   2.945   0.520
 6742TIP3    H220184   3.923   2.977   0.375
 6743TIP3   OH220185   2.635   4.947   2.489
 6743TIP3    H120186   2.718   4.900   2.489
 6743TIP3    H220187   2.577   4.895   2.545
 6744TIP3   OH220188   6.786   4.399   2.387
 6744TIP3    H120189   6.737   4.478   2.411
 6744TIP3    H220190   6.795   4.350   2.468
 6745TIP3   OH220191   2.587   2.538   2.833
 6745TIP3    H120192   2.678   2.546   2.807
 6745TIP3    H220193   2.541   2.601   2.777
 6746TIP3   OH220194   8.115   3.969   3.022
 6746TIP3    H120195   8.169   4.035   2.977
 6746TIP3    H220196   8.141   3.886   2.983
 6747TIP3   OH220197   4.416   6.739   2.557
 6747TIP3    H120198   4.486   6.682   2.527
 6747TIP3    H220199   4.429   6.821   2.511
 6748TIP3   OH220200   3.772   4.292   1.113
 6748TIP3    H120201   3.714   4.323   1.043
 6748TIP3    H220202   3.802   4.206   1.083
 6749TIP3   OH220203   2.132   3.704   6.809
 6749TIP3    H120204   2.080   3.754   6.746
 6749TIP3    H220205   2.116   3.612   6.785
 6750TIP3   OH220206   4.617   0.552   6.221
 6750TIP3    H120207   4.553   0.545   6.149
 6750TIP3    H220208   4.601   0.474   6.274
 6751TIP3   OH220209   8.285   4.026   5.172
 6751TIP3    H120210   8.231   3.960   5.128
 6751TIP3    H220211   8.285   4.001   5.264
 6752TIP3   OH220212   5.043   3.938   6.188
 6752TIP3    H120213   4.979   3.949   6.259
 6752TIP3    H220214   5.121   3.905   6.232
 6753TIP3   OH220215   8.071   6.629   2.850
 6753TIP3    H120216   7.982   6.604   2.875
 6753TIP3    H220217   8.062   6.671   2.765
 6754TIP3   OH220218   3.618   6.005   5.632
 6754TIP3    H120219   3.640   6.095   5.610
 6754TIP3    H220220   3.534   6.011   5.677
 6755TIP3   OH220221   4.766   7.433   1.392
 6755TIP3    H120222   4.679   7.467   1.372
 6755TIP3    H220223   4.756   7.388   1.476
 6756TIP3   OH220224   3.754   2.573   3.641
 6756TIP3    H120225   3.822   2.640   3.647
 6756TIP3    H220226   3.776   2.510   3.710
 6757TIP3   OH220227   0.578   4.669   1.716
 6757TIP3    H120228   0.612   4.756   1.736
 6757TIP3    H220229   0.506   4.656   1.777
 6758TIP3   OH220230   7.869   6.872   6.822
 6758TIP3    H120231   7.895   6.790   6.862
 6758TIP3    H220232   7.917   6.875   6.739
 6759TIP3   OH220233   2.319   6.561   4.370
 6759TIP3    H120234   2.353   6.526   4.453
 6759TIP3    H220235   2.299   6.652   4.389
 6760TIP3   OH220236   4.407   4.057   5.780
 6760TIP3    H120237   4.473   4.044   5.848
 6760TIP3    H220238   4.340   4.112   5.822
 6761TIP3   OH220239   1.486   4.445   3.037
 6761TIP3    H120240   1.400   4.437   3.079
 6761TIP3    H220241   1.467   4.447   2.943
 6762TIP3   OH220242   8.079   4.341   1.983
 6762TIP3    H120243   8.087   4.411   1.919
 6762TIP3    H220244   8.155   4.351   2.040
 6763TIP3   OH220245   0.881   3.443   2.034
 6763TIP3    H120246   0.904   3.441   2.127
 6763TIP3    H220247   0.951   3.394   1.991
 6764TIP3   OH220248   1.173   3.007   3.386
 6764TIP3    H120249   1.108   3.044   3.446
 6764TIP3    H220250   1.249   3.064   3.395
 6765TIP3   OH220251   1.604   5.217   4.692
 6765TIP3    H120252   1.636   5.283   4.753
 6765TIP3    H220253   1.679   5.160   4.677
 6766TIP3   OH220254   2.159   5.919   0.169
 6766TIP3    H120255   2.070   5.910   0.205
 6766TIP3    H220256   2.146   5.933   0.076
 6767TIP3   OH220257   1.438   0.280   3.857
 6767TIP3    H120258   1.471   0.355   3.906
 6767TIP3    H220259   1.440   0.309   3.766
 6768TIP3   OH220260   1.672   7.145   5.722
 6768TIP3    H120261   1.597   7.162   5.779
 6768TIP3    H220262   1.717   7.229   5.716
 6769TIP3   OH220263   2.072   6.373   2.045
 6769TIP3    H120264   2.049   6.310   1.977
 6769TIP3    H220265   2.004   6.363   2.111
 6770TIP3   OH220266   0.848   3.943   5.873
 6770TIP3    H120267   0.890   3.890   5.805
 6770TIP3    H220268   0.861   4.033   5.844
 6771TIP3   OH220269   2.702   0.167   0.139
 6771TIP3    H120270   2.616   0.187   0.177
 6771TIP3    H220271   2.682   0.114   0.061
 6772TIP3   OH220272   1.681   6.669   2.768
 6772TIP3    H120273   1.775   6.657   2.780
 6772TIP3    H220274   1.641   6.594   2.811
 6773TIP3   OH220275   4.302   3.876   4.732
 6773TIP3    H120276   4.393   3.881   4.704
 6773TIP3    H220277   4.251   3.872   4.651
 6774TIP3   OH220278   2.463   0.572   5.493
 6774TIP3    H120279   2.425   0.573   5.581
 6774TIP3    H220280   2.408   0.512   5.443
 6775TIP3   OH220281   3.623   3.143   2.624
 6775TIP3    H120282   3.689   3.168   2.688
 6775TIP3    H220283   3.671   3.094   2.557
 6776TIP3   OH220284   5.439   0.360   0.625
 6776TIP3    H120285   5.519   0.330   0.582
 6776TIP3    H220286   5.387   0.397   0.554
 6777TIP3   OH220287   3.133   5.382   3.144
 6777TIP3    H120288   3.073   5.334   3.201
 6777TIP3    H220289   3.183   5.438   3.202
 6778TIP3   OH220290   4.777   0.756   3.173
 6778TIP3    H120291   4.817   0.717   3.251
 6778TIP3    H220292   4.806   0.847   3.173
 6779TIP3   OH220293   4.111   2.405   2.756
 6779TIP3    H120294   4.206   2.406   2.762
 6779TIP3    H220295   4.090   2.319   2.720
 6780TIP3   OH220296   2.758   5.311   2.595
 6780TIP3    H120297   2.734   5.322   2.503
 6780TIP3    H220298   2.675   5.313   2.642
 6781TIP3   OH220299   2.563   7.669   4.209
 6781TIP3    H120300   2.601   7.755   4.224
 6781TIP3    H220301   2.487   7.685   4.154
 6782TIP3   OH220302   7.911   2.000   5.132
 6782TIP3    H120303   7.845   2.016   5.199
 6782TIP3    H220304   7.914   2.082   5.082
 6783TIP3   OH220305   7.927   4.042   4.796
 6783TIP3    H120306   7.832   4.044   4.810
 6783TIP3    H220307   7.960   3.983   4.863
 6784TIP3   OH220308   3.804   3.591   2.068
 6784TIP3    H120309   3.844   3.668   2.026
 6784TIP3    H220310   3.862   3.518   2.044
 6785TIP3   OH220311   4.765   7.592   6.603
 6785TIP3    H120312   4.807   7.545   6.674
 6785TIP3    H220313   4.837   7.634   6.555
 6786TIP3   OH220314   4.195   0.658   2.769
 6786TIP3    H120315   4.184   0.741   2.722
 6786TIP3    H220316   4.290   0.648   2.775
 6787TIP3   OH220317   0.140   1.106   1.754
 6787TIP3    H120318   0.059   1.105   1.703
 6787TIP3    H220319   0.183   1.188   1.729
 6788TIP3   OH220320   2.154   6.779   6.606
 6788TIP3    H120321   2.238   6.808   6.571
 6788TIP3    H220322   2.093   6.850   6.583
 6789TIP3   OH220323   7.339   6.974   3.115
 6789TIP3    H120324   7.303   6.898   3.071
 6789TIP3    H220325   7.428   6.983   3.080
 6790TIP3   OH220326   0.550   5.402   6.634
 6790TIP3    H120327   0.517   5.418   6.545
 6790TIP3    H220328   0.641   5.377   6.621
 6791TIP3   OH220329   0.221   4.294   3.997
 6791TIP3    H120330   0.178   4.284   3.912
 6791TIP3    H220331   0.269   4.377   3.990
 6792TIP3   OH220332   2.862   0.890   0.642
 6792TIP3    H120333   2.907   0.948   0.703
 6792TIP3    H220334   2.922   0.882   0.568
 6793TIP3   OH220335   1.276   0.940   5.084
 6793TIP3    H120336   1.261   0.882   5.158
 6793TIP3    H220337   1.191   0.947   5.041
 6794TIP3   OH220338   6.453   4.760   4.785
 6794TIP3    H120339   6.393   4.744   4.858
 6794TIP3    H220340   6.535   4.787   4.828
 6795TIP3   OH220341   5.137   0.050   6.770
 6795TIP3    H120342   5.054   0.045   6.723
 6795TIP3    H220343   5.192   0.107   6.716
 6796TIP3   OH220344   2.451   2.256   3.242
 6796TIP3    H120345   2.406   2.296   3.168
 6796TIP3    H220346   2.496   2.180   3.206
 6797TIP3   OH220347   0.418   7.067   4.164
 6797TIP3    H120348   0.334   7.087   4.206
 6797TIP3    H220349   0.397   7.060   4.071
 6798TIP3   OH220350   7.800   3.404   3.449
 6798TIP3    H120351   7.864   3.350   3.403
 6798TIP3    H220352   7.814   3.492   3.414
 6799TIP3   OH220353   5.389   1.958   6.740
 6799TIP3    H120354   5.422   1.889   6.681
 6799TIP3    H220355   5.324   1.914   6.795
 6800TIP3   OH220356   6.261   7.526   3.130
 6800TIP3    H120357   6.264   7.485   3.043
 6800TIP3    H220358   6.288   7.616   3.114
 6801TIP3   OH220359   3.585   2.225   6.148
 6801TIP3    H120360   3.621   2.183   6.226
 6801TIP3    H220361   3.589   2.318   6.166
 6802TIP3   OH220362   1.825   4.344   5.933
 6802TIP3    H120363   1.868   4.340   5.847
 6802TIP3    H220364   1.772   4.265   5.937
 6803TIP3   OH220365   7.138   4.391   4.050
 6803TIP3    H120366   7.201   4.318   4.048
 6803TIP3    H220367   7.188   4.465   4.084
 6804TIP3   OH220368   2.248   6.692   6.058
 6804TIP3    H120369   2.248   6.781   6.023
 6804TIP3    H220370   2.205   6.700   6.143
 6805TIP3   OH220371   1.142   7.462   3.119
 6805TIP3    H120372   1.216   7.403   3.129
 6805TIP3    H220373   1.080   7.436   3.187
 6806TIP3   OH220374   7.425   3.817   2.909
 6806TIP3    H120375   7.396   3.727   2.918
 6806TIP3    H220376   7.370   3.853   2.839
 6807TIP3   OH220377   1.012   6.944   2.919
 6807TIP3    H120378   0.963   7.012   2.872
 6807TIP3    H220379   0.969   6.938   3.004
 6808TIP3   OH220380   0.994   5.211   0.204
 6808TIP3    H120381   1.047   5.236   0.129
 6808TIP3    H220382   1.022   5.122   0.225
 6809TIP3   OH220383   1.003   7.607   2.825
 6809TIP3    H120384   1.039   7.607   2.914
 6809TIP3    H220385   1.068   7.655   2.774
 6810TIP3   OH220386   7.642   7.126   1.390
 6810TIP3    H120387   7.581   7.052   1.395
 6810TIP3    H220388   7.680   7.131   1.477
 6811TIP3   OH220389   6.673   4.625   5.695
 6811TIP3    H120390   6.614   4.625   5.770
 6811TIP3    H220391   6.621   4.592   5.622
 6812TIP3   OH220392   8.025   6.571   1.545
 6812TIP3    H120393   8.102   6.544   1.595
 6812TIP3    H220394   7.977   6.490   1.529
 6813TIP3   OH220395   0.588   6.431   6.276
 6813TIP3    H120396   0.553   6.343   6.260
 6813TIP3    H220397   0.512   6.488   6.269
 6814TIP3   OH220398   3.554   2.138   5.882
 6814TIP3    H120399   3.549   2.165   5.974
 6814TIP3    H220400   3.529   2.046   5.882
 6815TIP3   OH220401   4.954   7.075   3.880
 6815TIP3    H120402   4.884   7.080   3.946
 6815TIP3    H220403   4.932   6.999   3.827
 6816TIP3   OH220404   3.616   4.132   6.503
 6816TIP3    H120405   3.566   4.174   6.433
 6816TIP3    H220406   3.557   4.065   6.538
 6817TIP3   OH220407   1.308   3.065   0.442
 6817TIP3    H120408   1.299   3.153   0.477
 6817TIP3    H220409   1.360   3.076   0.362
 6818TIP3   OH220410   4.909   4.787   0.582
 6818TIP3    H120411   4.897   4.767   0.490
 6818TIP3    H220412   4.845   4.856   0.601
 6819TIP3   OH220413   1.270   6.896   2.670
 6819TIP3    H120414   1.195   6.903   2.611
 6819TIP3    H220415   1.288   6.802   2.675
 6820TIP3   OH220416   3.351   6.875   0.973
 6820TIP3    H120417   3.314   6.892   1.059
 6820TIP3    H220418   3.315   6.945   0.917
 6821TIP3   OH220419   1.027   3.483   1.168
 6821TIP3    H120420   1.116   3.485   1.204
 6821TIP3    H220421   0.991   3.569   1.187
 6822TIP3   OH220422   0.208   3.018   1.173
 6822TIP3    H120423   0.120   3.051   1.190
 6822TIP3    H220424   0.263   3.062   1.239
 6823TIP3   OH220425   2.834   7.312   6.439
 6823TIP3    H120426   2.767   7.373   6.408
 6823TIP3    H220427   2.795   7.270   6.515
 6824TIP3   OH220428   0.153   1.793   4.382
 6824TIP3    H120429   0.060   1.799   4.362
 6824TIP3    H220430   0.188   1.737   4.313
 6825TIP3   OH220431   6.077   6.916   4.522
 6825TIP3    H120432   6.076   7.008   4.495
 6825TIP3    H220433   6.069   6.867   4.440
 6826TIP3   OH220434   4.547   2.446   4.825
 6826TIP3    H120435   4.555   2.412   4.737
 6826TIP3    H220436   4.544   2.369   4.881
 6827TIP3   OH220437   5.095   4.055   2.380
 6827TIP3    H120438   5.187   4.034   2.399
 6827TIP3    H220439   5.083   4.143   2.415
 6828TIP3   OH220440   7.729   7.266   1.670
 6828TIP3    H120441   7.701   7.284   1.760
 6828TIP3    H220442   7.824   7.253   1.678
 6829TIP3   OH220443   3.533   1.612   4.031
 6829TIP3    H120444   3.475   1.588   3.959
 6829TIP3    H220445   3.499   1.565   4.107
 6830TIP3   OH220446   2.252   0.451   5.396
 6830TIP3    H120447   2.159   0.445   5.419
 6830TIP3    H220448   2.253   0.444   5.300
 6831TIP3   OH220449   4.115   2.656   2.260
 6831TIP3    H120450   4.147   2.719   2.325
 6831TIP3    H220451   4.022   2.676   2.252
 6832TIP3   OH220452   6.911   5.701   4.324
 6832TIP3    H120453   6.886   5.778   4.272
 6832TIP3    H220454   6.868   5.628   4.280
 6833TIP3   OH220455   2.929   2.140   1.266
 6833TIP3    H120456   2.899   2.076   1.201
 6833TIP3    H220457   2.899   2.105   1.350
 6834TIP3   OH220458   7.230   4.486   5.678
 6834TIP3    H120459   7.223   4.398   5.640
 6834TIP3    H220460   7.139   4.518   5.680
 6835TIP3   OH220461   1.291   1.483   6.169
 6835TIP3    H120462   1.286   1.400   6.217
 6835TIP3    H220463   1.346   1.463   6.094
 6836TIP3   OH220464   3.968   3.533   1.325
 6836TIP3    H120465   4.009   3.539   1.411
 6836TIP3    H220466   3.899   3.468   1.336
 6837TIP3   OH220467   5.271   2.421   1.826
 6837TIP3    H120468   5.252   2.329   1.809
 6837TIP3    H220469   5.317   2.421   1.911
 6838TIP3   OH220470   0.951   4.597   5.259
 6838TIP3    H120471   0.886   4.554   5.204
 6838TIP3    H220472   0.915   4.589   5.348
 6839TIP3   OH220473   6.718   1.799   2.036
 6839TIP3    H120474   6.732   1.893   2.027
 6839TIP3    H220475   6.649   1.778   1.973
 6840TIP3   OH220476   1.645   1.930   0.633
 6840TIP3    H120477   1.671   1.953   0.544
 6840TIP3    H220478   1.701   1.856   0.657
 6841TIP3   OH220479   0.128   5.708   2.105
 6841TIP3    H120480   0.120   5.719   2.010
 6841TIP3    H220481   0.222   5.711   2.122
 6842TIP3   OH220482   1.597   6.278   2.547
 6842TIP3    H120483   1.604   6.273   2.643
 6842TIP3    H220484   1.566   6.191   2.521
 6843TIP3   OH220485   3.485   6.192   5.435
 6843TIP3    H120486   3.538   6.154   5.364
 6843TIP3    H220487   3.480   6.285   5.415
 6844TIP3   OH220488   7.601   5.078   3.444
 6844TIP3    H120489   7.627   5.040   3.527
 6844TIP3    H220490   7.676   5.066   3.387
 6845TIP3   OH220491   4.004   0.166   1.373
 6845TIP3    H120492   4.093   0.194   1.397
 6845TIP3    H220493   4.008   0.153   1.279
 6846TIP3   OH220494   7.530   7.421   1.556
 6846TIP3    H120495   7.605   7.382   1.601
 6846TIP3    H220496   7.504   7.495   1.612
 6847TIP3   OH220497   7.738   4.303   0.472
 6847TIP3    H120498   7.688   4.319   0.393
 6847TIP3    H220499   7.741   4.208   0.480
 6848TIP3   OH220500   3.816   7.598   3.714
 6848TIP3    H120501   3.742   7.628   3.766
 6848TIP3    H220502   3.812   7.649   3.633
 6849TIP3   OH220503   0.354   2.353   5.165
 6849TIP3    H120504   0.406   2.295   5.221
 6849TIP3    H220505   0.276   2.372   5.216
 6850TIP3   OH220506   0.369   2.767   2.267
 6850TIP3    H120507   0.378   2.770   2.362
 6850TIP3    H220508   0.384   2.675   2.244
 6851TIP3   OH220509   4.916   3.713   4.849
 6851TIP3    H120510   4.903   3.652   4.776
 6851TIP3    H220511   5.006   3.698   4.877
 6852TIP3   OH220512   6.876   5.419   1.612
 6852TIP3    H120513   6.961   5.456   1.639
 6852TIP3    H220514   6.835   5.489   1.562
 6853TIP3   OH220515   3.988   3.864   4.559
 6853TIP3    H120516   4.072   3.830   4.525
 6853TIP3    H220517   3.999   3.959   4.560
 6854TIP3   OH220518   7.150   1.387   2.372
 6854TIP3    H120519   7.077   1.342   2.414
 6854TIP3    H220520   7.212   1.404   2.443
 6855TIP3   OH220521   3.646   1.476   4.435
 6855TIP3    H120522   3.729   1.492   4.390
 6855TIP3    H220523   3.666   1.490   4.528
 6856TIP3   OH220524   6.515   1.825   1.878
 6856TIP3    H120525   6.445   1.763   1.856
 6856TIP3    H220526   6.471   1.909   1.885
 6857TIP3   OH220527   5.194   7.354   5.714
 6857TIP3    H120528   5.169   7.431   5.766
 6857TIP3    H220529   5.289   7.359   5.708
 6858TIP3   OH220530   7.831   2.946   1.207
 6858TIP3    H120531   7.898   2.983   1.264
 6858TIP3    H220532   7.878   2.883   1.152
 6859TIP3   OH220533   6.985   5.800   5.908
 6859TIP3    H120534   6.991   5.709   5.881
 6859TIP3    H220535   6.966   5.849   5.828
 6860TIP3   OH220536   4.221   0.997   0.284
 6860TIP3    H120537   4.243   0.930   0.219
 6860TIP3    H220538   4.202   1.076   0.232
 6861TIP3   OH220539   2.110   7.653   4.999
 6861TIP3    H120540   2.149   7.732   4.962
 6861TIP3    H220541   2.173   7.584   4.980
 6862TIP3   OH220542   5.838   1.004   1.822
 6862TIP3    H120543   5.827   1.057   1.744
 6862TIP3    H220544   5.749   0.985   1.852
 6863TIP3   OH220545   7.949   5.242   2.376
 6863TIP3    H120546   7.892   5.280   2.308
 6863TIP3    H220547   7.914   5.154   2.390
 6864TIP3   OH220548   6.558   3.525   6.000
 6864TIP3    H120549   6.639   3.570   6.022
 6864TIP3    H220550   6.518   3.504   6.085
 6865TIP3   OH220551   2.172   4.123   6.633
 6865TIP3    H120552   2.230   4.137   6.707
 6865TIP3    H220553   2.183   4.200   6.578
 6866TIP3   OH220554   0.678   6.928   1.176
 6866TIP3    H120555   0.645   6.838   1.184
 6866TIP3    H220556   0.744   6.923   1.107
 6867TIP3   OH220557   5.700   1.592   1.173
 6867TIP3    H120558   5.774   1.578   1.115
 6867TIP3    H220559   5.724   1.668   1.226
 6868TIP3   OH220560   6.424   4.150   1.854
 6868TIP3    H120561   6.369   4.219   1.816
 6868TIP3    H220562   6.385   4.133   1.939
 6869TIP3   OH220563   3.846   0.722   3.551
 6869TIP3    H120564   3.933   0.703   3.585
 6869TIP3    H220565   3.787   0.676   3.610
 6870TIP3   OH220566   7.460   5.559   0.621
 6870TIP3    H120567   7.416   5.501   0.559
 6870TIP3    H220568   7.547   5.572   0.584
 6871TIP3   OH220569   0.951   5.488   5.878
 6871TIP3    H120570   0.873   5.435   5.864
 6871TIP3    H220571   0.920   5.565   5.926
 6872TIP3   OH220572   5.135   5.050   6.388
 6872TIP3    H120573   5.083   4.987   6.338
 6872TIP3    H220574   5.153   5.006   6.471
 6873TIP3   OH220575   2.035   6.953   4.674
 6873TIP3    H120576   1.974   6.911   4.735
 6873TIP3    H220577   2.074   7.024   4.725
 6874TIP3   OH220578   5.661   4.652   5.414
 6874TIP3    H120579   5.571   4.659   5.446
 6874TIP3    H220580   5.662   4.572   5.362
 6875TIP3   OH220581   3.111   0.545   5.960
 6875TIP3    H120582   3.100   0.519   6.052
 6875TIP3    H220583   3.029   0.589   5.938
 6876TIP3   OH220584   7.178   7.484   1.214
 6876TIP3    H120585   7.219   7.563   1.179
 6876TIP3    H220586   7.200   7.484   1.307
 6877TIP3   OH220587   0.819   5.410   3.512
 6877TIP3    H120588   0.790   5.406   3.421
 6877TIP3    H220589   0.875   5.334   3.523
 6878TIP3   OH220590   7.874   1.700   0.635
 6878TIP3    H120591   7.935   1.700   0.709
 6878TIP3    H220592   7.847   1.609   0.625
 6879TIP3   OH220593   1.533   1.818   2.066
 6879TIP3    H120594   1.463   1.756   2.089
 6879TIP3    H220595   1.587   1.770   2.003
 6880TIP3   OH220596   6.668   3.819   5.560
 6880TIP3    H120597   6.752   3.809   5.514
 6880TIP3    H220598   6.657   3.736   5.608
 6881TIP3   OH220599   2.204   2.450   3.953
 6881TIP3    H120600   2.157   2.508   3.893
 6881TIP3    H220601   2.150   2.448   4.032
 6882TIP3   OH220602   3.500   4.699   1.407
 6882TIP3    H120603   3.517   4.754   1.483
 6882TIP3    H220604   3.513   4.757   1.332
 6883TIP3   OH220605   2.252   3.357   0.170
 6883TIP3    H120606   2.215   3.400   0.247
 6883TIP3    H220607   2.303   3.284   0.205
 6884TIP3   OH220608   3.068   4.128   4.281
 6884TIP3    H120609   3.018   4.058   4.322
 6884TIP3    H220610   3.085   4.096   4.192
 6885TIP3   OH220611   5.373   7.429   1.914
 6885TIP3    H120612   5.343   7.385   1.993
 6885TIP3    H220613   5.318   7.507   1.907
 6886TIP3   OH220614   2.940   3.054   4.322
 6886TIP3    H120615   2.917   2.964   4.300
 6886TIP3    H220616   3.035   3.054   4.326
 6887TIP3   OH220617   3.887   6.462   4.259
 6887TIP3    H120618   3.918   6.538   4.210
 6887TIP3    H220619   3.899   6.388   4.200
 6888TIP3   OH220620   3.574   4.631   4.108
 6888TIP3    H120621   3.505   4.650   4.045
 6888TIP3    H220622   3.589   4.713   4.154
 6889TIP3   OH220623   7.259   4.197   3.837
 6889TIP3    H120624   7.345   4.236   3.856
 6889TIP3    H220625   7.263   4.110   3.875
 6890TIP3   OH220626   6.380   2.525   3.628
 6890TIP3    H120627   6.325   2.595   3.663
 6890TIP3    H220628   6.337   2.444   3.655
 6891TIP3   OH220629   8.035   5.133   3.209
 6891TIP3    H120630   7.968   5.095   3.266
 6891TIP3    H220631   8.029   5.082   3.128
 6892TIP3   OH220632   4.973   7.253   1.432
 6892TIP3    H120633   4.914   7.323   1.402
 6892TIP3    H220634   4.915   7.188   1.472
 6893TIP3   OH220635   4.137  -0.004   3.573
 6893TIP3    H120636   4.145   0.063   3.505
 6893TIP3    H220637   4.110  -0.083   3.527
 6894TIP3   OH220638   0.643   6.223   3.316
 6894TIP3    H120639   0.645   6.261   3.404
 6894TIP3    H220640   0.553   6.240   3.285
 6895TIP3   OH220641   1.233   3.787   2.362
 6895TIP3    H120642   1.269   3.699   2.375
 6895TIP3    H220643   1.309   3.842   2.343
 6896TIP3   OH220644   1.525   5.609   3.925
 6896TIP3    H120645   1.431   5.625   3.914
 6896TIP3    H220646   1.560   5.694   3.952
 6897TIP3   OH220647   6.774   3.213   5.544
 6897TIP3    H120648   6.706   3.193   5.608
 6897TIP3    H220649   6.744   3.173   5.463
 6898TIP3   OH220650   1.259   0.509   1.710
 6898TIP3    H120651   1.307   0.506   1.628
 6898TIP3    H220652   1.309   0.569   1.765
 6899TIP3   OH220653   1.563   4.969   0.341
 6899TIP3    H120654   1.490   4.912   0.364
 6899TIP3    H220655   1.575   4.956   0.247
 6900TIP3   OH220656   0.501   3.315   6.365
 6900TIP3    H120657   0.475   3.341   6.276
 6900TIP3    H220658   0.421   3.279   6.403
 6901TIP3   OH220659   0.144   5.020   6.313
 6901TIP3    H120660   0.093   5.035   6.233
 6901TIP3    H220661   0.090   4.960   6.365
 6902TIP3   OH220662   3.980   2.282   4.435
 6902TIP3    H120663   3.999   2.375   4.421
 6902TIP3    H220664   3.914   2.261   4.369
 6903TIP3   OH220665   2.025   1.020   2.570
 6903TIP3    H120666   2.108   1.043   2.530
 6903TIP3    H220667   1.960   1.033   2.501
 6904TIP3   OH220668   4.088   5.297   6.320
 6904TIP3    H120669   4.075   5.295   6.415
 6904TIP3    H220670   4.011   5.342   6.286
 6905TIP3   OH220671   7.263   6.491   5.770
 6905TIP3    H120672   7.205   6.520   5.700
 6905TIP3    H220673   7.338   6.550   5.765
 6906TIP3   OH220674   1.913   7.684   5.901
 6906TIP3    H120675   1.825   7.671   5.937
 6906TIP3    H220676   1.968   7.624   5.952
 6907TIP3   OH220677   1.138   2.062   0.688
 6907TIP3    H120678   1.100   2.015   0.762
 6907TIP3    H220679   1.225   2.025   0.678
 6908TIP3   OH220680   6.766   7.249   3.820
 6908TIP3    H120681   6.673   7.265   3.806
 6908TIP3    H220682   6.806   7.260   3.734
 6909TIP3   OH220683   7.387   2.944   0.775
 6909TIP3    H120684   7.384   3.040   0.765
 6909TIP3    H220685   7.470   2.928   0.819
 6910TIP3   OH220686   3.624   7.221   4.986
 6910TIP3    H120687   3.634   7.251   5.076
 6910TIP3    H220688   3.673   7.139   4.982
 6911TIP3   OH220689   0.340   4.563   1.790
 6911TIP3    H120690   0.266   4.576   1.849
 6911TIP3    H220691   0.337   4.470   1.766
 6912TIP3   OH220692   3.162   6.657   0.238
 6912TIP3    H120693   3.223   6.729   0.254
 6912TIP3    H220694   3.079   6.688   0.276
 6913TIP3   OH220695   2.365   4.498   6.519
 6913TIP3    H120696   2.378   4.553   6.442
 6913TIP3    H220697   2.307   4.429   6.489
 6914TIP3   OH220698   1.576   4.621   2.167
 6914TIP3    H120699   1.662   4.617   2.209
 6914TIP3    H220700   1.595   4.620   2.073
 6915TIP3   OH220701   4.506   7.470   1.025
 6915TIP3    H120702   4.424   7.436   0.989
 6915TIP3    H220703   4.550   7.512   0.951
 6916TIP3   OH220704   0.351   4.011   1.802
 6916TIP3    H120705   0.401   3.979   1.877
 6916TIP3    H220706   0.260   4.003   1.828
 6917TIP3   OH220707   7.039   6.675   3.072
 6917TIP3    H120708   7.069   6.589   3.099
 6917TIP3    H220709   7.110   6.710   3.019
 6918TIP3   OH220710   5.259   5.753   5.623
 6918TIP3    H120711   5.219   5.744   5.536
 6918TIP3    H220712   5.241   5.669   5.666
 6919TIP3   OH220713   1.360   3.116   5.923
 6919TIP3    H120714   1.404   3.104   5.839
 6919TIP3    H220715   1.343   3.211   5.929
 6920TIP3   OH220716   0.128   7.070   3.462
 6920TIP3    H120717   0.051   7.078   3.518
 6920TIP3    H220718   0.123   6.982   3.425
 6921TIP3   OH220719   1.687   7.708   6.300
 6921TIP3    H120720   1.711   7.616   6.287
 6921TIP3    H220721   1.592   7.707   6.310
 6922TIP3   OH220722   3.373   6.416   5.680
 6922TIP3    H120723   3.308   6.468   5.634
 6922TIP3    H220724   3.363   6.438   5.772
 6923TIP3   OH220725   6.838   3.221   3.754
 6923TIP3    H120726   6.924   3.179   3.755
 6923TIP3    H220727   6.798   3.195   3.837
 6924TIP3   OH220728   3.178   0.350   0.593
 6924TIP3    H120729   3.149   0.259   0.603
 6924TIP3    H220730   3.179   0.385   0.682
 6925TIP3   OH220731   0.370   6.677   4.655
 6925TIP3    H120732   0.417   6.634   4.584
 6925TIP3    H220733   0.396   6.769   4.650
 6926TIP3   OH220734   6.117   7.317   0.150
 6926TIP3    H120735   6.068   7.347   0.227
 6926TIP3    H220736   6.051   7.313   0.081
 6927TIP3   OH220737   1.239   3.816   6.226
 6927TIP3    H120738   1.157   3.821   6.176
 6927TIP3    H220739   1.214   3.772   6.308
 6928TIP3   OH220740   8.024   7.721   6.119
 6928TIP3    H120741   8.101   7.769   6.152
 6928TIP3    H220742   8.051   7.689   6.033
 6929TIP3   OH220743   7.688   4.777   1.646
 6929TIP3    H120744   7.611   4.826   1.619
 6929TIP3    H220745   7.669   4.687   1.621
 6930TIP3   OH220746   6.613   6.176   6.563
 6930TIP3    H120747   6.589   6.217   6.646
 6930TIP3    H220748   6.690   6.123   6.584
 6931TIP3   OH220749   1.797   0.263   3.140
 6931TIP3    H120750   1.803   0.205   3.064
 6931TIP3    H220751   1.837   0.213   3.211
 6932TIP3   OH220752   5.994   1.681   6.728
 6932TIP3    H120753   6.011   1.605   6.784
 6932TIP3    H220754   6.028   1.755   6.779
 6933TIP3   OH220755   6.867   0.483   3.420
 6933TIP3    H120756   6.836   0.536   3.347
 6933TIP3    H220757   6.956   0.456   3.395
 6934TIP3   OH220758   3.045   4.183   0.680
 6934TIP3    H120759   3.021   4.117   0.616
 6934TIP3    H220760   3.085   4.134   0.752
 6935TIP3   OH220761   5.585   6.382   3.672
 6935TIP3    H120762   5.586   6.313   3.739
 6935TIP3    H220763   5.574   6.463   3.722
 6936TIP3   OH220764   4.551   6.868   2.963
 6936TIP3    H120765   4.608   6.930   2.916
 6936TIP3    H220766   4.596   6.784   2.955
 6937TIP3   OH220767   3.299   7.754   6.109
 6937TIP3    H120768   3.241   7.741   6.034
 6937TIP3    H220769   3.270   7.690   6.174
 6938TIP3   OH220770   4.632   0.108   1.209
 6938TIP3    H120771   4.684   0.181   1.244
 6938TIP3    H220772   4.616   0.052   1.285
 6939TIP3   OH220773   7.420   3.610   2.091
 6939TIP3    H120774   7.385   3.542   2.034
 6939TIP3    H220775   7.352   3.622   2.157
 6940TIP3   OH220776   1.362   6.711   1.459
 6940TIP3    H120777   1.383   6.708   1.365
 6940TIP3    H220778   1.441   6.746   1.500
 6941TIP3   OH220779   6.410   2.392   4.341
 6941TIP3    H120780   6.327   2.391   4.294
 6941TIP3    H220781   6.393   2.441   4.421
 6942TIP3   OH220782   4.009   2.612   2.960
 6942TIP3    H120783   3.972   2.563   3.034
 6942TIP3    H220784   4.017   2.547   2.890
 6943TIP3   OH220785   0.757   7.488   6.229
 6943TIP3    H120786   0.683   7.486   6.290
 6943TIP3    H220787   0.719   7.471   6.144
 6944TIP3   OH220788   7.993   0.122   1.720
 6944TIP3    H120789   8.004   0.190   1.653
 6944TIP3    H220790   8.065   0.061   1.704
 6945TIP3   OH220791   4.466   1.642   1.228
 6945TIP3    H120792   4.534   1.578   1.251
 6945TIP3    H220793   4.487   1.668   1.138
 6946TIP3   OH220794   0.553   4.006   0.686
 6946TIP3    H120795   0.519   4.027   0.599
 6946TIP3    H220796   0.475   3.993   0.740
 6947TIP3   OH220797   8.274   6.916   1.870
 6947TIP3    H120798   8.334   6.842   1.868
 6947TIP3    H220799   8.289   6.956   1.956
 6948TIP3   OH220800   2.918   3.371   6.708
 6948TIP3    H120801   2.915   3.414   6.622
 6948TIP3    H220802   2.945   3.281   6.689
 6949TIP3   OH220803   8.104   7.387   5.612
 6949TIP3    H120804   8.015   7.407   5.582
 6949TIP3    H220805   8.118   7.444   5.687
 6950TIP3   OH220806   4.285   4.944   0.129
 6950TIP3    H120807   4.206   4.994   0.108
 6950TIP3    H220808   4.301   4.892   0.050
 6951TIP3   OH220809   1.904   6.495   0.399
 6951TIP3    H120810   1.881   6.402   0.393
 6951TIP3    H220811   1.851   6.529   0.471
 6952TIP3   OH220812   4.624   1.820   0.026
 6952TIP3    H120813   4.543   1.803   0.076
 6952TIP3    H220814   4.679   1.869   0.086
 6953TIP3   OH220815   3.920   7.357   1.198
 6953TIP3    H120816   3.915   7.451   1.182
 6953TIP3    H220817   4.011   7.341   1.224
 6954TIP3   OH220818   7.131   2.776   3.717
 6954TIP3    H120819   7.056   2.741   3.669
 6954TIP3    H220820   7.207   2.756   3.662
 6955TIP3   OH220821   3.263   0.975   6.764
 6955TIP3    H120822   3.298   0.969   6.853
 6955TIP3    H220823   3.275   1.066   6.739
 6956TIP3   OH220824   4.368   2.999   5.809
 6956TIP3    H120825   4.376   2.934   5.878
 6956TIP3    H220826   4.275   3.017   5.802
 6957TIP3   OH220827   2.937   0.774   3.236
 6957TIP3    H120828   2.984   0.855   3.255
 6957TIP3    H220829   2.890   0.792   3.155
 6958TIP3   OH220830   4.453   6.658   1.530
 6958TIP3    H120831   4.476   6.630   1.441
 6958TIP3    H220832   4.358   6.667   1.529
 6959TIP3   OH220833   4.724   6.883   2.626
 6959TIP3    H120834   4.717   6.791   2.601
 6959TIP3    H220835   4.730   6.930   2.542
 6960TIP3   OH220836   0.200   1.815   2.740
 6960TIP3    H120837   0.272   1.761   2.709
 6960TIP3    H220838   0.133   1.807   2.672
 6961TIP3   OH220839   1.568   6.518   6.309
 6961TIP3    H120840   1.521   6.553   6.233
 6961TIP3    H220841   1.614   6.593   6.345
 6962TIP3   OH220842   5.252   2.077   4.613
 6962TIP3    H120843   5.163   2.111   4.607
 6962TIP3    H220844   5.308   2.155   4.607
 6963TIP3   OH220845   0.126   3.170   5.001
 6963TIP3    H120846   0.068   3.144   5.073
 6963TIP3    H220847   0.068   3.183   4.927
 6964TIP3   OH220848   5.958   4.587   5.329
 6964TIP3    H120849   5.873   4.568   5.289
 6964TIP3    H220850   6.004   4.503   5.326
 6965TIP3   OH220851   6.653   4.598   0.924
 6965TIP3    H120852   6.560   4.578   0.938
 6965TIP3    H220853   6.676   4.653   0.999
 6966TIP3   OH220854   2.290   0.276   4.606
 6966TIP3    H120855   2.340   0.355   4.585
 6966TIP3    H220856   2.354   0.216   4.645
 6967TIP3   OH220857   7.101   4.052   0.854
 6967TIP3    H120858   7.137   3.982   0.800
 6967TIP3    H220859   7.021   4.079   0.808
 6968TIP3   OH220860   3.866   6.159   2.842
 6968TIP3    H120861   3.889   6.066   2.835
 6968TIP3    H220862   3.811   6.176   2.766
 6969TIP3   OH220863   8.076   4.240   5.249
 6969TIP3    H120864   8.004   4.178   5.255
 6969TIP3    H220865   8.077   4.267   5.157
 6970TIP3   OH220866   2.001   6.987   5.346
 6970TIP3    H120867   2.009   6.917   5.411
 6970TIP3    H220868   1.945   7.052   5.389
 6971TIP3   OH220869   6.503   3.949   1.463
 6971TIP3    H120870   6.435   3.928   1.399
 6971TIP3    H220871   6.557   3.870   1.467
 6972TIP3   OH220872   8.187   4.859   0.973
 6972TIP3    H120873   8.125   4.898   1.034
 6972TIP3    H220874   8.156   4.885   0.886
 6973TIP3   OH220875   2.007   0.488   4.999
 6973TIP3    H120876   2.053   0.556   5.049
 6973TIP3    H220877   2.072   0.455   4.937
 6974TIP3   OH220878   7.170   4.002   2.921
 6974TIP3    H120879   7.099   3.975   2.863
 6974TIP3    H220880   7.161   3.946   2.998
 6975TIP3   OH220881   5.980   7.196   2.638
 6975TIP3    H120882   5.960   7.182   2.546
 6975TIP3    H220883   5.922   7.136   2.685
 6976TIP3   OH220884   3.101   0.758   1.822
 6976TIP3    H120885   3.050   0.747   1.742
 6976TIP3    H220886   3.186   0.719   1.802
 6977TIP3   OH220887   2.462   6.495   1.898
 6977TIP3    H120888   2.439   6.526   1.985
 6977TIP3    H220889   2.538   6.438   1.913
 6978TIP3   OH220890   4.394   0.810   1.097
 6978TIP3    H120891   4.423   0.808   1.006
 6978TIP3    H220892   4.373   0.902   1.114
 6979TIP3   OH220893   2.817   4.114   2.828
 6979TIP3    H120894   2.815   4.123   2.733
 6979TIP3    H220895   2.726   4.094   2.852
 6980TIP3   OH220896   3.383   0.493   2.510
 6980TIP3    H120897   3.381   0.436   2.433
 6980TIP3    H220898   3.330   0.447   2.575
 6981TIP3   OH220899   1.331   0.368   2.355
 6981TIP3    H120900   1.361   0.457   2.373
 6981TIP3    H220901   1.411   0.318   2.343
 6982TIP3   OH220902   3.743   3.168   4.503
 6982TIP3    H120903   3.835   3.143   4.508
 6982TIP3    H220904   3.714   3.132   4.419
 6983TIP3   OH220905   0.462   5.664   1.512
 6983TIP3    H120906   0.551   5.697   1.528
 6983TIP3    H220907   0.446   5.685   1.420
 6984TIP3   OH220908   0.464   6.756   5.140
 6984TIP3    H120909   0.426   6.698   5.074
 6984TIP3    H220910   0.433   6.720   5.224
 6985TIP3   OH220911   6.446   7.527   5.633
 6985TIP3    H120912   6.424   7.468   5.562
 6985TIP3    H220913   6.362   7.557   5.668
 6986TIP3   OH220914   4.253   4.110   1.172
 6986TIP3    H120915   4.327   4.169   1.178
 6986TIP3    H220916   4.212   4.130   1.088
 6987TIP3   OH220917   2.887   0.837   2.430
 6987TIP3    H120918   2.886   0.854   2.525
 6987TIP3    H220919   2.867   0.921   2.391
 6988TIP3   OH220920   2.385   4.724   5.273
 6988TIP3    H120921   2.324   4.784   5.315
 6988TIP3    H220922   2.468   4.771   5.272
 6989TIP3   OH220923   7.599   2.888   4.589
 6989TIP3    H120924   7.588   2.927   4.675
 6989TIP3    H220925   7.512   2.856   4.565
 6990TIP3   OH220926   6.131   6.586   3.230
 6990TIP3    H120927   6.174   6.636   3.300
 6990TIP3    H220928   6.111   6.502   3.270
 6991TIP3   OH220929   4.375   4.257   6.001
 6991TIP3    H120930   4.397   4.195   6.071
 6991TIP3    H220931   4.397   4.343   6.037
 6992TIP3   OH220932   5.324   7.519   5.366
 6992TIP3    H120933   5.346   7.430   5.394
 6992TIP3    H220934   5.385   7.538   5.294
 6993TIP3   OH220935   5.499   6.130   1.941
 6993TIP3    H120936   5.553   6.119   2.019
 6993TIP3    H220937   5.428   6.066   1.952
 6994TIP3   OH220938   4.496   1.674   0.290
 6994TIP3    H120939   4.491   1.580   0.272
 6994TIP3    H220940   4.405   1.704   0.281
 6995TIP3   OH220941   7.063   1.381   1.080
 6995TIP3    H120942   7.154   1.412   1.076
 6995TIP3    H220943   7.070   1.291   1.111
 6996TIP3   OH220944   2.017   0.418   6.236
 6996TIP3    H120945   2.027   0.406   6.141
 6996TIP3    H220946   2.044   0.508   6.251
 6997TIP3   OH220947   8.283   3.119   1.285
 6997TIP3    H120948   8.222   3.075   1.344
 6997TIP3    H220949   8.294   3.206   1.323
 6998TIP3   OH220950   1.227   2.873   5.900
 6998TIP3    H120951   1.255   2.964   5.889
 6998TIP3    H220952   1.151   2.879   5.958
 6999TIP3   OH220953   7.578   3.228   1.510
 6999TIP3    H120954   7.512   3.230   1.440
 6999TIP3    H220955   7.533   3.263   1.586
 7000TIP3   OH220956   6.446   0.745   0.193
 7000TIP3    H120957   6.391   0.690   0.249
 7000TIP3    H220958   6.454   0.695   0.111
 7001TIP3   OH220959   0.051   4.694   5.306
 7001TIP3    H120960   0.108   4.730   5.374
 7001TIP3    H220961   0.107   4.685   5.229
 7002TIP3   OH220962   8.175   5.853   6.525
 7002TIP3    H120963   8.113   5.890   6.463
 7002TIP3    H220964   8.204   5.771   6.485
 7003TIP3   OH220965   0.729   6.174   3.701
 7003TIP3    H120966   0.663   6.114   3.735
 7003TIP3    H220967   0.756   6.225   3.777
 7004TIP3   OH220968   0.977   6.323   3.360
 7004TIP3    H120969   0.891   6.281   3.354
 7004TIP3    H220970   1.035   6.255   3.395
 7005TIP3   OH220971   3.289   7.603   2.704
 7005TIP3    H120972   3.295   7.515   2.667
 7005TIP3    H220973   3.300   7.662   2.630
 7006TIP3   OH220974   3.497   0.978   5.840
 7006TIP3    H120975   3.437   0.921   5.887
 7006TIP3    H220976   3.567   0.996   5.902
 7007TIP3   OH220977   4.334   1.873   3.310
 7007TIP3    H120978   4.307   1.809   3.376
 7007TIP3    H220979   4.309   1.958   3.348
 7008TIP3   OH220980   1.177   3.078   1.301
 7008TIP3    H120981   1.184   3.011   1.233
 7008TIP3    H220982   1.091   3.118   1.286
 7009TIP3   OH220983   3.176   2.820   6.159
 7009TIP3    H120984   3.212   2.876   6.227
 7009TIP3    H220985   3.090   2.794   6.192
 7010TIP3   OH220986   6.585   6.013   3.988
 7010TIP3    H120987   6.616   6.103   3.978
 7010TIP3    H220988   6.586   5.978   3.899
 7011TIP3   OH220989   1.449   0.427   2.815
 7011TIP3    H120990   1.378   0.491   2.812
 7011TIP3    H220991   1.439   0.384   2.900
 7012TIP3   OH220992   7.822   1.042   3.262
 7012TIP3    H120993   7.832   1.126   3.216
 7012TIP3    H220994   7.728   1.022   3.255
 7013TIP3   OH220995   4.517   6.280   1.706
 7013TIP3    H120996   4.474   6.222   1.643
 7013TIP3    H220997   4.608   6.283   1.677
 7014TIP3   OH220998   1.933   0.266   4.582
 7014TIP3    H120999   1.848   0.224   4.580
 7014TIP3    H221000   1.969   0.243   4.668
 7015TIP3   OH221001   2.687   0.453   2.137
 7015TIP3    H121002   2.706   0.529   2.082
 7015TIP3    H221003   2.592   0.443   2.132
 7016TIP3   OH221004   3.972   7.655   1.749
 7016TIP3    H121005   4.044   7.709   1.781
 7016TIP3    H221006   3.948   7.600   1.825
 7017TIP3   OH221007   4.334   5.372   4.602
 7017TIP3    H121008   4.381   5.294   4.572
 7017TIP3    H221009   4.271   5.339   4.666
 7018TIP3   OH221010   6.075   5.844   2.436
 7018TIP3    H121011   6.082   5.939   2.427
 7018TIP3    H221012   6.030   5.831   2.520
 7019TIP3   OH221013   0.849   5.060   4.277
 7019TIP3    H121014   0.876   5.152   4.271
 7019TIP3    H221015   0.900   5.024   4.349
 7020TIP3   OH221016   1.655   2.097   3.080
 7020TIP3    H121017   1.560   2.082   3.079
 7020TIP3    H221018   1.664   2.190   3.098
 7021TIP3   OH221019   6.155   4.010   0.085
 7021TIP3    H121020   6.082   4.015   0.146
 7021TIP3    H221021   6.191   4.099   0.084
 7022TIP3   OH221022   4.640   6.681   0.832
 7022TIP3    H121023   4.729   6.646   0.832
 7022TIP3    H221024   4.651   6.776   0.834
 7023TIP3   OH221025   4.462   3.944   0.702
 7023TIP3    H121026   4.509   3.875   0.656
 7023TIP3    H221027   4.420   3.995   0.633
 7024TIP3   OH221028   5.907   6.845   6.245
 7024TIP3    H121029   5.885   6.827   6.154
 7024TIP3    H221030   5.985   6.792   6.262
 7025TIP3   OH221031   7.703   1.559   2.809
 7025TIP3    H121032   7.770   1.511   2.858
 7025TIP3    H221033   7.743   1.644   2.791
 7026TIP3   OH221034   6.131   3.393   0.464
 7026TIP3    H121035   6.202   3.451   0.436
 7026TIP3    H221036   6.076   3.383   0.387
 7027TIP3   OH221037   3.290   6.483   0.014
 7027TIP3    H121038   3.246   6.531  -0.056
 7027TIP3    H221039   3.255   6.520   0.095
 7028TIP3   OH221040   3.118   6.715   2.678
 7028TIP3    H121041   3.084   6.673   2.599
 7028TIP3    H221042   3.211   6.694   2.678
 7029TIP3   OH221043   0.419   4.005   0.417
 7029TIP3    H121044   0.431   3.915   0.386
 7029TIP3    H221045   0.420   4.058   0.338
 7030TIP3   OH221046   1.239   1.237   5.285
 7030TIP3    H121047   1.291   1.232   5.204
 7030TIP3    H221048   1.175   1.307   5.268
 7031TIP3   OH221049   7.545   2.723   6.123
 7031TIP3    H121050   7.636   2.694   6.121
 7031TIP3    H221051   7.539   2.788   6.053
 7032TIP3   OH221052   2.409   4.981   3.260
 7032TIP3    H121053   2.404   5.050   3.194
 7032TIP3    H221054   2.437   4.904   3.211
 7033TIP3   OH221055   5.191   2.973   2.979
 7033TIP3    H121056   5.177   3.030   2.903
 7033TIP3    H221057   5.103   2.948   3.007
 7034TIP3   OH221058   7.839   5.948   1.786
 7034TIP3    H121059   7.886   5.909   1.712
 7034TIP3    H221060   7.810   6.033   1.754
 7035TIP3   OH221061   7.716   5.737   0.408
 7035TIP3    H121062   7.630   5.779   0.418
 7035TIP3    H221063   7.752   5.734   0.496
 7036TIP3   OH221064   2.627   3.058   1.898
 7036TIP3    H121065   2.586   3.096   1.975
 7036TIP3    H221066   2.679   2.985   1.931
 7037TIP3   OH221067   7.567   1.491   5.387
 7037TIP3    H121068   7.593   1.491   5.295
 7037TIP3    H221069   7.585   1.581   5.416
 7038TIP3   OH221070   6.379   0.502   2.536
 7038TIP3    H121071   6.389   0.554   2.457
 7038TIP3    H221072   6.369   0.412   2.505
 7039TIP3   OH221073   0.477   3.454   4.038
 7039TIP3    H121074   0.557   3.504   4.025
 7039TIP3    H221075   0.494   3.400   4.115
 7040TIP3   OH221076   7.074   0.940   2.228
 7040TIP3    H121077   7.079   1.029   2.192
 7040TIP3    H221078   7.148   0.934   2.288
 7041TIP3   OH221079   8.302   6.561   4.017
 7041TIP3    H121080   8.312   6.630   4.082
 7041TIP3    H221081   8.338   6.599   3.936
 7042TIP3   OH221082   7.745   2.709   2.918
 7042TIP3    H121083   7.775   2.679   2.833
 7042TIP3    H221084   7.712   2.798   2.902
 7043TIP3   OH221085   6.706   0.647   0.432
 7043TIP3    H121086   6.665   0.673   0.349
 7043TIP3    H221087   6.758   0.570   0.410
 7044TIP3   OH221088   6.868   1.503   2.922
 7044TIP3    H121089   6.822   1.575   2.879
 7044TIP3    H221090   6.951   1.496   2.876
 7045TIP3   OH221091   5.282   1.629   4.322
 7045TIP3    H121092   5.370   1.659   4.347
 7045TIP3    H221093   5.242   1.602   4.405
 7046TIP3   OH221094   6.017   0.051   3.266
 7046TIP3    H121095   5.929   0.063   3.231
 7046TIP3    H221096   6.048  -0.031   3.229
 7047TIP3   OH221097   3.565   6.061   2.977
 7047TIP3    H121098   3.647   6.071   3.027
 7047TIP3    H221099   3.520   6.145   2.989
 7048TIP3   OH221100   1.723   0.319   5.536
 7048TIP3    H121101   1.730   0.311   5.631
 7048TIP3    H221102   1.694   0.232   5.508
 7049TIP3   OH221103   7.189   6.075   5.771
 7049TIP3    H121104   7.093   6.078   5.772
 7049TIP3    H221105   7.214   6.140   5.705
 7050TIP3   OH221106   5.622   1.449   1.702
 7050TIP3    H121107   5.535   1.428   1.735
 7050TIP3    H221108   5.621   1.418   1.611
 7051TIP3   OH221109   6.013   7.617   3.284
 7051TIP3    H121110   6.088   7.595   3.340
 7051TIP3    H221111   6.040   7.591   3.196
 7052TIP3   OH221112   4.117   2.219   5.105
 7052TIP3    H121113   4.083   2.199   5.192
 7052TIP3    H221114   4.169   2.142   5.081
 7053TIP3   OH221115   7.969   7.611   0.526
 7053TIP3    H121116   7.886   7.566   0.540
 7053TIP3    H221117   8.015   7.606   0.610
 7054TIP3   OH221118   4.867   5.734   0.378
 7054TIP3    H121119   4.876   5.776   0.463
 7054TIP3    H221120   4.808   5.791   0.329
 7055TIP3   OH221121   1.354   5.388   0.057
 7055TIP3    H121122   1.363   5.330  -0.019
 7055TIP3    H221123   1.391   5.338   0.129
 7056TIP3   OH221124   5.043   2.274   3.082
 7056TIP3    H121125   5.053   2.258   3.176
 7056TIP3    H221126   4.950   2.290   3.070
 7057TIP3   OH221127   3.813   2.447   0.013
 7057TIP3    H121128   3.758   2.499  -0.047
 7057TIP3    H221129   3.803   2.490   0.098
 7058TIP3   OH221130   7.139   1.851   6.484
 7058TIP3    H121131   7.139   1.946   6.490
 7058TIP3    H221132   7.086   1.822   6.558
 7059TIP3   OH221133   1.417   6.597   0.000
 7059TIP3    H121134   1.475   6.619   0.073
 7059TIP3    H221135   1.375   6.515   0.027
 7060TIP3   OH221136   3.541   5.204   1.730
 7060TIP3    H121137   3.531   5.153   1.811
 7060TIP3    H221138   3.557   5.138   1.662
 7061TIP3   OH221139   7.050   0.509   4.251
 7061TIP3    H121140   7.138   0.487   4.222
 7061TIP3    H221141   7.060   0.538   4.341
 7062TIP3   OH221142   2.697   7.580   3.383
 7062TIP3    H121143   2.653   7.623   3.309
 7062TIP3    H221144   2.787   7.569   3.353
 7063TIP3   OH221145   0.779   6.250   5.057
 7063TIP3    H121146   0.752   6.266   4.966
 7063TIP3    H221147   0.763   6.332   5.102
 7064TIP3   OH221148   6.541   2.979   3.768
 7064TIP3    H121149   6.525   3.012   3.856
 7064TIP3    H221150   6.630   2.944   3.771
 7065TIP3   OH221151   2.701   7.154   0.272
 7065TIP3    H121152   2.795   7.172   0.271
 7065TIP3    H221153   2.693   7.071   0.319
 7066TIP3   OH221154   1.744   2.578   5.045
 7066TIP3    H121155   1.691   2.531   5.109
 7066TIP3    H221156   1.794   2.641   5.096
 7067TIP3   OH221157   1.887   0.600   4.767
 7067TIP3    H121158   1.834   0.678   4.782
 7067TIP3    H221159   1.920   0.576   4.854
 7068TIP3   OH221160   6.232   1.255   4.285
 7068TIP3    H121161   6.223   1.175   4.336
 7068TIP3    H221162   6.261   1.321   4.348
 7069TIP3   OH221163   4.170   5.272   3.915
 7069TIP3    H121164   4.153   5.302   4.004
 7069TIP3    H221165   4.147   5.180   3.916
 7070TIP3   OH221166   7.629   1.911   0.291
 7070TIP3    H121167   7.630   1.955   0.376
 7070TIP3    H221168   7.678   1.969   0.234
 7071TIP3   OH221169   7.726   3.463   0.383
 7071TIP3    H121170   7.660   3.394   0.389
 7071TIP3    H221171   7.705   3.509   0.302
 7072TIP3   OH221172   0.870   0.230  -0.006
 7072TIP3    H121173   0.907   0.319  -0.003
 7072TIP3    H221174   0.863   0.211  -0.100
 7073TIP3   OH221175   7.324   7.375   4.347
 7073TIP3    H121176   7.252   7.324   4.309
 7073TIP3    H221177   7.348   7.327   4.426
 7074TIP3   OH221178   4.778   7.266   4.715
 7074TIP3    H121179   4.807   7.325   4.646
 7074TIP3    H221180   4.682   7.273   4.715
 7075TIP3   OH221181   6.264   2.298   3.665
 7075TIP3    H121182   6.242   2.259   3.750
 7075TIP3    H221183   6.198   2.264   3.605
 7076TIP3   OH221184   1.633   1.420   5.356
 7076TIP3    H121185   1.728   1.411   5.348
 7076TIP3    H221186   1.600   1.417   5.266
 7077TIP3   OH221187   5.471   7.396   5.783
 7077TIP3    H121188   5.447   7.433   5.868
 7077TIP3    H221189   5.513   7.468   5.736
 7078TIP3   OH221190   2.917   0.354   6.349
 7078TIP3    H121191   2.975   0.420   6.310
 7078TIP3    H221192   2.865   0.402   6.413
 7079TIP3   OH221193   0.009   0.607   4.459
 7079TIP3    H121194   0.046   0.682   4.412
 7079TIP3    H221195   0.068   0.593   4.532
 7080TIP3   OH221196   1.230   2.661   0.725
 7080TIP3    H121197   1.201   2.749   0.700
 7080TIP3    H221198   1.253   2.619   0.642
 7081TIP3   OH221199   6.581   1.521   0.042
 7081TIP3    H121200   6.583   1.454  -0.026
 7081TIP3    H221201   6.503   1.500   0.095
 7082TIP3   OH221202   1.654   7.091   1.105
 7082TIP3    H121203   1.717   7.128   1.042
 7082TIP3    H221204   1.578   7.067   1.051
 7083TIP3   OH221205   7.650   2.761   2.263
 7083TIP3    H121206   7.729   2.816   2.266
 7083TIP3    H221207   7.670   2.687   2.321
 7084TIP3   OH221208   0.667   6.494   3.051
 7084TIP3    H121209   0.653   6.497   3.146
 7084TIP3    H221210   0.696   6.582   3.027
 7085TIP3   OH221211   0.114   3.868   2.163
 7085TIP3    H121212   0.102   3.903   2.250
 7085TIP3    H221213   0.117   3.773   2.175
 7086TIP3   OH221214   6.562   0.502   2.136
 7086TIP3    H121215   6.467   0.487   2.141
 7086TIP3    H221216   6.571   0.597   2.142
 7087TIP3   OH221217   2.599   1.491   2.460
 7087TIP3    H121218   2.539   1.560   2.433
 7087TIP3    H221219   2.594   1.425   2.391
 7088TIP3   OH221220   4.312   0.777   0.129
 7088TIP3    H121221   4.335   0.686   0.109
 7088TIP3    H221222   4.328   0.824   0.047
 7089TIP3   OH221223   1.750   5.498   5.984
 7089TIP3    H121224   1.787   5.441   5.916
 7089TIP3    H221225   1.793   5.583   5.970
 7090TIP3   OH221226   3.293   1.801   2.832
 7090TIP3    H121227   3.317   1.818   2.923
 7090TIP3    H221228   3.334   1.871   2.782
 7091TIP3   OH221229   1.894   5.051   5.418
 7091TIP3    H121230   1.948   5.047   5.497
 7091TIP3    H221231   1.930   4.983   5.361
 7092TIP3   OH221232   7.550   4.126   6.434
 7092TIP3    H121233   7.598   4.173   6.502
 7092TIP3    H221234   7.551   4.034   6.462
 7093TIP3   OH221235   2.993   5.792   3.293
 7093TIP3    H121236   3.008   5.841   3.212
 7093TIP3    H221237   2.906   5.820   3.322
 7094TIP3   OH221238   4.733   5.542   4.027
 7094TIP3    H121239   4.706   5.560   4.117
 7094TIP3    H221240   4.829   5.544   4.031
 7095TIP3   OH221241   1.882   1.304   0.503
 7095TIP3    H121242   1.821   1.286   0.574
 7095TIP3    H221243   1.838   1.371   0.450
 7096TIP3   OH221244   6.572   5.840   5.910
 7096TIP3    H121245   6.594   5.778   5.980
 7096TIP3    H221246   6.560   5.923   5.956
 7097TIP3   OH221247   8.265   6.955   0.261
 7097TIP3    H121248   8.336   6.893   0.242
 7097TIP3    H221249   8.185   6.904   0.246
 7098TIP3   OH221250   1.162   2.420   1.424
 7098TIP3    H121251   1.243   2.423   1.373
 7098TIP3    H221252   1.098   2.465   1.369
 7099TIP3   OH221253   2.778   1.623   2.642
 7099TIP3    H121254   2.723   1.594   2.569
 7099TIP3    H221255   2.814   1.542   2.678
 7100TIP3   OH221256   5.477   0.073   1.356
 7100TIP3    H121257   5.568   0.058   1.330
 7100TIP3    H221258   5.426   0.013   1.301
 7101TIP3   OH221259   6.846   6.228   3.674
 7101TIP3    H121260   6.911   6.218   3.605
 7101TIP3    H221261   6.893   6.270   3.746
 7102TIP3   OH221262   1.672   3.239   2.500
 7102TIP3    H121263   1.669   3.152   2.540
 7102TIP3    H221264   1.609   3.236   2.429
 7103TIP3   OH221265   6.296   3.642   2.911
 7103TIP3    H121266   6.276   3.716   2.854
 7103TIP3    H221267   6.370   3.671   2.964
 7104TIP3   OH221268   3.589   1.279   5.823
 7104TIP3    H121269   3.549   1.211   5.877
 7104TIP3    H221270   3.610   1.235   5.741
 7105TIP3   OH221271   1.935   6.257   0.867
 7105TIP3    H121272   1.985   6.178   0.886
 7105TIP3    H221273   1.865   6.257   0.931
 7106TIP3   OH221274   5.830   0.048   2.493
 7106TIP3    H121275   5.761   0.071   2.556
 7106TIP3    H221276   5.828  -0.048   2.491
 7107TIP3   OH221277   5.994   4.059   1.143
 7107TIP3    H121278   6.030   4.024   1.225
 7107TIP3    H221279   5.941   4.133   1.171
 7108TIP3   OH221280   4.457   2.500   4.069
 7108TIP3    H121281   4.411   2.432   4.118
 7108TIP3    H221282   4.514   2.542   4.133
 7109TIP3   OH221283   5.966   3.899   5.364
 7109TIP3    H121284   5.996   3.912   5.274
 7109TIP3    H221285   6.043   3.916   5.417
 7110TIP3   OH221286   1.421   0.292   4.768
 7110TIP3    H121287   1.473   0.324   4.694
 7110TIP3    H221288   1.460   0.207   4.790
 7111TIP3   OH221289   5.345   2.139   2.774
 7111TIP3    H121290   5.269   2.106   2.823
 7111TIP3    H221291   5.355   2.077   2.702
 7112TIP3   OH221292   4.382   4.642   0.847
 7112TIP3    H121293   4.471   4.614   0.829
 7112TIP3    H221294   4.365   4.713   0.786
 7113TIP3   OH221295   0.412   6.945   6.461
 7113TIP3    H121296   0.345   6.877   6.461
 7113TIP3    H221297   0.365   7.026   6.441
 7114TIP3   OH221298   7.939   3.097   4.207
 7114TIP3    H121299   7.885   3.019   4.195
 7114TIP3    H221300   8.006   3.070   4.269
 7115TIP3   OH221301   7.989   6.863   0.697
 7115TIP3    H121302   7.908   6.814   0.705
 7115TIP3    H221303   7.986   6.927   0.768
 7116TIP3   OH221304   5.751   6.674   0.051
 7116TIP3    H121305   5.826   6.636   0.097
 7116TIP3    H221306   5.678   6.665   0.112
 7117TIP3   OH221307   6.020   7.422   2.972
 7117TIP3    H121308   5.975   7.460   2.897
 7117TIP3    H221309   5.964   7.442   3.047
 7118TIP3   OH221310   5.514   7.181   2.463
 7118TIP3    H121311   5.585   7.218   2.517
 7118TIP3    H221312   5.541   7.201   2.373
 7119TIP3   OH221313   3.504   0.284   6.012
 7119TIP3    H121314   3.532   0.203   6.054
 7119TIP3    H221315   3.423   0.262   5.967
 7120TIP3   OH221316   3.314   5.954   3.007
 7120TIP3    H121317   3.275   5.930   2.923
 7120TIP3    H221318   3.403   5.980   2.986
 7121TIP3   OH221319   6.722   6.901   2.664
 7121TIP3    H121320   6.673   6.825   2.632
 7121TIP3    H221321   6.696   6.972   2.606
 7122TIP3   OH221322   0.427   6.781   2.125
 7122TIP3    H121323   0.511   6.737   2.132
 7122TIP3    H221324   0.397   6.764   2.036
 7123TIP3   OH221325   1.884   6.285   4.197
 7123TIP3    H121326   1.910   6.206   4.246
 7123TIP3    H221327   1.792   6.272   4.178
 7124TIP3   OH221328   0.641   1.350   4.846
 7124TIP3    H121329   0.624   1.363   4.940
 7124TIP3    H221330   0.559   1.374   4.803
 7125TIP3   OH221331   7.919   5.972   5.163
 7125TIP3    H121332   7.834   5.935   5.187
 7125TIP3    H221333   7.904   6.011   5.076
 7126TIP3   OH221334   4.171   2.486   5.091
 7126TIP3    H121335   4.160   2.391   5.085
 7126TIP3    H221336   4.265   2.499   5.092
 7127TIP3   OH221337   5.166   7.733   0.032
 7127TIP3    H121338   5.221   7.658   0.056
 7127TIP3    H221339   5.098   7.735   0.100
 7128TIP3   OH221340   1.582   1.004   0.046
 7128TIP3    H121341   1.649   1.042  -0.010
 7128TIP3    H221342   1.625   0.931   0.090
 7129TIP3   OH221343   0.947   7.083   6.684
 7129TIP3    H121344   1.032   7.125   6.699
 7129TIP3    H221345   0.968   6.991   6.668
 7130TIP3   OH221346   2.062   5.750   4.601
 7130TIP3    H121347   1.995   5.694   4.563
 7130TIP3    H221348   2.015   5.807   4.662
 7131TIP3   OH221349   4.127   0.167   4.332
 7131TIP3    H121350   4.032   0.156   4.326
 7131TIP3    H221351   4.138   0.235   4.399
 7132TIP3   OH221352   0.221   1.623   1.832
 7132TIP3    H121353   0.240   1.628   1.925
 7132TIP3    H221354   0.196   1.712   1.808
 7133TIP3   OH221355   5.342   1.826   5.494
 7133TIP3    H121356   5.396   1.859   5.422
 7133TIP3    H221357   5.405   1.788   5.556
 7134TIP3   OH221358   2.002   3.208   4.989
 7134TIP3    H121359   1.963   3.205   5.076
 7134TIP3    H221360   1.935   3.248   4.933
 7135TIP3   OH221361   6.657   7.805   4.859
 7135TIP3    H121362   6.635   7.720   4.896
 7135TIP3    H221363   6.748   7.796   4.830
 7136TIP3   OH221364   7.394   5.510   0.277
 7136TIP3    H121365   7.341   5.458   0.338
 7136TIP3    H221366   7.476   5.463   0.270
 7137TIP3   OH221367   0.250   0.082   6.302
 7137TIP3    H121368   0.290  -0.005   6.312
 7137TIP3    H221369   0.314   0.142   6.339
 7138TIP3   OH221370   4.961   1.600   3.265
 7138TIP3    H121371   4.981   1.594   3.359
 7138TIP3    H221372   4.974   1.511   3.232
 7139TIP3   OH221373   5.881   2.221   0.421
 7139TIP3    H121374   5.945   2.233   0.491
 7139TIP3    H221375   5.799   2.202   0.468
 7140TIP3   OH221376   0.396   7.727   4.915
 7140TIP3    H121377   0.351   7.772   4.844
 7140TIP3    H221378   0.476   7.693   4.875
 7141TIP3   OH221379   4.480   1.577   2.717
 7141TIP3    H121380   4.525   1.654   2.755
 7141TIP3    H221381   4.525   1.502   2.756
 7142TIP3   OH221382   3.380   2.089   4.346
 7142TIP3    H121383   3.303   2.067   4.294
 7142TIP3    H221384   3.344   2.131   4.425
 7143TIP3   OH221385   3.469   7.075   5.307
 7143TIP3    H121386   3.421   7.006   5.261
 7143TIP3    H221387   3.414   7.095   5.383
 7144TIP3   OH221388   2.271   2.357   3.403
 7144TIP3    H121389   2.229   2.285   3.450
 7144TIP3    H221390   2.346   2.317   3.359
 7145TIP3   OH221391   6.944   3.587   4.519
 7145TIP3    H121392   7.013   3.654   4.521
 7145TIP3    H221393   6.981   3.516   4.467
 7146TIP3   OH221394   7.903   3.334   0.179
 7146TIP3    H121395   7.845   3.407   0.159
 7146TIP3    H221396   7.846   3.269   0.220
 7147TIP3   OH221397   7.010   2.472   2.026
 7147TIP3    H121398   7.035   2.532   2.097
 7147TIP3    H221399   7.092   2.428   2.003
 7148TIP3   OH221400   4.136   6.403   0.185
 7148TIP3    H121401   4.159   6.397   0.278
 7148TIP3    H221402   4.208   6.452   0.146
 7149TIP3   OH221403   4.747   0.772   1.294
 7149TIP3    H121404   4.656   0.745   1.286
 7149TIP3    H221405   4.773   0.796   1.204
 7150TIP3   OH221406   1.433   0.792   4.914
 7150TIP3    H121407   1.368   0.839   4.967
 7150TIP3    H221408   1.488   0.748   4.978
 7151TIP3   OH221409   7.227   0.640   5.481
 7151TIP3    H121410   7.315   0.609   5.459
 7151TIP3    H221411   7.197   0.580   5.549
 7152TIP3   OH221412   5.601   6.680   2.622
 7152TIP3    H121413   5.681   6.640   2.657
 7152TIP3    H221414   5.539   6.607   2.617
 7153TIP3   OH221415   2.568   6.489   6.562
 7153TIP3    H121416   2.534   6.495   6.652
 7153TIP3    H221417   2.626   6.412   6.564
 7154TIP3   OH221418   5.161   7.664   4.081
 7154TIP3    H121419   5.161   7.618   3.997
 7154TIP3    H221420   5.088   7.625   4.129
 7155TIP3   OH221421   7.478   2.790   2.542
 7155TIP3    H121422   7.547   2.851   2.566
 7155TIP3    H221423   7.523   2.715   2.503
 7156TIP3   OH221424   0.774   4.200   0.426
 7156TIP3    H121425   0.796   4.214   0.518
 7156TIP3    H221426   0.751   4.287   0.393
 7157TIP3   OH221427   5.006   4.632   1.817
 7157TIP3    H121428   4.963   4.614   1.900
 7157TIP3    H221429   4.951   4.590   1.751
 7158TIP3   OH221430   3.573   6.229   1.722
 7158TIP3    H121431   3.615   6.311   1.748
 7158TIP3    H221432   3.622   6.201   1.645
 7159TIP3   OH221433   1.820   1.471   1.973
 7159TIP3    H121434   1.820   1.444   2.065
 7159TIP3    H221435   1.755   1.415   1.932
 7160TIP3   OH221436   3.441   4.171   1.984
 7160TIP3    H121437   3.404   4.102   2.040
 7160TIP3    H221438   3.414   4.252   2.026
 7161TIP3   OH221439   7.094   1.571   4.525
 7161TIP3    H121440   7.061   1.558   4.614
 7161TIP3    H221441   7.023   1.543   4.468
 7162TIP3   OH221442   6.188   0.858   2.722
 7162TIP3    H121443   6.180   0.763   2.717
 7162TIP3    H221444   6.183   0.887   2.631
 7163TIP3   OH221445   4.126   5.878   2.469
 7163TIP3    H121446   4.153   5.926   2.548
 7163TIP3    H221447   4.111   5.946   2.404
 7164TIP3   OH221448   3.565   3.511   2.834
 7164TIP3    H121449   3.548   3.582   2.896
 7164TIP3    H221450   3.657   3.488   2.848
 7165TIP3   OH221451   0.115   2.340   3.104
 7165TIP3    H121452   0.176   2.409   3.131
 7165TIP3    H221453   0.077   2.372   3.022
 7166TIP3   OH221454   6.722   6.284   0.485
 7166TIP3    H121455   6.635   6.284   0.525
 7166TIP3    H221456   6.754   6.195   0.497
 7167TIP3   OH221457   4.492   4.843   1.070
 7167TIP3    H121458   4.526   4.864   0.983
 7167TIP3    H221459   4.427   4.774   1.054
 7168TIP3   OH221460   5.707   6.033   5.743
 7168TIP3    H121461   5.693   6.062   5.833
 7168TIP3    H221462   5.673   6.104   5.689
 7169TIP3   OH221463   8.114   3.586   1.367
 7169TIP3    H121464   8.120   3.574   1.462
 7169TIP3    H221465   8.025   3.619   1.352
 7170TIP3   OH221466   0.285   6.911   6.762
 7170TIP3    H121467   0.194   6.895   6.738
 7170TIP3    H221468   0.331   6.830   6.736
 7171TIP3   OH221469   3.133   3.718   5.566
 7171TIP3    H121470   3.101   3.789   5.621
 7171TIP3    H221471   3.199   3.673   5.620
 7172TIP3   OH221472   6.353   5.008   1.733
 7172TIP3    H121473   6.346   4.916   1.757
 7172TIP3    H221474   6.322   5.056   1.809
 7173TIP3   OH221475   2.588   0.407   4.760
 7173TIP3    H121476   2.575   0.455   4.841
 7173TIP3    H221477   2.522   0.442   4.700
 7174TIP3   OH221478   3.939   0.421   4.363
 7174TIP3    H121479   3.895   0.399   4.281
 7174TIP3    H221480   3.867   0.430   4.426
 7175TIP3   OH221481   4.069   4.984   6.778
 7175TIP3    H121482   4.036   4.935   6.702
 7175TIP3    H221483   4.163   4.966   6.778
 7176TIP3   OH221484   2.544   1.715   5.292
 7176TIP3    H121485   2.459   1.757   5.300
 7176TIP3    H221486   2.599   1.759   5.357
 7177TIP3   OH221487   4.086   2.299   5.513
 7177TIP3    H121488   3.994   2.303   5.539
 7177TIP3    H221489   4.101   2.207   5.490
 7178TIP3   OH221490   3.080   7.087   4.568
 7178TIP3    H121491   3.125   7.047   4.642
 7178TIP3    H221492   3.127   7.055   4.491
 7179TIP3   OH221493   4.147   2.017   5.409
 7179TIP3    H121494   4.123   1.962   5.484
 7179TIP3    H221495   4.235   1.987   5.384
 7180TIP3   OH221496   6.225   1.669   3.576
 7180TIP3    H121497   6.207   1.578   3.600
 7180TIP3    H221498   6.270   1.663   3.492
 7181TIP3   OH221499   3.150   1.689   0.665
 7181TIP3    H121500   3.213   1.757   0.643
 7181TIP3    H221501   3.082   1.734   0.716
 7182TIP3   OH221502   7.917   3.200   3.308
 7182TIP3    H121503   7.922   3.106   3.327
 7182TIP3    H221504   7.913   3.205   3.212
 7183TIP3   OH221505   3.213   5.590   4.790
 7183TIP3    H121506   3.194   5.542   4.710
 7183TIP3    H221507   3.239   5.523   4.853
 7184TIP3   OH221508   7.796   5.382   1.854
 7184TIP3    H121509   7.829   5.297   1.826
 7184TIP3    H221510   7.860   5.445   1.819
 7185TIP3   OH221511   3.169   3.565   3.166
 7185TIP3    H121512   3.203   3.602   3.084
 7185TIP3    H221513   3.093   3.619   3.186
 7186TIP3   OH221514   6.827   0.278   1.058
 7186TIP3    H121515   6.913   0.272   1.100
 7186TIP3    H221516   6.802   0.370   1.067
 7187TIP3   OH221517   4.268   2.836   2.817
 7187TIP3    H121518   4.226   2.820   2.901
 7187TIP3    H221519   4.297   2.927   2.821
 7188TIP3   OH221520   4.591   0.252   1.796
 7188TIP3    H121521   4.658   0.202   1.843
 7188TIP3    H221522   4.631   0.273   1.712
 7189TIP3   OH221523   0.690   1.421   0.742
 7189TIP3    H121524   0.631   1.350   0.720
 7189TIP3    H221525   0.633   1.493   0.768
 7190TIP3   OH221526   4.033   1.675   2.171
 7190TIP3    H121527   3.971   1.696   2.101
 7190TIP3    H221528   4.103   1.739   2.161
 7191TIP3   OH221529   8.196   1.833   4.306
 7191TIP3    H121530   8.120   1.787   4.344
 7191TIP3    H221531   8.168   1.855   4.217
 7192TIP3   OH221532   4.685   0.152   0.376
 7192TIP3    H121533   4.631   0.223   0.411
 7192TIP3    H221534   4.748   0.134   0.446
 7193TIP3   OH221535   5.725   6.529   0.363
 7193TIP3    H121536   5.749   6.554   0.452
 7193TIP3    H221537   5.702   6.611   0.320
 7194TIP3   OH221538   6.711   4.825   4.869
 7194TIP3    H121539   6.773   4.803   4.799
 7194TIP3    H221540   6.766   4.833   4.947
 7195TIP3   OH221541   2.046   6.304   1.248
 7195TIP3    H121542   2.022   6.377   1.191
 7195TIP3    H221543   2.105   6.250   1.195
 7196TIP3   OH221544   4.182   7.759   4.510
 7196TIP3    H121545   4.246   7.830   4.504
 7196TIP3    H221546   4.098   7.804   4.518
 7197TIP3   OH221547   0.790   6.544   4.827
 7197TIP3    H121548   0.779   6.588   4.911
 7197TIP3    H221549   0.736   6.465   4.833
 7198TIP3   OH221550   7.378   3.046   2.726
 7198TIP3    H121551   7.319   3.015   2.657
 7198TIP3    H221552   7.325   3.107   2.778
 7199TIP3   OH221553   2.868   3.876   5.104
 7199TIP3    H121554   2.793   3.926   5.138
 7199TIP3    H221555   2.944   3.931   5.124
 7200TIP3   OH221556   5.304   3.916   1.081
 7200TIP3    H121557   5.345   4.002   1.077
 7200TIP3    H221558   5.366   3.862   1.131
 7201TIP3   OH221559   2.809   4.298   4.321
 7201TIP3    H121560   2.797   4.260   4.408
 7201TIP3    H221561   2.875   4.243   4.279
 7202TIP3   OH221562   1.961   7.268   2.878
 7202TIP3    H121563   1.976   7.266   2.972
 7202TIP3    H221564   1.866   7.276   2.869
 7203TIP3   OH221565   2.595   3.215   0.874
 7203TIP3    H121566   2.632   3.294   0.913
 7203TIP3    H221567   2.514   3.200   0.923
 7204TIP3   OH221568   4.111   2.097   3.056
 7204TIP3    H121569   4.199   2.122   3.083
 7204TIP3    H221570   4.095   2.148   2.976
 7205TIP3   OH221571   5.794   1.967   5.374
 7205TIP3    H121572   5.853   1.891   5.373
 7205TIP3    H221573   5.758   1.967   5.463
 7206TIP3   OH221574   5.382   2.644   0.501
 7206TIP3    H121575   5.330   2.707   0.453
 7206TIP3    H221576   5.385   2.566   0.445
 7207TIP3   OH221577   7.472   5.971   2.935
 7207TIP3    H121578   7.500   5.940   2.849
 7207TIP3    H221579   7.545   6.024   2.966
 7208TIP3   OH221580   1.969   1.265   1.820
 7208TIP3    H121581   2.007   1.177   1.825
 7208TIP3    H221582   1.885   1.258   1.864
 7209TIP3   OH221583   1.429   2.141   5.200
 7209TIP3    H121584   1.461   2.052   5.209
 7209TIP3    H221585   1.334   2.134   5.201
 7210TIP3   OH221586   1.792   5.720   1.521
 7210TIP3    H121587   1.790   5.650   1.455
 7210TIP3    H221588   1.878   5.761   1.511
 7211TIP3   OH221589   4.708   2.684   1.109
 7211TIP3    H121590   4.659   2.700   1.190
 7211TIP3    H221591   4.794   2.723   1.125
 7212TIP3   OH221592   4.305   2.313   1.791
 7212TIP3    H121593   4.346   2.360   1.863
 7212TIP3    H221594   4.373   2.309   1.723
 7213TIP3   OH221595   3.896   2.394   3.126
 7213TIP3    H121596   3.851   2.316   3.095
 7213TIP3    H221597   3.829   2.445   3.172
 7214TIP3   OH221598   4.427   1.334   5.441
 7214TIP3    H121599   4.375   1.411   5.463
 7214TIP3    H221600   4.517   1.362   5.458
 7215TIP3   OH221601   5.319   0.867   4.708
 7215TIP3    H121602   5.315   0.795   4.770
 7215TIP3    H221603   5.228   0.883   4.684
 7216TIP3   OH221604   1.618   3.109   0.717
 7216TIP3    H121605   1.646   3.117   0.808
 7216TIP3    H221606   1.547   3.044   0.720
 7217TIP3   OH221607   4.248   2.017   3.792
 7217TIP3    H121608   4.210   2.028   3.880
 7217TIP3    H221609   4.242   2.104   3.753
 7218TIP3   OH221610   5.739   4.436   2.591
 7218TIP3    H121611   5.784   4.517   2.617
 7218TIP3    H221612   5.656   4.467   2.555
 7219TIP3   OH221613   5.553   2.729   2.698
 7219TIP3    H121614   5.511   2.645   2.681
 7219TIP3    H221615   5.493   2.774   2.757
 7220TIP3   OH221616   6.863   6.433   3.942
 7220TIP3    H121617   6.906   6.434   4.028
 7220TIP3    H221618   6.920   6.486   3.887
 7221TIP3   OH221619   4.268   4.956   1.789
 7221TIP3    H121620   4.188   4.906   1.802
 7221TIP3    H221621   4.281   4.957   1.694
 7222TIP3   OH221622   7.101   7.653   4.127
 7222TIP3    H121623   7.132   7.736   4.093
 7222TIP3    H221624   7.140   7.645   4.214
 7223TIP3   OH221625   0.979   4.389   3.211
 7223TIP3    H121626   0.969   4.426   3.123
 7223TIP3    H221627   0.906   4.328   3.220
 7224TIP3   OH221628   2.849   3.947   4.403
 7224TIP3    H121629   2.884   3.899   4.478
 7224TIP3    H221630   2.765   3.982   4.432
 7225TIP3   OH221631   6.158   7.700   4.643
 7225TIP3    H121632   6.119   7.628   4.693
 7225TIP3    H221633   6.107   7.702   4.562
 7226TIP3   OH221634   6.920   1.900   4.527
 7226TIP3    H121635   6.835   1.869   4.559
 7226TIP3    H221636   6.984   1.860   4.586
 7227TIP3   OH221637   2.097   7.621   4.207
 7227TIP3    H121638   2.121   7.691   4.147
 7227TIP3    H221639   2.143   7.544   4.173
 7228TIP3   OH221640   4.275   1.270   2.580
 7228TIP3    H121641   4.342   1.275   2.648
 7228TIP3    H221642   4.324   1.271   2.498
 7229TIP3   OH221643   5.472   4.513   2.491
 7229TIP3    H121644   5.391   4.527   2.442
 7229TIP3    H221645   5.524   4.591   2.475
 7230TIP3   OH221646   2.312   2.458   2.313
 7230TIP3    H121647   2.387   2.494   2.360
 7230TIP3    H221648   2.265   2.407   2.378
 7231TIP3   OH221649   7.547   4.681   3.764
 7231TIP3    H121650   7.548   4.656   3.672
 7231TIP3    H221651   7.603   4.616   3.807
 7232TIP3   OH221652   0.368   5.386   0.972
 7232TIP3    H121653   0.461   5.363   0.980
 7232TIP3    H221654   0.334   5.383   1.061
 7233TIP3   OH221655   4.940   4.980   2.884
 7233TIP3    H121656   4.878   5.000   2.814
 7233TIP3    H221657   5.024   4.971   2.839
 7234TIP3   OH221658   6.609   0.603   5.142
 7234TIP3    H121659   6.671   0.671   5.170
 7234TIP3    H221660   6.540   0.652   5.097
 7235TIP3   OH221661   7.193   3.388   5.972
 7235TIP3    H121662   7.225   3.314   5.919
 7235TIP3    H221663   7.153   3.347   6.049
 7236TIP3   OH221664   3.578   3.656   4.231
 7236TIP3    H121665   3.569   3.749   4.247
 7236TIP3    H221666   3.528   3.640   4.151
 7237TIP3   OH221667   0.408   4.302   5.509
 7237TIP3    H121668   0.328   4.350   5.485
 7237TIP3    H221669   0.439   4.265   5.427
 7238TIP3   OH221670   2.329   4.476   4.650
 7238TIP3    H121671   2.283   4.465   4.567
 7238TIP3    H221672   2.305   4.564   4.679
 7239TIP3   OH221673   3.449   2.885   1.146
 7239TIP3    H121674   3.487   2.852   1.228
 7239TIP3    H221675   3.355   2.868   1.155
 7240TIP3   OH221676   0.984   3.418   5.246
 7240TIP3    H121677   1.040   3.341   5.262
 7240TIP3    H221678   1.046   3.488   5.224
 7241TIP3   OH221679   5.054   3.929   1.274
 7241TIP3    H121680   5.011   4.015   1.271
 7241TIP3    H221681   5.137   3.943   1.229
 7242TIP3   OH221682   7.003   3.870   2.122
 7242TIP3    H121683   7.060   3.947   2.118
 7242TIP3    H221684   6.917   3.903   2.100
 7243TIP3   OH221685   4.689   6.884   6.261
 7243TIP3    H121686   4.603   6.926   6.253
 7243TIP3    H221687   4.669   6.794   6.289
 7244TIP3   OH221688   7.339   1.434   1.111
 7244TIP3    H121689   7.384   1.351   1.128
 7244TIP3    H221690   7.354   1.486   1.189
 7245TIP3   OH221691   4.195   0.119   3.301
 7245TIP3    H121692   4.267   0.086   3.246
 7245TIP3    H221693   4.120   0.124   3.241
 7246TIP3   OH221694   1.485   3.170   2.319
 7246TIP3    H121695   1.431   3.090   2.317
 7246TIP3    H221696   1.486   3.201   2.229
 7247TIP3   OH221697   4.842   3.536   1.470
 7247TIP3    H121698   4.887   3.613   1.504
 7247TIP3    H221699   4.784   3.570   1.402
 7248TIP3   OH221700   5.230   5.450   0.473
 7248TIP3    H121701   5.142   5.446   0.437
 7248TIP3    H221702   5.266   5.362   0.461
 7249TIP3   OH221703   4.410   5.061   2.296
 7249TIP3    H121704   4.458   5.031   2.219
 7249TIP3    H221705   4.444   5.149   2.313
 7250TIP3   OH221706   1.468   4.940   6.196
 7250TIP3    H121707   1.470   4.858   6.146
 7250TIP3    H221708   1.387   4.934   6.247
 7251TIP3   OH221709   2.921   6.505   1.555
 7251TIP3    H121710   2.986   6.530   1.621
 7251TIP3    H221711   2.937   6.565   1.483
 7252TIP3   OH221712   5.555   7.629   4.443
 7252TIP3    H121713   5.551   7.589   4.530
 7252TIP3    H221714   5.500   7.573   4.388
 7253TIP3   OH221715   4.840   2.777   3.670
 7253TIP3    H121716   4.896   2.706   3.701
 7253TIP3    H221717   4.886   2.857   3.696
 7254TIP3   OH221718   4.258   1.990   5.011
 7254TIP3    H121719   4.257   2.029   4.923
 7254TIP3    H221720   4.220   1.903   4.999
 7255TIP3   OH221721   3.092   0.529   6.236
 7255TIP3    H121722   3.132   0.615   6.253
 7255TIP3    H221723   3.164   0.467   6.247
 7256TIP3   OH221724   1.018   7.263   2.953
 7256TIP3    H121725   1.090   7.201   2.950
 7256TIP3    H221726   1.058   7.348   2.934
 7257TIP3   OH221727   2.366   0.594   1.293
 7257TIP3    H121728   2.311   0.637   1.227
 7257TIP3    H221729   2.453   0.633   1.281
 7258TIP3   OH221730   8.133   7.819   1.154
 7258TIP3    H121731   8.093   7.732   1.162
 7258TIP3    H221732   8.213   7.804   1.103
 7259TIP3   OH221733   7.010   6.224   3.436
 7259TIP3    H121734   6.947   6.275   3.385
 7259TIP3    H221735   6.992   6.133   3.413
 7260TIP3   OH221736   3.759   1.934   2.444
 7260TIP3    H121737   3.729   1.968   2.529
 7260TIP3    H221738   3.852   1.916   2.457
 7261TIP3   OH221739   3.696   3.413   4.245
 7261TIP3    H121740   3.673   3.365   4.324
 7261TIP3    H221741   3.666   3.502   4.262
 7262TIP3   OH221742   1.824   6.162   5.255
 7262TIP3    H121743   1.818   6.073   5.219
 7262TIP3    H221744   1.838   6.148   5.349
 7263TIP3   OH221745   1.525   2.863   0.143
 7263TIP3    H121746   1.498   2.952   0.165
 7263TIP3    H221747   1.464   2.806   0.190
 7264TIP3   OH221748   1.485   4.085   3.277
 7264TIP3    H121749   1.542   4.161   3.268
 7264TIP3    H221750   1.514   4.042   3.357
 7265TIP3   OH221751   2.081   7.430   4.686
 7265TIP3    H121752   2.061   7.410   4.595
 7265TIP3    H221753   2.069   7.525   4.692
 7266TIP3   OH221754   5.230   6.995   1.098
 7266TIP3    H121755   5.140   6.988   1.130
 7266TIP3    H221756   5.234   7.082   1.058
 7267TIP3   OH221757   5.996   5.112   2.030
 7267TIP3    H121758   6.087   5.085   2.040
 7267TIP3    H221759   6.002   5.200   1.992
 7268TIP3   OH221760   7.344   3.876   3.638
 7268TIP3    H121761   7.265   3.872   3.692
 7268TIP3    H221762   7.405   3.815   3.679
 7269TIP3   OH221763   5.084   0.629   0.245
 7269TIP3    H121764   5.000   0.609   0.204
 7269TIP3    H221765   5.144   0.642   0.171
 7270TIP3   OH221766   6.469   4.617   5.142
 7270TIP3    H121767   6.541   4.573   5.096
 7270TIP3    H221768   6.467   4.576   5.228
 7271TIP3   OH221769   0.981   5.185   3.424
 7271TIP3    H121770   1.007   5.250   3.359
 7271TIP3    H221771   0.898   5.149   3.391
 7272TIP3   OH221772   2.591   2.816   5.974
 7272TIP3    H121773   2.630   2.750   6.032
 7272TIP3    H221774   2.623   2.899   6.007
 7273TIP3   OH221775   6.549   7.301   2.315
 7273TIP3    H121776   6.579   7.355   2.388
 7273TIP3    H221777   6.467   7.340   2.288
 7274TIP3   OH221778   3.731   5.915   4.992
 7274TIP3    H121779   3.810   5.964   5.016
 7274TIP3    H221780   3.699   5.958   4.913
 7275TIP3   OH221781   1.458   2.806   1.551
 7275TIP3    H121782   1.495   2.730   1.597
 7275TIP3    H221783   1.364   2.788   1.547
 7276TIP3   OH221784   0.390   6.371   0.395
 7276TIP3    H121785   0.458   6.366   0.463
 7276TIP3    H221786   0.353   6.284   0.392
 7277TIP3   OH221787   6.510   6.101   6.320
 7277TIP3    H121788   6.552   6.119   6.404
 7277TIP3    H221789   6.496   6.188   6.282
 7278TIP3   OH221790   0.590   4.272   4.825
 7278TIP3    H121791   0.537   4.214   4.880
 7278TIP3    H221792   0.650   4.214   4.779
 7279TIP3   OH221793   2.302   0.962   4.295
 7279TIP3    H121794   2.313   1.037   4.354
 7279TIP3    H221795   2.375   0.967   4.235
 7280TIP3   OH221796   0.810   0.718   4.760
 7280TIP3    H121797   0.872   0.775   4.714
 7280TIP3    H221798   0.725   0.740   4.721
 7281TIP3   OH221799   5.532   0.405   1.962
 7281TIP3    H121800   5.595   0.426   2.031
 7281TIP3    H221801   5.499   0.318   1.985
 7282TIP3   OH221802   3.514   7.725   3.580
 7282TIP3    H121803   3.555   7.765   3.657
 7282TIP3    H221804   3.492   7.798   3.523
 7283TIP3   OH221805   4.238   3.810   4.463
 7283TIP3    H121806   4.262   3.718   4.458
 7283TIP3    H221807   4.281   3.850   4.387
 7284TIP3   OH221808   2.250   5.309   0.513
 7284TIP3    H121809   2.222   5.302   0.422
 7284TIP3    H221810   2.195   5.245   0.559
 7285TIP3   OH221811   0.558   7.807   3.235
 7285TIP3    H121812   0.606   7.752   3.173
 7285TIP3    H221813   0.603   7.795   3.318
 7286TIP3   OH221814   4.893   4.080   5.121
 7286TIP3    H121815   4.837   4.082   5.043
 7286TIP3    H221816   4.955   4.010   5.104
 7287TIP3   OH221817   0.176   7.565   5.524
 7287TIP3    H121818   0.091   7.609   5.528
 7287TIP3    H221819   0.166   7.487   5.579
 7288TIP3   OH221820   3.242   6.471   3.847
 7288TIP3    H121821   3.304   6.541   3.871
 7288TIP3    H221822   3.271   6.395   3.898
 7289TIP3   OH221823   7.295   5.113   4.885
 7289TIP3    H121824   7.275   5.093   4.794
 7289TIP3    H221825   7.329   5.202   4.883
 7290TIP3   OH221826   6.108   4.451   0.199
 7290TIP3    H121827   6.168   4.444   0.125
 7290TIP3    H221828   6.165   4.469   0.274
 7291TIP3   OH221829   5.620   1.349   2.793
 7291TIP3    H121830   5.528   1.335   2.773
 7291TIP3    H221831   5.663   1.268   2.766
 7292TIP3   OH221832   6.864   6.720   4.782
 7292TIP3    H121833   6.775   6.683   4.785
 7292TIP3    H221834   6.913   6.659   4.727
 7293TIP3   OH221835   4.123   2.357   4.071
 7293TIP3    H121836   4.190   2.289   4.077
 7293TIP3    H221837   4.139   2.412   4.148
 7294TIP3   OH221838   1.428   7.791   4.966
 7294TIP3    H121839   1.377   7.815   5.043
 7294TIP3    H221840   1.517   7.820   4.987
 7295TIP3   OH221841   4.334   1.428   0.941
 7295TIP3    H121842   4.386   1.473   1.008
 7295TIP3    H221843   4.363   1.467   0.859
 7296TIP3   OH221844   3.262   7.244   0.761
 7296TIP3    H121845   3.332   7.245   0.827
 7296TIP3    H221846   3.211   7.323   0.779
 7297TIP3   OH221847   5.462   1.590   4.985
 7297TIP3    H121848   5.417   1.506   4.996
 7297TIP3    H221849   5.509   1.582   4.902
 7298TIP3   OH221850   6.658   7.108   1.007
 7298TIP3    H121851   6.584   7.081   0.951
 7298TIP3    H221852   6.685   7.027   1.051
 7299TIP3   OH221853   2.921   5.164   4.802
 7299TIP3    H121854   2.900   5.096   4.866
 7299TIP3    H221855   2.840   5.175   4.752
 7300TIP3   OH221856   2.938   2.336   4.411
 7300TIP3    H121857   2.934   2.257   4.357
 7300TIP3    H221858   2.991   2.397   4.359
 7301TIP3   OH221859   1.911   1.718   6.530
 7301TIP3    H121860   1.863   1.666   6.593
 7301TIP3    H221861   1.938   1.796   6.579
 7302TIP3   OH221862   7.008   7.291   1.849
 7302TIP3    H121863   6.917   7.271   1.871
 7302TIP3    H221864   7.010   7.387   1.840
 7303TIP3   OH221865   1.272   3.456   3.521
 7303TIP3    H121866   1.321   3.525   3.566
 7303TIP3    H221867   1.188   3.497   3.500
 7304TIP3   OH221868   6.636   2.929   2.855
 7304TIP3    H121869   6.729   2.948   2.850
 7304TIP3    H221870   6.624   2.890   2.942
 7305TIP3   OH221871   4.300   3.833   3.269
 7305TIP3    H121872   4.213   3.869   3.284
 7305TIP3    H221873   4.285   3.757   3.212
 7306TIP3   OH221874   6.902   5.731   4.929
 7306TIP3    H121875   6.833   5.670   4.904
 7306TIP3    H221876   6.870   5.770   5.011
 7307TIP3   OH221877   2.051   2.417   6.386
 7307TIP3    H121878   2.025   2.505   6.359
 7307TIP3    H221879   1.973   2.364   6.374
 7308TIP3   OH221880   3.247   4.551   2.637
 7308TIP3    H121881   3.236   4.548   2.542
 7308TIP3    H221882   3.182   4.489   2.670
 7309TIP3   OH221883   5.996   6.312   2.867
 7309TIP3    H121884   6.078   6.330   2.821
 7309TIP3    H221885   5.929   6.356   2.814
 7310TIP3   OH221886   2.788   7.500   0.937
 7310TIP3    H121887   2.816   7.592   0.936
 7310TIP3    H221888   2.707   7.500   0.986
 7311TIP3   OH221889   6.810   7.707   1.341
 7311TIP3    H121890   6.842   7.774   1.402
 7311TIP3    H221891   6.752   7.652   1.393
 7312TIP3   OH221892   7.594   0.674   6.224
 7312TIP3    H121893   7.575   0.581   6.238
 7312TIP3    H221894   7.684   0.685   6.255
 7313TIP3   OH221895   6.724   3.697   4.382
 7313TIP3    H121896   6.757   3.772   4.333
 7313TIP3    H221897   6.801   3.660   4.424
 7314TIP3   OH221898   1.498   3.195   2.777
 7314TIP3    H121899   1.501   3.118   2.720
 7314TIP3    H221900   1.473   3.160   2.862
 7315TIP3   OH221901   2.055   1.658   6.307
 7315TIP3    H121902   2.013   1.702   6.381
 7315TIP3    H221903   1.983   1.639   6.247
 7316TIP3   OH221904   7.042   6.573   4.117
 7316TIP3    H121905   7.021   6.528   4.199
 7316TIP3    H221906   7.035   6.666   4.139
 7317TIP3   OH221907   2.812   3.739   2.659
 7317TIP3    H121908   2.887   3.743   2.600
 7317TIP3    H221909   2.850   3.744   2.746
 7318TIP3   OH221910   5.193   6.363   2.610
 7318TIP3    H121911   5.141   6.348   2.531
 7318TIP3    H221912   5.190   6.458   2.623
 7319TIP3   OH221913   2.701   0.032   1.782
 7319TIP3    H121914   2.670   0.030   1.691
 7319TIP3    H221915   2.621   0.041   1.834
 7320TIP3   OH221916   5.630   4.984   1.788
 7320TIP3    H121917   5.700   4.973   1.852
 7320TIP3    H221918   5.571   5.048   1.827
 7321TIP3   OH221919   2.759   6.965   4.230
 7321TIP3    H121920   2.716   6.928   4.307
 7321TIP3    H221921   2.698   7.029   4.196
 7322TIP3   OH221922   5.155   7.296   0.270
 7322TIP3    H121923   5.103   7.316   0.192
 7322TIP3    H221924   5.231   7.354   0.263
 7323TIP3   OH221925   4.847   6.919   2.233
 7323TIP3    H121926   4.820   6.983   2.300
 7323TIP3    H221927   4.896   6.853   2.281
 7324TIP3   OH221928   3.353   7.568   1.905
 7324TIP3    H121929   3.317   7.627   1.839
 7324TIP3    H221930   3.375   7.488   1.858
 7325TIP3   OH221931   8.107   3.576   0.795
 7325TIP3    H121932   8.074   3.631   0.865
 7325TIP3    H221933   8.069   3.613   0.715
 7326TIP3   OH221934   1.515   6.356   6.574
 7326TIP3    H121935   1.583   6.421   6.590
 7326TIP3    H221936   1.460   6.360   6.652
 7327TIP3   OH221937   7.412   3.284   5.182
 7327TIP3    H121938   7.340   3.317   5.235
 7327TIP3    H221939   7.370   3.244   5.106
 7328TIP3   OH221940   1.451   2.185   5.468
 7328TIP3    H121941   1.531   2.221   5.507
 7328TIP3    H221942   1.458   2.207   5.375
 7329TIP3   OH221943   7.620   2.240   2.265
 7329TIP3    H121944   7.591   2.199   2.347
 7329TIP3    H221945   7.551   2.218   2.202
 7330TIP3   OH221946   1.594   3.489   6.041
 7330TIP3    H121947   1.637   3.574   6.038
 7330TIP3    H221948   1.580   3.471   6.134
 7331TIP3   OH221949   7.321   1.144   1.813
 7331TIP3    H121950   7.231   1.117   1.792
 7331TIP3    H221951   7.350   1.192   1.736
 7332TIP3   OH221952   4.801   0.289   2.828
 7332TIP3    H121953   4.788   0.297   2.733
 7332TIP3    H221954   4.876   0.346   2.846
 7333TIP3   OH221955   1.137   5.872   4.704
 7333TIP3    H121956   1.066   5.893   4.764
 7333TIP3    H221957   1.157   5.779   4.721
 7334TIP3   OH221958   2.014   2.371   4.444
 7334TIP3    H121959   2.013   2.374   4.540
 7334TIP3    H221960   2.048   2.457   4.418
 7335TIP3   OH221961   0.672   5.400   0.999
 7335TIP3    H121962   0.721   5.435   1.073
 7335TIP3    H221963   0.733   5.405   0.925
 7336TIP3   OH221964   7.905   7.189   2.219
 7336TIP3    H121965   7.909   7.269   2.272
 7336TIP3    H221966   7.985   7.142   2.241
 7337TIP3   OH221967   2.040   5.882   5.553
 7337TIP3    H121968   2.096   5.877   5.475
 7337TIP3    H221969   2.044   5.794   5.591
 7338TIP3   OH221970   6.731   1.533   6.007
 7338TIP3    H121971   6.814   1.581   6.005
 7338TIP3    H221972   6.684   1.569   6.082
 7339TIP3   OH221973   7.063   0.630   4.519
 7339TIP3    H121974   6.994   0.588   4.570
 7339TIP3    H221975   7.145   0.599   4.557
 7340TIP3   OH221976   0.656   4.711   4.918
 7340TIP3    H121977   0.750   4.697   4.929
 7340TIP3    H221978   0.633   4.660   4.841
 7341TIP3   OH221979   2.305   4.355   5.785
 7341TIP3    H121980   2.289   4.292   5.855
 7341TIP3    H221981   2.256   4.320   5.711
 7342TIP3   OH221982   6.949   6.530   2.564
 7342TIP3    H121983   7.025   6.558   2.513
 7342TIP3    H221984   6.984   6.465   2.625
 7343TIP3   OH221985   2.035   0.449   1.340
 7343TIP3    H121986   2.122   0.454   1.299
 7343TIP3    H221987   2.017   0.355   1.346
 7344TIP3   OH221988   6.661   2.676   6.646
 7344TIP3    H121989   6.696   2.763   6.625
 7344TIP3    H221990   6.671   2.669   6.741
 7345TIP3   OH221991   4.182   0.534   2.125
 7345TIP3    H121992   4.266   0.492   2.109
 7345TIP3    H221993   4.119   0.462   2.134
 7346TIP3   OH221994   4.716   7.226   4.351
 7346TIP3    H121995   4.635   7.275   4.333
 7346TIP3    H221996   4.687   7.151   4.403
 7347TIP3   OH221997   0.457   2.634   5.474
 7347TIP3    H121998   0.416   2.643   5.388
 7347TIP3    H221999   0.535   2.581   5.458
 7348TIP3   OH222000   2.708   3.430   5.421
 7348TIP3    H122001   2.756   3.351   5.397
 7348TIP3    H222002   2.716   3.488   5.346
 7349TIP3   OH222003   3.181   1.580   4.093
 7349TIP3    H122004   3.247   1.551   4.156
 7349TIP3    H222005   3.122   1.636   4.143
 7350TIP3   OH222006   2.112   3.063   5.433
 7350TIP3    H122007   2.179   3.013   5.480
 7350TIP3    H222008   2.162   3.117   5.372
 7351TIP3   OH222009   7.754   4.809   4.278
 7351TIP3    H122010   7.711   4.775   4.357
 7351TIP3    H222011   7.692   4.873   4.243
 7352TIP3   OH222012   7.957   6.299   3.059
 7352TIP3    H122013   7.921   6.255   3.136
 7352TIP3    H222014   7.967   6.391   3.086
 7353TIP3   OH222015   5.149   3.194   3.627
 7353TIP3    H122016   5.067   3.213   3.582
 7353TIP3    H222017   5.209   3.167   3.558
 7354TIP3   OH222018   5.348   6.568   6.460
 7354TIP3    H122019   5.341   6.642   6.520
 7354TIP3    H222020   5.270   6.575   6.404
 7355TIP3   OH222021   7.401   2.715   3.539
 7355TIP3    H122022   7.477   2.707   3.482
 7355TIP3    H222023   7.385   2.626   3.572
 7356TIP3   OH222024   5.970   1.847   5.758
 7356TIP3    H122025   5.925   1.763   5.755
 7356TIP3    H222026   5.928   1.900   5.690
 7357TIP3   OH222027   3.437   6.816   1.688
 7357TIP3    H122028   3.432   6.786   1.779
 7357TIP3    H222029   3.399   6.904   1.690
 7358TIP3   OH222030   7.744   7.171   2.993
 7358TIP3    H122031   7.816   7.134   2.942
 7358TIP3    H222032   7.665   7.135   2.954
 7359TIP3   OH222033   4.752   4.360   3.269
 7359TIP3    H122034   4.766   4.435   3.211
 7359TIP3    H222035   4.720   4.290   3.211
 7360TIP3   OH222036   4.158   5.024   5.807
 7360TIP3    H122037   4.143   5.069   5.890
 7360TIP3    H222038   4.240   5.061   5.774
 7361TIP3   OH222039   2.351   4.794   1.384
 7361TIP3    H122040   2.321   4.753   1.466
 7361TIP3    H222041   2.351   4.888   1.403
 7362TIP3   OH222042   1.815   0.735   2.209
 7362TIP3    H122043   1.888   0.673   2.208
 7362TIP3    H222044   1.798   0.751   2.302
 7363TIP3   OH222045   2.251   5.510   1.503
 7363TIP3    H122046   2.289   5.474   1.583
 7363TIP3    H222047   2.306   5.585   1.482
 7364TIP3   OH222048   3.189   5.279   0.563
 7364TIP3    H122049   3.230   5.364   0.577
 7364TIP3    H222050   3.246   5.217   0.609
 7365TIP3   OH222051   5.185   0.764   2.809
 7365TIP3    H122052   5.164   0.761   2.902
 7365TIP3    H222053   5.259   0.825   2.802
 7366TIP3   OH222054   2.931   3.270   5.402
 7366TIP3    H122055   2.970   3.190   5.367
 7366TIP3    H222056   2.906   3.247   5.492
 7367TIP3   OH222057   3.573   3.221   0.771
 7367TIP3    H122058   3.613   3.193   0.688
 7367TIP3    H222059   3.551   3.140   0.816
 7368TIP3   OH222060   3.520   7.374   3.769
 7368TIP3    H122061   3.564   7.370   3.684
 7368TIP3    H222062   3.427   7.376   3.748
 7369TIP3   OH222063   5.516   3.473   3.376
 7369TIP3    H122064   5.576   3.514   3.314
 7369TIP3    H222065   5.429   3.496   3.342
 7370TIP3   OH222066   7.916   2.541   3.327
 7370TIP3    H122067   8.000   2.575   3.360
 7370TIP3    H222068   7.899   2.594   3.249
 7371TIP3   OH222069   7.151   5.345   3.860
 7371TIP3    H122070   7.185   5.263   3.894
 7371TIP3    H222071   7.226   5.385   3.815
 7372TIP3   OH222072   4.095   2.736   6.652
 7372TIP3    H122073   4.097   2.676   6.577
 7372TIP3    H222074   4.076   2.680   6.727
 7373TIP3   OH222075   2.518   2.043   4.247
 7373TIP3    H122076   2.427   2.034   4.217
 7373TIP3    H222077   2.520   1.994   4.330
 7374TIP3   OH222078   5.393   0.616   2.091
 7374TIP3    H122079   5.433   0.546   2.039
 7374TIP3    H222080   5.465   0.678   2.106
 7375TIP3   OH222081   6.808   3.934   4.908
 7375TIP3    H122082   6.774   3.845   4.908
 7375TIP3    H222083   6.734   3.988   4.879
 7376TIP3   OH222084   0.638   0.576   3.771
 7376TIP3    H122085   0.702   0.594   3.702
 7376TIP3    H222086   0.623   0.482   3.767
 7377TIP3   OH222087   7.905   5.793   1.555
 7377TIP3    H122088   7.969   5.806   1.485
 7377TIP3    H222089   7.831   5.750   1.512
 7378TIP3   OH222090   0.791   6.441   5.940
 7378TIP3    H122091   0.824   6.394   5.863
 7378TIP3    H222092   0.867   6.450   5.996
 7379TIP3   OH222093   0.807   5.969   6.389
 7379TIP3    H122094   0.846   6.055   6.371
 7379TIP3    H222095   0.716   5.988   6.410
 7380TIP3   OH222096   7.554   5.857   5.757
 7380TIP3    H122097   7.568   5.944   5.793
 7380TIP3    H222098   7.463   5.858   5.727
 7381TIP3   OH222099   5.238   2.891   1.705
 7381TIP3    H122100   5.234   2.798   1.726
 7381TIP3    H222101   5.233   2.895   1.610
 7382TIP3   OH222102   5.187   7.665   0.764
 7382TIP3    H122103   5.136   7.656   0.845
 7382TIP3    H222104   5.207   7.574   0.739
 7383TIP3   OH222105   1.506   0.119   5.693
 7383TIP3    H122106   1.561   0.070   5.632
 7383TIP3    H222107   1.496   0.061   5.769
 7384TIP3   OH222108   0.761   4.142   5.222
 7384TIP3    H122109   0.801   4.163   5.138
 7384TIP3    H222110   0.790   4.053   5.241
 7385TIP3   OH222111   1.059   6.532   5.314
 7385TIP3    H122112   1.006   6.454   5.330
 7385TIP3    H222113   1.149   6.502   5.324
 7386TIP3   OH222114   0.544   6.841   0.789
 7386TIP3    H122115   0.612   6.897   0.827
 7386TIP3    H222116   0.466   6.896   0.786
 7387TIP3   OH222117   3.777   7.173   1.601
 7387TIP3    H122118   3.864   7.191   1.638
 7387TIP3    H222119   3.717   7.221   1.659
 7388TIP3   OH222120   3.315   2.964   1.810
 7388TIP3    H122121   3.234   2.915   1.823
 7388TIP3    H222122   3.370   2.940   1.884
 7389TIP3   OH222123   5.063   4.148   6.650
 7389TIP3    H122124   5.136   4.094   6.679
 7389TIP3    H222125   4.993   4.130   6.712
 7390TIP3   OH222126   4.607   6.655   6.423
 7390TIP3    H122127   4.652   6.620   6.500
 7390TIP3    H222128   4.526   6.604   6.418
 7391TIP3   OH222129   4.132   6.103   5.628
 7391TIP3    H122130   4.069   6.162   5.670
 7391TIP3    H222131   4.207   6.103   5.688
 7392TIP3   OH222132   3.371   7.751   6.413
 7392TIP3    H122133   3.300   7.803   6.375
 7392TIP3    H222134   3.440   7.816   6.430
 7393TIP3   OH222135   3.770   1.657   3.898
 7393TIP3    H122136   3.690   1.621   3.935
 7393TIP3    H222137   3.756   1.654   3.803
 7394TIP3   OH222138   6.324   3.244   0.131
 7394TIP3    H122139   6.322   3.216   0.039
 7394TIP3    H222140   6.411   3.219   0.161
 7395TIP3   OH222141   7.639   2.246   1.723
 7395TIP3    H122142   7.676   2.225   1.638
 7395TIP3    H222143   7.679   2.329   1.747
 7396TIP3   OH222144   1.437   0.598   1.157
 7396TIP3    H122145   1.462   0.673   1.211
 7396TIP3    H222146   1.342   0.598   1.158
 7397TIP3   OH222147   5.641   0.279   4.740
 7397TIP3    H122148   5.549   0.303   4.726
 7397TIP3    H222149   5.639   0.224   4.819
 7398TIP3   OH222150   0.755   6.726   2.908
 7398TIP3    H122151   0.849   6.710   2.909
 7398TIP3    H222152   0.746   6.819   2.931
 7399TIP3   OH222153   6.031   3.763   2.091
 7399TIP3    H122154   5.995   3.682   2.128
 7399TIP3    H222155   6.116   3.738   2.056
 7400TIP3   OH222156   6.019   7.518   6.732
 7400TIP3    H122157   5.939   7.465   6.730
 7400TIP3    H222158   6.033   7.536   6.825
 7401TIP3   OH222159   5.944   3.914   4.051
 7401TIP3    H122160   6.029   3.903   4.009
 7401TIP3    H222161   5.886   3.944   3.981
 7402TIP3   OH222162   6.858   0.385   5.436
 7402TIP3    H122163   6.867   0.480   5.446
 7402TIP3    H222164   6.782   0.374   5.379
 7403TIP3   OH222165   4.579   0.539   6.582
 7403TIP3    H122166   4.662   0.491   6.581
 7403TIP3    H222167   4.538   0.517   6.499
 7404TIP3   OH222168   3.830   3.071   1.609
 7404TIP3    H122169   3.819   2.995   1.552
 7404TIP3    H222170   3.745   3.083   1.650
 7405TIP3   OH222171   1.283   2.836   3.222
 7405TIP3    H122172   1.289   2.868   3.132
 7405TIP3    H222173   1.235   2.903   3.270
 7406TIP3   OH222174   6.941   1.554   1.250
 7406TIP3    H122175   6.894   1.629   1.214
 7406TIP3    H222176   6.984   1.514   1.175
 7407TIP3   OH222177   5.422   5.902   3.728
 7407TIP3    H122178   5.365   5.866   3.796
 7407TIP3    H222179   5.477   5.965   3.774
 7408TIP3   OH222180   8.183   7.666   2.630
 7408TIP3    H122181   8.119   7.693   2.697
 7408TIP3    H222182   8.142   7.691   2.547
 7409TIP3   OH222183   2.327   0.109   3.036
 7409TIP3    H122184   2.269   0.055   3.089
 7409TIP3    H222185   2.409   0.111   3.085
 7410TIP3   OH222186   1.257   7.708   0.939
 7410TIP3    H122187   1.249   7.746   0.851
 7410TIP3    H222188   1.216   7.773   0.996
 7411TIP3   OH222189   0.073   6.740   6.717
 7411TIP3    H122190   0.084   6.649   6.745
 7411TIP3    H222191   0.009   6.776   6.779
 7412TIP3   OH222192   5.397   6.345   0.662
 7412TIP3    H122193   5.363   6.370   0.748
 7412TIP3    H222194   5.487   6.378   0.662
 7413TIP3   OH222195   2.101   4.892   1.365
 7413TIP3    H122196   2.192   4.863   1.361
 7413TIP3    H222197   2.100   4.975   1.317
 7414TIP3   OH222198   7.899   7.388   2.621
 7414TIP3    H122199   7.930   7.398   2.530
 7414TIP3    H222200   7.934   7.304   2.649
 7415TIP3   OH222201   3.373   5.934   4.170
 7415TIP3    H122202   3.381   6.021   4.208
 7415TIP3    H222203   3.351   5.877   4.245
 7416TIP3   OH222204   4.382   1.212   1.528
 7416TIP3    H122205   4.344   1.296   1.504
 7416TIP3    H222206   4.461   1.204   1.475
 7417TIP3   OH222207   6.892   1.733   0.555
 7417TIP3    H122208   6.834   1.758   0.628
 7417TIP3    H222209   6.949   1.666   0.593
 7418TIP3   OH222210   7.994   1.605   2.886
 7418TIP3    H122211   8.003   1.516   2.851
 7418TIP3    H222212   8.071   1.616   2.943
 7419TIP3   OH222213   4.028   6.786   5.705
 7419TIP3    H122214   3.958   6.737   5.662
 7419TIP3    H222215   4.031   6.870   5.659
 7420TIP3   OH222216   3.524   2.031   0.930
 7420TIP3    H122217   3.523   1.936   0.935
 7420TIP3    H222218   3.480   2.060   1.011
 7421TIP3   OH222219   7.265   7.699   3.785
 7421TIP3    H122220   7.183   7.731   3.823
 7421TIP3    H222221   7.327   7.770   3.796
 7422TIP3   OH222222   7.809   3.368   1.539
 7422TIP3    H122223   7.730   3.327   1.504
 7422TIP3    H222224   7.778   3.416   1.616
 7423TIP3   OH222225   3.433   0.139   4.430
 7423TIP3    H122226   3.401   0.188   4.354
 7423TIP3    H222227   3.421   0.199   4.504
 7424TIP3   OH222228   3.637   0.693   1.416
 7424TIP3    H122229   3.670   0.623   1.473
 7424TIP3    H222230   3.562   0.728   1.463
 7425TIP3   OH222231   0.096   0.239   1.830
 7425TIP3    H122232   0.147   0.179   1.885
 7425TIP3    H222233   0.151   0.255   1.754
 7426TIP3   OH222234   3.651   0.604   2.620
 7426TIP3    H122235   3.609   0.531   2.574
 7426TIP3    H222236   3.734   0.616   2.575
 7427TIP3   OH222237   6.955   1.415   3.457
 7427TIP3    H122238   6.930   1.338   3.406
 7427TIP3    H222239   6.952   1.386   3.548
 7428TIP3   OH222240   3.246   3.422   3.894
 7428TIP3    H122241   3.238   3.326   3.897
 7428TIP3    H222242   3.320   3.437   3.836
 7429TIP3   OH222243   4.883   3.460   1.096
 7429TIP3    H122244   4.850   3.381   1.140
 7429TIP3    H222245   4.850   3.532   1.150
 7430TIP3   OH222246   0.533   4.234   1.504
 7430TIP3    H122247   0.537   4.138   1.506
 7430TIP3    H222248   0.451   4.253   1.458
 7431TIP3   OH222249   6.336   5.033   0.630
 7431TIP3    H122250   6.342   5.007   0.722
 7431TIP3    H222251   6.326   5.128   0.632
 7432TIP3   OH222252   6.951   1.798   5.723
 7432TIP3    H122253   7.031   1.796   5.775
 7432TIP3    H222254   6.918   1.708   5.726
 7433TIP3   OH222255   6.617   7.532   2.496
 7433TIP3    H122256   6.550   7.546   2.563
 7433TIP3    H222257   6.698   7.517   2.546
 7434TIP3   OH222258   6.075   6.604   1.989
 7434TIP3    H122259   6.006   6.547   2.022
 7434TIP3    H222260   6.155   6.570   2.028
 7435TIP3   OH222261   6.398   3.312   1.477
 7435TIP3    H122262   6.453   3.237   1.455
 7435TIP3    H222263   6.457   3.388   1.472
 7436TIP3   OH222264   6.411   3.623   0.963
 7436TIP3    H122265   6.481   3.572   1.004
 7436TIP3    H222266   6.451   3.659   0.884
 7437TIP3   OH222267   3.966   1.776   5.382
 7437TIP3    H122268   4.023   1.847   5.353
 7437TIP3    H222269   4.018   1.697   5.371
 7438TIP3   OH222270   0.732   4.634   2.155
 7438TIP3    H122271   0.808   4.650   2.211
 7438TIP3    H222272   0.692   4.720   2.144
 7439TIP3   OH222273   4.136   6.014   6.316
 7439TIP3    H122274   4.231   6.006   6.306
 7439TIP3    H222275   4.126   6.066   6.397
 7440TIP3   OH222276   6.075   1.020   2.234
 7440TIP3    H122277   6.154   1.073   2.219
 7440TIP3    H222278   6.047   0.993   2.146
 7441TIP3   OH222279   1.378   7.072   2.044
 7441TIP3    H122280   1.314   7.034   2.105
 7441TIP3    H222281   1.384   7.008   1.973
 7442TIP3   OH222282   0.404   0.321   1.388
 7442TIP3    H122283   0.487   0.311   1.434
 7442TIP3    H222284   0.418   0.282   1.302
 7443TIP3   OH222285   0.548   3.340   6.039
 7443TIP3    H122286   0.641   3.355   6.025
 7443TIP3    H222287   0.511   3.339   5.950
 7444TIP3   OH222288   1.610   6.455   0.484
 7444TIP3    H122289   1.638   6.512   0.556
 7444TIP3    H222290   1.526   6.491   0.457
 7445TIP3   OH222291   0.196   5.700   1.582
 7445TIP3    H122292   0.279   5.654   1.567
 7445TIP3    H222293   0.210   5.787   1.545
 7446TIP3   OH222294   5.056   3.370   1.936
 7446TIP3    H122295   5.009   3.386   1.854
 7446TIP3    H222296   5.098   3.285   1.924
 7447TIP3   OH222297   6.881   1.352   6.589
 7447TIP3    H122298   6.972   1.331   6.572
 7447TIP3    H222299   6.848   1.386   6.506
 7448TIP3   OH222300   5.242   6.427   0.408
 7448TIP3    H122301   5.216   6.338   0.383
 7448TIP3    H222302   5.313   6.414   0.471
 7449TIP3   OH222303   2.128   4.253   4.252
 7449TIP3    H122304   2.152   4.186   4.317
 7449TIP3    H222305   2.068   4.208   4.193
 7450TIP3   OH222306   0.129   7.725   1.939
 7450TIP3    H122307   0.080   7.794   1.895
 7450TIP3    H222308   0.212   7.720   1.892
 7451TIP3   OH222309   5.660   7.439   1.157
 7451TIP3    H122310   5.574   7.433   1.199
 7451TIP3    H222311   5.706   7.505   1.208
 7452TIP3   OH222312   0.650   3.112   2.303
 7452TIP3    H122313   0.679   3.060   2.378
 7452TIP3    H222314   0.661   3.203   2.333
 7453TIP3   OH222315   4.137   7.117   1.243
 7453TIP3    H122316   4.168   7.181   1.307
 7453TIP3    H222317   4.210   7.055   1.233
 7454TIP3   OH222318   4.001   0.255   4.995
 7454TIP3    H122319   4.004   0.193   5.068
 7454TIP3    H222320   3.942   0.215   4.932
 7455TIP3   OH222321   0.944   6.170   0.521
 7455TIP3    H122322   0.878   6.191   0.455
 7455TIP3    H222323   0.937   6.240   0.585
 7456TIP3   OH222324   3.752   3.867   1.686
 7456TIP3    H122325   3.750   3.917   1.605
 7456TIP3    H222326   3.668   3.884   1.728
 7457TIP3   OH222327   1.976   3.645   1.618
 7457TIP3    H122328   1.982   3.738   1.599
 7457TIP3    H222329   2.054   3.606   1.578
 7458TIP3   OH222330   8.261   6.459   1.068
 7458TIP3    H122331   8.220   6.496   0.990
 7458TIP3    H222332   8.217   6.375   1.081
 7459TIP3   OH222333   3.283   7.751   4.806
 7459TIP3    H122334   3.305   7.717   4.892
 7459TIP3    H222335   3.191   7.778   4.814
 7460TIP3   OH222336   6.109   1.881   4.497
 7460TIP3    H122337   6.015   1.871   4.481
 7460TIP3    H222338   6.148   1.798   4.468
 7461TIP3   OH222339   1.738   7.142   3.656
 7461TIP3    H122340   1.809   7.188   3.702
 7461TIP3    H222341   1.763   7.146   3.564
 7462TIP3   OH222342   3.067   3.088   5.626
 7462TIP3    H122343   3.137   3.126   5.573
 7462TIP3    H222344   3.110   3.016   5.673
 7463TIP3   OH222345   7.641   0.387   2.155
 7463TIP3    H122346   7.708   0.435   2.106
 7463TIP3    H222347   7.558   0.413   2.114
 7464TIP3   OH222348   3.075   0.060   2.527
 7464TIP3    H122349   2.980   0.051   2.539
 7464TIP3    H222350   3.091   0.029   2.438
 7465TIP3   OH222351   7.508   4.330   2.437
 7465TIP3    H122352   7.414   4.345   2.429
 7465TIP3    H222353   7.515   4.249   2.489
 7466TIP3   OH222354   4.985   1.919   1.204
 7466TIP3    H122355   4.997   1.996   1.259
 7466TIP3    H222356   5.069   1.908   1.159
 7467TIP3   OH222357   0.042   6.923   1.351
 7467TIP3    H122358   0.104   6.995   1.359
 7467TIP3    H222359  -0.004   6.921   1.435
 7468TIP3   OH222360   1.597   3.576   4.743
 7468TIP3    H122361   1.548   3.532   4.673
 7468TIP3    H222362   1.687   3.545   4.733
 7469TIP3   OH222363   8.155   2.070   3.486
 7469TIP3    H122364   8.081   2.105   3.436
 7469TIP3    H222365   8.139   1.975   3.489
 7470TIP3   OH222366   7.465   0.884   3.772
 7470TIP3    H122367   7.508   0.908   3.855
 7470TIP3    H222368   7.534   0.842   3.721
 7471TIP3   OH222369   2.258   0.302   3.363
 7471TIP3    H122370   2.191   0.339   3.306
 7471TIP3    H222371   2.314   0.377   3.386
 7472TIP3   OH222372   7.423   1.170   1.538
 7472TIP3    H122373   7.335   1.173   1.501
 7472TIP3    H222374   7.465   1.097   1.493
 7473TIP3   OH222375   6.768   1.730   2.789
 7473TIP3    H122376   6.754   1.680   2.708
 7473TIP3    H222377   6.840   1.790   2.768
 7474TIP3   OH222378   0.032   5.909   1.824
 7474TIP3    H122379  -0.015   5.952   1.896
 7474TIP3    H222380   0.124   5.929   1.840
 7475TIP3   OH222381   7.909   2.008   1.410
 7475TIP3    H122382   7.863   2.026   1.328
 7475TIP3    H222383   7.850   2.041   1.478
 7476TIP3   OH222384   8.003   2.850   1.637
 7476TIP3    H122385   8.003   2.942   1.609
 7476TIP3    H222386   8.087   2.839   1.681
 7477TIP3   OH222387   7.212   0.479   5.693
 7477TIP3    H122388   7.119   0.456   5.693
 7477TIP3    H222389   7.257   0.395   5.702
 7478TIP3   OH222390   7.242   3.500   4.225
 7478TIP3    H122391   7.179   3.450   4.277
 7478TIP3    H222392   7.256   3.447   4.147
 7479TIP3   OH222393   3.503   0.146   5.715
 7479TIP3    H122394   3.421   0.115   5.675
 7479TIP3    H222395   3.533   0.216   5.657
 7480TIP3   OH222396   8.125   6.874   3.255
 7480TIP3    H122397   8.152   6.847   3.167
 7480TIP3    H222398   8.030   6.880   3.250
 7481TIP3   OH222399   4.034   6.701   2.725
 7481TIP3    H122400   4.016   6.734   2.813
 7481TIP3    H222401   4.096   6.629   2.738
 7482TIP3   OH222402   7.972   4.865   0.257
 7482TIP3    H122403   7.914   4.809   0.206
 7482TIP3    H222404   7.915   4.903   0.325
 7483TIP3   OH222405   2.906   4.701   4.671
 7483TIP3    H122406   2.866   4.615   4.688
 7483TIP3    H222407   2.955   4.689   4.590
 7484TIP3   OH222408   1.027   1.209   2.728
 7484TIP3    H122409   0.983   1.285   2.691
 7484TIP3    H222410   1.115   1.241   2.750
 7485TIP3   OH222411   0.239   0.163   4.130
 7485TIP3    H122412   0.236   0.170   4.226
 7485TIP3    H222413   0.171   0.222   4.100
 7486TIP3   OH222414   2.829   3.695   6.164
 7486TIP3    H122415   2.891   3.634   6.203
 7486TIP3    H222416   2.877   3.778   6.158
 7487TIP3   OH222417   3.683   2.898   3.567
 7487TIP3    H122418   3.711   2.872   3.655
 7487TIP3    H222419   3.658   2.990   3.576
 7488TIP3   OH222420   0.792   3.177   4.326
 7488TIP3    H122421   0.773   3.087   4.302
 7488TIP3    H222422   0.884   3.176   4.355
 7489TIP3   OH222423   3.666   0.188   1.145
 7489TIP3    H122424   3.640   0.192   1.053
 7489TIP3    H222425   3.671   0.095   1.165
 7490TIP3   OH222426   5.204   4.705   5.883
 7490TIP3    H122427   5.274   4.746   5.934
 7490TIP3    H222428   5.242   4.624   5.851
 7491TIP3   OH222429   7.972   5.076   3.772
 7491TIP3    H122430   7.992   5.121   3.854
 7491TIP3    H222431   8.040   5.009   3.765
 7492TIP3   OH222432   3.909   1.432   1.353
 7492TIP3    H122433   3.961   1.510   1.374
 7492TIP3    H222434   3.965   1.359   1.377
 7493TIP3   OH222435   8.020   7.690   3.530
 7493TIP3    H122436   8.058   7.642   3.604
 7493TIP3    H222437   7.944   7.638   3.504
 7494TIP3   OH222438   1.664   0.938   6.174
 7494TIP3    H122439   1.591   0.892   6.132
 7494TIP3    H222440   1.725   0.868   6.198
 7495TIP3   OH222441   2.186   5.780   5.339
 7495TIP3    H122442   2.280   5.767   5.344
 7495TIP3    H222443   2.173   5.829   5.258
 7496TIP3   OH222444   4.298   0.250   1.102
 7496TIP3    H122445   4.243   0.175   1.125
 7496TIP3    H222446   4.275   0.317   1.167
 7497TIP3   OH222447   2.114   0.190   5.694
 7497TIP3    H122448   2.088   0.116   5.639
 7497TIP3    H222449   2.100   0.160   5.784
 7498TIP3   OH222450   1.538   6.470   2.903
 7498TIP3    H122451   1.499   6.477   2.990
 7498TIP3    H222452   1.539   6.375   2.886
 7499TIP3   OH222453   3.590   4.290   6.253
 7499TIP3    H122454   3.599   4.366   6.195
 7499TIP3    H222455   3.671   4.289   6.303
 7500TIP3   OH222456   7.269   7.313   5.234
 7500TIP3    H122457   7.287   7.241   5.173
 7500TIP3    H222458   7.340   7.307   5.298
 7501TIP3   OH222459   3.481   6.309   6.358
 7501TIP3    H122460   3.396   6.327   6.399
 7501TIP3    H222461   3.486   6.371   6.285
 7502TIP3   OH222462   1.920   3.379   0.998
 7502TIP3    H122463   1.910   3.381   0.903
 7502TIP3    H222464   2.014   3.389   1.013
 7503TIP3   OH222465   7.608   7.059   4.329
 7503TIP3    H122466   7.626   7.047   4.235
 7503TIP3    H222467   7.685   7.023   4.373
 7504TIP3   OH222468   1.250   6.016   3.218
 7504TIP3    H122469   1.274   5.991   3.308
 7504TIP3    H222470   1.300   5.956   3.162
 7505TIP3   OH222471   2.421   1.612   1.346
 7505TIP3    H122472   2.416   1.659   1.263
 7505TIP3    H222473   2.357   1.656   1.403
 7506TIP3   OH222474   1.609   4.804   1.348
 7506TIP3    H122475   1.534   4.764   1.394
 7506TIP3    H222476   1.572   4.880   1.304
 7507TIP3   OH222477   7.140   4.689   4.474
 7507TIP3    H122478   7.167   4.712   4.563
 7507TIP3    H222479   7.122   4.773   4.432
 7508TIP3   OH222480   6.714   4.210   4.103
 7508TIP3    H122481   6.780   4.188   4.169
 7508TIP3    H222482   6.676   4.125   4.078
 7509TIP3   OH222483   1.397   0.267   1.067
 7509TIP3    H122484   1.468   0.234   1.012
 7509TIP3    H222485   1.431   0.263   1.156
 7510TIP3   OH222486   1.134   5.581   5.701
 7510TIP3    H122487   1.102   5.573   5.611
 7510TIP3    H222488   1.055   5.577   5.755
 7511TIP3   OH222489   4.849   0.502   6.075
 7511TIP3    H122490   4.779   0.521   6.137
 7511TIP3    H222491   4.812   0.522   5.989
 7512TIP3   OH222492   8.013   6.089   0.064
 7512TIP3    H122493   7.935   6.047   0.102
 7512TIP3    H222494   8.057   6.018   0.017
 7513TIP3   OH222495   2.236   0.883   5.190
 7513TIP3    H122496   2.227   0.901   5.284
 7513TIP3    H222497   2.299   0.811   5.185
 7514TIP3   OH222498   0.706   5.711   0.871
 7514TIP3    H122499   0.615   5.695   0.848
 7514TIP3    H222500   0.704   5.732   0.964
 7515TIP3   OH222501   3.343   5.719   5.759
 7515TIP3    H122502   3.349   5.625   5.779
 7515TIP3    H222503   3.368   5.725   5.667
 7516TIP3   OH222504   2.476   5.170   2.440
 7516TIP3    H122505   2.413   5.144   2.507
 7516TIP3    H222506   2.525   5.089   2.420
 7517TIP3   OH222507   5.068   0.409   2.060
 7517TIP3    H122508   5.047   0.422   2.153
 7517TIP3    H222509   5.099   0.495   2.031
 7518TIP3   OH222510   3.428   4.907   4.707
 7518TIP3    H122511   3.360   4.964   4.742
 7518TIP3    H222512   3.419   4.914   4.612
 7519TIP3   OH222513   3.030   1.482   6.242
 7519TIP3    H122514   3.065   1.460   6.329
 7519TIP3    H222515   2.981   1.563   6.256
 7520TIP3   OH222516   4.859   3.629   2.184
 7520TIP3    H122517   4.796   3.678   2.131
 7520TIP3    H222518   4.940   3.680   2.180
 7521TIP3   OH222519   1.516   3.833   4.549
 7521TIP3    H122520   1.573   3.894   4.595
 7521TIP3    H222521   1.516   3.754   4.604
 7522TIP3   OH222522   6.234   3.667   1.618
 7522TIP3    H122523   6.204   3.745   1.664
 7522TIP3    H222524   6.294   3.625   1.679
 7523TIP3   OH222525   6.306   3.739   1.961
 7523TIP3    H122526   6.380   3.757   2.018
 7523TIP3    H222527   6.335   3.665   1.906
 7524TIP3   OH222528   0.905   3.853   4.660
 7524TIP3    H122529   0.982   3.816   4.617
 7524TIP3    H222530   0.920   3.838   4.754
 7525TIP3   OH222531   6.260   0.985   4.358
 7525TIP3    H122532   6.336   0.951   4.406
 7525TIP3    H222533   6.198   1.010   4.426
 7526TIP3   OH222534   7.125   7.319   4.861
 7526TIP3    H122535   7.112   7.225   4.873
 7526TIP3    H222536   7.077   7.359   4.933
 7527TIP3   OH222537   3.843   3.858   3.056
 7527TIP3    H122538   3.748   3.863   3.049
 7527TIP3    H222539   3.875   3.932   3.005
 7528TIP3   OH222540   5.360   2.894   6.109
 7528TIP3    H122541   5.415   2.962   6.071
 7528TIP3    H222542   5.296   2.874   6.040
 7529TIP3   OH222543   1.145   4.477   4.736
 7529TIP3    H122544   1.211   4.459   4.669
 7529TIP3    H222545   1.120   4.390   4.768
 7530TIP3   OH222546   3.340   1.982   3.030
 7530TIP3    H122547   3.318   2.055   3.088
 7530TIP3    H222548   3.357   2.023   2.945
 7531TIP3   OH222549   0.149   6.883   4.731
 7531TIP3    H122550   0.185   6.944   4.666
 7531TIP3    H222551   0.171   6.796   4.697
 7532TIP3   OH222552   3.367   2.986   2.636
 7532TIP3    H122553   3.342   3.039   2.561
 7532TIP3    H222554   3.461   3.000   2.646
 7533TIP3   OH222555   0.810   3.391   6.494
 7533TIP3    H122556   0.771   3.346   6.419
 7533TIP3    H222557   0.840   3.322   6.551
 7534TIP3   OH222558   0.404   1.712   1.548
 7534TIP3    H122559   0.446   1.769   1.483
 7534TIP3    H222560   0.310   1.731   1.538
 7535TIP3   OH222561   4.585   2.377   2.830
 7535TIP3    H122562   4.542   2.313   2.773
 7535TIP3    H222563   4.558   2.462   2.796
 7536TIP3   OH222564   3.547   0.334   5.512
 7536TIP3    H122565   3.604   0.410   5.521
 7536TIP3    H222566   3.497   0.350   5.432
 7537TIP3   OH222567   0.835   4.313   6.620
 7537TIP3    H122568   0.872   4.295   6.534
 7537TIP3    H222569   0.740   4.313   6.606
 7538TIP3   OH222570   4.553   3.833   3.147
 7538TIP3    H122571   4.469   3.790   3.166
 7538TIP3    H222572   4.529   3.921   3.116
 7539TIP3   OH222573   0.179   5.695   3.723
 7539TIP3    H122574   0.214   5.718   3.809
 7539TIP3    H222575   0.193   5.774   3.670
 7540TIP3   OH222576   0.731   7.356   3.915
 7540TIP3    H122577   0.707   7.266   3.933
 7540TIP3    H222578   0.686   7.377   3.833
 7541TIP3   OH222579   2.282   6.862   4.980
 7541TIP3    H122580   2.338   6.801   4.931
 7541TIP3    H222581   2.202   6.814   4.998
 7542TIP3   OH222582   1.926   6.156   2.960
 7542TIP3    H122583   1.931   6.239   3.006
 7542TIP3    H222584   2.012   6.145   2.920
 7543TIP3   OH222585   4.952   4.549   2.768
 7543TIP3    H122586   4.969   4.457   2.746
 7543TIP3    H222587   5.036   4.592   2.757
 7544TIP3   OH222588   5.127   3.931   2.912
 7544TIP3    H122589   5.132   4.015   2.958
 7544TIP3    H222590   5.089   3.952   2.826
 7545TIP3   OH222591   0.838   4.266   1.403
 7545TIP3    H122592   0.926   4.304   1.399
 7545TIP3    H222593   0.792   4.318   1.469
 7546TIP3   OH222594   7.134   4.331   3.625
 7546TIP3    H122595   7.190   4.297   3.695
 7546TIP3    H222596   7.158   4.423   3.617
 7547TIP3   OH222597   6.939   1.570   3.778
 7547TIP3    H122598   6.927   1.476   3.768
 7547TIP3    H222599   6.951   1.582   3.873
 7548TIP3   OH222600   4.221   6.381   1.572
 7548TIP3    H122601   4.224   6.285   1.577
 7548TIP3    H222602   4.298   6.410   1.622
 7549TIP3   OH222603   0.162   3.781   4.084
 7549TIP3    H122604   0.104   3.856   4.096
 7549TIP3    H222605   0.129   3.715   4.146
 7550TIP3   OH222606   2.860   1.696   6.314
 7550TIP3    H122607   2.838   1.721   6.224
 7550TIP3    H222608   2.875   1.779   6.359
 7551TIP3   OH222609   5.630   4.736   3.171
 7551TIP3    H122610   5.639   4.642   3.156
 7551TIP3    H222611   5.610   4.744   3.264
 7552TIP3   OH222612   3.816   7.259   2.454
 7552TIP3    H122613   3.870   7.198   2.504
 7552TIP3    H222614   3.801   7.215   2.370
 7553TIP3   OH222615   0.412   6.512   5.688
 7553TIP3    H122616   0.368   6.596   5.672
 7553TIP3    H222617   0.488   6.535   5.742
 7554TIP3   OH222618   1.890   0.707   5.569
 7554TIP3    H122619   1.825   0.721   5.499
 7554TIP3    H222620   1.972   0.741   5.532
 7555TIP3   OH222621   6.841   7.321   0.158
 7555TIP3    H122622   6.882   7.395   0.203
 7555TIP3    H222623   6.901   7.247   0.174
 7556TIP3   OH222624   5.819   4.386   3.901
 7556TIP3    H122625   5.805   4.481   3.892
 7556TIP3    H222626   5.867   4.377   3.984
 7557TIP3   OH222627   2.535   4.619   1.952
 7557TIP3    H122628   2.528   4.620   2.047
 7557TIP3    H222629   2.487   4.541   1.925
 7558TIP3   OH222630   5.511   1.726   5.689
 7558TIP3    H122631   5.463   1.695   5.766
 7558TIP3    H222632   5.594   1.679   5.691
 7559TIP3   OH222633   7.545   3.519   4.071
 7559TIP3    H122634   7.505   3.439   4.038
 7559TIP3    H222635   7.634   3.494   4.093
 7560TIP3   OH222636   2.719   2.919   3.746
 7560TIP3    H122637   2.674   3.004   3.752
 7560TIP3    H222638   2.650   2.854   3.757
 7561TIP3   OH222639   7.269   3.961   4.796
 7561TIP3    H122640   7.273   4.037   4.854
 7561TIP3    H222641   7.222   3.894   4.847
 7562TIP3   OH222642   0.014   5.569   3.420
 7562TIP3    H122643  -0.041   5.496   3.392
 7562TIP3    H222644   0.096   5.528   3.447
 7563TIP3   OH222645   4.841   4.413   2.271
 7563TIP3    H122646   4.812   4.447   2.356
 7563TIP3    H222647   4.820   4.484   2.210
 7564TIP3   OH222648   7.500   1.607   0.383
 7564TIP3    H122649   7.463   1.531   0.428
 7564TIP3    H222650   7.433   1.631   0.318
 7565TIP3   OH222651   5.882   7.691   4.915
 7565TIP3    H122652   5.862   7.784   4.925
 7565TIP3    H222653   5.970   7.681   4.951
 7566TIP3   OH222654   7.745   1.127   6.224
 7566TIP3    H122655   7.664   1.137   6.174
 7566TIP3    H222656   7.795   1.061   6.176
 7567TIP3   OH222657   3.301   4.562   5.175
 7567TIP3    H122658   3.370   4.509   5.215
 7567TIP3    H222659   3.285   4.632   5.238
 7568TIP3   OH222660   0.588   4.586   4.384
 7568TIP3    H122661   0.666   4.530   4.391
 7568TIP3    H222662   0.600   4.634   4.303
 7569TIP3   OH222663   1.969   0.040   3.776
 7569TIP3    H122664   2.026  -0.037   3.786
 7569TIP3    H222665   2.025   0.107   3.738
 7570TIP3   OH222666   4.857   2.227   5.377
 7570TIP3    H122667   4.763   2.228   5.395
 7570TIP3    H222668   4.873   2.311   5.335
 7571TIP3   OH222669   2.515   1.476   6.655
 7571TIP3    H122670   2.591   1.419   6.667
 7571TIP3    H222671   2.538   1.532   6.580
 7572TIP3   OH222672   0.025   4.825   4.130
 7572TIP3    H122673  -0.036   4.890   4.163
 7572TIP3    H222674   0.107   4.873   4.118
 7573TIP3   OH222675   5.638   6.633   2.126
 7573TIP3    H122676   5.667   6.693   2.057
 7573TIP3    H222677   5.709   6.636   2.191
 7574TIP3   OH222678   0.395   4.530   0.998
 7574TIP3    H122679   0.422   4.591   1.066
 7574TIP3    H222680   0.302   4.547   0.985
 7575TIP3   OH222681   7.009   1.624   6.057
 7575TIP3    H122682   7.061   1.701   6.036
 7575TIP3    H222683   6.999   1.577   5.974
 7576TIP3   OH222684   1.178   4.980   3.332
 7576TIP3    H122685   1.108   5.038   3.362
 7576TIP3    H222686   1.173   4.983   3.237
 7577TIP3   OH222687   0.803   0.566   4.987
 7577TIP3    H122688   0.844   0.628   5.046
 7577TIP3    H222689   0.824   0.597   4.899
 7578TIP3   OH222690   3.062   4.697   2.232
 7578TIP3    H122691   3.068   4.778   2.283
 7578TIP3    H222692   2.994   4.715   2.167
 7579TIP3   OH222693   7.666   0.588   4.865
 7579TIP3    H122694   7.696   0.665   4.817
 7579TIP3    H222695   7.745   0.554   4.907
 7580TIP3   OH222696   7.158   6.772   5.053
 7580TIP3    H122697   7.238   6.819   5.077
 7580TIP3    H222698   7.087   6.825   5.088
 7581TIP3   OH222699   6.086   4.060   3.365
 7581TIP3    H122700   6.082   3.964   3.359
 7581TIP3    H222701   6.172   4.078   3.404
 7582TIP3   OH222702   6.390   4.838   2.150
 7582TIP3    H122703   6.356   4.751   2.173
 7582TIP3    H222704   6.445   4.822   2.073
 7583TIP3   OH222705   2.630   3.977   1.022
 7583TIP3    H122706   2.664   4.041   0.959
 7583TIP3    H222707   2.701   3.914   1.033
 7584TIP3   OH222708   2.451   1.724   3.430
 7584TIP3    H122709   2.509   1.706   3.504
 7584TIP3    H222710   2.436   1.819   3.435
 7585TIP3   OH222711   4.798   5.166   1.030
 7585TIP3    H122712   4.827   5.149   0.940
 7585TIP3    H222713   4.874   5.145   1.084
 7586TIP3   OH222714   3.831   6.210   3.121
 7586TIP3    H122715   3.847   6.185   3.031
 7586TIP3    H222716   3.811   6.304   3.117
 7587TIP3   OH222717   2.237   7.354   5.095
 7587TIP3    H122718   2.148   7.327   5.071
 7587TIP3    H222719   2.270   7.399   5.018
 7588TIP3   OH222720   5.785   0.503   4.755
 7588TIP3    H122721   5.719   0.434   4.753
 7588TIP3    H222722   5.735   0.584   4.764
 7589TIP3   OH222723   5.651   5.781   0.212
 7589TIP3    H122724   5.656   5.695   0.254
 7589TIP3    H222725   5.693   5.841   0.274
 7590TIP3   OH222726   7.751   2.077   4.556
 7590TIP3    H122727   7.714   2.141   4.617
 7590TIP3    H222728   7.675   2.046   4.505
 7591TIP3   OH222729   6.625   4.597   2.497
 7591TIP3    H122730   6.582   4.683   2.506
 7591TIP3    H222731   6.553   4.534   2.504
 7592TIP3   OH222732   8.037   5.117   6.593
 7592TIP3    H122733   8.047   5.023   6.605
 7592TIP3    H222734   8.078   5.156   6.671
 7593TIP3   OH222735   3.884   1.117   0.349
 7593TIP3    H122736   3.916   1.049   0.408
 7593TIP3    H222737   3.952   1.125   0.282
 7594TIP3   OH222738   0.304   6.586   5.301
 7594TIP3    H122739   0.335   6.511   5.352
 7594TIP3    H222740   0.215   6.600   5.331
 7595TIP3   OH222741   1.232   7.643   3.374
 7595TIP3    H122742   1.186   7.580   3.430
 7595TIP3    H222743   1.173   7.719   3.371
 7596TIP3   OH222744   4.165   1.440   2.031
 7596TIP3    H122745   4.202   1.520   1.993
 7596TIP3    H222746   4.070   1.453   2.029
 7597TIP3   OH222747   2.254   2.121   0.156
 7597TIP3    H122748   2.309   2.144   0.081
 7597TIP3    H222749   2.238   2.204   0.201
 7598TIP3   OH222750   6.049   5.506   6.196
 7598TIP3    H122751   6.120   5.534   6.138
 7598TIP3    H222752   5.976   5.487   6.138
 7599TIP3   OH222753   0.805   4.529   2.981
 7599TIP3    H122754   0.834   4.618   3.001
 7599TIP3    H222755   0.710   4.531   2.992
 7600TIP3   OH222756   7.259   3.951   3.977
 7600TIP3    H122757   7.175   3.911   3.955
 7600TIP3    H222758   7.303   3.885   4.032
 7601TIP3   OH222759   7.438   1.493   2.813
 7601TIP3    H122760   7.529   1.521   2.819
 7601TIP3    H222761   7.409   1.481   2.904
 7602TIP3   OH222762   5.546   5.842   5.623
 7602TIP3    H122763   5.608   5.910   5.649
 7602TIP3    H222764   5.465   5.866   5.667
 7603TIP3   OH222765   0.518   1.032   4.012
 7603TIP3    H122766   0.606   1.053   3.982
 7603TIP3    H222767   0.520   1.050   4.106
 7604TIP3   OH222768   5.202   7.171   5.184
 7604TIP3    H122769   5.133   7.164   5.119
 7604TIP3    H222770   5.278   7.202   5.134
 7605TIP3   OH222771   2.201   2.822   4.786
 7605TIP3    H122772   2.223   2.754   4.723
 7605TIP3    H222773   2.124   2.866   4.748
 7606TIP3   OH222774   2.249   6.553   1.193
 7606TIP3    H122775   2.187   6.561   1.266
 7606TIP3    H222776   2.335   6.550   1.234
 7607TIP3   OH222777   3.259   3.364   6.653
 7607TIP3    H122778   3.347   3.365   6.691
 7607TIP3    H222779   3.240   3.271   6.641
 7608TIP3   OH222780   7.797   3.248   2.400
 7608TIP3    H122781   7.784   3.321   2.340
 7608TIP3    H222782   7.709   3.217   2.419
 7609TIP3   OH222783   6.931   4.795   2.171
 7609TIP3    H122784   6.942   4.708   2.131
 7609TIP3    H222785   6.942   4.779   2.265
 7610TIP3   OH222786   1.091   5.404   3.267
 7610TIP3    H122787   1.140   5.391   3.186
 7610TIP3    H222788   1.103   5.497   3.288
 7611TIP3   OH222789   7.196   4.410   2.928
 7611TIP3    H122790   7.191   4.372   3.016
 7611TIP3    H222791   7.221   4.336   2.872
 7612TIP3   OH222792   7.811   2.407   2.020
 7612TIP3    H122793   7.850   2.331   1.977
 7612TIP3    H222794   7.798   2.379   2.111
 7613TIP3   OH222795   4.838   0.985   5.648
 7613TIP3    H122796   4.880   0.993   5.734
 7613TIP3    H222797   4.776   1.058   5.644
 7614TIP3   OH222798   1.303   0.258   5.928
 7614TIP3    H122799   1.251   0.305   5.993
 7614TIP3    H222800   1.240   0.204   5.880
 7615TIP3   OH222801   2.354   5.806   0.333
 7615TIP3    H122802   2.271   5.845   0.309
 7615TIP3    H222803   2.367   5.735   0.270
 7616TIP3   OH222804   6.048   0.441   6.682
 7616TIP3    H122805   6.022   0.404   6.598
 7616TIP3    H222806   6.144   0.440   6.680
 7617TIP3   OH222807   4.125   2.576   0.538
 7617TIP3    H122808   4.184   2.509   0.504
 7617TIP3    H222809   4.171   2.659   0.522
 7618TIP3   OH222810   2.144   3.325   4.634
 7618TIP3    H122811   2.049   3.330   4.639
 7618TIP3    H222812   2.161   3.260   4.565
 7619TIP3   OH222813   7.020   6.040   5.221
 7619TIP3    H122814   7.019   5.958   5.171
 7619TIP3    H222815   6.927   6.061   5.234
 7620TIP3   OH222816   6.880   6.989   0.493
 7620TIP3    H122817   6.790   7.019   0.504
 7620TIP3    H222818   6.912   6.975   0.582
 7621TIP3   OH222819   0.149   4.567   5.627
 7621TIP3    H122820   0.145   4.502   5.557
 7621TIP3    H222821   0.209   4.634   5.593
 7622TIP3   OH222822   7.149   1.878   6.212
 7622TIP3    H122823   7.162   1.855   6.304
 7622TIP3    H222824   7.234   1.863   6.171
 7623TIP3   OH222825   4.950   7.656   4.272
 7623TIP3    H122826   4.863   7.660   4.312
 7623TIP3    H222827   4.994   7.736   4.302
 7624TIP3   OH222828   6.180   3.988   2.776
 7624TIP3    H122829   6.130   3.981   2.857
 7624TIP3    H222830   6.208   4.080   2.773
 7625TIP3   OH222831   6.532   6.037   3.108
 7625TIP3    H122832   6.490   6.047   3.022
 7625TIP3    H222833   6.483   6.096   3.165
 7626TIP3   OH222834   3.414   6.808   3.145
 7626TIP3    H122835   3.427   6.889   3.194
 7626TIP3    H222836   3.439   6.738   3.206
 7627TIP3   OH222837   6.505   6.970   1.563
 7627TIP3    H122838   6.450   7.044   1.536
 7627TIP3    H222839   6.460   6.893   1.527
 7628TIP3   OH222840   4.995   0.075   5.346
 7628TIP3    H122841   4.904   0.100   5.335
 7628TIP3    H222842   5.006  -0.001   5.289
 7629TIP3   OH222843   8.268   7.789   6.214
 7629TIP3    H122844   8.296   7.710   6.167
 7629TIP3    H222845   8.277   7.859   6.149
 7630TIP3   OH222846   7.872   4.819   2.801
 7630TIP3    H122847   7.815   4.873   2.746
 7630TIP3    H222848   7.815   4.790   2.872
 7631TIP3   OH222849   6.635   7.546   0.001
 7631TIP3    H122850   6.701   7.477   0.014
 7631TIP3    H222851   6.682   7.628   0.018
 7632TIP3   OH222852   2.836   1.542   3.082
 7632TIP3    H122853   2.849   1.504   2.995
 7632TIP3    H222854   2.754   1.592   3.073
 7633TIP3   OH222855   6.459   0.839   4.518
 7633TIP3    H122856   6.536   0.793   4.550
 7633TIP3    H222857   6.444   0.802   4.431
 7634TIP3   OH222858   4.444   5.273   1.467
 7634TIP3    H122859   4.524   5.260   1.415
 7634TIP3    H222860   4.385   5.320   1.408
 7635TIP3   OH222861   3.040   6.944   0.216
 7635TIP3    H122862   3.135   6.934   0.210
 7635TIP3    H222863   3.028   7.032   0.252
 7636TIP3   OH222864   1.145   1.337   2.441
 7636TIP3    H122865   1.230   1.293   2.442
 7636TIP3    H222866   1.083   1.268   2.418
 7637TIP3   OH222867   5.798   6.161   1.185
 7637TIP3    H122868   5.820   6.082   1.137
 7637TIP3    H222869   5.742   6.131   1.256
 7638TIP3   OH222870   6.504   4.577   1.208
 7638TIP3    H122871   6.492   4.521   1.132
 7638TIP3    H222872   6.431   4.556   1.265
 7639TIP3   OH222873   5.794   5.545   0.314
 7639TIP3    H122874   5.745   5.480   0.366
 7639TIP3    H222875   5.878   5.553   0.360
 7640TIP3   OH222876   6.589   3.516   1.495
 7640TIP3    H122877   6.598   3.586   1.430
 7640TIP3    H222878   6.669   3.465   1.487
 7641TIP3   OH222879   1.634   4.044   3.710
 7641TIP3    H122880   1.611   4.101   3.784
 7641TIP3    H222881   1.678   3.970   3.751
 7642TIP3   OH222882   1.015   3.257   5.625
 7642TIP3    H122883   0.960   3.192   5.580
 7642TIP3    H222884   0.977   3.341   5.600
 7643TIP3   OH222885   7.776   3.866   0.300
 7643TIP3    H122886   7.847   3.833   0.245
 7643TIP3    H222887   7.709   3.897   0.238
 7644TIP3   OH222888   3.738   1.445   1.095
 7644TIP3    H122889   3.831   1.465   1.097
 7644TIP3    H222890   3.710   1.447   1.186
 7645TIP3   OH222891   5.091   3.833   0.941
 7645TIP3    H122892   5.175   3.834   0.987
 7645TIP3    H222893   5.063   3.742   0.944
 7646TIP3   OH222894   0.264   0.921   6.444
 7646TIP3    H122895   0.211   0.886   6.515
 7646TIP3    H222896   0.349   0.877   6.454
 7647TIP3   OH222897   3.487   3.220   6.733
 7647TIP3    H122898   3.469   3.183   6.820
 7647TIP3    H222899   3.562   3.278   6.747
 7648TIP3   OH222900   0.888   0.257   5.744
 7648TIP3    H122901   0.846   0.171   5.747
 7648TIP3    H222902   0.977   0.240   5.713
 7649TIP3   OH222903   6.751   7.157   4.869
 7649TIP3    H122904   6.796   7.080   4.904
 7649TIP3    H222905   6.704   7.194   4.944
 7650TIP3   OH222906   4.581   3.962   6.022
 7650TIP3    H122907   4.522   3.949   6.096
 7650TIP3    H222908   4.660   3.913   6.046
 7651TIP3   OH222909   2.167   6.084   0.408
 7651TIP3    H122910   2.190   6.072   0.316
 7651TIP3    H222911   2.100   6.152   0.407
 7652TIP3   OH222912   2.721   4.233   1.354
 7652TIP3    H122913   2.725   4.138   1.367
 7652TIP3    H222914   2.764   4.248   1.270
 7653TIP3   OH222915   1.292   1.069   4.706
 7653TIP3    H122916   1.220   1.094   4.648
 7653TIP3    H222917   1.249   1.031   4.783
 7654TIP3   OH222918   4.557   5.884   4.901
 7654TIP3    H122919   4.517   5.798   4.893
 7654TIP3    H222920   4.529   5.931   4.822
 7655TIP3   OH222921   4.489   7.012   2.056
 7655TIP3    H122922   4.466   7.088   2.108
 7655TIP3    H222923   4.412   6.955   2.061
 7656TIP3   OH222924   1.175   1.821   3.549
 7656TIP3    H122925   1.236   1.762   3.505
 7656TIP3    H222926   1.204   1.908   3.524
 7657TIP3   OH222927   1.072   4.066   0.032
 7657TIP3    H122928   1.163   4.063   0.061
 7657TIP3    H222929   1.031   3.989   0.073
 7658TIP3   OH222930   0.134   4.635   6.210
 7658TIP3    H122931   0.157   4.665   6.122
 7658TIP3    H222932   0.211   4.656   6.264
 7659TIP3   OH222933   1.376   4.925   0.992
 7659TIP3    H122934   1.443   4.859   1.010
 7659TIP3    H222935   1.293   4.878   1.002
 7660TIP3   OH222936   7.029   5.024   2.068
 7660TIP3    H122937   7.095   5.029   2.137
 7660TIP3    H222938   6.971   4.953   2.096
 7661TIP3   OH222939   0.812   5.766   4.776
 7661TIP3    H122940   0.734   5.822   4.777
 7661TIP3    H222941   0.826   5.746   4.684
 7662TIP3   OH222942   4.448   0.619   3.683
 7662TIP3    H122943   4.388   0.694   3.685
 7662TIP3    H222944   4.524   0.651   3.634
 7663TIP3   OH222945   6.938   0.598   6.047
 7663TIP3    H122946   7.033   0.589   6.045
 7663TIP3    H222947   6.912   0.557   6.130
 7664TIP3   OH222948   5.380   7.562   3.000
 7664TIP3    H122949   5.356   7.518   2.918
 7664TIP3    H222950   5.447   7.625   2.975
 7665TIP3   OH222951   1.143   0.465   6.646
 7665TIP3    H122952   1.085   0.397   6.611
 7665TIP3    H222953   1.230   0.441   6.614
 7666TIP3   OH222954   1.059   3.863   3.066
 7666TIP3    H122955   1.023   3.946   3.033
 7666TIP3    H222956   1.066   3.877   3.160
 7667TIP3   OH222957   6.519   3.400   5.341
 7667TIP3    H122958   6.462   3.452   5.397
 7667TIP3    H222959   6.458   3.346   5.289
 7668TIP3   OH222960   2.267   5.977   1.972
 7668TIP3    H122961   2.293   6.025   2.051
 7668TIP3    H222962   2.319   6.016   1.902
 7669TIP3   OH222963   5.037   5.718   6.285
 7669TIP3    H122964   5.043   5.760   6.371
 7669TIP3    H222965   5.044   5.790   6.223
 7670TIP3   OH222966   4.122   0.602   3.364
 7670TIP3    H122967   4.105   0.514   3.332
 7670TIP3    H222968   4.109   0.597   3.459
 7671TIP3   OH222969   4.658   0.286   3.928
 7671TIP3    H122970   4.722   0.249   3.866
 7671TIP3    H222971   4.710   0.344   3.983
 7672TIP3   OH222972   1.210   3.271   4.803
 7672TIP3    H122973   1.115   3.267   4.804
 7672TIP3    H222974   1.231   3.361   4.825
 7673TIP3   OH222975   5.505   2.941   4.419
 7673TIP3    H122976   5.509   3.035   4.437
 7673TIP3    H222977   5.562   2.902   4.486
 7674TIP3   OH222978   4.934   6.685   4.824
 7674TIP3    H122979   5.003   6.744   4.795
 7674TIP3    H222980   4.921   6.626   4.750
 7675TIP3   OH222981   7.298   2.832   1.040
 7675TIP3    H122982   7.317   2.858   0.950
 7675TIP3    H222983   7.378   2.787   1.069
 7676TIP3   OH222984   1.217   3.644   5.828
 7676TIP3    H122985   1.240   3.551   5.836
 7676TIP3    H222986   1.179   3.652   5.741
 7677TIP3   OH222987   1.634   4.812   5.090
 7677TIP3    H122988   1.558   4.776   5.044
 7677TIP3    H222989   1.626   4.907   5.079
 7678TIP3   OH222990   4.929   7.686   3.129
 7678TIP3    H122991   4.989   7.621   3.166
 7678TIP3    H222992   4.965   7.770   3.158
 7679TIP3   OH222993   0.095   7.090   4.007
 7679TIP3    H122994   0.132   7.006   3.978
 7679TIP3    H222995   0.007   7.091   3.970
 7680TIP3   OH222996   3.142   2.345   0.597
 7680TIP3    H122997   3.236   2.327   0.587
 7680TIP3    H222998   3.113   2.368   0.509
 7681TIP3   OH222999   1.937   2.024   2.161
 7681TIP3    H123000   1.856   2.042   2.114
 7681TIP3    H223001   1.986   1.966   2.102
 7682TIP3   OH223002   3.135   0.218   4.987
 7682TIP3    H123003   3.085   0.165   5.049
 7682TIP3    H223004   3.131   0.307   5.023
 7683TIP3   OH223005   7.245   6.383   0.795
 7683TIP3    H123006   7.337   6.411   0.805
 7683TIP3    H223007   7.248   6.312   0.731
 7684TIP3   OH223008   5.821   6.665   0.578
 7684TIP3    H123009   5.808   6.745   0.527
 7684TIP3    H223010   5.861   6.695   0.660
 7685TIP3   OH223011   5.298   2.537   2.990
 7685TIP3    H123012   5.367   2.584   3.037
 7685TIP3    H223013   5.269   2.469   3.052
 7686TIP3   OH223014   4.693   6.303   1.487
 7686TIP3    H123015   4.727   6.220   1.519
 7686TIP3    H223016   4.646   6.281   1.407
 7687TIP3   OH223017   5.720   5.914   0.780
 7687TIP3    H123018   5.732   5.956   0.865
 7687TIP3    H223019   5.697   5.985   0.721
 7688TIP3   OH223020   5.198   6.761   5.010
 7688TIP3    H123021   5.157   6.787   4.927
 7688TIP3    H223022   5.127   6.722   5.060
 7689TIP3   OH223023   4.578   2.439   6.539
 7689TIP3    H123024   4.510   2.505   6.552
 7689TIP3    H223025   4.542   2.360   6.577
 7690TIP3   OH223026   6.182   3.262   1.821
 7690TIP3    H123027   6.258   3.211   1.792
 7690TIP3    H223028   6.217   3.321   1.888
 7691TIP3   OH223029   5.330   6.441   0.929
 7691TIP3    H123030   5.361   6.527   0.902
 7691TIP3    H223031   5.254   6.459   0.984
 7692TIP3   OH223032   0.327   7.678   3.388
 7692TIP3    H123033   0.406   7.733   3.389
 7692TIP3    H223034   0.300   7.678   3.296
 7693TIP3   OH223035   1.182   5.381   0.499
 7693TIP3    H123036   1.089   5.359   0.504
 7693TIP3    H223037   1.226   5.296   0.503
 7694TIP3   OH223038   1.275   3.633   3.926
 7694TIP3    H123039   1.366   3.662   3.925
 7694TIP3    H223040   1.248   3.643   4.018
 7695TIP3   OH223041   2.392   3.117   5.159
 7695TIP3    H123042   2.351   3.191   5.203
 7695TIP3    H223043   2.364   3.124   5.068
 7696TIP3   OH223044   5.675   2.721   1.340
 7696TIP3    H123045   5.719   2.803   1.361
 7696TIP3    H223046   5.620   2.702   1.416
 7697TIP3   OH223047   7.940   2.935   3.385
 7697TIP3    H123048   7.921   2.846   3.354
 7697TIP3    H223049   7.859   2.963   3.428
 7698TIP3   OH223050   3.023   6.721   3.335
 7698TIP3    H123051   2.979   6.784   3.394
 7698TIP3    H223052   3.047   6.773   3.259
 7699TIP3   OH223053   6.655   4.050   5.719
 7699TIP3    H123054   6.596   4.017   5.787
 7699TIP3    H223055   6.686   3.972   5.673
 7700TIP3   OH223056   6.280   5.691   2.002
 7700TIP3    H123057   6.324   5.657   1.924
 7700TIP3    H223058   6.199   5.729   1.968
 7701TIP3   OH223059   7.151   1.030   4.356
 7701TIP3    H123060   7.074   1.014   4.410
 7701TIP3    H223061   7.150   1.123   4.337
 7702TIP3   OH223062   7.059   1.918   5.174
 7702TIP3    H123063   7.089   1.992   5.227
 7702TIP3    H223064   7.023   1.958   5.095
 7703TIP3   OH223065   0.667   0.732   0.517
 7703TIP3    H123066   0.688   0.677   0.592
 7703TIP3    H223067   0.742   0.789   0.507
 7704TIP3   OH223068   0.067   0.591   5.978
 7704TIP3    H123069   0.072   0.507   5.933
 7704TIP3    H223070   0.158   0.617   5.990
 7705TIP3   OH223071   1.504   5.425   0.573
 7705TIP3    H123072   1.418   5.426   0.533
 7705TIP3    H223073   1.563   5.455   0.504
 7706TIP3   OH223074   5.612   4.534   3.647
 7706TIP3    H123075   5.603   4.454   3.699
 7706TIP3    H223076   5.521   4.561   3.631
 7707TIP3   OH223077   5.095   0.393   2.494
 7707TIP3    H123078   5.090   0.430   2.582
 7707TIP3    H223079   5.187   0.369   2.483
 7708TIP3   OH223080   7.431   1.709   5.244
 7708TIP3    H123081   7.337   1.687   5.245
 7708TIP3    H223082   7.438   1.787   5.299
 7709TIP3   OH223083   0.212   5.016   5.138
 7709TIP3    H123084   0.187   5.106   5.155
 7709TIP3    H223085   0.129   4.967   5.142
 7710TIP3   OH223086   5.555   3.707   3.899
 7710TIP3    H123087   5.504   3.628   3.913
 7710TIP3    H223088   5.607   3.717   3.979
 7711TIP3   OH223089   1.330   0.941   2.752
 7711TIP3    H123090   1.371   1.026   2.764
 7711TIP3    H223091   1.400   0.878   2.771
 7712TIP3   OH223092   3.468   2.979   0.889
 7712TIP3    H123093   3.381   3.016   0.902
 7712TIP3    H223094   3.493   2.944   0.975
 7713TIP3   OH223095   7.280   1.575   4.254
 7713TIP3    H123096   7.300   1.632   4.328
 7713TIP3    H223097   7.301   1.628   4.177
 7714TIP3   OH223098   6.154   2.854   5.117
 7714TIP3    H123099   6.236   2.903   5.107
 7714TIP3    H223100   6.117   2.850   5.029
 7715TIP3   OH223101   2.593   0.819   3.178
 7715TIP3    H123102   2.579   0.854   3.090
 7715TIP3    H223103   2.538   0.874   3.235
 7716TIP3   OH223104   2.043   2.150   4.876
 7716TIP3    H123105   2.048   2.206   4.798
 7716TIP3    H223106   2.134   2.126   4.894
 7717TIP3   OH223107   6.055   1.186   3.534
 7717TIP3    H123108   5.961   1.175   3.544
 7717TIP3    H223109   6.086   1.100   3.503
 7718TIP3   OH223110   8.336   7.260   6.189
 7718TIP3    H123111   8.246   7.278   6.219
 7718TIP3    H223112   8.386   7.338   6.216
 7719TIP3   OH223113   4.298   3.258   1.263
 7719TIP3    H123114   4.379   3.269   1.214
 7719TIP3    H223115   4.252   3.341   1.252
 7720TIP3   OH223116   1.015   4.984   6.503
 7720TIP3    H123117   0.989   4.940   6.583
 7720TIP3    H223118   0.959   4.947   6.435
 7721TIP3   OH223119   6.901   6.062   5.747
 7721TIP3    H123120   6.885   6.129   5.813
 7721TIP3    H223121   6.814   6.038   5.715
 7722TIP3   OH223122   3.766   4.122   3.345
 7722TIP3    H123123   3.785   4.166   3.262
 7722TIP3    H223124   3.824   4.163   3.409
 7723TIP3   OH223125   2.219   6.219   6.087
 7723TIP3    H123126   2.270   6.242   6.165
 7723TIP3    H223127   2.282   6.179   6.028
 7724TIP3   OH223128   0.791   4.377   4.981
 7724TIP3    H123129   0.713   4.341   4.937
 7724TIP3    H223130   0.758   4.415   5.062
 7725TIP3   OH223131   0.746   3.384   3.327
 7725TIP3    H123132   0.772   3.464   3.373
 7725TIP3    H223133   0.743   3.409   3.235
 7726TIP3   OH223134   7.488   4.708   4.974
 7726TIP3    H123135   7.471   4.624   5.017
 7726TIP3    H223136   7.497   4.771   5.046
 7727TIP3   OH223137   5.642   6.090   2.422
 7727TIP3    H123138   5.707   6.133   2.476
 7727TIP3    H223139   5.630   6.004   2.462
 7728TIP3   OH223140   0.539   3.766   5.063
 7728TIP3    H123141   0.553   3.677   5.095
 7728TIP3    H223142   0.485   3.808   5.130
 7729TIP3   OH223143   6.730   2.540   1.560
 7729TIP3    H123144   6.714   2.493   1.643
 7729TIP3    H223145   6.783   2.479   1.509
 7730TIP3   OH223146   4.706   7.374   3.969
 7730TIP3    H123147   4.613   7.363   3.949
 7730TIP3    H223148   4.722   7.467   3.959
 7731TIP3   OH223149   2.488   1.114   0.962
 7731TIP3    H123150   2.469   1.023   0.983
 7731TIP3    H223151   2.559   1.109   0.897
 7732TIP3   OH223152   0.036   4.904   2.010
 7732TIP3    H123153   0.068   4.983   1.966
 7732TIP3    H223154   0.057   4.919   2.103
 7733TIP3   OH223155   7.528   1.226   5.794
 7733TIP3    H123156   7.456   1.238   5.732
 7733TIP3    H223157   7.598   1.283   5.762
 7734TIP3   OH223158   5.953   5.506   2.688
 7734TIP3    H123159   6.045   5.496   2.711
 7734TIP3    H223160   5.910   5.432   2.732
 7735TIP3   OH223161   1.718   2.793   1.395
 7735TIP3    H123162   1.777   2.773   1.468
 7735TIP3    H223163   1.655   2.721   1.395
 7736TIP3   OH223164   5.658   5.485   1.440
 7736TIP3    H123165   5.735   5.537   1.416
 7736TIP3    H223166   5.673   5.400   1.399
 7737TIP3   OH223167   2.456   2.499   1.966
 7737TIP3    H123168   2.503   2.551   2.031
 7737TIP3    H223169   2.512   2.423   1.951
 7738TIP3   OH223170   7.090   0.579   1.841
 7738TIP3    H123171   7.105   0.521   1.916
 7738TIP3    H223172   7.146   0.655   1.859
 7739TIP3   OH223173   0.056   6.066   5.758
 7739TIP3    H123174   0.052   5.997   5.824
 7739TIP3    H223175   0.125   6.125   5.788
 7740TIP3   OH223176   3.822   3.522   0.455
 7740TIP3    H123177   3.830   3.615   0.476
 7740TIP3    H223178   3.747   3.493   0.507
 7741TIP3   OH223179   4.520   7.570   4.122
 7741TIP3    H123180   4.492   7.480   4.103
 7741TIP3    H223181   4.465   7.624   4.065
 7742TIP3   OH223182   5.869   3.331   4.845
 7742TIP3    H123183   5.839   3.352   4.934
 7742TIP3    H223184   5.861   3.414   4.798
 7743TIP3   OH223185   2.340   4.650   6.273
 7743TIP3    H123186   2.346   4.661   6.178
 7743TIP3    H223187   2.261   4.698   6.297
 7744TIP3   OH223188   4.812   0.045   0.066
 7744TIP3    H123189   4.755   0.121   0.082
 7744TIP3    H223190   4.836   0.015   0.153
 7745TIP3   OH223191   1.112   4.568   1.669
 7745TIP3    H123192   1.066   4.493   1.706
 7745TIP3    H223193   1.197   4.567   1.712
 7746TIP3   OH223194   4.036   3.728   2.227
 7746TIP3    H123195   4.087   3.647   2.228
 7746TIP3    H223196   3.955   3.706   2.181
 7747TIP3   OH223197   1.591   7.439   3.457
 7747TIP3    H123198   1.653   7.367   3.445
 7747TIP3    H223199   1.585   7.480   3.371
 7748TIP3   OH223200   0.723   1.296   6.013
 7748TIP3    H123201   0.787   1.242   5.967
 7748TIP3    H223202   0.775   1.345   6.077
 7749TIP3   OH223203   1.630   7.241   6.469
 7749TIP3    H123204   1.660   7.165   6.519
 7749TIP3    H223205   1.688   7.312   6.496
 7750TIP3   OH223206   1.017   2.126   4.791
 7750TIP3    H123207   0.937   2.078   4.771
 7750TIP3    H223208   1.088   2.068   4.764
 7751TIP3   OH223209   4.027   5.603   0.258
 7751TIP3    H123210   4.116   5.638   0.265
 7751TIP3    H223211   3.996   5.632   0.173
 7752TIP3   OH223212   7.116   5.914   1.087
 7752TIP3    H123213   7.186   5.935   1.024
 7752TIP3    H223214   7.066   5.844   1.045
 7753TIP3   OH223215   5.204   3.339   0.365
 7753TIP3    H123216   5.230   3.339   0.458
 7753TIP3    H223217   5.130   3.278   0.361
 7754TIP3   OH223218   5.284   1.344   6.606
 7754TIP3    H123219   5.276   1.438   6.620
 7754TIP3    H223220   5.235   1.304   6.678
 7755TIP3   OH223221   3.248   6.431   6.492
 7755TIP3    H123222   3.172   6.464   6.445
 7755TIP3    H223223   3.222   6.343   6.520
 7756TIP3   OH223224   1.111   0.901   0.170
 7756TIP3    H123225   1.156   0.955   0.106
 7756TIP3    H223226   1.073   0.963   0.232
 7757TIP3   OH223227   1.683   5.162   2.874
 7757TIP3    H123228   1.716   5.217   2.803
 7757TIP3    H223229   1.631   5.095   2.829
 7758TIP3   OH223230   2.606   1.957   2.018
 7758TIP3    H123231   2.624   1.883   2.076
 7758TIP3    H223232   2.660   2.028   2.052
 7759TIP3   OH223233   2.153   5.391   5.642
 7759TIP3    H123234   2.162   5.298   5.624
 7759TIP3    H223235   2.181   5.434   5.561
 7760TIP3   OH223236   7.747   0.998   4.977
 7760TIP3    H123237   7.779   0.953   5.056
 7760TIP3    H223238   7.686   1.064   5.010
 7761TIP3   OH223239   5.463   3.296   2.775
 7761TIP3    H123240   5.443   3.386   2.752
 7761TIP3    H223241   5.468   3.296   2.871
 7762TIP3   OH223242   3.744   3.663   6.044
 7762TIP3    H123243   3.665   3.706   6.077
 7762TIP3    H223244   3.786   3.628   6.123
 7763TIP3   OH223245   3.393   1.597   2.618
 7763TIP3    H123246   3.395   1.677   2.565
 7763TIP3    H223247   3.381   1.628   2.707
 7764TIP3   OH223248   0.821   0.321   5.119
 7764TIP3    H123249   0.801   0.400   5.070
 7764TIP3    H223250   0.897   0.284   5.074
 7765TIP3   OH223251   4.028   2.428   6.726
 7765TIP3    H123252   3.977   2.392   6.798
 7765TIP3    H223253   3.965   2.440   6.655
 7766TIP3   OH223254   6.271   3.419   2.348
 7766TIP3    H123255   6.201   3.413   2.282
 7766TIP3    H223256   6.269   3.334   2.392
 7767TIP3   OH223257   6.696   6.425   4.420
 7767TIP3    H123258   6.693   6.330   4.415
 7767TIP3    H223259   6.707   6.454   4.330
 7768TIP3   OH223260   7.152   3.264   1.394
 7768TIP3    H123261   7.093   3.229   1.327
 7768TIP3    H223262   7.192   3.187   1.434
 7769TIP3   OH223263   3.249   4.857   4.996
 7769TIP3    H123264   3.213   4.797   4.930
 7769TIP3    H223265   3.331   4.816   5.024
 7770TIP3   OH223266   2.391   7.337   6.481
 7770TIP3    H123267   2.421   7.270   6.421
 7770TIP3    H223268   2.296   7.324   6.485
 7771TIP3   OH223269   2.898   0.120   3.624
 7771TIP3    H123270   2.955   0.044   3.623
 7771TIP3    H223271   2.957   0.194   3.610
 7772TIP3   OH223272   8.027   7.370   1.911
 7772TIP3    H123273   8.004   7.325   1.830
 7772TIP3    H223274   7.947   7.367   1.964
 7773TIP3   OH223275   0.797   7.400   4.734
 7773TIP3    H123276   0.721   7.421   4.680
 7773TIP3    H223277   0.841   7.329   4.688
 7774TIP3   OH223278   6.107   5.675   5.433
 7774TIP3    H123279   6.180   5.706   5.381
 7774TIP3    H223280   6.037   5.660   5.369
 7775TIP3   OH223281   6.177   5.788   2.802
 7775TIP3    H123282   6.189   5.700   2.766
 7775TIP3    H223283   6.089   5.814   2.774
 7776TIP3   OH223284   1.687   1.433   6.682
 7776TIP3    H123285   1.657   1.399   6.597
 7776TIP3    H223286   1.618   1.494   6.708
 7777TIP3   OH223287   3.331   5.131   3.479
 7777TIP3    H123288   3.321   5.070   3.406
 7777TIP3    H223289   3.417   5.170   3.466
 7778TIP3   OH223290   1.773   5.953   0.488
 7778TIP3    H123291   1.688   5.955   0.532
 7778TIP3    H223292   1.826   6.017   0.535
 7779TIP3   OH223293   5.302   0.224   3.114
 7779TIP3    H123294   5.207   0.225   3.128
 7779TIP3    H223295   5.328   0.315   3.125
 7780TIP3   OH223296   4.423   4.954   5.236
 7780TIP3    H123297   4.451   5.016   5.169
 7780TIP3    H223298   4.487   4.965   5.307
 7781TIP3   OH223299   0.677   1.253   3.246
 7781TIP3    H123300   0.745   1.318   3.262
 7781TIP3    H223301   0.694   1.184   3.311
 7782TIP3   OH223302   4.912   2.579   6.113
 7782TIP3    H123303   4.923   2.497   6.067
 7782TIP3    H223304   4.846   2.561   6.181
 7783TIP3   OH223305   2.341   1.505   6.278
 7783TIP3    H123306   2.414   1.539   6.329
 7783TIP3    H223307   2.265   1.554   6.309
 7784TIP3   OH223308   6.986   5.705   0.941
 7784TIP3    H123309   7.057   5.691   0.878
 7784TIP3    H223310   6.907   5.709   0.888
 7785TIP3   OH223311   2.799   4.598   6.771
 7785TIP3    H123312   2.746   4.531   6.727
 7785TIP3    H223313   2.755   4.681   6.750
 7786TIP3   OH223314   0.192   0.804   4.513
 7786TIP3    H123315   0.253   0.743   4.472
 7786TIP3    H223316   0.198   0.785   4.606
 7787TIP3   OH223317   2.310   0.051   2.182
 7787TIP3    H123318   2.278   0.094   2.262
 7787TIP3    H223319   2.265  -0.033   2.180
 7788TIP3   OH223320   6.680   1.188   0.437
 7788TIP3    H123321   6.597   1.228   0.465
 7788TIP3    H223322   6.658   1.145   0.354
 7789TIP3   OH223323   2.151   2.607   4.393
 7789TIP3    H123324   2.219   2.552   4.354
 7789TIP3    H223325   2.168   2.694   4.359
 7790TIP3   OH223326   0.896   6.012   1.743
 7790TIP3    H123327   0.870   6.002   1.834
 7790TIP3    H223328   0.892   5.923   1.708
 7791TIP3   OH223329   6.902   1.280   3.745
 7791TIP3    H123330   6.813   1.278   3.781
 7791TIP3    H223331   6.950   1.215   3.796
 7792TIP3   OH223332   4.353   6.697   2.833
 7792TIP3    H123333   4.417   6.761   2.867
 7792TIP3    H223334   4.353   6.713   2.738
 7793TIP3   OH223335   2.223   4.269   5.163
 7793TIP3    H123336   2.220   4.253   5.069
 7793TIP3    H223337   2.311   4.304   5.178
 7794TIP3   OH223338   5.743   5.679   4.894
 7794TIP3    H123339   5.723   5.593   4.931
 7794TIP3    H223340   5.657   5.719   4.879
 7795TIP3   OH223341   1.558   0.811   0.991
 7795TIP3    H123342   1.519   0.899   0.996
 7795TIP3    H223343   1.626   0.811   1.058
 7796TIP3   OH223344   7.715   3.737   0.535
 7796TIP3    H123345   7.635   3.690   0.512
 7796TIP3    H223346   7.729   3.798   0.463
 7797TIP3   OH223347   3.497   7.062   1.511
 7797TIP3    H123348   3.538   7.030   1.592
 7797TIP3    H223349   3.549   7.024   1.441
 7798TIP3   OH223350   5.560   0.347   1.455
 7798TIP3    H123351   5.492   0.280   1.463
 7798TIP3    H223352   5.617   0.333   1.530
 7799TIP3   OH223353   0.542   5.231   1.828
 7799TIP3    H123354   0.454   5.221   1.865
 7799TIP3    H223355   0.584   5.295   1.884
 7800TIP3   OH223356   1.591   2.539   1.395
 7800TIP3    H123357   1.574   2.554   1.488
 7800TIP3    H223358   1.591   2.443   1.385
 7801TIP3   OH223359   2.865   5.425   4.247
 7801TIP3    H123360   2.834   5.481   4.175
 7801TIP3    H223361   2.934   5.372   4.208
 7802TIP3   OH223362   5.876   1.288   6.257
 7802TIP3    H123363   5.799   1.256   6.209
 7802TIP3    H223364   5.945   1.293   6.191
 7803TIP3   OH223365   5.781   7.111   1.528
 7803TIP3    H123366   5.869   7.117   1.565
 7803TIP3    H223367   5.794   7.066   1.444
 7804TIP3   OH223368   2.739   4.949   4.910
 7804TIP3    H123369   2.661   4.904   4.876
 7804TIP3    H223370   2.812   4.897   4.877
 7805TIP3   OH223371   0.716   1.858   5.636
 7805TIP3    H123372   0.752   1.779   5.595
 7805TIP3    H223373   0.793   1.901   5.676
 7806TIP3   OH223374   5.198   0.187   6.123
 7806TIP3    H123375   5.221   0.102   6.161
 7806TIP3    H223376   5.240   0.187   6.037
 7807TIP3   OH223377   3.014   4.478   5.000
 7807TIP3    H123378   3.073   4.449   5.070
 7807TIP3    H223379   2.942   4.415   5.002
 7808TIP3   OH223380   2.234   1.329   2.336
 7808TIP3    H123381   2.268   1.244   2.307
 7808TIP3    H223382   2.234   1.323   2.432
 7809TIP3   OH223383   6.921   4.372   6.109
 7809TIP3    H123384   6.915   4.375   6.014
 7809TIP3    H223385   6.990   4.435   6.131
 7810TIP3   OH223386   1.694   3.186   3.064
 7810TIP3    H123387   1.604   3.157   3.079
 7810TIP3    H223388   1.702   3.267   3.114
 7811TIP3   OH223389   5.448   1.382   4.522
 7811TIP3    H123390   5.395   1.456   4.552
 7811TIP3    H223391   5.394   1.305   4.537
 7812TIP3   OH223392   5.419   3.992   3.194
 7812TIP3    H123393   5.373   3.984   3.110
 7812TIP3    H223394   5.355   4.034   3.252
 7813TIP3   OH223395   0.743   7.250   5.660
 7813TIP3    H123396   0.718   7.333   5.620
 7813TIP3    H223397   0.817   7.219   5.608
 7814TIP3   OH223398   2.043   0.451   5.964
 7814TIP3    H123399   2.071   0.417   5.879
 7814TIP3    H223400   1.952   0.475   5.951
 7815TIP3   OH223401   5.713   2.335   4.058
 7815TIP3    H123402   5.620   2.315   4.056
 7815TIP3    H223403   5.756   2.249   4.052
 7816TIP3   OH223404   6.247   6.923   1.704
 7816TIP3    H123405   6.337   6.907   1.676
 7816TIP3    H223406   6.193   6.889   1.633
 7817TIP3   OH223407   8.028   0.692   2.300
 7817TIP3    H123408   8.088   0.639   2.248
 7817TIP3    H223409   8.084   0.752   2.348
 7818TIP3   OH223410   7.065   4.162   4.618
 7818TIP3    H123411   7.044   4.241   4.569
 7818TIP3    H223412   7.055   4.187   4.710
 7819TIP3   OH223413   3.108   4.400   4.394
 7819TIP3    H123414   3.096   4.305   4.387
 7819TIP3    H223415   3.077   4.435   4.310
 7820TIP3   OH223416   7.553   7.396   4.059
 7820TIP3    H123417   7.570   7.303   4.044
 7820TIP3    H223418   7.483   7.418   3.997
 7821TIP3   OH223419   4.254   7.796   6.197
 7821TIP3    H123420   4.276   7.781   6.105
 7821TIP3    H223421   4.330   7.764   6.245
 7822TIP3   OH223422   5.383   6.249   2.855
 7822TIP3    H123423   5.327   6.300   2.914
 7822TIP3    H223424   5.364   6.158   2.877
 7823TIP3   OH223425   7.257   4.407   2.414
 7823TIP3    H123426   7.202   4.376   2.342
 7823TIP3    H223427   7.209   4.482   2.451
 7824TIP3   OH223428   7.673   1.113   4.748
 7824TIP3    H123429   7.716   1.078   4.826
 7824TIP3    H223430   7.632   1.036   4.708
 7825TIP3   OH223431   5.862   0.569   1.493
 7825TIP3    H123432   5.784   0.575   1.548
 7825TIP3    H223433   5.885   0.477   1.494
 7826TIP3   OH223434   0.847   2.064   5.788
 7826TIP3    H123435   0.866   2.063   5.882
 7826TIP3    H223436   0.754   2.086   5.783
 7827TIP3   OH223437   6.987   3.272   1.947
 7827TIP3    H123438   6.948   3.352   1.911
 7827TIP3    H223439   7.020   3.225   1.871
 7828TIP3   OH223440   3.192   3.178   3.811
 7828TIP3    H123441   3.219   3.172   3.719
 7828TIP3    H223442   3.110   3.129   3.815
 7829TIP3   OH223443   1.446   1.646   3.810
 7829TIP3    H123444   1.426   1.554   3.792
 7829TIP3    H223445   1.439   1.654   3.905
 7830TIP3   OH223446   3.856   0.590   0.829
 7830TIP3    H123447   3.917   0.603   0.902
 7830TIP3    H223448   3.777   0.555   0.870
 7831TIP3   OH223449   1.259   0.526   4.488
 7831TIP3    H123450   1.214   0.537   4.572
 7831TIP3    H223451   1.351   0.513   4.512
 7832TIP3   OH223452   3.455   0.863   0.316
 7832TIP3    H123453   3.430   0.876   0.225
 7832TIP3    H223454   3.408   0.783   0.342
 7833TIP3   OH223455   4.731   0.469   4.118
 7833TIP3    H123456   4.697   0.542   4.066
 7833TIP3    H223457   4.658   0.445   4.176
 7834TIP3   OH223458   2.237   3.209   0.823
 7834TIP3    H123459   2.296   3.204   0.747
 7834TIP3    H223460   2.250   3.126   0.869
 7835TIP3   OH223461   2.573   2.324   6.611
 7835TIP3    H123462   2.607   2.274   6.685
 7835TIP3    H223463   2.550   2.410   6.647
 7836TIP3   OH223464   4.882   1.928   1.490
 7836TIP3    H123465   4.795   1.966   1.498
 7836TIP3    H223466   4.940   2.003   1.479
 7837TIP3   OH223467   2.973   3.754   3.205
 7837TIP3    H123468   3.007   3.833   3.164
 7837TIP3    H223469   2.886   3.778   3.236
 7838TIP3   OH223470   5.005   0.183   3.207
 7838TIP3    H123471   4.914   0.182   3.176
 7838TIP3    H223472   5.017   0.098   3.249
 7839TIP3   OH223473   4.102   6.654   3.691
 7839TIP3    H123474   4.179   6.616   3.735
 7839TIP3    H223475   4.137   6.727   3.640
 7840TIP3   OH223476   2.353   2.679   4.615
 7840TIP3    H123477   2.353   2.593   4.574
 7840TIP3    H223478   2.417   2.730   4.566
 7841TIP3   OH223479   0.611   0.650   2.475
 7841TIP3    H123480   0.621   0.719   2.540
 7841TIP3    H223481   0.555   0.689   2.408
 7842TIP3   OH223482   5.355   7.204   5.418
 7842TIP3    H123483   5.285   7.183   5.479
 7842TIP3    H223484   5.318   7.188   5.331
 7843TIP3   OH223485   7.873   4.158   2.948
 7843TIP3    H123486   7.829   4.208   3.017
 7843TIP3    H223487   7.950   4.121   2.991
 7844TIP3   OH223488   4.263   3.476   6.394
 7844TIP3    H123489   4.357   3.464   6.380
 7844TIP3    H223490   4.242   3.556   6.345
 7845TIP3   OH223491   7.208   7.423   5.836
 7845TIP3    H123492   7.214   7.500   5.892
 7845TIP3    H223493   7.237   7.350   5.891
 7846TIP3   OH223494   2.838   3.731   5.759
 7846TIP3    H123495   2.894   3.779   5.698
 7846TIP3    H223496   2.760   3.786   5.766
 7847TIP3   OH223497   3.088   4.026   5.164
 7847TIP3    H123498   3.152   3.993   5.101
 7847TIP3    H223499   3.106   4.119   5.171
 7848TIP3   OH223500   1.955   1.334   2.485
 7848TIP3    H123501   1.946   1.429   2.492
 7848TIP3    H223502   2.013   1.310   2.557
 7849TIP3   OH223503   6.028   6.388   2.374
 7849TIP3    H123504   5.945   6.433   2.390
 7849TIP3    H223505   6.093   6.458   2.371
 7850TIP3   OH223506   1.680   1.689   1.832
 7850TIP3    H123507   1.736   1.615   1.856
 7850TIP3    H223508   1.742   1.762   1.819
 7851TIP3   OH223509   8.246   5.383   3.799
 7851TIP3    H123510   8.240   5.359   3.891
 7851TIP3    H223511   8.259   5.299   3.754
 7852TIP3   OH223512   0.780   5.740   1.670
 7852TIP3    H123513   0.822   5.685   1.736
 7852TIP3    H223514   0.785   5.689   1.589
 7853TIP3   OH223515   1.576   5.290   1.151
 7853TIP3    H123516   1.583   5.276   1.057
 7853TIP3    H223517   1.665   5.316   1.178
 7854TIP3   OH223518   1.975   5.331   6.514
 7854TIP3    H123519   1.907   5.392   6.542
 7854TIP3    H223520   1.934   5.282   6.442
 7855TIP3   OH223521   1.140   3.995   0.396
 7855TIP3    H123522   1.146   3.934   0.469
 7855TIP3    H223523   1.046   4.006   0.382
 7856TIP3   OH223524   3.575   6.601   1.591
 7856TIP3    H123525   3.561   6.614   1.497
 7856TIP3    H223526   3.512   6.660   1.633
 7857TIP3   OH223527   6.185   7.487   1.864
 7857TIP3    H123528   6.240   7.415   1.832
 7857TIP3    H223529   6.247   7.557   1.883
 7858TIP3   OH223530   1.952   4.867   4.356
 7858TIP3    H123531   2.043   4.856   4.328
 7858TIP3    H223532   1.917   4.935   4.298
 7859TIP3   OH223533   5.593   4.545   5.989
 7859TIP3    H123534   5.536   4.619   6.011
 7859TIP3    H223535   5.543   4.468   6.017
 7860TIP3   OH223536   1.118   6.836   1.497
 7860TIP3    H123537   1.059   6.766   1.468
 7860TIP3    H223538   1.205   6.805   1.472
 7861TIP3   OH223539   4.666   3.239   4.151
 7861TIP3    H123540   4.628   3.153   4.131
 7861TIP3    H223541   4.603   3.280   4.210
 7862TIP3   OH223542   2.316   2.872   3.009
 7862TIP3    H123543   2.255   2.903   2.943
 7862TIP3    H223544   2.276   2.790   3.041
 7863TIP3   OH223545   1.019   6.152   0.996
 7863TIP3    H123546   1.095   6.101   1.022
 7863TIP3    H223547   0.967   6.093   0.942
 7864TIP3   OH223548   6.331   6.391   0.772
 7864TIP3    H123549   6.260   6.451   0.748
 7864TIP3    H223550   6.410   6.445   0.771
 7865TIP3   OH223551   3.587   5.884   1.215
 7865TIP3    H123552   3.631   5.799   1.208
 7865TIP3    H223553   3.658   5.948   1.223
 7866TIP3   OH223554   6.816   1.290   6.090
 7866TIP3    H123555   6.770   1.374   6.089
 7866TIP3    H223556   6.835   1.274   6.182
 7867TIP3   OH223557   3.351   0.667   1.704
 7867TIP3    H123558   3.366   0.572   1.701
 7867TIP3    H223559   3.439   0.705   1.703
 7868TIP3   OH223560   4.409   0.472   5.596
 7868TIP3    H123561   4.396   0.398   5.536
 7868TIP3    H223562   4.443   0.432   5.676
 7869TIP3   OH223563   2.305   5.436   1.767
 7869TIP3    H123564   2.356   5.498   1.819
 7869TIP3    H223565   2.215   5.445   1.800
 7870TIP3   OH223566   1.301   4.407   6.015
 7870TIP3    H123567   1.364   4.427   5.947
 7870TIP3    H223568   1.255   4.329   5.984
 7871TIP3   OH223569   4.533   5.523   6.093
 7871TIP3    H123570   4.442   5.552   6.103
 7871TIP3    H223571   4.574   5.545   6.177
 7872TIP3   OH223572   7.674   4.570   6.582
 7872TIP3    H123573   7.635   4.550   6.496
 7872TIP3    H223574   7.623   4.518   6.644
 7873TIP3   OH223575   5.718   6.946   5.997
 7873TIP3    H123576   5.687   6.883   6.063
 7873TIP3    H223577   5.650   6.946   5.930
 7874TIP3   OH223578   1.891   7.259   6.699
 7874TIP3    H123579   1.905   7.348   6.667
 7874TIP3    H223580   1.823   7.268   6.766
 7875TIP3   OH223581   3.729   1.862   6.105
 7875TIP3    H123582   3.791   1.807   6.058
 7875TIP3    H223583   3.764   1.951   6.094
 7876TIP3   OH223584   1.062   6.799   5.335
 7876TIP3    H123585   1.145   6.820   5.378
 7876TIP3    H223586   1.054   6.704   5.344
 7877TIP3   OH223587   0.757   0.045   4.278
 7877TIP3    H123588   0.693   0.033   4.208
 7877TIP3    H223589   0.838   0.068   4.233
 7878TIP3   OH223590   8.204   6.959   3.592
 7878TIP3    H123591   8.203   7.029   3.657
 7878TIP3    H223592   8.120   6.966   3.547
 7879TIP3   OH223593   6.073   5.357   1.949
 7879TIP3    H123594   6.127   5.407   1.889
 7879TIP3    H223595   6.015   5.422   1.989
 7880TIP3   OH223596   6.677   6.419   5.300
 7880TIP3    H123597   6.704   6.446   5.213
 7880TIP3    H223598   6.588   6.453   5.310
 7881TIP3   OH223599   3.604   1.699   5.768
 7881TIP3    H123600   3.558   1.615   5.763
 7881TIP3    H223601   3.684   1.686   5.716
 7882TIP3   OH223602   5.100   6.713   1.348
 7882TIP3    H123603   5.057   6.661   1.279
 7882TIP3    H223604   5.107   6.652   1.422
 7883TIP3   OH223605   5.867   7.090   3.010
 7883TIP3    H123606   5.937   7.025   3.020
 7883TIP3    H223607   5.837   7.080   2.920
 7884TIP3   OH223608   8.208   2.635   4.246
 7884TIP3    H123609   8.236   2.665   4.332
 7884TIP3    H223610   8.149   2.562   4.264
 7885TIP3   OH223611   1.977   6.743   4.106
 7885TIP3    H123612   2.068   6.736   4.132
 7885TIP3    H223613   1.927   6.724   4.185
 7886TIP3   OH223614   0.849   6.918   3.579
 7886TIP3    H123615   0.778   6.883   3.525
 7886TIP3    H223616   0.918   6.852   3.576
 7887TIP3   OH223617   5.009   2.308   0.548
 7887TIP3    H123618   5.073   2.252   0.591
 7887TIP3    H223619   4.994   2.381   0.608
 7888TIP3   OH223620   7.535   4.072   4.724
 7888TIP3    H123621   7.574   4.101   4.806
 7888TIP3    H223622   7.454   4.029   4.750
 7889TIP3   OH223623   4.166   4.558   1.354
 7889TIP3    H123624   4.156   4.633   1.412
 7889TIP3    H223625   4.081   4.551   1.309
 7890TIP3   OH223626   0.020   0.979   5.922
 7890TIP3    H123627   0.046   0.966   6.013
 7890TIP3    H223628   0.032   1.073   5.907
 7891TIP3   OH223629   5.422   5.695   0.848
 7891TIP3    H123630   5.348   5.678   0.790
 7891TIP3    H223631   5.382   5.704   0.935
 7892TIP3   OH223632   6.256   2.195   2.242
 7892TIP3    H123633   6.214   2.238   2.168
 7892TIP3    H223634   6.193   2.203   2.314
 7893TIP3   OH223635   6.666   7.173   6.412
 7893TIP3    H123636   6.617   7.224   6.347
 7893TIP3    H223637   6.612   7.095   6.427
 7894TIP3   OH223638   3.007   3.277   2.578
 7894TIP3    H123639   3.006   3.192   2.623
 7894TIP3    H223640   2.942   3.330   2.624
 7895TIP3   OH223641   0.178   6.753   6.454
 7895TIP3    H123642   0.138   6.781   6.537
 7895TIP3    H223643   0.130   6.802   6.387
 7896TIP3   OH223644   2.075   6.713   6.262
 7896TIP3    H123645   1.988   6.677   6.249
 7896TIP3    H223646   2.060   6.805   6.283
 7897TIP3   OH223647   2.459   5.892   4.891
 7897TIP3    H123648   2.372   5.931   4.897
 7897TIP3    H223649   2.505   5.923   4.969
 7898TIP3   OH223650   3.311   4.622   1.028
 7898TIP3    H123651   3.345   4.547   1.078
 7898TIP3    H223652   3.307   4.590   0.938
 7899TIP3   OH223653   4.794   4.685   5.275
 7899TIP3    H123654   4.766   4.599   5.243
 7899TIP3    H223655   4.744   4.698   5.356
 7900TIP3   OH223656   7.621   6.811   6.518
 7900TIP3    H123657   7.707   6.852   6.507
 7900TIP3    H223658   7.604   6.815   6.612
 7901TIP3   OH223659   4.714   7.037   5.311
 7901TIP3    H123660   4.627   7.077   5.314
 7901TIP3    H223661   4.697   6.943   5.317
 7902TIP3   OH223662   7.591   0.380   6.573
 7902TIP3    H123663   7.565   0.373   6.481
 7902TIP3    H223664   7.568   0.470   6.598
 7903TIP3   OH223665   0.576   4.528   4.725
 7903TIP3    H123666   0.592   4.442   4.765
 7903TIP3    H223667   0.585   4.512   4.631
 7904TIP3   OH223668   1.642   6.462   2.114
 7904TIP3    H123669   1.581   6.417   2.172
 7904TIP3    H223670   1.674   6.393   2.055
 7905TIP3   OH223671   5.191   1.675   2.373
 7905TIP3    H123672   5.108   1.629   2.359
 7905TIP3    H223673   5.212   1.659   2.465
 7906TIP3   OH223674   1.501   0.635   6.244
 7906TIP3    H123675   1.421   0.585   6.227
 7906TIP3    H223676   1.508   0.696   6.170
 7907TIP3   OH223677   4.359   2.804   3.620
 7907TIP3    H123678   4.444   2.767   3.596
 7907TIP3    H223679   4.314   2.816   3.536
 7908TIP3   OH223680   4.986   4.318   3.397
 7908TIP3    H123681   4.915   4.333   3.335
 7908TIP3    H223682   4.960   4.367   3.475
 7909TIP3   OH223683   8.163   1.290   3.906
 7909TIP3    H123684   8.171   1.320   3.997
 7909TIP3    H223685   8.234   1.334   3.860
 7910TIP3   OH223686   0.952   4.538   6.710
 7910TIP3    H123687   1.031   4.500   6.749
 7910TIP3    H223688   0.899   4.463   6.684
 7911TIP3   OH223689   7.618   0.900   2.958
 7911TIP3    H123690   7.637   0.807   2.969
 7911TIP3    H223691   7.628   0.938   3.045
 7912TIP3   OH223692   7.359   0.871   6.448
 7912TIP3    H123693   7.376   0.783   6.481
 7912TIP3    H223694   7.354   0.860   6.353
 7913TIP3   OH223695   5.513   6.292   3.234
 7913TIP3    H123696   5.497   6.378   3.194
 7913TIP3    H223697   5.600   6.300   3.273
 7914TIP3   OH223698   3.373   6.819   5.640
 7914TIP3    H123699   3.321   6.809   5.560
 7914TIP3    H223700   3.457   6.777   5.620
 7915TIP3   OH223701   7.475   2.487   6.547
 7915TIP3    H123702   7.524   2.540   6.609
 7915TIP3    H223703   7.403   2.449   6.598
 7916TIP3   OH223704   6.499   0.575   3.602
 7916TIP3    H123705   6.461   0.536   3.681
 7916TIP3    H223706   6.589   0.596   3.627
 7917TIP3   OH223707   5.323   1.301   3.939
 7917TIP3    H123708   5.329   1.245   4.017
 7917TIP3    H223709   5.349   1.388   3.970
 7918TIP3   OH223710   6.825   3.408   4.191
 7918TIP3    H123711   6.841   3.460   4.112
 7918TIP3    H223712   6.762   3.460   4.242
 7919TIP3   OH223713   6.106   4.874   6.370
 7919TIP3    H123714   6.031   4.832   6.329
 7919TIP3    H223715   6.149   4.921   6.298
 7920TIP3   OH223716   4.887   0.800   4.610
 7920TIP3    H123717   4.848   0.715   4.587
 7920TIP3    H223718   4.814   0.853   4.640
 7921TIP3   OH223719   0.896   0.666   1.058
 7921TIP3    H123720   0.896   0.628   1.146
 7921TIP3    H223721   0.981   0.711   1.052
 7922TIP3   OH223722   6.392   2.833   3.368
 7922TIP3    H123723   6.338   2.754   3.368
 7922TIP3    H223724   6.482   2.801   3.374
 7923TIP3   OH223725   8.243   0.508   5.301
 7923TIP3    H123726   8.325   0.500   5.252
 7923TIP3    H223727   8.241   0.432   5.359
 7924TIP3   OH223728   0.964   0.403   2.887
 7924TIP3    H123729   1.013   0.348   2.948
 7924TIP3    H223730   0.920   0.342   2.829
 7925TIP3   OH223731   2.741   1.809   4.855
 7925TIP3    H123732   2.681   1.760   4.910
 7925TIP3    H223733   2.823   1.813   4.904
 7926TIP3   OH223734   4.971   1.550   1.935
 7926TIP3    H123735   4.907   1.547   2.006
 7926TIP3    H223736   5.037   1.485   1.960
 7927TIP3   OH223737   0.236   4.870   1.350
 7927TIP3    H123738   0.226   4.778   1.378
 7927TIP3    H223739   0.198   4.872   1.263
 7928TIP3   OH223740   0.064   7.148   2.924
 7928TIP3    H123741   0.129   7.081   2.945
 7928TIP3    H223742   0.037   7.129   2.834
 7929TIP3   OH223743   0.738   6.585   6.488
 7929TIP3    H123744   0.828   6.555   6.471
 7929TIP3    H223745   0.718   6.551   6.575
 7930TIP3   OH223746   7.619   7.519   6.123
 7930TIP3    H123747   7.555   7.523   6.052
 7930TIP3    H223748   7.699   7.488   6.082
 7931TIP3   OH223749   3.420   3.286   2.205
 7931TIP3    H123750   3.390   3.345   2.136
 7931TIP3    H223751   3.340   3.242   2.236
 7932TIP3   OH223752   7.629   0.917   4.466
 7932TIP3    H123753   7.536   0.901   4.454
 7932TIP3    H223754   7.647   0.993   4.410
 7933TIP3   OH223755   2.928   7.314   4.598
 7933TIP3    H123756   2.961   7.224   4.596
 7933TIP3    H223757   2.933   7.342   4.506
 7934TIP3   OH223758   3.565   4.726   5.008
 7934TIP3    H123759   3.629   4.656   5.021
 7934TIP3    H223760   3.504   4.691   4.944
 7935TIP3   OH223761   0.380   3.377   3.677
 7935TIP3    H123762   0.455   3.394   3.620
 7935TIP3    H223763   0.411   3.312   3.740
 7936TIP3   OH223764   7.597   5.153   0.435
 7936TIP3    H123765   7.644   5.078   0.398
 7936TIP3    H223766   7.531   5.115   0.492
 7937TIP3   OH223767   1.120   3.812   3.791
 7937TIP3    H123768   1.183   3.827   3.720
 7937TIP3    H223769   1.153   3.734   3.836
 7938TIP3   OH223770   6.501   6.464   3.377
 7938TIP3    H123771   6.474   6.554   3.359
 7938TIP3    H223772   6.552   6.470   3.457
 7939TIP3   OH223773   3.656   0.819   1.834
 7939TIP3    H123774   3.627   0.897   1.881
 7939TIP3    H223775   3.608   0.747   1.875
 7940TIP3   OH223776   2.277   1.285   1.917
 7940TIP3    H123777   2.184   1.304   1.908
 7940TIP3    H223778   2.319   1.336   1.848
 7941TIP3   OH223779   2.582   7.729   5.525
 7941TIP3    H123780   2.621   7.797   5.579
 7941TIP3    H223781   2.487   7.741   5.536
 7942TIP3   OH223782   3.725   3.304   1.949
 7942TIP3    H123783   3.685   3.314   1.862
 7942TIP3    H223784   3.653   3.320   2.010
 7943TIP3   OH223785   7.475   0.928   5.860
 7943TIP3    H123786   7.461   1.005   5.805
 7943TIP3    H223787   7.404   0.869   5.837
 7944TIP3   OH223788   5.572   6.856   1.145
 7944TIP3    H123789   5.549   6.765   1.166
 7944TIP3    H223790   5.621   6.887   1.220
 7945TIP3   OH223791   6.961   3.224   1.174
 7945TIP3    H123792   7.045   3.261   1.146
 7945TIP3    H223793   6.911   3.213   1.093
 7946TIP3   OH223794   6.881   7.413   2.998
 7946TIP3    H123795   6.940   7.437   3.069
 7946TIP3    H223796   6.832   7.338   3.033
 7947TIP3   OH223797   6.031   0.578   3.792
 7947TIP3    H123798   6.001   0.578   3.882
 7947TIP3    H223799   6.037   0.485   3.768
 7948TIP3   OH223800   7.563   1.692   0.672
 7948TIP3    H123801   7.506   1.618   0.695
 7948TIP3    H223802   7.640   1.652   0.633
 7949TIP3   OH223803   8.154   3.416   5.080
 7949TIP3    H123804   8.060   3.414   5.065
 7949TIP3    H223805   8.192   3.434   4.993
 7950TIP3   OH223806   0.774   7.407   6.705
 7950TIP3    H123807   0.757   7.468   6.776
 7950TIP3    H223808   0.859   7.368   6.726
 7951TIP3   OH223809   2.886   1.194   3.519
 7951TIP3    H123810   2.949   1.266   3.523
 7951TIP3    H223811   2.802   1.236   3.502
 7952TIP3   OH223812   7.907   6.190   1.553
 7952TIP3    H123813   7.851   6.116   1.529
 7952TIP3    H223814   7.880   6.261   1.495
 7953TIP3   OH223815   3.012   4.859   2.927
 7953TIP3    H123816   2.935   4.812   2.958
 7953TIP3    H223817   3.046   4.904   3.004
 7954TIP3   OH223818   7.013   5.766   1.499
 7954TIP3    H123819   7.043   5.702   1.563
 7954TIP3    H223820   6.918   5.755   1.497
 7955TIP3   OH223821   5.806   3.062   4.787
 7955TIP3    H123822   5.844   3.145   4.817
 7955TIP3    H223823   5.717   3.062   4.823
 7956TIP3   OH223824   6.024   5.407   6.590
 7956TIP3    H123825   6.099   5.376   6.540
 7956TIP3    H223826   6.007   5.337   6.653
 7957TIP3   OH223827   0.707   5.813   0.552
 7957TIP3    H123828   0.743   5.828   0.465
 7957TIP3    H223829   0.779   5.770   0.600
 7958TIP3   OH223830   0.510   6.484   4.451
 7958TIP3    H123831   0.458   6.457   4.376
 7958TIP3    H223832   0.582   6.421   4.455
 7959TIP3   OH223833   0.181   2.695   4.595
 7959TIP3    H123834   0.197   2.757   4.524
 7959TIP3    H223835   0.254   2.633   4.590
 7960TIP3   OH223836   2.267   7.483   2.257
 7960TIP3    H123837   2.328   7.548   2.222
 7960TIP3    H223838   2.288   7.402   2.211
 7961TIP3   OH223839   5.302   5.799   1.481
 7961TIP3    H123840   5.394   5.821   1.470
 7961TIP3    H223841   5.268   5.864   1.542
 7962TIP3   OH223842   2.106   3.443   1.875
 7962TIP3    H123843   2.195   3.438   1.909
 7962TIP3    H223844   2.096   3.362   1.824
 7963TIP3   OH223845   1.513   6.693   4.834
 7963TIP3    H123846   1.507   6.775   4.882
 7963TIP3    H223847   1.572   6.639   4.887
 7964TIP3   OH223848   3.802   5.476   2.622
 7964TIP3    H123849   3.825   5.565   2.651
 7964TIP3    H223850   3.708   5.469   2.640
 7965TIP3   OH223851   1.411   1.980   2.665
 7965TIP3    H123852   1.502   1.998   2.688
 7965TIP3    H223853   1.360   2.033   2.726
 7966TIP3   OH223854   4.298   0.710   5.118
 7966TIP3    H123855   4.357   0.674   5.184
 7966TIP3    H223856   4.279   0.799   5.148
 7967TIP3   OH223857   6.217   7.569   5.359
 7967TIP3    H123858   6.267   7.648   5.383
 7967TIP3    H223859   6.191   7.585   5.268
 7968TIP3   OH223860   7.761   4.795   0.563
 7968TIP3    H123861   7.806   4.878   0.573
 7968TIP3    H223862   7.737   4.792   0.470
 7969TIP3   OH223863   5.565   6.860   1.835
 7969TIP3    H123864   5.633   6.793   1.823
 7969TIP3    H223865   5.539   6.852   1.927
 7970TIP3   OH223866   7.173   1.667   5.195
 7970TIP3    H123867   7.127   1.748   5.173
 7970TIP3    H223868   7.103   1.604   5.213
 7971TIP3   OH223869   4.445   5.561   4.402
 7971TIP3    H123870   4.402   5.534   4.483
 7971TIP3    H223871   4.480   5.481   4.364
 7972TIP3   OH223872   4.200   5.889   4.259
 7972TIP3    H123873   4.254   5.827   4.210
 7972TIP3    H223874   4.115   5.846   4.266
 7973TIP3   OH223875   2.596   0.368   3.614
 7973TIP3    H123876   2.686   0.367   3.580
 7973TIP3    H223877   2.555   0.291   3.575
 7974TIP3   OH223878   7.364   2.171   6.336
 7974TIP3    H123879   7.276   2.181   6.374
 7974TIP3    H223880   7.351   2.184   6.242
 7975TIP3   OH223881   5.140   7.720   3.673
 7975TIP3    H123882   5.093   7.649   3.718
 7975TIP3    H223883   5.080   7.794   3.678
 7976TIP3   OH223884   4.089   5.140   1.241
 7976TIP3    H123885   4.128   5.218   1.201
 7976TIP3    H223886   4.164   5.089   1.271
 7977TIP3   OH223887   7.918   7.443   2.868
 7977TIP3    H123888   7.882   7.421   2.782
 7977TIP3    H223889   7.880   7.378   2.927
 7978TIP3   OH223890   3.154   6.063   1.642
 7978TIP3    H123891   3.194   5.981   1.671
 7978TIP3    H223892   3.064   6.059   1.674
 7979TIP3   OH223893   3.054   3.550   5.937
 7979TIP3    H123894   3.023   3.470   5.895
 7979TIP3    H223895   3.004   3.621   5.895
 7980TIP3   OH223896   7.625   4.510   1.474
 7980TIP3    H123897   7.579   4.428   1.488
 7980TIP3    H223898   7.714   4.493   1.505
 7981TIP3   OH223899   7.329   1.106   0.037
 7981TIP3    H123900   7.360   1.017   0.018
 7981TIP3    H223901   7.408   1.161   0.033
 7982TIP3   OH223902   1.825   6.702   0.262
 7982TIP3    H123903   1.863   6.638   0.323
 7982TIP3    H223904   1.843   6.667   0.175
 7983TIP3   OH223905   3.724   0.782   2.208
 7983TIP3    H123906   3.707   0.728   2.285
 7983TIP3    H223907   3.773   0.724   2.149
 7984TIP3   OH223908   6.329   1.057   2.472
 7984TIP3    H123909   6.387   1.044   2.397
 7984TIP3    H223910   6.264   0.987   2.466
 7985TIP3   OH223911   7.592   6.815   0.466
 7985TIP3    H123912   7.541   6.737   0.441
 7985TIP3    H223913   7.539   6.858   0.533
 7986TIP3   OH223914   0.496   5.234   0.242
 7986TIP3    H123915   0.574   5.287   0.261
 7986TIP3    H223916   0.424   5.280   0.285
 7987TIP3   OH223917   0.848   5.817   3.865
 7987TIP3    H123918   0.917   5.872   3.828
 7987TIP3    H223919   0.877   5.728   3.848
 7988TIP3   OH223920   6.520   6.734   6.323
 7988TIP3    H123921   6.604   6.703   6.359
 7988TIP3    H223922   6.454   6.701   6.384
 7989TIP3   OH223923   0.934   7.183   0.934
 7989TIP3    H123924   0.971   7.124   1.000
 7989TIP3    H223925   0.938   7.270   0.973
 7990TIP3   OH223926   7.963   2.236   2.785
 7990TIP3    H123927   7.972   2.263   2.877
 7990TIP3    H223928   7.972   2.317   2.735
 7991TIP3   OH223929   6.219   0.134   4.600
 7991TIP3    H123930   6.192   0.150   4.691
 7991TIP3    H223931   6.241   0.221   4.566
 7992TIP3   OH223932   7.598   7.229   4.980
 7992TIP3    H123933   7.579   7.322   4.995
 7992TIP3    H223934   7.671   7.210   5.039
 7993TIP3   OH223935   0.527   4.569   2.985
 7993TIP3    H123936   0.510   4.561   2.891
 7993TIP3    H223937   0.451   4.616   3.019
 7994TIP3   OH223938   7.858   1.580   0.992
 7994TIP3    H123939   7.880   1.633   1.068
 7994TIP3    H223940   7.925   1.512   0.990
 7995TIP3   OH223941   8.103   0.345   5.009
 7995TIP3    H123942   8.108   0.284   5.082
 7995TIP3    H223943   8.098   0.290   4.931
 7996TIP3   OH223944   3.830   5.174   6.489
 7996TIP3    H123945   3.878   5.224   6.555
 7996TIP3    H223946   3.837   5.083   6.518
 7997TIP3   OH223947   1.896   2.076   0.977
 7997TIP3    H123948   1.930   2.131   1.047
 7997TIP3    H223949   1.970   2.019   0.954
 7998TIP3   OH223950   0.526   6.515   4.082
 7998TIP3    H123951   0.579   6.531   4.004
 7998TIP3    H223952   0.440   6.552   4.061
 7999TIP3   OH223953   7.834   0.255   4.791
 7999TIP3    H123954   7.744   0.279   4.768
 7999TIP3    H223955   7.884   0.337   4.784
 8000TIP3   OH223956   7.706   6.118   4.752
 8000TIP3    H123957   7.772   6.093   4.688
 8000TIP3    H223958   7.659   6.037   4.772
 8001TIP3   OH223959   0.168   6.545   3.327
 8001TIP3    H123960   0.226   6.488   3.379
 8001TIP3    H223961   0.129   6.486   3.262
 8002TIP3   OH223962   4.532   5.079   6.662
 8002TIP3    H123963   4.503   5.021   6.591
 8002TIP3    H223964   4.628   5.079   6.655
 8003TIP3   OH223965   0.938   1.383   4.161
 8003TIP3    H123966   0.865   1.444   4.147
 8003TIP3    H223967   0.974   1.368   4.074
 8004TIP3   OH223968   1.207   1.496   4.325
 8004TIP3    H123969   1.180   1.582   4.359
 8004TIP3    H223970   1.125   1.446   4.319
 8005TIP3   OH223971   0.223   0.430   2.410
 8005TIP3    H123972   0.271   0.437   2.327
 8005TIP3    H223973   0.235   0.340   2.438
 8006TIP3   OH223974   7.797   2.632   5.646
 8006TIP3    H123975   7.707   2.613   5.622
 8006TIP3    H223976   7.825   2.555   5.695
 8007TIP3   OH223977   8.150   4.498   2.934
 8007TIP3    H123978   8.134   4.487   2.840
 8007TIP3    H223979   8.065   4.487   2.975
 8008TIP3   OH223980   0.776   4.391   5.861
 8008TIP3    H123981   0.804   4.306   5.826
 8008TIP3    H223982   0.704   4.418   5.804
 8009TIP3   OH223983   7.690   3.328   4.430
 8009TIP3    H123984   7.609   3.380   4.426
 8009TIP3    H223985   7.732   3.343   4.346
 8010TIP3   OH223986   0.718   0.855   0.096
 8010TIP3    H123987   0.717   0.872   0.190
 8010TIP3    H223988   0.627   0.833   0.075
 8011TIP3   OH223989   3.459   2.292   3.611
 8011TIP3    H123990   3.446   2.346   3.689
 8011TIP3    H223991   3.494   2.352   3.546
 8012TIP3   OH223992   0.542   6.287   2.162
 8012TIP3    H123993   0.502   6.357   2.214
 8012TIP3    H223994   0.478   6.269   2.093
 8013TIP3   OH223995   0.206   3.724   4.723
 8013TIP3    H123996   0.134   3.787   4.728
 8013TIP3    H223997   0.285   3.778   4.737
 8014TIP3   OH223998   8.208   1.056   1.609
 8014TIP3    H123999   8.200   1.117   1.536
 8014TIP3    H224000   8.126   1.066   1.658
 8015TIP3   OH224001   7.222   5.705   2.134
 8015TIP3    H124002   7.243   5.789   2.175
 8015TIP3    H224003   7.259   5.711   2.046
 8016TIP3   OH224004   5.663   3.721   3.271
 8016TIP3    H124005   5.682   3.811   3.299
 8016TIP3    H224006   5.635   3.730   3.180
 8017TIP3   OH224007   0.306   7.464   0.667
 8017TIP3    H124008   0.388   7.432   0.705
 8017TIP3    H224009   0.295   7.413   0.587
 8018TIP3   OH224010   2.966   3.844   0.959
 8018TIP3    H124011   2.886   3.817   1.003
 8018TIP3    H224012   3.034   3.836   1.026
 8019TIP3   OH224013   7.903   6.710   1.956
 8019TIP3    H124014   7.979   6.656   1.981
 8019TIP3    H224015   7.872   6.672   1.874
 8020TIP3   OH224016   1.368   4.727   2.881
 8020TIP3    H124017   1.421   4.741   2.802
 8020TIP3    H224018   1.299   4.666   2.853
 8021TIP3   OH224019   4.606   2.599   4.277
 8021TIP3    H124020   4.667   2.530   4.303
 8021TIP3    H224021   4.559   2.620   4.357
 8022TIP3   OH224022   2.776   1.811   2.850
 8022TIP3    H124023   2.786   1.731   2.798
 8022TIP3    H224024   2.721   1.868   2.796
 8023TIP3   OH224025   6.003   0.610   5.425
 8023TIP3    H124026   5.914   0.617   5.458
 8023TIP3    H224027   5.993   0.586   5.333
 8024TIP3   OH224028   4.697   0.889   4.779
 8024TIP3    H124029   4.708   0.933   4.863
 8024TIP3    H224030   4.624   0.934   4.737
 8025TIP3   OH224031   5.583   2.298   2.712
 8025TIP3    H124032   5.603   2.228   2.650
 8025TIP3    H224033   5.556   2.372   2.658
 8026TIP3   OH224034   1.893   5.210   3.096
 8026TIP3    H124035   1.868   5.251   3.013
 8026TIP3    H224036   1.879   5.279   3.162
 8027TIP3   OH224037   0.982   1.312   1.949
 8027TIP3    H124038   1.072   1.301   1.980
 8027TIP3    H224039   0.948   1.223   1.939
 8028TIP3   OH224040   5.692   7.060   5.100
 8028TIP3    H124041   5.673   7.098   5.186
 8028TIP3    H224042   5.606   7.032   5.068
 8029TIP3   OH224043   6.973   1.373   1.469
 8029TIP3    H124044   6.962   1.444   1.405
 8029TIP3    H224045   6.893   1.376   1.521
 8030TIP3   OH224046   7.755   6.458   1.983
 8030TIP3    H124047   7.839   6.484   2.019
 8030TIP3    H224048   7.776   6.417   1.899
 8031TIP3   OH224049   4.164   4.896   1.009
 8031TIP3    H124050   4.198   4.813   1.044
 8031TIP3    H224051   4.180   4.959   1.079
 8032TIP3   OH224052   7.469   1.068   2.299
 8032TIP3    H124053   7.499   1.131   2.364
 8032TIP3    H224054   7.477   1.114   2.215
 8033TIP3   OH224055   1.707   2.227   4.047
 8033TIP3    H124056   1.782   2.234   3.988
 8033TIP3    H224057   1.688   2.133   4.049
 8034TIP3   OH224058   4.930   0.603   2.945
 8034TIP3    H124059   4.880   0.672   2.989
 8034TIP3    H224060   4.953   0.542   3.015
 8035TIP3   OH224061   1.025   5.007   0.633
 8035TIP3    H124062   1.002   4.991   0.541
 8035TIP3    H224063   1.086   4.938   0.656
 8036TIP3   OH224064  -0.001   2.511   2.255
 8036TIP3    H124065   0.007   2.593   2.206
 8036TIP3    H224066  -0.093   2.486   2.245
 8037TIP3   OH224067   2.202   2.750   5.273
 8037TIP3    H124068   2.142   2.782   5.204
 8037TIP3    H224069   2.230   2.829   5.319
 8038TIP3   OH224070   2.976   1.474   2.064
 8038TIP3    H124071   3.024   1.470   1.982
 8038TIP3    H224072   2.956   1.567   2.075
 8039TIP3   OH224073   1.023   3.862   2.506
 8039TIP3    H124074   1.092   3.808   2.466
 8039TIP3    H224075   1.020   3.941   2.453
 8040TIP3   OH224076   4.429   6.981   2.445
 8040TIP3    H124077   4.411   7.041   2.518
 8040TIP3    H224078   4.474   7.036   2.381
 8041TIP3   OH224079   6.157   4.078   6.715
 8041TIP3    H124080   6.202   4.105   6.795
 8041TIP3    H224081   6.097   4.151   6.696
 8042TIP3   OH224082   2.633   0.602   1.531
 8042TIP3    H124083   2.643   0.510   1.507
 8042TIP3    H224084   2.678   0.610   1.615
 8043TIP3   OH224085   6.261   6.967   1.970
 8043TIP3    H124086   6.246   6.963   1.876
 8043TIP3    H224087   6.179   7.002   2.005
 8044TIP3   OH224088   3.848   2.495   6.512
 8044TIP3    H124089   3.768   2.536   6.543
 8044TIP3    H224090   3.854   2.520   6.419
 8045TIP3   OH224091   2.970   7.406   3.577
 8045TIP3    H124092   3.018   7.396   3.495
 8045TIP3    H224093   2.895   7.348   3.568
 8046TIP3   OH224094   6.882   0.995   6.043
 8046TIP3    H124095   6.955   0.933   6.047
 8046TIP3    H224096   6.913   1.064   5.985
 8047TIP3   OH224097   4.733   1.810   1.987
 8047TIP3    H124098   4.755   1.865   1.912
 8047TIP3    H224099   4.697   1.730   1.949
 8048TIP3   OH224100   6.625   6.823   5.098
 8048TIP3    H124101   6.581   6.748   5.139
 8048TIP3    H224102   6.608   6.896   5.158
 8049TIP3   OH224103   4.321   2.162   1.324
 8049TIP3    H124104   4.391   2.098   1.336
 8049TIP3    H224105   4.353   2.240   1.369
 8050TIP3   OH224106   4.436   6.339   3.508
 8050TIP3    H124107   4.352   6.345   3.554
 8050TIP3    H224108   4.418   6.369   3.420
 8051TIP3   OH224109   6.209   7.585   4.156
 8051TIP3    H124110   6.303   7.603   4.154
 8051TIP3    H224111   6.173   7.637   4.084
 8052TIP3   OH224112   7.729   5.629   1.366
 8052TIP3    H124113   7.677   5.555   1.399
 8052TIP3    H224114   7.699   5.640   1.276
 8053TIP3   OH224115   2.700   0.140   4.815
 8053TIP3    H124116   2.660   0.222   4.787
 8053TIP3    H224117   2.706   0.147   4.910
 8054TIP3   OH224118   1.342   7.556   6.773
 8054TIP3    H124119   1.308   7.620   6.710
 8054TIP3    H224120   1.432   7.541   6.746
 8055TIP3   OH224121   7.180   3.590   3.685
 8055TIP3    H124122   7.109   3.535   3.717
 8055TIP3    H224123   7.245   3.589   3.756
 8056TIP3   OH224124   3.182   7.452   4.468
 8056TIP3    H124125   3.203   7.522   4.530
 8056TIP3    H224126   3.242   7.381   4.491
 8057TIP3   OH224127   3.579   7.791   6.065
 8057TIP3    H124128   3.580   7.791   5.970
 8057TIP3    H224129   3.486   7.787   6.089
 8058TIP3   OH224130   0.716   1.470   2.782
 8058TIP3    H124131   0.712   1.565   2.770
 8058TIP3    H224132   0.796   1.444   2.735
 8059TIP3   OH224133   3.690   5.664   3.558
 8059TIP3    H124134   3.603   5.632   3.534
 8059TIP3    H224135   3.731   5.686   3.474
 8060TIP3   OH224136   2.928   4.529   3.024
 8060TIP3    H124137   2.931   4.554   2.932
 8060TIP3    H224138   2.893   4.606   3.069
 8061TIP3   OH224139   3.156   6.772   6.315
 8061TIP3    H124140   3.090   6.705   6.330
 8061TIP3    H224141   3.208   6.738   6.242
 8062TIP3   OH224142   7.255   5.683   6.141
 8062TIP3    H124143   7.326   5.681   6.205
 8062TIP3    H224144   7.294   5.724   6.064
 8063TIP3   OH224145   2.715   6.180   1.687
 8063TIP3    H124146   2.739   6.207   1.775
 8063TIP3    H224147   2.671   6.256   1.649
 8064TIP3   OH224148   5.778   4.850   5.141
 8064TIP3    H124149   5.725   4.777   5.109
 8064TIP3    H224150   5.749   4.863   5.231
 8065TIP3   OH224151   5.421   3.266   0.155
 8065TIP3    H124152   5.427   3.278   0.250
 8065TIP3    H224153   5.338   3.308   0.131
 8066TIP3   OH224154   1.262   4.958   2.262
 8066TIP3    H124155   1.340   4.931   2.310
 8066TIP3    H224156   1.260   5.053   2.269
 8067TIP3   OH224157   2.952   3.400   1.632
 8067TIP3    H124158   2.977   3.309   1.616
 8067TIP3    H224159   2.903   3.426   1.554
 8068TIP3   OH224160   7.832   2.696   5.166
 8068TIP3    H124161   7.738   2.710   5.167
 8068TIP3    H224162   7.866   2.760   5.230
 8069TIP3   OH224163   0.595   7.573   4.197
 8069TIP3    H124164   0.602   7.593   4.291
 8069TIP3    H224165   0.684   7.548   4.171
 8070TIP3   OH224166   2.819   0.296   4.168
 8070TIP3    H124167   2.807   0.313   4.075
 8070TIP3    H224168   2.895   0.238   4.172
 8071TIP3   OH224169   5.666   3.600   5.382
 8071TIP3    H124170   5.697   3.513   5.406
 8071TIP3    H224171   5.572   3.588   5.368
 8072TIP3   OH224172   7.153   1.767   3.450
 8072TIP3    H124173   7.222   1.781   3.515
 8072TIP3    H224174   7.179   1.687   3.404
 8073TIP3   OH224175   6.163   4.679   0.942
 8073TIP3    H124176   6.161   4.765   0.984
 8073TIP3    H224177   6.082   4.636   0.971
 8074TIP3   OH224178   0.439   7.524   6.248
 8074TIP3    H124179   0.460   7.515   6.341
 8074TIP3    H224180   0.413   7.616   6.239
 8075TIP3   OH224181   0.230   6.278   2.257
 8075TIP3    H124182   0.240   6.307   2.348
 8075TIP3    H224183   0.277   6.195   2.254
 8076TIP3   OH224184   5.566   5.863   1.444
 8076TIP3    H124185   5.623   5.844   1.518
 8076TIP3    H224186   5.596   5.947   1.410
 8077TIP3   OH224187   6.925   6.231   4.516
 8077TIP3    H124188   6.954   6.260   4.603
 8077TIP3    H224189   6.847   6.178   4.535
 8078TIP3   OH224190   3.259   2.205   3.909
 8078TIP3    H124191   3.189   2.141   3.899
 8078TIP3    H224192   3.223   2.286   3.873
 8079TIP3   OH224193   1.587   0.999   5.459
 8079TIP3    H124194   1.578   0.904   5.457
 8079TIP3    H224195   1.500   1.032   5.436
 8080TIP3   OH224196   6.122   6.929   2.907
 8080TIP3    H124197   6.072   6.868   2.961
 8080TIP3    H224198   6.202   6.881   2.884
 8081TIP3   OH224199   6.999   3.556   2.994
 8081TIP3    H124200   6.921   3.538   3.046
 8081TIP3    H224201   6.967   3.571   2.906
 8082TIP3   OH224202   0.972   3.978   0.659
 8082TIP3    H124203   0.900   3.949   0.715
 8082TIP3    H224204   1.046   3.922   0.685
 8083TIP3   OH224205   3.017   0.536   6.769
 8083TIP3    H124206   2.935   0.545   6.720
 8083TIP3    H224207   3.028   0.620   6.813
 8084TIP3   OH224208   6.417   4.425   1.820
 8084TIP3    H124209   6.486   4.433   1.885
 8084TIP3    H224210   6.337   4.449   1.867
 8085TIP3   OH224211   7.748   6.502   4.756
 8085TIP3    H124212   7.671   6.449   4.774
 8085TIP3    H224213   7.808   6.443   4.711
 8086TIP3   OH224214   3.346   1.385   5.440
 8086TIP3    H124215   3.364   1.479   5.431
 8086TIP3    H224216   3.402   1.344   5.375
 8087TIP3   OH224217   1.017   5.398   2.764
 8087TIP3    H124218   0.969   5.318   2.785
 8087TIP3    H224219   1.058   5.380   2.679
 8088TIP3   OH224220   3.163   0.886   3.040
 8088TIP3    H124221   3.233   0.931   2.994
 8088TIP3    H224222   3.163   0.925   3.128
 8089TIP3   OH224223   7.020   0.667   0.222
 8089TIP3    H124224   7.113   0.687   0.221
 8089TIP3    H224225   7.013   0.588   0.277
 8090TIP3   OH224226   3.317   7.573   3.489
 8090TIP3    H124227   3.379   7.639   3.520
 8090TIP3    H224228   3.326   7.500   3.550
 8091TIP3   OH224229   0.322   1.721   5.467
 8091TIP3    H124230   0.383   1.745   5.536
 8091TIP3    H224231   0.268   1.799   5.453
 8092TIP3   OH224232   7.807   0.544   1.976
 8092TIP3    H124233   7.815   0.521   1.884
 8092TIP3    H224234   7.827   0.638   1.979
 8093TIP3   OH224235   1.328   5.135   0.539
 8093TIP3    H124236   1.336   5.171   0.628
 8093TIP3    H224237   1.311   5.042   0.552
 8094TIP3   OH224238   0.391   1.349   4.725
 8094TIP3    H124239   0.313   1.352   4.670
 8094TIP3    H224240   0.396   1.259   4.756
 8095TIP3   OH224241   4.987   2.937   0.823
 8095TIP3    H124242   4.954   2.889   0.747
 8095TIP3    H224243   4.956   3.027   0.809
 8096TIP3   OH224244   7.528   0.371   6.044
 8096TIP3    H124245   7.521   0.426   5.965
 8096TIP3    H224246   7.620   0.345   6.047
 8097TIP3   OH224247   4.465   7.311   3.749
 8097TIP3    H124248   4.528   7.258   3.702
 8097TIP3    H224249   4.383   7.299   3.701
 8098TIP3   OH224250   2.735   3.826   4.696
 8098TIP3    H124251   2.647   3.835   4.659
 8098TIP3    H224252   2.757   3.913   4.727
 8099TIP3   OH224253   0.936   7.740   5.023
 8099TIP3    H124254   0.923   7.819   5.075
 8099TIP3    H224255   0.874   7.748   4.951
 8100TIP3   OH224256   0.502   1.223   0.710
 8100TIP3    H124257   0.424   1.271   0.683
 8100TIP3    H224258   0.483   1.132   0.686
 8101TIP3   OH224259   1.186   3.017   2.015
 8101TIP3    H124260   1.259   3.016   1.952
 8101TIP3    H224261   1.138   2.936   1.995
 8102TIP3   OH224262   2.482   5.532   4.097
 8102TIP3    H124263   2.470   5.494   4.184
 8102TIP3    H224264   2.558   5.589   4.106
 8103TIP3   OH224265   0.679   0.461   6.189
 8103TIP3    H124266   0.763   0.431   6.224
 8103TIP3    H224267   0.678   0.430   6.098
 8104TIP3   OH224268   3.294   3.203   0.089
 8104TIP3    H124269   3.304   3.290   0.050
 8104TIP3    H224270   3.379   3.184   0.128
 8105TIP3   OH224271   6.328   1.607   4.128
 8105TIP3    H124272   6.234   1.600   4.110
 8105TIP3    H224273   6.345   1.701   4.126
 8106TIP3   OH224274   7.642   1.072   0.197
 8106TIP3    H124275   7.577   1.003   0.212
 8106TIP3    H224276   7.640   1.087   0.103
 8107TIP3   OH224277   7.860   7.128   4.532
 8107TIP3    H124278   7.932   7.190   4.542
 8107TIP3    H224279   7.781   7.181   4.547
 8108TIP3   OH224280   2.024   2.801   1.321
 8108TIP3    H124281   2.002   2.736   1.387
 8108TIP3    H224282   1.940   2.826   1.283
 8109TIP3   OH224283   3.643   6.510   2.682
 8109TIP3    H124284   3.653   6.516   2.777
 8109TIP3    H224285   3.717   6.561   2.647
 8110TIP3   OH224286   6.907   2.220   1.201
 8110TIP3    H124287   6.864   2.213   1.115
 8110TIP3    H224288   6.864   2.153   1.254
 8111TIP3   OH224289   6.829   7.733   5.134
 8111TIP3    H124290   6.911   7.778   5.112
 8111TIP3    H224291   6.838   7.712   5.227
 8112TIP3   OH224292   2.718   1.051   4.614
 8112TIP3    H124293   2.642   1.078   4.664
 8112TIP3    H224294   2.696   1.071   4.523
 8113TIP3   OH224295   3.757   1.086   4.133
 8113TIP3    H124296   3.743   1.176   4.104
 8113TIP3    H224297   3.687   1.070   4.195
 8114TIP3   OH224298   2.603   2.928   0.403
 8114TIP3    H124299   2.572   2.910   0.314
 8114TIP3    H224300   2.534   2.896   0.460
 8115TIP3   OH224301   3.693   4.323   5.475
 8115TIP3    H124302   3.643   4.303   5.554
 8115TIP3    H224303   3.633   4.303   5.403
 8116TIP3   OH224304   1.268   4.282   5.607
 8116TIP3    H124305   1.258   4.377   5.606
 8116TIP3    H224306   1.286   4.259   5.515
 8117TIP3   OH224307   0.490   3.689   1.669
 8117TIP3    H124308   0.402   3.684   1.707
 8117TIP3    H224309   0.541   3.624   1.716
 8118TIP3   OH224310   4.730   7.720   4.017
 8118TIP3    H124311   4.682   7.657   4.071
 8118TIP3    H224312   4.733   7.800   4.070
 8119TIP3   OH224313   7.620   5.975   1.118
 8119TIP3    H124314   7.622   6.067   1.145
 8119TIP3    H224315   7.542   5.967   1.063
 8120TIP3   OH224316   1.548   1.906   5.278
 8120TIP3    H124317   1.566   1.833   5.337
 8120TIP3    H224318   1.531   1.866   5.193
 8121TIP3   OH224319   5.480   2.657   5.122
 8121TIP3    H124320   5.570   2.679   5.100
 8121TIP3    H224321   5.450   2.602   5.049
 8122TIP3   OH224322   2.098   2.871   5.058
 8122TIP3    H124323   2.125   2.849   4.969
 8122TIP3    H224324   2.030   2.937   5.048
 8123TIP3   OH224325   1.825   2.827   2.646
 8123TIP3    H124326   1.830   2.884   2.723
 8123TIP3    H224327   1.820   2.739   2.683
 8124TIP3   OH224328   1.004   5.032   1.505
 8124TIP3    H124329   1.046   5.019   1.420
 8124TIP3    H224330   0.963   4.948   1.524
 8125TIP3   OH224331   6.230   0.376   0.622
 8125TIP3    H124332   6.161   0.437   0.594
 8125TIP3    H224333   6.280   0.360   0.543
 8126TIP3   OH224334   7.841   2.996   2.238
 8126TIP3    H124335   7.876   2.984   2.326
 8126TIP3    H224336   7.878   3.080   2.209
 8127TIP3   OH224337   2.907   5.590   1.713
 8127TIP3    H124338   2.923   5.547   1.629
 8127TIP3    H224339   2.987   5.575   1.763
 8128TIP3   OH224340   7.841   1.855   1.795
 8128TIP3    H124341   7.851   1.767   1.831
 8128TIP3    H224342   7.773   1.847   1.728
 8129TIP3   OH224343   7.981   0.179   1.130
 8129TIP3    H124344   7.959   0.167   1.038
 8129TIP3    H224345   8.073   0.205   1.130
 8130TIP3   OH224346   7.051   4.078   6.315
 8130TIP3    H124347   7.046   3.997   6.265
 8130TIP3    H224348   7.143   4.104   6.310
 8131TIP3   OH224349   0.542   2.453   1.305
 8131TIP3    H124350   0.536   2.430   1.212
 8131TIP3    H224351   0.462   2.502   1.322
 8132TIP3   OH224352   0.611   0.467   1.158
 8132TIP3    H124353   0.665   0.508   1.226
 8132TIP3    H224354   0.534   0.436   1.205
 8133TIP3   OH224355   6.957   4.300   2.012
 8133TIP3    H124356   6.869   4.264   2.000
 8133TIP3    H224357   6.944   4.394   2.012
 8134TIP3   OH224358   1.777   0.545   5.946
 8134TIP3    H124359   1.759   0.606   6.017
 8134TIP3    H224360   1.700   0.489   5.941
 8135TIP3   OH224361   6.733   3.889   4.092
 8135TIP3    H124362   6.807   3.921   4.144
 8135TIP3    H224363   6.661   3.883   4.155
 8136TIP3   OH224364   5.323   4.643   4.073
 8136TIP3    H124365   5.316   4.610   3.984
 8136TIP3    H224366   5.356   4.568   4.124
 8137TIP3   OH224367   4.496   0.969   4.607
 8137TIP3    H124368   4.467   1.060   4.607
 8137TIP3    H224369   4.422   0.920   4.571
 8138TIP3   OH224370   0.536   5.139   3.473
 8138TIP3    H124371   0.567   5.206   3.413
 8138TIP3    H224372   0.616   5.098   3.507
 8139TIP3   OH224373   2.394   4.132   2.621
 8139TIP3    H124374   2.317   4.187   2.608
 8139TIP3    H224375   2.444   4.140   2.539
 8140TIP3   OH224376   1.577   2.393   4.625
 8140TIP3    H124377   1.504   2.425   4.677
 8140TIP3    H224378   1.652   2.445   4.654
 8141TIP3   OH224379   7.387   7.751   5.066
 8141TIP3    H124380   7.428   7.774   5.150
 8141TIP3    H224381   7.313   7.694   5.090
 8142TIP3   OH224382   3.532   4.267   3.370
 8142TIP3    H124383   3.491   4.250   3.455
 8142TIP3    H224384   3.611   4.212   3.370
 8143TIP3   OH224385   5.976   4.860   3.492
 8143TIP3    H124386   6.038   4.799   3.453
 8143TIP3    H224387   5.903   4.805   3.522
 8144TIP3   OH224388   2.901   2.756   2.344
 8144TIP3    H124389   2.883   2.666   2.316
 8144TIP3    H224390   2.829   2.807   2.307
 8145TIP3   OH224391   5.569   6.497   6.119
 8145TIP3    H124392   5.534   6.520   6.033
 8145TIP3    H224393   5.590   6.581   6.160
 8146TIP3   OH224394   5.561   6.497   4.372
 8146TIP3    H124395   5.553   6.576   4.425
 8146TIP3    H224396   5.583   6.428   4.435
 8147TIP3   OH224397   6.727   1.516   2.623
 8147TIP3    H124398   6.808   1.471   2.600
 8147TIP3    H224399   6.691   1.467   2.697
 8148TIP3   OH224400   7.108   6.594   0.865
 8148TIP3    H124401   7.173   6.531   0.834
 8148TIP3    H224402   7.156   6.652   0.924
 8149TIP3   OH224403   0.959   7.577   0.856
 8149TIP3    H124404   0.865   7.569   0.839
 8149TIP3    H224405   1.000   7.526   0.786
 8150TIP3   OH224406   6.493   3.952   5.427
 8150TIP3    H124407   6.553   3.891   5.471
 8150TIP3    H224408   6.475   3.911   5.342
 8151TIP3   OH224409   2.361   3.883   3.003
 8151TIP3    H124410   2.352   3.978   2.995
 8151TIP3    H224411   2.347   3.850   2.914
 8152TIP3   OH224412   0.716   6.313   2.430
 8152TIP3    H124413   0.669   6.230   2.434
 8152TIP3    H224414   0.647   6.379   2.421
 8153TIP3   OH224415   4.443   0.481   2.893
 8153TIP3    H124416   4.420   0.412   2.955
 8153TIP3    H224417   4.483   0.549   2.947
 8154TIP3   OH224418   4.726   5.821   3.420
 8154TIP3    H124419   4.724   5.774   3.504
 8154TIP3    H224420   4.693   5.757   3.356
 8155TIP3   OH224421   5.824   4.887   1.947
 8155TIP3    H124422   5.900   4.870   1.890
 8155TIP3    H224423   5.850   4.961   2.001
 8156TIP3   OH224424   7.034   2.348   6.719
 8156TIP3    H124425   7.046   2.275   6.781
 8156TIP3    H224426   6.972   2.406   6.764
 8157TIP3   OH224427   6.502   0.641   0.627
 8157TIP3    H124428   6.586   0.627   0.584
 8157TIP3    H224429   6.503   0.733   0.652
 8158TIP3   OH224430   3.541   2.774   0.710
 8158TIP3    H124431   3.497   2.848   0.753
 8158TIP3    H224432   3.549   2.708   0.778
 8159TIP3   OH224433   2.852   6.672   4.079
 8159TIP3    H124434   2.930   6.629   4.042
 8159TIP3    H224435   2.886   6.753   4.117
 8160TIP3   OH224436   6.183   5.973   0.765
 8160TIP3    H124437   6.144   6.034   0.827
 8160TIP3    H224438   6.133   5.892   0.776
 8161TIP3   OH224439   0.124   3.111   3.378
 8161TIP3    H124440   0.190   3.171   3.343
 8161TIP3    H224441   0.153   3.024   3.349
 8162TIP3   OH224442   6.198   4.893   0.195
 8162TIP3    H124443   6.173   4.914   0.285
 8162TIP3    H224444   6.287   4.857   0.203
 8163TIP3   OH224445   3.923   2.386   5.971
 8163TIP3    H124446   3.862   2.431   6.030
 8163TIP3    H224447   3.888   2.404   5.883
 8164TIP3   OH224448   3.079   1.650   3.429
 8164TIP3    H124449   3.145   1.718   3.415
 8164TIP3    H224450   3.043   1.668   3.515
 8165TIP3   OH224451   3.251   0.969   2.443
 8165TIP3    H124452   3.323   0.919   2.482
 8165TIP3    H224453   3.234   0.926   2.360
 8166TIP3   OH224454   5.262   1.828   0.281
 8166TIP3    H124455   5.320   1.873   0.220
 8166TIP3    H224456   5.230   1.752   0.233
 8167TIP3   OH224457   3.076   3.580   6.229
 8167TIP3    H124458   3.155   3.531   6.252
 8167TIP3    H224459   3.072   3.574   6.133
 8168TIP3   OH224460   3.242   7.159   1.472
 8168TIP3    H124461   3.317   7.102   1.488
 8168TIP3    H224462   3.280   7.244   1.452
 8169TIP3   OH224463   5.159   6.379   3.576
 8169TIP3    H124464   5.194   6.311   3.634
 8169TIP3    H224465   5.078   6.341   3.541
 8170TIP3   OH224466   2.346   1.154   2.131
 8170TIP3    H124467   2.370   1.063   2.113
 8170TIP3    H224468   2.312   1.187   2.048
 8171TIP3   OH224469   7.213   3.646   1.287
 8171TIP3    H124470   7.231   3.614   1.198
 8171TIP3    H224471   7.244   3.736   1.287
 8172TIP3   OH224472   2.044   5.133   6.731
 8172TIP3    H124473   2.007   5.207   6.682
 8172TIP3    H224474   2.101   5.174   6.797
 8173TIP3   OH224475   7.391   6.549   5.004
 8173TIP3    H124476   7.408   6.635   5.043
 8173TIP3    H224477   7.424   6.487   5.069
 8174TIP3   OH224478   0.438   0.757   3.090
 8174TIP3    H124479   0.488   0.725   3.165
 8174TIP3    H224480   0.393   0.835   3.122
 8175TIP3   OH224481   0.555   6.301   5.991
 8175TIP3    H124482   0.579   6.242   6.062
 8175TIP3    H224483   0.639   6.329   5.953
 8176TIP3   OH224484   7.407   2.756   4.876
 8176TIP3    H124485   7.491   2.802   4.873
 8176TIP3    H224486   7.357   2.793   4.803
 8177TIP3   OH224487   7.502   6.571   1.859
 8177TIP3    H124488   7.497   6.628   1.782
 8177TIP3    H224489   7.595   6.557   1.873
 8178TIP3   OH224490   2.365   1.640   2.367
 8178TIP3    H124491   2.284   1.594   2.389
 8178TIP3    H224492   2.343   1.691   2.289
 8179TIP3   OH224493   4.868   2.308   6.103
 8179TIP3    H124494   4.802   2.305   6.173
 8179TIP3    H224495   4.841   2.239   6.043
 8180TIP3   OH224496   5.130   1.036   1.357
 8180TIP3    H124497   5.219   1.000   1.357
 8180TIP3    H224498   5.142   1.130   1.349
 8181TIP3   OH224499   3.131   7.678   5.518
 8181TIP3    H124500   3.151   7.585   5.504
 8181TIP3    H224501   3.216   7.722   5.512
 8182TIP3   OH224502   8.222   4.575   4.944
 8182TIP3    H124503   8.197   4.660   4.982
 8182TIP3    H224504   8.234   4.518   5.020
 8183TIP3   OH224505   3.822   1.581   1.667
 8183TIP3    H124506   3.726   1.579   1.661
 8183TIP3    H224507   3.849   1.494   1.639
 8184TIP3   OH224508   0.745   2.751   6.250
 8184TIP3    H124509   0.687   2.685   6.214
 8184TIP3    H224510   0.724   2.831   6.200
 8185TIP3   OH224511   7.473   5.125   5.482
 8185TIP3    H124512   7.479   5.163   5.395
 8185TIP3    H224513   7.498   5.033   5.471
 8186TIP3   OH224514   4.371   3.937   2.148
 8186TIP3    H124515   4.383   3.844   2.163
 8186TIP3    H224516   4.372   3.976   2.236
 8187TIP3   OH224517   0.462   6.268   1.476
 8187TIP3    H124518   0.474   6.248   1.383
 8187TIP3    H224519   0.547   6.302   1.504
 8188TIP3   OH224520   7.394   6.574   4.346
 8188TIP3    H124521   7.456   6.585   4.418
 8188TIP3    H224522   7.322   6.523   4.385
 8189TIP3   OH224523   7.886   6.273   3.747
 8189TIP3    H124524   7.837   6.355   3.752
 8189TIP3    H224525   7.876   6.234   3.834
 8190TIP3   OH224526   1.638   3.422   4.067
 8190TIP3    H124527   1.696   3.401   3.994
 8190TIP3    H224528   1.601   3.507   4.044
 8191TIP3   OH224529   6.869   3.456   5.507
 8191TIP3    H124530   6.883   3.473   5.414
 8191TIP3    H224531   6.840   3.365   5.510
 8192TIP3   OH224532   0.811   6.770   2.329
 8192TIP3    H124533   0.872   6.786   2.257
 8192TIP3    H224534   0.725   6.795   2.294
 8193TIP3   OH224535   0.530   2.127   6.059
 8193TIP3    H124536   0.545   2.035   6.077
 8193TIP3    H224537   0.438   2.133   6.033
 8194TIP3   OH224538   0.862   0.306   0.768
 8194TIP3    H124539   0.822   0.262   0.693
 8194TIP3    H224540   0.884   0.235   0.829
 8195TIP3   OH224541   5.808   2.068   4.003
 8195TIP3    H124542   5.737   2.020   3.961
 8195TIP3    H224543   5.819   2.024   4.088
 8196TIP3   OH224544   4.522   7.645   2.388
 8196TIP3    H124545   4.506   7.574   2.450
 8196TIP3    H224546   4.529   7.601   2.303
 8197TIP3   OH224547   3.852   6.620   5.212
 8197TIP3    H124548   3.927   6.645   5.265
 8197TIP3    H224549   3.815   6.543   5.257
 8198TIP3   OH224550   8.141   6.672   3.472
 8198TIP3    H124551   8.190   6.708   3.545
 8198TIP3    H224552   8.147   6.739   3.403
 8199TIP3   OH224553   0.188   3.042   4.184
 8199TIP3    H124554   0.116   3.100   4.208
 8199TIP3    H224555   0.181   3.033   4.089
 8200TIP3   OH224556   4.982   7.005   1.234
 8200TIP3    H124557   4.976   7.066   1.308
 8200TIP3    H224558   4.970   6.919   1.273
 8201TIP3   OH224559   1.892   0.600   6.613
 8201TIP3    H124560   1.959   0.534   6.594
 8201TIP3    H224561   1.869   0.585   6.705
 8202TIP3   OH224562   3.181   6.504   3.091
 8202TIP3    H124563   3.223   6.571   3.145
 8202TIP3    H224564   3.132   6.450   3.154
 8203TIP3   OH224565   2.918   4.117   3.288
 8203TIP3    H124566   2.897   4.069   3.209
 8203TIP3    H224567   2.957   4.199   3.257
 8204TIP3   OH224568   4.613   4.565   2.783
 8204TIP3    H124569   4.647   4.601   2.866
 8204TIP3    H224570   4.663   4.485   2.769
 8205TIP3   OH224571   2.856   1.890   5.261
 8205TIP3    H124572   2.899   1.935   5.189
 8205TIP3    H224573   2.764   1.886   5.236
 8206TIP3   OH224574   4.188   7.798   2.232
 8206TIP3    H124575   4.212   7.726   2.290
 8206TIP3    H224576   4.124   7.849   2.282
 8207TIP3   OH224577   5.583   6.790   6.507
 8207TIP3    H124578   5.492   6.787   6.537
 8207TIP3    H224579   5.633   6.749   6.579
 8208TIP3   OH224580   3.450   6.402   3.646
 8208TIP3    H124581   3.542   6.384   3.626
 8208TIP3    H224582   3.448   6.496   3.665
 8209TIP3   OH224583   2.401   4.013   2.015
 8209TIP3    H124584   2.403   3.921   2.040
 8209TIP3    H224585   2.319   4.023   1.966
 8210TIP3   OH224586   2.245   2.527   6.646
 8210TIP3    H124587   2.333   2.541   6.681
 8210TIP3    H224588   2.258   2.480   6.564
 8211TIP3   OH224589   5.197   4.512   2.328
 8211TIP3    H124590   5.144   4.591   2.326
 8211TIP3    H224591   5.197   4.480   2.238
 8212TIP3   OH224592   6.718   6.553   4.183
 8212TIP3    H124593   6.739   6.571   4.091
 8212TIP3    H224594   6.723   6.639   4.225
 8213TIP3   OH224595   3.539   1.213   4.758
 8213TIP3    H124596   3.589   1.211   4.676
 8213TIP3    H224597   3.457   1.256   4.735
 8214TIP3   OH224598   0.890   3.923   5.337
 8214TIP3    H124599   0.938   3.909   5.256
 8214TIP3    H224600   0.956   3.952   5.400
 8215TIP3   OH224601   0.128   6.681   1.220
 8215TIP3    H124602   0.076   6.699   1.142
 8215TIP3    H224603   0.112   6.756   1.278
 8216TIP3   OH224604   5.456   4.463   1.923
 8216TIP3    H124605   5.444   4.479   2.016
 8216TIP3    H224606   5.461   4.368   1.915
 8217TIP3   OH224607   0.140   3.479   0.437
 8217TIP3    H124608   0.103   3.488   0.525
 8217TIP3    H224609   0.066   3.452   0.383
 8218TIP3   OH224610   6.112   5.724   4.336
 8218TIP3    H124611   6.118   5.786   4.409
 8218TIP3    H224612   6.114   5.780   4.258
 8219TIP3   OH224613   3.882   2.415   2.136
 8219TIP3    H124614   3.841   2.380   2.215
 8219TIP3    H224615   3.858   2.507   2.136
 8220TIP3   OH224616   2.414   4.835   1.810
 8220TIP3    H124617   2.361   4.782   1.751
 8220TIP3    H224618   2.441   4.775   1.879
 8221TIP3   OH224619   1.447   4.721   2.613
 8221TIP3    H124620   1.360   4.705   2.576
 8221TIP3    H224621   1.491   4.776   2.548
 8222TIP3   OH224622   1.872   0.057   6.023
 8222TIP3    H124623   1.798   0.116   6.039
 8222TIP3    H224624   1.896   0.025   6.110
 8223TIP3   OH224625   2.091   0.286   2.625
 8223TIP3    H124626   2.092   0.257   2.717
 8223TIP3    H224627   2.071   0.379   2.629
 8224TIP3   OH224628   1.205   0.445   0.914
 8224TIP3    H124629   1.262   0.380   0.954
 8224TIP3    H224630   1.120   0.433   0.957
 8225TIP3   OH224631   1.037   5.435   2.037
 8225TIP3    H124632   1.032   5.340   2.045
 8225TIP3    H224633   1.124   5.458   2.070
 8226TIP3   OH224634   0.582   1.945   5.405
 8226TIP3    H124635   0.592   1.927   5.499
 8226TIP3    H224636   0.598   1.861   5.363
 8227TIP3   OH224637   0.284   0.474   3.355
 8227TIP3    H124638   0.310   0.413   3.424
 8227TIP3    H224639   0.230   0.539   3.399
 8228TIP3   OH224640   0.289   6.590   2.925
 8228TIP3    H124641   0.368   6.615   2.877
 8228TIP3    H224642   0.307   6.616   3.016
 8229TIP3   OH224643   2.833   1.521   3.345
 8229TIP3    H124644   2.915   1.559   3.378
 8229TIP3    H224645   2.845   1.517   3.250
 8230TIP3   OH224646   5.266   5.019   1.017
 8230TIP3    H124647   5.194   4.958   1.001
 8230TIP3    H224648   5.298   4.995   1.104
 8231TIP3   OH224649   4.733   5.755   1.460
 8231TIP3    H124650   4.754   5.841   1.495
 8231TIP3    H224651   4.798   5.696   1.499
 8232TIP3   OH224652   5.971   5.980   1.978
 8232TIP3    H124653   6.043   6.021   2.026
 8232TIP3    H224654   5.895   5.990   2.035
 8233TIP3   OH224655   6.070   2.218   0.612
 8233TIP3    H124656   6.016   2.230   0.690
 8233TIP3    H224657   6.153   2.260   0.633
 8234TIP3   OH224658   1.424   0.432   0.243
 8234TIP3    H124659   1.336   0.467   0.254
 8234TIP3    H224660   1.452   0.408   0.332
 8235TIP3   OH224661   3.326   3.982   0.656
 8235TIP3    H124662   3.372   3.991   0.740
 8235TIP3    H224663   3.246   3.933   0.678
 8236TIP3   OH224664   2.237   4.880   0.407
 8236TIP3    H124665   2.288   4.865   0.328
 8236TIP3    H224666   2.201   4.794   0.429
 8237TIP3   OH224667   3.382   7.840   5.185
 8237TIP3    H124668   3.385   7.887   5.102
 8237TIP3    H224669   3.316   7.772   5.171
 8238TIP3   OH224670   6.241   4.734   3.942
 8238TIP3    H124671   6.232   4.766   4.032
 8238TIP3    H224672   6.327   4.691   3.941
 8239TIP3   OH224673   6.069   0.217   6.045
 8239TIP3    H124674   6.069   0.121   6.046
 8239TIP3    H224675   6.039   0.242   6.132
 8240TIP3   OH224676   4.581   3.779   4.021
 8240TIP3    H124677   4.646   3.710   4.016
 8240TIP3    H224678   4.534   3.773   3.938
 8241TIP3   OH224679   2.236   1.799   6.522
 8241TIP3    H124680   2.193   1.880   6.551
 8241TIP3    H224681   2.197   1.780   6.437
 8242TIP3   OH224682   1.030   0.376   2.426
 8242TIP3    H124683   1.112   0.401   2.384
 8242TIP3    H224684   0.978   0.456   2.425
 8243TIP3   OH224685   3.331   6.316   3.336
 8243TIP3    H124686   3.371   6.294   3.420
 8243TIP3    H224687   3.307   6.231   3.298
 8244TIP3   OH224688   2.226   0.457   3.991
 8244TIP3    H124689   2.227   0.546   4.025
 8244TIP3    H224690   2.314   0.423   4.010
 8245TIP3   OH224691   8.136   0.761   5.942
 8245TIP3    H124692   8.173   0.834   5.893
 8245TIP3    H224693   8.211   0.706   5.964
 8246TIP3   OH224694   0.514   5.025   1.127
 8246TIP3    H124695   0.449   5.070   1.182
 8246TIP3    H224696   0.593   5.078   1.136
 8247TIP3   OH224697   4.175   0.914   2.671
 8247TIP3    H124698   4.190   0.991   2.615
 8247TIP3    H224699   4.254   0.908   2.725
 8248TIP3   OH224700   1.839   0.133   4.851
 8248TIP3    H124701   1.830   0.218   4.895
 8248TIP3    H224702   1.839   0.070   4.923
 8249TIP3   OH224703   2.564   4.977   2.193
 8249TIP3    H124704   2.639   4.999   2.249
 8249TIP3    H224705   2.561   5.048   2.128
 8250TIP3   OH224706   5.223   6.474   4.306
 8250TIP3    H124707   5.300   6.473   4.250
 8250TIP3    H224708   5.153   6.508   4.251
 8251TIP3   OH224709   2.152   6.419   4.166
 8251TIP3    H124710   2.185   6.461   4.245
 8251TIP3    H224711   2.231   6.394   4.117
 8252TIP3   OH224712   4.170   7.044   6.096
 8252TIP3    H124713   4.213   6.959   6.094
 8252TIP3    H224714   4.234   7.104   6.057
 8253TIP3   OH224715   2.408   4.249   0.465
 8253TIP3    H124716   2.381   4.338   0.442
 8253TIP3    H224717   2.330   4.209   0.503
 8254TIP3   OH224718   1.814   4.431   6.728
 8254TIP3    H124719   1.754   4.357   6.729
 8254TIP3    H224720   1.837   4.442   6.635
 8255TIP3   OH224721   5.430   5.792   2.835
 8255TIP3    H124722   5.385   5.710   2.815
 8255TIP3    H224723   5.501   5.766   2.895
 8256TIP3   OH224724   6.457   3.660   2.294
 8256TIP3    H124725   6.429   3.704   2.374
 8256TIP3    H224726   6.429   3.569   2.305
 8257TIP3   OH224727   2.655   3.840   3.764
 8257TIP3    H124728   2.690   3.762   3.720
 8257TIP3    H224729   2.578   3.808   3.811
 8258TIP3   OH224730   7.130   7.303   2.386
 8258TIP3    H124731   7.215   7.316   2.429
 8258TIP3    H224732   7.067   7.309   2.457
 8259TIP3   OH224733   0.906   1.716   4.722
 8259TIP3    H124734   0.888   1.799   4.678
 8259TIP3    H224735   0.853   1.652   4.675
 8260TIP3   OH224736   8.070   5.105   1.663
 8260TIP3    H124737   8.001   5.064   1.610
 8260TIP3    H224738   8.023   5.144   1.737
 8261TIP3   OH224739   1.061   3.664   1.844
 8261TIP3    H124740   1.008   3.589   1.818
 8261TIP3    H224741   1.127   3.672   1.776
 8262TIP3   OH224742   7.525   4.575   1.217
 8262TIP3    H124743   7.432   4.571   1.196
 8262TIP3    H224744   7.530   4.548   1.309
 8263TIP3   OH224745   0.526   0.882   4.954
 8263TIP3    H124746   0.582   0.959   4.953
 8263TIP3    H224747   0.526   0.853   5.045
 8264TIP3   OH224748   7.706   4.385  -0.009
 8264TIP3    H124749   7.762   4.448  -0.053
 8264TIP3    H224750   7.766   4.320   0.027
 8265TIP3   OH224751   1.485   0.871   4.551
 8265TIP3    H124752   1.457   0.952   4.508
 8265TIP3    H224753   1.417   0.855   4.617
 8266TIP3   OH224754   3.592   6.843   0.064
 8266TIP3    H124755   3.616   6.752   0.045
 8266TIP3    H224756   3.522   6.836   0.130
 8267TIP3   OH224757   4.902   2.283   2.100
 8267TIP3    H124758   4.951   2.203   2.113
 8267TIP3    H224759   4.811   2.254   2.088
 8268TIP3   OH224760   0.390   1.021   6.174
 8268TIP3    H124761   0.337   0.984   6.245
 8268TIP3    H224762   0.348   0.990   6.094
 8269TIP3   OH224763   0.113   4.038   4.790
 8269TIP3    H124764   0.063   4.090   4.852
 8269TIP3    H224765   0.145   4.102   4.726
 8270TIP3   OH224766   2.724   0.502   2.898
 8270TIP3    H124767   2.666   0.526   2.826
 8270TIP3    H224768   2.770   0.583   2.919
 8271TIP3   OH224769   0.797   6.147   4.234
 8271TIP3    H124770   0.815   6.062   4.193
 8271TIP3    H224771   0.877   6.197   4.221
 8272TIP3   OH224772   1.542   3.682   4.014
 8272TIP3    H124773   1.525   3.722   4.099
 8272TIP3    H224774   1.606   3.740   3.972
 8273TIP3   OH224775   0.254   0.865   4.182
 8273TIP3    H124776   0.183   0.902   4.234
 8273TIP3    H224777   0.218   0.784   4.146
 8274TIP3   OH224778   2.515   1.158   4.762
 8274TIP3    H124779   2.554   1.207   4.834
 8274TIP3    H224780   2.430   1.200   4.747
 8275TIP3   OH224781   0.765   0.674   6.507
 8275TIP3    H124782   0.786   0.767   6.517
 8275TIP3    H224783   0.796   0.634   6.589
 8276TIP3   OH224784   3.514   5.342   4.153
 8276TIP3    H124785   3.591   5.294   4.182
 8276TIP3    H224786   3.523   5.346   4.058
 8277TIP3   OH224787   4.900   2.286   5.111
 8277TIP3    H124788   4.954   2.233   5.170
 8277TIP3    H224789   4.866   2.356   5.167
 8278TIP3   OH224790   3.894   7.330   3.809
 8278TIP3    H124791   3.982   7.365   3.796
 8278TIP3    H224792   3.835   7.403   3.789
 8279TIP3   OH224793   7.733   6.508   3.821
 8279TIP3    H124794   7.776   6.573   3.877
 8279TIP3    H224795   7.659   6.555   3.783
 8280TIP3   OH224796   4.904   4.141   2.928
 8280TIP3    H124797   4.885   4.199   2.854
 8280TIP3    H224798   4.862   4.059   2.905
 8281TIP3   OH224799   0.730   6.924   4.090
 8281TIP3    H124800   0.794   6.890   4.153
 8281TIP3    H224801   0.773   6.999   4.050
 8282TIP3   OH224802   4.298   5.165   2.657
 8282TIP3    H124803   4.294   5.241   2.600
 8282TIP3    H224804   4.232   5.182   2.724
 8283TIP3   OH224805   0.270   0.971   3.207
 8283TIP3    H124806   0.277   1.038   3.276
 8283TIP3    H224807   0.290   1.019   3.126
 8284TIP3   OH224808   6.035   2.873   3.088
 8284TIP3    H124809   5.996   2.942   3.142
 8284TIP3    H224810   6.049   2.914   3.003
 8285TIP3   OH224811   2.942   5.904   5.066
 8285TIP3    H124812   2.850   5.925   5.080
 8285TIP3    H224813   2.944   5.852   4.986
 8286TIP3   OH224814   1.098   0.299   1.298
 8286TIP3    H124815   1.049   0.336   1.225
 8286TIP3    H224816   1.132   0.216   1.265
 8287TIP3   OH224817   1.795   2.812   3.223
 8287TIP3    H124818   1.723   2.873   3.208
 8287TIP3    H224819   1.770   2.765   3.302
 8288TIP3   OH224820   0.175   5.512   4.324
 8288TIP3    H124821   0.150   5.480   4.411
 8288TIP3    H224822   0.161   5.437   4.266
 8289TIP3   OH224823   0.637   2.102   1.615
 8289TIP3    H124824   0.723   2.125   1.580
 8289TIP3    H224825   0.649   2.015   1.653
 8290TIP3   OH224826   4.480   4.786   3.113
 8290TIP3    H124827   4.564   4.807   3.071
 8290TIP3    H224828   4.501   4.714   3.173
 8291TIP3   OH224829   4.242   6.163   4.486
 8291TIP3    H124830   4.321   6.156   4.431
 8291TIP3    H224831   4.233   6.257   4.503
 8292TIP3   OH224832   0.845   1.183   4.755
 8292TIP3    H124833   0.769   1.157   4.703
 8292TIP3    H224834   0.809   1.242   4.822
 8293TIP3   OH224835   5.832   7.330   3.155
 8293TIP3    H124836   5.871   7.256   3.107
 8293TIP3    H224837   5.854   7.313   3.247
 8294TIP3   OH224838   5.831   6.669   3.978
 8294TIP3    H124839   5.923   6.651   3.993
 8294TIP3    H224840   5.800   6.703   4.062
 8295TIP3   OH224841   4.679   3.339   5.750
 8295TIP3    H124842   4.743   3.301   5.690
 8295TIP3    H224843   4.595   3.304   5.720
 8296TIP3   OH224844   3.532   5.942   4.457
 8296TIP3    H124845   3.614   5.942   4.407
 8296TIP3    H224846   3.508   6.034   4.465
 8297TIP3   OH224847   7.170   4.999   5.124
 8297TIP3    H124848   7.204   5.032   5.041
 8297TIP3    H224849   7.154   5.078   5.176
 8298TIP3   OH224850   4.358   2.199   0.370
 8298TIP3    H124851   4.339   2.249   0.449
 8298TIP3    H224852   4.444   2.228   0.342
 8299TIP3   OH224853   1.598   7.556   5.844
 8299TIP3    H124854   1.537   7.566   5.917
 8299TIP3    H224855   1.602   7.643   5.804
 8300TIP3   OH224856   7.821   0.336   6.073
 8300TIP3    H124857   7.838   0.430   6.070
 8300TIP3    H224858   7.886   0.299   6.013
 8301TIP3   OH224859   2.421   7.621   0.991
 8301TIP3    H124860   2.489   7.682   1.022
 8301TIP3    H224861   2.461   7.535   0.999
 8302TIP3   OH224862   1.338   5.542   2.046
 8302TIP3    H124863   1.321   5.578   2.133
 8302TIP3    H224864   1.382   5.459   2.062
 8303TIP3   OH224865   7.147   0.123   2.791
 8303TIP3    H124866   7.149   0.093   2.882
 8303TIP3    H224867   7.219   0.186   2.785
 8304TIP3   OH224868   7.520   1.184   6.072
 8304TIP3    H124869   7.500   1.195   5.979
 8304TIP3    H224870   7.437   1.160   6.112
 8305TIP3   OH224871   0.507   6.907   0.198
 8305TIP3    H124872   0.486   6.871   0.112
 8305TIP3    H224873   0.541   6.833   0.248
 8306TIP3   OH224874   6.701   6.632   1.362
 8306TIP3    H124875   6.638   6.612   1.430
 8306TIP3    H224876   6.668   6.586   1.284
 8307TIP3   OH224877   2.513   4.133   3.998
 8307TIP3    H124878   2.601   4.117   3.964
 8307TIP3    H224879   2.526   4.152   4.091
 8308TIP3   OH224880   4.403   1.781   3.048
 8308TIP3    H124881   4.369   1.811   3.133
 8308TIP3    H224882   4.393   1.685   3.052
 8309TIP3   OH224883   5.468   6.374   5.316
 8309TIP3    H124884   5.449   6.284   5.288
 8309TIP3    H224885   5.391   6.424   5.288
 8310TIP3   OH224886   4.626   3.166   0.385
 8310TIP3    H124887   4.534   3.182   0.362
 8310TIP3    H224888   4.650   3.091   0.330
 8311TIP3   OH224889   6.622   5.312   5.973
 8311TIP3    H124890   6.575   5.329   6.055
 8311TIP3    H224891   6.714   5.314   5.997
 8312TIP3   OH224892   5.407   5.411   2.101
 8312TIP3    H124893   5.444   5.389   2.187
 8312TIP3    H224894   5.482   5.439   2.049
 8313TIP3   OH224895   2.809   6.257   2.210
 8313TIP3    H124896   2.867   6.301   2.272
 8313TIP3    H224897   2.730   6.239   2.260
 8314TIP3   OH224898   8.219   6.505   5.196
 8314TIP3    H124899   8.210   6.553   5.113
 8314TIP3    H224900   8.144   6.447   5.198
 8315TIP3   OH224901   8.129   0.226   4.358
 8315TIP3    H124902   8.199   0.162   4.374
 8315TIP3    H224903   8.129   0.281   4.437
 8316TIP3   OH224904   7.981   2.381   3.030
 8316TIP3    H124905   8.013   2.470   3.019
 8316TIP3    H224906   8.047   2.338   3.084
 8317TIP3   OH224907   6.913   2.993   5.779
 8317TIP3    H124908   6.936   2.915   5.829
 8317TIP3    H224909   6.933   2.970   5.688
 8318TIP3   OH224910   3.667   0.575   3.701
 8318TIP3    H124911   3.588   0.553   3.653
 8318TIP3    H224912   3.685   0.498   3.755
 8319TIP3   OH224913   2.234   7.026   1.969
 8319TIP3    H124914   2.223   6.953   2.030
 8319TIP3    H224915   2.197   7.101   2.014
 8320TIP3   OH224916   6.622   1.908   6.135
 8320TIP3    H124917   6.707   1.948   6.116
 8320TIP3    H224918   6.607   1.848   6.061
 8321TIP3   OH224919   1.657   6.347   5.554
 8321TIP3    H124920   1.743   6.375   5.587
 8321TIP3    H224921   1.616   6.304   5.629
 8322TIP3   OH224922   8.027   0.673   5.241
 8322TIP3    H124923   8.097   0.607   5.237
 8322TIP3    H224924   8.017   0.692   5.334
 8323TIP3   OH224925   3.287   2.307   2.007
 8323TIP3    H124926   3.326   2.222   2.030
 8323TIP3    H224927   3.291   2.358   2.088
 8324TIP3   OH224928   0.515   6.355   0.627
 8324TIP3    H124929   0.542   6.263   0.630
 8324TIP3    H224930   0.578   6.401   0.682
 8325TIP3   OH224931   3.411   2.289   0.510
 8325TIP3    H124932   3.402   2.330   0.424
 8325TIP3    H224933   3.493   2.324   0.544
 8326TIP3   OH224934   7.807   0.241   0.314
 8326TIP3    H124935   7.880   0.259   0.372
 8326TIP3    H224936   7.811   0.146   0.299
 8327TIP3   OH224937   4.857   2.800   5.952
 8327TIP3    H124938   4.918   2.772   5.883
 8327TIP3    H224939   4.879   2.746   6.027
 8328TIP3   OH224940   1.445   3.654   6.282
 8328TIP3    H124941   1.390   3.580   6.310
 8328TIP3    H224942   1.384   3.717   6.245
 8329TIP3   OH224943   4.180   6.292   3.675
 8329TIP3    H124944   4.194   6.280   3.769
 8329TIP3    H224945   4.184   6.203   3.639
 8330TIP3   OH224946   7.845   0.973   6.693
 8330TIP3    H124947   7.930   0.989   6.652
 8330TIP3    H224948   7.781   0.999   6.627
 8331TIP3   OH224949   6.634   2.702   0.344
 8331TIP3    H124950   6.623   2.715   0.250
 8331TIP3    H224951   6.549   2.668   0.374
 8332TIP3   OH224952   5.409   4.505   0.694
 8332TIP3    H124953   5.327   4.552   0.681
 8332TIP3    H224954   5.414   4.444   0.620
 8333TIP3   OH224955   5.365   1.100   0.583
 8333TIP3    H124956   5.323   1.185   0.572
 8333TIP3    H224957   5.395   1.077   0.496
 8334TIP3   OH224958   7.777   0.215   1.865
 8334TIP3    H124959   7.860   0.190   1.825
 8334TIP3    H224960   7.800   0.248   1.951
 8335TIP3   OH224961   2.354   7.462   1.699
 8335TIP3    H124962   2.261   7.483   1.691
 8335TIP3    H224963   2.360   7.368   1.678
 8336TIP3   OH224964   5.625   3.125   6.488
 8336TIP3    H124965   5.704   3.123   6.542
 8336TIP3    H224966   5.630   3.209   6.442
 8337TIP3   OH224967   5.022   7.617   3.419
 8337TIP3    H124968   5.106   7.600   3.377
 8337TIP3    H224969   5.044   7.667   3.498
 8338TIP3   OH224970   7.572   0.473   2.531
 8338TIP3    H124971   7.642   0.502   2.472
 8338TIP3    H224972   7.508   0.431   2.475
 8339TIP3   OH224973   1.761   3.550   6.574
 8339TIP3    H124974   1.799   3.636   6.555
 8339TIP3    H224975   1.736   3.515   6.488
 8340TIP3   OH224976   7.990   3.961   6.655
 8340TIP3    H124977   8.019   3.964   6.564
 8340TIP3    H224978   8.054   3.906   6.699
 8341TIP3   OH224979   1.100   1.888   2.570
 8341TIP3    H124980   1.157   1.878   2.647
 8341TIP3    H224981   1.051   1.968   2.587
 8342TIP3   OH224982   7.384   1.562   6.638
 8342TIP3    H124983   7.392   1.657   6.628
 8342TIP3    H224984   7.356   1.549   6.728
 8343TIP3   OH224985   2.175   1.530   5.933
 8343TIP3    H124986   2.160   1.515   5.840
 8343TIP3    H224987   2.107   1.478   5.977
 8344TIP3   OH224988   6.804   1.094   6.769
 8344TIP3    H124989   6.710   1.086   6.753
 8344TIP3    H224990   6.840   1.121   6.685
 8345TIP3   OH224991   6.254   3.137   0.515
 8345TIP3    H124992   6.209   3.221   0.510
 8345TIP3    H224993   6.185   3.072   0.498
 8346TIP3   OH224994   2.237   2.043   2.337
 8346TIP3    H124995   2.256   1.979   2.269
 8346TIP3    H224996   2.144   2.064   2.325
 8347TIP3   OH224997   1.957   6.681   2.887
 8347TIP3    H124998   2.000   6.622   2.949
 8347TIP3    H224999   2.022   6.696   2.819
 8348TIP3   OH225000   3.488   7.533   6.279
 8348TIP3    H125001   3.568   7.578   6.252
 8348TIP3    H225002   3.433   7.602   6.314
 8349TIP3   OH225003   0.418   5.043   2.340
 8349TIP3    H125004   0.354   5.008   2.278
 8349TIP3    H225005   0.444   4.967   2.392
 8350TIP3   OH225006   7.097   4.943   0.206
 8350TIP3    H125007   7.055   5.002   0.268
 8350TIP3    H225008   7.094   4.989   0.122
 8351TIP3   OH225009   2.892   0.943   4.321
 8351TIP3    H125010   2.888   0.935   4.416
 8351TIP3    H225011   2.827   0.880   4.289
 8352TIP3   OH225012   1.521   5.404   0.885
 8352TIP3    H125013   1.539   5.384   0.793
 8352TIP3    H225014   1.598   5.452   0.915
 8353TIP3   OH225015   3.113   4.908   4.580
 8353TIP3    H125016   3.199   4.915   4.540
 8353TIP3    H225017   3.086   4.817   4.566
 8354TIP3   OH225018   1.937   0.204   0.771
 8354TIP3    H125019   2.032   0.210   0.758
 8354TIP3    H225020   1.926   0.178   0.862
 8355TIP3   OH225021   0.725   1.069   3.444
 8355TIP3    H125022   0.728   0.973   3.442
 8355TIP3    H225023   0.782   1.092   3.517
 8356TIP3   OH225024   2.257   5.878   0.600
 8356TIP3    H125025   2.240   5.910   0.511
 8356TIP3    H225026   2.277   5.785   0.589
 8357TIP3   OH225027   0.268   6.128   1.715
 8357TIP3    H125028   0.295   6.048   1.760
 8357TIP3    H225029   0.349   6.161   1.675
 8358TIP3   OH225030   4.872   0.260   5.584
 8358TIP3    H125031   4.946   0.236   5.529
 8358TIP3    H225032   4.844   0.178   5.625
 8359TIP3   OH225033   0.058   5.125   2.907
 8359TIP3    H125034   0.107   5.207   2.900
 8359TIP3    H225035  -0.034   5.151   2.911
 8360TIP3   OH225036   3.071   3.334   1.862
 8360TIP3    H125037   3.134   3.292   1.804
 8360TIP3    H225038   2.996   3.355   1.806
 8361TIP3   OH225039   6.385   0.846   5.422
 8361TIP3    H125040   6.377   0.866   5.329
 8361TIP3    H225041   6.442   0.915   5.457
 8362TIP3   OH225042   2.276   5.434   4.923
 8362TIP3    H125043   2.340   5.465   4.859
 8362TIP3    H225044   2.229   5.364   4.878
 8363TIP3   OH225045   1.060   1.971   0.035
 8363TIP3    H125046   0.991   1.950  -0.028
 8363TIP3    H225047   1.123   2.023  -0.015
 8364TIP3   OH225048   7.792   4.298   1.275
 8364TIP3    H125049   7.883   4.292   1.302
 8364TIP3    H225050   7.796   4.329   1.185
 8365TIP3   OH225051   2.101   7.154   5.601
 8365TIP3    H125052   2.061   7.227   5.554
 8365TIP3    H225053   2.027   7.107   5.639
 8366TIP3   OH225054   5.958   6.070   6.091
 8366TIP3    H125055   6.037   6.103   6.047
 8366TIP3    H225056   5.927   5.999   6.035
 8367TIP3   OH225057   3.500   0.348   0.211
 8367TIP3    H125058   3.459   0.325   0.293
 8367TIP3    H225059   3.559   0.421   0.233
 8368TIP3   OH225060   0.082   6.150   2.930
 8368TIP3    H125061  -0.007   6.145   2.897
 8368TIP3    H225062   0.079   6.219   2.997
 8369TIP3   OH225063   7.555   2.393   2.943
 8369TIP3    H125064   7.601   2.439   2.873
 8369TIP3    H225065   7.506   2.324   2.897
 8370TIP3   OH225066   6.492   4.856   3.833
 8370TIP3    H125067   6.490   4.776   3.886
 8370TIP3    H225068   6.514   4.827   3.745
 8371TIP3   OH225069   3.062   3.660   1.565
 8371TIP3    H125070   3.085   3.574   1.529
 8371TIP3    H225071   3.050   3.643   1.658
 8372TIP3   OH225072   7.296   0.433   0.409
 8372TIP3    H125073   7.372   0.396   0.364
 8372TIP3    H225074   7.220   0.393   0.366
 8373TIP3   OH225075   4.478   6.162   1.992
 8373TIP3    H125076   4.545   6.190   2.055
 8373TIP3    H225077   4.520   6.174   1.907
 8374TIP3   OH225078   7.867   7.329   4.804
 8374TIP3    H125079   7.797   7.332   4.739
 8374TIP3    H225080   7.836   7.384   4.875
 8375TIP3   OH225081   0.322   5.088   3.858
 8375TIP3    H125082   0.350   5.021   3.795
 8375TIP3    H225083   0.279   5.038   3.928
 8376TIP3   OH225084   6.499   4.116   6.717
 8376TIP3    H125085   6.440   4.191   6.709
 8376TIP3    H225086   6.475   4.060   6.643
 8377TIP3   OH225087   7.262   0.791   5.766
 8377TIP3    H125088   7.310   0.796   5.684
 8377TIP3    H225089   7.172   0.770   5.741
 8378TIP3   OH225090   2.240   0.981   6.139
 8378TIP3    H125091   2.261   0.927   6.215
 8378TIP3    H225092   2.243   1.071   6.172
 8379TIP3   OH225093   1.264   6.257   3.093
 8379TIP3    H125094   1.209   6.190   3.053
 8379TIP3    H225095   1.288   6.220   3.178
 8380TIP3   OH225096   3.937   3.797   5.503
 8380TIP3    H125097   3.908   3.815   5.593
 8380TIP3    H225098   3.860   3.759   5.461
 8381TIP3   OH225099   3.789   3.781   6.547
 8381TIP3    H125100   3.750   3.798   6.633
 8381TIP3    H225101   3.869   3.833   6.545
 8382TIP3   OH225102   7.458   6.655   0.712
 8382TIP3    H125103   7.448   6.638   0.806
 8382TIP3    H225104   7.456   6.751   0.705
 8383TIP3   OH225105   1.729   5.953   3.622
 8383TIP3    H125106   1.817   5.956   3.585
 8383TIP3    H225107   1.674   5.922   3.550
 8384TIP3   OH225108   7.311   0.360   3.685
 8384TIP3    H125109   7.230   0.367   3.735
 8384TIP3    H225110   7.303   0.427   3.617
 8385TIP3   OH225111   2.141   3.949   5.378
 8385TIP3    H125112   2.202   4.020   5.397
 8385TIP3    H225113   2.179   3.873   5.421
 8386TIP3   OH225114   3.125   0.429   0.845
 8386TIP3    H125115   3.030   0.434   0.856
 8386TIP3    H225116   3.151   0.520   0.826
 8387TIP3   OH225117   7.659   6.978   4.850
 8387TIP3    H125118   7.741   6.928   4.852
 8387TIP3    H225119   7.686   7.069   4.859
 8388TIP3   OH225120   3.656   5.292   3.143
 8388TIP3    H125121   3.682   5.380   3.114
 8388TIP3    H225122   3.642   5.301   3.237
 8389TIP3   OH225123   6.050   5.198   2.614
 8389TIP3    H125124   5.980   5.229   2.671
 8389TIP3    H225125   6.130   5.219   2.661
 8390TIP3   OH225126   5.657   7.287   3.977
 8390TIP3    H125127   5.692   7.326   3.897
 8390TIP3    H225128   5.566   7.265   3.955
 8391TIP3   OH225129   7.990   5.205   5.018
 8391TIP3    H125130   8.004   5.125   5.068
 8391TIP3    H225131   8.001   5.276   5.081
 8392TIP3   OH225132   3.062   2.877   1.892
 8392TIP3    H125133   3.011   2.812   1.941
 8392TIP3    H225134   2.999   2.915   1.831
 8393TIP3   OH225135   8.276   5.588   0.093
 8393TIP3    H125136   8.291   5.581  -0.001
 8393TIP3    H225137   8.328   5.517   0.131
 8394TIP3   OH225138   6.502   2.460   4.624
 8394TIP3    H125139   6.589   2.464   4.586
 8394TIP3    H225140   6.457   2.538   4.592
 8395TIP3   OH225141   6.066   3.647   4.526
 8395TIP3    H125142   6.124   3.596   4.470
 8395TIP3    H225143   6.021   3.706   4.466
 8396TIP3   OH225144   6.929   5.843   0.031
 8396TIP3    H125145   6.936   5.749   0.048
 8396TIP3    H225146   6.839   5.864   0.056
 8397TIP3   OH225147   0.858   7.584   4.067
 8397TIP3    H125148   0.847   7.665   4.018
 8397TIP3    H225149   0.810   7.519   4.016
 8398TIP3   OH225150   4.184   6.571   2.511
 8398TIP3    H125151   4.115   6.637   2.515
 8398TIP3    H225152   4.266   6.622   2.512
 8399TIP3   OH225153   1.678   4.802   0.971
 8399TIP3    H125154   1.701   4.712   0.996
 8399TIP3    H225155   1.755   4.853   0.992
 8400TIP3   OH225156   4.508   6.172   4.416
 8400TIP3    H125157   4.529   6.200   4.327
 8400TIP3    H225158   4.586   6.126   4.446
 8401TIP3   OH225159   3.761   3.042   1.992
 8401TIP3    H125160   3.842   3.005   1.956
 8401TIP3    H225161   3.766   3.135   1.969
 8402TIP3   OH225162   0.694   7.099   0.856
 8402TIP3    H125163   0.785   7.130   0.858
 8402TIP3    H225164   0.656   7.130   0.938
 8403TIP3   OH225165   3.847   1.299   0.661
 8403TIP3    H125166   3.923   1.243   0.647
 8403TIP3    H225167   3.793   1.251   0.725
 8404TIP3   OH225168   0.340   1.525   5.704
 8404TIP3    H125169   0.376   1.606   5.669
 8404TIP3    H225170   0.392   1.508   5.783
 8405TIP3   OH225171   5.028   1.343   3.199
 8405TIP3    H125172   5.026   1.319   3.106
 8405TIP3    H225173   5.117   1.378   3.213
 8406TIP3   OH225174   7.247   1.563   1.844
 8406TIP3    H125175   7.201   1.512   1.778
 8406TIP3    H225176   7.286   1.498   1.902
 8407TIP3   OH225177   7.663   2.231   0.048
 8407TIP3    H125178   7.628   2.309   0.092
 8407TIP3    H225179   7.590   2.199  -0.005
 8408TIP3   OH225180   3.725   5.811   0.814
 8408TIP3    H125181   3.744   5.788   0.723
 8408TIP3    H225182   3.732   5.728   0.861
 8409TIP3   OH225183   4.920   0.455   4.903
 8409TIP3    H125184   5.014   0.452   4.916
 8409TIP3    H225185   4.902   0.547   4.880
 8410TIP3   OH225186   3.842   7.594   0.420
 8410TIP3    H125187   3.880   7.520   0.372
 8410TIP3    H225188   3.914   7.656   0.430
 8411TIP3   OH225189   7.033   2.296   2.614
 8411TIP3    H125190   6.985   2.235   2.558
 8411TIP3    H225191   7.064   2.364   2.555
 8412TIP3   OH225192   0.338   4.174   2.789
 8412TIP3    H125193   0.294   4.232   2.851
 8412TIP3    H225194   0.354   4.229   2.712
 8413TIP3   OH225195   2.877   6.286   0.446
 8413TIP3    H125196   2.927   6.209   0.473
 8413TIP3    H225197   2.820   6.254   0.376
 8414TIP3   OH225198   8.247   0.799   3.894
 8414TIP3    H125199   8.311   0.870   3.881
 8414TIP3    H225200   8.225   0.804   3.988
 8415TIP3   OH225201   1.913   2.310   3.849
 8415TIP3    H125202   1.891   2.397   3.882
 8415TIP3    H225203   1.943   2.324   3.760
 8416TIP3   OH225204   8.106   6.690   4.762
 8416TIP3    H125205   8.097   6.627   4.690
 8416TIP3    H225206   8.095   6.775   4.721
 8417TIP3   OH225207   7.651   0.723   4.202
 8417TIP3    H125208   7.585   0.782   4.238
 8417TIP3    H225209   7.704   0.778   4.144
 8418TIP3   OH225210   1.330   1.549   1.328
 8418TIP3    H125211   1.262   1.615   1.316
 8418TIP3    H225212   1.340   1.541   1.423
 8419TIP3   OH225213   3.654   5.367   5.889
 8419TIP3    H125214   3.699   5.382   5.806
 8419TIP3    H225215   3.577   5.316   5.866
 8420TIP3   OH225216   0.374   3.703   1.426
 8420TIP3    H125217   0.402   3.729   1.514
 8420TIP3    H225218   0.280   3.723   1.424
 8421TIP3   OH225219   3.074   1.390   3.894
 8421TIP3    H125220   3.152   1.337   3.874
 8421TIP3    H225221   3.109   1.471   3.932
 8422TIP3   OH225222   6.935   4.926   3.668
 8422TIP3    H125223   6.890   4.972   3.597
 8422TIP3    H225224   6.881   4.849   3.684
 8423TIP3   OH225225   1.162   0.486   3.756
 8423TIP3    H125226   1.153   0.448   3.844
 8423TIP3    H225227   1.073   0.497   3.725
 8424TIP3   OH225228   3.439   0.572   4.528
 8424TIP3    H125229   3.418   0.629   4.453
 8424TIP3    H225230   3.433   0.630   4.604
 8425TIP3   OH225231   0.029   6.746   3.698
 8425TIP3    H125232   0.014   6.834   3.665
 8425TIP3    H225233   0.059   6.759   3.788
 8426TIP3   OH225234   8.187   6.220   1.143
 8426TIP3    H125235   8.235   6.166   1.080
 8426TIP3    H225236   8.186   6.169   1.224
 8427TIP3   OH225237   5.782   3.937   2.822
 8427TIP3    H125238   5.863   3.958   2.869
 8427TIP3    H225239   5.806   3.944   2.729
 8428TIP3   OH225240   6.423   2.037   0.852
 8428TIP3    H125241   6.484   2.109   0.836
 8428TIP3    H225242   6.352   2.076   0.903
 8429TIP3   OH225243   4.724   7.114   0.532
 8429TIP3    H125244   4.710   7.177   0.462
 8429TIP3    H225245   4.674   7.148   0.606
 8430TIP3   OH225246   8.217   4.963   3.434
 8430TIP3    H125247   8.205   4.880   3.388
 8430TIP3    H225248   8.157   5.023   3.391
 8431TIP3   OH225249   6.210   6.202   5.992
 8431TIP3    H125250   6.278   6.267   5.972
 8431TIP3    H225251   6.251   6.118   5.974
 8432TIP3   OH225252   4.529   2.733   0.215
 8432TIP3    H125253   4.586   2.810   0.211
 8432TIP3    H225254   4.537   2.693   0.129
 8433TIP3   OH225255   6.084   5.619   1.497
 8433TIP3    H125256   6.170   5.628   1.457
 8433TIP3    H225257   6.027   5.590   1.425
 8434TIP3   OH225258   1.185   1.053   3.783
 8434TIP3    H125259   1.256   0.989   3.787
 8434TIP3    H225260   1.195   1.095   3.698
 8435TIP3   OH225261   7.660   6.018   2.271
 8435TIP3    H125262   7.672   5.929   2.237
 8435TIP3    H225263   7.734   6.067   2.237
 8436TIP3   OH225264   4.927   0.997   3.188
 8436TIP3    H125265   4.858   1.059   3.211
 8436TIP3    H225266   4.999   1.017   3.248
 8437TIP3   OH225267   6.541   7.021   3.261
 8437TIP3    H125268   6.494   7.056   3.185
 8437TIP3    H225269   6.510   6.931   3.269
 8438TIP3   OH225270   6.778   0.799   5.250
 8438TIP3    H125271   6.766   0.878   5.302
 8438TIP3    H225272   6.838   0.745   5.302
 8439TIP3   OH225273   2.996   2.744   4.575
 8439TIP3    H125274   2.952   2.705   4.651
 8439TIP3    H225275   3.005   2.837   4.598
 8440TIP3   OH225276   7.619   7.231   2.201
 8440TIP3    H125277   7.599   7.279   2.281
 8440TIP3    H225278   7.702   7.187   2.218
 8441TIP3   OH225279   0.673   3.666   4.048
 8441TIP3    H125280   0.609   3.704   4.108
 8441TIP3    H225281   0.693   3.736   3.986
 8442TIP3   OH225282   7.669   6.162   0.244
 8442TIP3    H125283   7.616   6.211   0.182
 8442TIP3    H225284   7.749   6.214   0.252
 8443TIP3   OH225285   6.370   4.344   6.702
 8443TIP3    H125286   6.335   4.397   6.631
 8443TIP3    H225287   6.303   4.349   6.771
 8444TIP3   OH225288   6.227   6.437   2.779
 8444TIP3    H125289   6.286   6.372   2.741
 8444TIP3    H225290   6.242   6.429   2.874
 8445TIP3   OH225291   2.672   5.519   4.559
 8445TIP3    H125292   2.741   5.581   4.581
 8445TIP3    H225293   2.591   5.560   4.589
 8446TIP3   OH225294   5.350   4.798   5.197
 8446TIP3    H125295   5.392   4.861   5.256
 8446TIP3    H225296   5.348   4.717   5.247
 8447TIP3   OH225297   0.662   7.458   5.500
 8447TIP3    H125298   0.579   7.497   5.472
 8447TIP3    H225299   0.709   7.442   5.418
 8448TIP3   OH225300   2.494   2.367   5.046
 8448TIP3    H125301   2.475   2.438   5.108
 8448TIP3    H225302   2.473   2.403   4.961
 8449TIP3   OH225303   3.557   6.393   6.627
 8449TIP3    H125304   3.552   6.357   6.538
 8449TIP3    H225305   3.515   6.328   6.682
 8450TIP3   OH225306   8.073   5.256   0.393
 8450TIP3    H125307   8.168   5.262   0.408
 8450TIP3    H225308   8.065   5.238   0.300
 8451TIP3   OH225309   2.425   3.712   6.007
 8451TIP3    H125310   2.498   3.665   5.965
 8451TIP3    H225311   2.360   3.721   5.938
 8452TIP3   OH225312   0.565   2.633   3.194
 8452TIP3    H125313   0.543   2.712   3.145
 8452TIP3    H225314   0.624   2.663   3.263
 8453TIP3   OH225315   1.124   3.382   3.894
 8453TIP3    H125316   1.051   3.434   3.859
 8453TIP3    H225317   1.196   3.444   3.901
 8454TIP3   OH225318   5.138   5.471   3.020
 8454TIP3    H125319   5.054   5.472   3.065
 8454TIP3    H225320   5.193   5.531   3.070
 8455TIP3   OH225321   1.685   1.974   0.356
 8455TIP3    H125322   1.630   2.052   0.364
 8455TIP3    H225323   1.774   2.009   0.343
 8456TIP3   OH225324   6.577   3.260   1.780
 8456TIP3    H125325   6.548   3.184   1.830
 8456TIP3    H225326   6.565   3.234   1.689
 8457TIP3   OH225327   4.934   4.221   2.040
 8457TIP3    H125328   4.882   4.203   2.117
 8457TIP3    H225329   5.008   4.160   2.046
 8458TIP3   OH225330   6.931   0.266   0.750
 8458TIP3    H125331   6.916   0.311   0.833
 8458TIP3    H225332   6.961   0.335   0.691
 8459TIP3   OH225333   1.816   0.696   0.667
 8459TIP3    H125334   1.861   0.632   0.722
 8459TIP3    H225335   1.723   0.680   0.682
 8460TIP3   OH225336   7.639   1.202   0.471
 8460TIP3    H125337   7.641   1.156   0.387
 8460TIP3    H225338   7.731   1.218   0.491
 8461TIP3   OH225339   3.167   0.254   4.735
 8461TIP3    H125340   3.177   0.239   4.829
 8461TIP3    H225341   3.252   0.286   4.706
 8462TIP3   OH225342   4.818   6.158   5.166
 8462TIP3    H125343   4.806   6.114   5.082
 8462TIP3    H225344   4.730   6.186   5.191
 8463TIP3   OH225345   3.902   6.781   0.705
 8463TIP3    H125346   3.958   6.733   0.645
 8463TIP3    H225347   3.901   6.871   0.671
 8464TIP3   OH225348   1.501   2.410   6.329
 8464TIP3    H125349   1.424   2.356   6.310
 8464TIP3    H225350   1.466   2.497   6.346
 8465TIP3   OH225351   3.262   3.944   6.252
 8465TIP3    H125352   3.320   3.868   6.263
 8465TIP3    H225353   3.195   3.933   6.319
 8466TIP3   OH225354   7.960   2.873   5.330
 8466TIP3    H125355   8.037   2.887   5.385
 8466TIP3    H225356   7.921   2.960   5.320
 8467TIP3   OH225357   0.450   2.950   6.764
 8467TIP3    H125358   0.483   2.885   6.703
 8467TIP3    H225359   0.380   2.995   6.716
 8468TIP3   OH225360   6.601   7.296   2.805
 8468TIP3    H125361   6.625   7.280   2.897
 8468TIP3    H225362   6.656   7.370   2.779
 8469TIP3   OH225363   4.638   5.565   6.377
 8469TIP3    H125364   4.548   5.589   6.354
 8469TIP3    H225365   4.667   5.633   6.437
 8470TIP3   OH225366   1.051   6.410   4.822
 8470TIP3    H125367   0.974   6.356   4.835
 8470TIP3    H225368   1.099   6.405   4.905
 8471TIP3   OH225369   3.971   5.257   6.748
 8471TIP3    H125370   3.994   5.165   6.760
 8471TIP3    H225371   4.052   5.298   6.716
 8472TIP3   OH225372   2.115   5.116   3.796
 8472TIP3    H125373   2.198   5.075   3.820
 8472TIP3    H225374   2.132   5.210   3.804
 8473TIP3   OH225375   3.894   7.403   1.885
 8473TIP3    H125376   3.810   7.361   1.868
 8473TIP3    H225377   3.877   7.463   1.957
 8474TIP3   OH225378   3.638   5.099   6.287
 8474TIP3    H125379   3.605   5.011   6.306
 8474TIP3    H225380   3.703   5.116   6.355
 8475TIP3   OH225381   3.466   1.734   0.792
 8475TIP3    H125382   3.432   1.645   0.807
 8475TIP3    H225383   3.526   1.724   0.718
 8476TIP3   OH225384   4.870   1.878   6.233
 8476TIP3    H125385   4.817   1.956   6.247
 8476TIP3    H225386   4.891   1.847   6.321
 8477TIP3   OH225387   0.364   7.056   1.493
 8477TIP3    H125388   0.309   7.128   1.461
 8477TIP3    H225389   0.332   7.039   1.582
 8478TIP3   OH225390   3.947   1.982   5.811
 8478TIP3    H125391   3.918   2.066   5.775
 8478TIP3    H225392   4.011   2.006   5.879
 8479TIP3   OH225393   4.652   2.248   1.286
 8479TIP3    H125394   4.675   2.315   1.223
 8479TIP3    H225395   4.593   2.292   1.348
 8480TIP3   OH225396   2.104   2.651   2.212
 8480TIP3    H125397   2.185   2.609   2.241
 8480TIP3    H225398   2.063   2.681   2.293
 8481TIP3   OH225399   4.856   3.166   0.811
 8481TIP3    H125400   4.851   3.258   0.786
 8481TIP3    H225401   4.797   3.159   0.886
 8482TIP3   OH225402   2.826   7.615   2.054
 8482TIP3    H125403   2.776   7.622   1.973
 8482TIP3    H225404   2.843   7.521   2.064
 8483TIP3   OH225405   1.447   7.573   6.375
 8483TIP3    H125406   1.457   7.582   6.470
 8483TIP3    H225407   1.353   7.586   6.360
 8484TIP3   OH225408   0.723   1.546   4.169
 8484TIP3    H125409   0.643   1.570   4.216
 8484TIP3    H225410   0.710   1.578   4.080
 8485TIP3   OH225411   3.979   1.721   2.540
 8485TIP3    H125412   4.046   1.719   2.608
 8485TIP3    H225413   3.994   1.642   2.489
 8486TIP3   OH225414   4.930   3.805   3.736
 8486TIP3    H125415   4.937   3.767   3.649
 8486TIP3    H225416   4.914   3.730   3.794
 8487TIP3   OH225417   2.881   7.032   3.934
 8487TIP3    H125418   2.879   6.964   3.867
 8487TIP3    H225419   2.796   7.025   3.978
 8488TIP3   OH225420   0.044   6.502   0.297
 8488TIP3    H125421   0.029   6.458   0.213
 8488TIP3    H225422  -0.044   6.511   0.335
 8489TIP3   OH225423   0.513   3.234   2.656
 8489TIP3    H125424   0.578   3.166   2.675
 8489TIP3    H225425   0.560   3.297   2.602
 8490TIP3   OH225426   1.771   5.790   2.954
 8490TIP3    H125427   1.730   5.741   3.026
 8490TIP3    H225428   1.852   5.741   2.936
 8491TIP3   OH225429   2.267   5.389   6.573
 8491TIP3    H125430   2.176   5.380   6.543
 8491TIP3    H225431   2.266   5.359   6.664
 8492TIP3   OH225432   2.375   0.510   5.746
 8492TIP3    H125433   2.289   0.488   5.710
 8492TIP3    H225434   2.356   0.539   5.835
 8493TIP3   OH225435   1.907   6.421   6.269
 8493TIP3    H125436   1.905   6.430   6.365
 8493TIP3    H225437   1.933   6.330   6.255
 8494TIP3   OH225438   1.688   7.297   5.396
 8494TIP3    H125439   1.688   7.393   5.392
 8494TIP3    H225440   1.631   7.270   5.325
 8495TIP3   OH225441   3.843   6.773   3.824
 8495TIP3    H125442   3.898   6.839   3.867
 8495TIP3    H225443   3.905   6.719   3.775
 8496TIP3   OH225444   6.642   6.504   3.642
 8496TIP3    H125445   6.592   6.441   3.695
 8496TIP3    H225446   6.672   6.569   3.705
 8497TIP3   OH225447   1.913   5.551   2.955
 8497TIP3    H125448   1.995   5.512   2.924
 8497TIP3    H225449   1.899   5.511   3.041
 8498TIP3   OH225450   5.172   4.983   6.672
 8498TIP3    H125451   5.267   4.990   6.686
 8498TIP3    H225452   5.149   4.899   6.712
 8499TIP3   OH225453   7.530   5.370   3.042
 8499TIP3    H125454   7.582   5.438   2.999
 8499TIP3    H225455   7.561   5.371   3.133
 8500TIP3   OH225456   6.935   6.891   3.211
 8500TIP3    H125457   6.953   6.840   3.132
 8500TIP3    H225458   7.005   6.865   3.272
 8501TIP3   OH225459   1.061   2.646   2.081
 8501TIP3    H125460   1.001   2.572   2.070
 8501TIP3    H225461   1.006   2.723   2.070
 8502TIP3   OH225462   4.511   5.587   2.676
 8502TIP3    H125463   4.460   5.506   2.673
 8502TIP3    H225464   4.598   5.562   2.645
 8503TIP3   OH225465   3.915   2.137   2.058
 8503TIP3    H125466   3.931   2.227   2.029
 8503TIP3    H225467   3.839   2.143   2.115
 8504TIP3   OH225468   2.581   7.462   5.590
 8504TIP3    H125469   2.515   7.454   5.659
 8504TIP3    H225470   2.557   7.542   5.544
 8505TIP3   OH225471   0.860   4.704   6.519
 8505TIP3    H125472   0.909   4.647   6.580
 8505TIP3    H225473   0.800   4.644   6.475
 8506TIP3   OH225474   6.254   1.523   1.590
 8506TIP3    H125475   6.334   1.541   1.540
 8506TIP3    H225476   6.208   1.457   1.539
 8507TIP3   OH225477   7.831   0.263   2.461
 8507TIP3    H125478   7.770   0.255   2.535
 8507TIP3    H225479   7.818   0.183   2.411
 8508TIP3   OH225480   2.445   4.148   1.143
 8508TIP3    H125481   2.517   4.092   1.113
 8508TIP3    H225482   2.403   4.097   1.212
 8509TIP3   OH225483   7.044   7.040   1.734
 8509TIP3    H125484   7.049   7.134   1.753
 8509TIP3    H225485   6.990   7.005   1.805
 8510TIP3   OH225486   1.380   0.270   5.189
 8510TIP3    H125487   1.295   0.241   5.155
 8510TIP3    H225488   1.375   0.254   5.283
 8511TIP3   OH225489   4.078   0.134   2.503
 8511TIP3    H125490   4.045   0.222   2.518
 8511TIP3    H225491   4.008   0.090   2.455
 8512TIP3   OH225492   2.516   6.033   0.089
 8512TIP3    H125493   2.460   5.969   0.132
 8512TIP3    H225494   2.463   6.113   0.086
 8513TIP3   OH225495   7.582   7.527   4.294
 8513TIP3    H125496   7.565   7.483   4.211
 8513TIP3    H225497   7.531   7.477   4.359
 8514TIP3   OH225498   5.649   1.108   2.998
 8514TIP3    H125499   5.576   1.148   2.951
 8514TIP3    H225500   5.723   1.115   2.939
 8515TIP3   OH225501   7.692   0.706   5.867
 8515TIP3    H125502   7.700   0.797   5.895
 8515TIP3    H225503   7.598   0.689   5.868
 8516TIP3   OH225504   7.382   7.710   2.058
 8516TIP3    H125505   7.301   7.756   2.081
 8516TIP3    H225506   7.432   7.773   2.006
 8517TIP3   OH225507   3.314   6.187   1.152
 8517TIP3    H125508   3.333   6.232   1.234
 8517TIP3    H225509   3.340   6.249   1.084
 8518TIP3   OH225510   1.537   0.179   0.722
 8518TIP3    H125511   1.447   0.150   0.712
 8518TIP3    H225512   1.567   0.137   0.803
 8519TIP3   OH225513   6.584   0.617   6.213
 8519TIP3    H125514   6.566   0.669   6.291
 8519TIP3    H225515   6.679   0.605   6.213
 8520TIP3   OH225516   4.905   7.494   0.621
 8520TIP3    H125517   4.958   7.492   0.542
 8520TIP3    H225518   4.935   7.419   0.672
 8521TIP3   OH225519   7.668   4.361   4.691
 8521TIP3    H125520   7.605   4.431   4.707
 8521TIP3    H225521   7.614   4.286   4.667
 8522TIP3   OH225522   2.709   6.402   2.790
 8522TIP3    H125523   2.705   6.428   2.698
 8522TIP3    H225524   2.746   6.313   2.788
 8523TIP3   OH225525   2.139   2.874   0.065
 8523TIP3    H125526   2.048   2.894   0.042
 8523TIP3    H225527   2.191   2.926   0.004
 8524TIP3   OH225528   4.354   3.152   0.401
 8524TIP3    H125529   4.317   3.101   0.329
 8524TIP3    H225530   4.282   3.164   0.462
 8525TIP3   OH225531   4.486   4.800   4.647
 8525TIP3    H125532   4.488   4.893   4.673
 8525TIP3    H225533   4.471   4.802   4.553
 8526TIP3   OH225534   5.160   4.019   2.068
 8526TIP3    H125535   5.238   4.056   2.027
 8526TIP3    H225536   5.192   3.978   2.148
 8527TIP3   OH225537   2.484   0.857   1.541
 8527TIP3    H125538   2.498   0.863   1.635
 8527TIP3    H225539   2.496   0.764   1.521
 8528TIP3   OH225540   7.608   2.822   5.796
 8528TIP3    H125541   7.650   2.736   5.796
 8528TIP3    H225542   7.671   2.880   5.838
 8529TIP3   OH225543   2.679   4.938   6.417
 8529TIP3    H125544   2.752   4.950   6.357
 8529TIP3    H225545   2.695   4.852   6.457
 8530TIP3   OH225546   5.944   0.114   1.702
 8530TIP3    H125547   5.872   0.064   1.741
 8530TIP3    H225548   5.964   0.067   1.621
 8531TIP3   OH225549   4.893   5.310   1.872
 8531TIP3    H125550   4.870   5.329   1.781
 8531TIP3    H225551   4.880   5.216   1.881
 8532TIP3   OH225552   6.254   5.887   2.247
 8532TIP3    H125553   6.183   5.848   2.298
 8532TIP3    H225554   6.270   5.824   2.176
 8533TIP3   OH225555   7.147   5.180   1.888
 8533TIP3    H125556   7.234   5.139   1.893
 8533TIP3    H225557   7.094   5.130   1.950
 8534TIP3   OH225558   7.863   4.604   3.773
 8534TIP3    H125559   7.958   4.590   3.781
 8534TIP3    H225560   7.835   4.622   3.863
 8535TIP3   OH225561   1.963   5.524   6.215
 8535TIP3    H125562   1.923   5.575   6.144
 8535TIP3    H225563   1.898   5.525   6.285
 8536TIP3   OH225564   8.148   1.717   2.046
 8536TIP3    H125565   8.117   1.778   2.113
 8536TIP3    H225566   8.098   1.637   2.061
 8537TIP3   OH225567   7.219   4.980   6.008
 8537TIP3    H125568   7.298   5.018   6.047
 8537TIP3    H225569   7.253   4.916   5.945
 8538TIP3   OH225570   2.445   3.430   3.381
 8538TIP3    H125571   2.403   3.514   3.398
 8538TIP3    H225572   2.379   3.365   3.408
 8539TIP3   OH225573   1.309   2.696   4.993
 8539TIP3    H125574   1.397   2.731   4.977
 8539TIP3    H225575   1.255   2.733   4.923
 8540TIP3   OH225576   1.338   2.883   4.309
 8540TIP3    H125577   1.339   2.973   4.276
 8540TIP3    H225578   1.425   2.870   4.347
 8541TIP3   OH225579   6.481   2.024   2.247
 8541TIP3    H125580   6.414   2.091   2.257
 8541TIP3    H225581   6.455   1.976   2.168
 8542TIP3   OH225582   2.872   5.490   3.492
 8542TIP3    H125583   2.932   5.557   3.460
 8542TIP3    H225584   2.801   5.489   3.427
 8543TIP3   OH225585   2.497   1.250   1.527
 8543TIP3    H125586   2.418   1.250   1.580
 8543TIP3    H225587   2.466   1.233   1.438
 8544TIP3   OH225588   4.912   7.334   0.088
 8544TIP3    H125589   4.891   7.319  -0.004
 8544TIP3    H225590   4.874   7.259   0.134
 8545TIP3   OH225591   2.388   2.630   0.175
 8545TIP3    H125592   2.428   2.567   0.234
 8545TIP3    H225593   2.418   2.605   0.088
 8546TIP3   OH225594   7.119   7.027   4.917
 8546TIP3    H125595   7.054   6.966   4.949
 8546TIP3    H225596   7.171   6.977   4.854
 8547TIP3   OH225597   1.300   2.989   2.338
 8547TIP3    H125598   1.249   2.968   2.416
 8547TIP3    H225599   1.258   2.940   2.268
 8548TIP3   OH225600   4.275   7.523   6.613
 8548TIP3    H125601   4.359   7.516   6.658
 8548TIP3    H225602   4.279   7.605   6.565
 8549TIP3   OH225603   2.842   1.391   4.539
 8549TIP3    H125604   2.875   1.401   4.628
 8549TIP3    H225605   2.914   1.419   4.483
 8550TIP3   OH225606   4.807   3.149   5.610
 8550TIP3    H125607   4.749   3.076   5.589
 8550TIP3    H225608   4.836   3.183   5.526
 8551TIP3   OH225609   4.091   3.620   5.109
 8551TIP3    H125610   4.028   3.691   5.099
 8551TIP3    H225611   4.061   3.573   5.187
 8552TIP3   OH225612   6.336   3.418   2.710
 8552TIP3    H125613   6.275   3.350   2.739
 8552TIP3    H225614   6.314   3.494   2.764
 8553TIP3   OH225615   1.961   7.199   3.823
 8553TIP3    H125616   1.985   7.281   3.866
 8553TIP3    H225617   1.993   7.130   3.882
 8554TIP3   OH225618   6.840   7.143   6.629
 8554TIP3    H125619   6.918   7.096   6.599
 8554TIP3    H225620   6.787   7.156   6.550
 8555TIP3   OH225621   7.953   5.765   4.481
 8555TIP3    H125622   7.863   5.791   4.502
 8555TIP3    H225623   7.944   5.710   4.404
 8556TIP3   OH225624   0.987   1.787   0.623
 8556TIP3    H125625   0.954   1.705   0.660
 8556TIP3    H225626   0.927   1.854   0.656
 8557TIP3   OH225627   1.266   6.519   6.052
 8557TIP3    H125628   1.292   6.531   5.961
 8557TIP3    H225629   1.243   6.607   6.083
 8558TIP3   OH225630   5.128   7.596   6.529
 8558TIP3    H125631   5.127   7.668   6.592
 8558TIP3    H225632   5.117   7.517   6.582
 8559TIP3   OH225633   4.272   7.752   4.017
 8559TIP3    H125634   4.291   7.761   3.923
 8559TIP3    H225635   4.191   7.801   4.030
 8560TIP3   OH225636   6.302   2.575   3.366
 8560TIP3    H125637   6.211   2.588   3.392
 8560TIP3    H225638   6.347   2.549   3.446
 8561TIP3   OH225639   4.166   6.902   2.386
 8561TIP3    H125640   4.196   6.913   2.295
 8561TIP3    H225641   4.247   6.887   2.435
 8562TIP3   OH225642   1.240   4.442   3.126
 8562TIP3    H125643   1.183   4.427   3.201
 8562TIP3    H225644   1.209   4.525   3.090
 8563TIP3   OH225645   7.457   3.457   4.443
 8563TIP3    H125646   7.428   3.497   4.361
 8563TIP3    H225647   7.419   3.512   4.512
 8564TIP3   OH225648   3.392   0.820   1.492
 8564TIP3    H125649   3.358   0.908   1.510
 8564TIP3    H225650   3.357   0.766   1.563
 8565TIP3   OH225651   7.710   5.470   2.553
 8565TIP3    H125652   7.639   5.478   2.617
 8565TIP3    H225653   7.779   5.422   2.599
 8566TIP3   OH225654   2.246   4.938   5.414
 8566TIP3    H125655   2.328   4.985   5.398
 8566TIP3    H225656   2.256   4.904   5.503
 8567TIP3   OH225657   2.377   3.041   2.646
 8567TIP3    H125658   2.337   3.123   2.675
 8567TIP3    H225659   2.303   2.981   2.635
 8568TIP3   OH225660   4.283   5.446   0.485
 8568TIP3    H125661   4.220   5.410   0.423
 8568TIP3    H225662   4.357   5.385   0.483
 8569TIP3   OH225663   7.185   1.679   0.669
 8569TIP3    H125664   7.207   1.691   0.577
 8569TIP3    H225665   7.150   1.764   0.697
 8570TIP3   OH225666   1.512   5.172   2.495
 8570TIP3    H125667   1.460   5.171   2.414
 8570TIP3    H225668   1.497   5.260   2.531
 8571TIP3   OH225669   5.146   6.662   0.514
 8571TIP3    H125670   5.164   6.579   0.471
 8571TIP3    H225671   5.051   6.668   0.516
 8572TIP3   OH225672   4.159   0.870   4.865
 8572TIP3    H125673   4.127   0.852   4.777
 8572TIP3    H225674   4.146   0.964   4.876
 8573TIP3   OH225675   3.583   5.690   6.300
 8573TIP3    H125676   3.569   5.630   6.227
 8573TIP3    H225677   3.500   5.736   6.310
 8574TIP3   OH225678   7.321   3.666   5.976
 8574TIP3    H125679   7.396   3.623   6.017
 8574TIP3    H225680   7.255   3.597   5.970
 8575TIP3   OH225681   5.654   1.630   5.166
 8575TIP3    H125682   5.650   1.554   5.225
 8575TIP3    H225683   5.582   1.616   5.104
 8576TIP3   OH225684   2.789   0.632   1.745
 8576TIP3    H125685   2.856   0.653   1.680
 8576TIP3    H225686   2.834   0.642   1.829
 8577TIP3   OH225687   2.090   7.526   1.704
 8577TIP3    H125688   2.092   7.587   1.778
 8577TIP3    H225689   2.049   7.447   1.738
 8578TIP3   OH225690   4.043   0.521   2.943
 8578TIP3    H125691   4.102   0.570   2.885
 8578TIP3    H225692   3.989   0.468   2.884
 8579TIP3   OH225693   5.277   1.184   4.643
 8579TIP3    H125694   5.238   1.263   4.680
 8579TIP3    H225695   5.216   1.114   4.665
 8580TIP3   OH225696   0.673   6.784   5.754
 8580TIP3    H125697   0.721   6.717   5.706
 8580TIP3    H225698   0.724   6.798   5.834
 8581TIP3   OH225699   5.832   1.525   2.719
 8581TIP3    H125700   5.759   1.464   2.731
 8581TIP3    H225701   5.903   1.488   2.771
 8582TIP3   OH225702   7.796   4.416   5.037
 8582TIP3    H125703   7.829   4.489   5.091
 8582TIP3    H225704   7.710   4.446   5.007
 8583TIP3   OH225705   2.402   1.923   5.033
 8583TIP3    H125706   2.399   1.829   5.015
 8583TIP3    H225707   2.418   1.963   4.948
 8584TIP3   OH225708   3.888   7.890   0.099
 8584TIP3    H125709   3.979   7.903   0.072
 8584TIP3    H225710   3.870   7.799   0.078
 8585TIP3   OH225711   1.980   7.186   0.590
 8585TIP3    H125712   2.037   7.109   0.597
 8585TIP3    H225713   2.040   7.260   0.581
 8586TIP3   OH225714   6.854   5.156   6.498
 8586TIP3    H125715   6.880   5.239   6.537
 8586TIP3    H225716   6.897   5.089   6.552
 8587TIP3   OH225717   4.780   4.102   5.876
 8587TIP3    H125718   4.734   4.123   5.795
 8587TIP3    H225719   4.713   4.065   5.933
 8588TIP3   OH225720   3.852   2.354   1.782
 8588TIP3    H125721   3.901   2.355   1.700
 8588TIP3    H225722   3.843   2.446   1.806
 8589TIP3   OH225723   1.472   1.741   5.011
 8589TIP3    H125724   1.557   1.755   4.971
 8589TIP3    H225725   1.447   1.652   4.986
 8590TIP3   OH225726   1.955   0.742   2.726
 8590TIP3    H125727   2.042   0.748   2.764
 8590TIP3    H225728   1.910   0.675   2.777
 8591TIP3   OH225729   0.221   1.698   4.769
 8591TIP3    H125730   0.273   1.707   4.849
 8591TIP3    H225731   0.171   1.779   4.764
 8592TIP3   OH225732   7.152   7.220   0.084
 8592TIP3    H125733   7.161   7.264   0.168
 8592TIP3    H225734   7.130   7.129   0.106
 8593TIP3   OH225735   1.003   4.588   1.207
 8593TIP3    H125736   0.940   4.540   1.152
 8593TIP3    H225737   1.031   4.523   1.271
 8594TIP3   OH225738   5.549   2.159   4.339
 8594TIP3    H125739   5.557   2.194   4.251
 8594TIP3    H225740   5.483   2.090   4.333
 8595TIP3   OH225741   5.847   6.207   5.090
 8595TIP3    H125742   5.806   6.161   5.016
 8595TIP3    H225743   5.775   6.254   5.132
 8596TIP3   OH225744   8.216   2.341   3.290
 8596TIP3    H125745   8.274   2.332   3.214
 8596TIP3    H225746   8.239   2.425   3.328
 8597TIP3   OH225747   5.076   6.290   2.351
 8597TIP3    H125748   5.026   6.292   2.269
 8597TIP3    H225749   5.167   6.282   2.323
 8598TIP3   OH225750   7.522   7.295   3.317
 8598TIP3    H125751   7.598   7.239   3.306
 8598TIP3    H225752   7.517   7.345   3.235
 8599TIP3   OH225753   2.619   3.467   0.155
 8599TIP3    H125754   2.551   3.479   0.088
 8599TIP3    H225755   2.635   3.555   0.188
 8600TIP3   OH225756   2.312   7.104   4.171
 8600TIP3    H125757   2.226   7.110   4.129
 8600TIP3    H225758   2.374   7.125   4.101
 8601TIP3   OH225759   4.936   5.307   1.593
 8601TIP3    H125760   5.024   5.313   1.629
 8601TIP3    H225761   4.914   5.214   1.597
 8602TIP3   OH225762   3.150   1.068   0.536
 8602TIP3    H125763   3.118   0.983   0.505
 8602TIP3    H225764   3.176   1.114   0.457
 8603TIP3   OH225765   7.368   4.904   0.304
 8603TIP3    H125766   7.323   4.898   0.219
 8603TIP3    H225767   7.358   4.817   0.343
 8604TIP3   OH225768   3.864   5.631   4.516
 8604TIP3    H125769   3.815   5.634   4.598
 8604TIP3    H225770   3.798   5.650   4.449
 8605TIP3   OH225771   6.479   3.900   5.877
 8605TIP3    H125772   6.446   3.835   5.814
 8605TIP3    H225773   6.543   3.851   5.930
 8606TIP3   OH225774   4.202   5.415   1.636
 8606TIP3    H125775   4.178   5.403   1.544
 8606TIP3    H225776   4.289   5.376   1.643
 8607TIP3   OH225777   1.486   1.506   1.894
 8607TIP3    H125778   1.410   1.512   1.836
 8607TIP3    H225779   1.553   1.560   1.850
 8608TIP3   OH225780   7.653   2.092   5.526
 8608TIP3    H125781   7.561   2.071   5.511
 8608TIP3    H225782   7.654   2.137   5.610
 8609TIP3   OH225783   0.956   0.645   4.058
 8609TIP3    H125784   0.903   0.594   4.120
 8609TIP3    H225785   1.044   0.610   4.068
 8610TIP3   OH225786   4.792   4.828   6.465
 8610TIP3    H125787   4.698   4.826   6.450
 8610TIP3    H225788   4.805   4.901   6.526
 8611TIP3   OH225789   3.242   1.321   4.717
 8611TIP3    H125790   3.174   1.276   4.666
 8611TIP3    H225791   3.276   1.388   4.658
 8612TIP3   OH225792   8.275   2.867   2.323
 8612TIP3    H125793   8.321   2.850   2.241
 8612TIP3    H225794   8.254   2.961   2.320
 8613TIP3   OH225795   6.928   3.008   4.623
 8613TIP3    H125796   6.951   2.938   4.685
 8613TIP3    H225797   6.920   2.963   4.539
 8614TIP3   OH225798   4.856   4.663   2.109
 8614TIP3    H125799   4.833   4.753   2.134
 8614TIP3    H225800   4.775   4.628   2.072
 8615TIP3   OH225801   1.637   7.316   3.102
 8615TIP3    H125802   1.668   7.359   3.022
 8615TIP3    H225803   1.675   7.228   3.098
 8616TIP3   OH225804   0.129   7.446   2.019
 8616TIP3    H125805   0.175   7.504   1.959
 8616TIP3    H225806   0.189   7.373   2.034
 8617TIP3   OH225807   2.780   7.739   0.722
 8617TIP3    H125808   2.853   7.715   0.664
 8617TIP3    H225809   2.725   7.661   0.725
 8618TIP3   OH225810   4.383   6.876   3.382
 8618TIP3    H125811   4.421   6.947   3.330
 8618TIP3    H225812   4.431   6.798   3.354
 8619TIP3   OH225813   5.992   7.681   1.924
 8619TIP3    H125814   6.035   7.597   1.911
 8619TIP3    H225815   6.048   7.745   1.880
 8620TIP3   OH225816   7.244   2.628   5.495
 8620TIP3    H125817   7.210   2.632   5.405
 8620TIP3    H225818   7.290   2.711   5.507
 8621TIP3   OH225819   4.186   4.956   2.400
 8621TIP3    H125820   4.273   4.972   2.361
 8621TIP3    H225821   4.145   5.042   2.402
 8622TIP3   OH225822   6.516   5.453   1.117
 8622TIP3    H125823   6.600   5.434   1.158
 8622TIP3    H225824   6.496   5.376   1.065
 8623TIP3   OH225825   8.050   5.861   2.948
 8623TIP3    H125826   8.054   5.861   3.043
 8623TIP3    H225827   8.025   5.771   2.925
 8624TIP3   OH225828   2.960   0.872   1.384
 8624TIP3    H125829   3.009   0.954   1.377
 8624TIP3    H225830   2.868   0.899   1.391
 8625TIP3   OH225831   1.132   2.932   6.620
 8625TIP3    H125832   1.083   2.850   6.627
 8625TIP3    H225833   1.127   2.955   6.527
 8626TIP3   OH225834   6.133   1.033   5.515
 8626TIP3    H125835   6.204   1.004   5.458
 8626TIP3    H225836   6.059   1.046   5.457
 8627TIP3   OH225837   4.023   6.664   2.096
 8627TIP3    H125838   4.037   6.608   2.020
 8627TIP3    H225839   3.955   6.619   2.146
 8628TIP3   OH225840   3.702   5.639   5.343
 8628TIP3    H125841   3.725   5.646   5.436
 8628TIP3    H225842   3.684   5.729   5.316
 8629TIP3   OH225843   0.923   2.452   0.128
 8629TIP3    H125844   0.832   2.428   0.145
 8629TIP3    H225845   0.933   2.442   0.033
 8630TIP3   OH225846   4.684   6.215   4.714
 8630TIP3    H125847   4.676   6.138   4.657
 8630TIP3    H225848   4.596   6.250   4.720
 8631TIP3   OH225849   7.147   3.603   4.993
 8631TIP3    H125850   7.114   3.665   4.928
 8631TIP3    H225851   7.099   3.624   5.073
 8632TIP3   OH225852   6.386   1.406   5.807
 8632TIP3    H125853   6.324   1.399   5.734
 8632TIP3    H225854   6.336   1.448   5.877
 8633TIP3   OH225855   6.819   3.173   0.664
 8633TIP3    H125856   6.782   3.087   0.687
 8633TIP3    H225857   6.864   3.158   0.581
 8634TIP3   OH225858   6.585   1.754   0.437
 8634TIP3    H125859   6.645   1.684   0.412
 8634TIP3    H225860   6.506   1.709   0.467
 8635TIP3   OH225861   5.227   5.915   1.710
 8635TIP3    H125862   5.160   5.856   1.743
 8635TIP3    H225863   5.293   5.919   1.780
 8636TIP3   OH225864   6.781   2.166   3.801
 8636TIP3    H125865   6.802   2.101   3.734
 8636TIP3    H225866   6.692   2.194   3.781
 8637TIP3   OH225867   2.837   3.736   4.239
 8637TIP3    H125868   2.849   3.659   4.294
 8637TIP3    H225869   2.854   3.810   4.298
 8638TIP3   OH225870   7.425   2.129   0.792
 8638TIP3    H125871   7.424   2.068   0.866
 8638TIP3    H225872   7.375   2.084   0.724
 8639TIP3   OH225873   1.584   5.780   4.453
 8639TIP3    H125874   1.623   5.806   4.370
 8639TIP3    H225875   1.629   5.833   4.519
 8640TIP3   OH225876   3.081   5.767   5.238
 8640TIP3    H125877   3.030   5.819   5.175
 8640TIP3    H225878   3.170   5.767   5.202
 8641TIP3   OH225879   1.489   3.468   1.804
 8641TIP3    H125880   1.571   3.470   1.754
 8641TIP3    H225881   1.421   3.468   1.738
 8642TIP3   OH225882   7.632   0.013   0.787
 8642TIP3    H125883   7.565  -0.054   0.793
 8642TIP3    H225884   7.625   0.062   0.869
 8643TIP3   OH225885   6.018   5.860   3.640
 8643TIP3    H125886   6.030   5.817   3.556
 8643TIP3    H225887   5.923   5.861   3.654
 8644TIP3   OH225888   7.576   0.041   3.775
 8644TIP3    H125889   7.518  -0.010   3.831
 8644TIP3    H225890   7.645   0.071   3.833
 8645TIP3   OH225891   0.155   3.818   5.362
 8645TIP3    H125892   0.071   3.777   5.380
 8645TIP3    H225893   0.156   3.896   5.418
 8646TIP3   OH225894   8.276   5.241   2.621
 8646TIP3    H125895   8.357   5.282   2.591
 8646TIP3    H225896   8.210   5.310   2.615
 8647TIP3   OH225897   7.676   0.224   2.685
 8647TIP3    H125898   7.587   0.258   2.697
 8647TIP3    H225899   7.720   0.244   2.767
 8648TIP3   OH225900   7.631   6.310   5.697
 8648TIP3    H125901   7.692   6.236   5.694
 8648TIP3    H225902   7.679   6.382   5.657
 8649TIP3   OH225903   1.823   2.057   1.410
 8649TIP3    H125904   1.821   2.077   1.504
 8649TIP3    H225905   1.828   2.143   1.368
 8650TIP3   OH225906   7.908   4.659   2.120
 8650TIP3    H125907   8.000   4.667   2.142
 8650TIP3    H225908   7.883   4.571   2.151
 8651TIP3   OH225909   0.253   5.675   2.527
 8651TIP3    H125910   0.173   5.623   2.518
 8651TIP3    H225911   0.321   5.622   2.487
 8652TIP3   OH225912   0.611   6.366   3.554
 8652TIP3    H125913   0.582   6.428   3.620
 8652TIP3    H225914   0.663   6.301   3.603
 8653TIP3   OH225915   3.999   6.878   5.330
 8653TIP3    H125916   4.001   6.922   5.415
 8653TIP3    H225917   3.936   6.929   5.279
 8654TIP3   OH225918   7.074   7.846   0.977
 8654TIP3    H125919   7.137   7.809   1.039
 8654TIP3    H225920   6.991   7.802   0.998
 8655TIP3   OH225921   2.914   6.725   1.371
 8655TIP3    H125922   2.824   6.697   1.358
 8655TIP3    H225923   2.910   6.789   1.442
 8656TIP3   OH225924   6.253   7.612   3.422
 8656TIP3    H125925   6.283   7.670   3.492
 8656TIP3    H225926   6.316   7.625   3.351
 8657TIP3   OH225927   7.874   4.501   4.543
 8657TIP3    H125928   7.924   4.566   4.593
 8657TIP3    H225929   7.828   4.450   4.609
 8658TIP3   OH225930   1.551   3.152   4.560
 8658TIP3    H125931   1.618   3.092   4.530
 8658TIP3    H225932   1.487   3.155   4.489
 8659TIP3   OH225933   2.356   3.543   3.746
 8659TIP3    H125934   2.368   3.622   3.800
 8659TIP3    H225935   2.361   3.574   3.656
 8660TIP3   OH225936   3.739   6.249   2.632
 8660TIP3    H125937   3.671   6.314   2.648
 8660TIP3    H225938   3.756   6.255   2.538
 8661TIP3   OH225939   5.655   0.359   4.100
 8661TIP3    H125940   5.619   0.435   4.146
 8661TIP3    H225941   5.580   0.320   4.056
 8662TIP3   OH225942   7.958   3.231   0.532
 8662TIP3    H125943   8.030   3.179   0.497
 8662TIP3    H225944   7.941   3.297   0.464
 8663TIP3   OH225945   7.423   0.373   5.441
 8663TIP3    H125946   7.435   0.326   5.358
 8663TIP3    H225947   7.465   0.458   5.426
 8664TIP3   OH225948   1.261   0.736   5.304
 8664TIP3    H125949   1.300   0.808   5.353
 8664TIP3    H225950   1.175   0.724   5.345
 8665TIP3   OH225951   0.387   6.159   5.150
 8665TIP3    H125952   0.293   6.174   5.159
 8665TIP3    H225953   0.423   6.243   5.123
 8666TIP3   OH225954   5.737   5.664   2.748
 8666TIP3    H125955   5.702   5.627   2.830
 8666TIP3    H225956   5.805   5.603   2.721
 8667TIP3   OH225957   8.146   4.283   4.020
 8667TIP3    H125958   8.218   4.295   3.958
 8667TIP3    H225959   8.152   4.191   4.046
 8668TIP3   OH225960   0.182   5.496   5.897
 8668TIP3    H125961   0.275   5.516   5.908
 8668TIP3    H225962   0.140   5.582   5.893
 8669TIP3   OH225963   4.116   7.334   1.432
 8669TIP3    H125964   4.108   7.292   1.517
 8669TIP3    H225965   4.200   7.381   1.436
 8670TIP3   OH225966   7.322   6.914   5.268
 8670TIP3    H125967   7.383   6.867   5.211
 8670TIP3    H225968   7.355   7.003   5.271
 8671TIP3   OH225969   7.899   5.045   0.577
 8671TIP3    H125970   7.942   5.071   0.658
 8671TIP3    H225971   7.943   5.095   0.508
 8672TIP3   OH225972   4.416   6.614   2.231
 8672TIP3    H125973   4.413   6.531   2.280
 8672TIP3    H225974   4.487   6.602   2.168
 8673TIP3   OH225975   0.050   7.196   0.809
 8673TIP3    H125976   0.115   7.184   0.878
 8673TIP3    H225977   0.054   7.115   0.758
 8674TIP3   OH225978   8.180   1.945   3.912
 8674TIP3    H125979   8.243   1.883   3.948
 8674TIP3    H225980   8.106   1.942   3.973
 8675TIP3   OH225981   5.718   0.205   4.352
 8675TIP3    H125982   5.797   0.247   4.384
 8675TIP3    H225983   5.693   0.255   4.274
 8676TIP3   OH225984   4.458   2.716   6.202
 8676TIP3    H125985   4.514   2.794   6.208
 8676TIP3    H225986   4.424   2.704   6.291
 8677TIP3   OH225987   1.965   3.427   4.152
 8677TIP3    H125988   1.974   3.516   4.118
 8677TIP3    H225989   1.964   3.371   4.073
 8678TIP3   OH225990   3.956   4.243   1.624
 8678TIP3    H125991   4.033   4.288   1.592
 8678TIP3    H225992   3.883   4.284   1.578
 8679TIP3   OH225993   2.116   2.109   4.396
 8679TIP3    H125994   2.085   2.200   4.397
 8679TIP3    H225995   2.111   2.081   4.488
 8680TIP3   OH225996   3.220   6.986   0.751
 8680TIP3    H125997   3.290   6.963   0.690
 8680TIP3    H225998   3.223   7.081   0.758
 8681TIP3   OH225999   2.315   5.507   4.605
 8681TIP3    H126000   2.334   5.591   4.647
 8681TIP3    H226001   2.233   5.522   4.558
 8682TIP3   OH226002   4.487   0.497   1.496
 8682TIP3    H126003   4.515   0.417   1.450
 8682TIP3    H226004   4.470   0.560   1.426
 8683TIP3   OH226005   2.046   7.038   6.605
 8683TIP3    H126006   2.011   7.111   6.656
 8683TIP3    H226007   2.141   7.049   6.611
 8684TIP3   OH226008   1.800   0.954   0.281
 8684TIP3    H126009   1.737   0.973   0.351
 8684TIP3    H226010   1.873   1.013   0.298
 8685TIP3   OH226011   7.070   2.758   0.119
 8685TIP3    H126012   7.004   2.740   0.051
 8685TIP3    H226013   7.021   2.798   0.190
 8686TIP3   OH226014   0.233   6.475   6.426
 8686TIP3    H126015   0.320   6.469   6.466
 8686TIP3    H226016   0.215   6.568   6.420
 8687TIP3   OH226017   2.901   3.040   5.052
 8687TIP3    H126018   2.855   3.002   4.977
 8687TIP3    H226019   2.907   3.133   5.031
 8688TIP3   OH226020   6.184   5.492   1.752
 8688TIP3    H126021   6.269   5.536   1.753
 8688TIP3    H226022   6.137   5.533   1.680
 8689TIP3   OH226023   1.621   2.064   0.969
 8689TIP3    H126024   1.602   2.063   0.876
 8689TIP3    H226025   1.706   2.021   0.977
 8690TIP3   OH226026   5.158   0.525   4.458
 8690TIP3    H126027   5.187   0.448   4.506
 8690TIP3    H226028   5.094   0.492   4.395
 8691TIP3   OH226029   6.949   2.582   4.530
 8691TIP3    H126030   7.037   2.579   4.569
 8691TIP3    H226031   6.894   2.535   4.592
 8692TIP3   OH226032   4.790   0.327   1.236
 8692TIP3    H126033   4.756   0.381   1.165
 8692TIP3    H226034   4.803   0.389   1.308
 8693TIP3   OH226035   7.681   7.024   4.061
 8693TIP3    H126036   7.715   7.093   4.005
 8693TIP3    H226037   7.722   6.944   4.029
 8694TIP3   OH226038   1.613   2.758   6.734
 8694TIP3    H126039   1.520   2.775   6.723
 8694TIP3    H226040   1.657   2.829   6.688
 8695TIP3   OH226041   6.632   0.755   1.818
 8695TIP3    H126042   6.557   0.748   1.759
 8695TIP3    H226043   6.700   0.702   1.777
 8696TIP3   OH226044   1.918   5.631   0.695
 8696TIP3    H126045   1.884   5.718   0.673
 8696TIP3    H226046   2.007   5.648   0.727
 8697TIP3   OH226047   0.636   1.015   4.624
 8697TIP3    H126048   0.611   0.948   4.561
 8697TIP3    H226049   0.617   1.098   4.581
 8698TIP3   OH226050   7.522   2.429   3.224
 8698TIP3    H126051   7.530   2.524   3.221
 8698TIP3    H226052   7.525   2.401   3.133
 8699TIP3   OH226053   4.846   5.922   4.254
 8699TIP3    H126054   4.812   5.837   4.282
 8699TIP3    H226055   4.852   5.973   4.335
 8700TIP3   OH226056   3.799   7.005   4.976
 8700TIP3    H126057   3.891   7.030   4.989
 8700TIP3    H226058   3.802   6.943   4.903
 8701TIP3   OH226059   4.671   4.057   4.387
 8701TIP3    H126060   4.715   4.011   4.315
 8701TIP3    H226061   4.640   4.139   4.348
 8702TIP3   OH226062   4.645   4.187   2.102
 8702TIP3    H126063   4.572   4.246   2.117
 8702TIP3    H226064   4.678   4.166   2.190
 8703TIP3   OH226065   1.198   1.700   5.353
 8703TIP3    H126066   1.272   1.651   5.388
 8703TIP3    H226067   1.180   1.659   5.268
 8704TIP3   OH226068   5.730   7.061   1.246
 8704TIP3    H126069   5.713   7.107   1.164
 8704TIP3    H226070   5.826   7.054   1.249
 8705TIP3   OH226071   5.748   2.565   0.074
 8705TIP3    H126072   5.715   2.567   0.164
 8705TIP3    H226073   5.678   2.521   0.025
 8706TIP3   OH226074   6.038   3.108   4.292
 8706TIP3    H126075   6.100   3.143   4.227
 8706TIP3    H226076   6.038   3.173   4.362
 8707TIP3   OH226077   4.414   7.450   2.191
 8707TIP3    H126078   4.475   7.464   2.118
 8707TIP3    H226079   4.327   7.454   2.151
 8708TIP3   OH226080   3.051   5.685   6.448
 8708TIP3    H126081   3.129   5.634   6.472
 8708TIP3    H226082   3.039   5.745   6.521
 8709TIP3   OH226083   4.128   6.784   4.752
 8709TIP3    H126084   4.178   6.706   4.775
 8709TIP3    H226085   4.144   6.846   4.824
 8710TIP3   OH226086   5.971   0.891   2.888
 8710TIP3    H126087   6.063   0.898   2.862
 8710TIP3    H226088   5.950   0.977   2.924
 8711TIP3   OH226089   0.160   1.746   3.101
 8711TIP3    H126090   0.128   1.743   3.191
 8711TIP3    H226091   0.082   1.764   3.048
 8712TIP3   OH226092   7.754   0.494   5.660
 8712TIP3    H126093   7.674   0.444   5.676
 8712TIP3    H226094   7.761   0.552   5.736
 8713TIP3   OH226095   4.733   7.079   3.352
 8713TIP3    H126096   4.759   7.067   3.261
 8713TIP3    H226097   4.793   7.022   3.401
 8714TIP3   OH226098   1.289   5.644   5.271
 8714TIP3    H126099   1.260   5.582   5.337
 8714TIP3    H226100   1.270   5.601   5.187
 8715TIP3   OH226101   4.750   6.151   0.116
 8715TIP3    H126102   4.768   6.174   0.025
 8715TIP3    H226103   4.663   6.188   0.133
 8716TIP3   OH226104   3.610   2.874   6.441
 8716TIP3    H126105   3.621   2.882   6.347
 8716TIP3    H226106   3.561   2.953   6.466
 8717TIP3   OH226107   2.668   5.231   3.116
 8717TIP3    H126108   2.723   5.176   3.060
 8717TIP3    H226109   2.582   5.231   3.073
 8718TIP3   OH226110   4.978   3.336   1.678
 8718TIP3    H126111   4.896   3.296   1.706
 8718TIP3    H226112   4.951   3.412   1.626
 8719TIP3   OH226113   1.414   3.135   3.046
 8719TIP3    H126114   1.360   3.060   3.019
 8719TIP3    H226115   1.351   3.205   3.063
 8720TIP3   OH226116   2.478   1.479   3.297
 8720TIP3    H126117   2.433   1.415   3.353
 8720TIP3    H226118   2.468   1.562   3.343
 8721TIP3   OH226119   1.217   3.245   5.330
 8721TIP3    H126120   1.215   3.164   5.278
 8721TIP3    H226121   1.302   3.243   5.374
 8722TIP3   OH226122   1.087   1.233   3.039
 8722TIP3    H126123   0.994   1.249   3.025
 8722TIP3    H226124   1.103   1.263   3.129
 8723TIP3   OH226125   6.434   6.517   5.743
 8723TIP3    H126126   6.484   6.561   5.812
 8723TIP3    H226127   6.344   6.547   5.756
 8724TIP3   OH226128   7.032   5.534   4.731
 8724TIP3    H126129   7.053   5.616   4.778
 8724TIP3    H226130   6.970   5.490   4.789
 8725TIP3   OH226131   8.127   4.135   4.263
 8725TIP3    H126132   8.074   4.213   4.276
 8725TIP3    H226133   8.214   4.159   4.295
 8726TIP3   OH226134   5.569   6.419   6.597
 8726TIP3    H126135   5.488   6.408   6.548
 8726TIP3    H226136   5.614   6.334   6.589
 8727TIP3   OH226137   4.036   2.077   2.378
 8727TIP3    H126138   4.110   2.036   2.423
 8727TIP3    H226139   4.052   2.061   2.285
 8728TIP3   OH226140   7.978   1.220   3.704
 8728TIP3    H126141   8.007   1.285   3.640
 8728TIP3    H226142   8.029   1.239   3.783
 8729TIP3   OH226143   2.357   5.259   0.913
 8729TIP3    H126144   2.369   5.193   0.845
 8729TIP3    H226145   2.404   5.225   0.989
 8730TIP3   OH226146   4.401   2.958   5.269
 8730TIP3    H126147   4.488   2.997   5.269
 8730TIP3    H226148   4.405   2.889   5.203
 8731TIP3   OH226149   3.097   2.121   5.328
 8731TIP3    H126150   3.026   2.145   5.268
 8731TIP3    H226151   3.056   2.063   5.392
 8732TIP3   OH226152   3.825   6.462   4.909
 8732TIP3    H126153   3.787   6.464   4.997
 8732TIP3    H226154   3.754   6.489   4.851
 8733TIP3   OH226155   8.182   2.625   2.487
 8733TIP3    H126156   8.228   2.557   2.438
 8733TIP3    H226157   8.197   2.705   2.437
 8734TIP3   OH226158   0.142   0.744   3.405
 8734TIP3    H126159   0.063   0.766   3.456
 8734TIP3    H226160   0.196   0.823   3.410
 8735TIP3   OH226161   4.754   2.182   6.676
 8735TIP3    H126162   4.751   2.089   6.698
 8735TIP3    H226163   4.672   2.218   6.709
 8736TIP3   OH226164   1.682   3.687   5.690
 8736TIP3    H126165   1.757   3.679   5.750
 8736TIP3    H226166   1.609   3.711   5.746
 8737TIP3   OH226167   6.119   1.734   0.256
 8737TIP3    H126168   6.126   1.828   0.272
 8737TIP3    H226169   6.077   1.699   0.335
 8738TIP3   OH226170   8.198   5.452   4.465
 8738TIP3    H126171   8.219   5.397   4.390
 8738TIP3    H226172   8.114   5.419   4.496
 8739TIP3   OH226173   1.963   5.182   1.681
 8739TIP3    H126174   2.002   5.192   1.594
 8739TIP3    H226175   2.036   5.157   1.738
 8740TIP3   OH226176   7.400   2.332   3.998
 8740TIP3    H126177   7.462   2.393   3.957
 8740TIP3    H226178   7.370   2.276   3.927
 8741TIP3   OH226179   1.371   3.246   1.248
 8741TIP3    H126180   1.331   3.330   1.270
 8741TIP3    H226181   1.304   3.181   1.269
 8742TIP3   OH226182   5.595   5.181   5.254
 8742TIP3    H126183   5.562   5.131   5.329
 8742TIP3    H226184   5.533   5.161   5.183
 8743TIP3   OH226185   6.900   3.602   0.378
 8743TIP3    H126186   6.859   3.624   0.295
 8743TIP3    H226187   6.827   3.592   0.439
 8744TIP3   OH226188   7.416   1.846   5.771
 8744TIP3    H126189   7.495   1.794   5.786
 8744TIP3    H226190   7.413   1.859   5.676
 8745TIP3   OH226191   6.562   1.913   2.479
 8745TIP3    H126192   6.559   1.949   2.390
 8745TIP3    H226193   6.610   1.979   2.530
 8746TIP3   OH226194   1.742   3.117   5.441
 8746TIP3    H126195   1.744   3.055   5.515
 8746TIP3    H226196   1.773   3.200   5.478
 8747TIP3   OH226197   4.365   5.668   1.809
 8747TIP3    H126198   4.384   5.758   1.783
 8747TIP3    H226199   4.272   5.668   1.832
 8748TIP3   OH226200   4.734   3.914   0.100
 8748TIP3    H126201   4.704   3.896   0.189
 8748TIP3    H226202   4.705   3.838   0.049
 8749TIP3   OH226203   0.477   1.893   4.276
 8749TIP3    H126204   0.508   1.873   4.188
 8749TIP3    H226205   0.422   1.971   4.265
 8750TIP3   OH226206   2.160   4.344   6.426
 8750TIP3    H126207   2.066   4.330   6.425
 8750TIP3    H226208   2.183   4.362   6.335
 8751TIP3   OH226209   5.336   4.431   5.106
 8751TIP3    H126210   5.327   4.366   5.176
 8751TIP3    H226211   5.263   4.491   5.120
 8752TIP3   OH226212   5.274   2.161   3.562
 8752TIP3    H126213   5.209   2.197   3.622
 8752TIP3    H226214   5.305   2.081   3.604
 8753TIP3   OH226215   3.273   5.129   4.828
 8753TIP3    H126216   3.183   5.123   4.798
 8753TIP3    H226217   3.267   5.157   4.919
 8754TIP3   OH226218   2.649   6.553   3.026
 8754TIP3    H126219   2.633   6.506   2.944
 8754TIP3    H226220   2.564   6.555   3.070
 8755TIP3   OH226221   5.672   7.558   6.802
 8755TIP3    H126222   5.625   7.578   6.883
 8755TIP3    H226223   5.664   7.463   6.792
 8756TIP3   OH226224   6.628   2.371   0.377
 8756TIP3    H126225   6.714   2.396   0.343
 8756TIP3    H226226   6.611   2.433   0.447
 8757TIP3   OH226227   5.153   6.658   0.790
 8757TIP3    H126228   5.159   6.749   0.818
 8757TIP3    H226229   5.154   6.662   0.695
 8758TIP3   OH226230   0.360   3.196   1.325
 8758TIP3    H126231   0.449   3.185   1.357
 8758TIP3    H226232   0.338   3.287   1.345
 8759TIP3   OH226233   0.555   7.534   2.278
 8759TIP3    H126234   0.607   7.515   2.356
 8759TIP3    H226235   0.467   7.548   2.311
 8760TIP3   OH226236   3.294   2.677   1.985
 8760TIP3    H126237   3.298   2.754   2.043
 8760TIP3    H226238   3.335   2.607   2.036
 8761TIP3   OH226239   3.834   0.493   6.443
 8761TIP3    H126240   3.864   0.426   6.503
 8761TIP3    H226241   3.782   0.446   6.378
 8762TIP3   OH226242   0.759   5.941   6.131
 8762TIP3    H126243   0.721   5.855   6.110
 8762TIP3    H226244   0.796   5.929   6.219
 8763TIP3   OH226245   5.748   2.720   5.027
 8763TIP3    H126246   5.766   2.813   5.046
 8763TIP3    H226247   5.822   2.673   5.066
 8764TIP3   OH226248   4.529   0.597   1.235
 8764TIP3    H126249   4.595   0.560   1.177
 8764TIP3    H226250   4.471   0.646   1.177
 8765TIP3   OH226251   2.606   1.280   0.564
 8765TIP3    H126252   2.531   1.278   0.623
 8765TIP3    H226253   2.672   1.332   0.611
 8766TIP3   OH226254   7.404   2.260   1.569
 8766TIP3    H126255   7.430   2.318   1.498
 8766TIP3    H226256   7.480   2.259   1.628
 8767TIP3   OH226257   6.711   6.331   0.893
 8767TIP3    H126258   6.784   6.297   0.944
 8767TIP3    H226259   6.677   6.254   0.846
 8768TIP3   OH226260   3.682   3.610   3.600
 8768TIP3    H126261   3.713   3.604   3.691
 8768TIP3    H226262   3.647   3.699   3.593
 8769TIP3   OH226263   8.197   3.553   4.809
 8769TIP3    H126264   8.238   3.631   4.771
 8769TIP3    H226265   8.106   3.556   4.780
 8770TIP3   OH226266   3.054   7.071   6.689
 8770TIP3    H126267   3.046   7.162   6.660
 8770TIP3    H226268   3.112   7.030   6.625
 8771TIP3   OH226269   6.011   0.517   5.111
 8771TIP3    H126270   5.917   0.533   5.125
 8771TIP3    H226271   6.019   0.500   5.017
 8772TIP3   OH226272   7.185   5.535   0.792
 8772TIP3    H126273   7.232   5.476   0.851
 8772TIP3    H226274   7.151   5.477   0.723
 8773TIP3   OH226275   2.102   5.076   0.561
 8773TIP3    H126276   2.149   5.031   0.491
 8773TIP3    H226277   2.067   5.005   0.615
 8774TIP3   OH226278   0.921   3.687   2.882
 8774TIP3    H126279   0.973   3.616   2.844
 8774TIP3    H226280   0.985   3.757   2.897
 8775TIP3   OH226281   2.429   5.640   2.812
 8775TIP3    H126282   2.415   5.565   2.754
 8775TIP3    H226283   2.417   5.603   2.900
 8776TIP3   OH226284   3.522   1.602   1.748
 8776TIP3    H126285   3.491   1.630   1.662
 8776TIP3    H226286   3.477   1.519   1.764
 8777TIP3   OH226287   2.582   4.326   0.238
 8777TIP3    H126288   2.507   4.323   0.178
 8777TIP3    H226289   2.549   4.291   0.320
 8778TIP3   OH226290   6.842   3.427   5.947
 8778TIP3    H126291   6.839   3.484   6.023
 8778TIP3    H226292   6.933   3.397   5.942
 8779TIP3   OH226293   3.183   0.378   5.496
 8779TIP3    H126294   3.114   0.374   5.562
 8779TIP3    H226295   3.262   0.400   5.545
 8780TIP3   OH226296   0.773   6.678   0.180
 8780TIP3    H126297   0.742   6.588   0.183
 8780TIP3    H226298   0.716   6.725   0.241
 8781TIP3   OH226299   0.082   6.085   4.764
 8781TIP3    H126300   0.073   6.058   4.855
 8781TIP3    H226301   0.036   6.018   4.714
 8782TIP3   OH226302   1.674   0.197   2.684
 8782TIP3    H126303   1.718   0.157   2.758
 8782TIP3    H226304   1.617   0.263   2.723
 8783TIP3   OH226305   7.734   1.276   4.511
 8783TIP3    H126306   7.716   1.212   4.581
 8783TIP3    H226307   7.676   1.250   4.439
 8784TIP3   OH226308   7.649   6.123   3.541
 8784TIP3    H126309   7.569   6.086   3.578
 8784TIP3    H226310   7.720   6.067   3.575
 8785TIP3   OH226311   5.080   4.145   4.908
 8785TIP3    H126312   5.062   4.239   4.916
 8785TIP3    H226313   5.053   4.109   4.993
 8786TIP3   OH226314   4.083   1.649   6.568
 8786TIP3    H126315   4.122   1.649   6.481
 8786TIP3    H226316   4.022   1.575   6.568
 8787TIP3   OH226317   0.568   1.093   5.943
 8787TIP3    H126318   0.553   1.031   6.014
 8787TIP3    H226319   0.606   1.170   5.985
 8788TIP3   OH226320   7.650   3.510   5.845
 8788TIP3    H126321   7.675   3.600   5.866
 8788TIP3    H226322   7.587   3.486   5.912
 8789TIP3   OH226323   5.134   2.885   5.159
 8789TIP3    H126324   5.110   2.907   5.249
 8789TIP3    H226325   5.230   2.892   5.158
 8790TIP3   OH226326   6.093   2.010   3.169
 8790TIP3    H126327   6.130   1.963   3.095
 8790TIP3    H226328   6.063   1.942   3.229
 8791TIP3   OH226329   0.009   3.342   5.870
 8791TIP3    H126330  -0.035   3.388   5.941
 8791TIP3    H226331  -0.037   3.258   5.863
 8792TIP3   OH226332   2.601   3.943   4.213
 8792TIP3    H126333   2.610   3.971   4.122
 8792TIP3    H226334   2.689   3.914   4.238
 8793TIP3   OH226335   5.352   4.629   3.609
 8793TIP3    H126336   5.327   4.561   3.546
 8793TIP3    H226337   5.313   4.599   3.692
 8794TIP3   OH226338   0.854   5.913   4.128
 8794TIP3    H126339   0.949   5.928   4.134
 8794TIP3    H226340   0.844   5.859   4.050
 8795TIP3   OH226341   4.124   6.727   0.529
 8795TIP3    H126342   4.075   6.747   0.449
 8795TIP3    H226343   4.125   6.632   0.533
 8796TIP3   OH226344   7.592   1.547   3.172
 8796TIP3    H126345   7.551   1.494   3.105
 8796TIP3    H226346   7.618   1.485   3.240
 8797TIP3   OH226347   7.548   7.003   2.866
 8797TIP3    H126348   7.550   6.916   2.826
 8797TIP3    H226349   7.548   7.063   2.791
 8798TIP3   OH226350   0.202   3.471   4.860
 8798TIP3    H126351   0.107   3.463   4.862
 8798TIP3    H226352   0.218   3.552   4.813
 8799TIP3   OH226353   1.648   0.708   2.712
 8799TIP3    H126354   1.647   0.758   2.794
 8799TIP3    H226355   1.580   0.641   2.724
 8800TIP3   OH226356   4.657   0.918   4.398
 8800TIP3    H126357   4.609   0.894   4.477
 8800TIP3    H226358   4.704   0.839   4.373
 8801TIP3   OH226359   5.952   1.157   2.976
 8801TIP3    H126360   5.935   1.187   3.065
 8801TIP3    H226361   6.047   1.146   2.973
 8802TIP3   OH226362   4.535   0.320   6.337
 8802TIP3    H126363   4.453   0.288   6.299
 8802TIP3    H226364   4.570   0.244   6.384
 8803TIP3   OH226365   7.188   6.682   1.828
 8803TIP3    H126366   7.214   6.601   1.784
 8803TIP3    H226367   7.254   6.694   1.896
 8804TIP3   OH226368   6.155   0.066   0.037
 8804TIP3    H126369   6.232   0.120   0.057
 8804TIP3    H226370   6.181  -0.022   0.064
 8805TIP3   OH226371   1.728   2.988   6.649
 8805TIP3    H126372   1.639   3.008   6.620
 8805TIP3    H226373   1.759   3.069   6.689
 8806TIP3   OH226374   2.692   0.340   2.665
 8806TIP3    H126375   2.699   0.275   2.735
 8806TIP3    H226376   2.782   0.358   2.639
 8807TIP3   OH226377   4.413   2.361   5.671
 8807TIP3    H126378   4.440   2.368   5.580
 8807TIP3    H226379   4.339   2.421   5.678
 8808TIP3   OH226380   1.087   4.031   5.489
 8808TIP3    H126381   1.092   4.121   5.456
 8808TIP3    H226382   1.167   3.990   5.458
 8809TIP3   OH226383   2.240   6.634   3.607
 8809TIP3    H126384   2.336   6.640   3.610
 8809TIP3    H226385   2.216   6.687   3.530
 8810TIP3   OH226386   8.018   4.357   0.018
 8810TIP3    H126387   8.048   4.288  -0.041
 8810TIP3    H226388   7.964   4.312   0.083
 8811TIP3   OH226389   7.779   0.050   3.964
 8811TIP3    H126390   7.760   0.121   4.025
 8811TIP3    H226391   7.802  -0.024   4.019
 8812TIP3   OH226392   6.253   5.322   5.421
 8812TIP3    H126393   6.309   5.400   5.423
 8812TIP3    H226394   6.289   5.269   5.351
 8813TIP3   OH226395   8.223   3.487   1.936
 8813TIP3    H126396   8.151   3.481   1.998
 8813TIP3    H226397   8.273   3.563   1.964
 8814TIP3   OH226398   7.008   5.075   3.033
 8814TIP3    H126399   7.074   5.009   3.053
 8814TIP3    H226400   6.941   5.064   3.101
 8815TIP3   OH226401   1.942   4.779   0.368
 8815TIP3    H126402   1.954   4.767   0.462
 8815TIP3    H226403   1.981   4.864   0.349
 8816TIP3   OH226404   3.253   5.698   2.474
 8816TIP3    H126405   3.263   5.785   2.436
 8816TIP3    H226406   3.163   5.697   2.507
 8817TIP3   OH226407   4.951   3.565   5.940
 8817TIP3    H126408   4.898   3.645   5.935
 8817TIP3    H226409   5.025   3.582   5.882
 8818TIP3   OH226410   0.453   2.933   1.612
 8818TIP3    H126411   0.451   2.918   1.707
 8818TIP3    H226412   0.365   2.964   1.591
 8819TIP3   OH226413   4.475   7.225   6.375
 8819TIP3    H126414   4.482   7.196   6.284
 8819TIP3    H226415   4.390   7.269   6.380
 8820TIP3   OH226416   5.674   4.227   5.268
 8820TIP3    H126417   5.635   4.251   5.352
 8820TIP3    H226418   5.669   4.307   5.216
 8821TIP3   OH226419   3.707   7.325   6.276
 8821TIP3    H126420   3.691   7.347   6.368
 8821TIP3    H226421   3.799   7.346   6.263
 8822TIP3   OH226422   2.256   3.752   5.556
 8822TIP3    H126423   2.181   3.705   5.520
 8822TIP3    H226424   2.324   3.686   5.566
 8823TIP3   OH226425   0.113   5.720   1.281
 8823TIP3    H126426   0.086   5.654   1.345
 8823TIP3    H226427   0.039   5.780   1.275
 8824TIP3   OH226428   4.100   2.661   2.641
 8824TIP3    H126429   4.125   2.578   2.682
 8824TIP3    H226430   4.165   2.724   2.675
 8825TIP3   OH226431   6.387   0.071   2.560
 8825TIP3    H126432   6.474   0.110   2.565
 8825TIP3    H226433   6.327   0.145   2.549
 8826TIP3   OH226434   0.158   6.806   3.970
 8826TIP3    H126435   0.234   6.841   3.924
 8826TIP3    H226436   0.191   6.779   4.056
 8827TIP3   OH226437   1.890   6.650   3.182
 8827TIP3    H126438   1.884   6.633   3.276
 8827TIP3    H226439   1.802   6.679   3.156
 8828TIP3   OH226440   2.116   4.834   3.615
 8828TIP3    H126441   2.039   4.792   3.576
 8828TIP3    H226442   2.142   4.900   3.551
 8829TIP3   OH226443   2.410   7.033   0.605
 8829TIP3    H126444   2.494   6.990   0.620
 8829TIP3    H226445   2.351   6.993   0.669
 8830TIP3   OH226446   3.884   2.103   5.366
 8830TIP3    H126447   3.831   2.110   5.445
 8830TIP3    H226448   3.968   2.067   5.397
 8831TIP3   OH226449   7.792   4.740   3.473
 8831TIP3    H126450   7.802   4.835   3.488
 8831TIP3    H226451   7.815   4.701   3.557
 8832TIP3   OH226452   0.651   6.640   0.614
 8832TIP3    H126453   0.607   6.714   0.655
 8832TIP3    H226454   0.724   6.619   0.672
 8833TIP3   OH226455   1.103   1.858   3.120
 8833TIP3    H126456   1.056   1.848   3.037
 8833TIP3    H226457   1.185   1.809   3.107
 8834TIP3   OH226458   0.342   1.939   2.935
 8834TIP3    H126459   0.269   1.923   2.876
 8834TIP3    H226460   0.317   1.896   3.017
 8835TIP3   OH226461   5.081   6.993   2.547
 8835TIP3    H126462   4.998   6.954   2.519
 8835TIP3    H226463   5.085   6.977   2.641
 8836TIP3   OH226464   5.482   4.071   0.508
 8836TIP3    H126465   5.564   4.120   0.508
 8836TIP3    H226466   5.509   3.979   0.500
 8837TIP3   OH226467   6.590   5.706   1.241
 8837TIP3    H126468   6.598   5.641   1.171
 8837TIP3    H226469   6.667   5.763   1.230
 8838TIP3   OH226470   6.888   5.754   2.990
 8838TIP3    H126471   6.943   5.689   2.947
 8838TIP3    H226472   6.950   5.812   3.034
 8839TIP3   OH226473   5.558   2.174   3.749
 8839TIP3    H126474   5.576   2.097   3.803
 8839TIP3    H226475   5.466   2.165   3.722
 8840TIP3   OH226476   6.582   6.973   5.884
 8840TIP3    H126477   6.584   6.989   5.978
 8840TIP3    H226478   6.490   6.954   5.864
 8841TIP3   OH226479   4.410   3.366   2.229
 8841TIP3    H126480   4.368   3.286   2.262
 8841TIP3    H226481   4.494   3.369   2.274
 8842TIP3   OH226482   3.906   7.611   2.751
 8842TIP3    H126483   3.908   7.546   2.681
 8842TIP3    H226484   3.907   7.559   2.832
 8843TIP3   OH226485   7.381   2.350   4.984
 8843TIP3    H126486   7.416   2.366   5.072
 8843TIP3    H226487   7.292   2.319   4.999
 8844TIP3   OH226488   3.560   2.807   0.168
 8844TIP3    H126489   3.494   2.783   0.103
 8844TIP3    H226490   3.510   2.823   0.248
 8845TIP3   OH226491   2.706   3.848   0.633
 8845TIP3    H126492   2.737   3.934   0.663
 8845TIP3    H226493   2.764   3.825   0.561
 8846TIP3   OH226494   3.753   7.157   2.188
 8846TIP3    H126495   3.698   7.083   2.160
 8846TIP3    H226496   3.704   7.234   2.162
 8847TIP3   OH226497   3.667   3.291   4.981
 8847TIP3    H126498   3.691   3.317   4.892
 8847TIP3    H226499   3.607   3.217   4.969
 8848TIP3   OH226500   6.258   6.770   5.073
 8848TIP3    H126501   6.180   6.728   5.107
 8848TIP3    H226502   6.279   6.839   5.136
 8849TIP3   OH226503   1.409   1.015   1.213
 8849TIP3    H126504   1.413   1.111   1.207
 8849TIP3    H226505   1.333   0.991   1.159
 8850TIP3   OH226506   7.886   4.396   4.082
 8850TIP3    H126507   7.866   4.487   4.059
 8850TIP3    H226508   7.978   4.385   4.061
 8851TIP3   OH226509   2.796   0.878   6.409
 8851TIP3    H126510   2.730   0.862   6.477
 8851TIP3    H226511   2.802   0.974   6.404
 8852TIP3   OH226512   4.650   3.167   1.966
 8852TIP3    H126513   4.720   3.177   1.901
 8852TIP3    H226514   4.569   3.167   1.914
 8853TIP3   OH226515   7.746   0.967   5.917
 8853TIP3    H126516   7.783   1.033   5.858
 8853TIP3    H226517   7.653   0.964   5.894
 8854TIP3   OH226518   1.193   5.006   4.772
 8854TIP3    H126519   1.263   5.047   4.723
 8854TIP3    H226520   1.231   4.989   4.858
 8855TIP3   OH226521   3.217   4.125   1.656
 8855TIP3    H126522   3.131   4.134   1.614
 8855TIP3    H226523   3.251   4.214   1.661
 8856TIP3   OH226524   3.442   2.516   6.016
 8856TIP3    H126525   3.509   2.561   5.964
 8856TIP3    H226526   3.486   2.499   6.100
 8857TIP3   OH226527   4.921   7.726   5.695
 8857TIP3    H126528   4.850   7.754   5.753
 8857TIP3    H226529   4.882   7.657   5.641
 8858TIP3   OH226530   4.676   5.391   3.403
 8858TIP3    H126531   4.606   5.404   3.467
 8858TIP3    H226532   4.663   5.301   3.372
 8859TIP3   OH226533   6.050   7.015   2.329
 8859TIP3    H126534   6.136   7.040   2.363
 8859TIP3    H226535   6.060   7.020   2.234
 8860TIP3   OH226536   4.693   2.090   6.002
 8860TIP3    H126537   4.680   2.146   5.925
 8860TIP3    H226538   4.688   2.001   5.968
 8861TIP3   OH226539   1.313   0.382   3.303
 8861TIP3    H126540   1.357   0.464   3.326
 8861TIP3    H226541   1.317   0.329   3.383
 8862TIP3   OH226542   7.076   7.283   6.467
 8862TIP3    H126543   7.096   7.326   6.383
 8862TIP3    H226544   7.025   7.348   6.515
 8863TIP3   OH226545   0.471   7.116   0.636
 8863TIP3    H126546   0.405   7.151   0.576
 8863TIP3    H226547   0.424   7.052   0.690
 8864TIP3   OH226548   4.507   2.680   1.921
 8864TIP3    H126549   4.522   2.774   1.931
 8864TIP3    H226550   4.569   2.640   1.981
 8865TIP3   OH226551   4.130   6.037   3.059
 8865TIP3    H126552   4.083   5.958   3.088
 8865TIP3    H226553   4.219   6.024   3.090
 8866TIP3   OH226554   5.569   5.741   0.534
 8866TIP3    H126555   5.600   5.798   0.605
 8866TIP3    H226556   5.625   5.762   0.460
 8867TIP3   OH226557   3.184   0.934   4.441
 8867TIP3    H126558   3.130   0.858   4.462
 8867TIP3    H226559   3.206   0.923   4.348
 8868TIP3   OH226560   8.132   1.013   4.617
 8868TIP3    H126561   8.187   1.026   4.694
 8868TIP3    H226562   8.097   1.099   4.596
 8869TIP3   OH226563   4.343   4.174   3.329
 8869TIP3    H126564   4.326   4.122   3.408
 8869TIP3    H226565   4.334   4.112   3.257
 8870TIP3   OH226566   5.209   5.633   5.116
 8870TIP3    H126567   5.285   5.575   5.115
 8870TIP3    H226568   5.146   5.590   5.059
 8871TIP3   OH226569   5.218   0.491   2.816
 8871TIP3    H126570   5.250   0.576   2.788
 8871TIP3    H226571   5.125   0.492   2.794
 8872TIP3   OH226572   4.355   6.546   6.560
 8872TIP3    H126573   4.260   6.555   6.548
 8872TIP3    H226574   4.365   6.474   6.622
 8873TIP3   OH226575   6.743   7.428   4.218
 8873TIP3    H126576   6.727   7.522   4.231
 8873TIP3    H226577   6.789   7.400   4.297
 8874TIP3   OH226578   4.863   0.971   3.512
 8874TIP3    H126579   4.908   0.915   3.449
 8874TIP3    H226580   4.854   1.055   3.467
 8875TIP3   OH226581   4.080   0.680   6.664
 8875TIP3    H126582   4.032   0.739   6.722
 8875TIP3    H226583   4.157   0.654   6.714
 8876TIP3   OH226584   0.049   5.458   6.198
 8876TIP3    H126585   0.144   5.470   6.203
 8876TIP3    H226586   0.038   5.370   6.161
 8877TIP3   OH226587   1.347   6.383   0.135
 8877TIP3    H126588   1.268   6.417   0.178
 8877TIP3    H226589   1.409   6.368   0.207
 8878TIP3   OH226590   1.910   4.911   2.907
 8878TIP3    H126591   1.991   4.926   2.956
 8878TIP3    H226592   1.857   4.988   2.923
 8879TIP3   OH226593   1.309   6.186   0.862
 8879TIP3    H126594   1.268   6.262   0.904
 8879TIP3    H226595   1.252   6.166   0.787
 8880TIP3   OH226596   1.221   4.930   3.058
 8880TIP3    H126597   1.157   4.994   3.026
 8880TIP3    H226598   1.257   4.889   2.980
 8881TIP3   OH226599   1.926   2.664   1.554
 8881TIP3    H126600   1.969   2.580   1.538
 8881TIP3    H226601   1.899   2.660   1.645
 8882TIP3   OH226602   6.425   7.223   1.111
 8882TIP3    H126603   6.387   7.155   1.167
 8882TIP3    H226604   6.507   7.184   1.080
 8883TIP3   OH226605   6.028   7.273   0.408
 8883TIP3    H126606   6.114   7.309   0.431
 8883TIP3    H226607   5.966   7.319   0.466
 8884TIP3   OH226608   7.064   2.587   3.353
 8884TIP3    H126609   7.092   2.527   3.285
 8884TIP3    H226610   7.033   2.665   3.306
 8885TIP3   OH226611   1.424   6.322   4.524
 8885TIP3    H126612   1.398   6.243   4.477
 8885TIP3    H226613   1.373   6.392   4.484
 8886TIP3   OH226614   2.328   1.562   1.729
 8886TIP3    H126615   2.261   1.559   1.797
 8886TIP3    H226616   2.281   1.586   1.650
 8887TIP3   OH226617   7.956   6.926   4.907
 8887TIP3    H126618   7.967   6.932   5.002
 8887TIP3    H226619   8.034   6.968   4.871
 8888TIP3   OH226620   3.477   4.876   5.267
 8888TIP3    H126621   3.526   4.849   5.189
 8888TIP3    H226622   3.543   4.879   5.336
 8889TIP3   OH226623   1.974   3.570   5.756
 8889TIP3    H126624   2.016   3.638   5.808
 8889TIP3    H226625   1.969   3.495   5.814
 8890TIP3   OH226626   3.697   3.819   5.189
 8890TIP3    H126627   3.642   3.741   5.188
 8890TIP3    H226628   3.666   3.870   5.264
 8891TIP3   OH226629   4.494   5.006   3.911
 8891TIP3    H126630   4.485   4.962   3.995
 8891TIP3    H226631   4.494   5.099   3.932
 8892TIP3   OH226632   6.883   7.736   2.961
 8892TIP3    H126633   6.968   7.770   2.989
 8892TIP3    H226634   6.840   7.709   3.042
 8893TIP3   OH226635   1.941   2.364   2.745
 8893TIP3    H126636   1.952   2.295   2.810
 8893TIP3    H226637   2.017   2.355   2.687
 8894TIP3   OH226638   7.258   5.109   4.055
 8894TIP3    H126639   7.321   5.081   4.121
 8894TIP3    H226640   7.175   5.116   4.104
 8895TIP3   OH226641   2.895   2.401   6.048
 8895TIP3    H126642   2.831   2.359   5.991
 8895TIP3    H226643   2.951   2.452   5.989
 8896TIP3   OH226644   2.633   3.575   5.884
 8896TIP3    H126645   2.676   3.511   5.828
 8896TIP3    H226646   2.677   3.658   5.865
 8897TIP3   OH226647   4.320   4.349   2.902
 8897TIP3    H126648   4.293   4.426   2.951
 8897TIP3    H226649   4.344   4.285   2.969
 8898TIP3   OH226650   7.496   0.725   5.065
 8898TIP3    H126651   7.531   0.668   5.134
 8898TIP3    H226652   7.559   0.718   4.994
 8899TIP3   OH226653   0.344   3.683   3.905
 8899TIP3    H126654   0.288   3.725   3.970
 8899TIP3    H226655   0.308   3.595   3.896
 8900TIP3   OH226656   7.419   5.024   1.826
 8900TIP3    H126657   7.406   4.975   1.745
 8900TIP3    H226658   7.465   4.962   1.884
 8901TIP3   OH226659   0.515   2.302   2.748
 8901TIP3    H126660   0.502   2.210   2.722
 8901TIP3    H226661   0.610   2.312   2.754
 8902TIP3   OH226662   7.406   7.145   1.205
 8902TIP3    H126663   7.464   7.160   1.280
 8902TIP3    H226664   7.417   7.222   1.150
 8903TIP3   OH226665   4.992   5.936   5.736
 8903TIP3    H126666   4.916   5.878   5.725
 8903TIP3    H226667   4.996   5.953   5.830
 8904TIP3   OH226668   5.678   7.271   2.689
 8904TIP3    H126669   5.717   7.185   2.703
 8904TIP3    H226670   5.747   7.333   2.710
 8905TIP3   OH226671   7.940   6.545   3.189
 8905TIP3    H126672   7.977   6.514   3.271
 8905TIP3    H226673   7.872   6.608   3.215
 8906TIP3   OH226674   5.123   5.839   2.130
 8906TIP3    H126675   5.142   5.795   2.213
 8906TIP3    H226676   5.045   5.795   2.096
 8907TIP3   OH226677   0.139   7.095   4.282
 8907TIP3    H126678   0.067   7.042   4.315
 8907TIP3    H226679   0.127   7.095   4.187
 8908TIP3   OH226680   6.305   0.716   6.558
 8908TIP3    H126681   6.248   0.783   6.597
 8908TIP3    H226682   6.282   0.636   6.604
 8909TIP3   OH226683   2.541   7.015   1.422
 8909TIP3    H126684   2.475   7.042   1.358
 8909TIP3    H226685   2.491   6.989   1.499
 8910TIP3   OH226686   2.329   6.566   1.576
 8910TIP3    H126687   2.318   6.646   1.628
 8910TIP3    H226688   2.388   6.591   1.506
 8911TIP3   OH226689   1.198   7.771   3.802
 8911TIP3    H126690   1.237   7.800   3.719
 8911TIP3    H226691   1.253   7.698   3.830
 8912TIP3   OH226692   1.704   6.948   4.339
 8912TIP3    H126693   1.779   7.007   4.343
 8912TIP3    H226694   1.691   6.919   4.429
 8913TIP3   OH226695   0.750   4.358   3.559
 8913TIP3    H126696   0.773   4.272   3.595
 8913TIP3    H226697   0.677   4.341   3.500
 8914TIP3   OH226698   1.605   5.767   1.949
 8914TIP3    H126699   1.623   5.673   1.959
 8914TIP3    H226700   1.688   5.804   1.918
 8915TIP3   OH226701   3.107   0.537   0.408
 8915TIP3    H126702   3.021   0.508   0.439
 8915TIP3    H226703   3.167   0.470   0.441
 8916TIP3   OH226704   3.151   4.924   2.040
 8916TIP3    H126705   3.155   4.954   2.131
 8916TIP3    H226706   3.161   5.004   1.988
 8917TIP3   OH226707   1.524   4.184   5.507
 8917TIP3    H126708   1.609   4.220   5.481
 8917TIP3    H226709   1.542   4.133   5.586
 8918TIP3   OH226710   7.244   2.943   3.045
 8918TIP3    H126711   7.164   2.966   3.094
 8918TIP3    H226712   7.280   3.027   3.017
 8919TIP3   OH226713   4.952   4.053   3.300
 8919TIP3    H126714   4.858   4.052   3.317
 8919TIP3    H226715   4.983   4.132   3.344
 8920TIP3   OH226716   8.117  -0.003   2.434
 8920TIP3    H126717   8.137  -0.016   2.526
 8920TIP3    H226718   8.169   0.073   2.408
 8921TIP3   OH226719   1.959   5.223   5.029
 8921TIP3    H126720   1.900   5.255   5.097
 8921TIP3    H226721   1.937   5.130   5.020
 8922TIP3   OH226722   6.518   6.116   5.966
 8922TIP3    H126723   6.596   6.116   6.021
 8922TIP3    H226724   6.483   6.205   5.974
 8923TIP3   OH226725   0.782   2.821   0.685
 8923TIP3    H126726   0.736   2.799   0.604
 8923TIP3    H226727   0.811   2.912   0.673
 8924TIP3   OH226728   6.782   5.568   6.143
 8924TIP3    H126729   6.873   5.537   6.143
 8924TIP3    H226730   6.786   5.653   6.098
 8925TIP3   OH226731   0.457   7.096   1.195
 8925TIP3    H126732   0.497   7.010   1.210
 8925TIP3    H226733   0.434   7.127   1.283
 8926TIP3   OH226734   3.421   6.795   0.280
 8926TIP3    H126735   3.472   6.872   0.302
 8926TIP3    H226736   3.415   6.746   0.362
 8927TIP3   OH226737   1.464   3.144   5.103
 8927TIP3    H126738   1.454   3.216   5.040
 8927TIP3    H226739   1.384   3.093   5.093
 8928TIP3   OH226740   7.886   6.672   0.951
 8928TIP3    H126741   7.880   6.764   0.975
 8928TIP3    H226742   7.844   6.666   0.865
 8929TIP3   OH226743   3.442   2.717   4.682
 8929TIP3    H126744   3.505   2.653   4.716
 8929TIP3    H226745   3.436   2.783   4.751
 8930TIP3   OH226746   7.506   3.416   3.064
 8930TIP3    H126747   7.497   3.466   2.983
 8930TIP3    H226748   7.434   3.446   3.120
 8931TIP3   OH226749   6.652   0.577   1.262
 8931TIP3    H126750   6.610   0.531   1.335
 8931TIP3    H226751   6.653   0.669   1.290
 8932TIP3   OH226752   0.090   4.950   6.692
 8932TIP3    H126753   0.035   4.916   6.621
 8932TIP3    H226754   0.179   4.951   6.655
 8933TIP3   OH226755   8.200   3.467   4.418
 8933TIP3    H126756   8.252   3.423   4.485
 8933TIP3    H226757   8.112   3.432   4.429
 8934TIP3   OH226758   7.455   7.194   4.517
 8934TIP3    H126759   7.434   7.146   4.598
 8934TIP3    H226760   7.497   7.129   4.461
 8935TIP3   OH226761   6.832   5.217   4.353
 8935TIP3    H126762   6.860   5.126   4.351
 8935TIP3    H226763   6.750   5.216   4.403
 8936TIP3   OH226764   5.151   5.074   6.070
 8936TIP3    H126765   5.201   5.029   6.139
 8936TIP3    H226766   5.131   5.159   6.108
 8937TIP3   OH226767   6.241   3.091   2.721
 8937TIP3    H126768   6.290   3.095   2.803
 8937TIP3    H226769   6.308   3.092   2.653
 8938TIP3   OH226770   5.037   3.754   4.220
 8938TIP3    H126771   5.049   3.659   4.210
 8938TIP3    H226772   5.089   3.793   4.150
 8939TIP3   OH226773   7.282   4.294   2.672
 8939TIP3    H126774   7.227   4.279   2.594
 8939TIP3    H226775   7.314   4.207   2.695
 8940TIP3   OH226776   8.273   0.322   5.492
 8940TIP3    H126777   8.248   0.348   5.581
 8940TIP3    H226778   8.252   0.229   5.487
 8941TIP3   OH226779   6.449   2.898   5.495
 8941TIP3    H126780   6.465   2.972   5.553
 8941TIP3    H226781   6.494   2.825   5.538
 8942TIP3   OH226782   2.065   2.615   2.826
 8942TIP3    H126783   2.024   2.686   2.875
 8942TIP3    H226784   1.995   2.581   2.770
 8943TIP3   OH226785   7.879   4.680   4.053
 8943TIP3    H126786   7.820   4.710   4.122
 8943TIP3    H226787   7.966   4.705   4.083
 8944TIP3   OH226788   0.321   6.845   2.363
 8944TIP3    H126789   0.376   6.815   2.291
 8944TIP3    H226790   0.252   6.897   2.321
 8945TIP3   OH226791   7.303   4.295   6.646
 8945TIP3    H126792   7.342   4.382   6.651
 8945TIP3    H226793   7.292   4.268   6.737
 8946TIP3   OH226794   6.866   5.307   3.485
 8946TIP3    H126795   6.793   5.353   3.443
 8946TIP3    H226796   6.881   5.355   3.566
 8947TIP3   OH226797   1.647   4.206   6.783
 8947TIP3    H126798   1.627   4.206   6.690
 8947TIP3    H226799   1.704   4.130   6.796
 8948TIP3   OH226800   6.963   2.103   4.002
 8948TIP3    H126801   6.943   2.183   4.051
 8948TIP3    H226802   6.917   2.114   3.919
 8949TIP3   OH226803   3.353   1.543   4.609
 8949TIP3    H126804   3.448   1.557   4.613
 8949TIP3    H226805   3.316   1.632   4.615
 8950TIP3   OH226806   6.826   6.718   3.751
 8950TIP3    H126807   6.847   6.795   3.699
 8950TIP3    H226808   6.903   6.662   3.743
 8951TIP3   OH226809   1.128   2.342   3.608
 8951TIP3    H126810   1.193   2.335   3.678
 8951TIP3    H226811   1.045   2.355   3.653
 8952TIP3   OH226812   5.560   6.982   4.835
 8952TIP3    H126813   5.544   6.895   4.800
 8952TIP3    H226814   5.502   6.988   4.911
 8953TIP3   OH226815   6.341   5.527   1.300
 8953TIP3    H126816   6.367   5.489   1.383
 8953TIP3    H226817   6.421   5.530   1.248
 8954TIP3   OH226818   7.203   1.773   0.396
 8954TIP3    H126819   7.217   1.709   0.327
 8954TIP3    H226820   7.113   1.802   0.385
 8955TIP3   OH226821   0.877   5.002   5.465
 8955TIP3    H126822   0.867   4.933   5.399
 8955TIP3    H226823   0.944   5.061   5.429
 8956TIP3   OH226824   1.934   3.916   4.269
 8956TIP3    H126825   2.027   3.912   4.246
 8956TIP3    H226826   1.901   3.993   4.223
 8957TIP3   OH226827   3.084   6.262   1.468
 8957TIP3    H126828   3.109   6.198   1.535
 8957TIP3    H226829   3.005   6.303   1.503
 8958TIP3   OH226830   7.838   4.416   0.946
 8958TIP3    H126831   7.899   4.468   0.999
 8958TIP3    H226832   7.879   4.411   0.860
 8959TIP3   OH226833   7.681   1.882   3.059
 8959TIP3    H126834   7.679   1.958   3.000
 8959TIP3    H226835   7.588   1.859   3.070
 8960TIP3   OH226836   7.481   0.727   2.503
 8960TIP3    H126837   7.535   0.743   2.427
 8960TIP3    H226838   7.497   0.635   2.526
 8961TIP3   OH226839   6.135   7.353   3.834
 8961TIP3    H126840   6.212   7.361   3.890
 8961TIP3    H226841   6.072   7.414   3.871
 8962TIP3   OH226842   4.305   0.969   3.317
 8962TIP3    H126843   4.396   0.995   3.335
 8962TIP3    H226844   4.260   0.980   3.401
 8963TIP3   OH226845   5.394   1.827   4.598
 8963TIP3    H126846   5.365   1.777   4.675
 8963TIP3    H226847   5.352   1.912   4.607
 8964TIP3   OH226848   3.465   7.441   0.364
 8964TIP3    H126849   3.505   7.520   0.328
 8964TIP3    H226850   3.403   7.413   0.296
 8965TIP3   OH226851   2.158   5.685   3.289
 8965TIP3    H126852   2.146   5.780   3.283
 8965TIP3    H226853   2.239   5.675   3.340
 8966TIP3   OH226854   7.165   6.465   1.679
 8966TIP3    H126855   7.078   6.446   1.643
 8966TIP3    H226856   7.184   6.390   1.735
 8967TIP3   OH226857   3.084   5.822   4.271
 8967TIP3    H126858   3.169   5.780   4.284
 8967TIP3    H226859   3.020   5.757   4.298
 8968TIP3   OH226860   7.364   7.091   6.288
 8968TIP3    H126861   7.396   7.002   6.295
 8968TIP3    H226862   7.429   7.137   6.235
 8969TIP3   OH226863   7.133   2.295   4.639
 8969TIP3    H126864   7.141   2.218   4.696
 8969TIP3    H226865   7.079   2.265   4.566
 8970TIP3   OH226866   6.228   1.423   5.376
 8970TIP3    H126867   6.133   1.411   5.379
 8970TIP3    H226868   6.239   1.518   5.366
 8971TIP3   OH226869   1.584   6.419   3.715
 8971TIP3    H126870   1.652   6.487   3.720
 8971TIP3    H226871   1.632   6.337   3.709
 8972TIP3   OH226872   5.489   3.961   5.826
 8972TIP3    H126873   5.480   4.049   5.789
 8972TIP3    H226874   5.494   3.975   5.920
 8973TIP3   OH226875   8.237   5.304   5.394
 8973TIP3    H126876   8.250   5.375   5.457
 8973TIP3    H226877   8.309   5.243   5.411
 8974TIP3   OH226878   7.179   7.111   1.398
 8974TIP3    H126879   7.231   7.119   1.318
 8974TIP3    H226880   7.238   7.138   1.468
 8975TIP3   OH226881   2.554   1.684   2.152
 8975TIP3    H126882   2.498   1.606   2.151
 8975TIP3    H226883   2.588   1.688   2.241
 8976TIP3   OH226884   2.241   1.628   4.270
 8976TIP3    H126885   2.154   1.652   4.240
 8976TIP3    H226886   2.254   1.678   4.351
 8977TIP3   OH226887   3.974   4.308   6.227
 8977TIP3    H126888   3.911   4.276   6.164
 8977TIP3    H226889   3.964   4.404   6.225
 8978TIP3   OH226890   2.924   2.140   4.226
 8978TIP3    H126891   2.979   2.092   4.164
 8978TIP3    H226892   2.856   2.181   4.172
 8979TIP3   OH226893   4.897   0.597   1.428
 8979TIP3    H126894   4.989   0.618   1.409
 8979TIP3    H226895   4.847   0.651   1.367
 8980TIP3   OH226896   2.932   4.729   3.221
 8980TIP3    H126897   2.956   4.821   3.235
 8980TIP3    H226898   3.008   4.679   3.252
 8981TIP3   OH226899   0.623   1.448   6.597
 8981TIP3    H126900   0.628   1.487   6.683
 8981TIP3    H226901   0.586   1.516   6.541
 8982TIP3   OH226902   4.509   6.633   3.351
 8982TIP3    H126903   4.569   6.620   3.277
 8982TIP3    H226904   4.447   6.560   3.344
 8983TIP3   OH226905   4.481   1.924   1.360
 8983TIP3    H126906   4.546   1.951   1.425
 8983TIP3    H226907   4.529   1.867   1.301
 8984TIP3   OH226908   6.066   0.439   2.981
 8984TIP3    H126909   6.094   0.422   3.071
 8984TIP3    H226910   6.025   0.526   2.985
 8985TIP3   OH226911   5.916   0.528   1.891
 8985TIP3    H126912   5.974   0.452   1.893
 8985TIP3    H226913   5.868   0.522   1.974
 8986TIP3   OH226914   7.018   7.170   1.126
 8986TIP3    H126915   6.938   7.200   1.169
 8986TIP3    H226916   7.054   7.248   1.085
 8987TIP3   OH226917   0.287   5.948   1.923
 8987TIP3    H126918   0.349   5.876   1.931
 8987TIP3    H226919   0.297   5.998   2.004
 8988TIP3   OH226920   0.415   7.606   5.178
 8988TIP3    H126921   0.420   7.667   5.104
 8988TIP3    H226922   0.422   7.519   5.138
 8989TIP3   OH226923   1.990   5.125   3.425
 8989TIP3    H126924   2.055   5.071   3.381
 8989TIP3    H226925   1.924   5.063   3.454
 8990TIP3   OH226926   8.104   6.429   3.789
 8990TIP3    H126927   8.054   6.509   3.802
 8990TIP3    H226928   8.038   6.362   3.771
 8991TIP3   OH226929   4.896   1.692   0.248
 8991TIP3    H126930   4.974   1.661   0.295
 8991TIP3    H226931   4.839   1.615   0.243
 8992TIP3   OH226932   4.394   2.610   2.480
 8992TIP3    H126933   4.334   2.554   2.431
 8992TIP3    H226934   4.414   2.683   2.421
 8993TIP3   OH226935   6.123   1.395   1.056
 8993TIP3    H126936   6.190   1.461   1.072
 8993TIP3    H226937   6.173   1.317   1.032
 8994TIP3   OH226938   5.843   7.465   4.765
 8994TIP3    H126939   5.854   7.505   4.679
 8994TIP3    H226940   5.847   7.538   4.826
 8995TIP3   OH226941   1.281   6.422   6.454
 8995TIP3    H126942   1.272   6.464   6.539
 8995TIP3    H226943   1.370   6.388   6.453
 8996TIP3   OH226944   8.247   6.448   1.713
 8996TIP3    H126945   8.272   6.462   1.621
 8996TIP3    H226946   8.263   6.355   1.728
 8997TIP3   OH226947   6.219   1.489   0.463
 8997TIP3    H126948   6.125   1.503   0.471
 8997TIP3    H226949   6.258   1.569   0.498
 8998TIP3   OH226950   3.169   7.106   2.453
 8998TIP3    H126951   3.102   7.053   2.409
 8998TIP3    H226952   3.155   7.195   2.421
 8999TIP3   OH226953   6.588   0.197   4.584
 8999TIP3    H126954   6.583   0.112   4.627
 8999TIP3    H226955   6.513   0.199   4.525
 9000TIP3   OH226956   1.564   3.185   5.667
 9000TIP3    H126957   1.482   3.159   5.624
 9000TIP3    H226958   1.578   3.275   5.640
 9001TIP3   OH226959   3.648   3.716   0.988
 9001TIP3    H126960   3.697   3.723   1.069
 9001TIP3    H226961   3.631   3.622   0.977
 9002TIP3   OH226962   8.089   1.298   3.281
 9002TIP3    H126963   8.023   1.265   3.219
 9002TIP3    H226964   8.039   1.349   3.344
 9003TIP3   OH226965   5.449   2.558   6.136
 9003TIP3    H126966   5.496   2.640   6.154
 9003TIP3    H226967   5.406   2.537   6.218
 9004TIP3   OH226968   5.066   0.509   4.019
 9004TIP3    H126969   5.151   0.486   4.057
 9004TIP3    H226970   5.023   0.561   4.087
 9005TIP3   OH226971   2.985   3.370   4.732
 9005TIP3    H126972   2.988   3.339   4.642
 9005TIP3    H226973   3.011   3.462   4.726
 9006TIP3   OH226974   3.713   7.821   2.255
 9006TIP3    H126975   3.695   7.777   2.338
 9006TIP3    H226976   3.627   7.831   2.214
 9007TIP3   OH226977   6.527   1.572   5.124
 9007TIP3    H126978   6.439   1.571   5.087
 9007TIP3    H226979   6.522   1.635   5.196
 9008TIP3   OH226980   4.774   4.582   1.621
 9008TIP3    H126981   4.753   4.502   1.669
 9008TIP3    H226982   4.769   4.557   1.529
 9009TIP3   OH226983   1.595   0.286   0.459
 9009TIP3    H126984   1.668   0.238   0.419
 9009TIP3    H226985   1.597   0.259   0.551
 9010TIP3   OH226986   1.311   7.072   4.516
 9010TIP3    H126987   1.233   7.104   4.561
 9010TIP3    H226988   1.335   6.992   4.564
 9011TIP3   OH226989   0.801   3.336   5.970
 9011TIP3    H126990   0.843   3.407   5.921
 9011TIP3    H226991   0.778   3.271   5.904
 9012TIP3   OH226992   6.768   1.254   1.809
 9012TIP3    H126993   6.842   1.206   1.773
 9012TIP3    H226994   6.719   1.189   1.859
 9013TIP3   OH226995   2.802   4.426   0.911
 9013TIP3    H126996   2.766   4.498   0.962
 9013TIP3    H226997   2.738   4.410   0.842
 9014TIP3   OH226998   2.518   0.180   3.418
 9014TIP3    H126999   2.442   0.226   3.383
 9014TIP3    H227000   2.481   0.104   3.463
 9015TIP3   OH227001   3.994   5.020   3.448
 9015TIP3    H127002   4.012   5.078   3.522
 9015TIP3    H227003   4.078   4.979   3.428
 9016TIP3   OH227004   2.010   4.738   2.430
 9016TIP3    H127005   2.069   4.801   2.471
 9016TIP3    H227006   2.050   4.653   2.448
 9017TIP3   OH227007   0.152   0.680   6.582
 9017TIP3    H127008   0.108   0.619   6.642
 9017TIP3    H227009   0.084   0.707   6.521
 9018TIP3   OH227010   6.636   7.030   2.066
 9018TIP3    H127011   6.647   6.956   2.125
 9018TIP3    H227012   6.550   7.066   2.088
 9019TIP3   OH227013   6.689   1.388   1.257
 9019TIP3    H127014   6.671   1.383   1.351
 9019TIP3    H227015   6.778   1.424   1.252
 9020TIP3   OH227016   0.636   3.183   0.264
 9020TIP3    H127017   0.625   3.229   0.181
 9020TIP3    H227018   0.559   3.208   0.316
 9021TIP3   OH227019   7.258   2.953   6.211
 9021TIP3    H127020   7.218   3.000   6.137
 9021TIP3    H227021   7.214   2.987   6.288
 9022TIP3   OH227022   2.719   1.979   3.809
 9022TIP3    H127023   2.703   1.949   3.719
 9022TIP3    H227024   2.690   1.906   3.864
 9023TIP3   OH227025   1.023   0.230   6.596
 9023TIP3    H127026   0.964   0.155   6.601
 9023TIP3    H227027   1.079   0.221   6.674
 9024TIP3   OH227028   1.317   2.230   1.798
 9024TIP3    H127029   1.271   2.219   1.715
 9024TIP3    H227030   1.314   2.143   1.839
 9025TIP3   OH227031   6.917   7.754   3.716
 9025TIP3    H127032   6.884   7.704   3.791
 9025TIP3    H227033   6.902   7.697   3.641
 9026TIP3   OH227034   4.137   2.876   4.865
 9026TIP3    H127035   4.101   2.952   4.910
 9026TIP3    H227036   4.111   2.888   4.774
 9027TIP3   OH227037   7.456   2.351   0.483
 9027TIP3    H127038   7.408   2.352   0.566
 9027TIP3    H227039   7.410   2.286   0.430
 9028TIP3   OH227040   3.212   0.314   1.996
 9028TIP3    H127041   3.144   0.328   2.062
 9028TIP3    H227042   3.276   0.383   2.012
 9029TIP3   OH227043   3.730   5.708   3.284
 9029TIP3    H127044   3.659   5.646   3.265
 9029TIP3    H227045   3.697   5.793   3.256
 9030TIP3   OH227046   3.466   0.377   1.269
 9030TIP3    H127047   3.414   0.374   1.188
 9030TIP3    H227048   3.525   0.302   1.263
 9031TIP3   OH227049   5.607   6.547   3.876
 9031TIP3    H127050   5.569   6.504   3.952
 9031TIP3    H227051   5.695   6.572   3.904
 9032TIP3   OH227052   7.614   7.671   6.454
 9032TIP3    H127053   7.653   7.586   6.473
 9032TIP3    H227054   7.556   7.688   6.528
 9033TIP3   OH227055   4.221   7.356   6.389
 9033TIP3    H127056   4.154   7.403   6.339
 9033TIP3    H227057   4.247   7.417   6.458
 9034TIP3   OH227058   2.918   7.735   6.699
 9034TIP3    H127059   2.826   7.753   6.720
 9034TIP3    H227060   2.954   7.820   6.674
 9035TIP3   OH227061   4.759   7.502   0.892
 9035TIP3    H127062   4.784   7.412   0.914
 9035TIP3    H227063   4.802   7.518   0.808
 9036TIP3   OH227064   7.831   2.034   1.988
 9036TIP3    H127065   7.856   2.116   1.947
 9036TIP3    H227066   7.840   1.969   1.919
 9037TIP3   OH227067   2.850   0.091   6.425
 9037TIP3    H127068   2.802   0.044   6.357
 9037TIP3    H227069   2.855   0.181   6.394
 9038TIP3   OH227070   2.222   1.261   1.610
 9038TIP3    H127071   2.219   1.180   1.559
 9038TIP3    H227072   2.150   1.253   1.672
 9039TIP3   OH227073   0.222   7.594   0.357
 9039TIP3    H127074   0.307   7.631   0.379
 9039TIP3    H227075   0.172   7.599   0.439
 9040TIP3   OH227076   3.255   0.742   6.256
 9040TIP3    H127077   3.332   0.700   6.295
 9040TIP3    H227078   3.233   0.812   6.319
 9041TIP3   OH227079   1.080   1.348   3.910
 9041TIP3    H127080   1.144   1.297   3.960
 9041TIP3    H227081   1.095   1.323   3.819
 9042TIP3   OH227082   0.430   3.520   1.883
 9042TIP3    H127083   0.511   3.482   1.849
 9042TIP3    H227084   0.456   3.558   1.967
 9043TIP3   OH227085   5.366   6.004   1.168
 9043TIP3    H127086   5.293   6.048   1.211
 9043TIP3    H227087   5.410   6.072   1.118
 9044TIP3   OH227088   3.506   3.353   5.241
 9044TIP3    H127089   3.415   3.377   5.256
 9044TIP3    H227090   3.507   3.314   5.154
 9045TIP3   OH227091   7.608   1.510   6.476
 9045TIP3    H127092   7.654   1.447   6.532
 9045TIP3    H227093   7.525   1.527   6.522
 9046TIP3   OH227094   0.250   6.348   0.755
 9046TIP3    H127095   0.172   6.322   0.706
 9046TIP3    H227096   0.321   6.340   0.692
 9047TIP3   OH227097   7.578   2.436   3.795
 9047TIP3    H127098   7.523   2.404   3.723
 9047TIP3    H227099   7.662   2.457   3.753
 9048TIP3   OH227100   2.123   0.435   3.716
 9048TIP3    H127101   2.115   0.342   3.694
 9048TIP3    H227102   2.121   0.437   3.812
 9049TIP3   OH227103   5.043   7.764   0.307
 9049TIP3    H127104   5.076   7.695   0.364
 9049TIP3    H227105   4.952   7.775   0.333
 9050TIP3   OH227106   5.358   6.628   2.797
 9050TIP3    H127107   5.424   6.696   2.784
 9050TIP3    H227108   5.408   6.547   2.806
 9051TIP3   OH227109   0.871   6.311   2.904
 9051TIP3    H127110   0.827   6.365   2.970
 9051TIP3    H227111   0.912   6.241   2.954
 9052TIP3   OH227112   4.843   3.028   4.391
 9052TIP3    H127113   4.841   3.039   4.296
 9052TIP3    H227114   4.755   3.000   4.414
 9053TIP3   OH227115   7.755   7.809   5.053
 9053TIP3    H127116   7.739   7.824   5.146
 9053TIP3    H227117   7.831   7.864   5.032
 9054TIP3   OH227118   4.100   4.227   0.294
 9054TIP3    H127119   4.025   4.275   0.328
 9054TIP3    H227120   4.120   4.162   0.361
 9055TIP3   OH227121   1.748   2.121   3.396
 9055TIP3    H127122   1.757   2.117   3.491
 9055TIP3    H227123   1.655   2.137   3.382
 9056TIP3   OH227124   1.978   3.349   3.241
 9056TIP3    H127125   2.051   3.340   3.302
 9056TIP3    H227126   2.012   3.314   3.159
 9057TIP3   OH227127   6.967   4.746   1.322
 9057TIP3    H127128   7.051   4.714   1.355
 9057TIP3    H227129   6.990   4.826   1.274
 9058TIP3   OH227130   7.291   3.623   5.691
 9058TIP3    H127131   7.340   3.669   5.759
 9058TIP3    H227132   7.201   3.620   5.724
 9059TIP3   OH227133   7.568   4.323   2.174
 9059TIP3    H127134   7.546   4.314   2.267
 9059TIP3    H227135   7.533   4.408   2.149
 9060TIP3   OH227136   1.300   3.504   5.426
 9060TIP3    H127137   1.269   3.414   5.411
 9060TIP3    H227138   1.379   3.511   5.372
 9061TIP3   OH227139   2.123   7.015   2.556
 9061TIP3    H127140   2.178   7.019   2.634
 9061TIP3    H227141   2.044   7.065   2.580
 9062TIP3   OH227142   4.555   4.640   0.248
 9062TIP3    H127143   4.619   4.632   0.319
 9062TIP3    H227144   4.567   4.561   0.196
 9063TIP3   OH227145   2.723   5.438   6.163
 9063TIP3    H127146   2.721   5.446   6.259
 9063TIP3    H227147   2.813   5.412   6.143
 9064TIP3   OH227148   2.466   4.166   3.094
 9064TIP3    H127149   2.385   4.203   3.059
 9064TIP3    H227150   2.512   4.132   3.017
 9065TIP3   OH227151   1.074   3.347   4.202
 9065TIP3    H127152   1.039   3.423   4.157
 9065TIP3    H227153   1.041   3.353   4.292
 9066TIP3   OH227154   6.376   4.105   2.104
 9066TIP3    H127155   6.300   4.055   2.134
 9066TIP3    H227156   6.370   4.188   2.151
 9067TIP3   OH227157   4.046   3.125   4.002
 9067TIP3    H127158   4.105   3.109   4.075
 9067TIP3    H227159   4.042   3.220   3.995
 9068TIP3   OH227160   7.495   4.916   4.611
 9068TIP3    H127161   7.510   4.940   4.519
 9068TIP3    H227162   7.582   4.922   4.652
 9069TIP3   OH227163   0.039   0.144   1.373
 9069TIP3    H127164  -0.052   0.167   1.394
 9069TIP3    H227165   0.065   0.209   1.308
 9070TIP3   OH227166   4.893   4.822   3.847
 9070TIP3    H127167   4.888   4.853   3.937
 9070TIP3    H227168   4.853   4.892   3.795
 9071TIP3   OH227169   2.010   7.628   0.655
 9071TIP3    H127170   2.002   7.723   0.643
 9071TIP3    H227171   1.919   7.597   0.654
 9072TIP3   OH227172   0.934   7.244   6.430
 9072TIP3    H127173   0.902   7.198   6.507
 9072TIP3    H227174   0.857   7.254   6.374
 9073TIP3   OH227175   3.201   0.746   3.553
 9073TIP3    H127176   3.230   0.790   3.472
 9073TIP3    H227177   3.159   0.816   3.604
 9074TIP3   OH227178   7.702   7.730   1.413
 9074TIP3    H127179   7.616   7.762   1.437
 9074TIP3    H227180   7.702   7.638   1.439
 9075TIP3   OH227181   0.844   5.181   5.043
 9075TIP3    H127182   0.764   5.129   5.047
 9075TIP3    H227183   0.883   5.159   4.958
 9076TIP3   OH227184   2.034   6.008   3.606
 9076TIP3    H127185   2.114   5.960   3.583
 9076TIP3    H227186   2.016   6.062   3.529
 9077TIP3   OH227187   2.293   1.574   0.807
 9077TIP3    H127188   2.229   1.520   0.762
 9077TIP3    H227189   2.375   1.525   0.800
 9078TIP3   OH227190   6.591   1.584   4.208
 9078TIP3    H127191   6.655   1.607   4.140
 9078TIP3    H227192   6.508   1.574   4.161
 9079TIP3   OH227193   8.095   7.008   6.338
 9079TIP3    H127194   8.014   7.017   6.289
 9079TIP3    H227195   8.119   7.098   6.362
 9080TIP3   OH227196   6.794   0.819   1.282
 9080TIP3    H127197   6.843   0.757   1.228
 9080TIP3    H227198   6.792   0.900   1.230
 9081TIP3   OH227199   2.435   0.541   3.771
 9081TIP3    H127200   2.341   0.548   3.758
 9081TIP3    H227201   2.463   0.472   3.710
 9082TIP3   OH227202   2.318   3.822   1.559
 9082TIP3    H127203   2.390   3.760   1.570
 9082TIP3    H227204   2.273   3.823   1.643
 9083TIP3   OH227205   4.882   0.054   0.588
 9083TIP3    H127206   4.885   0.148   0.605
 9083TIP3    H227207   4.961   0.020   0.630
 9084TIP3   OH227208   0.225   4.934   1.680
 9084TIP3    H127209   0.137   4.916   1.647
 9084TIP3    H227210   0.276   4.954   1.602
 9085TIP3   OH227211   3.144   0.594   4.366
 9085TIP3    H127212   3.090   0.585   4.288
 9085TIP3    H227213   3.097   0.545   4.434
 9086TIP3   OH227214   5.541   0.966   0.422
 9086TIP3    H127215   5.622   0.961   0.473
 9086TIP3    H227216   5.569   0.955   0.331
 9087TIP3   OH227217   5.793   0.644   0.031
 9087TIP3    H127218   5.825   0.680  -0.052
 9087TIP3    H227219   5.742   0.715   0.070
 9088TIP3   OH227220   5.681   4.399   2.274
 9088TIP3    H127221   5.673   4.344   2.197
 9088TIP3    H227222   5.648   4.485   2.247
 9089TIP3   OH227223   1.691   2.118   6.088
 9089TIP3    H127224   1.660   2.181   6.153
 9089TIP3    H227225   1.772   2.082   6.126
 9090TIP3   OH227226   7.814   5.095   4.568
 9090TIP3    H127227   7.813   5.111   4.662
 9090TIP3    H227228   7.776   5.175   4.530
 9091TIP3   OH227229   1.867   6.381   6.589
 9091TIP3    H127230   1.866   6.285   6.591
 9091TIP3    H227231   1.813   6.407   6.663
 9092TIP3   OH227232   2.069   3.566   5.515
 9092TIP3    H127233   2.029   3.581   5.601
 9092TIP3    H227234   2.117   3.484   5.525
 9093TIP3   OH227235   2.384   6.108   0.578
 9093TIP3    H127236   2.301   6.135   0.538
 9093TIP3    H227237   2.376   6.014   0.590
 9094TIP3   OH227238   6.802   0.397   2.343
 9094TIP3    H127239   6.819   0.439   2.259
 9094TIP3    H227240   6.761   0.314   2.320
 9095TIP3   OH227241   2.098   7.186   1.765
 9095TIP3    H127242   2.137   7.105   1.796
 9095TIP3    H227243   2.064   7.229   1.844
 9096TIP3   OH227244   6.714   4.894   6.008
 9096TIP3    H127245   6.781   4.946   6.052
 9096TIP3    H227246   6.756   4.809   5.992
 9097TIP3   OH227247   0.851   5.115   3.159
 9097TIP3    H127248   0.762   5.129   3.126
 9097TIP3    H227249   0.849   5.028   3.198
 9098TIP3   OH227250   7.794   0.789   4.657
 9098TIP3    H127251   7.884   0.799   4.628
 9098TIP3    H227252   7.747   0.862   4.616
 9099TIP3   OH227253   2.817   5.824   1.810
 9099TIP3    H127254   2.831   5.749   1.752
 9099TIP3    H227255   2.834   5.900   1.755
 9100TIP3   OH227256   6.774   0.598   3.651
 9100TIP3    H127257   6.840   0.589   3.720
 9100TIP3    H227258   6.815   0.560   3.573
 9101TIP3   OH227259   2.520   7.004   3.353
 9101TIP3    H127260   2.559   7.090   3.341
 9101TIP3    H227261   2.522   6.990   3.448
 9102TIP3   OH227262   3.970   1.693   1.181
 9102TIP3    H127263   4.013   1.612   1.153
 9102TIP3    H227264   3.996   1.704   1.272
 9103TIP3   OH227265   1.249   3.590   1.623
 9103TIP3    H127266   1.201   3.508   1.614
 9103TIP3    H227267   1.203   3.651   1.565
 9104TIP3   OH227268   4.708   2.896   2.002
 9104TIP3    H127269   4.801   2.902   1.980
 9104TIP3    H227270   4.678   2.987   2.002
 9105TIP3   OH227271   1.363   6.713   6.369
 9105TIP3    H127272   1.388   6.740   6.458
 9105TIP3    H227273   1.302   6.641   6.382
 9106TIP3   OH227274   4.478   6.582   5.030
 9106TIP3    H127275   4.560   6.616   4.994
 9106TIP3    H227276   4.418   6.581   4.956
 9107TIP3   OH227277   4.355   2.211   4.056
 9107TIP3    H127278   4.420   2.222   3.987
 9107TIP3    H227279   4.372   2.124   4.091
 9108TIP3   OH227280   0.383   2.152   4.250
 9108TIP3    H127281   0.385   2.207   4.329
 9108TIP3    H227282   0.290   2.139   4.233
 9109TIP3   OH227283   4.403   2.054   6.516
 9109TIP3    H127284   4.427   2.113   6.588
 9109TIP3    H227285   4.309   2.039   6.527
 9110TIP3   OH227286   7.758   6.614   4.498
 9110TIP3    H127287   7.752   6.544   4.433
 9110TIP3    H227288   7.759   6.568   4.582
 9111TIP3   OH227289   3.966   5.030   4.801
 9111TIP3    H127290   3.871   5.017   4.799
 9111TIP3    H227291   3.992   5.003   4.889
 9112TIP3   OH227292   2.543   2.686   1.332
 9112TIP3    H127293   2.621   2.698   1.278
 9112TIP3    H227294   2.570   2.622   1.398
 9113TIP3   OH227295   0.155   0.069   3.513
 9113TIP3    H127296   0.110  -0.007   3.551
 9113TIP3    H227297   0.085   0.120   3.473
 9114TIP3   OH227298   3.565   0.949   6.112
 9114TIP3    H127299   3.618   0.951   6.192
 9114TIP3    H227300   3.511   1.028   6.117
 9115TIP3   OH227301   0.399   1.092   4.798
 9115TIP3    H127302   0.462   1.043   4.745
 9115TIP3    H227303   0.377   1.032   4.870
 9116TIP3   OH227304   2.990   1.220   0.181
 9116TIP3    H127305   3.035   1.136   0.195
 9116TIP3    H227306   2.998   1.265   0.265
 9117TIP3   OH227307   6.619   1.345   2.818
 9117TIP3    H127308   6.679   1.275   2.844
 9117TIP3    H227309   6.532   1.308   2.835
 9118TIP3   OH227310   2.997   7.292   3.054
 9118TIP3    H127311   2.911   7.256   3.034
 9118TIP3    H227312   2.990   7.385   3.033
 9119TIP3   OH227313   0.152   7.223   4.522
 9119TIP3    H127314   0.163   7.185   4.435
 9119TIP3    H227315   0.061   7.251   4.525
 9120TIP3   OH227316   6.677   0.999   0.201
 9120TIP3    H127317   6.589   1.019   0.233
 9120TIP3    H227318   6.663   0.973   0.109
 9121TIP3   OH227319   6.083   1.919   1.485
 9121TIP3    H127320   6.086   1.955   1.574
 9121TIP3    H227321   6.037   1.836   1.494
 9122TIP3   OH227322   3.647   7.619   0.632
 9122TIP3    H127323   3.727   7.599   0.584
 9122TIP3    H227324   3.646   7.714   0.639
 9123TIP3   OH227325   5.033   4.723   4.137
 9123TIP3    H127326   5.002   4.660   4.073
 9123TIP3    H227327   5.123   4.742   4.110
 9124TIP3   OH227328   3.527   5.690   0.343
 9124TIP3    H127329   3.582   5.759   0.381
 9124TIP3    H227330   3.440   5.706   0.378
 9125TIP3   OH227331   2.558   5.344   1.578
 9125TIP3    H127332   2.619   5.317   1.647
 9125TIP3    H227333   2.540   5.436   1.597
 9126TIP3   OH227334   3.837   1.108   2.096
 9126TIP3    H127335   3.747   1.097   2.065
 9126TIP3    H227336   3.857   1.201   2.079
 9127TIP3   OH227337   5.444   2.227   5.034
 9127TIP3    H127338   5.442   2.141   4.990
 9127TIP3    H227339   5.437   2.207   5.127
 9128TIP3   OH227340   6.893   7.345   3.603
 9128TIP3    H127341   6.959   7.309   3.544
 9128TIP3    H227342   6.894   7.439   3.586
 9129TIP3   OH227343   3.129   1.278   4.988
 9129TIP3    H127344   3.100   1.186   4.982
 9129TIP3    H227345   3.111   1.314   4.902
 9130TIP3   OH227346   3.487   3.901   4.289
 9130TIP3    H127347   3.529   3.977   4.248
 9130TIP3    H227348   3.453   3.934   4.372
 9131TIP3   OH227349   5.803   3.038   5.113
 9131TIP3    H127350   5.819   2.973   5.182
 9131TIP3    H227351   5.830   3.121   5.152
 9132TIP3   OH227352   3.950   7.303   2.763
 9132TIP3    H127353   3.957   7.341   2.850
 9132TIP3    H227354   3.905   7.219   2.777
 9133TIP3   OH227355   0.839   1.469   1.777
 9133TIP3    H127356   0.867   1.432   1.861
 9133TIP3    H227357   0.874   1.409   1.711
 9134TIP3   OH227358   3.871   7.225   5.286
 9134TIP3    H127359   3.804   7.161   5.311
 9134TIP3    H227360   3.913   7.187   5.209
 9135TIP3   OH227361   4.992   6.969   5.243
 9135TIP3    H127362   4.982   7.020   5.163
 9135TIP3    H227363   4.903   6.945   5.268
 9136TIP3   OH227364   6.734   6.666   3.289
 9136TIP3    H127365   6.760   6.615   3.366
 9136TIP3    H227366   6.767   6.754   3.307
 9137TIP3   OH227367   0.041   1.438   3.777
 9137TIP3    H127368   0.057   1.525   3.812
 9137TIP3    H227369   0.126   1.409   3.744
 9138TIP3   OH227370   6.304   2.830   3.049
 9138TIP3    H127371   6.339   2.758   3.102
 9138TIP3    H227372   6.212   2.836   3.075
 9139TIP3   OH227373   8.177   1.021   5.015
 9139TIP3    H127374   8.221   0.941   5.043
 9139TIP3    H227375   8.092   1.018   5.059
 9140TIP3   OH227376   2.754   6.439   4.186
 9140TIP3    H127377   2.661   6.442   4.208
 9140TIP3    H227378   2.767   6.515   4.129
 9141TIP3   OH227379   4.341   0.438   1.734
 9141TIP3    H127380   4.384   0.483   1.661
 9141TIP3    H227381   4.395   0.361   1.749
 9142TIP3   OH227382   6.594   3.453   1.058
 9142TIP3    H127383   6.649   3.489   1.127
 9142TIP3    H227384   6.654   3.436   0.986
 9143TIP3   OH227385   1.680   0.560   0.370
 9143TIP3    H127386   1.603   0.588   0.419
 9143TIP3    H227387   1.714   0.486   0.420
 9144TIP3   OH227388   8.155   0.574   3.408
 9144TIP3    H127389   8.197   0.551   3.491
 9144TIP3    H227390   8.110   0.657   3.425
 9145TIP3   OH227391   2.455   6.056   5.974
 9145TIP3    H127392   2.423   6.084   5.888
 9145TIP3    H227393   2.406   5.976   5.993
 9146TIP3   OH227394   4.608   3.642   2.952
 9146TIP3    H127395   4.541   3.699   2.915
 9146TIP3    H227396   4.592   3.643   3.047
 9147TIP3   OH227397   4.056   4.081   6.332
 9147TIP3    H127398   4.032   4.169   6.302
 9147TIP3    H227399   4.073   4.031   6.252
 9148TIP3   OH227400   2.882   2.857   1.579
 9148TIP3    H127401   2.942   2.795   1.539
 9148TIP3    H227402   2.795   2.824   1.558
 9149TIP3   OH227403   5.232   7.056   4.595
 9149TIP3    H127404   5.229   7.147   4.625
 9149TIP3    H227405   5.314   7.049   4.547
 9150TIP3   OH227406   7.545   4.436   0.966
 9150TIP3    H127407   7.633   4.454   0.932
 9150TIP3    H227408   7.544   4.476   1.053
 9151TIP3   OH227409   0.949   0.833   6.103
 9151TIP3    H127410   0.946   0.929   6.101
 9151TIP3    H227411   0.861   0.806   6.075
 9152TIP3   OH227412   3.730   7.157   2.891
 9152TIP3    H127413   3.649   7.143   2.842
 9152TIP3    H227414   3.701   7.168   2.982
 9153TIP3   OH227415   5.178   1.314   1.346
 9153TIP3    H127416   5.199   1.374   1.274
 9153TIP3    H227417   5.096   1.348   1.382
 9154TIP3   OH227418   0.241   3.654   3.216
 9154TIP3    H127419   0.257   3.741   3.252
 9154TIP3    H227420   0.327   3.614   3.211
 9155TIP3   OH227421   4.584   6.697   4.480
 9155TIP3    H127422   4.548   6.608   4.479
 9155TIP3    H227423   4.517   6.749   4.526
 9156TIP3   OH227424   4.675   6.891   6.741
 9156TIP3    H127425   4.606   6.909   6.804
 9156TIP3    H227426   4.634   6.903   6.655
 9157TIP3   OH227427   5.856   3.361   1.642
 9157TIP3    H127428   5.893   3.291   1.589
 9157TIP3    H227429   5.775   3.384   1.596
 9158TIP3   OH227430   0.556   1.356   5.114
 9158TIP3    H127431   0.527   1.389   5.200
 9158TIP3    H227432   0.588   1.268   5.133
 9159TIP3   OH227433   1.876   6.787   5.860
 9159TIP3    H127434   1.894   6.874   5.897
 9159TIP3    H227435   1.960   6.741   5.865
 9160TIP3   OH227436   1.983   3.853   0.385
 9160TIP3    H127437   2.062   3.826   0.431
 9160TIP3    H227438   2.014   3.886   0.301
 9161TIP3   OH227439   5.615   3.841   0.571
 9161TIP3    H127440   5.586   3.860   0.660
 9161TIP3    H227441   5.705   3.809   0.581
 9162TIP3   OH227442   5.410   4.423   1.632
 9162TIP3    H127443   5.436   4.338   1.596
 9162TIP3    H227444   5.490   4.456   1.674
 9163TIP3   OH227445   4.682   1.437   5.507
 9163TIP3    H127446   4.712   1.486   5.584
 9163TIP3    H227447   4.715   1.488   5.432
 9164TIP3   OH227448   7.260   3.729   6.708
 9164TIP3    H127449   7.260   3.823   6.691
 9164TIP3    H227450   7.343   3.712   6.752
 9165TIP3   OH227451   0.600   3.604   5.401
 9165TIP3    H127452   0.582   3.661   5.475
 9165TIP3    H227453   0.519   3.555   5.387
 9166TIP3   OH227454   6.222   3.785   5.163
 9166TIP3    H127455   6.143   3.750   5.123
 9166TIP3    H227456   6.292   3.764   5.101
 9167TIP3   OH227457   2.202   3.300   5.280
 9167TIP3    H127458   2.228   3.354   5.355
 9167TIP3    H227459   2.199   3.361   5.206
 9168TIP3   OH227460   2.904   4.501   5.978
 9168TIP3    H127461   2.954   4.582   5.972
 9168TIP3    H227462   2.885   4.491   6.071
 9169TIP3   OH227463   0.610   2.031   4.526
 9169TIP3    H127464   0.570   2.118   4.523
 9169TIP3    H227465   0.564   1.981   4.459
 9170TIP3   OH227466   1.695   6.721   2.141
 9170TIP3    H127467   1.686   6.756   2.052
 9170TIP3    H227468   1.653   6.635   2.137
 9171TIP3   OH227469   5.925   2.839   5.276
 9171TIP3    H127470   6.012   2.836   5.238
 9171TIP3    H227471   5.900   2.747   5.286
 9172TIP3   OH227472   6.883   6.893   4.992
 9172TIP3    H127473   6.881   6.840   4.912
 9172TIP3    H227474   6.797   6.880   5.032
 9173TIP3   OH227475   4.081   1.562   3.680
 9173TIP3    H127476   4.000   1.531   3.721
 9173TIP3    H227477   4.145   1.494   3.700
 9174TIP3   OH227478   1.104   2.983   0.806
 9174TIP3    H127479   1.037   3.029   0.755
 9174TIP3    H227480   1.066   2.977   0.894
 9175TIP3   OH227481   1.978   7.591   2.075
 9175TIP3    H127482   2.001   7.631   2.158
 9175TIP3    H227483   1.884   7.574   2.081
 9176TIP3   OH227484   0.071   2.439   3.848
 9176TIP3    H127485  -0.002   2.404   3.898
 9176TIP3    H227486   0.059   2.534   3.853
 9177TIP3   OH227487   7.817   6.584   2.951
 9177TIP3    H127488   7.852   6.573   3.039
 9177TIP3    H227489   7.737   6.530   2.950
 9178TIP3   OH227490   2.772   0.240   1.224
 9178TIP3    H127491   2.679   0.219   1.211
 9178TIP3    H227492   2.819   0.165   1.190
 9179TIP3   OH227493   7.827   6.009   0.918
 9179TIP3    H127494   7.903   6.065   0.931
 9179TIP3    H227495   7.840   5.936   0.978
 9180TIP3   OH227496   1.984   2.718   3.527
 9180TIP3    H127497   2.052   2.754   3.583
 9180TIP3    H227498   1.902   2.745   3.569
 9181TIP3   OH227499   0.322   6.387   6.077
 9181TIP3    H127500   0.334   6.479   6.097
 9181TIP3    H227501   0.411   6.352   6.069
 9182TIP3   OH227502   7.851  -0.008   4.847
 9182TIP3    H127503   7.853   0.087   4.850
 9182TIP3    H227504   7.774  -0.033   4.898
 9183TIP3   OH227505   0.232   7.249   1.344
 9183TIP3    H127506   0.143   7.274   1.319
 9183TIP3    H227507   0.288   7.310   1.295
 9184TIP3   OH227508   6.398   1.330   6.130
 9184TIP3    H127509   6.407   1.295   6.219
 9184TIP3    H227510   6.452   1.273   6.076
 9185TIP3   OH227511   2.715   5.207   5.066
 9185TIP3    H127512   2.621   5.208   5.086
 9185TIP3    H227513   2.737   5.115   5.054
 9186TIP3   OH227514   6.647  -0.003   2.574
 9186TIP3    H127515   6.654  -0.082   2.628
 9186TIP3    H227516   6.667   0.069   2.633
 9187TIP3   OH227517   6.405   4.501   0.911
 9187TIP3    H127518   6.365   4.424   0.872
 9187TIP3    H227519   6.332   4.553   0.943
 9188TIP3   OH227520   5.670   1.382   1.410
 9188TIP3    H127521   5.689   1.344   1.324
 9188TIP3    H227522   5.604   1.448   1.393
 9189TIP3   OH227523   1.332   5.881   4.254
 9189TIP3    H127524   1.424   5.902   4.265
 9189TIP3    H227525   1.308   5.832   4.332
 9190TIP3   OH227526   1.505   3.593   3.652
 9190TIP3    H127527   1.572   3.639   3.601
 9190TIP3    H227528   1.528   3.611   3.743
 9191TIP3   OH227529   6.759   4.022   5.173
 9191TIP3    H127530   6.685   3.962   5.175
 9191TIP3    H227531   6.791   4.018   5.082
 9192TIP3   OH227532   0.193   6.534   0.938
 9192TIP3    H127533   0.117   6.498   0.983
 9192TIP3    H227534   0.215   6.469   0.871
 9193TIP3   OH227535   3.202   3.299   1.385
 9193TIP3    H127536   3.171   3.210   1.370
 9193TIP3    H227537   3.262   3.316   1.312
 9194TIP3   OH227538   6.139   3.785   3.422
 9194TIP3    H127539   6.115   3.700   3.459
 9194TIP3    H227540   6.226   3.803   3.457
 9195TIP3   OH227541   1.490   5.799   0.432
 9195TIP3    H127542   1.561   5.736   0.442
 9195TIP3    H227543   1.427   5.777   0.500
 9196TIP3   OH227544   3.466   0.608   3.060
 9196TIP3    H127545   3.426   0.633   2.977
 9196TIP3    H227546   3.553   0.648   3.058
 9197TIP3   OH227547   6.868   7.690   1.072
 9197TIP3    H127548   6.872   7.685   1.167
 9197TIP3    H227549   6.861   7.599   1.043
 9198TIP3   OH227550   1.803   2.301   6.395
 9198TIP3    H127551   1.770   2.386   6.423
 9198TIP3    H227552   1.739   2.238   6.430
 9199TIP3   OH227553   7.397   6.663   0.985
 9199TIP3    H127554   7.408   6.741   1.040
 9199TIP3    H227555   7.369   6.594   1.045
 9200TIP3   OH227556   7.803   0.276   6.357
 9200TIP3    H127557   7.807   0.325   6.275
 9200TIP3    H227558   7.785   0.343   6.423
 9201TIP3   OH227559   0.392   7.788   4.597
 9201TIP3    H127560   0.327   7.765   4.531
 9201TIP3    H227561   0.419   7.877   4.573
 9202TIP3   OH227562   1.303   1.091   5.873
 9202TIP3    H127563   1.244   1.060   5.804
 9202TIP3    H227564   1.356   1.159   5.830
 9203TIP3   OH227565   4.608   4.751   2.552
 9203TIP3    H127566   4.562   4.828   2.587
 9203TIP3    H227567   4.607   4.688   2.624
 9204TIP3   OH227568   4.867   4.332   6.221
 9204TIP3    H127569   4.853   4.239   6.203
 9204TIP3    H227570   4.916   4.334   6.304
 9205TIP3   OH227571   1.780   2.657   0.101
 9205TIP3    H127572   1.741   2.669   0.187
 9205TIP3    H227573   1.773   2.743   0.059
 9206TIP3   OH227574   7.860   3.929   0.769
 9206TIP3    H127575   7.954   3.920   0.787
 9206TIP3    H227576   7.819   3.859   0.819
 9207TIP3   OH227577   2.896   4.735   1.549
 9207TIP3    H127578   2.898   4.794   1.624
 9207TIP3    H227579   2.979   4.752   1.503
 9208TIP3   OH227580   6.259   4.757   1.792
 9208TIP3    H127581   6.323   4.691   1.764
 9208TIP3    H227582   6.213   4.715   1.865
 9209TIP3   OH227583   3.740   4.066   5.620
 9209TIP3    H127584   3.798   4.037   5.690
 9209TIP3    H227585   3.654   4.075   5.662
 9210TIP3   OH227586   1.960   2.658   6.331
 9210TIP3    H127587   1.984   2.749   6.316
 9210TIP3    H227588   1.897   2.661   6.403
 9211TIP3   OH227589   4.527   1.038   3.090
 9211TIP3    H127590   4.567   1.023   3.005
 9211TIP3    H227591   4.434   1.049   3.071
 9212TIP3   OH227592   7.250   1.564   5.729
 9212TIP3    H127593   7.280   1.648   5.765
 9212TIP3    H227594   7.230   1.583   5.638
 9213TIP3   OH227595   4.141   3.870   1.263
 9213TIP3    H127596   4.095   3.910   1.338
 9213TIP3    H227597   4.195   3.941   1.228
 9214TIP3   OH227598   0.692   0.248   2.955
 9214TIP3    H127599   0.638   0.324   2.974
 9214TIP3    H227600   0.762   0.251   3.021
 9215TIP3   OH227601   5.984   7.545   0.990
 9215TIP3    H127602   5.985   7.467   1.045
 9215TIP3    H227603   5.997   7.618   1.050
 9216TIP3   OH227604   3.914   4.332   1.890
 9216TIP3    H127605   3.822   4.360   1.894
 9216TIP3    H227606   3.926   4.304   1.799
 9217TIP3   OH227607   3.924   7.069   0.849
 9217TIP3    H127608   3.970   7.003   0.901
 9217TIP3    H227609   3.835   7.070   0.884
 9218TIP3   OH227610   2.964   0.035   5.847
 9218TIP3    H127611   3.010   0.084   5.915
 9218TIP3    H227612   2.918   0.102   5.797
 9219TIP3   OH227613   2.789   7.187   6.693
 9219TIP3    H127614   2.704   7.227   6.712
 9219TIP3    H227615   2.820   7.154   6.777
 9220TIP3   OH227616   3.177   2.552   5.990
 9220TIP3    H127617   3.159   2.554   6.084
 9220TIP3    H227618   3.273   2.548   5.984
 9221TIP3   OH227619   5.759   7.225   1.018
 9221TIP3    H127620   5.824   7.248   0.952
 9221TIP3    H227621   5.740   7.307   1.063
 9222TIP3   OH227622   4.555   1.847   6.432
 9222TIP3    H127623   4.532   1.934   6.466
 9222TIP3    H227624   4.535   1.853   6.338
 9223TIP3   OH227625   6.251   7.643   6.374
 9223TIP3    H127626   6.256   7.593   6.293
 9223TIP3    H227627   6.296   7.588   6.439
 9224TIP3   OH227628   7.562   6.373   2.139
 9224TIP3    H127629   7.626   6.395   2.071
 9224TIP3    H227630   7.603   6.399   2.221
 9225TIP3   OH227631   3.202   4.811   4.069
 9225TIP3    H127632   3.157   4.886   4.031
 9225TIP3    H227633   3.133   4.747   4.088
 9226TIP3   OH227634   7.380   7.107   0.877
 9226TIP3    H127635   7.426   7.172   0.930
 9226TIP3    H227636   7.330   7.056   0.941
 9227TIP3   OH227637   6.467   6.990   6.445
 9227TIP3    H127638   6.420   6.954   6.521
 9227TIP3    H227639   6.483   6.915   6.389
 9228TIP3   OH227640   0.023   5.624   4.617
 9228TIP3    H127641   0.090   5.556   4.632
 9228TIP3    H227642  -0.048   5.578   4.573
 9229TIP3   OH227643   3.256   2.727   3.450
 9229TIP3    H127644   3.220   2.775   3.524
 9229TIP3    H227645   3.332   2.681   3.487
 9230TIP3   OH227646   5.359   2.035   6.036
 9230TIP3    H127647   5.309   2.036   6.118
 9230TIP3    H227648   5.325   2.109   5.986
 9231TIP3   OH227649   1.060   5.229   0.851
 9231TIP3    H127650   1.010   5.309   0.866
 9231TIP3    H227651   1.000   5.170   0.806
 9232TIP3   OH227652   5.454   5.894   0.015
 9232TIP3    H127653   5.524   5.858   0.069
 9232TIP3    H227654   5.452   5.987   0.038
 9233TIP3   OH227655   3.230   5.515   0.329
 9233TIP3    H127656   3.142   5.476   0.327
 9233TIP3    H227657   3.270   5.480   0.409
 9234TIP3   OH227658   3.840   6.411   6.582
 9234TIP3    H127659   3.861   6.502   6.602
 9234TIP3    H227660   3.745   6.405   6.592
 9235TIP3   OH227661   1.906   1.173   5.116
 9235TIP3    H127662   1.811   1.184   5.110
 9235TIP3    H227663   1.919   1.138   5.205
 9236TIP3   OH227664   6.970   7.110   5.531
 9236TIP3    H127665   6.900   7.045   5.533
 9236TIP3    H227666   7.006   7.109   5.619
 9237TIP3   OH227667   4.940   7.453   2.129
 9237TIP3    H127668   4.858   7.491   2.097
 9237TIP3    H227669   4.996   7.528   2.147
 9238TIP3   OH227670   6.839   5.632   3.904
 9238TIP3    H127671   6.932   5.650   3.909
 9238TIP3    H227672   6.809   5.678   3.826
 9239TIP3   OH227673   1.985   4.355   4.609
 9239TIP3    H127674   2.043   4.329   4.680
 9239TIP3    H227675   2.042   4.404   4.549
 9240TIP3   OH227676   6.147   0.413   1.158
 9240TIP3    H127677   6.052   0.424   1.148
 9240TIP3    H227678   6.171   0.348   1.092
 9241TIP3   OH227679   2.738   3.140   3.993
 9241TIP3    H127680   2.788   3.206   4.040
 9241TIP3    H227681   2.782   3.057   4.013
 9242TIP3   OH227682   5.809   6.753   5.698
 9242TIP3    H127683   5.847   6.721   5.616
 9242TIP3    H227684   5.720   6.718   5.698
 9243TIP3   OH227685   5.648   4.647   1.648
 9243TIP3    H127686   5.583   4.665   1.579
 9243TIP3    H227687   5.714   4.715   1.637
 9244TIP3   OH227688   6.738   7.769   5.993
 9244TIP3    H127689   6.675   7.821   6.042
 9244TIP3    H227690   6.686   7.703   5.948
 9245TIP3   OH227691   2.142   1.210   0.061
 9245TIP3    H127692   2.121   1.295   0.102
 9245TIP3    H227693   2.139   1.147   0.133
 9246TIP3   OH227694   3.492   4.144   3.622
 9246TIP3    H127695   3.585   4.122   3.611
 9246TIP3    H227696   3.487   4.179   3.711
 9247TIP3   OH227697   5.240   0.699   4.921
 9247TIP3    H127698   5.218   0.647   4.998
 9247TIP3    H227699   5.193   0.657   4.849
 9248TIP3   OH227700   1.837   4.167   4.486
 9248TIP3    H127701   1.905   4.111   4.448
 9248TIP3    H227702   1.885   4.234   4.534
 9249TIP3   OH227703   2.297   5.854   1.290
 9249TIP3    H127704   2.303   5.873   1.384
 9249TIP3    H227705   2.215   5.806   1.280
 9250TIP3   OH227706   2.462   0.697   4.042
 9250TIP3    H127707   2.466   0.658   3.955
 9250TIP3    H227708   2.517   0.775   4.037
 9251TIP3   OH227709   4.267   0.836   3.812
 9251TIP3    H127710   4.274   0.850   3.907
 9251TIP3    H227711   4.251   0.923   3.776
 9252TIP3   OH227712   5.450   1.981   0.696
 9252TIP3    H127713   5.388   1.910   0.682
 9252TIP3    H227714   5.452   1.993   0.790
 9253TIP3   OH227715   7.599   0.886   1.902
 9253TIP3    H127716   7.644   0.805   1.929
 9253TIP3    H227717   7.591   0.878   1.807
 9254TIP3   OH227718   5.360   1.600   5.960
 9254TIP3    H127719   5.310   1.678   5.985
 9254TIP3    H227720   5.441   1.607   6.011
 9255TIP3   OH227721   3.753   2.986   1.099
 9255TIP3    H127722   3.673   2.933   1.106
 9255TIP3    H227723   3.738   3.060   1.159
 9256TIP3   OH227724   4.348   7.519   6.046
 9256TIP3    H127725   4.319   7.592   5.991
 9256TIP3    H227726   4.444   7.527   6.047
 9257TIP3   OH227727   3.839   3.240   6.563
 9257TIP3    H127728   3.762   3.283   6.524
 9257TIP3    H227729   3.871   3.303   6.627
 9258TIP3   OH227730   2.320   6.358   3.953
 9258TIP3    H127731   2.360   6.278   3.921
 9258TIP3    H227732   2.265   6.388   3.880
 9259TIP3   OH227733   2.012   1.681   5.295
 9259TIP3    H127734   1.993   1.743   5.224
 9259TIP3    H227735   2.011   1.595   5.252
 9260TIP3   OH227736   3.832   2.629   6.278
 9260TIP3    H127737   3.906   2.592   6.230
 9260TIP3    H227738   3.856   2.720   6.294
 9261TIP3   OH227739   7.731   6.592   5.957
 9261TIP3    H127740   7.657   6.570   5.901
 9261TIP3    H227741   7.803   6.610   5.896
 9262TIP3   OH227742   8.033   4.033   6.040
 9262TIP3    H127743   7.977   4.069   6.109
 9262TIP3    H227744   8.004   4.077   5.960
 9263TIP3   OH227745   5.311   5.828   4.510
 9263TIP3    H127746   5.247   5.789   4.569
 9263TIP3    H227747   5.393   5.782   4.528
 9264TIP3   OH227748   7.057   1.053   1.767
 9264TIP3    H127749   7.036   1.076   1.857
 9264TIP3    H227750   7.000   0.979   1.746
 9265TIP3   OH227751   7.930   3.157   2.784
 9265TIP3    H127752   7.971   3.213   2.850
 9265TIP3    H227753   8.003   3.126   2.730
 9266TIP3   OH227754   6.660   2.726   1.051
 9266TIP3    H127755   6.705   2.726   1.135
 9266TIP3    H227756   6.632   2.817   1.038
 9267TIP3   OH227757   5.333   7.717   1.200
 9267TIP3    H127758   5.350   7.770   1.122
 9267TIP3    H227759   5.418   7.705   1.241
 9268TIP3   OH227760   3.765   4.068   3.655
 9268TIP3    H127761   3.791   4.007   3.724
 9268TIP3    H227762   3.838   4.129   3.648
 9269TIP3   OH227763   0.861   4.960   0.991
 9269TIP3    H127764   0.847   5.016   0.914
 9269TIP3    H227765   0.812   5.003   1.061
 9270TIP3   OH227766   3.360   5.928   0.863
 9270TIP3    H127767   3.434   5.960   0.914
 9270TIP3    H227768   3.283   5.961   0.908
 9271TIP3   OH227769   4.869   5.467   3.093
 9271TIP3    H127770   4.782   5.505   3.108
 9271TIP3    H227771   4.854   5.372   3.093
 9272TIP3   OH227772   3.161   4.786   1.452
 9272TIP3    H127773   3.208   4.841   1.515
 9272TIP3    H227774   3.191   4.815   1.366
 9273TIP3   OH227775   7.227   7.646   4.363
 9273TIP3    H127776   7.208   7.664   4.455
 9273TIP3    H227777   7.266   7.558   4.364
 9274TIP3   OH227778   8.216   2.772   4.542
 9274TIP3    H127779   8.291   2.739   4.592
 9274TIP3    H227780   8.146   2.709   4.559
 9275TIP3   OH227781   2.690   1.128   5.771
 9275TIP3    H127782   2.707   1.129   5.866
 9275TIP3    H227783   2.777   1.125   5.732
 9276TIP3   OH227784   2.199   1.762   4.479
 9276TIP3    H127785   2.214   1.733   4.569
 9276TIP3    H227786   2.125   1.821   4.485
 9277TIP3   OH227787   5.226   6.082   6.735
 9277TIP3    H127788   5.162   6.092   6.665
 9277TIP3    H227789   5.303   6.131   6.705
 9278TIP3   OH227790   4.843   0.940   6.759
 9278TIP3    H127791   4.894   0.868   6.795
 9278TIP3    H227792   4.897   0.974   6.688
 9279TIP3   OH227793   1.768   3.117   0.462
 9279TIP3    H127794   1.734   3.178   0.527
 9279TIP3    H227795   1.795   3.040   0.512
 9280TIP3   OH227796   0.045   6.901   6.271
 9280TIP3    H127797   0.106   6.971   6.246
 9280TIP3    H227798  -0.042   6.939   6.259
 9281TIP3   OH227799   5.373   1.393   1.566
 9281TIP3    H127800   5.303   1.392   1.501
 9281TIP3    H227801   5.334   1.353   1.644
 9282TIP3   OH227802   3.567   6.016   0.989
 9282TIP3    H127803   3.604   6.002   1.076
 9282TIP3    H227804   3.616   5.956   0.932
 9283TIP3   OH227805   2.490   0.058   1.963
 9283TIP3    H127806   2.474   0.146   1.929
 9283TIP3    H227807   2.442   0.055   2.046
 9284TIP3   OH227808   6.163   4.442   3.615
 9284TIP3    H127809   6.111   4.372   3.576
 9284TIP3    H227810   6.121   4.461   3.699
 9285TIP3   OH227811   5.533   0.802   5.100
 9285TIP3    H127812   5.541   0.715   5.141
 9285TIP3    H227813   5.600   0.802   5.032
 9286TIP3   OH227814   4.720   3.504   6.545
 9286TIP3    H127815   4.808   3.536   6.563
 9286TIP3    H227816   4.664   3.582   6.551
 9287TIP3   OH227817   4.901   0.826   0.579
 9287TIP3    H127818   4.902   0.776   0.661
 9287TIP3    H227819   4.984   0.803   0.537
 9288TIP3   OH227820   6.605   1.617   3.591
 9288TIP3    H127821   6.567   1.588   3.508
 9288TIP3    H227822   6.696   1.636   3.570
 9289TIP3   OH227823   6.300   3.705   6.181
 9289TIP3    H127824   6.350   3.783   6.159
 9289TIP3    H227825   6.262   3.676   6.099
 9290TIP3   OH227826   6.905   2.946   3.492
 9290TIP3    H127827   6.952   2.996   3.558
 9290TIP3    H227828   6.933   2.855   3.505
 9291TIP3   OH227829   1.360   3.950   0.210
 9291TIP3    H127830   1.431   3.911   0.260
 9291TIP3    H227831   1.289   3.962   0.273
 9292TIP3   OH227832   1.375   7.350   0.351
 9292TIP3    H127833   1.317   7.419   0.384
 9292TIP3    H227834   1.372   7.282   0.418
 9293TIP3   OH227835   4.421   6.009   3.430
 9293TIP3    H127836   4.358   6.021   3.501
 9293TIP3    H227837   4.491   5.956   3.468
 9294TIP3   OH227838   4.788   4.435   6.573
 9294TIP3    H127839   4.758   4.345   6.560
 9294TIP3    H227840   4.748   4.483   6.500
 9295TIP3   OH227841   4.369   4.022   6.214
 9295TIP3    H127842   4.386   3.977   6.297
 9295TIP3    H227843   4.275   4.011   6.200
 9296TIP3   OH227844   0.037   1.060   3.791
 9296TIP3    H127845  -0.019   1.126   3.831
 9296TIP3    H227846   0.125   1.083   3.821
 9297TIP3   OH227847   0.933   3.584   3.833
 9297TIP3    H127848   0.959   3.676   3.822
 9297TIP3    H227849   0.870   3.569   3.763
 9298TIP3   OH227850   7.899   6.082   5.988
 9298TIP3    H127851   7.825   6.074   6.048
 9298TIP3    H227852   7.950   6.003   6.002
 9299TIP3   OH227853   0.417   2.113   3.651
 9299TIP3    H127854   0.335   2.106   3.699
 9299TIP3    H227855   0.401   2.068   3.568
 9300TIP3   OH227856  -0.005   1.464   1.723
 9300TIP3    H127857   0.026   1.553   1.737
 9300TIP3    H227858   0.070   1.409   1.747
 9301TIP3   OH227859   3.803   4.265   3.110
 9301TIP3    H127860   3.873   4.243   3.049
 9301TIP3    H227861   3.791   4.360   3.099
 9302TIP3   OH227862   7.175   6.584   4.842
 9302TIP3    H127863   7.141   6.612   4.927
 9302TIP3    H227864   7.267   6.561   4.859
 9303TIP3   OH227865   4.229   2.845   3.390
 9303TIP3    H127866   4.173   2.799   3.328
 9303TIP3    H227867   4.208   2.937   3.378
 9304TIP3   OH227868   5.868   3.691   2.443
 9304TIP3    H127869   5.796   3.645   2.485
 9304TIP3    H227870   5.937   3.694   2.510
 9305TIP3   OH227871   6.027   2.211   1.381
 9305TIP3    H127872   6.117   2.243   1.370
 9305TIP3    H227873   6.027   2.124   1.343
 9306TIP3   OH227874   1.046   1.117   0.379
 9306TIP3    H127875   1.063   1.207   0.351
 9306TIP3    H227876   0.972   1.125   0.440
 9307TIP3   OH227877   0.144   7.219   2.316
 9307TIP3    H127878   0.118   7.134   2.352
 9307TIP3    H227879   0.062   7.262   2.294
 9308TIP3   OH227880   3.878   2.440   5.715
 9308TIP3    H127881   3.946   2.505   5.728
 9308TIP3    H227882   3.836   2.465   5.632
 9309TIP3   OH227883   7.446   5.710   6.332
 9309TIP3    H127884   7.479   5.686   6.418
 9309TIP3    H227885   7.507   5.777   6.300
 9310TIP3   OH227886   6.380   7.508   3.711
 9310TIP3    H127887   6.369   7.469   3.797
 9310TIP3    H227888   6.450   7.458   3.670
 9311TIP3   OH227889   2.800   0.156   0.437
 9311TIP3    H127890   2.781   0.090   0.371
 9311TIP3    H227891   2.818   0.107   0.517
 9312TIP3   OH227892   5.058   6.785   6.591
 9312TIP3    H127893   5.050   6.690   6.582
 9312TIP3    H227894   5.024   6.820   6.509
 9313TIP3   OH227895   0.240   3.757   0.374
 9313TIP3    H127896   0.209   3.801   0.453
 9313TIP3    H227897   0.232   3.664   0.394
 9314TIP3   OH227898   5.855   6.545   6.227
 9314TIP3    H127899   5.947   6.542   6.202
 9314TIP3    H227900   5.809   6.575   6.148
 9315TIP3   OH227901   7.550   2.116   5.824
 9315TIP3    H127902   7.622   2.094   5.883
 9315TIP3    H227903   7.525   2.032   5.785
 9316TIP3   OH227904   3.784   6.822   0.942
 9316TIP3    H127905   3.837   6.885   0.991
 9316TIP3    H227906   3.833   6.808   0.861
 9317TIP3   OH227907   2.108   1.376   0.667
 9317TIP3    H127908   2.056   1.327   0.603
 9317TIP3    H227909   2.043   1.414   0.726
 9318TIP3   OH227910   0.078   1.474   5.638
 9318TIP3    H127911   0.170   1.499   5.644
 9318TIP3    H227912   0.076   1.406   5.571
 9319TIP3   OH227913   2.117   4.271   1.088
 9319TIP3    H127914   2.146   4.185   1.057
 9319TIP3    H227915   2.190   4.304   1.140
 9320TIP3   OH227916   5.323   6.093   0.541
 9320TIP3    H127917   5.365   6.178   0.550
 9320TIP3    H227918   5.313   6.061   0.631
 9321TIP3   OH227919   6.212   5.342   6.407
 9321TIP3    H127920   6.165   5.384   6.336
 9321TIP3    H227921   6.241   5.258   6.370
 9322TIP3   OH227922   3.357   6.059   6.037
 9322TIP3    H127923   3.295   6.017   5.976
 9322TIP3    H227924   3.319   6.043   6.124
 9323TIP3   OH227925   6.461   6.610   0.600
 9323TIP3    H127926   6.454   6.578   0.510
 9323TIP3    H227927   6.509   6.692   0.593
 9324TIP3   OH227928   4.205   0.577   4.410
 9324TIP3    H127929   4.168   0.537   4.331
 9324TIP3    H227930   4.208   0.505   4.474
 9325TIP3   OH227931   6.557   1.534   3.331
 9325TIP3    H127932   6.468   1.562   3.311
 9325TIP3    H227933   6.583   1.481   3.255
 9326TIP3   OH227934   2.564   4.776   4.742
 9326TIP3    H127935   2.611   4.829   4.678
 9326TIP3    H227936   2.477   4.765   4.704
 9327TIP3   OH227937   2.411   1.759   4.113
 9327TIP3    H127938   2.358   1.700   4.167
 9327TIP3    H227939   2.361   1.841   4.111
 9328TIP3   OH227940   0.658   5.231   0.598
 9328TIP3    H127941   0.638   5.308   0.544
 9328TIP3    H227942   0.661   5.158   0.536
 9329TIP3   OH227943   0.399   3.927   2.902
 9329TIP3    H127944   0.416   4.014   2.867
 9329TIP3    H227945   0.304   3.917   2.895
 9330TIP3   OH227946   3.355   3.238   0.462
 9330TIP3    H127947   3.433   3.182   0.466
 9330TIP3    H227948   3.283   3.178   0.442
 9331TIP3   OH227949   7.135   3.236   6.659
 9331TIP3    H127950   7.130   3.327   6.628
 9331TIP3    H227951   7.078   3.234   6.736
 9332TIP3   OH227952   0.359   7.653   5.786
 9332TIP3    H127953   0.302   7.577   5.798
 9332TIP3    H227954   0.301   7.728   5.800
 9333TIP3   OH227955   5.427   5.176   5.932
 9333TIP3    H127956   5.367   5.148   6.001
 9333TIP3    H227957   5.422   5.108   5.866
 9334TIP3   OH227958   5.887   3.107   1.541
 9334TIP3    H127959   5.842   3.114   1.456
 9334TIP3    H227960   5.980   3.101   1.518
 9335TIP3   OH227961   0.682   7.816   5.948
 9335TIP3    H127962   0.657   7.860   5.867
 9335TIP3    H227963   0.700   7.726   5.923
 9336TIP3   OH227964   3.589   0.561   1.939
 9336TIP3    H127965   3.553   0.491   1.885
 9336TIP3    H227966   3.531   0.568   2.014
 9337TIP3   OH227967   7.114   6.827   1.330
 9337TIP3    H127968   7.054   6.800   1.399
 9337TIP3    H227969   7.143   6.915   1.355
 9338TIP3   OH227970   0.715   0.967   0.767
 9338TIP3    H127971   0.701   0.902   0.836
 9338TIP3    H227972   0.808   0.961   0.747
 9339TIP3   OH227973   8.098   4.212   6.728
 9339TIP3    H127974   8.074   4.121   6.716
 9339TIP3    H227975   8.033   4.261   6.678
 9340TIP3   OH227976   0.105  -0.023   3.810
 9340TIP3    H127977   0.047   0.040   3.851
 9340TIP3    H227978   0.185   0.027   3.791
 9341TIP3   OH227979   6.570   2.156   3.388
 9341TIP3    H127980   6.633   2.086   3.406
 9341TIP3    H227981   6.534   2.135   3.302
 9342TIP3   OH227982   0.730   5.275   2.702
 9342TIP3    H127983   0.706   5.343   2.764
 9342TIP3    H227984   0.749   5.322   2.620
 9343TIP3   OH227985   3.469   5.535   3.475
 9343TIP3    H127986   3.418   5.550   3.395
 9343TIP3    H227987   3.407   5.499   3.537
 9344TIP3   OH227988   3.237   7.196   5.873
 9344TIP3    H127989   3.170   7.247   5.827
 9344TIP3    H227990   3.296   7.262   5.910
 9345TIP3   OH227991   3.949   5.725   5.620
 9345TIP3    H127992   3.934   5.807   5.575
 9345TIP3    H227993   4.035   5.696   5.589
 9346TIP3   OH227994   6.711   4.195   1.918
 9346TIP3    H127995   6.747   4.189   1.830
 9346TIP3    H227996   6.617   4.207   1.904
 9347TIP3   OH227997   0.955   6.803   6.621
 9347TIP3    H127998   0.868   6.841   6.607
 9347TIP3    H227999   0.970   6.747   6.545
 9348TIP3   OH228000   7.570   2.809   1.294
 9348TIP3    H128001   7.533   2.807   1.382
 9348TIP3    H228002   7.657   2.849   1.306
 9349TIP3   OH228003   3.402   6.923   4.075
 9349TIP3    H128004   3.428   6.982   4.145
 9349TIP3    H228005   3.308   6.938   4.065
 9350TIP3   OH228006   8.059   0.144   3.531
 9350TIP3    H128007   8.118   0.191   3.472
 9350TIP3    H228008   8.088   0.053   3.526
 9351TIP3   OH228009   7.002   5.408   4.469
 9351TIP3    H128010   6.965   5.332   4.425
 9351TIP3    H228011   6.954   5.482   4.433
 9352TIP3   OH228012   5.333   0.187   1.994
 9352TIP3    H128013   5.260   0.130   1.969
 9352TIP3    H228014   5.303   0.231   2.073
 9353TIP3   OH228015   6.976   6.565   0.536
 9353TIP3    H128016   6.940   6.546   0.623
 9353TIP3    H228017   7.000   6.479   0.500
 9354TIP3   OH228018   1.233   3.286   4.502
 9354TIP3    H128019   1.182   3.212   4.468
 9354TIP3    H228020   1.249   3.263   4.593
 9355TIP3   OH228021   4.101   3.924   6.122
 9355TIP3    H128022   4.131   3.961   6.039
 9355TIP3    H228023   4.103   3.829   6.109
 9356TIP3   OH228024   5.590   4.752   3.447
 9356TIP3    H128025   5.510   4.715   3.484
 9356TIP3    H228026   5.661   4.717   3.501
 9357TIP3   OH228027   0.737   0.569   0.722
 9357TIP3    H128028   0.754   0.605   0.809
 9357TIP3    H228029   0.730   0.475   0.736
 9358TIP3   OH228030   1.442   5.774   1.726
 9358TIP3    H128031   1.504   5.701   1.728
 9358TIP3    H228032   1.474   5.835   1.791
 9359TIP3   OH228033   0.859   0.410   3.379
 9359TIP3    H128034   0.849   0.487   3.324
 9359TIP3    H228035   0.772   0.393   3.414
 9360TIP3   OH228036   1.764   3.726   6.062
 9360TIP3    H128037   1.842   3.671   6.073
 9360TIP3    H228038   1.799   3.814   6.050
 9361TIP3   OH228039   3.204   5.072   2.276
 9361TIP3    H128040   3.232   5.160   2.300
 9361TIP3    H228041   3.273   5.014   2.308
 9362TIP3   OH228042   1.467   6.208   1.565
 9362TIP3    H128043   1.405   6.138   1.544
 9362TIP3    H228044   1.422   6.288   1.538
 9363TIP3   OH228045   3.444   7.286   0.960
 9363TIP3    H128046   3.509   7.225   0.924
 9363TIP3    H228047   3.489   7.328   1.034
 9364TIP3   OH228048   6.083   3.477   5.211
 9364TIP3    H128049   6.029   3.523   5.275
 9364TIP3    H228050   6.064   3.519   5.127
 9365TIP3   OH228051   6.013   7.763   6.411
 9365TIP3    H128052   5.953   7.754   6.484
 9365TIP3    H228053   6.086   7.705   6.433
 9366TIP3   OH228054   7.099   3.873   6.119
 9366TIP3    H128055   7.183   3.908   6.089
 9366TIP3    H228056   7.121   3.802   6.179
 9367TIP3   OH228057   4.073   4.365   0.641
 9367TIP3    H128058   4.166   4.389   0.642
 9367TIP3    H228059   4.038   4.408   0.564
 9368TIP3   OH228060   4.864   3.098   1.788
 9368TIP3    H128061   4.840   3.009   1.761
 9368TIP3    H228062   4.958   3.092   1.805
 9369TIP3   OH228063   1.947   1.430   6.020
 9369TIP3    H128064   1.862   1.475   6.018
 9369TIP3    H228065   1.951   1.383   5.937
 9370TIP3   OH228066   5.870   4.478   5.668
 9370TIP3    H128067   5.806   4.547   5.648
 9370TIP3    H228068   5.843   4.404   5.615
 9371TIP3   OH228069   3.787   5.494   0.361
 9371TIP3    H128070   3.731   5.558   0.405
 9371TIP3    H228071   3.875   5.531   0.365
 9372TIP3   OH228072   3.482   2.627   3.590
 9372TIP3    H128073   3.484   2.644   3.684
 9372TIP3    H228074   3.573   2.640   3.562
 9373TIP3   OH228075   1.110   2.367   0.819
 9373TIP3    H128076   1.032   2.399   0.865
 9373TIP3    H228077   1.122   2.429   0.747
 9374TIP3   OH228078   5.280   6.908   3.995
 9374TIP3    H128079   5.281   6.905   4.091
 9374TIP3    H228080   5.246   6.822   3.969
 9375TIP3   OH228081   2.194   3.426   1.048
 9375TIP3    H128082   2.231   3.355   0.996
 9375TIP3    H228083   2.209   3.400   1.139
 9376TIP3   OH228084   1.878   6.383   2.277
 9376TIP3    H128085   1.827   6.348   2.350
 9376TIP3    H228086   1.817   6.385   2.203
 9377TIP3   OH228087   5.854   3.584   5.723
 9377TIP3    H128088   5.827   3.550   5.808
 9377TIP3    H228089   5.787   3.649   5.700
 9378TIP3   OH228090   2.458   0.061   4.717
 9378TIP3    H128091   2.545   0.050   4.756
 9378TIP3    H228092   2.416  -0.024   4.728
 9379TIP3   OH228093   2.276   6.311   4.695
 9379TIP3    H128094   2.219   6.237   4.671
 9379TIP3    H228095   2.348   6.306   4.633
 9380TIP3   OH228096   3.049   0.631   5.496
 9380TIP3    H128097   3.106   0.554   5.488
 9380TIP3    H228098   2.970   0.598   5.539
 9381TIP3   OH228099   6.031   6.167   3.645
 9381TIP3    H128100   5.990   6.094   3.690
 9381TIP3    H228101   5.959   6.216   3.606
 9382TIP3   OH228102   4.582   5.764   0.871
 9382TIP3    H128103   4.668   5.742   0.905
 9382TIP3    H228104   4.528   5.687   0.890
 9383TIP3   OH228105   1.113   2.517   3.984
 9383TIP3    H128106   1.164   2.573   4.043
 9383TIP3    H228107   1.078   2.447   4.041
 9384TIP3   OH228108   6.763   6.270   1.309
 9384TIP3    H128109   6.845   6.319   1.304
 9384TIP3    H228110   6.717   6.309   1.384
 9385TIP3   OH228111   6.952   1.924   1.337
 9385TIP3    H128112   6.874   1.977   1.350
 9385TIP3    H228113   6.949   1.859   1.407
 9386TIP3   OH228114   7.750   1.104   2.801
 9386TIP3    H128115   7.833   1.059   2.812
 9386TIP3    H228116   7.686   1.047   2.842
 9387TIP3   OH228117   6.121   3.743   2.636
 9387TIP3    H128118   6.078   3.714   2.717
 9387TIP3    H228119   6.152   3.831   2.656
 9388TIP3   OH228120   4.943   0.697   4.223
 9388TIP3    H128121   4.854   0.679   4.255
 9388TIP3    H228122   4.931   0.768   4.160
 9389TIP3   OH228123   3.651   3.808   2.689
 9389TIP3    H128124   3.645   3.901   2.708
 9389TIP3    H228125   3.596   3.766   2.756
 9390TIP3   OH228126   5.070   2.623   5.247
 9390TIP3    H128127   5.139   2.677   5.208
 9390TIP3    H228128   5.028   2.679   5.312
 9391TIP3   OH228129   0.861   0.604   1.312
 9391TIP3    H128130   0.883   0.551   1.389
 9391TIP3    H228131   0.828   0.686   1.349
 9392TIP3   OH228132   0.281   7.634   2.672
 9392TIP3    H128133   0.291   7.719   2.629
 9392TIP3    H228134   0.260   7.655   2.763
 9393TIP3   OH228135   3.058   2.256   0.915
 9393TIP3    H128136   3.150   2.231   0.904
 9393TIP3    H228137   3.013   2.212   0.843
 9394TIP3   OH228138   4.777   1.883   2.262
 9394TIP3    H128139   4.849   1.945   2.263
 9394TIP3    H228140   4.809   1.809   2.209
 9395TIP3   OH228141   6.073   6.870   1.499
 9395TIP3    H128142   5.982   6.845   1.478
 9395TIP3    H228143   6.100   6.925   1.425
 9396TIP3   OH228144   7.159   6.860   3.792
 9396TIP3    H128145   7.220   6.866   3.719
 9396TIP3    H228146   7.072   6.862   3.751
 9397TIP3   OH228147   7.572   5.519   1.758
 9397TIP3    H128148   7.631   5.452   1.794
 9397TIP3    H228149   7.621   5.601   1.764
 9398TIP3   OH228150   6.016   3.893   5.873
 9398TIP3    H128151   5.944   3.939   5.830
 9398TIP3    H228152   5.976   3.851   5.949
 9399TIP3   OH228153   1.942   3.809   6.297
 9399TIP3    H128154   1.950   3.862   6.217
 9399TIP3    H228155   1.857   3.765   6.289
 9400TIP3   OH228156   2.923   4.157   2.323
 9400TIP3    H128157   2.951   4.218   2.392
 9400TIP3    H228158   2.884   4.213   2.257
 9401TIP3   OH228159   5.638   7.175   1.924
 9401TIP3    H128160   5.722   7.178   1.879
 9401TIP3    H228161   5.575   7.207   1.860
 9402TIP3   OH228162   3.080   2.700   0.901
 9402TIP3    H128163   2.995   2.743   0.893
 9402TIP3    H228164   3.077   2.658   0.988
 9403TIP3   OH228165   7.928   1.308   2.803
 9403TIP3    H128166   7.857   1.246   2.788
 9403TIP3    H228167   8.005   1.253   2.815
 9404TIP3   OH228168   8.270   7.116   5.008
 9404TIP3    H128169   8.267   7.101   4.914
 9404TIP3    H228170   8.214   7.193   5.022
 9405TIP3   OH228171   0.610   1.412   1.128
 9405TIP3    H128172   0.531   1.451   1.166
 9405TIP3    H228173   0.581   1.331   1.088
 9406TIP3   OH228174   3.028   6.273   3.201
 9406TIP3    H128175   3.046   6.238   3.288
 9406TIP3    H228176   2.953   6.331   3.214
 9407TIP3   OH228177   6.321  -0.005   5.803
 9407TIP3    H128178   6.233  -0.020   5.770
 9407TIP3    H228179   6.328   0.090   5.812
 9408TIP3   OH228180   6.039   0.502   5.702
 9408TIP3    H128181   6.066   0.591   5.725
 9408TIP3    H228182   6.016   0.508   5.610
 9409TIP3   OH228183   6.847   2.555   0.488
 9409TIP3    H128184   6.899   2.599   0.556
 9409TIP3    H228185   6.762   2.541   0.529
 9410TIP3   OH228186   3.620   0.389   2.814
 9410TIP3    H128187   3.549   0.346   2.861
 9410TIP3    H228188   3.579   0.464   2.771
 9411TIP3   OH228189   5.143   2.791   1.240
 9411TIP3    H128190   5.198   2.736   1.184
 9411TIP3    H228191   5.201   2.819   1.311
 9412TIP3   OH228192   0.224   6.394   1.221
 9412TIP3    H128193   0.141   6.442   1.215
 9412TIP3    H228194   0.287   6.452   1.178
 9413TIP3   OH228195   6.513   5.340   0.382
 9413TIP3    H128196   6.565   5.328   0.462
 9413TIP3    H228197   6.456   5.415   0.402
 9414TIP3   OH228198   1.243   1.341   4.978
 9414TIP3    H128199   1.310   1.278   5.004
 9414TIP3    H228200   1.283   1.390   4.906
 9415TIP3   OH228201   1.836   6.820   4.834
 9415TIP3    H128202   1.756   6.861   4.867
 9415TIP3    H228203   1.807   6.765   4.761
 9416TIP3   OH228204   2.671   5.617   6.382
 9416TIP3    H128205   2.599   5.614   6.444
 9416TIP3    H228206   2.631   5.644   6.299
 9417TIP3   OH228207   5.017   7.051   4.431
 9417TIP3    H128208   4.949   6.987   4.453
 9417TIP3    H228209   5.077   7.050   4.506
 9418TIP3   OH228210   4.369   4.901   2.660
 9418TIP3    H128211   4.357   4.996   2.668
 9418TIP3    H228212   4.303   4.875   2.596
 9419TIP3   OH228213   4.996   1.062   5.842
 9419TIP3    H128214   4.935   1.052   5.915
 9419TIP3    H228215   5.082   1.069   5.884
 9420TIP3   OH228216   1.719   7.243   0.659
 9420TIP3    H128217   1.653   7.198   0.607
 9420TIP3    H228218   1.802   7.210   0.626
 9421TIP3   OH228219   5.633   1.461   5.967
 9421TIP3    H128220   5.679   1.379   5.952
 9421TIP3    H228221   5.673   1.497   6.047
 9422TIP3   OH228222   1.860   3.236   4.636
 9422TIP3    H128223   1.809   3.178   4.693
 9422TIP3    H228224   1.845   3.200   4.548
 9423TIP3   OH228225   0.856   3.007   0.339
 9423TIP3    H128226   0.931   2.990   0.281
 9423TIP3    H228227   0.790   3.046   0.281
 9424TIP3   OH228228   8.046   7.326   3.999
 9424TIP3    H128229   7.988   7.401   3.983
 9424TIP3    H228230   8.054   7.320   4.094
 9425TIP3   OH228231   4.477   4.712   3.524
 9425TIP3    H128232   4.483   4.635   3.468
 9425TIP3    H228233   4.422   4.773   3.474
 9426TIP3   OH228234   0.162   0.303   0.807
 9426TIP3    H128235   0.197   0.223   0.845
 9426TIP3    H228236   0.234   0.339   0.755
 9427TIP3   OH228237   0.456   2.763   6.541
 9427TIP3    H128238   0.455   2.705   6.466
 9427TIP3    H228239   0.443   2.851   6.504
 9428TIP3   OH228240   6.389   7.311   6.479
 9428TIP3    H128241   6.426   7.262   6.552
 9428TIP3    H228242   6.398   7.252   6.404
 9429TIP3   OH228243   7.592   3.888   0.094
 9429TIP3    H128244   7.621   3.908   0.005
 9429TIP3    H228245   7.574   3.794   0.093
 9430TIP3   OH228246   4.447   1.324   3.412
 9430TIP3    H128247   4.479   1.334   3.323
 9430TIP3    H228248   4.485   1.398   3.460
 9431TIP3   OH228249   8.269   5.822   3.392
 9431TIP3    H128250   8.290   5.729   3.386
 9431TIP3    H228251   8.264   5.840   3.485
 9432TIP3   OH228252   7.593   0.119   1.098
 9432TIP3    H128253   7.629   0.031   1.108
 9432TIP3    H228254   7.533   0.130   1.171
 9433TIP3   OH228255   8.118   6.535   6.654
 9433TIP3    H128256   8.179   6.579   6.594
 9433TIP3    H228257   8.082   6.463   6.602
 9434TIP3   OH228258   1.708   5.812   2.666
 9434TIP3    H128259   1.737   5.721   2.672
 9434TIP3    H228260   1.716   5.845   2.756
 9435TIP3   OH228261   2.164   2.314   0.344
 9435TIP3    H128262   2.173   2.239   0.401
 9435TIP3    H228263   2.164   2.390   0.402
 9436TIP3   OH228264   5.955   2.541   0.874
 9436TIP3    H128265   5.959   2.626   0.919
 9436TIP3    H228266   5.872   2.542   0.827
 9437TIP3   OH228267   3.814   5.397   0.099
 9437TIP3    H128268   3.720   5.416   0.103
 9437TIP3    H228269   3.853   5.459   0.161
 9438TIP3   OH228270   1.061   1.894   5.197
 9438TIP3    H128271   0.992   1.859   5.140
 9438TIP3    H228272   1.071   1.829   5.266
 9439TIP3   OH228273   0.737   6.954   2.625
 9439TIP3    H128274   0.775   7.002   2.698
 9439TIP3    H228275   0.716   7.021   2.560
 9440TIP3   OH228276   1.966   2.170   3.253
 9440TIP3    H128277   1.886   2.138   3.295
 9440TIP3    H228278   1.961   2.266   3.262
 9441TIP3   OH228279   6.931   7.384   2.570
 9441TIP3    H128280   6.933   7.467   2.521
 9441TIP3    H228281   6.922   7.411   2.662
 9442TIP3   OH228282   4.049   5.222   3.666
 9442TIP3    H128283   4.037   5.298   3.609
 9442TIP3    H228284   4.094   5.256   3.743
 9443TIP3   OH228285   2.217   4.163   2.955
 9443TIP3    H128286   2.151   4.132   2.893
 9443TIP3    H228287   2.167   4.187   3.033
 9444TIP3   OH228288   4.083   1.168   1.975
 9444TIP3    H128289   4.045   1.092   2.019
 9444TIP3    H228290   4.049   1.164   1.886
 9445TIP3   OH228291   0.259   5.819   5.758
 9445TIP3    H128292   0.228   5.830   5.848
 9445TIP3    H228293   0.352   5.842   5.762
 9446TIP3   OH228294   6.899   1.963   6.205
 9446TIP3    H128295   6.893   2.055   6.233
 9446TIP3    H228296   6.993   1.943   6.207
 9447TIP3   OH228297   7.135   3.720   0.509
 9447TIP3    H128298   7.116   3.684   0.596
 9447TIP3    H228299   7.074   3.675   0.451
 9448TIP3   OH228300   1.158   6.137   2.327
 9448TIP3    H128301   1.219   6.118   2.256
 9448TIP3    H228302   1.213   6.141   2.406
 9449TIP3   OH228303   2.910   4.795   4.112
 9449TIP3    H128304   2.878   4.776   4.024
 9449TIP3    H228305   2.868   4.730   4.168
 9450TIP3   OH228306   7.808   3.092   4.541
 9450TIP3    H128307   7.733   3.038   4.567
 9450TIP3    H228308   7.771   3.158   4.483
 9451TIP3   OH228309   6.890   7.082   1.402
 9451TIP3    H128310   6.982   7.095   1.380
 9451TIP3    H228311   6.882   6.988   1.417
 9452TIP3   OH228312   4.285   4.800   2.913
 9452TIP3    H128313   4.297   4.839   2.827
 9452TIP3    H228314   4.357   4.835   2.966
 9453TIP3   OH228315   6.509   6.736   3.116
 9453TIP3    H128316   6.602   6.748   3.098
 9453TIP3    H228317   6.502   6.743   3.212
 9454TIP3   OH228318   3.700   1.089   6.525
 9454TIP3    H128319   3.763   1.127   6.464
 9454TIP3    H228320   3.717   0.995   6.523
 9455TIP3   OH228321   1.837   5.545   1.289
 9455TIP3    H128322   1.757   5.561   1.238
 9455TIP3    H228323   1.808   5.488   1.361
 9456TIP3   OH228324   6.776   2.427   6.544
 9456TIP3    H128325   6.744   2.516   6.558
 9456TIP3    H228326   6.787   2.391   6.632
 9457TIP3   OH228327   6.324   7.815   0.322
 9457TIP3    H128328   6.303   7.729   0.284
 9457TIP3    H228329   6.418   7.812   0.336
 9458TIP3   OH228330   8.084   0.514   6.230
 9458TIP3    H128331   8.127   0.429   6.234
 9458TIP3    H228332   8.030   0.510   6.151
 9459TIP3   OH228333   6.665   3.645   3.634
 9459TIP3    H128334   6.699   3.683   3.553
 9459TIP3    H228335   6.654   3.720   3.693
 9460TIP3   OH228336   3.624   3.891   3.476
 9460TIP3    H128337   3.645   3.956   3.410
 9460TIP3    H228338   3.683   3.910   3.549
 9461TIP3   OH228339   0.909   3.060   2.246
 9461TIP3    H128340   0.977   3.123   2.222
 9461TIP3    H228341   0.829   3.095   2.207
 9462TIP3   OH228342   2.716   7.200   1.490
 9462TIP3    H128343   2.670   7.126   1.451
 9462TIP3    H228344   2.721   7.180   1.583
 9463TIP3   OH228345   8.160   2.192   2.103
 9463TIP3    H128346   8.178   2.233   2.019
 9463TIP3    H228347   8.245   2.157   2.132
 9464TIP3   OH228348   0.689   3.011   5.094
 9464TIP3    H128349   0.737   3.092   5.110
 9464TIP3    H228350   0.633   3.031   5.019
 9465TIP3   OH228351   7.799   6.014   3.303
 9465TIP3    H128352   7.713   6.056   3.294
 9465TIP3    H228353   7.814   6.011   3.398
 9466TIP3   OH228354   0.062   0.993   6.249
 9466TIP3    H128355   0.074   0.944   6.330
 9466TIP3    H228356   0.055   1.084   6.277
 9467TIP3   OH228357   4.405   6.819   4.641
 9467TIP3    H128358   4.324   6.838   4.689
 9467TIP3    H228359   4.474   6.852   4.697
 9468TIP3   OH228360   2.761   4.947   0.984
 9468TIP3    H128361   2.846   4.991   0.986
 9468TIP3    H228362   2.765   4.883   1.054
 9469TIP3   OH228363   2.601   5.706   3.618
 9469TIP3    H128364   2.605   5.757   3.699
 9469TIP3    H228365   2.510   5.679   3.611
 9470TIP3   OH228366   8.159   4.996   0.674
 9470TIP3    H128367   8.241   4.976   0.628
 9470TIP3    H228368   8.173   5.084   0.710
 9471TIP3   OH228369   0.074   7.559   3.984
 9471TIP3    H128370   0.149   7.501   3.975
 9471TIP3    H228371   0.055   7.560   4.078
 9472TIP3   OH228372   3.800   0.346   0.191
 9472TIP3    H128373   3.749   0.426   0.205
 9472TIP3    H228374   3.747   0.294   0.131
 9473TIP3   OH228375   5.961   6.951   4.762
 9473TIP3    H128376   6.001   6.936   4.676
 9473TIP3    H228377   5.917   7.036   4.753
 9474TIP3   OH228378   7.936   5.782   1.028
 9474TIP3    H128379   8.028   5.775   1.002
 9474TIP3    H228380   7.899   5.695   1.013
 9475TIP3   OH228381   7.552   0.792   0.276
 9475TIP3    H128382   7.501   0.744   0.341
 9475TIP3    H228383   7.566   0.729   0.206
 9476TIP3   OH228384   5.633   3.812   5.103
 9476TIP3    H128385   5.679   3.824   5.020
 9476TIP3    H228386   5.579   3.734   5.089
 9477TIP3   OH228387   6.829   1.743   1.565
 9477TIP3    H128388   6.895   1.685   1.525
 9477TIP3    H228389   6.808   1.701   1.648
 9478TIP3   OH228390   7.362   1.739   4.039
 9478TIP3    H128391   7.294   1.718   3.974
 9478TIP3    H228392   7.414   1.808   3.999
 9479TIP3   OH228393   8.214   1.749   4.920
 9479TIP3    H128394   8.190   1.661   4.893
 9479TIP3    H228395   8.261   1.785   4.844
 9480TIP3   OH228396   8.198   3.926   5.474
 9480TIP3    H128397   8.267   3.915   5.539
 9480TIP3    H228398   8.123   3.958   5.524
 9481TIP3   OH228399   5.612   6.878   1.454
 9481TIP3    H128400   5.643   6.952   1.507
 9481TIP3    H228401   5.517   6.893   1.446
 9482TIP3   OH228402   1.170   0.773   1.591
 9482TIP3    H128403   1.226   0.696   1.586
 9482TIP3    H228404   1.125   0.776   1.506
 9483TIP3   OH228405   2.341   7.441   2.888
 9483TIP3    H128406   2.428   7.421   2.922
 9483TIP3    H228407   2.283   7.432   2.963
 9484TIP3   OH228408   1.591   6.210   5.783
 9484TIP3    H128409   1.527   6.140   5.794
 9484TIP3    H228410   1.664   6.186   5.840
 9485TIP3   OH228411   3.354   6.078   5.192
 9485TIP3    H128412   3.440   6.119   5.198
 9485TIP3    H228413   3.293   6.144   5.225
 9486TIP3   OH228414   0.884   4.809   1.993
 9486TIP3    H128415   0.839   4.739   2.040
 9486TIP3    H228416   0.853   4.890   2.034
 9487TIP3   OH228417   4.942   4.165   1.310
 9487TIP3    H128418   4.885   4.209   1.247
 9487TIP3    H228419   4.983   4.236   1.359
 9488TIP3   OH228420   7.707   5.250   6.658
 9488TIP3    H128421   7.714   5.342   6.681
 9488TIP3    H228422   7.700   5.204   6.742
 9489TIP3   OH228423   0.424   2.391   5.822
 9489TIP3    H128424   0.482   2.466   5.835
 9489TIP3    H228425   0.363   2.419   5.754
 9490TIP3   OH228426   3.293   4.404   0.051
 9490TIP3    H128427   3.211   4.354   0.054
 9490TIP3    H228428   3.266   4.494   0.035
 9491TIP3   OH228429   2.985   7.506   0.462
 9491TIP3    H128430   2.938   7.571   0.410
 9491TIP3    H228431   3.051   7.558   0.509
 9492TIP3   OH228432   2.263   0.343   0.518
 9492TIP3    H128433   2.357   0.358   0.531
 9492TIP3    H228434   2.221   0.401   0.581
 9493TIP3   OH228435   5.561   0.242   0.349
 9493TIP3    H128436   5.617   0.278   0.280
 9493TIP3    H228437   5.620   0.231   0.425
 9494TIP3   OH228438   4.409   5.091   5.703
 9494TIP3    H128439   4.476   5.147   5.743
 9494TIP3    H228440   4.453   5.006   5.692
 9495TIP3   OH228441   1.792   1.378   1.324
 9495TIP3    H128442   1.851   1.454   1.321
 9495TIP3    H228443   1.766   1.371   1.415
 9496TIP3   OH228444   6.249   0.706   5.756
 9496TIP3    H128445   6.227   0.799   5.761
 9496TIP3    H228446   6.272   0.692   5.664
 9497TIP3   OH228447   5.245   7.218   2.448
 9497TIP3    H128448   5.334   7.185   2.460
 9497TIP3    H228449   5.190   7.158   2.498
 9498TIP3   OH228450   2.724   4.365   3.191
 9498TIP3    H128451   2.697   4.455   3.206
 9498TIP3    H228452   2.796   4.371   3.127
 9499TIP3   OH228453   4.416   6.653   0.999
 9499TIP3    H128454   4.352   6.619   0.937
 9499TIP3    H228455   4.498   6.655   0.951
 9500TIP3   OH228456   5.004   7.302   0.814
 9500TIP3    H128457   5.098   7.281   0.810
 9500TIP3    H228458   4.982   7.294   0.907
 9501TIP3   OH228459   2.336   1.695   6.761
 9501TIP3    H128460   2.294   1.749   6.694
 9501TIP3    H228461   2.366   1.758   6.827
 9502TIP3   OH228462   7.181   3.723   4.579
 9502TIP3    H128463   7.240   3.798   4.569
 9502TIP3    H228464   7.231   3.660   4.631
 9503TIP3   OH228465   8.012   5.277   6.233
 9503TIP3    H128466   7.979   5.329   6.159
 9503TIP3    H228467   7.951   5.294   6.304
 9504TIP3   OH228468   2.166   2.428   1.814
 9504TIP3    H128469   2.196   2.368   1.883
 9504TIP3    H228470   2.095   2.380   1.770
 9505TIP3   OH228471   2.106   3.601   6.381
 9505TIP3    H128472   2.175   3.581   6.318
 9505TIP3    H228473   2.070   3.685   6.351
 9506TIP3   OH228474   1.250   3.593   3.143
 9506TIP3    H128475   1.307   3.670   3.153
 9506TIP3    H228476   1.183   3.621   3.081
 9507TIP3   OH228477   6.577   1.529   0.700
 9507TIP3    H128478   6.625   1.490   0.773
 9507TIP3    H228479   6.641   1.538   0.630
 9508TIP3   OH228480   0.373   7.356   5.064
 9508TIP3    H128481   0.302   7.364   5.000
 9508TIP3    H228482   0.331   7.319   5.141
 9509TIP3   OH228483   3.177   2.725   4.179
 9509TIP3    H128484   3.237   2.741   4.107
 9509TIP3    H228485   3.225   2.753   4.257
 9510TIP3   OH228486   5.354   0.100   5.847
 9510TIP3    H128487   5.312   0.185   5.836
 9510TIP3    H228488   5.446   0.115   5.826
 9511TIP3   OH228489   3.838   6.679   1.442
 9511TIP3    H128490   3.753   6.637   1.427
 9511TIP3    H228491   3.880   6.623   1.508
 9512TIP3   OH228492   3.341   1.310   0.085
 9512TIP3    H128493   3.254   1.341   0.060
 9512TIP3    H228494   3.391   1.390   0.101
 9513TIP3   OH228495   6.109   7.064   6.581
 9513TIP3    H128496   6.153   7.087   6.499
 9513TIP3    H228497   6.101   7.147   6.628
 9514TIP3   OH228498   2.761   7.107   1.065
 9514TIP3    H128499   2.818   7.181   1.042
 9514TIP3    H228500   2.800   7.072   1.145
 9515TIP3   OH228501   2.193   0.720   3.711
 9515TIP3    H128502   2.154   0.633   3.718
 9515TIP3    H228503   2.129   0.779   3.750
 9516TIP3   OH228504   6.737   6.045   2.810
 9516TIP3    H128505   6.814   6.097   2.834
 9516TIP3    H228506   6.718   6.070   2.720
 9517TIP3   OH228507   1.045   4.834   5.979
 9517TIP3    H128508   1.009   4.748   5.956
 9517TIP3    H228509   0.977   4.875   6.033
 9518TIP3   OH228510   7.290   4.352   1.482
 9518TIP3    H128511   7.364   4.328   1.426
 9518TIP3    H228512   7.239   4.272   1.490
 9519TIP3   OH228513   1.366   7.131   6.513
 9519TIP3    H128514   1.417   7.212   6.508
 9519TIP3    H228515   1.281   7.159   6.547
 9520TIP3   OH228516   1.326   5.958   0.274
 9520TIP3    H128517   1.375   5.894   0.326
 9520TIP3    H228518   1.321   6.035   0.330
 9521TIP3   OH228519   1.976   4.399   0.453
 9521TIP3    H128520   2.047   4.361   0.505
 9521TIP3    H228521   1.921   4.444   0.517
 9522TIP3   OH228522   4.632   7.720   1.599
 9522TIP3    H128523   4.552   7.756   1.561
 9522TIP3    H228524   4.671   7.793   1.647
 9523TIP3   OH228525   0.983   2.984   1.056
 9523TIP3    H128526   0.894   2.990   1.091
 9523TIP3    H228527   1.032   2.939   1.124
 9524TIP3   OH228528   6.842   0.204   5.874
 9524TIP3    H128529   6.785   0.271   5.912
 9524TIP3    H228530   6.785   0.130   5.857
 9525TIP3   OH228531   5.837   7.107   6.244
 9525TIP3    H128532   5.779   7.070   6.177
 9525TIP3    H228533   5.899   7.036   6.264
 9526TIP3   OH228534   4.004   4.594   6.162
 9526TIP3    H128535   3.961   4.659   6.106
 9526TIP3    H228536   4.055   4.541   6.101
 9527TIP3   OH228537   0.570   2.341   6.659
 9527TIP3    H128538   0.534   2.355   6.572
 9527TIP3    H228539   0.570   2.428   6.699
 9528TIP3   OH228540   0.406   3.093   5.743
 9528TIP3    H128541   0.401   3.088   5.838
 9528TIP3    H228542   0.328   3.142   5.718
 9529TIP3   OH228543   2.859   3.462   5.638
 9529TIP3    H128544   2.824   3.459   5.549
 9529TIP3    H228545   2.834   3.548   5.671
 9530TIP3   OH228546   5.025   1.843   3.152
 9530TIP3    H128547   5.108   1.798   3.135
 9530TIP3    H228548   4.963   1.773   3.172
 9531TIP3   OH228549   6.388   3.943   3.701
 9531TIP3    H128550   6.394   3.892   3.619
 9531TIP3    H228551   6.344   4.024   3.675
 9532TIP3   OH228552   5.560   2.172   2.316
 9532TIP3    H128553   5.510   2.246   2.284
 9532TIP3    H228554   5.533   2.099   2.260
 9533TIP3   OH228555   3.560   4.710   0.681
 9533TIP3    H128556   3.623   4.712   0.753
 9533TIP3    H228557   3.475   4.705   0.725
 9534TIP3   OH228558   5.410   3.893   6.171
 9534TIP3    H128559   5.399   3.988   6.170
 9534TIP3    H228560   5.452   3.874   6.255
 9535TIP3   OH228561   2.184   5.528   5.404
 9535TIP3    H128562   2.158   5.620   5.406
 9535TIP3    H228563   2.165   5.499   5.315
 9536TIP3   OH228564   2.334   1.677   0.153
 9536TIP3    H128565   2.411   1.623   0.139
 9536TIP3    H228566   2.365   1.767   0.143
 9537TIP3   OH228567   6.075   7.041   4.125
 9537TIP3    H128568   6.046   7.130   4.141
 9537TIP3    H228569   5.995   6.990   4.117
 9538TIP3   OH228570   5.705   4.529   1.279
 9538TIP3    H128571   5.763   4.548   1.206
 9538TIP3    H228572   5.688   4.615   1.318
 9539TIP3   OH228573   6.317   5.806   3.470
 9539TIP3    H128574   6.350   5.731   3.520
 9539TIP3    H228575   6.382   5.818   3.400
 9540TIP3   OH228576   3.757   1.724   1.902
 9540TIP3    H128577   3.665   1.703   1.886
 9540TIP3    H228578   3.802   1.693   1.824
 9541TIP3   OH228579   7.339   5.752   0.758
 9541TIP3    H128580   7.273   5.683   0.761
 9541TIP3    H228581   7.417   5.709   0.723
 9542TIP3   OH228582   0.128   0.589   4.747
 9542TIP3    H128583   0.091   0.557   4.829
 9542TIP3    H228584   0.211   0.629   4.772
 9543TIP3   OH228585   1.744   5.296   6.171
 9543TIP3    H128586   1.757   5.370   6.111
 9543TIP3    H228587   1.678   5.242   6.129
 9544TIP3   OH228588   7.961   1.070   1.767
 9544TIP3    H128589   7.993   1.109   1.848
 9544TIP3    H228590   7.931   1.145   1.715
 9545TIP3   OH228591   0.424   4.110   5.000
 9545TIP3    H128592   0.363   4.179   5.027
 9545TIP3    H228593   0.431   4.053   5.077
 9546TIP3   OH228594   3.833   4.841   0.181
 9546TIP3    H128595   3.874   4.792   0.110
 9546TIP3    H228596   3.838   4.783   0.257
 9547TIP3   OH228597   4.143   6.769  -0.039
 9547TIP3    H128598   4.060   6.801  -0.076
 9547TIP3    H228599   4.165   6.834   0.029
 9548TIP3   OH228600   4.917   1.886   5.680
 9548TIP3    H128601   4.897   1.871   5.772
 9548TIP3    H228602   4.856   1.829   5.633
 9549TIP3   OH228603   0.424   5.494   3.461
 9549TIP3    H128604   0.501   5.505   3.517
 9549TIP3    H228605   0.354   5.467   3.521
 9550TIP3   OH228606   8.299   4.177   6.139
 9550TIP3    H128607   8.214   4.133   6.136
 9550TIP3    H228608   8.363   4.106   6.125
 9551TIP3   OH228609   2.982   7.084   1.528
 9551TIP3    H128610   2.978   7.041   1.613
 9551TIP3    H228611   3.075   7.102   1.514
 9552TIP3   OH228612   6.063   3.078   5.940
 9552TIP3    H128613   6.137   3.047   5.888
 9552TIP3    H228614   6.005   3.119   5.877
 9553TIP3   OH228615   0.897   4.924   6.726
 9553TIP3    H128616   0.835   4.857   6.699
 9553TIP3    H228617   0.846   4.984   6.780
 9554TIP3   OH228618   1.075   5.610   4.758
 9554TIP3    H128619   1.060   5.521   4.786
 9554TIP3    H228620   1.028   5.617   4.675
 9555TIP3   OH228621   2.158   4.242   2.608
 9555TIP3    H128622   2.127   4.283   2.689
 9555TIP3    H228623   2.079   4.234   2.554
 9556TIP3   OH228624   5.688   2.775   4.132
 9556TIP3    H128625   5.751   2.812   4.193
 9556TIP3    H228626   5.731   2.779   4.047
 9557TIP3   OH228627   1.084   5.111   6.051
 9557TIP3    H128628   1.111   5.030   6.007
 9557TIP3    H228629   1.108   5.181   5.990
 9558TIP3   OH228630   3.219   7.590   6.609
 9558TIP3    H128631   3.306   7.628   6.622
 9558TIP3    H228632   3.201   7.602   6.516
 9559TIP3   OH228633   2.633   4.568   1.702
 9559TIP3    H128634   2.636   4.472   1.697
 9559TIP3    H228635   2.620   4.586   1.795
 9560TIP3   OH228636   1.540   0.081   2.473
 9560TIP3    H128637   1.560   0.016   2.541
 9560TIP3    H228638   1.584   0.161   2.503
 9561TIP3   OH228639   7.525   4.267   1.313
 9561TIP3    H128640   7.615   4.290   1.290
 9561TIP3    H228641   7.479   4.263   1.230
 9562TIP3   OH228642   0.703   0.966   6.185
 9562TIP3    H128643   0.674   1.038   6.240
 9562TIP3    H228644   0.645   0.893   6.208
 9563TIP3   OH228645   4.340   6.123   1.466
 9563TIP3    H128646   4.297   6.088   1.389
 9563TIP3    H228647   4.303   6.074   1.539
 9564TIP3   OH228648   6.096   0.999   1.411
 9564TIP3    H128649   6.108   0.909   1.440
 9564TIP3    H228650   6.003   1.004   1.388
 9565TIP3   OH228651   3.651   5.960   3.270
 9565TIP3    H128652   3.711   6.021   3.313
 9565TIP3    H228653   3.564   5.995   3.290
 9566TIP3   OH228654   3.638   4.593   2.275
 9566TIP3    H128655   3.599   4.512   2.243
 9566TIP3    H228656   3.604   4.603   2.364
 9567TIP3   OH228657   0.347   0.263   3.509
 9567TIP3    H128658   0.335   0.257   3.604
 9567TIP3    H228659   0.285   0.200   3.473
 9568TIP3   OH228660   0.851   1.463   3.809
 9568TIP3    H128661   0.917   1.412   3.856
 9568TIP3    H228662   0.901   1.519   3.750
 9569TIP3   OH228663   0.586   2.178   5.773
 9569TIP3    H128664   0.545   2.251   5.818
 9569TIP3    H228665   0.514   2.134   5.727
 9570TIP3   OH228666   5.214   6.141   2.076
 9570TIP3    H128667   5.135   6.163   2.027
 9570TIP3    H228668   5.222   6.046   2.067
 9571TIP3   OH228669   2.643   3.764   5.372
 9571TIP3    H128670   2.733   3.781   5.346
 9571TIP3    H228671   2.590   3.825   5.321
 9572TIP3   OH228672   2.261   3.856   2.454
 9572TIP3    H128673   2.253   3.931   2.395
 9572TIP3    H228674   2.355   3.840   2.459
 9573TIP3   OH228675   3.419   7.192   6.761
 9573TIP3    H128676   3.448   7.118   6.707
 9573TIP3    H228677   3.324   7.192   6.753
 9574TIP3   OH228678   5.680   2.312   0.821
 9574TIP3    H128679   5.642   2.293   0.736
 9574TIP3    H228680   5.767   2.271   0.819
 9575TIP3   OH228681   5.130   1.756   1.496
 9575TIP3    H128682   5.134   1.661   1.506
 9575TIP3    H228683   5.037   1.777   1.507
 9576TIP3   OH228684   0.284   2.270   6.053
 9576TIP3    H128685   0.231   2.190   6.051
 9576TIP3    H228686   0.287   2.299   5.962
 9577TIP3   OH228687   6.466   2.231   1.748
 9577TIP3    H128688   6.428   2.179   1.820
 9577TIP3    H228689   6.548   2.264   1.784
 9578TIP3   OH228690   3.034   6.151   4.769
 9578TIP3    H128691   3.082   6.113   4.843
 9578TIP3    H228692   2.977   6.080   4.740
 9579TIP3   OH228693   5.830   3.311   0.291
 9579TIP3    H128694   5.824   3.215   0.286
 9579TIP3    H228695   5.780   3.333   0.370
 9580TIP3   OH228696   3.861   5.657   2.103
 9580TIP3    H128697   3.849   5.607   2.184
 9580TIP3    H228698   3.824   5.743   2.122
 9581TIP3   OH228699   2.671   5.387   3.327
 9581TIP3    H128700   2.601   5.452   3.329
 9581TIP3    H228701   2.655   5.337   3.247
 9582TIP3   OH228702   3.326   5.241   2.024
 9582TIP3    H128703   3.362   5.307   1.965
 9582TIP3    H228704   3.352   5.271   2.111
 9583TIP3   OH228705   2.869   3.100   2.374
 9583TIP3    H128706   2.911   3.185   2.387
 9583TIP3    H228707   2.916   3.060   2.301
 9584TIP3   OH228708   7.340   4.740   0.088
 9584TIP3    H128709   7.361   4.764  -0.002
 9584TIP3    H228710   7.253   4.700   0.083
 9585TIP3   OH228711   2.915   7.390   1.457
 9585TIP3    H128712   2.980   7.321   1.471
 9585TIP3    H228713   2.831   7.347   1.472
 9586TIP3   OH228714   6.287   7.143   2.395
 9586TIP3    H128715   6.275   7.234   2.368
 9586TIP3    H228716   6.348   7.148   2.469
 9587TIP3   OH228717   0.558   6.760   2.507
 9587TIP3    H128718   0.501   6.803   2.443
 9587TIP3    H228719   0.612   6.830   2.543
 9588TIP3   OH228720   6.373   6.382   1.708
 9588TIP3    H128721   6.302   6.385   1.772
 9588TIP3    H228722   6.426   6.307   1.735
 9589TIP3   OH228723   2.080   1.567   1.857
 9589TIP3    H128724   2.078   1.566   1.761
 9589TIP3    H228725   2.008   1.509   1.883
 9590TIP3   OH228726   4.230   4.902   4.501
 9590TIP3    H128727   4.297   4.969   4.485
 9590TIP3    H228728   4.148   4.950   4.502
 9591TIP3   OH228729   4.871   6.490   1.598
 9591TIP3    H128730   4.813   6.433   1.547
 9591TIP3    H228731   4.841   6.481   1.688
 9592TIP3   OH228732   4.877   6.441   4.442
 9592TIP3    H128733   4.952   6.502   4.440
 9592TIP3    H228734   4.837   6.449   4.356
 9593TIP3   OH228735   7.456   6.063   4.452
 9593TIP3    H128736   7.409   6.073   4.369
 9593TIP3    H228737   7.390   6.029   4.513
 9594TIP3   OH228738   2.632   2.262   3.845
 9594TIP3    H128739   2.661   2.171   3.848
 9594TIP3    H228740   2.613   2.279   3.753
 9595TIP3   OH228741   3.113   5.257   4.175
 9595TIP3    H128742   3.185   5.195   4.163
 9595TIP3    H228743   3.052   5.213   4.234
 9596TIP3   OH228744   3.892   0.718   4.432
 9596TIP3    H128745   3.923   0.632   4.406
 9596TIP3    H228746   3.890   0.769   4.351
 9597TIP3   OH228747   7.196   6.419   3.567
 9597TIP3    H128748   7.158   6.336   3.537
 9597TIP3    H228749   7.290   6.406   3.558
 9598TIP3   OH228750   2.668   6.226   6.529
 9598TIP3    H128751   2.666   6.134   6.554
 9598TIP3    H228752   2.663   6.225   6.433
 9599TIP3   OH228753   4.301   4.321   5.231
 9599TIP3    H128754   4.220   4.369   5.250
 9599TIP3    H228755   4.356   4.384   5.184
 9600TIP3   OH228756   1.122   5.964   4.097
 9600TIP3    H128757   1.202   5.948   4.149
 9600TIP3    H228758   1.125   6.057   4.076
 9601TIP3   OH228759   3.658   4.084   4.115
 9601TIP3    H128760   3.746   4.078   4.078
 9601TIP3    H228761   3.610   4.138   4.053
 9602TIP3   OH228762   2.675   2.359   0.856
 9602TIP3    H128763   2.755   2.404   0.829
 9602TIP3    H228764   2.663   2.289   0.791
 9603TIP3   OH228765   0.351   4.900   3.656
 9603TIP3    H128766   0.445   4.908   3.668
 9603TIP3    H228767   0.332   4.807   3.672
 9604TIP3   OH228768   5.901   3.415   4.291
 9604TIP3    H128769   5.811   3.425   4.321
 9604TIP3    H228770   5.945   3.366   4.361
 9605TIP3   OH228771   3.006   7.045   3.208
 9605TIP3    H128772   3.014   7.127   3.158
 9605TIP3    H228773   2.980   6.980   3.142
 9606TIP3   OH228774   1.557   0.194   6.423
 9606TIP3    H128775   1.512   0.231   6.347
 9606TIP3    H228776   1.650   0.199   6.400
 9607TIP3   OH228777   8.238   3.557   3.597
 9607TIP3    H128778   8.332   3.570   3.584
 9607TIP3    H228779   8.218   3.479   3.545
 9608TIP3   OH228780   6.811   1.247   5.811
 9608TIP3    H128781   6.775   1.335   5.797
 9608TIP3    H228782   6.824   1.242   5.906
 9609TIP3   OH228783   6.281   5.483   4.218
 9609TIP3    H128784   6.202   5.498   4.165
 9609TIP3    H228785   6.273   5.544   4.291
 9610TIP3   OH228786   1.094   1.684   1.924
 9610TIP3    H128787   1.126   1.594   1.918
 9610TIP3    H228788   1.082   1.711   1.833
 9611TIP3   OH228789   0.500   1.989   0.296
 9611TIP3    H128790   0.587   2.024   0.316
 9611TIP3    H228791   0.442   2.032   0.358
 9612TIP3   OH228792   6.254   0.416   2.134
 9612TIP3    H128793   6.194   0.371   2.192
 9612TIP3    H228794   6.275   0.352   2.065
 9613TIP3   OH228795   0.496   6.206   0.155
 9613TIP3    H128796   0.438   6.141   0.194
 9613TIP3    H228797   0.584   6.170   0.167
 9614TIP3   OH228798   3.974   2.838   0.273
 9614TIP3    H128799   3.951   2.799   0.189
 9614TIP3    H228800   4.062   2.805   0.292
 9615TIP3   OH228801   3.778   1.097   0.829
 9615TIP3    H128802   3.697   1.045   0.830
 9615TIP3    H228803   3.846   1.034   0.852
 9616TIP3   OH228804   8.028   3.652   3.285
 9616TIP3    H128805   7.972   3.728   3.271
 9616TIP3    H228806   8.052   3.624   3.197
 9617TIP3   OH228807   7.412   6.536   3.293
 9617TIP3    H128808   7.334   6.577   3.332
 9617TIP3    H228809   7.426   6.457   3.345
 9618TIP3   OH228810   0.915   5.352   0.429
 9618TIP3    H128811   0.949   5.314   0.348
 9618TIP3    H228812   0.821   5.365   0.412
 9619TIP3   OH228813   6.592   0.941   4.245
 9619TIP3    H128814   6.554   1.022   4.213
 9619TIP3    H228815   6.529   0.873   4.221
 9620TIP3   OH228816   0.732   4.633   5.468
 9620TIP3    H128817   0.763   4.678   5.547
 9620TIP3    H228818   0.637   4.629   5.478
 9621TIP3   OH228819   7.604   0.576   0.087
 9621TIP3    H128820   7.575   0.485   0.087
 9621TIP3    H228821   7.533   0.624   0.046
 9622TIP3   OH228822   1.559   1.386   2.543
 9622TIP3    H128823   1.521   1.403   2.629
 9622TIP3    H228824   1.545   1.467   2.494
 9623TIP3   OH228825   2.960   7.372   4.340
 9623TIP3    H128826   2.952   7.426   4.261
 9623TIP3    H228827   3.042   7.400   4.379
 9624TIP3   OH228828   3.431   0.317   2.280
 9624TIP3    H128829   3.519   0.302   2.317
 9624TIP3    H228830   3.386   0.233   2.291
 9625TIP3   OH228831   3.134   2.649   1.428
 9625TIP3    H128832   3.170   2.565   1.457
 9625TIP3    H228833   3.202   2.712   1.450
 9626TIP3   OH228834   3.395   1.932   5.294
 9626TIP3    H128835   3.489   1.916   5.279
 9626TIP3    H228836   3.385   1.927   5.389
 9627TIP3   OH228837   2.042   3.715   3.533
 9627TIP3    H128838   2.044   3.799   3.580
 9627TIP3    H228839   2.024   3.650   3.601
 9628TIP3   OH228840   6.228   5.708   0.499
 9628TIP3    H128841   6.282   5.728   0.576
 9628TIP3    H228842   6.291   5.691   0.429
 9629TIP3   OH228843   6.351   2.316   0.701
 9629TIP3    H128844   6.404   2.302   0.779
 9629TIP3    H228845   6.403   2.280   0.630
 9630TIP3   OH228846   6.698   1.238   3.978
 9630TIP3    H128847   6.658   1.185   4.047
 9630TIP3    H228848   6.628   1.295   3.947
 9631TIP3   OH228849   4.181   0.437   1.255
 9631TIP3    H128850   4.090   0.414   1.270
 9631TIP3    H228851   4.227   0.408   1.334
 9632TIP3   OH228852   1.415   2.479   3.333
 9632TIP3    H128853   1.437   2.496   3.425
 9632TIP3    H228854   1.331   2.434   3.337
 9633TIP3   OH228855   1.449   6.047   6.164
 9633TIP3    H128856   1.361   6.080   6.150
 9633TIP3    H228857   1.503   6.126   6.170
 9634TIP3   OH228858   1.933   1.346   2.960
 9634TIP3    H128859   1.878   1.338   2.882
 9634TIP3    H228860   1.870   1.346   3.033
 9635TIP3   OH228861   4.974   0.275   0.289
 9635TIP3    H128862   4.894   0.303   0.333
 9635TIP3    H228863   4.976   0.180   0.303
 9636TIP3   OH228864   4.504   5.520   2.393
 9636TIP3    H128865   4.558   5.556   2.463
 9636TIP3    H228866   4.477   5.596   2.342
 9637TIP3   OH228867   2.776   3.069   5.749
 9637TIP3    H128868   2.708   3.006   5.725
 9637TIP3    H228869   2.858   3.024   5.729
 9638TIP3   OH228870   2.831   6.694   2.822
 9638TIP3    H128871   2.791   6.609   2.842
 9638TIP3    H228872   2.850   6.690   2.729
 9639TIP3   OH228873   8.093   3.904   2.011
 9639TIP3    H128874   8.036   3.981   2.012
 9639TIP3    H228875   8.138   3.906   2.096
 9640TIP3   OH228876   4.490   2.970   6.742
 9640TIP3    H128877   4.416   2.912   6.723
 9640TIP3    H228878   4.483   3.040   6.676
 9641TIP3   OH228879   6.916   3.628   2.163
 9641TIP3    H128880   6.831   3.615   2.119
 9641TIP3    H228881   6.943   3.716   2.137
 9642TIP3   OH228882   5.451   3.731   1.248
 9642TIP3    H128883   5.413   3.688   1.324
 9642TIP3    H228884   5.545   3.715   1.257
 9643TIP3   OH228885   2.252   6.422   4.945
 9643TIP3    H128886   2.328   6.474   4.970
 9643TIP3    H228887   2.273   6.388   4.859
 9644TIP3   OH228888   2.358   7.340   0.429
 9644TIP3    H128889   2.345   7.279   0.502
 9644TIP3    H228890   2.450   7.367   0.438
 9645TIP3   OH228891   7.420   2.921   1.832
 9645TIP3    H128892   7.350   2.969   1.876
 9645TIP3    H228893   7.445   2.853   1.895
 9646TIP3   OH228894   3.892   0.019   0.540
 9646TIP3    H128895   3.962   0.025   0.605
 9646TIP3    H228896   3.859   0.109   0.531
 9647TIP3   OH228897   3.351   0.129   4.057
 9647TIP3    H128898   3.288   0.121   3.985
 9647TIP3    H228899   3.315   0.073   4.126
 9648TIP3   OH228900   7.447   5.557   2.235
 9648TIP3    H128901   7.433   5.464   2.252
 9648TIP3    H228902   7.359   5.594   2.231
 9649TIP3   OH228903   1.375   2.695   6.020
 9649TIP3    H128904   1.449   2.753   6.038
 9649TIP3    H228905   1.311   2.752   5.976
 9650TIP3   OH228906   5.473   0.707   0.378
 9650TIP3    H128907   5.438   0.794   0.399
 9650TIP3    H228908   5.490   0.710   0.284
 9651TIP3   OH228909   6.993   0.538   2.521
 9651TIP3    H128910   6.931   0.521   2.451
 9651TIP3    H228911   7.054   0.603   2.485
 9652TIP3   OH228912   4.576   7.719   4.620
 9652TIP3    H128913   4.601   7.664   4.547
 9652TIP3    H228914   4.654   7.770   4.641
 9653TIP3   OH228915   6.853   5.544   3.239
 9653TIP3    H128916   6.925   5.607   3.230
 9653TIP3    H228917   6.847   5.501   3.154
 9654TIP3   OH228918   2.959   3.658   4.701
 9654TIP3    H128919   2.876   3.705   4.700
 9654TIP3    H228920   2.997   3.673   4.614
 9655TIP3   OH228921   7.558   0.993   3.227
 9655TIP3    H128922   7.520   1.069   3.273
 9655TIP3    H228923   7.485   0.931   3.220
 9656TIP3   OH228924   5.627   4.583   4.589
 9656TIP3    H128925   5.581   4.590   4.506
 9656TIP3    H228926   5.570   4.629   4.651
 9657TIP3   OH228927   5.123   5.646   3.577
 9657TIP3    H128928   5.089   5.707   3.512
 9657TIP3    H228929   5.080   5.562   3.557
 9658TIP3   OH228930   0.911   2.676   4.731
 9658TIP3    H128931   0.998   2.715   4.730
 9658TIP3    H228932   0.926   2.582   4.722
 9659TIP3   OH228933   2.491   0.113   5.682
 9659TIP3    H128934   2.557   0.047   5.704
 9659TIP3    H228935   2.449   0.134   5.766
 9660TIP3   OH228936   7.562   3.724   3.739
 9660TIP3    H128937   7.613   3.750   3.817
 9660TIP3    H228938   7.569   3.629   3.736
 9661TIP3   OH228939   1.109   0.126   6.176
 9661TIP3    H128940   1.020   0.147   6.206
 9661TIP3    H228941   1.153   0.091   6.254
 9662TIP3   OH228942   5.434   0.511   1.108
 9662TIP3    H128943   5.352   0.471   1.136
 9662TIP3    H228944   5.486   0.439   1.072
 9663TIP3   OH228945   7.359   4.247   4.448
 9663TIP3    H128946   7.321   4.167   4.413
 9663TIP3    H228947   7.397   4.291   4.371
 9664TIP3   OH228948   0.321   1.275   5.578
 9664TIP3    H128949   0.403   1.257   5.533
 9664TIP3    H228950   0.329   1.365   5.609
 9665TIP3   OH228951   3.660   6.789   6.466
 9665TIP3    H128952   3.711   6.846   6.407
 9665TIP3    H228953   3.600   6.743   6.407
 9666TIP3   OH228954   3.457   3.911   6.577
 9666TIP3    H128955   3.514   3.890   6.651
 9666TIP3    H228956   3.380   3.856   6.590
 9667TIP3   OH228957   3.272   2.740   4.453
 9667TIP3    H128958   3.314   2.709   4.533
 9667TIP3    H228959   3.178   2.738   4.472
 9668TIP3   OH228960   7.029   2.861   5.558
 9668TIP3    H128961   7.024   2.890   5.467
 9668TIP3    H228962   7.032   2.765   5.551
 9669TIP3   OH228963   0.537   5.669   3.996
 9669TIP3    H128964   0.489   5.692   3.916
 9669TIP3    H228965   0.471   5.665   4.064
 9670TIP3   OH228966   6.145   7.443   5.833
 9670TIP3    H128967   6.094   7.496   5.771
 9670TIP3    H228968   6.140   7.491   5.916
 9671TIP3   OH228969   7.677   0.572   5.222
 9671TIP3    H128970   7.745   0.585   5.156
 9671TIP3    H228971   7.666   0.477   5.228
 9672TIP3   OH228972   5.036   5.063   0.363
 9672TIP3    H128973   4.963   5.113   0.327
 9672TIP3    H228974   4.997   4.982   0.395
 9673TIP3   OH228975   3.416   1.956   4.659
 9673TIP3    H128976   3.486   1.907   4.615
 9673TIP3    H228977   3.462   2.018   4.715
 9674TIP3   OH228978   0.528   0.314   5.109
 9674TIP3    H128979   0.463   0.252   5.075
 9674TIP3    H228980   0.606   0.261   5.122
 9675TIP3   OH228981   6.354   2.048   4.390
 9675TIP3    H128982   6.314   2.134   4.375
 9675TIP3    H228983   6.288   2.000   4.441
 9676TIP3   OH228984   0.235   5.700   3.067
 9676TIP3    H128985   0.322   5.719   3.032
 9676TIP3    H228986   0.202   5.630   3.011
 9677TIP3   OH228987   7.372   6.779   2.016
 9677TIP3    H128988   7.429   6.854   2.034
 9677TIP3    H228989   7.432   6.711   1.984
 9678TIP3   OH228990   6.782   4.416   2.944
 9678TIP3    H128991   6.723   4.489   2.927
 9678TIP3    H228992   6.844   4.418   2.871
 9679TIP3   OH228993   6.542   5.045   5.905
 9679TIP3    H128994   6.598   4.984   5.953
 9679TIP3    H228995   6.569   5.132   5.935
 9680TIP3   OH228996   4.906   3.002   2.417
 9680TIP3    H128997   4.962   3.066   2.462
 9680TIP3    H228998   4.881   3.046   2.336
 9681TIP3   OH228999   5.034   3.092   6.044
 9681TIP3    H129000   5.092   3.037   5.991
 9681TIP3    H229001   5.054   3.181   6.018
 9682TIP3   OH229002   0.483   1.187   1.005
 9682TIP3    H129003   0.483   1.191   0.909
 9682TIP3    H229004   0.524   1.103   1.025
 9683TIP3   OH229005   5.184   6.008   5.560
 9683TIP3    H129006   5.220   5.925   5.590
 9683TIP3    H229007   5.098   6.013   5.600
 9684TIP3   OH229008   3.379   3.572   4.075
 9684TIP3    H129009   3.340   3.507   4.017
 9684TIP3    H229010   3.376   3.532   4.162
 9685TIP3   OH229011   0.270   3.192   5.472
 9685TIP3    H129012   0.199   3.211   5.410
 9685TIP3    H229013   0.229   3.137   5.539
 9686TIP3   OH229014   7.875   0.175   0.881
 9686TIP3    H129015   7.930   0.165   0.803
 9686TIP3    H229016   7.789   0.144   0.854
 9687TIP3   OH229017   3.979   1.565   3.119
 9687TIP3    H129018   3.979   1.659   3.101
 9687TIP3    H229019   3.887   1.540   3.113
 9688TIP3   OH229020   3.057   1.474   0.819
 9688TIP3    H129021   3.071   1.543   0.754
 9688TIP3    H229022   3.036   1.396   0.768
 9689TIP3   OH229023   5.481   7.772   1.801
 9689TIP3    H129024   5.547   7.702   1.802
 9689TIP3    H229025   5.469   7.794   1.893
 9690TIP3   OH229026   2.400   1.931   1.045
 9690TIP3    H129027   2.399   1.948   1.139
 9690TIP3    H229028   2.479   1.975   1.013
 9691TIP3   OH229029   6.683   5.255   0.601
 9691TIP3    H129030   6.748   5.309   0.647
 9691TIP3    H229031   6.692   5.169   0.642
 9692TIP3   OH229032   3.877   0.797   3.268
 9692TIP3    H129033   3.881   0.706   3.242
 9692TIP3    H229034   3.888   0.795   3.363
 9693TIP3   OH229035   6.220   1.803   2.001
 9693TIP3    H129036   6.250   1.715   1.979
 9693TIP3    H229037   6.137   1.790   2.047
 9694TIP3   OH229038   4.621   3.849   0.906
 9694TIP3    H129039   4.549   3.858   0.843
 9694TIP3    H229040   4.667   3.769   0.878
 9695TIP3   OH229041   2.452   2.888   2.344
 9695TIP3    H129042   2.366   2.926   2.327
 9695TIP3    H229043   2.494   2.949   2.403
 9696TIP3   OH229044   2.474   4.340   6.247
 9696TIP3    H129045   2.466   4.267   6.308
 9696TIP3    H229046   2.391   4.386   6.253
 9697TIP3   OH229047   0.866   0.250   2.671
 9697TIP3    H129048   0.932   0.290   2.614
 9697TIP3    H229049   0.792   0.310   2.667
 9698TIP3   OH229050   4.898   0.896   2.873
 9698TIP3    H129051   4.909   0.816   2.822
 9698TIP3    H229052   4.953   0.883   2.950
 9699TIP3   OH229053   1.539   2.172   4.915
 9699TIP3    H129054   1.520   2.262   4.888
 9699TIP3    H229055   1.533   2.174   5.010
 9700TIP3   OH229056   0.818   1.035   1.103
 9700TIP3    H129057   0.912   1.028   1.118
 9700TIP3    H229058   0.810   1.102   1.035
 9701TIP3   OH229059   3.645   1.992   1.606
 9701TIP3    H129060   3.676   1.927   1.543
 9701TIP3    H229061   3.723   2.017   1.656
 9702TIP3   OH229062   7.710   3.430   1.227
 9702TIP3    H129063   7.637   3.471   1.273
 9702TIP3    H229064   7.681   3.340   1.211
 9703TIP3   OH229065   3.264   4.575   2.382
 9703TIP3    H129066   3.303   4.651   2.426
 9703TIP3    H229067   3.223   4.612   2.304
 9704TIP3   OH229068   8.117   3.031   1.068
 9704TIP3    H129069   8.110   3.093   0.995
 9704TIP3    H229070   8.176   3.074   1.130
 9705TIP3   OH229071   7.828   0.198   5.222
 9705TIP3    H129072   7.924   0.207   5.220
 9705TIP3    H229073   7.808   0.164   5.309
 9706TIP3   OH229074   4.662   2.898   0.764
 9706TIP3    H129075   4.703   2.889   0.678
 9706TIP3    H229076   4.730   2.937   0.819
 9707TIP3   OH229077   0.059   2.782   0.239
 9707TIP3    H129078  -0.018   2.771   0.183
 9707TIP3    H229079   0.116   2.842   0.192
 9708TIP3   OH229080   0.295   6.969   0.789
 9708TIP3    H129081   0.271   7.009   0.872
 9708TIP3    H229082   0.227   6.904   0.773
 9709TIP3   OH229083   7.929   0.544   0.396
 9709TIP3    H129084   7.976   0.461   0.403
 9709TIP3    H229085   7.990   0.602   0.351
 9710TIP3   OH229086   2.085   5.634   0.396
 9710TIP3    H129087   2.164   5.632   0.448
 9710TIP3    H229088   2.034   5.559   0.426
 9711TIP3   OH229089   3.264   1.984   5.044
 9711TIP3    H129090   3.196   2.048   5.064
 9711TIP3    H229091   3.290   1.949   5.129
 9712TIP3   OH229092   4.738   6.008   2.923
 9712TIP3    H129093   4.734   5.930   2.868
 9712TIP3    H229094   4.646   6.033   2.935
 9713TIP3   OH229095   6.535   1.944   0.257
 9713TIP3    H129096   6.530   1.871   0.318
 9713TIP3    H229097   6.453   1.991   0.268
 9714TIP3   OH229098   4.267   2.754   0.284
 9714TIP3    H129099   4.360   2.759   0.262
 9714TIP3    H229100   4.252   2.663   0.306
 9715TIP3   OH229101   3.414   1.428   2.096
 9715TIP3    H129102   3.496   1.380   2.085
 9715TIP3    H229103   3.364   1.409   2.016
 9716TIP3   OH229104   2.308   2.566   2.683
 9716TIP3    H129105   2.350   2.481   2.678
 9716TIP3    H229106   2.247   2.558   2.756
 9717TIP3   OH229107   5.586   7.610   3.403
 9717TIP3    H129108   5.511   7.560   3.435
 9717TIP3    H229109   5.653   7.600   3.470
 9718TIP3   OH229110   1.984   7.407   5.008
 9718TIP3    H129111   2.003   7.500   5.023
 9718TIP3    H229112   1.891   7.398   5.028
 9719TIP3   OH229113   5.959   0.318   1.455
 9719TIP3    H129114   5.966   0.342   1.363
 9719TIP3    H229115   5.945   0.224   1.454
 9720TIP3   OH229116   3.847   5.422   1.141
 9720TIP3    H129117   3.942   5.411   1.135
 9720TIP3    H229118   3.833   5.462   1.227
 9721TIP3   OH229119   6.724   5.151   1.993
 9721TIP3    H129120   6.716   5.099   1.913
 9721TIP3    H229121   6.803   5.203   1.981
 9722TIP3   OH229122   2.413   1.659   1.069
 9722TIP3    H129123   2.417   1.748   1.032
 9722TIP3    H229124   2.362   1.609   1.005
 9723TIP3   OH229125   2.419   0.135   3.927
 9723TIP3    H129126   2.450   0.221   3.957
 9723TIP3    H229127   2.486   0.074   3.957
 9724TIP3   OH229128   0.656   3.822   6.255
 9724TIP3    H129129   0.685   3.909   6.283
 9724TIP3    H229130   0.643   3.773   6.336
 9725TIP3   OH229131   0.849   5.399   6.270
 9725TIP3    H129132   0.901   5.476   6.250
 9725TIP3    H229133   0.812   5.372   6.185
 9726TIP3   OH229134   5.047   3.229   1.251
 9726TIP3    H129135   4.958   3.233   1.289
 9726TIP3    H229136   5.039   3.169   1.177
 9727TIP3   OH229137   2.093   4.253   3.769
 9727TIP3    H129138   2.081   4.303   3.850
 9727TIP3    H229139   2.070   4.315   3.700
 9728TIP3   OH229140   5.673   0.582   1.785
 9728TIP3    H129141   5.635   0.516   1.843
 9728TIP3    H229142   5.767   0.566   1.789
 9729TIP3   OH229143   1.797   2.018   4.947
 9729TIP3    H129144   1.705   2.045   4.947
 9729TIP3    H229145   1.840   2.081   4.889
 9730TIP3   OH229146   2.853   5.111   0.352
 9730TIP3    H129147   2.904   5.039   0.316
 9730TIP3    H229148   2.868   5.107   0.446
 9731TIP3   OH229149   4.763   4.755   3.021
 9731TIP3    H129150   4.843   4.716   3.056
 9731TIP3    H229151   4.794   4.809   2.948
 9732TIP3   OH229152   1.026   2.880   4.174
 9732TIP3    H129153   1.078   2.952   4.139
 9732TIP3    H229154   1.027   2.814   4.104
 9733TIP3   OH229155   7.752   0.739   1.397
 9733TIP3    H129156   7.754   0.649   1.430
 9733TIP3    H229157   7.685   0.782   1.451
 9734TIP3   OH229158   7.620   2.436   4.208
 9734TIP3    H129159   7.691   2.405   4.265
 9734TIP3    H229160   7.551   2.464   4.269
 9735TIP3   OH229161   7.623   2.360   4.619
 9735TIP3    H129162   7.538   2.338   4.579
 9735TIP3    H229163   7.600   2.394   4.706
 9736TIP3   OH229164   0.531   3.655   3.460
 9736TIP3    H129165   0.563   3.688   3.545
 9736TIP3    H229166   0.467   3.589   3.483
 9737TIP3   OH229167   2.127   7.082   0.177
 9737TIP3    H129168   2.195   7.059   0.241
 9737TIP3    H229169   2.165   7.154   0.127
 9738TIP3   OH229170   8.018   3.401   2.538
 9738TIP3    H129171   7.960   3.344   2.486
 9738TIP3    H229172   7.967   3.482   2.549
 9739TIP3   OH229173   1.581   6.704   5.622
 9739TIP3    H129174   1.525   6.697   5.700
 9739TIP3    H229175   1.598   6.797   5.612
 9740TIP3   OH229176   1.510   4.706   5.785
 9740TIP3    H129177   1.590   4.744   5.748
 9740TIP3    H229178   1.458   4.782   5.812
 9741TIP3   OH229179   7.532   2.028   6.474
 9741TIP3    H129180   7.468   2.095   6.449
 9741TIP3    H229181   7.602   2.077   6.518
 9742TIP3   OH229182   7.757   5.992   4.493
 9742TIP3    H129183   7.700   6.067   4.509
 9742TIP3    H229184   7.725   5.955   4.411
 9743TIP3   OH229185   0.490   6.749   4.220
 9743TIP3    H129186   0.513   6.838   4.191
 9743TIP3    H229187   0.566   6.696   4.199
 9744TIP3   OH229188   4.712   5.767   2.769
 9744TIP3    H129189   4.696   5.798   2.680
 9744TIP3    H229190   4.649   5.696   2.782
 9745TIP3   OH229191   2.240   1.187   4.779
 9745TIP3    H129192   2.211   1.168   4.869
 9745TIP3    H229193   2.175   1.143   4.724
 9746TIP3   OH229194   3.149   1.266   3.193
 9746TIP3    H129195   3.100   1.280   3.274
 9746TIP3    H229196   3.203   1.345   3.184
 9747TIP3   OH229197   2.140   0.811   0.182
 9747TIP3    H129198   2.085   0.852   0.249
 9747TIP3    H229199   2.078   0.775   0.119
 9748TIP3   OH229200   0.071   2.353   2.547
 9748TIP3    H129201   0.148   2.301   2.571
 9748TIP3    H229202   0.074   2.428   2.607
 9749TIP3   OH229203   3.657   7.649   1.360
 9749TIP3    H129204   3.730   7.598   1.396
 9749TIP3    H229205   3.699   7.712   1.302
 9750TIP3   OH229206   2.464   2.487   3.982
 9750TIP3    H129207   2.511   2.416   3.937
 9750TIP3    H229208   2.372   2.473   3.958
 9751TIP3   OH229209   0.514   7.037   5.211
 9751TIP3    H129210   0.521   6.945   5.235
 9751TIP3    H229211   0.428   7.043   5.168
 9752TIP3   OH229212   4.004   2.902   1.217
 9752TIP3    H129213   3.918   2.919   1.178
 9752TIP3    H229214   4.065   2.909   1.143
 9753TIP3   OH229215   8.219   2.288   4.705
 9753TIP3    H129216   8.312   2.273   4.689
 9753TIP3    H229217   8.203   2.251   4.791
 9754TIP3   OH229218   3.404   6.336   1.383
 9754TIP3    H129219   3.485   6.316   1.430
 9754TIP3    H229220   3.336   6.287   1.430
 9755TIP3   OH229221   7.334   0.784   1.635
 9755TIP3    H129222   7.267   0.798   1.568
 9755TIP3    H229223   7.327   0.691   1.656
 9756TIP3   OH229224   3.308   7.135   5.523
 9756TIP3    H129225   3.378   7.154   5.586
 9756TIP3    H229226   3.248   7.209   5.532
 9757TIP3   OH229227   4.717   2.493   5.708
 9757TIP3    H129228   4.782   2.528   5.647
 9757TIP3    H229229   4.674   2.570   5.745
 9758TIP3   OH229230   1.788   2.990   6.292
 9758TIP3    H129231   1.715   2.978   6.353
 9758TIP3    H229232   1.866   2.973   6.345
 9759TIP3   OH229233   4.192   1.216   0.116
 9759TIP3    H129234   4.160   1.155   0.050
 9759TIP3    H229235   4.162   1.302   0.087
 9760TIP3   OH229236   5.438   5.048   0.074
 9760TIP3    H129237   5.442   5.114   0.004
 9760TIP3    H229238   5.386   5.089   0.143
 9761TIP3   OH229239   7.303   7.619   3.542
 9761TIP3    H129240   7.348   7.535   3.544
 9761TIP3    H229241   7.284   7.638   3.633
 9762TIP3   OH229242   1.547   6.200   2.855
 9762TIP3    H129243   1.605   6.188   2.930
 9762TIP3    H229244   1.474   6.140   2.871
 9763TIP3   OH229245   0.750   3.271   3.901
 9763TIP3    H129246   0.714   3.202   3.957
 9763TIP3    H229247   0.743   3.351   3.954
 9764TIP3   OH229248   1.180   4.103   1.349
 9764TIP3    H129249   1.230   4.087   1.429
 9764TIP3    H229250   1.205   4.032   1.290
 9765TIP3   OH229251   6.613   6.054   1.295
 9765TIP3    H129252   6.686   5.995   1.314
 9765TIP3    H229253   6.654   6.140   1.287
 9766TIP3   OH229254   4.921   6.201   3.524
 9766TIP3    H129255   4.838   6.185   3.481
 9766TIP3    H229256   4.926   6.134   3.592
 9767TIP3   OH229257   1.035   1.907   6.455
 9767TIP3    H129258   1.017   1.860   6.537
 9767TIP3    H229259   1.071   1.840   6.396
 9768TIP3   OH229260   7.108   3.337   0.415
 9768TIP3    H129261   7.035   3.281   0.389
 9768TIP3    H229262   7.092   3.358   0.507
 9769TIP3   OH229263   5.512   6.683   0.884
 9769TIP3    H129264   5.431   6.714   0.926
 9769TIP3    H229265   5.500   6.704   0.792
 9770TIP3   OH229266   7.504   4.303   5.559
 9770TIP3    H129267   7.478   4.226   5.610
 9770TIP3    H229268   7.581   4.336   5.605
 9771TIP3   OH229269   3.348   1.451   4.939
 9771TIP3    H129270   3.317   1.435   4.850
 9771TIP3    H229271   3.298   1.390   4.993
 9772TIP3   OH229272   0.676   3.703   2.990
 9772TIP3    H129273   0.768   3.705   2.963
 9772TIP3    H229274   0.655   3.795   3.009
 9773TIP3   OH229275   3.063   5.017   3.172
 9773TIP3    H129276   3.152   5.049   3.187
 9773TIP3    H229277   3.006   5.086   3.205
 9774TIP3   OH229278   0.733   1.914   6.230
 9774TIP3    H129279   0.772   1.834   6.196
 9774TIP3    H229280   0.643   1.890   6.252
 9775TIP3   OH229281   0.058   6.332   0.574
 9775TIP3    H129282   0.058   6.428   0.570
 9775TIP3    H229283   0.047   6.304   0.483
 9776TIP3   OH229284   1.317   7.601   4.619
 9776TIP3    H129285   1.307   7.605   4.524
 9776TIP3    H229286   1.411   7.610   4.634
 9777TIP3   OH229287   5.629   7.562   6.375
 9777TIP3    H129288   5.698   7.576   6.310
 9777TIP3    H229289   5.624   7.467   6.384
 9778TIP3   OH229290   3.295   5.613   2.218
 9778TIP3    H129291   3.290   5.631   2.311
 9778TIP3    H229292   3.298   5.518   2.212
 9779TIP3   OH229293   0.336   7.353   3.171
 9779TIP3    H129294   0.339   7.263   3.203
 9779TIP3    H229295   0.264   7.353   3.108
 9780TIP3   OH229296   3.158   0.113   5.388
 9780TIP3    H129297   3.133   0.198   5.425
 9780TIP3    H229298   3.223   0.078   5.448
 9781TIP3   OH229299   3.390   2.295   1.737
 9781TIP3    H129300   3.387   2.204   1.708
 9781TIP3    H229301   3.362   2.293   1.828
 9782TIP3   OH229302   2.313   6.374   2.433
 9782TIP3    H129303   2.386   6.355   2.374
 9782TIP3    H229304   2.251   6.303   2.416
 9783TIP3   OH229305   2.648   1.749   3.951
 9783TIP3    H129306   2.567   1.742   4.002
 9783TIP3    H229307   2.650   1.670   3.897
 9784TIP3   OH229308   6.717   3.812   3.316
 9784TIP3    H129309   6.774   3.861   3.256
 9784TIP3    H229310   6.757   3.726   3.323
 9785TIP3   OH229311   6.949   4.205   1.400
 9785TIP3    H129312   6.923   4.121   1.365
 9785TIP3    H229313   6.893   4.269   1.356
 9786TIP3   OH229314   6.370   7.317   3.314
 9786TIP3    H129315   6.299   7.379   3.299
 9786TIP3    H229316   6.364   7.255   3.241
 9787TIP3   OH229317   5.483   1.092   2.201
 9787TIP3    H129318   5.576   1.112   2.206
 9787TIP3    H229319   5.450   1.105   2.290
 9788TIP3   OH229320   3.884   4.914   6.571
 9788TIP3    H129321   3.828   4.844   6.604
 9788TIP3    H229322   3.950   4.869   6.518
 9789TIP3   OH229323   5.168   0.782   6.359
 9789TIP3    H129324   5.163   0.796   6.265
 9789TIP3    H229325   5.121   0.855   6.398
 9790TIP3   OH229326   4.439   2.886   0.479
 9790TIP3    H129327   4.372   2.892   0.411
 9790TIP3    H229328   4.519   2.919   0.437
 9791TIP3   OH229329   0.615   1.336   2.038
 9791TIP3    H129330   0.583   1.248   2.062
 9791TIP3    H229331   0.609   1.339   1.943
 9792TIP3   OH229332   2.094   3.999   1.902
 9792TIP3    H129333   2.097   3.911   1.864
 9792TIP3    H229334   2.004   4.009   1.932
 9793TIP3   OH229335   7.899   3.144   1.854
 9793TIP3    H129336   7.959   3.195   1.799
 9793TIP3    H229337   7.818   3.139   1.802
 9794TIP3   OH229338   1.229   4.056   6.509
 9794TIP3    H129339   1.138   4.049   6.539
 9794TIP3    H229340   1.224   4.048   6.414
 9795TIP3   OH229341   5.420   2.947   5.164
 9795TIP3    H129342   5.472   2.901   5.228
 9795TIP3    H229343   5.482   3.004   5.118
 9796TIP3   OH229344   1.141   6.203   5.808
 9796TIP3    H129345   1.211   6.146   5.838
 9796TIP3    H229346   1.185   6.283   5.780
 9797TIP3   OH229347   7.268   2.946   0.276
 9797TIP3    H129348   7.279   2.972   0.368
 9797TIP3    H229349   7.245   2.853   0.280
 9798TIP3   OH229350   2.051   6.037   1.615
 9798TIP3    H129351   2.084   5.955   1.652
 9798TIP3    H229352   2.127   6.094   1.613
 9799TIP3   OH229353   2.032   0.726   5.841
 9799TIP3    H129354   1.950   0.681   5.820
 9799TIP3    H229355   2.022   0.750   5.933
 9800TIP3   OH229356   1.632   3.865   0.786
 9800TIP3    H129357   1.712   3.817   0.808
 9800TIP3    H229358   1.657   3.923   0.714
 9801TIP3   OH229359   3.465   7.652   0.092
 9801TIP3    H129360   3.485   7.578   0.034
 9801TIP3    H229361   3.531   7.647   0.161
 9802TIP3   OH229362   0.055   5.765   4.343
 9802TIP3    H129363   0.033   5.744   4.434
 9802TIP3    H229364   0.118   5.697   4.318
 9803TIP3   OH229365   6.875   1.335   0.862
 9803TIP3    H129366   6.884   1.247   0.824
 9803TIP3    H229367   6.938   1.337   0.934
 9804TIP3   OH229368   2.612   0.091   1.522
 9804TIP3    H129369   2.520   0.096   1.499
 9804TIP3    H229370   2.641   0.183   1.527
 9805TIP3   OH229371   4.586   2.916   3.032
 9805TIP3    H129372   4.519   2.856   2.998
 9805TIP3    H229373   4.620   2.871   3.110
 9806TIP3   OH229374   2.777   2.821   4.138
 9806TIP3    H129375   2.809   2.763   4.070
 9806TIP3    H229376   2.793   2.774   4.220
 9807TIP3   OH229377   1.108   6.095   2.770
 9807TIP3    H129378   1.032   6.141   2.733
 9807TIP3    H229379   1.089   6.089   2.864
 9808TIP3   OH229380   5.820   5.191   5.879
 9808TIP3    H129381   5.879   5.124   5.843
 9808TIP3    H229382   5.836   5.268   5.825
 9809TIP3   OH229383   7.810   0.522   2.384
 9809TIP3    H129384   7.834   0.432   2.405
 9809TIP3    H229385   7.891   0.562   2.354
 9810TIP3   OH229386   4.905   1.466   5.711
 9810TIP3    H129387   4.969   1.519   5.758
 9810TIP3    H229388   4.954   1.427   5.639
 9811TIP3   OH229389   2.783   2.823   1.956
 9811TIP3    H129390   2.823   2.736   1.956
 9811TIP3    H229391   2.750   2.834   2.046
 9812TIP3   OH229392   1.556   7.052   0.522
 9812TIP3    H129393   1.531   6.998   0.447
 9812TIP3    H229394   1.612   6.996   0.575
 9813TIP3   OH229395   2.134   0.168   6.330
 9813TIP3    H129396   2.129   0.100   6.262
 9813TIP3    H229397   2.063   0.228   6.308
 9814TIP3   OH229398   0.924   2.313   1.564
 9814TIP3    H129399   1.014   2.324   1.534
 9814TIP3    H229400   0.916   2.370   1.640
 9815TIP3   OH229401   7.536   4.553   4.032
 9815TIP3    H129402   7.553   4.582   4.121
 9815TIP3    H229403   7.491   4.627   3.991
 9816TIP3   OH229404   3.217   6.556   0.694
 9816TIP3    H129405   3.204   6.461   0.687
 9816TIP3    H229406   3.194   6.577   0.784
 9817TIP3   OH229407   6.499   3.392   5.787
 9817TIP3    H129408   6.577   3.336   5.789
 9817TIP3    H229409   6.514   3.457   5.855
 9818TIP3   OH229410   4.698   5.936   0.280
 9818TIP3    H129411   4.688   5.961   0.371
 9818TIP3    H229412   4.694   6.018   0.231
 9819TIP3   OH229413   4.213   4.076   5.084
 9819TIP3    H129414   4.194   4.024   5.162
 9819TIP3    H229415   4.221   4.165   5.117
 9820TIP3   OH229416   0.943   0.105   0.941
 9820TIP3    H129417   0.917   0.050   1.015
 9820TIP3    H229418   1.037   0.087   0.930
 9821TIP3   OH229419   3.719   3.222   0.410
 9821TIP3    H129420   3.663   3.174   0.470
 9821TIP3    H229421   3.802   3.173   0.410
 9822TIP3   OH229422   2.432   2.737   0.976
 9822TIP3    H129423   2.492   2.669   1.007
 9822TIP3    H229424   2.370   2.749   1.048
 9823TIP3   OH229425   3.567   2.892   2.927
 9823TIP3    H129426   3.550   2.805   2.890
 9823TIP3    H229427   3.487   2.913   2.975
 9824TIP3   OH229428   4.470   6.708   3.618
 9824TIP3    H129429   4.509   6.675   3.538
 9824TIP3    H229430   4.456   6.629   3.672
 9825TIP3   OH229431   2.801   2.309   4.795
 9825TIP3    H129432   2.786   2.253   4.871
 9825TIP3    H229433   2.714   2.332   4.765
 9826TIP3   OH229434   1.702   4.198   0.987
 9826TIP3    H129435   1.787   4.155   0.973
 9826TIP3    H229436   1.672   4.220   0.899
 9827TIP3   OH229437   2.502   1.665   4.951
 9827TIP3    H129438   2.556   1.617   4.888
 9827TIP3    H229439   2.456   1.597   5.000
 9828TIP3   OH229440   0.387   6.955   4.579
 9828TIP3    H129441   0.471   6.969   4.622
 9828TIP3    H229442   0.365   7.039   4.540
 9829TIP3   OH229443   4.318   7.177   1.820
 9829TIP3    H129444   4.263   7.122   1.875
 9829TIP3    H229445   4.403   7.134   1.819
 9830TIP3   OH229446   0.641   0.363   1.488
 9830TIP3    H129447   0.650   0.440   1.545
 9830TIP3    H229448   0.711   0.304   1.517
 9831TIP3   OH229449   4.681   3.993   6.360
 9831TIP3    H129450   4.669   3.899   6.349
 9831TIP3    H229451   4.609   4.019   6.418
 9832TIP3   OH229452   4.744   1.624   4.637
 9832TIP3    H129453   4.671   1.651   4.582
 9832TIP3    H229454   4.752   1.694   4.702
 9833TIP3   OH229455   5.103   0.827   3.058
 9833TIP3    H129456   5.084   0.773   3.135
 9833TIP3    H229457   5.164   0.893   3.090
 9834TIP3   OH229458   0.024   2.559   6.499
 9834TIP3    H129459   0.082   2.607   6.558
 9834TIP3    H229460   0.082   2.512   6.440
 9835TIP3   OH229461   2.458   4.065   6.699
 9835TIP3    H129462   2.466   3.972   6.722
 9835TIP3    H229463   2.442   4.109   6.783
 9836TIP3   OH229464   0.991   4.052   1.155
 9836TIP3    H129465   1.044   4.083   1.229
 9836TIP3    H229466   0.909   4.023   1.195
 9837TIP3   OH229467   0.052   6.064   0.934
 9837TIP3    H129468   0.135   6.027   0.966
 9837TIP3    H229469   0.060   6.060   0.838
 9838TIP3   OH229470   5.961   3.745   3.153
 9838TIP3    H129471   5.889   3.686   3.174
 9838TIP3    H229472   6.021   3.738   3.228
 9839TIP3   OH229473   4.024   1.085   4.065
 9839TIP3    H129474   4.017   1.039   3.982
 9839TIP3    H229475   3.935   1.086   4.100
 9840TIP3   OH229476   0.697   3.873   6.567
 9840TIP3    H129477   0.669   3.877   6.658
 9840TIP3    H229478   0.616   3.883   6.517
 9841TIP3   OH229479   3.720   7.433   4.817
 9841TIP3    H129480   3.693   7.369   4.883
 9841TIP3    H229481   3.666   7.510   4.833
 9842TIP3   OH229482   4.853   4.070   0.662
 9842TIP3    H129483   4.878   4.048   0.752
 9842TIP3    H229484   4.848   4.165   0.660
 9843TIP3   OH229485   6.443   1.806   4.848
 9843TIP3    H129486   6.389   1.799   4.927
 9843TIP3    H229487   6.410   1.884   4.803
 9844TIP3   OH229488   2.248   6.895   1.360
 9844TIP3    H129489   2.250   6.839   1.438
 9844TIP3    H229490   2.200   6.973   1.388
 9845TIP3   OH229491   3.400   6.656   3.997
 9845TIP3    H129492   3.391   6.750   4.011
 9845TIP3    H229493   3.480   6.632   4.043
 9846TIP3   OH229494   7.481   3.833   6.135
 9846TIP3    H129495   7.554   3.806   6.080
 9846TIP3    H229496   7.406   3.786   6.100
 9847TIP3   OH229497   1.978   0.738   6.140
 9847TIP3    H129498   1.901   0.686   6.164
 9847TIP3    H229499   1.981   0.808   6.206
 9848TIP3   OH229500   2.899   1.132   5.599
 9848TIP3    H129501   2.959   1.063   5.573
 9848TIP3    H229502   2.955   1.204   5.627
 9849TIP3   OH229503   3.390   1.496   3.829
 9849TIP3    H129504   3.367   1.405   3.849
 9849TIP3    H229505   3.451   1.489   3.755
 9850TIP3   OH229506   7.133   3.349   2.188
 9850TIP3    H129507   7.057   3.325   2.134
 9850TIP3    H229508   7.189   3.272   2.187
 9851TIP3   OH229509   8.310   1.705   5.792
 9851TIP3    H129510   8.218   1.699   5.818
 9851TIP3    H229511   8.325   1.627   5.739
 9852TIP3   OH229512   5.412   7.265   3.039
 9852TIP3    H129513   5.389   7.326   3.109
 9852TIP3    H229514   5.489   7.219   3.072
 9853TIP3   OH229515   4.292   2.154   4.767
 9853TIP3    H129516   4.366   2.121   4.715
 9853TIP3    H229517   4.269   2.237   4.727
 9854TIP3   OH229518   3.235   6.796   4.434
 9854TIP3    H129519   3.221   6.718   4.380
 9854TIP3    H229520   3.320   6.830   4.405
 9855TIP3   OH229521   1.360   4.952   4.031
 9855TIP3    H129522   1.370   5.007   4.108
 9855TIP3    H229523   1.361   4.862   4.065
 9856TIP3   OH229524   5.237   6.666   4.571
 9856TIP3    H129525   5.249   6.673   4.666
 9856TIP3    H229526   5.265   6.577   4.551
 9857TIP3   OH229527   4.424   0.185   2.617
 9857TIP3    H129528   4.407   0.215   2.528
 9857TIP3    H229529   4.473   0.257   2.657
 9858TIP3   OH229530   5.500   0.833   2.410
 9858TIP3    H129531   5.500   0.758   2.351
 9858TIP3    H229532   5.590   0.840   2.441
 9859TIP3   OH229533   5.913   5.666   6.566
 9859TIP3    H129534   5.931   5.573   6.579
 9859TIP3    H229535   5.880   5.673   6.477
 9860TIP3   OH229536   1.500   5.764   6.119
 9860TIP3    H129537   1.464   5.846   6.153
 9860TIP3    H229538   1.556   5.791   6.045
 9861TIP3   OH229539   4.373   4.393   5.496
 9861TIP3    H129540   4.282   4.379   5.470
 9861TIP3    H229541   4.424   4.339   5.436
 9862TIP3   OH229542   1.451   1.584   6.743
 9862TIP3    H129543   1.436   1.667   6.700
 9862TIP3    H229544   1.398   1.521   6.695
 9863TIP3   OH229545   0.616   7.352   3.653
 9863TIP3    H129546   0.595   7.259   3.663
 9863TIP3    H229547   0.541   7.389   3.606
 9864TIP3   OH229548   1.859   2.187   0.066
 9864TIP3    H129549   1.869   2.237   0.147
 9864TIP3    H229550   1.913   2.109   0.079
 9865TIP3   OH229551   6.464   2.607   4.037
 9865TIP3    H129552   6.406   2.602   4.112
 9865TIP3    H229553   6.477   2.516   4.011
 9866TIP3   OH229554   2.571   2.673   3.183
 9866TIP3    H129555   2.487   2.653   3.223
 9866TIP3    H229556   2.604   2.589   3.153
 9867TIP3   OH229557   6.091   5.461   4.481
 9867TIP3    H129558   6.108   5.547   4.444
 9867TIP3    H229559   6.020   5.475   4.544
 9868TIP3   OH229560   5.932   1.842   2.800
 9868TIP3    H129561   5.855   1.856   2.855
 9868TIP3    H229562   5.936   1.747   2.787
 9869TIP3   OH229563   1.576   5.452   6.778
 9869TIP3    H129564   1.519   5.376   6.787
 9869TIP3    H229565   1.535   5.504   6.708
 9870TIP3   OH229566   3.524   7.328   5.217
 9870TIP3    H129567   3.496   7.239   5.235
 9870TIP3    H229568   3.508   7.375   5.299
 9871TIP3   OH229569   7.902   7.111   4.261
 9871TIP3    H129570   7.887   7.206   4.268
 9871TIP3    H229571   7.882   7.077   4.348
 9872TIP3   OH229572   5.472   7.042   3.640
 9872TIP3    H129573   5.381   7.063   3.663
 9872TIP3    H229574   5.490   6.961   3.687
 9873TIP3   OH229575   2.026   6.821   5.049
 9873TIP3    H129576   1.973   6.827   5.128
 9873TIP3    H229577   1.966   6.842   4.978
 9874TIP3   OH229578   3.363   4.400   3.987
 9874TIP3    H129579   3.433   4.402   4.052
 9874TIP3    H229580   3.351   4.307   3.968
 9875TIP3   OH229581   0.521   1.954   6.557
 9875TIP3    H129582   0.462   2.028   6.542
 9875TIP3    H229583   0.543   1.960   6.650
 9876TIP3   OH229584   6.983   4.505   2.757
 9876TIP3    H129585   6.965   4.599   2.760
 9876TIP3    H229586   7.067   4.495   2.803
 9877TIP3   OH229587   4.470   6.553   1.793
 9877TIP3    H129588   4.496   6.461   1.798
 9877TIP3    H229589   4.469   6.572   1.699
 9878TIP3   OH229590   1.277   7.295   5.570
 9878TIP3    H129591   1.327   7.375   5.582
 9878TIP3    H229592   1.205   7.319   5.512
 9879TIP3   OH229593   2.847   5.947   6.737
 9879TIP3    H129594   2.794   5.932   6.659
 9879TIP3    H229595   2.910   5.875   6.738
 9880TIP3   OH229596   1.881   4.513   1.456
 9880TIP3    H129597   1.915   4.522   1.367
 9880TIP3    H229598   1.959   4.500   1.510
 9881TIP3   OH229599   3.840   4.759   6.001
 9881TIP3    H129600   3.772   4.825   6.014
 9881TIP3    H229601   3.838   4.741   5.907
 9882TIP3   OH229602   2.264   4.151   5.947
 9882TIP3    H129603   2.224   4.129   6.031
 9882TIP3    H229604   2.353   4.116   5.953
 9883TIP3   OH229605   0.804   1.111   1.987
 9883TIP3    H129606   0.711   1.091   1.986
 9883TIP3    H229607   0.847   1.025   1.988
 9884TIP3   OH229608   6.034   2.103   2.024
 9884TIP3    H129609   5.953   2.131   2.068
 9884TIP3    H229610   6.038   2.008   2.040
 9885TIP3   OH229611   0.286   1.596   4.229
 9885TIP3    H129612   0.376   1.603   4.261
 9885TIP3    H229613   0.268   1.502   4.228
 9886TIP3   OH229614   0.878   7.316   2.563
 9886TIP3    H129615   0.867   7.259   2.487
 9886TIP3    H229616   0.961   7.361   2.548
 9887TIP3   OH229617   4.704   2.024   3.780
 9887TIP3    H129618   4.627   1.968   3.783
 9887TIP3    H229619   4.760   1.983   3.713
 9888TIP3   OH229620   8.249   7.741   5.551
 9888TIP3    H129621   8.227   7.706   5.637
 9888TIP3    H229622   8.170   7.731   5.499
 9889TIP3   OH229623   2.455   1.898   1.575
 9889TIP3    H129624   2.408   1.982   1.583
 9889TIP3    H229625   2.542   1.917   1.610
 9890TIP3   OH229626   1.815   5.250   4.392
 9890TIP3    H129627   1.884   5.260   4.327
 9890TIP3    H229628   1.784   5.160   4.381
 9891TIP3   OH229629   3.130   4.078   0.923
 9891TIP3    H129630   3.138   4.099   1.016
 9891TIP3    H229631   3.091   3.991   0.921
 9892TIP3   OH229632   7.651   2.610   3.993
 9892TIP3    H129633   7.646   2.556   4.071
 9892TIP3    H229634   7.636   2.550   3.921
 9893TIP3   OH229635   5.806   1.027   4.369
 9893TIP3    H129636   5.725   0.980   4.347
 9893TIP3    H229637   5.861   1.017   4.292
 9894TIP3   OH229638   5.935   7.256   0.804
 9894TIP3    H129639   5.908   7.173   0.764
 9894TIP3    H229640   5.930   7.319   0.732
 9895TIP3   OH229641   1.181   5.566   0.309
 9895TIP3    H129642   1.145   5.551   0.222
 9895TIP3    H229643   1.222   5.483   0.333
 9896TIP3   OH229644   6.641   3.878   3.821
 9896TIP3    H129645   6.547   3.894   3.813
 9896TIP3    H229646   6.663   3.905   3.910
 9897TIP3   OH229647   0.850   1.417   2.203
 9897TIP3    H129648   0.799   1.396   2.125
 9897TIP3    H229649   0.892   1.334   2.227
 9898TIP3   OH229650   6.222   6.300   6.438
 9898TIP3    H129651   6.152   6.266   6.494
 9898TIP3    H229652   6.282   6.342   6.499
 9899TIP3   OH229653   2.162   1.625   0.483
 9899TIP3    H129654   2.257   1.637   0.487
 9899TIP3    H229655   2.139   1.590   0.569
 9900TIP3   OH229656   5.093   1.243   5.073
 9900TIP3    H129657   5.080   1.272   5.164
 9900TIP3    H229658   5.004   1.234   5.038
 9901TIP3   OH229659   3.395   4.934   3.296
 9901TIP3    H129660   3.428   4.865   3.239
 9901TIP3    H229661   3.421   5.015   3.252
 9902TIP3   OH229662   7.675   1.217   3.883
 9902TIP3    H129663   7.765   1.248   3.890
 9902TIP3    H229664   7.623   1.284   3.928
 9903TIP3   OH229665   5.828   4.539   5.057
 9903TIP3    H129666   5.885   4.465   5.036
 9903TIP3    H229667   5.863   4.611   5.004
 9904TIP3   OH229668   5.098   5.344   0.719
 9904TIP3    H129669   5.142   5.362   0.802
 9904TIP3    H229670   5.168   5.349   0.653
 9905TIP3   OH229671   6.173   7.219   3.100
 9905TIP3    H129672   6.247   7.195   3.045
 9905TIP3    H229673   6.118   7.275   3.044
 9906TIP3   OH229674   3.594   7.147   0.122
 9906TIP3    H129675   3.547   7.106   0.195
 9906TIP3    H229676   3.601   7.079   0.056
 9907TIP3   OH229677   3.169   4.043   0.415
 9907TIP3    H129678   3.210   4.012   0.496
 9907TIP3    H229679   3.082   4.004   0.416
 9908TIP3   OH229680   0.173   7.404   1.090
 9908TIP3    H129681   0.105   7.428   1.027
 9908TIP3    H229682   0.210   7.488   1.119
 9909TIP3   OH229683   7.450   4.847   5.433
 9909TIP3    H129684   7.357   4.864   5.451
 9909TIP3    H229685   7.472   4.772   5.488
 9910TIP3   OH229686   7.761   4.521   1.869
 9910TIP3    H129687   7.758   4.599   1.925
 9910TIP3    H229688   7.753   4.447   1.929
 9911TIP3   OH229689   4.177   0.204   5.843
 9911TIP3    H129690   4.162   0.110   5.856
 9911TIP3    H229691   4.093   0.245   5.865
 9912TIP3   OH229692   0.804   4.035   4.122
 9912TIP3    H129693   0.855   4.007   4.198
 9912TIP3    H229694   0.844   4.117   4.095
 9913TIP3   OH229695   6.272   2.655   4.832
 9913TIP3    H129696   6.225   2.737   4.842
 9913TIP3    H229697   6.215   2.601   4.778
 9914TIP3   OH229698   1.739   3.355   5.001
 9914TIP3    H129699   1.697   3.440   5.009
 9914TIP3    H229700   1.671   3.297   4.969
 9915TIP3   OH229701   3.185   4.314   5.175
 9915TIP3    H129702   3.222   4.397   5.205
 9915TIP3    H229703   3.261   4.260   5.155
 9916TIP3   OH229704   0.819   7.193   3.412
 9916TIP3    H129705   0.734   7.214   3.452
 9916TIP3    H229706   0.841   7.107   3.448
 9917TIP3   OH229707   3.500   1.865   5.967
 9917TIP3    H129708   3.543   1.807   5.904
 9917TIP3    H229709   3.564   1.876   6.037
 9918TIP3   OH229710   6.921   3.763   1.069
 9918TIP3    H129711   6.944   3.736   0.980
 9918TIP3    H229712   6.980   3.837   1.087
 9919TIP3   OH229713   6.143   4.920   0.463
 9919TIP3    H129714   6.219   4.955   0.509
 9919TIP3    H229715   6.077   4.989   0.470
 9920TIP3   OH229716   7.414   1.820   6.577
 9920TIP3    H129717   7.332   1.834   6.530
 9920TIP3    H229718   7.474   1.885   6.540
 9921TIP3   OH229719   8.033   2.390   2.238
 9921TIP3    H129720   8.060   2.315   2.185
 9921TIP3    H229721   7.983   2.351   2.310
 9922TIP3   OH229722   2.139   6.463   6.609
 9922TIP3    H129723   2.044   6.463   6.599
 9922TIP3    H229724   2.163   6.556   6.602
 9923TIP3   OH229725   4.057   4.994   5.064
 9923TIP3    H129726   4.130   4.942   5.030
 9923TIP3    H229727   4.092   5.082   5.073
 9924TIP3   OH229728   3.103   4.517   1.420
 9924TIP3    H129729   3.185   4.468   1.410
 9924TIP3    H229730   3.131   4.608   1.432
 9925TIP3   OH229731   6.326   3.751   5.658
 9925TIP3    H129732   6.381   3.714   5.588
 9925TIP3    H229733   6.263   3.681   5.678
 9926TIP3   OH229734   2.961   2.524   3.310
 9926TIP3    H129735   3.011   2.585   3.256
 9926TIP3    H229736   2.885   2.575   3.339
 9927TIP3   OH229737   3.075   1.176   6.109
 9927TIP3    H129738   3.122   1.136   6.037
 9927TIP3    H229739   3.076   1.270   6.089
 9928TIP3   OH229740   6.763   0.801   3.034
 9928TIP3    H129741   6.812   0.724   3.063
 9928TIP3    H229742   6.767   0.861   3.108
 9929TIP3   OH229743   7.830   3.948   1.827
 9929TIP3    H129744   7.868   3.984   1.907
 9929TIP3    H229745   7.896   3.888   1.794
 9930TIP3   OH229746   1.783   5.448   0.893
 9930TIP3    H129747   1.810   5.486   0.810
 9930TIP3    H229748   1.840   5.372   0.905
 9931TIP3   OH229749   2.773   4.114   2.560
 9931TIP3    H129750   2.737   4.060   2.490
 9931TIP3    H229751   2.827   4.179   2.516
 9932TIP3   OH229752   0.978   5.680   3.016
 9932TIP3    H129753   0.896   5.653   2.975
 9932TIP3    H229754   0.998   5.610   3.078
 9933TIP3   OH229755   6.631   7.722   5.567
 9933TIP3    H129756   6.699   7.684   5.513
 9933TIP3    H229757   6.576   7.648   5.592
 9934TIP3   OH229758   5.681   3.671   1.777
 9934TIP3    H129759   5.760   3.723   1.795
 9934TIP3    H229760   5.679   3.606   1.846
 9935TIP3   OH229761   2.103   2.041   2.608
 9935TIP3    H129762   2.145   2.058   2.523
 9935TIP3    H229763   2.162   2.083   2.671
 9936TIP3   OH229764   2.089   5.924   6.057
 9936TIP3    H129765   2.071   5.951   5.967
 9936TIP3    H229766   2.172   5.876   6.052
 9937TIP3   OH229767   4.656   2.020   1.158
 9937TIP3    H129768   4.648   2.088   1.225
 9937TIP3    H229769   4.582   2.034   1.100
 9938TIP3   OH229770   7.486   6.094   5.009
 9938TIP3    H129771   7.402   6.129   5.036
 9938TIP3    H229772   7.466   6.035   4.937
 9939TIP3   OH229773   7.984   5.539   0.470
 9939TIP3    H129774   7.895   5.557   0.500
 9939TIP3    H229775   7.988   5.444   0.460
 9940TIP3   OH229776   0.938   3.504   1.648
 9940TIP3    H129777   0.950   3.554   1.567
 9940TIP3    H229778   0.926   3.413   1.619
 9941TIP3   OH229779   0.704   0.674   2.157
 9941TIP3    H129780   0.712   0.702   2.248
 9941TIP3    H229781   0.777   0.718   2.112
 9942TIP3   OH229782   3.384   0.652   5.923
 9942TIP3    H129783   3.311   0.590   5.929
 9942TIP3    H229784   3.364   0.719   5.988
 9943TIP3   OH229785   5.499   0.523   4.305
 9943TIP3    H129786   5.591   0.513   4.331
 9943TIP3    H229787   5.451   0.517   4.388
 9944TIP3   OH229788   3.300   4.983   1.575
 9944TIP3    H129789   3.300   5.011   1.667
 9944TIP3    H229790   3.299   5.065   1.526
 9945TIP3   OH229791   2.018   4.044   3.257
 9945TIP3    H129792   1.941   4.029   3.202
 9945TIP3    H229793   2.036   4.137   3.247
 9946TIP3   OH229794   1.769   4.220   2.789
 9946TIP3    H129795   1.722   4.174   2.859
 9946TIP3    H229796   1.701   4.263   2.738
 9947TIP3   OH229797   0.061   5.506   2.838
 9947TIP3    H129798   0.127   5.451   2.796
 9947TIP3    H229799   0.018   5.552   2.766
 9948TIP3   OH229800   0.415   5.048   4.516
 9948TIP3    H129801   0.430   4.954   4.529
 9948TIP3    H229802   0.440   5.064   4.425
 9949TIP3   OH229803   4.943   4.771   0.322
 9949TIP3    H129804   4.926   4.678   0.307
 9949TIP3    H229805   4.956   4.808   0.235
 9950TIP3   OH229806   7.152   7.142   3.178
 9950TIP3    H129807   7.239   7.103   3.165
 9950TIP3    H229808   7.097   7.101   3.111
 9951TIP3   OH229809   0.207   4.758   5.946
 9951TIP3    H129810   0.210   4.842   5.901
 9951TIP3    H229811   0.141   4.707   5.898
 9952TIP3   OH229812   2.781   7.000   5.143
 9952TIP3    H129813   2.834   6.965   5.071
 9952TIP3    H229814   2.705   6.942   5.147
 9953TIP3   OH229815   2.167   1.477   2.896
 9953TIP3    H129816   2.133   1.429   2.820
 9953TIP3    H229817   2.251   1.436   2.915
 9954TIP3   OH229818   6.393   7.496   4.815
 9954TIP3    H129819   6.311   7.447   4.817
 9954TIP3    H229820   6.445   7.452   4.747
 9955TIP3   OH229821   0.376   3.876   2.060
 9955TIP3    H129822   0.389   3.785   2.088
 9955TIP3    H229823   0.283   3.893   2.078
 9956TIP3   OH229824   2.938   2.415   5.063
 9956TIP3    H129825   2.895   2.479   5.005
 9956TIP3    H229826   2.997   2.468   5.117
 9957TIP3   OH229827   4.807   3.149   2.214
 9957TIP3    H129828   4.727   3.142   2.162
 9957TIP3    H229829   4.850   3.228   2.183
 9958TIP3   OH229830   4.400   4.517   1.853
 9958TIP3    H129831   4.406   4.433   1.807
 9958TIP3    H229832   4.308   4.523   1.880
 9959TIP3   OH229833   7.878   2.876   1.969
 9959TIP3    H129834   7.844   2.910   2.052
 9959TIP3    H229835   7.912   2.953   1.924
 9960TIP3   OH229836   1.265   5.437   0.991
 9960TIP3    H129837   1.343   5.425   0.937
 9960TIP3    H229838   1.299   5.450   1.080
 9961TIP3   OH229839   7.470   6.824   6.263
 9961TIP3    H129840   7.542   6.823   6.326
 9961TIP3    H229841   7.482   6.744   6.212
 9962TIP3   OH229842   2.129   5.406   5.161
 9962TIP3    H129843   2.168   5.446   5.084
 9962TIP3    H229844   2.071   5.338   5.126
 9963TIP3   OH229845   7.532   1.938   3.952
 9963TIP3    H129846   7.490   1.984   4.024
 9963TIP3    H229847   7.613   1.987   3.937
 9964TIP3   OH229848   1.759   2.905   1.154
 9964TIP3    H129849   1.735   2.858   1.233
 9964TIP3    H229850   1.681   2.900   1.099
 9965TIP3   OH229851   0.846   0.887   1.742
 9965TIP3    H129852   0.913   0.950   1.715
 9965TIP3    H229853   0.896   0.808   1.764
 9966TIP3   OH229854   6.300   4.991   2.363
 9966TIP3    H129855   6.343   4.947   2.289
 9966TIP3    H229856   6.207   4.990   2.340
 9967TIP3   OH229857   2.962   6.310   5.256
 9967TIP3    H129858   2.925   6.378   5.312
 9967TIP3    H229859   2.976   6.236   5.315
 9968TIP3   OH229860   3.743   2.027   4.577
 9968TIP3    H129861   3.699   2.056   4.497
 9968TIP3    H229862   3.771   2.108   4.620
 9969TIP3   OH229863   3.864   0.954   1.300
 9969TIP3    H129864   3.897   1.032   1.254
 9969TIP3    H229865   3.942   0.915   1.341
 9970TIP3   OH229866   3.431   4.046   5.580
 9970TIP3    H129867   3.356   4.005   5.537
 9970TIP3    H229868   3.398   4.132   5.609
 9971TIP3   OH229869   7.031   4.712   5.395
 9971TIP3    H129870   7.105   4.679   5.344
 9971TIP3    H229871   7.071   4.771   5.459
 9972TIP3   OH229872   7.169   4.812   6.666
 9972TIP3    H129873   7.230   4.767   6.607
 9972TIP3    H229874   7.224   4.866   6.722
 9973TIP3   OH229875   2.828   4.432   0.018
 9973TIP3    H129876   2.871   4.501   0.069
 9973TIP3    H229877   2.734   4.447   0.032
 9974TIP3   OH229878   5.796   3.027   0.289
 9974TIP3    H129879   5.806   3.026   0.194
 9974TIP3    H229880   5.773   2.937   0.312
 9975TIP3   OH229881   5.475   5.409   0.695
 9975TIP3    H129882   5.488   5.493   0.651
 9975TIP3    H229883   5.547   5.404   0.759
 9976TIP3   OH229884   5.638   2.058   2.558
 9976TIP3    H129885   5.726   2.023   2.573
 9976TIP3    H229886   5.648   2.118   2.484
 9977TIP3   OH229887   2.398   5.460   4.339
 9977TIP3    H129888   2.400   5.499   4.426
 9977TIP3    H229889   2.419   5.367   4.354
 9978TIP3   OH229890   7.518   3.536   6.120
 9978TIP3    H129891   7.604   3.540   6.162
 9978TIP3    H229892   7.457   3.519   6.193
 9979TIP3   OH229893   0.634   2.688   3.623
 9979TIP3    H129894   0.637   2.625   3.695
 9979TIP3    H229895   0.692   2.759   3.651
 9980TIP3   OH229896   2.124   4.884   5.957
 9980TIP3    H129897   2.181   4.889   6.034
 9980TIP3    H229898   2.146   4.962   5.906
 9981TIP3   OH229899   4.688   4.683   6.112
 9981TIP3    H129900   4.640   4.702   6.031
 9981TIP3    H229901   4.778   4.709   6.092
 9982TIP3   OH229902   7.998   5.532   1.182
 9982TIP3    H129903   7.977   5.461   1.243
 9982TIP3    H229904   7.931   5.526   1.114
 9983TIP3   OH229905   7.889   7.535   3.972
 9983TIP3    H129906   7.957   7.600   3.953
 9983TIP3    H229907   7.855   7.561   4.058
 9984TIP3   OH229908   5.214   3.566   4.555
 9984TIP3    H129909   5.214   3.660   4.534
 9984TIP3    H229910   5.243   3.524   4.474
 9985TIP3   OH229911   3.731   0.525   0.585
 9985TIP3    H129912   3.771   0.566   0.662
 9985TIP3    H229913   3.731   0.594   0.518
 9986TIP3   OH229914   6.698   6.869   1.173
 9986TIP3    H129915   6.605   6.855   1.191
 9986TIP3    H229916   6.743   6.821   1.243
 9987TIP3   OH229917   5.550   4.103   4.871
 9987TIP3    H129918   5.614   4.174   4.868
 9987TIP3    H229919   5.600   4.024   4.853
 9988TIP3   OH229920   6.602   2.430   3.026
 9988TIP3    H129921   6.658   2.501   2.994
 9988TIP3    H229922   6.664   2.365   3.060
 9989TIP3   OH229923   5.868   6.957   4.338
 9989TIP3    H129924   5.848   6.866   4.314
 9989TIP3    H229925   5.822   6.971   4.421
 9990TIP3   OH229926   6.657   1.020   6.451
 9990TIP3    H129927   6.752   1.020   6.469
 9990TIP3    H229928   6.637   0.928   6.433
 9991TIP3   OH229929   2.169   4.466   4.428
 9991TIP3    H129930   2.138   4.398   4.368
 9991TIP3    H229931   2.239   4.510   4.379
 9992TIP3   OH229932   4.067   3.178   2.874
 9992TIP3    H129933   3.985   3.129   2.868
 9992TIP3    H229934   4.081   3.192   2.968
 9993TIP3   OH229935   1.197   7.710   3.013
 9993TIP3    H129936   1.181   7.624   3.051
 9993TIP3    H229937   1.288   7.706   2.983
 9994TIP3   OH229938   2.206   2.124   3.081
 9994TIP3    H129939   2.161   2.058   3.133
 9994TIP3    H229940   2.203   2.203   3.134
 9995TIP3   OH229941   3.866   1.999   3.552
 9995TIP3    H129942   3.933   1.961   3.609
 9995TIP3    H229943   3.809   2.048   3.612
 9996TIP3   OH229944   7.207   2.557   3.918
 9996TIP3    H129945   7.118   2.527   3.932
 9996TIP3    H229946   7.235   2.511   3.839
 9997TIP3   OH229947   7.385   1.210   3.353
 9997TIP3    H129948   7.372   1.248   3.440
 9997TIP3    H229949   7.298   1.180   3.327
 9998TIP3   OH229950   2.729   6.329   1.935
 9998TIP3    H129951   2.767   6.336   2.023
 9998TIP3    H229952   2.758   6.407   1.890
 9999TIP3   OH229953   0.081   4.695   4.750
 9999TIP3    H129954   0.024   4.646   4.809
 9999TIP3    H229955   0.117   4.628   4.691
10000TIP3   OH229956   1.293   2.379   1.175
10000TIP3    H129957   1.244   2.447   1.128
10000TIP3    H229958   1.300   2.307   1.112
10001TIP3   OH229959   6.092   7.408   3.568
10001TIP3    H129960   6.106   7.381   3.659
10001TIP3    H229961   6.161   7.472   3.551
10002TIP3   OH229962   1.000   1.103   5.425
10002TIP3    H129963   0.980   1.193   5.400
10002TIP3    H229964   1.011   1.056   5.342
10003TIP3   OH229965   6.933   3.485   3.775
10003TIP3    H129966   6.926   3.390   3.785
10003TIP3    H229967   6.861   3.520   3.828
10004TIP3   OH229968   7.638   1.740   3.752
10004TIP3    H129969   7.726   1.703   3.749
10004TIP3    H229970   7.649   1.824   3.797
10005TIP3   OH229971   7.668   4.658   4.471
10005TIP3    H129972   7.737   4.592   4.475
10005TIP3    H229973   7.649   4.678   4.562
10006TIP3   OH229974   7.570   5.405   6.404
10006TIP3    H129975   7.525   5.475   6.452
10006TIP3    H229976   7.516   5.391   6.326
10007TIP3   OH229977   3.802   2.189   5.717
10007TIP3    H129978   3.708   2.174   5.726
10007TIP3    H229979   3.810   2.282   5.697
10008TIP3   OH229980   2.048   1.544   1.587
10008TIP3    H129981   2.102   1.616   1.553
10008TIP3    H229982   1.959   1.579   1.586
10009TIP3   OH229983   4.241   3.280   2.665
10009TIP3    H129984   4.271   3.369   2.684
10009TIP3    H229985   4.165   3.268   2.723
10010TIP3   OH229986   7.143   0.409   2.109
10010TIP3    H129987   7.061   0.413   2.159
10010TIP3    H229988   7.150   0.317   2.082
10011TIP3   OH229989   6.840   5.047   3.440
10011TIP3    H129990   6.854   5.142   3.439
10011TIP3    H229991   6.797   5.029   3.356
10012TIP3   OH229992   7.991   0.358   3.302
10012TIP3    H129993   7.977   0.413   3.225
10012TIP3    H229994   8.079   0.381   3.332
10013TIP3   OH229995   2.937   4.099   6.585
10013TIP3    H129996   2.848   4.099   6.550
10013TIP3    H229997   2.927   4.123   6.677
10014TIP3   OH229998   3.874   2.835   2.679
10014TIP3    H129999   3.862   2.891   2.756
10014TIP3    H230000   3.957   2.789   2.696
10015TIP3   OH230001  -0.030   5.245   0.898
10015TIP3    H130002   0.021   5.218   0.974
10015TIP3    H230003   0.034   5.282   0.838
10016TIP3   OH230004   6.346   2.810   3.915
10016TIP3    H130005   6.400   2.741   3.954
10016TIP3    H230006   6.404   2.852   3.851
10017TIP3   OH230007   2.388   4.534   5.488
10017TIP3    H130008   2.476   4.501   5.508
10017TIP3    H230009   2.388   4.545   5.392
10018TIP3   OH230010   2.860   4.324   3.513
10018TIP3    H130011   2.864   4.307   3.419
10018TIP3    H230012   2.854   4.238   3.554
10019TIP3   OH230013   6.987   4.594   6.476
10019TIP3    H130014   6.994   4.498   6.475
10019TIP3    H230015   6.991   4.618   6.383
10020TIP3   OH230016   8.086   4.791   5.875
10020TIP3    H130017   8.066   4.745   5.793
10020TIP3    H230018   8.152   4.736   5.918
10021TIP3   OH230019   7.123   4.109   2.061
10021TIP3    H130020   7.209   4.150   2.060
10021TIP3    H230021   7.063   4.177   2.028
10022TIP3   OH230022   3.926   6.431   1.568
10022TIP3    H130023   4.020   6.414   1.572
10022TIP3    H230024   3.903   6.457   1.658
10023TIP3   OH230025   4.519   6.236   3.076
10023TIP3    H130026   4.477   6.217   2.992
10023TIP3    H230027   4.466   6.305   3.115
10024TIP3   OH230028   6.977   6.982   2.193
10024TIP3    H130029   6.945   6.967   2.282
10024TIP3    H230030   7.055   7.036   2.205
10025TIP3   OH230031   0.666   0.068   5.947
10025TIP3    H130032   0.677   0.056   6.041
10025TIP3    H230033   0.649   0.162   5.936
10026TIP3   OH230034   1.883   3.076   3.718
10026TIP3    H130035   1.797   3.085   3.679
10026TIP3    H230036   1.866   3.050   3.809
10027TIP3   OH230037   2.191   7.115   1.502
10027TIP3    H130038   2.202   7.193   1.447
10027TIP3    H230039   2.188   7.148   1.592
10028TIP3   OH230040   0.641   0.149   3.573
10028TIP3    H130041   0.687   0.187   3.648
10028TIP3    H230042   0.660   0.056   3.577
10029TIP3   OH230043   0.418   0.408   3.112
10029TIP3    H130044   0.505   0.380   3.141
10029TIP3    H230045   0.374   0.437   3.191
10030TIP3   OH230046   3.995   7.314   0.936
10030TIP3    H130047   3.936   7.349   1.003
10030TIP3    H230048   3.949   7.238   0.901
10031TIP3   OH230049   1.818   1.488   2.266
10031TIP3    H130050   1.901   1.522   2.299
10031TIP3    H230051   1.756   1.499   2.339
10032TIP3   OH230052   7.885   0.828   1.680
10032TIP3    H130053   7.792   0.841   1.660
10032TIP3    H230054   7.915   0.914   1.710
10033TIP3   OH230055   0.608   0.400   2.146
10033TIP3    H130056   0.688   0.359   2.179
10033TIP3    H230057   0.623   0.494   2.159
10034TIP3   OH230058   1.470   6.766   6.043
10034TIP3    H130059   1.378   6.792   6.040
10034TIP3    H230060   1.510   6.811   5.968
10035TIP3   OH230061   2.597   0.153   2.438
10035TIP3    H130062   2.660   0.190   2.500
10035TIP3    H230063   2.514   0.194   2.461
10036TIP3   OH230064   8.090   2.584   0.580
10036TIP3    H130065   8.048   2.517   0.526
10036TIP3    H230066   8.092   2.661   0.523
10037TIP3   OH230067   3.311   5.328   2.312
10037TIP3    H130068   3.387   5.342   2.368
10037TIP3    H230069   3.238   5.368   2.359
10038TIP3   OH230070   4.949   5.237   3.977
10038TIP3    H130071   4.929   5.212   3.887
10038TIP3    H230072   4.969   5.155   4.021
10039TIP3   OH230073   5.587   1.966   1.889
10039TIP3    H130074   5.621   2.051   1.861
10039TIP3    H230075   5.651   1.902   1.858
10040TIP3   OH230076   3.162   3.025   1.386
10040TIP3    H130077   3.166   2.958   1.319
10040TIP3    H230078   3.194   2.982   1.466
10041TIP3   OH230079   6.770   2.795   5.940
10041TIP3    H130080   6.852   2.753   5.914
10041TIP3    H230081   6.763   2.777   6.034
10042TIP3   OH230082   6.335   4.521   2.474
10042TIP3    H130083   6.315   4.574   2.551
10042TIP3    H230084   6.288   4.562   2.402
10043TIP3   OH230085   7.766   7.019   0.517
10043TIP3    H130086   7.727   6.931   0.515
10043TIP3    H230087   7.700   7.074   0.559
10044TIP3   OH230088   5.503   1.401   3.461
10044TIP3    H130089   5.441   1.329   3.447
10044TIP3    H230090   5.465   1.451   3.533
10045TIP3   OH230091   2.849   0.590   5.907
10045TIP3    H130092   2.761   0.570   5.937
10045TIP3    H230093   2.844   0.678   5.870
10046TIP3   OH230094   5.653   7.218   0.339
10046TIP3    H130095   5.626   7.229   0.430
10046TIP3    H230096   5.622   7.131   0.315
10047TIP3   OH230097   1.690   4.024   5.682
10047TIP3    H130098   1.672   3.939   5.723
10047TIP3    H230099   1.762   4.007   5.622
10048TIP3   OH230100   7.582   4.590   0.193
10048TIP3    H130101   7.492   4.622   0.198
10048TIP3    H230102   7.576   4.511   0.139
10049TIP3   OH230103   1.217   5.325   4.816
10049TIP3    H130104   1.126   5.339   4.840
10049TIP3    H230105   1.255   5.280   4.892
10050TIP3   OH230106   4.436   3.419   1.812
10050TIP3    H130107   4.351   3.404   1.770
10050TIP3    H230108   4.431   3.509   1.843
10051TIP3   OH230109   0.571   7.478   0.282
10051TIP3    H130110   0.604   7.442   0.365
10051TIP3    H230111   0.646   7.475   0.223
10052TIP3   OH230112   0.701   2.704   2.757
10052TIP3    H130113   0.618   2.656   2.748
10052TIP3    H230114   0.764   2.653   2.706
10053TIP3   OH230115   1.226   3.003   1.573
10053TIP3    H130116   1.194   3.002   1.483
10053TIP3    H230117   1.210   2.915   1.606
10054TIP3   OH230118   0.415   3.156   3.865
10054TIP3    H130119   0.457   3.077   3.832
10054TIP3    H230120   0.477   3.193   3.927
10055TIP3   OH230121   6.380   4.037   3.131
10055TIP3    H130122   6.449   4.089   3.091
10055TIP3    H230123   6.391   3.949   3.095
10056TIP3   OH230124   6.497   7.313   4.223
10056TIP3    H130125   6.586   7.342   4.202
10056TIP3    H230126   6.469   7.372   4.294
10057TIP3   OH230127   0.176   6.079   5.512
10057TIP3    H130128   0.126   6.083   5.594
10057TIP3    H230129   0.135   6.145   5.456
10058TIP3   OH230130   0.418   0.922   3.481
10058TIP3    H130131   0.397   1.015   3.489
10058TIP3    H230132   0.454   0.898   3.566
10059TIP3   OH230133   4.056   5.186   0.907
10059TIP3    H130134   3.981   5.206   0.962
10059TIP3    H230135   4.024   5.118   0.847
10060TIP3   OH230136   7.661   7.471   6.735
10060TIP3    H130137   7.718   7.547   6.735
10060TIP3    H230138   7.574   7.505   6.758
10061TIP3   OH230139   7.945   4.245   5.863
10061TIP3    H130140   7.897   4.313   5.909
10061TIP3    H230141   8.034   4.280   5.854
10062TIP3   OH230142   5.044   4.748   2.280
10062TIP3    H130143   4.999   4.698   2.212
10062TIP3    H230144   5.119   4.788   2.235
10063TIP3   OH230145   6.742   2.336   0.064
10063TIP3    H130146   6.817   2.336   0.124
10063TIP3    H230147   6.702   2.422   0.076
10064TIP3   OH230148   2.832   1.801   0.394
10064TIP3    H130149   2.909   1.744   0.389
10064TIP3    H230150   2.762   1.750   0.354
10065TIP3   OH230151   0.936   2.102   5.364
10065TIP3    H130152   0.990   2.026   5.343
10065TIP3    H230153   0.983   2.146   5.436
10066TIP3   OH230154   2.577   5.672   1.585
10066TIP3    H130155   2.558   5.713   1.501
10066TIP3    H230156   2.634   5.734   1.630
10067TIP3   OH230157   1.850   6.509   5.668
10067TIP3    H130158   1.861   6.569   5.742
10067TIP3    H230159   1.806   6.562   5.601
10068TIP3   OH230160   3.780   4.910   0.547
10068TIP3    H130161   3.827   4.844   0.497
10068TIP3    H230162   3.687   4.892   0.531
10069TIP3   OH230163   4.109   2.409   0.764
10069TIP3    H130164   4.077   2.438   0.849
10069TIP3    H230165   4.089   2.481   0.705
10070TIP3   OH230166   5.807   1.762   1.853
10070TIP3    H130167   5.872   1.801   1.796
10070TIP3    H230168   5.845   1.677   1.878
10071TIP3   OH230169   1.790   6.724   3.897
10071TIP3    H130170   1.848   6.785   3.942
10071TIP3    H230171   1.732   6.691   3.965
10072TIP3   OH230172   1.958   6.373   3.137
10072TIP3    H130173   2.024   6.354   3.204
10072TIP3    H230174   1.947   6.468   3.140
10073TIP3   OH230175   5.105   7.270   4.296
10073TIP3    H130176   5.017   7.306   4.284
10073TIP3    H230177   5.091   7.190   4.347
10074TIP3   OH230178   7.698   3.019   3.493
10074TIP3    H130179   7.699   3.114   3.478
10074TIP3    H230180   7.608   2.993   3.474
10075TIP3   OH230181   5.956   1.474   4.884
10075TIP3    H130182   6.003   1.532   4.824
10075TIP3    H230183   5.873   1.456   4.839
10076TIP3   OH230184   0.839   3.736   0.148
10076TIP3    H130185   0.857   3.772   0.235
10076TIP3    H230186   0.916   3.683   0.126
10077TIP3   OH230187   5.546   0.317   2.330
10077TIP3    H130188   5.496   0.360   2.399
10077TIP3    H230189   5.509   0.229   2.325
10078TIP3   OH230190   6.361   6.710   2.244
10078TIP3    H130191   6.449   6.681   2.222
10078TIP3    H230192   6.367   6.806   2.244
10079TIP3   OH230193   7.293   1.510   4.768
10079TIP3    H130194   7.216   1.454   4.779
10079TIP3    H230195   7.361   1.468   4.821
10080TIP3   OH230196   2.395   5.483   6.184
10080TIP3    H130197   2.424   5.431   6.259
10080TIP3    H230198   2.423   5.433   6.108
10081TIP3   OH230199   6.227   1.827   2.995
10081TIP3    H130200   6.192   1.747   3.035
10081TIP3    H230201   6.312   1.800   2.960
10082TIP3   OH230202   2.314   5.991   5.708
10082TIP3    H130203   2.361   5.991   5.625
10082TIP3    H230204   2.278   5.902   5.715
10083TIP3   OH230205   5.647   1.822   2.920
10083TIP3    H130206   5.625   1.829   3.013
10083TIP3    H230207   5.596   1.892   2.878
10084TIP3   OH230208   7.618   1.462   6.077
10084TIP3    H130209   7.599   1.369   6.090
10084TIP3    H230210   7.539   1.497   6.036
10085TIP3   OH230211   4.730   2.801   6.513
10085TIP3    H130212   4.780   2.867   6.561
10085TIP3    H230213   4.653   2.848   6.482
10086TIP3   OH230214   5.858   6.070   2.793
10086TIP3    H130215   5.917   6.124   2.844
10086TIP3    H230216   5.804   6.024   2.858
10087TIP3   OH230217   8.351   2.064   2.472
10087TIP3    H130218   8.364   2.131   2.539
10087TIP3    H230219   8.257   2.046   2.473
10088TIP3   OH230220   3.433   0.771   2.530
10088TIP3    H130221   3.369   0.700   2.519
10088TIP3    H230222   3.510   0.728   2.567
10089TIP3   OH230223   1.688   6.345   1.666
10089TIP3    H130224   1.627   6.282   1.626
10089TIP3    H230225   1.639   6.427   1.668
10090TIP3   OH230226   7.317   2.039   4.529
10090TIP3    H130227   7.307   1.944   4.535
10090TIP3    H230228   7.266   2.074   4.602
10091TIP3   OH230229   2.005   5.814   6.623
10091TIP3    H130230   1.945   5.868   6.572
10091TIP3    H230231   1.953   5.780   6.696
10092TIP3   OH230232   1.979   5.205   2.477
10092TIP3    H130233   1.960   5.121   2.518
10092TIP3    H230234   1.998   5.183   2.386
10093TIP3   OH230235   5.518   0.914   3.661
10093TIP3    H130236   5.590   0.975   3.676
10093TIP3    H230237   5.540   0.837   3.714
10094TIP3   OH230238   1.812   3.034   2.844
10094TIP3    H130239   1.852   3.110   2.801
10094TIP3    H230240   1.778   3.068   2.926
10095TIP3   OH230241   1.492   4.822   2.348
10095TIP3    H130242   1.504   4.737   2.307
10095TIP3    H230243   1.548   4.881   2.299
10096TIP3   OH230244   2.647   4.704   2.282
10096TIP3    H130245   2.591   4.781   2.286
10096TIP3    H230246   2.692   4.712   2.198
10097TIP3   OH230247   5.588   0.660   3.085
10097TIP3    H130248   5.549   0.613   3.159
10097TIP3    H230249   5.611   0.592   3.022
10098TIP3   OH230250   3.663   1.517   4.733
10098TIP3    H130251   3.695   1.606   4.717
10098TIP3    H230252   3.638   1.516   4.825
10099TIP3   OH230253   1.763   2.871   5.140
10099TIP3    H130254   1.814   2.952   5.151
10099TIP3    H230255   1.754   2.836   5.229
10100TIP3   OH230256   6.896   7.327   1.561
10100TIP3    H130257   6.823   7.300   1.616
10100TIP3    H230258   6.933   7.245   1.528
10101TIP3   OH230259   1.838   5.094   3.774
10101TIP3    H130260   1.927   5.129   3.764
10101TIP3    H230261   1.816   5.062   3.686
10102TIP3   OH230262   4.437   5.746   6.289
10102TIP3    H130263   4.449   5.786   6.375
10102TIP3    H230264   4.390   5.812   6.238
10103TIP3   OH230265   4.079   2.884   6.410
10103TIP3    H130266   4.048   2.846   6.491
10103TIP3    H230267   3.999   2.915   6.366
10104TIP3   OH230268   2.541   7.546   2.588
10104TIP3    H130269   2.523   7.537   2.494
10104TIP3    H230270   2.607   7.479   2.605
10105TIP3   OH230271   7.441   7.773   1.504
10105TIP3    H130272   7.355   7.768   1.463
10105TIP3    H230273   7.424   7.761   1.597
10106TIP3   OH230274   1.164   1.594   5.611
10106TIP3    H130275   1.228   1.589   5.681
10106TIP3    H230276   1.215   1.604   5.531
10107TIP3   OH230277   4.519   1.108   0.051
10107TIP3    H130278   4.490   1.173   0.115
10107TIP3    H230279   4.602   1.142   0.017
10108TIP3   OH230280   6.395   2.689   2.204
10108TIP3    H130281   6.330   2.622   2.223
10108TIP3    H230282   6.470   2.640   2.170
10109TIP3   OH230283   6.611   6.775   4.307
10109TIP3    H130284   6.546   6.750   4.373
10109TIP3    H230285   6.560   6.783   4.226
10110TIP3   OH230286   4.342   3.608   5.838
10110TIP3    H130287   4.437   3.597   5.839
10110TIP3    H230288   4.323   3.644   5.751
10111TIP3   OH230289   4.726   3.627   1.237
10111TIP3    H130290   4.645   3.586   1.268
10111TIP3    H230291   4.699   3.712   1.204
10112TIP3   OH230292   1.623   6.285   6.165
10112TIP3    H130293   1.608   6.362   6.220
10112TIP3    H230294   1.680   6.316   6.095
10113TIP3   OH230295   7.338   0.209   3.300
10113TIP3    H130296   7.402   0.192   3.231
10113TIP3    H230297   7.383   0.186   3.381
10114TIP3   OH230298   4.345   3.036   0.146
10114TIP3    H130299   4.272   2.994   0.101
10114TIP3    H230300   4.418   3.029   0.086
10115TIP3   OH230301   7.748   7.564   1.905
10115TIP3    H130302   7.718   7.613   1.982
10115TIP3    H230303   7.710   7.477   1.915
10116TIP3   OH230304   2.112   4.851   6.272
10116TIP3    H130305   2.024   4.827   6.300
10116TIP3    H230306   2.130   4.933   6.316
10117TIP3   OH230307   1.155   4.111   6.206
10117TIP3    H130308   1.106   4.188   6.178
10117TIP3    H230309   1.090   4.041   6.208
10118TIP3   OH230310   1.307   4.470   4.502
10118TIP3    H130311   1.403   4.471   4.503
10118TIP3    H230312   1.282   4.560   4.523
10119TIP3   OH230313   0.455   0.033   0.469
10119TIP3    H130314   0.458   0.110   0.525
10119TIP3    H230315   0.430  -0.038   0.527
10120TIP3   OH230316   5.021   3.670   2.668
10120TIP3    H130317   5.100   3.670   2.615
10120TIP3    H230318   4.949   3.661   2.605
10121TIP3   OH230319   5.421   1.953   5.057
10121TIP3    H130320   5.453   1.906   5.134
10121TIP3    H230321   5.437   1.893   4.984
10122TIP3   OH230322   1.901   7.571   3.660
10122TIP3    H130323   1.823   7.576   3.715
10122TIP3    H230324   1.973   7.591   3.719
10123TIP3   OH230325   5.873   0.315   5.821
10123TIP3    H130326   5.917   0.372   5.757
10123TIP3    H230327   5.943   0.259   5.855
10124TIP3   OH230328   7.531   5.636   6.594
10124TIP3    H130329   7.597   5.587   6.645
10124TIP3    H230330   7.495   5.699   6.656
10125TIP3   OH230331   0.652   1.581   5.646
10125TIP3    H130332   0.638   1.672   5.673
10125TIP3    H230333   0.660   1.533   5.728
10126TIP3   OH230334   5.357   1.297   2.791
10126TIP3    H130335   5.326   1.258   2.873
10126TIP3    H230336   5.278   1.310   2.739
10127TIP3   OH230337   3.493   1.858   2.211
10127TIP3    H130338   3.466   1.805   2.136
10127TIP3    H230339   3.572   1.815   2.243
10128TIP3   OH230340   2.143   5.899   4.376
10128TIP3    H130341   2.113   5.856   4.456
10128TIP3    H230342   2.198   5.834   4.333
10129TIP3   OH230343   6.985   6.486   1.968
10129TIP3    H130344   7.022   6.558   1.917
10129TIP3    H230345   7.056   6.457   2.025
10130TIP3   OH230346   2.273   2.127   1.612
10130TIP3    H130347   2.179   2.121   1.628
10130TIP3    H230348   2.310   2.156   1.696
10131TIP3   OH230349   7.699   5.361   5.488
10131TIP3    H130350   7.675   5.283   5.538
10131TIP3    H230351   7.788   5.382   5.516
10132TIP3   OH230352  -0.028   6.094   6.621
10132TIP3    H130353   0.033   6.134   6.559
10132TIP3    H230354  -0.021   6.000   6.605
10133TIP3   OH230355   7.930   2.652   1.486
10133TIP3    H130356   7.949   2.585   1.551
10133TIP3    H230357   7.939   2.735   1.533
10134TIP3   OH230358   1.546   2.278   1.351
10134TIP3    H130359   1.563   2.184   1.358
10134TIP3    H230360   1.473   2.284   1.290
10135TIP3   OH230361   5.966   3.733   4.253
10135TIP3    H130362   5.945   3.783   4.174
10135TIP3    H230363   5.965   3.641   4.223
10136TIP3   OH230364   6.496   1.790   1.233
10136TIP3    H130365   6.453   1.871   1.258
10136TIP3    H230366   6.470   1.775   1.142
10137TIP3   OH230367   6.930   4.506   4.690
10137TIP3    H130368   6.841   4.490   4.660
10137TIP3    H230369   6.984   4.495   4.611
10138TIP3   OH230370   4.940   2.460   3.458
10138TIP3    H130371   4.919   2.548   3.427
10138TIP3    H230372   4.941   2.468   3.553
10139TIP3   OH230373   0.940   2.654   1.608
10139TIP3    H130374   0.971   2.599   1.680
10139TIP3    H230375   0.845   2.659   1.621
10140TIP3   OH230376   2.357   1.243   5.113
10140TIP3    H130377   2.275   1.195   5.106
10140TIP3    H230378   2.413   1.187   5.166
10141TIP3   OH230379   3.803   0.974   4.930
10141TIP3    H130380   3.826   0.974   4.838
10141TIP3    H230381   3.860   0.908   4.970
10142TIP3   OH230382   5.137   7.574   5.851
10142TIP3    H130383   5.132   7.629   5.930
10142TIP3    H230384   5.072   7.610   5.792
10143TIP3   OH230385   4.782   6.353   0.711
10143TIP3    H130386   4.745   6.403   0.638
10143TIP3    H230387   4.842   6.414   0.753
10144TIP3   OH230388   6.046   5.418   3.772
10144TIP3    H130389   5.964   5.454   3.737
10144TIP3    H230390   6.041   5.325   3.752
10145TIP3   OH230391   3.945   3.684   2.514
10145TIP3    H130392   3.955   3.618   2.445
10145TIP3    H230393   3.914   3.635   2.590
10146TIP3   OH230394   6.083   4.291   4.420
10146TIP3    H130395   6.063   4.223   4.355
10146TIP3    H230396   6.023   4.272   4.492
10147TIP3   OH230397   2.536   4.061   2.832
10147TIP3    H130398   2.483   4.091   2.758
10147TIP3    H230399   2.505   3.973   2.851
10148TIP3   OH230400   7.386   1.566   5.978
10148TIP3    H130401   7.335   1.520   5.910
10148TIP3    H230402   7.353   1.531   6.060
10149TIP3   OH230403   1.684   4.483   1.647
10149TIP3    H130404   1.618   4.507   1.582
10149TIP3    H230405   1.768   4.492   1.600
10150TIP3   OH230406   7.232   3.150   5.831
10150TIP3    H130407   7.242   3.187   5.743
10150TIP3    H230408   7.189   3.065   5.817
10151TIP3   OH230409   1.849   3.555   1.897
10151TIP3    H130410   1.934   3.522   1.867
10151TIP3    H230411   1.870   3.607   1.975
10152TIP3   OH230412   0.919   6.645   1.134
10152TIP3    H130413   0.973   6.566   1.136
10152TIP3    H230414   0.829   6.614   1.147
10153TIP3   OH230415   2.421   6.111   5.433
10153TIP3    H130416   2.335   6.148   5.452
10153TIP3    H230417   2.480   6.186   5.437
10154TIP3   OH230418   5.503   6.762   3.078
10154TIP3    H130419   5.425   6.760   3.134
10154TIP3    H230420   5.510   6.853   3.050
10155TIP3   OH230421   3.216   1.322   1.136
10155TIP3    H130422   3.233   1.289   1.048
10155TIP3    H230423   3.293   1.295   1.186
10156TIP3   OH230424   4.433   7.299   4.071
10156TIP3    H130425   4.456   7.208   4.051
10156TIP3    H230426   4.345   7.310   4.035
10157TIP3   OH230427   4.532   1.072   6.197
10157TIP3    H130428   4.580   0.990   6.199
10157TIP3    H230429   4.440   1.047   6.189
10158TIP3   OH230430   2.933   3.128   1.550
10158TIP3    H130431   2.923   3.036   1.574
10158TIP3    H230432   2.944   3.127   1.455
10159TIP3   OH230433   6.406   6.724   3.802
10159TIP3    H130434   6.345   6.773   3.747
10159TIP3    H230435   6.479   6.784   3.816
10160TIP3   OH230436   4.462   1.877   5.393
10160TIP3    H130437   4.472   1.922   5.309
10160TIP3    H230438   4.489   1.942   5.459
10161TIP3   OH230439   6.211   5.216   3.922
10161TIP3    H130440   6.187   5.304   3.953
10161TIP3    H230441   6.293   5.228   3.875
10162TIP3   OH230442   2.539   7.564   0.722
10162TIP3    H130443   2.511   7.590   0.810
10162TIP3    H230444   2.462   7.580   0.667
10163TIP3   OH230445   0.920   5.888   0.304
10163TIP3    H130446   0.963   5.863   0.385
10163TIP3    H230447   0.976   5.853   0.235
10164TIP3   OH230448   3.270   2.662   2.375
10164TIP3    H130449   3.209   2.626   2.439
10164TIP3    H230450   3.243   2.754   2.366
10165TIP3   OH230451   1.503   3.258   2.053
10165TIP3    H130452   1.442   3.237   1.983
10165TIP3    H230453   1.587   3.272   2.009
10166TIP3   OH230454   0.084   2.708   4.013
10166TIP3    H130455  -0.010   2.716   4.001
10166TIP3    H230456   0.095   2.637   4.077
10167TIP3   OH230457   6.794   6.119   3.128
10167TIP3    H130458   6.725   6.067   3.086
10167TIP3    H230459   6.753   6.153   3.207
10168TIP3   OH230460   3.779   2.698   4.988
10168TIP3    H130461   3.827   2.631   5.036
10168TIP3    H230462   3.776   2.773   5.048
10169TIP3   OH230463   5.787   4.509   2.979
10169TIP3    H130464   5.812   4.601   2.974
10169TIP3    H230465   5.867   4.461   2.956
10170TIP3   OH230466   7.935   1.916   4.059
10170TIP3    H130467   7.904   1.962   4.137
10170TIP3    H230468   7.877   1.945   3.989
10171TIP3   OH230469   2.658   2.281   2.747
10171TIP3    H130470   2.585   2.273   2.685
10171TIP3    H230471   2.648   2.369   2.783
10172TIP3   OH230472   6.685   5.417   2.757
10172TIP3    H130473   6.636   5.415   2.675
10172TIP3    H230474   6.771   5.381   2.734
10173TIP3   OH230475   2.777   6.431   4.462
10173TIP3    H130476   2.866   6.404   4.484
10173TIP3    H230477   2.777   6.439   4.367
10174TIP3   OH230478   6.317   3.355   0.890
10174TIP3    H130479   6.246   3.388   0.835
10174TIP3    H230480   6.314   3.409   0.969
10175TIP3   OH230481   8.012   3.685   6.340
10175TIP3    H130482   8.092   3.647   6.306
10175TIP3    H230483   7.970   3.615   6.389
10176TIP3   OH230484   4.761   4.118   1.510
10176TIP3    H130485   4.806   4.084   1.433
10176TIP3    H230486   4.826   4.172   1.555
10177TIP3   OH230487   5.088   1.337   6.406
10177TIP3    H130488   5.118   1.406   6.346
10177TIP3    H230489   5.146   1.345   6.481
10178TIP3   OH230490   0.034   0.202   2.551
10178TIP3    H130491  -0.050   0.241   2.572
10178TIP3    H230492   0.078   0.266   2.496
10179TIP3   OH230493   2.264   7.730   0.783
10179TIP3    H130494   2.310   7.721   0.867
10179TIP3    H230495   2.189   7.670   0.790
10180TIP3   OH230496   3.147   3.722   1.825
10180TIP3    H130497   3.133   3.667   1.902
10180TIP3    H230498   3.107   3.806   1.848
10181TIP3   OH230499   3.797   4.019   6.094
10181TIP3    H130500   3.887   3.988   6.085
10181TIP3    H230501   3.759   3.962   6.161
10182TIP3   OH230502   3.094   4.008   1.876
10182TIP3    H130503   3.115   4.059   1.954
10182TIP3    H230504   3.137   4.055   1.804
10183TIP3   OH230505   1.540   2.512   2.531
10183TIP3    H130506   1.542   2.497   2.437
10183TIP3    H230507   1.500   2.598   2.541
10184TIP3   OH230508   6.210   4.044   0.419
10184TIP3    H130509   6.131   4.074   0.374
10184TIP3    H230510   6.256   3.990   0.355
10185TIP3   OH230511   5.685   1.729   2.446
10185TIP3    H130512   5.690   1.774   2.531
10185TIP3    H230513   5.737   1.649   2.458
10186TIP3   OH230514   5.496   0.437   5.661
10186TIP3    H130515   5.526   0.350   5.686
10186TIP3    H230516   5.407   0.424   5.628
10187TIP3   OH230517   3.845   6.970   6.128
10187TIP3    H130518   3.914   6.964   6.194
10187TIP3    H230519   3.847   6.884   6.085
10188TIP3   OH230520   3.852   1.887   2.887
10188TIP3    H130521   3.885   1.853   2.970
10188TIP3    H230522   3.814   1.811   2.843
10189TIP3   OH230523   6.125   1.629   0.787
10189TIP3    H130524   6.155   1.615   0.877
10189TIP3    H230525   6.031   1.609   0.790
10190TIP3   OH230526   2.015   6.714   1.958
10190TIP3    H130527   1.926   6.714   1.991
10190TIP3    H230528   2.030   6.624   1.928
10191TIP3   OH230529   2.295   1.503   3.978
10191TIP3    H130530   2.308   1.597   3.966
10191TIP3    H230531   2.376   1.463   3.947
10192TIP3   OH230532   7.991   0.706   4.268
10192TIP3    H130533   7.977   0.612   4.260
10192TIP3    H230534   7.937   0.745   4.199
10193TIP3   OH230535   5.478   5.575   5.455
10193TIP3    H130536   5.410   5.616   5.401
10193TIP3    H230537   5.451   5.591   5.545
10194TIP3   OH230538   1.550   3.904   3.470
10194TIP3    H130539   1.603   3.825   3.466
10194TIP3    H230540   1.587   3.954   3.542
10195TIP3   OH230541   2.867   4.457   6.246
10195TIP3    H130542   2.803   4.417   6.305
10195TIP3    H230543   2.938   4.486   6.304
10196TIP3   OH230544   7.468   4.643   3.500
10196TIP3    H130545   7.445   4.720   3.448
10196TIP3    H230546   7.512   4.584   3.439
10197TIP3   OH230547   1.801   1.839   0.033
10197TIP3    H130548   1.871   1.903   0.022
10197TIP3    H230549   1.742   1.879   0.097
10198TIP3   OH230550   8.241   7.286   1.368
10198TIP3    H130551   8.195   7.216   1.414
10198TIP3    H230552   8.242   7.359   1.429
10199TIP3   OH230553   1.239   5.134   2.819
10199TIP3    H130554   1.176   5.121   2.890
10199TIP3    H230555   1.304   5.194   2.856
10200TIP3   OH230556   0.365   4.267   6.094
10200TIP3    H130557   0.380   4.181   6.056
10200TIP3    H230558   0.356   4.326   6.019
10201TIP3   OH230559   3.524   6.249   2.079
10201TIP3    H130560   3.463   6.182   2.050
10201TIP3    H230561   3.610   6.215   2.054
10202TIP3   OH230562   3.312   5.029   0.680
10202TIP3    H130563   3.309   4.954   0.740
10202TIP3    H230564   3.403   5.058   0.682
10203TIP3   OH230565   5.382   5.838   5.876
10203TIP3    H130566   5.402   5.924   5.839
10203TIP3    H230567   5.309   5.805   5.823
10204TIP3   OH230568   2.066   1.748   2.986
10204TIP3    H130569   2.152   1.747   2.944
10204TIP3    H230570   2.015   1.812   2.936
10205TIP3   OH230571   1.211   2.173   1.553
10205TIP3    H130572   1.201   2.101   1.491
10205TIP3    H230573   1.203   2.252   1.500
10206TIP3   OH230574   7.497   1.321   4.084
10206TIP3    H130575   7.432   1.257   4.111
10206TIP3    H230576   7.559   1.325   4.157
10207TIP3   OH230577   4.542   1.722   4.394
10207TIP3    H130578   4.522   1.667   4.318
10207TIP3    H230579   4.456   1.742   4.432
10208TIP3   OH230580   6.781   3.465   1.845
10208TIP3    H130581   6.751   3.515   1.920
10208TIP3    H230582   6.707   3.410   1.821
10209TIP3   OH230583   6.985   7.428   2.197
10209TIP3    H130584   7.026   7.390   2.275
10209TIP3    H230585   6.904   7.380   2.187
10210TIP3   OH230586   0.880   1.750   5.027
10210TIP3    H130587   0.833   1.675   5.064
10210TIP3    H230588   0.908   1.721   4.941
10211TIP3   OH230589   4.958   2.767   1.921
10211TIP3    H130590   4.989   2.703   1.856
10211TIP3    H230591   4.961   2.719   2.004
10212TIP3   OH230592   3.186   1.588   5.765
10212TIP3    H130593   3.266   1.539   5.745
10212TIP3    H230594   3.137   1.587   5.683
10213TIP3   OH230595   7.996   2.137   0.061
10213TIP3    H130596   7.993   2.045   0.086
10213TIP3    H230597   8.046   2.180   0.131
10214TIP3   OH230598   2.510   4.045   5.985
10214TIP3    H130599   2.509   3.969   5.926
10214TIP3    H230600   2.574   4.105   5.947
10215TIP3   OH230601   7.343   5.269   2.250
10215TIP3    H130602   7.318   5.216   2.326
10215TIP3    H230603   7.262   5.309   2.221
10216TIP3   OH230604   4.267   0.222   0.464
10216TIP3    H130605   4.306   0.135   0.457
10216TIP3    H230606   4.241   0.230   0.555
10217TIP3   OH230607   0.965   7.296   0.180
10217TIP3    H130608   0.991   7.332   0.265
10217TIP3    H230609   0.918   7.215   0.201
10218TIP3   OH230610   7.605   4.942   2.806
10218TIP3    H130611   7.618   4.961   2.713
10218TIP3    H230612   7.567   4.854   2.807
10219TIP3   OH230613   7.760   4.128   6.714
10219TIP3    H130614   7.841   4.077   6.726
10219TIP3    H230615   7.691   4.071   6.747
10220TIP3   OH230616   6.296   5.247   2.840
10220TIP3    H130617   6.339   5.280   2.919
10220TIP3    H230618   6.368   5.222   2.782
10221TIP3   OH230619   7.251   6.804   2.920
10221TIP3    H130620   7.236   6.867   2.850
10221TIP3    H230621   7.327   6.754   2.892
10222TIP3   OH230622   8.118   7.662   4.882
10222TIP3    H130623   8.048   7.656   4.818
10222TIP3    H230624   8.198   7.669   4.830
10223TIP3   OH230625   1.985   0.941   2.070
10223TIP3    H130626   1.925   0.882   2.115
10223TIP3    H230627   1.955   1.029   2.093
10224TIP3   OH230628   4.508   7.520   1.306
10224TIP3    H130629   4.492   7.502   1.213
10224TIP3    H230630   4.443   7.587   1.329
10225TIP3   OH230631   7.657   2.506   1.049
10225TIP3    H130632   7.705   2.527   1.130
10225TIP3    H230633   7.695   2.424   1.019
10226TIP3   OH230634   1.745   5.472   5.164
10226TIP3    H130635   1.801   5.402   5.199
10226TIP3    H230636   1.735   5.533   5.237
10227TIP3   OH230637   5.990   0.275   3.424
10227TIP3    H130638   6.024   0.237   3.505
10227TIP3    H230639   5.989   0.202   3.362
10228TIP3   OH230640   6.365   3.870   1.081
10228TIP3    H130641   6.392   3.793   1.032
10228TIP3    H230642   6.447   3.906   1.117
10229TIP3   OH230643   6.585   4.443   1.596
10229TIP3    H130644   6.520   4.412   1.660
10229TIP3    H230645   6.613   4.364   1.550
10230TIP3   OH230646   5.534   0.172   0.080
10230TIP3    H130647   5.458   0.221   0.050
10230TIP3    H230648   5.600   0.238   0.099
10231TIP3   OH230649   5.478   6.756   0.590
10231TIP3    H130650   5.558   6.720   0.551
10231TIP3    H230651   5.425   6.784   0.514
10232TIP3   OH230652   6.823   0.176   4.394
10232TIP3    H130653   6.748   0.232   4.372
10232TIP3    H230654   6.809   0.096   4.343
10233TIP3   OH230655   1.921   4.082   3.876
10233TIP3    H130656   1.987   4.030   3.830
10233TIP3    H230657   1.883   4.138   3.809
10234TIP3   OH230658   1.229   7.546   2.575
10234TIP3    H130659   1.274   7.462   2.582
10234TIP3    H230660   1.160   7.532   2.511
10235TIP3   OH230661   5.661   6.107   0.585
10235TIP3    H130662   5.604   6.126   0.510
10235TIP3    H230663   5.724   6.179   0.586
10236TIP3   OH230664   7.259   1.313   4.538
10236TIP3    H130665   7.221   1.401   4.535
10236TIP3    H230666   7.328   1.320   4.605
10237TIP3   OH230667   6.206   4.466   6.010
10237TIP3    H130668   6.248   4.425   5.934
10237TIP3    H230669   6.270   4.454   6.081
10238TIP3   OH230670   0.338   0.541   3.698
10238TIP3    H130671   0.417   0.587   3.727
10238TIP3    H230672   0.285   0.610   3.657
10239TIP3   OH230673   7.832   1.450   0.524
10239TIP3    H130674   7.802   1.442   0.614
10239TIP3    H230675   7.751   1.450   0.472
10240TIP3   OH230676   3.643   2.592   1.177
10240TIP3    H130677   3.573   2.593   1.242
10240TIP3    H230678   3.698   2.518   1.202
10241TIP3   OH230679   8.214   3.005   6.716
10241TIP3    H130680   8.134   3.013   6.768
10241TIP3    H230681   8.191   2.944   6.646
10242TIP3   OH230682   1.554   2.332   6.699
10242TIP3    H130683   1.535   2.406   6.642
10242TIP3    H230684   1.556   2.256   6.640
10243TIP3   OH230685   4.411   5.791   5.155
10243TIP3    H130686   4.344   5.783   5.087
10243TIP3    H230687   4.482   5.840   5.114
10244TIP3   OH230688   5.726   5.397   1.694
10244TIP3    H130689   5.792   5.339   1.656
10244TIP3    H230690   5.671   5.421   1.620
10245TIP3   OH230691   6.535   2.575   4.909
10245TIP3    H130692   6.529   2.482   4.888
10245TIP3    H230693   6.457   2.614   4.869
10246TIP3   OH230694   2.073   5.752   1.742
10246TIP3    H130695   1.979   5.757   1.757
10246TIP3    H230696   2.108   5.707   1.819
10247TIP3   OH230697   2.931   5.100   6.323
10247TIP3    H130698   2.995   5.170   6.336
10247TIP3    H230699   2.927   5.055   6.408
10248TIP3   OH230700   7.866   6.353   0.249
10248TIP3    H130701   7.922   6.418   0.291
10248TIP3    H230702   7.910   6.335   0.165
10249TIP3   OH230703   4.657   4.246   3.955
10249TIP3    H130704   4.615   4.248   4.041
10249TIP3    H230705   4.642   4.334   3.919
10250TIP3   OH230706   1.336   6.116   2.091
10250TIP3    H130707   1.294   6.077   2.014
10250TIP3    H230708   1.382   6.193   2.057
10251TIP3   OH230709   5.969   2.554   4.722
10251TIP3    H130710   5.963   2.459   4.709
10251TIP3    H230711   5.982   2.590   4.634
10252TIP3   OH230712   2.965   1.983   2.946
10252TIP3    H130713   2.900   1.915   2.930
10252TIP3    H230714   2.960   2.040   2.869
10253TIP3   OH230715   2.822   6.568   4.690
10253TIP3    H130716   2.841   6.652   4.650
10253TIP3    H230717   2.809   6.508   4.616
10254TIP3   OH230718   2.623   7.145   5.355
10254TIP3    H130719   2.532   7.172   5.344
10254TIP3    H230720   2.632   7.066   5.302
10255TIP3   OH230721   3.253   7.733   4.515
10255TIP3    H130722   3.174   7.785   4.529
10255TIP3    H230723   3.311   7.755   4.588
10256TIP3   OH230724   5.988   6.674   6.011
10256TIP3    H130725   6.014   6.748   5.957
10256TIP3    H230726   6.046   6.602   5.982
10257TIP3   OH230727   5.452   4.498   6.446
10257TIP3    H130728   5.381   4.520   6.384
10257TIP3    H230729   5.408   4.492   6.531
10258TIP3   OH230730   1.586   5.295   5.528
10258TIP3    H130731   1.615   5.221   5.581
10258TIP3    H230732   1.509   5.329   5.574
10259TIP3   OH230733   7.118   6.913   3.428
10259TIP3    H130734   7.185   6.970   3.391
10259TIP3    H230735   7.146   6.825   3.406
10260TIP3   OH230736   2.015   4.973   6.513
10260TIP3    H130737   1.991   5.037   6.446
10260TIP3    H230738   2.024   5.025   6.593
10261TIP3   OH230739   2.904   5.629   4.703
10261TIP3    H130740   2.968   5.661   4.767
10261TIP3    H230741   2.873   5.546   4.740
10262TIP3   OH230742   1.336   7.360   1.722
10262TIP3    H130743   1.251   7.354   1.679
10262TIP3    H230744   1.400   7.360   1.651
10263TIP3   OH230745   3.953   0.042   4.816
10263TIP3    H130746   3.920  -0.009   4.742
10263TIP3    H230747   4.033  -0.004   4.843
10264TIP3   OH230748   7.121   3.855   3.146
10264TIP3    H130749   7.147   3.766   3.167
10264TIP3    H230750   7.025   3.852   3.146
10265TIP3   OH230751   4.969   1.630   4.358
10265TIP3    H130752   5.009   1.575   4.425
10265TIP3    H230753   5.040   1.686   4.327
10266TIP3   OH230754   4.681   7.317   3.516
10266TIP3    H130755   4.732   7.388   3.477
10266TIP3    H230756   4.692   7.244   3.455
10267TIP3   OH230757   1.705   2.586   2.144
10267TIP3    H130758   1.780   2.537   2.176
10267TIP3    H230759   1.742   2.669   2.114
10268TIP3   OH230760   5.184   0.713   1.166
10268TIP3    H130761   5.162   0.804   1.185
10268TIP3    H230762   5.250   0.689   1.231
10269TIP3   OH230763   4.856   2.594   0.392
10269TIP3    H130764   4.774   2.579   0.439
10269TIP3    H230765   4.880   2.684   0.414
10270TIP3   OH230766   0.722   1.122   1.396
10270TIP3    H130767   0.720   1.121   1.301
10270TIP3    H230768   0.634   1.148   1.422
10271TIP3   OH230769   5.098   5.689   4.220
10271TIP3    H130770   5.009   5.706   4.250
10271TIP3    H230771   5.092   5.605   4.175
10272TIP3   OH230772   1.370   5.796   4.951
10272TIP3    H130773   1.354   5.708   4.986
10272TIP3    H230774   1.312   5.853   5.002
10273TIP3   OH230775   0.353   4.999   1.932
10273TIP3    H130776   0.301   4.972   1.856
10273TIP3    H230777   0.320   5.086   1.953
10274TIP3   OH230778   4.608   5.193   5.870
10274TIP3    H130779   4.660   5.254   5.817
10274TIP3    H230780   4.668   5.164   5.938
10275TIP3   OH230781   5.513   1.739   6.600
10275TIP3    H130782   5.461   1.672   6.557
10275TIP3    H230783   5.587   1.753   6.542
10276TIP3   OH230784   5.452   4.588   2.192
10276TIP3    H130785   5.529   4.610   2.141
10276TIP3    H230786   5.448   4.655   2.260
10277TIP3   OH230787   1.556   0.464   2.134
10277TIP3    H130788   1.588   0.375   2.122
10277TIP3    H230789   1.553   0.475   2.229
10278TIP3   OH230790   1.210   6.785   6.178
10278TIP3    H130791   1.287   6.775   6.233
10278TIP3    H230792   1.160   6.856   6.219
10279TIP3   OH230793   3.277   6.635   5.342
10279TIP3    H130794   3.265   6.729   5.355
10279TIP3    H230795   3.229   6.594   5.413
10280TIP3   OH230796   0.244   7.267   5.970
10280TIP3    H130797   0.233   7.356   5.936
10280TIP3    H230798   0.210   7.211   5.900
10281TIP3   OH230799   3.582   2.692   1.686
10281TIP3    H130800   3.490   2.677   1.706
10281TIP3    H230801   3.600   2.634   1.612
10282TIP3   OH230802   3.740   0.983   3.558
10282TIP3    H130803   3.768   0.892   3.570
10282TIP3    H230804   3.733   0.994   3.463
10283TIP3   OH230805   5.097   2.655   5.827
10283TIP3    H130806   5.110   2.569   5.866
10283TIP3    H230807   5.147   2.652   5.745
10284TIP3   OH230808   0.908   1.504   5.552
10284TIP3    H130809   0.982   1.556   5.583
10284TIP3    H230810   0.833   1.562   5.557
10285TIP3   OH230811   7.977   5.798   2.005
10285TIP3    H130812   8.000   5.714   1.965
10285TIP3    H230813   7.949   5.853   1.931
10286TIP3   OH230814   3.835   0.849   2.509
10286TIP3    H130815   3.901   0.855   2.578
10286TIP3    H230816   3.808   0.940   2.494
10287TIP3   OH230817   5.952   6.881   2.601
10287TIP3    H130818   6.009   6.806   2.622
10287TIP3    H230819   5.970   6.899   2.509
10288TIP3   OH230820   5.165   4.959   5.063
10288TIP3    H130821   5.195   4.889   5.121
10288TIP3    H230822   5.201   4.937   4.977
10289TIP3   OH230823   7.400   7.468   6.323
10289TIP3    H130824   7.364   7.539   6.375
10289TIP3    H230825   7.457   7.512   6.259
10290TIP3   OH230826   4.784   7.092   2.435
10290TIP3    H130827   4.832   7.168   2.402
10290TIP3    H230828   4.712   7.130   2.486
10291TIP3   OH230829   4.404   5.582   3.960
10291TIP3    H130830   4.479   5.637   3.984
10291TIP3    H230831   4.444   5.498   3.937
10292TIP3   OH230832   3.471   5.140   5.832
10292TIP3    H130833   3.455   5.108   5.921
10292TIP3    H230834   3.388   5.177   5.804
10293TIP3   OH230835   1.213   4.731   4.558
10293TIP3    H130836   1.247   4.750   4.645
10293TIP3    H230837   1.131   4.779   4.553
10294TIP3   OH230838   2.278   7.132   6.680
10294TIP3    H130839   2.290   7.162   6.770
10294TIP3    H230840   2.366   7.114   6.648
10295TIP3   OH230841   0.228   2.860   4.394
10295TIP3    H130842   0.259   2.937   4.441
10295TIP3    H230843   0.204   2.892   4.308
10296TIP3   OH230844   7.753   7.282   1.964
10296TIP3    H130845   7.830   7.224   1.959
10296TIP3    H230846   7.710   7.257   2.046
10297TIP3   OH230847   4.294   0.896   2.294
10297TIP3    H130848   4.225   0.835   2.322
10297TIP3    H230849   4.363   0.886   2.359
10298TIP3   OH230850   1.646   3.838   4.242
10298TIP3    H130851   1.667   3.809   4.331
10298TIP3    H230852   1.710   3.907   4.223
10299TIP3   OH230853   4.434   7.029   3.170
10299TIP3    H130854   4.444   6.971   3.094
10299TIP3    H230855   4.488   7.105   3.149
10300TIP3   OH230856   6.776   7.004   4.274
10300TIP3    H130857   6.723   6.925   4.261
10300TIP3    H230858   6.808   6.997   4.363
10301TIP3   OH230859   3.577   1.407   3.629
10301TIP3    H130860   3.616   1.494   3.619
10301TIP3    H230861   3.621   1.353   3.564
10302TIP3   OH230862   1.091   4.489   2.155
10302TIP3    H130863   1.182   4.517   2.168
10302TIP3    H230864   1.043   4.531   2.226
10303TIP3   OH230865   3.404   2.071   2.027
10303TIP3    H130866   3.493   2.084   1.996
10303TIP3    H230867   3.410   2.002   2.092
10304TIP3   OH230868   2.956   5.275   3.792
10304TIP3    H130869   2.886   5.211   3.779
10304TIP3    H230870   3.032   5.236   3.750
10305TIP3   OH230871   0.656   0.335   5.925
10305TIP3    H130872   0.722   0.332   5.856
10305TIP3    H230873   0.586   0.390   5.890
10306TIP3   OH230874   4.959   0.154   2.531
10306TIP3    H130875   5.035   0.095   2.532
10306TIP3    H230876   4.995   0.238   2.502
10307TIP3   OH230877   2.701   1.746   4.475
10307TIP3    H130878   2.713   1.750   4.380
10307TIP3    H230879   2.790   1.741   4.510
10308TIP3   OH230880   4.366   4.514   2.677
10308TIP3    H130881   4.446   4.549   2.717
10308TIP3    H230882   4.336   4.448   2.739
10309TIP3   OH230883   3.722   6.888   5.613
10309TIP3    H130884   3.748   6.796   5.619
10309TIP3    H230885   3.788   6.935   5.664
10310TIP3   OH230886   3.007   2.995   6.414
10310TIP3    H130887   3.102   2.994   6.408
10310TIP3    H230888   2.979   2.912   6.377
10311TIP3   OH230889   2.930   5.640   4.414
10311TIP3    H130890   2.903   5.555   4.377
10311TIP3    H230891   2.925   5.627   4.509
10312TIP3   OH230892   6.637   0.597   4.015
10312TIP3    H130893   6.693   0.611   4.091
10312TIP3    H230894   6.696   0.598   3.940
10313TIP3   OH230895   1.286   6.389   5.670
10313TIP3    H130896   1.323   6.419   5.587
10313TIP3    H230897   1.217   6.453   5.690
10314TIP3   OH230898   3.403   0.329   4.635
10314TIP3    H130899   3.425   0.414   4.597
10314TIP3    H230900   3.453   0.324   4.716
10315TIP3   OH230901   4.954   0.099   4.954
10315TIP3    H130902   4.951   0.121   4.860
10315TIP3    H230903   5.034   0.143   4.985
10316TIP3   OH230904   4.419   4.734   3.798
10316TIP3    H130905   4.446   4.737   3.706
10316TIP3    H230906   4.426   4.824   3.828
10317TIP3   OH230907   0.550   5.376   2.901
10317TIP3    H130908   0.464   5.414   2.886
10317TIP3    H230909   0.595   5.440   2.956
10318TIP3   OH230910   2.180   4.655   0.573
10318TIP3    H130911   2.228   4.684   0.651
10318TIP3    H230912   2.155   4.565   0.591
10319TIP3   OH230913   5.498   6.562   5.875
10319TIP3    H130914   5.404   6.571   5.857
10319TIP3    H230915   5.540   6.601   5.798
10320TIP3   OH230916   4.770   7.018   2.847
10320TIP3    H130917   4.773   7.108   2.814
10320TIP3    H230918   4.778   6.964   2.768
10321TIP3   OH230919   6.104   5.651   3.919
10321TIP3    H130920   6.106   5.587   3.991
10321TIP3    H230921   6.090   5.599   3.840
10322TIP3   OH230922   8.051   3.301   3.829
10322TIP3    H130923   8.082   3.214   3.854
10322TIP3    H230924   8.125   3.358   3.847
10323TIP3   OH230925   3.552   6.617   2.947
10323TIP3    H130926   3.609   6.549   2.981
10323TIP3    H230927   3.584   6.698   2.986
10324TIP3   OH230928   7.430   3.263   3.692
10324TIP3    H130929   7.491   3.323   3.649
10324TIP3    H230930   7.475   3.178   3.691
10325TIP3   OH230931   4.150   5.618   2.369
10325TIP3    H130932   4.176   5.626   2.277
10325TIP3    H230933   4.148   5.709   2.400
10326TIP3   OH230934   7.190   2.373   0.678
10326TIP3    H130935   7.193   2.467   0.660
10326TIP3    H230936   7.147   2.335   0.601
10327TIP3   OH230937   7.249   1.126   3.719
10327TIP3    H130938   7.337   1.089   3.713
10327TIP3    H230939   7.194   1.064   3.671
10328TIP3   OH230940   3.214   6.319   5.181
10328TIP3    H130941   3.233   6.330   5.088
10328TIP3    H230942   3.118   6.325   5.186
10329TIP3   OH230943   1.284   6.959   5.612
10329TIP3    H130944   1.312   7.050   5.622
10329TIP3    H230945   1.303   6.938   5.521
10330TIP3   OH230946   4.919   6.615   6.156
10330TIP3    H130947   4.972   6.600   6.078
10330TIP3    H230948   4.863   6.689   6.133
10331TIP3   OH230949   4.015   1.937   0.108
10331TIP3    H130950   3.928   1.914   0.075
10331TIP3    H230951   4.002   2.020   0.155
10332TIP3   OH230952   4.108   4.215   4.122
10332TIP3    H130953   4.172   4.246   4.059
10332TIP3    H230954   4.141   4.246   4.207
10333TIP3   OH230955   3.924   0.276   1.821
10333TIP3    H130956   3.922   0.340   1.750
10333TIP3    H230957   3.845   0.224   1.808
10334TIP3   OH230958   4.858   7.010   4.794
10334TIP3    H130959   4.837   7.103   4.780
10334TIP3    H230960   4.772   6.967   4.796
10335TIP3   OH230961   1.672   1.047   2.600
10335TIP3    H130962   1.617   1.072   2.674
10335TIP3    H230963   1.671   0.951   2.602
10336TIP3   OH230964   5.102   6.117   6.492
10336TIP3    H130965   5.144   6.156   6.416
10336TIP3    H230966   5.021   6.167   6.503
10337TIP3   OH230967   4.548   0.226   5.045
10337TIP3    H130968   4.552   0.273   4.962
10337TIP3    H230969   4.545   0.134   5.021
10338TIP3   OH230970   0.698   0.350   0.462
10338TIP3    H130971   0.667   0.259   0.471
10338TIP3    H230972   0.689   0.368   0.368
10339TIP3   OH230973   1.495   0.787   1.373
10339TIP3    H130974   1.584   0.823   1.380
10339TIP3    H230975   1.440   0.864   1.356
10340TIP3   OH230976   5.391   7.297   4.541
10340TIP3    H130977   5.344   7.351   4.478
10340TIP3    H230978   5.348   7.315   4.624
10341TIP3   OH230979   2.708   2.247   4.515
10341TIP3    H130980   2.756   2.169   4.544
10341TIP3    H230981   2.773   2.298   4.466
10342TIP3   OH230982   3.688   3.868   3.842
10342TIP3    H130983   3.752   3.844   3.910
10342TIP3    H230984   3.603   3.860   3.885
10343TIP3   OH230985   4.356   5.854   1.369
10343TIP3    H130986   4.276   5.841   1.420
10343TIP3    H230987   4.397   5.768   1.366
10344TIP3   OH230988   0.709   6.252   0.370
10344TIP3    H130989   0.617   6.258   0.396
10344TIP3    H230990   0.741   6.342   0.373
10345TIP3   OH230991   4.931   5.821   4.527
10345TIP3    H130992   4.884   5.789   4.603
10345TIP3    H230993   5.019   5.785   4.535
10346TIP3   OH230994   8.120   1.490   4.533
10346TIP3    H130995   8.213   1.506   4.520
10346TIP3    H230996   8.076   1.561   4.487
10347TIP3   OH230997   5.386   4.222   2.250
10347TIP3    H130998   5.409   4.192   2.162
10347TIP3    H230999   5.313   4.282   2.236
10348TIP3   OH231000   2.163   7.692   3.516
10348TIP3    H131001   2.211   7.609   3.519
10348TIP3    H231002   2.131   7.704   3.605
10349TIP3   OH231003   2.976   3.299   4.454
10349TIP3    H131004   3.037   3.336   4.390
10349TIP3    H231005   2.951   3.214   4.416
10350TIP3   OH231006   3.698   4.853   1.545
10350TIP3    H131007   3.681   4.946   1.530
10350TIP3    H231008   3.793   4.845   1.541
10351TIP3   OH231009   6.570   2.477   2.226
10351TIP3    H131010   6.606   2.401   2.271
10351TIP3    H231011   6.586   2.460   2.133
10352TIP3   OH231012   8.254   0.557   0.301
10352TIP3    H131013   8.338   0.604   0.297
10352TIP3    H231014   8.270   0.486   0.364
10353TIP3   OH231015   7.467   4.131   5.277
10353TIP3    H131016   7.372   4.141   5.278
10353TIP3    H231017   7.499   4.194   5.342
10354TIP3   OH231018   3.882   2.237   4.691
10354TIP3    H131019   3.943   2.222   4.619
10354TIP3    H231020   3.860   2.330   4.684
10355TIP3   OH231021   4.211   7.346   2.677
10355TIP3    H131022   4.120   7.338   2.705
10355TIP3    H231023   4.209   7.332   2.583
10356TIP3   OH231024   1.786   0.411   3.850
10356TIP3    H131025   1.844   0.467   3.903
10356TIP3    H231026   1.789   0.451   3.763
10357TIP3   OH231027   6.802   0.404   0.320
10357TIP3    H131028   6.753   0.336   0.367
10357TIP3    H231029   6.747   0.426   0.245
10358TIP3   OH231030   2.935   1.437   2.377
10358TIP3    H131031   2.846   1.446   2.342
10358TIP3    H231032   2.991   1.449   2.300
10359TIP3   OH231033   5.374   6.083   4.603
10359TIP3    H131034   5.338   6.014   4.547
10359TIP3    H231035   5.391   6.040   4.686
10360TIP3   OH231036   3.226   0.422   2.730
10360TIP3    H131037   3.197   0.331   2.742
10360TIP3    H231038   3.195   0.467   2.808
10361TIP3   OH231039   6.964   3.692   1.380
10361TIP3    H131040   6.992   3.659   1.465
10361TIP3    H231041   7.043   3.687   1.325
10362TIP3   OH231042   0.854   7.737   3.701
10362TIP3    H131043   0.841   7.781   3.785
10362TIP3    H231044   0.928   7.782   3.661
10363TIP3   OH231045   1.830   6.196   0.618
10363TIP3    H131046   1.742   6.225   0.640
10363TIP3    H231047   1.873   6.182   0.702
10364TIP3   OH231048   0.305   5.549   6.221
10364TIP3    H131049   0.351   5.495   6.286
10364TIP3    H231050   0.355   5.536   6.140
10365TIP3   OH231051   8.242   4.563   0.174
10365TIP3    H131052   8.331   4.534   0.155
10365TIP3    H231053   8.204   4.584   0.088
10366TIP3   OH231054   1.731   6.913   1.933
10366TIP3    H131055   1.752   6.994   1.980
10366TIP3    H231056   1.810   6.892   1.884
10367TIP3   OH231057   3.865   5.809   6.545
10367TIP3    H131058   3.951   5.847   6.561
10367TIP3    H231059   3.884   5.718   6.520
10368TIP3   OH231060   2.853   3.995   1.758
10368TIP3    H131061   2.934   3.997   1.808
10368TIP3    H231062   2.859   4.071   1.700
10369TIP3   OH231063   4.209   2.272   3.684
10369TIP3    H131064   4.288   2.325   3.672
10369TIP3    H231065   4.137   2.328   3.657
10370TIP3   OH231066   5.329   1.751   3.029
10370TIP3    H131067   5.397   1.803   3.070
10370TIP3    H231068   5.338   1.768   2.935
10371TIP3   OH231069   1.397   2.181   2.413
10371TIP3    H131070   1.418   2.274   2.412
10371TIP3    H231071   1.426   2.151   2.499
10372TIP3   OH231072   7.245   3.791   0.037
10372TIP3    H131073   7.206   3.736   0.105
10372TIP3    H231074   7.333   3.754   0.024
10373TIP3   OH231075   1.396   0.294   6.230
10373TIP3    H131076   1.328   0.256   6.173
10373TIP3    H231077   1.350   0.358   6.284
10374TIP3   OH231078   3.849   1.326   3.868
10374TIP3    H131079   3.820   1.346   3.957
10374TIP3    H231080   3.770   1.297   3.823
10375TIP3   OH231081   7.329   3.048   5.054
10375TIP3    H131082   7.366   3.049   5.143
10375TIP3    H231083   7.250   2.995   5.062
10376TIP3   OH231084   5.675   1.439   4.749
10376TIP3    H131085   5.637   1.526   4.734
10376TIP3    H231086   5.638   1.384   4.680
10377TIP3   OH231087   3.834   2.289   2.855
10377TIP3    H131088   3.843   2.380   2.827
10377TIP3    H231089   3.905   2.243   2.809
10378TIP3   OH231090   2.591   1.317   4.981
10378TIP3    H131091   2.508   1.306   5.026
10378TIP3    H231092   2.656   1.282   5.042
10379TIP3   OH231093   0.461   1.830   0.720
10379TIP3    H131094   0.460   1.749   0.770
10379TIP3    H231095   0.551   1.862   0.726
10380TIP3   OH231096   5.767   1.817   1.324
10380TIP3    H131097   5.708   1.892   1.321
10380TIP3    H231098   5.743   1.771   1.404
10381TIP3   OH231099   2.466   0.532   3.417
10381TIP3    H131100   2.522   0.471   3.464
10381TIP3    H231101   2.510   0.546   3.333
10382TIP3   OH231102   6.528   4.248   4.963
10382TIP3    H131103   6.472   4.258   5.041
10382TIP3    H231104   6.517   4.330   4.916
10383TIP3   OH231105   2.203   6.818   3.390
10383TIP3    H131106   2.186   6.841   3.299
10383TIP3    H231107   2.176   6.895   3.440
10384TIP3   OH231108   5.795   0.923   0.522
10384TIP3    H131109   5.844   0.953   0.598
10384TIP3    H231110   5.861   0.894   0.460
10385TIP3   OH231111   7.096   5.575   1.673
10385TIP3    H131112   7.115   5.539   1.760
10385TIP3    H231113   7.168   5.544   1.618
10386TIP3   OH231114   5.390   1.956   3.696
10386TIP3    H131115   5.424   1.876   3.656
10386TIP3    H231116   5.398   1.941   3.790
10387TIP3   OH231117   3.233   6.400   1.959
10387TIP3    H131118   3.288   6.344   1.904
10387TIP3    H231119   3.176   6.339   2.006
10388TIP3   OH231120   1.942   4.137   0.244
10388TIP3    H131121   1.973   4.066   0.188
10388TIP3    H231122   1.961   4.217   0.196
10389TIP3   OH231123   0.184   2.705   3.226
10389TIP3    H131124   0.092   2.701   3.252
10389TIP3    H231125   0.219   2.781   3.273
10390TIP3   OH231126   1.813   2.327   1.350
10390TIP3    H131127   1.721   2.333   1.323
10390TIP3    H231128   1.860   2.383   1.288
10391TIP3   OH231129   4.146   4.816   1.467
10391TIP3    H131130   4.066   4.837   1.419
10391TIP3    H231131   4.171   4.898   1.509
10392TIP3   OH231132   2.739   0.277   3.897
10392TIP3    H131133   2.669   0.275   3.832
10392TIP3    H231134   2.764   0.185   3.907
10393TIP3   OH231135   4.064   5.248   4.272
10393TIP3    H131136   3.989   5.213   4.225
10393TIP3    H231137   4.043   5.341   4.285
10394TIP3   OH231138   6.938   2.041   2.482
10394TIP3    H131139   6.978   1.958   2.458
10394TIP3    H231140   6.882   2.020   2.558
10395TIP3   OH231141   6.892   7.633   3.458
10395TIP3    H131142   6.980   7.662   3.433
10395TIP3    H231143   6.837   7.655   3.382
10396TIP3   OH231144   8.204   0.283   6.326
10396TIP3    H131145   8.218   0.215   6.260
10396TIP3    H231146   8.292   0.320   6.340
10397TIP3   OH231147   2.663   4.121   4.537
10397TIP3    H131148   2.673   4.126   4.632
10397TIP3    H231149   2.577   4.160   4.520
10398TIP3   OH231150   5.137   7.268   5.966
10398TIP3    H131151   5.118   7.290   5.875
10398TIP3    H231152   5.145   7.352   6.011
10399TIP3   OH231153   2.597   0.721   1.260
10399TIP3    H131154   2.647   0.802   1.247
10399TIP3    H231155   2.636   0.680   1.337
10400TIP3   OH231156   0.051   1.826   2.269
10400TIP3    H131157   0.097   1.901   2.308
10400TIP3    H231158  -0.039   1.856   2.259
10401TIP3   OH231159   1.982   2.690   0.481
10401TIP3    H131160   1.940   2.607   0.504
10401TIP3    H231161   1.913   2.755   0.487
10402TIP3   OH231162   5.332   0.911   1.695
10402TIP3    H131163   5.259   0.911   1.633
10402TIP3    H231164   5.392   0.845   1.662
10403TIP3   OH231165   6.966   4.203   5.253
10403TIP3    H131166   6.889   4.149   5.275
10403TIP3    H231167   6.938   4.292   5.273
10404TIP3   OH231168   5.933   3.227   5.250
10404TIP3    H131169   5.975   3.310   5.228
10404TIP3    H231170   6.002   3.175   5.290
10405TIP3   OH231171   7.604   5.792   1.770
10405TIP3    H131172   7.580   5.754   1.855
10405TIP3    H231173   7.683   5.842   1.787
10406TIP3   OH231174   5.342   3.302   6.297
10406TIP3    H131175   5.258   3.333   6.263
10406TIP3    H231176   5.399   3.297   6.220
10407TIP3   OH231177   7.668   1.233   5.097
10407TIP3    H131178   7.699   1.323   5.107
10407TIP3    H231179   7.620   1.216   5.178
10408TIP3   OH231180   0.246   6.991   2.640
10408TIP3    H131181   0.295   7.030   2.568
10408TIP3    H231182   0.311   6.979   2.709
10409TIP3   OH231183   7.816   4.269   3.846
10409TIP3    H131184   7.863   4.265   3.929
10409TIP3    H231185   7.726   4.290   3.870
10410TIP3   OH231186   1.845   0.865   0.889
10410TIP3    H131187   1.816   0.840   0.801
10410TIP3    H231188   1.779   0.927   0.920
10411TIP3   OH231189   1.736   4.708   5.317
10411TIP3    H131190   1.824   4.746   5.311
10411TIP3    H231191   1.681   4.769   5.268
10412TIP3   OH231192   7.900   2.304   5.192
10412TIP3    H131193   7.891   2.343   5.105
10412TIP3    H231194   7.821   2.250   5.202
10413TIP3   OH231195   0.453   2.711   6.092
10413TIP3    H131196   0.445   2.745   6.003
10413TIP3    H231197   0.523   2.646   6.087
10414TIP3   OH231198   6.268   0.126   6.635
10414TIP3    H131199   6.252   0.217   6.660
10414TIP3    H231200   6.237   0.075   6.710
10415TIP3   OH231201   7.971   7.532   1.575
10415TIP3    H131202   7.995   7.609   1.627
10415TIP3    H231203   8.054   7.495   1.546
10416TIP3   OH231204   6.385   5.254   3.722
10416TIP3    H131205   6.406   5.341   3.690
10416TIP3    H231206   6.463   5.202   3.702
10417TIP3   OH231207   4.490   6.291   0.696
10417TIP3    H131208   4.464   6.228   0.629
10417TIP3    H231209   4.558   6.344   0.655
10418TIP3   OH231210   1.124   3.748   4.506
10418TIP3    H131211   1.158   3.790   4.428
10418TIP3    H231212   1.199   3.703   4.545
10419TIP3   OH231213   2.943   2.373   1.136
10419TIP3    H131214   2.973   2.341   1.051
10419TIP3    H231215   2.916   2.294   1.183
10420TIP3   OH231216   4.847   5.614   0.914
10420TIP3    H131217   4.767   5.562   0.915
10420TIP3    H231218   4.875   5.616   1.006
10421TIP3   OH231219   3.857   3.784   0.532
10421TIP3    H131220   3.942   3.828   0.521
10421TIP3    H231221   3.800   3.851   0.568
10422TIP3   OH231222   1.527   0.048   5.151
10422TIP3    H131223   1.495   0.136   5.170
10422TIP3    H231224   1.593   0.032   5.218
10423TIP3   OH231225   6.576   4.438   0.042
10423TIP3    H131226   6.574   4.361  -0.015
10423TIP3    H231227   6.631   4.412   0.116
10424TIP3   OH231228   6.423   4.438   4.413
10424TIP3    H131229   6.368   4.398   4.345
10424TIP3    H231230   6.388   4.526   4.424
10425TIP3   OH231231   0.156   5.267   1.636
10425TIP3    H131232   0.155   5.209   1.559
10425TIP3    H231233   0.248   5.291   1.647
10426TIP3   OH231234   0.012   7.612   0.538
10426TIP3    H131235  -0.033   7.647   0.461
10426TIP3    H231236  -0.021   7.523   0.547
10427TIP3   OH231237   4.382   1.170   0.849
10427TIP3    H131238   4.335   1.147   0.929
10427TIP3    H231239   4.398   1.264   0.858
10428TIP3   OH231240   7.667   4.490   5.743
10428TIP3    H131241   7.751   4.515   5.704
10428TIP3    H231242   7.688   4.466   5.833
10429TIP3   OH231243   3.287   6.855   3.810
10429TIP3    H131244   3.274   6.948   3.789
10429TIP3    H231245   3.375   6.851   3.845
10430TIP3   OH231246   4.463   5.887   2.813
10430TIP3    H131247   4.508   5.941   2.748
10430TIP3    H231248   4.444   5.805   2.767
10431TIP3   OH231249   7.326   4.218   1.823
10431TIP3    H131250   7.395   4.264   1.775
10431TIP3    H231251   7.249   4.274   1.814
10432TIP3   OH231252   2.409   3.310   1.730
10432TIP3    H131253   2.493   3.325   1.687
10432TIP3    H231254   2.354   3.271   1.662
10433TIP3   OH231255   4.384   3.277   5.748
10433TIP3    H131256   4.375   3.186   5.777
10433TIP3    H231257   4.363   3.329   5.825
10434TIP3   OH231258   1.787   3.364   5.562
10434TIP3    H131259   1.825   3.420   5.629
10434TIP3    H231260   1.793   3.415   5.481
10435TIP3   OH231261   6.278   1.007   3.658
10435TIP3    H131262   6.219   1.072   3.697
10435TIP3    H231263   6.309   0.955   3.733
10436TIP3   OH231264   3.295   3.229   5.557
10436TIP3    H131265   3.354   3.226   5.482
10436TIP3    H231266   3.352   3.252   5.631
10437TIP3   OH231267   8.275   2.127   2.786
10437TIP3    H131268   8.225   2.118   2.705
10437TIP3    H231269   8.239   2.205   2.828
10438TIP3   OH231270   7.061   4.468   6.751
10438TIP3    H131271   7.093   4.392   6.703
10438TIP3    H231272   7.039   4.532   6.683
10439TIP3   OH231273   1.524   4.793   3.575
10439TIP3    H131274   1.452   4.854   3.561
10439TIP3    H231275   1.491   4.708   3.546
10440TIP3   OH231276   6.355   5.348   4.535
10440TIP3    H131277   6.316   5.262   4.551
10440TIP3    H231278   6.280   5.406   4.519
10441TIP3   OH231279   6.591   5.458   4.758
10441TIP3    H131280   6.577   5.365   4.777
10441TIP3    H231281   6.558   5.469   4.669
10442TIP3   OH231282   0.933   6.769   4.252
10442TIP3    H131283   0.986   6.720   4.189
10442TIP3    H231284   0.908   6.704   4.317
10443TIP3   OH231285   0.379   3.770   6.161
10443TIP3    H131286   0.471   3.774   6.185
10443TIP3    H231287   0.333   3.753   6.243
10444TIP3   OH231288   2.392   0.906   5.934
10444TIP3    H131289   2.477   0.896   5.975
10444TIP3    H231290   2.331   0.921   6.007
10445TIP3   OH231291   1.866   5.597   4.466
10445TIP3    H131292   1.796   5.622   4.405
10445TIP3    H231293   1.941   5.577   4.409
10446TIP3   OH231294   6.494   3.036   4.771
10446TIP3    H131295   6.555   3.098   4.732
10446TIP3    H231296   6.429   3.021   4.703
10447TIP3   OH231297   1.311   1.914   3.826
10447TIP3    H131298   1.315   1.820   3.846
10447TIP3    H231299   1.283   1.917   3.734
10448TIP3   OH231300   0.671   6.776   6.305
10448TIP3    H131301   0.687   6.706   6.368
10448TIP3    H231302   0.597   6.825   6.342
10449TIP3   OH231303   5.335   0.858   5.512
10449TIP3    H131304   5.258   0.821   5.556
10449TIP3    H231305   5.306   0.872   5.421
10450TIP3   OH231306   3.889   2.526   4.656
10450TIP3    H131307   3.952   2.531   4.728
10450TIP3    H231308   3.939   2.554   4.579
10451TIP3   OH231309   2.369   5.272   3.995
10451TIP3    H131310   2.411   5.329   4.059
10451TIP3    H231311   2.417   5.287   3.914
10452TIP3   OH231312   5.070   3.573   0.599
10452TIP3    H131313   5.117   3.555   0.518
10452TIP3    H231314   5.031   3.660   0.586
10453TIP3   OH231315   4.672   7.577   2.836
10453TIP3    H131316   4.735   7.649   2.827
10453TIP3    H231317   4.685   7.546   2.926
10454TIP3   OH231318   1.557   0.799   2.147
10454TIP3    H131319   1.648   0.772   2.161
10454TIP3    H231320   1.525   0.820   2.235
10455TIP3   OH231321   6.843   1.067   2.660
10455TIP3    H131322   6.778   1.077   2.591
10455TIP3    H231323   6.813   0.991   2.711
10456TIP3   OH231324   0.412   6.653   6.742
10456TIP3    H131325   0.449   6.596   6.675
10456TIP3    H231326   0.339   6.604   6.779
10457TIP3   OH231327   0.093   1.710   1.331
10457TIP3    H131328   0.109   1.769   1.404
10457TIP3    H231329   0.043   1.637   1.368
10458TIP3   OH231330   2.244   2.832   4.185
10458TIP3    H131331   2.229   2.905   4.124
10458TIP3    H231332   2.339   2.822   4.186
10459TIP3   OH231333   5.102   3.374   5.558
10459TIP3    H131334   5.086   3.423   5.638
10459TIP3    H231335   5.116   3.284   5.587
10460TIP3   OH231336   7.603   2.549   2.484
10460TIP3    H131337   7.583   2.466   2.528
10460TIP3    H231338   7.690   2.573   2.517
10461TIP3   OH231339   5.208   0.911   0.239
10461TIP3    H131340   5.127   0.893   0.286
10461TIP3    H231341   5.215   0.841   0.174
10462TIP3   OH231342   4.674   0.790   3.598
10462TIP3    H131343   4.750   0.846   3.581
10462TIP3    H231344   4.693   0.709   3.552
10463TIP3   OH231345   4.505   6.512   5.962
10463TIP3    H131346   4.508   6.571   5.886
10463TIP3    H231347   4.503   6.570   6.038
10464TIP3   OH231348   7.466   7.025   5.891
10464TIP3    H131349   7.443   6.996   5.802
10464TIP3    H231350   7.557   7.053   5.883
10465TIP3   OH231351   3.568   1.630   4.970
10465TIP3    H131352   3.523   1.712   4.953
10465TIP3    H231353   3.498   1.564   4.973
10466TIP3   OH231354   1.861   5.196   0.622
10466TIP3    H131355   1.932   5.148   0.580
10466TIP3    H231356   1.786   5.137   0.617
10467TIP3   OH231357   2.254   1.111   2.910
10467TIP3    H131358   2.341   1.129   2.874
10467TIP3    H231359   2.270   1.089   3.002
10468TIP3   OH231360   4.575   6.302   0.277
10468TIP3    H131361   4.541   6.354   0.205
10468TIP3    H231362   4.659   6.343   0.299
10469TIP3   OH231363   7.872   2.373   5.729
10469TIP3    H131364   7.938   2.312   5.761
10469TIP3    H231365   7.884   2.373   5.634
10470TIP3   OH231366   8.256   3.350   0.647
10470TIP3    H131367   8.215   3.323   0.565
10470TIP3    H231368   8.193   3.410   0.687
10471TIP3   OH231369   1.311   5.174   4.242
10471TIP3    H131370   1.373   5.184   4.314
10471TIP3    H231371   1.326   5.251   4.187
10472TIP3   OH231372   5.682   0.086   3.351
10472TIP3    H131373   5.712   0.019   3.412
10472TIP3    H231374   5.708   0.054   3.265
10473TIP3   OH231375   4.128   7.800   5.357
10473TIP3    H131376   4.043   7.843   5.358
10473TIP3    H231377   4.138   7.766   5.446
10474TIP3   OH231378   4.396   2.989   3.844
10474TIP3    H131379   4.377   2.914   3.788
10474TIP3    H231380   4.491   2.983   3.860
10475TIP3   OH231381   1.265   5.796   6.551
10475TIP3    H131382   1.210   5.755   6.618
10475TIP3    H231383   1.218   5.876   6.528
10476TIP3   OH231384   4.248   5.207   2.940
10476TIP3    H131385   4.173   5.172   2.891
10476TIP3    H231386   4.233   5.302   2.941
10477TIP3   OH231387   0.925   6.299   2.271
10477TIP3    H131388   0.848   6.310   2.326
10477TIP3    H231389   0.984   6.244   2.323
10478TIP3   OH231390   4.580   7.044   4.510
10478TIP3    H131391   4.566   7.108   4.579
10478TIP3    H231392   4.496   7.038   4.465
10479TIP3   OH231393   1.623   6.987   2.243
10479TIP3    H131394   1.643   6.924   2.173
10479TIP3    H231395   1.676   6.958   2.317
10480TIP3   OH231396   5.751   6.632   4.901
10480TIP3    H131397   5.805   6.697   4.947
10480TIP3    H231398   5.746   6.664   4.811
10481TIP3   OH231399   0.481   4.072   5.941
10481TIP3    H131400   0.502   3.979   5.952
10481TIP3    H231401   0.528   4.098   5.862
10482TIP3   OH231402   3.832   7.292   5.741
10482TIP3    H131403   3.904   7.300   5.803
10482TIP3    H231404   3.864   7.332   5.660
10483TIP3   OH231405   6.155   1.416   6.195
10483TIP3    H131406   6.238   1.387   6.157
10483TIP3    H231407   6.176   1.435   6.286
10484TIP3   OH231408   4.428   0.430   2.000
10484TIP3    H131409   4.473   0.348   1.981
10484TIP3    H231410   4.365   0.440   1.928
10485TIP3   OH231411   7.264   4.570   3.670
10485TIP3    H131412   7.268   4.654   3.717
10485TIP3    H231413   7.354   4.554   3.643
10486TIP3   OH231414   5.890   6.475   4.496
10486TIP3    H131415   5.840   6.548   4.532
10486TIP3    H231416   5.897   6.413   4.568
10487TIP3   OH231417   6.336   4.832   3.087
10487TIP3    H131418   6.253   4.846   3.041
10487TIP3    H231419   6.399   4.885   3.038
10488TIP3   OH231420   1.257   0.648   2.897
10488TIP3    H131421   1.212   0.596   2.965
10488TIP3    H231422   1.258   0.737   2.932
10489TIP3   OH231423   2.418   6.300   0.150
10489TIP3    H131424   2.453   6.390   0.150
10489TIP3    H231425   2.328   6.309   0.179
10490TIP3   OH231426   1.407   5.421   1.539
10490TIP3    H131427   1.370   5.393   1.623
10490TIP3    H231428   1.468   5.491   1.562
10491TIP3   OH231429   5.698   3.933   1.015
10491TIP3    H131430   5.633   3.920   0.947
10491TIP3    H231431   5.774   3.969   0.970
10492TIP3   OH231432   1.583   7.621   4.673
10492TIP3    H131433   1.648   7.576   4.727
10492TIP3    H231434   1.632   7.650   4.596
10493TIP3   OH231435   4.158   7.358   4.804
10493TIP3    H131436   4.095   7.404   4.859
10493TIP3    H231437   4.230   7.336   4.864
10494TIP3   OH231438   6.648   7.623   6.612
10494TIP3    H131439   6.692   7.539   6.626
10494TIP3    H231440   6.719   7.686   6.602
10495TIP3   OH231441   1.613   2.803   6.138
10495TIP3    H131442   1.624   2.828   6.230
10495TIP3    H231443   1.670   2.862   6.090
10496TIP3   OH231444   0.251   5.941   0.797
10496TIP3    H131445   0.177   5.946   0.736
10496TIP3    H231446   0.248   5.850   0.829
10497TIP3   OH231447   0.665   3.737   4.711
10497TIP3    H131448   0.738   3.799   4.714
10497TIP3    H231449   0.587   3.793   4.701
10498TIP3   OH231450   5.088   7.501   1.674
10498TIP3    H131451   5.063   7.443   1.602
10498TIP3    H231452   5.027   7.480   1.745
10499TIP3   OH231453   3.289   4.377   1.660
10499TIP3    H131454   3.302   4.371   1.566
10499TIP3    H231455   3.256   4.466   1.674
10500TIP3   OH231456   4.420   1.706   6.048
10500TIP3    H131457   4.469   1.784   6.075
10500TIP3    H231458   4.331   1.722   6.078
10501TIP3   OH231459   6.790   3.951   6.439
10501TIP3    H131460   6.864   3.910   6.485
10501TIP3    H231461   6.824   4.037   6.412
10502TIP3   OH231462   1.870   4.644   0.119
10502TIP3    H131463   1.898   4.691   0.198
10502TIP3    H231464   1.782   4.678   0.101
10503TIP3   OH231465   5.975   5.869   6.289
10503TIP3    H131466   5.969   5.804   6.218
10503TIP3    H231467   6.007   5.948   6.246
10504TIP3   OH231468   0.962   0.536   0.569
10504TIP3    H131469   0.875   0.521   0.607
10504TIP3    H231470   0.947   0.597   0.497
10505TIP3   OH231471   0.308   5.391   5.419
10505TIP3    H131472   0.263   5.321   5.467
10505TIP3    H231473   0.238   5.449   5.390
10506TIP3   OH231474   4.246   7.794   1.735
10506TIP3    H131475   4.329   7.748   1.747
10506TIP3    H231476   4.270   7.887   1.734
10507TIP3   OH231477   0.174   2.964   3.906
10507TIP3    H131478   0.157   2.872   3.887
10507TIP3    H231479   0.260   2.981   3.870
10508TIP3   OH231480   5.554   2.370   0.045
10508TIP3    H131481   5.543   2.307  -0.026
10508TIP3    H231482   5.466   2.404   0.061
10509TIP3   OH231483   8.060   1.519   0.353
10509TIP3    H131484   7.991   1.464   0.391
10509TIP3    H231485   8.014   1.596   0.320
10510TIP3   OH231486   3.522   4.410   5.244
10510TIP3    H131487   3.580   4.482   5.220
10510TIP3    H231488   3.538   4.342   5.178
10511TIP3   OH231489   6.086   1.451   2.038
10511TIP3    H131490   6.159   1.424   1.982
10511TIP3    H231491   6.010   1.450   1.980
10512TIP3   OH231492   7.539   0.310   0.325
10512TIP3    H131493   7.633   0.289   0.326
10512TIP3    H231494   7.513   0.295   0.234
10513TIP3   OH231495   3.392   0.592   0.391
10513TIP3    H131496   3.318   0.551   0.346
10513TIP3    H231497   3.440   0.519   0.430
10514TIP3   OH231498   1.522   5.646   6.585
10514TIP3    H131499   1.449   5.707   6.599
10514TIP3    H231500   1.501   5.602   6.503
10515TIP3   OH231501   5.559   4.581   0.934
10515TIP3    H131502   5.542   4.518   1.004
10515TIP3    H231503   5.501   4.554   0.863
10516TIP3   OH231504   7.253   5.211   1.612
10516TIP3    H131505   7.245   5.116   1.606
10516TIP3    H231506   7.214   5.233   1.697
10517TIP3   OH231507   1.204   5.024   0.264
10517TIP3    H131508   1.260   5.016   0.187
10517TIP3    H231509   1.248   5.089   0.318
10518TIP3   OH231510   0.825   7.666   0.269
10518TIP3    H131511   0.871   7.670   0.185
10518TIP3    H231512   0.733   7.657   0.245
10519TIP3   OH231513   7.632   0.526   3.586
10519TIP3    H131514   7.602   0.583   3.516
10519TIP3    H231515   7.553   0.504   3.635
10520TIP3   OH231516   1.747   3.005   0.212
10520TIP3    H131517   1.684   2.934   0.220
10520TIP3    H231518   1.762   3.035   0.302
10521TIP3   OH231519   8.045   0.753   4.527
10521TIP3    H131520   8.037   0.734   4.433
10521TIP3    H231521   8.079   0.843   4.530
10522TIP3   OH231522   7.792   2.577   0.767
10522TIP3    H131523   7.729   2.510   0.794
10522TIP3    H231524   7.862   2.572   0.832
10523TIP3   OH231525   1.642   5.427   0.108
10523TIP3    H131526   1.550   5.428   0.082
10523TIP3    H231527   1.674   5.342   0.079
10524TIP3   OH231528   5.874   1.069   2.435
10524TIP3    H131529   5.936   1.047   2.365
10524TIP3    H231530   5.920   1.135   2.488
10525TIP3   OH231531   7.261   5.909   0.542
10525TIP3    H131532   7.202   5.909   0.467
10525TIP3    H231533   7.250   5.823   0.582
10526TIP3   OH231534   2.456   4.506   2.210
10526TIP3    H131535   2.541   4.522   2.251
10526TIP3    H231536   2.395   4.500   2.283
10527TIP3   OH231537   4.159   6.023   2.703
10527TIP3    H131538   4.155   6.118   2.692
10527TIP3    H231539   4.093   6.003   2.769
10528TIP3   OH231540   7.218   0.799   1.906
10528TIP3    H131541   7.276   0.819   1.980
10528TIP3    H231542   7.224   0.876   1.850
10529TIP3   OH231543   6.920   5.445   3.713
10529TIP3    H131544   6.983   5.397   3.768
10529TIP3    H231545   6.858   5.483   3.775
10530TIP3   OH231546   3.761   6.618   0.053
10530TIP3    H131547   3.739   6.526   0.067
10530TIP3    H231548   3.848   6.616   0.012
10531TIP3   OH231549   3.515   0.771   0.053
10531TIP3    H131550   3.582   0.839   0.045
10531TIP3    H231551   3.485   0.757  -0.037
10532TIP3   OH231552   1.524   4.799   3.107
10532TIP3    H131553   1.573   4.882   3.100
10532TIP3    H231554   1.469   4.798   3.029
10533TIP3   OH231555   7.632   6.238   6.554
10533TIP3    H131556   7.686   6.223   6.476
10533TIP3    H231557   7.694   6.273   6.619
10534TIP3   OH231558   1.845   0.233   6.446
10534TIP3    H131559   1.812   0.322   6.435
10534TIP3    H231560   1.843   0.218   6.540
10535TIP3   OH231561   3.985   2.831   4.237
10535TIP3    H131562   4.066   2.860   4.197
10535TIP3    H231563   4.012   2.773   4.309
10536TIP3   OH231564   8.225   6.012   3.615
10536TIP3    H131565   8.268   6.011   3.530
10536TIP3    H231566   8.274   6.077   3.666
10537TIP3   OH231567   3.558   0.751   5.419
10537TIP3    H131568   3.527   0.754   5.510
10537TIP3    H231569   3.634   0.694   5.422
10538TIP3   OH231570   4.194   7.000   0.432
10538TIP3    H131571   4.257   7.071   0.422
10538TIP3    H231572   4.188   6.986   0.527
10539TIP3   OH231573   8.203   1.185   5.653
10539TIP3    H131574   8.217   1.189   5.558
10539TIP3    H231575   8.272   1.240   5.690
10540TIP3   OH231576   6.507   0.390   6.439
10540TIP3    H131577   6.544   0.334   6.371
10540TIP3    H231578   6.581   0.410   6.497
10541TIP3   OH231579   1.057   2.351   2.161
10541TIP3    H131580   1.094   2.405   2.231
10541TIP3    H231581   1.095   2.386   2.081
10542TIP3   OH231582   1.580   5.842   1.368
10542TIP3    H131583   1.639   5.866   1.439
10542TIP3    H231584   1.500   5.892   1.385
10543TIP3   OH231585   2.210   2.539   0.501
10543TIP3    H131586   2.259   2.596   0.559
10543TIP3    H231587   2.128   2.587   0.484
10544TIP3   OH231588   2.629   1.572   1.667
10544TIP3    H131589   2.662   1.575   1.757
10544TIP3    H231590   2.540   1.539   1.675
10545TIP3   OH231591   7.325   5.412   6.748
10545TIP3    H131592   7.261   5.472   6.709
10545TIP3    H231593   7.400   5.416   6.688
10546TIP3   OH231594   6.438   4.654   6.402
10546TIP3    H131595   6.479   4.676   6.486
10546TIP3    H231596   6.388   4.574   6.421
10547TIP3   OH231597   4.418   7.179   2.821
10547TIP3    H131598   4.356   7.113   2.788
10547TIP3    H231599   4.462   7.212   2.743
10548TIP3   OH231600   2.267   4.723   4.732
10548TIP3    H131601   2.242   4.786   4.664
10548TIP3    H231602   2.209   4.744   4.806
10549TIP3   OH231603   4.038   7.842   3.932
10549TIP3    H131604   4.035   7.825   3.838
10549TIP3    H231605   3.980   7.777   3.970
10550TIP3   OH231606   5.489   7.494   4.806
10550TIP3    H131607   5.545   7.418   4.786
10550TIP3    H231608   5.417   7.457   4.858
10551TIP3   OH231609   2.990   3.578   3.763
10551TIP3    H131610   2.932   3.533   3.824
10551TIP3    H231611   3.078   3.556   3.794
10552TIP3   OH231612   6.682   3.544   2.563
10552TIP3    H131613   6.620   3.475   2.540
10552TIP3    H231614   6.628   3.620   2.586
10553TIP3   OH231615   6.163   4.890   4.489
10553TIP3    H131616   6.181   4.973   4.534
10553TIP3    H231617   6.173   4.910   4.396
10554TIP3   OH231618   5.620   4.948   5.856
10554TIP3    H131619   5.637   5.027   5.803
10554TIP3    H231620   5.707   4.911   5.872
10555TIP3   OH231621   2.452   1.967   1.310
10555TIP3    H131622   2.505   2.046   1.323
10555TIP3    H231623   2.440   1.931   1.398
10556TIP3   OH231624   1.616   6.924   4.592
10556TIP3    H131625   1.534   6.880   4.614
10556TIP3    H231626   1.654   6.949   4.676
10557TIP3   OH231627   5.053   7.694   2.156
10557TIP3    H131628   5.036   7.779   2.197
10557TIP3    H231629   5.118   7.712   2.088
10558TIP3   OH231630   7.994   3.759   3.521
10558TIP3    H131631   8.065   3.728   3.576
10558TIP3    H231632   8.003   3.709   3.440
10559TIP3   OH231633   5.841   6.756   1.373
10559TIP3    H131634   5.756   6.795   1.393
10559TIP3    H231635   5.864   6.793   1.288
10560TIP3   OH231636   6.701   4.502   6.237
10560TIP3    H131637   6.779   4.460   6.199
10560TIP3    H231638   6.731   4.537   6.320
10561TIP3   OH231639   4.706   7.339   5.027
10561TIP3    H131640   4.757   7.318   5.105
10561TIP3    H231641   4.767   7.327   4.954
10562TIP3   OH231642   1.246   4.553   5.620
10562TIP3    H131643   1.320   4.606   5.593
10562TIP3    H231644   1.184   4.616   5.658
10563TIP3   OH231645   4.341   1.724   4.912
10563TIP3    H131646   4.259   1.693   4.873
10563TIP3    H231647   4.380   1.782   4.847
10564TIP3   OH231648   4.989   1.001   1.775
10564TIP3    H131649   5.051   0.938   1.812
10564TIP3    H231650   4.963   0.962   1.692
10565TIP3   OH231651   1.616   6.562   5.936
10565TIP3    H131652   1.546   6.598   5.991
10565TIP3    H231653   1.570   6.512   5.868
10566TIP3   OH231654   1.331   0.842   6.614
10566TIP3    H131655   1.266   0.838   6.544
10566TIP3    H231656   1.281   0.827   6.694
10567TIP3   OH231657   0.567   2.501   5.068
10567TIP3    H131658   0.601   2.464   4.986
10567TIP3    H231659   0.509   2.434   5.103
10568TIP3   OH231660   5.728   0.328   3.505
10568TIP3    H131661   5.820   0.344   3.483
10568TIP3    H231662   5.707   0.246   3.461
10569TIP3   OH231663   0.854   0.811   3.320
10569TIP3    H131664   0.909   0.829   3.396
10569TIP3    H231665   0.911   0.828   3.245
10570TIP3   OH231666   1.391   4.432   1.432
10570TIP3    H131667   1.423   4.342   1.431
10570TIP3    H231668   1.462   4.483   1.394
10571TIP3   OH231669   3.480   0.452   0.715
10571TIP3    H131670   3.567   0.457   0.675
10571TIP3    H231671   3.478   0.365   0.757
10572TIP3   OH231672   7.757   7.550   3.543
10572TIP3    H131673   7.696   7.477   3.536
10572TIP3    H231674   7.712   7.614   3.598
10573TIP3   OH231675   0.448   7.770   1.403
10573TIP3    H131676   0.360   7.734   1.420
10573TIP3    H231677   0.441   7.810   1.317
10574TIP3   OH231678   4.511   5.135   6.315
10574TIP3    H131679   4.490   5.163   6.226
10574TIP3    H231680   4.549   5.048   6.304
10575TIP3   OH231681   2.469   7.630   3.914
10575TIP3    H131682   2.442   7.539   3.919
10575TIP3    H231683   2.564   7.627   3.909
10576TIP3   OH231684   5.590   5.982   5.059
10576TIP3    H131685   5.620   5.916   5.120
10576TIP3    H231686   5.655   5.981   4.989
10577TIP3   OH231687   4.877   1.176   2.714
10577TIP3    H131688   4.936   1.166   2.639
10577TIP3    H231689   4.861   1.270   2.718
10578TIP3   OH231690   6.981   2.392   5.171
10578TIP3    H131691   6.986   2.406   5.265
10578TIP3    H231692   6.892   2.421   5.147
10579TIP3   OH231693   6.672   6.094   4.597
10579TIP3    H131694   6.682   6.000   4.613
10579TIP3    H231695   6.633   6.100   4.510
10580TIP3   OH231696   6.150   6.448   4.866
10580TIP3    H131697   6.094   6.408   4.800
10580TIP3    H231698   6.175   6.533   4.827
10581TIP3   OH231699   6.703   3.209   5.861
10581TIP3    H131700   6.784   3.172   5.826
10581TIP3    H231701   6.724   3.301   5.879
10582TIP3   OH231702   8.089   4.860   4.889
10582TIP3    H131703   8.130   4.924   4.831
10582TIP3    H231704   8.118   4.885   4.976
10583TIP3   OH231705   3.586   3.605   1.400
10583TIP3    H131706   3.535   3.647   1.469
10583TIP3    H231707   3.619   3.525   1.441
10584TIP3   OH231708   6.917   5.164   4.885
10584TIP3    H131709   6.826   5.135   4.886
10584TIP3    H231710   6.913   5.256   4.912
10585TIP3   OH231711   6.119   5.867   4.586
10585TIP3    H131712   6.084   5.813   4.657
10585TIP3    H231713   6.112   5.957   4.618
10586TIP3   OH231714   1.811   0.348   5.106
10586TIP3    H131715   1.728   0.374   5.068
10586TIP3    H231716   1.877   0.403   5.063
10587TIP3   OH231717   6.340   1.571   1.853
10587TIP3    H131718   6.409   1.518   1.894
10587TIP3    H231719   6.330   1.534   1.766
10588TIP3   OH231720   2.538   3.262   4.691
10588TIP3    H131721   2.576   3.329   4.634
10588TIP3    H231722   2.534   3.304   4.777
10589TIP3   OH231723   5.163   2.822   3.720
10589TIP3    H131724   5.131   2.817   3.810
10589TIP3    H231725   5.253   2.790   3.724
10590TIP3   OH231726   0.521   0.977   6.681
10590TIP3    H131727   0.504   0.993   6.774
10590TIP3    H231728   0.552   1.061   6.647
10591TIP3   OH231729   0.980   3.356   3.103
10591TIP3    H131730   0.959   3.438   3.147
10591TIP3    H231731   0.898   3.328   3.063
10592TIP3   OH231732   6.143   0.203   4.958
10592TIP3    H131733   6.205   0.254   4.906
10592TIP3    H231734   6.060   0.210   4.910
10593TIP3   OH231735   1.403   5.509   4.707
10593TIP3    H131736   1.456   5.498   4.786
10593TIP3    H231737   1.324   5.457   4.723
10594TIP3   OH231738   8.005   1.039   2.241
10594TIP3    H131739   7.923   1.068   2.281
10594TIP3    H231740   8.053   0.998   2.313
10595TIP3   OH231741   4.581   5.785   4.257
10595TIP3    H131742   4.516   5.811   4.322
10595TIP3    H231743   4.635   5.720   4.300
10596TIP3   OH231744   0.627   7.506   4.952
10596TIP3    H131745   0.581   7.426   4.928
10596TIP3    H231746   0.708   7.504   4.901
10597TIP3   OH231747   2.857   0.125   4.556
10597TIP3    H131748   2.933   0.118   4.498
10597TIP3    H231749   2.893   0.161   4.638
10598TIP3   OH231750   2.577   1.269   2.292
10598TIP3    H131751   2.508   1.293   2.230
10598TIP3    H231752   2.639   1.219   2.240
10599TIP3   OH231753   3.532   5.706   6.780
10599TIP3    H131754   3.544   5.756   6.700
10599TIP3    H231755   3.603   5.642   6.780
10600TIP3   OH231756   2.360   4.106   5.403
10600TIP3    H131757   2.424   4.076   5.339
10600TIP3    H231758   2.406   4.099   5.487
10601TIP3   OH231759   4.413   2.405   2.114
10601TIP3    H131760   4.440   2.482   2.165
10601TIP3    H231761   4.322   2.390   2.140
10602TIP3   OH231762   0.032   5.515   2.492
10602TIP3    H131763  -0.013   5.513   2.408
10602TIP3    H231764  -0.022   5.572   2.547
10603TIP3   OH231765   4.726   2.923   4.737
10603TIP3    H131766   4.788   2.863   4.780
10603TIP3    H231767   4.669   2.953   4.808
10604TIP3   OH231768   5.783   6.699   1.875
10604TIP3    H131769   5.798   6.608   1.899
10604TIP3    H231770   5.867   6.742   1.889
10605TIP3   OH231771   1.275   2.591   6.251
10605TIP3    H131772   1.184   2.572   6.227
10605TIP3    H231773   1.318   2.608   6.167
10606TIP3   OH231774   2.120   4.413   3.437
10606TIP3    H131775   2.211   4.385   3.439
10606TIP3    H231776   2.115   4.484   3.501
10607TIP3   OH231777   3.235   3.482   4.996
10607TIP3    H131778   3.201   3.451   5.079
10607TIP3    H231779   3.176   3.554   4.971
10608TIP3   OH231780   5.213   2.136   0.642
10608TIP3    H131781   5.284   2.079   0.611
10608TIP3    H231782   5.256   2.218   0.665
10609TIP3   OH231783   4.453   3.058   0.692
10609TIP3    H131784   4.455   3.020   0.604
10609TIP3    H231785   4.527   3.019   0.737
10610TIP3   OH231786   6.097   2.710   3.526
10610TIP3    H131787   6.114   2.705   3.620
10610TIP3    H231788   6.021   2.653   3.512
10611TIP3   OH231789   5.595   6.103   6.062
10611TIP3    H131790   5.502   6.087   6.046
10611TIP3    H231791   5.623   6.032   6.119
10612TIP3   OH231792   4.016   2.448   3.807
10612TIP3    H131793   4.021   2.523   3.747
10612TIP3    H231794   4.082   2.468   3.875
10613TIP3   OH231795   4.945   5.585   1.577
10613TIP3    H131796   4.948   5.490   1.576
10613TIP3    H231797   4.946   5.610   1.485
10614TIP3   OH231798   4.140   7.688   0.377
10614TIP3    H131799   4.182   7.766   0.413
10614TIP3    H231800   4.152   7.695   0.283
10615TIP3   OH231801   7.227   1.557   2.183
10615TIP3    H131802   7.180   1.508   2.250
10615TIP3    H231803   7.165   1.624   2.154
10616TIP3   OH231804   5.717   2.648   3.666
10616TIP3    H131805   5.781   2.579   3.649
10616TIP3    H231806   5.745   2.688   3.748
10617TIP3   OH231807   4.538   3.653   4.443
10617TIP3    H131808   4.613   3.601   4.415
10617TIP3    H231809   4.462   3.596   4.428
10618TIP3   OH231810   3.859   3.602   3.122
10618TIP3    H131811   3.782   3.636   3.168
10618TIP3    H231812   3.897   3.678   3.079
10619TIP3   OH231813   0.515   1.502   5.363
10619TIP3    H131814   0.426   1.532   5.378
10619TIP3    H231815   0.567   1.544   5.432
10620TIP3   OH231816   6.009   7.122   1.681
10620TIP3    H131817   6.092   7.089   1.716
10620TIP3    H231818   5.998   7.209   1.720
10621TIP3   OH231819   0.118   6.554   4.729
10621TIP3    H131820   0.138   6.469   4.768
10621TIP3    H231821   0.203   6.593   4.711
10622TIP3   OH231822   5.320   5.490   4.798
10622TIP3    H131823   5.243   5.518   4.748
10622TIP3    H231824   5.304   5.398   4.819
10623TIP3   OH231825   4.870   1.322   4.005
10623TIP3    H131826   4.932   1.356   3.940
10623TIP3    H231827   4.918   1.255   4.052
10624TIP3   OH231828   4.228   0.333   4.576
10624TIP3    H131829   4.313   0.319   4.618
10624TIP3    H231830   4.167   0.346   4.648
10625TIP3   OH231831   4.093   7.653   0.112
10625TIP3    H131832   4.007   7.615   0.093
10625TIP3    H231833   4.149   7.624   0.040
10626TIP3   OH231834   2.860   6.770   2.035
10626TIP3    H131835   2.939   6.803   1.992
10626TIP3    H231836   2.887   6.686   2.072
10627TIP3   OH231837   3.194   5.965   5.817
10627TIP3    H131838   3.260   6.014   5.770
10627TIP3    H231839   3.223   5.874   5.813
10628TIP3   OH231840   8.208   2.622   5.828
10628TIP3    H131841   8.211   2.665   5.743
10628TIP3    H231842   8.209   2.694   5.891
10629TIP3   OH231843   3.433   5.742   5.490
10629TIP3    H131844   3.426   5.656   5.448
10629TIP3    H231845   3.517   5.777   5.461
10630TIP3   OH231846   5.913   0.720   0.820
10630TIP3    H131847   5.829   0.734   0.863
10630TIP3    H231848   5.944   0.808   0.799
10631TIP3   OH231849   6.405   1.086   5.799
10631TIP3    H131850   6.470   1.075   5.868
10631TIP3    H231851   6.416   1.177   5.770
10632TIP3   OH231852   4.218   4.539   3.056
10632TIP3    H131853   4.140   4.554   3.108
10632TIP3    H231854   4.246   4.626   3.028
10633TIP3   OH231855   2.395   6.952   4.414
10633TIP3    H131856   2.353   6.978   4.333
10633TIP3    H231857   2.382   7.026   4.473
10634TIP3   OH231858   6.568   3.535   5.095
10634TIP3    H131859   6.519   3.520   5.176
10634TIP3    H231860   6.546   3.460   5.040
10635TIP3   OH231861   2.362   6.373   3.400
10635TIP3    H131862   2.380   6.326   3.481
10635TIP3    H231863   2.355   6.305   3.334
10636TIP3   OH231864   6.628   6.164   4.328
10636TIP3    H131865   6.639   6.075   4.294
10636TIP3    H231866   6.555   6.200   4.278
10637TIP3   OH231867   5.063   0.688   3.291
10637TIP3    H131868   5.020   0.604   3.277
10637TIP3    H231869   5.101   0.682   3.379
10638TIP3   OH231870   3.187   0.354   0.179
10638TIP3    H131871   3.243   0.277   0.197
10638TIP3    H231872   3.098   0.322   0.193
10639TIP3   OH231873   2.593   0.199   0.724
10639TIP3    H131874   2.622   0.235   0.640
10639TIP3    H231875   2.658   0.133   0.745
10640TIP3   OH231876   0.379   2.089   0.532
10640TIP3    H131877   0.388   2.009   0.583
10640TIP3    H231878   0.393   2.160   0.595
10641TIP3   OH231879   3.103   6.927   2.840
10641TIP3    H131880   3.104   6.861   2.771
10641TIP3    H231881   3.189   6.970   2.833
10642TIP3   OH231882   4.605   6.922   4.828
10642TIP3    H131883   4.639   6.853   4.885
10642TIP3    H231884   4.557   6.980   4.887
10643TIP3   OH231885   6.458   6.002   1.042
10643TIP3    H131886   6.515   6.029   1.113
10643TIP3    H231887   6.441   5.909   1.059
10644TIP3   OH231888   4.154   0.639   5.923
10644TIP3    H131889   4.125   0.587   5.848
10644TIP3    H231890   4.168   0.575   5.993
10645TIP3   OH231891   8.220   4.938   0.325
10645TIP3    H131892   8.150   4.873   0.335
10645TIP3    H231893   8.241   4.963   0.415
10646TIP3   OH231894   0.889   2.429   3.785
10646TIP3    H131895   0.830   2.362   3.819
10646TIP3    H231896   0.944   2.452   3.860
10647TIP3   OH231897   7.018   1.339   3.080
10647TIP3    H131898   6.958   1.412   3.063
10647TIP3    H231899   6.990   1.305   3.165
10648TIP3   OH231900   7.556   2.644   0.559
10648TIP3    H131901   7.534   2.559   0.519
10648TIP3    H231902   7.609   2.622   0.635
10649TIP3   OH231903   3.950   7.480   6.385
10649TIP3    H131904   3.977   7.560   6.432
10649TIP3    H231905   3.965   7.500   6.293
10650TIP3   OH231906   2.252   6.525   0.890
10650TIP3    H131907   2.293   6.439   0.882
10650TIP3    H231908   2.263   6.549   0.981
10651TIP3   OH231909   5.297   4.134   6.079
10651TIP3    H131910   5.229   4.098   6.022
10651TIP3    H231911   5.249   4.164   6.157
10652TIP3   OH231912   7.437   5.449   5.853
10652TIP3    H131913   7.489   5.368   5.849
10652TIP3    H231914   7.447   5.488   5.766
10653TIP3   OH231915   5.779   4.561   0.302
10653TIP3    H131916   5.836   4.576   0.377
10653TIP3    H231917   5.810   4.622   0.235
10654TIP3   OH231918   5.634   5.442   4.701
10654TIP3    H131919   5.580   5.364   4.691
10654TIP3    H231920   5.629   5.463   4.794
10655TIP3   OH231921   3.382   5.019   4.451
10655TIP3    H131922   3.343   5.052   4.370
10655TIP3    H231923   3.400   5.098   4.502
10656TIP3   OH231924   5.247   4.474   3.817
10656TIP3    H131925   5.169   4.430   3.782
10656TIP3    H231926   5.309   4.403   3.833
10657TIP3   OH231927   6.146   5.007   2.856
10657TIP3    H131928   6.090   5.026   2.932
10657TIP3    H231929   6.204   5.083   2.850
10658TIP3   OH231930   4.180   6.141   5.994
10658TIP3    H131931   4.093   6.126   6.032
10658TIP3    H231932   4.223   6.199   6.056
10659TIP3   OH231933   5.242   0.723   2.436
10659TIP3    H131934   5.318   0.781   2.431
10659TIP3    H231935   5.278   0.640   2.468
10660TIP3   OH231936   4.731   3.651   5.340
10660TIP3    H131937   4.776   3.568   5.321
10660TIP3    H231938   4.734   3.698   5.257
10661TIP3   OH231939   8.095   6.318   6.477
10661TIP3    H131940   8.146   6.250   6.520
10661TIP3    H231941   8.105   6.301   6.383
10662TIP3   OH231942   2.841   2.575   2.729
10662TIP3    H131943   2.801   2.647   2.679
10662TIP3    H231944   2.933   2.576   2.703
10663TIP3   OH231945   8.047   2.465   5.996
10663TIP3    H131946   7.983   2.530   5.964
10663TIP3    H231947   8.118   2.469   5.933
10664TIP3   OH231948   1.150   1.550   2.794
10664TIP3    H131949   1.112   1.630   2.757
10664TIP3    H231950   1.085   1.482   2.777
10665TIP3   OH231951   3.490   3.254   3.492
10665TIP3    H131952   3.504   3.210   3.408
10665TIP3    H231953   3.401   3.231   3.517
10666TIP3   OH231954   5.781   4.959   2.449
10666TIP3    H131955   5.742   5.027   2.395
10666TIP3    H231956   5.875   4.979   2.448
10667TIP3   OH231957   0.847   1.048   5.863
10667TIP3    H131958   0.869   1.140   5.851
10667TIP3    H231959   0.838   1.014   5.774
10668TIP3   OH231960   2.128   2.211   5.663
10668TIP3    H131961   2.084   2.132   5.695
10668TIP3    H231962   2.066   2.282   5.679
10669TIP3   OH231963   3.117   4.071   5.830
10669TIP3    H131964   3.200   4.052   5.874
10669TIP3    H231965   3.059   4.102   5.900
10670TIP3   OH231966   2.303   1.032   1.432
10670TIP3    H131967   2.380   0.990   1.470
10670TIP3    H231968   2.260   0.963   1.382
10671TIP3   OH231969   8.040   3.627   6.028
10671TIP3    H131970   8.036   3.675   5.945
10671TIP3    H231971   8.124   3.652   6.066
10672TIP3   OH231972   1.832   6.405   5.995
10672TIP3    H131973   1.776   6.472   5.955
10672TIP3    H231974   1.856   6.441   6.080
10673TIP3   OH231975   1.710   3.314   0.142
10673TIP3    H131976   1.747   3.253   0.206
10673TIP3    H231977   1.689   3.260   0.066
10674TIP3   OH231978   5.022   6.938   0.868
10674TIP3    H131979   5.081   7.014   0.862
10674TIP3    H231980   4.985   6.931   0.780
10675TIP3   OH231981   7.660   7.793   0.619
10675TIP3    H131982   7.630   7.718   0.568
10675TIP3    H231983   7.695   7.854   0.555
10676TIP3   OH231984   6.570   2.525   6.132
10676TIP3    H131985   6.545   2.565   6.049
10676TIP3    H231986   6.664   2.511   6.125
10677TIP3   OH231987   1.137   3.883   1.967
10677TIP3    H131988   1.114   3.941   1.894
10677TIP3    H231989   1.092   3.801   1.948
10678TIP3   OH231990   5.954   0.850   4.577
10678TIP3    H131991   5.969   0.805   4.494
10678TIP3    H231992   5.881   0.909   4.559
10679TIP3   OH231993   3.853   1.841   6.737
10679TIP3    H131994   3.884   1.808   6.821
10679TIP3    H231995   3.809   1.767   6.697
10680TIP3   OH231996   5.563   3.659   6.316
10680TIP3    H131997   5.581   3.655   6.222
10680TIP3    H231998   5.468   3.651   6.323
10681TIP3   OH231999   2.686   6.686   4.897
10681TIP3    H132000   2.744   6.761   4.911
10681TIP3    H232001   2.717   6.646   4.816
10682TIP3   OH232002   1.919   5.118   6.305
10682TIP3    H132003   1.852   5.162   6.253
10682TIP3    H232004   2.002   5.147   6.267
10683TIP3   OH232005   0.820   6.918   4.770
10683TIP3    H132006   0.777   6.875   4.844
10683TIP3    H232007   0.770   6.891   4.693
10684TIP3   OH232008   0.484   6.960   2.770
10684TIP3    H132009   0.561   6.925   2.724
10684TIP3    H232010   0.504   7.054   2.780
10685TIP3   OH232011   1.260   4.516   5.202
10685TIP3    H132012   1.212   4.578   5.256
10685TIP3    H232013   1.193   4.457   5.168
10686TIP3   OH232014   0.011   1.454   2.736
10686TIP3    H132015   0.001   1.468   2.830
10686TIP3    H232016  -0.024   1.533   2.695
10687TIP3   OH232017   5.363   4.460   3.370
10687TIP3    H132018   5.449   4.466   3.328
10687TIP3    H232019   5.334   4.370   3.353
10688TIP3   OH232020   7.781   5.155   4.837
10688TIP3    H132021   7.867   5.163   4.878
10688TIP3    H232022   7.734   5.092   4.892
10689TIP3   OH232023   5.492   3.469   3.670
10689TIP3    H132024   5.526   3.556   3.651
10689TIP3    H232025   5.473   3.432   3.584
10690TIP3   OH232026   3.001   3.985   3.031
10690TIP3    H132027   3.069   3.950   2.974
10690TIP3    H232028   2.956   4.050   2.977
10691TIP3   OH232029   2.478   1.923   0.595
10691TIP3    H132030   2.535   1.852   0.625
10691TIP3    H232031   2.392   1.881   0.583
10692TIP3   OH232032   5.410   0.703   1.325
10692TIP3    H132033   5.454   0.687   1.409
10692TIP3    H232034   5.433   0.627   1.271
10693TIP3   OH232035   5.395   4.940   4.548
10693TIP3    H132036   5.308   4.899   4.551
10693TIP3    H232037   5.444   4.896   4.617
10694TIP3   OH232038   1.364   7.581   5.968
10694TIP3    H132039   1.300   7.511   5.982
10694TIP3    H232040   1.317   7.646   5.915
10695TIP3   OH232041   5.022   0.853   2.532
10695TIP3    H132042   5.070   0.810   2.462
10695TIP3    H232043   5.054   0.812   2.613
10696TIP3   OH232044   2.718   0.162   5.445
10696TIP3    H132045   2.624   0.169   5.427
10696TIP3    H232046   2.731   0.069   5.463
10697TIP3   OH232047   5.779   6.721   4.242
10697TIP3    H132048   5.695   6.733   4.287
10697TIP3    H232049   5.816   6.642   4.282
10698TIP3   OH232050   4.385   3.890   4.228
10698TIP3    H132051   4.368   3.955   4.159
10698TIP3    H232052   4.450   3.831   4.189
10699TIP3   OH232053   4.593   5.624   5.826
10699TIP3    H132054   4.511   5.609   5.780
10699TIP3    H232055   4.573   5.603   5.917
10700TIP3   OH232056   7.267   4.377   0.237
10700TIP3    H132057   7.180   4.416   0.230
10700TIP3    H232058   7.250   4.283   0.245
10701TIP3   OH232059   3.094   4.513   4.107
10701TIP3    H132060   3.041   4.483   4.032
10701TIP3    H232061   3.183   4.519   4.072
10702TIP3   OH232062   2.456   1.835   6.065
10702TIP3    H132063   2.527   1.857   6.126
10702TIP3    H232064   2.435   1.744   6.085
10703TIP3   OH232065   7.056   6.786   0.417
10703TIP3    H132066   6.985   6.844   0.445
10703TIP3    H232067   7.046   6.708   0.471
10704TIP3   OH232068   3.532   4.315   5.715
10704TIP3    H132069   3.498   4.245   5.771
10704TIP3    H232070   3.484   4.393   5.743
10705TIP3   OH232071   4.507   2.996   5.563
10705TIP3    H132072   4.463   3.057   5.504
10705TIP3    H232073   4.459   3.004   5.646
10706TIP3   OH232074   1.385   1.321   1.209
10706TIP3    H132075   1.407   1.404   1.250
10706TIP3    H232076   1.319   1.343   1.143
10707TIP3   OH232077   7.084   1.100   1.050
10707TIP3    H132078   7.048   1.031   0.995
10707TIP3    H232079   7.125   1.054   1.124
10708TIP3   OH232080   4.508   6.016   1.200
10708TIP3    H132081   4.573   5.947   1.191
10708TIP3    H232082   4.446   5.981   1.265
10709TIP3   OH232083   2.746   1.474   0.785
10709TIP3    H132084   2.815   1.479   0.851
10709TIP3    H232085   2.674   1.431   0.829
10710TIP3   OH232086   1.187   7.569   6.313
10710TIP3    H132087   1.100   7.599   6.338
10710TIP3    H232088   1.177   7.475   6.297
10711TIP3   OH232089   4.527   3.861   4.607
10711TIP3    H132090   4.507   3.775   4.570
10711TIP3    H232091   4.603   3.891   4.558
10712TIP3   OH232092   5.260   1.607   3.480
10712TIP3    H132093   5.274   1.702   3.473
10712TIP3    H232094   5.247   1.578   3.390
10713TIP3   OH232095   6.153   4.188   3.131
10713TIP3    H132096   6.237   4.141   3.130
10713TIP3    H232097   6.115   4.168   3.216
10714TIP3   OH232098   6.527   0.245   6.200
10714TIP3    H132099   6.562   0.243   6.111
10714TIP3    H232100   6.446   0.195   6.194
10715TIP3   OH232101   7.404   6.314   3.024
10715TIP3    H132102   7.483   6.335   3.074
10715TIP3    H232103   7.397   6.384   2.960
10716TIP3   OH232104   3.561   0.978   2.371
10716TIP3    H132105   3.632   0.949   2.314
10716TIP3    H232106   3.542   0.902   2.427
10717TIP3   OH232107   2.929   2.762   6.268
10717TIP3    H132108   2.841   2.771   6.305
10717TIP3    H232109   2.964   2.682   6.309
10718TIP3   OH232110   8.196   7.009   4.740
10718TIP3    H132111   8.152   6.981   4.661
10718TIP3    H232112   8.279   6.961   4.740
10719TIP3   OH232113   0.955   2.398   4.748
10719TIP3    H132114   0.954   2.425   4.840
10719TIP3    H232115   0.970   2.303   4.751
10720TIP3   OH232116   0.564   5.143   4.781
10720TIP3    H132117   0.485   5.158   4.833
10720TIP3    H232118   0.621   5.093   4.839
10721TIP3   OH232119   6.507   5.557   2.518
10721TIP3    H132120   6.418   5.554   2.485
10721TIP3    H232121   6.527   5.651   2.525
10722TIP3   OH232122   2.144   7.529   5.306
10722TIP3    H132123   2.204   7.604   5.309
10722TIP3    H232124   2.183   7.471   5.240
10723TIP3   OH232125   1.613   2.282   1.726
10723TIP3    H132126   1.522   2.294   1.698
10723TIP3    H232127   1.640   2.368   1.758
10724TIP3   OH232128   7.988   7.411   2.333
10724TIP3    H132129   7.968   7.486   2.276
10724TIP3    H232130   8.083   7.411   2.339
10725TIP3   OH232131   5.963   6.844   6.697
10725TIP3    H132132   5.924   6.798   6.623
10725TIP3    H232133   6.008   6.919   6.658
10726TIP3   OH232134   4.782   5.182   2.743
10726TIP3    H132135   4.717   5.132   2.692
10726TIP3    H232136   4.843   5.215   2.677
10727TIP3   OH232137   6.472   7.619   4.146
10727TIP3    H132138   6.515   7.667   4.076
10727TIP3    H232139   6.532   7.626   4.221
10728TIP3   OH232140   3.996   6.396   5.429
10728TIP3    H132141   4.054   6.470   5.408
10728TIP3    H232142   4.031   6.323   5.378
10729TIP3   OH232143   7.410   1.936   0.968
10729TIP3    H132144   7.491   1.893   0.943
10729TIP3    H232145   7.397   1.912   1.060
10730TIP3   OH232146   1.926   2.429   3.448
10730TIP3    H132147   1.831   2.431   3.456
10730TIP3    H232148   1.951   2.520   3.429
10731TIP3   OH232149   7.488   4.992   6.068
10731TIP3    H132150   7.566   5.030   6.029
10731TIP3    H232151   7.521   4.920   6.122
10732TIP3   OH232152   0.378   0.649   5.948
10732TIP3    H132153   0.335   0.721   5.901
10732TIP3    H232154   0.455   0.690   5.988
10733TIP3   OH232155   2.067   0.764   3.446
10733TIP3    H132156   2.144   0.760   3.503
10733TIP3    H232157   2.102   0.754   3.358
10734TIP3   OH232158   3.550   2.047   3.488
10734TIP3    H132159   3.516   2.135   3.507
10734TIP3    H232160   3.641   2.061   3.462
10735TIP3   OH232161   2.931   5.535   5.109
10735TIP3    H132162   2.960   5.609   5.162
10735TIP3    H232163   3.010   5.482   5.096
10736TIP3   OH232164   1.476   6.000   6.730
10736TIP3    H132165   1.477   6.047   6.646
10736TIP3    H232166   1.384   5.997   6.754
10737TIP3   OH232167   3.088   4.700   3.781
10737TIP3    H132168   3.060   4.615   3.813
10737TIP3    H232169   3.068   4.698   3.687
10738TIP3   OH232170   2.984   2.033   3.209
10738TIP3    H132171   2.974   2.016   3.115
10738TIP3    H232172   3.054   2.098   3.215
10739TIP3   OH232173   3.846   5.463   6.156
10739TIP3    H132174   3.841   5.373   6.123
10739TIP3    H232175   3.896   5.509   6.089
10740TIP3   OH232176   5.797   6.375   4.126
10740TIP3    H132177   5.889   6.360   4.103
10740TIP3    H232178   5.797   6.388   4.221
10741TIP3   OH232179   2.198   7.807   0.303
10741TIP3    H132180   2.282   7.772   0.333
10741TIP3    H232181   2.135   7.777   0.367
10742TIP3   OH232182   6.425   6.046   0.415
10742TIP3    H132183   6.428   6.133   0.454
10742TIP3    H232184   6.509   6.007   0.439
10743TIP3   OH232185   7.275   7.338   0.332
10743TIP3    H132186   7.315   7.257   0.365
10743TIP3    H232187   7.208   7.360   0.397
10744TIP3   OH232188   4.903   6.423   1.097
10744TIP3    H132189   4.994   6.435   1.122
10744TIP3    H232190   4.876   6.343   1.143
10745TIP3   OH232191   1.423   1.286   5.729
10745TIP3    H132192   1.356   1.280   5.660
10745TIP3    H232193   1.491   1.341   5.691
10746TIP3   OH232194   5.709   0.143   0.550
10746TIP3    H132195   5.789   0.094   0.563
10746TIP3    H232196   5.653   0.120   0.625
10747TIP3   OH232197   0.964   4.231   2.658
10747TIP3    H132198   0.913   4.188   2.590
10747TIP3    H232199   0.994   4.312   2.618
10748TIP3   OH232200   1.624   2.087   5.821
10748TIP3    H132201   1.612   2.156   5.756
10748TIP3    H232202   1.667   2.130   5.895
10749TIP3   OH232203   1.175   7.005   2.233
10749TIP3    H132204   1.089   7.024   2.195
10749TIP3    H232205   1.160   6.925   2.284
10750TIP3   OH232206   0.900   6.027   2.405
10750TIP3    H132207   0.986   6.063   2.384
10750TIP3    H232208   0.897   5.943   2.358
10751TIP3   OH232209   4.446   3.172   3.330
10751TIP3    H132210   4.414   3.113   3.261
10751TIP3    H232211   4.381   3.166   3.400
10752TIP3   OH232212   3.567   6.575   1.312
10752TIP3    H132213   3.497   6.509   1.312
10752TIP3    H232214   3.567   6.611   1.224
10753TIP3   OH232215   4.951   0.473   3.220
10753TIP3    H132216   4.971   0.393   3.268
10753TIP3    H232217   4.856   0.470   3.207
10754TIP3   OH232218   6.828   6.135   2.518
10754TIP3    H132219   6.923   6.127   2.523
10754TIP3    H232220   6.796   6.045   2.509
10755TIP3   OH232221   6.252   4.047   5.872
10755TIP3    H132222   6.188   3.979   5.854
10755TIP3    H232223   6.335   3.999   5.883
10756TIP3   OH232224   5.835   3.100   4.515
10756TIP3    H132225   5.906   3.164   4.505
10756TIP3    H232226   5.834   3.080   4.609
10757TIP3   OH232227   6.722   7.783   0.856
10757TIP3    H132228   6.724   7.786   0.760
10757TIP3    H232229   6.807   7.746   0.881
10758TIP3   OH232230   6.229   5.300   0.613
10758TIP3    H132231   6.257   5.378   0.565
10758TIP3    H232232   6.133   5.305   0.614
10759TIP3   OH232233   4.325   1.073   2.091
10759TIP3    H132234   4.299   1.003   2.152
10759TIP3    H232235   4.392   1.033   2.037
10760TIP3   OH232236   4.732   2.002   0.262
10760TIP3    H132237   4.756   2.090   0.291
10760TIP3    H232238   4.812   1.966   0.224
10761TIP3   OH232239   1.488   6.967   6.331
10761TIP3    H132240   1.455   7.005   6.413
10761TIP3    H232241   1.486   6.873   6.346
10762TIP3   OH232242   1.782   3.113   4.396
10762TIP3    H132243   1.740   3.163   4.326
10762TIP3    H232244   1.767   3.021   4.372
10763TIP3   OH232245   1.913   5.150   0.221
10763TIP3    H132246   1.876   5.147   0.132
10763TIP3    H232247   1.862   5.217   0.266
10764TIP3   OH232248   2.635   3.816   1.740
10764TIP3    H132249   2.703   3.883   1.738
10764TIP3    H232250   2.646   3.773   1.824
10765TIP3   OH232251   3.710   3.214   1.250
10765TIP3    H132252   3.698   3.252   1.337
10765TIP3    H232253   3.755   3.283   1.200
10766TIP3   OH232254   0.685   3.234   1.114
10766TIP3    H132255   0.629   3.312   1.117
10766TIP3    H232256   0.716   3.231   1.023
10767TIP3   OH232257   0.078   2.972   6.356
10767TIP3    H132258   0.101   2.882   6.379
10767TIP3    H232259   0.149   3.025   6.392
10768TIP3   OH232260   3.615   5.098   1.469
10768TIP3    H132261   3.546   5.094   1.403
10768TIP3    H232262   3.688   5.142   1.425
10769TIP3   OH232263   2.606   2.379   0.126
10769TIP3    H132264   2.606   2.283   0.128
10769TIP3    H232265   2.575   2.405   0.213
10770TIP3   OH232266   0.261   6.460   3.990
10770TIP3    H132267   0.180   6.458   4.041
10770TIP3    H232268   0.232   6.475   3.900
10771TIP3   OH232269   7.511   7.471   5.022
10771TIP3    H132270   7.460   7.432   4.951
10771TIP3    H232271   7.474   7.558   5.034
10772TIP3   OH232272   7.927   4.396   3.616
10772TIP3    H132273   7.885   4.479   3.641
10772TIP3    H232274   7.878   4.329   3.663
10773TIP3   OH232275   2.053   7.506   6.030
10773TIP3    H132276   2.137   7.544   6.054
10773TIP3    H232277   2.075   7.434   5.970
10774TIP3   OH232278   6.456   4.442   2.737
10774TIP3    H132279   6.375   4.493   2.734
10774TIP3    H232280   6.523   4.506   2.761
10775TIP3   OH232281   4.485   1.159   5.240
10775TIP3    H132282   4.435   1.227   5.286
10775TIP3    H232283   4.535   1.115   5.310
10776TIP3   OH232284   0.493   7.545   3.079
10776TIP3    H132285   0.548   7.549   3.157
10776TIP3    H232286   0.429   7.476   3.098
10777TIP3   OH232287   0.965   4.234   4.547
10777TIP3    H132288   0.953   4.221   4.453
10777TIP3    H232289   1.055   4.205   4.564
10778TIP3   OH232290   7.445   3.995   0.291
10778TIP3    H132291   7.491   3.962   0.214
10778TIP3    H232292   7.465   3.931   0.360
10779TIP3   OH232293   6.624   4.029   0.089
10779TIP3    H132294   6.710   4.026   0.132
10779TIP3    H232295   6.572   3.963   0.136
10780TIP3   OH232296   3.239   5.073   3.713
10780TIP3    H132297   3.277   5.093   3.627
10780TIP3    H232298   3.309   5.094   3.775
10781TIP3   OH232299   1.094   7.006   0.771
10781TIP3    H132300   1.053   7.090   0.790
10781TIP3    H232301   1.056   6.979   0.688
10782TIP3   OH232302   7.859   3.342   5.777
10782TIP3    H132303   7.774   3.382   5.793
10782TIP3    H232304   7.907   3.406   5.725
10783TIP3   OH232305   6.307   6.909   3.641
10783TIP3    H132306   6.223   6.888   3.599
10783TIP3    H232307   6.316   7.003   3.629
10784TIP3   OH232308   4.790   5.072   6.611
10784TIP3    H132309   4.752   5.157   6.591
10784TIP3    H232310   4.839   5.085   6.692
10785TIP3   OH232311   5.367   3.795   4.293
10785TIP3    H132312   5.331   3.821   4.208
10785TIP3    H232313   5.324   3.853   4.356
10786TIP3   OH232314   5.130   7.540   0.442
10786TIP3    H132315   5.145   7.456   0.398
10786TIP3    H232316   5.204   7.550   0.501
10787TIP3   OH232317   4.442   1.339   2.086
10787TIP3    H132318   4.445   1.434   2.097
10787TIP3    H232319   4.528   1.317   2.050
10788TIP3   OH232320   3.941   4.297   2.793
10788TIP3    H132321   3.929   4.387   2.825
10788TIP3    H232322   3.947   4.307   2.698
10789TIP3   OH232323   7.294   5.721   1.213
10789TIP3    H132324   7.257   5.803   1.180
10789TIP3    H232325   7.281   5.725   1.308
10790TIP3   OH232326   5.546   3.834   2.124
10790TIP3    H132327   5.500   3.917   2.112
10790TIP3    H232328   5.634   3.860   2.152
10791TIP3   OH232329   0.917   2.482   3.289
10791TIP3    H132330   0.984   2.413   3.294
10791TIP3    H232331   0.954   2.555   3.338
10792TIP3   OH232332   6.571   7.563   5.906
10792TIP3    H132333   6.545   7.584   5.816
10792TIP3    H232334   6.629   7.487   5.897
10793TIP3   OH232335   0.075   6.664   4.475
10793TIP3    H132336   0.046   6.593   4.417
10793TIP3    H232337   0.069   6.627   4.563
10794TIP3   OH232338   5.665   3.140   4.250
10794TIP3    H132339   5.666   3.230   4.282
10794TIP3    H232340   5.721   3.092   4.311
10795TIP3   OH232341   4.759   0.494   2.490
10795TIP3    H132342   4.762   0.539   2.405
10795TIP3    H232343   4.740   0.403   2.468
10796TIP3   OH232344   6.148   6.509   5.813
10796TIP3    H132345   6.125   6.541   5.726
10796TIP3    H232346   6.081   6.444   5.834
10797TIP3   OH232347   2.466   0.103   4.410
10797TIP3    H132348   2.520   0.182   4.403
10797TIP3    H232349   2.483   0.071   4.499
10798TIP3   OH232350   0.398   1.606   3.690
10798TIP3    H132351   0.339   1.682   3.695
10798TIP3    H232352   0.433   1.609   3.601
10799TIP3   OH232353   5.092   3.512   4.114
10799TIP3    H132354   5.174   3.464   4.112
10799TIP3    H232355   5.081   3.544   4.024
10800TIP3   OH232356   3.367   2.635   0.560
10800TIP3    H132357   3.441   2.672   0.608
10800TIP3    H232358   3.294   2.642   0.621
10801TIP3   OH232359   0.508   0.797   6.468
10801TIP3    H132360   0.572   0.726   6.477
10801TIP3    H232361   0.540   0.866   6.526
10802TIP3   OH232362   3.037   7.076   6.152
10802TIP3    H132363   3.009   7.004   6.096
10802TIP3    H232364   3.131   7.061   6.164
10803TIP3   OH232365   4.778   6.822   3.458
10803TIP3    H132366   4.702   6.780   3.419
10803TIP3    H232367   4.850   6.761   3.444
10804TIP3   OH232368   2.170   2.004   3.462
10804TIP3    H132369   2.125   2.088   3.477
10804TIP3    H232370   2.124   1.965   3.388
10805TIP3   OH232371   3.353   4.122   3.936
10805TIP3    H132372   3.340   4.028   3.947
10805TIP3    H232373   3.291   4.147   3.868
10806TIP3   OH232374   0.260   4.758   3.340
10806TIP3    H132375   0.306   4.728   3.418
10806TIP3    H232376   0.276   4.852   3.337
10807TIP3   OH232377   4.182   3.173   2.411
10807TIP3    H132378   4.119   3.114   2.452
10807TIP3    H232379   4.226   3.216   2.484
10808TIP3   OH232380   5.428   5.234   5.473
10808TIP3    H132381   5.339   5.266   5.487
10808TIP3    H232382   5.481   5.279   5.538
10809TIP3   OH232383   0.144   4.502   3.546
10809TIP3    H132384   0.223   4.551   3.570
10809TIP3    H232385   0.127   4.445   3.621
10810TIP3   OH232386   4.511  -0.013   0.733
10810TIP3    H132387   4.496   0.074   0.771
10810TIP3    H232388   4.496  -0.073   0.805
10811TIP3   OH232389   0.569   6.199   1.837
10811TIP3    H132390   0.661   6.227   1.838
10811TIP3    H232391   0.570   6.118   1.785
10812TIP3   OH232392   7.515   4.620   2.122
10812TIP3    H132393   7.426   4.641   2.150
10812TIP3    H232394   7.551   4.704   2.094
10813TIP3   OH232395   0.201   1.345   0.406
10813TIP3    H132396   0.209   1.373   0.497
10813TIP3    H232397   0.193   1.426   0.356
10814TIP3   OH232398   2.921   7.041  -0.034
10814TIP3    H132399   2.969   7.009   0.043
10814TIP3    H232400   2.844   6.985  -0.039
10815TIP3   OH232401   5.078   1.257   0.401
10815TIP3    H132402   5.015   1.232   0.468
10815TIP3    H232403   5.156   1.282   0.450
10816TIP3   OH232404   6.002   1.528   5.155
10816TIP3    H132405   5.977   1.489   5.071
10816TIP3    H232406   5.983   1.461   5.220
10817TIP3   OH232407   4.716   0.492   1.922
10817TIP3    H132408   4.637   0.439   1.925
10817TIP3    H232409   4.718   0.528   1.833
10818TIP3   OH232410   3.267   7.336   0.154
10818TIP3    H132411   3.314   7.271   0.102
10818TIP3    H232412   3.206   7.285   0.207
10819TIP3   OH232413   6.978   0.715   5.781
10819TIP3    H132414   6.988   0.747   5.870
10819TIP3    H232415   6.934   0.630   5.790
10820TIP3   OH232416   5.450   2.258   4.593
10820TIP3    H132417   5.485   2.247   4.505
10820TIP3    H232418   5.448   2.353   4.606
10821TIP3   OH232419   5.783   1.106   4.647
10821TIP3    H132420   5.787   1.101   4.551
10821TIP3    H232421   5.696   1.072   4.669
10822TIP3   OH232422   0.290   6.670   1.443
10822TIP3    H132423   0.282   6.583   1.481
10822TIP3    H232424   0.258   6.661   1.354
10823TIP3   OH232425   6.955   7.789   2.145
10823TIP3    H132426   6.938   7.858   2.208
10823TIP3    H232427   6.882   7.728   2.155
10824TIP3   OH232428   4.255   5.620   4.196
10824TIP3    H132429   4.321   5.612   4.265
10824TIP3    H232430   4.304   5.608   4.115
10825TIP3   OH232431   0.961   2.227   0.550
10825TIP3    H132432   1.002   2.198   0.468
10825TIP3    H232433   0.974   2.153   0.610
10826TIP3   OH232434   2.552   6.747   3.533
10826TIP3    H132435   2.613   6.674   3.521
10826TIP3    H232436   2.574   6.783   3.619
10827TIP3   OH232437   3.227   2.446   6.271
10827TIP3    H132438   3.301   2.430   6.330
10827TIP3    H232439   3.247   2.395   6.193
10828TIP3   OH232440   0.900   6.019   1.260
10828TIP3    H132441   0.953   6.043   1.336
10828TIP3    H232442   0.951   5.952   1.215
10829TIP3   OH232443   5.032   6.287   5.288
10829TIP3    H132444   4.978   6.233   5.231
10829TIP3    H232445   5.099   6.325   5.230
10830TIP3   OH232446   6.944   0.411   5.711
10830TIP3    H132447   6.923   0.330   5.757
10830TIP3    H232448   6.927   0.392   5.619
10831TIP3   OH232449   2.570   5.867   1.073
10831TIP3    H132450   2.531   5.862   0.986
10831TIP3    H232451   2.552   5.781   1.112
10832TIP3   OH232452   6.456   0.674   2.750
10832TIP3    H132453   6.401   0.621   2.691
10832TIP3    H232454   6.480   0.614   2.821
10833TIP3   OH232455   7.315   6.959   2.683
10833TIP3    H132456   7.304   6.916   2.598
10833TIP3    H232457   7.324   7.052   2.662
10834TIP3   OH232458   6.790   6.802   4.021
10834TIP3    H132459   6.880   6.800   4.053
10834TIP3    H232460   6.795   6.766   3.933
10835TIP3   OH232461   3.715   0.918   0.396
10835TIP3    H132462   3.627   0.906   0.363
10835TIP3    H232463   3.742   1.004   0.363
10836TIP3   OH232464   3.556   5.073   0.268
10836TIP3    H132465   3.533   5.013   0.339
10836TIP3    H232466   3.596   5.148   0.313
10837TIP3   OH232467   6.469   2.190   2.581
10837TIP3    H132468   6.390   2.244   2.576
10837TIP3    H232469   6.463   2.148   2.667
10838TIP3   OH232470   7.410   1.776   3.128
10838TIP3    H132471   7.459   1.695   3.147
10838TIP3    H232472   7.325   1.745   3.097
10839TIP3   OH232473   2.430   2.805   4.923
10839TIP3    H132474   2.482   2.885   4.914
10839TIP3    H232475   2.360   2.814   4.858
10840TIP3   OH232476   2.695   6.212   0.195
10840TIP3    H132477   2.685   6.119   0.175
10840TIP3    H232478   2.607   6.242   0.214
10841TIP3   OH232479   3.705   2.268   5.239
10841TIP3    H132480   3.683   2.212   5.164
10841TIP3    H232481   3.779   2.225   5.281
10842TIP3   OH232482   6.026   2.885   4.873
10842TIP3    H132483   6.066   2.939   4.805
10842TIP3    H232484   5.955   2.939   4.908
10843TIP3   OH232485   7.539   1.564   3.569
10843TIP3    H132486   7.553   1.619   3.646
10843TIP3    H232487   7.584   1.611   3.498
10844TIP3   OH232488   3.273   4.176   3.475
10844TIP3    H132489   3.335   4.188   3.547
10844TIP3    H232490   3.290   4.087   3.444
10845TIP3   OH232491   5.785   3.148   2.958
10845TIP3    H132492   5.768   3.207   2.885
10845TIP3    H232493   5.773   3.060   2.921
10846TIP3   OH232494   5.100   2.960   2.043
10846TIP3    H132495   5.043   2.901   1.994
10846TIP3    H232496   5.123   3.029   1.980
10847TIP3   OH232497   1.418   5.225   0.302
10847TIP3    H132498   1.472   5.147   0.289
10847TIP3    H232499   1.391   5.221   0.394
10848TIP3   OH232500   2.916   5.487   2.785
10848TIP3    H132501   2.845   5.550   2.777
10848TIP3    H232502   2.880   5.405   2.754
10849TIP3   OH232503   0.116   5.175   5.519
10849TIP3    H132504   0.160   5.092   5.536
10849TIP3    H232505   0.065   5.191   5.599
10850TIP3   OH232506   2.655   4.999   3.886
10850TIP3    H132507   2.722   5.059   3.919
10850TIP3    H232508   2.658   5.012   3.791
10851TIP3   OH232509   0.508   4.294   3.090
10851TIP3    H132510   0.496   4.379   3.048
10851TIP3    H232511   0.419   4.257   3.094
10852TIP3   OH232512   3.843   3.376   6.216
10852TIP3    H132513   3.851   3.418   6.301
10852TIP3    H232514   3.920   3.406   6.167
10853TIP3   OH232515   7.544   4.888   5.194
10853TIP3    H132516   7.524   4.981   5.200
10853TIP3    H232517   7.520   4.852   5.279
10854TIP3   OH232518   1.475   6.736   5.144
10854TIP3    H132519   1.516   6.656   5.114
10854TIP3    H232520   1.383   6.727   5.120
10855TIP3   OH232521   6.024   5.097   2.369
10855TIP3    H132522   6.021   5.150   2.449
10855TIP3    H232523   6.068   5.153   2.305
10856TIP3   OH232524   2.245   0.278   1.073
10856TIP3    H132525   2.221   0.286   0.980
10856TIP3    H232526   2.163   0.289   1.120
10857TIP3   OH232527   0.503   3.462   4.557
10857TIP3    H132528   0.434   3.485   4.494
10857TIP3    H232529   0.570   3.529   4.544
10858TIP3   OH232530   5.595   2.027   1.271
10858TIP3    H132531   5.611   2.103   1.327
10858TIP3    H232532   5.518   2.051   1.219
10859TIP3   OH232533   6.054   4.872   4.814
10859TIP3    H132534   6.008   4.788   4.811
10859TIP3    H232535   6.147   4.848   4.806
10860TIP3   OH232536   5.212   7.033   0.103
10860TIP3    H132537   5.211   7.097   0.033
10860TIP3    H232538   5.189   7.083   0.182
10861TIP3   OH232539   0.755   5.378   3.265
10861TIP3    H132540   0.671   5.412   3.235
10861TIP3    H232541   0.809   5.376   3.186
10862TIP3   OH232542   1.760   2.547   6.544
10862TIP3    H132543   1.826   2.503   6.599
10862TIP3    H232544   1.725   2.616   6.600
10863TIP3   OH232545   5.054   5.112   2.174
10863TIP3    H132546   5.115   5.039   2.183
10863TIP3    H232547   4.968   5.072   2.180
10864TIP3   OH232548   3.918   0.553   6.044
10864TIP3    H132549   3.921   0.649   6.048
10864TIP3    H232550   3.827   0.531   6.066
10865TIP3   OH232551   2.921   5.725   5.443
10865TIP3    H132552   2.963   5.763   5.365
10865TIP3    H232553   2.982   5.656   5.470
10866TIP3   OH232554   2.523   0.843   5.402
10866TIP3    H132555   2.472   0.763   5.389
10866TIP3    H232556   2.500   0.872   5.490
10867TIP3   OH232557   1.088   4.781   5.674
10867TIP3    H132558   1.108   4.874   5.690
10867TIP3    H232559   0.993   4.776   5.681
10868TIP3   OH232560   5.519   4.640   0.250
10868TIP3    H132561   5.604   4.608   0.277
10868TIP3    H232562   5.538   4.704   0.181
10869TIP3   OH232563   2.511   0.376   1.411
10869TIP3    H132564   2.469   0.457   1.382
10869TIP3    H232565   2.486   0.311   1.345
10870TIP3   OH232566   2.079   0.644   2.440
10870TIP3    H132567   2.111   0.684   2.521
10870TIP3    H232568   2.151   0.653   2.378
10871TIP3   OH232569   4.810   1.742   2.489
10871TIP3    H132570   4.783   1.800   2.418
10871TIP3    H232571   4.803   1.796   2.568
10872TIP3   OH232572   6.509   0.165   3.463
10872TIP3    H132573   6.562   0.154   3.385
10872TIP3    H232574   6.573   0.171   3.535
10873TIP3   OH232575   1.656   4.998   2.205
10873TIP3    H132576   1.680   4.945   2.129
10873TIP3    H232577   1.665   5.088   2.175
10874TIP3   OH232578   4.851   6.276   6.454
10874TIP3    H132579   4.792   6.201   6.462
10874TIP3    H232580   4.816   6.327   6.381
10875TIP3   OH232581   1.143   7.711   4.058
10875TIP3    H132582   1.055   7.681   4.084
10875TIP3    H232583   1.131   7.746   3.970
10876TIP3   OH232584   2.149   5.392   2.609
10876TIP3    H132585   2.096   5.331   2.558
10876TIP3    H232586   2.156   5.470   2.554
10877TIP3   OH232587   5.443   2.209   5.298
10877TIP3    H132588   5.395   2.280   5.340
10877TIP3    H232589   5.435   2.136   5.360
10878TIP3   OH232590   5.850   4.465   4.165
10878TIP3    H132591   5.867   4.382   4.208
10878TIP3    H232592   5.904   4.528   4.213
10879TIP3   OH232593   7.150   5.298   3.457
10879TIP3    H132594   7.055   5.288   3.470
10879TIP3    H232595   7.187   5.216   3.490
10880TIP3   OH232596   1.657   5.974   4.616
10880TIP3    H132597   1.567   5.974   4.648
10880TIP3    H232598   1.710   6.004   4.690
10881TIP3   OH232599   2.637   6.798   3.785
10881TIP3    H132600   2.727   6.797   3.753
10881TIP3    H232601   2.622   6.709   3.817
10882TIP3   OH232602   7.354   7.225   2.846
10882TIP3    H132603   7.304   7.145   2.864
10882TIP3    H232604   7.348   7.276   2.927
10883TIP3   OH232605   6.690   2.438   1.810
10883TIP3    H132606   6.663   2.499   1.878
10883TIP3    H232607   6.748   2.377   1.854
10884TIP3   OH232608   7.926   7.164   6.560
10884TIP3    H132609   7.906   7.211   6.641
10884TIP3    H232610   7.889   7.077   6.573
10885TIP3   OH232611   2.645   3.975   1.395
10885TIP3    H132612   2.666   3.887   1.424
10885TIP3    H232613   2.605   4.017   1.471
10886TIP3   OH232614   6.733   2.493   4.386
10886TIP3    H132615   6.810   2.505   4.443
10886TIP3    H232616   6.756   2.419   4.331
10887TIP3   OH232617   7.555   4.378   3.623
10887TIP3    H132618   7.604   4.400   3.544
10887TIP3    H232619   7.530   4.286   3.610
10888TIP3   OH232620   7.457   4.522   3.093
10888TIP3    H132621   7.523   4.525   3.163
10888TIP3    H232622   7.385   4.473   3.131
10889TIP3   OH232623   2.744   4.131   5.420
10889TIP3    H132624   2.701   4.097   5.342
10889TIP3    H232625   2.834   4.149   5.392
10890TIP3   OH232626   6.918   3.135   0.368
10890TIP3    H132627   6.860   3.176   0.304
10890TIP3    H232628   6.908   3.041   0.352
10891TIP3   OH232629   5.146   1.334   2.618
10891TIP3    H132630   5.136   1.260   2.559
10891TIP3    H232631   5.092   1.403   2.579
10892TIP3   OH232632   2.184   1.669   3.438
10892TIP3    H132633   2.269   1.674   3.395
10892TIP3    H232634   2.151   1.759   3.435
10893TIP3   OH232635   0.489   1.127   2.914
10893TIP3    H132636   0.496   1.039   2.879
10893TIP3    H232637   0.573   1.142   2.958
10894TIP3   OH232638   5.419   1.512   3.738
10894TIP3    H132639   5.376   1.430   3.762
10894TIP3    H232640   5.348   1.576   3.730
10895TIP3   OH232641   7.772   4.818   0.888
10895TIP3    H132642   7.761   4.798   0.981
10895TIP3    H232643   7.744   4.739   0.843
10896TIP3   OH232644   1.003   3.738   1.010
10896TIP3    H132645   1.068   3.793   0.966
10896TIP3    H232646   0.920   3.761   0.967
10897TIP3   OH232647   5.655   4.959   4.131
10897TIP3    H132648   5.664   4.864   4.126
10897TIP3    H232649   5.560   4.974   4.130
10898TIP3   OH232650   2.168   7.351   5.795
10898TIP3    H132651   2.259   7.329   5.811
10898TIP3    H232652   2.137   7.283   5.736
10899TIP3   OH232653   2.618   3.187   2.170
10899TIP3    H132654   2.581   3.231   2.246
10899TIP3    H232655   2.543   3.145   2.128
10900TIP3   OH232656   3.680   7.727   3.019
10900TIP3    H132657   3.698   7.634   3.029
10900TIP3    H232658   3.657   7.738   2.927
10901TIP3   OH232659   7.442   1.722   2.318
10901TIP3    H132660   7.359   1.697   2.278
10901TIP3    H232661   7.508   1.704   2.250
10902TIP3   OH232662   3.014   4.608   5.420
10902TIP3    H132663   3.082   4.659   5.375
10902TIP3    H232664   2.976   4.554   5.350
10903TIP3   OH232665   1.830   0.954   2.851
10903TIP3    H132666   1.904   0.951   2.790
10903TIP3    H232667   1.841   0.877   2.906
10904TIP3   OH232668   4.083   1.212   1.443
10904TIP3    H132669   4.047   1.196   1.530
10904TIP3    H232670   4.177   1.202   1.454
10905TIP3   OH232671   0.519   1.771   1.064
10905TIP3    H132672   0.430   1.740   1.083
10905TIP3    H232673   0.565   1.694   1.031
10906TIP3   OH232674   4.749   5.234   3.019
10906TIP3    H132675   4.676   5.179   3.045
10906TIP3    H232676   4.770   5.205   2.930
10907TIP3   OH232677   5.137   2.286   3.346
10907TIP3    H132678   5.070   2.341   3.388
10907TIP3    H232679   5.148   2.213   3.406
10908TIP3   OH232680   0.864   1.738   3.156
10908TIP3    H132681   0.860   1.696   3.070
10908TIP3    H232682   0.943   1.791   3.153
10909TIP3   OH232683   2.460   1.754   2.597
10909TIP3    H132684   2.477   1.846   2.578
10909TIP3    H232685   2.404   1.724   2.526
10910TIP3   OH232686   2.325   3.549   6.204
10910TIP3    H132687   2.357   3.631   6.167
10910TIP3    H232688   2.338   3.484   6.135
10911TIP3   OH232689   5.646   5.112   6.518
10911TIP3    H132690   5.580   5.065   6.569
10911TIP3    H232691   5.725   5.057   6.525
10912TIP3   OH232692   5.896   0.880   0.257
10912TIP3    H132693   5.943   0.796   0.262
10912TIP3    H232694   5.966   0.945   0.262
10913TIP3   OH232695   4.223   7.408   0.275
10913TIP3    H132696   4.144   7.359   0.296
10913TIP3    H232697   4.200   7.499   0.295
10914TIP3   OH232698   1.486   2.823   5.351
10914TIP3    H132699   1.581   2.825   5.367
10914TIP3    H232700   1.464   2.914   5.331
10915TIP3   OH232701   6.723   5.176   6.253
10915TIP3    H132702   6.688   5.089   6.235
10915TIP3    H232703   6.777   5.165   6.331
10916TIP3   OH232704   3.871   5.535   1.406
10916TIP3    H132705   3.825   5.578   1.477
10916TIP3    H232706   3.865   5.441   1.427
10917TIP3   OH232707   7.960   1.199   0.136
10917TIP3    H132708   8.047   1.231   0.112
10917TIP3    H232709   7.976   1.125   0.193
10918TIP3   OH232710   7.503   1.157   4.374
10918TIP3    H132711   7.471   1.247   4.384
10918TIP3    H232712   7.453   1.123   4.299
10919TIP3   OH232713   1.038   2.423   2.843
10919TIP3    H132714   1.010   2.492   2.904
10919TIP3    H232715   1.038   2.466   2.758
10920TIP3   OH232716   1.419   1.498   2.747
10920TIP3    H132717   1.327   1.526   2.744
10920TIP3    H232718   1.456   1.546   2.821
10921TIP3   OH232719   2.962   7.116   1.962
10921TIP3    H132720   2.993   7.045   1.905
10921TIP3    H232721   3.041   7.158   1.994
10922TIP3   OH232722   0.356   0.191   2.501
10922TIP3    H132723   0.436   0.244   2.495
10922TIP3    H232724   0.373   0.116   2.444
10923TIP3   OH232725   7.316   4.139   6.269
10923TIP3    H132726   7.335   4.230   6.245
10923TIP3    H232727   7.373   4.121   6.343
10924TIP3   OH232728   4.208   2.546   1.246
10924TIP3    H132729   4.298   2.529   1.220
10924TIP3    H232730   4.207   2.637   1.275
10925TIP3   OH232731   4.461   3.643   5.378
10925TIP3    H132732   4.439   3.564   5.427
10925TIP3    H232733   4.557   3.647   5.380
10926TIP3   OH232734   4.019   2.343   1.343
10926TIP3    H132735   4.092   2.391   1.302
10926TIP3    H232736   4.059   2.299   1.418
10927TIP3   OH232737   4.297   2.441   6.722
10927TIP3    H132738   4.203   2.450   6.707
10927TIP3    H232739   4.326   2.529   6.747
10928TIP3   OH232740   7.996   3.049   5.068
10928TIP3    H132741   7.969   3.118   5.129
10928TIP3    H232742   8.089   3.035   5.087
10929TIP3   OH232743   4.397   6.983   1.279
10929TIP3    H132744   4.404   6.994   1.184
10929TIP3    H232745   4.427   6.893   1.294
10930TIP3   OH232746   3.396   0.268   2.896
10930TIP3    H132747   3.353   0.340   2.942
10930TIP3    H232748   3.324   0.220   2.854
10931TIP3   OH232749   0.738   2.217   3.901
10931TIP3    H132750   0.689   2.209   3.983
10931TIP3    H232751   0.771   2.128   3.885
10932TIP3   OH232752   6.049   5.761   3.397
10932TIP3    H132753   6.139   5.792   3.405
10932TIP3    H232754   6.014   5.807   3.320
10933TIP3   OH232755   3.196   0.822   4.181
10933TIP3    H132756   3.135   0.762   4.225
10933TIP3    H232757   3.152   0.843   4.098
10934TIP3   OH232758   5.832   2.312   1.537
10934TIP3    H132759   5.891   2.264   1.479
10934TIP3    H232760   5.852   2.404   1.520
10935TIP3   OH232761   0.422   4.855   2.682
10935TIP3    H132762   0.340   4.825   2.644
10935TIP3    H232763   0.484   4.784   2.664
10936TIP3   OH232764   8.083   2.117   2.577
10936TIP3    H132765   8.018   2.065   2.529
10936TIP3    H232766   8.036   2.148   2.654
10937TIP3   OH232767   4.085   7.464   5.748
10937TIP3    H132768   4.146   7.492   5.680
10937TIP3    H232769   4.056   7.545   5.790
10938TIP3   OH232770   3.376   3.396   4.331
10938TIP3    H132771   3.390   3.312   4.288
10938TIP3    H232772   3.449   3.405   4.392
10939TIP3   OH232773   0.261   2.308   3.413
10939TIP3    H132774   0.254   2.214   3.427
10939TIP3    H232775   0.181   2.344   3.450
10940TIP3   OH232776   2.513   7.621   1.557
10940TIP3    H132777   2.546   7.700   1.600
10940TIP3    H232778   2.458   7.579   1.624
10941TIP3   OH232779   0.735   6.316   1.520
10941TIP3    H132780   0.754   6.410   1.521
10941TIP3    H232781   0.723   6.293   1.612
10942TIP3   OH232782   5.452   2.709   0.185
10942TIP3    H132783   5.403   2.630   0.207
10942TIP3    H232784   5.393   2.758   0.128
10943TIP3   OH232785   1.147   1.097   3.512
10943TIP3    H132786   1.214   1.039   3.477
10943TIP3    H232787   1.117   1.148   3.437
10944TIP3   OH232788   1.857   7.458   6.210
10944TIP3    H132789   1.826   7.377   6.170
10944TIP3    H232790   1.929   7.486   6.153
10945TIP3   OH232791   4.823   3.407   2.566
10945TIP3    H132792   4.783   3.442   2.646
10945TIP3    H232793   4.860   3.322   2.591
10946TIP3   OH232794   2.813   7.706   5.046
10946TIP3    H132795   2.718   7.707   5.032
10946TIP3    H232796   2.823   7.707   5.142
10947TIP3   OH232797   7.959   7.062   2.877
10947TIP3    H132798   7.982   7.079   2.786
10947TIP3    H232799   8.016   6.991   2.904
10948TIP3   OH232800   1.251   7.140   2.839
10948TIP3    H132801   1.259   7.215   2.779
10948TIP3    H232802   1.268   7.063   2.784
10949TIP3   OH232803   1.179   2.812   5.610
10949TIP3    H132804   1.155   2.725   5.643
10949TIP3    H232805   1.211   2.859   5.688
10950TIP3   OH232806   7.491   4.964   0.616
10950TIP3    H132807   7.517   4.888   0.564
10950TIP3    H232808   7.417   4.933   0.668
10951TIP3   OH232809   6.647   7.036   4.625
10951TIP3    H132810   6.625   6.989   4.706
10951TIP3    H232811   6.612   6.980   4.555
10952TIP3   OH232812   5.833   2.399   6.126
10952TIP3    H132813   5.926   2.388   6.107
10952TIP3    H232814   5.823   2.493   6.141
10953TIP3   OH232815   6.229   3.718   0.079
10953TIP3    H132816   6.267   3.746   0.161
10953TIP3    H232817   6.178   3.793   0.049
10954TIP3   OH232818   6.093   7.563   1.613
10954TIP3    H132819   6.125   7.581   1.701
10954TIP3    H232820   6.002   7.537   1.625
10955TIP3   OH232821   3.931   4.032   2.851
10955TIP3    H132822   3.927   3.982   2.769
10955TIP3    H232823   3.929   4.124   2.822
10956TIP3   OH232824   1.230   4.214   4.036
10956TIP3    H132825   1.269   4.226   4.122
10956TIP3    H232826   1.294   4.249   3.974
10957TIP3   OH232827   4.503   1.714   0.948
10957TIP3    H132828   4.431   1.773   0.973
10957TIP3    H232829   4.468   1.662   0.876
10958TIP3   OH232830   4.428   5.999   0.895
10958TIP3    H132831   4.489   5.997   0.821
10958TIP3    H232832   4.481   6.027   0.969
10959TIP3   OH232833   8.174   1.403   5.102
10959TIP3    H132834   8.243   1.463   5.130
10959TIP3    H232835   8.212   1.355   5.029
10960TIP3   OH232836   6.909   1.187   3.289
10960TIP3    H132837   6.939   1.098   3.307
10960TIP3    H232838   6.819   1.177   3.258
10961TIP3   OH232839   7.709   1.508   3.964
10961TIP3    H132840   7.618   1.533   3.949
10961TIP3    H232841   7.757   1.591   3.959
10962TIP3   OH232842   1.873   2.520   4.064
10962TIP3    H132843   1.796   2.498   4.117
10962TIP3    H232844   1.909   2.599   4.105
10963TIP3   OH232845   2.867   3.448   0.524
10963TIP3    H132846   2.947   3.437   0.472
10963TIP3    H232847   2.825   3.362   0.522
10964TIP3   OH232848   6.950   0.681   4.823
10964TIP3    H132849   6.871   0.724   4.854
10964TIP3    H232850   7.019   0.708   4.884
10965TIP3   OH232851   4.921   3.588   4.613
10965TIP3    H132852   4.886   3.625   4.532
10965TIP3    H232853   5.016   3.598   4.604
10966TIP3   OH232854   2.488   4.755   2.628
10966TIP3    H132855   2.457   4.665   2.640
10966TIP3    H232856   2.455   4.802   2.704
10967TIP3   OH232857   7.159   4.641   3.075
10967TIP3    H132858   7.191   4.589   3.001
10967TIP3    H232859   7.181   4.589   3.152
10968TIP3   OH232860   3.331   6.180   1.824
10968TIP3    H132861   3.419   6.190   1.787
10968TIP3    H232862   3.276   6.160   1.748
10969TIP3   OH232863   6.607   6.071   0.792
10969TIP3    H132864   6.615   6.031   0.705
10969TIP3    H232865   6.528   6.032   0.829
10970TIP3   OH232866   7.936   1.298   5.474
10970TIP3    H132867   7.902   1.209   5.475
10970TIP3    H232868   8.006   1.296   5.408
10971TIP3   OH232869   2.143   6.805   4.484
10971TIP3    H132870   2.217   6.866   4.485
10971TIP3    H232871   2.092   6.828   4.561
10972TIP3   OH232872   0.613   1.532   6.216
10972TIP3    H132873   0.569   1.571   6.292
10972TIP3    H232874   0.688   1.588   6.200
10973TIP3   OH232875   6.060   2.913   2.810
10973TIP3    H132876   5.981   2.945   2.768
10973TIP3    H232877   6.131   2.948   2.756
10974TIP3   OH232878   8.325   2.204   0.636
10974TIP3    H132879   8.280   2.120   0.641
10974TIP3    H232880   8.330   2.222   0.542
10975TIP3   OH232881   4.025   4.541   4.304
10975TIP3    H132882   3.989   4.495   4.380
10975TIP3    H232883   4.119   4.528   4.310
10976TIP3   OH232884   1.293   5.731   1.001
10976TIP3    H132885   1.385   5.733   0.977
10976TIP3    H232886   1.266   5.640   0.987
10977TIP3   OH232887   7.936   5.221   3.519
10977TIP3    H132888   7.857   5.273   3.536
10977TIP3    H232889   7.959   5.184   3.604
10978TIP3   OH232890   0.669   7.186   6.311
10978TIP3    H132891   0.598   7.214   6.253
10978TIP3    H232892   0.639   7.210   6.399
10979TIP3   OH232893   6.362   0.790   3.472
10979TIP3    H132894   6.329   0.823   3.555
10979TIP3    H232895   6.404   0.707   3.494
10980TIP3   OH232896   5.518   1.052   4.731
10980TIP3    H132897   5.460   1.117   4.690
10980TIP3    H232898   5.477   0.968   4.711
10981TIP3   OH232899   0.125   6.764   0.131
10981TIP3    H132900   0.163   6.675   0.132
10981TIP3    H232901   0.133   6.792   0.040
10982TIP3   OH232902   5.763   2.612   5.346
10982TIP3    H132903   5.778   2.581   5.435
10982TIP3    H232904   5.764   2.532   5.292
10983TIP3   OH232905   7.791   0.484   3.863
10983TIP3    H132906   7.774   0.457   3.773
10983TIP3    H232907   7.781   0.579   3.862
10984TIP3   OH232908   3.073   1.811   5.843
10984TIP3    H132909   3.112   1.726   5.824
10984TIP3    H232910   3.124   1.844   5.917
10985TIP3   OH232911   8.146   7.689   0.032
10985TIP3    H132912   8.117   7.768  -0.015
10985TIP3    H232913   8.086   7.621   0.002
10986TIP3   OH232914   6.216   0.388   5.865
10986TIP3    H132915   6.171   0.335   5.931
10986TIP3    H232916   6.148   0.443   5.827
10987TIP3   OH232917   2.884   6.366   6.639
10987TIP3    H132918   2.803   6.327   6.605
10987TIP3    H232919   2.904   6.317   6.718
10988TIP3   OH232920   6.257   0.665   2.270
10988TIP3    H132921   6.240   0.590   2.213
10988TIP3    H232922   6.352   0.668   2.277
10989TIP3   OH232923   6.482   4.144   4.455
10989TIP3    H132924   6.573   4.133   4.480
10989TIP3    H232925   6.463   4.237   4.468
10990TIP3   OH232926   2.992   7.113   5.660
10990TIP3    H132927   3.009   7.186   5.720
10990TIP3    H232928   2.899   7.121   5.638
10991TIP3   OH232929   0.750   7.456   0.061
10991TIP3    H132930   0.782   7.504  -0.016
10991TIP3    H232931   0.826   7.408   0.093
10992TIP3   OH232932   5.352   2.831   0.955
10992TIP3    H132933   5.348   2.902   1.019
10992TIP3    H232934   5.348   2.874   0.870
10993TIP3   OH232935   1.952   4.111   6.373
10993TIP3    H132936   1.887   4.084   6.308
10993TIP3    H232937   1.926   4.066   6.453
10994TIP3   OH232938   6.055   4.792   5.152
10994TIP3    H132939   6.049   4.704   5.189
10994TIP3    H232940   5.969   4.831   5.170
10995TIP3   OH232941   6.053   7.094   3.797
10995TIP3    H132942   6.060   7.186   3.820
10995TIP3    H232943   5.960   7.074   3.804
10996TIP3   OH232944   7.220   3.027   4.225
10996TIP3    H132945   7.224   2.942   4.270
10996TIP3    H232946   7.287   3.021   4.157
10997TIP3   OH232947   3.925   4.232   5.389
10997TIP3    H132948   3.840   4.273   5.404
10997TIP3    H232949   3.906   4.138   5.385
10998TIP3   OH232950   0.892   5.040   5.749
10998TIP3    H132951   0.982   5.064   5.772
10998TIP3    H232952   0.892   5.034   5.653
10999TIP3   OH232953   6.985   0.977   5.633
10999TIP3    H132954   7.006   1.028   5.711
10999TIP3    H232955   6.957   0.891   5.666
11000TIP3   OH232956   4.257   6.872   6.627
11000TIP3    H132957   4.279   6.883   6.720
11000TIP3    H232958   4.197   6.797   6.626
11001TIP3   OH232959   1.436   4.526   4.967
11001TIP3    H132960   1.414   4.456   4.904
11001TIP3    H232961   1.377   4.511   5.040
11002TIP3   OH232962   5.160   6.437   1.208
11002TIP3    H132963   5.229   6.495   1.240
11002TIP3    H232964   5.169   6.358   1.260
11003TIP3   OH232965   7.023   0.114   0.437
11003TIP3    H132966   7.030   0.200   0.397
11003TIP3    H232967   6.987   0.131   0.524
11004TIP3   OH232968   6.526   4.973   2.962
11004TIP3    H132969   6.518   5.068   2.974
11004TIP3    H232970   6.565   4.964   2.875
11005TIP3   OH232971   0.921   7.040   4.358
11005TIP3    H132972   0.827   7.051   4.344
11005TIP3    H232973   0.948   6.979   4.290
11006TIP3   OH232974   8.185   2.963   3.284
11006TIP3    H132975   8.205   2.870   3.295
11006TIP3    H232976   8.095   2.971   3.316
11007TIP3   OH232977   5.754   4.266   0.299
11007TIP3    H132978   5.782   4.350   0.264
11007TIP3    H232979   5.706   4.224   0.227
11008TIP3   OH232980   5.320   5.450   5.727
11008TIP3    H132981   5.407   5.409   5.722
11008TIP3    H232982   5.304   5.461   5.821
11009TIP3   OH232983   2.455   2.175   4.583
11009TIP3    H132984   2.449   2.084   4.554
11009TIP3    H232985   2.543   2.202   4.557
11010TIP3   OH232986   5.343   5.216   0.560
11010TIP3    H132987   5.329   5.139   0.615
11010TIP3    H232988   5.366   5.286   0.622
11011TIP3   OH232989   6.867   4.487   5.318
11011TIP3    H132990   6.928   4.553   5.350
11011TIP3    H232991   6.840   4.440   5.397
11012TIP3   OH232992   3.922   7.764   4.896
11012TIP3    H132993   3.835   7.780   4.931
11012TIP3    H232994   3.910   7.756   4.802
11013TIP3   OH232995   5.605   0.996   5.681
11013TIP3    H132996   5.650   1.019   5.600
11013TIP3    H232997   5.580   0.905   5.671
11014TIP3   OH232998   3.660   7.700   1.001
11014TIP3    H132999   3.657   7.789   0.965
11014TIP3    H233000   3.569   7.671   1.000
11015TIP3   OH233001   0.962   5.559   3.822
11015TIP3    H133002   0.981   5.469   3.795
11015TIP3    H233003   0.980   5.561   3.916
11016TIP3   OH233004   6.606   2.123   5.747
11016TIP3    H133005   6.585   2.031   5.760
11016TIP3    H233006   6.521   2.168   5.750
11017TIP3   OH233007   3.515   2.876   1.964
11017TIP3    H133008   3.591   2.929   1.941
11017TIP3    H233009   3.482   2.914   2.045
11018TIP3   OH233010   0.731   6.520   5.158
11018TIP3    H133011   0.704   6.575   5.231
11018TIP3    H233012   0.819   6.550   5.136
11019TIP3   OH233013   3.223   3.101   0.921
11019TIP3    H133014   3.230   3.186   0.964
11019TIP3    H233015   3.140   3.104   0.874
11020TIP3   OH233016   1.043   3.771   1.531
11020TIP3    H133017   0.982   3.832   1.573
11020TIP3    H233018   1.035   3.790   1.438
11021TIP3   OH233019   7.630   7.251   6.297
11021TIP3    H133020   7.568   7.311   6.255
11021TIP3    H233021   7.673   7.304   6.364
11022TIP3   OH233022   7.412   1.576   1.355
11022TIP3    H133023   7.479   1.515   1.325
11022TIP3    H233024   7.431   1.589   1.448
11023TIP3   OH233025   5.529   5.564   6.319
11023TIP3    H133026   5.541   5.469   6.324
11023TIP3    H233027   5.434   5.576   6.319
11024TIP3   OH233028   0.278   5.368   2.733
11024TIP3    H133029   0.333   5.385   2.657
11024TIP3    H233030   0.310   5.285   2.768
11025TIP3   OH233031   1.662   4.474   1.057
11025TIP3    H133032   1.618   4.485   1.141
11025TIP3    H233033   1.679   4.380   1.051
11026TIP3   OH233034   4.135   5.900   1.151
11026TIP3    H133035   4.067   5.918   1.086
11026TIP3    H233036   4.187   5.980   1.155
11027TIP3   OH233037   1.515   6.206   5.353
11027TIP3    H133038   1.460   6.188   5.429
11027TIP3    H233039   1.593   6.249   5.390
11028TIP3   OH233040   7.094   7.502   0.467
11028TIP3    H133041   7.104   7.535   0.556
11028TIP3    H233042   7.105   7.579   0.411
11029TIP3   OH233043   5.480   1.401   1.102
11029TIP3    H133044   5.537   1.471   1.136
11029TIP3    H233045   5.499   1.326   1.157
11030TIP3   OH233046   5.525   2.537   1.719
11030TIP3    H133047   5.567   2.460   1.758
11030TIP3    H233048   5.432   2.515   1.715
11031TIP3   OH233049   7.116   6.348   6.002
11031TIP3    H133050   7.199   6.337   6.049
11031TIP3    H233051   7.138   6.403   5.927
11032TIP3   OH233052   6.621   4.627   2.852
11032TIP3    H133053   6.533   4.662   2.842
11032TIP3    H233054   6.678   4.696   2.817
11033TIP3   OH233055   1.473   1.381   6.000
11033TIP3    H133056   1.486   1.380   5.905
11033TIP3    H233057   1.513   1.300   6.031
11034TIP3   OH233058   5.896   1.261   1.143
11034TIP3    H133059   5.984   1.290   1.118
11034TIP3    H233060   5.857   1.230   1.062
11035TIP3   OH233061   8.077   1.440   5.663
11035TIP3    H133062   8.036   1.380   5.599
11035TIP3    H233063   8.168   1.444   5.636
11036TIP3   OH233064   3.565   6.245   4.453
11036TIP3    H133065   3.577   6.331   4.412
11036TIP3    H233066   3.629   6.188   4.409
11037TIP3   OH233067   3.767   1.259   3.505
11037TIP3    H133068   3.779   1.182   3.560
11037TIP3    H233069   3.854   1.277   3.470
11038TIP3   OH233070   6.792   2.781   1.761
11038TIP3    H133071   6.783   2.720   1.688
11038TIP3    H233072   6.706   2.781   1.803
11039TIP3   OH233073   7.330   1.142   4.172
11039TIP3    H133074   7.260   1.077   4.163
11039TIP3    H233075   7.284   1.225   4.183
11040TIP3   OH233076   7.223   0.267   6.329
11040TIP3    H133077   7.146   0.271   6.272
11040TIP3    H233078   7.196   0.208   6.400
11041TIP3   OH233079   2.603   0.366   1.846
11041TIP3    H133080   2.513   0.335   1.847
11041TIP3    H233081   2.600   0.451   1.803
11042TIP3   OH233082   7.141   2.056   4.779
11042TIP3    H133083   7.139   1.962   4.794
11042TIP3    H233084   7.086   2.093   4.847
11043TIP3   OH233085   1.734   0.138   1.692
11043TIP3    H133086   1.704   0.050   1.713
11043TIP3    H233087   1.653   0.188   1.679
11044TIP3   OH233088   5.238   2.632   3.927
11044TIP3    H133089   5.247   2.607   3.835
11044TIP3    H233090   5.308   2.696   3.942
11045TIP3   OH233091   7.530   2.829   3.882
11045TIP3    H133092   7.564   2.760   3.939
11045TIP3    H233093   7.566   2.808   3.795
11046TIP3   OH233094   2.462   1.903   4.492
11046TIP3    H133095   2.385   1.848   4.505
11046TIP3    H233096   2.535   1.841   4.488
11047TIP3   OH233097   4.843   5.243   3.704
11047TIP3    H133098   4.916   5.254   3.644
11047TIP3    H233099   4.792   5.324   3.695
11048TIP3   OH233100   7.232   6.846   4.753
11048TIP3    H133101   7.240   6.838   4.658
11048TIP3    H233102   7.201   6.760   4.781
11049TIP3   OH233103   5.993   5.431   4.940
11049TIP3    H133104   6.054   5.358   4.928
11049TIP3    H233105   5.965   5.454   4.851
11050TIP3   OH233106   0.581   5.004   5.773
11050TIP3    H133107   0.551   5.059   5.701
11050TIP3    H233108   0.676   4.997   5.760
11051TIP3   OH233109   7.760   1.379   2.196
11051TIP3    H133110   7.675   1.422   2.194
11051TIP3    H233111   7.815   1.432   2.138
11052TIP3   OH233112   1.523   4.359   0.538
11052TIP3    H133113   1.453   4.338   0.476
11052TIP3    H233114   1.602   4.361   0.485
11053TIP3   OH233115   4.656   3.075   3.660
11053TIP3    H133116   4.751   3.073   3.663
11053TIP3    H233117   4.634   3.042   3.573
11054TIP3   OH233118   4.331   4.039   0.457
11054TIP3    H133119   4.365   4.127   0.443
11054TIP3    H233120   4.348   3.993   0.374
11055TIP3   OH233121   3.496   3.446   0.343
11055TIP3    H133122   3.446   3.368   0.367
11055TIP3    H233123   3.507   3.494   0.425
11056TIP3   OH233124   3.766   5.530   6.702
11056TIP3    H133125   3.773   5.519   6.607
11056TIP3    H233126   3.836   5.474   6.737
11057TIP3   OH233127   6.535   2.766   1.868
11057TIP3    H133128   6.473   2.781   1.940
11057TIP3    H233129   6.481   2.733   1.796
11058TIP3   OH233130   0.717   6.744   3.403
11058TIP3    H133131   0.690   6.654   3.386
11058TIP3    H233132   0.798   6.754   3.353
11059TIP3   OH233133   3.638   6.584   0.408
11059TIP3    H133134   3.575   6.571   0.479
11059TIP3    H233135   3.596   6.545   0.332
11060TIP3   OH233136   6.329   1.715   6.046
11060TIP3    H133137   6.248   1.670   6.025
11060TIP3    H233138   6.327   1.796   5.994
11061TIP3   OH233139   1.664   1.067   1.019
11061TIP3    H133140   1.700   1.029   1.099
11061TIP3    H233141   1.688   1.160   1.024
11062TIP3   OH233142   7.798   5.608   0.679
11062TIP3    H133143   7.805   5.703   0.677
11062TIP3    H233144   7.879   5.579   0.720
11063TIP3   OH233145   5.951   5.942   6.571
11063TIP3    H133146   5.978   5.938   6.479
11063TIP3    H233147   5.937   5.851   6.596
11064TIP3   OH233148   3.616   4.283   1.807
11064TIP3    H133149   3.555   4.247   1.870
11064TIP3    H233150   3.579   4.261   1.722
11065TIP3   OH233151   7.779   5.148   1.033
11065TIP3    H133152   7.735   5.212   1.089
11065TIP3    H233153   7.721   5.137   0.958
11066TIP3   OH233154   2.180   3.299   1.306
11066TIP3    H133155   2.096   3.254   1.294
11066TIP3    H233156   2.229   3.242   1.365
11067TIP3   OH233157   5.982   2.906   4.106
11067TIP3    H133158   5.983   2.969   4.178
11067TIP3    H233159   6.065   2.919   4.062
11068TIP3   OH233160   7.518   5.698   4.373
11068TIP3    H133161   7.579   5.643   4.421
11068TIP3    H233162   7.574   5.759   4.325
11069TIP3   OH233163   5.059   3.894   5.385
11069TIP3    H133164   5.015   3.870   5.467
11069TIP3    H233165   5.069   3.811   5.338
11070TIP3   OH233166   7.573   4.546   0.471
11070TIP3    H133167   7.574   4.551   0.375
11070TIP3    H233168   7.620   4.465   0.491
11071TIP3   OH233169   0.716   3.035   1.602
11071TIP3    H133170   0.737   2.945   1.577
11071TIP3    H233171   0.620   3.038   1.601
11072TIP3   OH233172   7.464   0.544   5.818
11072TIP3    H133173   7.376   0.579   5.805
11072TIP3    H233174   7.476   0.481   5.748
11073TIP3   OH233175   1.855   0.464   2.775
11073TIP3    H133176   1.790   0.465   2.845
11073TIP3    H233177   1.917   0.395   2.801
11074TIP3   OH233178   5.386   1.350   6.108
11074TIP3    H133179   5.329   1.409   6.157
11074TIP3    H233180   5.414   1.401   6.032
11075TIP3   OH233181   2.104   1.031   1.840
11075TIP3    H133182   2.195   1.003   1.841
11075TIP3    H233183   2.064   0.989   1.916
11076TIP3   OH233184   3.376   5.809   3.756
11076TIP3    H133185   3.318   5.851   3.819
11076TIP3    H233186   3.327   5.811   3.673
11077TIP3   OH233187   5.213   4.669   2.769
11077TIP3    H133188   5.215   4.757   2.808
11077TIP3    H233189   5.297   4.630   2.795
11078TIP3   OH233190   4.267   3.614   0.951
11078TIP3    H133191   4.259   3.606   0.856
11078TIP3    H233192   4.274   3.708   0.966
11079TIP3   OH233193   2.412   4.971   3.591
11079TIP3    H133194   2.472   5.043   3.571
11079TIP3    H233195   2.385   4.938   3.505
11080TIP3   OH233196   2.845   3.507   3.481
11080TIP3    H133197   2.787   3.501   3.557
11080TIP3    H233198   2.795   3.467   3.409
11081TIP3   OH233199   7.590   5.715   1.130
11081TIP3    H133200   7.496   5.702   1.137
11081TIP3    H233201   7.602   5.809   1.125
11082TIP3   OH233202   6.081   1.095   3.862
11082TIP3    H133203   6.106   1.180   3.896
11082TIP3    H233204   6.051   1.045   3.939
11083TIP3   OH233205   4.095   5.894   6.693
11083TIP3    H133206   4.144   5.972   6.719
11083TIP3    H233207   4.132   5.823   6.745
11084TIP3   OH233208   0.711   3.365   0.611
11084TIP3    H133209   0.704   3.459   0.629
11084TIP3    H233210   0.768   3.360   0.534
11085TIP3   OH233211   5.610   5.831   2.526
11085TIP3    H133212   5.627   5.765   2.459
11085TIP3    H233213   5.626   5.786   2.609
11086TIP3   OH233214   0.741   2.255   2.198
11086TIP3    H133215   0.673   2.267   2.264
11086TIP3    H233216   0.806   2.199   2.240
11087TIP3   OH233217   1.727   2.271   0.340
11087TIP3    H133218   1.656   2.326   0.309
11087TIP3    H233219   1.804   2.327   0.337
11088TIP3   OH233220   1.047   3.847   3.420
11088TIP3    H133221   1.121   3.822   3.476
11088TIP3    H233222   1.072   3.932   3.383
11089TIP3   OH233223   5.675   7.795   2.511
11089TIP3    H133224   5.637   7.752   2.587
11089TIP3    H233225   5.650   7.887   2.521
11090TIP3   OH233226   4.990   2.148   1.359
11090TIP3    H133227   5.051   2.171   1.430
11090TIP3    H233228   4.954   2.233   1.331
11091TIP3   OH233229   7.302   3.214   4.442
11091TIP3    H133230   7.312   3.154   4.369
11091TIP3    H233231   7.332   3.298   4.408
11092TIP3   OH233232   1.950   1.715   5.574
11092TIP3    H133233   1.936   1.806   5.551
11092TIP3    H233234   1.963   1.671   5.490
11093TIP3   OH233235   6.954   1.598   0.843
11093TIP3    H133236   6.922   1.508   0.853
11093TIP3    H233237   7.043   1.588   0.812
11094TIP3   OH233238   4.954   4.686   5.567
11094TIP3    H133239   4.928   4.627   5.638
11094TIP3    H233240   4.939   4.635   5.487
11095TIP3   OH233241   2.013   4.698   5.487
11095TIP3    H133242   2.052   4.635   5.425
11095TIP3    H233243   2.066   4.690   5.566
11096TIP3   OH233244   0.156   0.673   3.136
11096TIP3    H133245   0.245   0.688   3.104
11096TIP3    H233246   0.158   0.705   3.226
11097TIP3   OH233247   1.672   2.159   2.162
11097TIP3    H133248   1.599   2.202   2.118
11097TIP3    H233249   1.633   2.123   2.242
11098TIP3   OH233250   6.906   4.167   5.728
11098TIP3    H133251   6.969   4.120   5.781
11098TIP3    H233252   6.829   4.110   5.726
11099TIP3   OH233253   1.087   2.588   0.417
11099TIP3    H133254   1.108   2.568   0.326
11099TIP3    H233255   1.092   2.684   0.422
11100TIP3   OH233256   4.447   0.951   1.872
11100TIP3    H133257   4.515   0.891   1.841
11100TIP3    H233258   4.376   0.893   1.901
11101TIP3   OH233259   0.657   1.274   4.174
11101TIP3    H133260   0.612   1.287   4.090
11101TIP3    H233261   0.666   1.363   4.209
11102TIP3   OH233262   7.941   0.729   5.492
11102TIP3    H133263   7.848   0.751   5.484
11102TIP3    H233264   7.969   0.769   5.574
11103TIP3   OH233265   4.427   1.134   4.031
11103TIP3    H133266   4.497   1.165   3.974
11103TIP3    H233267   4.454   1.160   4.119
11104TIP3   OH233268   5.619   0.168   5.015
11104TIP3    H133269   5.679   0.124   5.076
11104TIP3    H233270   5.533   0.134   5.038
11105TIP3   OH233271   0.608   0.446   3.489
11105TIP3    H133272   0.525   0.488   3.465
11105TIP3    H233273   0.582   0.376   3.549
11106TIP3   OH233274   6.853   3.454   6.251
11106TIP3    H133275   6.822   3.542   6.233
11106TIP3    H233276   6.782   3.411   6.298
11107TIP3   OH233277   4.857   3.783   4.433
11107TIP3    H133278   4.908   3.792   4.352
11107TIP3    H233279   4.794   3.855   4.430
11108TIP3   OH233280   6.928   2.174   4.479
11108TIP3    H133281   6.943   2.080   4.470
11108TIP3    H233282   6.864   2.182   4.549
11109TIP3   OH233283   4.886   3.289   0.377
11109TIP3    H133284   4.928   3.255   0.297
11109TIP3    H233285   4.803   3.242   0.382
11110TIP3   OH233286   5.260   4.169   2.998
11110TIP3    H133287   5.340   4.222   3.002
11110TIP3    H233288   5.207   4.212   2.930
11111TIP3   OH233289   1.595   2.109   4.544
11111TIP3    H133290   1.690   2.108   4.555
11111TIP3    H233291   1.570   2.200   4.562
11112TIP3   OH233292   1.656   3.397   2.725
11112TIP3    H133293   1.688   3.360   2.643
11112TIP3    H233294   1.600   3.329   2.762
11113TIP3   OH233295   4.189   5.077   6.091
11113TIP3    H133296   4.276   5.116   6.088
11113TIP3    H233297   4.130   5.152   6.103
11114TIP3   OH233298   3.202   6.816   2.097
11114TIP3    H133299   3.171   6.855   2.015
11114TIP3    H233300   3.266   6.878   2.131
11115TIP3   OH233301   3.892   6.501   5.864
11115TIP3    H133302   3.952   6.557   5.914
11115TIP3    H233303   3.805   6.524   5.897
11116TIP3   OH233304   5.179   7.527   2.678
11116TIP3    H133305   5.163   7.507   2.585
11116TIP3    H233306   5.253   7.472   2.702
11117TIP3   OH233307   2.874   5.584   0.174
11117TIP3    H133308   2.806   5.549   0.116
11117TIP3    H233309   2.830   5.653   0.224
11118TIP3   OH233310   1.107   1.373   4.676
11118TIP3    H133311   1.032   1.345   4.729
11118TIP3    H233312   1.075   1.369   4.586
11119TIP3   OH233313   7.369   2.458   1.989
11119TIP3    H133314   7.423   2.389   2.027
11119TIP3    H233315   7.296   2.412   1.949
11120TIP3   OH233316   2.508   2.892   4.133
11120TIP3    H133317   2.594   2.858   4.109
11120TIP3    H233318   2.522   2.935   4.217
11121TIP3   OH233319   4.217   1.522   6.364
11121TIP3    H133320   4.136   1.514   6.314
11121TIP3    H233321   4.236   1.433   6.393
11122TIP3   OH233322   3.591   5.485   4.815
11122TIP3    H133323   3.672   5.438   4.798
11122TIP3    H233324   3.552   5.498   4.729
11123TIP3   OH233325   5.137   2.653   1.721
11123TIP3    H133326   5.187   2.608   1.789
11123TIP3    H233327   5.141   2.594   1.646
11124TIP3   OH233328   6.051   1.116   6.019
11124TIP3    H133329   6.074   1.061   5.945
11124TIP3    H233330   6.025   1.199   5.979
11125TIP3   OH233331   7.896   0.579   5.989
11125TIP3    H133332   7.818   0.624   5.957
11125TIP3    H233333   7.968   0.639   5.971
11126TIP3   OH233334   2.170   2.841   2.585
11126TIP3    H133335   2.164   2.881   2.498
11126TIP3    H233336   2.134   2.753   2.573
11127TIP3   OH233337   5.286   1.163   0.207
11127TIP3    H133338   5.204   1.197   0.243
11127TIP3    H233339   5.277   1.068   0.212
11128TIP3   OH233340   0.582   4.190   5.699
11128TIP3    H133341   0.517   4.241   5.651
11128TIP3    H233342   0.645   4.162   5.632
11129TIP3   OH233343   3.697   7.354   3.550
11129TIP3    H133344   3.639   7.283   3.521
11129TIP3    H233345   3.769   7.309   3.595
11130TIP3   OH233346   2.689   0.897   1.046
11130TIP3    H133347   2.742   0.977   1.049
11130TIP3    H233348   2.752   0.826   1.057
11131TIP3   OH233349   5.309   1.385   0.852
11131TIP3    H133350   5.404   1.386   0.859
11131TIP3    H233351   5.279   1.335   0.927
11132TIP3   OH233352   6.808   4.559   1.199
11132TIP3    H133353   6.847   4.646   1.209
11132TIP3    H233354   6.716   4.571   1.219
11133TIP3   OH233355   3.249   4.904   0.180
11133TIP3    H133356   3.315   4.860   0.233
11133TIP3    H233357   3.243   4.992   0.218
11134TIP3   OH233358   0.937   2.902   2.814
11134TIP3    H133359   0.907   2.908   2.905
11134TIP3    H233360   0.895   2.824   2.779
11135TIP3   OH233361   1.809   5.493   6.641
11135TIP3    H133362   1.727   5.467   6.684
11135TIP3    H233363   1.855   5.544   6.707
11136TIP3   OH233364   3.814   2.646   1.837
11136TIP3    H133365   3.789   2.619   1.925
11136TIP3    H233366   3.738   2.695   1.805
11137TIP3   OH233367   1.713   6.022   1.661
11137TIP3    H133368   1.626   6.049   1.633
11137TIP3    H233369   1.766   6.026   1.582
11138TIP3   OH233370   1.496   1.181   3.745
11138TIP3    H133371   1.498   1.231   3.664
11138TIP3    H233372   1.538   1.097   3.723
11139TIP3   OH233373   7.315   2.053   3.171
11139TIP3    H133374   7.347   1.962   3.169
11139TIP3    H233375   7.369   2.098   3.106
11140TIP3   OH233376   2.243   3.741   5.002
11140TIP3    H133377   2.329   3.754   4.961
11140TIP3    H233378   2.230   3.819   5.055
11141TIP3   OH233379   3.799   5.842   0.321
11141TIP3    H133380   3.886   5.818   0.290
11141TIP3    H233381   3.789   5.934   0.297
11142TIP3   OH233382   4.769   2.274   2.635
11142TIP3    H133383   4.704   2.324   2.585
11142TIP3    H233384   4.775   2.319   2.719
11143TIP3   OH233385   2.939   7.782   0.134
11143TIP3    H133386   2.915   7.783   0.227
11143TIP3    H233387   2.886   7.852   0.096
11144TIP3   OH233388   1.107   5.824   1.382
11144TIP3    H133389   1.111   5.730   1.366
11144TIP3    H233390   1.116   5.864   1.296
11145TIP3   OH233391   1.108   1.425   0.323
11145TIP3    H133392   1.180   1.442   0.383
11145TIP3    H233393   1.150   1.391   0.244
11146TIP3   OH233394   6.472   1.179   4.151
11146TIP3    H133395   6.428   1.225   4.222
11146TIP3    H233396   6.401   1.141   4.099
11147TIP3   OH233397   3.929   6.454   4.539
11147TIP3    H133398   3.896   6.461   4.449
11147TIP3    H233399   3.887   6.526   4.586
11148TIP3   OH233400   7.867   0.401   3.533
11148TIP3    H133401   7.910   0.404   3.448
11148TIP3    H233402   7.795   0.463   3.525
11149TIP3   OH233403   3.886   1.550   4.321
11149TIP3    H133404   3.897   1.638   4.285
11149TIP3    H233405   3.971   1.508   4.309
11150TIP3   OH233406   2.582   6.355   5.253
11150TIP3    H133407   2.582   6.301   5.175
11150TIP3    H233408   2.648   6.316   5.310
11151TIP3   OH233409   5.111   3.986   3.578
11151TIP3    H133410   5.066   4.020   3.501
11151TIP3    H233411   5.138   3.897   3.554
11152TIP3   OH233412   6.915   7.590   0.223
11152TIP3    H133413   6.920   7.619   0.131
11152TIP3    H233414   6.991   7.629   0.265
11153TIP3   OH233415   1.799   1.565   4.984
11153TIP3    H133416   1.755   1.517   5.053
11153TIP3    H233417   1.879   1.515   4.966
11154TIP3   OH233418   4.669   4.479   6.339
11154TIP3    H133419   4.729   4.414   6.301
11154TIP3    H233420   4.681   4.556   6.284
11155TIP3   OH233421   5.962   6.289   4.746
11155TIP3    H133422   5.986   6.216   4.689
11155TIP3    H233423   5.867   6.282   4.756
11156TIP3   OH233424   7.417   0.832   2.080
11156TIP3    H133425   7.474   0.888   2.027
11156TIP3    H233426   7.454   0.836   2.168
11157TIP3   OH233427   0.639   7.137   1.689
11157TIP3    H133428   0.676   7.052   1.667
11157TIP3    H233429   0.544   7.126   1.678
11158TIP3   OH233430   3.129   4.236   2.032
11158TIP3    H133431   3.187   4.305   2.000
11158TIP3    H233432   3.130   4.247   2.127
11159TIP3   OH233433   7.647   0.113   5.936
11159TIP3    H133434   7.709   0.091   5.867
11159TIP3    H233435   7.563   0.082   5.903
11160TIP3   OH233436   0.175   4.475   0.119
11160TIP3    H133437   0.192   4.471   0.025
11160TIP3    H233438   0.210   4.393   0.153
11161TIP3   OH233439   8.099   7.012   2.340
11161TIP3    H133440   8.156   6.937   2.360
11161TIP3    H233441   8.011   6.975   2.339
11162TIP3   OH233442   7.965   2.208   6.055
11162TIP3    H133443   7.985   2.293   6.014
11162TIP3    H233444   7.916   2.161   5.988
11163TIP3   OH233445   2.512   3.355   2.833
11163TIP3    H133446   2.581   3.363   2.899
11163TIP3    H233447   2.432   3.381   2.879
11164TIP3   OH233448   2.320   4.396   1.777
11164TIP3    H133449   2.326   4.307   1.743
11164TIP3    H233450   2.316   4.385   1.872
11165TIP3   OH233451   7.581   7.142   2.587
11165TIP3    H133452   7.611   7.192   2.511
11165TIP3    H233453   7.520   7.201   2.632
11166TIP3   OH233454   2.311   3.842   6.356
11166TIP3    H133455   2.397   3.842   6.314
11166TIP3    H233456   2.321   3.785   6.432
11167TIP3   OH233457   6.139   2.533   2.156
11167TIP3    H133458   6.065   2.507   2.212
11167TIP3    H233459   6.141   2.467   2.086
11168TIP3   OH233460   3.786   7.647   6.579
11168TIP3    H133461   3.726   7.585   6.621
11168TIP3    H233462   3.739   7.677   6.502
11169TIP3   OH233463   3.663   7.652   2.467
11169TIP3    H133464   3.756   7.628   2.469
11169TIP3    H233465   3.655   7.721   2.532
11170TIP3   OH233466   4.885   5.551   2.828
11170TIP3    H133467   4.846   5.637   2.842
11170TIP3    H233468   4.874   5.505   2.912
11171TIP3   OH233469   3.919   7.550   2.190
11171TIP3    H133470   3.837   7.584   2.153
11171TIP3    H233471   3.986   7.574   2.125
11172TIP3   OH233472   0.002   3.831   5.738
11172TIP3    H133473   0.085   3.785   5.728
11172TIP3    H233474   0.020   3.898   5.805
11173TIP3   OH233475   5.943   5.939   5.291
11173TIP3    H133476   5.884   5.888   5.347
11173TIP3    H233477   5.904   5.934   5.204
11174TIP3   OH233478   1.497   6.970   3.341
11174TIP3    H133479   1.463   7.026   3.411
11174TIP3    H233480   1.420   6.927   3.305
11175TIP3   OH233481   0.927   6.269   2.641
11175TIP3    H133482   0.883   6.311   2.715
11175TIP3    H233483   0.858   6.257   2.576
11176TIP3   OH233484   4.097   3.275   3.127
11176TIP3    H133485   4.133   3.202   3.178
11176TIP3    H233486   4.028   3.311   3.183
11177TIP3   OH233487   5.717   6.631   6.707
11177TIP3    H133488   5.655   6.562   6.681
11177TIP3    H233489   5.784   6.630   6.640
11178TIP3   OH233490   3.317   3.631   0.217
11178TIP3    H133491   3.384   3.571   0.250
11178TIP3    H233492   3.363   3.715   0.207
11179TIP3   OH233493   5.862   7.789   4.583
11179TIP3    H133494   5.797   7.819   4.520
11179TIP3    H233495   5.876   7.697   4.560
11180TIP3   OH233496   5.978   1.690   0.027
11180TIP3    H133497   6.048   1.643  -0.019
11180TIP3    H233498   6.014   1.708   0.114
11181TIP3   OH233499   3.624   2.622   2.053
11181TIP3    H133500   3.579   2.683   1.996
11181TIP3    H233501   3.554   2.572   2.095
11182TIP3   OH233502   1.187   4.258   3.482
11182TIP3    H133503   1.235   4.204   3.545
11182TIP3    H233504   1.148   4.195   3.421
11183TIP3   OH233505   5.296   3.971   4.913
11183TIP3    H133506   5.370   4.010   4.960
11183TIP3    H233507   5.219   4.016   4.948
11184TIP3   OH233508   0.625   1.994   3.781
11184TIP3    H133509   0.547   2.012   3.729
11184TIP3    H233510   0.672   2.078   3.784
11185TIP3   OH233511   4.097   5.203   2.288
11185TIP3    H133512   4.069   5.271   2.349
11185TIP3    H233513   4.176   5.238   2.248
11186TIP3   OH233514   0.431   7.108   4.860
11186TIP3    H133515   0.346   7.142   4.831
11186TIP3    H233516   0.415   7.075   4.948
11187TIP3   OH233517   7.355   0.215   5.130
11187TIP3    H133518   7.289   0.189   5.194
11187TIP3    H233519   7.305   0.245   5.054
11188TIP3   OH233520   0.640   0.706   5.685
11188TIP3    H133521   0.658   0.734   5.775
11188TIP3    H233522   0.699   0.632   5.671
11189TIP3   OH233523   0.211   5.119   5.976
11189TIP3    H133524   0.227   5.050   5.912
11189TIP3    H233525   0.135   5.166   5.942
11190TIP3   OH233526   1.289   7.026   5.151
11190TIP3    H133527   1.242   7.108   5.167
11190TIP3    H233528   1.338   7.042   5.071
11191TIP3   OH233529   7.523   3.565   1.377
11191TIP3    H133530   7.567   3.636   1.425
11191TIP3    H233531   7.430   3.585   1.384
11192TIP3   OH233532   2.885   4.433   1.897
11192TIP3    H133533   2.890   4.378   1.975
11192TIP3    H233534   2.927   4.515   1.923
11193TIP3   OH233535   4.171   3.670   6.028
11193TIP3    H133536   4.133   3.585   6.005
11193TIP3    H233537   4.236   3.686   5.961
11194TIP3   OH233538   3.682   1.590   5.440
11194TIP3    H133539   3.604   1.628   5.480
11194TIP3    H233540   3.685   1.627   5.352
11195TIP3   OH233541   0.676   2.182   0.428
11195TIP3    H133542   0.620   2.244   0.476
11195TIP3    H233543   0.765   2.213   0.443
11196TIP3   OH233544   2.443   1.540   6.037
11196TIP3    H133545   2.357   1.550   5.996
11196TIP3    H233546   2.425   1.493   6.118
11197TIP3   OH233547   3.122   1.253   2.154
11197TIP3    H133548   3.073   1.324   2.112
11197TIP3    H233549   3.188   1.297   2.207
11198TIP3   OH233550   0.871   2.864   3.100
11198TIP3    H133551   0.876   2.929   3.171
11198TIP3    H233552   0.781   2.869   3.069
11199TIP3   OH233553   3.174   7.290   4.765
11199TIP3    H133554   3.101   7.334   4.720
11199TIP3    H233555   3.164   7.198   4.741
11200TIP3   OH233556   5.453   2.743   3.698
11200TIP3    H133557   5.480   2.789   3.778
11200TIP3    H233558   5.535   2.709   3.661
11201TIP3   OH233559   7.114   6.496   5.542
11201TIP3    H133560   7.156   6.568   5.495
11201TIP3    H233561   7.056   6.456   5.476
11202TIP3   OH233562   0.332   3.660   5.207
11202TIP3    H133563   0.310   3.569   5.186
11202TIP3    H233564   0.256   3.692   5.256
11203TIP3   OH233565   6.745   3.174   4.699
11203TIP3    H133566   6.821   3.119   4.719
11203TIP3    H233567   6.780   3.245   4.645
11204TIP3   OH233568   5.768   0.377   5.341
11204TIP3    H133569   5.716   0.298   5.327
11204TIP3    H233570   5.858   0.346   5.346
11205TIP3   OH233571   3.609   1.456   2.515
11205TIP3    H133572   3.570   1.372   2.539
11205TIP3    H233573   3.553   1.522   2.557
11206TIP3   OH233574   1.517   2.880   2.051
11206TIP3    H133575   1.493   2.850   1.963
11206TIP3    H233576   1.518   2.975   2.044
11207TIP3   OH233577   3.222   3.456   0.538
11207TIP3    H133578   3.154   3.461   0.606
11207TIP3    H233579   3.255   3.367   0.542
11208TIP3   OH233580   3.932   3.225   0.159
11208TIP3    H133581   3.854   3.170   0.164
11208TIP3    H233582   3.986   3.185   0.091
11209TIP3   OH233583   6.500   1.682   5.395
11209TIP3    H133584   6.565   1.613   5.404
11209TIP3    H233585   6.480   1.709   5.484
11210TIP3   OH233586   5.995   0.716   4.326
11210TIP3    H133587   5.997   0.791   4.266
11210TIP3    H233588   6.026   0.643   4.273
11211TIP3   OH233589   5.240   6.544   5.236
11211TIP3    H133590   5.227   6.470   5.177
11211TIP3    H233591   5.157   6.592   5.235
11212TIP3   OH233592   6.166   7.711   2.151
11212TIP3    H133593   6.250   7.696   2.108
11212TIP3    H233594   6.102   7.711   2.079
11213TIP3   OH233595   5.340   2.128   1.195
11213TIP3    H133596   5.311   2.083   1.274
11213TIP3    H233597   5.329   2.221   1.213
11214TIP3   OH233598   2.601   2.123   1.027
11214TIP3    H133599   2.526   2.180   1.007
11214TIP3    H233600   2.660   2.134   0.952
11215TIP3   OH233601   4.103   5.966   5.283
11215TIP3    H133602   4.198   5.955   5.284
11215TIP3    H233603   4.073   5.903   5.217
11216TIP3   OH233604   4.012   6.136   0.096
11216TIP3    H133605   4.020   6.109   0.005
11216TIP3    H233606   4.043   6.227   0.097
11217TIP3   OH233607   1.657   2.660   0.351
11217TIP3    H133608   1.586   2.703   0.399
11217TIP3    H233609   1.679   2.584   0.405
11218TIP3   OH233610   5.310   5.537   2.730
11218TIP3    H133611   5.327   5.563   2.639
11218TIP3    H233612   5.228   5.581   2.753
11219TIP3   OH233613   6.603   7.402   3.590
11219TIP3    H133614   6.694   7.400   3.620
11219TIP3    H233615   6.608   7.424   3.497
11220TIP3   OH233616   4.651   6.074   0.726
11220TIP3    H133617   4.614   6.161   0.734
11220TIP3    H233618   4.738   6.081   0.764
11221TIP3   OH233619   3.105   3.278   6.253
11221TIP3    H133620   3.091   3.343   6.322
11221TIP3    H233621   3.021   3.271   6.208
11222TIP3   OH233622   7.029   2.716   1.244
11222TIP3    H133623   7.066   2.645   1.191
11222TIP3    H233624   6.937   2.692   1.254
11223TIP3   OH233625   6.831   3.956   3.130
11223TIP3    H133626   6.831   3.936   3.036
11223TIP3    H233627   6.871   4.043   3.136
11224TIP3   OH233628   5.563   3.310   5.563
11224TIP3    H133629   5.656   3.329   5.549
11224TIP3    H233630   5.533   3.381   5.620
11225TIP3   OH233631   2.389   1.955   3.710
11225TIP3    H133632   2.447   1.972   3.636
11225TIP3    H233633   2.342   2.037   3.723
11226TIP3   OH233634   6.178   5.230   6.021
11226TIP3    H133635   6.165   5.318   5.986
11226TIP3    H233636   6.189   5.175   5.944
11227TIP3   OH233637   1.971   3.889   0.109
11227TIP3    H133638   2.047   3.920   0.060
11227TIP3    H233639   2.000   3.806   0.149
11228TIP3   OH233640   8.014   3.823   2.289
11228TIP3    H133641   7.939   3.791   2.239
11228TIP3    H233642   7.977   3.855   2.371
11229TIP3   OH233643   7.848   1.379   4.827
11229TIP3    H133644   7.919   1.353   4.769
11229TIP3    H233645   7.802   1.298   4.848
11230TIP3   OH233646   7.872   5.947   1.273
11230TIP3    H133647   7.785   5.959   1.236
11230TIP3    H233648   7.902   5.863   1.240
11231TIP3   OH233649   3.641   6.852   3.316
11231TIP3    H133650   3.605   6.873   3.402
11231TIP3    H233651   3.726   6.811   3.334
11232TIP3   OH233652   4.791   4.544   1.346
11232TIP3    H133653   4.776   4.484   1.272
11232TIP3    H233654   4.757   4.628   1.315
11233TIP3   OH233655   4.245   6.898   3.606
11233TIP3    H133656   4.297   6.881   3.528
11233TIP3    H233657   4.294   6.856   3.677
11234TIP3   OH233658   4.591   4.366   2.492
11234TIP3    H133659   4.542   4.378   2.574
11234TIP3    H233660   4.661   4.431   2.496
11235TIP3   OH233661   2.409   2.353   2.978
11235TIP3    H133662   2.402   2.314   2.891
11235TIP3    H233663   2.500   2.379   2.986
11236TIP3   OH233664   4.520   7.574   5.580
11236TIP3    H133665   4.560   7.645   5.530
11236TIP3    H233666   4.593   7.534   5.626
11237TIP3   OH233667   0.216   4.746   5.027
11237TIP3    H133668   0.239   4.710   4.942
11237TIP3    H233669   0.187   4.836   5.009
11238TIP3   OH233670   2.955   5.759   3.664
11238TIP3    H133671   2.896   5.784   3.593
11238TIP3    H233672   2.910   5.686   3.707
11239TIP3   OH233673   7.690   2.209   0.340
11239TIP3    H133674   7.627   2.231   0.409
11239TIP3    H233675   7.637   2.203   0.261
11240TIP3   OH233676   7.868   7.814   0.888
11240TIP3    H133677   7.953   7.806   0.844
11240TIP3    H233678   7.871   7.749   0.958
11241TIP3   OH233679   3.684   0.398   4.979
11241TIP3    H133680   3.662   0.313   4.943
11241TIP3    H233681   3.776   0.390   5.006
11242TIP3   OH233682   7.606   0.982   3.994
11242TIP3    H133683   7.616   1.074   3.970
11242TIP3    H233684   7.694   0.955   4.020
11243TIP3   OH233685   4.691   1.082   3.316
11243TIP3    H133686   4.632   1.062   3.388
11243TIP3    H233687   4.640   1.063   3.237
11244TIP3   OH233688   2.236   6.513   0.495
11244TIP3    H133689   2.291   6.552   0.563
11244TIP3    H233690   2.182   6.449   0.542
11245TIP3   OH233691   6.520   2.403   3.314
11245TIP3    H133692   6.520   2.318   3.359
11245TIP3    H233693   6.428   2.432   3.318
11246TIP3   OH233694   4.550   3.453   6.328
11246TIP3    H133695   4.613   3.471   6.397
11246TIP3    H233696   4.579   3.370   6.290
11247TIP3   OH233697   6.345   2.239   0.019
11247TIP3    H133698   6.368   2.288   0.098
11247TIP3    H233699   6.396   2.158   0.025
11248TIP3   OH233700   6.214   2.553   0.755
11248TIP3    H133701   6.171   2.523   0.836
11248TIP3    H233702   6.257   2.474   0.721
11249TIP3   OH233703   4.249   5.039   3.177
11249TIP3    H133704   4.258   5.083   3.092
11249TIP3    H233705   4.257   4.946   3.157
11250TIP3   OH233706   2.703   2.218   0.456
11250TIP3    H133707   2.738   2.305   0.470
11250TIP3    H233708   2.780   2.163   0.441
11251TIP3   OH233709   2.034   3.743   2.855
11251TIP3    H133710   2.061   3.772   2.943
11251TIP3    H233711   1.958   3.797   2.835
11252TIP3   OH233712   4.721   7.067   4.101
11252TIP3    H133713   4.641   7.070   4.048
11252TIP3    H233714   4.721   7.151   4.147
11253TIP3   OH233715   5.909   2.683   2.930
11253TIP3    H133716   5.917   2.658   2.837
11253TIP3    H233717   5.979   2.747   2.943
11254TIP3   OH233718   1.316   6.526   6.705
11254TIP3    H133719   1.342   6.613   6.674
11254TIP3    H233720   1.226   6.537   6.736
11255TIP3   OH233721   6.655   1.839   4.307
11255TIP3    H133722   6.580   1.793   4.270
11255TIP3    H233723   6.706   1.867   4.230
11256TIP3   OH233724   2.890   1.420   4.116
11256TIP3    H133725   2.910   1.513   4.125
11256TIP3    H233726   2.915   1.399   4.026
11257TIP3   OH233727   1.434   4.058   6.122
11257TIP3    H133728   1.354   4.107   6.108
11257TIP3    H233729   1.406   3.980   6.171
11258TIP3   OH233730   3.692   3.537   2.557
11258TIP3    H133731   3.669   3.478   2.630
11258TIP3    H233732   3.633   3.612   2.568
11259TIP3   OH233733   1.801   2.484   1.786
11259TIP3    H133734   1.818   2.470   1.879
11259TIP3    H233735   1.842   2.409   1.743
11260TIP3   OH233736   7.603   5.218   5.833
11260TIP3    H133737   7.632   5.158   5.765
11260TIP3    H233738   7.646   5.187   5.913
11261TIP3   OH233739   2.550   5.975   1.779
11261TIP3    H133740   2.610   6.036   1.736
11261TIP3    H233741   2.586   5.964   1.867
11262TIP3   OH233742   2.023   1.338   6.439
11262TIP3    H133743   1.998   1.430   6.425
11262TIP3    H233744   1.993   1.293   6.360
11263TIP3   OH233745   1.258   0.507   6.350
11263TIP3    H133746   1.324   0.531   6.414
11263TIP3    H233747   1.180   0.557   6.376
11264TIP3   OH233748   5.124   6.504   1.530
11264TIP3    H133749   5.038   6.534   1.560
11264TIP3    H233750   5.127   6.411   1.554
11265TIP3   OH233751   6.581   0.318   3.164
11265TIP3    H133752   6.578   0.371   3.244
11265TIP3    H233753   6.512   0.355   3.109
11266TIP3   OH233754   2.993   0.710   1.568
11266TIP3    H133755   2.957   0.761   1.495
11266TIP3    H233756   3.048   0.644   1.526
11267TIP3   OH233757   0.990   1.151   2.273
11267TIP3    H133758   0.963   1.073   2.321
11267TIP3    H233759   1.015   1.119   2.186
11268TIP3   OH233760   4.339   2.393   6.252
11268TIP3    H133761   4.293   2.461   6.301
11268TIP3    H233762   4.304   2.399   6.163
11269TIP3   OH233763   1.557   1.382   0.237
11269TIP3    H133764   1.598   1.389   0.151
11269TIP3    H233765   1.534   1.289   0.244
11270TIP3   OH233766   3.139   4.637   4.825
11270TIP3    H133767   3.106   4.574   4.889
11270TIP3    H233768   3.061   4.684   4.795
11271TIP3   OH233769   3.112   2.951   4.885
11271TIP3    H133770   3.102   2.924   4.976
11271TIP3    H233771   3.116   3.046   4.888
11272TIP3   OH233772   4.224   3.089   1.595
11272TIP3    H133773   4.311   3.074   1.556
11272TIP3    H233774   4.173   3.129   1.525
11273TIP3   OH233775   8.080   3.302   2.981
11273TIP3    H133776   8.144   3.265   3.042
11273TIP3    H233777   8.028   3.362   3.034
11274TIP3   OH233778   7.779   5.367   4.170
11274TIP3    H133779   7.829   5.436   4.215
11274TIP3    H233780   7.844   5.303   4.143
11275TIP3   OH233781   0.317   4.406   5.853
11275TIP3    H133782   0.238   4.451   5.823
11275TIP3    H233783   0.380   4.417   5.781
11276TIP3   OH233784   4.017   4.014   1.482
11276TIP3    H133785   4.029   3.986   1.572
11276TIP3    H233786   3.984   4.104   1.489
11277TIP3   OH233787   0.948   0.075   1.897
11277TIP3    H133788   1.008   0.054   1.969
11277TIP3    H233789   0.979   0.159   1.863
11278TIP3   OH233790   6.505   5.530   0.711
11278TIP3    H133791   6.494   5.462   0.777
11278TIP3    H233792   6.585   5.576   0.738
11279TIP3   OH233793   1.112   5.545   0.036
11279TIP3    H133794   1.187   5.487   0.039
11279TIP3    H233795   1.074   5.532  -0.051
11280TIP3   OH233796   4.241   4.735   6.216
11280TIP3    H133797   4.229   4.733   6.122
11280TIP3    H233798   4.155   4.715   6.252
11281TIP3   OH233799   0.610   5.001   3.728
11281TIP3    H133800   0.605   5.097   3.734
11281TIP3    H233801   0.628   4.972   3.817
11282TIP3   OH233802   2.582   4.562   4.902
11282TIP3    H133803   2.552   4.615   4.828
11282TIP3    H233804   2.633   4.621   4.956
11283TIP3   OH233805   6.403   7.058   4.282
11283TIP3    H133806   6.393   7.006   4.202
11283TIP3    H233807   6.459   7.131   4.256
11284TIP3   OH233808   5.695   3.249   3.374
11284TIP3    H133809   5.636   3.324   3.372
11284TIP3    H233810   5.765   3.271   3.312
11285TIP3   OH233811   6.057   0.041   0.916
11285TIP3    H133812   5.972   0.065   0.953
11285TIP3    H233813   6.036  -0.006   0.836
11286TIP3   OH233814   3.544   5.184   0.667
11286TIP3    H133815   3.563   5.248   0.599
11286TIP3    H233816   3.498   5.234   0.735
11287TIP3   OH233817   1.071   2.693   3.371
11287TIP3    H133818   1.138   2.716   3.307
11287TIP3    H233819   1.022   2.774   3.385
11288TIP3   OH233820   4.809   1.931   5.215
11288TIP3    H133821   4.900   1.943   5.189
11288TIP3    H233822   4.771   2.019   5.212
11289TIP3   OH233823   5.417   1.041   6.351
11289TIP3    H133824   5.325   1.019   6.335
11289TIP3    H233825   5.414   1.101   6.426
11290TIP3   OH233826   7.860   6.397   1.390
11290TIP3    H133827   7.785   6.451   1.413
11290TIP3    H233828   7.854   6.386   1.295
11291TIP3   OH233829   3.336   6.997   3.451
11291TIP3    H133830   3.253   7.044   3.442
11291TIP3    H233831   3.311   6.907   3.472
11292TIP3   OH233832   4.251   2.424   4.687
11292TIP3    H133833   4.204   2.491   4.638
11292TIP3    H233834   4.260   2.460   4.775
11293TIP3   OH233835   8.181   2.802   6.034
11293TIP3    H133836   8.092   2.827   6.059
11293TIP3    H233837   8.200   2.724   6.085
11294TIP3   OH233838   3.188   6.440   3.569
11294TIP3    H133839   3.188   6.457   3.663
11294TIP3    H233840   3.279   6.417   3.549
11295TIP3   OH233841   0.066   5.883   0.427
11295TIP3    H133842   0.012   5.926   0.361
11295TIP3    H233843   0.018   5.803   0.450
11296TIP3   OH233844   7.841   7.360   0.545
11296TIP3    H133845   7.827   7.309   0.466
11296TIP3    H233846   7.893   7.303   0.602
11297TIP3   OH233847   5.644   3.119   2.618
11297TIP3    H133848   5.578   3.103   2.551
11297TIP3    H233849   5.601   3.175   2.682
11298TIP3   OH233850   4.274   2.622   1.559
11298TIP3    H133851   4.269   2.653   1.469
11298TIP3    H233852   4.353   2.569   1.563
11299TIP3   OH233853   4.416   0.879   2.815
11299TIP3    H133854   4.449   0.836   2.893
11299TIP3    H233855   4.487   0.938   2.788
11300TIP3   OH233856   7.798   6.669   0.682
11300TIP3    H133857   7.850   6.590   0.664
11300TIP3    H233858   7.716   6.656   0.634
11301TIP3   OH233859   2.239   6.539   6.351
11301TIP3    H133860   2.174   6.587   6.300
11301TIP3    H233861   2.188   6.481   6.407
11302TIP3   OH233862   8.054   1.099   0.914
11302TIP3    H133863   7.968   1.110   0.873
11302TIP3    H233864   8.035   1.095   1.008
11303TIP3   OH233865   1.524   4.801   0.733
11303TIP3    H133866   1.534   4.829   0.824
11303TIP3    H233867   1.559   4.712   0.731
11304TIP3   OH233868   1.519   4.195   1.411
11304TIP3    H133869   1.483   4.144   1.484
11304TIP3    H233870   1.595   4.145   1.382
11305TIP3   OH233871   1.247   6.804   5.856
11305TIP3    H133872   1.211   6.872   5.914
11305TIP3    H233873   1.269   6.850   5.775
11306TIP3   OH233874   0.254   2.245   3.981
11306TIP3    H133875   0.206   2.303   3.922
11306TIP3    H233876   0.203   2.245   4.062
11307TIP3   OH233877   0.851   2.060   3.332
11307TIP3    H133878   0.804   2.061   3.249
11307TIP3    H233879   0.783   2.069   3.399
11308TIP3   OH233880   5.108   0.630   0.523
11308TIP3    H133881   5.093   0.639   0.429
11308TIP3    H233882   5.165   0.554   0.530
11309TIP3   OH233883   5.568   1.383   5.262
11309TIP3    H133884   5.594   1.361   5.172
11309TIP3    H233885   5.514   1.309   5.290
11310TIP3   OH233886   2.416   6.476   6.132
11310TIP3    H133887   2.367   6.550   6.096
11310TIP3    H233888   2.366   6.449   6.209
11311TIP3   OH233889   3.659   0.992  -0.020
11311TIP3    H133890   3.691   1.066   0.032
11311TIP3    H233891   3.709   0.997  -0.101
11312TIP3   OH233892   6.462   7.799   1.235
11312TIP3    H133893   6.544   7.841   1.210
11312TIP3    H233894   6.487   7.725   1.289
11313TIP3   OH233895   8.280   2.921   3.559
11313TIP3    H133896   8.269   2.847   3.500
11313TIP3    H233897   8.218   2.904   3.630
11314TIP3   OH233898   1.058   5.192   2.994
11314TIP3    H133899   1.090   5.282   3.001
11314TIP3    H233900   0.985   5.188   3.055
11315TIP3   OH233901   1.123   5.943   5.574
11315TIP3    H133902   1.085   5.932   5.661
11315TIP3    H233903   1.081   5.876   5.520
11316TIP3   OH233904   7.785   6.834   3.291
11316TIP3    H133905   7.767   6.796   3.377
11316TIP3    H233906   7.720   6.795   3.232
11317TIP3   OH233907   5.123   3.106   5.014
11317TIP3    H133908   5.116   3.165   5.090
11317TIP3    H233909   5.131   3.019   5.053
11318TIP3   OH233910   7.075   2.177   6.038
11318TIP3    H133911   7.164   2.155   6.008
11318TIP3    H233912   7.089   2.241   6.108
11319TIP3   OH233913   1.917  -0.002   6.305
11319TIP3    H133914   1.908   0.075   6.361
11319TIP3    H233915   1.976  -0.060   6.353
11320TIP3   OH233916   3.047   7.386   2.277
11320TIP3    H133917   3.086   7.451   2.219
11320TIP3    H233918   2.959   7.372   2.242
11321TIP3   OH233919   1.770   3.125   0.960
11321TIP3    H133920   1.785   3.070   1.037
11321TIP3    H233921   1.695   3.179   0.982
11322TIP3   OH233922   4.230   1.454   5.834
11322TIP3    H133923   4.259   1.370   5.870
11322TIP3    H233924   4.137   1.440   5.813
11323TIP3   OH233925   7.872   0.750   6.291
11323TIP3    H133926   7.917   0.802   6.225
11323TIP3    H233927   7.896   0.790   6.374
11324TIP3   OH233928   4.578   1.186   6.466
11324TIP3    H133929   4.648   1.252   6.464
11324TIP3    H233930   4.595   1.132   6.388
11325TIP3   OH233931   0.289   4.240   4.245
11325TIP3    H133932   0.227   4.262   4.315
11325TIP3    H233933   0.252   4.282   4.167
11326TIP3   OH233934   1.036   0.493   1.506
11326TIP3    H133935   1.078   0.445   1.434
11326TIP3    H233936   1.079   0.461   1.585
11327TIP3   OH233937   4.966   4.885   6.245
11327TIP3    H133938   4.896   4.853   6.302
11327TIP3    H233939   4.966   4.824   6.171
11328TIP3   OH233940   0.244   5.228   6.473
11328TIP3    H133941   0.197   5.166   6.417
11328TIP3    H233942   0.314   5.263   6.418
11329TIP3   OH233943   5.215   4.649   2.068
11329TIP3    H133944   5.303   4.635   2.103
11329TIP3    H233945   5.185   4.562   2.043
11330TIP3   OH233946   0.601   1.819   3.239
11330TIP3    H133947   0.688   1.801   3.272
11330TIP3    H233948   0.596   1.774   3.155
11331TIP3   OH233949   6.456   2.451   1.360
11331TIP3    H133950   6.488   2.363   1.381
11331TIP3    H233951   6.361   2.445   1.370
11332TIP3   OH233952   7.136   0.035   1.159
11332TIP3    H133953   7.051  -0.010   1.154
11332TIP3    H233954   7.152   0.045   1.253
11333TIP3   OH233955   5.613   7.756   3.164
11333TIP3    H133956   5.613   7.692   3.235
11333TIP3    H233957   5.687   7.814   3.184
11334TIP3   OH233958   3.788   0.703   4.706
11334TIP3    H133959   3.789   0.695   4.610
11334TIP3    H233960   3.813   0.794   4.722
11335TIP3   OH233961   4.301   3.037   6.323
11335TIP3    H133962   4.228   2.990   6.364
11335TIP3    H233963   4.278   3.129   6.333
11336TIP3   OH233964   3.044   3.894   0.692
11336TIP3    H133965   3.005   3.862   0.774
11336TIP3    H233966   3.005   3.839   0.624
11337TIP3   OH233967   3.950   4.085   0.115
11337TIP3    H133968   3.941   4.017   0.182
11337TIP3    H233969   4.004   4.152   0.156
11338TIP3   OH233970   4.237   6.554   5.387
11338TIP3    H133971   4.272   6.466   5.400
11338TIP3    H233972   4.239   6.593   5.475
11339TIP3   OH233973   7.696   0.067   6.198
11339TIP3    H133974   7.674   0.108   6.114
11339TIP3    H233975   7.724   0.140   6.254
11340TIP3   OH233976   0.329   1.414   1.128
11340TIP3    H133977   0.272   1.382   1.197
11340TIP3    H233978   0.328   1.346   1.061
11341TIP3   OH233979   4.271   3.535   2.740
11341TIP3    H133980   4.299   3.499   2.824
11341TIP3    H233981   4.184   3.571   2.757
11342TIP3   OH233982   0.895   3.696   5.129
11342TIP3    H133983   0.909   3.612   5.085
11342TIP3    H233984   0.811   3.686   5.173
11343TIP3   OH233985   6.818   7.552   3.870
11343TIP3    H133986   6.878   7.520   3.937
11343TIP3    H233987   6.776   7.474   3.835
11344TIP3   OH233988   6.236   3.259   6.708
11344TIP3    H133989   6.237   3.231   6.800
11344TIP3    H233990   6.223   3.353   6.712
11345TIP3   OH233991   0.129   0.421   4.281
11345TIP3    H133992   0.065   0.402   4.212
11345TIP3    H233993   0.077   0.463   4.350
11346TIP3   OH233994   7.017   4.182   6.688
11346TIP3    H133995   7.098   4.163   6.640
11346TIP3    H233996   7.018   4.120   6.761
11347TIP3   OH233997   4.250   5.422   1.345
11347TIP3    H133998   4.198   5.404   1.266
11347TIP3    H233999   4.291   5.507   1.328
11348TIP3   OH234000   6.677   6.563   1.994
11348TIP3    H134001   6.642   6.640   1.949
11348TIP3    H234002   6.766   6.555   1.961
11349TIP3   OH234003   4.478   0.401   0.509
11349TIP3    H134004   4.401   0.349   0.484
11349TIP3    H234005   4.452   0.491   0.493
11350TIP3   OH234006   7.650   3.790   1.427
11350TIP3    H134007   7.612   3.867   1.387
11350TIP3    H234008   7.636   3.802   1.521
11351TIP3   OH234009   4.294   1.654   3.847
11351TIP3    H134010   4.310   1.572   3.894
11351TIP3    H234011   4.200   1.654   3.830
11352TIP3   OH234012   0.107   0.637   2.523
11352TIP3    H134013   0.173   0.705   2.534
11352TIP3    H234014   0.154   0.564   2.484
11353TIP3   OH234015   4.184   4.094   3.058
11353TIP3    H134016   4.117   4.139   3.006
11353TIP3    H234017   4.138   4.069   3.139
11354TIP3   OH234018   3.860   4.574   3.504
11354TIP3    H134019   3.800   4.642   3.534
11354TIP3    H234020   3.882   4.600   3.414
11355TIP3   OH234021   6.203   0.228   1.635
11355TIP3    H134022   6.109   0.213   1.651
11355TIP3    H234023   6.247   0.154   1.676
11356TIP3   OH234024   0.294   1.621   2.116
11356TIP3    H134025   0.268   1.703   2.157
11356TIP3    H234026   0.211   1.574   2.104
11357TIP3   OH234027   6.731   4.292   1.245
11357TIP3    H134028   6.679   4.260   1.171
11357TIP3    H234029   6.742   4.386   1.228
11358TIP3   OH234030   2.556   3.284   6.496
11358TIP3    H134031   2.624   3.220   6.477
11358TIP3    H234032   2.592   3.368   6.466
11359TIP3   OH234033   7.157   1.019   5.421
11359TIP3    H134034   7.092   1.019   5.492
11359TIP3    H234035   7.107   1.042   5.343
11360TIP3   OH234036   2.284   6.963   0.941
11360TIP3    H134037   2.282   6.913   0.859
11360TIP3    H234038   2.314   6.900   1.007
11361TIP3   OH234039   4.242   7.223   3.617
11361TIP3    H134040   4.281   7.137   3.634
11361TIP3    H234041   4.186   7.209   3.540
11362TIP3   OH234042   0.999   2.488   5.028
11362TIP3    H134043   1.049   2.501   5.109
11362TIP3    H234044   0.933   2.557   5.030
11363TIP3   OH234045   0.104   4.992   0.553
11363TIP3    H134046   0.194   5.025   0.544
11363TIP3    H234047   0.105   4.908   0.508
11364TIP3   OH234048   8.169   6.679   6.408
11364TIP3    H134049   8.201   6.758   6.365
11364TIP3    H234050   8.214   6.607   6.363
11365TIP3   OH234051   1.152   0.498   3.123
11365TIP3    H134052   1.206   0.489   3.201
11365TIP3    H234053   1.152   0.411   3.083
11366TIP3   OH234054   1.306   4.098   3.693
11366TIP3    H134055   1.364   4.171   3.715
11366TIP3    H234056   1.230   4.109   3.751
11367TIP3   OH234057   6.574   6.172   3.573
11367TIP3    H134058   6.643   6.237   3.588
11367TIP3    H234059   6.493   6.223   3.577
11368TIP3   OH234060   8.063   7.763   5.338
11368TIP3    H134061   8.020   7.686   5.301
11368TIP3    H234062   8.149   7.765   5.296
11369TIP3   OH234063   4.578   2.585   0.469
11369TIP3    H134064   4.567   2.647   0.397
11369TIP3    H234065   4.511   2.611   0.532
11370TIP3   OH234066   8.033   5.424   2.596
11370TIP3    H134067   7.983   5.370   2.534
11370TIP3    H234068   8.091   5.477   2.541
11371TIP3   OH234069   2.561   0.341   6.644
11371TIP3    H134070   2.634   0.396   6.618
11371TIP3    H234071   2.531   0.302   6.561
11372TIP3   OH234072   5.431   4.509   2.825
11372TIP3    H134073   5.443   4.473   2.738
11372TIP3    H234074   5.369   4.451   2.868
11373TIP3   OH234075   8.011   2.074   3.028
11373TIP3    H134076   7.936   2.100   2.975
11373TIP3    H234077   7.994   2.113   3.114
11374TIP3   OH234078   7.941   6.662   1.242
11374TIP3    H134079   7.935   6.574   1.279
11374TIP3    H234080   7.910   6.652   1.152
11375TIP3   OH234081   8.157   3.379   1.079
11375TIP3    H134082   8.111   3.360   1.161
11375TIP3    H234083   8.091   3.424   1.025
11376TIP3   OH234084   2.464   1.456   5.454
11376TIP3    H134085   2.526   1.475   5.524
11376TIP3    H234086   2.483   1.521   5.387
11377TIP3   OH234087   2.364   5.974   3.049
11377TIP3    H134088   2.449   5.980   3.007
11377TIP3    H234089   2.307   5.937   2.981
11378TIP3   OH234090   1.082   7.837   0.082
11378TIP3    H134091   1.052   7.915   0.036
11378TIP3    H234092   1.130   7.871   0.158
11379TIP3   OH234093   7.387   0.681   0.492
11379TIP3    H134094   7.346   0.597   0.472
11379TIP3    H234095   7.418   0.672   0.582
11380TIP3   OH234096   6.098   5.792   1.821
11380TIP3    H134097   6.040   5.857   1.860
11380TIP3    H234098   6.040   5.724   1.788
11381TIP3   OH234099   7.504   3.748   4.914
11381TIP3    H134100   7.440   3.794   4.967
11381TIP3    H234101   7.474   3.762   4.824
11382TIP3   OH234102   1.629   3.164   1.270
11382TIP3    H134103   1.627   3.095   1.336
11382TIP3    H234104   1.542   3.204   1.275
11383TIP3   OH234105   7.767   7.535   4.988
11383TIP3    H134106   7.677   7.514   5.012
11383TIP3    H234107   7.777   7.627   5.011
11384TIP3   OH234108   2.848   5.535   3.766
11384TIP3    H134109   2.831   5.522   3.673
11384TIP3    H234110   2.876   5.449   3.798
11385TIP3   OH234111   4.255   7.518   2.880
11385TIP3    H134112   4.245   7.461   2.804
11385TIP3    H234113   4.165   7.536   2.909
11386TIP3   OH234114   3.601   1.754   3.353
11386TIP3    H134115   3.595   1.664   3.320
11386TIP3    H234116   3.511   1.786   3.353
11387TIP3   OH234117   6.641   1.490   5.767
11387TIP3    H134118   6.553   1.459   5.786
11387TIP3    H234119   6.678   1.511   5.853
11388TIP3   OH234120   0.002   7.188   3.691
11388TIP3    H134121  -0.050   7.252   3.641
11388TIP3    H234122   0.091   7.222   3.689
11389TIP3   OH234123   8.204   3.968   1.580
11389TIP3    H134124   8.193   4.060   1.604
11389TIP3    H234125   8.176   3.920   1.657
11390TIP3   OH234126   6.019   3.162   6.340
11390TIP3    H134127   6.076   3.184   6.266
11390TIP3    H234128   6.018   3.241   6.394
11391TIP3   OH234129   2.012   1.764   4.179
11391TIP3    H134130   2.020   1.830   4.110
11391TIP3    H234131   1.937   1.793   4.231
11392TIP3   OH234132   5.011   1.493   1.507
11392TIP3    H134133   4.945   1.448   1.454
11392TIP3    H234134   5.016   1.442   1.587
11393TIP3   OH234135   1.452   4.693   6.118
11393TIP3    H134136   1.460   4.679   6.212
11393TIP3    H234137   1.511   4.629   6.079
11394TIP3   OH234138   1.659   4.753   4.172
11394TIP3    H134139   1.588   4.711   4.124
11394TIP3    H234140   1.728   4.766   4.107
11395TIP3   OH234141   6.005   0.142   0.581
11395TIP3    H134142   6.100   0.153   0.581
11395TIP3    H234143   5.971   0.228   0.606
11396TIP3   OH234144   6.266   3.604   1.354
11396TIP3    H134145   6.283   3.612   1.447
11396TIP3    H234146   6.318   3.674   1.314
11397TIP3   OH234147   2.080   4.905   2.152
11397TIP3    H134148   2.141   4.897   2.226
11397TIP3    H234149   2.121   4.855   2.082
11398TIP3   OH234150   6.725   1.204   4.843
11398TIP3    H134151   6.715   1.208   4.748
11398TIP3    H234152   6.808   1.158   4.856
11399TIP3   OH234153   0.985   3.326   0.525
11399TIP3    H134154   1.076   3.335   0.499
11399TIP3    H234155   0.936   3.377   0.460
11400TIP3   OH234156   2.914   5.837   3.928
11400TIP3    H134157   2.822   5.830   3.905
11400TIP3    H234158   2.960   5.838   3.845
11401TIP3   OH234159   5.891   7.102   0.261
11401TIP3    H134160   5.952   7.167   0.297
11401TIP3    H234161   5.804   7.139   0.277
11402TIP3   OH234162   4.448   4.027   2.993
11402TIP3    H134163   4.451   3.941   2.950
11402TIP3    H234164   4.354   4.042   3.009
11403TIP3   OH234165   6.035   6.011   0.169
11403TIP3    H134166   6.029   5.928   0.123
11403TIP3    H234167   6.047   5.987   0.261
11404TIP3   OH234168   1.679   2.368   5.867
11404TIP3    H134169   1.672   2.445   5.811
11404TIP3    H234170   1.677   2.402   5.956
11405TIP3   OH234171   2.276   0.760   0.835
11405TIP3    H134172   2.313   0.815   0.904
11405TIP3    H234173   2.266   0.818   0.760
11406TIP3   OH234174   3.780   5.595   1.653
11406TIP3    H134175   3.688   5.616   1.670
11406TIP3    H234176   3.813   5.564   1.738
11407TIP3   OH234177   6.295   1.929   3.759
11407TIP3    H134178   6.207   1.965   3.742
11407TIP3    H234179   6.337   1.928   3.674
11408TIP3   OH234180   7.156   2.347   2.324
11408TIP3    H134181   7.185   2.431   2.360
11408TIP3    H234182   7.060   2.353   2.325
11409TIP3   OH234183   0.911   1.168   0.050
11409TIP3    H134184   0.954   1.253   0.053
11409TIP3    H234185   0.855   1.172  -0.028
11410TIP3   OH234186   7.862   6.450   4.126
11410TIP3    H134187   7.948   6.409   4.120
11410TIP3    H234188   7.864   6.519   4.059
11411TIP3   OH234189   4.579   5.917   0.527
11411TIP3    H134190   4.567   5.823   0.537
11411TIP3    H234191   4.620   5.945   0.608
11412TIP3   OH234192   6.550   4.983   4.252
11412TIP3    H134193   6.541   5.076   4.230
11412TIP3    H234194   6.534   4.980   4.347
11413TIP3   OH234195   4.527   0.162   3.380
11413TIP3    H134196   4.503   0.088   3.436
11413TIP3    H234197   4.623   0.164   3.382
11414TIP3   OH234198   0.655   7.076   4.321
11414TIP3    H134199   0.623   7.163   4.344
11414TIP3    H234200   0.593   7.045   4.255
11415TIP3   OH234201   3.648   0.066   6.649
11415TIP3    H134202   3.651   0.151   6.694
11415TIP3    H234203   3.694   0.006   6.707
11416TIP3   OH234204   0.060   1.628   3.975
11416TIP3    H134205   0.099   1.559   4.029
11416TIP3    H234206   0.122   1.701   3.983
11417TIP3   OH234207   2.681   6.461   2.508
11417TIP3    H134208   2.634   6.384   2.476
11417TIP3    H234209   2.620   6.534   2.495
11418TIP3   OH234210   6.350   1.502   0.225
11418TIP3    H134211   6.296   1.577   0.202
11418TIP3    H234212   6.324   1.480   0.315
11419TIP3   OH234213   6.887   7.653   2.491
11419TIP3    H134214   6.918   7.713   2.559
11419TIP3    H234215   6.825   7.704   2.440
11420TIP3   OH234216   7.026   1.237   2.579
11420TIP3    H134217   6.947   1.191   2.608
11420TIP3    H234218   7.090   1.221   2.648
11421TIP3   OH234219   3.053   4.978   5.301
11421TIP3    H134220   3.124   4.960   5.363
11421TIP3    H234221   2.996   5.040   5.347
11422TIP3   OH234222   2.318   6.627   4.722
11422TIP3    H134223   2.384   6.566   4.691
11422TIP3    H234224   2.367   6.707   4.743
11423TIP3   OH234225   2.022   5.894   6.321
11423TIP3    H134226   2.066   5.811   6.339
11423TIP3    H234227   2.049   5.917   6.233
11424TIP3   OH234228   1.800   7.068   1.332
11424TIP3    H134229   1.759   7.077   1.246
11424TIP3    H234230   1.893   7.087   1.317
11425TIP3   OH234231   1.944   6.162   6.181
11425TIP3    H134232   1.922   6.086   6.235
11425TIP3    H234233   2.040   6.159   6.173
11426TIP3   OH234234   6.685   4.990   2.244
11426TIP3    H134235   6.609   4.971   2.190
11426TIP3    H234236   6.750   5.025   2.183
11427TIP3   OH234237   1.709   3.493   1.339
11427TIP3    H134238   1.644   3.449   1.394
11427TIP3    H234239   1.722   3.435   1.264
11428TIP3   OH234240   4.749   1.268   3.016
11428TIP3    H134241   4.834   1.255   2.974
11428TIP3    H234242   4.717   1.179   3.033
11429TIP3   OH234243   1.590   5.384   4.220
11429TIP3    H134244   1.633   5.302   4.196
11429TIP3    H234245   1.627   5.406   4.306
11430TIP3   OH234246   8.176   4.867   6.511
11430TIP3    H134247   8.200   4.778   6.486
11430TIP3    H234248   8.083   4.862   6.532
11431TIP3   OH234249   0.425   4.752   0.588
11431TIP3    H134250   0.510   4.731   0.626
11431TIP3    H234251   0.442   4.829   0.533
11432TIP3   OH234252   2.912   5.335   1.947
11432TIP3    H134253   2.915   5.245   1.980
11432TIP3    H234254   2.852   5.380   2.007
11433TIP3   OH234255   4.801   2.526   6.425
11433TIP3    H134256   4.779   2.618   6.438
11433TIP3    H234257   4.740   2.479   6.481
11434TIP3   OH234258   5.427   3.877   4.675
11434TIP3    H134259   5.382   3.917   4.750
11434TIP3    H234260   5.502   3.832   4.714
11435TIP3   OH234261   8.068   1.094   6.602
11435TIP3    H134262   8.155   1.114   6.638
11435TIP3    H234263   8.038   1.176   6.563
11436TIP3   OH234264   4.626   6.525   0.520
11436TIP3    H134265   4.703   6.580   0.506
11436TIP3    H234266   4.572   6.574   0.583
11437TIP3   OH234267   2.211   4.329   5.532
11437TIP3    H134268   2.220   4.289   5.446
11437TIP3    H234269   2.253   4.415   5.523
11438TIP3   OH234270   7.249   4.101   3.473
11438TIP3    H134271   7.204   4.142   3.546
11438TIP3    H234272   7.290   4.023   3.511
11439TIP3   OH234273   0.576   2.174   1.982
11439TIP3    H134274   0.618   2.157   2.066
11439TIP3    H234275   0.649   2.186   1.921
11440TIP3   OH234276   5.291   7.285   2.161
11440TIP3    H134277   5.238   7.213   2.127
11440TIP3    H234278   5.300   7.265   2.255
11441TIP3   OH234279   2.499   4.361   1.457
11441TIP3    H134280   2.571   4.309   1.422
11441TIP3    H234281   2.516   4.366   1.551
11442TIP3   OH234282   8.057   1.699   6.634
11442TIP3    H134283   8.048   1.790   6.605
11442TIP3    H234284   8.029   1.647   6.558
11443TIP3   OH234285   4.827   6.779   1.944
11443TIP3    H134286   4.829   6.816   2.033
11443TIP3    H234287   4.905   6.725   1.938
11444TIP3   OH234288   7.546   5.269   0.127
11444TIP3    H134289   7.492   5.237   0.055
11444TIP3    H234290   7.510   5.226   0.205
11445TIP3   OH234291   6.887   5.634   1.871
11445TIP3    H134292   6.913   5.690   1.944
11445TIP3    H234293   6.818   5.682   1.826
11446TIP3   OH234294   4.407   3.215   6.562
11446TIP3    H134295   4.322   3.172   6.551
11446TIP3    H234296   4.385   3.304   6.589
11447TIP3   OH234297   6.056   5.155   1.346
11447TIP3    H134298   6.077   5.207   1.268
11447TIP3    H234299   6.140   5.146   1.392
11448TIP3   OH234300   7.949   4.952   1.149
11448TIP3    H134301   7.888   4.900   1.201
11448TIP3    H234302   7.894   5.008   1.095
11449TIP3   OH234303   3.215   1.794   6.270
11449TIP3    H134304   3.309   1.807   6.284
11449TIP3    H234305   3.177   1.796   6.359
11450TIP3   OH234306   4.635   6.362   0.986
11450TIP3    H134307   4.699   6.430   0.968
11450TIP3    H234308   4.594   6.344   0.901
11451TIP3   OH234309   6.095   3.275   5.521
11451TIP3    H134310   6.167   3.275   5.585
11451TIP3    H234311   6.132   3.233   5.444
11452TIP3   OH234312   1.346   7.381   4.218
11452TIP3    H134313   1.341   7.310   4.154
11452TIP3    H234314   1.269   7.370   4.272
11453TIP3   OH234315   6.306   5.993   5.838
11453TIP3    H134316   6.389   6.001   5.884
11453TIP3    H234317   6.310   5.908   5.794
11454TIP3   OH234318   7.422   1.370   0.543
11454TIP3    H134319   7.490   1.307   0.519
11454TIP3    H234320   7.396   1.344   0.632
11455TIP3   OH234321   1.997   2.550   5.263
11455TIP3    H134322   2.087   2.582   5.269
11455TIP3    H234323   2.002   2.475   5.204
11456TIP3   OH234324   6.222   5.522   3.409
11456TIP3    H134325   6.273   5.526   3.490
11456TIP3    H234326   6.133   5.544   3.435
11457TIP3   OH234327   7.566   2.701   5.122
11457TIP3    H134328   7.506   2.715   5.048
11457TIP3    H234329   7.544   2.613   5.154
11458TIP3   OH234330   2.849   2.625   3.919
11458TIP3    H134331   2.852   2.544   3.969
11458TIP3    H234332   2.940   2.639   3.890
11459TIP3   OH234333   7.487   5.986   5.433
11459TIP3    H134334   7.419   5.956   5.493
11459TIP3    H234335   7.472   6.081   5.426
11460TIP3   OH234336   1.387   3.349   2.535
11460TIP3    H134337   1.406   3.285   2.467
11460TIP3    H234338   1.438   3.320   2.610
11461TIP3   OH234339   3.365   4.488   5.821
11461TIP3    H134340   3.286   4.459   5.776
11461TIP3    H234341   3.345   4.479   5.914
11462TIP3   OH234342   1.596   1.661   2.470
11462TIP3    H134343   1.513   1.697   2.500
11462TIP3    H234344   1.617   1.711   2.391
11463TIP3   OH234345   4.150   0.485   0.464
11463TIP3    H134346   4.176   0.399   0.433
11463TIP3    H234347   4.085   0.515   0.401
11464TIP3   OH234348   0.832   5.529   1.487
11464TIP3    H134349   0.767   5.474   1.531
11464TIP3    H234350   0.916   5.500   1.522
11465TIP3   OH234351   4.180   7.553   2.425
11465TIP3    H134352   4.090   7.580   2.444
11465TIP3    H234353   4.173   7.461   2.401
11466TIP3   OH234354   4.218   4.572   2.343
11466TIP3    H134355   4.259   4.625   2.274
11466TIP3    H234356   4.139   4.536   2.301
11467TIP3   OH234357   5.607   2.240   1.441
11467TIP3    H134358   5.682   2.268   1.493
11467TIP3    H234359   5.531   2.270   1.490
11468TIP3   OH234360   0.632   2.407   5.383
11468TIP3    H134361   0.693   2.442   5.318
11468TIP3    H234362   0.599   2.326   5.344
11469TIP3   OH234363   4.550   3.339   1.132
11469TIP3    H134364   4.603   3.268   1.095
11469TIP3    H234365   4.609   3.383   1.193
11470TIP3   OH234366   1.487   4.282   0.809
11470TIP3    H134367   1.501   4.305   0.717
11470TIP3    H234368   1.402   4.319   0.831
11471TIP3   OH234369   8.181   1.581   3.284
11471TIP3    H134370   8.097   1.547   3.316
11471TIP3    H234371   8.156   1.653   3.226
11472TIP3   OH234372   0.331   0.496   2.168
11472TIP3    H134373   0.414   0.472   2.127
11472TIP3    H234374   0.315   0.586   2.139
11473TIP3   OH234375   6.189   2.881   1.885
11473TIP3    H134376   6.128   2.874   1.812
11473TIP3    H234377   6.172   2.803   1.938
11474TIP3   OH234378   4.174   0.441   6.108
11474TIP3    H134379   4.162   0.468   6.199
11474TIP3    H234380   4.093   0.394   6.087
11475TIP3   OH234381   2.825   5.444   6.571
11475TIP3    H134382   2.758   5.476   6.510
11475TIP3    H234383   2.905   5.489   6.545
11476TIP3   OH234384   1.189   2.561   0.990
11476TIP3    H134385   1.097   2.533   0.995
11476TIP3    H234386   1.201   2.589   0.899
11477TIP3   OH234387   1.780   7.359   1.789
11477TIP3    H134388   1.772   7.412   1.710
11477TIP3    H234389   1.753   7.417   1.860
11478TIP3   OH234390   6.158   1.135   4.555
11478TIP3    H134391   6.124   1.066   4.611
11478TIP3    H234392   6.105   1.212   4.577
11479TIP3   OH234393   7.860   0.284   5.494
11479TIP3    H134394   7.862   0.331   5.411
11479TIP3    H234395   7.805   0.337   5.550
11480TIP3   OH234396   7.268   0.470   1.279
11480TIP3    H134397   7.240   0.422   1.201
11480TIP3    H234398   7.288   0.558   1.248
11481TIP3   OH234399   2.247   4.134   2.329
11481TIP3    H134400   2.206   4.126   2.243
11481TIP3    H234401   2.179   4.175   2.384
11482TIP3   OH234402   3.921   6.932   2.107
11482TIP3    H134403   3.909   6.838   2.122
11482TIP3    H234404   3.888   6.973   2.187
11483TIP3   OH234405   2.016   1.112   0.331
11483TIP3    H134406   2.108   1.104   0.355
11483TIP3    H234407   1.986   1.191   0.377
11484TIP3   OH234408   1.650   6.807   3.147
11484TIP3    H134409   1.609   6.875   3.201
11484TIP3    H234410   1.698   6.856   3.080
11485TIP3   OH234411   4.932   1.967   0.052
11485TIP3    H134412   4.971   1.911  -0.015
11485TIP3    H234413   5.007   1.998   0.103
11486TIP3   OH234414   5.540   4.758   2.416
11486TIP3    H134415   5.487   4.829   2.380
11486TIP3    H234416   5.628   4.795   2.422
11487TIP3   OH234417   6.327   6.472   2.018
11487TIP3    H134418   6.390   6.466   2.090
11487TIP3    H234419   6.376   6.509   1.945
11488TIP3   OH234420   6.946   4.758   3.991
11488TIP3    H134421   6.930   4.677   3.942
11488TIP3    H234422   6.969   4.729   4.079
11489TIP3   OH234423   1.130   7.387   4.658
11489TIP3    H134424   1.156   7.295   4.656
11489TIP3    H234425   1.212   7.436   4.653
11490TIP3   OH234426   1.884   1.591   4.638
11490TIP3    H134427   1.890   1.665   4.698
11490TIP3    H234428   1.794   1.559   4.647
11491TIP3   OH234429   1.382   2.406   5.901
11491TIP3    H134430   1.388   2.407   5.805
11491TIP3    H234431   1.426   2.487   5.928
11492TIP3   OH234432   3.950   2.655   3.392
11492TIP3    H134433   4.015   2.586   3.408
11492TIP3    H234434   3.867   2.608   3.382
11493TIP3   OH234435   5.952   3.759   1.841
11493TIP3    H134436   5.974   3.783   1.931
11493TIP3    H234437   5.976   3.666   1.835
11494TIP3   OH234438   5.374   0.967   3.445
11494TIP3    H134439   5.389   0.882   3.403
11494TIP3    H234440   5.414   0.958   3.531
11495TIP3   OH234441   1.040   1.508   3.107
11495TIP3    H134442   1.118   1.540   3.153
11495TIP3    H234443   1.072   1.440   3.048
11496TIP3   OH234444   3.599   4.836   4.415
11496TIP3    H134445   3.569   4.770   4.352
11496TIP3    H234446   3.533   4.905   4.411
11497TIP3   OH234447   4.240   6.463   2.800
11497TIP3    H134448   4.201   6.416   2.873
11497TIP3    H234449   4.276   6.543   2.839
11498TIP3   OH234450   6.642   6.819   2.279
11498TIP3    H134451   6.639   6.897   2.335
11498TIP3    H234452   6.664   6.748   2.339
11499TIP3   OH234453   5.265   5.382   4.365
11499TIP3    H134454   5.316   5.418   4.292
11499TIP3    H234455   5.330   5.336   4.419
11500TIP3   OH234456   3.315   5.932   1.244
11500TIP3    H134457   3.315   6.026   1.223
11500TIP3    H234458   3.407   5.906   1.236
11501TIP3   OH234459   7.808   5.059   5.365
11501TIP3    H134460   7.777   5.119   5.297
11501TIP3    H234461   7.834   4.980   5.317
11502TIP3   OH234462   5.249   2.807   4.837
11502TIP3    H134463   5.238   2.893   4.796
11502TIP3    H234464   5.322   2.819   4.898
11503TIP3   OH234465   6.109   3.670   0.931
11503TIP3    H134466   6.116   3.764   0.918
11503TIP3    H234467   6.199   3.638   0.923
11504TIP3   OH234468   2.724   3.833   3.302
11504TIP3    H134469   2.701   3.926   3.304
11504TIP3    H234470   2.670   3.794   3.371
11505TIP3   OH234471   3.220   2.998   2.941
11505TIP3    H134472   3.244   2.969   2.853
11505TIP3    H234473   3.176   3.082   2.927
11506TIP3   OH234474   5.980   3.484   6.104
11506TIP3    H134475   5.928   3.440   6.037
11506TIP3    H234476   5.992   3.573   6.071
11507TIP3   OH234477   1.225   3.347   0.212
11507TIP3    H134478   1.256   3.387   0.131
11507TIP3    H234479   1.134   3.325   0.195
11508TIP3   OH234480   8.107   1.195   2.518
11508TIP3    H134481   8.103   1.282   2.479
11508TIP3    H234482   8.018   1.161   2.510
11509TIP3   OH234483   5.498   4.951   5.405
11509TIP3    H134484   5.535   4.889   5.467
11509TIP3    H234485   5.438   5.005   5.457
11510TIP3   OH234486   5.600   7.073   3.109
11510TIP3    H134487   5.694   7.093   3.111
11510TIP3    H234488   5.576   7.060   3.201
11511TIP3   OH234489   3.518   5.744   4.031
11511TIP3    H134490   3.467   5.783   4.102
11511TIP3    H234491   3.453   5.709   3.971
11512TIP3   OH234492   3.083   4.971   5.818
11512TIP3    H134493   3.041   4.898   5.773
11512TIP3    H234494   3.170   4.978   5.779
11513TIP3   OH234495   1.034   7.639   5.364
11513TIP3    H134496   0.977   7.665   5.436
11513TIP3    H234497   1.012   7.699   5.293
11514TIP3   OH234498   5.016   4.119   4.614
11514TIP3    H134499   5.029   4.206   4.577
11514TIP3    H234500   5.041   4.128   4.706
11515TIP3   OH234501   2.921   2.411   3.558
11515TIP3    H134502   2.929   2.447   3.470
11515TIP3    H234503   2.827   2.402   3.572
11516TIP3   OH234504   5.373   3.461   1.103
11516TIP3    H134505   5.385   3.474   1.197
11516TIP3    H234506   5.413   3.539   1.063
11517TIP3   OH234507   3.826   4.762   5.716
11517TIP3    H134508   3.756   4.702   5.691
11517TIP3    H234509   3.907   4.715   5.694
11518TIP3   OH234510   0.740   3.463   3.693
11518TIP3    H134511   0.711   3.380   3.730
11518TIP3    H234512   0.677   3.527   3.727
11519TIP3   OH234513   6.354   2.368   2.947
11519TIP3    H134514   6.361   2.402   2.857
11519TIP3    H234515   6.435   2.397   2.989
11520TIP3   OH234516   5.239   1.162   1.050
11520TIP3    H134517   5.304   1.132   1.113
11520TIP3    H234518   5.275   1.139   0.965
11521TIP3   OH234519   0.867   5.699   6.025
11521TIP3    H134520   0.846   5.698   6.118
11521TIP3    H234521   0.871   5.792   6.002
11522TIP3   OH234522   2.285   6.078   1.133
11522TIP3    H134523   2.367   6.031   1.117
11522TIP3    H234524   2.252   6.042   1.216
11523TIP3   OH234525   7.399   4.992   3.062
11523TIP3    H134526   7.314   4.978   3.105
11523TIP3    H234527   7.413   4.912   3.011
11524TIP3   OH234528   7.404   5.554   4.860
11524TIP3    H134529   7.469   5.510   4.914
11524TIP3    H234530   7.333   5.574   4.920
11525TIP3   OH234531   5.241   4.903   2.901
11525TIP3    H134532   5.259   4.993   2.926
11525TIP3    H234533   5.325   4.857   2.913
11526TIP3   OH234534   5.657   1.772   4.162
11526TIP3    H134535   5.633   1.723   4.083
11526TIP3    H234536   5.752   1.766   4.165
11527TIP3   OH234537   3.551   0.969   2.035
11527TIP3    H134538   3.607   0.940   2.107
11527TIP3    H234539   3.462   0.962   2.069
11528TIP3   OH234540   0.694   7.482   1.198
11528TIP3    H134541   0.748   7.407   1.223
11528TIP3    H234542   0.727   7.554   1.252
11529TIP3   OH234543   4.940   2.709   3.321
11529TIP3    H134544   4.987   2.685   3.241
11529TIP3    H234545   5.006   2.750   3.377
11530TIP3   OH234546   6.532   4.210   5.525
11530TIP3    H134547   6.546   4.194   5.618
11530TIP3    H234548   6.505   4.125   5.490
11531TIP3   OH234549   7.743   1.611   0.243
11531TIP3    H134550   7.807   1.669   0.284
11531TIP3    H234551   7.666   1.615   0.300
11532TIP3   OH234552   1.386   6.588   3.983
11532TIP3    H134553   1.441   6.653   4.026
11532TIP3    H234554   1.385   6.513   4.042
11533TIP3   OH234555   4.161   6.372   4.661
11533TIP3    H134556   4.087   6.406   4.611
11533TIP3    H234557   4.122   6.322   4.732
11534TIP3   OH234558   3.838   3.535   4.000
11534TIP3    H134559   3.782   3.481   3.943
11534TIP3    H234560   3.825   3.498   4.087
11535TIP3   OH234561   0.084   0.301   6.644
11535TIP3    H134562   0.079   0.369   6.711
11535TIP3    H234563   0.177   0.292   6.625
11536TIP3   OH234564   1.270   7.458   1.046
11536TIP3    H134565   1.261   7.548   1.014
11536TIP3    H234566   1.340   7.463   1.111
11537TIP3   OH234567   6.871   1.596   3.232
11537TIP3    H134568   6.801   1.538   3.201
11537TIP3    H234569   6.896   1.559   3.317
11538TIP3   OH234570   1.994   6.980   2.311
11538TIP3    H134571   1.910   6.943   2.338
11538TIP3    H234572   2.041   6.996   2.393
11539TIP3   OH234573   3.593   3.488   0.621
11539TIP3    H134574   3.523   3.530   0.672
11539TIP3    H234575   3.566   3.396   0.617
11540TIP3   OH234576   7.575   2.971   4.135
11540TIP3    H134577   7.642   2.925   4.186
11540TIP3    H234578   7.566   2.919   4.055
11541TIP3   OH234579   0.653   3.968   1.086
11541TIP3    H134580   0.571   3.934   1.122
11541TIP3    H234581   0.711   3.976   1.162
11542TIP3   OH234582   1.896   2.863   2.379
11542TIP3    H134583   1.937   2.946   2.405
11542TIP3    H234584   1.895   2.811   2.459
11543TIP3   OH234585   1.194   4.368   6.815
11543TIP3    H134586   1.262   4.354   6.750
11543TIP3    H234587   1.200   4.460   6.838
11544TIP3   OH234588   5.975   7.322   1.895
11544TIP3    H134589   6.053   7.373   1.873
11544TIP3    H234590   5.927   7.377   1.957
11545TIP3   OH234591   7.008   1.925   3.010
11545TIP3    H134592   6.984   1.912   2.918
11545TIP3    H234593   7.052   2.010   3.012
11546TIP3   OH234594   0.828   7.680   5.541
11546TIP3    H134595   0.758   7.616   5.531
11546TIP3    H234596   0.804   7.752   5.483
11547TIP3   OH234597   8.197   5.701   0.558
11547TIP3    H134598   8.164   5.731   0.643
11547TIP3    H234599   8.119   5.672   0.511
11548TIP3   OH234600   2.843   6.087   0.788
11548TIP3    H134601   2.935   6.063   0.776
11548TIP3    H234602   2.795   6.007   0.767
11549TIP3   OH234603   1.535   7.240   4.538
11549TIP3    H134604   1.580   7.158   4.560
11549TIP3    H234605   1.452   7.212   4.499
11550TIP3   OH234606   2.060   2.314   5.124
11550TIP3    H134607   2.136   2.290   5.178
11550TIP3    H234608   2.051   2.241   5.062
11551TIP3   OH234609   3.855   4.501   4.580
11551TIP3    H134610   3.779   4.447   4.561
11551TIP3    H234611   3.922   4.440   4.610
11552TIP3   OH234612   7.255   4.691   2.205
11552TIP3    H134613   7.247   4.673   2.299
11552TIP3    H234614   7.230   4.783   2.197
11553TIP3   OH234615   4.127   1.638   2.777
11553TIP3    H134616   4.111   1.664   2.868
11553TIP3    H234617   4.081   1.554   2.768
11554TIP3   OH234618   5.062   2.405   2.570
11554TIP3    H134619   5.060   2.311   2.585
11554TIP3    H234620   5.068   2.443   2.657
11555TIP3   OH234621   6.292   1.755   6.622
11555TIP3    H134622   6.379   1.744   6.585
11555TIP3    H234623   6.289   1.846   6.652
11556TIP3   OH234624   5.420   5.107   2.985
11556TIP3    H134625   5.398   5.099   3.078
11556TIP3    H234626   5.410   5.201   2.966
11557TIP3   OH234627   7.913   4.722   6.529
11557TIP3    H134628   7.913   4.710   6.435
11557TIP3    H234629   7.845   4.663   6.561
11558TIP3   OH234630   0.077   0.821   0.261
11558TIP3    H134631   0.087   0.917   0.258
11558TIP3    H234632   0.055   0.797   0.171
11559TIP3   OH234633   8.121   0.815   0.805
11559TIP3    H134634   8.080   0.780   0.726
11559TIP3    H234635   8.116   0.910   0.794
11560TIP3   OH234636   3.334   2.310   2.623
11560TIP3    H134637   3.416   2.358   2.632
11560TIP3    H234638   3.300   2.304   2.713
11561TIP3   OH234639   6.393   3.533   1.797
11561TIP3    H134640   6.458   3.472   1.762
11561TIP3    H234641   6.369   3.496   1.882
11562TIP3   OH234642   0.659   7.490   2.536
11562TIP3    H134643   0.742   7.442   2.544
11562TIP3    H234644   0.681   7.579   2.562
11563TIP3   OH234645   5.414   0.760   0.981
11563TIP3    H134646   5.322   0.785   0.989
11563TIP3    H234647   5.423   0.683   1.037
11564TIP3   OH234648   1.096   6.624   4.067
11564TIP3    H134649   1.192   6.622   4.066
11564TIP3    H234650   1.073   6.688   3.999
11565TIP3   OH234651   7.811   7.694   6.735
11565TIP3    H134652   7.887   7.735   6.777
11565TIP3    H234653   7.813   7.726   6.645
11566TIP3   OH234654   1.001   0.640   6.332
11566TIP3    H134655   0.922   0.609   6.377
11566TIP3    H234656   0.967   0.698   6.263
11567TIP3   OH234657   4.603   3.837   5.542
11567TIP3    H134658   4.620   3.907   5.480
11567TIP3    H234659   4.664   3.767   5.516
11568TIP3   OH234660   1.963   1.907   5.124
11568TIP3    H134661   1.896   1.935   5.061
11568TIP3    H234662   2.046   1.927   5.081
11569TIP3   OH234663   6.555   6.867   4.813
11569TIP3    H134664   6.475   6.895   4.771
11569TIP3    H234665   6.529   6.845   4.903
11570TIP3   OH234666   3.199   1.541   2.875
11570TIP3    H134667   3.214   1.633   2.852
11570TIP3    H234668   3.172   1.544   2.967
11571TIP3   OH234669   0.400   2.767   2.553
11571TIP3    H134670   0.472   2.830   2.563
11571TIP3    H234671   0.432   2.687   2.594
11572TIP3   OH234672   6.279   4.028   4.306
11572TIP3    H134673   6.220   3.989   4.369
11572TIP3    H234674   6.346   4.072   4.359
11573TIP3   OH234675   7.513   4.350   4.252
11573TIP3    H134676   7.603   4.347   4.286
11573TIP3    H234677   7.495   4.444   4.239
11574TIP3   OH234678   5.762   2.237   0.168
11574TIP3    H134679   5.783   2.275   0.253
11574TIP3    H234680   5.682   2.283   0.140
11575TIP3   OH234681   4.826   4.971   4.532
11575TIP3    H134682   4.904   5.025   4.545
11575TIP3    H234683   4.769   4.994   4.605
11576TIP3   OH234684   6.527   5.506   1.996
11576TIP3    H134685   6.598   5.487   2.058
11576TIP3    H234686   6.453   5.531   2.052
11577TIP3   OH234687   0.772   4.112   4.700
11577TIP3    H134688   0.813   4.026   4.710
11577TIP3    H234689   0.834   4.162   4.646
11578TIP3   OH234690   1.338   5.381   1.266
11578TIP3    H134691   1.342   5.376   1.361
11578TIP3    H234692   1.413   5.329   1.236
11579TIP3   OH234693   6.750   7.094   1.655
11579TIP3    H134694   6.685   7.054   1.597
11579TIP3    H234695   6.834   7.068   1.617
11580TIP3   OH234696   2.442   3.336   5.541
11580TIP3    H134697   2.484   3.299   5.618
11580TIP3    H234698   2.513   3.346   5.478
11581TIP3   OH234699   4.940   6.921   6.397
11581TIP3    H134700   4.873   6.886   6.338
11581TIP3    H234701   4.995   6.976   6.341
11582TIP3   OH234702   5.122   2.238   6.134
11582TIP3    H134703   5.137   2.284   6.051
11582TIP3    H234704   5.027   2.238   6.144
11583TIP3   OH234705   8.084   0.113   2.999
11583TIP3    H134706   8.172   0.125   2.962
11583TIP3    H234707   8.093   0.041   3.061
11584TIP3   OH234708   0.749   2.741   3.379
11584TIP3    H134709   0.722   2.700   3.461
11584TIP3    H234710   0.752   2.835   3.399
11585TIP3   OH234711   4.757   2.112   0.680
11585TIP3    H134712   4.819   2.043   0.658
11585TIP3    H234713   4.674   2.066   0.692
11586TIP3   OH234714   7.996   7.195   1.684
11586TIP3    H134715   7.997   7.188   1.588
11586TIP3    H234716   8.012   7.106   1.715
11587TIP3   OH234717   0.925   6.885   1.030
11587TIP3    H134718   1.019   6.900   1.040
11587TIP3    H234719   0.908   6.804   1.078
11588TIP3   OH234720   7.592   4.280   2.889
11588TIP3    H134721   7.575   4.373   2.873
11588TIP3    H234722   7.510   4.247   2.925
11589TIP3   OH234723   6.878   6.720   1.745
11589TIP3    H134724   6.859   6.774   1.822
11589TIP3    H234725   6.973   6.722   1.737
11590TIP3   OH234726   3.277   5.036   6.392
11590TIP3    H134727   3.313   5.003   6.475
11590TIP3    H234728   3.225   5.112   6.417
11591TIP3   OH234729   3.415   1.034   5.575
11591TIP3    H134730   3.442   1.011   5.664
11591TIP3    H234731   3.480   1.097   5.545
11592TIP3   OH234732   2.818   4.478   1.458
11592TIP3    H134733   2.909   4.491   1.435
11592TIP3    H234734   2.798   4.389   1.431
11593TIP3   OH234735   4.218   2.103   2.123
11593TIP3    H134736   4.170   2.181   2.095
11593TIP3    H234737   4.295   2.100   2.066
11594TIP3   OH234738   1.158   7.600   5.031
11594TIP3    H134739   1.104   7.525   5.007
11594TIP3    H234740   1.105   7.676   5.010
11595TIP3   OH234741   2.382   3.831   3.897
11595TIP3    H134742   2.377   3.880   3.815
11595TIP3    H234743   2.320   3.874   3.955
11596TIP3   OH234744   5.269   1.526   3.186
11596TIP3    H134745   5.324   1.451   3.163
11596TIP3    H234746   5.279   1.586   3.112
11597TIP3   OH234747   2.228   1.093   5.513
11597TIP3    H134748   2.189   1.039   5.581
11597TIP3    H234749   2.312   1.121   5.548
11598TIP3   OH234750   2.644   2.766   6.430
11598TIP3    H134751   2.684   2.765   6.516
11598TIP3    H234752   2.620   2.674   6.414
11599TIP3   OH234753   4.533   6.940   6.513
11599TIP3    H134754   4.591   6.889   6.457
11599TIP3    H234755   4.549   7.031   6.487
11600TIP3   OH234756   7.812   4.446   5.969
11600TIP3    H134757   7.773   4.409   6.048
11600TIP3    H234758   7.878   4.507   6.001
11601TIP3   OH234759   2.166   6.254   5.459
11601TIP3    H134760   2.125   6.249   5.545
11601TIP3    H234761   2.146   6.343   5.429
11602TIP3   OH234762   6.131   0.546   2.727
11602TIP3    H134763   6.118   0.491   2.804
11602TIP3    H234764   6.178   0.490   2.665
11603TIP3   OH234765   4.957   6.637   5.879
11603TIP3    H134766   4.919   6.725   5.874
11603TIP3    H234767   4.888   6.579   5.847
11604TIP3   OH234768   8.159   5.641   3.733
11604TIP3    H134769   8.225   5.573   3.724
11604TIP3    H234770   8.191   5.697   3.803
11605TIP3   OH234771   7.756   4.711   4.999
11605TIP3    H134772   7.665   4.715   4.972
11605TIP3    H234773   7.806   4.720   4.918
11606TIP3   OH234774   6.015   4.179   0.261
11606TIP3    H134775   6.060   4.262   0.248
11606TIP3    H234776   5.927   4.203   0.290
11607TIP3   OH234777   4.792   1.371   2.336
11607TIP3    H134778   4.779   1.277   2.352
11607TIP3    H234779   4.715   1.412   2.374
11608TIP3   OH234780   5.159   7.418   6.228
11608TIP3    H134781   5.219   7.443   6.298
11608TIP3    H234782   5.093   7.488   6.227
11609TIP3   OH234783   5.834   4.731   0.068
11609TIP3    H134784   5.753   4.782   0.064
11609TIP3    H234785   5.902   4.791   0.035
11610TIP3   OH234786   1.089   3.619   5.585
11610TIP3    H134787   1.011   3.565   5.574
11610TIP3    H234788   1.131   3.619   5.499
11611TIP3   OH234789   6.218   5.741   6.243
11611TIP3    H134790   6.242   5.828   6.276
11611TIP3    H234791   6.146   5.713   6.300
11612TIP3   OH234792   8.299   5.916   2.803
11612TIP3    H134793   8.334   6.004   2.816
11612TIP3    H234794   8.218   5.915   2.853
11613TIP3   OH234795   7.296   3.519   6.318
11613TIP3    H134796   7.228   3.463   6.281
11613TIP3    H234797   7.253   3.603   6.333
11614TIP3   OH234798   1.504   6.626   1.903
11614TIP3    H134799   1.510   6.566   1.977
11614TIP3    H234800   1.485   6.570   1.828
11615TIP3   OH234801   4.327   6.409   0.443
11615TIP3    H134802   4.398   6.353   0.411
11615TIP3    H234803   4.372   6.480   0.490
11616TIP3   OH234804   4.027   3.445   2.318
11616TIP3    H134805   4.018   3.375   2.382
11616TIP3    H234806   4.033   3.400   2.234
11617TIP3   OH234807   4.264   5.437   4.943
11617TIP3    H134808   4.300   5.348   4.937
11617TIP3    H234809   4.170   5.426   4.928
11618TIP3   OH234810   7.241   3.593   3.133
11618TIP3    H134811   7.161   3.579   3.082
11618TIP3    H234812   7.224   3.549   3.217
11619TIP3   OH234813   8.206   3.869   0.574
11619TIP3    H134814   8.270   3.931   0.609
11619TIP3    H234815   8.139   3.863   0.642
11620TIP3   OH234816   8.129   3.288   6.675
11620TIP3    H134817   8.077   3.312   6.751
11620TIP3    H234818   8.200   3.236   6.710
11621TIP3   OH234819   5.420   2.481   5.368
11621TIP3    H134820   5.410   2.543   5.297
11621TIP3    H234821   5.511   2.452   5.363
11622TIP3   OH234822   0.419   0.211   2.169
11622TIP3    H134823   0.451   0.148   2.234
11622TIP3    H234824   0.478   0.286   2.178
11623TIP3   OH234825   2.684   5.942   5.889
11623TIP3    H134826   2.748   6.014   5.889
11623TIP3    H234827   2.603   5.983   5.920
11624TIP3   OH234828   4.937   4.228   1.693
11624TIP3    H134829   5.028   4.256   1.686
11624TIP3    H234830   4.903   4.274   1.770
11625TIP3   OH234831   1.732   3.602   0.240
11625TIP3    H134832   1.706   3.513   0.216
11625TIP3    H234833   1.827   3.598   0.252
11626TIP3   OH234834   0.370   0.712   0.633
11626TIP3    H134835   0.360   0.651   0.706
11626TIP3    H234836   0.400   0.656   0.560
11627TIP3   OH234837   4.044   4.088   0.705
11627TIP3    H134838   4.041   4.176   0.669
11627TIP3    H234839   4.093   4.036   0.641
11628TIP3   OH234840   0.351   4.724   2.086
11628TIP3    H134841   0.303   4.711   2.004
11628TIP3    H234842   0.375   4.817   2.085
11629TIP3   OH234843   4.529   0.566   3.934
11629TIP3    H134844   4.497   0.566   3.844
11629TIP3    H234845   4.452   0.585   3.987
11630TIP3   OH234846   0.970   6.995   5.670
11630TIP3    H134847   0.963   7.042   5.587
11630TIP3    H234848   0.941   6.906   5.650
11631TIP3   OH234849   2.171   3.100   2.098
11631TIP3    H134850   2.076   3.102   2.086
11631TIP3    H234851   2.182   3.084   2.192
11632TIP3   OH234852   0.256   5.430   1.233
11632TIP3    H134853   0.291   5.519   1.234
11632TIP3    H234854   0.161   5.442   1.236
11633TIP3   OH234855   3.180   2.721   6.646
11633TIP3    H134856   3.100   2.770   6.663
11633TIP3    H234857   3.235   2.738   6.723
11634TIP3   OH234858   0.279   5.892   0.210
11634TIP3    H134859   0.213   5.867   0.275
11634TIP3    H234860   0.229   5.906   0.129
11635TIP3   OH234861   5.234   0.191   5.345
11635TIP3    H134862   5.254   0.174   5.253
11635TIP3    H234863   5.146   0.156   5.358
11636TIP3   OH234864   3.842   0.514   3.218
11636TIP3    H134865   3.921   0.460   3.218
11636TIP3    H234866   3.782   0.467   3.160
11637TIP3   OH234867   1.976   1.609   1.294
11637TIP3    H134868   2.012   1.697   1.305
11637TIP3    H234869   2.053   1.554   1.279
11638TIP3   OH234870   3.726   0.996   5.390
11638TIP3    H134871   3.695   0.908   5.411
11638TIP3    H234872   3.812   0.983   5.351
11639TIP3   OH234873   5.260   7.117   1.531
11639TIP3    H134874   5.264   7.187   1.466
11639TIP3    H234875   5.327   7.141   1.596
11640TIP3   OH234876   5.393   6.332   2.187
11640TIP3    H134877   5.335   6.285   2.127
11640TIP3    H234878   5.366   6.302   2.274
11641TIP3   OH234879   0.123   7.102   0.063
11641TIP3    H134880   0.078   7.052   0.131
11641TIP3    H234881   0.137   7.039  -0.008
11642TIP3   OH234882   0.413   4.418   4.502
11642TIP3    H134883   0.440   4.495   4.452
11642TIP3    H234884   0.466   4.346   4.468
11643TIP3   OH234885   6.156   2.673   3.791
11643TIP3    H134886   6.126   2.615   3.860
11643TIP3    H234887   6.226   2.725   3.831
11644TIP3   OH234888   6.915   2.756   4.149
11644TIP3    H134889   6.915   2.675   4.099
11644TIP3    H234890   6.946   2.823   4.088
11645TIP3   OH234891   4.960   7.225   1.091
11645TIP3    H134892   4.958   7.136   1.125
11645TIP3    H234893   4.876   7.263   1.117
11646TIP3   OH234894   5.742   0.547   6.604
11646TIP3    H134895   5.822   0.507   6.570
11646TIP3    H234896   5.674   0.519   6.541
11647TIP3   OH234897   5.612   4.449   3.199
11647TIP3    H134898   5.642   4.462   3.109
11647TIP3    H234899   5.691   4.429   3.248
11648TIP3   OH234900   6.842   4.957   2.501
11648TIP3    H134901   6.765   4.978   2.449
11648TIP3    H234902   6.869   4.870   2.471
11649TIP3   OH234903   0.697   3.511   2.718
11649TIP3    H134904   0.749   3.436   2.746
11649TIP3    H234905   0.754   3.560   2.660
11650TIP3   OH234906   2.152   5.498   0.084
11650TIP3    H134907   2.060   5.524   0.089
11650TIP3    H234908   2.168   5.450   0.165
11651TIP3   OH234909   7.958   2.918   6.184
11651TIP3    H134910   8.014   2.978   6.234
11651TIP3    H234911   7.889   2.893   6.246
11652TIP3   OH234912   7.603   0.320   0.909
11652TIP3    H134913   7.680   0.365   0.875
11652TIP3    H234914   7.633   0.279   0.990
11653TIP3   OH234915   3.770   5.096   2.276
11653TIP3    H134916   3.831   5.029   2.248
11653TIP3    H234917   3.804   5.177   2.237
11654TIP3   OH234918   6.979   7.751   5.878
11654TIP3    H134919   6.961   7.682   5.813
11654TIP3    H234920   6.893   7.771   5.915
11655TIP3   OH234921   7.535   3.856   3.343
11655TIP3    H134922   7.604   3.837   3.407
11655TIP3    H234923   7.519   3.772   3.300
11656TIP3   OH234924   5.363   0.424   2.521
11656TIP3    H134925   5.395   0.359   2.584
11656TIP3    H234926   5.382   0.508   2.562
11657TIP3   OH234927   5.483   3.280   3.050
11657TIP3    H134928   5.525   3.205   3.091
11657TIP3    H234929   5.412   3.304   3.109
11658TIP3   OH234930   4.556   7.256   3.062
11658TIP3    H134931   4.518   7.234   2.978
11658TIP3    H234932   4.647   7.277   3.043
11659TIP3   OH234933   0.570   5.712   2.243
11659TIP3    H134934   0.568   5.712   2.338
11659TIP3    H234935   0.663   5.703   2.220
11660TIP3   OH234936   4.013   6.705   0.269
11660TIP3    H134937   4.025   6.635   0.206
11660TIP3    H234938   3.985   6.780   0.217
11661TIP3   OH234939   4.782   3.875   2.853
11661TIP3    H134940   4.734   3.810   2.903
11661TIP3    H234941   4.818   3.826   2.779
11662TIP3   OH234942   7.682   1.375   5.628
11662TIP3    H134943   7.641   1.438   5.569
11662TIP3    H234944   7.764   1.350   5.584
11663TIP3   OH234945   0.193   0.433   5.227
11663TIP3    H134946   0.192   0.348   5.182
11663TIP3    H234947   0.230   0.414   5.313
11664TIP3   OH234948   1.966   7.421   4.029
11664TIP3    H134949   1.983   7.417   4.123
11664TIP3    H234950   1.873   7.443   4.023
11665TIP3   OH234951   4.876   3.019   6.602
11665TIP3    H134952   4.939   3.036   6.532
11665TIP3    H234953   4.816   3.094   6.598
11666TIP3   OH234954   4.450   5.314   6.793
11666TIP3    H134955   4.491   5.240   6.747
11666TIP3    H234956   4.516   5.382   6.792
11667TIP3   OH234957   4.554   2.236   3.849
11667TIP3    H134958   4.578   2.321   3.811
11667TIP3    H234959   4.611   2.173   3.806
11668TIP3   OH234960   0.185   4.526   1.385
11668TIP3    H134961   0.270   4.558   1.417
11668TIP3    H234962   0.203   4.437   1.356
11669TIP3   OH234963   1.441   1.129   3.228
11669TIP3    H134964   1.430   1.172   3.143
11669TIP3    H234965   1.534   1.104   3.230
11670TIP3   OH234966   0.491   7.243   3.874
11670TIP3    H134967   0.428   7.282   3.813
11670TIP3    H234968   0.533   7.318   3.916
11671TIP3   OH234969   7.793   5.551   0.998
11671TIP3    H134970   7.733   5.511   0.935
11671TIP3    H234971   7.742   5.622   1.037
11672TIP3   OH234972   3.069   1.400   3.538
11672TIP3    H134973   3.094   1.485   3.501
11672TIP3    H234974   3.152   1.358   3.560
11673TIP3   OH234975   6.532   0.776   5.812
11673TIP3    H134976   6.576   0.726   5.880
11673TIP3    H234977   6.448   0.800   5.851
11674TIP3   OH234978   6.158   6.757   0.089
11674TIP3    H134979   6.141   6.721   0.176
11674TIP3    H234980   6.216   6.831   0.104
11675TIP3   OH234981   0.237   5.323   3.186
11675TIP3    H134982   0.251   5.228   3.186
11675TIP3    H234983   0.147   5.333   3.215
11676TIP3   OH234984   4.477   2.027   5.166
11676TIP3    H134985   4.538   2.078   5.113
11676TIP3    H234986   4.406   2.005   5.105
11677TIP3   OH234987   8.137   3.608   3.053
11677TIP3    H134988   8.205   3.676   3.058
11677TIP3    H234989   8.171   3.546   2.988
11678TIP3   OH234990   1.888   1.849   1.773
11678TIP3    H134991   1.851   1.929   1.737
11678TIP3    H234992   1.966   1.878   1.821
11679TIP3   OH234993   0.047   5.266   5.788
11679TIP3    H134994  -0.042   5.299   5.794
11679TIP3    H234995   0.102   5.340   5.813
11680TIP3   OH234996   6.944   4.767   4.716
11680TIP3    H134997   6.914   4.677   4.725
11680TIP3    H234998   7.037   4.764   4.739
11681TIP3   OH234999   0.575   4.170   4.032
11681TIP3    H135000   0.651   4.126   4.069
11681TIP3    H235001   0.503   4.108   4.045
11682TIP3   OH235002   0.095   3.500   1.186
11682TIP3    H135003   0.046   3.581   1.199
11682TIP3    H235004   0.034   3.441   1.143
11683TIP3   OH235005   6.014   0.560   0.601
11683TIP3    H135006   5.954   0.608   0.657
11683TIP3    H235007   5.962   0.535   0.525
11684TIP3   OH235008   7.926   4.948   2.305
11684TIP3    H135009   8.000   4.949   2.244
11684TIP3    H235010   7.897   4.856   2.306
11685TIP3   OH235011   4.583   6.531   5.506
11685TIP3    H135012   4.524   6.475   5.557
11685TIP3    H235013   4.663   6.536   5.558
11686TIP3   OH235014   0.955   2.974   4.979
11686TIP3    H135015   0.905   2.910   4.928
11686TIP3    H235016   0.915   2.971   5.066
11687TIP3   OH235017   3.463   1.908   6.314
11687TIP3    H135018   3.491   1.972   6.380
11687TIP3    H235019   3.544   1.880   6.272
11688TIP3   OH235020   0.940   2.886   2.014
11688TIP3    H135021   0.925   2.934   2.096
11688TIP3    H235022   0.868   2.914   1.957
11689TIP3   OH235023   2.157   3.021   6.647
11689TIP3    H135024   2.245   3.015   6.610
11689TIP3    H235025   2.170   3.056   6.735
11690TIP3   OH235026   6.266   0.432   5.124
11690TIP3    H135027   6.172   0.436   5.107
11690TIP3    H235028   6.304   0.493   5.061
11691TIP3   OH235029   7.047   6.556   3.773
11691TIP3    H135030   7.103   6.493   3.728
11691TIP3    H235031   7.107   6.621   3.808
11692TIP3   OH235032   7.385   7.393   4.801
11692TIP3    H135033   7.298   7.366   4.831
11692TIP3    H235034   7.421   7.316   4.759
11693TIP3   OH235035   7.401   3.047   1.182
11693TIP3    H135036   7.445   2.963   1.173
11693TIP3    H235037   7.308   3.026   1.172
11694TIP3   OH235038   3.637   3.485   6.731
11694TIP3    H135039   3.689   3.566   6.733
11694TIP3    H235040   3.684   3.425   6.789
11695TIP3   OH235041   8.221   6.663   2.156
11695TIP3    H135042   8.253   6.590   2.103
11695TIP3    H235043   8.255   6.741   2.113
11696TIP3   OH235044   4.093   7.428   6.131
11696TIP3    H135045   4.052   7.489   6.070
11696TIP3    H235046   4.182   7.463   6.143
11697TIP3   OH235047   6.152   6.670   6.257
11697TIP3    H135048   6.158   6.584   6.216
11697TIP3    H235049   6.165   6.654   6.350
11698TIP3   OH235050   4.390   0.313   3.957
11698TIP3    H135051   4.482   0.336   3.962
11698TIP3    H235052   4.362   0.343   3.870
11699TIP3   OH235053   0.764   0.475   5.603
11699TIP3    H135054   0.814   0.406   5.647
11699TIP3    H235055   0.680   0.435   5.583
11700TIP3   OH235056   4.996   2.108   2.597
11700TIP3    H135057   5.026   2.118   2.687
11700TIP3    H235058   4.908   2.146   2.597
11701TIP3   OH235059   8.178   1.971   6.004
11701TIP3    H135060   8.252   1.938   6.055
11701TIP3    H235061   8.125   1.893   5.987
11702TIP3   OH235062   5.824   4.661   3.565
11702TIP3    H135063   5.771   4.610   3.627
11702TIP3    H235064   5.862   4.595   3.506
11703TIP3   OH235065   0.012   0.536   1.441
11703TIP3    H135066   0.101   0.569   1.428
11703TIP3    H235067   0.013   0.495   1.527
11704TIP3   OH235068   3.049   3.387   0.320
11704TIP3    H135069   3.132   3.431   0.340
11704TIP3    H235070   3.016   3.430   0.241
11705TIP3   OH235071   7.520   0.268   0.055
11705TIP3    H135072   7.465   0.192   0.038
11705TIP3    H235073   7.599   0.253   0.003
11706TIP3   OH235074   3.474   3.135   4.280
11706TIP3    H135075   3.520   3.099   4.204
11706TIP3    H235076   3.484   3.068   4.348
11707TIP3   OH235077   5.975   4.384   2.389
11707TIP3    H135078   6.027   4.444   2.442
11707TIP3    H235079   5.885   4.414   2.401
11708TIP3   OH235080   6.997   7.154   5.802
11708TIP3    H135081   7.060   7.195   5.862
11708TIP3    H235082   6.983   7.066   5.837
11709TIP3   OH235083   5.045   0.598   6.524
11709TIP3    H135084   5.099   0.522   6.507
11709TIP3    H235085   5.101   0.673   6.504
11710TIP3   OH235086   0.926   1.331   6.245
11710TIP3    H135087   0.916   1.253   6.300
11710TIP3    H235088   0.993   1.307   6.181
11711TIP3   OH235089   7.697   7.216   1.144
11711TIP3    H135090   7.689   7.195   1.237
11711TIP3    H235091   7.697   7.311   1.141
11712TIP3   OH235092   2.284   4.607   5.030
11712TIP3    H135093   2.306   4.614   4.938
11712TIP3    H235094   2.354   4.653   5.076
11713TIP3   OH235095   0.243   0.591   0.262
11713TIP3    H135096   0.213   0.680   0.243
11713TIP3    H235097   0.304   0.601   0.334
11714TIP3   OH235098   6.226   3.410   4.721
11714TIP3    H135099   6.217   3.491   4.771
11714TIP3    H235100   6.298   3.426   4.660
11715TIP3   OH235101   1.952   0.600   3.944
11715TIP3    H135102   1.990   0.587   4.030
11715TIP3    H235103   1.973   0.691   3.921
11716TIP3   OH235104   3.428   0.415   1.763
11716TIP3    H135105   3.499   0.409   1.699
11716TIP3    H235106   3.376   0.336   1.749
11717TIP3   OH235107   1.250   7.768   6.126
11717TIP3    H135108   1.237   7.686   6.175
11717TIP3    H235109   1.321   7.749   6.066
11718TIP3   OH235110   0.771   6.014   3.140
11718TIP3    H135111   0.716   6.081   3.179
11718TIP3    H235112   0.757   5.937   3.195
11719TIP3   OH235113   6.289   6.634   6.508
11719TIP3    H135114   6.303   6.553   6.558
11719TIP3    H235115   6.314   6.704   6.568
11720TIP3   OH235116   0.138   1.340   4.091
11720TIP3    H135117   0.184   1.313   4.171
11720TIP3    H235118   0.204   1.334   4.022
11721TIP3   OH235119   6.699   7.683   4.290
11721TIP3    H135120   6.749   7.762   4.267
11721TIP3    H235121   6.693   7.687   4.386
11722TIP3   OH235122   3.475   4.368   0.576
11722TIP3    H135123   3.552   4.314   0.556
11722TIP3    H235124   3.473   4.433   0.507
11723TIP3   OH235125   1.574   7.809   5.294
11723TIP3    H135126   1.633   7.812   5.218
11723TIP3    H235127   1.495   7.854   5.265
11724TIP3   OH235128   5.402   3.773   2.358
11724TIP3    H135129   5.453   3.820   2.291
11724TIP3    H235130   5.460   3.704   2.388
11725TIP3   OH235131   2.558   7.143   6.354
11725TIP3    H135132   2.537   7.069   6.411
11725TIP3    H235133   2.653   7.136   6.340
11726TIP3   OH235134   0.163   4.138   5.857
11726TIP3    H135135   0.186   4.094   5.939
11726TIP3    H235136   0.233   4.202   5.843
11727TIP3   OH235137   2.137   6.498   3.336
11727TIP3    H135138   2.207   6.443   3.370
11727TIP3    H235139   2.183   6.573   3.298
11728TIP3   OH235140   1.400   3.344   3.932
11728TIP3    H135141   1.465   3.371   3.997
11728TIP3    H235142   1.323   3.320   3.983
11729TIP3   OH235143   0.722   3.484   1.827
11729TIP3    H135144   0.790   3.541   1.791
11729TIP3    H235145   0.766   3.434   1.895
11730TIP3   OH235146   3.860   0.165   6.115
11730TIP3    H135147   3.840   0.178   6.208
11730TIP3    H235148   3.924   0.094   6.115
11731TIP3   OH235149   6.443   5.594   6.198
11731TIP3    H135150   6.374   5.656   6.224
11731TIP3    H235151   6.525   5.639   6.219
11732TIP3   OH235152   7.094   3.723   4.160
11732TIP3    H135153   7.072   3.793   4.221
11732TIP3    H235154   7.150   3.664   4.210
11733TIP3   OH235155   6.019   3.991   1.713
11733TIP3    H135156   5.984   3.914   1.757
11733TIP3    H235157   6.113   3.987   1.731
11734TIP3   OH235158   4.725   7.822   4.963
11734TIP3    H135159   4.655   7.860   5.017
11734TIP3    H235160   4.782   7.777   5.025
11735TIP3   OH235161   0.104   1.181   0.096
11735TIP3    H135162   0.197   1.179   0.120
11735TIP3    H235163   0.064   1.240   0.160
11736TIP3   OH235164   2.278   4.897   4.503
11736TIP3    H135165   2.270   4.992   4.514
11736TIP3    H235166   2.307   4.887   4.412
11737TIP3   OH235167   2.570   1.618   6.405
11737TIP3    H135168   2.600   1.672   6.478
11737TIP3    H235169   2.648   1.606   6.351
11738TIP3   OH235170   1.658   5.488   3.499
11738TIP3    H135171   1.676   5.559   3.437
11738TIP3    H235172   1.583   5.519   3.549
11739TIP3   OH235173   3.646   7.167   0.816
11739TIP3    H135174   3.636   7.249   0.766
11739TIP3    H235175   3.621   7.098   0.754
11740TIP3   OH235176   3.474   5.768   0.685
11740TIP3    H135177   3.416   5.819   0.742
11740TIP3    H235178   3.557   5.816   0.687
11741TIP3   OH235179   0.620   7.558   5.764
11741TIP3    H135180   0.526   7.572   5.777
11741TIP3    H235181   0.628   7.525   5.674
11742TIP3   OH235182   3.915   7.243   6.006
11742TIP3    H135183   3.932   7.161   6.052
11742TIP3    H235184   3.975   7.306   6.046
11743TIP3   OH235185   4.329   2.602   0.904
11743TIP3    H135186   4.339   2.621   0.810
11743TIP3    H235187   4.269   2.669   0.936
11744TIP3   OH235188   7.289   6.619   1.481
11744TIP3    H135189   7.254   6.706   1.499
11744TIP3    H235190   7.252   6.563   1.549
11745TIP3   OH235191   0.574   6.055   2.401
11745TIP3    H135192   0.621   5.986   2.447
11745TIP3    H235193   0.512   6.089   2.466
11746TIP3   OH235194   2.090   6.942   0.630
11746TIP3    H135195   2.103   6.939   0.536
11746TIP3    H235196   2.130   6.861   0.662
11747TIP3   OH235197   4.251   2.627   1.825
11747TIP3    H135198   4.317   2.652   1.889
11747TIP3    H235199   4.296   2.632   1.740
11748TIP3   OH235200   2.656   5.190   0.771
11748TIP3    H135201   2.585   5.126   0.766
11748TIP3    H235202   2.617   5.271   0.738
11749TIP3   OH235203   0.889   0.109   0.540
11749TIP3    H135204   0.824   0.057   0.493
11749TIP3    H235205   0.956   0.129   0.474
11750TIP3   OH235206   2.963   2.622   1.984
11750TIP3    H135207   3.027   2.575   1.932
11750TIP3    H235208   2.959   2.573   2.067
11751TIP3   OH235209   5.704   6.321   2.175
11751TIP3    H135210   5.614   6.352   2.177
11751TIP3    H235211   5.745   6.362   2.251
11752TIP3   OH235212   5.273   1.374   0.556
11752TIP3    H135213   5.285   1.380   0.651
11752TIP3    H235214   5.336   1.437   0.521
11753TIP3   OH235215   1.330   5.658   4.462
11753TIP3    H135216   1.424   5.674   4.468
11753TIP3    H235217   1.308   5.613   4.544
11754TIP3   OH235218   6.301   0.337   5.380
11754TIP3    H135219   6.298   0.378   5.294
11754TIP3    H235220   6.308   0.410   5.442
11755TIP3   OH235221   2.236   6.729   4.168
11755TIP3    H135222   2.297   6.724   4.095
11755TIP3    H235223   2.274   6.673   4.235
11756TIP3   OH235224   4.190   2.614   0.014
11756TIP3    H135225   4.192   2.692   0.069
11756TIP3    H235226   4.212   2.542   0.073
11757TIP3   OH235227   2.399   1.403   2.640
11757TIP3    H135228   2.475   1.406   2.581
11757TIP3    H235229   2.343   1.474   2.610
11758TIP3   OH235230   1.675   2.837   4.715
11758TIP3    H135231   1.676   2.749   4.752
11758TIP3    H235232   1.645   2.893   4.786
11759TIP3   OH235233   1.452   6.516   1.649
11759TIP3    H135234   1.419   6.542   1.563
11759TIP3    H235235   1.374   6.516   1.705
11760TIP3   OH235236   7.172   4.608   3.401
11760TIP3    H135237   7.152   4.701   3.387
11760TIP3    H235238   7.224   4.607   3.482
11761TIP3   OH235239   3.879   0.076   2.824
11761TIP3    H135240   3.937   0.014   2.869
11761TIP3    H235241   3.793   0.058   2.861
11762TIP3   OH235242   4.185   6.976   3.046
11762TIP3    H135243   4.115   7.041   3.049
11762TIP3    H235244   4.263   7.023   3.076
11763TIP3   OH235245   4.709   5.266   6.447
11763TIP3    H135246   4.667   5.351   6.434
11763TIP3    H235247   4.651   5.204   6.403
11764TIP3   OH235248   8.121   6.188   2.853
11764TIP3    H135249   8.093   6.248   2.922
11764TIP3    H235250   8.044   6.136   2.833
11765TIP3   OH235251   3.310   2.859   1.548
11765TIP3    H135252   3.334   2.924   1.614
11765TIP3    H235253   3.310   2.776   1.596
11766TIP3   OH235254   3.747   1.935   0.082
11766TIP3    H135255   3.751   1.852   0.035
11766TIP3    H235256   3.655   1.945   0.105
11767TIP3   OH235257   1.675   5.074   1.626
11767TIP3    H135258   1.729   5.026   1.564
11767TIP3    H235259   1.611   5.011   1.658
11768TIP3   OH235260   0.156   2.438   0.495
11768TIP3    H135261   0.152   2.414   0.587
11768TIP3    H235262   0.200   2.364   0.452
11769TIP3   OH235263   5.948   4.595   4.775
11769TIP3    H135264   5.912   4.604   4.688
11769TIP3    H235265   6.040   4.570   4.761
11770TIP3   OH235266   7.054   2.401   6.292
11770TIP3    H135267   7.077   2.457   6.366
11770TIP3    H235268   7.137   2.373   6.255
11771TIP3   OH235269   3.028   5.450   6.131
11771TIP3    H135270   3.030   5.355   6.115
11771TIP3    H235271   3.113   5.470   6.169
11772TIP3   OH235272   1.402   7.723   2.405
11772TIP3    H135273   1.388   7.800   2.459
11772TIP3    H235274   1.350   7.654   2.447
11773TIP3   OH235275   6.930   5.328   2.672
11773TIP3    H135276   6.970   5.389   2.609
11773TIP3    H235277   6.994   5.258   2.681
11774TIP3   OH235278   5.582   1.636   3.322
11774TIP3    H135279   5.582   1.565   3.386
11774TIP3    H235280   5.497   1.630   3.279
11775TIP3   OH235281   6.424   0.202   4.353
11775TIP3    H135282   6.356   0.235   4.294
11775TIP3    H235283   6.501   0.256   4.333
11776TIP3   OH235284   4.522   7.748   6.008
11776TIP3    H135285   4.505   7.709   6.094
11776TIP3    H235286   4.558   7.834   6.028
11777TIP3   OH235287   7.062   0.279   1.376
11777TIP3    H135288   7.091   0.366   1.405
11777TIP3    H235289   6.989   0.258   1.434
11778TIP3   OH235290   6.400   1.199   3.476
11778TIP3    H135291   6.351   1.147   3.540
11778TIP3    H235292   6.492   1.179   3.494
11779TIP3   OH235293   3.067   2.583   3.710
11779TIP3    H135294   3.065   2.669   3.669
11779TIP3    H235295   3.003   2.531   3.661
11780TIP3   OH235296   4.385   6.108   2.410
11780TIP3    H135297   4.302   6.100   2.363
11780TIP3    H235298   4.448   6.059   2.356
11781TIP3   OH235299   8.023   7.407   0.318
11781TIP3    H135300   7.958   7.338   0.304
11781TIP3    H235301   7.981   7.468   0.378
11782TIP3   OH235302   1.949   0.966   1.496
11782TIP3    H135303   1.894   0.893   1.467
11782TIP3    H235304   1.978   1.008   1.416
11783TIP3   OH235305   1.159   7.511   1.410
11783TIP3    H135306   1.064   7.504   1.414
11783TIP3    H235307   1.180   7.586   1.465
11784TIP3   OH235308   3.375   6.431   1.000
11784TIP3    H135309   3.415   6.393   0.923
11784TIP3    H235310   3.447   6.476   1.045
11785TIP3   OH235311   6.872   6.932   1.930
11785TIP3    H135312   6.781   6.958   1.946
11785TIP3    H235313   6.914   6.942   2.015
11786TIP3   OH235314   4.348   2.693   3.104
11786TIP3    H135315   4.304   2.608   3.112
11786TIP3    H235316   4.416   2.691   3.170
11787TIP3   OH235317   3.169   5.799   3.484
11787TIP3    H135318   3.108   5.759   3.547
11787TIP3    H235319   3.116   5.814   3.406
11788TIP3   OH235320   3.177   1.821   1.883
11788TIP3    H135321   3.188   1.793   1.793
11788TIP3    H235322   3.260   1.799   1.925
11789TIP3   OH235323   4.687   2.022   4.156
11789TIP3    H135324   4.714   1.970   4.231
11789TIP3    H235325   4.592   2.016   4.154
11790TIP3   OH235326   5.303   5.753   1.086
11790TIP3    H135327   5.329   5.692   1.155
11790TIP3    H235328   5.302   5.839   1.128
11791TIP3   OH235329   5.083   1.819   6.734
11791TIP3    H135330   5.038   1.875   6.671
11791TIP3    H235331   5.069   1.862   6.819
11792TIP3   OH235332   3.842   2.095   1.754
11792TIP3    H135333   3.831   2.190   1.751
11792TIP3    H235334   3.936   2.080   1.743
11793TIP3   OH235335   7.087   2.085   2.143
11793TIP3    H135336   7.013   2.060   2.088
11793TIP3    H235337   7.057   2.162   2.191
11794TIP3   OH235338   0.260   5.662   6.617
11794TIP3    H135339   0.315   5.649   6.694
11794TIP3    H235340   0.215   5.579   6.605
11795TIP3   OH235341   7.368   4.790   3.994
11795TIP3    H135342   7.385   4.837   4.075
11795TIP3    H235343   7.301   4.842   3.949
11796TIP3   OH235344   4.816   4.537   0.392
11796TIP3    H135345   4.818   4.563   0.484
11796TIP3    H235346   4.897   4.487   0.380
11797TIP3   OH235347   3.267   1.945   3.711
11797TIP3    H135348   3.246   1.875   3.772
11797TIP3    H235349   3.359   1.965   3.727
11798TIP3   OH235350   1.592   3.856   2.044
11798TIP3    H135351   1.632   3.862   1.957
11798TIP3    H235352   1.604   3.943   2.082
11799TIP3   OH235353   6.476   1.621   4.652
11799TIP3    H135354   6.434   1.543   4.686
11799TIP3    H235355   6.451   1.691   4.712
11800TIP3   OH235356   1.742   1.581   0.360
11800TIP3    H135357   1.744   1.536   0.276
11800TIP3    H235358   1.815   1.643   0.355
11801TIP3   OH235359   0.643   3.540   1.408
11801TIP3    H135360   0.585   3.594   1.461
11801TIP3    H235361   0.688   3.601   1.351
11802TIP3   OH235362   0.188   7.287   4.809
11802TIP3    H135363   0.114   7.300   4.869
11802TIP3    H235364   0.148   7.251   4.730
11803TIP3   OH235365   6.017   2.880   6.350
11803TIP3    H135366   5.921   2.887   6.349
11803TIP3    H235367   6.048   2.969   6.337
11804TIP3   OH235368   7.043   3.558   5.761
11804TIP3    H135369   6.960   3.523   5.729
11804TIP3    H235370   7.092   3.480   5.791
11805TIP3   OH235371   6.642   3.160   1.498
11805TIP3    H135372   6.694   3.103   1.555
11805TIP3    H235373   6.706   3.219   1.458
11806TIP3   OH235374   0.151   2.161   1.903
11806TIP3    H135375   0.161   2.066   1.888
11806TIP3    H235376   0.130   2.169   1.996
11807TIP3   OH235377   5.898   3.516   2.088
11807TIP3    H135378   5.837   3.516   2.014
11807TIP3    H235379   5.842   3.504   2.165
11808TIP3   OH235380   1.609   0.813   3.443
11808TIP3    H135381   1.677   0.764   3.489
11808TIP3    H235382   1.655   0.850   3.367
11809TIP3   OH235383   3.579   4.850   6.314
11809TIP3    H135384   3.574   4.773   6.370
11809TIP3    H235385   3.512   4.834   6.246
11810TIP3   OH235386   6.819   5.138   1.601
11810TIP3    H135387   6.819   5.170   1.510
11810TIP3    H235388   6.830   5.216   1.654
11811TIP3   OH235389   1.464   1.113   0.291
11811TIP3    H135390   1.495   1.065   0.368
11811TIP3    H235391   1.476   1.052   0.218
11812TIP3   OH235392   5.655   5.904   6.227
11812TIP3    H135393   5.729   5.856   6.263
11812TIP3    H235394   5.627   5.853   6.151
11813TIP3   OH235395   6.055   0.270   1.947
11813TIP3    H135396   6.007   0.223   1.879
11813TIP3    H235397   6.063   0.208   2.019
11814TIP3   OH235398   7.158   1.336   4.198
11814TIP3    H135399   7.165   1.428   4.223
11814TIP3    H235400   7.070   1.327   4.163
11815TIP3   OH235401   7.859   4.404   2.227
11815TIP3    H135402   7.822   4.317   2.239
11815TIP3    H235403   7.913   4.418   2.304
11816TIP3   OH235404   5.617   0.089   2.661
11816TIP3    H135405   5.549   0.138   2.707
11816TIP3    H235406   5.584  -0.001   2.657
11817TIP3   OH235407   1.576   7.552   3.221
11817TIP3    H135408   1.487   7.582   3.200
11817TIP3    H235409   1.580   7.462   3.189
11818TIP3   OH235410   5.814   4.367   6.169
11818TIP3    H135411   5.789   4.279   6.140
11818TIP3    H235412   5.864   4.403   6.096
11819TIP3   OH235413   7.830   0.886   5.207
11819TIP3    H135414   7.771   0.829   5.256
11819TIP3    H235415   7.916   0.845   5.217
11820TIP3   OH235416   3.333   1.396   1.829
11820TIP3    H135417   3.402   1.328   1.831
11820TIP3    H235418   3.260   1.354   1.784
11821TIP3   OH235419   7.258   1.620   3.808
11821TIP3    H135420   7.271   1.526   3.816
11821TIP3    H235421   7.166   1.630   3.783
11822TIP3   OH235422   6.452   6.173   2.176
11822TIP3    H135423   6.466   6.268   2.176
11822TIP3    H235424   6.484   6.144   2.091
11823TIP3   OH235425   1.322   6.982   0.266
11823TIP3    H135426   1.249   6.933   0.303
11823TIP3    H235427   1.396   6.921   0.270
11824TIP3   OH235428   3.354   1.821   3.250
11824TIP3    H135429   3.368   1.873   3.171
11824TIP3    H235430   3.283   1.866   3.296
11825TIP3   OH235431   6.643   1.175   3.147
11825TIP3    H135432   6.568   1.118   3.129
11825TIP3    H235433   6.707   1.152   3.080
11826TIP3   OH235434   6.444   2.942   0.577
11826TIP3    H135435   6.389   3.014   0.543
11826TIP3    H235436   6.387   2.894   0.636
11827TIP3   OH235437   6.574   7.473   1.141
11827TIP3    H135438   6.528   7.391   1.127
11827TIP3    H235439   6.534   7.510   1.220
11828TIP3   OH235440   7.762   1.998   3.276
11828TIP3    H135441   7.734   1.967   3.190
11828TIP3    H235442   7.847   2.040   3.259
11829TIP3   OH235443   0.168   6.230   6.481
11829TIP3    H135444   0.239   6.200   6.539
11829TIP3    H235445   0.189   6.322   6.464
11830TIP3   OH235446   6.140   6.393   6.180
11830TIP3    H135447   6.168   6.321   6.124
11830TIP3    H235448   6.163   6.364   6.269
11831TIP3   OH235449   4.402   2.332   0.949
11831TIP3    H135450   4.403   2.428   0.942
11831TIP3    H235451   4.309   2.310   0.953
11832TIP3   OH235452   5.305   3.906   4.033
11832TIP3    H135453   5.314   3.840   3.965
11832TIP3    H235454   5.223   3.951   4.012
11833TIP3   OH235455   7.872   5.454   6.046
11833TIP3    H135456   7.800   5.435   5.986
11833TIP3    H235457   7.832   5.508   6.115
11834TIP3   OH235458   0.251   1.191   6.484
11834TIP3    H135459   0.264   1.096   6.483
11834TIP3    H235460   0.326   1.224   6.534
11835TIP3   OH235461   7.105   6.165   2.564
11835TIP3    H135462   7.119   6.247   2.518
11835TIP3    H235463   7.189   6.119   2.557
11836TIP3   OH235464   8.183   1.612   0.849
11836TIP3    H135465   8.190   1.548   0.778
11836TIP3    H235466   8.148   1.562   0.923
11837TIP3   OH235467   4.738   2.382   1.747
11837TIP3    H135468   4.663   2.380   1.687
11837TIP3    H235469   4.753   2.475   1.763
11838TIP3   OH235470   4.837   2.918   0.002
11838TIP3    H135471   4.920   2.954   0.032
11838TIP3    H235472   4.841   2.825   0.026
11839TIP3   OH235473   6.897   2.261   2.313
11839TIP3    H135474   6.818   2.303   2.347
11839TIP3    H235475   6.910   2.184   2.368
11840TIP3   OH235476   3.627   4.649   6.491
11840TIP3    H135477   3.715   4.617   6.472
11840TIP3    H235478   3.632   4.682   6.580
11841TIP3   OH235479   4.426   5.256   3.515
11841TIP3    H135480   4.350   5.261   3.457
11841TIP3    H235481   4.467   5.172   3.493
11842TIP3   OH235482   4.756   6.478   5.721
11842TIP3    H135483   4.799   6.398   5.692
11842TIP3    H235484   4.692   6.449   5.786
11843TIP3   OH235485   1.237   6.258   6.234
11843TIP3    H135486   1.217   6.313   6.159
11843TIP3    H235487   1.259   6.320   6.304
11844TIP3   OH235488   3.488   2.951   2.233
11844TIP3    H135489   3.408   2.926   2.279
11844TIP3    H235490   3.558   2.909   2.282
11845TIP3   OH235491   3.370   3.170   5.014
11845TIP3    H135492   3.279   3.183   4.987
11845TIP3    H235493   3.365   3.134   5.102
11846TIP3   OH235494   5.866   3.478   0.026
11846TIP3    H135495   5.878   3.403  -0.031
11846TIP3    H235496   5.772   3.493   0.028
11847TIP3   OH235497   1.187   3.234   3.662
11847TIP3    H135498   1.163   3.284   3.739
11847TIP3    H235499   1.258   3.286   3.621
11848TIP3   OH235500   4.030   0.951   0.499
11848TIP3    H135501   4.103   0.940   0.439
11848TIP3    H235502   4.070   0.948   0.586
11849TIP3   OH235503   7.510   4.323   3.884
11849TIP3    H135504   7.515   4.406   3.931
11849TIP3    H235505   7.530   4.345   3.793
11850TIP3   OH235506   7.806   5.270   0.173
11850TIP3    H135507   7.712   5.279   0.158
11850TIP3    H235508   7.826   5.332   0.243
11851TIP3   OH235509   5.815   4.884   1.628
11851TIP3    H135510   5.759   4.930   1.690
11851TIP3    H235511   5.904   4.914   1.649
11852TIP3   OH235512   3.083   0.882   3.876
11852TIP3    H135513   3.052   0.972   3.865
11852TIP3    H235514   3.009   0.827   3.850
11853TIP3   OH235515   0.110   1.814   1.578
11853TIP3    H135516   0.061   1.742   1.618
11853TIP3    H235517   0.113   1.882   1.645
11854TIP3   OH235518   7.148   0.342   1.057
11854TIP3    H135519   7.144   0.267   1.116
11854TIP3    H235520   7.199   0.311   0.982
11855TIP3   OH235521   4.549   5.904   0.036
11855TIP3    H135522   4.575   5.878   0.125
11855TIP3    H235523   4.472   5.959   0.049
11856TIP3   OH235524   2.954   4.625   0.161
11856TIP3    H135525   3.040   4.628   0.119
11856TIP3    H235526   2.936   4.715   0.187
11857TIP3   OH235527   5.198   1.498   1.111
11857TIP3    H135528   5.217   1.590   1.090
11857TIP3    H235529   5.279   1.452   1.088
11858TIP3   OH235530   1.962   4.342   0.869
11858TIP3    H135531   2.022   4.331   0.943
11858TIP3    H235532   1.937   4.254   0.844
11859TIP3   OH235533   2.661   5.423   0.083
11859TIP3    H135534   2.722   5.399   0.012
11859TIP3    H235535   2.574   5.406   0.046
11860TIP3   OH235536   3.582   0.047   2.841
11860TIP3    H135537   3.547  -0.029   2.888
11860TIP3    H235538   3.511   0.111   2.843
11861TIP3   OH235539   1.671   3.419   6.345
11861TIP3    H135540   1.747   3.434   6.289
11861TIP3    H235541   1.635   3.336   6.315
11862TIP3   OH235542   2.163   5.938   4.013
11862TIP3    H135543   2.106   6.007   3.980
11862TIP3    H235544   2.110   5.858   4.006
11863TIP3   OH235545   2.074   1.448   1.042
11863TIP3    H135546   2.125   1.371   1.015
11863TIP3    H235547   2.049   1.429   1.132
11864TIP3   OH235548   4.452   4.892   6.487
11864TIP3    H135549   4.391   4.822   6.511
11864TIP3    H235550   4.431   4.912   6.396
11865TIP3   OH235551   5.440   1.596   2.583
11865TIP3    H135552   5.453   1.502   2.598
11865TIP3    H235553   5.518   1.623   2.534
11866TIP3   OH235554   6.786   6.811   0.734
11866TIP3    H135555   6.811   6.718   0.733
11866TIP3    H235556   6.859   6.855   0.777
11867TIP3   OH235557   1.435   7.534   5.627
11867TIP3    H135558   1.478   7.528   5.712
11867TIP3    H235559   1.468   7.616   5.590
11868TIP3   OH235560   0.888   6.310   5.713
11868TIP3    H135561   0.850   6.284   5.628
11868TIP3    H235562   0.969   6.259   5.719
11869TIP3   OH235563   6.708   1.549   5.499
11869TIP3    H135564   6.768   1.477   5.479
11869TIP3    H235565   6.696   1.543   5.594
11870TIP3   OH235566   1.408   1.839   6.249
11870TIP3    H135567   1.383   1.748   6.265
11870TIP3    H235568   1.474   1.835   6.180
11871TIP3   OH235569   6.272   4.710   1.395
11871TIP3    H135570   6.220   4.780   1.436
11871TIP3    H235571   6.359   4.721   1.432
11872TIP3   OH235572   5.077   3.339   2.682
11872TIP3    H135573   5.078   3.434   2.681
11872TIP3    H235574   5.104   3.313   2.594
11873TIP3   OH235575   1.561   0.761   6.000
11873TIP3    H135576   1.477   0.778   5.957
11873TIP3    H235577   1.625   0.762   5.928
11874TIP3   OH235578   7.303   0.711   0.173
11874TIP3    H135579   7.302   0.625   0.131
11874TIP3    H235580   7.378   0.756   0.133
11875TIP3   OH235581   0.512   3.618   6.455
11875TIP3    H135582   0.544   3.529   6.441
11875TIP3    H235583   0.460   3.613   6.535
11876TIP3   OH235584   3.965   1.160   6.402
11876TIP3    H135585   4.010   1.197   6.478
11876TIP3    H235586   4.014   1.081   6.381
11877TIP3   OH235587   5.628   3.582   4.565
11877TIP3    H135588   5.561   3.531   4.611
11877TIP3    H235589   5.690   3.608   4.632
11878TIP3   OH235590   5.533   5.418   5.985
11878TIP3    H135591   5.550   5.324   5.981
11878TIP3    H235592   5.439   5.424   6.002
11879TIP3   OH235593   0.528   5.986   3.771
11879TIP3    H135594   0.551   5.893   3.773
11879TIP3    H235595   0.470   5.998   3.846
11880TIP3   OH235596   2.433   0.413   0.802
11880TIP3    H135597   2.476   0.327   0.796
11880TIP3    H235598   2.471   0.453   0.880
11881TIP3   OH235599   7.169   3.496   2.505
11881TIP3    H135600   7.078   3.483   2.479
11881TIP3    H235601   7.216   3.424   2.464
11882TIP3   OH235602   0.439   1.632   2.372
11882TIP3    H135603   0.504   1.703   2.364
11882TIP3    H235604   0.393   1.632   2.288
11883TIP3   OH235605   0.562   6.586   2.753
11883TIP3    H135606   0.626   6.616   2.818
11883TIP3    H235607   0.560   6.655   2.687
11884TIP3   OH235608   2.077   3.947   3.666
11884TIP3    H135609   2.035   4.032   3.654
11884TIP3    H235610   2.168   3.969   3.688
11885TIP3   OH235611   6.500   3.929   5.167
11885TIP3    H135612   6.479   4.019   5.193
11885TIP3    H235613   6.430   3.904   5.107
11886TIP3   OH235614   2.082   5.508   1.901
11886TIP3    H135615   2.093   5.582   1.959
11886TIP3    H235616   1.991   5.481   1.913
11887TIP3   OH235617   5.548   0.918   4.342
11887TIP3    H135618   5.542   0.929   4.247
11887TIP3    H235619   5.470   0.963   4.377
11888TIP3   OH235620   3.922   0.801   5.484
11888TIP3    H135621   3.933   0.892   5.457
11888TIP3    H235622   3.985   0.752   5.431
11889TIP3   OH235623   7.639   1.764   1.340
11889TIP3    H135624   7.566   1.724   1.293
11889TIP3    H235625   7.641   1.718   1.424
11890TIP3   OH235626   5.762   4.257   2.786
11890TIP3    H135627   5.748   4.317   2.714
11890TIP3    H235628   5.857   4.259   2.801
11891TIP3   OH235629   2.910   5.930   4.661
11891TIP3    H135630   2.900   5.837   4.642
11891TIP3    H235631   2.930   5.970   4.576
11892TIP3   OH235632   7.133   1.145   1.516
11892TIP3    H135633   7.093   1.116   1.598
11892TIP3    H235634   7.078   1.218   1.488
11893TIP3   OH235635   4.936   6.937   0.614
11893TIP3    H135636   4.983   6.969   0.537
11893TIP3    H235637   4.851   6.982   0.612
11894TIP3   OH235638   0.586   2.398   4.799
11894TIP3    H135639   0.645   2.367   4.730
11894TIP3    H235640   0.569   2.321   4.853
11895TIP3   OH235641   6.507   4.526   0.629
11895TIP3    H135642   6.473   4.535   0.718
11895TIP3    H235643   6.453   4.457   0.589
11896TIP3   OH235644   1.443   3.585   1.061
11896TIP3    H135645   1.526   3.591   1.014
11896TIP3    H235646   1.391   3.657   1.028
11897TIP3   OH235647   1.377   3.186   3.391
11897TIP3    H135648   1.349   3.224   3.308
11897TIP3    H235649   1.443   3.247   3.424
11898TIP3   OH235650   6.927   6.949   6.437
11898TIP3    H135651   7.021   6.968   6.439
11898TIP3    H235652   6.896   6.995   6.359
11899TIP3   OH235653   2.088   3.240   6.249
11899TIP3    H135654   2.080   3.279   6.336
11899TIP3    H235655   2.014   3.276   6.200
11900TIP3   OH235656   0.512   1.868   1.372
11900TIP3    H135657   0.607   1.879   1.366
11900TIP3    H235658   0.482   1.872   1.282
11901TIP3   OH235659   7.012   6.990   0.777
11901TIP3    H135660   7.078   7.041   0.729
11901TIP3    H235661   7.019   7.021   0.867
11902TIP3   OH235662   6.267   6.912   4.858
11902TIP3    H135663   6.186   6.883   4.817
11902TIP3    H235664   6.281   6.850   4.930
11903TIP3   OH235665   6.521   4.327   3.057
11903TIP3    H135666   6.572   4.404   3.032
11903TIP3    H235667   6.431   4.360   3.064
11904TIP3   OH235668   5.175   4.227   6.301
11904TIP3    H135669   5.164   4.292   6.371
11904TIP3    H235670   5.121   4.153   6.328
11905TIP3   OH235671   4.155   7.042   1.989
11905TIP3    H135672   4.067   7.017   2.015
11905TIP3    H235673   4.212   6.978   2.030
11906TIP3   OH235674   2.860   1.550   6.535
11906TIP3    H135675   2.819   1.612   6.595
11906TIP3    H235676   2.859   1.594   6.450
11907TIP3   OH235677   0.100   1.460   6.680
11907TIP3    H135678   0.183   1.490   6.643
11907TIP3    H235679   0.066   1.399   6.615
11908TIP3   OH235680   7.613   2.964   2.865
11908TIP3    H135681   7.631   3.020   2.940
11908TIP3    H235682   7.552   3.014   2.811
11909TIP3   OH235683   6.706   5.424   6.376
11909TIP3    H135684   6.732   5.470   6.296
11909TIP3    H235685   6.732   5.333   6.360
11910TIP3   OH235686   0.239   3.712   1.803
11910TIP3    H135687   0.212   3.770   1.874
11910TIP3    H235688   0.285   3.640   1.848
11911TIP3   OH235689   5.804   4.035   5.124
11911TIP3    H135690   5.775   4.107   5.180
11911TIP3    H235691   5.731   3.973   5.123
11912TIP3   OH235692   0.072   6.541   5.458
11912TIP3    H135693   0.003   6.528   5.392
11912TIP3    H235694   0.053   6.476   5.525
11913TIP3   OH235695   4.374   3.726   0.424
11913TIP3    H135696   4.302   3.664   0.411
11913TIP3    H235697   4.405   3.709   0.513
11914TIP3   OH235698   4.661   3.246   6.197
11914TIP3    H135699   4.626   3.197   6.123
11914TIP3    H235700   4.724   3.187   6.238
11915TIP3   OH235701   5.276   7.774   5.042
11915TIP3    H135702   5.238   7.807   4.961
11915TIP3    H235703   5.329   7.846   5.076
11916TIP3   OH235704   1.065   3.789   4.870
11916TIP3    H135705   1.055   3.702   4.908
11916TIP3    H235706   1.154   3.791   4.836
11917TIP3   OH235707   0.642   2.404   0.100
11917TIP3    H135708   0.585   2.467   0.145
11917TIP3    H235709   0.606   2.318   0.123
11918TIP3   OH235710   4.399   3.125   1.873
11918TIP3    H135711   4.384   3.217   1.897
11918TIP3    H235712   4.344   3.111   1.797
11919TIP3   OH235713   3.850   0.684   0.411
11919TIP3    H135714   3.812   0.771   0.424
11919TIP3    H235715   3.937   0.702   0.374
11920TIP3   OH235716   7.562   4.107   3.583
11920TIP3    H135717   7.588   4.090   3.492
11920TIP3    H235718   7.502   4.036   3.604
11921TIP3   OH235719   4.217   0.031   1.556
11921TIP3    H135720   4.250  -0.012   1.635
11921TIP3    H235721   4.199   0.121   1.584
11922TIP3   OH235722   1.961   7.310   0.311
11922TIP3    H135723   1.881   7.285   0.265
11922TIP3    H235724   1.967   7.248   0.384
11923TIP3   OH235725   4.905   1.327   4.855
11923TIP3    H135726   4.831   1.315   4.794
11923TIP3    H235727   4.892   1.415   4.891
11924TIP3   OH235728   2.181   5.213   0.255
11924TIP3    H135729   2.091   5.180   0.253
11924TIP3    H235730   2.227   5.165   0.187
11925TIP3   OH235731   2.939   7.638   1.590
11925TIP3    H135732   3.034   7.641   1.581
11925TIP3    H235733   2.910   7.582   1.517
11926TIP3   OH235734   2.475   6.899   2.705
11926TIP3    H135735   2.554   6.929   2.750
11926TIP3    H235736   2.404   6.949   2.744
11927TIP3   OH235737   5.375   5.578   4.196
11927TIP3    H135738   5.430   5.623   4.133
11927TIP3    H235739   5.288   5.615   4.184
11928TIP3   OH235740   2.940   6.786   4.555
11928TIP3    H135741   2.902   6.820   4.474
11928TIP3    H235742   3.034   6.802   4.546
11929TIP3   OH235743   2.522   6.452   4.639
11929TIP3    H135744   2.602   6.448   4.587
11929TIP3    H235745   2.544   6.407   4.721
11930TIP3   OH235746   6.939   5.918   2.388
11930TIP3    H135747   7.030   5.887   2.395
11930TIP3    H235748   6.886   5.844   2.417
11931TIP3   OH235749   7.283   5.974   1.783
11931TIP3    H135750   7.316   5.885   1.796
11931TIP3    H235751   7.251   5.974   1.693
11932TIP3   OH235752   5.863   2.477   5.029
11932TIP3    H135753   5.911   2.500   4.949
11932TIP3    H235754   5.798   2.414   5.001
11933TIP3   OH235755   2.589   4.683   0.894
11933TIP3    H135756   2.632   4.766   0.875
11933TIP3    H235757   2.561   4.691   0.985
11934TIP3   OH235758   6.719   5.251   3.920
11934TIP3    H135759   6.788   5.240   3.854
11934TIP3    H235760   6.703   5.162   3.953
11935TIP3   OH235761   5.636   0.934   1.541
11935TIP3    H135762   5.668   1.024   1.540
11935TIP3    H235763   5.712   0.881   1.563
11936TIP3   OH235764   8.109   3.926   0.877
11936TIP3    H135765   8.172   3.988   0.915
11936TIP3    H235766   8.122   3.845   0.926
11937TIP3   OH235767   3.083   6.234   2.130
11937TIP3    H135768   2.991   6.207   2.138
11937TIP3    H235769   3.133   6.155   2.151
11938TIP3   OH235770   5.442   1.125   1.841
11938TIP3    H135771   5.451   1.096   1.932
11938TIP3    H235772   5.380   1.063   1.802
11939TIP3   OH235773   3.349   5.822   6.413
11939TIP3    H135774   3.414   5.854   6.475
11939TIP3    H235775   3.296   5.760   6.463
11940TIP3   OH235776   4.648   0.738   5.912
11940TIP3    H135777   4.651   0.748   5.817
11940TIP3    H235778   4.567   0.688   5.928
11941TIP3   OH235779   3.165   3.523   0.809
11941TIP3    H135780   3.172   3.605   0.858
11941TIP3    H235781   3.213   3.459   0.863
11942TIP3   OH235782   6.405   2.515   5.295
11942TIP3    H135783   6.465   2.472   5.356
11942TIP3    H235784   6.462   2.571   5.242
11943TIP3   OH235785   7.536   0.990   1.371
11943TIP3    H135786   7.600   1.027   1.309
11943TIP3    H235787   7.489   0.924   1.320
11944TIP3   OH235788   0.907   6.114   4.794
11944TIP3    H135789   1.003   6.117   4.796
11944TIP3    H235790   0.885   6.133   4.703
11945TIP3   OH235791   3.158   4.378   6.605
11945TIP3    H135792   3.087   4.317   6.626
11945TIP3    H235793   3.125   4.463   6.635
11946TIP3   OH235794   0.798   7.794   5.274
11946TIP3    H135795   0.778   7.704   5.251
11946TIP3    H235796   0.735   7.846   5.225
11947TIP3   OH235797   5.038   0.994   6.588
11947TIP3    H135798   5.105   1.014   6.654
11947TIP3    H235799   5.072   1.033   6.507
11948TIP3   OH235800   5.097   2.600   4.645
11948TIP3    H135801   5.049   2.677   4.616
11948TIP3    H235802   5.172   2.634   4.694
11949TIP3   OH235803   2.788   2.565   1.222
11949TIP3    H135804   2.799   2.555   1.316
11949TIP3    H235805   2.851   2.505   1.183
11950TIP3   OH235806   1.391   5.025   1.587
11950TIP3    H135807   1.373   5.013   1.494
11950TIP3    H235808   1.447   5.102   1.591
11951TIP3   OH235809   7.921   1.529   5.027
11951TIP3    H135810   7.897   1.475   4.951
11951TIP3    H235811   8.006   1.495   5.055
11952TIP3   OH235812   5.025   6.766   3.146
11952TIP3    H135813   4.979   6.849   3.133
11952TIP3    H235814   5.038   6.732   3.057
11953TIP3   OH235815   7.144   4.405   1.718
11953TIP3    H135816   7.184   4.408   1.631
11953TIP3    H235817   7.055   4.439   1.705
11954TIP3   OH235818   7.722   0.214   4.187
11954TIP3    H135819   7.633   0.192   4.159
11954TIP3    H235820   7.715   0.231   4.280
11955TIP3   OH235821   0.811   4.013   3.654
11955TIP3    H135822   0.753   4.079   3.693
11955TIP3    H235823   0.777   4.001   3.566
11956TIP3   OH235824   7.405   2.771   2.904
11956TIP3    H135825   7.353   2.820   2.968
11956TIP3    H235826   7.485   2.823   2.895
11957TIP3   OH235827   5.796   1.263   0.871
11957TIP3    H135828   5.819   1.351   0.900
11957TIP3    H235829   5.718   1.275   0.817
11958TIP3   OH235830   2.032   1.805   5.964
11958TIP3    H135831   2.068   1.860   6.034
11958TIP3    H235832   2.082   1.723   5.970
11959TIP3   OH235833   3.427   6.696   0.565
11959TIP3    H135834   3.503   6.674   0.619
11959TIP3    H235835   3.355   6.645   0.603
11960TIP3   OH235836   3.184   0.128   2.784
11960TIP3    H135837   3.128   0.065   2.829
11960TIP3    H235838   3.192   0.095   2.695
11961TIP3   OH235839   5.704   7.474   0.140
11961TIP3    H135840   5.686   7.434   0.054
11961TIP3    H235841   5.640   7.434   0.199
11962TIP3   OH235842   0.407   2.403   3.679
11962TIP3    H135843   0.396   2.312   3.707
11962TIP3    H235844   0.456   2.444   3.750
11963TIP3   OH235845   6.686   2.960   2.224
11963TIP3    H135846   6.760   3.012   2.255
11963TIP3    H235847   6.722   2.872   2.213
11964TIP3   OH235848   7.700   2.804   4.869
11964TIP3    H135849   7.690   2.860   4.946
11964TIP3    H235850   7.794   2.798   4.855
11965TIP3   OH235851   6.063   6.436   5.111
11965TIP3    H135852   5.988   6.379   5.096
11965TIP3    H235853   6.110   6.438   5.027
11966TIP3   OH235854   7.146   1.159   0.326
11966TIP3    H135855   7.163   1.118   0.242
11966TIP3    H235856   7.076   1.108   0.365
11967TIP3   OH235857   7.864   3.851   5.620
11967TIP3    H135858   7.866   3.869   5.526
11967TIP3    H235859   7.798   3.910   5.655
11968TIP3   OH235860   1.442   0.619   3.339
11968TIP3    H135861   1.509   0.673   3.382
11968TIP3    H235862   1.393   0.682   3.286
11969TIP3   OH235863   7.562   6.655   2.382
11969TIP3    H135864   7.616   6.641   2.304
11969TIP3    H235865   7.613   6.716   2.436
11970TIP3   OH235866   2.877   3.147   0.336
11970TIP3    H135867   2.916   3.070   0.296
11970TIP3    H235868   2.928   3.221   0.303
11971TIP3   OH235869   1.133   3.384   0.930
11971TIP3    H135870   1.098   3.296   0.945
11971TIP3    H235871   1.098   3.437   1.001
11972TIP3   OH235872   3.083   5.148   6.043
11972TIP3    H135873   3.099   5.084   5.973
11972TIP3    H235874   3.049   5.096   6.116
11973TIP3   OH235875   1.915   1.490   0.837
11973TIP3    H135876   1.978   1.502   0.908
11973TIP3    H235877   1.843   1.441   0.876
11974TIP3   OH235878   2.150   0.746   4.364
11974TIP3    H135879   2.206   0.822   4.346
11974TIP3    H235880   2.064   0.771   4.329
11975TIP3   OH235881   0.810   7.108   2.841
11975TIP3    H135882   0.885   7.165   2.860
11975TIP3    H235883   0.735   7.167   2.839
11976TIP3   OH235884   4.850  -0.022   1.098
11976TIP3    H135885   4.874   0.043   1.031
11976TIP3    H235886   4.781   0.020   1.149
11977TIP3   OH235887   4.851   0.820   6.470
11977TIP3    H135888   4.895   0.735   6.467
11977TIP3    H235889   4.919   0.880   6.502
11978TIP3   OH235890   3.831   1.952   0.800
11978TIP3    H135891   3.787   1.937   0.884
11978TIP3    H235892   3.887   2.028   0.816
11979TIP3   OH235893   2.995   4.945   6.548
11979TIP3    H135894   2.916   4.990   6.578
11979TIP3    H235895   3.064   4.973   6.609
11980TIP3   OH235896   7.401   6.035   3.615
11980TIP3    H135897   7.356   5.996   3.689
11980TIP3    H235898   7.341   6.024   3.541
11981TIP3   OH235899   0.784   2.837   3.786
11981TIP3    H135900   0.788   2.763   3.847
11981TIP3    H235901   0.844   2.902   3.823
11982TIP3   OH235902   6.019   7.845   3.080
11982TIP3    H135903   6.042   7.772   3.022
11982TIP3    H235904   6.102   7.890   3.095
11983TIP3   OH235905   0.648   4.213   3.772
11983TIP3    H135906   0.565   4.254   3.749
11983TIP3    H235907   0.637   4.188   3.864
11984TIP3   OH235908   6.469   5.909   5.257
11984TIP3    H135909   6.503   5.902   5.346
11984TIP3    H235910   6.403   5.840   5.251
11985TIP3   OH235911   2.609   7.827   4.628
11985TIP3    H135912   2.608   7.817   4.533
11985TIP3    H235913   2.700   7.808   4.653
11986TIP3   OH235914   3.551   2.350   2.347
11986TIP3    H135915   3.584   2.333   2.435
11986TIP3    H235916   3.575   2.272   2.297
11987TIP3   OH235917   2.543   5.167   6.591
11987TIP3    H135918   2.626   5.160   6.543
11987TIP3    H235919   2.520   5.077   6.611
11988TIP3   OH235920   5.803   0.451   2.428
11988TIP3    H135921   5.871   0.383   2.426
11988TIP3    H235922   5.736   0.419   2.368
11989TIP3   OH235923   1.955   5.954   2.555
11989TIP3    H135924   2.030   5.902   2.527
11989TIP3    H235925   1.899   5.891   2.601
11990TIP3   OH235926   6.418   2.960   2.188
11990TIP3    H135927   6.511   2.986   2.183
11990TIP3    H235928   6.420   2.867   2.209
11991TIP3   OH235929   3.383   3.369   6.130
11991TIP3    H135930   3.326   3.371   6.207
11991TIP3    H235931   3.348   3.297   6.077
11992TIP3   OH235932   4.532   5.420   2.987
11992TIP3    H135933   4.507   5.377   2.906
11992TIP3    H235934   4.616   5.381   3.010
11993TIP3   OH235935   4.710   0.459   5.209
11993TIP3    H135936   4.743   0.373   5.233
11993TIP3    H235937   4.644   0.441   5.141
11994TIP3   OH235938   5.450   4.748   2.971
11994TIP3    H135939   5.459   4.657   2.942
11994TIP3    H235940   5.522   4.761   3.033
11995TIP3   OH235941   6.339   4.308   5.162
11995TIP3    H135942   6.356   4.377   5.226
11995TIP3    H235943   6.317   4.231   5.215
11996TIP3   OH235944   0.285   3.910   4.328
11996TIP3    H135945   0.266   3.996   4.290
11996TIP3    H235946   0.199   3.877   4.356
11997TIP3   OH235947   2.765   2.459   5.618
11997TIP3    H135948   2.743   2.437   5.708
11997TIP3    H235949   2.681   2.465   5.573
11998TIP3   OH235950   2.003   3.985   4.978
11998TIP3    H135951   1.974   3.894   4.977
11998TIP3    H235952   2.095   3.982   5.002
11999TIP3   OH235953   4.236   3.489   0.492
11999TIP3    H135954   4.314   3.458   0.539
11999TIP3    H235955   4.162   3.459   0.545
12000TIP3   OH235956   6.659   2.754   5.648
12000TIP3    H135957   6.704   2.670   5.658
12000TIP3    H235958   6.699   2.810   5.715
12001TIP3   OH235959   4.732   7.321   1.666
12001TIP3    H135960   4.786   7.377   1.722
12001TIP3    H235961   4.679   7.270   1.727
12002TIP3   OH235962   5.199   3.446   0.051
12002TIP3    H135963   5.121   3.484   0.091
12002TIP3    H235964   5.269   3.509   0.068
12003TIP3   OH235965   1.757   4.252   5.066
12003TIP3    H135966   1.710   4.176   5.101
12003TIP3    H235967   1.727   4.326   5.118
12004TIP3   OH235968   2.811   2.474   4.166
12004TIP3    H135969   2.900   2.458   4.195
12004TIP3    H235970   2.774   2.387   4.150
12005TIP3   OH235971   1.192  -0.020   0.019
12005TIP3    H135972   1.260   0.029   0.067
12005TIP3    H235973   1.151   0.045  -0.037
12006TIP3   OH235974   1.904   4.413   2.169
12006TIP3    H135975   1.818   4.372   2.172
12006TIP3    H235976   1.886   4.507   2.163
12007TIP3   OH235977   4.471   7.519   1.735
12007TIP3    H135978   4.464   7.460   1.660
12007TIP3    H235979   4.515   7.597   1.701
12008TIP3   OH235980   6.526   6.422   2.914
12008TIP3    H135981   6.482   6.476   2.980
12008TIP3    H235982   6.606   6.391   2.958
12009TIP3   OH235983   2.049   6.533   4.703
12009TIP3    H135984   2.141   6.552   4.687
12009TIP3    H235985   2.050   6.465   4.770
12010TIP3   OH235986   4.431   5.744   2.266
12010TIP3    H135987   4.475   5.827   2.248
12010TIP3    H235988   4.346   5.751   2.224
12011TIP3   OH235989   7.758   3.770   6.249
12011TIP3    H135990   7.841   3.730   6.274
12011TIP3    H235991   7.729   3.720   6.173
12012TIP3   OH235992   0.405   5.655   0.394
12012TIP3    H135993   0.383   5.710   0.319
12012TIP3    H235994   0.420   5.717   0.466
12013TIP3   OH235995   2.052   2.285   6.639
12013TIP3    H135996   2.020   2.316   6.554
12013TIP3    H235997   2.145   2.305   6.639
12014TIP3   OH235998   1.026   6.511   6.494
12014TIP3    H135999   1.093   6.445   6.481
12014TIP3    H236000   0.962   6.470   6.553
12015TIP3   OH236001   1.632   1.650   1.563
12015TIP3    H136002   1.641   1.667   1.657
12015TIP3    H236003   1.579   1.570   1.559
12016TIP3   OH236004   6.849   0.476   6.266
12016TIP3    H136005   6.870   0.392   6.225
12016TIP3    H236006   6.807   0.453   6.349
12017TIP3   OH236007   1.696   7.724   0.245
12017TIP3    H136008   1.787   7.702   0.265
12017TIP3    H236009   1.654   7.639   0.227
12018TIP3   OH236010   2.929   0.328   2.532
12018TIP3    H136011   2.958   0.238   2.543
12018TIP3    H236012   3.009   0.380   2.531
12019TIP3   OH236013   0.292   4.164   3.217
12019TIP3    H136014   0.205   4.200   3.231
12019TIP3    H236015   0.297   4.088   3.275
12020TIP3   OH236016   0.848   2.843   4.526
12020TIP3    H136017   0.839   2.813   4.617
12020TIP3    H236018   0.801   2.778   4.474
12021TIP3   OH236019   4.678   3.479   3.992
12021TIP3    H136020   4.669   3.389   4.024
12021TIP3    H236021   4.678   3.470   3.897
12022TIP3   OH236022   0.470   5.887   5.130
12022TIP3    H136023   0.423   5.890   5.047
12022TIP3    H236024   0.462   5.976   5.165
12023TIP3   OH236025   2.645   3.849   2.108
12023TIP3    H136026   2.682   3.766   2.077
12023TIP3    H236027   2.551   3.837   2.104
12024TIP3   OH236028   7.160   0.666   2.330
12024TIP3    H136029   7.107   0.712   2.265
12024TIP3    H236030   7.221   0.732   2.362
12025TIP3   OH236031   2.741   2.449   1.757
12025TIP3    H136032   2.813   2.425   1.699
12025TIP3    H236033   2.769   2.531   1.797
12026TIP3   OH236034   2.943   6.230   4.150
12026TIP3    H136035   2.958   6.206   4.058
12026TIP3    H236036   2.871   6.293   4.146
12027TIP3   OH236037   0.075   2.007   1.138
12027TIP3    H136038   0.021   2.038   1.065
12027TIP3    H236039   0.024   1.934   1.175
12028TIP3   OH236040   0.319   1.717   6.783
12028TIP3    H136041   0.293   1.800   6.744
12028TIP3    H236042   0.246   1.693   6.839
12029TIP3   OH236043   3.076   5.544   1.914
12029TIP3    H136044   3.166   5.511   1.908
12029TIP3    H236045   3.025   5.469   1.947
12030TIP3   OH236046   3.286   5.445   6.260
12030TIP3    H136047   3.307   5.507   6.190
12030TIP3    H236048   3.364   5.389   6.266
12031TIP3   OH236049   8.031   3.126   1.578
12031TIP3    H136050   8.067   3.185   1.644
12031TIP3    H236051   8.032   3.179   1.497
12032TIP3   OH236052   8.296   1.256   0.843
12032TIP3    H136053   8.236   1.186   0.869
12032TIP3    H236054   8.366   1.253   0.908
12033TIP3   OH236055   4.339   7.234   5.978
12033TIP3    H136056   4.337   7.325   6.010
12033TIP3    H236057   4.427   7.203   6.001
12034TIP3   OH236058   6.482   7.586   1.413
12034TIP3    H136059   6.414   7.524   1.439
12034TIP3    H236060   6.502   7.635   1.493
12035TIP3   OH236061   6.003   1.113   6.432
12035TIP3    H136062   5.943   1.183   6.407
12035TIP3    H236063   6.023   1.068   6.350
12036TIP3   OH236064   3.377   5.226   3.218
12036TIP3    H136065   3.324   5.301   3.194
12036TIP3    H236066   3.461   5.240   3.173
12037TIP3   OH236067   2.998   7.725   4.840
12037TIP3    H136068   2.949   7.751   4.918
12037TIP3    H236069   2.948   7.652   4.804
12038TIP3   OH236070   1.426   2.787   3.491
12038TIP3    H136071   1.368   2.733   3.544
12038TIP3    H236072   1.378   2.802   3.409
12039TIP3   OH236073   2.486   0.761   6.139
12039TIP3    H136074   2.448   0.711   6.067
12039TIP3    H236075   2.417   0.765   6.205
12040TIP3   OH236076   4.980   6.894   5.553
12040TIP3    H136077   5.053   6.955   5.541
12040TIP3    H236078   4.907   6.935   5.506
12041TIP3   OH236079   5.304   7.704   1.590
12041TIP3    H136080   5.373   7.713   1.656
12041TIP3    H236081   5.253   7.627   1.619
12042TIP3   OH236082   4.603   6.292   5.314
12042TIP3    H136083   4.603   6.218   5.374
12042TIP3    H236084   4.615   6.368   5.370
12043TIP3   OH236085   5.038   5.244   1.211
12043TIP3    H136086   5.097   5.224   1.138
12043TIP3    H236087   5.023   5.338   1.205
12044TIP3   OH236088   6.124   4.661   3.444
12044TIP3    H136089   6.147   4.631   3.355
12044TIP3    H236090   6.117   4.580   3.495
12045TIP3   OH236091   6.580   0.043   1.612
12045TIP3    H136092   6.611  -0.044   1.637
12045TIP3    H236093   6.487   0.042   1.632
12046TIP3   OH236094   7.439   6.940   0.644
12046TIP3    H136095   7.474   7.010   0.700
12046TIP3    H236096   7.352   6.971   0.618
12047TIP3   OH236097   1.718   6.111   6.379
12047TIP3    H136098   1.710   6.030   6.328
12047TIP3    H236099   1.696   6.180   6.317
12048TIP3   OH236100   2.400   2.166   5.606
12048TIP3    H136101   2.304   2.169   5.603
12048TIP3    H236102   2.421   2.076   5.627
12049TIP3   OH236103   0.966   0.252   4.899
12049TIP3    H136104   0.940   0.182   4.839
12049TIP3    H236105   0.918   0.329   4.867
12050TIP3   OH236106   1.298   4.821   4.978
12050TIP3    H136107   1.211   4.842   5.011
12050TIP3    H236108   1.321   4.738   5.018
12051TIP3   OH236109   6.106   1.566   5.986
12051TIP3    H136110   6.074   1.515   5.912
12051TIP3    H236111   6.108   1.503   6.059
12052TIP3   OH236112   1.407   5.956   4.705
12052TIP3    H136113   1.425   5.919   4.791
12052TIP3    H236114   1.316   5.934   4.687
12053TIP3   OH236115   5.695   1.045   1.027
12053TIP3    H136116   5.661   0.970   0.980
12053TIP3    H236117   5.727   1.104   0.959
12054TIP3   OH236118   6.669   7.548   1.918
12054TIP3    H136119   6.692   7.458   1.898
12054TIP3    H236120   6.687   7.557   2.011
12055TIP3   OH236121   4.797   7.109   6.574
12055TIP3    H136122   4.813   7.056   6.496
12055TIP3    H236123   4.818   7.051   6.647
12056TIP3   OH236124   7.147   7.707   6.196
12056TIP3    H136125   7.055   7.725   6.216
12056TIP3    H236126   7.169   7.771   6.127
12057TIP3   OH236127   4.734   4.976   3.251
12057TIP3    H136128   4.822   4.993   3.219
12057TIP3    H236129   4.730   4.881   3.260
12058TIP3   OH236130   6.020   2.206   5.852
12058TIP3    H136131   6.049   2.269   5.918
12058TIP3    H236132   5.962   2.146   5.899
12059TIP3   OH236133   0.825   4.889   6.151
12059TIP3    H136134   0.791   4.949   6.218
12059TIP3    H236135   0.765   4.814   6.154
12060TIP3   OH236136   7.138   7.415   3.169
12060TIP3    H136137   7.144   7.320   3.171
12060TIP3    H236138   7.198   7.441   3.098
12061TIP3   OH236139   0.422   4.618   3.566
12061TIP3    H136140   0.484   4.563   3.518
12061TIP3    H236141   0.434   4.592   3.658
12062TIP3   OH236142   4.657   0.445   3.179
12062TIP3    H136143   4.581   0.393   3.206
12062TIP3    H236144   4.621   0.509   3.118
12063TIP3   OH236145   2.442   5.939   3.342
12063TIP3    H136146   2.405   5.967   3.258
12063TIP3    H236147   2.494   6.013   3.371
12064TIP3   OH236148   1.142   2.039   3.315
12064TIP3    H136149   1.146   1.983   3.238
12064TIP3    H236150   1.048   2.048   3.333
12065TIP3   OH236151   6.883   6.513   3.512
12065TIP3    H136152   6.939   6.513   3.589
12065TIP3    H236153   6.794   6.513   3.547
12066TIP3   OH236154   6.887   2.338   5.439
12066TIP3    H136155   6.800   2.322   5.477
12066TIP3    H236156   6.929   2.252   5.439
12067TIP3   OH236157   3.996   0.118   0.280
12067TIP3    H136158   4.028   0.208   0.289
12067TIP3    H236159   3.927   0.111   0.346
12068TIP3   OH236160   4.789   0.909   1.075
12068TIP3    H136161   4.866   0.963   1.056
12068TIP3    H236162   4.759   0.879   0.989
12069TIP3   OH236163   0.984   7.454   5.981
12069TIP3    H136164   0.968   7.508   5.903
12069TIP3    H236165   0.897   7.420   6.004
12070TIP3   OH236166   6.765   3.979   2.075
12070TIP3    H136167   6.683   3.931   2.087
12070TIP3    H236168   6.739   4.059   2.030
12071TIP3   OH236169   1.772   0.083   2.290
12071TIP3    H136170   1.717   0.009   2.315
12071TIP3    H236171   1.842   0.084   2.355
12072TIP3   OH236172   3.936   1.393   2.828
12072TIP3    H136173   3.953   1.328   2.896
12072TIP3    H236174   3.841   1.388   2.814
12073TIP3   OH236175   3.118   6.691   4.015
12073TIP3    H136176   3.106   6.786   4.025
12073TIP3    H236177   3.213   6.681   4.004
12074TIP3   OH236178   0.283   4.851   3.976
12074TIP3    H136179   0.309   4.819   3.890
12074TIP3    H236180   0.295   4.777   4.034
12075TIP3   OH236181   0.084   3.141   0.434
12075TIP3    H136182   0.129   3.057   0.425
12075TIP3    H236183   0.149   3.199   0.474
12076TIP3   OH236184   3.228   0.919   6.464
12076TIP3    H136185   3.174   0.849   6.501
12076TIP3    H236186   3.241   0.980   6.537
12077TIP3   OH236187   6.097   3.345   2.173
12077TIP3    H136188   6.047   3.265   2.190
12077TIP3    H236189   6.035   3.402   2.128
12078TIP3   OH236190   7.996   6.225   0.957
12078TIP3    H136191   8.026   6.262   0.874
12078TIP3    H236192   8.069   6.240   1.018
12079TIP3   OH236193   1.194   4.664   2.415
12079TIP3    H136194   1.243   4.598   2.366
12079TIP3    H236195   1.228   4.748   2.384
12080TIP3   OH236196   2.397   4.342   3.453
12080TIP3    H136197   2.468   4.333   3.517
12080TIP3    H236198   2.405   4.433   3.422
12081TIP3   OH236199   2.424   4.202   0.048
12081TIP3    H136200   2.333   4.174   0.046
12081TIP3    H236201   2.455   4.193  -0.042
12082TIP3   OH236202   3.997   6.013   4.990
12082TIP3    H136203   4.015   6.084   4.928
12082TIP3    H236204   4.051   5.940   4.960
12083TIP3   OH236205   0.962   0.844   3.829
12083TIP3    H136206   0.956   0.774   3.894
12083TIP3    H236207   1.041   0.892   3.854
12084TIP3   OH236208   4.753   0.657   2.248
12084TIP3    H136209   4.729   0.624   2.162
12084TIP3    H236210   4.840   0.619   2.264
12085TIP3   OH236211   2.274   3.220   4.883
12085TIP3    H136212   2.266   3.258   4.796
12085TIP3    H236213   2.184   3.205   4.911
12086TIP3   OH236214   2.817   7.331   2.076
12086TIP3    H136215   2.728   7.300   2.060
12086TIP3    H236216   2.872   7.271   2.024
12087TIP3   OH236217   0.003   0.949   3.188
12087TIP3    H136218   0.046   0.935   3.104
12087TIP3    H236219   0.074   0.954   3.252
12088TIP3   OH236220   4.303   4.677   6.634
12088TIP3    H136221   4.364   4.606   6.653
12088TIP3    H236222   4.250   4.684   6.714
12089TIP3   OH236223   8.248   3.038   3.031
12089TIP3    H136224   8.232   3.020   3.123
12089TIP3    H236225   8.340   3.016   3.017
12090TIP3   OH236226   7.869   3.669   1.335
12090TIP3    H136227   7.811   3.593   1.332
12090TIP3    H236228   7.816   3.738   1.374
12091TIP3   OH236229   8.180   7.561   3.748
12091TIP3    H136230   8.252   7.616   3.718
12091TIP3    H236231   8.222   7.495   3.804
12092TIP3   OH236232   5.016   3.403   4.805
12092TIP3    H136233   4.972   3.448   4.734
12092TIP3    H236234   4.945   3.359   4.853
12093TIP3   OH236235   4.348   6.936   5.687
12093TIP3    H136236   4.296   6.968   5.613
12093TIP3    H236237   4.293   6.950   5.763
12094TIP3   OH236238   7.346   0.358   1.798
12094TIP3    H136239   7.351   0.428   1.864
12094TIP3    H236240   7.391   0.284   1.838
12095TIP3   OH236241   2.908   5.432   1.447
12095TIP3    H136242   2.917   5.366   1.378
12095TIP3    H236243   2.864   5.506   1.404
12096TIP3   OH236244   1.532   2.691   3.130
12096TIP3    H136245   1.597   2.643   3.182
12096TIP3    H236246   1.454   2.693   3.185
12097TIP3   OH236247   3.378   3.639   0.670
12097TIP3    H136248   3.314   3.669   0.734
12097TIP3    H236249   3.337   3.565   0.627
12098TIP3   OH236250   1.804   2.373   4.888
12098TIP3    H136251   1.811   2.458   4.931
12098TIP3    H236252   1.711   2.354   4.885
12099TIP3   OH236253   1.203   7.113   3.102
12099TIP3    H136254   1.201   7.115   3.006
12099TIP3    H236255   1.280   7.165   3.126
12100TIP3   OH236256   0.407   3.968   5.247
12100TIP3    H136257   0.499   3.973   5.271
12100TIP3    H236258   0.368   3.912   5.314
12101TIP3   OH236259   3.478   7.455   4.533
12101TIP3    H136260   3.469   7.494   4.446
12101TIP3    H236261   3.476   7.529   4.593
12102TIP3   OH236262   0.525   2.840   5.856
12102TIP3    H136263   0.592   2.806   5.797
12102TIP3    H236264   0.487   2.914   5.809
12103TIP3   OH236265   1.626   2.884   4.449
12103TIP3    H136266   1.639   2.894   4.543
12103TIP3    H236267   1.613   2.790   4.436
12104TIP3   OH236268   5.778   3.060   4.000
12104TIP3    H136269   5.855   3.008   4.021
12104TIP3    H236270   5.740   3.082   4.086
12105TIP3   OH236271   4.730   5.402   2.089
12105TIP3    H136272   4.778   5.354   2.022
12105TIP3    H236273   4.691   5.476   2.042
12106TIP3   OH236274   4.662   7.204   5.725
12106TIP3    H136275   4.724   7.247   5.784
12106TIP3    H236276   4.614   7.144   5.781
12107TIP3   OH236277   7.969   5.566   3.207
12107TIP3    H136278   7.984   5.651   3.167
12107TIP3    H236279   8.034   5.509   3.167
12108TIP3   OH236280   8.007   1.525   2.625
12108TIP3    H136281   7.990   1.575   2.705
12108TIP3    H236282   7.992   1.434   2.650
12109TIP3   OH236283   2.055   1.952   5.733
12109TIP3    H136284   2.041   1.897   5.810
12109TIP3    H236285   2.133   1.914   5.692
12110TIP3   OH236286   5.010   4.973   4.769
12110TIP3    H136287   4.916   4.968   4.789
12110TIP3    H236288   5.043   5.042   4.825
12111TIP3   OH236289   7.511   6.012   4.020
12111TIP3    H136290   7.418   6.013   3.994
12111TIP3    H236291   7.534   6.105   4.029
12112TIP3   OH236292   3.890   1.406   0.226
12112TIP3    H136293   3.839   1.408   0.307
12112TIP3    H236294   3.831   1.365   0.162
12113TIP3   OH236295   6.396   5.609   3.638
12113TIP3    H136296   6.393   5.641   3.728
12113TIP3    H236297   6.484   5.574   3.627
12114TIP3   OH236298   4.708   2.732   3.203
12114TIP3    H136299   4.639   2.672   3.231
12114TIP3    H236300   4.783   2.711   3.259
12115TIP3   OH236301   7.465   1.182   1.115
12115TIP3    H136302   7.438   1.096   1.083
12115TIP3    H236303   7.555   1.169   1.145
12116TIP3   OH236304   5.734   3.006   0.838
12116TIP3    H136305   5.779   2.996   0.754
12116TIP3    H236306   5.645   3.032   0.814
12117TIP3   OH236307   0.796   2.380   1.220
12117TIP3    H136308   0.708   2.390   1.258
12117TIP3    H236309   0.846   2.453   1.255
12118TIP3   OH236310   5.991   6.387   0.844
12118TIP3    H136311   5.899   6.406   0.864
12118TIP3    H236312   6.029   6.472   0.822
12119TIP3   OH236313   0.091   4.287   3.341
12119TIP3    H136314   0.106   4.357   3.405
12119TIP3    H236315   0.023   4.232   3.381
12120TIP3   OH236316   2.843   0.918   0.158
12120TIP3    H136317   2.803   0.965   0.231
12120TIP3    H236318   2.935   0.946   0.159
12121TIP3   OH236319   7.729   1.366   6.709
12121TIP3    H136320   7.823   1.350   6.709
12121TIP3    H236321   7.719   1.451   6.751
12122TIP3   OH236322   4.708   2.931   0.276
12122TIP3    H136323   4.769   2.909   0.347
12122TIP3    H236324   4.757   2.913   0.196
12123TIP3   OH236325   7.531   3.459   6.716
12123TIP3    H136326   7.526   3.546   6.755
12123TIP3    H236327   7.617   3.426   6.742
12124TIP3   OH236328   3.988   0.864   5.742
12124TIP3    H136329   3.979   0.857   5.647
12124TIP3    H236330   3.902   0.841   5.776
12125TIP3   OH236331   4.152   6.097   0.844
12125TIP3    H136332   4.215   6.037   0.882
12125TIP3    H236333   4.175   6.183   0.879
12126TIP3   OH236334   6.384   1.477   4.420
12126TIP3    H136335   6.459   1.500   4.365
12126TIP3    H236336   6.403   1.518   4.505
12127TIP3   OH236337   6.896   6.796   1.473
12127TIP3    H136338   6.884   6.811   1.567
12127TIP3    H236339   6.832   6.728   1.452
12128TIP3   OH236340   3.472   5.508   5.277
12128TIP3    H136341   3.452   5.520   5.184
12128TIP3    H236342   3.552   5.559   5.291
12129TIP3   OH236343   5.465   3.812   1.832
12129TIP3    H136344   5.499   3.832   1.920
12129TIP3    H236345   5.531   3.754   1.794
12130TIP3   OH236346   0.171   7.466   6.282
12130TIP3    H136347   0.261   7.448   6.307
12130TIP3    H236348   0.179   7.526   6.208
12131TIP3   OH236349   2.612   0.627   2.690
12131TIP3    H136350   2.630   0.719   2.710
12131TIP3    H236351   2.659   0.609   2.609
12132TIP3   OH236352   1.707   5.216   6.457
12132TIP3    H136353   1.680   5.279   6.391
12132TIP3    H236354   1.768   5.157   6.412
12133TIP3   OH236355   6.281   1.213   5.178
12133TIP3    H136356   6.287   1.257   5.093
12133TIP3    H236357   6.252   1.282   5.238
12134TIP3   OH236358   3.121   3.400   3.516
12134TIP3    H136359   3.144   3.488   3.485
12134TIP3    H236360   3.026   3.394   3.506
12135TIP3   OH236361   5.692   6.636   5.190
12135TIP3    H136362   5.604   6.632   5.226
12135TIP3    H236363   5.690   6.708   5.127
12136TIP3   OH236364   3.106   7.735   0.514
12136TIP3    H136365   3.121   7.786   0.435
12136TIP3    H236366   3.188   7.741   0.562
12137TIP3   OH236367   2.968   1.710   4.183
12137TIP3    H136368   2.980   1.755   4.267
12137TIP3    H236369   2.888   1.749   4.146
12138TIP3   OH236370   6.325   1.184   0.192
12138TIP3    H136371   6.381   1.132   0.250
12138TIP3    H236372   6.362   1.272   0.196
12139TIP3   OH236373   1.697   0.771   5.762
12139TIP3    H136374   1.770   0.767   5.699
12139TIP3    H236375   1.619   0.759   5.709
12140TIP3   OH236376   6.162   2.070   2.808
12140TIP3    H136377   6.236   2.012   2.787
12140TIP3    H236378   6.098   2.012   2.850
12141TIP3   OH236379   2.603   1.642   3.642
12141TIP3    H136380   2.625   1.735   3.636
12141TIP3    H236381   2.680   1.602   3.681
12142TIP3   OH236382   6.465   1.581   1.419
12142TIP3    H136383   6.457   1.512   1.353
12142TIP3    H236384   6.491   1.658   1.369
12143TIP3   OH236385   7.772   2.058   3.889
12143TIP3    H136386   7.782   2.054   3.794
12143TIP3    H236387   7.769   2.152   3.909
12144TIP3   OH236388   1.260   3.296   6.159
12144TIP3    H136389   1.317   3.346   6.218
12144TIP3    H236390   1.296   3.207   6.161
12145TIP3   OH236391   7.620   6.329   5.090
12145TIP3    H136392   7.590   6.246   5.052
12145TIP3    H236393   7.568   6.338   5.170
12146TIP3   OH236394   5.586   5.434   2.803
12146TIP3    H136395   5.529   5.426   2.879
12146TIP3    H236396   5.540   5.494   2.745
12147TIP3   OH236397   3.456   6.559   3.311
12147TIP3    H136398   3.421   6.470   3.322
12147TIP3    H236399   3.546   6.553   3.344
12148TIP3   OH236400   5.012   4.941   3.165
12148TIP3    H136401   5.041   4.851   3.155
12148TIP3    H236402   4.992   4.970   3.076
12149TIP3   OH236403   5.074   1.790   1.845
12149TIP3    H136404   5.053   1.698   1.861
12149TIP3    H236405   5.164   1.789   1.813
12150TIP3   OH236406   3.033   1.373   5.231
12150TIP3    H136407   3.067   1.373   5.141
12150TIP3    H236408   3.111   1.363   5.286
12151TIP3   OH236409   7.448   6.650   4.094
12151TIP3    H136410   7.430   6.744   4.087
12151TIP3    H236411   7.434   6.629   4.186
12152TIP3   OH236412   4.768   1.976   3.496
12152TIP3    H136413   4.696   1.951   3.437
12152TIP3    H236414   4.757   2.070   3.508
12153TIP3   OH236415   3.212   0.213   1.584
12153TIP3    H136416   3.127   0.190   1.622
12153TIP3    H236417   3.257   0.129   1.573
12154TIP3   OH236418   1.317   4.868   5.953
12154TIP3    H136419   1.366   4.806   6.007
12154TIP3    H236420   1.227   4.835   5.954
12155TIP3   OH236421   8.158   0.067   6.140
12155TIP3    H136422   8.130   0.095   6.053
12155TIP3    H236423   8.230   0.006   6.123
12156TIP3   OH236424   6.737   6.808   0.256
12156TIP3    H136425   6.682   6.843   0.326
12156TIP3    H236426   6.754   6.717   0.282
12157TIP3   OH236427   0.790   3.034   6.152
12157TIP3    H136428   0.701   3.047   6.117
12157TIP3    H236429   0.836   3.114   6.129
12158TIP3   OH236430   8.189   4.355   5.933
12158TIP3    H136431   8.128   4.390   5.998
12158TIP3    H236432   8.247   4.299   5.984
12159TIP3   OH236433   4.859   7.806   2.907
12159TIP3    H136434   4.913   7.788   2.831
12159TIP3    H236435   4.891   7.745   2.974
12160TIP3   OH236436   1.303   3.894   1.224
12160TIP3    H136437   1.371   3.859   1.281
12160TIP3    H236438   1.350   3.929   1.149
12161TIP3   OH236439   7.828   5.422   4.745
12161TIP3    H136440   7.914   5.400   4.711
12161TIP3    H236441   7.794   5.339   4.779
12162TIP3   OH236442   6.141   5.521   5.128
12162TIP3    H136443   6.076   5.501   5.060
12162TIP3    H236444   6.093   5.511   5.210
12163TIP3   OH236445   4.760   2.117   6.384
12163TIP3    H136446   4.711   2.114   6.467
12163TIP3    H236447   4.730   2.197   6.341
12164TIP3   OH236448   8.054   0.919   3.687
12164TIP3    H136449   8.110   0.909   3.764
12164TIP3    H236450   8.011   1.004   3.698
12165TIP3   OH236451   6.916   5.789   6.521
12165TIP3    H136452   6.898   5.883   6.526
12165TIP3    H236453   6.979   5.781   6.449
12166TIP3   OH236454   0.459   6.073   4.330
12166TIP3    H136455   0.388   6.046   4.389
12166TIP3    H236456   0.431   6.159   4.298
12167TIP3   OH236457   7.210   1.513   3.362
12167TIP3    H136458   7.121   1.494   3.393
12167TIP3    H236459   7.267   1.463   3.422
12168TIP3   OH236460   3.263   4.126   1.151
12168TIP3    H136461   3.339   4.089   1.195
12168TIP3    H236462   3.190   4.107   1.210
12169TIP3   OH236463   2.404   3.842   3.300
12169TIP3    H136464   2.382   3.856   3.208
12169TIP3    H236465   2.378   3.923   3.343
12170TIP3   OH236466   4.010   0.225   5.423
12170TIP3    H136467   3.915   0.214   5.427
12170TIP3    H236468   4.037   0.232   5.515
12171TIP3   OH236469   6.115   2.070   5.131
12171TIP3    H136470   6.037   2.022   5.104
12171TIP3    H236471   6.143   2.116   5.052
12172TIP3   OH236472   0.361   6.402   1.813
12172TIP3    H136473   0.432   6.344   1.786
12172TIP3    H236474   0.293   6.391   1.746
12173TIP3   OH236475   5.338   1.742   0.560
12173TIP3    H136476   5.417   1.734   0.506
12173TIP3    H236477   5.272   1.777   0.500
12174TIP3   OH236478   2.608   3.051   4.355
12174TIP3    H136479   2.546   3.123   4.350
12174TIP3    H236480   2.694   3.093   4.353
12175TIP3   OH236481   5.370   5.538   3.206
12175TIP3    H136482   5.432   5.488   3.259
12175TIP3    H236483   5.351   5.616   3.258
12176TIP3   OH236484   1.138   3.318   2.231
12176TIP3    H136485   1.163   3.394   2.179
12176TIP3    H236486   1.195   3.247   2.201
12177TIP3   OH236487   7.436   2.612   0.838
12177TIP3    H136488   7.452   2.521   0.861
12177TIP3    H236489   7.512   2.659   0.872
12178TIP3   OH236490   4.888   5.633   4.803
12178TIP3    H136491   4.926   5.713   4.838
12178TIP3    H236492   4.934   5.563   4.849
12179TIP3   OH236493   4.944   1.547   3.592
12179TIP3    H136494   4.924   1.611   3.660
12179TIP3    H236495   4.970   1.469   3.640
12180TIP3   OH236496   6.756   2.516   3.411
12180TIP3    H136497   6.827   2.452   3.404
12180TIP3    H236498   6.682   2.474   3.369
12181TIP3   OH236499   2.043   0.570   4.196
12181TIP3    H136500   2.109   0.589   4.263
12181TIP3    H236501   2.008   0.485   4.221
12182TIP3   OH236502   8.142   7.257   0.980
12182TIP3    H136503   8.193   7.258   0.899
12182TIP3    H236504   8.176   7.182   1.029
12183TIP3   OH236505   0.623   0.016   4.015
12183TIP3    H136506   0.627   0.018   3.919
12183TIP3    H236507   0.574   0.094   4.039
12184TIP3   OH236508   2.834   5.156   6.608
12184TIP3    H136509   2.825   5.249   6.587
12184TIP3    H236510   2.845   5.153   6.703
12185TIP3   OH236511   4.677   3.214   6.505
12185TIP3    H136512   4.583   3.216   6.520
12185TIP3    H236513   4.706   3.304   6.522
12186TIP3   OH236514   0.488   6.464   6.527
12186TIP3    H136515   0.555   6.495   6.466
12186TIP3    H236516   0.499   6.369   6.529
12187TIP3   OH236517   3.615   7.182   3.130
12187TIP3    H136518   3.527   7.212   3.153
12187TIP3    H236519   3.646   7.135   3.206
12188TIP3   OH236520   2.189   3.092   4.082
12188TIP3    H136521   2.216   3.163   4.024
12188TIP3    H236522   2.248   3.100   4.158
12189TIP3   OH236523   1.009   7.416   1.047
12189TIP3    H136524   1.105   7.413   1.046
12189TIP3    H236525   0.988   7.496   0.998
12190TIP3   OH236526   6.113   0.704   1.230
12190TIP3    H136527   6.154   0.623   1.199
12190TIP3    H236528   6.147   0.715   1.319
12191TIP3   OH236529   4.641   1.171   6.734
12191TIP3    H136530   4.639   1.152   6.641
12191TIP3    H236531   4.681   1.094   6.774
12192TIP3   OH236532   4.542   4.721   2.282
12192TIP3    H136533   4.529   4.724   2.376
12192TIP3    H236534   4.635   4.744   2.270
12193TIP3   OH236535   7.313   1.832   1.202
12193TIP3    H136536   7.223   1.821   1.173
12193TIP3    H236537   7.337   1.748   1.242
12194TIP3   OH236538   3.844   2.321   4.048
12194TIP3    H136539   3.784   2.396   4.055
12194TIP3    H236540   3.917   2.354   3.997
12195TIP3   OH236541   4.934   2.829   5.362
12195TIP3    H136542   4.839   2.836   5.372
12195TIP3    H236543   4.969   2.894   5.423
12196TIP3   OH236544   6.370   2.660   4.504
12196TIP3    H136545   6.424   2.733   4.473
12196TIP3    H236546   6.283   2.677   4.467
12197TIP3   OH236547   0.846   5.669   2.175
12197TIP3    H136548   0.900   5.600   2.137
12197TIP3    H236549   0.893   5.697   2.253
12198TIP3   OH236550   4.114   0.546   6.346
12198TIP3    H136551   4.026   0.517   6.370
12198TIP3    H236552   4.141   0.603   6.419
12199TIP3   OH236553   3.998   5.829   3.164
12199TIP3    H136554   3.911   5.829   3.203
12199TIP3    H236555   4.058   5.826   3.239
12200TIP3   OH236556   1.936   2.941   0.814
12200TIP3    H136557   1.878   3.005   0.855
12200TIP3    H236558   2.024   2.972   0.833
12201TIP3   OH236559   2.646   5.311   5.894
12201TIP3    H136560   2.688   5.368   5.958
12201TIP3    H236561   2.710   5.242   5.877
12202TIP3   OH236562   6.939   6.416   5.334
12202TIP3    H136563   6.848   6.437   5.355
12202TIP3    H236564   6.936   6.328   5.297
12203TIP3   OH236565   1.476   7.313   1.965
12203TIP3    H136566   1.461   7.360   1.883
12203TIP3    H236567   1.398   7.257   1.974
12204TIP3   OH236568   0.645   4.398   0.248
12204TIP3    H136569   0.652   4.467   0.314
12204TIP3    H236570   0.708   4.423   0.181
12205TIP3   OH236571   7.725   5.098   6.047
12205TIP3    H136572   7.803   5.058   6.009
12205TIP3    H236573   7.750   5.120   6.137
12206TIP3   OH236574   6.806   3.561   3.339
12206TIP3    H136575   6.796   3.481   3.391
12206TIP3    H236576   6.797   3.531   3.248
12207TIP3   OH236577   3.834   2.542   2.727
12207TIP3    H136578   3.866   2.501   2.646
12207TIP3    H236579   3.859   2.634   2.719
12208TIP3   OH236580   4.856   7.329   6.332
12208TIP3    H136581   4.869   7.270   6.407
12208TIP3    H236582   4.786   7.388   6.360
12209TIP3   OH236583   1.674   7.052   3.026
12209TIP3    H136584   1.759   7.037   2.985
12209TIP3    H236585   1.610   7.030   2.958
12210TIP3   OH236586   2.022   0.247   2.901
12210TIP3    H136587   1.966   0.170   2.892
12210TIP3    H236588   2.081   0.226   2.973
12211TIP3   OH236589   2.667   3.555   1.239
12211TIP3    H136590   2.623   3.474   1.215
12211TIP3    H236591   2.599   3.622   1.234
12212TIP3   OH236592   2.630   2.128   6.102
12212TIP3    H136593   2.552   2.147   6.048
12212TIP3    H236594   2.642   2.034   6.094
12213TIP3   OH236595   1.663   7.394   2.537
12213TIP3    H136596   1.612   7.316   2.516
12213TIP3    H236597   1.643   7.456   2.466
12214TIP3   OH236598   7.037   2.784   2.986
12214TIP3    H136599   7.119   2.833   2.995
12214TIP3    H236600   7.001   2.813   2.902
12215TIP3   OH236601   3.839   5.403   5.195
12215TIP3    H136602   3.812   5.331   5.251
12215TIP3    H236603   3.779   5.474   5.216
12216TIP3   OH236604   4.027   5.646   0.538
12216TIP3    H136605   4.056   5.563   0.575
12216TIP3    H236606   4.071   5.651   0.453
12217TIP3   OH236607   7.920   0.516   4.725
12217TIP3    H136608   7.840   0.569   4.721
12217TIP3    H236609   7.983   0.571   4.773
12218TIP3   OH236610   8.063   7.687   4.280
12218TIP3    H136611   8.062   7.776   4.315
12218TIP3    H236612   7.973   7.672   4.250
12219TIP3   OH236613   3.792   3.199   5.642
12219TIP3    H136614   3.723   3.154   5.592
12219TIP3    H236615   3.811   3.278   5.592
12220TIP3   OH236616   3.073   5.423   2.456
12220TIP3    H136617   3.049   5.487   2.522
12220TIP3    H236618   3.032   5.341   2.485
12221TIP3   OH236619   5.334   6.019   0.818
12221TIP3    H136620   5.399   5.948   0.817
12221TIP3    H236621   5.368   6.081   0.882
12222TIP3   OH236622   7.973   6.691   5.844
12222TIP3    H136623   8.009   6.778   5.827
12222TIP3    H236624   8.019   6.661   5.922
12223TIP3   OH236625   3.079   7.089   3.482
12223TIP3    H136626   2.995   7.075   3.525
12223TIP3    H236627   3.057   7.130   3.399
12224TIP3   OH236628   7.629   1.280   1.641
12224TIP3    H136629   7.553   1.232   1.608
12224TIP3    H236630   7.600   1.371   1.645
12225TIP3   OH236631   5.724   2.894   2.849
12225TIP3    H136632   5.676   2.870   2.770
12225TIP3    H236633   5.772   2.814   2.873
12226TIP3   OH236634   3.050   1.024   0.815
12226TIP3    H136635   3.139   0.987   0.811
12226TIP3    H236636   3.024   1.015   0.907
12227TIP3   OH236637   3.727   6.877   3.556
12227TIP3    H136638   3.808   6.917   3.523
12227TIP3    H236639   3.757   6.809   3.616
12228TIP3   OH236640   2.711   1.604   1.388
12228TIP3    H136641   2.691   1.621   1.480
12228TIP3    H236642   2.626   1.592   1.347
12229TIP3   OH236643   6.474   5.239   4.169
12229TIP3    H136644   6.427   5.321   4.186
12229TIP3    H236645   6.506   5.249   4.079
12230TIP3   OH236646   2.012   3.352   2.133
12230TIP3    H136647   1.918   3.358   2.153
12230TIP3    H236648   2.049   3.303   2.206
12231TIP3   OH236649   2.526   4.146   2.351
12231TIP3    H136650   2.432   4.132   2.336
12231TIP3    H236651   2.567   4.129   2.266
12232TIP3   OH236652   8.202   2.416   5.105
12232TIP3    H136653   8.262   2.436   5.033
12232TIP3    H236654   8.159   2.499   5.125
12233TIP3   OH236655   5.117   7.630   1.016
12233TIP3    H136656   5.156   7.697   1.072
12233TIP3    H236657   5.024   7.631   1.038
12234TIP3   OH236658   2.131   1.919   0.984
12234TIP3    H136659   2.135   1.853   0.915
12234TIP3    H236660   2.220   1.953   0.990
12235TIP3   OH236661   7.307   5.356   0.978
12235TIP3    H136662   7.317   5.280   1.035
12235TIP3    H236663   7.269   5.423   1.034
12236TIP3   OH236664   6.586   0.456   1.498
12236TIP3    H136665   6.554   0.446   1.587
12236TIP3    H236666   6.650   0.385   1.487
12237TIP3   OH236667   1.871   0.301   1.937
12237TIP3    H136668   1.923   0.222   1.948
12237TIP3    H236669   1.882   0.325   1.845
12238TIP3   OH236670   5.975   6.766   3.107
12238TIP3    H136671   5.974   6.820   3.187
12238TIP3    H236672   6.033   6.693   3.129
12239TIP3   OH236673   3.112   1.921   0.239
12239TIP3    H136674   3.079   1.857   0.176
12239TIP3    H236675   3.121   2.001   0.189
12240TIP3   OH236676   0.211   3.443   3.946
12240TIP3    H136677   0.289   3.438   4.001
12240TIP3    H236678   0.184   3.351   3.934
12241TIP3   OH236679   1.488   4.212   4.776
12241TIP3    H136680   1.565   4.266   4.791
12241TIP3    H236681   1.519   4.122   4.783
12242TIP3   OH236682   6.863   7.691   0.612
12242TIP3    H136683   6.936   7.658   0.664
12242TIP3    H236684   6.826   7.613   0.571
12243TIP3   OH236685   8.256   7.710   4.639
12243TIP3    H136686   8.288   7.800   4.633
12243TIP3    H236687   8.281   7.670   4.555
12244TIP3   OH236688   3.352   4.731   3.743
12244TIP3    H136689   3.339   4.736   3.648
12244TIP3    H236690   3.265   4.712   3.778
12245TIP3   OH236691   6.168   0.699   4.040
12245TIP3    H136692   6.107   0.768   4.068
12245TIP3    H236693   6.213   0.736   3.965
12246TIP3   OH236694   1.744   4.957   3.508
12246TIP3    H136695   1.695   5.038   3.496
12246TIP3    H236696   1.680   4.894   3.538
12247TIP3   OH236697   8.183   4.288   0.342
12247TIP3    H136698   8.225   4.359   0.294
12247TIP3    H236699   8.114   4.256   0.283
12248TIP3   OH236700   0.968   4.572   4.916
12248TIP3    H136701   1.030   4.546   4.848
12248TIP3    H236702   0.902   4.502   4.916
12249TIP3   OH236703   1.213   3.008   5.115
12249TIP3    H136704   1.132   3.027   5.066
12249TIP3    H236705   1.189   2.936   5.173
12250TIP3   OH236706   5.352   5.059   5.691
12250TIP3    H136707   5.383   5.116   5.621
12250TIP3    H236708   5.257   5.061   5.683
12251TIP3   OH236709   7.527   5.281   3.612
12251TIP3    H136710   7.554   5.206   3.560
12251TIP3    H236711   7.533   5.250   3.703
12252TIP3   OH236712   1.924   2.482   0.741
12252TIP3    H136713   2.002   2.435   0.769
12252TIP3    H236714   1.921   2.560   0.797
12253TIP3   OH236715   6.235   2.629   4.211
12253TIP3    H136716   6.180   2.694   4.255
12253TIP3    H236717   6.174   2.562   4.181
12254TIP3   OH236718   3.833   5.148   0.700
12254TIP3    H136719   3.854   5.070   0.649
12254TIP3    H236720   3.738   5.145   0.709
12255TIP3   OH236721   0.029   2.469   6.089
12255TIP3    H136722   0.020   2.398   6.026
12255TIP3    H236723   0.069   2.429   6.165
12256TIP3   OH236724   4.400   7.136   6.682
12256TIP3    H136725   4.437   7.063   6.633
12256TIP3    H236726   4.311   7.146   6.647
12257TIP3   OH236727   2.143   7.228   4.365
12257TIP3    H136728   2.204   7.264   4.430
12257TIP3    H236729   2.189   7.238   4.281
12258TIP3   OH236730   1.845   6.071   5.510
12258TIP3    H136731   1.911   6.006   5.535
12258TIP3    H236732   1.866   6.148   5.562
12259TIP3   OH236733   8.256   0.514   4.086
12259TIP3    H136734   8.342   0.518   4.045
12259TIP3    H236735   8.235   0.604   4.109
12260TIP3   OH236736   2.106   5.968   2.290
12260TIP3    H136737   2.025   5.974   2.240
12260TIP3    H236738   2.127   6.059   2.313
12261TIP3   OH236739   4.471   1.846   3.744
12261TIP3    H136740   4.423   1.778   3.790
12261TIP3    H236741   4.410   1.920   3.741
12262TIP3   OH236742   1.215   1.404   6.657
12262TIP3    H136743   1.178   1.467   6.720
12262TIP3    H236744   1.146   1.393   6.592
12263TIP3   OH236745   7.631   0.035   1.714
12263TIP3    H136746   7.694   0.086   1.764
12263TIP3    H236747   7.650   0.058   1.623
12264TIP3   OH236748   2.801   6.545   0.563
12264TIP3    H136749   2.834   6.455   0.556
12264TIP3    H236750   2.829   6.574   0.650
12265TIP3   OH236751   7.246   3.490   1.495
12265TIP3    H136752   7.220   3.548   1.423
12265TIP3    H236753   7.223   3.402   1.464
12266TIP3   OH236754   4.308   2.847   4.097
12266TIP3    H136755   4.307   2.778   4.030
12266TIP3    H236756   4.339   2.924   4.051
12267TIP3   OH236757   3.073   3.064   5.294
12267TIP3    H136758   3.119   3.001   5.350
12267TIP3    H236759   3.057   3.016   5.213
12268TIP3   OH236760   6.941   1.114   5.179
12268TIP3    H136761   6.891   1.095   5.258
12268TIP3    H236762   6.986   1.196   5.197
12269TIP3   OH236763   7.530   4.629   4.699
12269TIP3    H136764   7.516   4.666   4.786
12269TIP3    H236765   7.470   4.677   4.643
12270TIP3   OH236766   0.344   3.971   2.500
12270TIP3    H136767   0.351   4.066   2.490
12270TIP3    H236768   0.418   3.947   2.556
12271TIP3   OH236769   1.794   4.789   5.985
12271TIP3    H136770   1.763   4.700   5.999
12271TIP3    H236771   1.849   4.783   5.907
12272TIP3   OH236772   5.184   0.577   1.678
12272TIP3    H136773   5.133   0.546   1.752
12272TIP3    H236774   5.272   0.593   1.714
12273TIP3   OH236775   0.200   2.075   6.269
12273TIP3    H136776   0.202   2.046   6.177
12273TIP3    H236777   0.113   2.115   6.279
12274TIP3   OH236778   2.015   1.429   5.196
12274TIP3    H136779   1.990   1.352   5.144
12274TIP3    H236780   2.040   1.394   5.281
12275TIP3   OH236781   6.155   1.885   1.218
12275TIP3    H136782   6.227   1.945   1.206
12275TIP3    H236783   6.123   1.903   1.307
12276TIP3   OH236784   0.357   2.161   6.491
12276TIP3    H136785   0.318   2.146   6.405
12276TIP3    H236786   0.287   2.201   6.542
12277TIP3   OH236787   5.681   0.924   3.193
12277TIP3    H136788   5.633   0.847   3.160
12277TIP3    H236789   5.698   0.977   3.115
12278TIP3   OH236790   5.702   5.589   2.437
12278TIP3    H136791   5.709   5.573   2.343
12278TIP3    H236792   5.766   5.530   2.477
12279TIP3   OH236793   4.578   3.079  -0.017
12279TIP3    H136794   4.617   3.165  -0.032
12279TIP3    H236795   4.653   3.019  -0.014
12280TIP3   OH236796   6.485   6.971   0.286
12280TIP3    H136797   6.515   7.057   0.255
12280TIP3    H236798   6.523   6.963   0.373
12281TIP3   OH236799   4.506   3.522   1.351
12281TIP3    H136800   4.519   3.536   1.445
12281TIP3    H236801   4.434   3.459   1.346
12282TIP3   OH236802   3.980   1.457   6.147
12282TIP3    H136803   3.919   1.433   6.077
12282TIP3    H236804   4.038   1.522   6.108
12283TIP3   OH236805   0.358   6.173   4.755
12283TIP3    H136806   0.321   6.197   4.670
12283TIP3    H236807   0.328   6.084   4.770
12284TIP3   OH236808   6.529   5.608   6.708
12284TIP3    H136809   6.616   5.606   6.668
12284TIP3    H236810   6.476   5.549   6.655
12285TIP3   OH236811   7.891   0.501   1.192
12285TIP3    H136812   7.905   0.480   1.099
12285TIP3    H236813   7.979   0.513   1.227
12286TIP3   OH236814   4.336   4.044   3.989
12286TIP3    H136815   4.343   3.992   3.909
12286TIP3    H236816   4.343   4.135   3.959
12287TIP3   OH236817   4.015   3.490   5.333
12287TIP3    H136818   3.922   3.487   5.357
12287TIP3    H236819   4.054   3.545   5.400
12288TIP3   OH236820   1.226   2.455   2.365
12288TIP3    H136821   1.191   2.535   2.404
12288TIP3    H236822   1.306   2.483   2.320
12289TIP3   OH236823   2.330   0.603   2.185
12289TIP3    H136824   2.285   0.525   2.218
12289TIP3    H236825   2.399   0.620   2.248
12290TIP3   OH236826   5.319   4.723   0.430
12290TIP3    H136827   5.397   4.693   0.384
12290TIP3    H236828   5.267   4.644   0.444
12291TIP3   OH236829   1.678   2.700   0.920
12291TIP3    H136830   1.650   2.622   0.871
12291TIP3    H236831   1.604   2.760   0.913
12292TIP3   OH236832   2.760   4.100   0.834
12292TIP3    H136833   2.848   4.084   0.800
12292TIP3    H236834   2.730   4.178   0.786
12293TIP3   OH236835   2.040   6.140   1.879
12293TIP3    H136836   2.118   6.106   1.924
12293TIP3    H236837   2.051   6.112   1.788
12294TIP3   OH236838   3.256   7.310   2.038
12294TIP3    H136839   3.188   7.377   2.035
12294TIP3    H236840   3.316   7.340   2.107
12295TIP3   OH236841   7.767   7.198   5.650
12295TIP3    H136842   7.757   7.290   5.675
12295TIP3    H236843   7.741   7.149   5.728
12296TIP3   OH236844   7.644   5.957   5.206
12296TIP3    H136845   7.625   6.014   5.131
12296TIP3    H236846   7.566   5.963   5.261
12297TIP3   OH236847   4.194   6.878   4.990
12297TIP3    H136848   4.288   6.878   4.975
12297TIP3    H236849   4.178   6.807   5.051
12298TIP3   OH236850   4.725   1.687   5.351
12298TIP3    H136851   4.767   1.752   5.296
12298TIP3    H236852   4.696   1.736   5.428
12299TIP3   OH236853   4.839   3.429   0.705
12299TIP3    H136854   4.919   3.482   0.694
12299TIP3    H236855   4.817   3.401   0.616
12300TIP3   OH236856   6.664   5.675   3.400
12300TIP3    H136857   6.663   5.765   3.369
12300TIP3    H236858   6.715   5.627   3.334
12301TIP3   OH236859   4.115   0.041   0.693
12301TIP3    H136860   4.186  -0.020   0.712
12301TIP3    H236861   4.156   0.127   0.689
12302TIP3   OH236862   7.554   3.572   5.374
12302TIP3    H136863   7.538   3.513   5.448
12302TIP3    H236864   7.642   3.550   5.344
12303TIP3   OH236865   6.572   6.692   0.023
12303TIP3    H136866   6.610   6.756  -0.036
12303TIP3    H236867   6.601   6.720   0.110
12304TIP3   OH236868   4.126   0.185   6.380
12304TIP3    H136869   4.046   0.136   6.396
12304TIP3    H236870   4.154   0.215   6.467
12305TIP3   OH236871   0.995   0.771   4.962
12305TIP3    H136872   0.963   0.743   4.877
12305TIP3    H236873   1.058   0.704   4.988
12306TIP3   OH236874   0.114   7.536   3.531
12306TIP3    H136875   0.160   7.557   3.449
12306TIP3    H236876   0.066   7.455   3.511
12307TIP3   OH236877   0.225   3.517  -0.014
12307TIP3    H136878   0.144   3.478  -0.047
12307TIP3    H236879   0.248   3.464   0.062
12308TIP3   OH236880   4.511   1.808   2.429
12308TIP3    H136881   4.557   1.870   2.372
12308TIP3    H236882   4.514   1.848   2.516
12309TIP3   OH236883   5.067   1.938   0.899
12309TIP3    H136884   5.125   1.978   0.834
12309TIP3    H236885   4.996   2.002   0.909
12310TIP3   OH236886   5.768   1.223   1.628
12310TIP3    H136887   5.697   1.270   1.672
12310TIP3    H236888   5.751   1.235   1.535
12311TIP3   OH236889   4.787   3.774   5.828
12311TIP3    H136890   4.854   3.788   5.761
12311TIP3    H236891   4.729   3.850   5.820
12312TIP3   OH236892   6.804   6.316   6.339
12312TIP3    H136893   6.793   6.348   6.428
12312TIP3    H236894   6.817   6.395   6.286
12313TIP3   OH236895   3.545   3.628   5.089
12313TIP3    H136896   3.548   3.533   5.094
12313TIP3    H236897   3.454   3.650   5.111
12314TIP3   OH236898   4.350   3.399   0.264
12314TIP3    H136899   4.354   3.309   0.299
12314TIP3    H236900   4.307   3.449   0.333
12315TIP3   OH236901   7.907   6.576   6.170
12315TIP3    H136902   7.991   6.583   6.126
12315TIP3    H236903   7.842   6.588   6.101
12316TIP3   OH236904   2.188   1.377   5.445
12316TIP3    H136905   2.282   1.389   5.430
12316TIP3    H236906   2.181   1.296   5.494
12317TIP3   OH236907   7.910   4.527   2.681
12317TIP3    H136908   7.816   4.539   2.665
12317TIP3    H236909   7.935   4.602   2.735
12318TIP3   OH236910   0.251   1.062   6.747
12318TIP3    H136911   0.291   1.145   6.723
12318TIP3    H236912   0.313   0.995   6.718
12319TIP3   OH236913   0.356   2.600   3.006
12319TIP3    H136914   0.423   2.561   3.063
12319TIP3    H236915   0.289   2.632   3.067
12320TIP3   OH236916   1.868   2.485   1.133
12320TIP3    H136917   1.797   2.445   1.083
12320TIP3    H236918   1.889   2.566   1.085
12321TIP3   OH236919   7.161   5.324   5.878
12321TIP3    H136920   7.198   5.406   5.846
12321TIP3    H236921   7.225   5.258   5.853
12322TIP3   OH236922   5.681   3.677   4.133
12322TIP3    H136923   5.683   3.737   4.208
12322TIP3    H236924   5.738   3.605   4.158
12323TIP3   OH236925   6.285   6.647   4.734
12323TIP3    H136926   6.297   6.621   4.643
12323TIP3    H236927   6.364   6.617   4.779
12324TIP3   OH236928   3.849   4.374   0.175
12324TIP3    H136929   3.892   4.380   0.090
12324TIP3    H236930   3.776   4.313   0.161
12325TIP3   OH236931   5.487   6.403   2.639
12325TIP3    H136932   5.450   6.364   2.560
12325TIP3    H236933   5.453   6.349   2.710
12326TIP3   OH236934   5.696   6.328   1.612
12326TIP3    H136935   5.773   6.336   1.669
12326TIP3    H236936   5.675   6.418   1.587
12327TIP3   OH236937   3.586   3.726   2.186
12327TIP3    H136938   3.644   3.680   2.125
12327TIP3    H236939   3.644   3.761   2.253
12328TIP3   OH236940   0.980   1.675   0.219
12328TIP3    H136941   0.999   1.699   0.128
12328TIP3    H236942   1.032   1.597   0.235
12329TIP3   OH236943   6.242   5.479   3.046
12329TIP3    H136944   6.309   5.493   2.979
12329TIP3    H236945   6.244   5.559   3.099
12330TIP3   OH236946   8.129   3.097   3.972
12330TIP3    H136947   8.122   3.002   3.983
12330TIP3    H236948   8.089   3.134   4.050
12331TIP3   OH236949   4.729   1.085   2.374
12331TIP3    H136950   4.714   1.017   2.308
12331TIP3    H236951   4.747   1.036   2.455
12332TIP3   OH236952   1.848   6.827   3.649
12332TIP3    H136953   1.841   6.793   3.738
12332TIP3    H236954   1.763   6.807   3.609
12333TIP3   OH236955   2.990   2.218   6.319
12333TIP3    H136956   2.933   2.170   6.258
12333TIP3    H236957   3.066   2.242   6.266
12334TIP3   OH236958   7.831   3.370   3.130
12334TIP3    H136959   7.793   3.341   3.213
12334TIP3    H236960   7.764   3.349   3.064
12335TIP3   OH236961   8.164   6.680   0.068
12335TIP3    H136962   8.130   6.747   0.008
12335TIP3    H236963   8.259   6.693   0.066
12336TIP3   OH236964   0.877   2.112   6.432
12336TIP3    H136965   0.929   2.033   6.442
12336TIP3    H236966   0.804   2.087   6.376
12337TIP3   OH236967   5.253   0.900   5.860
12337TIP3    H136968   5.202   0.848   5.798
12337TIP3    H236969   5.271   0.982   5.814
12338TIP3   OH236970   6.138   2.255   1.648
12338TIP3    H136971   6.149   2.163   1.671
12338TIP3    H236972   6.099   2.253   1.560
12339TIP3   OH236973   4.977   3.426   4.362
12339TIP3    H136974   5.019   3.466   4.286
12339TIP3    H236975   5.027   3.346   4.379
12340TIP3   OH236976   6.913   4.508   1.609
12340TIP3    H136977   6.865   4.428   1.588
12340TIP3    H236978   6.861   4.578   1.570
12341TIP3   OH236979   0.680   7.016   0.487
12341TIP3    H136980   0.628   7.043   0.562
12341TIP3    H236981   0.686   7.094   0.432
12342TIP3   OH236982   1.424   7.242   0.947
12342TIP3    H136983   1.347   7.294   0.970
12342TIP3    H236984   1.390   7.154   0.928
12343TIP3   OH236985   4.935   0.382   4.319
12343TIP3    H136986   4.897   0.425   4.242
12343TIP3    H236987   4.859   0.348   4.366
12344TIP3   OH236988   8.176   4.631   2.128
12344TIP3    H136989   8.198   4.541   2.152
12344TIP3    H236990   8.220   4.685   2.194
12345TIP3   OH236991   1.876   1.565   0.078
12345TIP3    H136992   1.962   1.547   0.116
12345TIP3    H236993   1.884   1.653   0.041
12346TIP3   OH236994   8.156   6.956   5.724
12346TIP3    H136995   8.208   7.023   5.768
12346TIP3    H236996   8.215   6.881   5.718
12347TIP3   OH236997   7.567   2.503   1.453
12347TIP3    H136998   7.662   2.515   1.447
12347TIP3    H236999   7.540   2.568   1.518
12348TIP3   OH237000   4.054   1.649   1.438
12348TIP3    H137001   4.146   1.677   1.434
12348TIP3    H237002   4.015   1.704   1.505
12349TIP3   OH237003   6.740   4.248   4.594
12349TIP3    H137004   6.814   4.238   4.534
12349TIP3    H237005   6.715   4.340   4.585
12350TIP3   OH237006   7.948   6.379   5.160
12350TIP3    H137007   7.864   6.337   5.143
12350TIP3    H237008   7.971   6.420   5.076
12351TIP3   OH237009   1.703   3.686   3.091
12351TIP3    H137010   1.789   3.659   3.125
12351TIP3    H237011   1.649   3.607   3.099
12352TIP3   OH237012   4.851   7.347   2.483
12352TIP3    H137013   4.860   7.443   2.486
12352TIP3    H237014   4.844   7.321   2.575
12353TIP3   OH237015   3.044   1.107   4.156
12353TIP3    H137016   2.996   1.045   4.211
12353TIP3    H237017   3.049   1.187   4.209
12354TIP3   OH237018   7.496   7.527   1.282
12354TIP3    H137019   7.576   7.523   1.230
12354TIP3    H237020   7.518   7.480   1.363
12355TIP3   OH237021   6.659   2.291   2.434
12355TIP3    H137022   6.617   2.215   2.473
12355TIP3    H237023   6.610   2.366   2.467
12356TIP3   OH237024   8.129   2.221   5.332
12356TIP3    H137025   8.050   2.183   5.371
12356TIP3    H237026   8.097   2.283   5.267
12357TIP3   OH237027   3.854   1.093   2.402
12357TIP3    H137028   3.949   1.089   2.407
12357TIP3    H237029   3.836   1.164   2.341
12358TIP3   OH237030   5.105   4.176   5.681
12358TIP3    H137031   5.097   4.150   5.772
12358TIP3    H237032   5.014   4.187   5.652
12359TIP3   OH237033   1.606   6.971   4.862
12359TIP3    H137034   1.524   7.004   4.899
12359TIP3    H237035   1.672   7.037   4.887
12360TIP3   OH237036   1.778   3.383   3.510
12360TIP3    H137037   1.752   3.299   3.473
12360TIP3    H237038   1.850   3.362   3.570
12361TIP3   OH237039   7.114   2.579   1.772
12361TIP3    H137040   7.196   2.582   1.821
12361TIP3    H237041   7.047   2.568   1.840
12362TIP3   OH237042   2.430   0.404   2.673
12362TIP3    H137043   2.523   0.410   2.693
12362TIP3    H237044   2.391   0.369   2.753
12363TIP3   OH237045   0.271   2.852   0.911
12363TIP3    H137046   0.176   2.853   0.899
12363TIP3    H237047   0.284   2.846   1.005
12364TIP3   OH237048   6.222   0.439   4.679
12364TIP3    H137049   6.311   0.456   4.708
12364TIP3    H237050   6.206   0.503   4.610
12365TIP3   OH237051   7.958   0.303   2.106
12365TIP3    H137052   7.942   0.398   2.101
12365TIP3    H237053   8.050   0.293   2.084
12366TIP3   OH237054   2.334   6.272   0.889
12366TIP3    H137055   2.419   6.233   0.867
12366TIP3    H237056   2.312   6.234   0.974
12367TIP3   OH237057   6.896   6.259   5.936
12367TIP3    H137058   6.853   6.214   6.009
12367TIP3    H237059   6.977   6.293   5.974
12368TIP3   OH237060   3.208   3.842   1.152
12368TIP3    H137061   3.208   3.821   1.245
12368TIP3    H237062   3.229   3.935   1.149
12369TIP3   OH237063   5.504   3.844   0.827
12369TIP3    H137064   5.468   3.756   0.828
12369TIP3    H237065   5.431   3.899   0.798
12370TIP3   OH237066   7.517   1.597   4.566
12370TIP3    H137067   7.541   1.617   4.657
12370TIP3    H237068   7.585   1.638   4.513
12371TIP3   OH237069   0.570   7.118   3.518
12371TIP3    H137070   0.531   7.049   3.571
12371TIP3    H237071   0.511   7.128   3.443
12372TIP3   OH237072   1.116   4.374   1.344
12372TIP3    H137073   1.125   4.280   1.355
12372TIP3    H237074   1.161   4.412   1.420
12373TIP3   OH237075   3.464   1.152   1.794
12373TIP3    H137076   3.409   1.089   1.748
12373TIP3    H237077   3.495   1.104   1.871
12374TIP3   OH237078   0.287   5.709   3.363
12374TIP3    H137079   0.317   5.621   3.385
12374TIP3    H237080   0.247   5.700   3.276
12375TIP3   OH237081   0.797   1.280   0.342
12375TIP3    H137082   0.808   1.371   0.314
12375TIP3    H237083   0.833   1.277   0.430
12376TIP3   OH237084   7.993   6.575   2.280
12376TIP3    H137085   8.068   6.619   2.241
12376TIP3    H237086   8.031   6.499   2.325
12377TIP3   OH237087   0.061   7.783   1.460
12377TIP3    H137088  -0.007   7.846   1.482
12377TIP3    H237089   0.093   7.810   1.374
12378TIP3   OH237090   0.862   3.045   0.056
12378TIP3    H137091   0.784   3.003   0.018
12378TIP3    H237092   0.914   3.072  -0.019
12379TIP3   OH237093   0.629   5.481   3.705
12379TIP3    H137094   0.623   5.423   3.782
12379TIP3    H237095   0.702   5.445   3.654
12380TIP3   OH237096   3.993   7.462   3.469
12380TIP3    H137097   3.943   7.542   3.455
12380TIP3    H237098   4.056   7.485   3.537
12381TIP3   OH237099   3.765   1.367   4.132
12381TIP3    H137100   3.671   1.364   4.150
12381TIP3    H237101   3.802   1.412   4.208
12382TIP3   OH237102   7.173   1.539   6.466
12382TIP3    H137103   7.135   1.624   6.488
12382TIP3    H237104   7.257   1.538   6.512
12383TIP3   OH237105   5.942   4.744   6.196
12383TIP3    H137106   5.984   4.745   6.110
12383TIP3    H237107   5.869   4.805   6.187
12384TIP3   OH237108   5.909   4.748   4.537
12384TIP3    H137109   5.992   4.795   4.536
12384TIP3    H237110   5.854   4.797   4.475
12385TIP3   OH237111   4.191   6.586   6.034
12385TIP3    H137112   4.210   6.516   5.972
12385TIP3    H237113   4.237   6.561   6.114
12386TIP3   OH237114   2.542   1.716   5.750
12386TIP3    H137115   2.581   1.649   5.693
12386TIP3    H237116   2.588   1.707   5.833
12387TIP3   OH237117   7.230   2.476   4.212
12387TIP3    H137118   7.255   2.405   4.152
12387TIP3    H237119   7.146   2.508   4.178
12388TIP3   OH237120   3.031   2.280   4.659
12388TIP3    H137121   3.014   2.321   4.574
12388TIP3    H237122   2.956   2.306   4.713
12389TIP3   OH237123   1.915   6.234   0.366
12389TIP3    H137124   1.883   6.222   0.456
12389TIP3    H237125   1.851   6.188   0.311
12390TIP3   OH237126   4.199   7.149   4.609
12390TIP3    H137127   4.118   7.183   4.571
12390TIP3    H237128   4.192   7.167   4.702
12391TIP3   OH237129   3.276   5.808   1.741
12391TIP3    H137130   3.273   5.799   1.836
12391TIP3    H237131   3.199   5.760   1.710
12392TIP3   OH237132   5.952  -0.022   0.280
12392TIP3    H137133   5.885  -0.065   0.227
12392TIP3    H237134   6.033  -0.033   0.230
12393TIP3   OH237135   7.280   6.441   4.062
12393TIP3    H137136   7.192   6.477   4.079
12393TIP3    H237137   7.333   6.518   4.043
12394TIP3   OH237138   2.109   4.279   3.180
12394TIP3    H137139   2.139   4.341   3.247
12394TIP3    H237140   2.026   4.316   3.149
12395TIP3   OH237141   3.334   5.109   5.338
12395TIP3    H137142   3.406   5.051   5.312
12395TIP3    H237143   3.281   5.118   5.259
12396TIP3   OH237144   2.635   4.374   5.484
12396TIP3    H137145   2.697   4.444   5.466
12396TIP3    H237146   2.681   4.294   5.459
12397TIP3   OH237147   4.827   4.612   4.645
12397TIP3    H137148   4.773   4.597   4.567
12397TIP3    H237149   4.844   4.706   4.644
12398TIP3   OH237150   5.321   1.092   5.660
12398TIP3    H137151   5.336   1.015   5.605
12398TIP3    H237152   5.408   1.130   5.671
12399TIP3   OH237153   7.123   6.732   2.244
12399TIP3    H137154   7.193   6.758   2.183
12399TIP3    H237155   7.073   6.813   2.259
12400TIP3   OH237156   7.727   7.457   5.710
12400TIP3    H137157   7.778   7.477   5.631
12400TIP3    H237158   7.653   7.518   5.706
12401TIP3   OH237159   7.107   5.818   6.336
12401TIP3    H137160   7.179   5.832   6.398
12401TIP3    H237161   7.139   5.751   6.276
12402TIP3   OH237162   4.056   2.039   0.551
12402TIP3    H137163   3.991   2.081   0.606
12402TIP3    H237164   4.035   2.069   0.462
12403TIP3   OH237165   5.611   7.118   5.369
12403TIP3    H137166   5.525   7.161   5.370
12403TIP3    H237167   5.621   7.083   5.458
12404TIP3   OH237168   5.125   3.543   0.979
12404TIP3    H137169   5.211   3.520   1.014
12404TIP3    H237170   5.063   3.494   1.034
12405TIP3   OH237171   5.251   4.228   3.263
12405TIP3    H137172   5.228   4.220   3.170
12405TIP3    H237173   5.172   4.262   3.305
12406TIP3   OH237174   1.750   7.620   0.938
12406TIP3    H137175   1.833   7.590   0.975
12406TIP3    H237176   1.700   7.540   0.921
12407TIP3   OH237177   1.942   7.074   4.427
12407TIP3    H137178   2.015   7.135   4.413
12407TIP3    H237179   1.971   7.017   4.498
12408TIP3   OH237180   1.252   0.300   3.567
12408TIP3    H137181   1.166   0.262   3.551
12408TIP3    H237182   1.239   0.356   3.644
12409TIP3   OH237183   4.257   1.118   5.538
12409TIP3    H137184   4.260   1.087   5.629
12409TIP3    H237185   4.344   1.153   5.523
12410TIP3   OH237186   6.518   5.252   2.996
12410TIP3    H137187   6.602   5.230   2.956
12410TIP3    H237188   6.541   5.302   3.074
12411TIP3   OH237189   2.344   7.365   6.141
12411TIP3    H137190   2.260   7.335   6.176
12411TIP3    H237191   2.327   7.455   6.112
12412TIP3   OH237192   4.427   7.331   1.540
12412TIP3    H137193   4.462   7.316   1.453
12412TIP3    H237194   4.403   7.245   1.573
12413TIP3   OH237195   4.708   3.587   0.244
12413TIP3    H137196   4.768   3.527   0.289
12413TIP3    H237197   4.647   3.530   0.198
12414TIP3   OH237198   3.345   4.710   1.979
12414TIP3    H137199   3.280   4.773   2.010
12414TIP3    H237200   3.425   4.735   2.023
12415TIP3   OH237201   5.224   0.365   1.263
12415TIP3    H137202   5.145   0.334   1.219
12415TIP3    H237203   5.221   0.324   1.350
12416TIP3   OH237204   7.371   0.817   4.111
12416TIP3    H137205   7.441   0.875   4.081
12416TIP3    H237206   7.291   0.854   4.073
12417TIP3   OH237207   3.727   6.987   5.352
12417TIP3    H137208   3.726   6.945   5.438
12417TIP3    H237209   3.635   6.990   5.326
12418TIP3   OH237210   3.728   7.200   1.340
12418TIP3    H137211   3.738   7.169   1.430
12418TIP3    H237212   3.774   7.284   1.339
12419TIP3   OH237213   5.339   0.574   5.190
12419TIP3    H137214   5.433   0.564   5.204
12419TIP3    H237215   5.317   0.657   5.233
12420TIP3   OH237216   7.518   0.090   4.709
12420TIP3    H137217   7.511   0.074   4.803
12420TIP3    H237218   7.500   0.184   4.699
12421TIP3   OH237219   2.814   4.748   3.862
12421TIP3    H137220   2.897   4.778   3.826
12421TIP3    H237221   2.754   4.821   3.847
12422TIP3   OH237222   1.415   0.601   2.434
12422TIP3    H137223   1.418   0.556   2.518
12422TIP3    H237224   1.382   0.689   2.455
12423TIP3   OH237225   1.394   2.532   0.533
12423TIP3    H137226   1.331   2.462   0.518
12423TIP3    H237227   1.474   2.486   0.560
12424TIP3   OH237228   2.551   3.868   5.744
12424TIP3    H137229   2.532   3.954   5.707
12424TIP3    H237230   2.520   3.806   5.678
12425TIP3   OH237231   1.905   5.860   5.191
12425TIP3    H137232   1.915   5.782   5.137
12425TIP3    H237233   1.984   5.911   5.173
12426TIP3   OH237234   7.988   0.739   0.578
12426TIP3    H137235   7.985   0.654   0.533
12426TIP3    H237236   7.915   0.788   0.540
12427TIP3   OH237237   0.257   6.214   5.867
12427TIP3    H137238   0.331   6.209   5.806
12427TIP3    H237239   0.285   6.276   5.934
12428TIP3   OH237240   3.747   1.177   3.041
12428TIP3    H137241   3.714   1.109   2.982
12428TIP3    H237242   3.711   1.259   3.006
12429TIP3   OH237243   2.262   6.374   1.781
12429TIP3    H137244   2.289   6.437   1.713
12429TIP3    H237245   2.329   6.383   1.849
12430TIP3   OH237246   7.175   5.596   5.033
12430TIP3    H137247   7.082   5.586   5.017
12430TIP3    H237248   7.182   5.673   5.089
12431TIP3   OH237249   0.720   0.028   0.793
12431TIP3    H137250   0.807   0.057   0.819
12431TIP3    H237251   0.735  -0.052   0.743
12432TIP3   OH237252   5.060   6.582   0.215
12432TIP3    H137253   5.112   6.502   0.216
12432TIP3    H237254   5.112   6.644   0.163
12433TIP3   OH237255   7.038   2.880   0.974
12433TIP3    H137256   6.976   2.827   1.023
12433TIP3    H237257   7.120   2.870   1.021
12434TIP3   OH237258   2.339   0.201   6.526
12434TIP3    H137259   2.352   0.106   6.533
12434TIP3    H237260   2.254   0.210   6.484
12435TIP3   OH237261   0.543   0.568   5.239
12435TIP3    H137262   0.465   0.612   5.205
12435TIP3    H237263   0.561   0.498   5.177
12436TIP3   OH237264   2.111   5.035   3.065
12436TIP3    H137265   2.050   5.104   3.091
12436TIP3    H237266   2.197   5.077   3.065
12437TIP3   OH237267   6.103   7.408   4.989
12437TIP3    H137268   6.030   7.346   4.988
12437TIP3    H237269   6.181   7.352   4.989
12438TIP3   OH237270   2.602   0.786   6.698
12438TIP3    H137271   2.525   0.804   6.643
12438TIP3    H237272   2.635   0.702   6.667
12439TIP3   OH237273   8.207   3.871   0.278
12439TIP3    H137274   8.192   3.869   0.373
12439TIP3    H237275   8.247   3.786   0.259
12440TIP3   OH237276   7.119   7.584   0.731
12440TIP3    H137277   7.191   7.646   0.744
12440TIP3    H237278   7.100   7.550   0.818
12441TIP3   OH237279   7.332   6.534   2.317
12441TIP3    H137280   7.272   6.608   2.320
12441TIP3    H237281   7.419   6.573   2.313
12442TIP3   OH237282   0.325   6.390   3.502
12442TIP3    H137283   0.252   6.399   3.563
12442TIP3    H237284   0.402   6.416   3.553
12443TIP3   OH237285   5.882   2.637   6.444
12443TIP3    H137286   5.963   2.685   6.432
12443TIP3    H237287   5.856   2.610   6.356
12444TIP3   OH237288   1.264   4.130   4.608
12444TIP3    H137289   1.294   4.103   4.522
12444TIP3    H237290   1.339   4.174   4.647
12445TIP3   OH237291   0.666   4.712   2.598
12445TIP3    H137292   0.670   4.751   2.685
12445TIP3    H237293   0.740   4.750   2.551
12446TIP3   OH237294   6.899   5.967   3.515
12446TIP3    H137295   6.817   5.936   3.476
12446TIP3    H237296   6.872   6.020   3.590
12447TIP3   OH237297   7.192   4.983   2.321
12447TIP3    H137298   7.145   5.012   2.399
12447TIP3    H237299   7.274   4.946   2.354
12448TIP3   OH237300   1.467   3.107   6.578
12448TIP3    H137301   1.479   3.151   6.662
12448TIP3    H237302   1.404   3.162   6.531
12449TIP3   OH237303   5.316   2.263   5.832
12449TIP3    H137304   5.296   2.350   5.865
12449TIP3    H237305   5.395   2.275   5.779
12450TIP3   OH237306   3.324   5.744   4.369
12450TIP3    H137307   3.334   5.649   4.376
12450TIP3    H237308   3.393   5.779   4.425
12451TIP3   OH237309   4.731   3.580   0.903
12451TIP3    H137310   4.781   3.562   0.983
12451TIP3    H237311   4.774   3.527   0.836
12452TIP3   OH237312   6.034   0.217   2.803
12452TIP3    H137313   5.981   0.138   2.812
12452TIP3    H237314   5.997   0.278   2.868
12453TIP3   OH237315   5.056   4.322   2.467
12453TIP3    H137316   5.124   4.384   2.439
12453TIP3    H237317   4.986   4.333   2.402
12454TIP3   OH237318   6.156   3.263   4.976
12454TIP3    H137319   6.062   3.264   4.960
12454TIP3    H237320   6.196   3.286   4.892
12455TIP3   OH237321   4.286   4.065   2.752
12455TIP3    H137322   4.324   4.152   2.743
12455TIP3    H237323   4.192   4.081   2.767
12456TIP3   OH237324   6.790   1.807   0.881
12456TIP3    H137325   6.863   1.746   0.866
12456TIP3    H237326   6.757   1.783   0.967
12457TIP3   OH237327   2.222   2.923   6.217
12457TIP3    H137328   2.134   2.893   6.193
12457TIP3    H237329   2.269   2.843   6.240
12458TIP3   OH237330   7.536   2.103   3.417
12458TIP3    H137331   7.620   2.072   3.383
12458TIP3    H237332   7.470   2.049   3.373
12459TIP3   OH237333   5.195   2.812   6.639
12459TIP3    H137334   5.120   2.870   6.624
12459TIP3    H237335   5.231   2.797   6.551
12460TIP3   OH237336   0.661   3.419   3.013
12460TIP3    H137337   0.624   3.488   3.069
12460TIP3    H237338   0.681   3.464   2.931
12461TIP3   OH237339   0.269   3.787   3.655
12461TIP3    H137340   0.174   3.800   3.653
12461TIP3    H237341   0.286   3.757   3.745
12462TIP3   OH237342   0.437   5.304   6.286
12462TIP3    H137343   0.502   5.372   6.304
12462TIP3    H237344   0.461   5.270   6.200
12463TIP3   OH237345   0.284   7.272   0.466
12463TIP3    H137346   0.313   7.216   0.393
12463TIP3    H237347   0.204   7.229   0.498
12464TIP3   OH237348   0.452   5.840   2.674
12464TIP3    H137349   0.402   5.913   2.711
12464TIP3    H237350   0.387   5.789   2.626
12465TIP3   OH237351   6.356   7.797   5.373
12465TIP3    H137352   6.330   7.889   5.364
12465TIP3    H237353   6.374   7.786   5.467
12466TIP3   OH237354   2.142   2.248   5.376
12466TIP3    H137355   2.149   2.220   5.468
12466TIP3    H237356   2.052   2.226   5.352
12467TIP3   OH237357   2.835   4.065   4.807
12467TIP3    H137358   2.809   4.065   4.899
12467TIP3    H237359   2.891   4.142   4.798
12468TIP3   OH237360   2.305   0.404   5.112
12468TIP3    H137361   2.255   0.381   5.033
12468TIP3    H237362   2.366   0.332   5.124
12469TIP3   OH237363   7.516   0.941   0.940
12469TIP3    H137364   7.610   0.925   0.946
12469TIP3    H237365   7.484   0.927   1.029
12470TIP3   OH237366   0.580   4.308   1.235
12470TIP3    H137367   0.576   4.401   1.257
12470TIP3    H237368   0.628   4.268   1.308
12471TIP3   OH237369   1.457   5.699   0.690
12471TIP3    H137370   1.425   5.609   0.680
12471TIP3    H237371   1.503   5.698   0.774
12472TIP3   OH237372   6.572   5.840   6.240
12472TIP3    H137373   6.538   5.923   6.274
12472TIP3    H237374   6.666   5.854   6.232
12473TIP3   OH237375   8.148   2.383   4.431
12473TIP3    H137376   8.117   2.304   4.474
12473TIP3    H237377   8.108   2.455   4.481
12474TIP3   OH237378   7.772   4.838   4.702
12474TIP3    H137379   7.835   4.766   4.711
12474TIP3    H237380   7.823   4.907   4.659
12475TIP3   OH237381   4.859   7.761   5.338
12475TIP3    H137382   4.937   7.736   5.387
12475TIP3    H237383   4.821   7.677   5.310
12476TIP3   OH237384   1.689   6.589   5.046
12476TIP3    H137385   1.723   6.500   5.039
12476TIP3    H237386   1.739   6.629   5.117
12477TIP3   OH237387   2.537   4.109   5.605
12477TIP3    H137388   2.553   4.203   5.610
12477TIP3    H237389   2.618   4.072   5.569
12478TIP3   OH237390   1.533   0.388   4.553
12478TIP3    H137391   1.573   0.343   4.479
12478TIP3    H237392   1.556   0.480   4.540
12479TIP3   OH237393   5.140   4.839   4.556
12479TIP3    H137394   5.087   4.881   4.624
12479TIP3    H237395   5.182   4.765   4.600
12480TIP3   OH237396   3.045   7.703   2.794
12480TIP3    H137397   2.994   7.682   2.715
12480TIP3    H237398   3.130   7.662   2.778
12481TIP3   OH237399   5.573   4.708   5.013
12481TIP3    H137400   5.493   4.716   5.065
12481TIP3    H237401   5.552   4.746   4.928
12482TIP3   OH237402   4.170   3.206   5.344
12482TIP3    H137403   4.165   3.255   5.261
12482TIP3    H237404   4.142   3.269   5.410
12483TIP3   OH237405   6.925   5.272   5.742
12483TIP3    H137406   7.017   5.296   5.752
12483TIP3    H237407   6.890   5.274   5.831
12484TIP3   OH237408   1.256   0.728   3.665
12484TIP3    H137409   1.224   0.649   3.709
12484TIP3    H237410   1.319   0.766   3.727
12485TIP3   OH237411   7.332   6.227   0.466
12485TIP3    H137412   7.392   6.261   0.533
12485TIP3    H237413   7.271   6.172   0.514
12486TIP3   OH237414   0.586   0.742   3.339
12486TIP3    H137415   0.676   0.777   3.341
12486TIP3    H237416   0.542   0.786   3.412
12487TIP3   OH237417   2.953   2.176   0.681
12487TIP3    H137418   2.921   2.135   0.600
12487TIP3    H237419   3.034   2.221   0.655
12488TIP3   OH237420   6.930   1.077   6.474
12488TIP3    H137421   6.987   1.002   6.491
12488TIP3    H237422   6.980   1.134   6.416
12489TIP3   OH237423   1.394   6.401   4.230
12489TIP3    H137424   1.355   6.450   4.302
12489TIP3    H237425   1.365   6.311   4.244
12490TIP3   OH237426   5.583   3.167   5.039
12490TIP3    H137427   5.667   3.121   5.039
12490TIP3    H237428   5.557   3.170   4.947
12491TIP3   OH237429   4.244   5.642   1.127
12491TIP3    H137430   4.310   5.671   1.064
12491TIP3    H237431   4.192   5.720   1.145
12492TIP3   OH237432   3.754   1.625   2.789
12492TIP3    H137433   3.708   1.542   2.780
12492TIP3    H237434   3.792   1.640   2.702
12493TIP3   OH237435   6.752   4.300   6.700
12493TIP3    H137436   6.682   4.236   6.714
12493TIP3    H237437   6.833   4.251   6.715
12494TIP3   OH237438   0.607   6.208   5.343
12494TIP3    H137439   0.532   6.262   5.317
12494TIP3    H237440   0.568   6.124   5.369
12495TIP3   OH237441   3.187   6.885   5.416
12495TIP3    H137442   3.229   6.964   5.451
12495TIP3    H237443   3.112   6.918   5.367
12496TIP3   OH237444   0.705   7.022   3.147
12496TIP3    H137445   0.687   7.112   3.118
12496TIP3    H237446   0.799   7.020   3.162
12497TIP3   OH237447   2.129   1.578   4.960
12497TIP3    H137448   2.192   1.577   5.032
12497TIP3    H237449   2.114   1.486   4.940
12498TIP3   OH237450   3.746   2.462   5.484
12498TIP3    H137451   3.745   2.397   5.414
12498TIP3    H237452   3.677   2.524   5.460
12499TIP3   OH237453   8.157   5.156   0.151
12499TIP3    H137454   8.196   5.091   0.210
12499TIP3    H237455   8.229   5.217   0.133
12500TIP3   OH237456   4.173   1.236   0.622
12500TIP3    H137457   4.153   1.184   0.700
12500TIP3    H237458   4.250   1.193   0.584
12501TIP3   OH237459   0.681   5.194   4.484
12501TIP3    H137460   0.772   5.222   4.478
12501TIP3    H237461   0.673   5.124   4.419
12502TIP3   OH237462   3.253   1.946   6.027
12502TIP3    H137463   3.241   1.904   6.113
12502TIP3    H237464   3.342   1.924   6.002
12503TIP3   OH237465   0.223   4.742   0.795
12503TIP3    H137466   0.225   4.826   0.842
12503TIP3    H237467   0.314   4.727   0.770
12504TIP3   OH237468   0.043   4.922   0.064
12504TIP3    H137469   0.133   4.925   0.097
12504TIP3    H237470  -0.011   4.906   0.142
12505TIP3   OH237471   7.133   6.982   6.151
12505TIP3    H137472   7.131   6.887   6.159
12505TIP3    H237473   7.179   7.012   6.230
12506TIP3   OH237474   7.692   6.624   3.474
12506TIP3    H137475   7.757   6.557   3.494
12506TIP3    H237476   7.608   6.577   3.472
12507TIP3   OH237477   5.344   3.730   5.948
12507TIP3    H137478   5.375   3.767   6.031
12507TIP3    H237479   5.414   3.748   5.886
12508TIP3   OH237480   4.360   3.798   2.852
12508TIP3    H137481   4.271   3.771   2.875
12508TIP3    H237482   4.347   3.865   2.784
12509TIP3   OH237483   5.481   2.939   6.675
12509TIP3    H137484   5.411   2.984   6.627
12509TIP3    H237485   5.499   2.861   6.623
12510TIP3   OH237486   4.229   1.867   4.386
12510TIP3    H137487   4.219   1.849   4.292
12510TIP3    H237488   4.145   1.903   4.413
12511TIP3   OH237489   4.443   5.678   0.567
12511TIP3    H137490   4.518   5.640   0.613
12511TIP3    H237491   4.370   5.621   0.588
12512TIP3   OH237492   5.289   5.116   0.314
12512TIP3    H137493   5.328   5.144   0.396
12512TIP3    H237494   5.200   5.087   0.337
12513TIP3   OH237495   0.055   0.677   6.281
12513TIP3    H137496  -0.014   0.640   6.226
12513TIP3    H237497   0.024   0.765   6.303
12514TIP3   OH237498   3.257   3.067   3.217
12514TIP3    H137499   3.243   3.032   3.129
12514TIP3    H237500   3.190   3.135   3.226
12515TIP3   OH237501   6.699   3.041   4.429
12515TIP3    H137502   6.745   3.030   4.512
12515TIP3    H237503   6.746   2.984   4.368
12516TIP3   OH237504   2.812   0.302   1.656
12516TIP3    H137505   2.876   0.355   1.703
12516TIP3    H237506   2.732   0.308   1.710
12517TIP3   OH237507   0.671   7.528   3.297
12517TIP3    H137508   0.760   7.563   3.299
12517TIP3    H237509   0.640   7.536   3.387
12518TIP3   OH237510   1.229   1.302   5.552
12518TIP3    H137511   1.181   1.291   5.471
12518TIP3    H237512   1.162   1.320   5.618
12519TIP3   OH237513   5.250   0.904   3.771
12519TIP3    H137514   5.342   0.917   3.748
12519TIP3    H237515   5.252   0.876   3.863
12520TIP3   OH237516   0.169   4.397   4.622
12520TIP3    H137517   0.255   4.396   4.581
12520TIP3    H237518   0.187   4.379   4.715
12521TIP3   OH237519   8.023   3.226   5.954
12521TIP3    H137520   7.968   3.236   6.032
12521TIP3    H237521   7.973   3.267   5.884
12522TIP3   OH237522   0.875   4.704   0.874
12522TIP3    H137523   0.844   4.633   0.930
12522TIP3    H237524   0.839   4.783   0.914
12523TIP3   OH237525   2.394   7.573   6.607
12523TIP3    H137526   2.305   7.580   6.641
12523TIP3    H237527   2.388   7.507   6.538
12524TIP3   OH237528   3.420   5.488   2.569
12524TIP3    H137529   3.361   5.557   2.540
12524TIP3    H237530   3.371   5.441   2.636
12525TIP3   OH237531   6.481   6.755   1.946
12525TIP3    H137532   6.395   6.754   1.988
12525TIP3    H237533   6.496   6.846   1.922
12526TIP3   OH237534   3.514   4.880   0.468
12526TIP3    H137535   3.493   4.826   0.545
12526TIP3    H237536   3.498   4.823   0.393
12527TIP3   OH237537   4.223   1.947   2.531
12527TIP3    H137538   4.306   1.948   2.578
12527TIP3    H237539   4.208   1.855   2.510
12528TIP3   OH237540   4.792   0.871   1.616
12528TIP3    H137541   4.819   0.922   1.540
12528TIP3    H237542   4.749   0.936   1.673
12529TIP3   OH237543   7.646   3.069   1.732
12529TIP3    H137544   7.617   3.105   1.649
12529TIP3    H237545   7.591   2.991   1.746
12530TIP3   OH237546   4.720   6.752   5.000
12530TIP3    H137547   4.806   6.760   4.958
12530TIP3    H237548   4.740   6.746   5.093
12531TIP3   OH237549   0.220   6.159   6.181
12531TIP3    H137550   0.252   6.242   6.145
12531TIP3    H237551   0.231   6.168   6.276
12532TIP3   OH237552   0.904   2.027   1.529
12532TIP3    H137553   0.919   2.120   1.549
12532TIP3    H237554   0.990   1.993   1.505
12533TIP3   OH237555   6.053   7.440   2.406
12533TIP3    H137556   5.980   7.442   2.345
12533TIP3    H237557   6.015   7.413   2.490
12534TIP3   OH237558   0.143   2.306   6.607
12534TIP3    H137559   0.177   2.347   6.687
12534TIP3    H237560   0.048   2.318   6.613
12535TIP3   OH237561   1.527   1.617   2.981
12535TIP3    H137562   1.555   1.589   3.068
12535TIP3    H237563   1.488   1.704   2.994
12536TIP3   OH237564   5.334   0.053   0.284
12536TIP3    H137565   5.282   0.081   0.360
12536TIP3    H237566   5.401   0.120   0.275
12537TIP3   OH237567   3.679   7.622   5.323
12537TIP3    H137568   3.749   7.561   5.298
12537TIP3    H237569   3.720   7.708   5.316
12538TIP3   OH237570   1.644   0.064   3.987
12538TIP3    H137571   1.572   0.118   3.954
12538TIP3    H237572   1.706   0.126   4.025
12539TIP3   OH237573   8.163   0.027   0.969
12539TIP3    H137574   8.150   0.001   0.877
12539TIP3    H237575   8.199   0.115   0.964
12540TIP3   OH237576   1.410   3.729   0.835
12540TIP3    H137577   1.477   3.795   0.822
12540TIP3    H237578   1.328   3.771   0.808
12541TIP3   OH237579   0.507   3.866   3.131
12541TIP3    H137580   0.541   3.955   3.139
12541TIP3    H237581   0.438   3.872   3.065
12542TIP3   OH237582   0.761   3.666   0.616
12542TIP3    H137583   0.801   3.745   0.579
12542TIP3    H237584   0.829   3.628   0.671
12543TIP3   OH237585   0.941   7.129   2.109
12543TIP3    H137586   0.875   7.071   2.070
12543TIP3    H237587   0.999   7.151   2.036
12544TIP3   OH237588   1.934   6.961   2.951
12544TIP3    H137589   2.001   6.986   3.014
12544TIP3    H237590   1.942   6.865   2.945
12545TIP3   OH237591   7.355   4.734   0.507
12545TIP3    H137592   7.307   4.719   0.589
12545TIP3    H237593   7.416   4.660   0.502
12546TIP3   OH237594   0.496   2.819   4.691
12546TIP3    H137595   0.548   2.899   4.696
12546TIP3    H237596   0.487   2.790   4.781
12547TIP3   OH237597   5.673   1.524   3.028
12547TIP3    H137598   5.633   1.476   2.955
12547TIP3    H237599   5.714   1.600   2.988
12548TIP3   OH237600   3.863   1.367   5.516
12548TIP3    H137601   3.889   1.314   5.440
12548TIP3    H237602   3.814   1.440   5.479
12549TIP3   OH237603   5.892   2.445   2.273
12549TIP3    H137604   5.840   2.496   2.335
12549TIP3    H237605   5.928   2.373   2.325
12550TIP3   OH237606   4.221   1.152   4.859
12550TIP3    H137607   4.305   1.192   4.881
12550TIP3    H237608   4.230   1.128   4.767
12551TIP3   OH237609   3.224   1.029   2.059
12551TIP3    H137610   3.168   0.957   2.089
12551TIP3    H237611   3.182   1.108   2.093
12552TIP3   OH237612   4.056   3.927   5.296
12552TIP3    H137613   4.012   3.882   5.369
12552TIP3    H237614   4.149   3.908   5.309
12553TIP3   OH237615   0.457   2.882   3.883
12553TIP3    H137616   0.522   2.928   3.936
12553TIP3    H237617   0.431   2.806   3.935
12554TIP3   OH237618   7.013   6.274   4.994
12554TIP3    H137619   6.979   6.186   4.985
12554TIP3    H237620   6.938   6.326   5.023
12555TIP3   OH237621   6.511   4.131   0.344
12555TIP3    H137622   6.513   4.040   0.316
12555TIP3    H237623   6.574   4.175   0.286
12556TIP3   OH237624   0.120   2.074   3.516
12556TIP3    H137625   0.110   2.059   3.610
12556TIP3    H237626   0.030   2.083   3.484
12557TIP3   OH237627   3.700   1.672   3.622
12557TIP3    H137628   3.675   1.687   3.531
12557TIP3    H237629   3.654   1.740   3.671
12558TIP3   OH237630   7.348   5.223   4.408
12558TIP3    H137631   7.370   5.301   4.357
12558TIP3    H237632   7.367   5.150   4.348
12559TIP3   OH237633   0.314   3.261   1.773
12559TIP3    H137634   0.299   3.321   1.846
12559TIP3    H237635   0.383   3.303   1.721
12560TIP3   OH237636   6.647   0.327   4.266
12560TIP3    H137637   6.655   0.296   4.176
12560TIP3    H237638   6.670   0.420   4.261
12561TIP3   OH237639   5.432   3.577   2.108
12561TIP3    H137640   5.354   3.629   2.128
12561TIP3    H237641   5.500   3.641   2.089
12562TIP3   OH237642   7.346   3.580   4.743
12562TIP3    H137643   7.396   3.513   4.790
12562TIP3    H237644   7.323   3.644   4.811
12563TIP3   OH237645   4.901   4.282   2.665
12563TIP3    H137646   4.949   4.274   2.583
12563TIP3    H237647   4.815   4.244   2.647
12564TIP3   OH237648   7.679   5.489   0.335
12564TIP3    H137649   7.682   5.584   0.343
12564TIP3    H237650   7.708   5.456   0.420
12565TIP3   OH237651   6.918   2.379   2.855
12565TIP3    H137652   6.885   2.312   2.915
12565TIP3    H237653   6.957   2.329   2.784
12566TIP3   OH237654   0.686   6.899   4.530
12566TIP3    H137655   0.723   6.822   4.488
12566TIP3    H237656   0.664   6.958   4.458
12567TIP3   OH237657   8.112   2.621   6.228
12567TIP3    H137658   8.121   2.552   6.162
12567TIP3    H237659   8.186   2.609   6.287
12568TIP3   OH237660   1.441   5.323   4.469
12568TIP3    H137661   1.428   5.402   4.523
12568TIP3    H237662   1.507   5.273   4.516
12569TIP3   OH237663   5.899   2.883   6.045
12569TIP3    H137664   5.984   2.923   6.027
12569TIP3    H237665   5.863   2.933   6.117
12570TIP3   OH237666   2.664   3.284   0.422
12570TIP3    H137667   2.733   3.231   0.382
12570TIP3    H237668   2.623   3.330   0.348
12571TIP3   OH237669   7.599   3.423   4.936
12571TIP3    H137670   7.532   3.457   4.996
12571TIP3    H237671   7.572   3.333   4.918
12572TIP3   OH237672   2.448   1.983   3.439
12572TIP3    H137673   2.355   2.001   3.445
12572TIP3    H237674   2.477   2.031   3.361
12573TIP3   OH237675   6.364   7.771   3.629
12573TIP3    H137676   6.398   7.824   3.701
12573TIP3    H237677   6.385   7.681   3.653
12574TIP3   OH237678   8.011   6.061   4.633
12574TIP3    H137679   7.942   6.021   4.581
12574TIP3    H237680   8.091   6.019   4.604
12575TIP3   OH237681   7.324   3.322   3.931
12575TIP3    H137682   7.315   3.417   3.933
12575TIP3    H237683   7.367   3.303   3.848
12576TIP3   OH237684   2.674   6.921   0.648
12576TIP3    H137685   2.712   6.979   0.714
12576TIP3    H237686   2.658   6.839   0.693
12577TIP3   OH237687   0.274   2.315   1.140
12577TIP3    H137688   0.219   2.393   1.138
12577TIP3    H237689   0.348   2.335   1.083
12578TIP3   OH237690   3.778   3.578   1.672
12578TIP3    H137691   3.800   3.666   1.641
12578TIP3    H237692   3.733   3.592   1.755
12579TIP3   OH237693   5.808   6.693   2.334
12579TIP3    H137694   5.776   6.632   2.400
12579TIP3    H237695   5.901   6.672   2.324
12580TIP3   OH237696   2.944   1.898   4.416
12580TIP3    H137697   2.910   1.950   4.489
12580TIP3    H237698   2.897   1.931   4.340
12581TIP3   OH237699   5.435   7.718   3.631
12581TIP3    H137700   5.512   7.711   3.687
12581TIP3    H237701   5.362   7.695   3.688
12582TIP3   OH237702   6.949   7.443   5.526
12582TIP3    H137703   6.887   7.411   5.592
12582TIP3    H237704   6.971   7.365   5.475
12583TIP3   OH237705   3.340   4.421   1.945
12583TIP3    H137706   3.365   4.408   1.854
12583TIP3    H237707   3.324   4.515   1.952
12584TIP3   OH237708   6.528   7.280   4.658
12584TIP3    H137709   6.601   7.320   4.706
12584TIP3    H237710   6.561   7.196   4.628
12585TIP3   OH237711   5.069   2.074   5.301
12585TIP3    H137712   5.093   2.160   5.337
12585TIP3    H237713   5.013   2.034   5.367
12586TIP3   OH237714   2.670   3.215   1.517
12586TIP3    H137715   2.728   3.179   1.584
12586TIP3    H237716   2.730   3.246   1.448
12587TIP3   OH237717   5.246   1.998   1.447
12587TIP3    H137718   5.289   2.022   1.529
12587TIP3    H237719   5.226   1.905   1.457
12588TIP3   OH237720   8.176   6.165   1.500
12588TIP3    H137721   8.181   6.078   1.461
12588TIP3    H237722   8.084   6.177   1.521
12589TIP3   OH237723   2.505   6.158   3.893
12589TIP3    H137724   2.530   6.141   3.984
12589TIP3    H237725   2.447   6.086   3.870
12590TIP3   OH237726   1.141   2.750   2.336
12590TIP3    H137727   1.090   2.730   2.257
12590TIP3    H237728   1.079   2.738   2.408
12591TIP3   OH237729   8.121   4.005   1.166
12591TIP3    H137730   8.057   4.044   1.107
12591TIP3    H237731   8.069   3.964   1.234
12592TIP3   OH237732   2.190   0.679   1.114
12592TIP3    H137733   2.194   0.681   1.018
12592TIP3    H237734   2.098   0.696   1.134
12593TIP3   OH237735   5.402   7.193   3.933
12593TIP3    H137736   5.362   7.106   3.924
12593TIP3    H237737   5.333   7.247   3.971
12594TIP3   OH237738   1.461   6.883   1.880
12594TIP3    H137739   1.478   6.789   1.873
12594TIP3    H237740   1.547   6.921   1.897
12595TIP3   OH237741   2.868   1.106   2.325
12595TIP3    H137742   2.923   1.135   2.398
12595TIP3    H237743   2.930   1.099   2.251
12596TIP3   OH237744   3.529   6.068   3.569
12596TIP3    H137745   3.570   5.989   3.605
12596TIP3    H237746   3.585   6.140   3.597
12597TIP3   OH237747   7.080   5.473   5.328
12597TIP3    H137748   7.108   5.556   5.288
12597TIP3    H237749   7.149   5.453   5.392
12598TIP3   OH237750   0.533   0.709   6.192
12598TIP3    H137751   0.578   0.625   6.196
12598TIP3    H237752   0.513   0.730   6.283
12599TIP3   OH237753   6.674   1.161   2.128
12599TIP3    H137754   6.691   1.091   2.066
12599TIP3    H237755   6.750   1.162   2.185
12600TIP3   OH237756   6.461   0.286   2.373
12600TIP3    H137757   6.527   0.343   2.335
12600TIP3    H237758   6.448   0.217   2.308
12601TIP3   OH237759   7.873   1.443   4.279
12601TIP3    H137760   7.838   1.374   4.335
12601TIP3    H237761   7.799   1.501   4.262
12602TIP3   OH237762   2.641   5.525   5.173
12602TIP3    H137763   2.712   5.504   5.112
12602TIP3    H237764   2.590   5.444   5.180
12603TIP3   OH237765   5.740   1.013   6.586
12603TIP3    H137766   5.800   1.075   6.629
12603TIP3    H237767   5.788   0.983   6.509
12604TIP3   OH237768   1.319   1.626   5.867
12604TIP3    H137769   1.319   1.720   5.882
12604TIP3    H237770   1.409   1.599   5.883
12605TIP3   OH237771   8.128   3.426   0.045
12605TIP3    H137772   8.053   3.385   0.088
12605TIP3    H237773   8.097   3.514   0.021
12606TIP3   OH237774   7.707   1.847   2.145
12606TIP3    H137775   7.738   1.856   2.235
12606TIP3    H237776   7.737   1.925   2.100
12607TIP3   OH237777   2.903   7.604   3.201
12607TIP3    H137778   2.889   7.573   3.112
12607TIP3    H237779   2.998   7.606   3.212
12608TIP3   OH237780   0.538   3.434   5.747
12608TIP3    H137781   0.445   3.418   5.732
12608TIP3    H237782   0.543   3.525   5.775
12609TIP3   OH237783   0.985   4.864   0.381
12609TIP3    H137784   1.066   4.887   0.334
12609TIP3    H237785   0.974   4.770   0.364
12610TIP3   OH237786   4.733   7.590   0.261
12610TIP3    H137787   4.779   7.628   0.336
12610TIP3    H237788   4.795   7.599   0.188
12611TIP3   OH237789   6.756   7.524   2.793
12611TIP3    H137790   6.776   7.618   2.801
12611TIP3    H237791   6.815   7.483   2.856
12612TIP3   OH237792   2.371   4.326   2.026
12612TIP3    H137793   2.283   4.289   2.037
12612TIP3    H237794   2.387   4.376   2.106
12613TIP3   OH237795   1.393   3.641   4.298
12613TIP3    H137796   1.425   3.681   4.379
12613TIP3    H237797   1.303   3.672   4.289
12614TIP3   OH237798   5.233   3.306   6.741
12614TIP3    H137799   5.271   3.262   6.665
12614TIP3    H237800   5.230   3.238   6.808
12615TIP3   OH237801   2.760   0.062   3.374
12615TIP3    H137802   2.685   0.118   3.398
12615TIP3    H237803   2.822   0.074   3.445
12616TIP3   OH237804   3.735   6.903   1.595
12616TIP3    H137805   3.825   6.868   1.598
12616TIP3    H237806   3.747   6.997   1.588
12617TIP3   OH237807   5.594   7.375   3.256
12617TIP3    H137808   5.604   7.464   3.290
12617TIP3    H237809   5.664   7.365   3.192
12618TIP3   OH237810   3.742   4.515   5.072
12618TIP3    H137811   3.797   4.549   5.002
12618TIP3    H237812   3.770   4.424   5.083
12619TIP3   OH237813   6.392   4.130   2.626
12619TIP3    H137814   6.464   4.094   2.679
12619TIP3    H237815   6.338   4.054   2.604
12620TIP3   OH237816   6.052   1.774   2.399
12620TIP3    H137817   6.023   1.740   2.314
12620TIP3    H237818   6.148   1.771   2.394
12621TIP3   OH237819   6.682   7.068   2.430
12621TIP3    H137820   6.715   7.130   2.365
12621TIP3    H237821   6.591   7.094   2.445
12622TIP3   OH237822   7.799   4.074   3.335
12622TIP3    H137823   7.809   4.000   3.276
12622TIP3    H237824   7.797   4.035   3.423
12623TIP3   OH237825   7.488   0.649   5.397
12623TIP3    H137826   7.447   0.733   5.380
12623TIP3    H237827   7.544   0.633   5.321
12624TIP3   OH237828   0.257   5.912   2.390
12624TIP3    H137829   0.246   5.819   2.409
12624TIP3    H237830   0.297   5.949   2.468
12625TIP3   OH237831   5.620   5.902   4.713
12625TIP3    H137832   5.555   5.846   4.757
12625TIP3    H237833   5.636   5.858   4.629
12626TIP3   OH237834   4.780   2.505   5.212
12626TIP3    H137835   4.785   2.564   5.286
12626TIP3    H237836   4.818   2.554   5.139
12627TIP3   OH237837   7.883   1.231   1.546
12627TIP3    H137838   7.899   1.252   1.454
12627TIP3    H237839   7.788   1.232   1.555
12628TIP3   OH237840   6.048   7.777   3.746
12628TIP3    H137841   6.032   7.772   3.652
12628TIP3    H237842   6.002   7.701   3.782
12629TIP3   OH237843   3.561   0.162   4.877
12629TIP3    H137844   3.572   0.088   4.817
12629TIP3    H237845   3.488   0.138   4.933
12630TIP3   OH237846   7.294   5.513   3.274
12630TIP3    H137847   7.324   5.569   3.203
12630TIP3    H237848   7.348   5.538   3.349
12631TIP3   OH237849   6.164   2.831   5.490
12631TIP3    H137850   6.134   2.767   5.425
12631TIP3    H237851   6.254   2.805   5.510
12632TIP3   OH237852   2.958   7.531   4.118
12632TIP3    H137853   2.976   7.605   4.060
12632TIP3    H237854   2.964   7.455   4.061
12633TIP3   OH237855   2.146   6.675   3.101
12633TIP3    H137856   2.161   6.767   3.079
12633TIP3    H237857   2.070   6.676   3.158
12634TIP3   OH237858   1.298   1.258   6.330
12634TIP3    H137859   1.228   1.261   6.395
12634TIP3    H237860   1.377   1.279   6.379
12635TIP3   OH237861   8.196   6.183   4.312
12635TIP3    H137862   8.182   6.226   4.228
12635TIP3    H237863   8.115   6.197   4.361
12636TIP3   OH237864   3.803   3.871   4.294
12636TIP3    H137865   3.833   3.817   4.221
12636TIP3    H237866   3.781   3.955   4.255
12637TIP3   OH237867   0.915   1.302   5.785
12637TIP3    H137868   0.911   1.349   5.702
12637TIP3    H237869   0.985   1.345   5.834
12638TIP3   OH237870   2.970   5.631   0.515
12638TIP3    H137871   2.894   5.673   0.474
12638TIP3    H237872   2.960   5.538   0.493
12639TIP3   OH237873   0.339   6.579   4.960
12639TIP3    H137874   0.268   6.516   4.955
12639TIP3    H237875   0.379   6.577   4.873
12640TIP3   OH237876   3.916   1.720   5.926
12640TIP3    H137877   3.938   1.652   5.862
12640TIP3    H237878   3.913   1.801   5.876
12641TIP3   OH237879   4.283   4.699   0.246
12641TIP3    H137880   4.277   4.788   0.212
12641TIP3    H237881   4.369   4.668   0.217
12642TIP3   OH237882   0.751   1.598   0.973
12642TIP3    H137883   0.785   1.543   0.902
12642TIP3    H237884   0.748   1.540   1.049
12643TIP3   OH237885   0.539   3.074   3.381
12643TIP3    H137886   0.503   3.159   3.408
12643TIP3    H237887   0.574   3.037   3.462
12644TIP3   OH237888   8.230   0.726   5.602
12644TIP3    H137889   8.220   0.641   5.643
12644TIP3    H237890   8.175   0.723   5.524
12645TIP3   OH237891   7.451   6.938   3.649
12645TIP3    H137892   7.448   7.015   3.706
12645TIP3    H237893   7.421   6.970   3.564
12646TIP3   OH237894   7.856   7.725   5.636
12646TIP3    H137895   7.883   7.815   5.654
12646TIP3    H237896   7.923   7.671   5.679
12647TIP3   OH237897   4.079   6.685   6.479
12647TIP3    H137898   4.152   6.719   6.426
12647TIP3    H237899   4.011   6.666   6.415
12648TIP3   OH237900   2.557   7.532   3.600
12648TIP3    H137901   2.536   7.621   3.628
12648TIP3    H237902   2.615   7.543   3.525
12649TIP3   OH237903   6.554   6.112   5.075
12649TIP3    H137904   6.477   6.161   5.045
12649TIP3    H237905   6.522   6.060   5.148
12650TIP3   OH237906   3.338   0.362   4.286
12650TIP3    H137907   3.358   0.444   4.331
12650TIP3    H237908   3.331   0.386   4.194
12651TIP3   OH237909   0.575   0.577   4.296
12651TIP3    H137910   0.549   0.569   4.205
12651TIP3    H237911   0.670   0.561   4.296
12652TIP3   OH237912   4.502   4.592   4.831
12652TIP3    H137913   4.555   4.523   4.790
12652TIP3    H237914   4.506   4.664   4.769
12653TIP3   OH237915   8.206   6.425   2.404
12653TIP3    H137916   8.279   6.481   2.378
12653TIP3    H237917   8.245   6.364   2.467
12654TIP3   OH237918   2.355   2.143   4.882
12654TIP3    H137919   2.381   2.219   4.933
12654TIP3    H237920   2.361   2.172   4.791
12655TIP3   OH237921   3.219   6.828   1.492
12655TIP3    H137922   3.178   6.834   1.578
12655TIP3    H237923   3.308   6.860   1.504
12656TIP3   OH237924   4.731   3.648   1.830
12656TIP3    H137925   4.692   3.617   1.912
12656TIP3    H237926   4.799   3.710   1.858
12657TIP3   OH237927   4.955   4.930   2.445
12657TIP3    H137928   5.014   4.939   2.520
12657TIP3    H237929   4.982   4.849   2.402
12658TIP3   OH237930   0.533   7.357   0.775
12658TIP3    H137931   0.539   7.283   0.714
12658TIP3    H237932   0.562   7.322   0.859
12659TIP3   OH237933   5.624   3.071   3.174
12659TIP3    H137934   5.688   3.065   3.246
12659TIP3    H237935   5.678   3.080   3.095
12660TIP3   OH237936   3.369   5.476   0.572
12660TIP3    H137937   3.360   5.571   0.584
12660TIP3    H237938   3.464   5.461   0.571
12661TIP3   OH237939   7.803   6.846   4.361
12661TIP3    H137940   7.770   6.828   4.273
12661TIP3    H237941   7.768   6.775   4.415
12662TIP3   OH237942   6.948   6.524   2.271
12662TIP3    H137943   7.007   6.600   2.269
12662TIP3    H237944   6.914   6.518   2.181
12663TIP3   OH237945   3.553   1.491   3.311
12663TIP3    H137946   3.621   1.502   3.244
12663TIP3    H237947   3.556   1.398   3.333
12664TIP3   OH237948   5.521   4.239   3.611
12664TIP3    H137949   5.443   4.201   3.650
12664TIP3    H237950   5.543   4.179   3.539
12665TIP3   OH237951   4.447   6.226   3.897
12665TIP3    H137952   4.505   6.206   3.823
12665TIP3    H237953   4.402   6.144   3.914
12666TIP3   OH237954   1.147   0.146   5.651
12666TIP3    H137955   1.239   0.142   5.625
12666TIP3    H237956   1.109   0.065   5.615
12667TIP3   OH237957   6.494   0.886   3.163
12667TIP3    H137958   6.399   0.877   3.175
12667TIP3    H237959   6.507   0.871   3.069
12668TIP3   OH237960   6.202   7.173   2.802
12668TIP3    H137961   6.141   7.206   2.736
12668TIP3    H237962   6.150   7.111   2.854
12669TIP3   OH237963   7.155   3.807   1.880
12669TIP3    H137964   7.178   3.721   1.845
12669TIP3    H237965   7.112   3.788   1.963
12670TIP3   OH237966   2.294   5.569   0.547
12670TIP3    H137967   2.370   5.577   0.489
12670TIP3    H237968   2.272   5.476   0.543
12671TIP3   OH237969   6.694   4.751   4.427
12671TIP3    H137970   6.726   4.737   4.337
12671TIP3    H237971   6.763   4.803   4.468
12672TIP3   OH237972   7.318   0.934   6.735
12672TIP3    H137973   7.316   0.861   6.673
12672TIP3    H237974   7.393   0.986   6.709
12673TIP3   OH237975   0.786   2.317   2.835
12673TIP3    H137976   0.879   2.334   2.825
12673TIP3    H237977   0.757   2.378   2.903
12674TIP3   OH237978   3.381   1.364   2.926
12674TIP3    H137979   3.388   1.374   3.021
12674TIP3    H237980   3.315   1.429   2.900
12675TIP3   OH237981   1.489   0.316   1.337
12675TIP3    H137982   1.436   0.394   1.319
12675TIP3    H237983   1.532   0.335   1.421
12676TIP3   OH237984   4.613   4.769   1.368
12676TIP3    H137985   4.624   4.828   1.443
12676TIP3    H237986   4.559   4.819   1.306
12677TIP3   OH237987   5.611   2.420   3.267
12677TIP3    H137988   5.516   2.408   3.272
12677TIP3    H237989   5.644   2.386   3.350
12678TIP3   OH237990   2.721   0.209   2.894
12678TIP3    H137991   2.722   0.304   2.909
12678TIP3    H237992   2.678   0.174   2.972
12679TIP3   OH237993   3.034   7.507   1.210
12679TIP3    H137994   2.966   7.445   1.236
12679TIP3    H237995   3.114   7.473   1.248
12680TIP3   OH237996   6.368   1.319   2.924
12680TIP3    H137997   6.364   1.275   3.009
12680TIP3    H237998   6.287   1.368   2.918
12681TIP3   OH237999   3.212   1.621   1.143
12681TIP3    H138000   3.122   1.616   1.175
12681TIP3    H238001   3.238   1.530   1.130
12682TIP3   OH238002   0.999   4.914   3.772
12682TIP3    H138003   0.978   4.943   3.861
12682TIP3    H238004   1.085   4.873   3.781
12683TIP3   OH238005   5.770   2.806   3.408
12683TIP3    H138006   5.741   2.744   3.476
12683TIP3    H238007   5.774   2.753   3.328
12684TIP3   OH238008   6.552   0.092   1.337
12684TIP3    H138009   6.479   0.152   1.321
12684TIP3    H238010   6.552   0.080   1.432
12685TIP3   OH238011   5.074   1.187   5.597
12685TIP3    H138012   5.029   1.142   5.668
12685TIP3    H238013   5.167   1.165   5.609
12686TIP3   OH238014   6.965   5.736   0.480
12686TIP3    H138015   6.961   5.825   0.514
12686TIP3    H238016   6.883   5.726   0.431
12687TIP3   OH238017   3.015   4.119   6.323
12687TIP3    H138018   2.980   4.099   6.410
12687TIP3    H238019   3.065   4.199   6.335
12688TIP3   OH238020   4.365   0.707   4.713
12688TIP3    H138021   4.319   0.630   4.680
12688TIP3    H238022   4.301   0.750   4.770
12689TIP3   OH238023   1.980   6.864  -0.035
12689TIP3    H138024   1.896   6.832  -0.003
12689TIP3    H238025   1.988   6.952   0.003
12690TIP3   OH238026   3.597   6.902   1.304
12690TIP3    H138027   3.653   6.846   1.357
12690TIP3    H238028   3.645   6.914   1.222
12691TIP3   OH238029   5.952   0.651   2.539
12691TIP3    H138030   6.004   0.608   2.608
12691TIP3    H238031   5.891   0.584   2.509
12692TIP3   OH238032   0.033   2.401   5.746
12692TIP3    H138033  -0.010   2.478   5.784
12692TIP3    H238034   0.120   2.433   5.721
12693TIP3   OH238035   1.916   6.566   4.317
12693TIP3    H138036   1.839   6.533   4.364
12693TIP3    H238037   1.970   6.607   4.385
12694TIP3   OH238038   7.857   7.455   5.948
12694TIP3    H138039   7.820   7.449   5.860
12694TIP3    H238040   7.935   7.510   5.938
12695TIP3   OH238041   3.794   1.803   1.027
12695TIP3    H138042   3.773   1.728   0.972
12695TIP3    H238043   3.843   1.766   1.100
12696TIP3   OH238044   3.284   4.362   2.881
12696TIP3    H138045   3.192   4.353   2.854
12696TIP3    H238046   3.290   4.314   2.963
12697TIP3   OH238047   7.979   0.518   3.078
12697TIP3    H138048   8.074   0.521   3.091
12697TIP3    H238049   7.968   0.521   2.983
12698TIP3   OH238050   1.413   4.797   4.375
12698TIP3    H138051   1.341   4.781   4.436
12698TIP3    H238052   1.485   4.827   4.431
12699TIP3   OH238053   3.088   0.837   2.221
12699TIP3    H138054   3.142   0.758   2.214
12699TIP3    H238055   3.039   0.825   2.302
12700TIP3   OH238056   3.034   3.012   2.167
12700TIP3    H138057   3.042   2.986   2.075
12700TIP3    H238058   3.084   2.947   2.215
12701TIP3   OH238059   4.350   3.817   5.645
12701TIP3    H138060   4.430   3.823   5.592
12701TIP3    H238061   4.365   3.878   5.717
12702TIP3   OH238062   2.091   1.586   2.273
12702TIP3    H138063   2.070   1.608   2.182
12702TIP3    H238064   2.131   1.500   2.268
12703TIP3   OH238065   6.077   3.829   1.396
12703TIP3    H138066   6.136   3.754   1.405
12703TIP3    H238067   6.132   3.905   1.414
12704TIP3   OH238068   2.798   4.729   1.230
12704TIP3    H138069   2.853   4.664   1.185
12704TIP3    H238070   2.723   4.679   1.261
12705TIP3   OH238071   3.663   4.967   4.858
12705TIP3    H138072   3.612   4.947   4.780
12705TIP3    H238073   3.662   4.886   4.909
12706TIP3   OH238074   3.689   2.860   5.504
12706TIP3    H138075   3.751   2.861   5.431
12706TIP3    H238076   3.621   2.797   5.477
12707TIP3   OH238077   5.637   0.105   1.972
12707TIP3    H138078   5.698   0.116   2.045
12707TIP3    H238079   5.571   0.044   2.005
12708TIP3   OH238080   7.289   5.347   5.077
12708TIP3    H138081   7.221   5.281   5.066
12708TIP3    H238082   7.242   5.427   5.101
12709TIP3   OH238083   6.973   6.599   0.173
12709TIP3    H138084   6.914   6.531   0.204
12709TIP3    H238085   6.987   6.656   0.248
12710TIP3   OH238086   5.709   6.615   1.610
12710TIP3    H138087   5.754   6.634   1.693
12710TIP3    H238088   5.771   6.643   1.542
12711TIP3   OH238089   2.820   0.433   3.422
12711TIP3    H138090   2.812   0.460   3.331
12711TIP3    H238091   2.809   0.513   3.472
12712TIP3   OH238092   4.233   4.942   2.077
12712TIP3    H138093   4.193   4.997   2.144
12712TIP3    H238094   4.220   4.990   1.995
12713TIP3   OH238095   7.999   7.119   1.424
12713TIP3    H138096   7.934   7.101   1.356
12713TIP3    H238097   8.038   7.034   1.443
12714TIP3   OH238098   1.457   7.345   4.759
12714TIP3    H138099   1.497   7.298   4.687
12714TIP3    H238100   1.467   7.437   4.736
12715TIP3   OH238101   1.012   7.072   0.510
12715TIP3    H138102   0.965   7.151   0.481
12715TIP3    H238103   1.104   7.099   0.513
12716TIP3   OH238104   7.266   5.305   2.881
12716TIP3    H138105   7.170   5.304   2.872
12716TIP3    H238106   7.283   5.372   2.947
12717TIP3   OH238107   5.326   3.202   1.363
12717TIP3    H138108   5.347   3.296   1.362
12717TIP3    H238109   5.234   3.198   1.386
12718TIP3   OH238110   0.190   2.394   4.656
12718TIP3    H138111   0.123   2.462   4.662
12718TIP3    H238112   0.237   2.399   4.739
12719TIP3   OH238113   8.213   5.012   4.669
12719TIP3    H138114   8.300   5.050   4.682
12719TIP3    H238115   8.227   4.937   4.612
12720TIP3   OH238116   5.179   3.049   4.734
12720TIP3    H138117   5.155   3.082   4.821
12720TIP3    H238118   5.149   3.117   4.674
12721TIP3   OH238119   1.809   6.730   6.170
12721TIP3    H138120   1.791   6.809   6.222
12721TIP3    H238121   1.757   6.742   6.091
12722TIP3   OH238122   5.436   5.229   4.598
12722TIP3    H138123   5.447   5.136   4.578
12722TIP3    H238124   5.354   5.234   4.648
12723TIP3   OH238125   3.229   2.023   6.458
12723TIP3    H138126   3.299   1.980   6.410
12723TIP3    H238127   3.261   2.112   6.473
12724TIP3   OH238128   5.351   2.358   0.830
12724TIP3    H138129   5.263   2.381   0.861
12724TIP3    H238130   5.392   2.443   0.812
12725TIP3   OH238131   5.466   6.695   5.338
12725TIP3    H138132   5.395   6.653   5.288
12725TIP3    H238133   5.430   6.779   5.364
12726TIP3   OH238134   2.900   0.743   1.149
12726TIP3    H138135   2.945   0.742   1.233
12726TIP3    H238136   2.921   0.658   1.110
12727TIP3   OH238137   2.267   5.380   5.917
12727TIP3    H138138   2.236   5.385   5.826
12727TIP3    H238139   2.195   5.414   5.969
12728TIP3   OH238140   4.008   3.296   1.545
12728TIP3    H138141   4.009   3.288   1.450
12728TIP3    H238142   3.937   3.238   1.573
12729TIP3   OH238143   1.482   1.133   2.099
12729TIP3    H138144   1.476   1.223   2.131
12729TIP3    H238145   1.543   1.090   2.160
12730TIP3   OH238146   3.099   3.517   5.358
12730TIP3    H138147   3.051   3.460   5.418
12730TIP3    H238148   3.088   3.604   5.395
12731TIP3   OH238149   3.624   6.620   6.097
12731TIP3    H138150   3.572   6.668   6.162
12731TIP3    H238151   3.641   6.683   6.027
12732TIP3   OH238152   1.782   6.933   0.657
12732TIP3    H138153   1.807   6.893   0.740
12732TIP3    H238154   1.864   6.953   0.614
12733TIP3   OH238155   3.169   0.073   1.884
12733TIP3    H138156   3.196   0.158   1.919
12733TIP3    H238157   3.101   0.095   1.820
12734TIP3   OH238158   5.976   3.477   3.570
12734TIP3    H138159   6.063   3.470   3.530
12734TIP3    H238160   5.955   3.388   3.598
12735TIP3   OH238161   5.817   5.310   2.822
12735TIP3    H138162   5.727   5.341   2.833
12735TIP3    H238163   5.860   5.330   2.906
12736TIP3   OH238164   5.471   5.231   0.958
12736TIP3    H138165   5.398   5.169   0.960
12736TIP3    H238166   5.447   5.294   0.890
12737TIP3   OH238167   0.381   7.169   6.672
12737TIP3    H138168   0.343   7.173   6.584
12737TIP3    H238169   0.343   7.091   6.711
12738TIP3   OH238170   1.612   6.744   3.560
12738TIP3    H138171   1.564   6.778   3.485
12738TIP3    H238172   1.634   6.654   3.536
12739TIP3   OH238173   6.994   5.962   0.758
12739TIP3    H138174   6.945   5.963   0.841
12739TIP3    H238175   6.926   5.956   0.691
12740TIP3   OH238176   5.491   6.708   3.457
12740TIP3    H138177   5.574   6.752   3.438
12740TIP3    H238178   5.440   6.716   3.376
12741TIP3   OH238179   8.314   4.787   3.211
12741TIP3    H138180   8.386   4.771   3.273
12741TIP3    H238181   8.327   4.723   3.142
12742TIP3   OH238182   6.179   3.335   3.844
12742TIP3    H138183   6.243   3.394   3.803
12742TIP3    H238184   6.150   3.278   3.773
12743TIP3   OH238185   5.516   4.131   0.135
12743TIP3    H138186   5.494   4.223   0.119
12743TIP3    H238187   5.570   4.106   0.061
12744TIP3   OH238188   1.038   4.852   1.753
12744TIP3    H138189   0.960   4.826   1.803
12744TIP3    H238190   1.072   4.769   1.717
12745TIP3   OH238191   1.217   0.761   6.099
12745TIP3    H138192   1.122   0.775   6.095
12745TIP3    H238193   1.249   0.833   6.154
12746TIP3   OH238194   6.904   4.285   4.860
12746TIP3    H138195   6.819   4.279   4.818
12746TIP3    H238196   6.937   4.372   4.835
12747TIP3   OH238197   0.299   7.352   3.694
12747TIP3    H138198   0.316   7.371   3.602
12747TIP3    H238199   0.245   7.426   3.724
12748TIP3   OH238200   4.538   5.344   0.507
12748TIP3    H138201   4.546   5.332   0.412
12748TIP3    H238202   4.591   5.422   0.526
12749TIP3   OH238203   3.155   6.016   3.998
12749TIP3    H138204   3.080   5.966   4.028
12749TIP3    H238205   3.231   5.970   4.034
12750TIP3   OH238206   5.685   6.020   3.397
12750TIP3    H138207   5.617   5.955   3.412
12750TIP3    H238208   5.640   6.104   3.404
12751TIP3   OH238209   7.332   5.506   1.583
12751TIP3    H138210   7.357   5.422   1.546
12751TIP3    H238211   7.401   5.526   1.647
12752TIP3   OH238212   0.233   2.760   1.852
12752TIP3    H138213   0.318   2.734   1.817
12752TIP3    H238214   0.237   2.855   1.857
12753TIP3   OH238215   2.765   6.787   2.541
12753TIP3    H138216   2.679   6.747   2.529
12753TIP3    H238217   2.746   6.881   2.551
12754TIP3   OH238218   3.023   6.762   5.986
12754TIP3    H138219   3.032   6.790   5.894
12754TIP3    H238220   2.947   6.704   5.985
12755TIP3   OH238221  -0.028   4.599   0.780
12755TIP3    H138222   0.050   4.653   0.782
12755TIP3    H238223  -0.006   4.522   0.833
12756TIP3   OH238224   5.417   3.575   2.750
12756TIP3    H138225   5.366   3.597   2.673
12756TIP3    H238226   5.373   3.620   2.822
12757TIP3   OH238227   3.245   1.272   0.343
12757TIP3    H138228   3.246   1.368   0.352
12757TIP3    H238229   3.243   1.257   0.249
12758TIP3   OH238230   0.089   6.404   2.045
12758TIP3    H138231   0.023   6.343   2.013
12758TIP3    H238232   0.146   6.351   2.101
12759TIP3   OH238233   7.782   4.226   5.444
12759TIP3    H138234   7.811   4.225   5.535
12759TIP3    H238235   7.863   4.237   5.393
12760TIP3   OH238236   2.257   4.107   1.713
12760TIP3    H138237   2.201   4.143   1.644
12760TIP3    H238238   2.197   4.068   1.776
12761TIP3   OH238239   4.556   6.498   0.053
12761TIP3    H138240   4.496   6.567   0.023
12761TIP3    H238241   4.629   6.544   0.093
12762TIP3   OH238242   3.700   3.859   2.412
12762TIP3    H138243   3.634   3.845   2.480
12762TIP3    H238244   3.781   3.823   2.449
12763TIP3   OH238245   0.805   1.963   4.695
12763TIP3    H138246   0.742   2.014   4.644
12763TIP3    H238247   0.773   1.967   4.785
12764TIP3   OH238248   4.416   3.052   1.397
12764TIP3    H138249   4.384   3.121   1.339
12764TIP3    H238250   4.495   3.089   1.437
12765TIP3   OH238251   4.034   7.774   3.031
12765TIP3    H138252   3.995   7.858   3.057
12765TIP3    H238253   3.967   7.709   3.054
12766TIP3   OH238254   2.626   6.580   5.661
12766TIP3    H138255   2.535   6.607   5.649
12766TIP3    H238256   2.620   6.494   5.704
12767TIP3   OH238257   6.175   4.277   2.702
12767TIP3    H138258   6.139   4.338   2.638
12767TIP3    H238259   6.266   4.264   2.676
12768TIP3   OH238260   7.700   6.594   5.042
12768TIP3    H138261   7.684   6.500   5.056
12768TIP3    H238262   7.724   6.601   4.950
12769TIP3   OH238263   7.139   5.452   2.217
12769TIP3    H138264   7.159   5.540   2.184
12769TIP3    H238265   7.088   5.467   2.297
12770TIP3   OH238266   3.824   6.484   3.952
12770TIP3    H138267   3.746   6.430   3.966
12770TIP3    H238268   3.803   6.568   3.993
12771TIP3   OH238269   7.496   6.406   0.926
12771TIP3    H138270   7.427   6.401   0.993
12771TIP3    H238271   7.555   6.475   0.957
12772TIP3   OH238272   3.597   6.655   4.836
12772TIP3    H138273   3.615   6.697   4.920
12772TIP3    H238274   3.512   6.690   4.810
12773TIP3   OH238275   2.292   4.464   0.084
12773TIP3    H138276   2.328   4.391   0.034
12773TIP3    H238277   2.199   4.442   0.095
12774TIP3   OH238278   0.265   5.840   6.195
12774TIP3    H138279   0.294   5.753   6.222
12774TIP3    H238280   0.268   5.892   6.275
12775TIP3   OH238281   4.316   0.701   3.197
12775TIP3    H138282   4.311   0.794   3.220
12775TIP3    H238283   4.263   0.657   3.264
12776TIP3   OH238284   3.586   4.342   0.875
12776TIP3    H138285   3.511   4.317   0.820
12776TIP3    H238286   3.659   4.290   0.840
12777TIP3   OH238287   2.996   5.771   6.195
12777TIP3    H138288   3.013   5.749   6.287
12777TIP3    H238289   2.976   5.686   6.154
12778TIP3   OH238290   3.298   4.143   6.740
12778TIP3    H138291   3.267   4.181   6.657
12778TIP3    H238292   3.386   4.178   6.751
12779TIP3   OH238293   4.147   1.662   3.420
12779TIP3    H138294   4.070   1.700   3.378
12779TIP3    H238295   4.118   1.641   3.508
12780TIP3   OH238296   0.373   7.474   1.566
12780TIP3    H138297   0.313   7.401   1.583
12780TIP3    H238298   0.387   7.513   1.652
12781TIP3   OH238299   3.257   0.678   0.872
12781TIP3    H138300   3.345   0.667   0.908
12781TIP3    H238301   3.210   0.730   0.938
12782TIP3   OH238302   6.327   4.152   4.720
12782TIP3    H138303   6.370   4.233   4.747
12782TIP3    H238304   6.392   4.107   4.666
12783TIP3   OH238305   1.485   0.902   4.068
12783TIP3    H138306   1.561   0.880   4.122
12783TIP3    H238307   1.411   0.894   4.128
12784TIP3   OH238308   3.112   3.475   4.275
12784TIP3    H138309   3.203   3.454   4.293
12784TIP3    H238310   3.107   3.570   4.280
12785TIP3   OH238311   1.064   7.758   2.026
12785TIP3    H138312   1.035   7.846   2.052
12785TIP3    H238313   1.151   7.749   2.065
12786TIP3   OH238314   6.635   0.038   5.860
12786TIP3    H138315   6.636   0.059   5.767
12786TIP3    H238316   6.563   0.089   5.896
12787TIP3   OH238317   3.605   6.047   4.015
12787TIP3    H138318   3.545   6.014   4.082
12787TIP3    H238319   3.611   5.976   3.951
12788TIP3   OH238320   4.107   1.448   4.485
12788TIP3    H138321   4.129   1.518   4.547
12788TIP3    H238322   4.160   1.468   4.408
12789TIP3   OH238323   4.375   6.017   3.173
12789TIP3    H138324   4.373   6.008   3.268
12789TIP3    H238325   4.430   6.094   3.158
12790TIP3   OH238326   3.573   1.717   0.247
12790TIP3    H138327   3.564   1.812   0.245
12790TIP3    H238328   3.574   1.694   0.340
12791TIP3   OH238329   4.525   3.935   1.367
12791TIP3    H138330   4.514   4.029   1.354
12791TIP3    H238331   4.580   3.907   1.294
12792TIP3   OH238332   0.544   5.820   0.105
12792TIP3    H138333   0.455   5.849   0.123
12792TIP3    H238334   0.598   5.897   0.123
12793TIP3   OH238335   7.742   3.109   0.224
12793TIP3    H138336   7.775   3.023   0.249
12793TIP3    H238337   7.667   3.091   0.168
12794TIP3   OH238338   5.189   4.331   1.782
12794TIP3    H138339   5.266   4.379   1.754
12794TIP3    H238340   5.215   4.239   1.782
12795TIP3   OH238341   0.440   0.446   5.753
12795TIP3    H138342   0.403   0.481   5.672
12795TIP3    H238343   0.424   0.514   5.818
12796TIP3   OH238344   6.844   3.370   1.457
12796TIP3    H138345   6.917   3.364   1.396
12796TIP3    H238346   6.885   3.369   1.544
12797TIP3   OH238347   5.731   0.689   5.899
12797TIP3    H138348   5.686   0.605   5.886
12797TIP3    H238349   5.738   0.697   5.994
12798TIP3   OH238350   5.244   3.581   2.531
12798TIP3    H138351   5.280   3.628   2.456
12798TIP3    H238352   5.276   3.491   2.520
12799TIP3   OH238353   4.373   3.887   0.216
12799TIP3    H138354   4.375   3.808   0.270
12799TIP3    H238355   4.304   3.870   0.152
12800TIP3   OH238356   6.113   4.886   1.117
12800TIP3    H138357   6.138   4.977   1.128
12800TIP3    H238358   6.018   4.888   1.106
12801TIP3   OH238359   4.058   1.531   0.771
12801TIP3    H138360   4.070   1.452   0.718
12801TIP3    H238361   4.009   1.591   0.715
12802TIP3   OH238362   2.410   7.260   2.632
12802TIP3    H138363   2.342   7.224   2.689
12802TIP3    H238364   2.381   7.350   2.615
12803TIP3   OH238365   7.257   5.783   4.375
12803TIP3    H138366   7.271   5.861   4.322
12803TIP3    H238367   7.343   5.744   4.385
12804TIP3   OH238368   7.199   0.871   0.471
12804TIP3    H138369   7.265   0.805   0.492
12804TIP3    H238370   7.234   0.915   0.393
12805TIP3   OH238371   6.575   1.297   1.011
12805TIP3    H138372   6.624   1.311   1.092
12805TIP3    H238373   6.643   1.285   0.944
12806TIP3   OH238374   2.862   0.447   0.536
12806TIP3    H138375   2.871   0.476   0.626
12806TIP3    H238376   2.825   0.359   0.542
12807TIP3   OH238377   2.846   6.991   1.287
12807TIP3    H138378   2.897   7.041   1.351
12807TIP3    H238379   2.911   6.941   1.238
12808TIP3   OH238380   7.050   5.072   2.640
12808TIP3    H138381   6.975   5.028   2.600
12808TIP3    H238382   7.076   5.015   2.712
12809TIP3   OH238383   5.185   4.628   1.591
12809TIP3    H138384   5.278   4.626   1.613
12809TIP3    H238385   5.140   4.614   1.674
12810TIP3   OH238386   7.519   5.537   5.599
12810TIP3    H138387   7.549   5.625   5.576
12810TIP3    H238388   7.591   5.479   5.572
12811TIP3   OH238389   5.421   7.273   5.070
12811TIP3    H138390   5.504   7.279   5.022
12811TIP3    H238391   5.401   7.363   5.095
12812TIP3   OH238392   3.664   0.305   3.849
12812TIP3    H138393   3.754   0.288   3.876
12812TIP3    H238394   3.621   0.336   3.928
12813TIP3   OH238395   6.281   2.445   5.582
12813TIP3    H138396   6.289   2.461   5.488
12813TIP3    H238397   6.224   2.368   5.588
12814TIP3   OH238398   8.316   3.826   3.728
12814TIP3    H138399   8.267   3.744   3.720
12814TIP3    H238400   8.251   3.891   3.752
12815TIP3   OH238401   3.150   6.676   0.969
12815TIP3    H138402   3.160   6.667   1.064
12815TIP3    H238403   3.229   6.720   0.940
12816TIP3   OH238404   1.539   7.299   6.217
12816TIP3    H138405   1.556   7.271   6.307
12816TIP3    H238406   1.507   7.389   6.225
12817TIP3   OH238407   7.270   6.000   3.877
12817TIP3    H138408   7.245   5.940   3.948
12817TIP3    H238409   7.198   6.063   3.873
12818TIP3   OH238410   0.657   4.487   6.389
12818TIP3    H138411   0.626   4.471   6.478
12818TIP3    H238412   0.717   4.414   6.371
12819TIP3   OH238413   5.214   6.657   2.573
12819TIP3    H138414   5.264   6.648   2.492
12819TIP3    H238415   5.277   6.690   2.637
12820TIP3   OH238416   6.975   2.644   2.353
12820TIP3    H138417   6.926   2.668   2.432
12820TIP3    H238418   7.065   2.670   2.372
12821TIP3   OH238419   0.559   0.203   5.456
12821TIP3    H138420   0.528   0.139   5.392
12821TIP3    H238421   0.654   0.206   5.442
12822TIP3   OH238422   0.119   4.723   0.515
12822TIP3    H138423   0.209   4.693   0.504
12822TIP3    H238424   0.112   4.742   0.609
12823TIP3   OH238425   2.984   3.027   2.748
12823TIP3    H138426   2.963   2.970   2.822
12823TIP3    H238427   3.018   3.107   2.787
12824TIP3   OH238428   5.203   4.374   5.463
12824TIP3    H138429   5.167   4.298   5.416
12824TIP3    H238430   5.171   4.363   5.552
12825TIP3   OH238431   2.713   6.507   3.489
12825TIP3    H138432   2.743   6.546   3.407
12825TIP3    H238433   2.776   6.438   3.508
12826TIP3   OH238434   7.342   7.720   0.740
12826TIP3    H138435   7.402   7.741   0.811
12826TIP3    H238436   7.346   7.796   0.682
12827TIP3   OH238437   7.958   1.327   6.249
12827TIP3    H138438   7.974   1.337   6.155
12827TIP3    H238439   7.887   1.263   6.255
12828TIP3   OH238440   0.318   6.670   1.887
12828TIP3    H138441   0.309   6.579   1.859
12828TIP3    H238442   0.230   6.696   1.913
12829TIP3   OH238443   3.420   4.150   4.849
12829TIP3    H138444   3.413   4.230   4.902
12829TIP3    H238445   3.507   4.156   4.809
12830TIP3   OH238446   3.102   3.293   3.214
12830TIP3    H138447   3.125   3.356   3.283
12830TIP3    H238448   3.076   3.347   3.140
12831TIP3   OH238449   1.194   2.058   4.041
12831TIP3    H138450   1.172   1.979   4.089
12831TIP3    H238451   1.233   2.026   3.959
12832TIP3   OH238452   6.176   6.052   3.418
12832TIP3    H138453   6.236   5.993   3.462
12832TIP3    H238454   6.118   6.084   3.487
12833TIP3   OH238455   4.372   3.145   4.789
12833TIP3    H138456   4.464   3.118   4.788
12833TIP3    H238457   4.353   3.159   4.882
12834TIP3   OH238458   2.889   2.400   0.078
12834TIP3    H138459   2.801   2.431   0.055
12834TIP3    H238460   2.884   2.305   0.070
12835TIP3   OH238461   8.289   0.966   3.535
12835TIP3    H138462   8.329   0.988   3.619
12835TIP3    H238463   8.199   0.942   3.557
12836TIP3   OH238464   4.197   4.747   5.944
12836TIP3    H138465   4.137   4.679   5.913
12836TIP3    H238466   4.186   4.818   5.881
12837TIP3   OH238467   6.412   0.006   6.423
12837TIP3    H138468   6.399   0.067   6.495
12837TIP3    H238469   6.444   0.061   6.351
12838TIP3   OH238470   1.911   4.789   6.716
12838TIP3    H138471   1.986   4.811   6.661
12838TIP3    H238472   1.847   4.750   6.655
12839TIP3   OH238473   2.384   5.839   6.458
12839TIP3    H138474   2.412   5.909   6.398
12839TIP3    H238475   2.334   5.779   6.404
12840TIP3   OH238476   5.043   7.142   2.184
12840TIP3    H138477   5.107   7.093   2.132
12840TIP3    H238478   5.054   7.107   2.273
12841TIP3   OH238479   3.012   6.352   4.588
12841TIP3    H138480   3.034   6.269   4.630
12841TIP3    H238481   2.992   6.411   4.661
12842TIP3   OH238482   2.833   0.481   0.088
12842TIP3    H138483   2.855   0.421   0.159
12842TIP3    H238484   2.767   0.539   0.125
12843TIP3   OH238485   5.164   6.051   5.298
12843TIP3    H138486   5.178   6.042   5.392
12843TIP3    H238487   5.141   6.143   5.285
12844TIP3   OH238488   3.622   7.550   3.383
12844TIP3    H138489   3.636   7.470   3.432
12844TIP3    H238490   3.588   7.613   3.447
12845TIP3   OH238491   6.060   1.075   1.940
12845TIP3    H138492   6.099   1.146   1.889
12845TIP3    H238493   5.986   1.046   1.887
12846TIP3   OH238494   3.058   2.027   4.792
12846TIP3    H138495   3.154   2.028   4.797
12846TIP3    H238496   3.036   2.106   4.742
12847TIP3   OH238497   5.793   5.723   5.468
12847TIP3    H138498   5.722   5.767   5.515
12847TIP3    H238499   5.871   5.740   5.520
12848TIP3   OH238500   4.616   1.746   5.062
12848TIP3    H138501   4.548   1.799   5.020
12848TIP3    H238502   4.629   1.787   5.147
12849TIP3   OH238503   2.735   6.247   5.501
12849TIP3    H138504   2.750   6.153   5.498
12849TIP3    H238505   2.682   6.260   5.580
12850TIP3   OH238506   3.439   4.615   2.837
12850TIP3    H138507   3.383   4.619   2.759
12850TIP3    H238508   3.424   4.527   2.873
12851TIP3   OH238509   4.773   3.451   3.716
12851TIP3    H138510   4.730   3.500   3.646
12851TIP3    H238511   4.794   3.367   3.677
12852TIP3   OH238512   1.551   0.403   5.025
12852TIP3    H138513   1.530   0.384   4.933
12852TIP3    H238514   1.476   0.369   5.074
12853TIP3   OH238515   4.252   1.058   1.107
12853TIP3    H138516   4.162   1.027   1.103
12853TIP3    H238517   4.251   1.129   1.171
12854TIP3   OH238518   0.043   7.645   2.229
12854TIP3    H138519   0.087   7.648   2.144
12854TIP3    H238520   0.017   7.735   2.246
12855TIP3   OH238521   4.796   6.889   4.490
12855TIP3    H138522   4.729   6.957   4.479
12855TIP3    H238523   4.747   6.811   4.518
12856TIP3   OH238524   6.625   6.614   2.759
12856TIP3    H138525   6.569   6.544   2.790
12856TIP3    H238526   6.677   6.640   2.835
12857TIP3   OH238527   4.657   5.972   4.571
12857TIP3    H138528   4.725   5.963   4.505
12857TIP3    H238529   4.642   5.883   4.603
12858TIP3   OH238530   4.189   3.366   1.732
12858TIP3    H138531   4.162   3.288   1.781
12858TIP3    H238532   4.124   3.373   1.662
12859TIP3   OH238533   0.198   3.552   3.570
12859TIP3    H138534   0.256   3.481   3.600
12859TIP3    H238535   0.239   3.631   3.603
12860TIP3   OH238536   0.000   2.417   1.488
12860TIP3    H138537  -0.045   2.502   1.484
12860TIP3    H238538   0.048   2.420   1.571
12861TIP3   OH238539   0.987   6.835   2.090
12861TIP3    H138540   0.930   6.839   2.013
12861TIP3    H238541   1.073   6.814   2.055
12862TIP3   OH238542   4.232   6.350   6.231
12862TIP3    H138543   4.318   6.358   6.272
12862TIP3    H238544   4.173   6.327   6.304
12863TIP3   OH238545   3.297   2.733   2.716
12863TIP3    H138546   3.213   2.712   2.675
12863TIP3    H238547   3.314   2.824   2.691
12864TIP3   OH238548   1.160   2.786   4.779
12864TIP3    H138549   1.218   2.858   4.803
12864TIP3    H238550   1.187   2.761   4.691
12865TIP3   OH238551   4.765   6.048   4.924
12865TIP3    H138552   4.700   5.977   4.922
12865TIP3    H238553   4.755   6.093   4.840
12866TIP3   OH238554   5.861   1.017   1.277
12866TIP3    H138555   5.791   0.989   1.218
12866TIP3    H238556   5.889   1.102   1.242
12867TIP3   OH238557   3.702   4.911   3.142
12867TIP3    H138558   3.758   4.979   3.105
12867TIP3    H238559   3.689   4.938   3.233
12868TIP3   OH238560   1.723   2.815   3.685
12868TIP3    H138561   1.668   2.749   3.642
12868TIP3    H238562   1.672   2.896   3.679
12869TIP3   OH238563   6.240   1.395   2.646
12869TIP3    H138564   6.238   1.441   2.562
12869TIP3    H238565   6.315   1.337   2.640
12870TIP3   OH238566   3.782   1.172   2.653
12870TIP3    H138567   3.853   1.116   2.685
12870TIP3    H238568   3.800   1.183   2.560
12871TIP3   OH238569   4.856   1.007   1.398
12871TIP3    H138570   4.950   0.988   1.395
12871TIP3    H238571   4.815   0.927   1.364
12872TIP3   OH238572   3.716   1.253   4.968
12872TIP3    H138573   3.758   1.173   4.937
12872TIP3    H238574   3.631   1.255   4.924
12873TIP3   OH238575   6.518   4.977   0.402
12873TIP3    H138576   6.448   5.011   0.458
12873TIP3    H238577   6.599   5.007   0.442
12874TIP3   OH238578   6.861   5.451   0.729
12874TIP3    H138579   6.915   5.449   0.649
12874TIP3    H238580   6.828   5.540   0.733
12875TIP3   OH238581   2.314   2.129   6.292
12875TIP3    H138582   2.231   2.124   6.246
12875TIP3    H238583   2.346   2.039   6.296
12876TIP3   OH238584   0.057   7.304   5.596
12876TIP3    H138585   0.057   7.209   5.579
12876TIP3    H238586  -0.035   7.328   5.595
12877TIP3   OH238587   5.533   0.497   5.961
12877TIP3    H138588   5.585   0.418   5.977
12877TIP3    H238589   5.458   0.466   5.911
12878TIP3   OH238590   0.559   2.444   6.128
12878TIP3    H138591   0.645   2.406   6.108
12878TIP3    H238592   0.497   2.374   6.107
12879TIP3   OH238593   0.660   6.114   0.683
12879TIP3    H138594   0.723   6.114   0.611
12879TIP3    H238595   0.712   6.095   0.761
12880TIP3   OH238596   5.418   3.445   4.689
12880TIP3    H138597   5.330   3.474   4.666
12880TIP3    H238598   5.409   3.351   4.704
12881TIP3   OH238599   5.466   2.709   3.145
12881TIP3    H138600   5.437   2.719   3.236
12881TIP3    H238601   5.561   2.713   3.150
12882TIP3   OH238602   3.643   0.553   4.161
12882TIP3    H138603   3.583   0.613   4.205
12882TIP3    H238604   3.594   0.521   4.086
12883TIP3   OH238605   7.321   0.172   0.572
12883TIP3    H138606   7.357   0.238   0.513
12883TIP3    H238607   7.315   0.216   0.657
12884TIP3   OH238608   2.481   2.899   0.157
12884TIP3    H138609   2.456   2.808   0.141
12884TIP3    H238610   2.414   2.951   0.112
12885TIP3   OH238611   4.513   2.354   4.539
12885TIP3    H138612   4.502   2.262   4.513
12885TIP3    H238613   4.427   2.381   4.569
12886TIP3   OH238614   0.324   5.895   4.903
12886TIP3    H138615   0.322   5.808   4.864
12886TIP3    H238616   0.234   5.910   4.934
12887TIP3   OH238617   6.690   0.045   1.108
12887TIP3    H138618   6.629   0.060   1.180
12887TIP3    H238619   6.745   0.123   1.106
12888TIP3   OH238620   1.264   6.792   3.580
12888TIP3    H138621   1.347   6.819   3.619
12888TIP3    H238622   1.279   6.701   3.554
12889TIP3   OH238623   0.582   3.736   3.722
12889TIP3    H138624   0.503   3.705   3.767
12889TIP3    H238625   0.627   3.789   3.787
12890TIP3   OH238626   3.298   1.580   2.286
12890TIP3    H138627   3.372   1.631   2.321
12890TIP3    H238628   3.333   1.537   2.208
12891TIP3   OH238629   0.294   1.251   4.307
12891TIP3    H138630   0.367   1.189   4.303
12891TIP3    H238631   0.247   1.227   4.386
12892TIP3   OH238632   4.728   3.411   2.816
12892TIP3    H138633   4.680   3.474   2.869
12892TIP3    H238634   4.717   3.328   2.861
12893TIP3   OH238635   6.637   2.976   4.085
12893TIP3    H138636   6.607   2.914   4.151
12893TIP3    H238637   6.699   2.925   4.032
12894TIP3   OH238638   2.933   3.959   5.655
12894TIP3    H138639   2.921   4.032   5.595
12894TIP3    H238640   2.999   3.990   5.717
12895TIP3   OH238641   7.251   5.419   5.518
12895TIP3    H138642   7.338   5.457   5.534
12895TIP3    H238643   7.270   5.329   5.489
12896TIP3   OH238644   5.245   0.683   0.022
12896TIP3    H138645   5.231   0.741  -0.053
12896TIP3    H238646   5.321   0.629  -0.004
12897TIP3   OH238647   1.399   4.704   1.496
12897TIP3    H138648   1.340   4.735   1.564
12897TIP3    H238649   1.367   4.616   1.474
12898TIP3   OH238650   6.384   3.356   6.247
12898TIP3    H138651   6.314   3.295   6.225
12898TIP3    H238652   6.351   3.404   6.323
12899TIP3   OH238653   7.949   7.607   1.175
12899TIP3    H138654   7.911   7.572   1.256
12899TIP3    H238655   8.018   7.544   1.152
12900TIP3   OH238656   5.124   4.874   1.931
12900TIP3    H138657   5.172   4.864   2.013
12900TIP3    H238658   5.095   4.785   1.909
12901TIP3   OH238659   4.950   3.580   2.912
12901TIP3    H138660   4.862   3.554   2.886
12901TIP3    H238661   4.985   3.626   2.836
12902TIP3   OH238662   2.654   5.076   1.295
12902TIP3    H138663   2.715   5.019   1.248
12902TIP3    H238664   2.676   5.064   1.387
12903TIP3   OH238665   6.366   3.057   1.752
12903TIP3    H138666   6.327   3.041   1.666
12903TIP3    H238667   6.338   2.983   1.806
12904TIP3   OH238668   0.781   7.454   2.821
12904TIP3    H138669   0.864   7.501   2.817
12904TIP3    H238670   0.788   7.389   2.751
12905TIP3   OH238671   3.931   5.249   1.487
12905TIP3    H138672   3.895   5.169   1.524
12905TIP3    H238673   3.982   5.221   1.412
12906TIP3   OH238674   6.906   3.379   0.092
12906TIP3    H138675   6.899   3.458   0.039
12906TIP3    H238676   6.866   3.402   0.176
12907TIP3   OH238677   2.325   6.497   5.224
12907TIP3    H138678   2.408   6.461   5.256
12907TIP3    H238679   2.269   6.500   5.301
12908TIP3   OH238680   1.925   2.074   5.386
12908TIP3    H138681   1.882   2.029   5.458
12908TIP3    H238682   1.909   2.018   5.309
12909TIP3   OH238683   3.789   7.624   6.135
12909TIP3    H138684   3.717   7.684   6.117
12909TIP3    H238685   3.857   7.648   6.072
12910TIP3   OH238686   2.041   0.890   3.869
12910TIP3    H138687   2.027   0.920   3.959
12910TIP3    H238688   2.002   0.958   3.815
12911TIP3   OH238689   3.660   3.162   3.678
12911TIP3    H138690   3.594   3.204   3.623
12911TIP3    H238691   3.659   3.211   3.760
12912TIP3   OH238692   4.532   1.460   1.787
12912TIP3    H138693   4.572   1.465   1.700
12912TIP3    H238694   4.601   1.425   1.843
12913TIP3   OH238695   7.780   4.833   1.906
12913TIP3    H138696   7.738   4.795   1.829
12913TIP3    H238697   7.859   4.780   1.919
12914TIP3   OH238698   7.900   6.020   2.752
12914TIP3    H138699   7.929   5.937   2.790
12914TIP3    H238700   7.839   5.994   2.683
12915TIP3   OH238701   5.381   3.319   5.301
12915TIP3    H138702   5.391   3.280   5.388
12915TIP3    H238703   5.423   3.256   5.242
12916TIP3   OH238704   2.221   1.111   3.507
12916TIP3    H138705   2.292   1.169   3.534
12916TIP3    H238706   2.264   1.027   3.489
12917TIP3   OH238707   4.803   4.390   1.861
12917TIP3    H138708   4.710   4.380   1.881
12917TIP3    H238709   4.848   4.356   1.939
12918TIP3   OH238710   6.019   3.693   2.861
12918TIP3    H138711   6.000   3.753   2.933
12918TIP3    H238712   6.008   3.606   2.898
12919TIP3   OH238713   7.406   7.042   4.756
12919TIP3    H138714   7.332   6.983   4.770
12919TIP3    H238715   7.483   6.989   4.776
12920TIP3   OH238716   5.044   5.147   4.451
12920TIP3    H138717   5.094   5.105   4.381
12920TIP3    H238718   5.103   5.146   4.527
12921TIP3   OH238719   7.566   7.653   5.749
12921TIP3    H138720   7.525   7.700   5.675
12921TIP3    H238721   7.646   7.702   5.766
12922TIP3   OH238722   4.395   2.741   6.478
12922TIP3    H138723   4.427   2.831   6.470
12922TIP3    H238724   4.392   2.724   6.572
12923TIP3   OH238725   4.608   2.645   1.654
12923TIP3    H138726   4.563   2.669   1.735
12923TIP3    H238727   4.569   2.562   1.628
12924TIP3   OH238728   0.250   6.437   2.498
12924TIP3    H138729   0.204   6.519   2.517
12924TIP3    H238730   0.260   6.395   2.583
12925TIP3   OH238731   6.064   5.588   5.704
12925TIP3    H138732   6.094   5.616   5.618
12925TIP3    H238733   6.096   5.497   5.712
12926TIP3   OH238734   1.924   2.434   2.197
12926TIP3    H138735   1.935   2.383   2.278
12926TIP3    H238736   1.981   2.510   2.209
12927TIP3   OH238737   7.486   3.058   0.112
12927TIP3    H138738   7.400   3.073   0.152
12927TIP3    H238739   7.478   2.973   0.069
12928TIP3   OH238740   6.768   3.881   0.748
12928TIP3    H138741   6.842   3.822   0.760
12928TIP3    H238742   6.806   3.969   0.748
12929TIP3   OH238743   1.790   1.148   5.605
12929TIP3    H138744   1.711   1.150   5.659
12929TIP3    H238745   1.769   1.088   5.533
12930TIP3   OH238746   2.437   5.308   6.388
12930TIP3    H138747   2.487   5.240   6.434
12930TIP3    H238748   2.372   5.337   6.451
12931TIP3   OH238749   1.944   3.734   0.824
12931TIP3    H138750   1.898   3.651   0.813
12931TIP3    H238751   1.989   3.725   0.908
12932TIP3   OH238752   7.387   4.804   5.848
12932TIP3    H138753   7.477   4.833   5.863
12932TIP3    H238754   7.395   4.734   5.783
12933TIP3   OH238755   5.252   6.950   2.342
12933TIP3    H138756   5.194   6.957   2.418
12933TIP3    H238757   5.330   6.906   2.375
12934TIP3   OH238758   6.205   5.276   2.209
12934TIP3    H138759   6.165   5.300   2.126
12934TIP3    H238760   6.296   5.255   2.188
12935TIP3   OH238761   0.842   1.446   3.308
12935TIP3    H138762   0.835   1.520   3.367
12935TIP3    H238763   0.893   1.480   3.234
12936TIP3   OH238764   3.676   0.068   2.580
12936TIP3    H138765   3.709   0.157   2.575
12936TIP3    H238766   3.657   0.054   2.673
12937TIP3   OH238767   2.884   1.360   0.463
12937TIP3    H138768   2.916   1.335   0.550
12937TIP3    H238769   2.906   1.453   0.456
12938TIP3   OH238770   0.254   3.358   5.690
12938TIP3    H138771   0.167   3.331   5.720
12938TIP3    H238772   0.266   3.310   5.608
12939TIP3   OH238773   0.634   2.574   1.801
12939TIP3    H138774   0.683   2.499   1.836
12939TIP3    H238775   0.633   2.561   1.707
12940TIP3   OH238776   3.452   0.713   5.129
12940TIP3    H138777   3.494   0.728   5.213
12940TIP3    H238778   3.466   0.794   5.080
12941TIP3   OH238779   0.861   1.120   4.325
12941TIP3    H138780   0.850   1.025   4.327
12941TIP3    H238781   0.787   1.152   4.273
12942TIP3   OH238782   6.270   2.736   5.960
12942TIP3    H138783   6.339   2.779   6.010
12942TIP3    H238784   6.207   2.707   6.025
12943TIP3   OH238785   4.743   0.493   1.013
12943TIP3    H138786   4.692   0.543   0.949
12943TIP3    H238787   4.834   0.514   0.992
12944TIP3   OH238788   2.607   6.478   0.900
12944TIP3    H138789   2.695   6.445   0.921
12944TIP3    H238790   2.557   6.400   0.877
12945TIP3   OH238791   0.880   4.052   6.260
12945TIP3    H138792   0.803   4.099   6.226
12945TIP3    H238793   0.913   4.109   6.330
12946TIP3   OH238794   3.233   1.002   1.757
12946TIP3    H138795   3.195   0.914   1.757
12946TIP3    H238796   3.231   1.028   1.849
12947TIP3   OH238797   3.100   0.180   4.401
12947TIP3    H138798   3.167   0.247   4.413
12947TIP3    H238799   3.098   0.164   4.307
12948TIP3   OH238800   1.004   2.247   4.052
12948TIP3    H138801   1.082   2.193   4.066
12948TIP3    H238802   0.935   2.184   4.028
12949TIP3   OH238803   1.726   4.698   3.729
12949TIP3    H138804   1.764   4.674   3.644
12949TIP3    H238805   1.648   4.749   3.707
12950TIP3   OH238806   2.618   1.466   1.096
12950TIP3    H138807   2.540   1.512   1.066
12950TIP3    H238808   2.675   1.535   1.129
12951TIP3   OH238809   1.107   4.482   3.613
12951TIP3    H138810   1.134   4.413   3.553
12951TIP3    H238811   1.100   4.560   3.559
12952TIP3   OH238812   7.304   2.763   6.567
12952TIP3    H138813   7.312   2.715   6.485
12952TIP3    H238814   7.280   2.852   6.540
12953TIP3   OH238815   0.289   4.696   3.090
12953TIP3    H138816   0.287   4.749   3.169
12953TIP3    H238817   0.225   4.627   3.106
12954TIP3   OH238818   4.818   1.757   3.921
12954TIP3    H138819   4.801   1.698   3.994
12954TIP3    H238820   4.758   1.728   3.852
12955TIP3   OH238821   1.543   2.873   4.969
12955TIP3    H138822   1.500   2.946   5.013
12955TIP3    H238823   1.616   2.850   5.025
12956TIP3   OH238824   1.594   6.044   4.342
12956TIP3    H138825   1.576   6.032   4.435
12956TIP3    H238826   1.685   6.016   4.331
12957TIP3   OH238827   1.517   4.350   6.191
12957TIP3    H138828   1.445   4.359   6.129
12957TIP3    H238829   1.543   4.259   6.184
12958TIP3   OH238830   2.283   3.797   0.016
12958TIP3    H138831   2.331   3.843  -0.053
12958TIP3    H238832   2.286   3.856   0.091
12959TIP3   OH238833   6.723   6.345   2.380
12959TIP3    H138834   6.764   6.302   2.456
12959TIP3    H238835   6.778   6.422   2.364
12960TIP3   OH238836   7.308   1.420   6.196
12960TIP3    H138837   7.342   1.348   6.250
12960TIP3    H238838   7.260   1.475   6.257
12961TIP3   OH238839   2.838   7.774   6.361
12961TIP3    H138840   2.899   7.704   6.384
12961TIP3    H238841   2.762   7.760   6.418
12962TIP3   OH238842   3.252   4.545   0.353
12962TIP3    H138843   3.285   4.456   0.350
12962TIP3    H238844   3.156   4.536   0.357
12963TIP3   OH238845   3.046   0.139   6.094
12963TIP3    H138846   2.961   0.163   6.131
12963TIP3    H238847   3.089   0.090   6.163
12964TIP3   OH238848   1.763   6.304   1.065
12964TIP3    H138849   1.834   6.368   1.060
12964TIP3    H238850   1.713   6.329   1.143
12965TIP3   OH238851   1.754   1.743   1.147
12965TIP3    H138852   1.727   1.804   1.214
12965TIP3    H238853   1.843   1.718   1.172
12966TIP3   OH238854   1.667   4.260   1.836
12966TIP3    H138855   1.574   4.261   1.858
12966TIP3    H238856   1.680   4.338   1.782
12967TIP3   OH238857   1.296   2.303   4.112
12967TIP3    H138858   1.303   2.210   4.090
12967TIP3    H238859   1.336   2.310   4.199
12968TIP3   OH238860   6.535   5.391   5.705
12968TIP3    H138861   6.544   5.373   5.798
12968TIP3    H238862   6.580   5.319   5.662
12969TIP3   OH238863   6.390   1.447   3.895
12969TIP3    H138864   6.397   1.542   3.902
12969TIP3    H238865   6.467   1.421   3.844
12970TIP3   OH238866   1.329   2.268   6.163
12970TIP3    H138867   1.366   2.316   6.089
12970TIP3    H238868   1.237   2.293   6.165
12971TIP3   OH238869   3.537   4.508   3.230
12971TIP3    H138870   3.630   4.507   3.209
12971TIP3    H238871   3.519   4.421   3.265
12972TIP3   OH238872   5.786   6.082   4.837
12972TIP3    H138873   5.713   6.055   4.781
12972TIP3    H238874   5.845   6.006   4.837
12973TIP3   OH238875   7.673   7.576   0.820
12973TIP3    H138876   7.606   7.527   0.772
12973TIP3    H238877   7.713   7.633   0.755
12974TIP3   OH238878   3.446   2.486   6.500
12974TIP3    H138879   3.450   2.417   6.567
12974TIP3    H238880   3.465   2.567   6.547
12975TIP3   OH238881   5.845   2.781   3.861
12975TIP3    H138882   5.913   2.849   3.860
12975TIP3    H238883   5.893   2.699   3.871
12976TIP3   OH238884   1.765   1.182   3.479
12976TIP3    H138885   1.719   1.100   3.495
12976TIP3    H238886   1.857   1.157   3.471
12977TIP3   OH238887   0.188   0.372   0.015
12977TIP3    H138888   0.140   0.447   0.051
12977TIP3    H238889   0.265   0.364   0.071
12978TIP3   OH238890   2.121   5.560   4.348
12978TIP3    H138891   2.115   5.471   4.313
12978TIP3    H238892   2.186   5.603   4.292
12979TIP3   OH238893   0.954   0.911   3.078
12979TIP3    H138894   1.047   0.919   3.099
12979TIP3    H238895   0.946   0.823   3.041
12980TIP3   OH238896   4.935   4.951   5.897
12980TIP3    H138897   5.027   4.957   5.925
12980TIP3    H238898   4.889   5.012   5.954
12981TIP3   OH238899   2.352   1.523   5.123
12981TIP3    H138900   2.367   1.553   5.213
12981TIP3    H238901   2.334   1.429   5.132
12982TIP3   OH238902   6.670   1.457   3.095
12982TIP3    H138903   6.711   1.476   3.011
12982TIP3    H238904   6.677   1.362   3.105
12983TIP3   OH238905   0.471   3.124   2.950
12983TIP3    H138906   0.462   3.170   2.867
12983TIP3    H238907   0.480   3.194   3.015
12984TIP3   OH238908   5.005   4.379   5.978
12984TIP3    H138909   4.927   4.390   6.033
12984TIP3    H238910   5.025   4.286   5.983
12985TIP3   OH238911   7.851   5.103   1.863
12985TIP3    H138912   7.931   5.090   1.914
12985TIP3    H238913   7.814   5.016   1.854
12986TIP3   OH238914   6.580   1.130   6.012
12986TIP3    H138915   6.521   1.067   6.053
12986TIP3    H238916   6.665   1.113   6.053
12987TIP3   OH238917   7.420   5.172   6.582
12987TIP3    H138918   7.469   5.103   6.629
12987TIP3    H238919   7.486   5.238   6.561
12988TIP3   OH238920   1.304   2.756   3.846
12988TIP3    H138921   1.260   2.693   3.789
12988TIP3    H238922   1.285   2.841   3.807
12989TIP3   OH238923   8.248   6.909   4.371
12989TIP3    H138924   8.263   6.845   4.441
12989TIP3    H238925   8.198   6.862   4.305
12990TIP3   OH238926   6.112   1.693   3.883
12990TIP3    H138927   6.172   1.762   3.853
12990TIP3    H238928   6.149   1.612   3.848
12991TIP3   OH238929   3.103   2.585   5.219
12991TIP3    H138930   3.088   2.636   5.299
12991TIP3    H238931   3.179   2.531   5.239
12992TIP3   OH238932   4.008   1.402   3.394
12992TIP3    H138933   4.018   1.493   3.365
12992TIP3    H238934   4.008   1.350   3.313
12993TIP3   OH238935   2.686   0.912   6.043
12993TIP3    H138936   2.677   0.881   5.953
12993TIP3    H238937   2.661   0.837   6.096
12994TIP3   OH238938   5.585   0.075   3.709
12994TIP3    H138939   5.626   0.156   3.678
12994TIP3    H238940   5.649   0.037   3.769
12995TIP3   OH238941   2.226   2.464   5.978
12995TIP3    H138942   2.135   2.486   5.998
12995TIP3    H238943   2.277   2.533   6.020
12996TIP3   OH238944   0.872   0.588   5.370
12996TIP3    H138945   0.827   0.546   5.443
12996TIP3    H238946   0.929   0.653   5.411
12997TIP3   OH238947   6.977   2.349   3.662
12997TIP3    H138948   6.919   2.273   3.657
12997TIP3    H238949   7.042   2.326   3.728
12998TIP3   OH238950   7.887   6.520   6.451
12998TIP3    H138951   7.954   6.452   6.443
12998TIP3    H238952   7.896   6.571   6.370
12999TIP3   OH238953   4.928   7.175   1.921
12999TIP3    H138954   4.980   7.142   1.848
12999TIP3    H238955   4.842   7.192   1.883
13000TIP3   OH238956   1.737   5.856   6.287
13000TIP3    H138957   1.827   5.852   6.319
13000TIP3    H238958   1.714   5.765   6.268
13001TIP3   OH238959   0.905   3.241   1.559
13001TIP3    H138960   0.854   3.167   1.591
13001TIP3    H238961   0.894   3.239   1.464
13002TIP3   OH238962   8.260   0.536   3.657
13002TIP3    H138963   8.231   0.459   3.706
13002TIP3    H238964   8.257   0.608   3.720
13003TIP3   OH238965   5.236   0.129   4.179
13003TIP3    H138966   5.250   0.220   4.154
13003TIP3    H238967   5.153   0.129   4.228
13004TIP3   OH238968   8.221   0.611   0.972
13004TIP3    H138969   8.175   0.601   1.055
13004TIP3    H238970   8.153   0.637   0.910
13005TIP3   OH238971   4.949   1.518   2.474
13005TIP3    H138972   4.896   1.474   2.408
13005TIP3    H238973   4.910   1.604   2.483
13006TIP3   OH238974   5.346   1.064   2.458
13006TIP3    H138975   5.252   1.050   2.454
13006TIP3    H238976   5.384   0.978   2.438
13007TIP3   OH238977   0.732   5.751   6.665
13007TIP3    H138978   0.804   5.692   6.641
13007TIP3    H238979   0.772   5.818   6.720
13008TIP3   OH238980   1.516   5.920   2.176
13008TIP3    H138981   1.545   5.864   2.105
13008TIP3    H238982   1.483   5.999   2.133
13009TIP3   OH238983   1.328   2.404   4.997
13009TIP3    H138984   1.242   2.368   5.020
13009TIP3    H238985   1.317   2.499   5.005
13010TIP3   OH238986   7.978   7.544   6.344
13010TIP3    H138987   7.980   7.594   6.262
13010TIP3    H238988   8.053   7.576   6.393
13011TIP3   OH238989   0.320   1.337   3.737
13011TIP3    H138990   0.361   1.287   3.667
13011TIP3    H238991   0.361   1.423   3.732
13012TIP3   OH238992   7.872   7.756   1.745
13012TIP3    H138993   7.912   7.787   1.826
13012TIP3    H238994   7.815   7.684   1.772
13013TIP3   OH238995   6.007   4.576   1.569
13013TIP3    H138996   6.015   4.600   1.477
13013TIP3    H238997   5.999   4.659   1.615
13014TIP3   OH238998   0.069   5.132   1.861
13014TIP3    H138999   0.137   5.184   1.904
13014TIP3    H239000   0.074   5.158   1.769
13015TIP3   OH239001   0.582   1.142   3.712
13015TIP3    H139002   0.596   1.050   3.731
13015TIP3    H239003   0.583   1.148   3.617
13016TIP3   OH239004   8.111   3.771   1.767
13016TIP3    H139005   8.101   3.676   1.765
13016TIP3    H239006   8.108   3.793   1.860
13017TIP3   OH239007   4.742   2.534   1.394
13017TIP3    H139008   4.720   2.499   1.480
13017TIP3    H239009   4.785   2.618   1.413
13018TIP3   OH239010   2.292   1.817   5.650
13018TIP3    H139011   2.288   1.787   5.559
13018TIP3    H239012   2.359   1.762   5.691
13019TIP3   OH239013   5.716   5.197   1.041
13019TIP3    H139014   5.623   5.209   1.023
13019TIP3    H239015   5.726   5.221   1.133
13020TIP3   OH239016   8.122   5.754   5.237
13020TIP3    H139017   8.086   5.761   5.326
13020TIP3    H239018   8.047   5.762   5.179
13021TIP3   OH239019   6.673   7.589   2.177
13021TIP3    H139020   6.668   7.552   2.266
13021TIP3    H239021   6.651   7.681   2.189
13022TIP3   OH239022   4.648   2.256   5.778
13022TIP3    H139023   4.554   2.272   5.776
13022TIP3    H239024   4.687   2.340   5.752
13023TIP3   OH239025   2.985   5.290   5.338
13023TIP3    H139026   3.061   5.338   5.305
13023TIP3    H239027   2.933   5.271   5.260
13024TIP3   OH239028   7.729   2.843   0.667
13024TIP3    H139029   7.773   2.763   0.695
13024TIP3    H239030   7.662   2.815   0.606
13025TIP3   OH239031   6.540   3.429   4.074
13025TIP3    H139032   6.500   3.482   4.005
13025TIP3    H239033   6.595   3.366   4.027
13026TIP3   OH239034   4.761   5.476   2.564
13026TIP3    H139035   4.792   5.409   2.503
13026TIP3    H239036   4.838   5.498   2.616
13027TIP3   OH239037   6.649   5.669   5.646
13027TIP3    H139038   6.612   5.693   5.731
13027TIP3    H239039   6.718   5.606   5.667
13028TIP3   OH239040   3.400   7.287   6.369
13028TIP3    H139041   3.377   7.233   6.294
13028TIP3    H239042   3.435   7.367   6.331
13029TIP3   OH239043   3.854   1.897   4.825
13029TIP3    H139044   3.782   1.918   4.884
13029TIP3    H239045   3.825   1.928   4.740
13030TIP3   OH239046   2.461   4.331   4.858
13030TIP3    H139047   2.406   4.371   4.790
13030TIP3    H239048   2.513   4.404   4.892
13031TIP3   OH239049   5.852   2.098   1.139
13031TIP3    H139050   5.821   2.188   1.150
13031TIP3    H239051   5.792   2.045   1.190
13032TIP3   OH239052   8.199   6.440   5.713
13032TIP3    H139053   8.123   6.401   5.757
13032TIP3    H239054   8.162   6.510   5.660
13033TIP3   OH239055   3.944   4.343   2.529
13033TIP3    H139056   3.955   4.438   2.525
13033TIP3    H239057   3.919   4.318   2.441
13034TIP3   OH239058   0.059   1.048   2.184
13034TIP3    H139059   0.042   1.139   2.207
13034TIP3    H239060   0.018   0.998   2.255
13035TIP3   OH239061   8.235   0.298   2.041
13035TIP3    H139062   8.283   0.286   1.959
13035TIP3    H239063   8.253   0.218   2.091
13036TIP3   OH239064   0.133   5.067   3.259
13036TIP3    H139065   0.067   5.000   3.240
13036TIP3    H239066   0.098   5.115   3.334
13037TIP3   OH239067   1.189   6.753   0.346
13037TIP3    H139068   1.163   6.686   0.283
13037TIP3    H239069   1.144   6.730   0.427
13038TIP3   OH239070   5.716   0.833   5.445
13038TIP3    H139071   5.657   0.761   5.467
13038TIP3    H239072   5.798   0.811   5.489
13039TIP3   OH239073   7.447   0.509   2.980
13039TIP3    H139074   7.402   0.511   3.064
13039TIP3    H239075   7.521   0.451   2.993
13040TIP3   OH239076   3.117   7.559   2.073
13040TIP3    H139077   3.054   7.624   2.040
13040TIP3    H239078   3.194   7.570   2.018
13041TIP3   OH239079   3.743   7.052   1.908
13041TIP3    H139080   3.757   6.974   1.854
13041TIP3    H239081   3.808   7.044   1.978
13042TIP3   OH239082   7.795   7.629   3.085
13042TIP3    H139083   7.769   7.677   3.164
13042TIP3    H239084   7.861   7.567   3.116
13043TIP3   OH239085   0.447   6.028   2.967
13043TIP3    H139086   0.451   5.999   3.058
13043TIP3    H239087   0.462   6.122   2.970
13044TIP3   OH239088   8.078   1.413   0.984
13044TIP3    H139089   8.062   1.347   0.916
13044TIP3    H239090   8.050   1.371   1.065
13045TIP3   OH239091   4.649   5.398   1.003
13045TIP3    H139092   4.722   5.336   1.002
13045TIP3    H239093   4.666   5.455   1.078
13046TIP3   OH239094   3.251   3.927   3.161
13046TIP3    H139095   3.187   3.995   3.139
13046TIP3    H239096   3.257   3.929   3.257
13047TIP3   OH239097   4.879   7.601   6.033
13047TIP3    H139098   4.911   7.678   5.986
13047TIP3    H239099   4.898   7.619   6.125
13048TIP3   OH239100   1.367   3.537   6.635
13048TIP3    H139101   1.449   3.580   6.660
13048TIP3    H239102   1.360   3.463   6.695
13049TIP3   OH239103   6.752   6.328   5.028
13049TIP3    H139104   6.709   6.254   5.071
13049TIP3    H239105   6.711   6.333   4.942
13050TIP3   OH239106   4.292   6.064   0.110
13050TIP3    H139107   4.333   6.140   0.068
13050TIP3    H239108   4.203   6.093   0.129
13051TIP3   OH239109   1.294   3.496   4.924
13051TIP3    H139110   1.241   3.516   5.001
13051TIP3    H239111   1.306   3.581   4.881
13052TIP3   OH239112   6.596   5.026   4.545
13052TIP3    H139113   6.692   5.022   4.545
13052TIP3    H239114   6.569   4.940   4.578
13053TIP3   OH239115   0.762   0.975   0.355
13053TIP3    H139116   0.695   1.005   0.416
13053TIP3    H239117   0.792   1.054   0.311
13054TIP3   OH239118   1.587   3.650   6.753
13054TIP3    H139119   1.663   3.628   6.699
13054TIP3    H239120   1.623   3.703   6.824
13055TIP3   OH239121   2.141   7.201   2.171
13055TIP3    H139122   2.070   7.150   2.209
13055TIP3    H239123   2.212   7.194   2.234
13056TIP3   OH239124   3.669   1.692   0.624
13056TIP3    H139125   3.712   1.660   0.703
13056TIP3    H239126   3.738   1.736   0.574
13057TIP3   OH239127   5.894   1.517   0.948
13057TIP3    H139128   5.970   1.471   0.984
13057TIP3    H239129   5.904   1.607   0.978
13058TIP3   OH239130   7.900   3.193   4.807
13058TIP3    H139131   7.937   3.124   4.862
13058TIP3    H239132   7.888   3.152   4.721
13059TIP3   OH239133   4.933   4.336   5.249
13059TIP3    H139134   4.935   4.243   5.274
13059TIP3    H239135   4.931   4.334   5.153
13060TIP3   OH239136   2.101   5.429   2.206
13060TIP3    H139137   2.061   5.342   2.206
13060TIP3    H239138   2.034   5.486   2.168
13061TIP3   OH239139   2.953   1.745   0.026
13061TIP3    H139140   2.996   1.715  -0.054
13061TIP3    H239141   2.885   1.806  -0.005
13062TIP3   OH239142   4.083   0.838   3.051
13062TIP3    H139143   4.139   0.763   3.031
13062TIP3    H239144   4.021   0.805   3.116
13063TIP3   OH239145   0.987   0.134   3.789
13063TIP3    H139146   1.051   0.153   3.720
13063TIP3    H239147   1.037   0.140   3.871
13064TIP3   OH239148   0.709   1.025   3.087
13064TIP3    H139149   0.684   1.052   3.175
13064TIP3    H239150   0.801   0.999   3.095
13065TIP3   OH239151   2.866   3.328   6.119
13065TIP3    H139152   2.893   3.317   6.028
13065TIP3    H239153   2.802   3.399   6.117
13066TIP3   OH239154   1.140   5.175   5.394
13066TIP3    H139155   1.218   5.224   5.366
13066TIP3    H239156   1.107   5.135   5.314
13067TIP3   OH239157   3.041   4.318   4.705
13067TIP3    H139158   3.067   4.396   4.655
13067TIP3    H239159   2.962   4.346   4.751
13068TIP3   OH239160   4.075   3.968   4.881
13068TIP3    H139161   4.109   4.004   4.963
13068TIP3    H239162   4.151   3.928   4.839
13069TIP3   OH239163   7.432   2.431   1.230
13069TIP3    H139164   7.491   2.465   1.298
13069TIP3    H239165   7.485   2.430   1.151
13070TIP3   OH239166   4.336   3.869   5.282
13070TIP3    H139167   4.359   3.854   5.190
13070TIP3    H239168   4.367   3.790   5.327
13071TIP3   OH239169   4.652   1.203   5.703
13071TIP3    H139170   4.672   1.293   5.678
13071TIP3    H239171   4.647   1.205   5.798
13072TIP3   OH239172   0.201   0.610   4.065
13072TIP3    H139173   0.240   0.543   4.009
13072TIP3    H239174   0.195   0.569   4.151
13073TIP3   OH239175   6.889   6.932   5.941
13073TIP3    H139176   6.794   6.919   5.945
13073TIP3    H239177   6.922   6.890   6.020
13074TIP3   OH239178   0.388   3.570   6.711
13074TIP3    H139179   0.445   3.540   6.782
13074TIP3    H239180   0.306   3.523   6.726
13075TIP3   OH239181   0.586   7.033   2.373
13075TIP3    H139182   0.568   7.055   2.281
13075TIP3    H239183   0.509   7.066   2.420
13076TIP3   OH239184   7.237   5.262   2.542
13076TIP3    H139185   7.175   5.196   2.574
13076TIP3    H239186   7.311   5.258   2.604
13077TIP3   OH239187   2.806   0.244   2.001
13077TIP3    H139188   2.748   0.320   2.002
13077TIP3    H239189   2.764   0.182   1.941
13078TIP3   OH239190   5.054   3.260   3.930
13078TIP3    H139191   5.073   3.311   4.009
13078TIP3    H239192   5.131   3.272   3.874
13079TIP3   OH239193   1.320   5.115   0.816
13079TIP3    H139194   1.226   5.135   0.825
13079TIP3    H239195   1.341   5.064   0.893
13080TIP3   OH239196   1.234   6.785   5.024
13080TIP3    H139197   1.187   6.807   4.943
13080TIP3    H239198   1.239   6.867   5.072
13081TIP3   OH239199   6.475   1.284   2.521
13081TIP3    H139200   6.413   1.218   2.488
13081TIP3    H239201   6.537   1.296   2.450
13082TIP3   OH239202   1.290   2.334   3.823
13082TIP3    H139203   1.258   2.359   3.910
13082TIP3    H239204   1.378   2.301   3.840
13083TIP3   OH239205   6.536   6.883   0.864
13083TIP3    H139206   6.505   6.800   0.899
13083TIP3    H239207   6.618   6.861   0.820
13084TIP3   OH239208   3.286   0.204   6.413
13084TIP3    H139209   3.301   0.273   6.349
13084TIP3    H239210   3.236   0.245   6.483
13085TIP3   OH239211   3.741   0.290   3.076
13085TIP3    H139212   3.702   0.334   3.001
13085TIP3    H239213   3.666   0.261   3.129
13086TIP3   OH239214   7.341   7.186   1.595
13086TIP3    H139215   7.372   7.248   1.529
13086TIP3    H239216   7.329   7.239   1.674
13087TIP3   OH239217   7.473   6.162   2.383
13087TIP3    H139218   7.417   6.192   2.311
13087TIP3    H239219   7.540   6.108   2.341
13088TIP3   OH239220   3.857   2.840   1.432
13088TIP3    H139221   3.901   2.820   1.349
13088TIP3    H239222   3.910   2.797   1.499
13089TIP3   OH239223   5.404   6.176   5.117
13089TIP3    H139224   5.478   6.133   5.075
13089TIP3    H239225   5.382   6.118   5.191
13090TIP3   OH239226   6.489   7.212   6.702
13090TIP3    H139227   6.578   7.235   6.730
13090TIP3    H239228   6.481   7.119   6.721
13091TIP3   OH239229   2.338   3.506   5.763
13091TIP3    H139230   2.332   3.423   5.716
13091TIP3    H239231   2.428   3.508   5.796
13092TIP3   OH239232   5.276   3.359   0.638
13092TIP3    H139233   5.266   3.302   0.714
13092TIP3    H239234   5.249   3.445   0.669
13093TIP3   OH239235   5.741   1.428   5.475
13093TIP3    H139236   5.675   1.427   5.406
13093TIP3    H239237   5.692   1.418   5.557
13094TIP3   OH239238   2.087   7.096   5.079
13094TIP3    H139239   2.062   7.068   5.167
13094TIP3    H239240   2.137   7.022   5.043
13095TIP3   OH239241   4.235   0.291   4.864
13095TIP3    H139242   4.254   0.381   4.887
13095TIP3    H239243   4.142   0.280   4.885
13096TIP3   OH239244   3.297   1.845   0.948
13096TIP3    H139245   3.258   1.765   0.984
13096TIP3    H239246   3.350   1.815   0.874
13097TIP3   OH239247   5.224   6.591   5.835
13097TIP3    H139248   5.214   6.496   5.828
13097TIP3    H239249   5.135   6.624   5.838
13098TIP3   OH239250   3.392   5.771   2.026
13098TIP3    H139251   3.353   5.724   2.100
13098TIP3    H239252   3.476   5.802   2.059
13099TIP3   OH239253   5.918   4.969   5.770
13099TIP3    H139254   5.945   4.929   5.688
13099TIP3    H239255   5.923   4.898   5.834
13100TIP3   OH239256   6.728   2.002   0.471
13100TIP3    H139257   6.688   1.921   0.501
13100TIP3    H239258   6.716   2.001   0.376
13101TIP3   OH239259   4.183   0.251   6.651
13101TIP3    H139260   4.205   0.168   6.693
13101TIP3    H239261   4.251   0.312   6.681
13102TIP3   OH239262   1.249   0.610   5.860
13102TIP3    H139263   1.156   0.601   5.841
13102TIP3    H239264   1.252   0.661   5.941
13103TIP3   OH239265   4.039   0.033   5.216
13103TIP3    H139266   4.042   0.097   5.287
13103TIP3    H239267   4.037  -0.052   5.260
13104TIP3   OH239268   3.528   6.358   0.593
13104TIP3    H139269   3.439   6.357   0.557
13104TIP3    H239270   3.518   6.327   0.683
13105TIP3   OH239271   7.849   7.393   4.252
13105TIP3    H139272   7.756   7.410   4.243
13105TIP3    H239273   7.864   7.390   4.346
13106TIP3   OH239274   0.564   7.564   4.647
13106TIP3    H139275   0.524   7.480   4.673
13106TIP3    H239276   0.490   7.618   4.619
13107TIP3   OH239277   1.739   1.973   3.881
13107TIP3    H139278   1.711   1.917   3.953
13107TIP3    H239279   1.716   1.924   3.801
13108TIP3   OH239280   3.490   1.955   0.590
13108TIP3    H139281   3.545   1.878   0.608
13108TIP3    H239282   3.548   2.030   0.604
13109TIP3   OH239283   0.599   5.529   1.955
13109TIP3    H139284   0.643   5.512   2.038
13109TIP3    H239285   0.669   5.551   1.895
13110TIP3   OH239286   2.988   3.503   2.347
13110TIP3    H139287   2.952   3.416   2.332
13110TIP3    H239288   2.984   3.515   2.442
13111TIP3   OH239289   5.843   7.678   5.454
13111TIP3    H139290   5.868   7.609   5.392
13111TIP3    H239291   5.819   7.632   5.534
13112TIP3   OH239292   6.321   2.499   6.284
13112TIP3    H139293   6.359   2.525   6.369
13112TIP3    H239294   6.395   2.502   6.223
13113TIP3   OH239295   7.764   4.329   6.238
13113TIP3    H139296   7.853   4.350   6.265
13113TIP3    H239297   7.754   4.236   6.259
13114TIP3   OH239298   3.142   7.712   5.088
13114TIP3    H139299   3.150   7.616   5.082
13114TIP3    H239300   3.106   7.738   5.003
13115TIP3   OH239301   0.487   5.845   1.033
13115TIP3    H139302   0.474   5.815   1.123
13115TIP3    H239303   0.483   5.941   1.039
13116TIP3   OH239304   6.366   4.048   0.870
13116TIP3    H139305   6.319   3.991   0.931
13116TIP3    H239306   6.365   4.001   0.787
13117TIP3   OH239307   7.208   2.684   2.141
13117TIP3    H139308   7.265   2.608   2.156
13117TIP3    H239309   7.257   2.758   2.176
13118TIP3   OH239310   7.018   1.805   4.285
13118TIP3    H139311   7.002   1.714   4.307
13118TIP3    H239312   6.985   1.855   4.360
13119TIP3   OH239313   1.847   1.731   0.673
13119TIP3    H139314   1.904   1.755   0.601
13119TIP3    H239315   1.860   1.637   0.685
13120TIP3   OH239316   2.823   7.643   2.330
13120TIP3    H139317   2.813   7.640   2.235
13120TIP3    H239318   2.782   7.562   2.362
13121TIP3   OH239319   2.002   7.741   2.310
13121TIP3    H139320   2.064   7.717   2.378
13121TIP3    H239321   1.927   7.778   2.357
13122TIP3   OH239322   1.025   0.686   2.707
13122TIP3    H139323   1.114   0.664   2.737
13122TIP3    H239324   1.002   0.765   2.755
13123TIP3   OH239325   4.444   6.813   0.278
13123TIP3    H139326   4.408   6.900   0.261
13123TIP3    H239327   4.411   6.759   0.207
13124TIP3   OH239328   2.351   0.191   5.898
13124TIP3    H139329   2.265   0.156   5.921
13124TIP3    H239330   2.369   0.258   5.963
13125TIP3   OH239331   7.712   4.788   1.158
13125TIP3    H139332   7.646   4.719   1.173
13125TIP3    H239333   7.783   4.766   1.219
13126TIP3   OH239334   7.951   4.128   2.067
13126TIP3    H139335   7.986   4.213   2.040
13126TIP3    H239336   7.984   4.116   2.156
13127TIP3   OH239337   6.466   3.157   3.575
13127TIP3    H139338   6.493   3.088   3.635
13127TIP3    H239339   6.528   3.229   3.592
13128TIP3   OH239340   0.908   4.782   4.496
13128TIP3    H139341   0.898   4.784   4.401
13128TIP3    H239342   0.903   4.690   4.520
13129TIP3   OH239343   5.514   7.477   1.467
13129TIP3    H139344   5.584   7.413   1.479
13129TIP3    H239345   5.434   7.430   1.490
13130TIP3   OH239346   5.168   3.137   5.701
13130TIP3    H139347   5.126   3.158   5.785
13130TIP3    H239348   5.259   3.121   5.723
13131TIP3   OH239349   5.104   3.312   5.935
13131TIP3    H139350   5.050   3.387   5.909
13131TIP3    H239351   5.172   3.349   5.991
13132TIP3   OH239352   3.132   7.818   4.229
13132TIP3    H139353   3.042   7.822   4.259
13132TIP3    H239354   3.125   7.803   4.135
13133TIP3   OH239355   8.236   1.868   0.649
13133TIP3    H139356   8.275   1.839   0.567
13133TIP3    H239357   8.264   1.803   0.714
13134TIP3   OH239358   1.671   1.038   5.845
13134TIP3    H139359   1.713   0.955   5.823
13134TIP3    H239360   1.581   1.029   5.813
13135TIP3   OH239361   3.980   2.703   1.631
13135TIP3    H139362   4.070   2.714   1.661
13135TIP3    H239363   3.934   2.667   1.707
13136TIP3   OH239364   6.525   3.612   6.284
13136TIP3    H139365   6.502   3.547   6.351
13136TIP3    H239366   6.442   3.635   6.243
13137TIP3   OH239367   1.089   3.619   0.115
13137TIP3    H139368   1.107   3.529   0.143
13137TIP3    H239369   1.170   3.648   0.075
13138TIP3   OH239370   5.825   1.986   0.293
13138TIP3    H139371   5.869   2.002   0.210
13138TIP3    H239372   5.751   2.046   0.293
13139TIP3   OH239373   6.984   6.934   2.447
13139TIP3    H139374   6.919   6.995   2.480
13139TIP3    H239375   7.017   6.888   2.524
13140TIP3   OH239376   7.332   3.401   1.948
13140TIP3    H139377   7.293   3.337   2.008
13140TIP3    H239378   7.418   3.363   1.928
13141TIP3   OH239379   6.930   0.316   5.040
13141TIP3    H139380   6.995   0.385   5.056
13141TIP3    H239381   6.983   0.237   5.026
13142TIP3   OH239382   0.478   2.456   6.419
13142TIP3    H139383   0.398   2.416   6.387
13142TIP3    H239384   0.537   2.456   6.344
13143TIP3   OH239385   1.484   2.194   0.020
13143TIP3    H139386   1.519   2.199   0.109
13143TIP3    H239387   1.543   2.247  -0.033
13144TIP3   OH239388   7.312   1.197   0.775
13144TIP3    H139389   7.286   1.230   0.861
13144TIP3    H239390   7.261   1.116   0.764
13145TIP3   OH239391   5.433   0.890   2.796
13145TIP3    H139392   5.524   0.873   2.820
13145TIP3    H239393   5.431   0.984   2.776
13146TIP3   OH239394   6.671   6.661   6.776
13146TIP3    H139395   6.641   6.639   6.687
13146TIP3    H239396   6.763   6.636   6.776
13147TIP3   OH239397   0.490   3.642   2.124
13147TIP3    H139398   0.478   3.585   2.200
13147TIP3    H239399   0.577   3.681   2.136
13148TIP3   OH239400   0.068   7.458   2.613
13148TIP3    H139401   0.124   7.516   2.562
13148TIP3    H239402  -0.010   7.510   2.632
13149TIP3   OH239403   3.560   5.672   5.057
13149TIP3    H139404   3.590   5.607   4.993
13149TIP3    H239405   3.623   5.744   5.050
13150TIP3   OH239406   5.738   6.698   4.612
13150TIP3    H139407   5.783   6.782   4.619
13150TIP3    H239408   5.650   6.715   4.646
13151TIP3   OH239409   2.644   4.834   5.315
13151TIP3    H139410   2.625   4.925   5.339
13151TIP3    H239411   2.698   4.801   5.387
13152TIP3   OH239412   7.297   2.327   5.836
13152TIP3    H139413   7.291   2.250   5.778
13152TIP3    H239414   7.280   2.401   5.779
13153TIP3   OH239415   3.635   2.186   4.377
13153TIP3    H139416   3.621   2.245   4.452
13153TIP3    H239417   3.548   2.149   4.361
13154TIP3   OH239418   0.065   4.084   1.282
13154TIP3    H139419   0.036   4.073   1.372
13154TIP3    H239420  -0.012   4.064   1.228
13155TIP3   OH239421   0.949   3.847   5.637
13155TIP3    H139422   1.013   3.775   5.632
13155TIP3    H239423   1.000   3.925   5.617
13156TIP3   OH239424   7.331   4.956   2.652
13156TIP3    H139425   7.364   4.984   2.737
13156TIP3    H239426   7.247   4.914   2.671
13157TIP3   OH239427   5.144   1.059   6.338
13157TIP3    H139428   5.117   1.149   6.358
13157TIP3    H239429   5.151   1.057   6.243
13158TIP3   OH239430   5.418   3.887   2.869
13158TIP3    H139431   5.456   3.950   2.808
13158TIP3    H239432   5.324   3.895   2.857
13159TIP3   OH239433   1.673   5.362   3.916
13159TIP3    H139434   1.644   5.444   3.956
13159TIP3    H239435   1.739   5.389   3.852
13160TIP3   OH239436   6.740   2.966   4.902
13160TIP3    H139437   6.657   2.962   4.855
13160TIP3    H239438   6.769   3.057   4.892
13161TIP3   OH239439   7.816   3.628   1.978
13161TIP3    H139440   7.760   3.705   1.988
13161TIP3    H239441   7.812   3.585   2.064
13162TIP3   OH239442   0.876   4.926   4.024
13162TIP3    H139443   0.866   4.832   4.038
13162TIP3    H239444   0.867   4.964   4.112
13163TIP3   OH239445   8.335   6.889   0.776
13163TIP3    H139446   8.286   6.895   0.694
13163TIP3    H239447   8.268   6.895   0.844
13164TIP3   OH239448   2.752   5.977   2.268
13164TIP3    H139449   2.810   6.000   2.340
13164TIP3    H239450   2.765   5.882   2.256
13165TIP3   OH239451   0.827   0.937   6.550
13165TIP3    H139452   0.782   1.021   6.545
13165TIP3    H239453   0.851   0.928   6.642
13166TIP3   OH239454   3.727   6.951   4.074
13166TIP3    H139455   3.716   7.026   4.015
13166TIP3    H239456   3.784   6.983   4.143
13167TIP3   OH239457   8.213   6.329   3.428
13167TIP3    H139458   8.272   6.253   3.429
13167TIP3    H239459   8.258   6.395   3.481
13168TIP3   OH239460   4.556   1.322   2.825
13168TIP3    H139461   4.626   1.342   2.886
13168TIP3    H239462   4.476   1.320   2.879
13169TIP3   OH239463   6.072   4.377   5.095
13169TIP3    H139464   6.076   4.286   5.066
13169TIP3    H239465   6.163   4.401   5.111
13170TIP3   OH239466   7.162   0.594   3.027
13170TIP3    H139467   7.156   0.500   3.043
13170TIP3    H239468   7.152   0.602   2.932
13171TIP3   OH239469   0.737   6.605   1.469
13171TIP3    H139470   0.648   6.612   1.502
13171TIP3    H239471   0.746   6.679   1.409
13172TIP3   OH239472   7.870   0.116   5.715
13172TIP3    H139473   7.854   0.183   5.648
13172TIP3    H239474   7.835   0.036   5.677
13173TIP3   OH239475   1.648   7.251   2.191
13173TIP3    H139476   1.591   7.265   2.116
13173TIP3    H239477   1.631   7.160   2.217
13174TIP3   OH239478   4.569   4.432   0.069
13174TIP3    H139479   4.481   4.398   0.089
13174TIP3    H239480   4.628   4.363   0.100
13175TIP3   OH239481   2.881   6.869   3.686
13175TIP3    H139482   2.969   6.832   3.695
13175TIP3    H239483   2.873   6.892   3.594
13176TIP3   OH239484   2.797   7.766   1.037
13176TIP3    H139485   2.837   7.817   0.966
13176TIP3    H239486   2.710   7.805   1.048
13177TIP3   OH239487   0.919   0.621   1.736
13177TIP3    H139488   0.969   0.621   1.817
13177TIP3    H239489   0.984   0.620   1.667
13178TIP3   OH239490   1.720   3.688   3.477
13178TIP3    H139491   1.735   3.597   3.503
13178TIP3    H239492   1.792   3.709   3.418
13179TIP3   OH239493   2.295   6.560   2.120
13179TIP3    H139494   2.242   6.637   2.145
13179TIP3    H239495   2.231   6.495   2.091
13180TIP3   OH239496   3.964   5.393   4.905
13180TIP3    H139497   3.919   5.469   4.868
13180TIP3    H239498   3.941   5.394   4.998
13181TIP3   OH239499   0.719   5.052   0.367
13181TIP3    H139500   0.774   4.976   0.384
13181TIP3    H239501   0.769   5.105   0.304
13182TIP3   OH239502   7.939   6.490   5.412
13182TIP3    H139503   7.947   6.452   5.325
13182TIP3    H239504   7.898   6.575   5.398
13183TIP3   OH239505   8.128   5.078   5.707
13183TIP3    H139506   8.202   5.131   5.736
13183TIP3    H239507   8.162   4.988   5.704
13184TIP3   OH239508   1.117   1.876   1.375
13184TIP3    H139509   1.098   1.825   1.296
13184TIP3    H239510   1.212   1.872   1.384
13185TIP3   OH239511   0.247   0.062   2.026
13185TIP3    H139512   0.319   0.004   2.003
13185TIP3    H239513   0.285   0.124   2.087
13186TIP3   OH239514   6.165   4.875   4.154
13186TIP3    H139515   6.080   4.919   4.162
13186TIP3    H239516   6.228   4.939   4.186
13187TIP3   OH239517   3.106   0.707   5.254
13187TIP3    H139518   3.092   0.623   5.210
13187TIP3    H239519   3.085   0.689   5.346
13188TIP3   OH239520   3.660   5.477   0.634
13188TIP3    H139521   3.675   5.491   0.727
13188TIP3    H239522   3.704   5.550   0.591
13189TIP3   OH239523   6.776   4.773   1.549
13189TIP3    H139524   6.844   4.774   1.482
13189TIP3    H239525   6.777   4.862   1.585
13190TIP3   OH239526   3.433   0.307   0.476
13190TIP3    H139527   3.453   0.223   0.517
13190TIP3    H239528   3.389   0.358   0.544
13191TIP3   OH239529   8.027   3.292   1.337
13191TIP3    H139530   8.051   3.385   1.345
13191TIP3    H239531   7.933   3.290   1.356
13192TIP3   OH239532   6.286   7.824   1.564
13192TIP3    H139533   6.327   7.898   1.520
13192TIP3    H239534   6.332   7.747   1.530
13193TIP3   OH239535   2.291   3.123   1.573
13193TIP3    H139536   2.350   3.060   1.532
13193TIP3    H239537   2.264   3.081   1.654
13194TIP3   OH239538   0.691   5.695   1.298
13194TIP3    H139539   0.758   5.679   1.231
13194TIP3    H239540   0.684   5.612   1.345
13195TIP3   OH239541   6.372   4.213  -0.003
13195TIP3    H139542   6.358   4.306  -0.020
13195TIP3    H239543   6.432   4.211   0.072
13196TIP3   OH239544   2.289   6.932   5.331
13196TIP3    H139545   2.278   6.937   5.426
13196TIP3    H239546   2.204   6.905   5.298
13197TIP3   OH239547   1.519   3.493   5.268
13197TIP3    H139548   1.531   3.487   5.173
13197TIP3    H239549   1.608   3.490   5.303
13198TIP3   OH239550   6.436   2.583   6.500
13198TIP3    H139551   6.488   2.644   6.553
13198TIP3    H239552   6.475   2.498   6.517
13199TIP3   OH239553   8.237   3.500   3.883
13199TIP3    H139554   8.259   3.528   3.794
13199TIP3    H239555   8.322   3.491   3.927
13200TIP3   OH239556   4.792   5.914   2.196
13200TIP3    H139557   4.810   5.901   2.103
13200TIP3    H239558   4.844   5.847   2.240
13201TIP3   OH239559   4.340   3.509   3.900
13201TIP3    H139560   4.425   3.481   3.865
13201TIP3    H239561   4.319   3.442   3.966
13202TIP3   OH239562   4.059   3.441   5.972
13202TIP3    H139563   3.976   3.398   5.953
13202TIP3    H239564   4.102   3.384   6.036
13203TIP3   OH239565   8.264   6.646   4.958
13203TIP3    H139566   8.330   6.611   4.899
13203TIP3    H239567   8.188   6.662   4.902
13204TIP3   OH239568   0.762   7.303   1.955
13204TIP3    H139569   0.831   7.365   1.980
13204TIP3    H239570   0.792   7.266   1.872
13205TIP3   OH239571   3.594   2.374   3.374
13205TIP3    H139572   3.684   2.385   3.405
13205TIP3    H239573   3.583   2.444   3.309
13206TIP3   OH239574   0.891   6.337   0.011
13206TIP3    H139575   0.961   6.332   0.077
13206TIP3    H239576   0.924   6.287  -0.063
13207TIP3   OH239577   1.612   0.442   0.782
13207TIP3    H139578   1.602   0.349   0.763
13207TIP3    H239579   1.539   0.484   0.737
13208TIP3   OH239580   2.408   5.648   0.122
13208TIP3    H139581   2.474   5.631   0.055
13208TIP3    H239582   2.325   5.626   0.080
13209TIP3   OH239583   1.051   5.458   5.426
13209TIP3    H139584   1.040   5.363   5.420
13209TIP3    H239585   0.975   5.494   5.381
13210TIP3   OH239586   4.460   1.622   2.165
13210TIP3    H139587   4.460   1.717   2.181
13210TIP3    H239588   4.398   1.587   2.229
13211TIP3   OH239589   6.839   0.991   3.901
13211TIP3    H139590   6.755   0.963   3.864
13211TIP3    H239591   6.816   1.066   3.957
13212TIP3   OH239592   7.091   2.465   5.647
13212TIP3    H139593   7.129   2.541   5.602
13212TIP3    H239594   7.050   2.415   5.577
13213TIP3   OH239595   8.174   4.462   4.668
13213TIP3    H139596   8.162   4.412   4.749
13213TIP3    H239597   8.265   4.446   4.644
13214TIP3   OH239598   8.144   2.805   2.002
13214TIP3    H139599   8.159   2.787   2.094
13214TIP3    H239600   8.049   2.812   1.993
13215TIP3   OH239601   7.692   2.503   0.147
13215TIP3    H139602   7.666   2.582   0.100
13215TIP3    H239603   7.787   2.507   0.151
13216TIP3   OH239604   7.367   3.401   3.385
13216TIP3    H139605   7.337   3.486   3.417
13216TIP3    H239606   7.291   3.364   3.340
13217TIP3   OH239607   2.451   4.021   0.723
13217TIP3    H139608   2.397   3.996   0.647
13217TIP3    H239609   2.454   3.941   0.776
13218TIP3   OH239610   5.980   1.850   6.505
13218TIP3    H139611   5.987   1.788   6.577
13218TIP3    H239612   5.977   1.936   6.547
13219TIP3   OH239613   0.225   0.823   2.818
13219TIP3    H139614   0.251   0.817   2.726
13219TIP3    H239615   0.306   0.841   2.865
13220TIP3   OH239616   5.966   1.665   6.261
13220TIP3    H139617   6.010   1.658   6.346
13220TIP3    H239618   6.019   1.611   6.202
13221TIP3   OH239619   5.903   6.238   1.812
13221TIP3    H139620   5.998   6.242   1.820
13221TIP3    H239621   5.884   6.146   1.795
13222TIP3   OH239622   2.823   4.502   5.261
13222TIP3    H139623   2.764   4.546   5.200
13222TIP3    H239624   2.802   4.409   5.251
13223TIP3   OH239625   4.700   1.156   0.433
13223TIP3    H139626   4.615   1.151   0.477
13223TIP3    H239627   4.732   1.244   0.453
13224TIP3   OH239628   5.407   4.191   5.704
13224TIP3    H139629   5.427   4.239   5.624
13224TIP3    H239630   5.311   4.191   5.708
13225TIP3   OH239631   0.817   4.580   4.012
13225TIP3    H139632   0.768   4.506   4.045
13225TIP3    H239633   0.861   4.547   3.934
13226TIP3   OH239634   6.229   0.239   0.952
13226TIP3    H139635   6.322   0.219   0.942
13226TIP3    H239636   6.186   0.154   0.944
13227TIP3   OH239637   2.509   2.427   6.166
13227TIP3    H139638   2.493   2.360   6.099
13227TIP3    H239639   2.454   2.399   6.240
13228TIP3   OH239640   7.977   4.965   4.331
13228TIP3    H139641   7.930   5.013   4.399
13228TIP3    H239642   7.915   4.897   4.303
13229TIP3   OH239643   6.444   0.236   5.068
13229TIP3    H139644   6.532   0.273   5.068
13229TIP3    H239645   6.387   0.309   5.090
13230TIP3   OH239646   1.301   3.030   3.830
13230TIP3    H139647   1.227   3.076   3.789
13230TIP3    H239648   1.296   3.054   3.922
13231TIP3   OH239649   1.436   4.007   0.935
13231TIP3    H139650   1.514   3.978   0.888
13231TIP3    H239651   1.445   4.103   0.938
13232TIP3   OH239652   0.248   2.933   0.473
13232TIP3    H139653   0.333   2.892   0.488
13232TIP3    H239654   0.184   2.865   0.496
13233TIP3   OH239655   6.335   3.391   2.025
13233TIP3    H139656   6.411   3.354   2.070
13233TIP3    H239657   6.264   3.382   2.088
13234TIP3   OH239658   2.193   1.797   4.783
13234TIP3    H139659   2.184   1.736   4.856
13234TIP3    H239660   2.119   1.857   4.792
13235TIP3   OH239661   3.850   2.142   6.114
13235TIP3    H139662   3.914   2.208   6.089
13235TIP3    H239663   3.765   2.179   6.088
13236TIP3   OH239664   2.203   5.140   1.821
13236TIP3    H139665   2.285   5.176   1.786
13236TIP3    H239666   2.231   5.064   1.873
13237TIP3   OH239667   4.840   7.725   0.498
13237TIP3    H139668   4.856   7.649   0.555
13237TIP3    H239669   4.860   7.801   0.554
13238TIP3   OH239670   2.112   0.460   5.669
13238TIP3    H139671   2.134   0.368   5.656
13238TIP3    H239672   2.034   0.474   5.616
13239TIP3   OH239673   1.096   3.997   4.139
13239TIP3    H139674   1.131   4.040   4.061
13239TIP3    H239675   1.146   4.034   4.212
13240TIP3   OH239676   4.881   7.386   4.491
13240TIP3    H139677   4.909   7.442   4.419
13240TIP3    H239678   4.818   7.326   4.451
13241TIP3   OH239679   4.484   6.337   5.647
13241TIP3    H139680   4.421   6.285   5.598
13241TIP3    H239681   4.555   6.276   5.666
13242TIP3   OH239682   4.190   5.532   3.789
13242TIP3    H139683   4.279   5.505   3.810
13242TIP3    H239684   4.135   5.472   3.840
13243TIP3   OH239685   3.178   4.071   4.733
13243TIP3    H139686   3.242   4.129   4.775
13243TIP3    H239687   3.109   4.130   4.702
13244TIP3   OH239688   3.347   0.798   3.297
13244TIP3    H139689   3.401   0.745   3.238
13244TIP3    H239690   3.380   0.887   3.287
13245TIP3   OH239691   2.494   6.525   1.316
13245TIP3    H139692   2.552   6.598   1.292
13245TIP3    H239693   2.527   6.451   1.265
13246TIP3   OH239694   4.890   6.145   4.461
13246TIP3    H139695   4.876   6.239   4.453
13246TIP3    H239696   4.941   6.134   4.541
13247TIP3   OH239697   2.758   6.749   5.463
13247TIP3    H139698   2.682   6.727   5.517
13247TIP3    H239699   2.800   6.822   5.509
13248TIP3   OH239700   6.845   5.151   1.310
13248TIP3    H139701   6.811   5.153   1.221
13248TIP3    H239702   6.940   5.161   1.300
13249TIP3   OH239703   3.128   5.508   5.552
13249TIP3    H139704   3.212   5.467   5.530
13249TIP3    H239705   3.083   5.443   5.605
13250TIP3   OH239706   2.102   2.410   4.733
13250TIP3    H139707   2.172   2.470   4.704
13250TIP3    H239708   2.083   2.438   4.823
13251TIP3   OH239709   2.586   4.681   4.417
13251TIP3    H139710   2.500   4.664   4.379
13251TIP3    H239711   2.570   4.748   4.484
13252TIP3   OH239712   7.108   1.557   2.817
13252TIP3    H139713   7.135   1.615   2.745
13252TIP3    H239714   7.166   1.482   2.810
13253TIP3   OH239715   1.432   1.173   5.109
13253TIP3    H139716   1.378   1.093   5.103
13253TIP3    H239717   1.515   1.143   5.146
13254TIP3   OH239718   2.609   1.993   2.755
13254TIP3    H139719   2.642   2.077   2.784
13254TIP3    H239720   2.526   1.982   2.802
13255TIP3   OH239721   2.372   1.980   5.856
13255TIP3    H139722   2.392   1.928   5.934
13255TIP3    H239723   2.346   1.916   5.790
13256TIP3   OH239724   4.371   1.165   6.733
13256TIP3    H139725   4.367   1.078   6.693
13256TIP3    H239726   4.464   1.183   6.743
13257TIP3   OH239727   7.187   3.124   0.103
13257TIP3    H139728   7.172   3.044   0.154
13257TIP3    H239729   7.107   3.134   0.052
13258TIP3   OH239730   4.130   6.689   1.238
13258TIP3    H139731   4.134   6.608   1.187
13258TIP3    H239732   4.047   6.729   1.213
13259TIP3   OH239733   6.871   3.629   3.997
13259TIP3    H139734   6.948   3.678   4.024
13259TIP3    H239735   6.797   3.686   4.017
13260TIP3   OH239736   0.036   1.708   6.463
13260TIP3    H139737   0.070   1.755   6.539
13260TIP3    H239738  -0.052   1.743   6.450
13261TIP3   OH239739   6.140   0.952   6.212
13261TIP3    H139740   6.227   0.931   6.178
13261TIP3    H239741   6.107   1.021   6.155
13262TIP3   OH239742   8.143   5.041   6.255
13262TIP3    H139743   8.124   5.021   6.347
13262TIP3    H239744   8.105   5.128   6.241
13263TIP3   OH239745   2.505   2.264   3.604
13263TIP3    H139746   2.414   2.261   3.633
13263TIP3    H239747   2.524   2.357   3.592
13264TIP3   OH239748   0.845   3.472   0.351
13264TIP3    H139749   0.877   3.411   0.285
13264TIP3    H239750   0.787   3.531   0.303
13265TIP3   OH239751   0.227   3.342   2.052
13265TIP3    H139752   0.287   3.396   2.102
13265TIP3    H239753   0.228   3.257   2.096
13266TIP3   OH239754   4.804   5.031   0.123
13266TIP3    H139755   4.759   4.964   0.071
13266TIP3    H239756   4.778   5.114   0.082
13267TIP3   OH239757   5.318   4.922   4.819
13267TIP3    H139758   5.403   4.938   4.859
13267TIP3    H239759   5.282   5.009   4.803
13268TIP3   OH239760   3.192   5.950   6.239
13268TIP3    H139761   3.254   5.909   6.300
13268TIP3    H239762   3.133   5.879   6.214
13269TIP3   OH239763   3.429   6.319   2.672
13269TIP3    H139764   3.476   6.352   2.748
13269TIP3    H239765   3.340   6.305   2.703
13270TIP3   OH239766   4.238   4.871   5.423
13270TIP3    H139767   4.163   4.920   5.457
13270TIP3    H239768   4.286   4.933   5.370
13271TIP3   OH239769   3.203   4.155   2.503
13271TIP3    H139770   3.132   4.132   2.562
13271TIP3    H239771   3.279   4.167   2.561
13272TIP3   OH239772   0.277   0.138   3.196
13272TIP3    H139773   0.278   0.213   3.137
13272TIP3    H239774   0.356   0.089   3.174
13273TIP3   OH239775   6.463   0.961   2.224
13273TIP3    H139776   6.392   0.947   2.161
13273TIP3    H239777   6.510   1.038   2.190
13274TIP3   OH239778   5.635   1.733   0.653
13274TIP3    H139779   5.611   1.762   0.741
13274TIP3    H239780   5.658   1.641   0.664
13275TIP3   OH239781   3.296   6.094   3.693
13275TIP3    H139782   3.371   6.076   3.637
13275TIP3    H239783   3.325   6.163   3.752
13276TIP3   OH239784   2.067   1.971   3.966
13276TIP3    H139785   2.075   1.916   3.888
13276TIP3    H239786   2.024   2.051   3.935
13277TIP3   OH239787   6.041   1.900   0.504
13277TIP3    H139788   6.092   1.966   0.551
13277TIP3    H239789   5.971   1.951   0.462
13278TIP3   OH239790   0.625   1.324   3.906
13278TIP3    H139791   0.695   1.375   3.866
13278TIP3    H239792   0.595   1.265   3.836
13279TIP3   OH239793   1.099   1.286   0.698
13279TIP3    H139794   1.135   1.227   0.764
13279TIP3    H239795   1.172   1.302   0.639
13280TIP3   OH239796   1.407   0.922   1.946
13280TIP3    H139797   1.428   0.851   2.007
13280TIP3    H239798   1.440   1.001   1.989
13281TIP3   OH239799   7.152   4.249   5.562
13281TIP3    H139800   7.080   4.213   5.614
13281TIP3    H239801   7.223   4.185   5.572
13282TIP3   OH239802   4.196   2.809   1.362
13282TIP3    H139803   4.116   2.847   1.324
13282TIP3    H239804   4.259   2.882   1.362
13283TIP3   OH239805   6.354   3.792   4.647
13283TIP3    H139806   6.290   3.841   4.596
13283TIP3    H239807   6.303   3.721   4.687
13284TIP3   OH239808   2.103   6.229   2.380
13284TIP3    H139809   2.055   6.193   2.455
13284TIP3    H239810   2.055   6.308   2.357
13285TIP3   OH239811   6.921   6.818   6.734
13285TIP3    H139812   6.985   6.778   6.674
13285TIP3    H239813   6.860   6.864   6.677
13286TIP3   OH239814   0.505   1.807   0.087
13286TIP3    H139815   0.598   1.785   0.084
13286TIP3    H239816   0.491   1.843   0.174
13287TIP3   OH239817   5.358   3.037   2.715
13287TIP3    H139818   5.388   2.966   2.772
13287TIP3    H239819   5.362   3.115   2.770
13288TIP3   OH239820   6.994   0.086   3.198
13288TIP3    H139821   6.944   0.021   3.147
13288TIP3    H239822   7.085   0.058   3.191
13289TIP3   OH239823   5.891   5.512   4.677
13289TIP3    H139824   5.886   5.601   4.711
13289TIP3    H239825   5.800   5.487   4.662
13290TIP3   OH239826   4.755   4.216   4.584
13290TIP3    H139827   4.722   4.157   4.516
13290TIP3    H239828   4.847   4.193   4.593
13291TIP3   OH239829   5.365   2.755   3.419
13291TIP3    H139830   5.289   2.810   3.400
13291TIP3    H239831   5.391   2.781   3.508
13292TIP3   OH239832   1.336   1.804   2.462
13292TIP3    H139833   1.354   1.870   2.528
13292TIP3    H239834   1.241   1.804   2.452
13293TIP3   OH239835   5.938   5.598   2.039
13293TIP3    H139836   5.913   5.671   2.096
13293TIP3    H239837   5.902   5.621   1.954
13294TIP3   OH239838   4.437   5.216   6.081
13294TIP3    H139839   4.487   5.206   5.999
13294TIP3    H239840   4.424   5.310   6.090
13295TIP3   OH239841   4.078   2.869   3.048
13295TIP3    H139842   4.006   2.909   3.095
13295TIP3    H239843   4.046   2.782   3.024
13296TIP3   OH239844   2.184   0.015   3.269
13296TIP3    H139845   2.237   0.085   3.307
13296TIP3    H239846   2.094   0.040   3.288
13297TIP3   OH239847   7.365   6.476   0.067
13297TIP3    H139848   7.441   6.426   0.040
13297TIP3    H239849   7.337   6.435   0.149
13298TIP3   OH239850   2.113   4.259   2.050
13298TIP3    H139851   2.056   4.191   2.013
13298TIP3    H239852   2.052   4.325   2.084
13299TIP3   OH239853   4.423   0.557   5.308
13299TIP3    H139854   4.510   0.558   5.349
13299TIP3    H239855   4.375   0.489   5.355
13300TIP3   OH239856   5.842   7.652   2.308
13300TIP3    H139857   5.931   7.678   2.331
13300TIP3    H239858   5.787   7.690   2.376
13301TIP3   OH239859   3.850   2.953   6.239
13301TIP3    H139860   3.892   3.011   6.174
13301TIP3    H239861   3.769   2.925   6.197
13302TIP3   OH239862   1.221   0.138   3.982
13302TIP3    H139863   1.263   0.137   4.068
13302TIP3    H239864   1.289   0.171   3.923
13303TIP3   OH239865   6.155   0.986   5.785
13303TIP3    H139866   6.126   1.000   5.695
13303TIP3    H239867   6.240   1.030   5.790
13304TIP3   OH239868   1.194   2.649   3.599
13304TIP3    H139869   1.154   2.672   3.515
13304TIP3    H239870   1.190   2.554   3.602
13305TIP3   OH239871   6.265   6.834   5.536
13305TIP3    H139872   6.213   6.755   5.547
13305TIP3    H239873   6.305   6.849   5.622
13306TIP3   OH239874   1.963   2.275   5.896
13306TIP3    H139875   1.870   2.254   5.890
13306TIP3    H239876   1.966   2.369   5.914
13307TIP3   OH239877   6.331   1.684   3.314
13307TIP3    H139878   6.246   1.681   3.271
13307TIP3    H239879   6.392   1.713   3.246
13308TIP3   OH239880   3.160   0.810   0.445
13308TIP3    H139881   3.134   0.720   0.463
13308TIP3    H239882   3.249   0.817   0.481
13309TIP3   OH239883   3.867   2.205   4.961
13309TIP3    H139884   3.958   2.221   4.985
13309TIP3    H239885   3.864   2.219   4.867
13310TIP3   OH239886   5.349   7.092   2.830
13310TIP3    H139887   5.419   7.062   2.772
13310TIP3    H239888   5.391   7.096   2.917
13311TIP3   OH239889   6.677   0.710   4.608
13311TIP3    H139890   6.704   0.619   4.619
13311TIP3    H239891   6.706   0.754   4.688
13312TIP3   OH239892   2.985   3.041   5.996
13312TIP3    H139893   2.967   3.013   5.907
13312TIP3    H239894   3.038   2.971   6.033
13313TIP3   OH239895   2.682   0.675   0.158
13313TIP3    H139896   2.750   0.735   0.188
13313TIP3    H239897   2.621   0.670   0.232
13314TIP3   OH239898   1.269   7.774   5.801
13314TIP3    H139899   1.187   7.819   5.820
13314TIP3    H239900   1.244   7.703   5.742
13315TIP3   OH239901   7.438   5.427   4.253
13315TIP3    H139902   7.475   5.508   4.289
13315TIP3    H239903   7.475   5.421   4.165
13316TIP3   OH239904   4.640   5.037   0.353
13316TIP3    H139905   4.545   5.050   0.347
13316TIP3    H239906   4.666   5.008   0.266
13317TIP3   OH239907   0.089   2.720   5.395
13317TIP3    H139908   0.038   2.759   5.466
13317TIP3    H239909   0.047   2.635   5.380
13318TIP3   OH239910   2.947   4.466   3.849
13318TIP3    H139911   2.898   4.401   3.899
13318TIP3    H239912   2.930   4.443   3.757
13319TIP3   OH239913   4.920   6.182   5.522
13319TIP3    H139914   4.981   6.227   5.463
13319TIP3    H239915   4.916   6.092   5.490
13320TIP3   OH239916   5.222   2.471   6.013
13320TIP3    H139917   5.313   2.492   6.034
13320TIP3    H239918   5.171   2.540   6.053
13321TIP3   OH239919   5.737   6.467   2.461
13321TIP3    H139920   5.666   6.461   2.524
13321TIP3    H239921   5.799   6.400   2.488
13322TIP3   OH239922   0.751   1.730   5.330
13322TIP3    H139923   0.832   1.769   5.362
13322TIP3    H239924   0.778   1.648   5.290
13323TIP3   OH239925   5.608   0.867   1.862
13323TIP3    H139926   5.602   0.773   1.844
13323TIP3    H239927   5.522   0.902   1.841
13324TIP3   OH239928   7.617   6.401   2.827
13324TIP3    H139929   7.655   6.320   2.863
13324TIP3    H239930   7.645   6.402   2.736
13325TIP3   OH239931   8.257   5.616   6.381
13325TIP3    H139932   8.343   5.615   6.425
13325TIP3    H239933   8.268   5.558   6.306
13326TIP3   OH239934   4.109   2.070   1.705
13326TIP3    H139935   4.132   2.006   1.771
13326TIP3    H239936   4.177   2.137   1.711
13327TIP3   OH239937   3.658   4.768   3.533
13327TIP3    H139938   3.566   4.740   3.528
13327TIP3    H239939   3.663   4.843   3.474
13328TIP3   OH239940   4.150   5.749   4.621
13328TIP3    H139941   4.128   5.841   4.605
13328TIP3    H239942   4.068   5.702   4.606
13329TIP3   OH239943   0.701   2.640   4.376
13329TIP3    H139944   0.608   2.659   4.389
13329TIP3    H239945   0.703   2.579   4.302
13330TIP3   OH239946   5.062   1.110   2.433
13330TIP3    H139947   5.047   1.130   2.341
13330TIP3    H239948   5.010   1.031   2.449
13331TIP3   OH239949   5.290   5.008   0.738
13331TIP3    H139950   5.296   5.043   0.827
13331TIP3    H239951   5.235   4.930   0.746
13332TIP3   OH239952   0.462   4.511   3.804
13332TIP3    H139953   0.553   4.541   3.806
13332TIP3    H239954   0.425   4.538   3.888
13333TIP3   OH239955   0.697   5.418   4.978
13333TIP3    H139956   0.687   5.426   5.072
13333TIP3    H239957   0.762   5.349   4.966
13334TIP3   OH239958   7.192   3.688   2.262
13334TIP3    H139959   7.153   3.600   2.262
13334TIP3    H239960   7.135   3.738   2.203
13335TIP3   OH239961   6.144   3.930   4.554
13335TIP3    H139962   6.082   3.860   4.577
13335TIP3    H239963   6.139   3.992   4.626
13336TIP3   OH239964   2.730   1.318   5.991
13336TIP3    H139965   2.637   1.304   6.009
13336TIP3    H239966   2.775   1.267   6.058
13337TIP3   OH239967   4.903   6.853   4.229
13337TIP3    H139968   4.851   6.928   4.200
13337TIP3    H239969   4.871   6.835   4.318
13338TIP3   OH239970   3.094   4.077   4.019
13338TIP3    H139971   3.117   4.147   3.957
13338TIP3    H239972   3.092   3.998   3.966
13339TIP3   OH239973   6.212   5.805   3.071
13339TIP3    H139974   6.234   5.778   2.982
13339TIP3    H239975   6.173   5.892   3.060
13340TIP3   OH239976   7.731   6.384   4.342
13340TIP3    H139977   7.646   6.343   4.325
13340TIP3    H239978   7.771   6.391   4.255
13341TIP3   OH239979   5.865   5.891   3.241
13341TIP3    H139980   5.828   5.928   3.321
13341TIP3    H239981   5.872   5.965   3.181
13342TIP3   OH239982   2.129   6.327   0.676
13342TIP3    H139983   2.059   6.331   0.742
13342TIP3    H239984   2.207   6.301   0.725
13343TIP3   OH239985   6.440   6.747   3.389
13343TIP3    H139986   6.498   6.813   3.426
13343TIP3    H239987   6.360   6.752   3.442
13344TIP3   OH239988   8.006   4.278   4.923
13344TIP3    H139989   7.970   4.213   4.863
13344TIP3    H239990   7.930   4.329   4.952
13345TIP3   OH239991   6.270   2.200   3.934
13345TIP3    H139992   6.350   2.157   3.963
13345TIP3    H239993   6.210   2.128   3.915
13346TIP3   OH239994   6.521   5.591   5.136
13346TIP3    H139995   6.500   5.504   5.102
13346TIP3    H239996   6.505   5.584   5.230
13347TIP3   OH239997   5.917   2.730   5.797
13347TIP3    H139998   5.923   2.811   5.848
13347TIP3    H239999   6.001   2.687   5.811
13348TIP3   OH240000   4.682   0.397   4.758
13348TIP3    H140001   4.749   0.432   4.816
13348TIP3    H240002   4.641   0.475   4.720
13349TIP3   OH240003   3.417   2.794   3.194
13349TIP3    H140004   3.355   2.751   3.135
13349TIP3    H240005   3.369   2.808   3.275
13350TIP3   OH240006   2.431   3.279   2.367
13350TIP3    H140007   2.364   3.346   2.354
13350TIP3    H240008   2.483   3.311   2.441
13351TIP3   OH240009   6.367   5.722   1.035
13351TIP3    H140010   6.321   5.698   0.955
13351TIP3    H240011   6.381   5.639   1.080
13352TIP3   OH240012   5.173   1.394   4.785
13352TIP3    H140013   5.077   1.390   4.791
13352TIP3    H240014   5.204   1.363   4.870
13353TIP3   OH240015   3.763   4.028   1.383
13353TIP3    H140016   3.759   4.121   1.403
13353TIP3    H240017   3.857   4.008   1.379
13354TIP3   OH240018   4.971   6.727   1.021
13354TIP3    H140019   5.062   6.712   1.045
13354TIP3    H240020   4.973   6.807   0.968
13355TIP3   OH240021   1.784   2.239   0.775
13355TIP3    H140022   1.814   2.170   0.834
13355TIP3    H240023   1.863   2.285   0.749
13356TIP3   OH240024   3.296   2.200   4.577
13356TIP3    H140025   3.216   2.250   4.570
13356TIP3    H240026   3.276   2.129   4.639
13357TIP3   OH240027   4.138   3.109   3.737
13357TIP3    H140028   4.224   3.070   3.752
13357TIP3    H240029   4.094   3.106   3.822
13358TIP3   OH240030   2.605   4.341   4.158
13358TIP3    H140031   2.642   4.425   4.131
13358TIP3    H240032   2.658   4.314   4.233
13359TIP3   OH240033   5.171   7.512   2.380
13359TIP3    H140034   5.110   7.556   2.320
13359TIP3    H240035   5.147   7.419   2.374
13360TIP3   OH240036   6.123   5.162   1.703
13360TIP3    H140037   6.210   5.164   1.665
13360TIP3    H240038   6.115   5.245   1.750
13361TIP3   OH240039   8.138   1.867   5.433
13361TIP3    H140040   8.089   1.818   5.499
13361TIP3    H240041   8.082   1.941   5.411
13362TIP3   OH240042   8.123   4.230   1.665
13362TIP3    H140043   8.049   4.232   1.605
13362TIP3    H240044   8.106   4.300   1.728
13363TIP3   OH240045   5.561   2.788   6.285
13363TIP3    H140046   5.551   2.747   6.371
13363TIP3    H240047   5.472   2.812   6.260
13364TIP3   OH240048   5.015   1.452   2.834
13364TIP3    H140049   5.011   1.363   2.869
13364TIP3    H240050   5.073   1.445   2.758
13365TIP3   OH240051   5.168   7.770   4.591
13365TIP3    H140052   5.254   7.729   4.602
13365TIP3    H240053   5.146   7.803   4.678
13366TIP3   OH240054   7.374   4.184   2.996
13366TIP3    H140055   7.374   4.159   3.089
13366TIP3    H240056   7.312   4.124   2.955
13367TIP3   OH240057   6.378   0.072   5.307
13367TIP3    H140058   6.386   0.161   5.341
13367TIP3    H240059   6.294   0.072   5.261
13368TIP3   OH240060   2.684   5.358   2.332
13368TIP3    H140061   2.597   5.325   2.356
13368TIP3    H240062   2.686   5.354   2.237
13369TIP3   OH240063   7.445   3.899   4.501
13369TIP3    H140064   7.522   3.867   4.454
13369TIP3    H240065   7.481   3.951   4.573
13370TIP3   OH240066   5.035   0.826   0.860
13370TIP3    H140067   5.079   0.852   0.779
13370TIP3    H240068   5.008   0.908   0.900
13371TIP3   OH240069   5.823   1.665   5.584
13371TIP3    H140070   5.793   1.579   5.554
13371TIP3    H240071   5.871   1.700   5.509
13372TIP3   OH240072   8.080   3.012   4.621
13372TIP3    H140073   8.020   3.037   4.551
13372TIP3    H240074   8.135   2.944   4.582
13373TIP3   OH240075   3.153   1.999   1.456
13373TIP3    H140076   3.145   2.091   1.428
13373TIP3    H240077   3.218   1.962   1.397
13374TIP3   OH240078   3.723   2.133   0.586
13374TIP3    H140079   3.732   2.064   0.653
13374TIP3    H240080   3.733   2.215   0.635
13375TIP3   OH240081   5.355   6.412   0.151
13375TIP3    H140082   5.368   6.319   0.130
13375TIP3    H240083   5.344   6.414   0.246
13376TIP3   OH240084   0.655   4.669   6.769
13376TIP3    H140085   0.604   4.734   6.721
13376TIP3    H240086   0.740   4.668   6.726
13377TIP3   OH240087   2.832   2.470   0.527
13377TIP3    H140088   2.796   2.556   0.504
13377TIP3    H240089   2.861   2.479   0.618
13378TIP3   OH240090   0.441   1.797   5.715
13378TIP3    H140091   0.436   1.888   5.687
13378TIP3    H240092   0.488   1.801   5.799
13379TIP3   OH240093   7.729   6.738   4.124
13379TIP3    H140094   7.795   6.708   4.060
13379TIP3    H240095   7.648   6.695   4.096
13380TIP3   OH240096   2.573   2.775   4.478
13380TIP3    H140097   2.597   2.866   4.465
13380TIP3    H240098   2.649   2.725   4.447
13381TIP3   OH240099   5.855   1.526   2.441
13381TIP3    H140100   5.842   1.526   2.535
13381TIP3    H240101   5.942   1.565   2.429
13382TIP3   OH240102   3.379   6.201   4.235
13382TIP3    H140103   3.293   6.215   4.274
13382TIP3    H240104   3.440   6.243   4.296
13383TIP3   OH240105   7.531   3.251   0.371
13383TIP3    H140106   7.590   3.189   0.329
13383TIP3    H240107   7.446   3.235   0.331
13384TIP3   OH240108   2.819   1.228   1.843
13384TIP3    H140109   2.834   1.300   1.904
13384TIP3    H240110   2.863   1.256   1.762
13385TIP3   OH240111   6.302   0.402   6.631
13385TIP3    H140112   6.365   0.448   6.687
13385TIP3    H240113   6.349   0.386   6.549
13386TIP3   OH240114   4.241   6.387   4.282
13386TIP3    H140115   4.152   6.362   4.258
13386TIP3    H240116   4.295   6.359   4.208
13387TIP3   OH240117   1.511   7.075   2.636
13387TIP3    H140118   1.448   7.005   2.654
13387TIP3    H240119   1.595   7.040   2.665
13388TIP3   OH240120   1.307   3.550   4.555
13388TIP3    H140121   1.253   3.471   4.557
13388TIP3    H240122   1.380   3.528   4.497
13389TIP3   OH240123   4.245   1.315   1.210
13389TIP3    H140124   4.215   1.360   1.289
13389TIP3    H240125   4.336   1.343   1.199
13390TIP3   OH240126   7.118   3.430   5.293
13390TIP3    H140127   7.169   3.494   5.243
13390TIP3    H240128   7.028   3.464   5.291
13391TIP3   OH240129   1.418   0.518   4.032
13391TIP3    H140130   1.507   0.553   4.042
13391TIP3    H240131   1.364   0.576   4.086
13392TIP3   OH240132   1.927   4.144   3.514
13392TIP3    H140133   1.846   4.104   3.484
13392TIP3    H240134   1.987   4.136   3.439
13393TIP3   OH240135   1.268   4.479   0.830
13393TIP3    H140136   1.306   4.563   0.854
13393TIP3    H240137   1.232   4.445   0.912
13394TIP3   OH240138   7.001   0.910   3.664
13394TIP3    H140139   6.930   0.898   3.728
13394TIP3    H240140   7.074   0.860   3.700
13395TIP3   OH240141   6.938   3.821   5.823
13395TIP3    H140142   7.023   3.864   5.814
13395TIP3    H240143   6.958   3.728   5.822
13396TIP3   OH240144   5.955   0.722   6.169
13396TIP3    H140145   5.862   0.743   6.176
13396TIP3    H240146   5.999   0.792   6.216
13397TIP3   OH240147   6.870   5.380   0.353
13397TIP3    H140148   6.885   5.387   0.259
13397TIP3    H240149   6.810   5.452   0.373
13398TIP3   OH240150   4.327   4.253   6.445
13398TIP3    H140151   4.250   4.262   6.501
13398TIP3    H240152   4.333   4.336   6.398
13399TIP3   OH240153   8.070   1.995   1.725
13399TIP3    H140154   7.997   1.935   1.740
13399TIP3    H240155   8.050   2.072   1.778
13400TIP3   OH240156   2.670   0.558   3.201
13400TIP3    H140157   2.627   0.643   3.188
13400TIP3    H240158   2.708   0.538   3.116
13401TIP3   OH240159   2.999   0.968   3.582
13401TIP3    H140160   2.951   1.050   3.565
13401TIP3    H240161   2.932   0.907   3.613
13402TIP3   OH240162   1.791   1.293   3.216
13402TIP3    H140163   1.780   1.250   3.301
13402TIP3    H240164   1.734   1.370   3.221
13403TIP3   OH240165   4.882   0.020   6.288
13403TIP3    H140166   4.894  -0.050   6.223
13403TIP3    H240167   4.871   0.099   6.236
13404TIP3   OH240168   5.115   6.887   4.780
13404TIP3    H140169   5.032   6.934   4.784
13404TIP3    H240170   5.170   6.939   4.721
13405TIP3   OH240171   7.748   2.161   6.571
13405TIP3    H140172   7.800   2.209   6.507
13405TIP3    H240173   7.743   2.220   6.646
13406TIP3   OH240174   5.526   7.408   0.772
13406TIP3    H140175   5.457   7.429   0.834
13406TIP3    H240176   5.601   7.459   0.801
13407TIP3   OH240177   4.515   7.117   5.025
13407TIP3    H140178   4.501   7.122   5.119
13407TIP3    H240179   4.586   7.178   5.008
13408TIP3   OH240180   4.599   1.864   0.455
13408TIP3    H140181   4.645   1.925   0.397
13408TIP3    H240182   4.577   1.790   0.399
13409TIP3   OH240183   6.526   3.081   5.699
13409TIP3    H140184   6.583   3.128   5.760
13409TIP3    H240185   6.443   3.070   5.747
13410TIP3   OH240186   5.018   0.139   4.601
13410TIP3    H140187   5.003   0.079   4.527
13410TIP3    H240188   4.934   0.184   4.612
13411TIP3   OH240189   3.260   5.856   4.710
13411TIP3    H140190   3.233   5.772   4.748
13411TIP3    H240191   3.347   5.839   4.675
13412TIP3   OH240192   4.865   5.175   0.762
13412TIP3    H140193   4.826   5.136   0.684
13412TIP3    H240194   4.941   5.224   0.729
13413TIP3   OH240195   2.478   0.411   2.419
13413TIP3    H140196   2.557   0.461   2.439
13413TIP3    H240197   2.445   0.383   2.504
13414TIP3   OH240198   8.283   6.273   2.608
13414TIP3    H140199   8.217   6.263   2.677
13414TIP3    H240200   8.353   6.324   2.650
13415TIP3   OH240201   2.538   5.591   2.411
13415TIP3    H140202   2.599   5.519   2.398
13415TIP3    H240203   2.451   5.551   2.408
13416TIP3   OH240204   6.206   5.115   5.193
13416TIP3    H140205   6.123   5.119   5.146
13416TIP3    H240206   6.182   5.091   5.282
13417TIP3   OH240207   5.835   6.144   3.067
13417TIP3    H140208   5.755   6.096   3.044
13417TIP3    H240209   5.825   6.229   3.025
13418TIP3   OH240210   3.988   5.676   0.903
13418TIP3    H140211   4.083   5.683   0.896
13418TIP3    H240212   3.958   5.767   0.911
13419TIP3   OH240213   5.512   4.937   6.712
13419TIP3    H140214   5.548   4.888   6.786
13419TIP3    H240215   5.498   5.025   6.746
13420TIP3   OH240216   7.334   2.071   6.012
13420TIP3    H140217   7.401   2.118   5.963
13420TIP3    H240218   7.374   1.987   6.034
13421TIP3   OH240219   0.580   6.218   6.647
13421TIP3    H140220   0.546   6.264   6.724
13421TIP3    H240221   0.667   6.187   6.675
13422TIP3   OH240222   5.067   1.705   6.427
13422TIP3    H140223   5.026   1.756   6.497
13422TIP3    H240224   4.995   1.676   6.372
13423TIP3   OH240225   0.370   2.330   1.849
13423TIP3    H140226   0.459   2.294   1.853
13423TIP3    H240227   0.316   2.265   1.893
13424TIP3   OH240228   1.377   2.625   1.270
13424TIP3    H140229   1.453   2.595   1.319
13424TIP3    H240230   1.372   2.567   1.194
13425TIP3   OH240231   8.275   4.210   4.958
13425TIP3    H140232   8.276   4.157   5.037
13425TIP3    H240233   8.185   4.243   4.952
13426TIP3   OH240234   5.250   4.901   3.644
13426TIP3    H140235   5.165   4.890   3.600
13426TIP3    H240236   5.302   4.827   3.613
13427TIP3   OH240237   7.074   2.862   3.962
13427TIP3    H140238   7.107   2.788   3.911
13427TIP3    H240239   7.153   2.903   3.998
13428TIP3   OH240240   2.472   5.126   5.456
13428TIP3    H140241   2.490   5.215   5.428
13428TIP3    H240242   2.517   5.117   5.540
13429TIP3   OH240243   2.685   5.862   0.752
13429TIP3    H140244   2.636   5.820   0.822
13429TIP3    H240245   2.653   5.820   0.672
13430TIP3   OH240246   3.878   4.567   6.454
13430TIP3    H140247   3.903   4.490   6.505
13430TIP3    H240248   3.940   4.568   6.380
13431TIP3   OH240249   1.182   2.384   0.235
13431TIP3    H140250   1.090   2.409   0.245
13431TIP3    H240251   1.206   2.349   0.321
13432TIP3   OH240252   5.585   4.967   0.730
13432TIP3    H140253   5.527   4.931   0.663
13432TIP3    H240254   5.558   4.923   0.811
13433TIP3   OH240255   2.173   6.980   6.127
13433TIP3    H140256   2.267   6.977   6.142
13433TIP3    H240257   2.135   6.974   6.215
13434TIP3   OH240258   1.042   5.311   3.746
13434TIP3    H140259   1.096   5.265   3.810
13434TIP3    H240260   1.068   5.275   3.662
13435TIP3   OH240261   5.193   4.483   0.419
13435TIP3    H140262   5.222   4.403   0.376
13435TIP3    H240263   5.137   4.526   0.355
13436TIP3   OH240264   6.758   3.591   0.599
13436TIP3    H140265   6.683   3.623   0.649
13436TIP3    H240266   6.834   3.610   0.654
13437TIP3   OH240267   0.167   4.758   2.670
13437TIP3    H140268   0.128   4.797   2.748
13437TIP3    H240269   0.172   4.664   2.690
13438TIP3   OH240270   6.848   3.471   4.744
13438TIP3    H140271   6.894   3.494   4.664
13438TIP3    H240272   6.814   3.554   4.777
13439TIP3   OH240273   5.530   3.811   3.636
13439TIP3    H140274   5.521   3.814   3.731
13439TIP3    H240275   5.509   3.900   3.607
13440TIP3   OH240276   6.525   2.081   4.067
13440TIP3    H140277   6.549   2.112   4.154
13440TIP3    H240278   6.596   2.022   4.041
13441TIP3   OH240279   6.295   0.370   3.485
13441TIP3    H140280   6.297   0.422   3.565
13441TIP3    H240281   6.363   0.304   3.498
13442TIP3   OH240282   7.353   5.146   5.757
13442TIP3    H140283   7.437   5.145   5.803
13442TIP3    H240284   7.376   5.134   5.665
13443TIP3   OH240285   5.622   4.063   1.279
13443TIP3    H140286   5.631   3.996   1.212
13443TIP3    H240287   5.692   4.126   1.260
13444TIP3   OH240288   8.109   2.204   6.503
13444TIP3    H140289   8.029   2.202   6.451
13444TIP3    H240290   8.092   2.269   6.571
13445TIP3   OH240291   0.114   4.864   2.921
13445TIP3    H140292   0.090   4.955   2.943
13445TIP3    H240293   0.181   4.841   2.984
13446TIP3   OH240294   5.562   5.335   5.710
13446TIP3    H140295   5.649   5.365   5.734
13446TIP3    H240296   5.543   5.264   5.771
13447TIP3   OH240297   3.513   7.059   2.759
13447TIP3    H140298   3.455   6.990   2.789
13447TIP3    H240299   3.514   7.050   2.664
13448TIP3   OH240300   4.126   0.931   5.998
13448TIP3    H140301   4.031   0.921   6.006
13448TIP3    H240302   4.144   1.021   6.024
13449TIP3   OH240303   1.615   5.037   5.587
13449TIP3    H140304   1.670   4.959   5.588
13449TIP3    H240305   1.544   5.017   5.648
13450TIP3   OH240306   2.340   0.527   3.147
13450TIP3    H140307   2.267   0.548   3.205
13450TIP3    H240308   2.347   0.602   3.088
13451TIP3   OH240309   7.790   2.258   0.971
13451TIP3    H140310   7.769   2.209   0.891
13451TIP3    H240311   7.871   2.218   1.002
13452TIP3   OH240312   2.604   3.358   2.583
13452TIP3    H140313   2.613   3.452   2.568
13452TIP3    H240314   2.559   3.351   2.667
13453TIP3   OH240315   7.097   3.335   6.253
13453TIP3    H140316   7.028   3.395   6.283
13453TIP3    H240317   7.050   3.259   6.220
13454TIP3   OH240318   3.370   5.080   6.077
13454TIP3    H140319   3.428   5.076   6.153
13454TIP3    H240320   3.283   5.095   6.114
13455TIP3   OH240321   1.648   5.751   2.393
13455TIP3    H140322   1.635   5.783   2.482
13455TIP3    H240323   1.619   5.824   2.337
13456TIP3   OH240324   3.428   3.196   1.207
13456TIP3    H140325   3.522   3.188   1.226
13456TIP3    H240326   3.402   3.108   1.180
13457TIP3   OH240327   4.013   3.381   4.124
13457TIP3    H140328   3.978   3.455   4.075
13457TIP3    H240329   4.105   3.403   4.139
13458TIP3   OH240330   5.735   6.322   5.969
13458TIP3    H140331   5.682   6.241   5.966
13458TIP3    H240332   5.688   6.379   6.030
13459TIP3   OH240333   5.115   5.899   3.164
13459TIP3    H140334   5.070   5.912   3.081
13459TIP3    H240335   5.099   5.980   3.213
13460TIP3   OH240336   6.327   4.907   5.865
13460TIP3    H140337   6.275   4.969   5.813
13460TIP3    H240338   6.411   4.952   5.878
13461TIP3   OH240339   7.429   6.388   3.780
13461TIP3    H140340   7.439   6.354   3.869
13461TIP3    H240341   7.443   6.483   3.790
13462TIP3   OH240342   7.317   4.326   4.741
13462TIP3    H140343   7.328   4.295   4.651
13462TIP3    H240344   7.261   4.403   4.733
13463TIP3   OH240345   3.995   3.395   4.425
13463TIP3    H140346   3.970   3.352   4.343
13463TIP3    H240347   3.985   3.327   4.492
13464TIP3   OH240348   1.113   3.282   1.904
13464TIP3    H140349   1.100   3.191   1.932
13464TIP3    H240350   1.101   3.280   1.809
13465TIP3   OH240351   2.239   6.672   2.418
13465TIP3    H140352   2.246   6.578   2.407
13465TIP3    H240353   2.155   6.695   2.377
13466TIP3   OH240354   7.154   6.615  -0.029
13466TIP3    H140355   7.085   6.631   0.035
13466TIP3    H240356   7.230   6.591   0.024
13467TIP3   OH240357   6.801   5.398   0.990
13467TIP3    H140358   6.786   5.406   0.895
13467TIP3    H240359   6.886   5.441   1.004
13468TIP3   OH240360   2.067   5.535   0.988
13468TIP3    H140361   2.031   5.449   0.966
13468TIP3    H240362   2.018   5.562   1.066
13469TIP3   OH240363   3.213   5.528   1.156
13469TIP3    H140364   3.266   5.568   1.088
13469TIP3    H240365   3.126   5.568   1.145
13470TIP3   OH240366   7.371   2.388   5.490
13470TIP3    H140367   7.313   2.461   5.510
13470TIP3    H240368   7.329   2.312   5.530
13471TIP3   OH240369   5.531   1.765   0.915
13471TIP3    H140370   5.587   1.726   0.982
13471TIP3    H240371   5.505   1.850   0.952
13472TIP3   OH240372   1.954   4.820   1.726
13472TIP3    H140373   1.999   4.900   1.699
13472TIP3    H240374   1.879   4.812   1.667
13473TIP3   OH240375   0.044   0.463   4.994
13473TIP3    H140376  -0.044   0.434   5.019
13473TIP3    H240377   0.097   0.449   5.073
13474TIP3   OH240378   4.229   3.507   1.212
13474TIP3    H140379   4.252   3.522   1.120
13474TIP3    H240380   4.139   3.538   1.219
13475TIP3   OH240381   3.976   1.908   1.517
13475TIP3    H140382   4.038   1.941   1.451
13475TIP3    H240383   4.011   1.940   1.600
13476TIP3   OH240384   3.657   1.185   5.593
13476TIP3    H140385   3.697   1.269   5.573
13476TIP3    H240386   3.707   1.122   5.542
13477TIP3   OH240387   4.598   2.340   0.628
13477TIP3    H140388   4.623   2.367   0.540
13477TIP3    H240389   4.657   2.267   0.648
13478TIP3   OH240390   6.791   7.196   5.156
13478TIP3    H140391   6.882   7.196   5.185
13478TIP3    H240392   6.773   7.288   5.134
13479TIP3   OH240393   5.677   4.052   3.099
13479TIP3    H140394   5.650   4.052   3.007
13479TIP3    H240395   5.605   4.009   3.145
13480TIP3   OH240396   5.883   7.788   1.616
13480TIP3    H140397   5.936   7.826   1.686
13480TIP3    H240398   5.814   7.852   1.600
13481TIP3   OH240399   4.120   4.960   0.743
13481TIP3    H140400   4.110   4.941   0.836
13481TIP3    H240401   4.210   4.933   0.723
13482TIP3   OH240402   3.725   4.253   0.534
13482TIP3    H140403   3.740   4.216   0.621
13482TIP3    H240404   3.723   4.177   0.475
13483TIP3   OH240405   0.065   3.676   6.447
13483TIP3    H140406   0.036   3.695   6.536
13483TIP3    H240407   0.144   3.729   6.435
13484TIP3   OH240408   6.927   2.788   3.238
13484TIP3    H140409   6.850   2.843   3.251
13484TIP3    H240410   6.958   2.810   3.151
13485TIP3   OH240411   5.929   3.257   2.437
13485TIP3    H140412   5.993   3.328   2.448
13485TIP3    H240413   5.961   3.209   2.360
13486TIP3   OH240414   7.369   0.983   5.061
13486TIP3    H140415   7.412   0.899   5.050
13486TIP3    H240416   7.301   0.985   4.993
13487TIP3   OH240417   0.274   7.520   2.324
13487TIP3    H140418   0.235   7.433   2.324
13487TIP3    H240419   0.216   7.572   2.269
13488TIP3   OH240420   4.595   4.175   5.619
13488TIP3    H140421   4.564   4.141   5.536
13488TIP3    H240422   4.537   4.137   5.685
13489TIP3   OH240423   6.703   5.012   0.705
13489TIP3    H140424   6.775   4.954   0.731
13489TIP3    H240425   6.624   4.959   0.717
13490TIP3   OH240426   4.671   2.570   0.740
13490TIP3    H140427   4.590   2.618   0.756
13490TIP3    H240428   4.643   2.485   0.705
13491TIP3   OH240429   6.381   4.326   0.490
13491TIP3    H140430   6.403   4.246   0.442
13491TIP3    H240431   6.285   4.329   0.490
13492TIP3   OH240432   0.781   1.860   1.320
13492TIP3    H140433   0.815   1.901   1.400
13492TIP3    H240434   0.767   1.768   1.345
13493TIP3   OH240435   5.278   3.596   3.286
13493TIP3    H140436   5.237   3.653   3.221
13493TIP3    H240437   5.206   3.541   3.317
13494TIP3   OH240438   0.553   5.755   6.009
13494TIP3    H140439   0.580   5.729   5.921
13494TIP3    H240440   0.484   5.819   5.995
13495TIP3   OH240441   2.382   6.692   5.608
13495TIP3    H140442   2.358   6.784   5.612
13495TIP3    H240443   2.299   6.645   5.616
13496TIP3   OH240444   6.398   0.785   1.365
13496TIP3    H140445   6.404   0.693   1.343
13496TIP3    H240446   6.339   0.822   1.299
13497TIP3   OH240447   4.105   5.362   5.874
13497TIP3    H140448   4.095   5.441   5.927
13497TIP3    H240449   4.037   5.303   5.904
13498TIP3   OH240450   4.629   5.437   5.520
13498TIP3    H140451   4.573   5.491   5.464
13498TIP3    H240452   4.613   5.347   5.491
13499TIP3   OH240453   0.735   4.905   4.676
13499TIP3    H140454   0.774   4.988   4.704
13499TIP3    H240455   0.801   4.866   4.618
13500TIP3   OH240456   8.244   3.594   4.185
13500TIP3    H140457   8.224   3.552   4.268
13500TIP3    H240458   8.212   3.684   4.195
13501TIP3   OH240459   3.089   4.898   0.888
13501TIP3    H140460   3.046   4.839   0.825
13501TIP3    H240461   3.182   4.876   0.880
13502TIP3   OH240462   1.043   6.052   1.517
13502TIP3    H140463   0.994   6.069   1.598
13502TIP3    H240464   1.060   5.958   1.518
13503TIP3   OH240465   5.408   4.994   6.241
13503TIP3    H140466   5.410   5.078   6.286
13503TIP3    H240467   5.426   4.929   6.309
13504TIP3   OH240468   7.606   2.536   4.834
13504TIP3    H140469   7.512   2.542   4.850
13504TIP3    H240470   7.635   2.627   4.831
13505TIP3   OH240471   5.982   1.477   4.212
13505TIP3    H140472   6.044   1.417   4.171
13505TIP3    H240473   5.929   1.422   4.270
13506TIP3   OH240474   4.569   0.729   1.803
13506TIP3    H140475   4.633   0.686   1.746
13506TIP3    H240476   4.564   0.673   1.880
13507TIP3   OH240477   3.162   2.224   3.158
13507TIP3    H140478   3.237   2.228   3.217
13507TIP3    H240479   3.112   2.303   3.177
13508TIP3   OH240480   3.121   0.819   2.784
13508TIP3    H140481   3.105   0.911   2.762
13508TIP3    H240482   3.140   0.819   2.878
13509TIP3   OH240483   2.469   3.911   4.654
13509TIP3    H140484   2.494   3.958   4.733
13509TIP3    H240485   2.374   3.904   4.659
13510TIP3   OH240486   8.044   0.085   0.692
13510TIP3    H140487   8.131   0.074   0.656
13510TIP3    H240488   8.018  -0.003   0.719
13511TIP3   OH240489   2.326   5.535   0.921
13511TIP3    H140490   2.234   5.530   0.948
13511TIP3    H240491   2.351   5.445   0.902
13512TIP3   OH240492   1.416   0.085   4.263
13512TIP3    H140493   1.460   0.144   4.324
13512TIP3    H240494   1.463   0.003   4.271
13513TIP3   OH240495   3.685   7.189   3.927
13513TIP3    H140496   3.610   7.234   3.888
13513TIP3    H240497   3.761   7.236   3.895
13514TIP3   OH240498   5.844   0.647   3.454
13514TIP3    H140499   5.914   0.678   3.396
13514TIP3    H240500   5.865   0.685   3.539
13515TIP3   OH240501   1.699   3.485   1.636
13515TIP3    H140502   1.758   3.539   1.584
13515TIP3    H240503   1.714   3.396   1.605
13516TIP3   OH240504   0.091   0.980   4.783
13516TIP3    H140505   0.018   0.953   4.838
13516TIP3    H240506   0.153   1.020   4.843
13517TIP3   OH240507   2.886   0.140   0.951
13517TIP3    H140508   2.884   0.045   0.944
13517TIP3    H240509   2.956   0.158   1.014
13518TIP3   OH240510   5.453   5.095   4.314
13518TIP3    H140511   5.440   5.039   4.391
13518TIP3    H240512   5.395   5.057   4.248
13519TIP3   OH240513   1.900   1.784   4.843
13519TIP3    H140514   1.860   1.869   4.865
13519TIP3    H240515   1.865   1.724   4.908
13520TIP3   OH240516   7.073   3.107   1.737
13520TIP3    H140517   6.983   3.101   1.705
13520TIP3    H240518   7.112   3.022   1.714
13521TIP3   OH240519   4.363   3.535   5.138
13521TIP3    H140520   4.408   3.576   5.211
13521TIP3    H240521   4.278   3.580   5.134
13522TIP3   OH240522   1.121   5.849   0.792
13522TIP3    H140523   1.153   5.807   0.713
13522TIP3    H240524   1.185   5.825   0.860
13523TIP3   OH240525   0.807   2.498   2.043
13523TIP3    H140526   0.731   2.550   2.066
13523TIP3    H240527   0.789   2.411   2.077
13524TIP3   OH240528   7.677   7.328   4.586
13524TIP3    H140529   7.655   7.420   4.596
13524TIP3    H240530   7.597   7.287   4.552
13525TIP3   OH240531   5.943   6.227   5.388
13525TIP3    H140532   5.866   6.259   5.341
13525TIP3    H240533   5.926   6.251   5.479
13526TIP3   OH240534   3.454   6.448   2.276
13526TIP3    H140535   3.475   6.416   2.188
13526TIP3    H240536   3.362   6.472   2.271
13527TIP3   OH240537   4.057   5.034   3.912
13527TIP3    H140538   3.976   5.062   3.869
13527TIP3    H240539   4.046   4.939   3.923
13528TIP3   OH240540   7.980   1.504   2.045
13528TIP3    H140541   7.925   1.530   1.971
13528TIP3    H240542   8.047   1.447   2.007
13529TIP3   OH240543   6.723   1.775   3.048
13529TIP3    H140544   6.788   1.748   3.113
13529TIP3    H240545   6.759   1.745   2.965
13530TIP3   OH240546   5.326   3.022   3.844
13530TIP3    H140547   5.412   3.020   3.803
13530TIP3    H240548   5.266   3.046   3.773
13531TIP3   OH240549   4.179   7.465   5.277
13531TIP3    H140550   4.095   7.496   5.243
13531TIP3    H240551   4.244   7.524   5.238
13532TIP3   OH240552   0.060   2.623   4.862
13532TIP3    H140553   0.106   2.539   4.869
13532TIP3    H240554   0.098   2.665   4.785
13533TIP3   OH240555   0.921   0.516   3.629
13533TIP3    H140556   0.927   0.475   3.542
13533TIP3    H240557   0.918   0.610   3.611
13534TIP3   OH240558   2.892   6.719   0.370
13534TIP3    H140559   2.870   6.647   0.430
13534TIP3    H240560   2.950   6.775   0.421
13535TIP3   OH240561   3.282   3.891   5.965
13535TIP3    H140562   3.242   3.909   6.050
13535TIP3    H240563   3.273   3.796   5.953
13536TIP3   OH240564   5.921   4.470   3.323
13536TIP3    H140565   5.904   4.407   3.252
13536TIP3    H240566   5.965   4.418   3.391
13537TIP3   OH240567   1.199   6.198   3.478
13537TIP3    H140568   1.292   6.209   3.501
13537TIP3    H240569   1.188   6.104   3.468
13538TIP3   OH240570   6.166   3.659   4.792
13538TIP3    H140571   6.117   3.644   4.711
13538TIP3    H240572   6.101   3.649   4.861
13539TIP3   OH240573   6.584   2.676   5.146
13539TIP3    H140574   6.556   2.635   5.064
13539TIP3    H240575   6.534   2.757   5.150
13540TIP3   OH240576   7.205   6.242   1.822
13540TIP3    H140577   7.213   6.151   1.793
13540TIP3    H240578   7.126   6.243   1.875
13541TIP3   OH240579   6.292   7.402   2.258
13541TIP3    H140580   6.255   7.428   2.173
13541TIP3    H240581   6.234   7.443   2.322
13542TIP3   OH240582   3.554   1.229   4.482
13542TIP3    H140583   3.460   1.228   4.467
13542TIP3    H240584   3.579   1.320   4.473
13543TIP3   OH240585   7.829   6.776   0.252
13543TIP3    H140586   7.821   6.684   0.279
13543TIP3    H240587   7.821   6.825   0.333
13544TIP3   OH240588   1.815   2.537   4.634
13544TIP3    H140589   1.816   2.625   4.598
13544TIP3    H240590   1.891   2.534   4.692
13545TIP3   OH240591   5.681   4.289   5.846
13545TIP3    H140592   5.757   4.347   5.849
13545TIP3    H240593   5.711   4.213   5.796
13546TIP3   OH240594   5.326   6.807   6.624
13546TIP3    H140595   5.234   6.827   6.608
13546TIP3    H240596   5.340   6.827   6.716
13547TIP3   OH240597   6.658   0.287   0.539
13547TIP3    H140598   6.729   0.303   0.602
13547TIP3    H240599   6.579   0.319   0.584
13548TIP3   OH240600   6.488   4.726   4.218
13548TIP3    H140601   6.524   4.815   4.223
13548TIP3    H240602   6.462   4.706   4.307
13549TIP3   OH240603   0.779   2.372   4.525
13549TIP3    H140604   0.846   2.380   4.593
13549TIP3    H240605   0.754   2.462   4.506
13550TIP3   OH240606   4.687   3.810   0.396
13550TIP3    H140607   4.606   3.810   0.448
13550TIP3    H240608   4.677   3.737   0.335
13551TIP3   OH240609   3.176   0.088   3.871
13551TIP3    H140610   3.192   0.145   3.796
13551TIP3    H240611   3.141   0.008   3.833
13552TIP3   OH240612   7.979   3.751   0.157
13552TIP3    H140613   8.068   3.782   0.175
13552TIP3    H240614   7.963   3.775   0.066
13553TIP3   OH240615   7.190   1.404   5.436
13553TIP3    H140616   7.211   1.378   5.346
13553TIP3    H240617   7.199   1.499   5.436
13554TIP3   OH240618   5.496   1.442   0.404
13554TIP3    H140619   5.563   1.375   0.388
13554TIP3    H240620   5.507   1.504   0.331
13555TIP3   OH240621   2.340   4.519   0.387
13555TIP3    H140622   2.265   4.551   0.437
13555TIP3    H240623   2.308   4.511   0.298
13556TIP3   OH240624   6.456   2.193   1.473
13556TIP3    H140625   6.530   2.133   1.476
13556TIP3    H240626   6.425   2.197   1.564
13557TIP3   OH240627   5.991   6.952   3.331
13557TIP3    H140628   5.982   7.048   3.329
13557TIP3    H240629   6.025   6.933   3.418
13558TIP3   OH240630   7.374   0.450   4.229
13558TIP3    H140631   7.462   0.471   4.199
13558TIP3    H240632   7.343   0.384   4.167
13559TIP3   OH240633   6.969   1.419   2.078
13559TIP3    H140634   6.970   1.515   2.085
13559TIP3    H240635   6.940   1.389   2.164
13560TIP3   OH240636   7.934   6.091   4.915
13560TIP3    H140637   7.928   6.185   4.902
13560TIP3    H240638   7.878   6.053   4.847
13561TIP3   OH240639   5.820   1.090   4.926
13561TIP3    H140640   5.896   1.058   4.974
13561TIP3    H240641   5.853   1.109   4.838
13562TIP3   OH240642   2.744   7.094   1.759
13562TIP3    H140643   2.689   7.053   1.825
13562TIP3    H240644   2.807   7.146   1.809
13563TIP3   OH240645   3.180   1.928   3.442
13563TIP3    H140646   3.123   2.005   3.433
13563TIP3    H240647   3.216   1.935   3.530
13564TIP3   OH240648   1.084   1.462   5.945
13564TIP3    H140649   1.165   1.499   5.910
13564TIP3    H240650   1.113   1.406   6.017
13565TIP3   OH240651   2.416   0.344   4.145
13565TIP3    H140652   2.387   0.273   4.203
13565TIP3    H240653   2.465   0.403   4.202
13566TIP3   OH240654   6.296   1.998   5.666
13566TIP3    H140655   6.311   2.092   5.677
13566TIP3    H240656   6.246   1.991   5.584
13567TIP3   OH240657   4.283   0.646   4.068
13567TIP3    H140658   4.237   0.728   4.086
13567TIP3    H240659   4.224   0.598   4.008
13568TIP3   OH240660   3.891   2.319   2.399
13568TIP3    H140661   3.924   2.229   2.398
13568TIP3    H240662   3.814   2.315   2.456
13569TIP3   OH240663   0.119   3.059   5.652
13569TIP3    H140664   0.032   3.096   5.660
13569TIP3    H240665   0.115   2.976   5.700
13570TIP3   OH240666   7.869   3.169   5.551
13570TIP3    H140667   7.918   3.090   5.574
13570TIP3    H240668   7.871   3.223   5.630
13571TIP3   OH240669   0.477   0.963   0.603
13571TIP3    H140670   0.427   0.882   0.604
13571TIP3    H240671   0.545   0.950   0.670
13572TIP3   OH240672   3.074   0.421   5.198
13572TIP3    H140673   3.115   0.388   5.279
13572TIP3    H240674   2.980   0.410   5.213
13573TIP3   OH240675   3.140   0.475   1.454
13573TIP3    H140676   3.170   0.407   1.514
13573TIP3    H240677   3.047   0.455   1.441
13574TIP3   OH240678   2.758   7.611   3.894
13574TIP3    H140679   2.848   7.633   3.870
13574TIP3    H240680   2.744   7.525   3.855
13575TIP3   OH240681   8.065   0.733   6.717
13575TIP3    H140682   7.994   0.680   6.751
13575TIP3    H240683   8.121   0.751   6.793
13576TIP3   OH240684   6.136   3.566   5.691
13576TIP3    H140685   6.140   3.482   5.645
13576TIP3    H240686   6.049   3.568   5.731
13577TIP3   OH240687   6.167   2.964   3.380
13577TIP3    H140688   6.253   2.932   3.352
13577TIP3    H240689   6.134   2.896   3.438
13578TIP3   OH240690   0.338   2.619   1.464
13578TIP3    H140691   0.287   2.550   1.506
13578TIP3    H240692   0.396   2.652   1.534
13579TIP3   OH240693   6.316   3.214   4.437
13579TIP3    H140694   6.333   3.238   4.346
13579TIP3    H240695   6.389   3.253   4.486
13580TIP3   OH240696   8.204   0.445   5.726
13580TIP3    H140697   8.291   0.427   5.761
13580TIP3    H240698   8.160   0.493   5.796
13581TIP3   OH240699   5.108   2.359   4.458
13581TIP3    H140700   5.013   2.367   4.449
13581TIP3    H240701   5.135   2.439   4.501
13582TIP3   OH240702   1.597   6.869   5.847
13582TIP3    H140703   1.600   6.964   5.837
13582TIP3    H240704   1.684   6.839   5.818
13583TIP3   OH240705   4.000   2.395   6.272
13583TIP3    H140706   4.082   2.432   6.305
13583TIP3    H240707   3.961   2.351   6.348
13584TIP3   OH240708   2.037   1.966   0.036
13584TIP3    H140709   2.126   1.999   0.049
13584TIP3    H240710   2.049   1.877   0.002
13585TIP3   OH240711   2.102   1.478   5.681
13585TIP3    H140712   2.061   1.558   5.646
13585TIP3    H240713   2.150   1.442   5.607
13586TIP3   OH240714   2.424   0.426   0.174
13586TIP3    H140715   2.393   0.515   0.192
13586TIP3    H240716   2.483   0.407   0.247
13587TIP3   OH240717   5.717   4.986   3.073
13587TIP3    H140718   5.681   4.918   3.131
13587TIP3    H240719   5.656   4.990   3.000
13588TIP3   OH240720   8.158   3.529   2.788
13588TIP3    H140721   8.124   3.457   2.735
13588TIP3    H240722   8.243   3.498   2.818
13589TIP3   OH240723   3.853   4.013   5.124
13589TIP3    H140724   3.930   3.980   5.170
13589TIP3    H240725   3.787   3.946   5.137
13590TIP3   OH240726   7.227   0.592   3.999
13590TIP3    H140727   7.250   0.499   3.998
13590TIP3    H240728   7.300   0.635   4.042
13591TIP3   OH240729   3.398   2.201   3.299
13591TIP3    H140730   3.473   2.249   3.333
13591TIP3    H240731   3.399   2.117   3.345
13592TIP3   OH240732   8.221   2.382   0.875
13592TIP3    H140733   8.226   2.305   0.932
13592TIP3    H240734   8.266   2.356   0.795
13593TIP3   OH240735   3.167   0.648   0.166
13593TIP3    H140736   3.165   0.558   0.132
13593TIP3    H240737   3.116   0.644   0.247
13594TIP3   OH240738   6.652   6.514   1.106
13594TIP3    H140739   6.582   6.573   1.080
13594TIP3    H240740   6.658   6.450   1.035
13595TIP3   OH240741   2.015   0.181   1.339
13595TIP3    H140742   1.926   0.145   1.335
13595TIP3    H240743   2.064   0.130   1.274
13596TIP3   OH240744   4.900   2.194   0.909
13596TIP3    H140745   4.829   2.200   0.973
13596TIP3    H240746   4.858   2.167   0.828
13597TIP3   OH240747   5.383   2.905   5.498
13597TIP3    H140748   5.407   2.971   5.564
13597TIP3    H240749   5.463   2.891   5.448
13598TIP3   OH240750   7.519   7.785   0.951
13598TIP3    H140751   7.582   7.767   0.881
13598TIP3    H240752   7.573   7.807   1.027
13599TIP3   OH240753   2.583   5.785   4.193
13599TIP3    H140754   2.577   5.783   4.289
13599TIP3    H240755   2.600   5.877   4.172
13600TIP3   OH240756   5.352   5.105   2.710
13600TIP3    H140757   5.367   5.080   2.802
13600TIP3    H240758   5.262   5.137   2.709
13601TIP3   OH240759   0.402   4.593   6.068
13601TIP3    H140760   0.368   4.521   6.015
13601TIP3    H240761   0.392   4.671   6.014
13602TIP3   OH240762   7.882   6.889   3.813
13602TIP3    H140763   7.909   6.981   3.815
13602TIP3    H240764   7.856   6.873   3.723
13603TIP3   OH240765   4.407   1.441   4.674
13603TIP3    H140766   4.428   1.535   4.671
13603TIP3    H240767   4.322   1.437   4.718
13604TIP3   OH240768   1.195   6.167   0.024
13604TIP3    H140769   1.129   6.217   0.072
13604TIP3    H240770   1.275   6.176   0.076
13605TIP3   OH240771   1.798   6.180   4.788
13605TIP3    H140772   1.805   6.222   4.874
13605TIP3    H240773   1.802   6.252   4.726
13606TIP3   OH240774   5.872   3.656   0.825
13606TIP3    H140775   5.806   3.662   0.894
13606TIP3    H240776   5.954   3.642   0.872
13607TIP3   OH240777   8.085   5.106   5.284
13607TIP3    H140778   8.132   5.160   5.348
13607TIP3    H240779   7.994   5.107   5.313
13608TIP3   OH240780   2.400   1.450   2.135
13608TIP3    H140781   2.374   1.405   2.055
13608TIP3    H240782   2.363   1.398   2.206
13609TIP3   OH240783   7.959   1.930   6.515
13609TIP3    H140784   7.873   1.961   6.545
13609TIP3    H240785   7.978   1.984   6.438
13610TIP3   OH240786   4.349   5.447   3.176
13610TIP3    H140787   4.382   5.533   3.204
13610TIP3    H240788   4.414   5.417   3.112
13611TIP3   OH240789   1.761   6.093   0.165
13611TIP3    H140790   1.666   6.086   0.176
13611TIP3    H240791   1.793   6.003   0.174
13612TIP3   OH240792   6.269   7.598   0.157
13612TIP3    H140793   6.242   7.642   0.077
13612TIP3    H240794   6.208   7.524   0.166
13613TIP3   OH240795   2.728   2.085   4.938
13613TIP3    H140796   2.658   2.090   5.002
13613TIP3    H240797   2.733   1.993   4.913
13614TIP3   OH240798   4.992   7.182   4.978
13614TIP3    H140799   4.976   7.270   4.944
13614TIP3    H240800   4.991   7.126   4.900
13615TIP3   OH240801   6.208   3.935   5.485
13615TIP3    H140802   6.286   3.961   5.435
13615TIP3    H240803   6.243   3.879   5.555
13616TIP3   OH240804   7.045   4.315   0.611
13616TIP3    H140805   7.064   4.223   0.594
13616TIP3    H240806   7.129   4.353   0.636
13617TIP3   OH240807   7.749   7.067   5.901
13617TIP3    H140808   7.719   6.989   5.949
13617TIP3    H240809   7.838   7.082   5.934
13618TIP3   OH240810   2.524   7.687   4.964
13618TIP3    H140811   2.512   7.711   4.872
13618TIP3    H240812   2.525   7.591   4.963
13619TIP3   OH240813   7.456   6.911   1.465
13619TIP3    H140814   7.369   6.919   1.504
13619TIP3    H240815   7.442   6.859   1.385
13620TIP3   OH240816   3.412   3.957   2.163
13620TIP3    H140817   3.461   3.875   2.153
13620TIP3    H240818   3.355   3.942   2.238
13621TIP3   OH240819   6.166   0.799   4.979
13621TIP3    H140820   6.252   0.758   4.968
13621TIP3    H240821   6.108   0.727   5.000
13622TIP3   OH240822   7.685   0.956   2.536
13622TIP3    H140823   7.690   1.019   2.465
13622TIP3    H240824   7.727   1.000   2.610
13623TIP3   OH240825   1.147   3.535   6.095
13623TIP3    H140826   1.147   3.569   6.006
13623TIP3    H240827   1.206   3.460   6.091
13624TIP3   OH240828   2.763   0.863   3.669
13624TIP3    H140829   2.760   0.825   3.581
13624TIP3    H240830   2.735   0.791   3.726
13625TIP3   OH240831   4.366   3.821   4.980
13625TIP3    H140832   4.429   3.803   4.910
13625TIP3    H240833   4.280   3.803   4.941
13626TIP3   OH240834   2.776   0.983   4.965
13626TIP3    H140835   2.715   0.922   5.008
13626TIP3    H240836   2.721   1.033   4.905
13627TIP3   OH240837   1.704   0.456   6.467
13627TIP3    H140838   1.620   0.500   6.477
13627TIP3    H240839   1.768   0.514   6.508
13628TIP3   OH240840   7.862   4.358   6.597
13628TIP3    H140841   7.799   4.430   6.606
13628TIP3    H240842   7.815   4.281   6.632
13629TIP3   OH240843   4.097   6.922   1.008
13629TIP3    H140844   4.081   6.995   1.069
13629TIP3    H240845   4.190   6.902   1.021
13630TIP3   OH240846   7.892   3.916   5.369
13630TIP3    H140847   7.879   3.998   5.322
13630TIP3    H240848   7.962   3.871   5.321
13631TIP3   OH240849   1.170   0.869   1.858
13631TIP3    H140850   1.254   0.875   1.904
13631TIP3    H240851   1.188   0.817   1.780
13632TIP3   OH240852   7.874   6.162   3.998
13632TIP3    H140853   7.807   6.201   4.054
13632TIP3    H240854   7.875   6.070   4.022
13633TIP3   OH240855   4.188   1.416   4.835
13633TIP3    H140856   4.182   1.321   4.844
13633TIP3    H240857   4.128   1.450   4.902
13634TIP3   OH240858   8.293   0.960   1.022
13634TIP3    H140859   8.264   0.946   1.112
13634TIP3    H240860   8.254   0.888   0.973
13635TIP3   OH240861   3.830   3.309   5.881
13635TIP3    H140862   3.744   3.298   5.921
13635TIP3    H240863   3.833   3.245   5.811
13636TIP3   OH240864   4.673   5.639   3.215
13636TIP3    H140865   4.651   5.554   3.253
13636TIP3    H240866   4.589   5.680   3.196
13637TIP3   OH240867   7.012   5.967   3.145
13637TIP3    H140868   6.941   6.032   3.143
13637TIP3    H240869   7.092   6.018   3.149
13638TIP3   OH240870   1.949   1.760   0.391
13638TIP3    H140871   1.960   1.842   0.343
13638TIP3    H240872   2.039   1.730   0.408
13639TIP3   OH240873   5.077   4.400   6.489
13639TIP3    H140874   5.025   4.471   6.527
13639TIP3    H240875   5.075   4.331   6.555
13640TIP3   OH240876   6.480   3.721   2.652
13640TIP3    H140877   6.408   3.760   2.602
13640TIP3    H240878   6.517   3.794   2.702
13641TIP3   OH240879   4.314   1.705   1.475
13641TIP3    H140880   4.347   1.728   1.388
13641TIP3    H240881   4.384   1.733   1.535
13642TIP3   OH240882   5.627   0.288   1.185
13642TIP3    H140883   5.547   0.248   1.150
13642TIP3    H240884   5.601   0.319   1.272
13643TIP3   OH240885   0.904   5.480   0.835
13643TIP3    H140886   0.844   5.550   0.809
13643TIP3    H240887   0.981   5.492   0.780
13644TIP3   OH240888   2.853   5.866   3.008
13644TIP3    H140889   2.879   5.780   2.975
13644TIP3    H240890   2.935   5.913   3.020
13645TIP3   OH240891   4.507   7.706   0.152
13645TIP3    H140892   4.472   7.721   0.240
13645TIP3    H240893   4.585   7.652   0.167
13646TIP3   OH240894   2.496   0.239   1.174
13646TIP3    H140895   2.498   0.143   1.167
13646TIP3    H240896   2.409   0.263   1.143
13647TIP3   OH240897   0.369   1.901   2.214
13647TIP3    H140898   0.434   1.935   2.276
13647TIP3    H240899   0.416   1.892   2.132
13648TIP3   OH240900   4.280   1.229   6.411
13648TIP3    H140901   4.291   1.176   6.490
13648TIP3    H240902   4.369   1.252   6.385
13649TIP3   OH240903   2.819   0.199   5.698
13649TIP3    H140904   2.751   0.233   5.756
13649TIP3    H240905   2.774   0.185   5.614
13650TIP3   OH240906   4.311   3.894   1.656
13650TIP3    H140907   4.219   3.898   1.681
13650TIP3    H240908   4.356   3.946   1.723
13651TIP3   OH240909   2.163   2.641   1.108
13651TIP3    H140910   2.134   2.710   1.167
13651TIP3    H240911   2.099   2.643   1.036
13652TIP3   OH240912   5.421   0.234   3.367
13652TIP3    H140913   5.377   0.205   3.287
13652TIP3    H240914   5.509   0.198   3.361
13653TIP3   OH240915   7.207   4.682   4.785
13653TIP3    H140916   7.278   4.709   4.843
13653TIP3    H240917   7.154   4.622   4.838
13654TIP3   OH240918   1.105   2.555   5.660
13654TIP3    H140919   1.089   2.473   5.614
13654TIP3    H240920   1.060   2.545   5.744
13655TIP3   OH240921   1.384   2.583   0.047
13655TIP3    H140922   1.437   2.654   0.013
13655TIP3    H240923   1.311   2.626   0.091
13656TIP3   OH240924   0.195   3.971   0.575
13656TIP3    H140925   0.199   3.905   0.645
13656TIP3    H240926   0.286   3.988   0.552
13657TIP3   OH240927   1.923   3.915   1.585
13657TIP3    H140928   1.962   3.977   1.646
13657TIP3    H240929   1.910   3.965   1.504
13658TIP3   OH240930   7.846   6.962   1.152
13658TIP3    H140931   7.794   7.040   1.135
13658TIP3    H240932   7.793   6.909   1.212
13659TIP3   OH240933   2.847   4.708   6.440
13659TIP3    H140934   2.901   4.783   6.466
13659TIP3    H240935   2.888   4.633   6.482
13660TIP3   OH240936   0.112   2.261   0.088
13660TIP3    H140937   0.088   2.178   0.045
13660TIP3    H240938   0.207   2.264   0.084
13661TIP3   OH240939   1.573   4.403   3.687
13661TIP3    H140940   1.667   4.398   3.700
13661TIP3    H240941   1.561   4.446   3.603
13662TIP3   OH240942   1.303   1.237   2.803
13662TIP3    H140943   1.329   1.313   2.750
13662TIP3    H240944   1.301   1.270   2.892
13663TIP3   OH240945   3.702   4.708   2.924
13663TIP3    H140946   3.702   4.800   2.948
13663TIP3    H240947   3.617   4.694   2.882
13664TIP3   OH240948   0.501   4.790   4.555
13664TIP3    H140949   0.521   4.712   4.505
13664TIP3    H240950   0.581   4.810   4.604
13665TIP3   OH240951   4.862   7.613   2.514
13665TIP3    H140952   4.784   7.650   2.556
13665TIP3    H240953   4.913   7.689   2.487
13666TIP3   OH240954   0.897   0.616   4.399
13666TIP3    H140955   0.975   0.563   4.380
13666TIP3    H240956   0.861   0.578   4.480
13667TIP3   OH240957   0.681   5.366   5.889
13667TIP3    H140958   0.660   5.313   5.813
13667TIP3    H240959   0.677   5.305   5.963
13668TIP3   OH240960   5.190   7.644   1.876
13668TIP3    H140961   5.150   7.611   1.795
13668TIP3    H240962   5.237   7.723   1.849
13669TIP3   OH240963   7.507   7.685   0.391
13669TIP3    H140964   7.575   7.745   0.360
13669TIP3    H240965   7.442   7.685   0.321
13670TIP3   OH240966   1.634   2.457   4.186
13670TIP3    H140967   1.582   2.495   4.114
13670TIP3    H240968   1.642   2.365   4.163
13671TIP3   OH240969   7.826   5.861   6.552
13671TIP3    H140970   7.887   5.792   6.528
13671TIP3    H240971   7.755   5.853   6.488
13672TIP3   OH240972   7.701   0.726   1.072
13672TIP3    H140973   7.772   0.745   1.133
13672TIP3    H240974   7.715   0.787   0.999
13673TIP3   OH240975   5.542   5.423   3.377
13673TIP3    H140976   5.633   5.441   3.356
13673TIP3    H240977   5.542   5.333   3.410
13674TIP3   OH240978   1.807   3.381   5.891
13674TIP3    H140979   1.715   3.396   5.910
13674TIP3    H240980   1.814   3.286   5.877
13675TIP3   OH240981   6.170   4.285   3.852
13675TIP3    H140982   6.171   4.248   3.940
13675TIP3    H240983   6.142   4.376   3.864
13676TIP3   OH240984   0.966   0.447   4.697
13676TIP3    H140985   0.999   0.362   4.725
13676TIP3    H240986   1.022   0.510   4.742
13677TIP3   OH240987   1.084   7.499   6.657
13677TIP3    H140988   1.085   7.588   6.623
13677TIP3    H240989   1.056   7.509   6.748
13678TIP3   OH240990   0.908   4.820   0.056
13678TIP3    H140991   0.953   4.885   0.001
13678TIP3    H240992   0.827   4.863   0.082
13679TIP3   OH240993   3.197   6.301   0.603
13679TIP3    H140994   3.163   6.359   0.535
13679TIP3    H240995   3.183   6.213   0.570
13680TIP3   OH240996   3.075   4.626   6.706
13680TIP3    H140997   3.089   4.716   6.676
13680TIP3    H240998   2.985   4.624   6.738
13681TIP3   OH240999   5.385   1.970   2.553
13681TIP3    H141000   5.338   2.027   2.492
13681TIP3    H241001   5.477   1.992   2.541
13682TIP3   OH241002   7.574   2.760   1.024
13682TIP3    H141003   7.618   2.675   1.029
13682TIP3    H241004   7.578   2.794   1.113
13683TIP3   OH241005   7.030   4.965   1.551
13683TIP3    H141006   6.971   5.039   1.539
13683TIP3    H241007   7.009   4.931   1.638
13684TIP3   OH241008   1.535   5.018   6.733
13684TIP3    H141009   1.538   5.020   6.637
13684TIP3    H241010   1.626   5.029   6.760
13685TIP3   OH241011   4.456   0.844   2.517
13685TIP3    H141012   4.514   0.880   2.583
13685TIP3    H241013   4.473   0.750   2.519
13686TIP3   OH241014   4.495   0.878   0.535
13686TIP3    H141015   4.407   0.842   0.528
13686TIP3    H241016   4.548   0.825   0.476
13687TIP3   OH241017   1.358   0.561   1.455
13687TIP3    H141018   1.411   0.641   1.458
13687TIP3    H241019   1.295   0.578   1.384
13688TIP3   OH241020   0.080   4.301   4.392
13688TIP3    H141021   0.006   4.358   4.370
13688TIP3    H241022   0.116   4.337   4.472
13689TIP3   OH241023   3.637   4.021   5.878
13689TIP3    H141024   3.687   4.026   5.960
13689TIP3    H241025   3.554   4.064   5.898
13690TIP3   OH241026   5.982   4.286   3.520
13690TIP3    H141027   6.002   4.207   3.470
13690TIP3    H241028   5.918   4.258   3.585
13691TIP3   OH241029   4.460   1.607   5.784
13691TIP3    H141030   4.390   1.542   5.780
13691TIP3    H241031   4.448   1.650   5.869
13692TIP3   OH241032   6.168   1.379   3.334
13692TIP3    H141033   6.189   1.331   3.414
13692TIP3    H241034   6.253   1.397   3.293
13693TIP3   OH241035   0.407   7.419   3.442
13693TIP3    H141036   0.423   7.361   3.368
13693TIP3    H241037   0.357   7.492   3.406
13694TIP3   OH241038   7.810   4.049   6.231
13694TIP3    H141039   7.863   4.003   6.296
13694TIP3    H241040   7.737   3.990   6.213
13695TIP3   OH241041   0.445   4.246   2.479
13695TIP3    H141042   0.480   4.334   2.467
13695TIP3    H241043   0.513   4.187   2.446
13696TIP3   OH241044   2.128   6.849   1.735
13696TIP3    H141045   2.084   6.821   1.815
13696TIP3    H241046   2.058   6.884   1.680
13697TIP3   OH241047   0.581   0.863   3.737
13697TIP3    H141048   0.653   0.801   3.752
13697TIP3    H241049   0.514   0.838   3.801
13698TIP3   OH241050   1.143   1.012   5.649
13698TIP3    H141051   1.082   0.950   5.688
13698TIP3    H241052   1.095   1.050   5.575
13699TIP3   OH241053   5.885   4.293   5.427
13699TIP3    H141054   5.936   4.234   5.482
13699TIP3    H241055   5.825   4.235   5.380
13700TIP3   OH241056   3.939   0.378   2.475
13700TIP3    H141057   3.935   0.469   2.446
13700TIP3    H241058   3.935   0.382   2.570
13701TIP3   OH241059   3.214   6.057   4.476
13701TIP3    H141060   3.196   5.973   4.435
13701TIP3    H241061   3.224   6.037   4.569
13702TIP3   OH241062   1.374   4.348   3.859
13702TIP3    H141063   1.440   4.399   3.812
13702TIP3    H241064   1.301   4.409   3.871
13703TIP3   OH241065   2.287   6.972   5.596
13703TIP3    H141066   2.224   7.042   5.582
13703TIP3    H241067   2.334   6.997   5.675
13704TIP3   OH241068   6.398   2.518   1.968
13704TIP3    H141069   6.320   2.471   1.999
13704TIP3    H241070   6.385   2.526   1.874
13705TIP3   OH241071   8.151   5.018   1.337
13705TIP3    H141072   8.106   5.085   1.389
13705TIP3    H241073   8.090   4.997   1.267
13706TIP3   OH241074   4.729   5.203   4.980
13706TIP3    H141075   4.775   5.232   5.059
13706TIP3    H241076   4.747   5.271   4.916
13707TIP3   OH241077   0.713   5.023   2.630
13707TIP3    H141078   0.680   4.979   2.709
13707TIP3    H241079   0.716   5.116   2.654
13708TIP3   OH241080   4.597   3.373   0.559
13708TIP3    H141081   4.542   3.342   0.631
13708TIP3    H241082   4.623   3.294   0.513
13709TIP3   OH241083   1.934   7.789   3.975
13709TIP3    H141084   1.847   7.766   3.943
13709TIP3    H241085   1.917   7.848   4.049
13710TIP3   OH241086   6.825   1.101   2.965
13710TIP3    H141087   6.884   1.135   2.898
13710TIP3    H241088   6.808   1.011   2.939
13711TIP3   OH241089   7.075   2.839   1.655
13711TIP3    H141090   7.118   2.801   1.578
13711TIP3    H241091   7.042   2.763   1.704
13712TIP3   OH241092   4.550   4.692   5.884
13712TIP3    H141093   4.455   4.701   5.872
13712TIP3    H241094   4.576   4.625   5.821
13713TIP3   OH241095   3.164   6.661   1.259
13713TIP3    H141096   3.221   6.689   1.331
13713TIP3    H241097   3.076   6.690   1.286
13714TIP3   OH241098   6.625   4.513   6.650
13714TIP3    H141099   6.570   4.491   6.725
13714TIP3    H241100   6.671   4.431   6.630
13715TIP3   OH241101   1.125   7.374   5.352
13715TIP3    H141102   1.075   7.455   5.360
13715TIP3    H241103   1.140   7.364   5.258
13716TIP3   OH241104   3.911   6.116   6.195
13716TIP3    H141105   3.909   6.207   6.223
13716TIP3    H241106   3.979   6.075   6.249
13717TIP3   OH241107   1.125   7.196   5.786
13717TIP3    H141108   1.138   7.266   5.850
13717TIP3    H241109   1.199   7.206   5.725
13718TIP3   OH241110   0.783   4.878   2.383
13718TIP3    H141111   0.779   4.937   2.308
13718TIP3    H241112   0.744   4.928   2.455
13719TIP3   OH241113   6.981   2.208   1.702
13719TIP3    H141114   7.067   2.250   1.703
13719TIP3    H241115   6.953   2.215   1.610
13720TIP3   OH241116   0.622   6.745   3.889
13720TIP3    H141117   0.713   6.717   3.874
13720TIP3    H241118   0.630   6.819   3.949
13721TIP3   OH241119   7.397   4.396   5.885
13721TIP3    H141120   7.341   4.450   5.828
13721TIP3    H241121   7.410   4.449   5.963
13722TIP3   OH241122   5.776   4.016   6.122
13722TIP3    H141123   5.850   4.053   6.075
13722TIP3    H241124   5.699   4.063   6.088
13723TIP3   OH241125   5.740   3.013   6.225
13723TIP3    H141126   5.686   2.981   6.297
13723TIP3    H241127   5.748   3.107   6.241
13724TIP3   OH241128   5.650   2.174   3.473
13724TIP3    H141129   5.718   2.106   3.473
13724TIP3    H241130   5.632   2.190   3.565
13725TIP3   OH241131   0.460   1.010   4.329
13725TIP3    H141132   0.403   0.957   4.273
13725TIP3    H241133   0.479   0.955   4.404
13726TIP3   OH241134   4.554   4.811   4.356
13726TIP3    H141135   4.618   4.826   4.287
13726TIP3    H241136   4.511   4.896   4.368
13727TIP3   OH241137   2.550   3.373   5.134
13727TIP3    H141138   2.458   3.391   5.114
13727TIP3    H241139   2.549   3.285   5.173
13728TIP3   OH241140   2.739   4.780   2.942
13728TIP3    H141141   2.685   4.749   2.869
13728TIP3    H241142   2.724   4.874   2.945
13729TIP3   OH241143   5.123   0.815   4.411
13729TIP3    H141144   5.043   0.854   4.376
13729TIP3    H241145   5.117   0.722   4.388
13730TIP3   OH241146   1.267   6.881   3.201
13730TIP3    H141147   1.252   6.967   3.163
13730TIP3    H241148   1.248   6.819   3.131
13731TIP3   OH241149   2.729   2.178   3.464
13731TIP3    H141150   2.731   2.192   3.370
13731TIP3    H241151   2.645   2.215   3.492
13732TIP3   OH241152   4.320   7.528   4.498
13732TIP3    H141153   4.263   7.603   4.511
13732TIP3    H241154   4.337   7.495   4.587
13733TIP3   OH241155   4.535   2.970   6.426
13733TIP3    H141156   4.466   2.998   6.366
13733TIP3    H241157   4.602   3.038   6.419
13734TIP3   OH241158   4.644   4.562   4.445
13734TIP3    H141159   4.683   4.526   4.365
13734TIP3    H241160   4.626   4.654   4.423
13735TIP3   OH241161   4.699   5.481   3.758
13735TIP3    H141162   4.617   5.432   3.765
13735TIP3    H241163   4.719   5.506   3.848
13736TIP3   OH241164   7.292   5.090   1.072
13736TIP3    H141165   7.277   5.025   1.003
13736TIP3    H241166   7.366   5.055   1.122
13737TIP3   OH241167   7.951   5.637   4.885
13737TIP3    H141168   7.900   5.671   4.959
13737TIP3    H241169   7.888   5.584   4.835
13738TIP3   OH241170   2.702   6.629   5.222
13738TIP3    H141171   2.686   6.667   5.309
13738TIP3    H241172   2.707   6.535   5.239
13739TIP3   OH241173   3.433   0.747   4.307
13739TIP3    H141174   3.482   0.828   4.324
13739TIP3    H241175   3.363   0.773   4.248
13740TIP3   OH241176   0.984   3.863   6.110
13740TIP3    H141177   0.944   3.892   6.029
13740TIP3    H241178   0.933   3.906   6.179
13741TIP3   OH241179   5.820   7.085   0.655
13741TIP3    H141180   5.773   7.039   0.725
13741TIP3    H241181   5.770   7.065   0.576
13742TIP3   OH241182   0.109   2.120   2.186
13742TIP3    H141183   0.177   2.052   2.183
13742TIP3    H241184   0.083   2.123   2.278
13743TIP3   OH241185   2.239   5.943   6.658
13743TIP3    H141186   2.269   5.905   6.576
13743TIP3    H241187   2.148   5.915   6.666
13744TIP3   OH241188   5.395   7.528   0.558
13744TIP3    H141189   5.422   7.619   0.570
13744TIP3    H241190   5.440   7.480   0.627
13745TIP3   OH241191   8.024   5.854   3.212
13745TIP3    H141192   8.089   5.839   3.281
13745TIP3    H241193   7.968   5.923   3.246
13746TIP3   OH241194   1.688   0.455   2.999
13746TIP3    H141195   1.719   0.401   3.071
13746TIP3    H241196   1.598   0.426   2.985
13747TIP3   OH241197   6.809   6.354   2.742
13747TIP3    H141198   6.821   6.302   2.662
13747TIP3    H241199   6.759   6.430   2.714
13748TIP3   OH241200   1.114   4.175   0.942
13748TIP3    H141201   1.093   4.134   1.026
13748TIP3    H241202   1.155   4.259   0.966
13749TIP3   OH241203   8.071   4.289   2.449
13749TIP3    H141204   8.036   4.266   2.535
13749TIP3    H241205   8.108   4.377   2.461
13750TIP3   OH241206   5.375   2.007   0.118
13750TIP3    H141207   5.336   2.054   0.045
13750TIP3    H241208   5.448   1.958   0.079
13751TIP3   OH241209   5.034   2.433   0.941
13751TIP3    H141210   5.020   2.491   0.866
13751TIP3    H241211   4.993   2.350   0.916
13752TIP3   OH241212   5.557   5.415   0.120
13752TIP3    H141213   5.487   5.477   0.142
13752TIP3    H241214   5.578   5.373   0.203
13753TIP3   OH241215   4.536   3.657   1.612
13753TIP3    H141216   4.487   3.634   1.692
13753TIP3    H241217   4.623   3.683   1.644
13754TIP3   OH241218   2.767   4.076   3.560
13754TIP3    H141219   2.746   4.018   3.633
13754TIP3    H241220   2.819   4.023   3.501
13755TIP3   OH241221   3.402   4.148   5.899
13755TIP3    H141222   3.390   4.214   5.968
13755TIP3    H241223   3.346   4.076   5.926
13756TIP3   OH241224   5.723   1.880   3.366
13756TIP3    H141225   5.664   1.806   3.374
13756TIP3    H241226   5.810   1.840   3.360
13757TIP3   OH241227   6.689   6.461   5.889
13757TIP3    H141228   6.731   6.508   5.817
13757TIP3    H241229   6.760   6.415   5.933
13758TIP3   OH241230   2.592   3.790   2.512
13758TIP3    H141231   2.651   3.747   2.574
13758TIP3    H241232   2.650   3.841   2.455
13759TIP3   OH241233   5.690   2.624   4.775
13759TIP3    H141234   5.688   2.671   4.858
13759TIP3    H241235   5.782   2.600   4.762
13760TIP3   OH241236   3.493   5.951   2.476
13760TIP3    H141237   3.519   6.043   2.468
13760TIP3    H241238   3.398   5.951   2.464
13761TIP3   OH241239   0.624   2.031   2.408
13761TIP3    H141240   0.720   2.024   2.406
13761TIP3    H241241   0.602   2.026   2.501
13762TIP3   OH241242   3.065   3.994   3.542
13762TIP3    H141243   3.077   3.909   3.500
13762TIP3    H241244   3.069   4.058   3.470
13763TIP3   OH241245   3.315   6.316   4.907
13763TIP3    H141246   3.360   6.320   4.823
13763TIP3    H241247   3.271   6.231   4.906
13764TIP3   OH241248   3.150   2.484   0.017
13764TIP3    H141249   3.067   2.479   0.064
13764TIP3    H241250   3.136   2.435  -0.064
13765TIP3   OH241251   8.173   4.508   1.793
13765TIP3    H141252   8.149   4.588   1.839
13765TIP3    H241253   8.251   4.531   1.744
13766TIP3   OH241254   0.583   4.778   0.246
13766TIP3    H141255   0.506   4.721   0.253
13766TIP3    H241256   0.607   4.796   0.337
13767TIP3   OH241257   7.171   6.768   6.533
13767TIP3    H141258   7.175   6.864   6.543
13767TIP3    H241259   7.205   6.752   6.445
13768TIP3   OH241260   7.300   1.757   4.497
13768TIP3    H141261   7.354   1.685   4.529
13768TIP3    H241262   7.210   1.729   4.513
13769TIP3   OH241263   2.298   5.854   1.579
13769TIP3    H141264   2.261   5.799   1.648
13769TIP3    H241265   2.323   5.935   1.625
13770TIP3   OH241266   5.226   3.621   0.354
13770TIP3    H141267   5.217   3.525   0.353
13770TIP3    H241268   5.284   3.640   0.280
13771TIP3   OH241269   7.894   1.315   4.019
13771TIP3    H141270   7.835   1.387   3.994
13771TIP3    H241271   7.967   1.358   4.063
13772TIP3   OH241272   4.232   4.377   5.733
13772TIP3    H141273   4.276   4.378   5.648
13772TIP3    H241274   4.303   4.385   5.797
13773TIP3   OH241275   3.692   4.113   2.652
13773TIP3    H141276   3.775   4.073   2.625
13773TIP3    H241277   3.714   4.203   2.675
13774TIP3   OH241278   4.402   1.591   0.690
13774TIP3    H141279   4.345   1.667   0.683
13774TIP3    H241280   4.392   1.546   0.607
13775TIP3   OH241281   2.361   0.720   2.943
13775TIP3    H141282   2.417   0.655   2.900
13775TIP3    H241283   2.411   0.801   2.939
13776TIP3   OH241284   6.237   7.441   1.396
13776TIP3    H141285   6.204   7.445   1.306
13776TIP3    H241286   6.163   7.466   1.450
13777TIP3   OH241287   0.705   4.486   5.230
13777TIP3    H141288   0.723   4.508   5.321
13777TIP3    H241289   0.613   4.509   5.218
13778TIP3   OH241290   3.229   1.562   0.252
13778TIP3    H141291   3.214   1.590   0.162
13778TIP3    H241292   3.321   1.580   0.269
13779TIP3   OH241293   7.746   2.232   3.079
13779TIP3    H141294   7.816   2.297   3.077
13779TIP3    H241295   7.668   2.280   3.052
13780TIP3   OH241296   8.315   1.743   5.274
13780TIP3    H141297   8.298   1.810   5.208
13780TIP3    H241298   8.242   1.751   5.336
13781TIP3   OH241299   0.248   1.984   0.777
13781TIP3    H141300   0.187   1.917   0.805
13781TIP3    H241301   0.331   1.937   0.763
13782TIP3   OH241302   3.167   7.133   3.740
13782TIP3    H141303   3.081   7.130   3.781
13782TIP3    H241304   3.150   7.119   3.647
13783TIP3   OH241305   7.967   3.664   0.587
13783TIP3    H141306   7.883   3.711   0.581
13783TIP3    H241307   7.984   3.636   0.497
13784TIP3   OH241308   1.193   5.963   1.874
13784TIP3    H141309   1.184   5.914   1.793
13784TIP3    H241310   1.103   5.969   1.908
13785TIP3   OH241311   5.721   2.028   4.508
13785TIP3    H141312   5.692   2.038   4.598
13785TIP3    H241313   5.664   2.086   4.458
13786TIP3   OH241314   3.745   3.137   2.347
13786TIP3    H141315   3.760   3.043   2.356
13786TIP3    H241316   3.659   3.145   2.306
13787TIP3   OH241317   5.830   7.323   6.714
13787TIP3    H141318   5.747   7.297   6.755
13787TIP3    H241319   5.868   7.241   6.684
13788TIP3   OH241320   0.388   1.583   3.175
13788TIP3    H141321   0.453   1.610   3.110
13788TIP3    H241322   0.309   1.629   3.150
13789TIP3   OH241323   0.327   4.288   1.721
13789TIP3    H141324   0.279   4.280   1.639
13789TIP3    H241325   0.375   4.205   1.728
13790TIP3   OH241326   8.225   7.238   2.046
13790TIP3    H141327   8.293   7.305   2.045
13790TIP3    H241328   8.158   7.271   1.986
13791TIP3   OH241329   8.115   5.880   4.211
13791TIP3    H141330   8.171   5.828   4.268
13791TIP3    H241331   8.160   5.964   4.202
13792TIP3   OH241332   4.551   1.744   1.640
13792TIP3    H141333   4.552   1.829   1.684
13792TIP3    H241334   4.640   1.710   1.650
13793TIP3   OH241335   7.805   2.479   4.995
13793TIP3    H141336   7.810   2.542   5.067
13793TIP3    H241337   7.724   2.501   4.949
13794TIP3   OH241338   1.912   4.622   3.465
13794TIP3    H141339   1.954   4.549   3.421
13794TIP3    H241340   1.865   4.669   3.396
13795TIP3   OH241341   1.793   0.859   4.199
13795TIP3    H141342   1.788   0.949   4.230
13795TIP3    H241343   1.872   0.856   4.145
13796TIP3   OH241344   1.776   6.844   5.186
13796TIP3    H141345   1.681   6.838   5.198
13796TIP3    H241346   1.796   6.937   5.192
13797TIP3   OH241347   7.469   0.755   0.752
13797TIP3    H141348   7.486   0.810   0.828
13797TIP3    H241349   7.460   0.816   0.679
13798TIP3   OH241350   1.888   7.005   5.646
13798TIP3    H141351   1.920   6.935   5.703
13798TIP3    H241352   1.807   7.035   5.687
13799TIP3   OH241353   5.503   6.198   3.485
13799TIP3    H141354   5.472   6.235   3.403
13799TIP3    H241355   5.510   6.272   3.545
13800TIP3   OH241356   7.902   2.294   6.346
13800TIP3    H141357   7.807   2.304   6.346
13800TIP3    H241358   7.928   2.305   6.254
13801TIP3   OH241359   0.675   1.080   5.154
13801TIP3    H141360   0.667   0.992   5.192
13801TIP3    H241361   0.684   1.138   5.229
13802TIP3   OH241362   0.566   1.243   4.491
13802TIP3    H141363   0.561   1.265   4.398
13802TIP3    H241364   0.497   1.297   4.531
13803TIP3   OH241365   4.007   6.570   3.144
13803TIP3    H141366   3.987   6.651   3.191
13803TIP3    H241367   4.096   6.582   3.110
13804TIP3   OH241368   3.349   1.498   0.850
13804TIP3    H141369   3.258   1.510   0.877
13804TIP3    H241370   3.367   1.406   0.868
13805TIP3   OH241371   1.880   6.689   5.445
13805TIP3    H141372   1.928   6.748   5.502
13805TIP3    H241373   1.815   6.744   5.401
13806TIP3   OH241374   4.946   1.124   0.636
13806TIP3    H141375   4.856   1.126   0.605
13806TIP3    H241376   4.969   1.031   0.639
13807TIP3   OH241377   6.952   3.765   2.458
13807TIP3    H141378   7.006   3.687   2.443
13807TIP3    H241379   6.905   3.778   2.376
13808TIP3   OH241380   7.087   5.488   2.499
13808TIP3    H141381   7.110   5.549   2.568
13808TIP3    H241382   7.168   5.439   2.483
13809TIP3   OH241383   5.520   4.963   0.417
13809TIP3    H141384   5.433   4.996   0.392
13809TIP3    H241385   5.507   4.869   0.429
13810TIP3   OH241386   7.692   4.169   4.938
13810TIP3    H141387   7.629   4.180   5.009
13810TIP3    H241388   7.709   4.258   4.907
13811TIP3   OH241389   6.908   5.854   4.547
13811TIP3    H141390   6.817   5.842   4.571
13811TIP3    H241391   6.924   5.787   4.480
13812TIP3   OH241392   7.257   5.195   0.236
13812TIP3    H141393   7.255   5.223   0.327
13812TIP3    H241394   7.286   5.104   0.239
13813TIP3   OH241395   7.957   4.933   6.068
13813TIP3    H141396   8.034   4.968   6.113
13813TIP3    H241397   7.992   4.878   5.998
13814TIP3   OH241398   7.838   2.587   6.313
13814TIP3    H141399   7.830   2.532   6.391
13814TIP3    H241400   7.927   2.622   6.318
13815TIP3   OH241401   1.460   4.494   5.401
13815TIP3    H141402   1.552   4.468   5.390
13815TIP3    H241403   1.415   4.454   5.327
13816TIP3   OH241404   0.183   0.340   2.979
13816TIP3    H141405   0.113   0.403   2.960
13816TIP3    H241406   0.257   0.394   3.008
13817TIP3   OH241407   2.478   0.897   5.664
13817TIP3    H141408   2.484   0.992   5.673
13817TIP3    H241409   2.419   0.870   5.734
13818TIP3   OH241410   2.714   0.178   6.063
13818TIP3    H141411   2.677   0.204   5.979
13818TIP3    H241412   2.731   0.260   6.109
13819TIP3   OH241413   8.125   4.098   4.599
13819TIP3    H141414   8.048   4.065   4.645
13819TIP3    H241415   8.114   4.193   4.599
13820TIP3   OH241416   8.248   7.738   5.128
13820TIP3    H141417   8.192   7.724   5.052
13820TIP3    H241418   8.316   7.671   5.120
13821TIP3   OH241419   3.916   1.130   5.799
13821TIP3    H141420   3.916   1.037   5.779
13821TIP3    H241421   3.848   1.141   5.865
13822TIP3   OH241422   0.947   3.621   6.264
13822TIP3    H141423   0.933   3.705   6.220
13822TIP3    H241424   1.021   3.582   6.217
13823TIP3   OH241425   5.648   1.017   5.241
13823TIP3    H141426   5.589   0.983   5.173
13823TIP3    H241427   5.648   0.950   5.309
13824TIP3   OH241428   2.706   0.888   2.685
13824TIP3    H141429   2.633   0.917   2.631
13824TIP3    H241430   2.759   0.967   2.699
13825TIP3   OH241431   0.680   6.721   2.001
13825TIP3    H141432   0.735   6.740   1.925
13825TIP3    H241433   0.700   6.631   2.024
13826TIP3   OH241434   2.524   5.585   1.118
13826TIP3    H141435   2.548   5.500   1.155
13826TIP3    H241436   2.455   5.566   1.054
13827TIP3   OH241437   1.341   3.427   6.380
13827TIP3    H141438   1.253   3.400   6.405
13827TIP3    H241439   1.381   3.459   6.461
13828TIP3   OH241440   4.600   1.246   4.742
13828TIP3    H141441   4.549   1.311   4.694
13828TIP3    H241442   4.554   1.237   4.825
13829TIP3   OH241443   2.313   6.111   1.714
13829TIP3    H141444   2.315   6.206   1.731
13829TIP3    H241445   2.404   6.084   1.723
13830TIP3   OH241446   6.851   3.489   5.224
13830TIP3    H141447   6.757   3.504   5.213
13830TIP3    H241448   6.882   3.467   5.136
13831TIP3   OH241449   0.828   5.946   5.034
13831TIP3    H141450   0.837   5.939   4.939
13831TIP3    H241451   0.777   5.869   5.059
13832TIP3   OH241452   6.612   7.766   0.277
13832TIP3    H141453   6.668   7.778   0.200
13832TIP3    H241454   6.664   7.797   0.351
13833TIP3   OH241455   7.015   6.851   4.187
13833TIP3    H141456   7.090   6.911   4.193
13833TIP3    H241457   6.939   6.907   4.203
13834TIP3   OH241458   2.673   2.895   3.068
13834TIP3    H141459   2.644   2.819   3.119
13834TIP3    H241460   2.622   2.890   2.987
13835TIP3   OH241461   0.055   6.983   2.147
13835TIP3    H141462  -0.017   7.046   2.143
13835TIP3    H241463   0.130   7.031   2.113
13836TIP3   OH241464   4.912   6.132   1.957
13836TIP3    H141465   4.859   6.131   1.877
13836TIP3    H241466   4.860   6.082   2.020
13837TIP3   OH241467   6.623   2.240   4.269
13837TIP3    H141468   6.627   2.193   4.352
13837TIP3    H241469   6.547   2.297   4.277
13838TIP3   OH241470   1.673   3.797   6.360
13838TIP3    H141471   1.626   3.727   6.316
13838TIP3    H241472   1.609   3.867   6.370
13839TIP3   OH241473   1.092   1.569   2.265
13839TIP3    H141474   1.121   1.497   2.322
13839TIP3    H241475   1.002   1.546   2.242
13840TIP3   OH241476   3.358   4.509   6.424
13840TIP3    H141477   3.323   4.438   6.479
13840TIP3    H241478   3.430   4.545   6.476
13841TIP3   OH241479   0.205   0.650   1.741
13841TIP3    H141480   0.143   0.595   1.692
13841TIP3    H241481   0.158   0.676   1.820
13842TIP3   OH241482   4.693   3.951   3.664
13842TIP3    H141483   4.702   3.951   3.568
13842TIP3    H241484   4.780   3.927   3.695
13843TIP3   OH241485   7.438   2.863   0.503
13843TIP3    H141486   7.480   2.778   0.516
13843TIP3    H241487   7.405   2.888   0.589
13844TIP3   OH241488   1.079   5.917   5.967
13844TIP3    H141489   1.166   5.951   5.947
13844TIP3    H241490   1.090   5.822   5.972
13845TIP3   OH241491   2.032   1.512   4.000
13845TIP3    H141492   2.018   1.592   4.051
13845TIP3    H241493   2.125   1.491   4.012
13846TIP3   OH241494   0.255   4.474   2.198
13846TIP3    H141495   0.211   4.432   2.125
13846TIP3    H241496   0.278   4.561   2.166
13847TIP3   OH241497   7.446   5.799   0.367
13847TIP3    H141498   7.360   5.834   0.392
13847TIP3    H241499   7.431   5.756   0.284
13848TIP3   OH241500   0.492   1.451   5.956
13848TIP3    H141501   0.541   1.474   6.035
13848TIP3    H241502   0.547   1.385   5.913
13849TIP3   OH241503   1.746   5.518   6.377
13849TIP3    H141504   1.763   5.506   6.470
13849TIP3    H241505   1.654   5.547   6.373
13850TIP3   OH241506   2.357   3.169   6.363
13850TIP3    H141507   2.356   3.096   6.424
13850TIP3    H241508   2.421   3.230   6.401
13851TIP3   OH241509   0.992   3.536   4.392
13851TIP3    H141510   1.043   3.616   4.408
13851TIP3    H241511   0.901   3.563   4.405
13852TIP3   OH241512   0.125   1.498   3.327
13852TIP3    H141513   0.037   1.533   3.316
13852TIP3    H241514   0.129   1.424   3.267
13853TIP3   OH241515   1.087   6.105   5.073
13853TIP3    H141516   1.093   6.009   5.073
13853TIP3    H241517   1.172   6.134   5.042
13854TIP3   OH241518   7.684   3.847   2.331
13854TIP3    H141519   7.671   3.886   2.244
13854TIP3    H241520   7.737   3.911   2.379
13855TIP3   OH241521   2.117   7.355   6.500
13855TIP3    H141522   2.099   7.426   6.561
13855TIP3    H241523   2.089   7.276   6.547
13856TIP3   OH241524   6.006   5.108   3.050
13856TIP3    H141525   5.934   5.065   3.095
13856TIP3    H241526   5.984   5.201   3.051
13857TIP3   OH241527   5.182   3.851   4.581
13857TIP3    H141528   5.274   3.874   4.598
13857TIP3    H241529   5.145   3.929   4.541
13858TIP3   OH241530   0.806   5.134   1.183
13858TIP3    H141531   0.763   5.188   1.250
13858TIP3    H241532   0.892   5.175   1.171
13859TIP3   OH241533   7.649   4.736   3.261
13859TIP3    H141534   7.691   4.732   3.346
13859TIP3    H241535   7.567   4.783   3.277
13860TIP3   OH241536   3.081   2.404   1.855
13860TIP3    H141537   3.053   2.325   1.810
13860TIP3    H241538   3.165   2.380   1.895
13861TIP3   OH241539   2.528   7.844   2.838
13861TIP3    H141540   2.594   7.794   2.790
13861TIP3    H241541   2.548   7.827   2.930
13862TIP3   OH241542   2.893   1.943   6.429
13862TIP3    H141543   2.839   2.021   6.417
13862TIP3    H241544   2.982   1.974   6.417
13863TIP3   OH241545   0.118   3.579   2.119
13863TIP3    H141546   0.070   3.550   2.196
13863TIP3    H241547   0.121   3.502   2.062
13864TIP3   OH241548   1.553   6.113   1.004
13864TIP3    H141549   1.603   6.194   1.000
13864TIP3    H241550   1.507   6.108   0.920
13865TIP3   OH241551   3.815   3.608   4.480
13865TIP3    H141552   3.753   3.554   4.430
13865TIP3    H241553   3.888   3.549   4.498
13866TIP3   OH241554   1.509   5.401   2.671
13866TIP3    H141555   1.550   5.441   2.595
13866TIP3    H241556   1.554   5.440   2.746
13867TIP3   OH241557   1.224   4.723   0.131
13867TIP3    H141558   1.153   4.777   0.097
13867TIP3    H241559   1.302   4.752   0.084
13868TIP3   OH241560   2.486   5.540   3.816
13868TIP3    H141561   2.495   5.554   3.911
13868TIP3    H241562   2.567   5.576   3.779
13869TIP3   OH241563   0.335   1.525   4.972
13869TIP3    H141564   0.318   1.470   4.896
13869TIP3    H241565   0.431   1.523   4.983
13870TIP3   OH241566   6.521   3.320   2.537
13870TIP3    H141567   6.465   3.362   2.602
13870TIP3    H241568   6.460   3.279   2.475
13871TIP3   OH241569   4.171   5.465   5.285
13871TIP3    H141570   4.147   5.382   5.326
13871TIP3    H241571   4.212   5.515   5.355
13872TIP3   OH241572   7.210   5.952   1.527
13872TIP3    H141573   7.138   5.889   1.529
13872TIP3    H241574   7.179   6.022   1.469
13873TIP3   OH241575   1.003   5.681   0.537
13873TIP3    H141576   0.970   5.596   0.567
13873TIP3    H241577   1.087   5.660   0.497
13874TIP3   OH241578   0.857   1.828   1.059
13874TIP3    H141579   0.808   1.841   1.139
13874TIP3    H241580   0.840   1.737   1.034
13875TIP3   OH241581   0.117   6.801   3.360
13875TIP3    H141582   0.131   6.710   3.336
13875TIP3    H241583   0.024   6.806   3.382
13876TIP3   OH241584   5.123   6.127   3.341
13876TIP3    H141585   5.033   6.136   3.374
13876TIP3    H241586   5.161   6.057   3.395
13877TIP3   OH241587   2.303   6.269   5.768
13877TIP3    H141588   2.231   6.330   5.783
13877TIP3    H241589   2.259   6.185   5.751
13878TIP3   OH241590   5.918   2.625   1.925
13878TIP3    H141591   5.979   2.641   1.853
13878TIP3    H241592   5.912   2.708   1.972
13879TIP3   OH241593   2.257   7.267   3.386
13879TIP3    H141594   2.289   7.199   3.444
13879TIP3    H241595   2.243   7.343   3.443
13880TIP3   OH241596   1.775   1.082   4.561
13880TIP3    H141597   1.791   1.055   4.471
13880TIP3    H241598   1.703   1.026   4.591
13881TIP3   OH241599   8.179   3.148   0.834
13881TIP3    H141600   8.095   3.191   0.850
13881TIP3    H241601   8.228   3.210   0.780
13882TIP3   OH241602   4.451   6.693   5.282
13882TIP3    H141603   4.431   6.643   5.203
13882TIP3    H241604   4.431   6.633   5.354
13883TIP3   OH241605   1.029   6.038   3.031
13883TIP3    H141606   0.943   6.008   3.059
13883TIP3    H241607   1.079   6.049   3.112
13884TIP3   OH241608   3.459   5.194   4.644
13884TIP3    H141609   3.536   5.170   4.696
13884TIP3    H241610   3.396   5.226   4.708
13885TIP3   OH241611   5.901   5.852   5.002
13885TIP3    H141612   5.840   5.782   4.978
13885TIP3    H241613   5.979   5.835   4.949
13886TIP3   OH241614   2.898   2.189   2.779
13886TIP3    H141615   2.811   2.230   2.781
13886TIP3    H241616   2.896   2.134   2.701
13887TIP3   OH241617   6.390   0.870   2.931
13887TIP3    H141618   6.308   0.908   2.898
13887TIP3    H241619   6.411   0.801   2.868
13888TIP3   OH241620   5.612   6.387   4.900
13888TIP3    H141621   5.522   6.411   4.882
13888TIP3    H241622   5.652   6.465   4.937
13889TIP3   OH241623   6.881   4.506   3.233
13889TIP3    H141624   6.943   4.465   3.294
13889TIP3    H241625   6.926   4.506   3.149
13890TIP3   OH241626   5.787   4.169   4.388
13890TIP3    H141627   5.807   4.175   4.481
13890TIP3    H241628   5.866   4.130   4.349
13891TIP3   OH241629   2.630   0.936   2.245
13891TIP3    H141630   2.678   0.999   2.192
13891TIP3    H241631   2.628   0.975   2.333
13892TIP3   OH241632   0.455   5.344   4.490
13892TIP3    H141633   0.405   5.330   4.409
13892TIP3    H241634   0.479   5.436   4.489
13893TIP3   OH241635   2.026   5.411   3.452
13893TIP3    H141636   2.093   5.428   3.386
13893TIP3    H241637   2.007   5.317   3.443
13894TIP3   OH241638   5.871   1.441   1.854
13894TIP3    H141639   5.784   1.450   1.813
13894TIP3    H241640   5.907   1.361   1.815
13895TIP3   OH241641   6.046   5.045   5.484
13895TIP3    H141642   5.964   4.997   5.499
13895TIP3    H241643   6.018   5.127   5.442
13896TIP3   OH241644   4.059   0.657   0.226
13896TIP3    H141645   4.147   0.691   0.212
13896TIP3    H241646   4.001   0.727   0.195
13897TIP3   OH241647   1.769   6.393   3.401
13897TIP3    H141648   1.830   6.462   3.425
13897TIP3    H241649   1.682   6.429   3.419
13898TIP3   OH241650   4.783   5.726   3.667
13898TIP3    H141651   4.740   5.644   3.690
13898TIP3    H241652   4.870   5.721   3.707
13899TIP3   OH241653   6.334   5.867   4.093
13899TIP3    H141654   6.396   5.800   4.120
13899TIP3    H241655   6.387   5.931   4.045
13900TIP3   OH241656   7.704   2.951   2.594
13900TIP3    H141657   7.780   2.993   2.556
13900TIP3    H241658   7.721   2.950   2.688
13901TIP3   OH241659   6.555   7.251   0.158
13901TIP3    H141660   6.524   7.326   0.208
13901TIP3    H241661   6.646   7.271   0.137
13902TIP3   OH241662   7.230   3.370   0.182
13902TIP3    H141663   7.221   3.279   0.153
13902TIP3    H241664   7.226   3.366   0.277
13903TIP3   OH241665   0.605   4.959   4.016
13903TIP3    H141666   0.700   4.970   4.007
13903TIP3    H241667   0.595   4.889   4.081
13904TIP3   OH241668   3.684   2.296   2.579
13904TIP3    H141669   3.674   2.207   2.613
13904TIP3    H241670   3.692   2.351   2.657
13905TIP3   OH241671   2.804   1.720   2.362
13905TIP3    H141672   2.805   1.687   2.452
13905TIP3    H241673   2.896   1.719   2.335
13906TIP3   OH241674   4.290   5.160   6.474
13906TIP3    H141675   4.363   5.102   6.454
13906TIP3    H241676   4.237   5.160   6.394
13907TIP3   OH241677   5.573   4.818   0.063
13907TIP3    H141678   5.516   4.789  -0.009
13907TIP3    H241679   5.555   4.912   0.072
13908TIP3   OH241680   2.466   1.180   5.638
13908TIP3    H141681   2.460   1.270   5.604
13908TIP3    H241682   2.555   1.174   5.674
13909TIP3   OH241683   3.995   3.402   0.638
13909TIP3    H141684   3.946   3.444   0.568
13909TIP3    H241685   3.952   3.432   0.718
13910TIP3   OH241686   0.455   5.174   0.771
13910TIP3    H141687   0.540   5.194   0.731
13910TIP3    H241688   0.442   5.242   0.837
13911TIP3   OH241689   1.799   3.678   0.491
13911TIP3    H141690   1.864   3.743   0.466
13911TIP3    H241691   1.754   3.657   0.409
13912TIP3   OH241692   0.126   6.381   3.679
13912TIP3    H141693   0.042   6.398   3.721
13912TIP3    H241694   0.141   6.288   3.691
13913TIP3   OH241695   7.725   3.500   1.770
13913TIP3    H141696   7.770   3.532   1.848
13913TIP3    H241697   7.667   3.572   1.744
13914TIP3   OH241698   2.244   1.229   1.005
13914TIP3    H141699   2.223   1.140   0.978
13914TIP3    H241700   2.338   1.226   1.025
13915TIP3   OH241701   7.688   2.734   6.623
13915TIP3    H141702   7.638   2.801   6.669
13915TIP3    H241703   7.697   2.767   6.534
13916TIP3   OH241704   4.387  -0.022   2.299
13916TIP3    H141705   4.312  -0.062   2.344
13916TIP3    H241706   4.370   0.072   2.303
13917TIP3   OH241707   2.175   6.687   2.687
13917TIP3    H141708   2.196   6.705   2.595
13917TIP3    H241709   2.259   6.695   2.732
13918TIP3   OH241710   0.255   7.013   5.851
13918TIP3    H141711   0.237   6.929   5.808
13918TIP3    H241712   0.341   7.039   5.818
13919TIP3   OH241713   1.754   7.657   4.398
13919TIP3    H141714   1.706   7.577   4.376
13919TIP3    H241715   1.696   7.727   4.369
13920TIP3   OH241716   7.638   4.922   0.267
13920TIP3    H141717   7.543   4.916   0.272
13920TIP3    H241718   7.659   4.903   0.176
13921TIP3   OH241719   4.994   2.535   3.733
13921TIP3    H141720   5.078   2.582   3.738
13921TIP3    H241721   4.969   2.522   3.825
13922TIP3   OH241722   0.779   2.369   3.512
13922TIP3    H141723   0.784   2.433   3.442
13922TIP3    H241724   0.846   2.397   3.575
13923TIP3   OH241725   1.399   6.132   3.876
13923TIP3    H141726   1.426   6.221   3.851
13923TIP3    H241727   1.316   6.144   3.922
13924TIP3   OH241728   2.469   2.788   3.487
13924TIP3    H141729   2.423   2.728   3.429
13924TIP3    H241730   2.559   2.756   3.489
13925TIP3   OH241731   5.911   0.087   6.374
13925TIP3    H141732   5.816   0.083   6.360
13925TIP3    H241733   5.921   0.109   6.467
13926TIP3   OH241734   2.928   4.765   5.621
13926TIP3    H141735   2.843   4.738   5.656
13926TIP3    H241736   2.936   4.716   5.539
13927TIP3   OH241737   4.287   3.370   4.130
13927TIP3    H141738   4.252   3.283   4.149
13927TIP3    H241739   4.342   3.391   4.206
13928TIP3   OH241740   5.663   3.395   0.896
13928TIP3    H141741   5.755   3.380   0.872
13928TIP3    H241742   5.615   3.385   0.814
13929TIP3   OH241743   2.208   6.229   5.197
13929TIP3    H141744   2.225   6.320   5.171
13929TIP3    H241745   2.176   6.235   5.287
13930TIP3   OH241746   1.599   6.815   4.111
13930TIP3    H141747   1.623   6.862   4.190
13930TIP3    H241748   1.609   6.879   4.041
13931TIP3   OH241749   5.337   0.104   5.093
13931TIP3    H141750   5.303   0.150   5.017
13931TIP3    H241751   5.333   0.012   5.070
13932TIP3   OH241752   8.160   4.261   3.515
13932TIP3    H141753   8.120   4.191   3.463
13932TIP3    H241754   8.086   4.312   3.547
13933TIP3   OH241755   1.213   5.117   2.545
13933TIP3    H141756   1.221   5.200   2.498
13933TIP3    H241757   1.237   5.137   2.635
13934TIP3   OH241758   2.115   7.579   1.417
13934TIP3    H141759   2.109   7.516   1.345
13934TIP3    H241760   2.094   7.528   1.495
13935TIP3   OH241761   1.213   2.746   2.737
13935TIP3    H141762   1.274   2.682   2.700
13935TIP3    H241763   1.128   2.723   2.700
13936TIP3   OH241764   2.172   6.828   2.158
13936TIP3    H141765   2.114   6.878   2.215
13936TIP3    H241766   2.114   6.791   2.091
13937TIP3   OH241767   7.924   2.868   5.652
13937TIP3    H141768   7.894   2.896   5.738
13937TIP3    H241769   7.876   2.788   5.634
13938TIP3   OH241770   2.769   4.256   3.893
13938TIP3    H141771   2.785   4.170   3.932
13938TIP3    H241772   2.705   4.297   3.951
13939TIP3   OH241773   1.050   6.795   4.530
13939TIP3    H141774   1.060   6.823   4.440
13939TIP3    H241775   0.989   6.721   4.526
13940TIP3   OH241776   1.556   0.695   5.469
13940TIP3    H141777   1.470   0.668   5.501
13940TIP3    H241778   1.588   0.619   5.420
13941TIP3   OH241779   2.525   7.760   6.187
13941TIP3    H141780   2.562   7.718   6.265
13941TIP3    H241781   2.596   7.758   6.123
13942TIP3   OH241782   3.713   2.611   5.940
13942TIP3    H141783   3.703   2.553   5.864
13942TIP3    H241784   3.727   2.698   5.902
13943TIP3   OH241785   6.030   2.825   6.749
13943TIP3    H141786   6.103   2.786   6.700
13943TIP3    H241787   5.991   2.751   6.796
13944TIP3   OH241788   7.865   2.830   0.177
13944TIP3    H141789   7.784   2.809   0.131
13944TIP3    H241790   7.889   2.750   0.222
13945TIP3   OH241791   1.589   2.995   2.605
13945TIP3    H141792   1.578   2.969   2.514
13945TIP3    H241793   1.642   2.925   2.644
13946TIP3   OH241794   5.726   1.289   2.370
13946TIP3    H141795   5.770   1.373   2.380
13946TIP3    H241796   5.789   1.225   2.401
13947TIP3   OH241797   4.434   2.724   0.674
13947TIP3    H141798   4.495   2.794   0.697
13947TIP3    H241799   4.390   2.754   0.595
13948TIP3   OH241800   1.714   0.791   1.679
13948TIP3    H141801   1.794   0.762   1.635
13948TIP3    H241802   1.726   0.765   1.770
13949TIP3   OH241803   3.119   1.982   4.064
13949TIP3    H141804   3.195   1.926   4.052
13949TIP3    H241805   3.059   1.956   3.994
13950TIP3   OH241806   7.253   3.672   3.427
13950TIP3    H141807   7.222   3.650   3.515
13950TIP3    H241808   7.259   3.767   3.427
13951TIP3   OH241809   3.890   0.971   4.681
13951TIP3    H141810   3.973   0.938   4.645
13951TIP3    H241811   3.894   1.065   4.668
13952TIP3   OH241812   2.868   6.472   5.457
13952TIP3    H141813   2.832   6.555   5.490
13952TIP3    H241814   2.819   6.404   5.503
13953TIP3   OH241815   8.006   7.330   3.624
13953TIP3    H141816   8.020   7.413   3.669
13953TIP3    H241817   7.932   7.348   3.565
13954TIP3   OH241818   3.594   2.947   4.091
13954TIP3    H141819   3.630   2.867   4.128
13954TIP3    H241820   3.662   3.012   4.103
13955TIP3   OH241821   3.545   3.012   5.948
13955TIP3    H141822   3.572   3.094   5.990
13955TIP3    H241823   3.450   3.012   5.953
13956TIP3   OH241824   5.528   4.343   5.511
13956TIP3    H141825   5.569   4.402   5.575
13956TIP3    H241826   5.453   4.393   5.477
13957TIP3   OH241827   1.817   6.551   0.023
13957TIP3    H141828   1.798   6.589  -0.062
13957TIP3    H241829   1.818   6.457   0.009
13958TIP3   OH241830   8.032   5.405   5.201
13958TIP3    H141831   8.068   5.385   5.287
13958TIP3    H241832   8.069   5.490   5.178
13959TIP3   OH241833   0.484   2.249   2.301
13959TIP3    H141834   0.498   2.168   2.348
13959TIP3    H241835   0.411   2.292   2.346
13960TIP3   OH241836   8.264   7.511   1.778
13960TIP3    H141837   8.174   7.517   1.811
13960TIP3    H241838   8.314   7.569   1.835
13961TIP3   OH241839   7.483   0.038   2.599
13961TIP3    H141840   7.417   0.103   2.623
13961TIP3    H241841   7.565   0.073   2.631
13962TIP3   OH241842   1.073   3.340   6.406
13962TIP3    H141843   1.007   3.406   6.427
13962TIP3    H241844   1.042   3.300   6.324
13963TIP3   OH241845   0.495   2.340   0.552
13963TIP3    H141846   0.552   2.410   0.581
13963TIP3    H241847   0.427   2.334   0.619
13964TIP3   OH241848   0.627   5.676   5.067
13964TIP3    H141849   0.576   5.637   4.996
13964TIP3    H241850   0.570   5.745   5.102
13965TIP3   OH241851   5.429   4.829   6.001
13965TIP3    H141852   5.426   4.876   6.085
13965TIP3    H241853   5.466   4.893   5.940
13966TIP3   OH241854   4.523   0.662   0.356
13966TIP3    H141855   4.500   0.574   0.325
13966TIP3    H241856   4.552   0.709   0.278
13967TIP3   OH241857   1.121   0.287   2.128
13967TIP3    H141858   1.211   0.290   2.097
13967TIP3    H241859   1.084   0.371   2.101
13968TIP3   OH241860   5.601   6.338   4.619
13968TIP3    H141861   5.546   6.260   4.621
13968TIP3    H241862   5.605   6.367   4.710
13969TIP3   OH241863   0.254   3.867   6.373
13969TIP3    H141864   0.249   3.952   6.329
13969TIP3    H241865   0.243   3.888   6.466
13970TIP3   OH241866   5.740   2.452   2.018
13970TIP3    H141867   5.770   2.455   2.109
13970TIP3    H241868   5.790   2.521   1.974
13971TIP3   OH241869   1.444   2.490   0.850
13971TIP3    H141870   1.387   2.415   0.841
13971TIP3    H241871   1.385   2.564   0.867
13972TIP3   OH241872   1.031   4.312  -0.066
13972TIP3    H141873   1.054   4.223  -0.037
13972TIP3    H241874   1.038   4.366   0.013
13973TIP3   OH241875   3.705   0.120   1.735
13973TIP3    H141876   3.718   0.105   1.642
13973TIP3    H241877   3.616   0.088   1.753
13974TIP3   OH241878   2.052   3.400   0.743
13974TIP3    H141879   2.108   3.477   0.737
13974TIP3    H241880   2.109   3.331   0.775
13975TIP3   OH241881   2.368   6.056   2.222
13975TIP3    H141882   2.294   6.005   2.254
13975TIP3    H241883   2.445   6.003   2.243
13976TIP3   OH241884   0.711   7.410   5.966
13976TIP3    H141885   0.667   7.458   5.895
13976TIP3    H241886   0.641   7.363   6.011
13977TIP3   OH241887   6.617   1.530   2.171
13977TIP3    H141888   6.603   1.582   2.250
13977TIP3    H241889   6.685   1.578   2.123
13978TIP3   OH241890   4.958   4.691   6.037
13978TIP3    H141891   5.000   4.716   5.955
13978TIP3    H241892   5.009   4.616   6.068
13979TIP3   OH241893   6.412   7.239   5.885
13979TIP3    H141894   6.385   7.331   5.891
13979TIP3    H241895   6.506   7.240   5.900
13980TIP3   OH241896   7.381   6.756   1.233
13980TIP3    H141897   7.375   6.666   1.267
13980TIP3    H241898   7.290   6.783   1.221
13981TIP3   OH241899   6.177   2.280   2.616
13981TIP3    H141900   6.167   2.222   2.692
13981TIP3    H241901   6.216   2.360   2.651
13982TIP3   OH241902   3.554   5.726   1.757
13982TIP3    H141903   3.518   5.651   1.710
13982TIP3    H241904   3.479   5.784   1.770
13983TIP3   OH241905   2.001   1.016   5.979
13983TIP3    H141906   2.079   0.976   6.017
13983TIP3    H241907   1.929   0.987   6.035
13984TIP3   OH241908   4.174   1.646   6.838
13984TIP3    H141909   4.138   1.647   6.749
13984TIP3    H241910   4.216   1.560   6.845
13985TIP3   OH241911   4.452   4.495   6.117
13985TIP3    H141912   4.422   4.513   6.206
13985TIP3    H241913   4.524   4.556   6.103
13986TIP3   OH241914   6.722   4.484   5.078
13986TIP3    H141915   6.755   4.520   5.161
13986TIP3    H241916   6.773   4.404   5.066
13987TIP3   OH241917   7.050   2.915   0.585
13987TIP3    H141918   7.038   2.977   0.657
13987TIP3    H241919   6.997   2.951   0.513
13988TIP3   OH241920   0.908   0.637   2.442
13988TIP3    H141921   0.815   0.617   2.448
13988TIP3    H241922   0.940   0.628   2.532
13989TIP3   OH241923   7.845   2.442   0.431
13989TIP3    H141924   7.791   2.378   0.383
13989TIP3    H241925   7.865   2.399   0.514
13990TIP3   OH241926   1.511   3.330   3.688
13990TIP3    H141927   1.482   3.337   3.779
13990TIP3    H241928   1.491   3.415   3.649
13991TIP3   OH241929   7.771   0.652   3.211
13991TIP3    H141930   7.811   0.711   3.274
13991TIP3    H241931   7.844   0.621   3.158
13992TIP3   OH241932   1.977   2.887   6.108
13992TIP3    H141933   1.947   2.900   6.018
13992TIP3    H241934   1.900   2.904   6.162
13993TIP3   OH241935   5.882   6.807   0.854
13993TIP3    H141936   5.948   6.859   0.808
13993TIP3    H241937   5.811   6.869   0.871
13994TIP3   OH241938   3.525   7.326   1.211
13994TIP3    H141939   3.544   7.414   1.245
13994TIP3    H241940   3.592   7.270   1.249
13995TIP3   OH241941   0.012   4.594   5.841
13995TIP3    H141942  -0.032   4.516   5.874
13995TIP3    H241943   0.060   4.564   5.763
13996TIP3   OH241944   2.656   6.040   2.020
13996TIP3    H141945   2.695   6.126   2.000
13996TIP3    H241946   2.680   6.024   2.111
13997TIP3   OH241947   4.882   5.402   2.314
13997TIP3    H141948   4.817   5.363   2.255
13997TIP3    H241949   4.961   5.411   2.260
13998TIP3   OH241950   2.199   3.022   2.377
13998TIP3    H141951   2.252   3.061   2.446
13998TIP3    H241952   2.122   3.078   2.370
13999TIP3   OH241953   5.081   1.563   0.395
13999TIP3    H141954   5.058   1.470   0.389
13999TIP3    H241955   5.117   1.573   0.483
14000TIP3   OH241956   3.140   1.234   1.638
14000TIP3    H141957   3.163   1.153   1.683
14000TIP3    H241958   3.169   1.220   1.548
14001TIP3   OH241959   3.295   6.729   3.442
14001TIP3    H141960   3.213   6.689   3.417
14001TIP3    H241961   3.362   6.682   3.391
14002TIP3   OH241962   3.036   2.225   2.190
14002TIP3    H141963   3.118   2.198   2.231
14002TIP3    H241964   3.038   2.183   2.104
14003TIP3   OH241965   0.939   0.401   1.081
14003TIP3    H141966   0.895   0.481   1.054
14003TIP3    H241967   0.911   0.335   1.017
14004TIP3   OH241968   7.738   5.267   5.162
14004TIP3    H141969   7.759   5.227   5.077
14004TIP3    H241970   7.783   5.351   5.161
14005TIP3   OH241971   4.282   4.295   3.923
14005TIP3    H141972   4.290   4.386   3.950
14005TIP3    H241973   4.291   4.298   3.827
14006TIP3   OH241974   2.502   6.058   6.256
14006TIP3    H141975   2.596   6.037   6.259
14006TIP3    H241976   2.474   6.029   6.170
14007TIP3   OH241977   5.701   4.903   4.659
14007TIP3    H141978   5.752   4.822   4.661
14007TIP3    H241979   5.696   4.926   4.566
14008TIP3   OH241980   1.363   4.764   0.408
14008TIP3    H141981   1.297   4.749   0.339
14008TIP3    H241982   1.425   4.692   0.397
14009TIP3   OH241983   5.301   2.572   2.348
14009TIP3    H141984   5.230   2.602   2.405
14009TIP3    H241985   5.291   2.624   2.268
14010TIP3   OH241986   2.946   4.948   1.298
14010TIP3    H141987   2.888   4.876   1.273
14010TIP3    H241988   3.033   4.909   1.304
14011TIP3   OH241989   0.923   7.448   4.484
14011TIP3    H141990   0.943   7.529   4.438
14011TIP3    H241991   0.983   7.448   4.559
14012TIP3   OH241992   5.153   4.203   4.352
14012TIP3    H141993   5.070   4.171   4.318
14012TIP3    H241994   5.190   4.129   4.400
14013TIP3   OH241995   1.976   4.963   2.624
14013TIP3    H141996   1.897   4.973   2.571
14013TIP3    H241997   1.945   4.959   2.714
14014TIP3   OH241998   2.757   5.793   0.313
14014TIP3    H141999   2.702   5.808   0.389
14014TIP3    H242000   2.786   5.880   0.286
14015TIP3   OH242001   6.553   5.513   3.879
14015TIP3    H142002   6.590   5.426   3.891
14015TIP3    H242003   6.624   5.565   3.841
14016TIP3   OH242004   2.403   7.018   5.828
14016TIP3    H142005   2.368   7.013   5.917
14016TIP3    H242006   2.498   7.018   5.840
14017TIP3   OH242007   1.394   6.643   2.293
14017TIP3    H142008   1.437   6.682   2.369
14017TIP3    H242009   1.336   6.712   2.261
14018TIP3   OH242010   2.998   6.912   1.059
14018TIP3    H142011   2.996   7.008   1.060
14018TIP3    H242012   3.039   6.889   0.976
14019TIP3   OH242013   6.727   0.055   6.553
14019TIP3    H142014   6.687  -0.032   6.552
14019TIP3    H242015   6.662   0.110   6.597
14020TIP3   OH242016   1.742   7.025   6.628
14020TIP3    H142017   1.714   6.993   6.713
14020TIP3    H242018   1.820   7.077   6.646
14021TIP3   OH242019   6.647   3.573   2.077
14021TIP3    H142020   6.608   3.649   2.120
14021TIP3    H242021   6.603   3.497   2.116
14022TIP3   OH242022   2.894   2.103   1.569
14022TIP3    H142023   2.807   2.072   1.593
14022TIP3    H242024   2.936   2.028   1.527
14023TIP3   OH242025   5.552   0.089   6.120
14023TIP3    H142026   5.557   0.016   6.183
14023TIP3    H242027   5.605   0.060   6.046
14024TIP3   OH242028   5.291   4.225   0.686
14024TIP3    H142029   5.290   4.135   0.653
14024TIP3    H242030   5.309   4.215   0.780
14025TIP3   OH242031   5.035   4.285   0.608
14025TIP3    H142032   5.117   4.254   0.645
14025TIP3    H242033   5.055   4.372   0.574
14026TIP3   OH242034   4.294   7.036   1.533
14026TIP3    H142035   4.332   7.011   1.449
14026TIP3    H242036   4.344   6.985   1.598
14027TIP3   OH242037   4.196   7.806   1.481
14027TIP3    H142038   4.120   7.765   1.438
14027TIP3    H242039   4.182   7.789   1.574
14028TIP3   OH242040   1.889   1.367   5.474
14028TIP3    H142041   1.862   1.288   5.521
14028TIP3    H242042   1.972   1.392   5.513
14029TIP3   OH242043   3.082   3.687   3.525
14029TIP3    H142044   3.019   3.646   3.585
14029TIP3    H242045   3.048   3.669   3.438
14030TIP3   OH242046   1.483   1.659   1.122
14030TIP3    H142047   1.404   1.634   1.169
14030TIP3    H242048   1.554   1.644   1.185
14031TIP3   OH242049   4.623   2.483   2.529
14031TIP3    H142050   4.649   2.483   2.437
14031TIP3    H242051   4.546   2.540   2.532
14032TIP3   OH242052   1.340   3.959   2.123
14032TIP3    H142053   1.266   3.936   2.067
14032TIP3    H242054   1.404   3.889   2.109
14033TIP3   OH242055   7.410   2.491   5.241
14033TIP3    H142056   7.318   2.513   5.224
14033TIP3    H242057   7.411   2.459   5.331
14034TIP3   OH242058   6.113   2.242   0.262
14034TIP3    H142059   6.072   2.305   0.203
14034TIP3    H242060   6.040   2.188   0.294
14035TIP3   OH242061   3.992   1.237   4.631
14035TIP3    H142062   3.995   1.276   4.718
14035TIP3    H242063   4.032   1.302   4.574
14036TIP3   OH242064   7.643   6.330   2.550
14036TIP3    H142065   7.621   6.239   2.529
14036TIP3    H242066   7.667   6.369   2.466
14037TIP3   OH242067   5.192   2.234   4.238
14037TIP3    H142068   5.225   2.308   4.187
14037TIP3    H242069   5.158   2.274   4.318
14038TIP3   OH242070   1.716   0.570   1.925
14038TIP3    H142071   1.803   0.552   1.963
14038TIP3    H242072   1.656   0.562   1.999
14039TIP3   OH242073   3.281   3.698   6.642
14039TIP3    H142074   3.246   3.637   6.577
14039TIP3    H242075   3.242   3.668   6.725
14040TIP3   OH242076   0.924   3.736   6.516
14040TIP3    H142077   0.836   3.772   6.528
14040TIP3    H242078   0.914   3.670   6.447
14041TIP3   OH242079   1.894   3.402   6.169
14041TIP3    H142080   1.845   3.379   6.090
14041TIP3    H242081   1.942   3.482   6.146
14042TIP3   OH242082   0.280   3.131   6.020
14042TIP3    H142083   0.287   3.195   6.091
14042TIP3    H242084   0.187   3.129   5.999
14043TIP3   OH242085   7.861   7.649   4.748
14043TIP3    H142086   7.849   7.604   4.832
14043TIP3    H242087   7.775   7.646   4.707
14044TIP3   OH242088   5.564   2.352   6.016
14044TIP3    H142089   5.651   2.361   6.054
14044TIP3    H242090   5.513   2.423   6.057
14045TIP3   OH242091   6.335   6.241   1.014
14045TIP3    H142092   6.339   6.272   0.924
14045TIP3    H242093   6.400   6.171   1.019
14046TIP3   OH242094   1.181   7.224   6.673
14046TIP3    H142095   1.161   7.312   6.640
14046TIP3    H242096   1.245   7.239   6.743
14047TIP3   OH242097   6.272   6.144   3.901
14047TIP3    H142098   6.285   6.206   3.828
14047TIP3    H242099   6.269   6.058   3.859
14048TIP3   OH242100   6.048   7.390   1.209
14048TIP3    H142101   6.085   7.303   1.200
14048TIP3    H242102   5.972   7.378   1.267
14049TIP3   OH242103   5.580   0.553   3.391
14049TIP3    H142104   5.591   0.479   3.450
14049TIP3    H242105   5.634   0.622   3.429
14050TIP3   OH242106   1.646   4.337   3.227
14050TIP3    H142107   1.584   4.378   3.166
14050TIP3    H242108   1.732   4.363   3.195
14051TIP3   OH242109   6.627   3.598   2.844
14051TIP3    H142110   6.698   3.545   2.808
14051TIP3    H242111   6.558   3.593   2.779
14052TIP3   OH242112   0.638   5.418   4.711
14052TIP3    H142113   0.636   5.436   4.805
14052TIP3    H242114   0.701   5.480   4.675
14053TIP3   OH242115   1.262   7.615   0.447
14053TIP3    H142116   1.258   7.710   0.442
14053TIP3    H242117   1.207   7.584   0.375
14054TIP3   OH242118   3.315   7.785   3.893
14054TIP3    H142119   3.340   7.744   3.976
14054TIP3    H242120   3.221   7.767   3.885
14055TIP3   OH242121   4.210   3.530   2.099
14055TIP3    H142122   4.249   3.477   2.169
14055TIP3    H242123   4.152   3.469   2.052
14056TIP3   OH242124   2.489   0.445   4.498
14056TIP3    H142125   2.466   0.522   4.446
14056TIP3    H242126   2.557   0.401   4.448
14057TIP3   OH242127   6.478   4.781   3.326
14057TIP3    H142128   6.424   4.809   3.252
14057TIP3    H242129   6.516   4.697   3.298
14058TIP3   OH242130   5.024   5.711   3.829
14058TIP3    H142131   5.087   5.771   3.869
14058TIP3    H242132   5.054   5.701   3.738
14059TIP3   OH242133   1.414   5.021   5.765
14059TIP3    H142134   1.377   4.981   5.844
14059TIP3    H242135   1.420   5.114   5.787
14060TIP3   OH242136   5.824   2.024   5.106
14060TIP3    H142137   5.801   1.938   5.071
14060TIP3    H242138   5.819   2.012   5.201
14061TIP3   OH242139   2.482   4.552   5.805
14061TIP3    H142140   2.432   4.471   5.815
14061TIP3    H242141   2.573   4.524   5.803
14062TIP3   OH242142   7.649   4.627   2.674
14062TIP3    H142143   7.595   4.640   2.597
14062TIP3    H242144   7.586   4.611   2.745
14063TIP3   OH242145   7.808   5.027   2.595
14063TIP3    H142146   7.812   5.007   2.501
14063TIP3    H242147   7.899   5.040   2.621
14064TIP3   OH242148   7.326   2.680   0.012
14064TIP3    H142149   7.352   2.649   0.099
14064TIP3    H242150   7.234   2.703   0.022
14065TIP3   OH242151   6.464   2.930   6.804
14065TIP3    H142152   6.422   2.946   6.720
14065TIP3    H242153   6.414   2.857   6.842
14066TIP3   OH242154   3.568   3.216   0.165
14066TIP3    H142155   3.620   3.245   0.240
14066TIP3    H242156   3.593   3.275   0.094
14067TIP3   OH242157   6.216   0.965   1.182
14067TIP3    H142158   6.186   0.982   1.272
14067TIP3    H242159   6.164   0.889   1.155
14068TIP3   OH242160   0.240   3.736   0.742
14068TIP3    H142161   0.177   3.698   0.803
14068TIP3    H242162   0.294   3.663   0.714
14069TIP3   OH242163   2.849   3.767   2.922
14069TIP3    H142164   2.756   3.746   2.928
14069TIP3    H242165   2.864   3.829   2.993
14070TIP3   OH242166   1.909   1.086   3.752
14070TIP3    H142167   1.924   1.177   3.777
14070TIP3    H242168   1.941   1.080   3.662
14071TIP3   OH242169   3.028   5.012   4.250
14071TIP3    H142170   3.118   5.015   4.215
14071TIP3    H242171   2.994   4.928   4.219
14072TIP3   OH242172   4.047   7.109   5.065
14072TIP3    H142173   4.090   7.029   5.034
14072TIP3    H242174   4.115   7.176   5.059
14073TIP3   OH242175   0.925   2.453   1.801
14073TIP3    H142176   0.889   2.476   1.887
14073TIP3    H242177   1.019   2.443   1.816
14074TIP3   OH242178   6.878   5.552   5.498
14074TIP3    H142179   6.955   5.539   5.443
14074TIP3    H242180   6.813   5.491   5.464
14075TIP3   OH242181   0.256   1.367   1.743
14075TIP3    H142182   0.346   1.364   1.709
14075TIP3    H242183   0.260   1.432   1.813
14076TIP3   OH242184   5.330   0.038   3.597
14076TIP3    H142185   5.330   0.132   3.577
14076TIP3    H242186   5.413   0.025   3.643
14077TIP3   OH242187   4.398   6.739   0.540
14077TIP3    H142188   4.306   6.760   0.553
14077TIP3    H242189   4.422   6.780   0.457
14078TIP3   OH242190   5.498   1.345   4.252
14078TIP3    H142191   5.513   1.348   4.347
14078TIP3    H242192   5.411   1.306   4.243
14079TIP3   OH242193   4.669   2.263   3.218
14079TIP3    H142194   4.717   2.323   3.161
14079TIP3    H242195   4.683   2.176   3.180
14080TIP3   OH242196   7.541   3.143   2.490
14080TIP3    H142197   7.472   3.128   2.555
14080TIP3    H242198   7.589   3.060   2.486
14081TIP3   OH242199   4.761   1.515   6.177
14081TIP3    H142200   4.798   1.579   6.238
14081TIP3    H242201   4.768   1.557   6.091
14082TIP3   OH242202   0.559   2.997   0.883
14082TIP3    H142203   0.476   3.006   0.835
14082TIP3    H242204   0.595   3.086   0.884
14083TIP3   OH242205   4.116   6.257   3.350
14083TIP3    H142206   4.037   6.241   3.402
14083TIP3    H242207   4.150   6.170   3.331
14084TIP3   OH242208   5.463   1.978   6.391
14084TIP3    H142209   5.459   2.045   6.460
14084TIP3    H242210   5.550   1.940   6.399
14085TIP3   OH242211   3.603   6.338   3.990
14085TIP3    H142212   3.522   6.331   3.940
14085TIP3    H242213   3.624   6.248   4.014
14086TIP3   OH242214   6.732   3.690   6.129
14086TIP3    H142215   6.741   3.782   6.150
14086TIP3    H242216   6.641   3.669   6.151
14087TIP3   OH242217   0.799   2.004   4.968
14087TIP3    H142218   0.843   2.057   5.034
14087TIP3    H242219   0.823   1.914   4.989
14088TIP3   OH242220   5.276   1.189   4.192
14088TIP3    H142221   5.181   1.196   4.188
14088TIP3    H242222   5.292   1.117   4.253
14089TIP3   OH242223   6.781   0.328   6.515
14089TIP3    H142224   6.841   0.362   6.582
14089TIP3    H242225   6.797   0.234   6.514
14090TIP3   OH242226   5.290   6.725   1.053
14090TIP3    H142227   5.352   6.690   1.117
14090TIP3    H242228   5.281   6.817   1.076
14091TIP3   OH242229   3.755   3.547   5.790
14091TIP3    H142230   3.749   3.576   5.881
14091TIP3    H242231   3.802   3.463   5.795
14092TIP3   OH242232   1.681   4.312   2.292
14092TIP3    H142233   1.596   4.300   2.249
14092TIP3    H242234   1.683   4.405   2.317
14093TIP3   OH242235   6.573   2.526   0.584
14093TIP3    H142236   6.494   2.574   0.557
14093TIP3    H242237   6.610   2.578   0.655
14094TIP3   OH242238   2.609   7.528   0.319
14094TIP3    H142239   2.541   7.502   0.257
14094TIP3    H242240   2.670   7.454   0.320
14095TIP3   OH242241   2.138   0.349   2.308
14095TIP3    H142242   2.148   0.275   2.368
14095TIP3    H242243   2.075   0.407   2.351
14096TIP3   OH242244   6.605   5.553   4.378
14096TIP3    H142245   6.636   5.470   4.414
14096TIP3    H242246   6.656   5.565   4.297
14097TIP3   OH242247   7.055   2.864   5.281
14097TIP3    H142248   6.996   2.861   5.207
14097TIP3    H242249   7.092   2.953   5.280
14098TIP3   OH242250   1.666   6.409   4.395
14098TIP3    H142251   1.607   6.375   4.463
14098TIP3    H242252   1.647   6.355   4.318
14099TIP3   OH242253   4.222   4.310   2.093
14099TIP3    H142254   4.224   4.230   2.040
14099TIP3    H242255   4.259   4.377   2.035
14100TIP3   OH242256   1.276   3.859   3.575
14100TIP3    H142257   1.264   3.940   3.624
14100TIP3    H242258   1.364   3.867   3.537
14101TIP3   OH242259   8.214   7.394   2.986
14101TIP3    H142260   8.158   7.413   2.911
14101TIP3    H242261   8.283   7.338   2.950
14102TIP3   OH242262   4.854   5.046   1.951
14102TIP3    H142263   4.764   5.013   1.955
14102TIP3    H242264   4.908   4.967   1.944
14103TIP3   OH242265   1.638   4.495   5.178
14103TIP3    H142266   1.591   4.516   5.097
14103TIP3    H242267   1.670   4.579   5.210
14104TIP3   OH242268   6.039   4.343   2.933
14104TIP3    H142269   6.088   4.293   2.999
14104TIP3    H242270   6.094   4.339   2.855
14105TIP3   OH242271   1.266   7.175   0.545
14105TIP3    H142272   1.270   7.232   0.621
14105TIP3    H242273   1.352   7.132   0.542
14106TIP3   OH242274   2.679   1.955   2.326
14106TIP3    H142275   2.630   1.960   2.409
14106TIP3    H242276   2.723   1.870   2.330
14107TIP3   OH242277   5.920   7.516   4.495
14107TIP3    H142278   5.996   7.537   4.440
14107TIP3    H242279   5.882   7.438   4.455
14108TIP3   OH242280   7.663   5.773   5.513
14108TIP3    H142281   7.659   5.809   5.601
14108TIP3    H242282   7.619   5.838   5.458
14109TIP3   OH242283   1.362   7.658   2.798
14109TIP3    H142284   1.440   7.685   2.749
14109TIP3    H242285   1.319   7.594   2.742
14110TIP3   OH242286   4.140   3.172   6.539
14110TIP3    H142287   4.125   3.113   6.613
14110TIP3    H242288   4.057   3.219   6.529
14111TIP3   OH242289   3.871   0.051   3.386
14111TIP3    H142290   3.884   0.130   3.439
14111TIP3    H242291   3.896   0.077   3.298
14112TIP3   OH242292   3.193   6.243   2.492
14112TIP3    H142293   3.276   6.284   2.516
14112TIP3    H242294   3.147   6.310   2.441
14113TIP3   OH242295   6.947   2.840   4.409
14113TIP3    H142296   6.946   2.759   4.461
14113TIP3    H242297   6.939   2.810   4.318
14114TIP3   OH242298   4.566   7.224   0.739
14114TIP3    H142299   4.608   7.267   0.813
14114TIP3    H242300   4.476   7.255   0.741
14115TIP3   OH242301   4.984   4.783   1.351
14115TIP3    H142302   5.020   4.759   1.436
14115TIP3    H242303   5.051   4.754   1.288
14116TIP3   OH242304   2.696   2.994   6.734
14116TIP3    H142305   2.660   3.066   6.787
14116TIP3    H242306   2.781   3.027   6.706
14117TIP3   OH242307   2.934   0.274   0.232
14117TIP3    H142308   2.892   0.215   0.170
14117TIP3    H242309   2.889   0.260   0.315
14118TIP3   OH242310   7.258   2.366   3.329
14118TIP3    H142311   7.202   2.401   3.260
14118TIP3    H242312   7.347   2.378   3.297
14119TIP3   OH242313   5.029   1.287   5.321
14119TIP3    H142314   5.040   1.381   5.304
14119TIP3    H242315   5.066   1.275   5.409
14120TIP3   OH242316   0.244   4.276   1.976
14120TIP3    H142317   0.167   4.219   1.977
14120TIP3    H242318   0.247   4.312   1.888
14121TIP3   OH242319   2.126   7.191   0.881
14121TIP3    H142320   2.193   7.124   0.893
14121TIP3    H242321   2.167   7.257   0.825
14122TIP3   OH242322   8.102   2.803   4.051
14122TIP3    H142323   8.121   2.761   4.135
14122TIP3    H242324   8.014   2.773   4.028
14123TIP3   OH242325   8.283   1.970   5.081
14123TIP3    H142326   8.256   1.898   5.024
14123TIP3    H242327   8.213   2.034   5.074
14124TIP3   OH242328   0.660   3.075   4.044
14124TIP3    H142329   0.600   3.103   4.113
14124TIP3    H242330   0.707   3.000   4.081
14125TIP3   OH242331   2.127   5.237   4.277
14125TIP3    H142332   2.141   5.215   4.370
14125TIP3    H242333   2.127   5.152   4.232
14126TIP3   OH242334   4.059   1.447   1.051
14126TIP3    H142335   4.039   1.457   0.958
14126TIP3    H242336   4.149   1.415   1.054
14127TIP3   OH242337   6.395   2.761   2.800
14127TIP3    H142338   6.376   2.785   2.891
14127TIP3    H242339   6.455   2.829   2.770
14128TIP3   OH242340   0.089   2.418   5.307
14128TIP3    H142341   0.086   2.347   5.371
14128TIP3    H242342   0.006   2.412   5.260
14129TIP3   OH242343   4.340   6.200   5.469
14129TIP3    H142344   4.257   6.162   5.498
14129TIP3    H242345   4.379   6.133   5.413
14130TIP3   OH242346   7.664   1.927   6.202
14130TIP3    H142347   7.684   1.834   6.209
14130TIP3    H242348   7.616   1.948   6.282
14131TIP3   OH242349   6.827   7.420   0.998
14131TIP3    H142350   6.816   7.398   1.091
14131TIP3    H242351   6.744   7.394   0.958
14132TIP3   OH242352   7.412   7.606   5.427
14132TIP3    H142353   7.345   7.554   5.470
14132TIP3    H242354   7.395   7.696   5.454
14133TIP3   OH242355   3.726   5.325   4.552
14133TIP3    H142356   3.696   5.240   4.522
14133TIP3    H242357   3.810   5.338   4.508
14134TIP3   OH242358   4.664   6.626   2.535
14134TIP3    H142359   4.613   6.585   2.606
14134TIP3    H242360   4.729   6.560   2.511
14135TIP3   OH242361   5.421   0.975   1.387
14135TIP3    H142362   5.401   0.899   1.333
14135TIP3    H242363   5.488   0.944   1.449
14136TIP3   OH242364   6.548   1.099   6.680
14136TIP3    H142365   6.592   1.076   6.599
14136TIP3    H242366   6.484   1.166   6.654
14137TIP3   OH242367   1.913   4.380   3.039
14137TIP3    H142368   1.851   4.453   3.040
14137TIP3    H242369   1.964   4.393   2.959
14138TIP3   OH242370   1.430   5.773   2.825
14138TIP3    H142371   1.335   5.762   2.819
14138TIP3    H242372   1.463   5.685   2.843
14139TIP3   OH242373   2.879   0.408   1.404
14139TIP3    H142374   2.830   0.355   1.341
14139TIP3    H242375   2.851   0.377   1.490
14140TIP3   OH242376   4.939   5.881   5.419
14140TIP3    H142377   4.966   5.789   5.430
14140TIP3    H242378   4.996   5.914   5.350
14141TIP3   OH242379   2.392   4.468   2.674
14141TIP3    H142380   2.480   4.430   2.668
14141TIP3    H242381   2.365   4.452   2.764
14142TIP3   OH242382   3.231   4.657   1.679
14142TIP3    H142383   3.316   4.668   1.637
14142TIP3    H242384   3.167   4.678   1.611
14143TIP3   OH242385   6.734   3.216   3.994
14143TIP3    H142386   6.794   3.252   4.060
14143TIP3    H242387   6.692   3.142   4.038
14144TIP3   OH242388   2.972   0.086   1.675
14144TIP3    H142389   2.955   0.026   1.602
14144TIP3    H242390   2.901   0.149   1.671
14145TIP3   OH242391   8.132   0.654   1.262
14145TIP3    H142392   8.095   0.706   1.333
14145TIP3    H242393   8.209   0.612   1.301
14146TIP3   OH242394   7.852   6.152   2.157
14146TIP3    H142395   7.926   6.143   2.217
14146TIP3    H242396   7.887   6.201   2.083
14147TIP3   OH242397   3.951   3.934   2.600
14147TIP3    H142398   3.986   3.968   2.517
14147TIP3    H242399   3.950   3.839   2.588
14148TIP3   OH242400   6.496   1.774   0.922
14148TIP3    H142401   6.461   1.856   0.886
14148TIP3    H242402   6.581   1.764   0.880
14149TIP3   OH242403   0.217   1.658   0.301
14149TIP3    H142404   0.199   1.647   0.207
14149TIP3    H242405   0.145   1.713   0.332
14150TIP3   OH242406   6.914   2.397   0.272
14150TIP3    H142407   6.978   2.331   0.297
14150TIP3    H242408   6.911   2.456   0.348
14151TIP3   OH242409   0.997   4.256   2.059
14151TIP3    H142410   1.053   4.332   2.071
14151TIP3    H242411   0.909   4.292   2.048
14152TIP3   OH242412   4.508   7.703   6.289
14152TIP3    H142413   4.531   7.619   6.328
14152TIP3    H242414   4.501   7.763   6.363
14153TIP3   OH242415   4.936   6.275   3.001
14153TIP3    H142416   4.916   6.205   3.063
14153TIP3    H242417   5.004   6.238   2.944
14154TIP3   OH242418   2.998   4.562   1.066
14154TIP3    H142419   3.086   4.529   1.085
14154TIP3    H242420   2.981   4.536   0.976
14155TIP3   OH242421   6.852   3.902   2.851
14155TIP3    H142422   6.904   3.950   2.786
14155TIP3    H242423   6.851   3.811   2.819
14156TIP3   OH242424   6.635   7.368   0.808
14156TIP3    H142425   6.585   7.287   0.803
14156TIP3    H242426   6.570   7.437   0.794
14157TIP3   OH242427   5.976   6.488   1.489
14157TIP3    H142428   6.038   6.534   1.546
14157TIP3    H242429   5.940   6.557   1.433
14158TIP3   OH242430   7.085   3.305   3.334
14158TIP3    H142431   7.111   3.247   3.405
14158TIP3    H242432   6.992   3.322   3.350
14159TIP3   OH242433   2.795   6.760   6.437
14159TIP3    H142434   2.842   6.843   6.443
14159TIP3    H242435   2.739   6.770   6.360
14160TIP3   OH242436   0.692   5.025   6.356
14160TIP3    H142437   0.601   5.018   6.329
14160TIP3    H242438   0.704   5.117   6.381
14161TIP3   OH242439   5.105   6.491   6.323
14161TIP3    H142440   5.034   6.496   6.259
14161TIP3    H242441   5.062   6.497   6.408
14162TIP3   OH242442   3.949   7.059   3.723
14162TIP3    H142443   3.920   7.149   3.733
14162TIP3    H242444   3.943   7.022   3.811
14163TIP3   OH242445   0.382   3.814   5.635
14163TIP3    H142446   0.330   3.735   5.653
14163TIP3    H242447   0.468   3.795   5.673
14164TIP3   OH242448   5.908   3.300   2.732
14164TIP3    H142449   5.951   3.357   2.668
14164TIP3    H242450   5.925   3.211   2.700
14165TIP3   OH242451   1.456   6.840   3.783
14165TIP3    H142452   1.538   6.808   3.748
14165TIP3    H242453   1.450   6.931   3.752
14166TIP3   OH242454   0.956   2.570   1.343
14166TIP3    H142455   0.927   2.581   1.434
14166TIP3    H242456   0.927   2.650   1.299
14167TIP3   OH242457   6.820   2.094   5.952
14167TIP3    H142458   6.869   2.071   6.031
14167TIP3    H242459   6.870   2.166   5.914
14168TIP3   OH242460   4.108   3.079   5.715
14168TIP3    H142461   4.129   3.166   5.683
14168TIP3    H242462   4.014   3.068   5.696
14169TIP3   OH242463   7.778   6.406   2.336
14169TIP3    H142464   7.838   6.475   2.309
14169TIP3    H242465   7.813   6.327   2.293
14170TIP3   OH242466   5.340   0.148   1.076
14170TIP3    H142467   5.304   0.216   1.133
14170TIP3    H242468   5.315   0.174   0.988
14171TIP3   OH242469   7.552   2.073   1.917
14171TIP3    H142470   7.627   2.040   1.966
14171TIP3    H242471   7.591   2.129   1.850
14172TIP3   OH242472   2.396   2.055   2.914
14172TIP3    H142473   2.331   2.094   2.973
14172TIP3    H242474   2.375   2.092   2.829
14173TIP3   OH242475   8.254   0.912   2.871
14173TIP3    H142476   8.223   0.855   2.941
14173TIP3    H242477   8.328   0.865   2.833
14174TIP3   OH242478   7.842   0.679   0.120
14174TIP3    H142479   7.750   0.671   0.147
14174TIP3    H242480   7.843   0.756   0.063
14175TIP3   OH242481   5.553   1.180   1.241
14175TIP3    H142482   5.586   1.123   1.171
14175TIP3    H242483   5.520   1.119   1.307
14176TIP3   OH242484   3.995   3.503   2.712
14176TIP3    H142485   3.932   3.455   2.765
14176TIP3    H242486   4.010   3.446   2.636
14177TIP3   OH242487   0.350   7.562   1.850
14177TIP3    H142488   0.427   7.611   1.821
14177TIP3    H242489   0.383   7.504   1.919
14178TIP3   OH242490   3.456   2.007   0.064
14178TIP3    H142491   3.386   1.942   0.053
14178TIP3    H242492   3.474   2.007   0.157
14179TIP3   OH242493   3.429   0.731   0.634
14179TIP3    H142494   3.432   0.689   0.548
14179TIP3    H242495   3.389   0.666   0.691
14180TIP3   OH242496   2.974   2.488   3.005
14180TIP3    H142497   3.027   2.567   2.994
14180TIP3    H242498   3.003   2.430   2.934
14181TIP3   OH242499   4.201   6.004   3.614
14181TIP3    H142500   4.247   5.954   3.681
14181TIP3    H242501   4.109   5.985   3.629
14182TIP3   OH242502   7.586   1.712   4.809
14182TIP3    H142503   7.665   1.725   4.861
14182TIP3    H242504   7.514   1.725   4.871
14183TIP3   OH242505   1.576   7.723   2.642
14183TIP3    H142506   1.614   7.811   2.642
14183TIP3    H242507   1.633   7.672   2.583
14184TIP3   OH242508   4.152   3.647   5.548
14184TIP3    H142509   4.232   3.698   5.565
14184TIP3    H242510   4.081   3.711   5.555
14185TIP3   OH242511   0.110   2.749   2.116
14185TIP3    H142512   0.188   2.735   2.170
14185TIP3    H242513   0.144   2.757   2.026
14186TIP3   OH242514   6.288   1.211   6.632
14186TIP3    H142515   6.251   1.155   6.699
14186TIP3    H242516   6.213   1.243   6.582
14187TIP3   OH242517   0.508   7.423   2.034
14187TIP3    H142518   0.507   7.441   2.128
14187TIP3    H242519   0.577   7.358   2.022
14188TIP3   OH242520   3.996   4.476   1.146
14188TIP3    H142521   3.931   4.406   1.140
14188TIP3    H242522   4.023   4.492   1.055
14189TIP3   OH242523   2.448   1.633   3.029
14189TIP3    H142524   2.464   1.571   3.100
14189TIP3    H242525   2.526   1.688   3.026
14190TIP3   OH242526   7.741   7.781   6.164
14190TIP3    H142527   7.708   7.693   6.180
14190TIP3    H242528   7.835   7.769   6.145
14191TIP3   OH242529   3.653   0.882   0.689
14191TIP3    H142530   3.577   0.833   0.660
14191TIP3    H242531   3.694   0.914   0.608
14192TIP3   OH242532   4.726   5.453   1.259
14192TIP3    H142533   4.681   5.503   1.326
14192TIP3    H242534   4.703   5.362   1.278
14193TIP3   OH242535   3.770   5.489   5.681
14193TIP3    H142536   3.704   5.557   5.672
14193TIP3    H242537   3.854   5.536   5.679
14194TIP3   OH242538   1.352   1.655   2.198
14194TIP3    H142539   1.370   1.732   2.251
14194TIP3    H242540   1.257   1.656   2.186
14195TIP3   OH242541   3.201   7.723   5.860
14195TIP3    H142542   3.243   7.643   5.827
14195TIP3    H242543   3.225   7.791   5.798
14196TIP3   OH242544   0.119   2.556   2.763
14196TIP3    H142545   0.214   2.542   2.754
14196TIP3    H242546   0.104   2.640   2.721
14197TIP3   OH242547   1.372   0.690   0.845
14197TIP3    H142548   1.332   0.610   0.880
14197TIP3    H242549   1.442   0.711   0.907
14198TIP3   OH242550   7.471   6.663   3.794
14198TIP3    H142551   7.439   6.715   3.867
14198TIP3    H242552   7.445   6.711   3.716
14199TIP3   OH242553   5.312   0.525   3.125
14199TIP3    H142554   5.295   0.617   3.146
14199TIP3    H242555   5.295   0.518   3.032
14200TIP3   OH242556   2.972   7.243   0.279
14200TIP3    H142557   2.967   7.285   0.193
14200TIP3    H242558   2.996   7.314   0.339
14201TIP3   OH242559   4.791   5.277   0.336
14201TIP3    H142560   4.728   5.208   0.357
14201TIP3    H242561   4.791   5.281   0.241
14202TIP3   OH242562   1.798   2.097   1.674
14202TIP3    H142563   1.865   2.140   1.726
14202TIP3    H242564   1.716   2.141   1.697
14203TIP3   OH242565   6.344   4.510   3.159
14203TIP3    H142566   6.321   4.457   3.236
14203TIP3    H242567   6.424   4.555   3.185
14204TIP3   OH242568   0.387   3.915   1.181
14204TIP3    H142569   0.322   3.984   1.187
14204TIP3    H242570   0.398   3.885   1.272
14205TIP3   OH242571   6.164   1.938   6.235
14205TIP3    H142572   6.088   1.891   6.269
14205TIP3    H242573   6.151   1.941   6.140
14206TIP3   OH242574   5.501   6.747   4.702
14206TIP3    H142575   5.433   6.781   4.644
14206TIP3    H242576   5.458   6.678   4.752
14207TIP3   OH242577   0.332   4.592   4.814
14207TIP3    H142578   0.425   4.570   4.804
14207TIP3    H242579   0.289   4.507   4.830
14208TIP3   OH242580   6.624   5.088   3.668
14208TIP3    H142581   6.703   5.074   3.616
14208TIP3    H242582   6.580   5.003   3.669
14209TIP3   OH242583   8.223   5.518   5.575
14209TIP3    H142584   8.241   5.606   5.542
14209TIP3    H242585   8.250   5.521   5.667
14210TIP3   OH242586   6.277   0.976   4.082
14210TIP3    H142587   6.272   0.981   4.177
14210TIP3    H242588   6.186   0.970   4.053
14211TIP3   OH242589   1.776   2.803   4.209
14211TIP3    H142590   1.708   2.870   4.218
14211TIP3    H242591   1.752   2.755   4.130
14212TIP3   OH242592   7.935   6.194   4.363
14212TIP3    H142593   7.913   6.101   4.355
14212TIP3    H242594   7.854   6.235   4.394
14213TIP3   OH242595   0.420   0.792   3.946
14213TIP3    H142596   0.455   0.870   3.989
14213TIP3    H242597   0.339   0.773   3.993
14214TIP3   OH242598   3.365   6.658   2.629
14214TIP3    H142599   3.442   6.611   2.659
14214TIP3    H242600   3.399   6.738   2.589
14215TIP3   OH242601   7.454   4.620   2.486
14215TIP3    H142602   7.518   4.646   2.420
14215TIP3    H242603   7.440   4.527   2.471
14216TIP3   OH242604   5.270   6.883   0.403
14216TIP3    H142605   5.203   6.952   0.406
14216TIP3    H242606   5.226   6.806   0.439
14217TIP3   OH242607   3.000   1.555   1.562
14217TIP3    H142608   3.015   1.546   1.467
14217TIP3    H242609   2.907   1.536   1.572
14218TIP3   OH242610   5.947   1.751   1.087
14218TIP3    H142611   5.907   1.836   1.108
14218TIP3    H242612   6.037   1.758   1.119
14219TIP3   OH242613   5.307   4.921   1.719
14219TIP3    H142614   5.347   4.842   1.756
14219TIP3    H242615   5.252   4.956   1.789
14220TIP3   OH242616   4.132   5.398   1.100
14220TIP3    H142617   4.147   5.492   1.110
14220TIP3    H242618   4.148   5.380   1.008
14221TIP3   OH242619   1.567   2.406   5.185
14221TIP3    H142620   1.520   2.454   5.253
14221TIP3    H242621   1.498   2.364   5.133
14222TIP3   OH242622   6.355   5.960   1.788
14222TIP3    H142623   6.365   5.947   1.694
14222TIP3    H242624   6.281   5.904   1.812
14223TIP3   OH242625   7.580   5.694   5.957
14223TIP3    H142626   7.584   5.733   5.870
14223TIP3    H242627   7.552   5.603   5.942
14224TIP3   OH242628   1.403   1.793   6.568
14224TIP3    H142629   1.444   1.858   6.511
14224TIP3    H242630   1.400   1.713   6.514
14225TIP3   OH242631   7.745   2.068   0.748
14225TIP3    H142632   7.832   2.066   0.707
14225TIP3    H242633   7.684   2.052   0.677
14226TIP3   OH242634   7.563   6.994   2.031
14226TIP3    H142635   7.505   7.009   1.957
14226TIP3    H242636   7.544   7.065   2.092
14227TIP3   OH242637   5.410   2.100   0.933
14227TIP3    H142638   5.430   2.183   0.888
14227TIP3    H242639   5.361   2.127   1.011
14228TIP3   OH242640   7.957   5.186   4.076
14228TIP3    H142641   7.958   5.131   4.154
14228TIP3    H242642   8.046   5.181   4.041
14229TIP3   OH242643   0.433   5.886   0.579
14229TIP3    H142644   0.407   5.904   0.669
14229TIP3    H242645   0.528   5.886   0.581
14230TIP3   OH242646   3.052   1.015   4.878
14230TIP3    H142647   3.057   1.047   4.788
14230TIP3    H242648   2.960   0.990   4.890
14231TIP3   OH242649   2.957   7.014   5.346
14231TIP3    H142650   2.907   7.042   5.423
14231TIP3    H242651   2.892   7.008   5.276
14232TIP3   OH242652   4.175   3.011   0.751
14232TIP3    H142653   4.152   3.076   0.684
14232TIP3    H242654   4.270   3.005   0.748
14233TIP3   OH242655   4.075   5.252   4.702
14233TIP3    H142656   4.048   5.171   4.745
14233TIP3    H242657   4.073   5.318   4.772
14234TIP3   OH242658   2.999   3.788   2.362
14234TIP3    H142659   2.923   3.838   2.333
14234TIP3    H242660   2.986   3.701   2.326
14235TIP3   OH242661   7.841   1.278   3.082
14235TIP3    H142662   7.746   1.275   3.077
14235TIP3    H242663   7.869   1.288   2.991
14236TIP3   OH242664   0.637   3.931   3.441
14236TIP3    H142665   0.568   3.866   3.434
14236TIP3    H242666   0.692   3.916   3.364
14237TIP3   OH242667   6.056   6.253   0.602
14237TIP3    H142668   6.110   6.196   0.655
14237TIP3    H242669   6.005   6.304   0.665
14238TIP3   OH242670   5.749   5.165   6.141
14238TIP3    H142671   5.836   5.188   6.173
14238TIP3    H242672   5.751   5.188   6.048
14239TIP3   OH242673   5.121   5.726   1.308
14239TIP3    H142674   5.164   5.763   1.385
14239TIP3    H242675   5.185   5.664   1.272
14240TIP3   OH242676   8.103   1.462   3.628
14240TIP3    H142677   8.121   1.511   3.547
14240TIP3    H242678   8.190   1.446   3.665
14241TIP3   OH242679   6.723   1.436   6.324
14241TIP3    H142680   6.688   1.525   6.310
14241TIP3    H242681   6.653   1.390   6.370
14242TIP3   OH242682   8.253   4.563   1.224
14242TIP3    H142683   8.346   4.574   1.246
14242TIP3    H242684   8.206   4.591   1.303
14243TIP3   OH242685   0.212   6.349   4.909
14243TIP3    H142686   0.194   6.319   4.998
14243TIP3    H242687   0.259   6.277   4.868
14244TIP3   OH242688   3.952   7.105   3.062
14244TIP3    H142689   3.931   7.162   3.136
14244TIP3    H242690   3.900   7.140   2.989
14245TIP3   OH242691   4.045   3.537   3.711
14245TIP3    H142692   4.139   3.540   3.729
14245TIP3    H242693   4.039   3.508   3.620
14246TIP3   OH242694   6.493   7.238   6.186
14246TIP3    H142695   6.527   7.288   6.112
14246TIP3    H242696   6.502   7.146   6.159
14247TIP3   OH242697   3.072   6.065   0.418
14247TIP3    H142698   3.072   5.993   0.481
14247TIP3    H242699   3.054   6.023   0.334
14248TIP3   OH242700   6.552   4.836   3.565
14248TIP3    H142701   6.514   4.836   3.478
14248TIP3    H242702   6.597   4.752   3.572
14249TIP3   OH242703   6.351   3.247   4.175
14249TIP3    H142704   6.435   3.290   4.158
14249TIP3    H242705   6.287   3.298   4.125
14250TIP3   OH242706   2.326   5.908   2.721
14250TIP3    H142707   2.350   5.821   2.752
14250TIP3    H242708   2.392   5.929   2.655
14251TIP3   OH242709   7.533   2.157   4.151
14251TIP3    H142710   7.454   2.173   4.100
14251TIP3    H242711   7.572   2.244   4.163
14252TIP3   OH242712   0.298   7.749   2.954
14252TIP3    H142713   0.253   7.782   3.032
14252TIP3    H242714   0.355   7.680   2.987
14253TIP3   OH242715   4.177   5.822   4.886
14253TIP3    H142716   4.117   5.760   4.927
14253TIP3    H242717   4.194   5.785   4.799
14254TIP3   OH242718   1.236   2.689   4.540
14254TIP3    H142719   1.240   2.604   4.497
14254TIP3    H242720   1.226   2.752   4.468
14255TIP3   OH242721   3.141   4.920   0.476
14255TIP3    H142722   3.210   4.967   0.524
14255TIP3    H242723   3.095   4.870   0.544
14256TIP3   OH242724   7.307   0.495   1.567
14256TIP3    H142725   7.368   0.437   1.521
14256TIP3    H242726   7.323   0.479   1.659
14257TIP3   OH242727   4.893   1.400   1.112
14257TIP3    H142728   4.862   1.348   1.038
14257TIP3    H242729   4.983   1.422   1.090
14258TIP3   OH242730   2.690   3.734   0.197
14258TIP3    H142731   2.650   3.793   0.134
14258TIP3    H242732   2.729   3.791   0.263
14259TIP3   OH242733   4.422   2.662   5.928
14259TIP3    H142734   4.461   2.687   6.012
14259TIP3    H242735   4.331   2.689   5.934
14260TIP3   OH242736   3.115   3.768   0.286
14260TIP3    H142737   3.098   3.798   0.197
14260TIP3    H242738   3.195   3.716   0.279
14261TIP3   OH242739   5.126   7.299   4.690
14261TIP3    H142740   5.065   7.345   4.633
14261TIP3    H242741   5.109   7.335   4.777
14262TIP3   OH242742   5.804   3.512   1.105
14262TIP3    H142743   5.719   3.482   1.073
14262TIP3    H242744   5.867   3.454   1.063
14263TIP3   OH242745   3.062   2.861   3.969
14263TIP3    H142746   3.069   2.807   4.048
14263TIP3    H242747   3.151   2.890   3.951
14264TIP3   OH242748   1.376   3.021   6.181
14264TIP3    H142749   1.382   3.013   6.085
14264TIP3    H242750   1.466   3.006   6.211
14265TIP3   OH242751   0.438   5.101   4.245
14265TIP3    H142752   0.421   5.047   4.168
14265TIP3    H242753   0.473   5.183   4.211
14266TIP3   OH242754   5.821   7.547   3.554
14266TIP3    H142755   5.864   7.472   3.513
14266TIP3    H242756   5.881   7.620   3.537
14267TIP3   OH242757   5.299   2.503   0.304
14267TIP3    H142758   5.206   2.518   0.320
14267TIP3    H242759   5.302   2.438   0.234
14268TIP3   OH242760   1.001   0.159   4.386
14268TIP3    H142761   1.038   0.180   4.472
14268TIP3    H242762   0.949   0.081   4.401
14269TIP3   OH242763   0.406   3.291   4.783
14269TIP3    H142764   0.331   3.347   4.801
14269TIP3    H242765   0.452   3.335   4.711
14270TIP3   OH242766   4.292   5.149   4.197
14270TIP3    H142767   4.353   5.137   4.270
14270TIP3    H242768   4.232   5.218   4.226
14271TIP3   OH242769   6.557   1.955   2.897
14271TIP3    H142770   6.626   1.898   2.930
14271TIP3    H242771   6.507   1.900   2.837
14272TIP3   OH242772   5.901   7.466   2.128
14272TIP3    H142773   5.908   7.553   2.168
14272TIP3    H242774   5.807   7.450   2.122
14273TIP3   OH242775   3.000   3.811   3.994
14273TIP3    H142776   3.027   3.741   3.935
14273TIP3    H242777   2.973   3.766   4.074
14274TIP3   OH242778   1.023   1.677   4.404
14274TIP3    H142779   1.073   1.701   4.482
14274TIP3    H242780   0.932   1.677   4.434
14275TIP3   OH242781   3.490   1.874   5.582
14275TIP3    H142782   3.561   1.937   5.580
14275TIP3    H242783   3.504   1.824   5.662
14276TIP3   OH242784   0.507   6.824   1.428
14276TIP3    H142785   0.470   6.909   1.453
14276TIP3    H242786   0.432   6.765   1.426
14277TIP3   OH242787   6.728   0.041   0.839
14277TIP3    H142788   6.730   0.016   0.931
14277TIP3    H242789   6.766   0.129   0.837
14278TIP3   OH242790   7.190   4.634   4.152
14278TIP3    H142791   7.246   4.692   4.101
14278TIP3    H242792   7.220   4.644   4.242
14279TIP3   OH242793   6.020   4.154   6.031
14279TIP3    H142794   6.003   4.240   5.992
14279TIP3    H242795   6.105   4.128   5.996
14280TIP3   OH242796   6.509   6.057   1.565
14280TIP3    H142797   6.531   6.062   1.472
14280TIP3    H242798   6.416   6.077   1.569
14281TIP3   OH242799   3.917   4.644   1.631
14281TIP3    H142800   3.976   4.716   1.655
14281TIP3    H242801   3.894   4.604   1.715
14282TIP3   OH242802   6.187   2.538   6.808
14282TIP3    H142803   6.139   2.492   6.739
14282TIP3    H242804   6.276   2.505   6.802
14283TIP3   OH242805   7.884   4.458   1.607
14283TIP3    H142806   7.864   4.466   1.701
14283TIP3    H242807   7.895   4.364   1.593
14284TIP3   OH242808   5.887   7.832   2.712
14284TIP3    H142809   5.971   7.856   2.750
14284TIP3    H242810   5.874   7.894   2.641
14285TIP3   OH242811   2.324   0.603   1.730
14285TIP3    H142812   2.323   0.542   1.656
14285TIP3    H242813   2.278   0.681   1.698
14286TIP3   OH242814   6.891   5.350   1.909
14286TIP3    H142815   6.986   5.336   1.908
14286TIP3    H242816   6.880   5.445   1.910
14287TIP3   OH242817   6.489   1.766   5.655
14287TIP3    H142818   6.566   1.763   5.712
14287TIP3    H242819   6.435   1.836   5.693
14288TIP3   OH242820   3.770   1.447   5.963
14288TIP3    H142821   3.731   1.529   5.993
14288TIP3    H242822   3.697   1.397   5.928
14289TIP3   OH242823   0.056   7.385   6.802
14289TIP3    H142824   0.034   7.390   6.709
14289TIP3    H242825   0.013   7.305   6.833
14290TIP3   OH242826   1.375   2.948   0.704
14290TIP3    H142827   1.341   3.018   0.649
14290TIP3    H242828   1.304   2.930   0.766
14291TIP3   OH242829   2.746   2.704   3.407
14291TIP3    H142830   2.691   2.740   3.338
14291TIP3    H242831   2.822   2.762   3.411
14292TIP3   OH242832   5.080   1.671   5.040
14292TIP3    H142833   4.993   1.656   5.002
14292TIP3    H242834   5.068   1.744   5.101
14293TIP3   OH242835   4.484   2.883   1.056
14293TIP3    H142836   4.549   2.821   1.021
14293TIP3    H242837   4.477   2.860   1.149
14294TIP3   OH242838   3.507   2.913   4.460
14294TIP3    H142839   3.442   2.848   4.488
14294TIP3    H242840   3.591   2.876   4.487
14295TIP3   OH242841   2.419   3.793   0.451
14295TIP3    H142842   2.378   3.747   0.524
14295TIP3    H242843   2.495   3.739   0.428
14296TIP3   OH242844   3.721   0.112   4.462
14296TIP3    H142845   3.627   0.110   4.445
14296TIP3    H242846   3.761   0.130   4.377
14297TIP3   OH242847   6.990   1.117   4.914
14297TIP3    H142848   7.059   1.051   4.915
14297TIP3    H242849   6.963   1.125   5.006
14298TIP3   OH242850   4.403   7.420   3.233
14298TIP3    H142851   4.403   7.395   3.325
14298TIP3    H242852   4.464   7.359   3.191
14299TIP3   OH242853   7.035   3.148   3.083
14299TIP3    H142854   6.940   3.145   3.078
14299TIP3    H242855   7.053   3.202   3.160
14300TIP3   OH242856   5.713   7.005   4.553
14300TIP3    H142857   5.726   7.074   4.618
14300TIP3    H242858   5.619   6.984   4.559
14301TIP3   OH242859   7.610   2.443   5.882
14301TIP3    H142860   7.663   2.399   5.815
14301TIP3    H242861   7.529   2.392   5.884
14302TIP3   OH242862   7.787   4.051   0.538
14302TIP3    H142863   7.823   3.993   0.605
14302TIP3    H242864   7.797   4.003   0.456
14303TIP3   OH242865   0.247   0.913   1.583
14303TIP3    H142866   0.209   0.971   1.649
14303TIP3    H242867   0.211   0.826   1.603
14304TIP3   OH242868   7.155   7.802   3.391
14304TIP3    H142869   7.115   7.861   3.455
14304TIP3    H242870   7.204   7.739   3.444
14305TIP3   OH242871   6.645   4.629   1.781
14305TIP3    H142872   6.714   4.673   1.732
14305TIP3    H242873   6.629   4.548   1.732
14306TIP3   OH242874   1.414   7.018   6.744
14306TIP3    H142875   1.394   7.084   6.810
14306TIP3    H242876   1.398   7.061   6.661
14307TIP3   OH242877   1.675   0.625   4.095
14307TIP3    H142878   1.727   0.703   4.114
14307TIP3    H242879   1.714   0.557   4.151
14308TIP3   OH242880   7.606   6.537   6.437
14308TIP3    H142881   7.580   6.612   6.491
14308TIP3    H242882   7.699   6.526   6.454
14309TIP3   OH242883   7.023   3.958   1.693
14309TIP3    H142884   7.084   3.939   1.765
14309TIP3    H242885   6.961   3.885   1.695
14310TIP3   OH242886   4.254   2.165   4.385
14310TIP3    H142887   4.297   2.235   4.336
14310TIP3    H242888   4.167   2.200   4.403
14311TIP3   OH242889   7.164   4.034   5.347
14311TIP3    H142890   7.138   3.953   5.303
14311TIP3    H242891   7.095   4.097   5.326
14312TIP3   OH242892   4.859   4.339   0.825
14312TIP3    H142893   4.808   4.414   0.793
14312TIP3    H242894   4.937   4.338   0.769
14313TIP3   OH242895   1.582   2.143   6.502
14313TIP3    H142896   1.507   2.134   6.444
14313TIP3    H242897   1.651   2.090   6.461
14314TIP3   OH242898   1.428   1.583   5.455
14314TIP3    H142899   1.462   1.632   5.531
14314TIP3    H242900   1.488   1.510   5.444
14315TIP3   OH242901   8.107   7.248   5.339
14315TIP3    H142902   8.028   7.196   5.354
14315TIP3    H242903   8.130   7.283   5.425
14316TIP3   OH242904   2.902   0.637   0.808
14316TIP3    H142905   2.854   0.714   0.778
14316TIP3    H242906   2.834   0.577   0.840
14317TIP3   OH242907   5.809   3.372   5.870
14317TIP3    H142908   5.720   3.366   5.907
14317TIP3    H242909   5.814   3.299   5.809
14318TIP3   OH242910   1.914   5.846   0.278
14318TIP3    H142911   1.972   5.785   0.324
14318TIP3    H242912   1.858   5.882   0.348
14319TIP3   OH242913   0.184   5.986   4.436
14319TIP3    H142914   0.121   6.044   4.479
14319TIP3    H242915   0.132   5.915   4.401
14320TIP3   OH242916   5.899   5.544   5.311
14320TIP3    H142917   5.866   5.600   5.382
14320TIP3    H242918   5.820   5.503   5.275
14321TIP3   OH242919   2.972   6.224   5.675
14321TIP3    H142920   3.066   6.209   5.678
14321TIP3    H242921   2.949   6.216   5.583
14322TIP3   OH242922   7.740   4.287   3.163
14322TIP3    H142923   7.662   4.261   3.114
14322TIP3    H242924   7.753   4.215   3.226
14323TIP3   OH242925   5.133   5.221   5.152
14323TIP3    H142926   5.218   5.265   5.157
14323TIP3    H242927   5.155   5.130   5.133
14324TIP3   OH242928   7.317   3.890   2.658
14324TIP3    H142929   7.341   3.821   2.596
14324TIP3    H242930   7.231   3.920   2.628
14325TIP3   OH242931   8.314   6.653   5.886
14325TIP3    H142932   8.282   6.563   5.878
14325TIP3    H242933   8.335   6.680   5.797
14326TIP3   OH242934   1.744   3.749   1.271
14326TIP3    H142935   1.754   3.660   1.307
14326TIP3    H242936   1.723   3.735   1.179
14327TIP3   OH242937   2.427   6.948   6.145
14327TIP3    H142938   2.488   7.005   6.191
14327TIP3    H242939   2.469   6.862   6.146
14328TIP3   OH242940   3.115   0.091   6.765
14328TIP3    H142941   3.183   0.151   6.734
14328TIP3    H242942   3.033   0.139   6.752
14329TIP3   OH242943   2.669   4.780   5.679
14329TIP3    H142944   2.655   4.686   5.695
14329TIP3    H242945   2.677   4.818   5.767
14330TIP3   OH242946   2.760   5.962   5.402
14330TIP3    H142947   2.711   5.902   5.458
14330TIP3    H242948   2.778   5.912   5.323
14331TIP3   OH242949   3.125   2.159   1.718
14331TIP3    H142950   3.065   2.102   1.668
14331TIP3    H242951   3.210   2.115   1.712
14332TIP3   OH242952   0.569   0.049   1.773
14332TIP3    H142953   0.640   0.036   1.710
14332TIP3    H242954   0.586   0.135   1.811
14333TIP3   OH242955   1.956   6.681   2.312
14333TIP3    H142956   1.880   6.740   2.309
14333TIP3    H242957   1.925   6.600   2.271
14334TIP3   OH242958   5.079   1.539   5.270
14334TIP3    H142959   5.067   1.612   5.330
14334TIP3    H242960   5.095   1.580   5.185
14335TIP3   OH242961   1.690   0.420   1.549
14335TIP3    H142962   1.657   0.437   1.637
14335TIP3    H242963   1.783   0.402   1.561
14336TIP3   OH242964   8.048   3.746   5.779
14336TIP3    H142965   8.013   3.773   5.694
14336TIP3    H242966   8.140   3.772   5.777
14337TIP3   OH242967   6.039   0.581   4.848
14337TIP3    H142968   6.103   0.528   4.802
14337TIP3    H242969   5.961   0.579   4.792
14338TIP3   OH242970   3.040   3.962   0.011
14338TIP3    H142971   3.033   3.949  -0.083
14338TIP3    H242972   2.960   3.924   0.047
14339TIP3   OH242973   1.029   0.562   2.005
14339TIP3    H142974   1.005   0.641   2.053
14339TIP3    H242975   1.122   0.549   2.024
14340TIP3   OH242976   4.706   1.517   0.956
14340TIP3    H142977   4.781   1.537   1.012
14340TIP3    H242978   4.701   1.589   0.894
14341TIP3   OH242979   7.216   5.910   2.850
14341TIP3    H142980   7.243   5.953   2.930
14341TIP3    H242981   7.266   5.952   2.781
14342TIP3   OH242982   2.695   5.038   2.879
14342TIP3    H142983   2.604   5.066   2.885
14342TIP3    H242984   2.719   5.053   2.788
14343TIP3   OH242985   2.814   3.797   1.230
14343TIP3    H142986   2.747   3.732   1.250
14343TIP3    H242987   2.845   3.828   1.315
14344TIP3   OH242988   5.640   5.126   1.514
14344TIP3    H142989   5.557   5.113   1.561
14344TIP3    H242990   5.705   5.080   1.568
14345TIP3   OH242991   0.265   2.402   2.356
14345TIP3    H142992   0.263   2.430   2.265
14345TIP3    H242993   0.173   2.399   2.382
14346TIP3   OH242994   4.372   6.935   1.027
14346TIP3    H142995   4.414   6.964   0.946
14346TIP3    H242996   4.397   6.843   1.035
14347TIP3   OH242997   5.951   5.391   3.031
14347TIP3    H142998   5.904   5.453   3.087
14347TIP3    H242999   6.040   5.426   3.027
14348TIP3   OH243000   7.491   3.198   0.650
14348TIP3    H143001   7.495   3.221   0.558
14348TIP3    H243002   7.578   3.164   0.671
14349TIP3   OH243003   6.389   3.703   4.971
14349TIP3    H143004   6.337   3.665   4.900
14349TIP3    H243005   6.466   3.647   4.978
14350TIP3   OH243006   1.812   6.096   5.942
14350TIP3    H143007   1.841   6.165   6.002
14350TIP3    H243008   1.892   6.070   5.896
14351TIP3   OH243009   0.131   1.760   3.384
14351TIP3    H143010   0.125   1.665   3.396
14351TIP3    H243011   0.148   1.794   3.472
14352TIP3   OH243012   3.095   5.861   0.606
14352TIP3    H143013   3.036   5.786   0.600
14352TIP3    H243014   3.118   5.865   0.699
14353TIP3   OH243015   3.880   0.081   6.434
14353TIP3    H143016   3.848   0.140   6.502
14353TIP3    H243017   3.803   0.032   6.406
14354TIP3   OH243018   7.665   5.118   3.042
14354TIP3    H143019   7.600   5.052   3.018
14354TIP3    H243020   7.615   5.198   3.054
14355TIP3   OH243021   3.542   4.930   5.629
14355TIP3    H143022   3.565   5.000   5.690
14355TIP3    H243023   3.618   4.921   5.572
14356TIP3   OH243024   5.936   5.898   5.668
14356TIP3    H143025   5.871   5.948   5.718
14356TIP3    H243026   5.958   5.824   5.724
14357TIP3   OH243027   6.360   6.119   0.156
14357TIP3    H143028   6.375   6.108   0.250
14357TIP3    H243029   6.270   6.092   0.142
14358TIP3   OH243030   3.456   0.390   4.007
14358TIP3    H143031   3.402   0.452   3.957
14358TIP3    H243032   3.406   0.309   4.006
14359TIP3   OH243033   8.063   0.084   1.414
14359TIP3    H143034   8.076   0.000   1.457
14359TIP3    H243035   8.032   0.061   1.326
14360TIP3   OH243036   4.107   3.286   6.225
14360TIP3    H143037   4.025   3.239   6.212
14360TIP3    H243038   4.098   3.326   6.312
14361TIP3   OH243039   7.305   5.869   5.646
14361TIP3    H143040   7.235   5.819   5.605
14361TIP3    H243041   7.260   5.942   5.689
14362TIP3   OH243042   7.732   0.557   0.756
14362TIP3    H143043   7.682   0.532   0.679
14362TIP3    H243044   7.792   0.625   0.725
14363TIP3   OH243045   3.155   2.348   5.783
14363TIP3    H143046   3.116   2.280   5.838
14363TIP3    H243047   3.161   2.424   5.841
14364TIP3   OH243048   6.830   5.421   4.899
14364TIP3    H143049   6.772   5.375   4.960
14364TIP3    H243050   6.771   5.452   4.830
14365TIP3   OH243051   2.383   3.594   4.033
14365TIP3    H143052   2.449   3.526   4.046
14365TIP3    H243053   2.433   3.674   4.018
14366TIP3   OH243054   8.061   4.707   5.197
14366TIP3    H143055   8.126   4.641   5.222
14366TIP3    H243056   7.976   4.663   5.209
14367TIP3   OH243057   3.062   3.572   2.629
14367TIP3    H143058   3.121   3.497   2.616
14367TIP3    H243059   3.093   3.612   2.711
14368TIP3   OH243060   2.801   5.675   2.240
14368TIP3    H143061   2.871   5.646   2.298
14368TIP3    H243062   2.846   5.715   2.165
14369TIP3   OH243063   1.986   3.206   1.776
14369TIP3    H143064   1.907   3.243   1.736
14369TIP3    H243065   2.011   3.135   1.718
14370TIP3   OH243066   5.407   3.620   0.162
14370TIP3    H143067   5.439   3.709   0.176
14370TIP3    H243068   5.485   3.571   0.135
14371TIP3   OH243069   7.525   0.171   3.079
14371TIP3    H143070   7.598   0.233   3.084
14371TIP3    H243071   7.543   0.118   3.001
14372TIP3   OH243072   6.647   6.917   3.525
14372TIP3    H143073   6.737   6.945   3.543
14372TIP3    H243074   6.596   6.946   3.600
14373TIP3   OH243075   1.816   3.512   0.721
14373TIP3    H143076   1.891   3.460   0.691
14373TIP3    H243077   1.787   3.558   0.642
14374TIP3   OH243078   3.725   6.522   3.692
14374TIP3    H143079   3.644   6.568   3.715
14374TIP3    H243080   3.769   6.505   3.775
14375TIP3   OH243081   1.895   5.502   4.720
14375TIP3    H143082   1.951   5.577   4.742
14375TIP3    H243083   1.863   5.522   4.632
14376TIP3   OH243084   6.230   7.305   0.796
14376TIP3    H143085   6.237   7.390   0.838
14376TIP3    H243086   6.144   7.273   0.823
14377TIP3   OH243087   0.864   7.182   5.910
14377TIP3    H143088   0.816   7.244   5.856
14377TIP3    H243089   0.829   7.195   5.999
14378TIP3   OH243090   4.960   0.874   3.763
14378TIP3    H143091   4.910   0.943   3.720
14378TIP3    H243092   5.052   0.895   3.743
14379TIP3   OH243093   6.748   2.689   2.218
14379TIP3    H143094   6.702   2.605   2.230
14379TIP3    H243095   6.838   2.670   2.243
14380TIP3   OH243096   3.975   0.805   5.061
14380TIP3    H143097   3.976   0.717   5.098
14380TIP3    H243098   4.054   0.808   5.006
14381TIP3   OH243099   5.875   0.400   1.180
14381TIP3    H143100   5.784   0.371   1.185
14381TIP3    H243101   5.871   0.495   1.187
14382TIP3   OH243102   3.994   7.048   2.561
14382TIP3    H143103   3.941   7.001   2.626
14382TIP3    H243104   4.028   6.980   2.503
14383TIP3   OH243105   4.655   3.493   2.349
14383TIP3    H143106   4.699   3.456   2.425
14383TIP3    H243107   4.724   3.539   2.301
14384TIP3   OH243108   1.154   4.144   1.833
14384TIP3    H143109   1.171   4.155   1.927
14384TIP3    H243110   1.089   4.210   1.812
14385TIP3   OH243111   2.404   4.937   6.029
14385TIP3    H143112   2.384   4.846   6.007
14385TIP3    H243113   2.412   4.937   6.124
14386TIP3   OH243114   0.404   3.412   5.358
14386TIP3    H143115   0.336   3.418   5.290
14386TIP3    H243116   0.396   3.323   5.392
14387TIP3   OH243117   8.005   7.129   0.608
14387TIP3    H143118   8.073   7.064   0.594
14387TIP3    H243119   7.923   7.082   0.594
14388TIP3   OH243120   1.797   7.026   2.727
14388TIP3    H143121   1.817   7.107   2.681
14388TIP3    H243122   1.855   7.026   2.803
14389TIP3   OH243123   5.981   0.788   1.732
14389TIP3    H143124   5.925   0.861   1.761
14389TIP3    H243125   5.963   0.718   1.794
14390TIP3   OH243126   2.390   6.267   4.442
14390TIP3    H143127   2.474   6.229   4.468
14390TIP3    H243128   2.366   6.219   4.363
14391TIP3   OH243129   6.622   5.983   3.397
14391TIP3    H143130   6.615   6.062   3.450
14391TIP3    H243131   6.596   6.009   3.309
14392TIP3   OH243132   3.522   5.468   1.661
14392TIP3    H143133   3.538   5.374   1.670
14392TIP3    H243134   3.546   5.488   1.570
14393TIP3   OH243135   0.850   5.613   2.755
14393TIP3    H143136   0.927   5.559   2.772
14393TIP3    H243137   0.885   5.701   2.742
14394TIP3   OH243138   2.854   5.164   5.818
14394TIP3    H143139   2.872   5.235   5.757
14394TIP3    H243140   2.935   5.114   5.822
14395TIP3   OH243141   4.628   5.307   4.311
14395TIP3    H143142   4.699   5.352   4.356
14395TIP3    H243143   4.580   5.262   4.380
14396TIP3   OH243144   0.071   1.799   0.895
14396TIP3    H143145   0.099   1.801   0.987
14396TIP3    H243146   0.010   1.725   0.891
14397TIP3   OH243147   2.355   6.259   6.325
14397TIP3    H143148   2.407   6.179   6.317
14397TIP3    H243149   2.272   6.230   6.363
14398TIP3   OH243150   4.602   4.246   0.705
14398TIP3    H143151   4.684   4.243   0.756
14398TIP3    H243152   4.618   4.187   0.631
14399TIP3   OH243153   8.123   4.574   1.489
14399TIP3    H143154   8.054   4.535   1.543
14399TIP3    H243155   8.173   4.629   1.550
14400TIP3   OH243156   6.273   0.647   0.919
14400TIP3    H143157   6.364   0.620   0.926
14400TIP3    H243158   6.228   0.598   0.989
14401TIP3   OH243159   4.497   7.504   2.625
14401TIP3    H143160   4.560   7.518   2.696
14401TIP3    H243161   4.412   7.513   2.667
14402TIP3   OH243162   7.174   0.611   0.910
14402TIP3    H143163   7.267   0.633   0.918
14402TIP3    H243164   7.167   0.522   0.943
14403TIP3   OH243165   1.760   1.864   3.170
14403TIP3    H143166   1.691   1.855   3.235
14403TIP3    H243167   1.754   1.955   3.141
14404TIP3   OH243168   6.414   7.239   5.147
14404TIP3    H143169   6.345   7.226   5.081
14404TIP3    H243170   6.460   7.155   5.150
14405TIP3   OH243171   7.884   4.264   2.680
14405TIP3    H143172   7.842   4.252   2.765
14405TIP3    H243173   7.902   4.358   2.675
14406TIP3   OH243174   8.093   7.609   0.781
14406TIP3    H143175   8.049   7.544   0.836
14406TIP3    H243176   8.186   7.595   0.797
14407TIP3   OH243177   4.786   5.347   5.728
14407TIP3    H143178   4.820   5.277   5.671
14407TIP3    H243179   4.730   5.398   5.671
14408TIP3   OH243180   2.673   2.134   6.426
14408TIP3    H143181   2.673   2.209   6.486
14408TIP3    H243182   2.662   2.173   6.339
14409TIP3   OH243183   6.591   4.028   3.452
14409TIP3    H143184   6.645   3.955   3.420
14409TIP3    H243185   6.610   4.100   3.391
14410TIP3   OH243186   3.842   4.722   4.192
14410TIP3    H143187   3.910   4.690   4.251
14410TIP3    H243188   3.774   4.654   4.194
14411TIP3   OH243189   2.352   2.266   0.777
14411TIP3    H143190   2.413   2.222   0.718
14411TIP3    H243191   2.407   2.297   0.849
14412TIP3   OH243192   4.906   1.249   0.135
14412TIP3    H143193   4.841   1.319   0.146
14412TIP3    H243194   4.962   1.257   0.212
14413TIP3   OH243195   6.770   5.650   1.492
14413TIP3    H143196   6.694   5.641   1.434
14413TIP3    H243197   6.740   5.706   1.563
14414TIP3   OH243198   2.749   7.663   2.711
14414TIP3    H143199   2.677   7.632   2.657
14414TIP3    H243200   2.797   7.584   2.735
14415TIP3   OH243201   5.502   4.400   1.154
14415TIP3    H143202   5.423   4.396   1.208
14415TIP3    H243203   5.569   4.437   1.212
14416TIP3   OH243204   6.973   7.407   5.089
14416TIP3    H143205   6.988   7.333   5.147
14416TIP3    H243206   7.026   7.478   5.126
14417TIP3   OH243207   1.256   5.584   1.786
14417TIP3    H143208   1.273   5.567   1.879
14417TIP3    H243209   1.317   5.655   1.763
14418TIP3   OH243210   7.443   0.032   2.270
14418TIP3    H143211   7.416  -0.028   2.340
14418TIP3    H243212   7.422   0.119   2.304
14419TIP3   OH243213   3.904   0.908   1.759
14419TIP3    H143214   3.951   0.876   1.835
14419TIP3    H243215   3.812   0.885   1.775
14420TIP3   OH243216   8.321   1.232   6.373
14420TIP3    H143217   8.238   1.258   6.413
14420TIP3    H243218   8.384   1.230   6.445
14421TIP3   OH243219   4.881   5.605   6.736
14421TIP3    H143220   4.965   5.622   6.778
14421TIP3    H243221   4.903   5.555   6.658
14422TIP3   OH243222   3.758   1.735   2.245
14422TIP3    H143223   3.848   1.716   2.219
14422TIP3    H243224   3.766   1.783   2.328
14423TIP3   OH243225   1.098   5.043   4.421
14423TIP3    H143226   1.141   5.052   4.506
14423TIP3    H243227   1.165   5.009   4.362
14424TIP3   OH243228   5.202   3.489   5.157
14424TIP3    H143229   5.265   3.536   5.102
14424TIP3    H243230   5.214   3.397   5.133
14425TIP3   OH243231   1.396   1.890   0.920
14425TIP3    H143232   1.374   1.922   0.832
14425TIP3    H243233   1.390   1.967   0.976
14426TIP3   OH243234   5.055   2.177   5.858
14426TIP3    H143235   5.032   2.188   5.766
14426TIP3    H243236   5.150   2.176   5.859
14427TIP3   OH243237   7.773   2.529   3.616
14427TIP3    H143238   7.772   2.478   3.534
14427TIP3    H243239   7.862   2.517   3.650
14428TIP3   OH243240   0.032   6.386   5.978
14428TIP3    H143241   0.123   6.375   5.953
14428TIP3    H243242  -0.017   6.333   5.915
14429TIP3   OH243243   1.534   6.754   2.542
14429TIP3    H143244   1.465   6.802   2.588
14429TIP3    H243245   1.572   6.697   2.609
14430TIP3   OH243246   2.408   0.086   3.671
14430TIP3    H143247   2.435  -0.006   3.667
14430TIP3    H243248   2.411   0.108   3.764
14431TIP3   OH243249   0.562   4.438   6.644
14431TIP3    H143250   0.559   4.506   6.712
14431TIP3    H243251   0.514   4.364   6.683
14432TIP3   OH243252   3.338   7.211   0.493
14432TIP3    H143253   3.346   7.302   0.463
14432TIP3    H243254   3.311   7.218   0.584
14433TIP3   OH243255   5.064   1.010   4.674
14433TIP3    H143256   5.002   1.051   4.733
14433TIP3    H243257   5.023   0.926   4.650
14434TIP3   OH243258   4.247   7.595   3.538
14434TIP3    H143259   4.251   7.690   3.526
14434TIP3    H243260   4.335   7.571   3.566
14435TIP3   OH243261   2.800   2.042   5.483
14435TIP3    H143262   2.816   2.117   5.427
14435TIP3    H243263   2.828   1.966   5.431
14436TIP3   OH243264   1.222   2.623   4.201
14436TIP3    H143265   1.246   2.711   4.230
14436TIP3    H243266   1.272   2.564   4.258
14437TIP3   OH243267   7.540   7.740   4.828
14437TIP3    H143268   7.587   7.763   4.908
14437TIP3    H243269   7.489   7.818   4.807
14438TIP3   OH243270   6.202   1.278   5.631
14438TIP3    H143271   6.285   1.289   5.585
14438TIP3    H243272   6.175   1.188   5.610
14439TIP3   OH243273   7.409   7.620   2.581
14439TIP3    H143274   7.466   7.656   2.649
14439TIP3    H243275   7.328   7.670   2.588
14440TIP3   OH243276   7.548   1.180   5.343
14440TIP3    H143277   7.533   1.265   5.385
14440TIP3    H243278   7.594   1.128   5.410
14441TIP3   OH243279   8.199   7.488   1.132
14441TIP3    H143280   8.166   7.411   1.085
14441TIP3    H243281   8.230   7.453   1.216
14442TIP3   OH243282   5.092   5.675   5.913
14442TIP3    H143283   5.020   5.700   5.854
14442TIP3    H243284   5.074   5.584   5.935
14443TIP3   OH243285   5.485   1.309   2.473
14443TIP3    H143286   5.565   1.285   2.427
14443TIP3    H243287   5.451   1.227   2.508
14444TIP3   OH243288   0.199   3.257   0.647
14444TIP3    H143289   0.244   3.320   0.703
14444TIP3    H243290   0.106   3.280   0.656
14445TIP3   OH243291   4.749   1.247   5.144
14445TIP3    H143292   4.688   1.219   5.212
14445TIP3    H243293   4.724   1.337   5.124
14446TIP3   OH243294   7.437   2.905   5.562
14446TIP3    H143295   7.507   2.861   5.610
14446TIP3    H243296   7.470   2.993   5.547
14447TIP3   OH243297   8.086   6.753   4.193
14447TIP3    H143298   8.009   6.749   4.250
14447TIP3    H243299   8.082   6.840   4.154
14448TIP3   OH243300   3.800   0.039   0.902
14448TIP3    H143301   3.726   0.094   0.877
14448TIP3    H243302   3.784  -0.044   0.856
14449TIP3   OH243303   3.444   1.060   3.175
14449TIP3    H143304   3.527   1.017   3.157
14449TIP3    H243305   3.399   1.062   3.090
14450TIP3   OH243306   6.069   1.075   0.281
14450TIP3    H143307   6.088   1.073   0.375
14450TIP3    H243308   6.154   1.090   0.240
14451TIP3   OH243309   3.332   5.409   3.686
14451TIP3    H143310   3.275   5.452   3.750
14451TIP3    H243311   3.359   5.328   3.729
14452TIP3   OH243312   0.209   3.959   6.093
14452TIP3    H143313   0.138   3.896   6.086
14452TIP3    H243314   0.288   3.906   6.107
14453TIP3   OH243315   1.051   4.630   3.353
14453TIP3    H143316   1.026   4.548   3.309
14453TIP3    H243317   1.141   4.646   3.324
14454TIP3   OH243318   2.662   3.958   0.373
14454TIP3    H143319   2.590   3.964   0.436
14454TIP3    H243320   2.628   3.998   0.293
14455TIP3   OH243321   1.819   7.463   1.170
14455TIP3    H143322   1.756   7.531   1.144
14455TIP3    H243323   1.833   7.411   1.091
14456TIP3   OH243324   8.119   5.719   1.351
14456TIP3    H143325   8.178   5.676   1.413
14456TIP3    H243326   8.073   5.646   1.309
14457TIP3   OH243327   3.471   1.359   4.163
14457TIP3    H143328   3.417   1.341   4.240
14457TIP3    H243329   3.426   1.315   4.091
14458TIP3   OH243330   4.365   6.156   2.857
14458TIP3    H143331   4.284   6.193   2.893
14458TIP3    H243332   4.338   6.074   2.816
14459TIP3   OH243333   6.799   7.120   3.346
14459TIP3    H143334   6.856   7.070   3.288
14459TIP3    H243335   6.710   7.096   3.320
14460TIP3   OH243336   0.950   4.689   2.310
14460TIP3    H143337   0.892   4.761   2.335
14460TIP3    H243338   1.034   4.711   2.350
14461TIP3   OH243339   5.856   2.953   5.538
14461TIP3    H143340   5.900   2.913   5.463
14461TIP3    H243341   5.845   2.880   5.600
14462TIP3   OH243342   4.782   7.065   1.496
14462TIP3    H143343   4.768   6.973   1.475
14462TIP3    H243344   4.807   7.065   1.589
14463TIP3   OH243345   2.752   5.918   6.257
14463TIP3    H143346   2.775   5.831   6.224
14463TIP3    H243347   2.813   5.977   6.213
14464TIP3   OH243348   2.993   3.521   6.495
14464TIP3    H143349   2.944   3.601   6.511
14464TIP3    H243350   3.047   3.541   6.419
14465TIP3   OH243351   0.476   3.529   0.387
14465TIP3    H143352   0.472   3.445   0.432
14465TIP3    H243353   0.461   3.594   0.456
14466TIP3   OH243354   8.229   2.049   4.474
14466TIP3    H143355   8.211   1.973   4.419
14466TIP3    H243356   8.185   2.029   4.557
14467TIP3   OH243357   5.724   4.253   2.035
14467TIP3    H143358   5.803   4.210   2.001
14467TIP3    H243359   5.652   4.194   2.012
14468TIP3   OH243360   6.453   6.693   4.501
14468TIP3    H143361   6.382   6.632   4.480
14468TIP3    H243362   6.408   6.777   4.513
14469TIP3   OH243363   1.431   3.615   0.577
14469TIP3    H143364   1.448   3.659   0.660
14469TIP3    H243365   1.470   3.528   0.588
14470TIP3   OH243366   7.721   4.786   6.052
14470TIP3    H143367   7.720   4.787   5.956
14470TIP3    H243368   7.800   4.833   6.076
14471TIP3   OH243369   3.712   0.845   0.947
14471TIP3    H143370   3.739   0.754   0.958
14471TIP3    H243371   3.690   0.852   0.854
14472TIP3   OH243372   0.768   5.637   0.219
14472TIP3    H143373   0.839   5.696   0.243
14472TIP3    H243374   0.709   5.691   0.167
14473TIP3   OH243375   7.569   3.035   2.137
14473TIP3    H143376   7.652   3.027   2.183
14473TIP3    H243377   7.566   2.958   2.079
14474TIP3   OH243378   4.577   6.184   3.666
14474TIP3    H143379   4.655   6.161   3.616
14474TIP3    H243380   4.526   6.240   3.606
14475TIP3   OH243381   1.442   2.231   4.337
14475TIP3    H143382   1.521   2.216   4.388
14475TIP3    H243383   1.381   2.164   4.367
14476TIP3   OH243384   0.156   1.239   5.813
14476TIP3    H143385   0.170   1.322   5.857
14476TIP3    H243386   0.235   1.224   5.762
14477TIP3   OH243387   0.504   0.827   5.484
14477TIP3    H143388   0.503   0.909   5.533
14477TIP3    H243389   0.559   0.769   5.536
14478TIP3   OH243390   3.323   6.230   3.942
14478TIP3    H143391   3.349   6.210   4.032
14478TIP3    H243392   3.256   6.164   3.921
14479TIP3   OH243393   0.830   3.961   1.624
14479TIP3    H143394   0.738   3.967   1.650
14479TIP3    H243395   0.878   4.001   1.697
14480TIP3   OH243396   7.693   2.003   1.221
14480TIP3    H143397   7.664   1.920   1.259
14480TIP3    H243398   7.614   2.040   1.182
14481TIP3   OH243399   1.287   4.820   3.804
14481TIP3    H143400   1.320   4.856   3.722
14481TIP3    H243401   1.327   4.874   3.872
14482TIP3   OH243402   7.310   1.020   2.906
14482TIP3    H143403   7.369   0.968   2.960
14482TIP3    H243404   7.338   1.002   2.816
14483TIP3   OH243405   3.389   6.860   5.141
14483TIP3    H143406   3.339   6.779   5.134
14483TIP3    H243407   3.480   6.834   5.130
14484TIP3   OH243408   3.812   6.629   5.619
14484TIP3    H143409   3.741   6.590   5.569
14484TIP3    H243410   3.829   6.566   5.689
14485TIP3   OH243411   0.101   1.562   4.549
14485TIP3    H143412   0.135   1.586   4.634
14485TIP3    H243413   0.128   1.632   4.490
14486TIP3   OH243414   7.407   7.129   3.859
14486TIP3    H143415   7.459   7.207   3.880
14486TIP3    H243416   7.325   7.163   3.825
14487TIP3   OH243417   1.723   4.307   5.396
14487TIP3    H143418   1.812   4.274   5.408
14487TIP3    H243419   1.732   4.374   5.328
14488TIP3   OH243420   3.861   4.255   2.299
14488TIP3    H143421   3.900   4.191   2.240
14488TIP3    H243422   3.780   4.215   2.329
14489TIP3   OH243423   2.001   3.615   0.193
14489TIP3    H143424   2.028   3.573   0.275
14489TIP3    H243425   2.040   3.560   0.125
14490TIP3   OH243426   0.181   4.975   4.747
14490TIP3    H143427   0.157   4.883   4.755
14490TIP3    H243428   0.266   4.974   4.704
14491TIP3   OH243429   6.427   7.814   4.587
14491TIP3    H143430   6.345   7.771   4.561
14491TIP3    H243431   6.408   7.849   4.674
14492TIP3   OH243432   3.472   5.997   0.432
14492TIP3    H143433   3.432   6.062   0.374
14492TIP3    H243434   3.408   5.925   0.434
14493TIP3   OH243435   5.089   1.837   4.607
14493TIP3    H143436   5.056   1.823   4.519
14493TIP3    H243437   5.117   1.928   4.608
14494TIP3   OH243438   8.244   4.387   2.240
14494TIP3    H143439   8.313   4.368   2.304
14494TIP3    H243440   8.168   4.338   2.271
14495TIP3   OH243441   5.552   3.721   5.693
14495TIP3    H143442   5.542   3.809   5.731
14495TIP3    H243443   5.563   3.737   5.599
14496TIP3   OH243444   0.167   6.128   4.193
14496TIP3    H143445   0.179   6.052   4.250
14496TIP3    H243446   0.086   6.170   4.224
14497TIP3   OH243447   0.954   4.280   4.084
14497TIP3    H143448   1.050   4.275   4.085
14497TIP3    H243449   0.930   4.260   3.994
14498TIP3   OH243450   7.367   0.319   2.747
14498TIP3    H143451   7.313   0.322   2.669
14498TIP3    H243452   7.363   0.409   2.782
14499TIP3   OH243453   2.725   2.817   2.629
14499TIP3    H143454   2.687   2.897   2.591
14499TIP3    H243455   2.712   2.827   2.723
14500TIP3   OH243456   3.873   6.891   0.101
14500TIP3    H143457   3.870   6.877   0.006
14500TIP3    H243458   3.787   6.862   0.132
14501TIP3   OH243459   5.821   2.093   5.966
14501TIP3    H143460   5.813   2.017   6.024
14501TIP3    H243461   5.743   2.091   5.912
14502TIP3   OH243462   0.619   7.078   2.093
14502TIP3    H143463   0.674   7.150   2.060
14502TIP3    H243464   0.651   7.001   2.047
14503TIP3   OH243465   0.382   2.684   4.083
14503TIP3    H143466   0.409   2.683   4.174
14503TIP3    H243467   0.294   2.721   4.084
14504TIP3   OH243468   6.168   4.468   1.246
14504TIP3    H143469   6.192   4.551   1.289
14504TIP3    H243470   6.117   4.421   1.312
14505TIP3   OH243471   4.931   1.917   5.960
14505TIP3    H143472   4.903   1.917   6.051
14505TIP3    H243473   4.960   2.007   5.944
14506TIP3   OH243474   0.371   6.092   0.438
14506TIP3    H143475   0.276   6.092   0.452
14506TIP3    H243476   0.400   6.006   0.468
14507TIP3   OH243477   0.672   0.157   6.639
14507TIP3    H143478   0.734   0.161   6.712
14507TIP3    H243479   0.637   0.068   6.641
14508TIP3   OH243480   2.225   1.378   4.381
14508TIP3    H143481   2.235   1.469   4.353
14508TIP3    H243482   2.178   1.383   4.464
14509TIP3   OH243483   0.482   4.659   5.104
14509TIP3    H143484   0.553   4.693   5.050
14509TIP3    H243485   0.409   4.719   5.087
14510TIP3   OH243486   4.998   3.763   5.618
14510TIP3    H143487   5.091   3.785   5.622
14510TIP3    H243488   4.993   3.696   5.550
14511TIP3   OH243489   2.816   3.025   4.744
14511TIP3    H143490   2.811   3.119   4.730
14511TIP3    H243491   2.899   2.998   4.704
14512TIP3   OH243492   2.199   1.427   1.347
14512TIP3    H143493   2.192   1.409   1.441
14512TIP3    H243494   2.293   1.441   1.332
14513TIP3   OH243495   4.092   4.334   3.370
14513TIP3    H143496   4.164   4.274   3.353
14513TIP3    H243497   4.075   4.376   3.285
14514TIP3   OH243498   4.039   7.243   1.707
14514TIP3    H143499   4.008   7.317   1.759
14514TIP3    H243500   4.119   7.214   1.752
14515TIP3   OH243501   5.949   0.442   4.207
14515TIP3    H143502   5.934   0.356   4.168
14515TIP3    H243503   5.907   0.504   4.147
14516TIP3   OH243504   3.872   5.653   4.844
14516TIP3    H143505   3.898   5.677   4.933
14516TIP3    H243506   3.828   5.731   4.810
14517TIP3   OH243507   3.033   0.433   4.570
14517TIP3    H143508   3.073   0.366   4.624
14517TIP3    H243509   2.939   0.427   4.588
14518TIP3   OH243510   1.352   5.388   6.566
14518TIP3    H143511   1.396   5.351   6.490
14518TIP3    H243512   1.343   5.314   6.627
14519TIP3   OH243513   2.721   3.433   0.966
14519TIP3    H143514   2.797   3.444   0.909
14519TIP3    H243515   2.715   3.515   1.014
14520TIP3   OH243516   7.782   7.805   5.325
14520TIP3    H143517   7.743   7.805   5.412
14520TIP3    H243518   7.871   7.837   5.339
14521TIP3   OH243519   7.279   2.864   4.650
14521TIP3    H143520   7.278   2.866   4.554
14521TIP3    H243521   7.237   2.946   4.676
14522TIP3   OH243522   2.787   3.182   6.338
14522TIP3    H143523   2.868   3.135   6.358
14522TIP3    H243524   2.812   3.241   6.266
14523TIP3   OH243525   0.294   1.382   6.281
14523TIP3    H143526   0.253   1.296   6.292
14523TIP3    H243527   0.262   1.433   6.355
14524TIP3   OH243528   2.066   0.389   6.549
14524TIP3    H143529   2.026   0.332   6.484
14524TIP3    H243530   2.064   0.338   6.630
14525TIP3   OH243531   1.173   6.548   1.761
14525TIP3    H143532   1.192   6.462   1.798
14525TIP3    H243533   1.129   6.595   1.831
14526TIP3   OH243534   4.755   3.762   5.071
14526TIP3    H143535   4.809   3.752   4.992
14526TIP3    H243536   4.671   3.793   5.038
14527TIP3   OH243537   3.671   5.288   2.005
14527TIP3    H143538   3.604   5.333   1.954
14527TIP3    H243539   3.645   5.196   2.002
14528TIP3   OH243540   8.165   5.340   3.328
14528TIP3    H143541   8.133   5.271   3.270
14528TIP3    H243542   8.101   5.344   3.399
14529TIP3   OH243543   6.668   7.115   0.619
14529TIP3    H143544   6.725   7.190   0.638
14529TIP3    H243545   6.600   7.118   0.687
14530TIP3   OH243546   6.672   5.228   5.025
14530TIP3    H143547   6.610   5.163   4.991
14530TIP3    H243548   6.708   5.187   5.104
14531TIP3   OH243549   1.132   2.976   2.596
14531TIP3    H143550   1.204   2.923   2.632
14531TIP3    H243551   1.065   2.975   2.664
14532TIP3   OH243552   1.055   3.777   1.259
14532TIP3    H143553   1.140   3.815   1.239
14532TIP3    H243554   1.016   3.759   1.174
14533TIP3   OH243555   1.119   2.366   6.515
14533TIP3    H143556   1.045   2.376   6.576
14533TIP3    H243557   1.150   2.276   6.530
14534TIP3   OH243558   4.325   3.092   4.491
14534TIP3    H143559   4.337   3.109   4.585
14534TIP3    H243560   4.274   3.011   4.489
14535TIP3   OH243561   2.078   7.407   1.220
14535TIP3    H143562   1.982   7.415   1.218
14535TIP3    H243563   2.107   7.442   1.136
14536TIP3   OH243564   2.242   2.807   3.642
14536TIP3    H143565   2.283   2.872   3.699
14536TIP3    H243566   2.310   2.785   3.578
14537TIP3   OH243567   6.152   0.847   2.462
14537TIP3    H143568   6.075   0.792   2.478
14537TIP3    H243569   6.203   0.798   2.397
14538TIP3   OH243570   0.199   1.255   1.360
14538TIP3    H143571   0.251   1.313   1.415
14538TIP3    H243572   0.250   1.174   1.355
14539TIP3   OH243573   5.002   0.608   0.997
14539TIP3    H143574   4.988   0.682   0.938
14539TIP3    H243575   5.056   0.644   1.068
14540TIP3   OH243576   4.769   6.792   0.272
14540TIP3    H143577   4.769   6.748   0.186
14540TIP3    H243578   4.677   6.812   0.289
14541TIP3   OH243579   5.832   4.054   5.747
14541TIP3    H143580   5.895   4.093   5.687
14541TIP3    H243581   5.785   3.990   5.694
14542TIP3   OH243582   1.077   1.148   1.219
14542TIP3    H143583   1.054   1.241   1.215
14542TIP3    H243584   1.125   1.131   1.138
14543TIP3   OH243585   5.208   0.430   5.006
14543TIP3    H143586   5.277   0.414   4.942
14543TIP3    H243587   5.253   0.473   5.079
14544TIP3   OH243588   4.959   5.533   1.165
14544TIP3    H143589   4.994   5.615   1.200
14544TIP3    H243590   4.879   5.518   1.215
14545TIP3   OH243591   1.425   7.222   5.803
14545TIP3    H143592   1.385   7.246   5.719
14545TIP3    H243593   1.371   7.266   5.869
14546TIP3   OH243594   2.245   3.501   2.396
14546TIP3    H143595   2.191   3.561   2.343
14546TIP3    H243596   2.239   3.536   2.485
14547TIP3   OH243597   4.323   3.817   3.572
14547TIP3    H143598   4.310   3.762   3.495
14547TIP3    H243599   4.319   3.907   3.539
14548TIP3   OH243600   5.738   3.542   2.655
14548TIP3    H143601   5.743   3.573   2.746
14548TIP3    H243602   5.763   3.449   2.660
14549TIP3   OH243603   4.062   5.453   3.442
14549TIP3    H143604   3.998   5.463   3.372
14549TIP3    H243605   4.124   5.388   3.408
14550TIP3   OH243606   5.637   0.788   0.804
14550TIP3    H143607   5.554   0.774   0.850
14550TIP3    H243608   5.650   0.707   0.754
14551TIP3   OH243609   3.794   2.219   3.766
14551TIP3    H143610   3.703   2.217   3.796
14551TIP3    H243611   3.846   2.220   3.847
14552TIP3   OH243612   5.600   4.485   5.187
14552TIP3    H143613   5.522   4.475   5.133
14552TIP3    H243614   5.660   4.536   5.134
14553TIP3   OH243615   6.471   0.365   0.758
14553TIP3    H143616   6.381   0.385   0.730
14553TIP3    H243617   6.501   0.444   0.802
14554TIP3   OH243618   3.299   4.493   6.116
14554TIP3    H143619   3.237   4.525   6.181
14554TIP3    H243620   3.300   4.398   6.127
14555TIP3   OH243621   5.375   4.900   4.109
14555TIP3    H143622   5.312   4.930   4.043
14555TIP3    H243623   5.378   4.805   4.097
14556TIP3   OH243624   6.293   2.045   0.311
14556TIP3    H143625   6.247   2.126   0.286
14556TIP3    H243626   6.258   2.023   0.397
14557TIP3   OH243627   2.859   7.068   0.784
14557TIP3    H143628   2.908   7.148   0.765
14557TIP3    H243629   2.826   7.080   0.873
14558TIP3   OH243630   5.558   5.694   4.521
14558TIP3    H143631   5.588   5.653   4.440
14558TIP3    H243632   5.558   5.624   4.585
14559TIP3   OH243633   5.934   3.602   1.455
14559TIP3    H143634   6.008   3.546   1.478
14559TIP3    H243635   5.860   3.563   1.502
14560TIP3   OH243636   4.185   5.681   2.117
14560TIP3    H143637   4.162   5.600   2.071
14560TIP3    H243638   4.122   5.745   2.084
14561TIP3   OH243639   3.311   4.266   0.826
14561TIP3    H143640   3.304   4.288   0.733
14561TIP3    H243641   3.224   4.232   0.849
14562TIP3   OH243642   0.045   6.030   0.648
14562TIP3    H143643   0.063   5.981   0.567
14562TIP3    H243644   0.027   6.119   0.618
14563TIP3   OH243645   3.193   0.579   2.283
14563TIP3    H143646   3.130   0.513   2.255
14563TIP3    H243647   3.168   0.599   2.373
14564TIP3   OH243648   7.882   0.034   4.337
14564TIP3    H143649   7.898   0.014   4.429
14564TIP3    H243650   7.898   0.128   4.329
14565TIP3   OH243651   0.355   2.088   1.627
14565TIP3    H143652   0.340   2.179   1.652
14565TIP3    H243653   0.443   2.087   1.591
14566TIP3   OH243654   5.215   2.582   1.075
14566TIP3    H143655   5.132   2.543   1.047
14566TIP3    H243656   5.229   2.654   1.013
14567TIP3   OH243657   3.676   5.820   2.865
14567TIP3    H143658   3.637   5.905   2.887
14567TIP3    H243659   3.633   5.794   2.784
14568TIP3   OH243660   8.300   2.271   1.248
14568TIP3    H143661   8.297   2.205   1.317
14568TIP3    H243662   8.317   2.353   1.295
14569TIP3   OH243663   0.004   6.497   6.248
14569TIP3    H143664   0.011   6.477   6.154
14569TIP3    H243665   0.082   6.456   6.286
14570TIP3   OH243666   2.589   2.511   1.048
14570TIP3    H143667   2.656   2.551   1.102
14570TIP3    H243668   2.637   2.461   0.982
14571TIP3   OH243669   4.495   2.255   0.052
14571TIP3    H143670   4.566   2.206   0.011
14571TIP3    H243671   4.535   2.295   0.129
14572TIP3   OH243672   0.054   6.775   5.616
14572TIP3    H143673   0.142   6.811   5.621
14572TIP3    H243674   0.060   6.708   5.548
14573TIP3   OH243675   1.759   6.077   2.386
14573TIP3    H143676   1.678   6.058   2.433
14573TIP3    H243677   1.829   6.043   2.442
14574TIP3   OH243678   7.236   5.006   1.368
14574TIP3    H143679   7.166   4.991   1.432
14574TIP3    H243680   7.211   5.087   1.324
14575TIP3   OH243681   8.174   2.763   2.729
14575TIP3    H143682   8.230   2.840   2.715
14575TIP3    H243683   8.190   2.707   2.654
14576TIP3   OH243684   2.991   2.338   5.528
14576TIP3    H143685   2.954   2.312   5.443
14576TIP3    H243686   2.921   2.386   5.571
14577TIP3   OH243687   0.213   4.156   6.315
14577TIP3    H143688   0.254   4.197   6.239
14577TIP3    H243689   0.234   4.215   6.388
14578TIP3   OH243690   2.798   6.743   1.063
14578TIP3    H143691   2.876   6.796   1.074
14578TIP3    H243692   2.828   6.668   1.011
14579TIP3   OH243693   3.298   1.184   4.434
14579TIP3    H143694   3.214   1.230   4.435
14579TIP3    H243695   3.279   1.098   4.472
14580TIP3   OH243696   1.190   2.731   1.518
14580TIP3    H143697   1.103   2.695   1.539
14580TIP3    H243698   1.235   2.660   1.473
14581TIP3   OH243699   4.969   6.644   5.151
14581TIP3    H143700   4.943   6.583   5.221
14581TIP3    H243701   4.943   6.599   5.070
14582TIP3   OH243702   0.606   7.527   6.474
14582TIP3    H143703   0.602   7.622   6.472
14582TIP3    H243704   0.678   7.508   6.535
14583TIP3   OH243705   6.641   5.959   4.875
14583TIP3    H143706   6.630   5.869   4.908
14583TIP3    H243707   6.628   6.014   4.951
14584TIP3   OH243708   4.706   7.881   1.325
14584TIP3    H143709   4.623   7.846   1.357
14584TIP3    H243710   4.773   7.826   1.366
14585TIP3   OH243711   6.400   7.223   0.405
14585TIP3    H143712   6.477   7.267   0.369
14585TIP3    H243713   6.364   7.285   0.468
14586TIP3   OH243714   5.289   5.809   0.453
14586TIP3    H143715   5.327   5.893   0.479
14586TIP3    H243716   5.342   5.743   0.497
14587TIP3   OH243717   8.280   0.477   1.711
14587TIP3    H143718   8.290   0.388   1.744
14587TIP3    H243719   8.227   0.521   1.777
14588TIP3   OH243720   0.372   6.230   3.244
14588TIP3    H143721   0.357   6.231   3.339
14588TIP3    H243722   0.296   6.186   3.208
14589TIP3   OH243723   3.857   7.001   6.466
14589TIP3    H143724   3.907   7.081   6.452
14589TIP3    H243725   3.813   7.015   6.550
14590TIP3   OH243726   4.480   7.370   4.356
14590TIP3    H143727   4.426   7.436   4.400
14590TIP3    H243728   4.463   7.384   4.263
14591TIP3   OH243729   2.730   4.944   0.651
14591TIP3    H143730   2.649   4.967   0.697
14591TIP3    H243731   2.769   5.029   0.628
14592TIP3   OH243732   2.133   1.482   0.174
14592TIP3    H143733   2.198   1.548   0.150
14592TIP3    H243734   2.156   1.456   0.263
14593TIP3   OH243735   7.154   2.711   0.427
14593TIP3    H143736   7.213   2.638   0.446
14593TIP3    H243737   7.149   2.759   0.510
14594TIP3   OH243738   0.834   3.936   0.440
14594TIP3    H143739   0.894   3.959   0.511
14594TIP3    H243740   0.794   4.019   0.414
14595TIP3   OH243741   6.891   4.457   4.215
14595TIP3    H143742   6.832   4.441   4.142
14595TIP3    H243743   6.977   4.468   4.174
14596TIP3   OH243744   2.881   1.537   0.177
14596TIP3    H143745   2.914   1.600   0.113
14596TIP3    H243746   2.958   1.509   0.226
14597TIP3   OH243747   7.294   6.736   5.462
14597TIP3    H143748   7.341   6.664   5.421
14597TIP3    H243749   7.291   6.804   5.395
14598TIP3   OH243750   0.463   0.805   1.401
14598TIP3    H143751   0.529   0.860   1.442
14598TIP3    H243752   0.447   0.846   1.316
14599TIP3   OH243753   0.366   4.593   0.285
14599TIP3    H143754   0.381   4.536   0.360
14599TIP3    H243755   0.287   4.558   0.244
14600TIP3   OH243756   7.348   3.221   1.715
14600TIP3    H143757   7.294   3.246   1.640
14600TIP3    H243758   7.285   3.191   1.781
14601TIP3   OH243759   2.948   0.848   6.090
14601TIP3    H143760   2.876   0.796   6.125
14601TIP3    H243761   2.999   0.874   6.167
14602TIP3   OH243762   2.483   5.092   0.426
14602TIP3    H143763   2.427   5.168   0.441
14602TIP3    H243764   2.543   5.120   0.357
14603TIP3   OH243765   7.216   2.174   3.523
14603TIP3    H143766   7.204   2.093   3.473
14603TIP3    H243767   7.213   2.243   3.458
14604TIP3   OH243768   4.852   7.364   5.874
14604TIP3    H143769   4.866   7.449   5.916
14604TIP3    H243770   4.864   7.300   5.944
14605TIP3   OH243771   6.908   1.332   0.018
14605TIP3    H143772   6.874   1.347   0.106
14605TIP3    H243773   6.944   1.243   0.021
14606TIP3   OH243774   1.592   2.579   1.658
14606TIP3    H143775   1.569   2.583   1.751
14606TIP3    H243776   1.687   2.564   1.658
14607TIP3   OH243777   4.263   4.813   4.965
14607TIP3    H143778   4.348   4.840   4.930
14607TIP3    H243779   4.211   4.791   4.887
14608TIP3   OH243780   1.899   0.105   2.522
14608TIP3    H143781   1.826   0.140   2.573
14608TIP3    H243782   1.977   0.148   2.557
14609TIP3   OH243783   8.244   7.534   1.488
14609TIP3    H143784   8.279   7.542   1.577
14609TIP3    H243785   8.267   7.617   1.446
14610TIP3   OH243786   7.645   3.580   2.338
14610TIP3    H143787   7.617   3.671   2.342
14610TIP3    H243788   7.565   3.529   2.345
14611TIP3   OH243789   1.490   0.636   0.553
14611TIP3    H143790   1.457   0.723   0.577
14611TIP3    H243791   1.411   0.585   0.536
14612TIP3   OH243792   6.073   5.795   5.969
14612TIP3    H143793   6.114   5.779   6.054
14612TIP3    H243794   6.087   5.714   5.920
14613TIP3   OH243795   1.078   5.475   1.567
14613TIP3    H143796   1.141   5.524   1.620
14613TIP3    H243797   1.067   5.392   1.614
14614TIP3   OH243798   2.907   7.300   3.974
14614TIP3    H143799   2.928   7.208   3.988
14614TIP3    H243800   2.845   7.300   3.901
14615TIP3   OH243801   6.140   3.257   6.118
14615TIP3    H143802   6.075   3.326   6.131
14615TIP3    H243803   6.112   3.213   6.038
14616TIP3   OH243804   5.506   4.805   5.621
14616TIP3    H143805   5.414   4.833   5.620
14616TIP3    H243806   5.549   4.866   5.680
14617TIP3   OH243807   5.226   6.425   6.689
14617TIP3    H143808   5.274   6.450   6.611
14617TIP3    H243809   5.292   6.392   6.749
14618TIP3   OH243810   5.128   5.748   0.216
14618TIP3    H143811   5.193   5.769   0.284
14618TIP3    H243812   5.050   5.724   0.265
14619TIP3   OH243813   4.711   5.560   0.593
14619TIP3    H143814   4.749   5.493   0.650
14619TIP3    H243815   4.754   5.641   0.620
14620TIP3   OH243816   4.862   3.443   3.113
14620TIP3    H143817   4.901   3.497   3.044
14620TIP3    H243818   4.918   3.366   3.117
14621TIP3   OH243819   6.987   6.817   2.712
14621TIP3    H143820   6.940   6.776   2.785
14621TIP3    H243821   6.932   6.892   2.687
14622TIP3   OH243822   5.786   7.009   3.826
14622TIP3    H143823   5.745   7.079   3.876
14622TIP3    H243824   5.715   6.948   3.805
14623TIP3   OH243825   7.242   5.692   3.548
14623TIP3    H143826   7.302   5.619   3.536
14623TIP3    H243827   7.155   5.654   3.533
14624TIP3   OH243828   4.971   0.509   5.195
14624TIP3    H143829   4.877   0.527   5.201
14624TIP3    H243830   4.980   0.454   5.118
14625TIP3   OH243831   4.713   3.991   1.906
14625TIP3    H143832   4.794   3.941   1.923
14625TIP3    H243833   4.730   4.077   1.945
14626TIP3   OH243834   2.055   2.113   1.835
14626TIP3    H143835   2.038   2.162   1.915
14626TIP3    H243836   2.116   2.044   1.861
14627TIP3   OH243837   1.356   0.761   0.065
14627TIP3    H143838   1.385   0.752   0.155
14627TIP3    H243839   1.306   0.681   0.048
14628TIP3   OH243840   3.074   2.614   1.163
14628TIP3    H143841   3.071   2.630   1.257
14628TIP3    H243842   3.063   2.519   1.155
14629TIP3   OH243843   8.032   3.960   6.374
14629TIP3    H143844   8.030   3.866   6.353
14629TIP3    H243845   8.125   3.981   6.382
14630TIP3   OH243846   2.453   1.215   5.956
14630TIP3    H143847   2.429   1.122   5.965
14630TIP3    H243848   2.465   1.227   5.862
14631TIP3   OH243849   6.936   1.691   2.165
14631TIP3    H143850   6.849   1.710   2.130
14631TIP3    H243851   6.985   1.773   2.154
14632TIP3   OH243852   5.511   3.076   4.772
14632TIP3    H143853   5.419   3.048   4.763
14632TIP3    H243854   5.530   3.121   4.689
14633TIP3   OH243855   4.522   0.587   2.618
14633TIP3    H143856   4.521   0.544   2.703
14633TIP3    H243857   4.609   0.570   2.583
14634TIP3   OH243858   5.411   0.295   1.714
14634TIP3    H143859   5.472   0.221   1.715
14634TIP3    H243860   5.419   0.335   1.801
14635TIP3   OH243861   0.539   5.245   2.217
14635TIP3    H143862   0.458   5.296   2.225
14635TIP3    H243863   0.521   5.166   2.269
14636TIP3   OH243864   4.511   1.938   2.175
14636TIP3    H143865   4.600   1.908   2.155
14636TIP3    H243866   4.492   2.003   2.107
14637TIP3   OH243867   0.698   4.268   0.939
14637TIP3    H143868   0.661   4.213   0.870
14637TIP3    H243869   0.680   4.221   1.020
14638TIP3   OH243870   5.216   1.542   4.575
14638TIP3    H143871   5.200   1.635   4.593
14638TIP3    H243872   5.200   1.498   4.659
14639TIP3   OH243873   4.660   7.831   5.781
14639TIP3    H143874   4.590   7.888   5.749
14639TIP3    H243875   4.621   7.783   5.853
14640TIP3   OH243876   1.081   4.695   2.777
14640TIP3    H143877   1.006   4.639   2.758
14640TIP3    H243878   1.072   4.769   2.717
14641TIP3   OH243879   2.123   7.180   4.820
14641TIP3    H143880   2.109   7.272   4.798
14641TIP3    H243881   2.062   7.162   4.892
14642TIP3   OH243882   2.479   6.461   4.179
14642TIP3    H143883   2.432   6.486   4.258
14642TIP3    H243884   2.415   6.415   4.126
14643TIP3   OH243885   2.700   1.302   4.332
14643TIP3    H143886   2.745   1.355   4.267
14643TIP3    H243887   2.736   1.330   4.416
14644TIP3   OH243888   5.264   2.363   0.049
14644TIP3    H143889   5.249   2.291  -0.012
14644TIP3    H243890   5.185   2.416   0.044
14645TIP3   OH243891   5.741   4.350   6.429
14645TIP3    H143892   5.810   4.289   6.457
14645TIP3    H243893   5.728   4.331   6.336
14646TIP3   OH243894   3.486   2.520   2.683
14646TIP3    H143895   3.407   2.566   2.709
14646TIP3    H243896   3.540   2.586   2.639
14647TIP3   OH243897   4.964   2.105   4.906
14647TIP3    H143898   4.931   2.178   4.959
14647TIP3    H243899   5.038   2.070   4.956
14648TIP3   OH243900   2.629   6.918   1.940
14648TIP3    H143901   2.592   6.842   1.894
14648TIP3    H243902   2.716   6.888   1.968
14649TIP3   OH243903   7.890   1.825   4.665
14649TIP3    H143904   7.811   1.868   4.634
14649TIP3    H243905   7.872   1.805   4.757
14650TIP3   OH243906   6.477   3.603   4.297
14650TIP3    H143907   6.541   3.643   4.357
14650TIP3    H243908   6.529   3.539   4.247
14651TIP3   OH243909   4.637  -0.024   2.580
14651TIP3    H143910   4.639  -0.044   2.673
14651TIP3    H243911   4.622   0.070   2.576
14652TIP3   OH243912   3.110   3.246   2.879
14652TIP3    H143913   3.173   3.289   2.821
14652TIP3    H243914   3.058   3.317   2.916
14653TIP3   OH243915   3.841   2.930   5.100
14653TIP3    H143916   3.893   3.007   5.079
14653TIP3    H243917   3.857   2.914   5.193
14654TIP3   OH243918   0.325   2.253   0.739
14654TIP3    H143919   0.310   2.162   0.767
14654TIP3    H243920   0.252   2.302   0.778
14655TIP3   OH243921   5.876   5.545   1.284
14655TIP3    H143922   5.939   5.579   1.221
14655TIP3    H243923   5.831   5.475   1.237
14656TIP3   OH243924   6.229   3.695   4.113
14656TIP3    H143925   6.184   3.711   4.196
14656TIP3    H243926   6.222   3.600   4.100
14657TIP3   OH243927   4.390   2.788   4.923
14657TIP3    H143928   4.316   2.825   4.876
14657TIP3    H243929   4.455   2.859   4.926
14658TIP3   OH243930   2.792   4.339   2.150
14658TIP3    H143931   2.719   4.293   2.109
14658TIP3    H243932   2.750   4.406   2.205
14659TIP3   OH243933   1.153   5.406   2.452
14659TIP3    H143934   1.212   5.404   2.376
14659TIP3    H243935   1.188   5.477   2.507
14660TIP3   OH243936   6.975   5.558   5.764
14660TIP3    H143937   6.955   5.589   5.676
14660TIP3    H243938   6.932   5.473   5.770
14661TIP3   OH243939   4.246   1.854   1.839
14661TIP3    H143940   4.310   1.783   1.833
14661TIP3    H243941   4.181   1.822   1.902
14662TIP3   OH243942   0.876   0.228   1.493
14662TIP3    H143943   0.903   0.281   1.419
14662TIP3    H243944   0.889   0.285   1.569
14663TIP3   OH243945   4.288   3.546   4.435
14663TIP3    H143946   4.310   3.511   4.521
14663TIP3    H243947   4.207   3.500   4.411
14664TIP3   OH243948   0.702   3.028   3.581
14664TIP3    H143949   0.748   3.007   3.663
14664TIP3    H243950   0.743   3.108   3.550
14665TIP3   OH243951   3.375   1.594   6.580
14665TIP3    H143952   3.289   1.636   6.585
14665TIP3    H243953   3.377   1.535   6.655
14666TIP3   OH243954   0.201   6.799   1.661
14666TIP3    H143955   0.202   6.733   1.592
14666TIP3    H243956   0.256   6.763   1.730
14667TIP3   OH243957   4.354   5.702   6.662
14667TIP3    H143958   4.449   5.708   6.676
14667TIP3    H243959   4.324   5.641   6.730
14668TIP3   OH243960   1.723   4.365   0.332
14668TIP3    H143961   1.817   4.352   0.318
14668TIP3    H243962   1.681   4.316   0.261
14669TIP3   OH243963   5.123   3.200   4.323
14669TIP3    H143964   5.048   3.171   4.271
14669TIP3    H243965   5.196   3.148   4.291
14670TIP3   OH243966   7.924   7.516   0.045
14670TIP3    H143967   7.950   7.424   0.053
14670TIP3    H243968   7.934   7.551   0.133
14671TIP3   OH243969   2.203   5.182   4.566
14671TIP3    H143970   2.278   5.231   4.600
14671TIP3    H243971   2.131   5.205   4.624
14672TIP3   OH243972   5.330   4.879   1.460
14672TIP3    H143973   5.239   4.894   1.434
14672TIP3    H243974   5.333   4.905   1.552
14673TIP3   OH243975   3.051   2.810   3.288
14673TIP3    H143976   3.052   2.904   3.272
14673TIP3    H243977   3.122   2.796   3.351
14674TIP3   OH243978   1.563   6.831   0.240
14674TIP3    H143979   1.654   6.806   0.252
14674TIP3    H243980   1.554   6.848   0.147
14675TIP3   OH243981   1.417   1.570   0.818
14675TIP3    H143982   1.419   1.482   0.854
14675TIP3    H243983   1.466   1.564   0.736
14676TIP3   OH243984   3.055   5.200   4.554
14676TIP3    H143985   3.014   5.217   4.639
14676TIP3    H243986   3.056   5.104   4.546
14677TIP3   OH243987   0.328   7.156   1.798
14677TIP3    H143988   0.316   7.126   1.889
14677TIP3    H243989   0.247   7.203   1.777
14678TIP3   OH243990   3.403   3.471   3.641
14678TIP3    H143991   3.460   3.407   3.597
14678TIP3    H243992   3.351   3.509   3.569
14679TIP3   OH243993   2.564   5.403   6.739
14679TIP3    H143994   2.554   5.465   6.667
14679TIP3    H243995   2.512   5.327   6.713
14680TIP3   OH243996   6.690   3.596   0.188
14680TIP3    H143997   6.637   3.673   0.209
14680TIP3    H243998   6.736   3.621   0.108
14681TIP3   OH243999   3.517   2.661   3.885
14681TIP3    H144000   3.602   2.704   3.875
14681TIP3    H244001   3.531   2.597   3.955
14682TIP3   OH244002   7.120   0.379   3.361
14682TIP3    H144003   7.176   0.441   3.407
14682TIP3    H244004   7.180   0.310   3.331
14683TIP3   OH244005   6.393   7.555   6.110
14683TIP3    H144006   6.451   7.549   6.186
14683TIP3    H244007   6.453   7.549   6.035
14684TIP3   OH244008   6.441   5.756   1.507
14684TIP3    H144009   6.434   5.741   1.413
14684TIP3    H244010   6.402   5.677   1.546
14685TIP3   OH244011   3.020   5.641   3.022
14685TIP3    H144012   3.026   5.670   3.113
14685TIP3    H244013   3.056   5.552   3.023
14686TIP3   OH244014   2.119   2.603   0.117
14686TIP3    H144015   2.208   2.598   0.150
14686TIP3    H244016   2.101   2.697   0.109
14687TIP3   OH244017   0.191   0.678   0.996
14687TIP3    H144018   0.174   0.712   1.084
14687TIP3    H244019   0.117   0.620   0.979
14688TIP3   OH244020   3.855   5.088   5.237
14688TIP3    H144021   3.879   5.031   5.164
14688TIP3    H244022   3.938   5.126   5.266
14689TIP3   OH244023   2.391   0.665   5.119
14689TIP3    H144024   2.355   0.577   5.110
14689TIP3    H244025   2.486   0.652   5.128
14690TIP3   OH244026   3.390   2.513   2.173
14690TIP3    H144027   3.347   2.563   2.243
14690TIP3    H244028   3.440   2.445   2.219
14691TIP3   OH244029   2.076   3.817   1.332
14691TIP3    H144030   2.119   3.744   1.377
14691TIP3    H244031   1.993   3.780   1.303
14692TIP3   OH244032   3.591   5.842   2.231
14692TIP3    H144033   3.677   5.871   2.201
14692TIP3    H244034   3.578   5.886   2.315
14693TIP3   OH244035   4.312   1.600   5.457
14693TIP3    H144036   4.370   1.676   5.453
14693TIP3    H244037   4.285   1.595   5.549
14694TIP3   OH244038   4.273   1.657   2.546
14694TIP3    H144039   4.349   1.696   2.503
14694TIP3    H244040   4.305   1.634   2.634
14695TIP3   OH244041   3.909   1.424   6.609
14695TIP3    H144042   3.835   1.381   6.651
14695TIP3    H244043   3.980   1.361   6.616
14696TIP3   OH244044   7.779   0.135   2.218
14696TIP3    H144045   7.863   0.167   2.186
14696TIP3    H244046   7.725   0.213   2.226
14697TIP3   OH244047   7.131   7.042   6.578
14697TIP3    H144048   7.200   7.038   6.644
14697TIP3    H244049   7.146   7.124   6.532
14698TIP3   OH244050   2.466   5.566   6.558
14698TIP3    H144051   2.426   5.651   6.576
14698TIP3    H244052   2.392   5.507   6.549
14699TIP3   OH244053   8.087   0.862   2.584
14699TIP3    H144054   8.036   0.782   2.566
14699TIP3    H244055   8.061   0.886   2.673
14700TIP3   OH244056   0.231   1.406   6.014
14700TIP3    H144057   0.321   1.396   5.982
14700TIP3    H244058   0.239   1.409   6.109
14701TIP3   OH244059   4.808   0.407   6.524
14701TIP3    H144060   4.822   0.447   6.610
14701TIP3    H244061   4.863   0.459   6.465
14702TIP3   OH244062   0.474   5.931   3.236
14702TIP3    H144063   0.513   5.982   3.307
14702TIP3    H244064   0.432   5.857   3.281
14703TIP3   OH244065   5.016   2.151   5.588
14703TIP3    H144066   4.993   2.062   5.613
14703TIP3    H244067   4.937   2.184   5.543
14704TIP3   OH244068   1.930   2.912   4.650
14704TIP3    H144069   1.919   2.856   4.574
14704TIP3    H244070   1.842   2.918   4.689
14705TIP3   OH244071   6.636   3.372   3.667
14705TIP3    H144072   6.690   3.304   3.706
14705TIP3    H244073   6.690   3.451   3.671
14706TIP3   OH244074   5.916   3.346   6.525
14706TIP3    H144075   5.904   3.373   6.616
14706TIP3    H244076   5.844   3.389   6.478
14707TIP3   OH244077   0.727   0.832   5.312
14707TIP3    H144078   0.643   0.849   5.355
14707TIP3    H244079   0.732   0.737   5.304
14708TIP3   OH244080   7.802   0.880   0.870
14708TIP3    H144081   7.804   0.963   0.824
14708TIP3    H244082   7.887   0.840   0.851
14709TIP3   OH244083   1.774   5.552   2.712
14709TIP3    H144084   1.800   5.465   2.680
14709TIP3    H244085   1.812   5.557   2.800
14710TIP3   OH244086   6.037   7.176   5.860
14710TIP3    H144087   6.086   7.143   5.785
14710TIP3    H244088   6.029   7.270   5.845
14711TIP3   OH244089   8.227   0.530   3.151
14711TIP3    H144090   8.231   0.545   3.246
14711TIP3    H244091   8.296   0.586   3.115
14712TIP3   OH244092   6.130   1.340   2.290
14712TIP3    H144093   6.131   1.382   2.203
14712TIP3    H244094   6.142   1.247   2.272
14713TIP3   OH244095   1.410   5.045   4.602
14713TIP3    H144096   1.469   5.117   4.623
14713TIP3    H244097   1.468   4.974   4.574
14714TIP3   OH244098   4.105   6.015   4.645
14714TIP3    H144099   4.107   6.059   4.730
14714TIP3    H244100   4.170   6.063   4.592
14715TIP3   OH244101   4.574   3.367   3.101
14715TIP3    H144102   4.594   3.278   3.072
14715TIP3    H244103   4.656   3.398   3.141
14716TIP3   OH244104   0.401   2.064   1.119
14716TIP3    H144105   0.494   2.085   1.125
14716TIP3    H244106   0.397   1.980   1.074
14717TIP3   OH244107   2.295   7.079   3.803
14717TIP3    H144108   2.232   7.150   3.792
14717TIP3    H244109   2.242   7.001   3.816
14718TIP3   OH244110   0.123   5.904   5.976
14718TIP3    H144111   0.188   5.885   6.044
14718TIP3    H244112   0.048   5.850   6.000
14719TIP3   OH244113   3.256   2.299   5.190
14719TIP3    H144114   3.339   2.309   5.238
14719TIP3    H244115   3.213   2.224   5.231
14720TIP3   OH244116   4.508   6.294   4.162
14720TIP3    H144117   4.537   6.378   4.128
14720TIP3    H244118   4.508   6.236   4.086
14721TIP3   OH244119   6.129   5.316   0.116
14721TIP3    H144120   6.096   5.403   0.139
14721TIP3    H244121   6.149   5.275   0.200
14722TIP3   OH244122   3.424   3.302   3.103
14722TIP3    H144123   3.442   3.277   3.013
14722TIP3    H244124   3.399   3.220   3.146
14723TIP3   OH244125   6.855   4.035   0.222
14723TIP3    H144126   6.858   3.979   0.300
14723TIP3    H244127   6.879   4.122   0.255
14724TIP3   OH244128   2.049   3.183   0.424
14724TIP3    H144129   2.086   3.103   0.387
14724TIP3    H244130   1.957   3.162   0.438
14725TIP3   OH244131   7.208   7.001   1.085
14725TIP3    H144132   7.127   7.051   1.101
14725TIP3    H244133   7.275   7.047   1.136
14726TIP3   OH244134   1.050   0.712   5.569
14726TIP3    H144135   1.057   0.627   5.613
14726TIP3    H244136   1.043   0.775   5.641
14727TIP3   OH244137   6.436   0.870   4.782
14727TIP3    H144138   6.353   0.911   4.808
14727TIP3    H244139   6.444   0.890   4.689
14728TIP3   OH244140   7.597   3.146   5.545
14728TIP3    H144141   7.690   3.165   5.540
14728TIP3    H244142   7.556   3.231   5.564
14729TIP3   OH244143   6.086   4.895   1.641
14729TIP3    H144144   6.158   4.844   1.678
14729TIP3    H244145   6.107   4.986   1.663
14730TIP3   OH244146   0.915   1.110   3.651
14730TIP3    H144147   0.995   1.083   3.606
14730TIP3    H244148   0.939   1.115   3.743
14731TIP3   OH244149   7.958   3.550   4.663
14731TIP3    H144150   7.965   3.471   4.610
14731TIP3    H244151   7.864   3.560   4.679
14732TIP3   OH244152   7.410   6.372   5.273
14732TIP3    H144153   7.331   6.317   5.268
14732TIP3    H244154   7.463   6.331   5.341
14733TIP3   OH244155   2.696   1.903   1.755
14733TIP3    H144156   2.730   1.814   1.768
14733TIP3    H244157   2.656   1.925   1.839
14734TIP3   OH244158   5.247   4.196   0.388
14734TIP3    H144159   5.339   4.214   0.406
14734TIP3    H244160   5.239   4.101   0.396
14735TIP3   OH244161   7.299   2.137   3.813
14735TIP3    H144162   7.310   2.047   3.845
14735TIP3    H244163   7.287   2.127   3.718
14736TIP3   OH244164   0.269   4.498   2.675
14736TIP3    H144165   0.363   4.497   2.661
14736TIP3    H244166   0.232   4.462   2.594
14737TIP3   OH244167   5.928   4.212   1.859
14737TIP3    H144168   5.878   4.272   1.802
14737TIP3    H244169   5.945   4.136   1.804
14738TIP3   OH244170   7.926   5.072   0.005
14738TIP3    H144171   7.870   5.121   0.065
14738TIP3    H244172   7.995   5.036   0.060
14739TIP3   OH244173   1.801   1.519   4.281
14739TIP3    H144174   1.792   1.596   4.337
14739TIP3    H244175   1.863   1.463   4.328
14740TIP3   OH244176   8.179   0.564   2.109
14740TIP3    H144177   8.213   0.474   2.110
14740TIP3    H244178   8.130   0.571   2.028
14741TIP3   OH244179   4.638   1.473   5.193
14741TIP3    H144180   4.664   1.545   5.251
14741TIP3    H244181   4.546   1.492   5.172
14742TIP3   OH244182   3.399   7.584   0.987
14742TIP3    H144183   3.336   7.652   0.961
14742TIP3    H244184   3.386   7.514   0.924
14743TIP3   OH244185   7.553   4.877   2.029
14743TIP3    H144186   7.540   4.946   2.094
14743TIP3    H244187   7.646   4.880   2.009
14744TIP3   OH244188   0.516   3.023   6.100
14744TIP3    H144189   0.485   2.934   6.080
14744TIP3    H244190   0.455   3.080   6.054
14745TIP3   OH244191   1.319   0.869   3.448
14745TIP3    H144192   1.414   0.862   3.432
14745TIP3    H244193   1.305   0.819   3.529
14746TIP3   OH244194   0.748   6.476   2.090
14746TIP3    H144195   0.818   6.459   2.154
14746TIP3    H244196   0.689   6.402   2.100
14747TIP3   OH244197   5.337   4.448   6.068
14747TIP3    H144198   5.289   4.367   6.058
14747TIP3    H244199   5.283   4.501   6.128
14748TIP3   OH244200   2.715   3.074   0.063
14748TIP3    H144201   2.654   3.023   0.116
14748TIP3    H244202   2.796   3.023   0.065
14749TIP3   OH244203   6.256   2.102   6.509
14749TIP3    H144204   6.338   2.092   6.557
14749TIP3    H244205   6.195   2.140   6.572
14750TIP3   OH244206   2.661   2.232   4.127
14750TIP3    H144207   2.626   2.241   4.039
14750TIP3    H244208   2.608   2.163   4.168
14751TIP3   OH244209   6.734   7.556   4.928
14751TIP3    H144210   6.805   7.564   4.992
14751TIP3    H244211   6.674   7.493   4.967
14752TIP3   OH244212   1.174   0.091   1.143
14752TIP3    H144213   1.205   0.001   1.130
14752TIP3    H244214   1.246   0.145   1.109
14753TIP3   OH244215   7.662   0.518   0.474
14753TIP3    H144216   7.756   0.508   0.458
14753TIP3    H244217   7.621   0.447   0.425
14754TIP3   OH244218   4.773   2.763   2.447
14754TIP3    H144219   4.708   2.744   2.379
14754TIP3    H244220   4.799   2.853   2.432
14755TIP3   OH244221   4.891   6.456   2.477
14755TIP3    H144222   4.928   6.415   2.399
14755TIP3    H244223   4.856   6.383   2.528
14756TIP3   OH244224   2.778   0.721   3.442
14756TIP3    H144225   2.710   0.686   3.384
14756TIP3    H244226   2.846   0.752   3.382
14757TIP3   OH244227   0.479   6.576   3.716
14757TIP3    H144228   0.398   6.626   3.705
14757TIP3    H244229   0.539   6.637   3.759
14758TIP3   OH244230   0.481   2.032   2.663
14758TIP3    H144231   0.398   2.079   2.663
14758TIP3    H244232   0.463   1.953   2.715
14759TIP3   OH244233   4.212   5.250   3.330
14759TIP3    H144234   4.195   5.163   3.293
14759TIP3    H244235   4.252   5.299   3.258
14760TIP3   OH244236   7.990   4.813   5.606
14760TIP3    H144237   8.075   4.813   5.563
14760TIP3    H244238   7.971   4.905   5.623
14761TIP3   OH244239   0.185   1.942   6.700
14761TIP3    H144240   0.091   1.933   6.690
14761TIP3    H244241   0.210   2.011   6.638
14762TIP3   OH244242   2.039   2.234   1.149
14762TIP3    H144243   2.070   2.233   1.239
14762TIP3    H244244   2.011   2.324   1.134
14763TIP3   OH244245   1.019   5.388   5.025
14763TIP3    H144246   0.973   5.311   5.060
14763TIP3    H244247   0.955   5.459   5.032
14764TIP3   OH244248   4.920   2.570   2.104
14764TIP3    H144249   4.946   2.480   2.081
14764TIP3    H244250   4.951   2.581   2.194
14765TIP3   OH244251   6.157   2.145   3.479
14765TIP3    H144252   6.173   2.201   3.403
14765TIP3    H244253   6.220   2.073   3.470
14766TIP3   OH244254   7.300   4.769   6.172
14766TIP3    H144255   7.224   4.822   6.147
14766TIP3    H244256   7.312   4.786   6.265
14767TIP3   OH244257   4.286   4.380   3.665
14767TIP3    H144258   4.261   4.314   3.600
14767TIP3    H244259   4.208   4.435   3.674
14768TIP3   OH244260   0.026   6.335   3.142
14768TIP3    H144261   0.017   6.413   3.088
14768TIP3    H244262  -0.043   6.344   3.209
14769TIP3   OH244263   7.704   1.349   1.899
14769TIP3    H144264   7.676   1.287   1.966
14769TIP3    H244265   7.670   1.313   1.817
14770TIP3   OH244266   7.710   0.188   6.749
14770TIP3    H144267   7.711   0.121   6.681
14770TIP3    H244268   7.666   0.263   6.708
14771TIP3   OH244269   0.410   0.173   5.693
14771TIP3    H144270   0.407   0.264   5.723
14771TIP3    H244271   0.471   0.175   5.619
14772TIP3   OH244272   7.223   2.736   1.434
14772TIP3    H144273   7.160   2.758   1.365
14772TIP3    H244274   7.223   2.641   1.436
14773TIP3   OH244275   2.325   6.189   3.634
14773TIP3    H144276   2.416   6.203   3.659
14773TIP3    H244277   2.323   6.099   3.600
14774TIP3   OH244278   5.206   4.716   3.251
14774TIP3    H144279   5.261   4.780   3.205
14774TIP3    H244280   5.265   4.644   3.271
14775TIP3   OH244281   6.737   6.953   2.935
14775TIP3    H144282   6.678   6.926   2.865
14775TIP3    H244283   6.778   6.872   2.965
14776TIP3   OH244284   0.714   0.463   4.578
14776TIP3    H144285   0.649   0.511   4.629
14776TIP3    H244286   0.790   0.457   4.637
14777TIP3   OH244287   4.868   0.886   4.030
14777TIP3    H144288   4.904   0.880   3.941
14777TIP3    H244289   4.773   0.878   4.019
14778TIP3   OH244290   6.468   5.210   2.137
14778TIP3    H144291   6.548   5.188   2.088
14778TIP3    H244292   6.500   5.256   2.215
14779TIP3   OH244293   5.186   1.147   6.092
14779TIP3    H144294   5.265   1.201   6.084
14779TIP3    H244295   5.114   1.208   6.078
14780TIP3   OH244296   1.655   4.289   4.281
14780TIP3    H144297   1.670   4.273   4.374
14780TIP3    H244298   1.682   4.380   4.268
14781TIP3   OH244299   2.636   6.373   5.983
14781TIP3    H144300   2.675   6.330   6.059
14781TIP3    H244301   2.561   6.421   6.018
14782TIP3   OH244302   5.654   6.400   1.143
14782TIP3    H144303   5.714   6.454   1.091
14782TIP3    H244304   5.703   6.319   1.160
14783TIP3   OH244305   7.939   6.056   3.579
14783TIP3    H144306   7.934   6.116   3.653
14783TIP3    H244307   8.029   6.025   3.578
14784TIP3   OH244308   3.281   5.006   5.616
14784TIP3    H144309   3.361   4.955   5.608
14784TIP3    H244310   3.278   5.059   5.537
14785TIP3   OH244311   3.148   7.504   0.728
14785TIP3    H144312   3.235   7.538   0.708
14785TIP3    H244313   3.114   7.562   0.796
14786TIP3   OH244314   0.220   6.726   4.220
14786TIP3    H144315   0.311   6.754   4.230
14786TIP3    H244316   0.188   6.717   4.310
14787TIP3   OH244317   7.453   6.608   2.860
14787TIP3    H144318   7.530   6.559   2.889
14787TIP3    H244319   7.429   6.568   2.776
14788TIP3   OH244320   3.929   0.333   5.893
14788TIP3    H144321   3.862   0.270   5.920
14788TIP3    H244322   3.923   0.404   5.958
14789TIP3   OH244323   2.291   3.488   0.602
14789TIP3    H144324   2.373   3.536   0.614
14789TIP3    H244325   2.314   3.397   0.618
14790TIP3   OH244326   5.438   4.694   4.754
14790TIP3    H144327   5.372   4.758   4.783
14790TIP3    H244328   5.402   4.610   4.780
14791TIP3   OH244329   1.951   5.572   2.461
14791TIP3    H144330   1.885   5.618   2.514
14791TIP3    H244331   2.027   5.630   2.463
14792TIP3   OH244332   8.215   4.472   5.197
14792TIP3    H144333   8.274   4.500   5.266
14792TIP3    H244334   8.173   4.393   5.231
14793TIP3   OH244335   1.909   3.298   2.792
14793TIP3    H144336   1.955   3.284   2.875
14793TIP3    H244337   1.833   3.351   2.816
14794TIP3   OH244338   6.004   4.050   4.301
14794TIP3    H144339   6.015   3.999   4.220
14794TIP3    H244340   5.960   3.991   4.361
14795TIP3   OH244341   1.440   1.347   3.050
14795TIP3    H144342   1.456   1.388   3.136
14795TIP3    H244343   1.447   1.419   2.988
14796TIP3   OH244344   1.836   5.442   3.228
14796TIP3    H144345   1.763   5.503   3.217
14796TIP3    H244346   1.882   5.472   3.306
14797TIP3   OH244347   2.894   0.829   4.565
14797TIP3    H144348   2.858   0.903   4.612
14797TIP3    H244349   2.938   0.776   4.632
14798TIP3   OH244350   1.459   1.645   0.106
14798TIP3    H144351   1.459   1.570   0.165
14798TIP3    H244352   1.391   1.703   0.140
14799TIP3   OH244353   0.664   6.922   6.552
14799TIP3    H144354   0.576   6.916   6.514
14799TIP3    H244355   0.674   7.013   6.577
14800TIP3   OH244356   0.541   5.979   1.674
14800TIP3    H144357   0.630   5.948   1.688
14800TIP3    H244358   0.532   5.985   1.579
14801TIP3   OH244359   0.434   0.920   1.135
14801TIP3    H144360   0.344   0.898   1.112
14801TIP3    H244361   0.487   0.878   1.067
14802TIP3   OH244362   0.094   3.780   1.472
14802TIP3    H144363   0.068   3.690   1.494
14802TIP3    H244364   0.023   3.834   1.507
14803TIP3   OH244365   3.122   6.946   4.078
14803TIP3    H144366   3.090   6.987   4.158
14803TIP3    H244367   3.056   6.966   4.012
14804TIP3   OH244368   4.956   0.343   1.457
14804TIP3    H144369   5.047   0.354   1.483
14804TIP3    H244370   4.918   0.431   1.467
14805TIP3   OH244371   5.790   2.298   5.670
14805TIP3    H144372   5.839   2.245   5.733
14805TIP3    H244373   5.795   2.249   5.588
14806TIP3   OH244374   3.403   4.707   3.086
14806TIP3    H144375   3.411   4.699   2.991
14806TIP3    H244376   3.470   4.649   3.121
14807TIP3   OH244377   1.820   0.796   5.280
14807TIP3    H144378   1.739   0.776   5.233
14807TIP3    H244379   1.888   0.794   5.213
14808TIP3   OH244380   6.717   7.393   6.728
14808TIP3    H144381   6.714   7.408   6.822
14808TIP3    H244382   6.802   7.352   6.713
14809TIP3   OH244383   1.077   6.672   0.565
14809TIP3    H144384   1.000   6.729   0.563
14809TIP3    H244385   1.096   6.660   0.659
14810TIP3   OH244386   7.860   3.366   4.999
14810TIP3    H144387   7.769   3.396   4.990
14810TIP3    H244388   7.875   3.313   4.921
14811TIP3   OH244389   5.038   1.078   4.116
14811TIP3    H144390   5.010   1.080   4.208
14811TIP3    H244391   4.981   1.012   4.075
14812TIP3   OH244392   7.092   0.335   0.250
14812TIP3    H144393   7.118   0.320   0.159
14812TIP3    H244394   6.996   0.340   0.247
14813TIP3   OH244395   7.181   5.952   3.464
14813TIP3    H144396   7.086   5.948   3.467
14813TIP3    H244397   7.210   5.871   3.505
14814TIP3   OH244398   7.647   3.475   3.700
14814TIP3    H144399   7.719   3.457   3.639
14814TIP3    H244400   7.689   3.483   3.785
14815TIP3   OH244401   4.998   0.852   5.469
14815TIP3    H144402   4.935   0.898   5.525
14815TIP3    H244403   5.032   0.921   5.411
14816TIP3   OH244404   2.584   7.040   3.649
14816TIP3    H144405   2.622   6.956   3.677
14816TIP3    H244406   2.524   7.063   3.720
14817TIP3   OH244407   4.982   6.512   6.599
14817TIP3    H144408   4.942   6.436   6.557
14817TIP3    H244409   5.015   6.479   6.682
14818TIP3   OH244410   6.524   1.603   6.192
14818TIP3    H144411   6.506   1.509   6.183
14818TIP3    H244412   6.464   1.644   6.130
14819TIP3   OH244413   4.370   3.328   0.715
14819TIP3    H144414   4.393   3.330   0.808
14819TIP3    H244415   4.385   3.237   0.689
14820TIP3   OH244416   1.932   2.689   0.949
14820TIP3    H144417   1.946   2.769   0.899
14820TIP3    H244418   1.838   2.690   0.970
14821TIP3   OH244419   5.956   3.439   2.968
14821TIP3    H144420   5.943   3.391   2.886
14821TIP3    H244421   5.867   3.457   2.999
14822TIP3   OH244422   1.782   7.090   3.334
14822TIP3    H144423   1.817   7.012   3.378
14822TIP3    H244424   1.699   7.060   3.296
14823TIP3   OH244425   0.973   7.018   3.217
14823TIP3    H144426   0.989   7.036   3.310
14823TIP3    H244427   1.037   7.072   3.171
14824TIP3   OH244428   0.525   1.616   4.353
14824TIP3    H144429   0.499   1.563   4.429
14824TIP3    H244430   0.509   1.706   4.380
14825TIP3   OH244431   2.856   3.355   0.098
14825TIP3    H144432   2.836   3.262   0.090
14825TIP3    H244433   2.774   3.395   0.126
14826TIP3   OH244434   4.521   4.896   6.208
14826TIP3    H144435   4.584   4.824   6.193
14826TIP3    H244436   4.440   4.866   6.167
14827TIP3   OH244437   0.649   6.783   6.803
14827TIP3    H144438   0.555   6.765   6.807
14827TIP3    H244439   0.661   6.835   6.724
14828TIP3   OH244440   6.696   0.852   4.869
14828TIP3    H144441   6.614   0.893   4.841
14828TIP3    H244442   6.746   0.924   4.908
14829TIP3   OH244443   7.936   5.073   2.940
14829TIP3    H144444   7.848   5.105   2.916
14829TIP3    H244445   7.975   5.048   2.857
14830TIP3   OH244446   5.723   1.124   2.704
14830TIP3    H144447   5.818   1.132   2.707
14830TIP3    H244448   5.708   1.043   2.654
14831TIP3   OH244449   6.666   4.502   4.553
14831TIP3    H144450   6.589   4.463   4.511
14831TIP3    H244451   6.675   4.588   4.511
14832TIP3   OH244452   5.974   3.109   2.176
14832TIP3    H144453   5.963   3.152   2.091
14832TIP3    H244454   5.985   3.016   2.155
14833TIP3   OH244455   4.636   4.064   2.361
14833TIP3    H144456   4.561   4.015   2.394
14833TIP3    H244457   4.629   4.150   2.403
14834TIP3   OH244458   8.211   4.674   3.493
14834TIP3    H144459   8.139   4.639   3.440
14834TIP3    H244460   8.285   4.617   3.473
14835TIP3   OH244461   6.745   7.278   1.869
14835TIP3    H144462   6.736   7.236   1.783
14835TIP3    H244463   6.741   7.206   1.932
14836TIP3   OH244464   1.469   4.757   4.772
14836TIP3    H144465   1.405   4.792   4.833
14836TIP3    H244466   1.475   4.664   4.795
14837TIP3   OH244467   5.402   2.329   2.114
14837TIP3    H144468   5.385   2.235   2.110
14837TIP3    H244469   5.329   2.363   2.166
   8.30210   7.82729   6.77863   0.00000   0.00000  -2.76736   0.00000  -2.76736  -3.91365
