* SET NIONTYPES = 1
* SET NPOSTOT = 68
* SET NNEGTOT = 65
* SET NIONTOT = 133
*  DATE:     6/17/26     23:27:33      CREATED BY USER: charmm-gui
*
       133  EXT
         1         1  LIT       LIT           -14.5282812136      -49.8918276814      -14.7473391784  IONS      1               1.0000000000
         2         2  LIT       LIT            -8.3936851044       23.1649866600       26.1870690655  IONS      2               1.0000000000
         3         3  LIT       LIT            29.9606861071        0.7484295162       33.5452882691  IONS      3               1.0000000000
         4         4  LIT       LIT             9.7433685376      -22.7551588112       24.5675717500  IONS      4               1.0000000000
         5         5  LIT       LIT             8.5042425629      -23.3060322616      -11.8619904634  IONS      5               1.0000000000
         6         6  LIT       LIT            21.1812540191       46.8920011558       -7.4889251577  IONS      6               1.0000000000
         7         7  LIT       LIT            14.1172488153      -27.0643973187      -45.9388542678  IONS      7               1.0000000000
         8         8  LIT       LIT           -19.8350693766      -21.3635533930       17.7851666243  IONS      8               1.0000000000
         9         9  LIT       LIT            20.4709735797      -37.0718156533       39.7307329982  IONS      9               1.0000000000
        10        10  LIT       LIT            -5.9348146518       -8.4239561999       -8.5353425422  IONS      10              1.0000000000
        11        11  LIT       LIT            -2.7395296375      -21.9508109735        1.1845460458  IONS      11              1.0000000000
        12        12  LIT       LIT           -15.8126884916       36.9537542445       30.1536702135  IONS      12              1.0000000000
        13        13  LIT       LIT           -31.2670128662      -31.7322843974       21.7553222249  IONS      13              1.0000000000
        14        14  LIT       LIT            22.3421215984       26.9054735738        3.3114858097  IONS      14              1.0000000000
        15        15  LIT       LIT            28.0861144121      -27.5306319858      -38.1540650032  IONS      15              1.0000000000
        16        16  LIT       LIT           -28.2920332621      -40.3229770249      -14.1549851986  IONS      16              1.0000000000
        17        17  LIT       LIT            31.8959875202      -30.4368384588       25.0488965328  IONS      17              1.0000000000
        18        18  LIT       LIT            20.4877039813      -10.9784020476       51.3477537144  IONS      18              1.0000000000
        19        19  LIT       LIT            23.4203918278       21.9288617414       25.1860178906  IONS      19              1.0000000000
        20        20  LIT       LIT            42.9496472180       28.2612378610       10.1790070795  IONS      20              1.0000000000
        21        21  LIT       LIT            38.8567568951       32.1362840260      -20.0733265898  IONS      21              1.0000000000
        22        22  LIT       LIT           -48.4447211076      -28.1946979998       14.5952436298  IONS      22              1.0000000000
        23        23  LIT       LIT           -14.6570562168      -21.2966323503      -21.0414493501  IONS      23              1.0000000000
        24        24  LIT       LIT            13.7419423372        2.9501084164      -11.3077035752  IONS      24              1.0000000000
        25        25  LIT       LIT           -18.8812554904       22.1475471378      -14.9064622456  IONS      25              1.0000000000
        26        26  LIT       LIT            42.1508781128      -10.9898462426        8.7443328542  IONS      26              1.0000000000
        27        27  LIT       LIT            14.2012975315       26.8415488489       28.6704634898  IONS      27              1.0000000000
        28        28  LIT       LIT           -14.5192481526       -8.8789370737      -15.4942281389  IONS      28              1.0000000000
        29        29  LIT       LIT            -9.5711617181      -40.0317262605      -14.2968685687  IONS      29              1.0000000000
        30        30  LIT       LIT            24.9614243024        3.4554983700      -35.9662438802  IONS      30              1.0000000000
        31        31  LIT       LIT           -18.1042815737      -34.3531700172       31.3726253697  IONS      31              1.0000000000
        32        32  LIT       LIT            20.2681899057      -11.0507961829      -44.3355120999  IONS      32              1.0000000000
        33        33  LIT       LIT            -3.5906469565       29.0301889698       -6.0750913146  IONS      33              1.0000000000
        34        34  LIT       LIT            36.0693270721        1.0354544703        8.4228969435  IONS      34              1.0000000000
        35        35  LIT       LIT            -7.2323213904       43.7143799919       34.7170904168  IONS      35              1.0000000000
        36        36  LIT       LIT            37.1477709462       -9.8364474386       -5.9174323284  IONS      36              1.0000000000
        37        37  LIT       LIT            20.6509223046      -29.3048984284       -8.7976391321  IONS      37              1.0000000000
        38        38  LIT       LIT           -42.0264441490       32.9361870873        9.5631316706  IONS      38              1.0000000000
        39        39  LIT       LIT           -44.6625240643      -17.4720835470      -16.7738378877  IONS      39              1.0000000000
        40        40  LIT       LIT           -26.6939993651      -27.5951585477      -11.7386691450  IONS      40              1.0000000000
        41        41  LIT       LIT            29.6199505247       37.5159985486       -8.6436760670  IONS      41              1.0000000000
        42        42  LIT       LIT            -2.2477838902       -6.4030695971       42.7437176115  IONS      42              1.0000000000
        43        43  LIT       LIT            11.6894890260        5.5916391271      -43.3997776810  IONS      43              1.0000000000
        44        44  LIT       LIT            26.0726347327       36.4663522624       11.2736475100  IONS      44              1.0000000000
        45        45  LIT       LIT           -32.4297853072       -5.3597204929       37.7616759714  IONS      45              1.0000000000
        46        46  LIT       LIT           -20.8605606711        8.3430602369       19.7865788338  IONS      46              1.0000000000
        47        47  LIT       LIT           -13.4658323338      -25.0349789123      -35.8654816392  IONS      47              1.0000000000
        48        48  LIT       LIT             3.2190015259      -41.5340284515      -36.4626167982  IONS      48              1.0000000000
        49        49  LIT       LIT            36.4409661443      -34.7740796865      -25.7330445509  IONS      49              1.0000000000
        50        50  LIT       LIT            17.6156328264       37.1646558147       -8.1804007229  IONS      50              1.0000000000
        51        51  LIT       LIT            29.3187850522        8.4829091260      -26.7677579807  IONS      51              1.0000000000
        52        52  LIT       LIT           -43.9914443644      -12.6451442294      -23.7166364928  IONS      52              1.0000000000
        53        53  LIT       LIT           -31.9154770469       27.7241610375       17.9883788121  IONS      53              1.0000000000
        54        54  LIT       LIT           -46.5997383174      -21.0733040152       26.7384042487  IONS      54              1.0000000000
        55        55  LIT       LIT           -33.6835231925       17.8080931997      -20.2042796219  IONS      55              1.0000000000
        56        56  LIT       LIT            38.4641626841       -7.2752739316       30.3601178539  IONS      56              1.0000000000
        57        57  LIT       LIT           -17.8205238289      -51.8948224351        3.4411190576  IONS      57              1.0000000000
        58        58  LIT       LIT           -14.4169963668       -5.2657528771       12.6893759478  IONS      58              1.0000000000
        59        59  LIT       LIT            -8.9341543356      -29.2748033443      -14.3128819338  IONS      59              1.0000000000
        60        60  LIT       LIT            -4.3241900070        0.8785695230       10.0155060828  IONS      60              1.0000000000
        61        61  LIT       LIT           -31.7381962186      -10.5168429307      -19.2552487577  IONS      61              1.0000000000
        62        62  LIT       LIT            11.5205812284       16.5225250045       15.8787892201  IONS      62              1.0000000000
        63        63  LIT       LIT           -42.8187603176       24.6296569173      -21.8822593472  IONS      63              1.0000000000
        64        64  LIT       LIT           -21.2961534933      -11.1336912761      -30.8123051251  IONS      64              1.0000000000
        65        65  LIT       LIT             1.8449785107       48.3586668693        1.8332402993  IONS      65              1.0000000000
        66        66  LIT       LIT            48.7902918156       -7.9774236183       20.0598324278  IONS      66              1.0000000000
        67        67  LIT       LIT           -29.7348605372       37.7245444534       28.8661451628  IONS      67              1.0000000000
        68        68  LIT       LIT           -28.4450402543       25.7292182681       -7.0523421247  IONS      68              1.0000000000
        69        69  CLA       CLA           -13.6232282035        8.5815064656      -30.4638346658  IONS      69             -1.0000000000
        70        70  CLA       CLA            -8.8637359220      -28.0743051187      -31.1582400399  IONS      70             -1.0000000000
        71        71  CLA       CLA             0.0281168905        9.4796575913      -28.4598686765  IONS      71             -1.0000000000
        72        72  CLA       CLA            33.3844584804       29.3083612808       -0.7016281327  IONS      72             -1.0000000000
        73        73  CLA       CLA           -35.8315260845        7.4433663702       24.1529334745  IONS      73             -1.0000000000
        74        74  CLA       CLA            45.4170912859       -5.1408345692       25.2207325642  IONS      74             -1.0000000000
        75        75  CLA       CLA           -27.0209406621       -9.1951418471      -18.0347938928  IONS      75             -1.0000000000
        76        76  CLA       CLA           -24.3681614041       28.0281958079       -8.3450029549  IONS      76             -1.0000000000
        77        77  CLA       CLA            -9.6514388242       32.8834052319       22.3707612815  IONS      77             -1.0000000000
        78        78  CLA       CLA           -15.2995221249       -7.1366243801      -45.5839959349  IONS      78             -1.0000000000
        79        79  CLA       CLA            -7.5861734068      -40.7886690661       27.7575886161  IONS      79             -1.0000000000
        80        80  CLA       CLA            32.5137525829      -27.1838940325       16.9466762120  IONS      80             -1.0000000000
        81        81  CLA       CLA            28.6708826551       45.7915798906        9.0619349887  IONS      81             -1.0000000000
        82        82  CLA       CLA            -7.1560746893       -4.1985331584       34.1791824320  IONS      82             -1.0000000000
        83        83  CLA       CLA            -5.0734712585      -39.9259519443      -36.6880148219  IONS      83             -1.0000000000
        84        84  CLA       CLA             2.9000081180      -41.3473075632       26.9619823057  IONS      84             -1.0000000000
        85        85  CLA       CLA             7.2672171657        6.2249799747      -10.2437346681  IONS      85             -1.0000000000
        86        86  CLA       CLA            27.1114388679      -36.1815126967      -16.6938492877  IONS      86             -1.0000000000
        87        87  CLA       CLA            34.6003509900       28.4160144853      -34.6193235459  IONS      87             -1.0000000000
        88        88  CLA       CLA           -24.8051400540      -23.0040202511      -31.0250811561  IONS      88             -1.0000000000
        89        89  CLA       CLA           -11.8803524548      -15.6836995231       14.2172903086  IONS      89             -1.0000000000
        90        90  CLA       CLA            14.3077897770      -20.6602959912      -46.9882724448  IONS      90             -1.0000000000
        91        91  CLA       CLA           -46.3280369635       16.7191188139      -20.0980940071  IONS      91             -1.0000000000
        92        92  CLA       CLA            -6.7200693000      -24.8462983677       -0.5084931103  IONS      92             -1.0000000000
        93        93  CLA       CLA            -3.6857300166       -9.1251891168       23.9934310050  IONS      93             -1.0000000000
        94        94  CLA       CLA           -25.5398857088        4.3868416383       21.8658832890  IONS      94             -1.0000000000
        95        95  CLA       CLA           -16.8148482465       38.3804651104      -21.9166860051  IONS      95             -1.0000000000
        96        96  CLA       CLA           -23.2234642598       37.8336831301       32.2368606861  IONS      96             -1.0000000000
        97        97  CLA       CLA            -7.6870337748       32.2978768416       45.4276785474  IONS      97             -1.0000000000
        98        98  CLA       CLA           -13.4126786927       35.3871023244        6.5658694905  IONS      98             -1.0000000000
        99        99  CLA       CLA            13.2701925569       23.1078143984      -36.3116303737  IONS      99             -1.0000000000
       100       100  CLA       CLA           -47.7120747594      -17.4330678717        1.7517977226  IONS      100            -1.0000000000
       101       101  CLA       CLA             9.2574452377      -31.3754594738       28.0524868505  IONS      101            -1.0000000000
       102       102  CLA       CLA           -21.4202060046      -47.8779284475      -13.7019460127  IONS      102            -1.0000000000
       103       103  CLA       CLA            14.3268013057       49.8948771463      -10.0162120308  IONS      103            -1.0000000000
       104       104  CLA       CLA            51.9439476392       15.9706406871       11.1336820053  IONS      104            -1.0000000000
       105       105  CLA       CLA           -10.5194096088        0.7766144286        8.4760645905  IONS      105            -1.0000000000
       106       106  CLA       CLA             1.8698854578      -23.2030182866        3.3331129430  IONS      106            -1.0000000000
       107       107  CLA       CLA            18.1321892875       20.0553688679       27.4833607560  IONS      107            -1.0000000000
       108       108  CLA       CLA           -10.8592045243       -8.7751367728      -19.2220113920  IONS      108            -1.0000000000
       109       109  CLA       CLA           -15.1639172879      -30.3770294967      -14.1769164644  IONS      109            -1.0000000000
       110       110  CLA       CLA            17.1950286131       13.0864001514       14.5584474836  IONS      110            -1.0000000000
       111       111  CLA       CLA            29.7878155806       -1.4821267736       10.3214793834  IONS      111            -1.0000000000
       112       112  CLA       CLA           -30.9807668047       12.0643535637       46.7092753653  IONS      112            -1.0000000000
       113       113  CLA       CLA           -38.2354587193        6.8854681538      -27.9035609587  IONS      113            -1.0000000000
       114       114  CLA       CLA           -34.4130310426      -13.9701625888      -25.0892560183  IONS      114            -1.0000000000
       115       115  CLA       CLA            35.6551881962       -4.8813826468       -1.4758169519  IONS      115            -1.0000000000
       116       116  CLA       CLA           -12.4521858565       12.1476839821      -19.0852809937  IONS      116            -1.0000000000
       117       117  CLA       CLA           -40.3073129832       17.7391679036      -29.2759852437  IONS      117            -1.0000000000
       118       118  CLA       CLA           -42.5863859208      -18.5837726968      -15.0644183295  IONS      118            -1.0000000000
       119       119  CLA       CLA             6.2731294152        2.5869413274       31.2670070333  IONS      119            -1.0000000000
       120       120  CLA       CLA           -25.9063482871      -21.1506758714       -7.4742189847  IONS      120            -1.0000000000
       121       121  CLA       CLA           -30.7163340524      -35.0369027971       -8.6412866392  IONS      121            -1.0000000000
       122       122  CLA       CLA            29.1796944970       35.6921586388      -28.2684976218  IONS      122            -1.0000000000
       123       123  CLA       CLA            31.9779255686        5.5073843376      -33.5849493678  IONS      123            -1.0000000000
       124       124  CLA       CLA            26.7955274855      -21.7414928581       30.5809053163  IONS      124            -1.0000000000
       125       125  CLA       CLA            15.6348548877        4.8351647753      -40.3510281591  IONS      125            -1.0000000000
       126       126  CLA       CLA             2.4353518049      -33.7327154587      -31.4576528818  IONS      126            -1.0000000000
       127       127  CLA       CLA            28.0909813278      -14.7741059529       46.0954951828  IONS      127            -1.0000000000
       128       128  CLA       CLA           -31.6629815239      -10.3700567792      -26.4460298870  IONS      128            -1.0000000000
       129       129  CLA       CLA            10.6564046547       -9.1981397414      -13.4230892206  IONS      129            -1.0000000000
       130       130  CLA       CLA           -35.0319736604       -3.6568268039       31.9221800948  IONS      130            -1.0000000000
       131       131  CLA       CLA            16.7574780544       37.1351588249       -3.5899152961  IONS      131            -1.0000000000
       132       132  CLA       CLA             2.0080485062       -2.5756172871       47.1577956213  IONS      132            -1.0000000000
       133       133  CLA       CLA            23.5900962306       11.2940990431       -8.1175459806  IONS      133            -1.0000000000
