* GENERATED BY CHARMM-GUI (HTTP://WWW.CHARMM-GUI.ORG) V3.7 ON JUN, 17. 2026. JOB
* READ PDB, MANIPULATE STRUCTURE IF NEEDED, AND GENERATE TOPOLOGY FILE
*  DATE:     6/17/26     23:24:31      CREATED BY USER: charmm-gui
*
       201  EXT
         1         1  GLY       N               7.0380000000        9.9410000000       25.0020000000  PROA      1              97.6500000000
         2         1  GLY       HT1             7.3959674130       10.8342062166       25.3965148740  PROA      1               0.0000000000
         3         1  GLY       HT2             7.7867583898        9.4840602566       24.4432813045  PROA      1               0.0000000000
         4         1  GLY       HT3             6.7506485165        9.3101083980       25.7772448307  PROA      1               0.0000000000
         5         1  GLY       CA              5.8930000000       10.2120000000       24.1480000000  PROA      1              98.0700000000
         6         1  GLY       HA1             6.1748818624       11.0002311614       23.4656954825  PROA      1               0.0000000000
         7         1  GLY       HA2             5.0821733547       10.5361132607       24.7834651432  PROA      1               0.0000000000
         8         1  GLY       C               5.4450000000        9.0010000000       23.3500000000  PROA      1              98.2400000000
         9         1  GLY       O               6.1570000000        7.9970000000       23.2830000000  PROA      1              97.8900000000
        10         2  PRO       N               4.2410000000        8.9450000000       22.7020000000  PROA      2              98.4500000000
        11         2  PRO       CD              3.2750000000        9.7980000000       23.1290000000  PROA      2              94.3500000000
        12         2  PRO       HD1             3.5005859287       10.8248833159       22.7712801205  PROA      2               0.0000000000
        13         2  PRO       HD2             3.2308542218        9.7848971698       24.2386041339  PROA      2               0.0000000000
        14         2  PRO       CA              3.7860000000        7.8420000000       21.8520000000  PROA      2              98.4900000000
        15         2  PRO       HA              3.9204300351        6.8985078787       22.3562707662  PROA      2               0.0000000000
        16         2  PRO       CB              2.3290000000        8.2060000000       21.5530000000  PROA      2              98.3300000000
        17         2  PRO       HB1             1.6656516608        7.3264609642       21.6960297509  PROA      2               0.0000000000
        18         2  PRO       HB2             2.2202118435        8.5717390087       20.5096987210  PROA      2               0.0000000000
        19         2  PRO       CG              1.9960000000        9.2860000000       22.5310000000  PROA      2              97.0100000000
        20         2  PRO       HG1             1.4632637968       10.1125898941       22.0140502896  PROA      2               0.0000000000
        21         2  PRO       HG2             1.3400856106        8.8816942790       23.3313804821  PROA      2               0.0000000000
        22         2  PRO       C               4.5920000000        7.7210000000       20.5610000000  PROA      2              98.5700000000
        23         2  PRO       O               5.2260000000        8.6880000000       20.1310000000  PROA      2              98.4600000000
        24         3  GLY       N               4.6550000000        6.3660000000       20.0640000000  PROA      3              98.4300000000
        25         3  GLY       HN              4.2759616100        5.5779658635       20.5425552293  PROA      3               0.0000000000
        26         3  GLY       CA              5.3120000000        6.1390000000       18.7870000000  PROA      3              98.4200000000
        27         3  GLY       HA1             5.3065025541        5.0758138522       18.5975474179  PROA      3               0.0000000000
        28         3  GLY       HA2             6.3273818034        6.4973055249       18.8700917070  PROA      3               0.0000000000
        29         3  GLY       C               4.6320000000        6.8490000000       17.6310000000  PROA      3              98.5600000000
        30         3  GLY       O               3.4980000000        7.3140000000       17.7620000000  PROA      3              98.4800000000
        31         4  ASP       N               5.3320000000        6.9410000000       16.5840000000  PROA      4              98.3400000000
        32         4  ASP       HN              6.2873281227        6.6575759730       16.5537751181  PROA      4               0.0000000000
        33         4  ASP       CA              4.7740000000        7.4740000000       15.3450000000  PROA      4              98.3500000000
        34         4  ASP       HA              4.3161553988        8.4266263645       15.5664625958  PROA      4               0.0000000000
        35         4  ASP       CB              5.8700000000        7.6430000000       14.2910000000  PROA      4              98.1500000000
        36         4  ASP       HB1             5.3955442585        7.8615936554       13.3108040377  PROA      4               0.0000000000
        37         4  ASP       HB2             6.4448581905        6.6956693500       14.2149851210  PROA      4               0.0000000000
        38         4  ASP       CG              6.8380000000        8.7670000000       14.6170000000  PROA      4              95.9600000000
        39         4  ASP       OD1             6.4920000000        9.6540000000       15.4270000000  PROA      4              94.5100000000
        40         4  ASP       OD2             7.9550000000        8.7690000000       14.0550000000  PROA      4              95.1000000000
        41         4  ASP       C               3.6650000000        6.5710000000       14.8090000000  PROA      4              98.5400000000
        42         4  ASP       O               3.7210000000        5.3500000000       14.9680000000  PROA      4              98.4500000000
        43         5  PRO       N               2.6270000000        7.0520000000       14.0700000000  PROA      5              98.3800000000
        44         5  PRO       CD              2.4290000000        8.4370000000       13.9360000000  PROA      5              97.1800000000
        45         5  PRO       HD1             3.2105845234        8.8713679434       13.2779473469  PROA      5               0.0000000000
        46         5  PRO       HD2             2.4591191049        8.9240861578       14.9332076444  PROA      5               0.0000000000
        47         5  PRO       CA              1.6250000000        6.2080000000       13.4140000000  PROA      5              98.3600000000
        48         5  PRO       HA              1.1175339374        5.5933732313       14.1401169402  PROA      5               0.0000000000
        49         5  PRO       CB              0.7290000000        7.2200000000       12.6940000000  PROA      5              98.2900000000
        50         5  PRO       HB1            -0.3438137422        6.9753302967       12.8465838009  PROA      5               0.0000000000
        51         5  PRO       HB2             0.9431963875        7.2307729060       11.6040099737  PROA      5               0.0000000000
        52         5  PRO       CG              1.0660000000        8.5380000000       13.3140000000  PROA      5              97.5900000000
        53         5  PRO       HG1             1.0630910799        9.3325179388       12.5374507665  PROA      5               0.0000000000
        54         5  PRO       HG2             0.3141272356        8.7931735944       14.0910905429  PROA      5               0.0000000000
        55         5  PRO       C               2.2400000000        5.2230000000       12.4240000000  PROA      5              98.5200000000
        56         5  PRO       O               3.3240000000        5.4730000000       11.8900000000  PROA      5              98.4600000000
        57         6  GLY       N               1.5810000000        4.1350000000       12.3170000000  PROA      6              98.5000000000
        58         6  GLY       HN              0.7817446988        3.9180528150       12.8720151015  PROA      6               0.0000000000
        59         6  GLY       CA              2.0070000000        3.1490000000       11.3370000000  PROA      6              98.4700000000
        60         6  GLY       HA1             1.3470848157        2.2978793072       11.4169583095  PROA      6               0.0000000000
        61         6  GLY       HA2             3.0190370625        2.8596444339       11.5785412096  PROA      6               0.0000000000
        62         6  GLY       C               1.9700000000        3.6690000000        9.9120000000  PROA      6              98.6100000000
        63         6  GLY       O               1.3980000000        4.7290000000        9.6480000000  PROA      6              98.5500000000
        64         7  SER       N               2.4480000000        2.8400000000        9.1500000000  PROA      7              98.5000000000
        65         7  SER       HN              2.8765154608        1.9883490951        9.4406060362  PROA      7               0.0000000000
        66         7  SER       CA              2.3790000000        3.1310000000        7.7220000000  PROA      7              98.4600000000
        67         7  SER       HA              2.6377042853        4.1696598951        7.5790992120  PROA      7               0.0000000000
        68         7  SER       CB              3.3400000000        2.2320000000        6.9430000000  PROA      7              98.2600000000
        69         7  SER       HB1             3.2691873250        2.4620052732        5.8584213835  PROA      7               0.0000000000
        70         7  SER       HB2             3.0746377551        1.1667163175        7.1132386293  PROA      7               0.0000000000
        71         7  SER       OG              4.6770000000        2.4400000000        7.3650000000  PROA      7              94.5900000000
        72         7  SER       HG1             4.8673826556        3.3653507563        7.1944701719  PROA      7               0.0000000000
        73         7  SER       C               0.9610000000        2.9550000000        7.1900000000  PROA      7              98.6200000000
        74         7  SER       O               0.1600000000        2.2200000000        7.7720000000  PROA      7              98.5700000000
        75         8  GLY       N               0.6360000000        3.7720000000        6.1480000000  PROA      8              98.2400000000
        76         8  GLY       HN              1.2402606735        4.4783706785        5.7878239059  PROA      8               0.0000000000
        77         8  GLY       CA             -0.6660000000        3.6090000000        5.5210000000  PROA      8              98.1500000000
        78         8  GLY       HA1            -0.8154502720        4.4416740096        4.8497284347  PROA      8               0.0000000000
        79         8  GLY       HA2            -1.4120143500        3.6214226377        6.3017657602  PROA      8               0.0000000000
        80         8  GLY       C              -0.7940000000        2.3160000000        4.7380000000  PROA      8              98.3400000000
        81         8  GLY       O               0.1770000000        1.5710000000        4.5970000000  PROA      8              98.1800000000
        82         9  PRO       N              -1.8210000000        2.0780000000        4.3030000000  PROA      9              98.6000000000
        83         9  PRO       CD             -2.9860000000        3.0170000000        4.3580000000  PROA      9              97.6600000000
        84         9  PRO       HD1            -2.6932440060        4.0155469157        3.9714961409  PROA      9               0.0000000000
        85         9  PRO       HD2            -3.3579050619        3.1072434601        5.3999836806  PROA      9               0.0000000000
        86         9  PRO       CA             -2.0790000000        0.9020000000        3.4680000000  PROA      9              98.6100000000
        87         9  PRO       HA             -1.6843436484        0.0145482456        3.9361958386  PROA      9               0.0000000000
        88         9  PRO       CB             -3.6010000000        0.9150000000        3.3020000000  PROA      9              98.5400000000
        89         9  PRO       HB1            -4.0873709489        0.2835908887        4.0758483223  PROA      9               0.0000000000
        90         9  PRO       HB2            -3.8912497887        0.5392265760        2.2976968657  PROA      9               0.0000000000
        91         9  PRO       CG             -3.9910000000        2.3480000000        3.4650000000  PROA      9              97.9600000000
        92         9  PRO       HG1            -4.0085567001        2.8496787609        2.4738871063  PROA      9               0.0000000000
        93         9  PRO       HG2            -5.0028891527        2.4147110822        3.9187891130  PROA      9               0.0000000000
        94         9  PRO       C              -1.3830000000        0.9760000000        2.1120000000  PROA      9              98.7400000000
        95         9  PRO       O              -1.0290000000        2.0660000000        1.6550000000  PROA      9              98.7100000000
        96        10  GLY       N              -1.2280000000       -0.1460000000        1.5570000000  PROA      10             98.4700000000
        97        10  GLY       HN             -1.4995804575       -1.0077646922        1.9784048310  PROA      10              0.0000000000
        98        10  GLY       CA             -0.6250000000       -0.2100000000        0.2360000000  PROA      10             98.4200000000
        99        10  GLY       HA1            -0.3835923634       -1.2428989289        0.0331944620  PROA      10              0.0000000000
       100        10  GLY       HA2             0.2753042283        0.3861356803        0.2550388450  PROA      10              0.0000000000
       101        10  GLY       C              -1.5360000000        0.3080000000       -0.8620000000  PROA      10             98.6100000000
       102        10  GLY       O              -2.7290000000        0.5230000000       -0.6360000000  PROA      10             98.5600000000
       103        11  ASP       N              -0.9520000000        0.5600000000       -1.9850000000  PROA      11             98.5400000000
       104        11  ASP       HN              0.0369787070        0.4934401285       -2.0904022952  PROA      11              0.0000000000
       105        11  ASP       CA             -1.6940000000        0.9590000000       -3.1770000000  PROA      11             98.5300000000
       106        11  ASP       HA             -2.3092905358        1.8084106287       -2.9199294363  PROA      11              0.0000000000
       107        11  ASP       CB             -0.7330000000        1.3220000000       -4.3110000000  PROA      11             98.4000000000
       108        11  ASP       HB1            -1.3133414612        1.4371846256       -5.2510050463  PROA      11              0.0000000000
       109        11  ASP       HB2             0.0033980919        0.4998283832       -4.4351969383  PROA      11              0.0000000000
       110        11  ASP       CG              0.0260000000        2.6110000000       -4.0550000000  PROA      11             96.9900000000
       111        11  ASP       OD1            -0.4490000000        3.4520000000       -3.2620000000  PROA      11             96.0500000000
       112        11  ASP       OD2             1.1090000000        2.7900000000       -4.6540000000  PROA      11             95.6900000000
       113        11  ASP       C              -2.6450000000       -0.1470000000       -3.6290000000  PROA      11             98.6800000000
       114        11  ASP       O              -2.3560000000       -1.3320000000       -3.4520000000  PROA      11             98.6300000000
       115        12  PRO       N              -3.8050000000        0.2320000000       -4.3630000000  PROA      12             98.6000000000
       116        12  PRO       CD             -4.2500000000        1.5250000000       -4.5060000000  PROA      12             97.4100000000
       117        12  PRO       HD1            -3.6087987235        2.0673028324       -5.2323718152  PROA      12              0.0000000000
       118        12  PRO       HD2            -4.2308978599        2.0421775347       -3.5236507959  PROA      12              0.0000000000
       119        12  PRO       CA             -4.6690000000       -0.8090000000       -4.9250000000  PROA      12             98.5700000000
       120        12  PRO       HA             -4.9655308180       -1.5062981853       -4.1579319915  PROA      12              0.0000000000
       121        12  PRO       CB             -5.8200000000       -0.0130000000       -5.5460000000  PROA      12             98.5200000000
       122        12  PRO       HB1            -6.8011014322       -0.4352151274       -5.2406300343  PROA      12              0.0000000000
       123        12  PRO       HB2            -5.7538703117       -0.0242547129       -6.6548627714  PROA      12              0.0000000000
       124        12  PRO       CG             -5.6530000000        1.3750000000       -5.0190000000  PROA      12             97.9000000000
       125        12  PRO       HG1            -5.8393846569        2.1115726546       -5.8295645797  PROA      12              0.0000000000
       126        12  PRO       HG2            -6.3772274087        1.5561279186       -4.1962115755  PROA      12              0.0000000000
       127        12  PRO       C              -3.9630000000       -1.6580000000       -5.9780000000  PROA      12             98.6900000000
       128        12  PRO       O              -3.0030000000       -1.2000000000       -6.6040000000  PROA      12             98.6500000000
       129        13  GLY       N              -4.4300000000       -2.9080000000       -6.0630000000  PROA      13             98.4800000000
       130        13  GLY       HN             -5.1344527551       -3.2769886769       -5.4617805466  PROA      13              0.0000000000
       131        13  GLY       CA             -3.8870000000       -3.7870000000       -7.0860000000  PROA      13             98.4600000000
       132        13  GLY       HA1            -4.3645033047       -4.7499156987       -6.9807915032  PROA      13              0.0000000000
       133        13  GLY       HA2            -2.8247494952       -3.8771425310       -6.9134222909  PROA      13              0.0000000000
       134        13  GLY       C              -4.1150000000       -3.2760000000       -8.4950000000  PROA      13             98.6300000000
       135        13  GLY       O              -4.9100000000       -2.3570000000       -8.7070000000  PROA      13             98.5900000000
       136        14  SER       N              -3.5600000000       -3.9800000000       -9.3660000000  PROA      14             98.5500000000
       137        14  SER       HN             -2.9535202089       -4.7427916134       -9.1557318052  PROA      14              0.0000000000
       138        14  SER       CA             -3.8060000000       -3.6780000000      -10.7730000000  PROA      14             98.5100000000
       139        14  SER       HA             -3.7784668324       -2.6053944452      -10.8951666386  PROA      14              0.0000000000
       140        14  SER       CB             -2.7490000000       -4.3410000000      -11.6570000000  PROA      14             98.3700000000
       141        14  SER       HB1            -2.9357023451       -4.0801336211      -12.7206342008  PROA      14              0.0000000000
       142        14  SER       HB2            -2.7976057591       -5.4439092505      -11.5326802033  PROA      14              0.0000000000
       143        14  SER       OG             -1.4490000000       -3.9010000000      -11.3030000000  PROA      14             94.9400000000
       144        14  SER       HG1            -1.4475953419       -2.9496023564      -11.4312207109  PROA      14              0.0000000000
       145        14  SER       C              -5.1970000000       -4.1330000000      -11.2010000000  PROA      14             98.6600000000
       146        14  SER       O              -5.7660000000       -5.0500000000      -10.6050000000  PROA      14             98.6200000000
       147        15  GLY       N              -5.8960000000       -3.3440000000      -12.0990000000  PROA      15             98.1500000000
       148        15  GLY       HN             -5.5449185418       -2.4674984929      -12.4187557550  PROA      15              0.0000000000
       149        15  GLY       CA             -7.1880000000       -3.7480000000      -12.6310000000  PROA      15             98.1100000000
       150        15  GLY       HA1            -7.5431289964       -2.9553577391      -13.2727875982  PROA      15              0.0000000000
       151        15  GLY       HA2            -7.8610494531       -3.8818627004      -11.7971085861  PROA      15              0.0000000000
       152        15  GLY       C              -7.1280000000       -5.0380000000      -13.4280000000  PROA      15             98.3000000000
       153        15  GLY       O              -6.0430000000       -5.5530000000      -13.7040000000  PROA      15             98.1900000000
       154        16  PRO       N              -8.0490000000       -5.6390000000      -13.7860000000  PROA      16             98.5500000000
       155        16  PRO       CD             -9.3750000000       -5.0290000000      -13.5180000000  PROA      16             97.2100000000
       156        16  PRO       HD1            -9.3860956658       -3.9718713514      -13.8566011981  PROA      16              0.0000000000
       157        16  PRO       HD2            -9.6097950494       -5.0829910080      -12.4343713178  PROA      16              0.0000000000
       158        16  PRO       CA             -8.1200000000       -6.8030000000      -14.6720000000  PROA      16             98.5300000000
       159        16  PRO       HA             -7.4679923667       -7.5852653821      -14.3177936116  PROA      16              0.0000000000
       160        16  PRO       CB             -9.6090000000       -7.1600000000      -14.6670000000  PROA      16             98.4600000000
       161        16  PRO       HB1            -9.8250645218       -7.9393165505      -13.9053869382  PROA      16              0.0000000000
       162        16  PRO       HB2            -9.9282646057       -7.5335033886      -15.6633121747  PROA      16              0.0000000000
       163        16  PRO       CG            -10.3070000000       -5.8820000000      -14.3310000000  PROA      16             97.7400000000
       164        16  PRO       HG1           -10.5893369314       -5.3492651333      -15.2641527710  PROA      16              0.0000000000
       165        16  PRO       HG2           -11.2279465111       -6.0967022879      -13.7478575420  PROA      16              0.0000000000
       166        16  PRO       C              -7.6380000000       -6.4970000000      -16.0880000000  PROA      16             98.6700000000
       167        16  PRO       O              -7.6380000000       -5.3370000000      -16.5070000000  PROA      16             98.6400000000
       168        17  GLY       N              -7.1080000000       -7.5310000000      -16.8920000000  PROA      17             98.5200000000
       169        17  GLY       HN             -6.9850083259       -8.4425987215      -16.5112131477  PROA      17              0.0000000000
       170        17  GLY       CA             -6.7000000000       -7.4130000000      -18.2830000000  PROA      17             98.5100000000
       171        17  GLY       HA1            -6.2440241019       -8.3478329745      -18.5736247726  PROA      17              0.0000000000
       172        17  GLY       HA2            -5.9798019737       -6.6109546095      -18.3487834531  PROA      17              0.0000000000
       173        17  GLY       C              -7.8550000000       -7.1160000000      -19.2200000000  PROA      17             98.6500000000
       174        17  GLY       O              -9.0200000000       -7.2650000000      -18.8450000000  PROA      17             98.6300000000
       175        18  ASP       N              -7.6760000000       -6.6720000000      -20.2520000000  PROA      18             98.5500000000
       176        18  ASP       HN             -6.7530678427       -6.4049498080      -20.5091734494  PROA      18              0.0000000000
       177        18  ASP       CA             -8.6560000000       -6.4260000000      -21.3050000000  PROA      18             98.5200000000
       178        18  ASP       HA             -9.4795812017       -5.8761506282      -20.8742511697  PROA      18              0.0000000000
       179        18  ASP       CB             -8.0260000000       -5.6300000000      -22.4500000000  PROA      18             98.3500000000
       180        18  ASP       HB1            -8.7217269358       -5.6337767318      -23.3158061068  PROA      18              0.0000000000
       181        18  ASP       HB2            -7.0730832906       -6.1181880727      -22.7454532081  PROA      18              0.0000000000
       182        18  ASP       CG             -7.7310000000       -4.1880000000      -22.0780000000  PROA      18             97.0200000000
       183        18  ASP       OD1            -8.3270000000       -3.6740000000      -21.1080000000  PROA      18             95.9400000000
       184        18  ASP       OD2            -6.8970000000       -3.5580000000      -22.7640000000  PROA      18             95.5900000000
       185        18  ASP       C              -9.2360000000       -7.7360000000      -21.8330000000  PROA      18             98.6300000000
       186        18  ASP       O              -8.5400000000       -8.7520000000      -21.8870000000  PROA      18             98.5700000000
       187        19  PRO       N             -10.7300000000       -7.8150000000      -21.9020000000  PROA      19             98.2300000000
       188        19  PRO       CD            -11.5420000000       -6.7260000000      -21.6610000000  PROA      19             96.1500000000
       189        19  PRO       HD1           -11.4214058334       -5.9741498828      -22.4688909778  PROA      19              0.0000000000
       190        19  PRO       HD2           -11.2899986433       -6.2721290210      -20.6796713933  PROA      19              0.0000000000
       191        19  PRO       CA            -11.4030000000       -9.0130000000      -22.4090000000  PROA      19             98.0300000000
       192        19  PRO       HA            -11.1561921706       -9.8686648171      -21.8011628524  PROA      19              0.0000000000
       193        19  PRO       CB            -12.8820000000       -8.6200000000      -22.3900000000  PROA      19             97.8200000000
       194        19  PRO       HB1           -13.4870061557       -9.3877429083      -21.8621555966  PROA      19              0.0000000000
       195        19  PRO       HB2           -13.2721819592       -8.5037925578      -23.4236030210  PROA      19              0.0000000000
       196        19  PRO       CG            -12.9230000000       -7.3170000000      -21.6580000000  PROA      19             96.4700000000
       197        19  PRO       HG1           -13.6316965859       -6.6239121951      -22.1596728999  PROA      19              0.0000000000
       198        19  PRO       HG2           -13.2613936330       -7.4813526055      -20.6126411024  PROA      19              0.0000000000
       199        19  PRO       C             -10.9570000000       -9.3870000000      -23.8200000000  PROA      19             98.0700000000
       200        19  PRO       OT1           -10.0938813861       -8.6595661427      -24.3798805601  PROA      19              0.0000000000
       201        19  PRO       OT2           -11.4744233108      -10.4043218469      -24.3537877643  PROA      19              0.0000000000
