Title
  161
    1GLY      N    1   5.614   3.354   3.730  0.7873 -0.0264 -0.2231
    1GLY    HT1    2   5.596   3.393   3.635 -0.5046 -0.3452 -0.1307
    1GLY    HT2    3   5.583   3.419   3.805 -1.9626 -0.8561 -0.4929
    1GLY    HT3    4   5.560   3.266   3.744 -1.8710  1.3792 -0.9518
    1GLY     CA    5   5.761   3.329   3.754 -0.4806 -0.3098 -0.2894
    1GLY    HA1    6   5.779   3.234   3.705 -0.2964 -0.1780 -0.4776
    1GLY    HA2    7   5.776   3.331   3.860  0.6424 -0.0376 -0.4445
    1GLY      C    8   5.857   3.429   3.694 -0.6045  0.1368  0.0807
    1GLY      O    9   5.809   3.537   3.659 -0.0697  0.2852 -0.0168
    2PRO      N   10   5.984   3.387   3.691 -0.6764 -0.1264 -0.3995
    2PRO     CD   11   6.038   3.268   3.761 -0.1807 -0.0130  0.0755
    2PRO    HD1   12   6.023   3.183   3.692 -0.3758 -0.0510  0.1652
    2PRO    HD2   13   6.007   3.248   3.866  1.0084  1.1990  0.6853
    2PRO     CA   14   6.087   3.454   3.613 -0.2900  0.4824  0.2349
    2PRO     HA   15   6.097   3.549   3.663  0.7064  0.0613  0.8808
    2PRO     CB   16   6.216   3.370   3.634 -0.1104  0.3796  0.8957
    2PRO    HB1   17   6.304   3.436   3.620 -0.3019  0.2513 -1.1401
    2PRO    HB2   18   6.233   3.294   3.555  1.5165  0.6041  1.0048
    2PRO     CG   19   6.190   3.305   3.758 -0.9312  0.5251 -0.2651
    2PRO    HG1   20   6.259   3.221   3.779  0.1352  1.4531 -0.0159
    2PRO    HG2   21   6.211   3.371   3.845 -1.2376  1.3231 -0.7851
    2PRO      C   22   6.057   3.487   3.469 -0.0671  0.3069 -0.8116
    2PRO      O   23   6.000   3.401   3.398  0.3013  0.0196 -0.7303
    3GLY      N   24   6.106   3.600   3.416  0.0412  0.0951  0.2329
    3GLY     HN   25   6.170   3.657   3.466  1.2217 -0.4888 -0.5540
    3GLY     CA   26   6.098   3.635   3.277 -0.0620  0.0278  0.1009
    3GLY    HA1   27   6.120   3.552   3.212 -0.2843  0.5573 -0.6799
    3GLY    HA2   28   6.151   3.727   3.256 -1.5173  1.0385  0.6272
    3GLY      C   29   5.961   3.684   3.240 -0.6993  0.7091  0.3807
    3GLY      O   30   5.864   3.676   3.315  0.3974 -0.6341  0.2286
    4ASP      N   31   5.948   3.721   3.107 -1.1030 -0.1378 -0.7591
    4ASP     HN   32   6.030   3.723   3.051  0.3849  0.5899  1.3171
    4ASP     CA   33   5.823   3.752   3.042  0.1191  0.7321 -0.9369
    4ASP     HA   34   5.776   3.804   3.124  1.9100 -1.2711  1.5245
    4ASP     CB   35   5.851   3.840   2.915 -0.6481  0.0351  0.3351
    4ASP    HB1   36   5.766   3.835   2.843 -0.5357  0.3803  0.1782
    4ASP    HB2   37   5.948   3.805   2.873 -1.0420 -1.7674  0.8483
    4ASP     CG   38   5.868   3.982   2.961  0.4951  0.0659 -0.0072
    4ASP    OD1   39   5.812   4.022   3.069 -0.2054 -0.4342 -0.2863
    4ASP    OD2   40   5.926   4.070   2.889  0.7459 -0.3964  0.8357
    4ASP      C   41   5.738   3.624   3.017  0.0755 -0.0464  0.0002
    4ASP      O   42   5.792   3.527   2.968 -0.2119  0.3704 -1.0345
    5PRO      N   43   5.604   3.622   3.047  0.8498 -0.0266 -0.3509
    5PRO     CD   44   5.526   3.736   3.102  0.0076  1.0804  0.0656
    5PRO    HD1   45   5.540   3.819   3.030  0.6611 -0.0247 -1.1308
    5PRO    HD2   46   5.573   3.766   3.198  0.4268 -1.5935  0.7714
    5PRO     CA   47   5.513   3.516   2.986  0.5459 -0.0722  0.4256
    5PRO     HA   48   5.539   3.425   3.038  1.1769 -0.2437 -0.1698
    5PRO     CB   49   5.375   3.579   3.000  0.4284 -0.6024  0.0108
    5PRO    HB1   50   5.292   3.509   3.024 -0.3808 -0.5442 -2.3075
    5PRO    HB2   51   5.353   3.638   2.908  0.4322 -0.4529  0.1063
    5PRO     CG   52   5.389   3.681   3.112 -1.0931 -0.5694 -0.8017
    5PRO    HG1   53   5.309   3.758   3.118 -0.6372 -0.2085  1.4776
    5PRO    HG2   54   5.400   3.628   3.209  1.2363 -0.1420 -0.7780
    5PRO      C   55   5.532   3.465   2.844 -0.2260  0.5126 -0.0865
    5PRO      O   56   5.564   3.545   2.752  0.2675  0.3620 -0.3812
    6GLY      N   57   5.518   3.333   2.827  0.4555 -0.2378  0.6177
    6GLY     HN   58   5.476   3.283   2.902 -3.0967  2.2927  0.5188
    6GLY     CA   59   5.540   3.258   2.701 -0.0773  0.1572  0.1482
    6GLY    HA1   60   5.533   3.153   2.728 -0.3809 -0.5917 -2.5538
    6GLY    HA2   61   5.633   3.293   2.659 -0.9505  0.9156 -1.2052
    6GLY      C   62   5.439   3.289   2.596 -0.4835  0.4508 -0.2066
    6GLY      O   63   5.352   3.378   2.612 -0.4423  0.4166 -0.3151
    7SER      N   64   5.450   3.210   2.487 -0.6474 -0.2341 -0.0661
    7SER     HN   65   5.528   3.147   2.486 -0.1985  0.2439  1.4442
    7SER     CA   66   5.352   3.203   2.379 -0.8896 -0.1211  0.6693
    7SER     HA   67   5.331   3.306   2.358 -1.2317  0.1340  2.1406
    7SER     CB   68   5.387   3.132   2.250 -0.4538 -0.1044  0.4818
    7SER    HB1   69   5.406   3.026   2.278 -2.9321 -1.0346 -1.0123
    7SER    HB2   70   5.485   3.175   2.223  0.6285 -2.6133  0.1290
    7SER     OG   71   5.291   3.137   2.138 -0.0951 -0.5352 -0.2030
    7SER    HG1   72   5.301   3.227   2.105 -1.0654 -0.4782 -0.3570
    7SER      C   73   5.228   3.142   2.427  0.6642  0.2507 -0.0362
    7SER      O   74   5.230   3.033   2.484  0.1133  0.2499 -0.0066
    8GLY      N   75   5.113   3.209   2.401 -0.6461  0.7007  0.3642
    8GLY     HN   76   5.123   3.291   2.345  2.5809  0.7226  0.7401
    8GLY     CA   77   4.980   3.172   2.442  0.7795  0.3000 -0.1365
    8GLY    HA1   78   4.960   3.074   2.402 -0.8659  0.2613  0.7075
    8GLY    HA2   79   4.916   3.256   2.420 -1.3384 -1.2277 -0.0653
    8GLY      C   80   4.964   3.150   2.590 -0.7109  0.6938 -0.3789
    8GLY      O   81   5.038   3.192   2.675 -0.3457 -0.0162 -0.4088
    9ASN      N   82   4.854   3.082   2.638  0.1350  0.2491  0.5052
    9ASN     HN   83   4.793   3.039   2.572  1.9150 -0.5582 -0.7089
    9ASN     CA   84   4.828   3.044   2.775 -0.7417  0.3418 -0.6066
    9ASN     HA   85   4.914   2.999   2.823 -0.5244  0.4504 -0.8968
    9ASN     CB   86   4.775   3.165   2.857  0.2316 -0.4310 -0.2707
    9ASN    HB1   87   4.683   3.207   2.809  0.9482  2.3670  0.6132
    9ASN    HB2   88   4.845   3.251   2.853 -0.1903  0.0851  1.9088
    9ASN     CG   89   4.738   3.147   3.005 -0.4256  0.2218  0.6229
    9ASN    OD1   90   4.753   3.044   3.060  0.1053 -0.1155 -0.1733
    9ASN    ND2   91   4.691   3.258   3.073  0.2600 -0.4509  0.0455
    9ASN   HD21   92   4.658   3.239   3.166 -1.2299 -1.3707 -0.6351
    9ASN   HD22   93   4.665   3.339   3.021 -1.5565 -1.2923 -0.4401
    9ASN      C   94   4.721   2.930   2.772 -1.1926  0.1215 -0.5201
    9ASN      O   95   4.607   2.955   2.799 -0.2887 -0.2480 -0.2698
   10PRO      N   96   4.759   2.806   2.756 -0.4492  0.3515  0.0733
   10PRO     CD   97   4.881   2.773   2.686  0.6301 -0.9049  0.1205
   10PRO    HD1   98   4.970   2.824   2.729 -0.0929 -0.8436  1.6227
   10PRO    HD2   99   4.857   2.812   2.585 -2.2017 -0.3286  0.9296
   10PRO     CA  100   4.671   2.684   2.772  0.4817 -0.3022 -0.1597
   10PRO     HA  101   4.571   2.699   2.734 -0.5779 -1.5938  1.9158
   10PRO     CB  102   4.745   2.572   2.689 -0.1715  0.0197 -0.0718
   10PRO    HB1  103   4.704   2.570   2.585 -0.5892 -1.7144  0.0839
   10PRO    HB2  104   4.728   2.469   2.727  0.1103 -0.4739 -1.2418
   10PRO     CG  105   4.893   2.617   2.684 -0.3059  0.2885  0.1733
   10PRO    HG1  106   4.960   2.586   2.767 -1.4467  0.9760  1.3787
   10PRO    HG2  107   4.951   2.578   2.598  0.3039  0.7276  0.3845
   10PRO      C  108   4.647   2.647   2.919  0.5320 -0.5335 -0.8574
   10PRO      O  109   4.608   2.532   2.951  0.1821 -0.5703  0.8264
   11GLY      N  110   4.648   2.748   3.013  0.0990 -0.0928 -0.0512
   11GLY     HN  111   4.667   2.838   2.976 -0.1232 -0.5756 -1.3806
   11GLY     CA  112   4.647   2.725   3.153 -0.0746 -0.1101 -0.7168
   11GLY    HA1  113   4.552   2.677   3.171  0.6590 -1.1359  0.5518
   11GLY    HA2  114   4.658   2.824   3.193  0.0197 -0.0267 -0.9440
   11GLY      C  115   4.758   2.640   3.208  0.0391  0.4003  0.0399
   11GLY      O  116   4.875   2.670   3.182 -0.0666 -0.5803  0.3535
   12SER      N  117   4.728   2.531   3.280  0.0605  0.7958  0.5135
   12SER     HN  118   4.633   2.503   3.294  0.0035  0.8411  0.2285
   12SER     CA  119   4.829   2.431   3.321 -0.0523 -0.4846  0.9401
   12SER     HA  120   4.914   2.484   3.361  0.3768  1.9783 -2.7325
   12SER     CB  121   4.768   2.345   3.438 -0.0558  0.5306  0.7702
   12SER    HB1  122   4.851   2.278   3.466 -1.1456 -0.3668  1.9838
   12SER    HB2  123   4.687   2.278   3.404  1.1642 -0.4675 -0.2312
   12SER     OG  124   4.728   2.432   3.549  0.1353  0.3515  0.0485
   12SER    HG1  125   4.667   2.374   3.597  1.0471  0.7853  1.8239
   12SER      C  126   4.868   2.342   3.207  0.3418 -0.2056 -0.0596
   12SER      O  127   4.955   2.256   3.216 -0.3571  0.0649  0.2035
   13GLY      N  128   4.805   2.354   3.089  0.1787 -0.0022 -0.6026
   13GLY     HN  129   4.733   2.423   3.083  0.0214  0.0054  1.0362
   13GLY     CA  130   4.808   2.266   2.977 -0.0981  0.2702 -0.0230
   13GLY    HA1  131   4.910   2.240   2.953 -0.2967  1.5327 -2.5021
   13GLY    HA2  132   4.761   2.318   2.895  0.6900  0.4845 -0.3478
   13GLY      C  133   4.739   2.137   2.989  1.2262 -0.6321 -0.3780
   13GLY      O  134   4.680   2.102   3.091  0.4259  0.2287 -0.0197
   14ASP      N  135   4.742   2.056   2.883 -0.3076 -0.1969 -0.8995
   14ASP     HN  136   4.785   2.078   2.796  1.2144 -0.1051 -0.1545
   14ASP     CA  137   4.678   1.924   2.882  0.1373  0.1234 -0.3787
   14ASP     HA  138   4.571   1.935   2.890  0.2982  0.7839  0.9804
   14ASP     CB  139   4.712   1.868   2.745 -0.0589  0.4182 -0.1228
   14ASP    HB1  140   4.668   1.768   2.726 -0.6973  0.1513  2.3631
   14ASP    HB2  141   4.823   1.863   2.744 -0.0897 -0.3903  0.0087
   14ASP     CG  142   4.661   1.955   2.631  0.1706 -0.3435  0.3340
   14ASP    OD1  143   4.553   2.018   2.636 -0.0404 -0.3743 -0.5712
   14ASP    OD2  144   4.726   1.952   2.521 -0.2864 -0.7030  0.9719
   14ASP      C  145   4.730   1.832   2.990 -0.1682  0.1891 -0.5154
   14ASP      O  146   4.845   1.844   3.029 -0.2429 -0.5731 -0.1135
   15PRO      N  147   4.653   1.741   3.038  0.1211 -0.5020 -0.3155
   15PRO     CD  148   4.513   1.714   3.011  0.3008  0.3515 -0.4481
   15PRO    HD1  149   4.488   1.708   2.903 -1.0153 -0.5293 -0.1116
   15PRO    HD2  150   4.453   1.796   3.055  0.3206  0.3952 -0.5032
   15PRO     CA  151   4.685   1.669   3.158  0.8496  0.4015 -0.7370
   15PRO     HA  152   4.718   1.743   3.229  0.1706 -1.1197  1.2632
   15PRO     CB  153   4.549   1.612   3.208 -0.2954 -1.0252  0.6258
   15PRO    HB1  154   4.485   1.683   3.266  0.0018 -1.6131  1.6995
   15PRO    HB2  155   4.565   1.518   3.265  1.1428 -0.4497  1.2080
   15PRO     CG  156   4.477   1.582   3.079  0.7407  0.0127  0.0059
   15PRO    HG1  157   4.504   1.494   3.018  2.1939 -0.7258  1.6146
   15PRO    HG2  158   4.368   1.584   3.099  0.3670 -0.9510 -1.7896
   15PRO      C  159   4.784   1.562   3.138  0.1928  0.3341  0.0297
   15PRO    OT1  160   4.808   1.512   3.023  0.6674  0.1663  0.0381
   15PRO    OT2  161   4.863   1.526   3.228 -0.1326 -0.3087 -0.1876
   8.29361   7.81929   6.77170   0.00000   0.00000  -2.76453   0.00000  -2.76453  -3.90965
