Title t= 285.00000 step= 142500
29212
    1ASP      N    1   3.135   1.528   2.528
    1ASP    HT1    2   3.097   1.432   2.513
    1ASP    HT2    3   3.158   1.539   2.629
    1ASP    HT3    4   3.212   1.541   2.460
    1ASP     CA    5   3.033   1.629   2.481
    1ASP     HA    6   3.081   1.724   2.499
    1ASP     CB    7   2.998   1.603   2.333
    1ASP    HB1    8   2.922   1.680   2.306
    1ASP    HB2    9   2.967   1.501   2.301
    1ASP     CG   10   3.115   1.643   2.248
    1ASP    OD1   11   3.232   1.619   2.299
    1ASP    OD2   12   3.103   1.687   2.132
    1ASP      C   13   2.913   1.622   2.574
    1ASP      O   14   2.904   1.693   2.677
    2GLY      N   15   2.815   1.539   2.548
    2GLY     HN   16   2.812   1.475   2.472
    2GLY     CA   17   2.694   1.537   2.628
    2GLY    HA1   18   2.701   1.593   2.720
    2GLY    HA2   19   2.672   1.432   2.639
    2GLY      C   20   2.575   1.593   2.559
    2GLY      O   21   2.580   1.699   2.496
    3ASP      N   22   2.461   1.519   2.570
    3ASP     HN   23   2.458   1.427   2.609
    3ASP     CA   24   2.340   1.563   2.505
    3ASP     HA   25   2.363   1.573   2.400
    3ASP     CB   26   2.224   1.457   2.533
    3ASP    HB1   27   2.119   1.488   2.517
    3ASP    HB2   28   2.227   1.425   2.639
    3ASP     CG   29   2.244   1.335   2.439
    3ASP    OD1   30   2.171   1.235   2.464
    3ASP    OD2   31   2.333   1.331   2.357
    3ASP      C   32   2.287   1.699   2.556
    3ASP      O   33   2.305   1.739   2.669
    4GLY      N   34   2.217   1.768   2.465
    4GLY     HN   35   2.205   1.730   2.374
    4GLY     CA   36   2.143   1.894   2.489
    4GLY    HA1   37   2.122   1.947   2.398
    4GLY    HA2   38   2.213   1.947   2.553
    4GLY      C   39   2.013   1.887   2.568
    4GLY      O   40   1.978   1.788   2.629
    5PRO      N   41   1.946   1.999   2.580
    5PRO     CD   42   2.002   2.133   2.548
    5PRO    HD1   43   2.003   2.164   2.442
    5PRO    HD2   44   2.102   2.146   2.595
    5PRO     CA   45   1.809   2.015   2.642
    5PRO     HA   46   1.822   1.987   2.746
    5PRO     CB   47   1.774   2.161   2.635
    5PRO    HB1   48   1.705   2.192   2.716
    5PRO    HB2   49   1.734   2.187   2.535
    5PRO     CG   50   1.909   2.230   2.630
    5PRO    HG1   51   1.905   2.332   2.584
    5PRO    HG2   52   1.952   2.242   2.732
    5PRO      C   53   1.697   1.924   2.586
    5PRO      O   54   1.669   1.916   2.464
    6GLY      N   55   1.621   1.861   2.675
    6GLY     HN   56   1.648   1.863   2.771
    6GLY     CA   57   1.494   1.791   2.632
    6GLY    HA1   58   1.487   1.699   2.688
    6GLY    HA2   59   1.475   1.790   2.526
    6GLY      C   60   1.378   1.869   2.691
    6GLY      O   61   1.388   1.987   2.723
    7ASP      N   62   1.254   1.804   2.700
    7ASP     HN   63   1.237   1.712   2.664
    7ASP     CA   64   1.132   1.874   2.753
    7ASP     HA   65   1.119   1.966   2.698
    7ASP     CB   66   0.996   1.800   2.727
    7ASP    HB1   67   0.908   1.851   2.771
    7ASP    HB2   68   1.005   1.700   2.775
    7ASP     CG   69   0.968   1.796   2.581
    7ASP    OD1   70   0.870   1.732   2.539
    7ASP    OD2   71   1.027   1.882   2.509
    7ASP      C   72   1.150   1.898   2.903
    7ASP      O   73   1.199   1.807   2.974
    8PRO      N   74   1.115   2.019   2.949
    8PRO     CD   75   1.053   2.125   2.868
    8PRO    HD1   76   0.964   2.085   2.814
    8PRO    HD2   77   1.126   2.161   2.793
    8PRO     CA   78   1.112   2.051   3.094
    8PRO     HA   79   1.207   2.029   3.139
    8PRO     CB   80   1.088   2.209   3.093
    8PRO    HB1   81   1.179   2.272   3.091
    8PRO    HB2   82   1.028   2.236   3.183
    8PRO     CG   83   1.018   2.240   2.960
    8PRO    HG1   84   0.909   2.236   2.981
    8PRO    HG2   85   1.048   2.340   2.923
    8PRO      C   86   0.993   1.974   3.156
    8PRO      O   87   0.895   1.955   3.081
    9GLY      N   88   1.006   1.922   3.275
    9GLY     HN   89   1.094   1.941   3.319
    9GLY     CA   90   0.902   1.853   3.352
    9GLY    HA1   91   0.951   1.783   3.417
    9GLY    HA2   92   0.830   1.808   3.285
    9GLY      C   93   0.816   1.950   3.438
    9GLY      O   94   0.793   2.068   3.399
   10ASP      N   95   0.780   1.896   3.559
   10ASP     HN   96   0.795   1.800   3.580
   10ASP     CA   97   0.718   1.967   3.672
   10ASP     HA   98   0.636   2.019   3.624
   10ASP     CB   99   0.676   1.870   3.787
   10ASP    HB1  100   0.638   1.923   3.876
   10ASP    HB2  101   0.761   1.805   3.818
   10ASP     CG  102   0.563   1.773   3.739
   10ASP    OD1  103   0.522   1.778   3.616
   10ASP    OD2  104   0.516   1.691   3.822
   10ASP      C  105   0.815   2.076   3.720
   10ASP      O  106   0.939   2.066   3.718
   11GLY      N  107   0.761   2.194   3.774
   11GLY     HN  108   0.662   2.198   3.781
   11GLY     CA  109   0.842   2.303   3.839
   11GLY    HA1  110   0.923   2.266   3.900
   11GLY    HA2  111   0.776   2.359   3.903
   11GLY      C  112   0.896   2.410   3.746
   11GLY    OT1  113   0.813   2.474   3.677
   11GLY    OT2  114   1.018   2.435   3.748
   12LIT    LIT  115   1.083   0.095   1.733
   13LIT    LIT  116   6.598   0.971   1.042
   14LIT    LIT  117   0.098   5.266   0.040
   15LIT    LIT  118   0.796   5.653   2.525
   16LIT    LIT  119   0.984   2.584   3.628
   17LIT    LIT  120   4.855   6.052   2.779
   18LIT    LIT  121   2.670   2.266   3.971
   19LIT    LIT  122   1.661   3.792   1.129
   20LIT    LIT  123   2.621   5.042   0.184
   21LIT    LIT  124   0.580   6.299   4.133
   22LIT    LIT  125   4.918   0.975   4.804
   23LIT    LIT  126   3.423   6.731   1.886
   24LIT    LIT  127   5.649   4.766   5.180
   25LIT    LIT  128   0.321   2.587   2.088
   26LIT    LIT  129   0.425   1.615   3.661
   27LIT    LIT  130   2.301   0.138   2.845
   28LIT    LIT  131   1.307   6.244   5.451
   29LIT    LIT  132   5.662   2.228   3.734
   30LIT    LIT  133   0.283   0.849   2.011
   31LIT    LIT  134   4.735   2.158   2.256
   32LIT    LIT  135   7.047   5.785   5.621
   33LIT    LIT  136   3.219   4.765   2.884
   34LIT    LIT  137   6.384   1.445   4.260
   35LIT    LIT  138   1.106   0.923   2.268
   36LIT    LIT  139   7.110   6.135   2.756
   37LIT    LIT  140   2.739   6.220   3.380
   38LIT    LIT  141   0.255   1.114   0.724
   39LIT    LIT  142   3.286   1.767   2.158
   40LIT    LIT  143   2.120   4.743   2.080
   41LIT    LIT  144   1.663   1.498   5.068
   42LIT    LIT  145   2.341   1.153   2.282
   43CLA    CLA  146   2.195   4.749   2.296
   44CLA    CLA  147   1.970   0.867   4.450
   45CLA    CLA  148   2.270   3.607   3.694
   46CLA    CLA  149   5.863   3.725   0.413
   47CLA    CLA  150   0.318   1.047   3.231
   48CLA    CLA  151   4.056   6.228   1.716
   49CLA    CLA  152   1.937   4.962   3.723
   50CLA    CLA  153   1.010   2.817   2.541
   51CLA    CLA  154   5.418   1.158   2.370
   52CLA    CLA  155   2.843   4.562   3.485
   53CLA    CLA  156   2.247   1.927   3.797
   54CLA    CLA  157   3.024   1.647   0.576
   55CLA    CLA  158   5.749   0.310   4.500
   56CLA    CLA  159   7.076   1.527   4.370
   57CLA    CLA  160   4.363   2.077   5.325
   58CLA    CLA  161   3.067   4.644   2.771
   59CLA    CLA  162   4.545   0.520   2.426
   60CLA    CLA  163   2.914   0.426   3.130
   61CLA    CLA  164   2.139   0.407   1.982
   62CLA    CLA  165   2.518   0.697   2.924
   63CLA    CLA  166   2.817   5.217   4.690
   64CLA    CLA  167   3.543   3.743   0.432
   65CLA    CLA  168   5.976   4.609   4.036
   66CLA    CLA  169   0.543   4.929   2.520
   67CLA    CLA  170   6.587   1.114   0.435
   68CLA    CLA  171   4.944   3.736   4.660
   69CLA    CLA  172   3.008   4.980   3.257
   70TIP3   OH2  173   2.936   5.318   0.144
   70TIP3    H1  174   3.014   5.326   0.088
   70TIP3    H2  175   2.866   5.295   0.084
   71TIP3   OH2  176   2.351   1.335   1.416
   71TIP3    H1  177   2.408   1.351   1.340
   71TIP3    H2  178   2.262   1.338   1.380
   72TIP3   OH2  179   2.041   5.887   4.002
   72TIP3    H1  180   2.031   5.791   4.003
   72TIP3    H2  181   2.023   5.912   3.912
   73TIP3   OH2  182   5.860   4.126   4.103
   73TIP3    H1  183   5.944   4.169   4.119
   73TIP3    H2  184   5.883   4.035   4.083
   74TIP3   OH2  185   3.449   4.745   5.480
   74TIP3    H1  186   3.449   4.838   5.504
   74TIP3    H2  187   3.363   4.731   5.440
   75TIP3   OH2  188   5.290   2.687   1.695
   75TIP3    H1  189   5.243   2.723   1.620
   75TIP3    H2  190   5.345   2.759   1.726
   76TIP3   OH2  191   3.160   5.811   5.000
   76TIP3    H1  192   3.172   5.724   4.959
   76TIP3    H2  193   3.067   5.815   5.020
   77TIP3   OH2  194   3.602   2.082   1.141
   77TIP3    H1  195   3.617   2.112   1.052
   77TIP3    H2  196   3.573   1.992   1.132
   78TIP3   OH2  197   1.187   3.908   3.188
   78TIP3    H1  198   1.180   3.944   3.277
   78TIP3    H2  199   1.156   3.818   3.197
   79TIP3   OH2  200   3.440   2.032   1.720
   79TIP3    H1  201   3.392   2.078   1.790
   79TIP3    H2  202   3.376   2.025   1.648
   80TIP3   OH2  203   5.052   4.698   0.035
   80TIP3    H1  204   4.996   4.710   0.112
   80TIP3    H2  205   5.087   4.609   0.044
   81TIP3   OH2  206   7.160   4.177   2.003
   81TIP3    H1  207   7.099   4.139   1.940
   81TIP3    H2  208   7.119   4.259   2.031
   82TIP3   OH2  209   3.442   4.996   5.122
   82TIP3    H1  210   3.451   5.069   5.061
   82TIP3    H2  211   3.357   4.957   5.101
   83TIP3   OH2  212   2.854   4.754   5.427
   83TIP3    H1  213   2.947   4.733   5.437
   83TIP3    H2  214   2.842   4.764   5.332
   84TIP3   OH2  215   3.839   1.958   3.821
   84TIP3    H1  216   3.885   2.036   3.851
   84TIP3    H2  217   3.826   1.972   3.727
   85TIP3   OH2  218   0.763   1.566   2.131
   85TIP3    H1  219   0.794   1.477   2.113
   85TIP3    H2  220   0.765   1.573   2.227
   86TIP3   OH2  221   4.006   4.360   5.686
   86TIP3    H1  222   4.089   4.313   5.683
   86TIP3    H2  223   4.029   4.451   5.664
   87TIP3   OH2  224   5.805   6.521   2.524
   87TIP3    H1  225   5.881   6.462   2.524
   87TIP3    H2  226   5.821   6.581   2.597
   88TIP3   OH2  227   2.775   5.390   5.231
   88TIP3    H1  228   2.699   5.373   5.176
   88TIP3    H2  229   2.739   5.400   5.319
   89TIP3   OH2  230   0.164   5.330   0.857
   89TIP3    H1  231   0.228   5.269   0.821
   89TIP3    H2  232   0.079   5.294   0.832
   90TIP3   OH2  233   3.727   3.177   2.565
   90TIP3    H1  234   3.729   3.196   2.658
   90TIP3    H2  235   3.634   3.175   2.542
   91TIP3   OH2  236   7.190   0.673   0.992
   91TIP3    H1  237   7.152   0.751   1.032
   91TIP3    H2  238   7.129   0.602   1.015
   92TIP3   OH2  239   6.050   2.870   5.402
   92TIP3    H1  240   6.002   2.828   5.474
   92TIP3    H2  241   6.058   2.802   5.336
   93TIP3   OH2  242   3.056   1.836   4.304
   93TIP3    H1  243   3.064   1.920   4.351
   93TIP3    H2  244   2.962   1.819   4.302
   94TIP3   OH2  245   7.102   2.334   5.137
   94TIP3    H1  246   7.162   2.374   5.199
   94TIP3    H2  247   7.158   2.290   5.074
   95TIP3   OH2  248   6.697   1.420   0.445
   95TIP3    H1  249   6.680   1.441   0.536
   95TIP3    H2  250   6.656   1.334   0.433
   96TIP3   OH2  251   6.511   4.071   3.683
   96TIP3    H1  252   6.596   4.072   3.638
   96TIP3    H2  253   6.506   3.984   3.722
   97TIP3   OH2  254   1.190   4.549   4.340
   97TIP3    H1  255   1.202   4.501   4.258
   97TIP3    H2  256   1.103   4.588   4.333
   98TIP3   OH2  257   0.016   2.999   1.508
   98TIP3    H1  258   0.089   3.056   1.532
   98TIP3    H2  259  -0.059   3.032   1.558
   99TIP3   OH2  260   2.120   3.497   4.205
   99TIP3    H1  261   2.144   3.504   4.298
   99TIP3    H2  262   2.029   3.469   4.205
  100TIP3   OH2  263   2.961   4.182   4.964
  100TIP3    H1  264   2.874   4.178   4.924
  100TIP3    H2  265   2.948   4.229   5.046
  101TIP3   OH2  266   6.426   3.868   2.178
  101TIP3    H1  267   6.411   3.845   2.087
  101TIP3    H2  268   6.349   3.834   2.224
  102TIP3   OH2  269   7.087   2.183   0.728
  102TIP3    H1  270   7.079   2.226   0.813
  102TIP3    H2  271   7.088   2.255   0.665
  103TIP3   OH2  272   6.778   0.743   1.552
  103TIP3    H1  273   6.854   0.734   1.495
  103TIP3    H2  274   6.738   0.656   1.553
  104TIP3   OH2  275   0.058   2.157   4.185
  104TIP3    H1  276   0.043   2.065   4.202
  104TIP3    H2  277   0.103   2.189   4.263
  105TIP3   OH2  278   4.151   6.517   1.885
  105TIP3    H1  279   4.135   6.423   1.885
  105TIP3    H2  280   4.186   6.536   1.972
  106TIP3   OH2  281   4.728   6.671   4.858
  106TIP3    H1  282   4.664   6.741   4.842
  106TIP3    H2  283   4.736   6.627   4.774
  107TIP3   OH2  284   7.079   6.411   4.829
  107TIP3    H1  285   7.026   6.483   4.864
  107TIP3    H2  286   7.146   6.396   4.896
  108TIP3   OH2  287   2.118   4.871   1.618
  108TIP3    H1  288   2.067   4.929   1.561
  108TIP3    H2  289   2.198   4.920   1.637
  109TIP3   OH2  290   6.275   2.513   4.990
  109TIP3    H1  291   6.354   2.544   4.948
  109TIP3    H2  292   6.282   2.542   5.081
  110TIP3   OH2  293   6.635   6.393   4.016
  110TIP3    H1  294   6.683   6.385   3.933
  110TIP3    H2  295   6.698   6.434   4.075
  111TIP3   OH2  296   5.976   1.956   0.189
  111TIP3    H1  297   6.042   1.893   0.219
  111TIP3    H2  298   5.932   1.984   0.270
  112TIP3   OH2  299   4.845   5.650   1.975
  112TIP3    H1  300   4.878   5.587   2.039
  112TIP3    H2  301   4.915   5.715   1.968
  113TIP3   OH2  302   1.673   6.250   1.909
  113TIP3    H1  303   1.634   6.185   1.851
  113TIP3    H2  304   1.599   6.287   1.958
  114TIP3   OH2  305   1.337   3.081   5.416
  114TIP3    H1  306   1.369   3.112   5.331
  114TIP3    H2  307   1.359   3.152   5.477
  115TIP3   OH2  308   1.295   5.936   2.404
  115TIP3    H1  309   1.300   5.970   2.315
  115TIP3    H2  310   1.367   5.978   2.451
  116TIP3   OH2  311   0.950   1.120   4.891
  116TIP3    H1  312   0.891   1.046   4.907
  116TIP3    H2  313   0.975   1.111   4.799
  117TIP3   OH2  314   5.076   5.697   2.345
  117TIP3    H1  315   5.171   5.690   2.336
  117TIP3    H2  316   5.056   5.789   2.326
  118TIP3   OH2  317   6.172   1.524   0.939
  118TIP3    H1  318   6.091   1.482   0.910
  118TIP3    H2  319   6.144   1.609   0.972
  119TIP3   OH2  320   2.940   2.301   2.413
  119TIP3    H1  321   2.940   2.283   2.507
  119TIP3    H2  322   2.865   2.359   2.398
  120TIP3   OH2  323   2.849   4.317   1.547
  120TIP3    H1  324   2.808   4.246   1.499
  120TIP3    H2  325   2.904   4.273   1.612
  121TIP3   OH2  326   0.320   4.276   5.698
  121TIP3    H1  327   0.265   4.290   5.620
  121TIP3    H2  328   0.267   4.309   5.771
  122TIP3   OH2  329   3.943   3.687   3.361
  122TIP3    H1  330   3.992   3.763   3.393
  122TIP3    H2  331   3.897   3.718   3.283
  123TIP3   OH2  332   7.113   4.752   0.883
  123TIP3    H1  333   7.063   4.680   0.921
  123TIP3    H2  334   7.157   4.714   0.807
  124TIP3   OH2  335   4.330   6.472   0.730
  124TIP3    H1  336   4.260   6.489   0.792
  124TIP3    H2  337   4.314   6.533   0.658
  125TIP3   OH2  338   4.275   1.760   5.548
  125TIP3    H1  339   4.248   1.787   5.461
  125TIP3    H2  340   4.242   1.828   5.606
  126TIP3   OH2  341   1.519   5.558   2.376
  126TIP3    H1  342   1.548   5.648   2.361
  126TIP3    H2  343   1.597   5.513   2.410
  127TIP3   OH2  344   6.697   3.417   2.652
  127TIP3    H1  345   6.700   3.497   2.703
  127TIP3    H2  346   6.788   3.397   2.633
  128TIP3   OH2  347   3.692   5.562   0.202
  128TIP3    H1  348   3.713   5.472   0.226
  128TIP3    H2  349   3.712   5.567   0.109
  129TIP3   OH2  350   4.733   5.164   5.767
  129TIP3    H1  351   4.643   5.133   5.783
  129TIP3    H2  352   4.753   5.218   5.843
  130TIP3   OH2  353   5.823   6.205   2.180
  130TIP3    H1  354   5.762   6.135   2.201
  130TIP3    H2  355   5.866   6.226   2.263
  131TIP3   OH2  356   0.380   0.648   4.650
  131TIP3    H1  357   0.381   0.714   4.719
  131TIP3    H2  358   0.432   0.575   4.685
  132TIP3   OH2  359   4.672   1.867   3.249
  132TIP3    H1  360   4.666   1.801   3.180
  132TIP3    H2  361   4.740   1.834   3.308
  133TIP3   OH2  362   0.580   1.775   2.127
  133TIP3    H1  363   0.622   1.689   2.140
  133TIP3    H2  364   0.606   1.826   2.204
  134TIP3   OH2  365   4.468   3.009   4.888
  134TIP3    H1  366   4.394   3.055   4.929
  134TIP3    H2  367   4.475   3.050   4.801
  135TIP3   OH2  368   1.770   6.282   3.773
  135TIP3    H1  369   1.852   6.295   3.820
  135TIP3    H2  370   1.703   6.276   3.841
  136TIP3   OH2  371   1.370   4.155   3.290
  136TIP3    H1  372   1.283   4.143   3.327
  136TIP3    H2  373   1.397   4.067   3.262
  137TIP3   OH2  374   4.682   1.093   3.488
  137TIP3    H1  375   4.742   1.050   3.428
  137TIP3    H2  376   4.608   1.120   3.433
  138TIP3   OH2  377   5.403   1.760   1.013
  138TIP3    H1  378   5.395   1.847   0.974
  138TIP3    H2  379   5.498   1.744   1.017
  139TIP3   OH2  380   0.459   2.158   3.877
  139TIP3    H1  381   0.493   2.095   3.941
  139TIP3    H2  382   0.384   2.114   3.837
  140TIP3   OH2  383   3.324   4.031   3.676
  140TIP3    H1  384   3.331   4.018   3.770
  140TIP3    H2  385   3.377   3.959   3.639
  141TIP3   OH2  386   6.438   5.866   5.581
  141TIP3    H1  387   6.445   5.829   5.493
  141TIP3    H2  388   6.349   5.902   5.586
  142TIP3   OH2  389   0.327   5.455   2.720
  142TIP3    H1  390   0.344   5.450   2.814
  142TIP3    H2  391   0.278   5.375   2.701
  143TIP3   OH2  392   0.067   5.868   1.943
  143TIP3    H1  393  -0.012   5.818   1.965
  143TIP3    H2  394   0.114   5.812   1.881
  144TIP3   OH2  395   1.030   3.992   4.925
  144TIP3    H1  396   1.093   4.050   4.967
  144TIP3    H2  397   0.965   3.973   4.993
  145TIP3   OH2  398   5.824   4.351   3.746
  145TIP3    H1  399   5.745   4.351   3.692
  145TIP3    H2  400   5.793   4.376   3.833
  146TIP3   OH2  401  -0.019   5.548   0.609
  146TIP3    H1  402   0.063   5.598   0.603
  146TIP3    H2  403   0.004   5.460   0.580
  147TIP3   OH2  404   0.431   1.374   5.787
  147TIP3    H1  405   0.455   1.398   5.877
  147TIP3    H2  406   0.487   1.300   5.766
  148TIP3   OH2  407   4.877   0.953   3.304
  148TIP3    H1  408   4.908   0.976   3.216
  148TIP3    H2  409   4.942   0.893   3.338
  149TIP3   OH2  410   1.412   1.947   4.701
  149TIP3    H1  411   1.501   1.956   4.667
  149TIP3    H2  412   1.422   1.901   4.784
  150TIP3   OH2  413   0.972   4.289   2.841
  150TIP3    H1  414   0.940   4.268   2.753
  150TIP3    H2  415   0.941   4.217   2.896
  151TIP3   OH2  416   1.562   0.814   4.250
  151TIP3    H1  417   1.502   0.883   4.276
  151TIP3    H2  418   1.508   0.735   4.245
  152TIP3   OH2  419   3.570   2.545   5.169
  152TIP3    H1  420   3.513   2.611   5.209
  152TIP3    H2  421   3.555   2.466   5.219
  153TIP3   OH2  422   7.224   3.466   4.499
  153TIP3    H1  423   7.143   3.496   4.456
  153TIP3    H2  424   7.232   3.523   4.575
  154TIP3   OH2  425   1.040   5.222   5.879
  154TIP3    H1  426   1.107   5.157   5.862
  154TIP3    H2  427   1.071   5.269   5.957
  155TIP3   OH2  428   3.684   5.189   5.052
  155TIP3    H1  429   3.624   5.258   5.025
  155TIP3    H2  430   3.714   5.149   4.970
  156TIP3   OH2  431   5.311   0.904   0.038
  156TIP3    H1  432   5.272   0.912  -0.049
  156TIP3    H2  433   5.236   0.904   0.098
  157TIP3   OH2  434   6.839   5.538   1.656
  157TIP3    H1  435   6.753   5.520   1.694
  157TIP3    H2  436   6.900   5.529   1.729
  158TIP3   OH2  437   1.827   6.677   0.274
  158TIP3    H1  438   1.813   6.602   0.331
  158TIP3    H2  439   1.783   6.654   0.193
  159TIP3   OH2  440   6.061   0.522   2.808
  159TIP3    H1  441   6.113   0.596   2.778
  159TIP3    H2  442   6.097   0.500   2.894
  160TIP3   OH2  443   0.874   2.405  -0.029
  160TIP3    H1  444   0.872   2.481   0.030
  160TIP3    H2  445   0.810   2.344   0.008
  161TIP3   OH2  446   5.087   2.923   1.818
  161TIP3    H1  447   5.019   2.961   1.762
  161TIP3    H2  448   5.119   2.847   1.769
  162TIP3   OH2  449   2.366   6.175   3.827
  162TIP3    H1  450   2.365   6.198   3.734
  162TIP3    H2  451   2.454   6.200   3.856
  163TIP3   OH2  452   6.840   4.803   1.731
  163TIP3    H1  453   6.825   4.712   1.757
  163TIP3    H2  454   6.784   4.854   1.789
  164TIP3   OH2  455   4.108   5.013   1.632
  164TIP3    H1  456   4.161   5.077   1.679
  164TIP3    H2  457   4.029   5.004   1.686
  165TIP3   OH2  458   3.589   6.239   1.133
  165TIP3    H1  459   3.624   6.327   1.146
  165TIP3    H2  460   3.615   6.191   1.212
  166TIP3   OH2  461   6.857   0.686   4.082
  166TIP3    H1  462   6.896   0.733   4.008
  166TIP3    H2  463   6.924   0.621   4.106
  167TIP3   OH2  464   5.306   4.142   2.600
  167TIP3    H1  465   5.219   4.138   2.562
  167TIP3    H2  466   5.339   4.052   2.592
  168TIP3   OH2  467   3.911   5.258   3.552
  168TIP3    H1  468   3.831   5.210   3.534
  168TIP3    H2  469   3.981   5.194   3.540
  169TIP3   OH2  470   2.871   1.557   0.308
  169TIP3    H1  471   2.792   1.523   0.351
  169TIP3    H2  472   2.932   1.573   0.379
  170TIP3   OH2  473   5.425   0.938   3.816
  170TIP3    H1  474   5.354   0.930   3.880
  170TIP3    H2  475   5.462   0.850   3.810
  171TIP3   OH2  476   2.224   1.446   5.618
  171TIP3    H1  477   2.152   1.436   5.680
  171TIP3    H2  478   2.301   1.413   5.665
  172TIP3   OH2  479   5.028   2.394   5.218
  172TIP3    H1  480   4.981   2.473   5.245
  172TIP3    H2  481   4.974   2.322   5.251
  173TIP3   OH2  482   6.506   0.087   4.468
  173TIP3    H1  483   6.570   0.134   4.414
  173TIP3    H2  484   6.443   0.051   4.406
  174TIP3   OH2  485   5.133   3.933   1.183
  174TIP3    H1  486   5.126   3.840   1.163
  174TIP3    H2  487   5.055   3.972   1.143
  175TIP3   OH2  488   0.021   0.071   0.448
  175TIP3    H1  489   0.100   0.023   0.426
  175TIP3    H2  490  -0.024   0.016   0.512
  176TIP3   OH2  491   4.819   5.639   0.858
  176TIP3    H1  492   4.864   5.668   0.778
  176TIP3    H2  493   4.775   5.718   0.891
  177TIP3   OH2  494   1.673   4.629   2.377
  177TIP3    H1  495   1.642   4.561   2.437
  177TIP3    H2  496   1.768   4.625   2.384
  178TIP3   OH2  497   2.568   5.229   2.327
  178TIP3    H1  498   2.589   5.137   2.338
  178TIP3    H2  499   2.477   5.230   2.300
  179TIP3   OH2  500   6.790   3.499   0.089
  179TIP3    H1  501   6.856   3.452   0.140
  179TIP3    H2  502   6.718   3.437   0.081
  180TIP3   OH2  503   2.826   1.934   2.494
  180TIP3    H1  504   2.762   1.989   2.448
  180TIP3    H2  505   2.774   1.862   2.530
  181TIP3   OH2  506   4.750   6.119   4.679
  181TIP3    H1  507   4.715   6.128   4.591
  181TIP3    H2  508   4.705   6.186   4.731
  182TIP3   OH2  509   6.737   6.288   3.116
  182TIP3    H1  510   6.646   6.309   3.097
  182TIP3    H2  511   6.784   6.370   3.098
  183TIP3   OH2  512   7.089   6.718   0.657
  183TIP3    H1  513   7.020   6.722   0.723
  183TIP3    H2  514   7.088   6.627   0.627
  184TIP3   OH2  515   5.640   4.901   2.289
  184TIP3    H1  516   5.702   4.952   2.237
  184TIP3    H2  517   5.584   4.967   2.330
  185TIP3   OH2  518   3.588   2.379   3.150
  185TIP3    H1  519   3.602   2.304   3.207
  185TIP3    H2  520   3.639   2.449   3.189
  186TIP3   OH2  521   3.241   1.515   3.066
  186TIP3    H1  522   3.278   1.429   3.087
  186TIP3    H2  523   3.316   1.575   3.069
  187TIP3   OH2  524   5.907   5.293   3.391
  187TIP3    H1  525   5.896   5.368   3.450
  187TIP3    H2  526   5.819   5.272   3.361
  188TIP3   OH2  527   2.227   0.898   4.764
  188TIP3    H1  528   2.229   0.956   4.687
  188TIP3    H2  529   2.293   0.935   4.823
  189TIP3   OH2  530   5.134   0.702   1.060
  189TIP3    H1  531   5.120   0.637   1.130
  189TIP3    H2  532   5.054   0.698   1.008
  190TIP3   OH2  533   1.466   0.920   5.089
  190TIP3    H1  534   1.481   1.008   5.124
  190TIP3    H2  535   1.397   0.931   5.024
  191TIP3   OH2  536   1.658   2.334   1.757
  191TIP3    H1  537   1.613   2.254   1.785
  191TIP3    H2  538   1.601   2.405   1.787
  192TIP3   OH2  539   4.488   3.883   5.291
  192TIP3    H1  540   4.393   3.886   5.298
  192TIP3    H2  541   4.505   3.827   5.215
  193TIP3   OH2  542   4.856   0.218   5.723
  193TIP3    H1  543   4.768   0.232   5.758
  193TIP3    H2  544   4.866   0.123   5.720
  194TIP3   OH2  545   2.528   5.612   1.182
  194TIP3    H1  546   2.440   5.651   1.184
  194TIP3    H2  547   2.583   5.676   1.226
  195TIP3   OH2  548   6.460   6.700   1.215
  195TIP3    H1  549   6.471   6.620   1.164
  195TIP3    H2  550   6.456   6.670   1.306
  196TIP3   OH2  551   2.567   3.031   1.641
  196TIP3    H1  552   2.536   2.942   1.658
  196TIP3    H2  553   2.621   3.053   1.716
  197TIP3   OH2  554   6.704   4.616   3.255
  197TIP3    H1  555   6.691   4.671   3.332
  197TIP3    H2  556   6.654   4.659   3.185
  198TIP3   OH2  557   1.355   5.325   4.079
  198TIP3    H1  558   1.449   5.336   4.064
  198TIP3    H2  559   1.342   5.231   4.089
  199TIP3   OH2  560   6.821   2.663   3.526
  199TIP3    H1  561   6.757   2.678   3.457
  199TIP3    H2  562   6.882   2.599   3.489
  200TIP3   OH2  563   3.124   1.584   4.917
  200TIP3    H1  564   3.171   1.502   4.900
  200TIP3    H2  565   3.076   1.567   4.998
  201TIP3   OH2  566   6.336   5.994   0.796
  201TIP3    H1  567   6.406   6.058   0.785
  201TIP3    H2  568   6.363   5.919   0.743
  202TIP3   OH2  569   4.927   3.412   4.393
  202TIP3    H1  570   4.978   3.490   4.416
  202TIP3    H2  571   4.837   3.442   4.394
  203TIP3   OH2  572   0.587   5.179   2.894
  203TIP3    H1  573   0.588   5.227   2.811
  203TIP3    H2  574   0.593   5.087   2.868
  204TIP3   OH2  575   1.900   0.814   0.558
  204TIP3    H1  576   1.938   0.897   0.586
  204TIP3    H2  577   1.860   0.833   0.474
  205TIP3   OH2  578   3.393   1.559   2.611
  205TIP3    H1  579   3.410   1.517   2.695
  205TIP3    H2  580   3.463   1.622   2.600
  206TIP3   OH2  581   0.101   3.467   2.688
  206TIP3    H1  582   0.045   3.545   2.686
  206TIP3    H2  583   0.047   3.398   2.649
  207TIP3   OH2  584   3.260   4.290   0.021
  207TIP3    H1  585   3.335   4.305   0.079
  207TIP3    H2  586   3.287   4.326  -0.063
  208TIP3   OH2  587   3.516   3.691   0.092
  208TIP3    H1  588   3.426   3.683   0.060
  208TIP3    H2  589   3.507   3.698   0.187
  209TIP3   OH2  590   1.161   4.175   1.292
  209TIP3    H1  591   1.229   4.108   1.287
  209TIP3    H2  592   1.092   4.144   1.233
  210TIP3   OH2  593   0.532   3.414   2.411
  210TIP3    H1  594   0.609   3.374   2.450
  210TIP3    H2  595   0.467   3.416   2.481
  211TIP3   OH2  596   4.020   3.482   3.196
  211TIP3    H1  597   4.018   3.561   3.250
  211TIP3    H2  598   3.977   3.416   3.250
  212TIP3   OH2  599   0.778   5.865   3.314
  212TIP3    H1  600   0.732   5.810   3.250
  212TIP3    H2  601   0.788   5.949   3.271
  213TIP3   OH2  602   2.518   2.725   3.001
  213TIP3    H1  603   2.609   2.752   3.013
  213TIP3    H2  604   2.524   2.640   2.956
  214TIP3   OH2  605   2.248   1.709   2.187
  214TIP3    H1  606   2.314   1.771   2.155
  214TIP3    H2  607   2.168   1.732   2.140
  215TIP3   OH2  608   0.365   1.989   5.024
  215TIP3    H1  609   0.352   1.911   5.078
  215TIP3    H2  610   0.331   1.965   4.938
  216TIP3   OH2  611   4.919   6.398   2.946
  216TIP3    H1  612   5.009   6.388   2.979
  216TIP3    H2  613   4.923   6.475   2.889
  217TIP3   OH2  614   5.309   5.802   4.554
  217TIP3    H1  615   5.389   5.791   4.606
  217TIP3    H2  616   5.245   5.838   4.615
  218TIP3   OH2  617   3.080   1.832   1.084
  218TIP3    H1  618   3.064   1.738   1.088
  218TIP3    H2  619   3.038   1.860   1.002
  219TIP3   OH2  620   4.657   1.361   2.269
  219TIP3    H1  621   4.729   1.424   2.271
  219TIP3    H2  622   4.698   1.276   2.286
  220TIP3   OH2  623   5.894   6.015   0.049
  220TIP3    H1  624   5.916   6.058  -0.034
  220TIP3    H2  625   5.872   5.925   0.024
  221TIP3   OH2  626   5.894   3.062   0.109
  221TIP3    H1  627   5.882   2.999   0.038
  221TIP3    H2  628   5.872   3.012   0.188
  222TIP3   OH2  629   1.431   2.026   2.405
  222TIP3    H1  630   1.491   2.005   2.476
  222TIP3    H2  631   1.443   2.120   2.391
  223TIP3   OH2  632   3.118   3.116   4.790
  223TIP3    H1  633   3.029   3.116   4.825
  223TIP3    H2  634   3.127   3.202   4.748
  224TIP3   OH2  635   3.350   5.631   0.085
  224TIP3    H1  636   3.308   5.707   0.125
  224TIP3    H2  637   3.444   5.646   0.099
  225TIP3   OH2  638   3.102   1.269   3.934
  225TIP3    H1  639   3.015   1.293   3.967
  225TIP3    H2  640   3.120   1.184   3.974
  226TIP3   OH2  641   4.056   0.282   0.849
  226TIP3    H1  642   4.086   0.245   0.932
  226TIP3    H2  643   4.091   0.371   0.847
  227TIP3   OH2  644   2.630   1.677   2.238
  227TIP3    H1  645   2.653   1.586   2.219
  227TIP3    H2  646   2.610   1.678   2.332
  228TIP3   OH2  647   6.111   4.782   1.734
  228TIP3    H1  648   6.054   4.845   1.779
  228TIP3    H2  649   6.101   4.701   1.784
  229TIP3   OH2  650   0.184   3.978   0.199
  229TIP3    H1  651   0.246   3.906   0.186
  229TIP3    H2  652   0.238   4.052   0.227
  230TIP3   OH2  653   6.694   6.717   1.067
  230TIP3    H1  654   6.631   6.685   1.003
  230TIP3    H2  655   6.641   6.737   1.144
  231TIP3   OH2  656   5.466   4.255   1.156
  231TIP3    H1  657   5.517   4.321   1.109
  231TIP3    H2  658   5.375   4.272   1.129
  232TIP3   OH2  659   6.039   2.415   3.180
  232TIP3    H1  660   6.104   2.430   3.249
  232TIP3    H2  661   6.039   2.320   3.168
  233TIP3   OH2  662   5.028   1.655   4.972
  233TIP3    H1  663   5.036   1.741   4.929
  233TIP3    H2  664   4.968   1.671   5.045
  234TIP3   OH2  665   1.218   2.458   2.740
  234TIP3    H1  666   1.130   2.443   2.707
  234TIP3    H2  667   1.223   2.553   2.752
  235TIP3   OH2  668   2.401   5.530   5.160
  235TIP3    H1  669   2.309   5.526   5.132
  235TIP3    H2  670   2.444   5.460   5.111
  236TIP3   OH2  671   3.056   2.993   2.607
  236TIP3    H1  672   3.041   2.917   2.551
  236TIP3    H2  673   3.047   3.068   2.549
  237TIP3   OH2  674   4.718   2.983   5.127
  237TIP3    H1  675   4.737   2.920   5.058
  237TIP3    H2  676   4.625   2.971   5.147
  238TIP3   OH2  677   7.234   2.601   4.955
  238TIP3    H1  678   7.248   2.507   4.944
  238TIP3    H2  679   7.140   2.609   4.968
  239TIP3   OH2  680   4.425   5.241   5.663
  239TIP3    H1  681   4.411   5.176   5.732
  239TIP3    H2  682   4.338   5.252   5.623
  240TIP3   OH2  683   3.285   3.904   3.021
  240TIP3    H1  684   3.244   3.988   2.998
  240TIP3    H2  685   3.259   3.845   2.950
  241TIP3   OH2  686   0.669   5.651   3.504
  241TIP3    H1  687   0.609   5.725   3.513
  241TIP3    H2  688   0.743   5.687   3.454
  242TIP3   OH2  689   3.120   5.537   5.523
  242TIP3    H1  690   3.042   5.486   5.541
  242TIP3    H2  691   3.144   5.514   5.433
  243TIP3   OH2  692   4.287   1.673   2.593
  243TIP3    H1  693   4.237   1.738   2.643
  243TIP3    H2  694   4.376   1.681   2.627
  244TIP3   OH2  695   0.924   0.095   0.474
  244TIP3    H1  696   0.835   0.129   0.470
  244TIP3    H2  697   0.979   0.170   0.450
  245TIP3   OH2  698   7.196   4.823   3.666
  245TIP3    H1  699   7.120   4.765   3.660
  245TIP3    H2  700   7.271   4.765   3.655
  246TIP3   OH2  701   1.215   0.207   0.366
  246TIP3    H1  702   1.254   0.146   0.429
  246TIP3    H2  703   1.285   0.270   0.347
  247TIP3   OH2  704   3.949   2.632   4.551
  247TIP3    H1  705   3.971   2.614   4.459
  247TIP3    H2  706   3.968   2.726   4.562
  248TIP3   OH2  707   6.660   6.063   1.663
  248TIP3    H1  708   6.710   6.127   1.613
  248TIP3    H2  709   6.724   6.025   1.724
  249TIP3   OH2  710   3.215   5.971   1.628
  249TIP3    H1  711   3.247   5.888   1.661
  249TIP3    H2  712   3.219   5.963   1.533
  250TIP3   OH2  713   1.700   0.126   0.234
  250TIP3    H1  714   1.769   0.059   0.226
  250TIP3    H2  715   1.696   0.145   0.328
  251TIP3   OH2  716   1.159   0.427   2.810
  251TIP3    H1  717   1.182   0.431   2.903
  251TIP3    H2  718   1.079   0.479   2.803
  252TIP3   OH2  719   1.200   5.496   5.654
  252TIP3    H1  720   1.175   5.580   5.618
  252TIP3    H2  721   1.155   5.432   5.599
  253TIP3   OH2  722   2.768   4.272   2.580
  253TIP3    H1  723   2.683   4.281   2.623
  253TIP3    H2  724   2.765   4.187   2.537
  254TIP3   OH2  725   3.403   4.222   5.068
  254TIP3    H1  726   3.333   4.286   5.054
  254TIP3    H2  727   3.432   4.238   5.158
  255TIP3   OH2  728   5.192   5.065   1.366
  255TIP3    H1  729   5.209   5.040   1.457
  255TIP3    H2  730   5.203   5.160   1.365
  256TIP3   OH2  731   1.694   1.205   2.289
  256TIP3    H1  732   1.764   1.230   2.349
  256TIP3    H2  733   1.726   1.125   2.247
  257TIP3   OH2  734   6.564   2.846   5.611
  257TIP3    H1  735   6.490   2.843   5.549
  257TIP3    H2  736   6.583   2.939   5.621
  258TIP3   OH2  737   0.815   0.198   3.658
  258TIP3    H1  738   0.870   0.249   3.599
  258TIP3    H2  739   0.835   0.232   3.745
  259TIP3   OH2  740   4.254   3.187   5.058
  259TIP3    H1  741   4.224   3.235   5.136
  259TIP3    H2  742   4.232   3.244   4.985
  260TIP3   OH2  743   1.513   5.679   0.476
  260TIP3    H1  744   1.511   5.773   0.489
  260TIP3    H2  745   1.499   5.668   0.382
  261TIP3   OH2  746   3.562   0.723   4.899
  261TIP3    H1  747   3.573   0.804   4.850
  261TIP3    H2  748   3.644   0.712   4.947
  262TIP3   OH2  749   2.545   1.365   3.014
  262TIP3    H1  750   2.565   1.457   2.997
  262TIP3    H2  751   2.483   1.368   3.087
  263TIP3   OH2  752   1.374   1.222   3.210
  263TIP3    H1  753   1.414   1.303   3.178
  263TIP3    H2  754   1.398   1.218   3.302
  264TIP3   OH2  755   4.286   0.730   2.960
  264TIP3    H1  756   4.349   0.687   3.017
  264TIP3    H2  757   4.207   0.738   3.013
  265TIP3   OH2  758   5.168   1.585   2.075
  265TIP3    H1  759   5.209   1.559   2.158
  265TIP3    H2  760   5.226   1.653   2.040
  266TIP3   OH2  761   2.162   1.470   0.965
  266TIP3    H1  762   2.217   1.528   0.913
  266TIP3    H2  763   2.073   1.493   0.939
  267TIP3   OH2  764   4.157   6.162   0.568
  267TIP3    H1  765   4.177   6.255   0.578
  267TIP3    H2  766   4.160   6.147   0.473
  268TIP3   OH2  767   5.866   4.413   3.194
  268TIP3    H1  768   5.788   4.408   3.249
  268TIP3    H2  769   5.877   4.507   3.177
  269TIP3   OH2  770   0.060   4.140   1.057
  269TIP3    H1  771   0.017   4.226   1.054
  269TIP3    H2  772  -0.010   4.080   1.084
  270TIP3   OH2  773   4.186   1.667   3.752
  270TIP3    H1  774   4.208   1.706   3.667
  270TIP3    H2  775   4.254   1.699   3.812
  271TIP3   OH2  776   1.286   3.327   5.005
  271TIP3    H1  777   1.259   3.394   4.942
  271TIP3    H2  778   1.206   3.279   5.026
  272TIP3   OH2  779   6.187   4.438   1.534
  272TIP3    H1  780   6.208   4.371   1.468
  272TIP3    H2  781   6.101   4.413   1.567
  273TIP3   OH2  782   3.836   4.190   1.984
  273TIP3    H1  783   3.817   4.099   1.962
  273TIP3    H2  784   3.917   4.186   2.034
  274TIP3   OH2  785   4.415   4.062   0.349
  274TIP3    H1  786   4.321   4.045   0.356
  274TIP3    H2  787   4.428   4.088   0.258
  275TIP3   OH2  788   1.844   3.616   2.265
  275TIP3    H1  789   1.787   3.620   2.188
  275TIP3    H2  790   1.790   3.580   2.334
  276TIP3   OH2  791   4.944   3.271   4.615
  276TIP3    H1  792   4.942   3.291   4.521
  276TIP3    H2  793   5.026   3.310   4.646
  277TIP3   OH2  794   1.650   2.589   0.350
  277TIP3    H1  795   1.630   2.557   0.438
  277TIP3    H2  796   1.712   2.525   0.314
  278TIP3   OH2  797   4.936   5.388   2.148
  278TIP3    H1  798   4.948   5.379   2.053
  278TIP3    H2  799   4.850   5.427   2.157
  279TIP3   OH2  800   5.031   1.924   4.951
  279TIP3    H1  801   4.944   1.943   4.988
  279TIP3    H2  802   5.063   2.008   4.921
  280TIP3   OH2  803   3.677   4.121   3.948
  280TIP3    H1  804   3.624   4.194   3.919
  280TIP3    H2  805   3.758   4.128   3.898
  281TIP3   OH2  806   6.243   6.456   1.386
  281TIP3    H1  807   6.234   6.386   1.451
  281TIP3    H2  808   6.334   6.452   1.359
  282TIP3   OH2  809   6.878   1.173   4.624
  282TIP3    H1  810   6.928   1.093   4.611
  282TIP3    H2  811   6.807   1.168   4.560
  283TIP3   OH2  812   2.061   1.565   4.837
  283TIP3    H1  813   2.118   1.624   4.886
  283TIP3    H2  814   2.120   1.503   4.796
  284TIP3   OH2  815   4.230   3.335   5.737
  284TIP3    H1  816   4.184   3.419   5.739
  284TIP3    H2  817   4.163   3.272   5.710
  285TIP3   OH2  818   5.985   1.658   3.258
  285TIP3    H1  819   5.892   1.657   3.282
  285TIP3    H2  820   5.996   1.738   3.207
  286TIP3   OH2  821   1.620   0.707   2.068
  286TIP3    H1  822   1.623   0.788   2.120
  286TIP3    H2  823   1.613   0.637   2.134
  287TIP3   OH2  824   5.751   6.250   2.533
  287TIP3    H1  825   5.693   6.253   2.456
  287TIP3    H2  826   5.698   6.285   2.604
  288TIP3   OH2  827   5.104   2.791   3.160
  288TIP3    H1  828   5.043   2.835   3.101
  288TIP3    H2  829   5.056   2.781   3.242
  289TIP3   OH2  830   5.294   5.653   2.665
  289TIP3    H1  831   5.371   5.596   2.663
  289TIP3    H2  832   5.291   5.686   2.755
  290TIP3   OH2  833   6.048   1.791   0.820
  290TIP3    H1  834   6.079   1.858   0.759
  290TIP3    H2  835   6.036   1.837   0.903
  291TIP3   OH2  836   6.293   1.962   4.281
  291TIP3    H1  837   6.200   1.947   4.297
  291TIP3    H2  838   6.331   1.971   4.369
  292TIP3   OH2  839   4.713   1.054   1.998
  292TIP3    H1  840   4.682   0.979   1.948
  292TIP3    H2  841   4.795   1.025   2.038
  293TIP3   OH2  842   2.832   3.190   2.211
  293TIP3    H1  843   2.838   3.266   2.154
  293TIP3    H2  844   2.887   3.124   2.170
  294TIP3   OH2  845   2.682   0.191   0.505
  294TIP3    H1  846   2.687   0.279   0.468
  294TIP3    H2  847   2.712   0.202   0.595
  295TIP3   OH2  848   6.694   3.134   2.711
  295TIP3    H1  849   6.705   3.227   2.693
  295TIP3    H2  850   6.654   3.098   2.632
  296TIP3   OH2  851   6.053   5.426   1.772
  296TIP3    H1  852   6.030   5.354   1.714
  296TIP3    H2  853   6.055   5.388   1.859
  297TIP3   OH2  854   5.085   2.729   0.512
  297TIP3    H1  855   5.100   2.650   0.459
  297TIP3    H2  856   5.165   2.738   0.564
  298TIP3   OH2  857   6.573   4.641   0.304
  298TIP3    H1  858   6.564   4.546   0.298
  298TIP3    H2  859   6.567   4.660   0.397
  299TIP3   OH2  860   6.105   5.662   2.862
  299TIP3    H1  861   6.173   5.610   2.819
  299TIP3    H2  862   6.127   5.659   2.955
  300TIP3   OH2  863   1.957   5.063   5.536
  300TIP3    H1  864   1.952   4.993   5.601
  300TIP3    H2  865   1.880   5.049   5.480
  301TIP3   OH2  866   3.293   5.775   4.640
  301TIP3    H1  867   3.342   5.855   4.658
  301TIP3    H2  868   3.240   5.797   4.563
  302TIP3   OH2  869   5.565   0.250   1.844
  302TIP3    H1  870   5.547   0.314   1.913
  302TIP3    H2  871   5.630   0.293   1.788
  303TIP3   OH2  872   2.467   1.490   5.103
  303TIP3    H1  873   2.550   1.445   5.116
  303TIP3    H2  874   2.426   1.445   5.029
  304TIP3   OH2  875   6.295   1.846   5.224
  304TIP3    H1  876   6.331   1.760   5.245
  304TIP3    H2  877   6.233   1.865   5.294
  305TIP3   OH2  878   5.429   0.996   5.760
  305TIP3    H1  879   5.457   1.047   5.685
  305TIP3    H2  880   5.466   0.909   5.745
  306TIP3   OH2  881   0.269   5.826   1.046
  306TIP3    H1  882   0.329   5.813   1.120
  306TIP3    H2  883   0.183   5.837   1.088
  307TIP3   OH2  884   5.292   3.239   4.231
  307TIP3    H1  885   5.197   3.233   4.221
  307TIP3    H2  886   5.311   3.333   4.230
  308TIP3   OH2  887   0.333   4.676   0.814
  308TIP3    H1  888   0.394   4.667   0.741
  308TIP3    H2  889   0.318   4.587   0.845
  309TIP3   OH2  890   5.122   2.315   1.467
  309TIP3    H1  891   5.042   2.301   1.517
  309TIP3    H2  892   5.146   2.227   1.436
  310TIP3   OH2  893   1.324   6.272   1.439
  310TIP3    H1  894   1.385   6.304   1.506
  310TIP3    H2  895   1.275   6.349   1.412
  311TIP3   OH2  896   4.242   6.270   3.144
  311TIP3    H1  897   4.325   6.223   3.148
  311TIP3    H2  898   4.179   6.205   3.114
  312TIP3   OH2  899   0.320   0.076   1.320
  312TIP3    H1  900   0.266   0.153   1.336
  312TIP3    H2  901   0.263   0.016   1.271
  313TIP3   OH2  902   0.242   2.615   5.140
  313TIP3    H1  903   0.157   2.611   5.096
  313TIP3    H2  904   0.250   2.706   5.169
  314TIP3   OH2  905   0.227   0.739   5.142
  314TIP3    H1  906   0.274   0.742   5.225
  314TIP3    H2  907   0.228   0.647   5.117
  315TIP3   OH2  908   2.047   4.292   5.159
  315TIP3    H1  909   2.103   4.364   5.188
  315TIP3    H2  910   2.103   4.240   5.101
  316TIP3   OH2  911   2.917   5.744   1.463
  316TIP3    H1  912   3.009   5.723   1.448
  316TIP3    H2  913   2.915   5.839   1.472
  317TIP3   OH2  914   2.134   0.074   5.650
  317TIP3    H1  915   2.079   0.059   5.572
  317TIP3    H2  916   2.071   0.099   5.718
  318TIP3   OH2  917   2.627   1.427   4.036
  318TIP3    H1  918   2.613   1.349   3.983
  318TIP3    H2  919   2.636   1.498   3.973
  319TIP3   OH2  920   2.605   2.225   5.550
  319TIP3    H1  921   2.513   2.238   5.527
  319TIP3    H2  922   2.636   2.158   5.489
  320TIP3   OH2  923   7.117   2.240   0.139
  320TIP3    H1  924   7.039   2.223   0.193
  320TIP3    H2  925   7.086   2.298   0.070
  321TIP3   OH2  926   3.322   3.601   1.831
  321TIP3    H1  927   3.327   3.633   1.921
  321TIP3    H2  928   3.248   3.648   1.793
  322TIP3   OH2  929   0.114   4.322   5.477
  322TIP3    H1  930   0.076   4.399   5.519
  322TIP3    H2  931   0.071   4.317   5.392
  323TIP3   OH2  932   4.019   1.866   0.354
  323TIP3    H1  933   3.995   1.954   0.324
  323TIP3    H2  934   4.085   1.881   0.421
  324TIP3   OH2  935   2.587   2.001   0.133
  324TIP3    H1  936   2.542   2.015   0.216
  324TIP3    H2  937   2.663   1.948   0.155
  325TIP3   OH2  938   2.236   4.665   1.068
  325TIP3    H1  939   2.176   4.691   1.138
  325TIP3    H2  940   2.301   4.611   1.112
  326TIP3   OH2  941   4.225   1.037   1.865
  326TIP3    H1  942   4.161   1.090   1.911
  326TIP3    H2  943   4.280   1.000   1.935
  327TIP3   OH2  944   4.111   0.316   2.236
  327TIP3    H1  945   4.111   0.223   2.259
  327TIP3    H2  946   4.054   0.322   2.159
  328TIP3   OH2  947   4.842   5.388   0.232
  328TIP3    H1  948   4.865   5.295   0.236
  328TIP3    H2  949   4.895   5.422   0.160
  329TIP3   OH2  950   3.175   3.801   1.355
  329TIP3    H1  951   3.236   3.733   1.324
  329TIP3    H2  952   3.112   3.811   1.284
  330TIP3   OH2  953   0.320   5.570   5.555
  330TIP3    H1  954   0.360   5.567   5.642
  330TIP3    H2  955   0.278   5.656   5.552
  331TIP3   OH2  956   1.883   1.410   4.426
  331TIP3    H1  957   1.974   1.387   4.409
  331TIP3    H2  958   1.839   1.399   4.342
  332TIP3   OH2  959   0.912   0.349   0.051
  332TIP3    H1  960   0.976   0.298   0.003
  332TIP3    H2  961   0.963   0.394   0.119
  333TIP3   OH2  962   6.106   6.527   1.167
  333TIP3    H1  963   6.169   6.594   1.142
  333TIP3    H2  964   6.148   6.481   1.240
  334TIP3   OH2  965   0.889   5.478   2.225
  334TIP3    H1  966   0.824   5.432   2.171
  334TIP3    H2  967   0.913   5.414   2.293
  335TIP3   OH2  968   4.918   5.401   4.062
  335TIP3    H1  969   4.937   5.486   4.023
  335TIP3    H2  970   4.824   5.402   4.078
  336TIP3   OH2  971   2.764   2.337   5.741
  336TIP3    H1  972   2.811   2.388   5.675
  336TIP3    H2  973   2.688   2.302   5.695
  337TIP3   OH2  974   1.701   0.901   1.098
  337TIP3    H1  975   1.647   0.841   1.149
  337TIP3    H2  976   1.712   0.857   1.014
  338TIP3   OH2  977   6.687   3.448   1.649
  338TIP3    H1  978   6.744   3.454   1.726
  338TIP3    H2  979   6.728   3.506   1.584
  339TIP3   OH2  980   2.750   1.425   1.568
  339TIP3    H1  981   2.845   1.436   1.561
  339TIP3    H2  982   2.715   1.515   1.566
  340TIP3   OH2  983   0.311   0.380   0.236
  340TIP3    H1  984   0.388   0.324   0.230
  340TIP3    H2  985   0.345   0.470   0.237
  341TIP3   OH2  986   0.257   3.076   1.821
  341TIP3    H1  987   0.217   3.158   1.851
  341TIP3    H2  988   0.332   3.063   1.879
  342TIP3   OH2  989   3.394   3.292   4.059
  342TIP3    H1  990   3.471   3.250   4.097
  342TIP3    H2  991   3.320   3.242   4.094
  343TIP3   OH2  992   3.805   6.712   1.406
  343TIP3    H1  993   3.747   6.779   1.442
  343TIP3    H2  994   3.805   6.642   1.471
  344TIP3   OH2  995   1.228   1.552   2.587
  344TIP3    H1  996   1.134   1.537   2.595
  344TIP3    H2  997   1.237   1.608   2.510
  345TIP3   OH2  998   4.215   6.458   4.685
  345TIP3    H1  999   4.149   6.388   4.689
  345TIP3    H2 1000   4.188   6.520   4.753
  346TIP3   OH2 1001   0.324   3.362   2.245
  346TIP3    H1 1002   0.409   3.401   2.267
  346TIP3    H2 1003   0.268   3.437   2.224
  347TIP3   OH2 1004   2.280   2.502   4.523
  347TIP3    H1 1005   2.291   2.516   4.429
  347TIP3    H2 1006   2.218   2.430   4.530
  348TIP3   OH2 1007   6.146   3.460   3.696
  348TIP3    H1 1008   6.053   3.464   3.715
  348TIP3    H2 1009   6.187   3.511   3.766
  349TIP3   OH2 1010   2.924   0.218   1.299
  349TIP3    H1 1011   2.852   0.237   1.239
  349TIP3    H2 1012   2.953   0.304   1.329
  350TIP3   OH2 1013   1.431  -0.012   0.132
  350TIP3    H1 1014   1.505   0.029   0.176
  350TIP3    H2 1015   1.414   0.044   0.056
  351TIP3   OH2 1016   4.373   5.707   5.715
  351TIP3    H1 1017   4.444   5.770   5.708
  351TIP3    H2 1018   4.414   5.623   5.695
  352TIP3   OH2 1019   2.589   5.562   0.718
  352TIP3    H1 1020   2.675   5.587   0.686
  352TIP3    H2 1021   2.606   5.518   0.801
  353TIP3   OH2 1022   1.382   5.833   5.613
  353TIP3    H1 1023   1.434   5.804   5.538
  353TIP3    H2 1024   1.384   5.759   5.673
  354TIP3   OH2 1025   5.804   0.069   4.729
  354TIP3    H1 1026   5.758   0.134   4.675
  354TIP3    H2 1027   5.750  -0.010   4.720
  355TIP3   OH2 1028   1.194   3.534   5.808
  355TIP3    H1 1029   1.112   3.485   5.808
  355TIP3    H2 1030   1.186   3.594   5.733
  356TIP3   OH2 1031   2.019   1.999   4.012
  356TIP3    H1 1032   2.074   1.967   3.941
  356TIP3    H2 1033   2.036   1.938   4.084
  357TIP3   OH2 1034   1.242   0.372   3.846
  357TIP3    H1 1035   1.296   0.358   3.768
  357TIP3    H2 1036   1.242   0.467   3.857
  358TIP3   OH2 1037   5.551   1.444   5.485
  358TIP3    H1 1038   5.460   1.434   5.513
  358TIP3    H2 1039   5.545   1.491   5.402
  359TIP3   OH2 1040   6.463   2.197   5.326
  359TIP3    H1 1041   6.510   2.129   5.374
  359TIP3    H2 1042   6.499   2.279   5.359
  360TIP3   OH2 1043   0.450   6.472   2.280
  360TIP3    H1 1044   0.399   6.428   2.212
  360TIP3    H2 1045   0.409   6.558   2.289
  361TIP3   OH2 1046   0.942   1.588   5.607
  361TIP3    H1 1047   0.889   1.609   5.684
  361TIP3    H2 1048   0.927   1.661   5.547
  362TIP3   OH2 1049   6.841   4.180   4.336
  362TIP3    H1 1050   6.913   4.173   4.400
  362TIP3    H2 1051   6.794   4.097   4.343
  363TIP3   OH2 1052   3.816   3.565   5.780
  363TIP3    H1 1053   3.755   3.499   5.748
  363TIP3    H2 1054   3.841   3.614   5.701
  364TIP3   OH2 1055   1.732   3.270   5.089
  364TIP3    H1 1056   1.664   3.261   5.156
  364TIP3    H2 1057   1.686   3.305   5.013
  365TIP3   OH2 1058   6.305   3.463   3.940
  365TIP3    H1 1059   6.334   3.381   3.898
  365TIP3    H2 1060   6.296   3.440   4.032
  366TIP3   OH2 1061   3.043   2.349   3.771
  366TIP3    H1 1062   2.997   2.412   3.715
  366TIP3    H2 1063   2.995   2.267   3.759
  367TIP3   OH2 1064   4.342   5.144   2.244
  367TIP3    H1 1065   4.297   5.074   2.292
  367TIP3    H2 1066   4.360   5.211   2.310
  368TIP3   OH2 1067   2.472   0.591   4.690
  368TIP3    H1 1068   2.392   0.644   4.685
  368TIP3    H2 1069   2.482   0.556   4.602
  369TIP3   OH2 1070   2.392   6.243   2.821
  369TIP3    H1 1071   2.453   6.181   2.861
  369TIP3    H2 1072   2.314   6.240   2.877
  370TIP3   OH2 1073   6.524   2.073   1.575
  370TIP3    H1 1074   6.618   2.083   1.559
  370TIP3    H2 1075   6.502   1.988   1.537
  371TIP3   OH2 1076   4.004   5.143   2.340
  371TIP3    H1 1077   4.091   5.178   2.356
  371TIP3    H2 1078   3.949   5.184   2.407
  372TIP3   OH2 1079   0.607   4.023   1.694
  372TIP3    H1 1080   0.518   3.992   1.707
  372TIP3    H2 1081   0.618   4.092   1.760
  373TIP3   OH2 1082   1.401   5.353   5.532
  373TIP3    H1 1083   1.340   5.410   5.579
  373TIP3    H2 1084   1.486   5.394   5.545
  374TIP3   OH2 1085   1.897   3.894   4.437
  374TIP3    H1 1086   1.916   3.958   4.369
  374TIP3    H2 1087   1.983   3.862   4.465
  375TIP3   OH2 1088   4.343   2.908   0.569
  375TIP3    H1 1089   4.288   2.833   0.548
  375TIP3    H2 1090   4.340   2.963   0.490
  376TIP3   OH2 1091   0.296   4.751   3.140
  376TIP3    H1 1092   0.343   4.833   3.153
  376TIP3    H2 1093   0.236   4.747   3.214
  377TIP3   OH2 1094   0.948   2.242   5.667
  377TIP3    H1 1095   1.006   2.286   5.728
  377TIP3    H2 1096   0.871   2.220   5.719
  378TIP3   OH2 1097   0.884   2.893   3.941
  378TIP3    H1 1098   0.807   2.840   3.965
  378TIP3    H2 1099   0.928   2.841   3.873
  379TIP3   OH2 1100   0.203   4.840   5.625
  379TIP3    H1 1101   0.281   4.859   5.676
  379TIP3    H2 1102   0.234   4.785   5.553
  380TIP3   OH2 1103   2.428   1.208   5.363
  380TIP3    H1 1104   2.343   1.222   5.320
  380TIP3    H2 1105   2.428   1.115   5.384
  381TIP3   OH2 1106   4.275   0.333   5.897
  381TIP3    H1 1107   4.283   0.238   5.905
  381TIP3    H2 1108   4.362   0.363   5.872
  382TIP3   OH2 1109   2.904   0.968   2.887
  382TIP3    H1 1110   2.834   1.028   2.913
  382TIP3    H2 1111   2.863   0.911   2.822
  383TIP3   OH2 1112   0.721   5.942   4.342
  383TIP3    H1 1113   0.785   5.945   4.414
  383TIP3    H2 1114   0.692   5.851   4.341
  384TIP3   OH2 1115   4.443   6.045   0.449
  384TIP3    H1 1116   4.392   6.089   0.517
  384TIP3    H2 1117   4.387   5.973   0.420
  385TIP3   OH2 1118   5.816   0.609   5.745
  385TIP3    H1 1119   5.897   0.591   5.697
  385TIP3    H2 1120   5.841   0.607   5.837
  386TIP3   OH2 1121   4.398   4.932   4.599
  386TIP3    H1 1122   4.456   4.871   4.554
  386TIP3    H2 1123   4.352   4.978   4.528
  387TIP3   OH2 1124   6.485   4.742   4.986
  387TIP3    H1 1125   6.549   4.711   5.049
  387TIP3    H2 1126   6.523   4.823   4.951
  388TIP3   OH2 1127   0.943   4.544   3.170
  388TIP3    H1 1128   1.031   4.582   3.166
  388TIP3    H2 1129   0.949   4.464   3.118
  389TIP3   OH2 1130   2.101   1.686   1.914
  389TIP3    H1 1131   2.022   1.734   1.892
  389TIP3    H2 1132   2.072   1.617   1.973
  390TIP3   OH2 1133   0.334   1.490   3.798
  390TIP3    H1 1134   0.400   1.450   3.855
  390TIP3    H2 1135   0.289   1.416   3.758
  391TIP3   OH2 1136   0.745   1.677  -0.014
  391TIP3    H1 1137   0.696   1.754   0.016
  391TIP3    H2 1138   0.703   1.603   0.030
  392TIP3   OH2 1139   2.729   5.826   5.376
  392TIP3    H1 1140   2.653   5.794   5.329
  392TIP3    H2 1141   2.693   5.885   5.443
  393TIP3   OH2 1142   2.695   2.764   4.124
  393TIP3    H1 1143   2.668   2.741   4.035
  393TIP3    H2 1144   2.613   2.776   4.172
  394TIP3   OH2 1145   6.163   2.746   4.400
  394TIP3    H1 1146   6.136   2.748   4.308
  394TIP3    H2 1147   6.211   2.828   4.412
  395TIP3   OH2 1148   3.911   5.529   3.613
  395TIP3    H1 1149   4.003   5.531   3.640
  395TIP3    H2 1150   3.893   5.437   3.595
  396TIP3   OH2 1151   4.929   0.043   4.565
  396TIP3    H1 1152   5.002   0.042   4.627
  396TIP3    H2 1153   4.879   0.121   4.587
  397TIP3   OH2 1154   1.430   3.997   3.016
  397TIP3    H1 1155   1.379   4.037   2.945
  397TIP3    H2 1156   1.392   3.910   3.028
  398TIP3   OH2 1157   0.416   2.259   2.840
  398TIP3    H1 1158   0.456   2.193   2.783
  398TIP3    H2 1159   0.324   2.233   2.846
  399TIP3   OH2 1160   3.159   5.219   4.841
  399TIP3    H1 1161   3.090   5.152   4.842
  399TIP3    H2 1162   3.113   5.300   4.821
  400TIP3   OH2 1163   0.725   3.125   0.587
  400TIP3    H1 1164   0.703   3.092   0.675
  400TIP3    H2 1165   0.725   3.047   0.532
  401TIP3   OH2 1166   0.379   2.562   4.186
  401TIP3    H1 1167   0.294   2.566   4.144
  401TIP3    H2 1168   0.427   2.638   4.153
  402TIP3   OH2 1169   2.970   0.564   0.605
  402TIP3    H1 1170   3.026   0.515   0.545
  402TIP3    H2 1171   2.996   0.656   0.591
  403TIP3   OH2 1172   4.255   6.166   5.338
  403TIP3    H1 1173   4.336   6.116   5.350
  403TIP3    H2 1174   4.230   6.194   5.426
  404TIP3   OH2 1175   0.203   5.395   3.437
  404TIP3    H1 1176   0.243   5.440   3.511
  404TIP3    H2 1177   0.128   5.349   3.475
  405TIP3   OH2 1178   6.737   3.460   2.347
  405TIP3    H1 1179   6.671   3.480   2.413
  405TIP3    H2 1180   6.744   3.365   2.347
  406TIP3   OH2 1181   0.975   1.836   0.139
  406TIP3    H1 1182   1.029   1.915   0.133
  406TIP3    H2 1183   0.887   1.866   0.114
  407TIP3   OH2 1184   4.657   3.716   1.547
  407TIP3    H1 1185   4.684   3.806   1.567
  407TIP3    H2 1186   4.582   3.726   1.488
  408TIP3   OH2 1187   1.098   2.994   3.717
  408TIP3    H1 1188   1.145   2.943   3.783
  408TIP3    H2 1189   1.110   3.085   3.744
  409TIP3   OH2 1190   1.374   3.974   2.009
  409TIP3    H1 1191   1.375   4.009   2.098
  409TIP3    H2 1192   1.335   3.887   2.018
  410TIP3   OH2 1193   1.662   3.404   2.029
  410TIP3    H1 1194   1.575   3.364   2.027
  410TIP3    H2 1195   1.685   3.405   2.122
  411TIP3   OH2 1196   3.545   3.535   1.664
  411TIP3    H1 1197   3.538   3.602   1.596
  411TIP3    H2 1198   3.463   3.543   1.713
  412TIP3   OH2 1199   1.705   0.468   3.262
  412TIP3    H1 1200   1.624   0.491   3.309
  412TIP3    H2 1201   1.728   0.382   3.297
  413TIP3   OH2 1202   4.137   3.836   2.046
  413TIP3    H1 1203   4.206   3.900   2.066
  413TIP3    H2 1204   4.184   3.764   2.004
  414TIP3   OH2 1205   6.423   4.605   5.664
  414TIP3    H1 1206   6.491   4.552   5.622
  414TIP3    H2 1207   6.469   4.659   5.727
  415TIP3   OH2 1208   4.955   1.321   3.398
  415TIP3    H1 1209   4.952   1.229   3.424
  415TIP3    H2 1210   4.978   1.319   3.305
  416TIP3   OH2 1211   6.073   4.018   3.219
  416TIP3    H1 1212   6.084   4.108   3.251
  416TIP3    H2 1213   6.117   4.017   3.134
  417TIP3   OH2 1214   7.112   4.173   0.612
  417TIP3    H1 1215   7.163   4.112   0.665
  417TIP3    H2 1216   7.066   4.117   0.549
  418TIP3   OH2 1217   0.387   5.669   3.002
  418TIP3    H1 1218   0.310   5.665   3.058
  418TIP3    H2 1219   0.413   5.577   2.990
  419TIP3   OH2 1220   3.198   1.244   2.026
  419TIP3    H1 1221   3.185   1.173   1.963
  419TIP3    H2 1222   3.123   1.238   2.085
  420TIP3   OH2 1223   6.934   4.965   3.479
  420TIP3    H1 1224   6.893   4.882   3.502
  420TIP3    H2 1225   6.991   4.944   3.404
  421TIP3   OH2 1226   0.298   4.351   3.764
  421TIP3    H1 1227   0.298   4.445   3.744
  421TIP3    H2 1228   0.322   4.346   3.856
  422TIP3   OH2 1229   0.627   3.898   5.052
  422TIP3    H1 1230   0.573   3.940   5.120
  422TIP3    H2 1231   0.679   3.969   5.015
  423TIP3   OH2 1232   5.568   0.817   2.935
  423TIP3    H1 1233   5.604   0.845   2.851
  423TIP3    H2 1234   5.575   0.722   2.934
  424TIP3   OH2 1235   5.016   4.409   0.847
  424TIP3    H1 1236   4.988   4.404   0.939
  424TIP3    H2 1237   4.935   4.395   0.797
  425TIP3   OH2 1238   1.150   3.824   1.364
  425TIP3    H1 1239   1.211   3.758   1.330
  425TIP3    H2 1240   1.121   3.873   1.287
  426TIP3   OH2 1241   2.647   0.942   3.740
  426TIP3    H1 1242   2.584   0.870   3.736
  426TIP3    H2 1243   2.732   0.899   3.749
  427TIP3   OH2 1244   3.018   0.107   1.003
  427TIP3    H1 1245   3.038   0.154   1.084
  427TIP3    H2 1246   3.087   0.041   0.996
  428TIP3   OH2 1247   6.307   4.946   2.720
  428TIP3    H1 1248   6.363   4.992   2.657
  428TIP3    H2 1249   6.302   5.006   2.795
  429TIP3   OH2 1250   0.959   1.454   4.641
  429TIP3    H1 1251   0.967   1.489   4.730
  429TIP3    H2 1252   0.943   1.531   4.586
  430TIP3   OH2 1253   6.568   4.063   5.787
  430TIP3    H1 1254   6.585   4.086   5.696
  430TIP3    H2 1255   6.485   4.105   5.808
  431TIP3   OH2 1256   3.280   4.954   4.887
  431TIP3    H1 1257   3.197   4.916   4.857
  431TIP3    H2 1258   3.275   5.046   4.861
  432TIP3   OH2 1259   4.017   6.241   4.379
  432TIP3    H1 1260   4.033   6.146   4.377
  432TIP3    H2 1261   3.924   6.249   4.396
  433TIP3   OH2 1262   5.788   4.651   5.106
  433TIP3    H1 1263   5.770   4.560   5.129
  433TIP3    H2 1264   5.875   4.649   5.064
  434TIP3   OH2 1265   4.843   2.234   5.345
  434TIP3    H1 1266   4.763   2.276   5.376
  434TIP3    H2 1267   4.861   2.165   5.409
  435TIP3   OH2 1268   2.999   2.797   5.320
  435TIP3    H1 1269   2.945   2.849   5.260
  435TIP3    H2 1270   2.956   2.712   5.323
  436TIP3   OH2 1271   2.554   5.733   5.813
  436TIP3    H1 1272   2.595   5.791   5.877
  436TIP3    H2 1273   2.532   5.654   5.862
  437TIP3   OH2 1274   3.111   2.776   1.892
  437TIP3    H1 1275   3.200   2.802   1.913
  437TIP3    H2 1276   3.121   2.695   1.842
  438TIP3   OH2 1277   4.122   3.095   0.758
  438TIP3    H1 1278   4.151   3.155   0.827
  438TIP3    H2 1279   4.058   3.146   0.708
  439TIP3   OH2 1280   0.696   5.542   5.805
  439TIP3    H1 1281   0.756   5.535   5.731
  439TIP3    H2 1282   0.720   5.468   5.862
  440TIP3   OH2 1283   0.460   3.103   2.007
  440TIP3    H1 1284   0.531   3.048   1.976
  440TIP3    H2 1285   0.470   3.104   2.102
  441TIP3   OH2 1286   3.652   3.426   5.149
  441TIP3    H1 1287   3.746   3.416   5.162
  441TIP3    H2 1288   3.613   3.412   5.235
  442TIP3   OH2 1289   6.109   4.001   1.049
  442TIP3    H1 1290   6.059   4.008   0.968
  442TIP3    H2 1291   6.160   4.082   1.051
  443TIP3   OH2 1292   3.958   4.548   1.395
  443TIP3    H1 1293   3.897   4.478   1.418
  443TIP3    H2 1294   3.941   4.618   1.458
  444TIP3   OH2 1295   6.482   2.440   3.058
  444TIP3    H1 1296   6.512   2.360   3.016
  444TIP3    H2 1297   6.402   2.463   3.012
  445TIP3   OH2 1298   4.088   5.185   4.164
  445TIP3    H1 1299   4.104   5.278   4.150
  445TIP3    H2 1300   4.029   5.181   4.239
  446TIP3   OH2 1301   4.925   0.189   1.872
  446TIP3    H1 1302   4.904   0.195   1.778
  446TIP3    H2 1303   5.020   0.178   1.875
  447TIP3   OH2 1304   5.710   3.056   3.451
  447TIP3    H1 1305   5.659   3.062   3.532
  447TIP3    H2 1306   5.679   3.129   3.398
  448TIP3   OH2 1307   0.109   5.940   3.614
  448TIP3    H1 1308   0.107   6.021   3.666
  448TIP3    H2 1309   0.187   5.948   3.560
  449TIP3   OH2 1310   4.113   6.457   0.893
  449TIP3    H1 1311   4.031   6.491   0.857
  449TIP3    H2 1312   4.085   6.390   0.956
  450TIP3   OH2 1313   5.298   4.082   1.348
  450TIP3    H1 1314   5.236   4.038   1.289
  450TIP3    H2 1315   5.354   4.133   1.290
  451TIP3   OH2 1316   3.584   0.334   0.388
  451TIP3    H1 1317   3.582   0.428   0.371
  451TIP3    H2 1318   3.653   0.322   0.453
  452TIP3   OH2 1319   4.441   0.663   4.545
  452TIP3    H1 1320   4.380   0.612   4.598
  452TIP3    H2 1321   4.517   0.605   4.533
  453TIP3   OH2 1322   5.760   0.789   3.520
  453TIP3    H1 1323   5.773   0.743   3.603
  453TIP3    H2 1324   5.689   0.742   3.477
  454TIP3   OH2 1325   0.173   1.668   1.139
  454TIP3    H1 1326   0.210   1.725   1.207
  454TIP3    H2 1327   0.080   1.661   1.161
  455TIP3   OH2 1328   4.743   4.655   2.467
  455TIP3    H1 1329   4.830   4.660   2.428
  455TIP3    H2 1330   4.759   4.663   2.561
  456TIP3   OH2 1331   6.534   0.164   3.573
  456TIP3    H1 1332   6.576   0.078   3.558
  456TIP3    H2 1333   6.440   0.146   3.567
  457TIP3   OH2 1334   4.416   1.311   1.351
  457TIP3    H1 1335   4.337   1.338   1.304
  457TIP3    H2 1336   4.416   1.216   1.346
  458TIP3   OH2 1337   3.309   2.406   2.106
  458TIP3    H1 1338   3.240   2.370   2.163
  458TIP3    H2 1339   3.339   2.484   2.151
  459TIP3   OH2 1340   1.954   0.322   3.410
  459TIP3    H1 1341   2.023   0.308   3.345
  459TIP3    H2 1342   1.879   0.274   3.376
  460TIP3   OH2 1343   5.249   2.950   4.738
  460TIP3    H1 1344   5.275   2.870   4.692
  460TIP3    H2 1345   5.164   2.928   4.777
  461TIP3   OH2 1346   2.247   2.069   1.339
  461TIP3    H1 1347   2.272   1.984   1.376
  461TIP3    H2 1348   2.162   2.053   1.298
  462TIP3   OH2 1349   3.250   6.241   5.767
  462TIP3    H1 1350   3.282   6.227   5.678
  462TIP3    H2 1351   3.162   6.276   5.756
  463TIP3   OH2 1352   3.667   0.666   3.732
  463TIP3    H1 1353   3.645   0.657   3.639
  463TIP3    H2 1354   3.753   0.624   3.740
  464TIP3   OH2 1355   2.482   5.642   4.399
  464TIP3    H1 1356   2.409   5.674   4.347
  464TIP3    H2 1357   2.447   5.564   4.443
  465TIP3   OH2 1358   5.368   3.629   5.107
  465TIP3    H1 1359   5.296   3.575   5.139
  465TIP3    H2 1360   5.414   3.658   5.186
  466TIP3   OH2 1361   6.084   1.240   3.209
  466TIP3    H1 1362   6.063   1.146   3.210
  466TIP3    H2 1363   6.072   1.266   3.118
  467TIP3   OH2 1364   1.563   0.538   2.270
  467TIP3    H1 1365   1.610   0.488   2.336
  467TIP3    H2 1366   1.516   0.471   2.218
  468TIP3   OH2 1367   1.209   0.557   5.880
  468TIP3    H1 1368   1.190   0.473   5.921
  468TIP3    H2 1369   1.153   0.559   5.802
  469TIP3   OH2 1370   2.151   3.301   0.135
  469TIP3    H1 1371   2.185   3.297   0.224
  469TIP3    H2 1372   2.170   3.390   0.106
  470TIP3   OH2 1373   2.079   0.955   3.622
  470TIP3    H1 1374   2.131   0.949   3.541
  470TIP3    H2 1375   2.143   0.975   3.690
  471TIP3   OH2 1376   6.664   6.550   2.833
  471TIP3    H1 1377   6.610   6.488   2.881
  471TIP3    H2 1378   6.624   6.555   2.746
  472TIP3   OH2 1379   5.373   5.988   3.977
  472TIP3    H1 1380   5.366   6.028   4.063
  472TIP3    H2 1381   5.444   6.035   3.934
  473TIP3   OH2 1382   2.357   5.887   0.761
  473TIP3    H1 1383   2.416   5.931   0.701
  473TIP3    H2 1384   2.289   5.850   0.705
  474TIP3   OH2 1385   6.014   4.359   4.219
  474TIP3    H1 1386   6.070   4.291   4.182
  474TIP3    H2 1387   6.026   4.435   4.162
  475TIP3   OH2 1388   3.555   1.487   2.853
  475TIP3    H1 1389   3.648   1.509   2.856
  475TIP3    H2 1390   3.552   1.402   2.809
  476TIP3   OH2 1391   0.062   2.063   0.003
  476TIP3    H1 1392   0.004   2.119   0.055
  476TIP3    H2 1393   0.009   2.036  -0.072
  477TIP3   OH2 1394   4.967   5.687   3.646
  477TIP3    H1 1395   4.879   5.651   3.658
  477TIP3    H2 1396   5.016   5.655   3.722
  478TIP3   OH2 1397   1.922   6.334   2.117
  478TIP3    H1 1398   1.904   6.306   2.027
  478TIP3    H2 1399   1.842   6.378   2.145
  479TIP3   OH2 1400   2.580   4.011   3.687
  479TIP3    H1 1401   2.539   3.936   3.643
  479TIP3    H2 1402   2.674   3.998   3.672
  480TIP3   OH2 1403   0.570   0.110   4.342
  480TIP3    H1 1404   0.626   0.186   4.355
  480TIP3    H2 1405   0.491   0.146   4.302
  481TIP3   OH2 1406   6.892   6.637   0.866
  481TIP3    H1 1407   6.906   6.543   0.857
  481TIP3    H2 1408   6.821   6.644   0.930
  482TIP3   OH2 1409   6.472   0.167   1.996
  482TIP3    H1 1410   6.526   0.135   1.924
  482TIP3    H2 1411   6.534   0.190   2.065
  483TIP3   OH2 1412   4.585   6.322   3.757
  483TIP3    H1 1413   4.598   6.295   3.848
  483TIP3    H2 1414   4.526   6.256   3.721
  484TIP3   OH2 1415   3.021   3.623   0.667
  484TIP3    H1 1416   3.080   3.547   0.672
  484TIP3    H2 1417   3.033   3.668   0.751
  485TIP3   OH2 1418   1.845   5.519   5.094
  485TIP3    H1 1419   1.939   5.527   5.105
  485TIP3    H2 1420   1.833   5.504   5.000
  486TIP3   OH2 1421   4.255   3.398   0.493
  486TIP3    H1 1422   4.235   3.311   0.460
  486TIP3    H2 1423   4.304   3.440   0.422
  487TIP3   OH2 1424   1.503   5.353   1.671
  487TIP3    H1 1425   1.552   5.314   1.599
  487TIP3    H2 1426   1.570   5.394   1.726
  488TIP3   OH2 1427   0.902   2.714   3.225
  488TIP3    H1 1428   0.808   2.730   3.221
  488TIP3    H2 1429   0.921   2.664   3.145
  489TIP3   OH2 1430   7.052   3.470   4.946
  489TIP3    H1 1431   7.144   3.459   4.970
  489TIP3    H2 1432   7.014   3.517   5.020
  490TIP3   OH2 1433   0.808   2.520   1.067
  490TIP3    H1 1434   0.809   2.611   1.036
  490TIP3    H2 1435   0.827   2.526   1.160
  491TIP3   OH2 1436   0.079   5.032   3.397
  491TIP3    H1 1437   0.063   4.938   3.398
  491TIP3    H2 1438   0.174   5.040   3.404
  492TIP3   OH2 1439   5.738   1.402   5.876
  492TIP3    H1 1440   5.770   1.428   5.789
  492TIP3    H2 1441   5.811   1.419   5.935
  493TIP3   OH2 1442   5.189   3.047   5.838
  493TIP3    H1 1443   5.213   3.132   5.799
  493TIP3    H2 1444   5.203   2.984   5.768
  494TIP3   OH2 1445   2.086   0.134   3.586
  494TIP3    H1 1446   2.015   0.138   3.651
  494TIP3    H2 1447   2.073   0.212   3.532
  495TIP3   OH2 1448   0.402   0.380   4.856
  495TIP3    H1 1449   0.432   0.290   4.863
  495TIP3    H2 1450   0.457   0.428   4.919
  496TIP3   OH2 1451   7.155   5.141   2.641
  496TIP3    H1 1452   7.126   5.179   2.558
  496TIP3    H2 1453   7.129   5.049   2.636
  497TIP3   OH2 1454   5.033   0.396   4.891
  497TIP3    H1 1455   4.973   0.324   4.873
  497TIP3    H2 1456   5.120   0.356   4.888
  498TIP3   OH2 1457   2.518   5.630   2.164
  498TIP3    H1 1458   2.577   5.609   2.236
  498TIP3    H2 1459   2.520   5.553   2.107
  499TIP3   OH2 1460   7.040   3.596   4.358
  499TIP3    H1 1461   6.963   3.603   4.301
  499TIP3    H2 1462   7.016   3.644   4.437
  500TIP3   OH2 1463   3.820   3.866   1.956
  500TIP3    H1 1464   3.895   3.903   1.909
  500TIP3    H2 1465   3.859   3.796   2.010
  501TIP3   OH2 1466   3.753   2.477   5.676
  501TIP3    H1 1467   3.820   2.532   5.636
  501TIP3    H2 1468   3.777   2.471   5.768
  502TIP3   OH2 1469   2.093   0.665   3.691
  502TIP3    H1 1470   2.117   0.754   3.715
  502TIP3    H2 1471   2.017   0.675   3.634
  503TIP3   OH2 1472   3.616   2.433   4.918
  503TIP3    H1 1473   3.610   2.481   5.001
  503TIP3    H2 1474   3.649   2.497   4.855
  504TIP3   OH2 1475   2.569   5.626   4.654
  504TIP3    H1 1476   2.599   5.684   4.725
  504TIP3    H2 1477   2.529   5.686   4.590
  505TIP3   OH2 1478   6.857   0.160   3.125
  505TIP3    H1 1479   6.934   0.127   3.078
  505TIP3    H2 1480   6.890   0.181   3.213
  506TIP3   OH2 1481   1.160   5.294   2.982
  506TIP3    H1 1482   1.195   5.367   3.034
  506TIP3    H2 1483   1.117   5.337   2.907
  507TIP3   OH2 1484   1.656   1.211   4.522
  507TIP3    H1 1485   1.719   1.284   4.523
  507TIP3    H2 1486   1.666   1.173   4.435
  508TIP3   OH2 1487   5.651   2.353   2.015
  508TIP3    H1 1488   5.614   2.289   1.954
  508TIP3    H2 1489   5.688   2.301   2.086
  509TIP3   OH2 1490   3.361   5.758   1.793
  509TIP3    H1 1491   3.316   5.818   1.852
  509TIP3    H2 1492   3.446   5.799   1.777
  510TIP3   OH2 1493   3.340   6.375   4.536
  510TIP3    H1 1494   3.361   6.300   4.481
  510TIP3    H2 1495   3.273   6.423   4.488
  511TIP3   OH2 1496   5.139   2.442   1.804
  511TIP3    H1 1497   5.181   2.484   1.729
  511TIP3    H2 1498   5.092   2.512   1.847
  512TIP3   OH2 1499   2.912   6.567   5.443
  512TIP3    H1 1500   2.986   6.507   5.429
  512TIP3    H2 1501   2.886   6.593   5.354
  513TIP3   OH2 1502   3.260   0.149   1.254
  513TIP3    H1 1503   3.297   0.227   1.213
  513TIP3    H2 1504   3.288   0.076   1.198
  514TIP3   OH2 1505   6.467   0.132   0.080
  514TIP3    H1 1506   6.396   0.082   0.120
  514TIP3    H2 1507   6.437   0.223   0.084
  515TIP3   OH2 1508   4.449   3.941   1.748
  515TIP3    H1 1509   4.416   4.012   1.804
  515TIP3    H2 1510   4.544   3.953   1.747
  516TIP3   OH2 1511   0.587   5.258   3.932
  516TIP3    H1 1512   0.632   5.291   4.010
  516TIP3    H2 1513   0.632   5.300   3.858
  517TIP3   OH2 1514   3.278   2.817   1.366
  517TIP3    H1 1515   3.303   2.725   1.364
  517TIP3    H2 1516   3.267   2.836   1.460
  518TIP3   OH2 1517   1.014   5.107   2.686
  518TIP3    H1 1518   0.961   5.044   2.734
  518TIP3    H2 1519   0.954   5.180   2.668
  519TIP3   OH2 1520   0.007   6.269   0.286
  519TIP3    H1 1521   0.095   6.304   0.300
  519TIP3    H2 1522  -0.005   6.271   0.192
  520TIP3   OH2 1523   3.168   5.166   5.321
  520TIP3    H1 1524   3.152   5.259   5.304
  520TIP3    H2 1525   3.092   5.121   5.283
  521TIP3   OH2 1526   4.524   4.541   5.028
  521TIP3    H1 1527   4.435   4.574   5.035
  521TIP3    H2 1528   4.524   4.461   5.082
  522TIP3   OH2 1529   0.697   2.890   4.272
  522TIP3    H1 1530   0.783   2.878   4.231
  522TIP3    H2 1531   0.685   2.811   4.325
  523TIP3   OH2 1532   2.725   0.944   4.537
  523TIP3    H1 1533   2.763   1.032   4.534
  523TIP3    H2 1534   2.770   0.896   4.468
  524TIP3   OH2 1535   4.780   0.481   1.622
  524TIP3    H1 1536   4.858   0.476   1.676
  524TIP3    H2 1537   4.771   0.574   1.600
  525TIP3   OH2 1538   1.489   5.600   4.100
  525TIP3    H1 1539   1.419   5.543   4.068
  525TIP3    H2 1540   1.514   5.563   4.184
  526TIP3   OH2 1541   1.807   3.653   5.473
  526TIP3    H1 1542   1.797   3.612   5.559
  526TIP3    H2 1543   1.785   3.745   5.488
  527TIP3   OH2 1544   1.785   4.432   1.260
  527TIP3    H1 1545   1.855   4.384   1.303
  527TIP3    H2 1546   1.728   4.461   1.331
  528TIP3   OH2 1547   3.412   2.096   4.491
  528TIP3    H1 1548   3.336   2.038   4.490
  528TIP3    H2 1549   3.376   2.184   4.483
  529TIP3   OH2 1550   4.189   3.634   4.598
  529TIP3    H1 1551   4.093   3.632   4.607
  529TIP3    H2 1552   4.221   3.635   4.688
  530TIP3   OH2 1553   5.130   5.866   2.617
  530TIP3    H1 1554   5.168   5.928   2.554
  530TIP3    H2 1555   5.189   5.791   2.615
  531TIP3   OH2 1556   6.007   4.530   5.516
  531TIP3    H1 1557   6.047   4.614   5.495
  531TIP3    H2 1558   6.062   4.494   5.586
  532TIP3   OH2 1559   1.312   3.939   5.745
  532TIP3    H1 1560   1.396   3.964   5.708
  532TIP3    H2 1561   1.289   3.857   5.701
  533TIP3   OH2 1562   0.338   6.521   1.143
  533TIP3    H1 1563   0.426   6.493   1.167
  533TIP3    H2 1564   0.348   6.614   1.120
  534TIP3   OH2 1565   5.953   0.949   3.353
  534TIP3    H1 1566   5.929   0.938   3.445
  534TIP3    H2 1567   5.997   0.868   3.330
  535TIP3   OH2 1568   5.406   2.743   3.682
  535TIP3    H1 1569   5.351   2.711   3.611
  535TIP3    H2 1570   5.494   2.747   3.645
  536TIP3   OH2 1571   0.355   3.549   5.719
  536TIP3    H1 1572   0.311   3.470   5.752
  536TIP3    H2 1573   0.427   3.516   5.666
  537TIP3   OH2 1574   6.816   1.325   2.478
  537TIP3    H1 1575   6.756   1.258   2.512
  537TIP3    H2 1576   6.865   1.354   2.556
  538TIP3   OH2 1577   4.221   0.315   1.364
  538TIP3    H1 1578   4.247   0.229   1.332
  538TIP3    H2 1579   4.140   0.300   1.412
  539TIP3   OH2 1580   0.193   4.974   3.892
  539TIP3    H1 1581   0.131   4.985   3.820
  539TIP3    H2 1582   0.151   5.015   3.967
  540TIP3   OH2 1583   0.674   4.880   1.573
  540TIP3    H1 1584   0.746   4.929   1.533
  540TIP3    H2 1585   0.597   4.907   1.524
  541TIP3   OH2 1586   3.808   5.985   3.017
  541TIP3    H1 1587   3.868   5.961   2.946
  541TIP3    H2 1588   3.852   5.954   3.097
  542TIP3   OH2 1589   3.611   3.340   0.561
  542TIP3    H1 1590   3.669   3.390   0.619
  542TIP3    H2 1591   3.658   3.338   0.477
  543TIP3   OH2 1592   1.585   3.743   1.300
  543TIP3    H1 1593   1.562   3.801   1.373
  543TIP3    H2 1594   1.529   3.666   1.311
  544TIP3   OH2 1595   2.702   5.923   0.234
  544TIP3    H1 1596   2.677   5.958   0.148
  544TIP3    H2 1597   2.632   5.862   0.257
  545TIP3   OH2 1598   5.329   5.893   0.595
  545TIP3    H1 1599   5.358   5.808   0.562
  545TIP3    H2 1600   5.385   5.910   0.670
  546TIP3   OH2 1601   6.430   4.974   1.500
  546TIP3    H1 1602   6.464   4.893   1.463
  546TIP3    H2 1603   6.441   5.038   1.429
  547TIP3   OH2 1604   3.347   4.757   3.323
  547TIP3    H1 1605   3.373   4.702   3.397
  547TIP3    H2 1606   3.251   4.761   3.329
  548TIP3   OH2 1607   2.624   3.917   3.078
  548TIP3    H1 1608   2.691   3.864   3.121
  548TIP3    H2 1609   2.637   4.005   3.111
  549TIP3   OH2 1610   5.470   0.410   2.051
  549TIP3    H1 1611   5.515   0.460   2.119
  549TIP3    H2 1612   5.412   0.473   2.008
  550TIP3   OH2 1613   3.797   1.283   2.014
  550TIP3    H1 1614   3.825   1.316   1.928
  550TIP3    H2 1615   3.869   1.226   2.042
  551TIP3   OH2 1616   5.462   3.294   0.870
  551TIP3    H1 1617   5.480   3.333   0.955
  551TIP3    H2 1618   5.383   3.240   0.885
  552TIP3   OH2 1619   1.897   1.894   3.685
  552TIP3    H1 1620   1.954   1.943   3.744
  552TIP3    H2 1621   1.849   1.962   3.637
  553TIP3   OH2 1622   5.474   4.404   5.444
  553TIP3    H1 1623   5.441   4.487   5.478
  553TIP3    H2 1624   5.429   4.392   5.360
  554TIP3   OH2 1625   0.958   2.373   4.198
  554TIP3    H1 1626   0.880   2.369   4.252
  554TIP3    H2 1627   0.971   2.283   4.167
  555TIP3   OH2 1628   6.077   5.102   3.324
  555TIP3    H1 1629   6.145   5.088   3.390
  555TIP3    H2 1630   6.021   5.169   3.363
  556TIP3   OH2 1631   7.011   4.594   1.109
  556TIP3    H1 1632   7.050   4.510   1.081
  556TIP3    H2 1633   7.087   4.651   1.123
  557TIP3   OH2 1634   2.212   6.690   5.080
  557TIP3    H1 1635   2.303   6.660   5.090
  557TIP3    H2 1636   2.219   6.766   5.023
  558TIP3   OH2 1637   4.001   0.623   4.008
  558TIP3    H1 1638   3.952   0.701   3.981
  558TIP3    H2 1639   3.935   0.565   4.046
  559TIP3   OH2 1640   5.041   1.650   0.038
  559TIP3    H1 1641   4.967   1.633  -0.020
  559TIP3    H2 1642   5.114   1.602  -0.002
  560TIP3   OH2 1643   4.496   3.682   1.815
  560TIP3    H1 1644   4.482   3.776   1.807
  560TIP3    H2 1645   4.460   3.644   1.735
  561TIP3   OH2 1646   2.950   3.038   4.349
  561TIP3    H1 1647   2.914   2.991   4.273
  561TIP3    H2 1648   2.933   3.130   4.331
  562TIP3   OH2 1649   5.530   3.863   1.314
  562TIP3    H1 1650   5.574   3.946   1.329
  562TIP3    H2 1651   5.474   3.878   1.238
  563TIP3   OH2 1652   2.998   4.607   2.262
  563TIP3    H1 1653   3.067   4.612   2.328
  563TIP3    H2 1654   2.931   4.552   2.302
  564TIP3   OH2 1655   0.100   3.261   4.745
  564TIP3    H1 1656   0.190   3.292   4.762
  564TIP3    H2 1657   0.109   3.206   4.667
  565TIP3   OH2 1658   2.244   6.534   0.562
  565TIP3    H1 1659   2.283   6.454   0.597
  565TIP3    H2 1660   2.221   6.513   0.472
  566TIP3   OH2 1661   4.989   0.515   1.795
  566TIP3    H1 1662   5.050   0.469   1.852
  566TIP3    H2 1663   4.924   0.553   1.854
  567TIP3   OH2 1664   4.584   0.167   0.654
  567TIP3    H1 1665   4.489   0.165   0.655
  567TIP3    H2 1666   4.608   0.223   0.727
  568TIP3   OH2 1667   1.409   6.399   1.007
  568TIP3    H1 1668   1.338   6.375   1.067
  568TIP3    H2 1669   1.368   6.399   0.921
  569TIP3   OH2 1670   1.902   4.497   4.125
  569TIP3    H1 1671   1.823   4.442   4.125
  569TIP3    H2 1672   1.962   4.453   4.065
  570TIP3   OH2 1673   6.091   0.518   1.277
  570TIP3    H1 1674   6.041   0.506   1.197
  570TIP3    H2 1675   6.060   0.600   1.314
  571TIP3   OH2 1676   1.429   5.855   4.361
  571TIP3    H1 1677   1.482   5.934   4.366
  571TIP3    H2 1678   1.480   5.789   4.408
  572TIP3   OH2 1679   2.030   4.697   3.841
  572TIP3    H1 1680   1.965   4.639   3.801
  572TIP3    H2 1681   2.029   4.776   3.787
  573TIP3   OH2 1682   1.243   2.993   4.936
  573TIP3    H1 1683   1.315   3.044   4.897
  573TIP3    H2 1684   1.254   2.906   4.899
  574TIP3   OH2 1685   2.578   2.314   5.034
  574TIP3    H1 1686   2.588   2.262   4.954
  574TIP3    H2 1687   2.483   2.321   5.046
  575TIP3   OH2 1688   5.570   6.382   4.172
  575TIP3    H1 1689   5.620   6.446   4.122
  575TIP3    H2 1690   5.488   6.425   4.192
  576TIP3   OH2 1691   4.036   2.070   1.730
  576TIP3    H1 1692   4.080   2.149   1.760
  576TIP3    H2 1693   4.097   2.032   1.666
  577TIP3   OH2 1694   4.591   4.374   3.833
  577TIP3    H1 1695   4.607   4.364   3.927
  577TIP3    H2 1696   4.586   4.285   3.799
  578TIP3   OH2 1697   5.717   4.124   4.630
  578TIP3    H1 1698   5.735   4.126   4.536
  578TIP3    H2 1699   5.699   4.032   4.649
  579TIP3   OH2 1700   2.200   3.181   1.831
  579TIP3    H1 1701   2.207   3.087   1.813
  579TIP3    H2 1702   2.278   3.219   1.792
  580TIP3   OH2 1703   4.432   6.470   5.053
  580TIP3    H1 1704   4.411   6.553   5.095
  580TIP3    H2 1705   4.510   6.439   5.100
  581TIP3   OH2 1706   4.935   4.921   1.409
  581TIP3    H1 1707   4.995   4.981   1.363
  581TIP3    H2 1708   4.849   4.941   1.371
  582TIP3   OH2 1709   5.273   2.798   3.912
  582TIP3    H1 1710   5.251   2.883   3.875
  582TIP3    H2 1711   5.332   2.758   3.848
  583TIP3   OH2 1712   5.006   1.839   5.274
  583TIP3    H1 1713   4.947   1.907   5.242
  583TIP3    H2 1714   5.090   1.883   5.283
  584TIP3   OH2 1715   3.843   0.223   2.088
  584TIP3    H1 1716   3.850   0.151   2.150
  584TIP3    H2 1717   3.814   0.298   2.141
  585TIP3   OH2 1718   3.659   3.479   2.030
  585TIP3    H1 1719   3.594   3.549   2.037
  585TIP3    H2 1720   3.726   3.503   2.095
  586TIP3   OH2 1721   6.059   5.768   0.294
  586TIP3    H1 1722   6.050   5.836   0.228
  586TIP3    H2 1723   6.105   5.697   0.250
  587TIP3   OH2 1724   1.672   5.464   3.465
  587TIP3    H1 1725   1.596   5.503   3.509
  587TIP3    H2 1726   1.641   5.446   3.376
  588TIP3   OH2 1727   3.051   0.770   5.692
  588TIP3    H1 1728   3.142   0.743   5.686
  588TIP3    H2 1729   3.042   0.841   5.628
  589TIP3   OH2 1730   2.685   2.642   1.765
  589TIP3    H1 1731   2.758   2.700   1.787
  589TIP3    H2 1732   2.617   2.664   1.829
  590TIP3   OH2 1733   5.825   0.889   5.587
  590TIP3    H1 1734   5.816   0.801   5.624
  590TIP3    H2 1735   5.826   0.947   5.663
  591TIP3   OH2 1736   4.133   0.902   0.897
  591TIP3    H1 1737   4.107   0.942   0.813
  591TIP3    H2 1738   4.057   0.848   0.921
  592TIP3   OH2 1739   4.471   3.315   0.977
  592TIP3    H1 1740   4.384   3.352   0.959
  592TIP3    H2 1741   4.480   3.321   1.073
  593TIP3   OH2 1742  -0.034   0.890   1.202
  593TIP3    H1 1743   0.014   0.940   1.136
  593TIP3    H2 1744   0.028   0.824   1.232
  594TIP3   OH2 1745   0.816   3.143   2.111
  594TIP3    H1 1746   0.892   3.195   2.140
  594TIP3    H2 1747   0.810   3.072   2.175
  595TIP3   OH2 1748   1.456   2.754   0.247
  595TIP3    H1 1749   1.527   2.690   0.239
  595TIP3    H2 1750   1.393   2.712   0.306
  596TIP3   OH2 1751   4.178   0.175   4.988
  596TIP3    H1 1752   4.257   0.179   5.042
  596TIP3    H2 1753   4.137   0.092   5.013
  597TIP3   OH2 1754   6.080   4.807   5.369
  597TIP3    H1 1755   6.171   4.790   5.345
  597TIP3    H2 1756   6.040   4.839   5.288
  598TIP3   OH2 1757   1.169   4.545   4.635
  598TIP3    H1 1758   1.152   4.639   4.637
  598TIP3    H2 1759   1.204   4.529   4.548
  599TIP3   OH2 1760   7.139   3.210   4.497
  599TIP3    H1 1761   7.221   3.161   4.492
  599TIP3    H2 1762   7.166   3.302   4.504
  600TIP3   OH2 1763   1.807   2.317   0.851
  600TIP3    H1 1764   1.823   2.274   0.935
  600TIP3    H2 1765   1.884   2.296   0.798
  601TIP3   OH2 1766   4.864   2.761   2.450
  601TIP3    H1 1767   4.941   2.777   2.397
  601TIP3    H2 1768   4.814   2.843   2.446
  602TIP3   OH2 1769   3.729   0.740   1.949
  602TIP3    H1 1770   3.758   0.831   1.940
  602TIP3    H2 1771   3.640   0.740   1.915
  603TIP3   OH2 1772   2.662   3.677   3.825
  603TIP3    H1 1773   2.580   3.651   3.867
  603TIP3    H2 1774   2.701   3.741   3.885
  604TIP3   OH2 1775   6.477   3.878   2.481
  604TIP3    H1 1776   6.565   3.915   2.470
  604TIP3    H2 1777   6.454   3.844   2.394
  605TIP3   OH2 1778   0.013   0.907   5.063
  605TIP3    H1 1779  -0.069   0.868   5.095
  605TIP3    H2 1780   0.079   0.880   5.126
  606TIP3   OH2 1781   5.302   3.243   3.612
  606TIP3    H1 1782   5.296   3.153   3.580
  606TIP3    H2 1783   5.272   3.297   3.538
  607TIP3   OH2 1784   6.424   1.794   2.573
  607TIP3    H1 1785   6.392   1.733   2.507
  607TIP3    H2 1786   6.469   1.738   2.637
  608TIP3   OH2 1787   5.808   4.849   3.935
  608TIP3    H1 1788   5.868   4.785   3.974
  608TIP3    H2 1789   5.770   4.895   4.009
  609TIP3   OH2 1790   4.703   1.003   5.513
  609TIP3    H1 1791   4.650   0.934   5.553
  609TIP3    H2 1792   4.650   1.038   5.442
  610TIP3   OH2 1793   4.167   0.531   0.782
  610TIP3    H1 1794   4.231   0.597   0.810
  610TIP3    H2 1795   4.083   0.575   0.792
  611TIP3   OH2 1796   1.207   4.145   5.062
  611TIP3    H1 1797   1.224   4.207   5.132
  611TIP3    H2 1798   1.286   4.145   5.009
  612TIP3   OH2 1799   5.003   0.651   0.286
  612TIP3    H1 1800   4.915   0.683   0.306
  612TIP3    H2 1801   4.993   0.557   0.274
  613TIP3   OH2 1802   5.138   0.246   4.110
  613TIP3    H1 1803   5.105   0.221   4.197
  613TIP3    H2 1804   5.220   0.292   4.128
  614TIP3   OH2 1805   4.976   1.274   1.254
  614TIP3    H1 1806   5.009   1.362   1.241
  614TIP3    H2 1807   4.886   1.277   1.222
  615TIP3   OH2 1808   6.242   3.203   1.257
  615TIP3    H1 1809   6.313   3.194   1.320
  615TIP3    H2 1810   6.272   3.271   1.197
  616TIP3   OH2 1811   6.386   4.640   1.271
  616TIP3    H1 1812   6.347   4.695   1.339
  616TIP3    H2 1813   6.464   4.687   1.242
  617TIP3   OH2 1814   1.948   6.535   3.509
  617TIP3    H1 1815   1.859   6.526   3.541
  617TIP3    H2 1816   1.990   6.451   3.531
  618TIP3   OH2 1817   0.504   4.594   2.143
  618TIP3    H1 1818   0.456   4.591   2.060
  618TIP3    H2 1819   0.493   4.683   2.174
  619TIP3   OH2 1820   3.923   1.558   5.385
  619TIP3    H1 1821   3.982   1.598   5.321
  619TIP3    H2 1822   3.890   1.632   5.436
  620TIP3   OH2 1823   3.940   5.670   0.319
  620TIP3    H1 1824   3.940   5.707   0.407
  620TIP3    H2 1825   3.850   5.641   0.305
  621TIP3   OH2 1826   2.241   2.734   4.981
  621TIP3    H1 1827   2.233   2.699   4.893
  621TIP3    H2 1828   2.214   2.826   4.973
  622TIP3   OH2 1829   5.143   1.757   0.303
  622TIP3    H1 1830   5.159   1.695   0.232
  622TIP3    H2 1831   5.154   1.705   0.383
  623TIP3   OH2 1832   2.295   5.690   3.668
  623TIP3    H1 1833   2.204   5.686   3.636
  623TIP3    H2 1834   2.301   5.776   3.709
  624TIP3   OH2 1835   2.803   3.774   2.140
  624TIP3    H1 1836   2.862   3.843   2.111
  624TIP3    H2 1837   2.723   3.820   2.166
  625TIP3   OH2 1838   4.108   3.328   2.564
  625TIP3    H1 1839   4.054   3.367   2.633
  625TIP3    H2 1840   4.065   3.245   2.544
  626TIP3   OH2 1841   7.064   0.946   4.209
  626TIP3    H1 1842   7.057   1.038   4.233
  626TIP3    H2 1843   7.121   0.945   4.132
  627TIP3   OH2 1844   4.429   5.935   1.276
  627TIP3    H1 1845   4.409   5.883   1.198
  627TIP3    H2 1846   4.487   5.880   1.328
  628TIP3   OH2 1847   7.009   5.978   5.579
  628TIP3    H1 1848   7.065   6.050   5.608
  628TIP3    H2 1849   6.930   6.021   5.545
  629TIP3   OH2 1850   2.012   5.339   5.344
  629TIP3    H1 1851   2.066   5.379   5.275
  629TIP3    H2 1852   2.038   5.247   5.343
  630TIP3   OH2 1853   1.548   1.570   2.362
  630TIP3    H1 1854   1.530   1.650   2.313
  630TIP3    H2 1855   1.567   1.505   2.295
  631TIP3   OH2 1856   5.673   1.599   0.374
  631TIP3    H1 1857   5.631   1.526   0.327
  631TIP3    H2 1858   5.651   1.583   0.466
  632TIP3   OH2 1859   0.073   1.273   5.036
  632TIP3    H1 1860   0.029   1.210   4.978
  632TIP3    H2 1861   0.079   1.228   5.120
  633TIP3   OH2 1862   5.982   1.329   4.287
  633TIP3    H1 1863   5.961   1.239   4.264
  633TIP3    H2 1864   5.957   1.380   4.210
  634TIP3   OH2 1865   1.528   1.613   4.401
  634TIP3    H1 1866   1.492   1.700   4.416
  634TIP3    H2 1867   1.617   1.617   4.439
  635TIP3   OH2 1868   4.319   4.531   3.331
  635TIP3    H1 1869   4.250   4.580   3.288
  635TIP3    H2 1870   4.398   4.583   3.316
  636TIP3   OH2 1871   3.897   3.178   4.969
  636TIP3    H1 1872   3.894   3.272   4.988
  636TIP3    H2 1873   3.824   3.142   5.019
  637TIP3   OH2 1874   5.054   5.238   4.650
  637TIP3    H1 1875   5.076   5.330   4.663
  637TIP3    H2 1876   5.137   5.192   4.661
  638TIP3   OH2 1877   0.320   3.602   5.327
  638TIP3    H1 1878   0.267   3.545   5.384
  638TIP3    H2 1879   0.258   3.635   5.263
  639TIP3   OH2 1880   5.614   1.927   4.137
  639TIP3    H1 1881   5.695   1.901   4.180
  639TIP3    H2 1882   5.548   1.865   4.169
  640TIP3   OH2 1883   3.045   1.522   3.291
  640TIP3    H1 1884   3.057   1.549   3.382
  640TIP3    H2 1885   3.109   1.574   3.242
  641TIP3   OH2 1886   4.992   2.061   1.627
  641TIP3    H1 1887   4.949   2.134   1.584
  641TIP3    H2 1888   4.923   1.996   1.639
  642TIP3   OH2 1889   6.445   4.166   2.210
  642TIP3    H1 1890   6.380   4.177   2.140
  642TIP3    H2 1891   6.465   4.073   2.208
  643TIP3   OH2 1892   3.530   6.111   5.633
  643TIP3    H1 1893   3.545   6.033   5.581
  643TIP3    H2 1894   3.468   6.163   5.583
  644TIP3   OH2 1895   2.666   4.648   4.988
  644TIP3    H1 1896   2.682   4.611   4.901
  644TIP3    H2 1897   2.746   4.627   5.037
  645TIP3   OH2 1898   2.626   6.789   2.544
  645TIP3    H1 1899   2.542   6.746   2.528
  645TIP3    H2 1900   2.688   6.717   2.555
  646TIP3   OH2 1901   5.218   4.284   5.303
  646TIP3    H1 1902   5.193   4.367   5.262
  646TIP3    H2 1903   5.212   4.302   5.397
  647TIP3   OH2 1904   4.271   0.935   4.678
  647TIP3    H1 1905   4.330   0.872   4.638
  647TIP3    H2 1906   4.300   1.020   4.643
  648TIP3   OH2 1907   0.503   4.892   4.826
  648TIP3    H1 1908   0.557   4.815   4.809
  648TIP3    H2 1909   0.460   4.873   4.909
  649TIP3   OH2 1910   2.560   0.544   4.147
  649TIP3    H1 1911   2.487   0.552   4.209
  649TIP3    H2 1912   2.577   0.450   4.142
  650TIP3   OH2 1913   3.433   2.749   0.942
  650TIP3    H1 1914   3.504   2.709   0.991
  650TIP3    H2 1915   3.382   2.797   1.007
  651TIP3   OH2 1916   1.803   0.999   3.590
  651TIP3    H1 1917   1.898   1.001   3.599
  651TIP3    H2 1918   1.787   1.022   3.498
  652TIP3   OH2 1919   3.547   3.198   0.281
  652TIP3    H1 1920   3.487   3.262   0.241
  652TIP3    H2 1921   3.491   3.145   0.338
  653TIP3   OH2 1922   5.358   6.704   3.936
  653TIP3    H1 1923   5.426   6.703   4.004
  653TIP3    H2 1924   5.407   6.708   3.854
  654TIP3   OH2 1925   2.447   2.198   4.374
  654TIP3    H1 1926   2.367   2.236   4.339
  654TIP3    H2 1927   2.418   2.133   4.438
  655TIP3   OH2 1928   6.178   2.139   5.387
  655TIP3    H1 1929   6.268   2.154   5.357
  655TIP3    H2 1930   6.188   2.090   5.469
  656TIP3   OH2 1931   5.152   0.235   1.627
  656TIP3    H1 1932   5.202   0.233   1.545
  656TIP3    H2 1933   5.077   0.178   1.611
  657TIP3   OH2 1934   5.576   3.874   3.800
  657TIP3    H1 1935   5.604   3.965   3.815
  657TIP3    H2 1936   5.592   3.831   3.884
  658TIP3   OH2 1937   1.139   2.051   0.040
  658TIP3    H1 1938   1.129   2.077  -0.051
  658TIP3    H2 1939   1.223   2.089   0.067
  659TIP3   OH2 1940   6.299   4.462   4.629
  659TIP3    H1 1941   6.297   4.373   4.593
  659TIP3    H2 1942   6.298   4.519   4.552
  660TIP3   OH2 1943   0.805   2.987   3.566
  660TIP3    H1 1944   0.876   2.985   3.502
  660TIP3    H2 1945   0.742   2.922   3.534
  661TIP3   OH2 1946   6.084   2.980   3.373
  661TIP3    H1 1947   6.117   3.064   3.341
  661TIP3    H2 1948   5.990   2.995   3.387
  662TIP3   OH2 1949   0.511   2.598   1.411
  662TIP3    H1 1950   0.431   2.615   1.462
  662TIP3    H2 1951   0.578   2.651   1.454
  663TIP3   OH2 1952   1.357   1.228   2.265
  663TIP3    H1 1953   1.451   1.247   2.264
  663TIP3    H2 1954   1.341   1.192   2.352
  664TIP3   OH2 1955   6.047   1.232   5.399
  664TIP3    H1 1956   6.094   1.190   5.327
  664TIP3    H2 1957   6.069   1.180   5.476
  665TIP3   OH2 1958   4.265   1.537   5.798
  665TIP3    H1 1959   4.279   1.485   5.719
  665TIP3    H2 1960   4.258   1.627   5.767
  666TIP3   OH2 1961   3.446   0.688   2.798
  666TIP3    H1 1962   3.434   0.650   2.711
  666TIP3    H2 1963   3.358   0.716   2.825
  667TIP3   OH2 1964   1.507   6.268   2.736
  667TIP3    H1 1965   1.593   6.308   2.723
  667TIP3    H2 1966   1.452   6.306   2.668
  668TIP3   OH2 1967   2.270   6.368   1.111
  668TIP3    H1 1968   2.306   6.349   1.025
  668TIP3    H2 1969   2.304   6.454   1.134
  669TIP3   OH2 1970   1.628   4.381   2.554
  669TIP3    H1 1971   1.569   4.389   2.629
  669TIP3    H2 1972   1.713   4.408   2.588
  670TIP3   OH2 1973   0.859   6.474   2.504
  670TIP3    H1 1974   0.850   6.550   2.562
  670TIP3    H2 1975   0.871   6.400   2.564
  671TIP3   OH2 1976   1.933   4.602   3.008
  671TIP3    H1 1977   1.892   4.687   2.995
  671TIP3    H2 1978   1.946   4.595   3.103
  672TIP3   OH2 1979   4.209   5.244   0.229
  672TIP3    H1 1980   4.172   5.332   0.222
  672TIP3    H2 1981   4.272   5.250   0.300
  673TIP3   OH2 1982   4.399   3.574   5.410
  673TIP3    H1 1983   4.373   3.494   5.456
  673TIP3    H2 1984   4.425   3.544   5.323
  674TIP3   OH2 1985   5.870   5.762   5.039
  674TIP3    H1 1986   5.954   5.730   5.005
  674TIP3    H2 1987   5.840   5.694   5.098
  675TIP3   OH2 1988   7.122   5.267   0.782
  675TIP3    H1 1989   7.088   5.238   0.697
  675TIP3    H2 1990   7.068   5.223   0.847
  676TIP3   OH2 1991   3.586   5.102   2.195
  676TIP3    H1 1992   3.507   5.118   2.248
  676TIP3    H2 1993   3.553   5.059   2.116
  677TIP3   OH2 1994   6.459   0.060   5.462
  677TIP3    H1 1995   6.505   0.126   5.410
  677TIP3    H2 1996   6.466  -0.020   5.409
  678TIP3   OH2 1997   4.447   2.115   4.207
  678TIP3    H1 1998   4.398   2.105   4.289
  678TIP3    H2 1999   4.434   2.207   4.183
  679TIP3   OH2 2000   4.908   1.457   0.654
  679TIP3    H1 2001   4.877   1.371   0.627
  679TIP3    H2 2002   4.932   1.446   0.746
  680TIP3   OH2 2003   1.372   5.961   0.571
  680TIP3    H1 2004   1.342   5.926   0.654
  680TIP3    H2 2005   1.389   6.054   0.588
  681TIP3   OH2 2006   0.035   3.477   2.054
  681TIP3    H1 2007   0.026   3.569   2.027
  681TIP3    H2 2008  -0.054   3.441   2.047
  682TIP3   OH2 2009   4.216   2.270   3.980
  682TIP3    H1 2010   4.220   2.190   3.929
  682TIP3    H2 2011   4.157   2.249   4.053
  683TIP3   OH2 2012   6.231   5.789   0.043
  683TIP3    H1 2013   6.279   5.707   0.031
  683TIP3    H2 2014   6.296   5.849   0.079
  684TIP3   OH2 2015   3.516   1.385   4.948
  684TIP3    H1 2016   3.573   1.333   4.891
  684TIP3    H2 2017   3.543   1.475   4.933
  685TIP3   OH2 2018   1.392   1.052   4.238
  685TIP3    H1 2019   1.382   1.146   4.252
  685TIP3    H2 2020   1.304   1.016   4.252
  686TIP3   OH2 2021   2.104   3.464   2.023
  686TIP3    H1 2022   2.045   3.408   2.073
  686TIP3    H2 2023   2.083   3.446   1.931
  687TIP3   OH2 2024   2.204   3.496   2.907
  687TIP3    H1 2025   2.127   3.459   2.865
  687TIP3    H2 2026   2.170   3.536   2.987
  688TIP3   OH2 2027   1.699   5.070   3.221
  688TIP3    H1 2028   1.766   5.099   3.160
  688TIP3    H2 2029   1.737   4.993   3.264
  689TIP3   OH2 2030   4.769   6.143   5.078
  689TIP3    H1 2031   4.861   6.166   5.066
  689TIP3    H2 2032   4.768   6.048   5.077
  690TIP3   OH2 2033   3.256   1.260   3.433
  690TIP3    H1 2034   3.288   1.253   3.523
  690TIP3    H2 2035   3.164   1.233   3.438
  691TIP3   OH2 2036   3.890   4.348   1.074
  691TIP3    H1 2037   3.898   4.430   1.025
  691TIP3    H2 2038   3.842   4.290   1.016
  692TIP3   OH2 2039   2.094   0.594   3.964
  692TIP3    H1 2040   2.093   0.601   3.869
  692TIP3    H2 2041   2.048   0.672   3.995
  693TIP3   OH2 2042   2.508   2.233   1.531
  693TIP3    H1 2043   2.598   2.227   1.561
  693TIP3    H2 2044   2.511   2.207   1.439
  694TIP3   OH2 2045   1.847   1.648   5.457
  694TIP3    H1 2046   1.776   1.709   5.434
  694TIP3    H2 2047   1.867   1.668   5.548
  695TIP3   OH2 2048   4.229   5.312   2.863
  695TIP3    H1 2049   4.272   5.352   2.939
  695TIP3    H2 2050   4.152   5.367   2.847
  696TIP3   OH2 2051   6.618   4.324   0.455
  696TIP3    H1 2052   6.657   4.381   0.520
  696TIP3    H2 2053   6.527   4.314   0.483
  697TIP3   OH2 2054   5.963   3.530   4.588
  697TIP3    H1 2055   5.875   3.521   4.624
  697TIP3    H2 2056   5.989   3.441   4.564
  698TIP3   OH2 2057   2.715   6.498   3.091
  698TIP3    H1 2058   2.659   6.575   3.084
  698TIP3    H2 2059   2.772   6.502   3.015
  699TIP3   OH2 2060   1.746   3.515   1.492
  699TIP3    H1 2061   1.780   3.585   1.436
  699TIP3    H2 2062   1.718   3.560   1.572
  700TIP3   OH2 2063   5.136   6.145   1.988
  700TIP3    H1 2064   5.106   6.184   1.905
  700TIP3    H2 2065   5.096   6.200   2.056
  701TIP3   OH2 2066   5.120   6.480   2.392
  701TIP3    H1 2067   5.072   6.463   2.311
  701TIP3    H2 2068   5.182   6.549   2.370
  702TIP3   OH2 2069   7.005   2.851   5.228
  702TIP3    H1 2070   7.040   2.882   5.145
  702TIP3    H2 2071   6.990   2.758   5.215
  703TIP3   OH2 2072   4.597   1.594   3.134
  703TIP3    H1 2073   4.619   1.518   3.188
  703TIP3    H2 2074   4.502   1.603   3.142
  704TIP3   OH2 2075   0.118   0.549   4.678
  704TIP3    H1 2076   0.204   0.591   4.683
  704TIP3    H2 2077   0.061   0.605   4.731
  705TIP3   OH2 2078   0.241   6.494   4.278
  705TIP3    H1 2079   0.319   6.544   4.302
  705TIP3    H2 2080   0.190   6.554   4.224
  706TIP3   OH2 2081   2.002   4.377   2.850
  706TIP3    H1 2082   2.036   4.308   2.906
  706TIP3    H2 2083   1.978   4.447   2.911
  707TIP3   OH2 2084   4.495   6.123   2.535
  707TIP3    H1 2085   4.447   6.117   2.617
  707TIP3    H2 2086   4.550   6.201   2.544
  708TIP3   OH2 2087   6.047   2.943   4.914
  708TIP3    H1 2088   6.109   2.955   4.985
  708TIP3    H2 2089   5.961   2.960   4.954
  709TIP3   OH2 2090   4.531   6.206   3.335
  709TIP3    H1 2091   4.604   6.178   3.390
  709TIP3    H2 2092   4.521   6.300   3.353
  710TIP3   OH2 2093   3.976   0.107   4.543
  710TIP3    H1 2094   3.925   0.180   4.507
  710TIP3    H2 2095   3.974   0.122   4.638
  711TIP3   OH2 2096   2.182   6.429   2.190
  711TIP3    H1 2097   2.091   6.412   2.169
  711TIP3    H2 2098   2.189   6.525   2.192
  712TIP3   OH2 2099   7.087   2.857   0.754
  712TIP3    H1 2100   7.052   2.772   0.727
  712TIP3    H2 2101   7.013   2.918   0.744
  713TIP3   OH2 2102   4.208   0.844   0.530
  713TIP3    H1 2103   4.301   0.868   0.530
  713TIP3    H2 2104   4.190   0.819   0.440
  714TIP3   OH2 2105   0.418   5.992   2.163
  714TIP3    H1 2106   0.327   6.020   2.159
  714TIP3    H2 2107   0.415   5.897   2.163
  715TIP3   OH2 2108   6.091   1.923   2.852
  715TIP3    H1 2109   6.081   2.009   2.812
  715TIP3    H2 2110   6.095   1.862   2.778
  716TIP3   OH2 2111   1.430   2.438   4.025
  716TIP3    H1 2112   1.498   2.382   3.986
  716TIP3    H2 2113   1.448   2.525   3.988
  717TIP3   OH2 2114   3.461   0.568   3.063
  717TIP3    H1 2115   3.393   0.627   3.095
  717TIP3    H2 2116   3.468   0.588   2.969
  718TIP3   OH2 2117   3.677   2.539   2.289
  718TIP3    H1 2118   3.583   2.557   2.288
  718TIP3    H2 2119   3.687   2.463   2.346
  719TIP3   OH2 2120   5.107   3.468   1.618
  719TIP3    H1 2121   5.062   3.424   1.690
  719TIP3    H2 2122   5.090   3.561   1.633
  720TIP3   OH2 2123   0.908   0.173   1.723
  720TIP3    H1 2124   0.819   0.143   1.702
  720TIP3    H2 2125   0.904   0.268   1.712
  721TIP3   OH2 2126   4.527   4.503   3.566
  721TIP3    H1 2127   4.579   4.470   3.492
  721TIP3    H2 2128   4.540   4.440   3.636
  722TIP3   OH2 2129   0.218   4.910   2.626
  722TIP3    H1 2130   0.225   4.962   2.706
  722TIP3    H2 2131   0.306   4.874   2.613
  723TIP3   OH2 2132   4.788   5.877   5.048
  723TIP3    H1 2133   4.768   5.830   4.967
  723TIP3    H2 2134   4.880   5.857   5.066
  724TIP3   OH2 2135   0.175   5.172   1.540
  724TIP3    H1 2136   0.186   5.122   1.459
  724TIP3    H2 2137   0.247   5.143   1.596
  725TIP3   OH2 2138   3.872   2.716   1.427
  725TIP3    H1 2139   3.895   2.797   1.473
  725TIP3    H2 2140   3.777   2.712   1.432
  726TIP3   OH2 2141   5.722   3.394   4.342
  726TIP3    H1 2142   5.680   3.426   4.422
  726TIP3    H2 2143   5.810   3.433   4.344
  727TIP3   OH2 2144   2.480   6.606   5.068
  727TIP3    H1 2145   2.500   6.595   4.975
  727TIP3    H2 2146   2.526   6.533   5.111
  728TIP3   OH2 2147   0.780   1.282   5.081
  728TIP3    H1 2148   0.839   1.247   5.014
  728TIP3    H2 2149   0.696   1.292   5.037
  729TIP3   OH2 2150   5.382   5.711   5.466
  729TIP3    H1 2151   5.329   5.789   5.453
  729TIP3    H2 2152   5.472   5.742   5.465
  730TIP3   OH2 2153   5.275   5.400   1.696
  730TIP3    H1 2154   5.340   5.376   1.763
  730TIP3    H2 2155   5.309   5.363   1.615
  731TIP3   OH2 2156   2.044   6.450   2.844
  731TIP3    H1 2157   1.992   6.513   2.894
  731TIP3    H2 2158   2.082   6.392   2.909
  732TIP3   OH2 2159   2.229   1.451   2.118
  732TIP3    H1 2160   2.240   1.546   2.124
  732TIP3    H2 2161   2.252   1.418   2.204
  733TIP3   OH2 2162   6.691   5.511   3.414
  733TIP3    H1 2163   6.638   5.538   3.490
  733TIP3    H2 2164   6.627   5.495   3.345
  734TIP3   OH2 2165   2.834   4.803   1.591
  734TIP3    H1 2166   2.873   4.755   1.518
  734TIP3    H2 2167   2.740   4.801   1.574
  735TIP3   OH2 2168   2.642   1.276   1.803
  735TIP3    H1 2169   2.672   1.299   1.715
  735TIP3    H2 2170   2.663   1.183   1.812
  736TIP3   OH2 2171   1.260   4.529   0.190
  736TIP3    H1 2172   1.280   4.609   0.142
  736TIP3    H2 2173   1.332   4.469   0.168
  737TIP3   OH2 2174   3.413   6.084   2.871
  737TIP3    H1 2175   3.415   5.995   2.836
  737TIP3    H2 2176   3.496   6.122   2.843
  738TIP3   OH2 2177   2.373   3.831   2.998
  738TIP3    H1 2178   2.457   3.821   3.043
  738TIP3    H2 2179   2.382   3.912   2.949
  739TIP3   OH2 2180   3.407   4.587   4.642
  739TIP3    H1 2181   3.360   4.575   4.559
  739TIP3    H2 2182   3.399   4.681   4.660
  740TIP3   OH2 2183   3.655   5.200   5.337
  740TIP3    H1 2184   3.744   5.198   5.370
  740TIP3    H2 2185   3.664   5.210   5.243
  741TIP3   OH2 2186   5.296   2.827   4.183
  741TIP3    H1 2187   5.278   2.807   4.091
  741TIP3    H2 2188   5.250   2.759   4.232
  742TIP3   OH2 2189   1.729   5.528   5.353
  742TIP3    H1 2190   1.738   5.541   5.258
  742TIP3    H2 2191   1.817   5.503   5.382
  743TIP3   OH2 2192   1.747   0.326   1.952
  743TIP3    H1 2193   1.729   0.342   2.045
  743TIP3    H2 2194   1.809   0.253   1.953
  744TIP3   OH2 2195   5.932   3.591   3.317
  744TIP3    H1 2196   5.914   3.498   3.328
  744TIP3    H2 2197   6.028   3.597   3.312
  745TIP3   OH2 2198   0.829   3.548   3.641
  745TIP3    H1 2199   0.749   3.578   3.597
  745TIP3    H2 2200   0.802   3.467   3.685
  746TIP3   OH2 2201   3.011   3.894   4.356
  746TIP3    H1 2202   3.024   3.800   4.364
  746TIP3    H2 2203   2.921   3.903   4.326
  747TIP3   OH2 2204   2.794   1.783   4.517
  747TIP3    H1 2205   2.740   1.830   4.582
  747TIP3    H2 2206   2.854   1.731   4.570
  748TIP3   OH2 2207   5.557   6.321   2.719
  748TIP3    H1 2208   5.462   6.332   2.709
  748TIP3    H2 2209   5.566   6.242   2.772
  749TIP3   OH2 2210   0.469   2.275   0.071
  749TIP3    H1 2211   0.426   2.355   0.041
  749TIP3    H2 2212   0.520   2.303   0.147
  750TIP3   OH2 2213   4.704   6.212   4.393
  750TIP3    H1 2214   4.776   6.251   4.345
  750TIP3    H2 2215   4.673   6.282   4.451
  751TIP3   OH2 2216   5.519   5.407   2.357
  751TIP3    H1 2217   5.571   5.334   2.323
  751TIP3    H2 2218   5.454   5.367   2.414
  752TIP3   OH2 2219   5.948   1.275   3.721
  752TIP3    H1 2220   5.903   1.321   3.650
  752TIP3    H2 2221   6.041   1.288   3.703
  753TIP3   OH2 2222   6.383   4.905   0.707
  753TIP3    H1 2223   6.300   4.883   0.665
  753TIP3    H2 2224   6.450   4.868   0.650
  754TIP3   OH2 2225   2.387   5.387   4.410
  754TIP3    H1 2226   2.300   5.383   4.450
  754TIP3    H2 2227   2.432   5.310   4.443
  755TIP3   OH2 2228   1.792   2.798   3.686
  755TIP3    H1 2229   1.862   2.862   3.680
  755TIP3    H2 2230   1.718   2.846   3.722
  756TIP3   OH2 2231   1.817   5.367   3.802
  756TIP3    H1 2232   1.741   5.315   3.776
  756TIP3    H2 2233   1.807   5.450   3.754
  757TIP3   OH2 2234   4.783   5.574   4.368
  757TIP3    H1 2235   4.759   5.586   4.459
  757TIP3    H2 2236   4.775   5.661   4.329
  758TIP3   OH2 2237   5.095   0.803   1.334
  758TIP3    H1 2238   5.009   0.772   1.307
  758TIP3    H2 2239   5.095   0.896   1.310
  759TIP3   OH2 2240   6.289   1.597   4.324
  759TIP3    H1 2241   6.333   1.658   4.384
  759TIP3    H2 2242   6.224   1.651   4.279
  760TIP3   OH2 2243   3.900   0.146   5.648
  760TIP3    H1 2244   3.954   0.219   5.677
  760TIP3    H2 2245   3.959   0.093   5.594
  761TIP3   OH2 2246   2.701   3.329   1.342
  761TIP3    H1 2247   2.622   3.279   1.324
  761TIP3    H2 2248   2.746   3.281   1.411
  762TIP3   OH2 2249   0.456   4.955   5.814
  762TIP3    H1 2250   0.536   4.915   5.849
  762TIP3    H2 2251   0.482   5.044   5.788
  763TIP3   OH2 2252   2.167   4.873   3.494
  763TIP3    H1 2253   2.210   4.956   3.470
  763TIP3    H2 2254   2.102   4.897   3.560
  764TIP3   OH2 2255   2.491   0.345   1.954
  764TIP3    H1 2256   2.518   0.399   1.880
  764TIP3    H2 2257   2.396   0.352   1.955
  765TIP3   OH2 2258   4.523   0.961   2.549
  765TIP3    H1 2259   4.552   1.006   2.628
  765TIP3    H2 2260   4.428   0.951   2.560
  766TIP3   OH2 2261   1.258   3.459   2.205
  766TIP3    H1 2262   1.298   3.462   2.292
  766TIP3    H2 2263   1.176   3.508   2.215
  767TIP3   OH2 2264   1.308   1.593   1.300
  767TIP3    H1 2265   1.256   1.670   1.278
  767TIP3    H2 2266   1.257   1.519   1.267
  768TIP3   OH2 2267   0.289   1.749   1.364
  768TIP3    H1 2268   0.384   1.751   1.373
  768TIP3    H2 2269   0.262   1.840   1.379
  769TIP3   OH2 2270   5.399   3.576   0.113
  769TIP3    H1 2271   5.333   3.604   0.177
  769TIP3    H2 2272   5.377   3.624   0.033
  770TIP3   OH2 2273   6.471   0.431   4.632
  770TIP3    H1 2274   6.477   0.456   4.540
  770TIP3    H2 2275   6.524   0.351   4.639
  771TIP3   OH2 2276   0.331   6.260   5.119
  771TIP3    H1 2277   0.388   6.261   5.196
  771TIP3    H2 2278   0.353   6.341   5.072
  772TIP3   OH2 2279   5.954   2.291   3.468
  772TIP3    H1 2280   6.026   2.263   3.524
  772TIP3    H2 2281   5.927   2.212   3.422
  773TIP3   OH2 2282   4.128   5.188   3.260
  773TIP3    H1 2283   4.129   5.127   3.334
  773TIP3    H2 2284   4.179   5.263   3.290
  774TIP3   OH2 2285   5.479   0.866   4.310
  774TIP3    H1 2286   5.507   0.808   4.240
  774TIP3    H2 2287   5.545   0.854   4.379
  775TIP3   OH2 2288   3.812   1.913   5.350
  775TIP3    H1 2289   3.778   1.928   5.262
  775TIP3    H2 2290   3.893   1.965   5.354
  776TIP3   OH2 2291   4.694   0.975   0.336
  776TIP3    H1 2292   4.775   1.025   0.336
  776TIP3    H2 2293   4.676   0.958   0.243
  777TIP3   OH2 2294   4.603   6.657   3.207
  777TIP3    H1 2295   4.522   6.607   3.220
  777TIP3    H2 2296   4.575   6.748   3.211
  778TIP3   OH2 2297   1.294   5.398   5.097
  778TIP3    H1 2298   1.338   5.337   5.156
  778TIP3    H2 2299   1.222   5.434   5.149
  779TIP3   OH2 2300   5.108   2.433   3.088
  779TIP3    H1 2301   5.198   2.416   3.115
  779TIP3    H2 2302   5.115   2.479   3.004
  780TIP3   OH2 2303   6.919   4.246   1.299
  780TIP3    H1 2304   6.844   4.267   1.243
  780TIP3    H2 2305   6.944   4.329   1.339
  781TIP3   OH2 2306   2.735   5.341   3.547
  781TIP3    H1 2307   2.639   5.343   3.545
  781TIP3    H2 2308   2.759   5.410   3.609
  782TIP3   OH2 2309   6.059   5.577   2.533
  782TIP3    H1 2310   6.065   5.664   2.573
  782TIP3    H2 2311   5.987   5.584   2.471
  783TIP3   OH2 2312   6.999   0.228   5.415
  783TIP3    H1 2313   6.932   0.179   5.462
  783TIP3    H2 2314   6.972   0.223   5.323
  784TIP3   OH2 2315   2.434   4.321   3.159
  784TIP3    H1 2316   2.420   4.355   3.248
  784TIP3    H2 2317   2.394   4.234   3.161
  785TIP3   OH2 2318   0.378   2.225   0.670
  785TIP3    H1 2319   0.326   2.144   0.671
  785TIP3    H2 2320   0.436   2.217   0.595
  786TIP3   OH2 2321   2.648   2.651   3.854
  786TIP3    H1 2322   2.610   2.736   3.831
  786TIP3    H2 2323   2.598   2.588   3.802
  787TIP3   OH2 2324   5.632   2.323   4.378
  787TIP3    H1 2325   5.726   2.334   4.369
  787TIP3    H2 2326   5.619   2.229   4.382
  788TIP3   OH2 2327   5.876   4.093   0.658
  788TIP3    H1 2328   5.861   4.183   0.683
  788TIP3    H2 2329   5.930   4.056   0.728
  789TIP3   OH2 2330   5.425   4.827   2.835
  789TIP3    H1 2331   5.456   4.817   2.745
  789TIP3    H2 2332   5.397   4.739   2.861
  790TIP3   OH2 2333   3.947   5.272   0.792
  790TIP3    H1 2334   3.988   5.231   0.868
  790TIP3    H2 2335   3.970   5.215   0.719
  791TIP3   OH2 2336   5.835   0.826   1.601
  791TIP3    H1 2337   5.792   0.749   1.640
  791TIP3    H2 2338   5.897   0.855   1.669
  792TIP3   OH2 2339   4.914   0.757   4.301
  792TIP3    H1 2340   5.000   0.796   4.315
  792TIP3    H2 2341   4.925   0.703   4.223
  793TIP3   OH2 2342   4.635   3.424   2.251
  793TIP3    H1 2343   4.682   3.351   2.292
  793TIP3    H2 2344   4.687   3.445   2.173
  794TIP3   OH2 2345   6.720   6.687   0.427
  794TIP3    H1 2346   6.722   6.712   0.335
  794TIP3    H2 2347   6.754   6.764   0.473
  795TIP3   OH2 2348   6.753   1.811   1.699
  795TIP3    H1 2349   6.662   1.781   1.705
  795TIP3    H2 2350   6.778   1.831   1.789
  796TIP3   OH2 2351   0.321   5.139   0.721
  796TIP3    H1 2352   0.257   5.111   0.656
  796TIP3    H2 2353   0.405   5.107   0.688
  797TIP3   OH2 2354   5.332   1.574   2.335
  797TIP3    H1 2355   5.418   1.593   2.373
  797TIP3    H2 2356   5.270   1.621   2.391
  798TIP3   OH2 2357   1.703   2.366   5.594
  798TIP3    H1 2358   1.678   2.426   5.524
  798TIP3    H2 2359   1.792   2.393   5.617
  799TIP3   OH2 2360   6.284   6.313   5.637
  799TIP3    H1 2361   6.305   6.266   5.718
  799TIP3    H2 2362   6.259   6.400   5.666
  800TIP3   OH2 2363   2.558   4.987   2.007
  800TIP3    H1 2364   2.609   4.942   1.940
  800TIP3    H2 2365   2.558   4.927   2.081
  801TIP3   OH2 2366   5.523   1.461   0.090
  801TIP3    H1 2367   5.572   1.485   0.011
  801TIP3    H2 2368   5.531   1.365   0.095
  802TIP3   OH2 2369   0.825   0.003   2.531
  802TIP3    H1 2370   0.838   0.086   2.578
  802TIP3    H2 2371   0.743  -0.032   2.567
  803TIP3   OH2 2372   6.271   5.800   4.579
  803TIP3    H1 2373   6.300   5.878   4.626
  803TIP3    H2 2374   6.258   5.828   4.489
  804TIP3   OH2 2375   1.465   5.551   4.948
  804TIP3    H1 2376   1.436   5.623   5.004
  804TIP3    H2 2377   1.431   5.472   4.991
  805TIP3   OH2 2378   4.041   5.759   2.713
  805TIP3    H1 2379   4.007   5.740   2.801
  805TIP3    H2 2380   3.965   5.746   2.656
  806TIP3   OH2 2381   2.703   4.151   3.212
  806TIP3    H1 2382   2.639   4.148   3.283
  806TIP3    H2 2383   2.744   4.237   3.219
  807TIP3   OH2 2384   5.724   3.077   2.997
  807TIP3    H1 2385   5.685   3.161   3.020
  807TIP3    H2 2386   5.818   3.092   3.005
  808TIP3   OH2 2387   7.064   6.706   3.747
  808TIP3    H1 2388   6.994   6.671   3.692
  808TIP3    H2 2389   7.093   6.785   3.702
  809TIP3   OH2 2390   6.730   6.426   2.227
  809TIP3    H1 2391   6.724   6.395   2.136
  809TIP3    H2 2392   6.699   6.516   2.224
  810TIP3   OH2 2393   3.811   4.037   1.231
  810TIP3    H1 2394   3.895   4.045   1.276
  810TIP3    H2 2395   3.799   4.122   1.188
  811TIP3   OH2 2396   2.530   4.175   5.013
  811TIP3    H1 2397   2.557   4.190   5.104
  811TIP3    H2 2398   2.481   4.254   4.990
  812TIP3   OH2 2399   1.213   6.346   5.574
  812TIP3    H1 2400   1.206   6.334   5.668
  812TIP3    H2 2401   1.177   6.434   5.558
  813TIP3   OH2 2402   2.592   6.392   4.827
  813TIP3    H1 2403   2.595   6.328   4.898
  813TIP3    H2 2404   2.523   6.360   4.769
  814TIP3   OH2 2405   6.678   0.399   2.130
  814TIP3    H1 2406   6.635   0.482   2.109
  814TIP3    H2 2407   6.759   0.424   2.173
  815TIP3   OH2 2408   3.099   1.158   0.423
  815TIP3    H1 2409   3.116   1.125   0.511
  815TIP3    H2 2410   3.182   1.194   0.394
  816TIP3   OH2 2411   6.879   2.438   3.298
  816TIP3    H1 2412   6.915   2.443   3.210
  816TIP3    H2 2413   6.916   2.358   3.334
  817TIP3   OH2 2414   4.824   1.198   4.448
  817TIP3    H1 2415   4.866   1.135   4.389
  817TIP3    H2 2416   4.731   1.187   4.432
  818TIP3   OH2 2417   3.429   3.027   5.311
  818TIP3    H1 2418   3.463   3.081   5.382
  818TIP3    H2 2419   3.433   3.084   5.234
  819TIP3   OH2 2420   5.014   3.704   5.317
  819TIP3    H1 2421   5.064   3.754   5.252
  819TIP3    H2 2422   4.923   3.729   5.300
  820TIP3   OH2 2423   3.461   6.506   2.755
  820TIP3    H1 2424   3.488   6.596   2.734
  820TIP3    H2 2425   3.496   6.453   2.683
  821TIP3   OH2 2426   6.090   2.558   2.208
  821TIP3    H1 2427   6.144   2.507   2.148
  821TIP3    H2 2428   6.061   2.634   2.157
  822TIP3   OH2 2429   1.175   2.521   1.332
  822TIP3    H1 2430   1.157   2.452   1.269
  822TIP3    H2 2431   1.169   2.602   1.282
  823TIP3   OH2 2432   2.232   4.470   5.202
  823TIP3    H1 2433   2.311   4.463   5.148
  823TIP3    H2 2434   2.241   4.555   5.246
  824TIP3   OH2 2435   0.033   5.624   2.719
  824TIP3    H1 2436   0.089   5.549   2.739
  824TIP3    H2 2437   0.031   5.628   2.624
  825TIP3   OH2 2438   2.304   0.601   4.290
  825TIP3    H1 2439   2.208   0.599   4.285
  825TIP3    H2 2440   2.326   0.536   4.357
  826TIP3   OH2 2441   6.314   6.714   3.293
  826TIP3    H1 2442   6.346   6.754   3.212
  826TIP3    H2 2443   6.262   6.640   3.263
  827TIP3   OH2 2444   3.865   3.360   1.063
  827TIP3    H1 2445   3.950   3.399   1.082
  827TIP3    H2 2446   3.856   3.365   0.968
  828TIP3   OH2 2447   5.757   2.503   2.434
  828TIP3    H1 2448   5.723   2.499   2.345
  828TIP3    H2 2449   5.796   2.416   2.449
  829TIP3   OH2 2450   2.090   1.067   4.153
  829TIP3    H1 2451   2.108   1.151   4.194
  829TIP3    H2 2452   2.150   1.006   4.195
  830TIP3   OH2 2453   2.781   2.211   0.337
  830TIP3    H1 2454   2.688   2.232   0.345
  830TIP3    H2 2455   2.788   2.168   0.251
  831TIP3   OH2 2456   2.672   3.613   0.052
  831TIP3    H1 2457   2.582   3.627   0.081
  831TIP3    H2 2458   2.683   3.518   0.051
  832TIP3   OH2 2459   5.979   1.059   4.642
  832TIP3    H1 2460   5.949   1.061   4.733
  832TIP3    H2 2461   6.014   0.971   4.631
  833TIP3   OH2 2462   6.772   6.078   5.832
  833TIP3    H1 2463   6.814   6.127   5.762
  833TIP3    H2 2464   6.844   6.040   5.882
  834TIP3   OH2 2465   1.374   2.046   1.503
  834TIP3    H1 2466   1.364   1.987   1.578
  834TIP3    H2 2467   1.347   2.132   1.536
  835TIP3   OH2 2468   1.197   0.722   4.638
  835TIP3    H1 2469   1.252   0.644   4.648
  835TIP3    H2 2470   1.117   0.702   4.687
  836TIP3   OH2 2471   3.130   0.312   3.890
  836TIP3    H1 2472   3.218   0.349   3.882
  836TIP3    H2 2473   3.128   0.273   3.977
  837TIP3   OH2 2474   5.754   5.828   2.525
  837TIP3    H1 2475   5.792   5.870   2.448
  837TIP3    H2 2476   5.735   5.738   2.496
  838TIP3   OH2 2477   0.885   5.940   1.754
  838TIP3    H1 2478   0.848   5.854   1.770
  838TIP3    H2 2479   0.970   5.922   1.713
  839TIP3   OH2 2480   5.214   0.663   3.099
  839TIP3    H1 2481   5.253   0.744   3.132
  839TIP3    H2 2482   5.136   0.651   3.153
  840TIP3   OH2 2483   5.332   4.150   3.726
  840TIP3    H1 2484   5.322   4.067   3.772
  840TIP3    H2 2485   5.385   4.204   3.784
  841TIP3   OH2 2486   5.563   0.715   5.739
  841TIP3    H1 2487   5.537   0.643   5.681
  841TIP3    H2 2488   5.659   0.715   5.734
  842TIP3   OH2 2489   4.073   0.060   2.334
  842TIP3    H1 2490   4.011   0.052   2.406
  842TIP3    H2 2491   4.024   0.029   2.257
  843TIP3   OH2 2492   7.116   6.481   1.016
  843TIP3    H1 2493   7.191   6.427   0.989
  843TIP3    H2 2494   7.042   6.444   0.968
  844TIP3   OH2 2495   3.932   1.092   1.689
  844TIP3    H1 2496   4.027   1.095   1.699
  844TIP3    H2 2497   3.918   1.070   1.597
  845TIP3   OH2 2498   3.499   1.082   1.343
  845TIP3    H1 2499   3.577   1.134   1.324
  845TIP3    H2 2500   3.532   1.003   1.384
  846TIP3   OH2 2501   7.103   4.917   2.188
  846TIP3    H1 2502   7.159   4.944   2.261
  846TIP3    H2 2503   7.139   4.964   2.113
  847TIP3   OH2 2504   3.957   3.810   5.008
  847TIP3    H1 2505   4.028   3.871   4.988
  847TIP3    H2 2506   3.909   3.852   5.080
  848TIP3   OH2 2507   5.488   6.614   3.414
  848TIP3    H1 2508   5.406   6.592   3.370
  848TIP3    H2 2509   5.549   6.545   3.388
  849TIP3   OH2 2510   1.427   1.322   5.881
  849TIP3    H1 2511   1.349   1.378   5.872
  849TIP3    H2 2512   1.406   1.244   5.829
  850TIP3   OH2 2513   6.154   0.043   4.335
  850TIP3    H1 2514   6.216  -0.030   4.340
  850TIP3    H2 2515   6.164   0.077   4.246
  851TIP3   OH2 2516   1.531   5.686   1.580
  851TIP3    H1 2517   1.555   5.672   1.489
  851TIP3    H2 2518   1.440   5.655   1.586
  852TIP3   OH2 2519   6.624   4.079   5.464
  852TIP3    H1 2520   6.658   3.992   5.485
  852TIP3    H2 2521   6.695   4.122   5.415
  853TIP3   OH2 2522   7.026   5.162   1.017
  853TIP3    H1 2523   6.964   5.111   1.070
  853TIP3    H2 2524   7.098   5.182   1.077
  854TIP3   OH2 2525   2.210   3.156   2.108
  854TIP3    H1 2526   2.150   3.227   2.131
  854TIP3    H2 2527   2.254   3.188   2.029
  855TIP3   OH2 2528   0.553   6.246   3.170
  855TIP3    H1 2529   0.471   6.242   3.220
  855TIP3    H2 2530   0.597   6.324   3.204
  856TIP3   OH2 2531   6.167   6.613   1.713
  856TIP3    H1 2532   6.180   6.611   1.618
  856TIP3    H2 2533   6.072   6.614   1.724
  857TIP3   OH2 2534   5.342   6.636   2.440
  857TIP3    H1 2535   5.409   6.568   2.453
  857TIP3    H2 2536   5.311   6.655   2.528
  858TIP3   OH2 2537   5.150   0.888   5.057
  858TIP3    H1 2538   5.192   0.825   4.998
  858TIP3    H2 2539   5.201   0.883   5.138
  859TIP3   OH2 2540   4.028   1.436   0.550
  859TIP3    H1 2541   4.004   1.354   0.508
  859TIP3    H2 2542   4.038   1.498   0.478
  860TIP3   OH2 2543   4.835   3.369   4.854
  860TIP3    H1 2544   4.873   3.351   4.768
  860TIP3    H2 2545   4.905   3.349   4.916
  861TIP3   OH2 2546   2.629   2.335   3.088
  861TIP3    H1 2547   2.585   2.394   3.149
  861TIP3    H2 2548   2.699   2.295   3.139
  862TIP3   OH2 2549   5.037   2.863   2.198
  862TIP3    H1 2550   4.976   2.936   2.196
  862TIP3    H2 2551   5.123   2.903   2.189
  863TIP3   OH2 2552   5.497   6.743   3.718
  863TIP3    H1 2553   5.553   6.810   3.679
  863TIP3    H2 2554   5.520   6.662   3.671
  864TIP3   OH2 2555   2.917   4.606   5.101
  864TIP3    H1 2556   2.955   4.597   5.014
  864TIP3    H2 2557   2.992   4.617   5.160
  865TIP3   OH2 2558   2.443   0.501   2.379
  865TIP3    H1 2559   2.438   0.500   2.475
  865TIP3    H2 2560   2.395   0.423   2.351
  866TIP3   OH2 2561   1.745   3.867   1.640
  866TIP3    H1 2562   1.693   3.791   1.665
  866TIP3    H2 2563   1.705   3.940   1.687
  867TIP3   OH2 2564   5.696   5.078   1.631
  867TIP3    H1 2565   5.668   4.990   1.606
  867TIP3    H2 2566   5.617   5.131   1.625
  868TIP3   OH2 2567   4.124   2.950   3.412
  868TIP3    H1 2568   4.036   2.920   3.433
  868TIP3    H2 2569   4.115   2.995   3.328
  869TIP3   OH2 2570   1.008   1.168   1.962
  869TIP3    H1 2571   1.084   1.216   1.993
  869TIP3    H2 2572   0.939   1.234   1.954
  870TIP3   OH2 2573   0.545   0.052   1.026
  870TIP3    H1 2574   0.544  -0.029   1.077
  870TIP3    H2 2575   0.604   0.110   1.076
  871TIP3   OH2 2576   4.372   0.042   4.155
  871TIP3    H1 2577   4.292   0.040   4.102
  871TIP3    H2 2578   4.405   0.131   4.145
  872TIP3   OH2 2579   2.689   5.149   1.409
  872TIP3    H1 2580   2.634   5.115   1.479
  872TIP3    H2 2581   2.755   5.081   1.395
  873TIP3   OH2 2582   1.624   0.598   1.543
  873TIP3    H1 2583   1.555   0.532   1.551
  873TIP3    H2 2584   1.666   0.599   1.629
  874TIP3   OH2 2585   5.029   3.048   2.638
  874TIP3    H1 2586   5.051   3.122   2.582
  874TIP3    H2 2587   5.110   2.996   2.642
  875TIP3   OH2 2588   6.782   2.231   4.336
  875TIP3    H1 2589   6.726   2.212   4.411
  875TIP3    H2 2590   6.843   2.297   4.367
  876TIP3   OH2 2591   0.480   1.114   2.270
  876TIP3    H1 2592   0.402   1.148   2.313
  876TIP3    H2 2593   0.551   1.172   2.298
  877TIP3   OH2 2594   1.861   2.711   2.109
  877TIP3    H1 2595   1.807   2.774   2.059
  877TIP3    H2 2596   1.797   2.663   2.162
  878TIP3   OH2 2597   2.754   0.737   3.523
  878TIP3    H1 2598   2.690   0.770   3.461
  878TIP3    H2 2599   2.708   0.667   3.570
  879TIP3   OH2 2600   4.387   2.955   1.173
  879TIP3    H1 2601   4.444   2.993   1.105
  879TIP3    H2 2602   4.381   2.862   1.149
  880TIP3   OH2 2603   3.933   1.076   5.069
  880TIP3    H1 2604   3.914   1.164   5.036
  880TIP3    H2 2605   3.875   1.067   5.145
  881TIP3   OH2 2606   5.373   1.585   3.154
  881TIP3    H1 2607   5.421   1.504   3.166
  881TIP3    H2 2608   5.323   1.572   3.074
  882TIP3   OH2 2609   3.976   4.454   1.728
  882TIP3    H1 2610   3.987   4.366   1.691
  882TIP3    H2 2611   3.893   4.450   1.775
  883TIP3   OH2 2612   6.565   2.003   5.524
  883TIP3    H1 2613   6.617   2.065   5.575
  883TIP3    H2 2614   6.602   1.917   5.545
  884TIP3   OH2 2615   1.526   6.478   5.192
  884TIP3    H1 2616   1.610   6.453   5.154
  884TIP3    H2 2617   1.547   6.555   5.246
  885TIP3   OH2 2618   1.491   4.394   0.134
  885TIP3    H1 2619   1.540   4.399   0.052
  885TIP3    H2 2620   1.555   4.367   0.199
  886TIP3   OH2 2621   2.215   5.483   1.677
  886TIP3    H1 2622   2.278   5.499   1.747
  886TIP3    H2 2623   2.256   5.522   1.599
  887TIP3   OH2 2624   4.664   2.243   2.088
  887TIP3    H1 2625   4.698   2.328   2.059
  887TIP3    H2 2626   4.617   2.209   2.012
  888TIP3   OH2 2627   0.807   3.919   1.573
  888TIP3    H1 2628   0.875   3.983   1.594
  888TIP3    H2 2629   0.728   3.953   1.614
  889TIP3   OH2 2630   5.368   4.920   4.512
  889TIP3    H1 2631   5.311   4.845   4.528
  889TIP3    H2 2632   5.440   4.909   4.575
  890TIP3   OH2 2633   1.676   4.822   0.430
  890TIP3    H1 2634   1.708   4.760   0.494
  890TIP3    H2 2635   1.747   4.886   0.421
  891TIP3   OH2 2636   4.409   6.681   4.465
  891TIP3    H1 2637   4.401   6.659   4.373
  891TIP3    H2 2638   4.403   6.597   4.511
  892TIP3   OH2 2639   6.628   3.980   1.267
  892TIP3    H1 2640   6.555   3.936   1.224
  892TIP3    H2 2641   6.670   4.031   1.197
  893TIP3   OH2 2642   5.501   1.331   3.174
  893TIP3    H1 2643   5.490   1.264   3.107
  893TIP3    H2 2644   5.570   1.296   3.231
  894TIP3   OH2 2645   6.933   4.263   2.559
  894TIP3    H1 2646   6.926   4.173   2.530
  894TIP3    H2 2647   6.941   4.314   2.479
  895TIP3   OH2 2648   3.958   3.846   5.717
  895TIP3    H1 2649   3.962   3.803   5.632
  895TIP3    H2 2650   4.044   3.886   5.728
  896TIP3   OH2 2651   0.753   4.436   3.636
  896TIP3    H1 2652   0.721   4.511   3.687
  896TIP3    H2 2653   0.683   4.420   3.572
  897TIP3   OH2 2654   6.814   2.055   3.149
  897TIP3    H1 2655   6.792   2.142   3.116
  897TIP3    H2 2656   6.773   2.051   3.235
  898TIP3   OH2 2657   6.983   1.049   1.289
  898TIP3    H1 2658   7.063   1.002   1.267
  898TIP3    H2 2659   6.926   1.038   1.213
  899TIP3   OH2 2660   3.586   2.834   0.015
  899TIP3    H1 2661   3.616   2.918   0.049
  899TIP3    H2 2662   3.659   2.801  -0.037
  900TIP3   OH2 2663   6.402   1.836   1.401
  900TIP3    H1 2664   6.386   1.804   1.313
  900TIP3    H2 2665   6.359   1.922   1.405
  901TIP3   OH2 2666   3.299   6.766   3.217
  901TIP3    H1 2667   3.313   6.708   3.143
  901TIP3    H2 2668   3.353   6.842   3.199
  902TIP3   OH2 2669   4.081   3.016   2.098
  902TIP3    H1 2670   4.018   2.947   2.118
  902TIP3    H2 2671   4.028   3.088   2.063
  903TIP3   OH2 2672   4.393   6.426   4.072
  903TIP3    H1 2673   4.369   6.515   4.046
  903TIP3    H2 2674   4.454   6.438   4.145
  904TIP3   OH2 2675   3.992   3.043   1.287
  904TIP3    H1 2676   3.963   3.016   1.374
  904TIP3    H2 2677   3.916   3.090   1.250
  905TIP3   OH2 2678   1.686   5.388   0.079
  905TIP3    H1 2679   1.638   5.339   0.013
  905TIP3    H2 2680   1.742   5.323   0.122
  906TIP3   OH2 2681   6.577   0.342   0.491
  906TIP3    H1 2682   6.600   0.435   0.488
  906TIP3    H2 2683   6.650   0.301   0.538
  907TIP3   OH2 2684   4.128   2.840   0.900
  907TIP3    H1 2685   4.215   2.803   0.913
  907TIP3    H2 2686   4.145   2.931   0.877
  908TIP3   OH2 2687   4.877   4.225   3.470
  908TIP3    H1 2688   4.946   4.166   3.499
  908TIP3    H2 2689   4.805   4.212   3.532
  909TIP3   OH2 2690   5.454   2.709   4.600
  909TIP3    H1 2691   5.439   2.761   4.521
  909TIP3    H2 2692   5.370   2.667   4.617
  910TIP3   OH2 2693   5.570   3.168   4.192
  910TIP3    H1 2694   5.620   3.214   4.260
  910TIP3    H2 2695   5.479   3.176   4.220
  911TIP3   OH2 2696   0.829   4.738   1.942
  911TIP3    H1 2697   0.885   4.719   2.018
  911TIP3    H2 2698   0.789   4.653   1.921
  912TIP3   OH2 2699   0.873   1.508   5.256
  912TIP3    H1 2700   0.803   1.521   5.193
  912TIP3    H2 2701   0.879   1.591   5.304
  913TIP3   OH2 2702   4.546   1.209   4.384
  913TIP3    H1 2703   4.452   1.217   4.370
  913TIP3    H2 2704   4.582   1.189   4.298
  914TIP3   OH2 2705   4.328   1.611   1.966
  914TIP3    H1 2706   4.350   1.581   2.054
  914TIP3    H2 2707   4.239   1.579   1.951
  915TIP3   OH2 2708   0.703   1.640   2.729
  915TIP3    H1 2709   0.753   1.663   2.650
  915TIP3    H2 2710   0.751   1.682   2.800
  916TIP3   OH2 2711   3.215   1.016   2.397
  916TIP3    H1 2712   3.308   1.009   2.416
  916TIP3    H2 2713   3.186   1.094   2.444
  917TIP3   OH2 2714   2.262   2.096   5.666
  917TIP3    H1 2715   2.249   2.167   5.729
  917TIP3    H2 2716   2.339   2.049   5.700
  918TIP3   OH2 2717   5.469   2.919   4.376
  918TIP3    H1 2718   5.415   2.898   4.299
  918TIP3    H2 2719   5.559   2.922   4.342
  919TIP3   OH2 2720   4.344   4.894   3.383
  919TIP3    H1 2721   4.394   4.948   3.444
  919TIP3    H2 2722   4.322   4.815   3.433
  920TIP3   OH2 2723   1.440   3.816   5.154
  920TIP3    H1 2724   1.483   3.861   5.081
  920TIP3    H2 2725   1.367   3.872   5.177
  921TIP3   OH2 2726   0.667   6.064   3.955
  921TIP3    H1 2727   0.609   6.015   4.012
  921TIP3    H2 2728   0.755   6.049   3.990
  922TIP3   OH2 2729   1.722   4.835   1.071
  922TIP3    H1 2730   1.813   4.814   1.054
  922TIP3    H2 2731   1.682   4.752   1.097
  923TIP3   OH2 2732   2.924   4.458   4.037
  923TIP3    H1 2733   2.973   4.472   3.956
  923TIP3    H2 2734   2.836   4.492   4.018
  924TIP3   OH2 2735   5.554   1.095   1.668
  924TIP3    H1 2736   5.556   1.054   1.582
  924TIP3    H2 2737   5.467   1.074   1.703
  925TIP3   OH2 2738   1.018   5.352   4.568
  925TIP3    H1 2739   1.044   5.288   4.503
  925TIP3    H2 2740   1.100   5.382   4.607
  926TIP3   OH2 2741   7.165   0.601   4.469
  926TIP3    H1 2742   7.103   0.528   4.474
  926TIP3    H2 2743   7.219   0.592   4.548
  927TIP3   OH2 2744   7.125   2.011   1.488
  927TIP3    H1 2745   7.065   1.964   1.430
  927TIP3    H2 2746   7.209   1.967   1.475
  928TIP3   OH2 2747   3.496   0.801   1.856
  928TIP3    H1 2748   3.543   0.874   1.814
  928TIP3    H2 2749   3.427   0.844   1.906
  929TIP3   OH2 2750   5.873   2.601   5.454
  929TIP3    H1 2751   5.948   2.546   5.477
  929TIP3    H2 2752   5.851   2.646   5.535
  930TIP3   OH2 2753   5.344   4.412   3.168
  930TIP3    H1 2754   5.288   4.428   3.244
  930TIP3    H2 2755   5.394   4.334   3.190
  931TIP3   OH2 2756   3.758   0.134   3.477
  931TIP3    H1 2757   3.683   0.186   3.505
  931TIP3    H2 2758   3.822   0.198   3.446
  932TIP3   OH2 2759   4.311   1.601   3.103
  932TIP3    H1 2760   4.260   1.569   3.029
  932TIP3    H2 2761   4.283   1.548   3.177
  933TIP3   OH2 2762   6.392   0.268   1.650
  933TIP3    H1 2763   6.357   0.355   1.630
  933TIP3    H2 2764   6.453   0.283   1.722
  934TIP3   OH2 2765   0.946   1.443   2.522
  934TIP3    H1 2766   0.921   1.531   2.550
  934TIP3    H2 2767   0.986   1.455   2.436
  935TIP3   OH2 2768   3.847   5.007   5.862
  935TIP3    H1 2769   3.924   5.034   5.811
  935TIP3    H2 2770   3.824   5.085   5.913
  936TIP3   OH2 2771   6.298   6.039   2.837
  936TIP3    H1 2772   6.327   6.005   2.922
  936TIP3    H2 2773   6.264   6.126   2.857
  937TIP3   OH2 2774   3.329   3.848   2.572
  937TIP3    H1 2775   3.249   3.797   2.563
  937TIP3    H2 2776   3.378   3.804   2.642
  938TIP3   OH2 2777   2.064   2.958   4.974
  938TIP3    H1 2778   2.028   3.029   4.921
  938TIP3    H2 2779   1.992   2.895   4.982
  939TIP3   OH2 2780   2.047   4.133   0.395
  939TIP3    H1 2781   2.133   4.129   0.353
  939TIP3    H2 2782   2.043   4.222   0.431
  940TIP3   OH2 2783   1.362   1.236   1.749
  940TIP3    H1 2784   1.330   1.324   1.729
  940TIP3    H2 2785   1.419   1.248   1.825
  941TIP3   OH2 2786   2.710   5.786   4.298
  941TIP3    H1 2787   2.631   5.742   4.330
  941TIP3    H2 2788   2.715   5.763   4.205
  942TIP3   OH2 2789   0.119   4.444   1.999
  942TIP3    H1 2790   0.206   4.458   1.963
  942TIP3    H2 2791   0.118   4.353   2.026
  943TIP3   OH2 2792   6.670   1.662   5.123
  943TIP3    H1 2793   6.596   1.610   5.093
  943TIP3    H2 2794   6.630   1.736   5.169
  944TIP3   OH2 2795   0.095   5.089   4.144
  944TIP3    H1 2796   0.069   5.181   4.152
  944TIP3    H2 2797   0.106   5.060   4.235
  945TIP3   OH2 2798   1.641   1.350   5.692
  945TIP3    H1 2799   1.569   1.319   5.747
  945TIP3    H2 2800   1.675   1.426   5.738
  946TIP3   OH2 2801   5.452   1.202   1.295
  946TIP3    H1 2802   5.516   1.159   1.239
  946TIP3    H2 2803   5.420   1.132   1.352
  947TIP3   OH2 2804   2.013   6.276   4.393
  947TIP3    H1 2805   1.952   6.348   4.407
  947TIP3    H2 2806   2.098   6.319   4.381
  948TIP3   OH2 2807   4.496   0.148   4.793
  948TIP3    H1 2808   4.403   0.133   4.781
  948TIP3    H2 2809   4.502   0.237   4.826
  949TIP3   OH2 2810   2.347   1.185   2.084
  949TIP3    H1 2811   2.378   1.267   2.045
  949TIP3    H2 2812   2.376   1.117   2.023
  950TIP3   OH2 2813   1.915   4.568   3.623
  950TIP3    H1 2814   1.881   4.645   3.576
  950TIP3    H2 2815   1.852   4.499   3.603
  951TIP3   OH2 2816   2.752   3.925   4.290
  951TIP3    H1 2817   2.709   4.008   4.311
  951TIP3    H2 2818   2.711   3.895   4.209
  952TIP3   OH2 2819   5.159   5.370   4.243
  952TIP3    H1 2820   5.158   5.277   4.262
  952TIP3    H2 2821   5.077   5.386   4.196
  953TIP3   OH2 2822   4.329   1.979   3.630
  953TIP3    H1 2823   4.415   1.942   3.650
  953TIP3    H2 2824   4.345   2.073   3.621
  954TIP3   OH2 2825   3.209   4.423   4.984
  954TIP3    H1 2826   3.187   4.361   4.915
  954TIP3    H2 2827   3.302   4.443   4.970
  955TIP3   OH2 2828   1.973   6.603   3.984
  955TIP3    H1 2829   1.923   6.576   3.907
  955TIP3    H2 2830   1.908   6.646   4.040
  956TIP3   OH2 2831   4.859   2.232   0.841
  956TIP3    H1 2832   4.842   2.261   0.752
  956TIP3    H2 2833   4.916   2.155   0.831
  957TIP3   OH2 2834   0.849   1.225   1.153
  957TIP3    H1 2835   0.861   1.153   1.214
  957TIP3    H2 2836   0.759   1.255   1.167
  958TIP3   OH2 2837   5.463   3.934   3.121
  958TIP3    H1 2838   5.488   4.026   3.123
  958TIP3    H2 2839   5.459   3.909   3.213
  959TIP3   OH2 2840   6.237   2.080   0.108
  959TIP3    H1 2841   6.329   2.107   0.105
  959TIP3    H2 2842   6.203   2.122   0.188
  960TIP3   OH2 2843   2.621   5.061   3.719
  960TIP3    H1 2844   2.710   5.095   3.728
  960TIP3    H2 2845   2.580   5.117   3.654
  961TIP3   OH2 2846   5.824   0.832   5.265
  961TIP3    H1 2847   5.737   0.835   5.224
  961TIP3    H2 2848   5.815   0.887   5.343
  962TIP3   OH2 2849   6.397   5.058   5.431
  962TIP3    H1 2850   6.456   5.129   5.457
  962TIP3    H2 2851   6.446   4.978   5.448
  963TIP3   OH2 2852   6.813   3.748   0.333
  963TIP3    H1 2853   6.757   3.670   0.326
  963TIP3    H2 2854   6.901   3.713   0.343
  964TIP3   OH2 2855   5.237   3.797   4.745
  964TIP3    H1 2856   5.162   3.785   4.688
  964TIP3    H2 2857   5.251   3.712   4.787
  965TIP3   OH2 2858   6.356   4.295   5.191
  965TIP3    H1 2859   6.357   4.280   5.285
  965TIP3    H2 2860   6.289   4.362   5.178
  966TIP3   OH2 2861   5.735   3.821   4.974
  966TIP3    H1 2862   5.725   3.799   4.882
  966TIP3    H2 2863   5.647   3.845   5.003
  967TIP3   OH2 2864   1.366   4.457   3.871
  967TIP3    H1 2865   1.384   4.551   3.876
  967TIP3    H2 2866   1.432   4.423   3.811
  968TIP3   OH2 2867   2.071   2.312   3.173
  968TIP3    H1 2868   2.124   2.379   3.130
  968TIP3    H2 2869   2.063   2.242   3.109
  969TIP3   OH2 2870   0.829   1.874   5.050
  969TIP3    H1 2871   0.778   1.953   5.035
  969TIP3    H2 2872   0.907   1.903   5.096
  970TIP3   OH2 2873   5.431   3.901   2.557
  970TIP3    H1 2874   5.479   3.837   2.610
  970TIP3    H2 2875   5.479   3.904   2.474
  971TIP3   OH2 2876   0.149   6.715   0.720
  971TIP3    H1 2877   0.153   6.807   0.696
  971TIP3    H2 2878   0.055   6.694   0.720
  972TIP3   OH2 2879   3.449   0.478   4.949
  972TIP3    H1 2880   3.464   0.490   5.043
  972TIP3    H2 2881   3.484   0.557   4.909
  973TIP3   OH2 2882   4.072   2.625   2.970
  973TIP3    H1 2883   4.102   2.566   2.901
  973TIP3    H2 2884   4.133   2.610   3.042
  974TIP3   OH2 2885   6.672   5.360   0.411
  974TIP3    H1 2886   6.738   5.302   0.372
  974TIP3    H2 2887   6.692   5.446   0.374
  975TIP3   OH2 2888   6.541   2.857   1.917
  975TIP3    H1 2889   6.571   2.808   1.994
  975TIP3    H2 2890   6.445   2.852   1.921
  976TIP3   OH2 2891   3.521   2.231   2.228
  976TIP3    H1 2892   3.479   2.292   2.167
  976TIP3    H2 2893   3.610   2.221   2.194
  977TIP3   OH2 2894   1.190   5.070   5.079
  977TIP3    H1 2895   1.132   5.143   5.102
  977TIP3    H2 2896   1.185   5.065   4.983
  978TIP3   OH2 2897   4.866   4.852   0.489
  978TIP3    H1 2898   4.824   4.925   0.535
  978TIP3    H2 2899   4.895   4.793   0.558
  979TIP3   OH2 2900   3.129   5.501   2.198
  979TIP3    H1 2901   3.200   5.519   2.261
  979TIP3    H2 2902   3.131   5.406   2.188
  980TIP3   OH2 2903   0.221   5.930   4.337
  980TIP3    H1 2904   0.152   5.993   4.361
  980TIP3    H2 2905   0.259   5.965   4.257
  981TIP3   OH2 2906   0.435   5.152   0.326
  981TIP3    H1 2907   0.468   5.193   0.406
  981TIP3    H2 2908   0.500   5.084   0.306
  982TIP3   OH2 2909   1.861   3.064   1.001
  982TIP3    H1 2910   1.875   2.970   0.988
  982TIP3    H2 2911   1.855   3.075   1.095
  983TIP3   OH2 2912   4.537   4.885   2.417
  983TIP3    H1 2913   4.484   4.872   2.338
  983TIP3    H2 2914   4.605   4.818   2.412
  984TIP3   OH2 2915   2.228   4.351   1.538
  984TIP3    H1 2916   2.314   4.354   1.497
  984TIP3    H2 2917   2.243   4.309   1.623
  985TIP3   OH2 2918   6.568   5.957   5.110
  985TIP3    H1 2919   6.593   5.960   5.018
  985TIP3    H2 2920   6.585   6.046   5.143
  986TIP3   OH2 2921   5.587   3.551   0.364
  986TIP3    H1 2922   5.556   3.634   0.400
  986TIP3    H2 2923   5.512   3.492   0.371
  987TIP3   OH2 2924   1.360   6.636   0.040
  987TIP3    H1 2925   1.305   6.674   0.109
  987TIP3    H2 2926   1.372   6.707  -0.023
  988TIP3   OH2 2927   6.001   4.580   3.735
  988TIP3    H1 2928   6.004   4.597   3.829
  988TIP3    H2 2929   5.928   4.520   3.724
  989TIP3   OH2 2930   4.061   3.390   2.274
  989TIP3    H1 2931   4.155   3.375   2.263
  989TIP3    H2 2932   4.055   3.450   2.348
  990TIP3   OH2 2933   5.630   0.241   2.636
  990TIP3    H1 2934   5.626   0.333   2.611
  990TIP3    H2 2935   5.722   0.225   2.655
  991TIP3   OH2 2936   4.635   5.308   1.218
  991TIP3    H1 2937   4.647   5.356   1.136
  991TIP3    H2 2938   4.715   5.255   1.227
  992TIP3   OH2 2939   3.536   2.297   0.469
  992TIP3    H1 2940   3.494   2.242   0.403
  992TIP3    H2 2941   3.625   2.262   0.477
  993TIP3   OH2 2942   1.435   3.042   3.485
  993TIP3    H1 2943   1.501   3.050   3.417
  993TIP3    H2 2944   1.484   3.050   3.567
  994TIP3   OH2 2945   5.336   2.000   0.349
  994TIP3    H1 2946   5.401   1.993   0.280
  994TIP3    H2 2947   5.287   1.918   0.345
  995TIP3   OH2 2948   2.023   1.531   2.793
  995TIP3    H1 2949   2.025   1.601   2.728
  995TIP3    H2 2950   2.002   1.575   2.875
  996TIP3   OH2 2951   1.347   3.057   1.698
  996TIP3    H1 2952   1.428   3.105   1.717
  996TIP3    H2 2953   1.287   3.123   1.665
  997TIP3   OH2 2954   1.731   1.012   4.313
  997TIP3    H1 2955   1.807   0.978   4.362
  997TIP3    H2 2956   1.674   0.936   4.303
  998TIP3   OH2 2957   5.244   5.704   1.499
  998TIP3    H1 2958   5.337   5.720   1.481
  998TIP3    H2 2959   5.224   5.758   1.575
  999TIP3   OH2 2960   3.663   6.572   2.986
  999TIP3    H1 2961   3.568   6.560   2.977
  999TIP3    H2 2962   3.687   6.628   2.913
 1000TIP3   OH2 2963   2.745   4.540   0.506
 1000TIP3    H1 2964   2.797   4.481   0.451
 1000TIP3    H2 2965   2.662   4.493   0.518
 1001TIP3   OH2 2966   1.460   6.358   5.425
 1001TIP3    H1 2967   1.551   6.378   5.447
 1001TIP3    H2 2968   1.450   6.389   5.335
 1002TIP3   OH2 2969   2.661   3.083   0.083
 1002TIP3    H1 2970   2.580   3.040   0.110
 1002TIP3    H2 2971   2.727   3.050   0.143
 1003TIP3   OH2 2972   4.528   3.783   0.302
 1003TIP3    H1 2973   4.481   3.862   0.329
 1003TIP3    H2 2974   4.477   3.748   0.229
 1004TIP3   OH2 2975   4.297   1.164   4.972
 1004TIP3    H1 2976   4.290   1.243   5.026
 1004TIP3    H2 2977   4.216   1.162   4.921
 1005TIP3   OH2 2978   6.202   3.136   0.634
 1005TIP3    H1 2979   6.291   3.172   0.637
 1005TIP3    H2 2980   6.207   3.056   0.686
 1006TIP3   OH2 2981   4.257   4.360   5.575
 1006TIP3    H1 2982   4.309   4.281   5.567
 1006TIP3    H2 2983   4.189   4.351   5.508
 1007TIP3   OH2 2984   4.091   6.753   1.380
 1007TIP3    H1 2985   4.005   6.718   1.404
 1007TIP3    H2 2986   4.138   6.678   1.343
 1008TIP3   OH2 2987   3.608   0.862   1.466
 1008TIP3    H1 2988   3.679   0.821   1.417
 1008TIP3    H2 2989   3.553   0.789   1.495
 1009TIP3   OH2 2990   5.128   4.917   5.433
 1009TIP3    H1 2991   5.187   4.946   5.364
 1009TIP3    H2 2992   5.049   4.971   5.422
 1010TIP3   OH2 2993   2.012   0.425   3.074
 1010TIP3    H1 2994   1.975   0.511   3.094
 1010TIP3    H2 2995   2.040   0.391   3.158
 1011TIP3   OH2 2996   3.379   0.707   5.211
 1011TIP3    H1 2997   3.443   0.640   5.234
 1011TIP3    H2 2998   3.398   0.728   5.120
 1012TIP3   OH2 2999   4.857   5.765   2.531
 1012TIP3    H1 3000   4.906   5.830   2.582
 1012TIP3    H2 3001   4.922   5.729   2.471
 1013TIP3   OH2 3002   6.594   5.087   5.819
 1013TIP3    H1 3003   6.604   5.097   5.725
 1013TIP3    H2 3004   6.648   5.011   5.842
 1014TIP3   OH2 3005   5.948   0.212   4.886
 1014TIP3    H1 3006   5.892   0.154   4.834
 1014TIP3    H2 3007   5.907   0.214   4.972
 1015TIP3   OH2 3008   5.583   4.518   1.329
 1015TIP3    H1 3009   5.591   4.477   1.243
 1015TIP3    H2 3010   5.627   4.458   1.389
 1016TIP3   OH2 3011   4.343   0.721   0.806
 1016TIP3    H1 3012   4.286   0.798   0.806
 1016TIP3    H2 3013   4.413   0.744   0.867
 1017TIP3   OH2 3014   3.811   5.189   2.556
 1017TIP3    H1 3015   3.848   5.166   2.642
 1017TIP3    H2 3016   3.762   5.270   2.572
 1018TIP3   OH2 3017   2.585   5.401   1.368
 1018TIP3    H1 3018   2.608   5.420   1.277
 1018TIP3    H2 3019   2.629   5.319   1.387
 1019TIP3   OH2 3020   0.116   5.969   2.511
 1019TIP3    H1 3021   0.191   5.914   2.490
 1019TIP3    H2 3022   0.094   6.012   2.428
 1020TIP3   OH2 3023   5.369   4.492   0.959
 1020TIP3    H1 3024   5.375   4.578   1.001
 1020TIP3    H2 3025   5.438   4.494   0.892
 1021TIP3   OH2 3026   5.285   3.424   2.372
 1021TIP3    H1 3027   5.343   3.354   2.402
 1021TIP3    H2 3028   5.252   3.394   2.288
 1022TIP3   OH2 3029   2.874   6.779   2.961
 1022TIP3    H1 3030   2.879   6.685   2.945
 1022TIP3    H2 3031   2.914   6.818   2.884
 1023TIP3   OH2 3032   1.815   6.031   5.582
 1023TIP3    H1 3033   1.870   6.106   5.559
 1023TIP3    H2 3034   1.873   5.973   5.631
 1024TIP3   OH2 3035   3.457   1.797   5.416
 1024TIP3    H1 3036   3.364   1.793   5.435
 1024TIP3    H2 3037   3.500   1.782   5.500
 1025TIP3   OH2 3038   2.887   6.509   2.873
 1025TIP3    H1 3039   2.801   6.480   2.841
 1025TIP3    H2 3040   2.948   6.480   2.806
 1026TIP3   OH2 3041   4.554   3.268   0.456
 1026TIP3    H1 3042   4.571   3.248   0.365
 1026TIP3    H2 3043   4.571   3.362   0.464
 1027TIP3   OH2 3044   2.845   3.962   0.830
 1027TIP3    H1 3045   2.825   4.038   0.776
 1027TIP3    H2 3046   2.792   3.973   0.909
 1028TIP3   OH2 3047   2.225   2.439   5.461
 1028TIP3    H1 3048   2.162   2.490   5.410
 1028TIP3    H2 3049   2.172   2.370   5.502
 1029TIP3   OH2 3050   6.755   6.144   4.109
 1029TIP3    H1 3051   6.682   6.189   4.067
 1029TIP3    H2 3052   6.797   6.211   4.162
 1030TIP3   OH2 3053   0.707   2.810   2.739
 1030TIP3    H1 3054   0.634   2.841   2.687
 1030TIP3    H2 3055   0.766   2.885   2.746
 1031TIP3   OH2 3056   3.437   0.999   3.398
 1031TIP3    H1 3057   3.464   1.086   3.427
 1031TIP3    H2 3058   3.350   1.012   3.359
 1032TIP3   OH2 3059   3.603   2.761   1.804
 1032TIP3    H1 3060   3.617   2.722   1.890
 1032TIP3    H2 3061   3.676   2.822   1.793
 1033TIP3   OH2 3062   0.292   4.333   2.901
 1033TIP3    H1 3063   0.265   4.398   2.837
 1033TIP3    H2 3064   0.331   4.263   2.849
 1034TIP3   OH2 3065   5.256   4.809   0.191
 1034TIP3    H1 3066   5.237   4.775   0.279
 1034TIP3    H2 3067   5.183   4.777   0.137
 1035TIP3   OH2 3068   5.234   1.186   2.611
 1035TIP3    H1 3069   5.307   1.179   2.548
 1035TIP3    H2 3070   5.164   1.228   2.561
 1036TIP3   OH2 3071   1.646   2.495   5.357
 1036TIP3    H1 3072   1.697   2.576   5.353
 1036TIP3    H2 3073   1.643   2.464   5.267
 1037TIP3   OH2 3074   0.092   2.721   0.013
 1037TIP3    H1 3075   0.183   2.720  -0.016
 1037TIP3    H2 3076   0.097   2.728   0.109
 1038TIP3   OH2 3077   0.974   4.857   4.425
 1038TIP3    H1 3078   0.929   4.780   4.391
 1038TIP3    H2 3079   0.938   4.931   4.375
 1039TIP3   OH2 3080   6.488   5.758   5.347
 1039TIP3    H1 3081   6.454   5.670   5.339
 1039TIP3    H2 3082   6.455   5.804   5.269
 1040TIP3   OH2 3083   4.916   0.974  -0.016
 1040TIP3    H1 3084   4.927   0.933   0.070
 1040TIP3    H2 3085   4.921   1.068   0.002
 1041TIP3   OH2 3086   1.250   5.740   3.948
 1041TIP3    H1 3087   1.329   5.723   3.999
 1041TIP3    H2 3088   1.199   5.659   3.955
 1042TIP3   OH2 3089   6.958   3.817   0.112
 1042TIP3    H1 3090   7.031   3.771   0.155
 1042TIP3    H2 3091   6.888   3.817   0.178
 1043TIP3   OH2 3092   1.252   5.688   1.285
 1043TIP3    H1 3093   1.194   5.758   1.317
 1043TIP3    H2 3094   1.302   5.730   1.215
 1044TIP3   OH2 3095   3.865   6.500   4.136
 1044TIP3    H1 3096   3.822   6.506   4.050
 1044TIP3    H2 3097   3.941   6.444   4.120
 1045TIP3   OH2 3098   6.261   1.572   3.273
 1045TIP3    H1 3099   6.197   1.527   3.218
 1045TIP3    H2 3100   6.208   1.625   3.333
 1046TIP3   OH2 3101   6.721   2.578   0.411
 1046TIP3    H1 3102   6.651   2.517   0.435
 1046TIP3    H2 3103   6.755   2.543   0.328
 1047TIP3   OH2 3104   0.897   2.384   1.811
 1047TIP3    H1 3105   0.902   2.389   1.716
 1047TIP3    H2 3106   0.952   2.455   1.843
 1048TIP3   OH2 3107   5.514   2.331   3.819
 1048TIP3    H1 3108   5.539   2.417   3.852
 1048TIP3    H2 3109   5.418   2.334   3.814
 1049TIP3   OH2 3110   1.453   4.504   3.414
 1049TIP3    H1 3111   1.408   4.587   3.430
 1049TIP3    H2 3112   1.456   4.497   3.318
 1050TIP3   OH2 3113   2.483   2.012   0.378
 1050TIP3    H1 3114   2.545   2.022   0.450
 1050TIP3    H2 3115   2.449   1.923   0.387
 1051TIP3   OH2 3116   1.862   1.086   5.749
 1051TIP3    H1 3117   1.880   1.070   5.656
 1051TIP3    H2 3118   1.816   1.007   5.778
 1052TIP3   OH2 3119   5.088   4.710   2.764
 1052TIP3    H1 3120   5.122   4.724   2.852
 1052TIP3    H2 3121   5.055   4.796   2.737
 1053TIP3   OH2 3122   6.521   1.402   5.654
 1053TIP3    H1 3123   6.610   1.424   5.627
 1053TIP3    H2 3124   6.468   1.414   5.574
 1054TIP3   OH2 3125   5.737   4.310   0.521
 1054TIP3    H1 3126   5.761   4.395   0.483
 1054TIP3    H2 3127   5.717   4.255   0.445
 1055TIP3   OH2 3128   3.290   2.291   5.181
 1055TIP3    H1 3129   3.227   2.352   5.142
 1055TIP3    H2 3130   3.236   2.229   5.230
 1056TIP3   OH2 3131   2.279   1.435   3.848
 1056TIP3    H1 3132   2.223   1.381   3.791
 1056TIP3    H2 3133   2.316   1.373   3.911
 1057TIP3   OH2 3134   3.377   5.346   4.170
 1057TIP3    H1 3135   3.410   5.383   4.089
 1057TIP3    H2 3136   3.317   5.412   4.204
 1058TIP3   OH2 3137   4.093   5.963   1.525
 1058TIP3    H1 3138   4.171   6.006   1.490
 1058TIP3    H2 3139   4.077   6.007   1.609
 1059TIP3   OH2 3140   5.429   5.967   3.190
 1059TIP3    H1 3141   5.456   5.920   3.270
 1059TIP3    H2 3142   5.510   6.007   3.158
 1060TIP3   OH2 3143   2.823   5.010   2.798
 1060TIP3    H1 3144   2.858   4.943   2.857
 1060TIP3    H2 3145   2.795   5.081   2.857
 1061TIP3   OH2 3146   5.160   6.566   1.443
 1061TIP3    H1 3147   5.147   6.649   1.488
 1061TIP3    H2 3148   5.075   6.547   1.402
 1062TIP3   OH2 3149   3.504   5.521   0.981
 1062TIP3    H1 3150   3.523   5.504   1.073
 1062TIP3    H2 3151   3.590   5.523   0.939
 1063TIP3   OH2 3152   2.966   6.751   2.536
 1063TIP3    H1 3153   2.887   6.697   2.524
 1063TIP3    H2 3154   2.941   6.814   2.604
 1064TIP3   OH2 3155   2.676   2.079   1.077
 1064TIP3    H1 3156   2.593   2.118   1.105
 1064TIP3    H2 3157   2.732   2.084   1.154
 1065TIP3   OH2 3158   1.114   3.431   4.020
 1065TIP3    H1 3159   1.035   3.377   4.006
 1065TIP3    H2 3160   1.098   3.476   4.103
 1066TIP3   OH2 3161   1.971   4.332   1.476
 1066TIP3    H1 3162   1.957   4.239   1.460
 1066TIP3    H2 3163   2.065   4.340   1.493
 1067TIP3   OH2 3164   5.189   2.089   1.276
 1067TIP3    H1 3165   5.149   2.007   1.304
 1067TIP3    H2 3166   5.272   2.092   1.323
 1068TIP3   OH2 3167   7.243   3.321   1.608
 1068TIP3    H1 3168   7.151   3.345   1.620
 1068TIP3    H2 3169   7.278   3.315   1.697
 1069TIP3   OH2 3170   5.670   5.321   3.668
 1069TIP3    H1 3171   5.724   5.244   3.687
 1069TIP3    H2 3172   5.732   5.393   3.661
 1070TIP3   OH2 3173   3.283   3.285   1.316
 1070TIP3    H1 3174   3.334   3.366   1.321
 1070TIP3    H2 3175   3.269   3.260   1.407
 1071TIP3   OH2 3176   2.199   3.829   0.343
 1071TIP3    H1 3177   2.286   3.866   0.330
 1071TIP3    H2 3178   2.147   3.902   0.377
 1072TIP3   OH2 3179   6.295   4.217   1.942
 1072TIP3    H1 3180   6.243   4.254   1.871
 1072TIP3    H2 3181   6.250   4.135   1.965
 1073TIP3   OH2 3182   2.531   4.095   4.223
 1073TIP3    H1 3183   2.506   4.018   4.172
 1073TIP3    H2 3184   2.576   4.152   4.160
 1074TIP3   OH2 3185   5.591   5.901   1.704
 1074TIP3    H1 3186   5.620   5.992   1.695
 1074TIP3    H2 3187   5.667   5.849   1.679
 1075TIP3   OH2 3188   0.028   3.030   4.901
 1075TIP3    H1 3189   0.119   3.009   4.880
 1075TIP3    H2 3190   0.018   3.122   4.876
 1076TIP3   OH2 3191   5.826   1.972   4.296
 1076TIP3    H1 3192   5.892   2.039   4.279
 1076TIP3    H2 3193   5.836   1.951   4.389
 1077TIP3   OH2 3194   5.799   1.137   5.431
 1077TIP3    H1 3195   5.802   1.063   5.492
 1077TIP3    H2 3196   5.887   1.175   5.437
 1078TIP3   OH2 3197   4.117   5.177   4.935
 1078TIP3    H1 3198   4.186   5.226   4.890
 1078TIP3    H2 3199   4.066   5.245   4.979
 1079TIP3   OH2 3200   2.975   1.141   5.009
 1079TIP3    H1 3201   3.036   1.128   4.937
 1079TIP3    H2 3202   2.970   1.236   5.021
 1080TIP3   OH2 3203   5.009   1.644   1.858
 1080TIP3    H1 3204   5.072   1.623   1.927
 1080TIP3    H2 3205   4.924   1.635   1.900
 1081TIP3   OH2 3206   0.343   5.916   1.622
 1081TIP3    H1 3207   0.386   5.940   1.704
 1081TIP3    H2 3208   0.316   6.000   1.583
 1082TIP3   OH2 3209   6.808   4.261   5.384
 1082TIP3    H1 3210   6.807   4.294   5.295
 1082TIP3    H2 3211   6.851   4.330   5.435
 1083TIP3   OH2 3212   3.478   1.717   2.146
 1083TIP3    H1 3213   3.500   1.634   2.104
 1083TIP3    H2 3214   3.526   1.783   2.096
 1084TIP3   OH2 3215   2.839   3.239   1.559
 1084TIP3    H1 3216   2.779   3.241   1.633
 1084TIP3    H2 3217   2.891   3.320   1.567
 1085TIP3   OH2 3218   1.251   1.655   3.858
 1085TIP3    H1 3219   1.211   1.706   3.929
 1085TIP3    H2 3220   1.221   1.697   3.778
 1086TIP3   OH2 3221   5.448   5.333   1.907
 1086TIP3    H1 3222   5.539   5.324   1.881
 1086TIP3    H2 3223   5.449   5.397   1.978
 1087TIP3   OH2 3224   0.066   1.623   2.115
 1087TIP3    H1 3225   0.062   1.565   2.191
 1087TIP3    H2 3226   0.128   1.691   2.141
 1088TIP3   OH2 3227   1.536   6.768   2.117
 1088TIP3    H1 3228   1.471   6.705   2.085
 1088TIP3    H2 3229   1.617   6.745   2.070
 1089TIP3   OH2 3230   0.339   5.456   0.676
 1089TIP3    H1 3231   0.364   5.532   0.728
 1089TIP3    H2 3232   0.260   5.422   0.719
 1090TIP3   OH2 3233   0.045   5.348   4.119
 1090TIP3    H1 3234  -0.019   5.314   4.057
 1090TIP3    H2 3235   0.128   5.344   4.072
 1091TIP3   OH2 3236   6.392   1.986   2.811
 1091TIP3    H1 3237   6.359   1.909   2.765
 1091TIP3    H2 3238   6.313   2.029   2.845
 1092TIP3   OH2 3239   1.883   2.112   4.915
 1092TIP3    H1 3240   1.934   2.046   4.870
 1092TIP3    H2 3241   1.836   2.158   4.846
 1093TIP3   OH2 3242   4.091   3.925   3.439
 1093TIP3    H1 3243   4.164   3.939   3.379
 1093TIP3    H2 3244   4.125   3.946   3.525
 1094TIP3   OH2 3245   2.112   3.826   3.108
 1094TIP3    H1 3246   2.197   3.817   3.066
 1094TIP3    H2 3247   2.131   3.815   3.202
 1095TIP3   OH2 3248   3.481   1.411   0.113
 1095TIP3    H1 3249   3.545   1.428   0.044
 1095TIP3    H2 3250   3.475   1.494   0.160
 1096TIP3   OH2 3251   4.370   3.054   0.337
 1096TIP3    H1 3252   4.390   3.092   0.252
 1096TIP3    H2 3253   4.414   3.111   0.400
 1097TIP3   OH2 3254   2.595   0.875   5.142
 1097TIP3    H1 3255   2.641   0.825   5.209
 1097TIP3    H2 3256   2.655   0.946   5.120
 1098TIP3   OH2 3257   0.715   0.914   1.985
 1098TIP3    H1 3258   0.783   0.852   1.956
 1098TIP3    H2 3259   0.663   0.864   2.049
 1099TIP3   OH2 3260   4.663   2.708   3.353
 1099TIP3    H1 3261   4.655   2.646   3.281
 1099TIP3    H2 3262   4.601   2.778   3.332
 1100TIP3   OH2 3263   6.808   5.348   0.678
 1100TIP3    H1 3264   6.828   5.441   0.694
 1100TIP3    H2 3265   6.851   5.328   0.596
 1101TIP3   OH2 3266   4.747   2.730   4.434
 1101TIP3    H1 3267   4.773   2.802   4.376
 1101TIP3    H2 3268   4.652   2.722   4.421
 1102TIP3   OH2 3269   0.288   6.021   3.430
 1102TIP3    H1 3270   0.292   5.992   3.339
 1102TIP3    H2 3271   0.367   5.985   3.470
 1103TIP3   OH2 3272   2.679   3.960   1.690
 1103TIP3    H1 3273   2.613   3.934   1.626
 1103TIP3    H2 3274   2.673   3.893   1.758
 1104TIP3   OH2 3275   1.872   4.059   5.640
 1104TIP3    H1 3276   1.848   4.090   5.553
 1104TIP3    H2 3277   1.909   4.136   5.684
 1105TIP3   OH2 3278   4.160   5.508   3.676
 1105TIP3    H1 3279   4.178   5.427   3.628
 1105TIP3    H2 3280   4.210   5.575   3.628
 1106TIP3   OH2 3281   7.043   0.110   4.764
 1106TIP3    H1 3282   6.952   0.096   4.789
 1106TIP3    H2 3283   7.075   0.177   4.824
 1107TIP3   OH2 3284   6.866   3.317   1.115
 1107TIP3    H1 3285   6.858   3.350   1.026
 1107TIP3    H2 3286   6.940   3.256   1.112
 1108TIP3   OH2 3287   1.573   1.726   1.576
 1108TIP3    H1 3288   1.664   1.721   1.606
 1108TIP3    H2 3289   1.579   1.726   1.481
 1109TIP3   OH2 3290   7.008   2.214   4.099
 1109TIP3    H1 3291   6.948   2.229   4.172
 1109TIP3    H2 3292   7.095   2.225   4.137
 1110TIP3   OH2 3293   5.464   2.529   0.766
 1110TIP3    H1 3294   5.391   2.484   0.809
 1110TIP3    H2 3295   5.423   2.598   0.715
 1111TIP3   OH2 3296   3.303   6.644   2.957
 1111TIP3    H1 3297   3.297   6.577   2.889
 1111TIP3    H2 3298   3.254   6.719   2.922
 1112TIP3   OH2 3299   3.804   6.393   4.680
 1112TIP3    H1 3300   3.798   6.450   4.756
 1112TIP3    H2 3301   3.834   6.450   4.609
 1113TIP3   OH2 3302   1.108   1.468   5.114
 1113TIP3    H1 3303   1.028   1.468   5.167
 1113TIP3    H2 3304   1.125   1.375   5.096
 1114TIP3   OH2 3305   2.920   5.857   0.360
 1114TIP3    H1 3306   2.987   5.921   0.387
 1114TIP3    H2 3307   2.853   5.909   0.316
 1115TIP3   OH2 3308   4.253   4.398   1.427
 1115TIP3    H1 3309   4.239   4.306   1.405
 1115TIP3    H2 3310   4.166   4.429   1.453
 1116TIP3   OH2 3311   4.809   2.219   5.789
 1116TIP3    H1 3312   4.766   2.300   5.759
 1116TIP3    H2 3313   4.845   2.241   5.874
 1117TIP3   OH2 3314   0.749   3.812   5.550
 1117TIP3    H1 3315   0.697   3.856   5.618
 1117TIP3    H2 3316   0.695   3.816   5.471
 1118TIP3   OH2 3317   5.702   2.510   5.758
 1118TIP3    H1 3318   5.651   2.448   5.810
 1118TIP3    H2 3319   5.793   2.483   5.770
 1119TIP3   OH2 3320   6.822   3.771   0.837
 1119TIP3    H1 3321   6.755   3.767   0.905
 1119TIP3    H2 3322   6.773   3.771   0.755
 1120TIP3   OH2 3323   1.782   4.565   0.238
 1120TIP3    H1 3324   1.764   4.472   0.231
 1120TIP3    H2 3325   1.695   4.606   0.235
 1121TIP3   OH2 3326   7.260   5.409   4.814
 1121TIP3    H1 3327   7.209   5.333   4.841
 1121TIP3    H2 3328   7.194   5.476   4.794
 1122TIP3   OH2 3329   0.184   2.704   4.762
 1122TIP3    H1 3330   0.120   2.675   4.827
 1122TIP3    H2 3331   0.261   2.729   4.815
 1123TIP3   OH2 3332   2.465   6.147   0.330
 1123TIP3    H1 3333   2.520   6.095   0.389
 1123TIP3    H2 3334   2.375   6.124   0.354
 1124TIP3   OH2 3335   6.505   6.014   5.852
 1124TIP3    H1 3336   6.517   5.989   5.760
 1124TIP3    H2 3337   6.593   6.036   5.882
 1125TIP3   OH2 3338   2.163   3.392   0.846
 1125TIP3    H1 3339   2.210   3.396   0.929
 1125TIP3    H2 3340   2.206   3.456   0.790
 1126TIP3   OH2 3341   4.930   0.853   5.575
 1126TIP3    H1 3342   4.984   0.923   5.612
 1126TIP3    H2 3343   4.858   0.898   5.532
 1127TIP3   OH2 3344   5.992   3.129   2.488
 1127TIP3    H1 3345   5.990   3.153   2.581
 1127TIP3    H2 3346   6.043   3.198   2.446
 1128TIP3   OH2 3347   5.252   4.081   0.946
 1128TIP3    H1 3348   5.303   4.015   0.993
 1128TIP3    H2 3349   5.222   4.141   1.014
 1129TIP3   OH2 3350   3.845   4.611   0.918
 1129TIP3    H1 3351   3.860   4.617   0.824
 1129TIP3    H2 3352   3.754   4.637   0.930
 1130TIP3   OH2 3353   0.058   2.460   1.720
 1130TIP3    H1 3354   0.060   2.365   1.731
 1130TIP3    H2 3355   0.083   2.474   1.629
 1131TIP3   OH2 3356   1.956   0.230   2.607
 1131TIP3    H1 3357   1.962   0.326   2.608
 1131TIP3    H2 3358   2.038   0.201   2.567
 1132TIP3   OH2 3359   4.405   0.078   0.400
 1132TIP3    H1 3360   4.399   0.060   0.494
 1132TIP3    H2 3361   4.356   0.007   0.359
 1133TIP3   OH2 3362   2.594   3.198   5.774
 1133TIP3    H1 3363   2.646   3.226   5.699
 1133TIP3    H2 3364   2.600   3.102   5.772
 1134TIP3   OH2 3365   3.555   6.194   0.358
 1134TIP3    H1 3366   3.612   6.189   0.281
 1134TIP3    H2 3367   3.520   6.283   0.355
 1135TIP3   OH2 3368   3.414   6.612   3.436
 1135TIP3    H1 3369   3.380   6.658   3.360
 1135TIP3    H2 3370   3.382   6.522   3.426
 1136TIP3   OH2 3371   5.155   1.767   1.133
 1136TIP3    H1 3372   5.240   1.767   1.088
 1136TIP3    H2 3373   5.174   1.806   1.218
 1137TIP3   OH2 3374   6.824   5.046   1.257
 1137TIP3    H1 3375   6.759   5.100   1.302
 1137TIP3    H2 3376   6.812   4.958   1.294
 1138TIP3   OH2 3377   0.232   1.592   3.036
 1138TIP3    H1 3378   0.274   1.668   2.995
 1138TIP3    H2 3379   0.177   1.554   2.967
 1139TIP3   OH2 3380   6.854   2.304   1.345
 1139TIP3    H1 3381   6.882   2.377   1.400
 1139TIP3    H2 3382   6.826   2.237   1.408
 1140TIP3   OH2 3383   0.782   1.215   0.272
 1140TIP3    H1 3384   0.768   1.125   0.242
 1140TIP3    H2 3385   0.847   1.250   0.211
 1141TIP3   OH2 3386   6.932   4.740   4.293
 1141TIP3    H1 3387   6.991   4.718   4.222
 1141TIP3    H2 3388   6.986   4.736   4.372
 1142TIP3   OH2 3389   4.736   5.304   3.081
 1142TIP3    H1 3390   4.717   5.236   3.145
 1142TIP3    H2 3391   4.831   5.312   3.081
 1143TIP3   OH2 3392   6.704   2.838   5.226
 1143TIP3    H1 3393   6.639   2.902   5.256
 1143TIP3    H2 3394   6.780   2.852   5.284
 1144TIP3   OH2 3395   1.245   4.559   3.095
 1144TIP3    H1 3396   1.211   4.644   3.067
 1144TIP3    H2 3397   1.338   4.575   3.113
 1145TIP3   OH2 3398   2.108   5.766   2.098
 1145TIP3    H1 3399   2.128   5.763   2.004
 1145TIP3    H2 3400   2.065   5.851   2.110
 1146TIP3   OH2 3401   1.098   4.566   0.875
 1146TIP3    H1 3402   1.096   4.651   0.918
 1146TIP3    H2 3403   1.089   4.503   0.946
 1147TIP3   OH2 3404   7.197   1.834   2.872
 1147TIP3    H1 3405   7.249   1.914   2.876
 1147TIP3    H2 3406   7.106   1.865   2.882
 1148TIP3   OH2 3407   3.369   4.903   4.108
 1148TIP3    H1 3408   3.412   4.975   4.153
 1148TIP3    H2 3409   3.276   4.911   4.131
 1149TIP3   OH2 3410   4.321   3.616   2.601
 1149TIP3    H1 3411   4.263   3.578   2.667
 1149TIP3    H2 3412   4.315   3.556   2.527
 1150TIP3   OH2 3413   3.775   2.048   4.504
 1150TIP3    H1 3414   3.865   2.063   4.530
 1150TIP3    H2 3415   3.767   2.090   4.418
 1151TIP3   OH2 3416   3.889   1.544   2.479
 1151TIP3    H1 3417   3.819   1.588   2.433
 1151TIP3    H2 3418   3.863   1.452   2.480
 1152TIP3   OH2 3419   3.169   5.445   2.656
 1152TIP3    H1 3420   3.177   5.456   2.751
 1152TIP3    H2 3421   3.075   5.435   2.641
 1153TIP3   OH2 3422   5.631   0.475   2.501
 1153TIP3    H1 3423   5.566   0.545   2.492
 1153TIP3    H2 3424   5.671   0.468   2.414
 1154TIP3   OH2 3425   7.030   1.334   3.979
 1154TIP3    H1 3426   7.043   1.266   3.913
 1154TIP3    H2 3427   7.006   1.412   3.930
 1155TIP3   OH2 3428   1.221   2.112   0.609
 1155TIP3    H1 3429   1.133   2.081   0.634
 1155TIP3    H2 3430   1.226   2.095   0.515
 1156TIP3   OH2 3431   4.625   0.054   4.262
 1156TIP3    H1 3432   4.534   0.028   4.248
 1156TIP3    H2 3433   4.634   0.058   4.358
 1157TIP3   OH2 3434   0.984   2.145   1.468
 1157TIP3    H1 3435   0.970   2.227   1.422
 1157TIP3    H2 3436   1.046   2.097   1.414
 1158TIP3   OH2 3437   0.766   6.222   4.551
 1158TIP3    H1 3438   0.825   6.150   4.572
 1158TIP3    H2 3439   0.798   6.257   4.468
 1159TIP3   OH2 3440   5.269   3.084   3.844
 1159TIP3    H1 3441   5.191   3.132   3.872
 1159TIP3    H2 3442   5.316   3.145   3.788
 1160TIP3   OH2 3443   0.037   0.875   3.300
 1160TIP3    H1 3444  -0.029   0.901   3.236
 1160TIP3    H2 3445   0.102   0.945   3.298
 1161TIP3   OH2 3446   3.771   0.520   5.563
 1161TIP3    H1 3447   3.852   0.565   5.583
 1161TIP3    H2 3448   3.717   0.530   5.642
 1162TIP3   OH2 3449   4.775   5.879   0.255
 1162TIP3    H1 3450   4.718   5.864   0.330
 1162TIP3    H2 3451   4.839   5.808   0.259
 1163TIP3   OH2 3452   3.792   5.683   5.266
 1163TIP3    H1 3453   3.782   5.594   5.232
 1163TIP3    H2 3454   3.887   5.697   5.270
 1164TIP3   OH2 3455   6.696   1.397   1.007
 1164TIP3    H1 3456   6.702   1.418   1.100
 1164TIP3    H2 3457   6.771   1.441   0.968
 1165TIP3   OH2 3458   5.370   0.531   0.977
 1165TIP3    H1 3459   5.354   0.608   1.032
 1165TIP3    H2 3460   5.342   0.558   0.889
 1166TIP3   OH2 3461   2.525   4.875   4.851
 1166TIP3    H1 3462   2.550   4.784   4.870
 1166TIP3    H2 3463   2.531   4.882   4.756
 1167TIP3   OH2 3464   0.295   6.443   2.713
 1167TIP3    H1 3465   0.315   6.394   2.793
 1167TIP3    H2 3466   0.207   6.478   2.727
 1168TIP3   OH2 3467   0.089   3.421   0.200
 1168TIP3    H1 3468   0.167   3.476   0.189
 1168TIP3    H2 3469   0.079   3.378   0.115
 1169TIP3   OH2 3470   0.030   5.818   0.367
 1169TIP3    H1 3471   0.077   5.825   0.449
 1169TIP3    H2 3472  -0.025   5.896   0.363
 1170TIP3   OH2 3473   4.472   1.116   3.320
 1170TIP3    H1 3474   4.493   1.056   3.248
 1170TIP3    H2 3475   4.379   1.135   3.310
 1171TIP3   OH2 3476   2.825   1.424   0.783
 1171TIP3    H1 3477   2.867   1.494   0.733
 1171TIP3    H2 3478   2.776   1.469   0.851
 1172TIP3   OH2 3479   3.696   4.978   1.579
 1172TIP3    H1 3480   3.729   5.063   1.606
 1172TIP3    H2 3481   3.754   4.915   1.621
 1173TIP3   OH2 3482   6.198   5.820   4.884
 1173TIP3    H1 3483   6.292   5.803   4.883
 1173TIP3    H2 3484   6.161   5.754   4.825
 1174TIP3   OH2 3485   5.940   5.539   2.250
 1174TIP3    H1 3486   5.892   5.605   2.200
 1174TIP3    H2 3487   5.972   5.478   2.184
 1175TIP3   OH2 3488   3.017   3.520   5.733
 1175TIP3    H1 3489   2.978   3.526   5.821
 1175TIP3    H2 3490   2.957   3.570   5.677
 1176TIP3   OH2 3491   5.961   1.540   0.696
 1176TIP3    H1 3492   5.931   1.493   0.774
 1176TIP3    H2 3493   5.978   1.629   0.726
 1177TIP3   OH2 3494   2.171   2.812   0.242
 1177TIP3    H1 3495   2.177   2.870   0.318
 1177TIP3    H2 3496   2.137   2.867   0.172
 1178TIP3   OH2 3497   1.379   1.107   0.046
 1178TIP3    H1 3498   1.435   1.030   0.039
 1178TIP3    H2 3499   1.439   1.180   0.057
 1179TIP3   OH2 3500   4.958   2.453   4.123
 1179TIP3    H1 3501   4.970   2.416   4.210
 1179TIP3    H2 3502   5.038   2.501   4.106
 1180TIP3   OH2 3503   3.237   0.358   4.526
 1180TIP3    H1 3504   3.302   0.377   4.593
 1180TIP3    H2 3505   3.161   0.410   4.550
 1181TIP3   OH2 3506   4.971   2.813   4.584
 1181TIP3    H1 3507   4.890   2.788   4.540
 1181TIP3    H2 3508   5.022   2.858   4.516
 1182TIP3   OH2 3509   3.531   5.695   5.742
 1182TIP3    H1 3510   3.474   5.738   5.805
 1182TIP3    H2 3511   3.478   5.687   5.663
 1183TIP3   OH2 3512   3.031   3.302   2.958
 1183TIP3    H1 3513   2.971   3.328   2.888
 1183TIP3    H2 3514   3.110   3.273   2.912
 1184TIP3   OH2 3515   4.517   3.887   4.643
 1184TIP3    H1 3516   4.589   3.886   4.580
 1184TIP3    H2 3517   4.457   3.819   4.612
 1185TIP3   OH2 3518   6.166   6.145   1.784
 1185TIP3    H1 3519   6.251   6.177   1.815
 1185TIP3    H2 3520   6.109   6.150   1.861
 1186TIP3   OH2 3521   2.186   4.929   5.804
 1186TIP3    H1 3522   2.139   4.866   5.857
 1186TIP3    H2 3523   2.276   4.928   5.838
 1187TIP3   OH2 3524   2.792   3.282   0.881
 1187TIP3    H1 3525   2.704   3.272   0.843
 1187TIP3    H2 3526   2.852   3.270   0.807
 1188TIP3   OH2 3527   5.601   2.245   5.736
 1188TIP3    H1 3528   5.622   2.290   5.654
 1188TIP3    H2 3529   5.680   2.197   5.759
 1189TIP3   OH2 3530   2.123   1.352   1.269
 1189TIP3    H1 3531   2.114   1.379   1.177
 1189TIP3    H2 3532   2.038   1.313   1.290
 1190TIP3   OH2 3533   0.169   4.052   1.936
 1190TIP3    H1 3534   0.086   4.094   1.958
 1190TIP3    H2 3535   0.221   4.057   2.017
 1191TIP3   OH2 3536   1.965   3.569   3.673
 1191TIP3    H1 3537   2.059   3.572   3.690
 1191TIP3    H2 3538   1.924   3.568   3.759
 1192TIP3   OH2 3539   4.082   1.963   3.465
 1192TIP3    H1 3540   4.110   1.936   3.378
 1192TIP3    H2 3541   4.157   1.943   3.522
 1193TIP3   OH2 3542   3.698   5.966   5.051
 1193TIP3    H1 3543   3.606   5.943   5.064
 1193TIP3    H2 3544   3.728   5.995   5.137
 1194TIP3   OH2 3545   3.916   1.264   0.336
 1194TIP3    H1 3546   3.848   1.288   0.272
 1194TIP3    H2 3547   3.941   1.175   0.312
 1195TIP3   OH2 3548   0.249   0.194   1.052
 1195TIP3    H1 3549   0.278   0.234   0.970
 1195TIP3    H2 3550   0.327   0.193   1.107
 1196TIP3   OH2 3551   5.252   0.595   0.422
 1196TIP3    H1 3552   5.172   0.647   0.429
 1196TIP3    H2 3553   5.305   0.639   0.356
 1197TIP3   OH2 3554   3.131   2.346   1.522
 1197TIP3    H1 3555   3.153   2.268   1.573
 1197TIP3    H2 3556   3.042   2.330   1.491
 1198TIP3   OH2 3557   7.028   2.531   1.790
 1198TIP3    H1 3558   7.043   2.620   1.822
 1198TIP3    H2 3559   7.115   2.497   1.770
 1199TIP3   OH2 3560   1.814   3.735   0.065
 1199TIP3    H1 3561   1.883   3.801   0.068
 1199TIP3    H2 3562   1.814   3.696   0.153
 1200TIP3   OH2 3563   6.772   4.810   1.433
 1200TIP3    H1 3564   6.726   4.728   1.450
 1200TIP3    H2 3565   6.805   4.837   1.519
 1201TIP3   OH2 3566   1.127   3.875   1.649
 1201TIP3    H1 3567   1.215   3.867   1.685
 1201TIP3    H2 3568   1.136   3.850   1.557
 1202TIP3   OH2 3569   3.608   1.602   1.475
 1202TIP3    H1 3570   3.563   1.649   1.545
 1202TIP3    H2 3571   3.565   1.631   1.394
 1203TIP3   OH2 3572   4.353   0.254   2.907
 1203TIP3    H1 3573   4.306   0.316   2.851
 1203TIP3    H2 3574   4.294   0.240   2.981
 1204TIP3   OH2 3575   2.519   1.542   3.784
 1204TIP3    H1 3576   2.537   1.489   3.707
 1204TIP3    H2 3577   2.425   1.530   3.800
 1205TIP3   OH2 3578   5.199   1.732   0.778
 1205TIP3    H1 3579   5.230   1.641   0.786
 1205TIP3    H2 3580   5.275   1.779   0.742
 1206TIP3   OH2 3581   2.183   0.738   2.830
 1206TIP3    H1 3582   2.274   0.745   2.859
 1206TIP3    H2 3583   2.155   0.828   2.816
 1207TIP3   OH2 3584   2.712   2.480   2.382
 1207TIP3    H1 3585   2.619   2.460   2.388
 1207TIP3    H2 3586   2.731   2.531   2.460
 1208TIP3   OH2 3587   0.293   4.078   1.218
 1208TIP3    H1 3588   0.237   4.123   1.154
 1208TIP3    H2 3589   0.380   4.077   1.177
 1209TIP3   OH2 3590   5.423   6.468   3.659
 1209TIP3    H1 3591   5.420   6.506   3.571
 1209TIP3    H2 3592   5.429   6.374   3.644
 1210TIP3   OH2 3593   1.378   2.153   2.044
 1210TIP3    H1 3594   1.373   2.233   1.993
 1210TIP3    H2 3595   1.299   2.155   2.099
 1211TIP3   OH2 3596   6.207   5.578   1.636
 1211TIP3    H1 3597   6.266   5.615   1.702
 1211TIP3    H2 3598   6.146   5.524   1.687
 1212TIP3   OH2 3599   1.929   0.802   4.071
 1212TIP3    H1 3600   1.959   0.870   4.131
 1212TIP3    H2 3601   1.840   0.829   4.048
 1213TIP3   OH2 3602   4.727   6.431   2.221
 1213TIP3    H1 3603   4.645   6.384   2.237
 1213TIP3    H2 3604   4.717   6.514   2.268
 1214TIP3   OH2 3605   0.319   1.537   5.298
 1214TIP3    H1 3606   0.315   1.467   5.233
 1214TIP3    H2 3607   0.233   1.536   5.341
 1215TIP3   OH2 3608   6.250   0.058   1.755
 1215TIP3    H1 3609   6.312   0.120   1.717
 1215TIP3    H2 3610   6.270   0.057   1.849
 1216TIP3   OH2 3611   1.352   4.702   1.059
 1216TIP3    H1 3612   1.320   4.719   1.148
 1216TIP3    H2 3613   1.278   4.723   1.003
 1217TIP3   OH2 3614   1.813   0.862   1.457
 1217TIP3    H1 3615   1.717   0.863   1.465
 1217TIP3    H2 3616   1.842   0.804   1.528
 1218TIP3   OH2 3617   1.835   3.953   2.168
 1218TIP3    H1 3618   1.886   3.914   2.097
 1218TIP3    H2 3619   1.744   3.943   2.141
 1219TIP3   OH2 3620   3.884   0.514   3.633
 1219TIP3    H1 3621   3.912   0.566   3.558
 1219TIP3    H2 3622   3.953   0.449   3.644
 1220TIP3   OH2 3623   2.042   2.544   0.483
 1220TIP3    H1 3624   2.097   2.565   0.408
 1220TIP3    H2 3625   2.047   2.623   0.538
 1221TIP3   OH2 3626   6.385   0.203   4.147
 1221TIP3    H1 3627   6.465   0.256   4.135
 1221TIP3    H2 3628   6.334   0.252   4.211
 1222TIP3   OH2 3629   4.593   2.195   1.822
 1222TIP3    H1 3630   4.573   2.102   1.820
 1222TIP3    H2 3631   4.527   2.235   1.765
 1223TIP3   OH2 3632   6.125   0.880   5.379
 1223TIP3    H1 3633   6.198   0.910   5.433
 1223TIP3    H2 3634   6.109   0.790   5.407
 1224TIP3   OH2 3635   2.224   6.238   1.962
 1224TIP3    H1 3636   2.197   6.285   2.041
 1224TIP3    H2 3637   2.211   6.146   1.984
 1225TIP3   OH2 3638   5.739   5.087   0.527
 1225TIP3    H1 3639   5.689   5.034   0.465
 1225TIP3    H2 3640   5.762   5.166   0.478
 1226TIP3   OH2 3641   5.785   2.392   2.753
 1226TIP3    H1 3642   5.825   2.459   2.809
 1226TIP3    H2 3643   5.698   2.427   2.731
 1227TIP3   OH2 3644   1.275   1.717   4.566
 1227TIP3    H1 3645   1.183   1.733   4.584
 1227TIP3    H2 3646   1.322   1.775   4.626
 1228TIP3   OH2 3647   0.320   6.299   3.403
 1228TIP3    H1 3648   0.234   6.331   3.379
 1228TIP3    H2 3649   0.309   6.204   3.411
 1229TIP3   OH2 3650   2.399   5.878   1.131
 1229TIP3    H1 3651   2.416   5.820   1.058
 1229TIP3    H2 3652   2.410   5.966   1.095
 1230TIP3   OH2 3653   4.846   2.943   4.289
 1230TIP3    H1 3654   4.923   2.987   4.323
 1230TIP3    H2 3655   4.808   3.004   4.226
 1231TIP3   OH2 3656   5.998   1.441   2.745
 1231TIP3    H1 3657   5.974   1.352   2.718
 1231TIP3    H2 3658   6.085   1.455   2.706
 1232TIP3   OH2 3659   3.315   2.612   0.726
 1232TIP3    H1 3660   3.347   2.668   0.797
 1232TIP3    H2 3661   3.307   2.526   0.767
 1233TIP3   OH2 3662   3.048   4.962   4.402
 1233TIP3    H1 3663   3.044   4.926   4.314
 1233TIP3    H2 3664   3.090   5.048   4.391
 1234TIP3   OH2 3665   1.178   1.876   5.639
 1234TIP3    H1 3666   1.132   1.946   5.593
 1234TIP3    H2 3667   1.268   1.907   5.646
 1235TIP3   OH2 3668   2.537   0.882   1.375
 1235TIP3    H1 3669   2.597   0.912   1.306
 1235TIP3    H2 3670   2.502   0.963   1.413
 1236TIP3   OH2 3671   1.236   4.650   0.471
 1236TIP3    H1 3672   1.283   4.602   0.539
 1236TIP3    H2 3673   1.201   4.582   0.414
 1237TIP3   OH2 3674   3.409   4.012   0.552
 1237TIP3    H1 3675   3.454   3.967   0.480
 1237TIP3    H2 3676   3.341   3.951   0.579
 1238TIP3   OH2 3677   6.350   0.459   1.284
 1238TIP3    H1 3678   6.257   0.472   1.270
 1238TIP3    H2 3679   6.358   0.368   1.315
 1239TIP3   OH2 3680   2.743   2.401   3.629
 1239TIP3    H1 3681   2.781   2.407   3.716
 1239TIP3    H2 3682   2.791   2.465   3.577
 1240TIP3   OH2 3683   2.389   6.558   2.518
 1240TIP3    H1 3684   2.357   6.472   2.546
 1240TIP3    H2 3685   2.329   6.620   2.560
 1241TIP3   OH2 3686   1.948   1.659   0.262
 1241TIP3    H1 3687   2.031   1.705   0.266
 1241TIP3    H2 3688   1.883   1.728   0.248
 1242TIP3   OH2 3689   1.839   3.557   1.858
 1242TIP3    H1 3690   1.915   3.504   1.835
 1242TIP3    H2 3691   1.782   3.497   1.907
 1243TIP3   OH2 3692   5.088   2.558   3.671
 1243TIP3    H1 3693   4.995   2.560   3.649
 1243TIP3    H2 3694   5.130   2.612   3.604
 1244TIP3   OH2 3695   2.063   2.046   1.931
 1244TIP3    H1 3696   1.984   2.054   1.877
 1244TIP3    H2 3697   2.098   2.135   1.936
 1245TIP3   OH2 3698   0.481   5.788   5.200
 1245TIP3    H1 3699   0.399   5.739   5.210
 1245TIP3    H2 3700   0.462   5.853   5.132
 1246TIP3   OH2 3701   2.564   1.415   4.600
 1246TIP3    H1 3702   2.529   1.330   4.629
 1246TIP3    H2 3703   2.606   1.452   4.678
 1247TIP3   OH2 3704   1.236   0.024   2.125
 1247TIP3    H1 3705   1.231   0.089   2.196
 1247TIP3    H2 3706   1.159  -0.031   2.139
 1248TIP3   OH2 3707   2.047   3.247   4.562
 1248TIP3    H1 3708   2.095   3.200   4.494
 1248TIP3    H2 3709   1.956   3.243   4.534
 1249TIP3   OH2 3710   5.606   2.745   1.329
 1249TIP3    H1 3711   5.589   2.809   1.398
 1249TIP3    H2 3712   5.523   2.700   1.316
 1250TIP3   OH2 3713   7.178   6.668   1.439
 1250TIP3    H1 3714   7.211   6.585   1.407
 1250TIP3    H2 3715   7.252   6.709   1.483
 1251TIP3   OH2 3716   4.939   2.960   0.489
 1251TIP3    H1 3717   4.989   2.883   0.517
 1251TIP3    H2 3718   4.877   2.976   0.559
 1252TIP3   OH2 3719   2.957   2.414   3.085
 1252TIP3    H1 3720   3.040   2.367   3.090
 1252TIP3    H2 3721   2.910   2.389   3.164
 1253TIP3   OH2 3722   3.579   6.458   0.546
 1253TIP3    H1 3723   3.563   6.517   0.620
 1253TIP3    H2 3724   3.524   6.492   0.475
 1254TIP3   OH2 3725   0.382   2.841   1.493
 1254TIP3    H1 3726   0.349   2.909   1.434
 1254TIP3    H2 3727   0.475   2.861   1.502
 1255TIP3   OH2 3728   4.148   5.369   2.540
 1255TIP3    H1 3729   4.198   5.288   2.543
 1255TIP3    H2 3730   4.084   5.360   2.610
 1256TIP3   OH2 3731   0.716   0.910   4.354
 1256TIP3    H1 3732   0.737   0.974   4.422
 1256TIP3    H2 3733   0.626   0.930   4.329
 1257TIP3   OH2 3734   5.464   0.537   1.275
 1257TIP3    H1 3735   5.452   0.443   1.264
 1257TIP3    H2 3736   5.559   0.548   1.285
 1258TIP3   OH2 3737   1.879   2.404   0.318
 1258TIP3    H1 3738   1.940   2.457   0.369
 1258TIP3    H2 3739   1.928   2.324   0.299
 1259TIP3   OH2 3740   2.484   4.961   3.095
 1259TIP3    H1 3741   2.541   4.998   3.163
 1259TIP3    H2 3742   2.419   5.030   3.079
 1260TIP3   OH2 3743   1.557   3.663   3.761
 1260TIP3    H1 3744   1.528   3.618   3.840
 1260TIP3    H2 3745   1.534   3.603   3.690
 1261TIP3   OH2 3746   5.433   3.263   2.827
 1261TIP3    H1 3747   5.382   3.342   2.841
 1261TIP3    H2 3748   5.382   3.193   2.868
 1262TIP3   OH2 3749   3.857   2.408   2.903
 1262TIP3    H1 3750   3.773   2.426   2.860
 1262TIP3    H2 3751   3.875   2.486   2.955
 1263TIP3   OH2 3752   5.379   4.379   2.720
 1263TIP3    H1 3753   5.463   4.369   2.676
 1263TIP3    H2 3754   5.332   4.298   2.700
 1264TIP3   OH2 3755   4.237   6.344   5.868
 1264TIP3    H1 3756   4.177   6.368   5.939
 1264TIP3    H2 3757   4.228   6.248   5.862
 1265TIP3   OH2 3758   6.791   4.567   3.854
 1265TIP3    H1 3759   6.731   4.520   3.796
 1265TIP3    H2 3760   6.769   4.535   3.941
 1266TIP3   OH2 3761   5.459   2.188   5.349
 1266TIP3    H1 3762   5.511   2.256   5.393
 1266TIP3    H2 3763   5.396   2.237   5.297
 1267TIP3   OH2 3764   4.674   0.785   3.313
 1267TIP3    H1 3765   4.730   0.862   3.323
 1267TIP3    H2 3766   4.689   0.756   3.223
 1268TIP3   OH2 3767   0.052   3.932   4.355
 1268TIP3    H1 3768   0.025   3.894   4.271
 1268TIP3    H2 3769   0.056   4.026   4.339
 1269TIP3   OH2 3770   3.043   0.409   4.976
 1269TIP3    H1 3771   3.094   0.348   5.029
 1269TIP3    H2 3772   3.049   0.493   5.023
 1270TIP3   OH2 3773   1.634   5.617   3.786
 1270TIP3    H1 3774   1.603   5.687   3.728
 1270TIP3    H2 3775   1.590   5.634   3.869
 1271TIP3   OH2 3776   0.727   2.617   5.520
 1271TIP3    H1 3777   0.631   2.618   5.518
 1271TIP3    H2 3778   0.749   2.684   5.585
 1272TIP3   OH2 3779   5.317   6.318   5.045
 1272TIP3    H1 3780   5.350   6.390   4.991
 1272TIP3    H2 3781   5.350   6.239   5.002
 1273TIP3   OH2 3782   3.247   5.114   3.497
 1273TIP3    H1 3783   3.267   5.155   3.413
 1273TIP3    H2 3784   3.179   5.169   3.535
 1274TIP3   OH2 3785   7.061   4.466   4.549
 1274TIP3    H1 3786   7.084   4.536   4.488
 1274TIP3    H2 3787   7.102   4.388   4.512
 1275TIP3   OH2 3788   1.784   5.228   1.503
 1275TIP3    H1 3789   1.805   5.318   1.526
 1275TIP3    H2 3790   1.805   5.177   1.582
 1276TIP3   OH2 3791   0.391   0.080   1.821
 1276TIP3    H1 3792   0.432  -0.004   1.801
 1276TIP3    H2 3793   0.336   0.098   1.745
 1277TIP3   OH2 3794   0.873   6.178   1.890
 1277TIP3    H1 3795   0.876   6.088   1.857
 1277TIP3    H2 3796   0.854   6.231   1.813
 1278TIP3   OH2 3797   1.512  -0.016   5.784
 1278TIP3    H1 3798   1.586   0.044   5.773
 1278TIP3    H2 3799   1.451   0.032   5.840
 1279TIP3   OH2 3800   1.014   0.984   4.032
 1279TIP3    H1 3801   1.074   0.978   3.958
 1279TIP3    H2 3802   0.982   1.074   4.030
 1280TIP3   OH2 3803   5.892   5.936   2.315
 1280TIP3    H1 3804   5.973   5.888   2.329
 1280TIP3    H2 3805   5.902   6.017   2.365
 1281TIP3   OH2 3806   4.111   2.076   0.728
 1281TIP3    H1 3807   4.105   2.157   0.779
 1281TIP3    H2 3808   4.041   2.020   0.762
 1282TIP3   OH2 3809   2.810   6.757   4.264
 1282TIP3    H1 3810   2.855   6.772   4.181
 1282TIP3    H2 3811   2.865   6.695   4.311
 1283TIP3   OH2 3812   3.131   5.785   5.607
 1283TIP3    H1 3813   3.181   5.783   5.688
 1283TIP3    H2 3814   3.136   5.695   5.574
 1284TIP3   OH2 3815   1.664   2.527   2.248
 1284TIP3    H1 3816   1.687   2.434   2.256
 1284TIP3    H2 3817   1.638   2.553   2.336
 1285TIP3   OH2 3818   5.961   2.174   0.612
 1285TIP3    H1 3819   5.874   2.168   0.652
 1285TIP3    H2 3820   6.017   2.211   0.682
 1286TIP3   OH2 3821   6.815   4.758   1.138
 1286TIP3    H1 3822   6.876   4.687   1.116
 1286TIP3    H2 3823   6.781   4.734   1.224
 1287TIP3   OH2 3824   0.744   5.843   5.688
 1287TIP3    H1 3825   0.691   5.810   5.760
 1287TIP3    H2 3826   0.681   5.888   5.631
 1288TIP3   OH2 3827   4.586   4.796   1.689
 1288TIP3    H1 3828   4.558   4.711   1.657
 1288TIP3    H2 3829   4.568   4.856   1.616
 1289TIP3   OH2 3830   1.868   1.585   0.523
 1289TIP3    H1 3831   1.908   1.505   0.556
 1289TIP3    H2 3832   1.926   1.614   0.453
 1290TIP3   OH2 3833   2.337   0.026   5.015
 1290TIP3    H1 3834   2.356   0.058   5.103
 1290TIP3    H2 3835   2.256   0.071   4.991
 1291TIP3   OH2 3836   1.465   5.881   4.812
 1291TIP3    H1 3837   1.551   5.839   4.814
 1291TIP3    H2 3838   1.403   5.808   4.812
 1292TIP3   OH2 3839   2.082   0.290   1.433
 1292TIP3    H1 3840   2.153   0.248   1.384
 1292TIP3    H2 3841   2.008   0.290   1.372
 1293TIP3   OH2 3842   3.292   1.128   2.933
 1293TIP3    H1 3843   3.328   1.170   3.011
 1293TIP3    H2 3844   3.358   1.063   2.909
 1294TIP3   OH2 3845   3.627   2.423   0.172
 1294TIP3    H1 3846   3.722   2.431   0.164
 1294TIP3    H2 3847   3.611   2.329   0.181
 1295TIP3   OH2 3848   0.708   4.913   4.569
 1295TIP3    H1 3849   0.682   4.821   4.567
 1295TIP3    H2 3850   0.787   4.915   4.624
 1296TIP3   OH2 3851   0.366   5.645   3.476
 1296TIP3    H1 3852   0.271   5.648   3.480
 1296TIP3    H2 3853   0.386   5.565   3.427
 1297TIP3   OH2 3854   4.868   4.768   0.225
 1297TIP3    H1 3855   4.876   4.822   0.304
 1297TIP3    H2 3856   4.795   4.709   0.244
 1298TIP3   OH2 3857   6.765   3.299   5.410
 1298TIP3    H1 3858   6.695   3.351   5.449
 1298TIP3    H2 3859   6.787   3.233   5.476
 1299TIP3   OH2 3860   7.202   3.490   5.759
 1299TIP3    H1 3861   7.191   3.456   5.847
 1299TIP3    H2 3862   7.192   3.585   5.768
 1300TIP3   OH2 3863   0.806   4.760   3.052
 1300TIP3    H1 3864   0.832   4.677   3.093
 1300TIP3    H2 3865   0.769   4.811   3.124
 1301TIP3   OH2 3866   2.101   4.356   5.837
 1301TIP3    H1 3867   2.025   4.398   5.797
 1301TIP3    H2 3868   2.174   4.413   5.816
 1302TIP3   OH2 3869   2.212   4.105   5.758
 1302TIP3    H1 3870   2.256   4.068   5.835
 1302TIP3    H2 3871   2.168   4.183   5.791
 1303TIP3   OH2 3872   6.359   1.148   3.047
 1303TIP3    H1 3873   6.335   1.236   3.019
 1303TIP3    H2 3874   6.323   1.091   2.979
 1304TIP3   OH2 3875   6.058   5.985   0.696
 1304TIP3    H1 3876   6.151   6.010   0.700
 1304TIP3    H2 3877   6.047   5.926   0.771
 1305TIP3   OH2 3878   1.172   2.112   4.351
 1305TIP3    H1 3879   1.229   2.180   4.314
 1305TIP3    H2 3880   1.204   2.030   4.314
 1306TIP3   OH2 3881   5.689   0.774   0.384
 1306TIP3    H1 3882   5.712   0.740   0.298
 1306TIP3    H2 3883   5.767   0.760   0.437
 1307TIP3   OH2 3884   4.926   1.202   2.732
 1307TIP3    H1 3885   4.966   1.226   2.815
 1307TIP3    H2 3886   4.902   1.285   2.691
 1308TIP3   OH2 3887   4.505   2.470   2.233
 1308TIP3    H1 3888   4.587   2.421   2.239
 1308TIP3    H2 3889   4.528   2.551   2.188
 1309TIP3   OH2 3890   1.383   3.548   4.352
 1309TIP3    H1 3891   1.332   3.469   4.335
 1309TIP3    H2 3892   1.421   3.571   4.267
 1310TIP3   OH2 3893   1.665   4.458   1.522
 1310TIP3    H1 3894   1.599   4.405   1.565
 1310TIP3    H2 3895   1.741   4.454   1.580
 1311TIP3   OH2 3896   2.759   3.860   5.838
 1311TIP3    H1 3897   2.780   3.952   5.854
 1311TIP3    H2 3898   2.822   3.812   5.892
 1312TIP3   OH2 3899   4.880   3.651   0.547
 1312TIP3    H1 3900   4.914   3.722   0.601
 1312TIP3    H2 3901   4.956   3.594   0.531
 1313TIP3   OH2 3902   1.543   2.746   4.598
 1313TIP3    H1 3903   1.573   2.828   4.559
 1313TIP3    H2 3904   1.563   2.679   4.532
 1314TIP3   OH2 3905   3.292   2.596   3.179
 1314TIP3    H1 3906   3.288   2.682   3.137
 1314TIP3    H2 3907   3.339   2.540   3.117
 1315TIP3   OH2 3908   4.600   0.595   0.709
 1315TIP3    H1 3909   4.619   0.674   0.659
 1315TIP3    H2 3910   4.517   0.613   0.754
 1316TIP3   OH2 3911   4.093   5.670   5.364
 1316TIP3    H1 3912   4.084   5.575   5.367
 1316TIP3    H2 3913   4.069   5.699   5.452
 1317TIP3   OH2 3914   0.803   3.304   2.907
 1317TIP3    H1 3915   0.874   3.363   2.884
 1317TIP3    H2 3916   0.846   3.228   2.946
 1318TIP3   OH2 3917   3.200   0.423   5.819
 1318TIP3    H1 3918   3.167   0.428   5.729
 1318TIP3    H2 3919   3.292   0.400   5.809
 1319TIP3   OH2 3920  -0.002   2.032   1.977
 1319TIP3    H1 3921   0.049   1.953   1.959
 1319TIP3    H2 3922  -0.020   2.028   2.071
 1320TIP3   OH2 3923   1.920   2.559   1.302
 1320TIP3    H1 3924   1.891   2.637   1.254
 1320TIP3    H2 3925   1.902   2.580   1.394
 1321TIP3   OH2 3926   3.325   0.092   0.604
 1321TIP3    H1 3927   3.416   0.075   0.579
 1321TIP3    H2 3928   3.273   0.057   0.532
 1322TIP3   OH2 3929   2.915   5.335   2.624
 1322TIP3    H1 3930   2.882   5.315   2.712
 1322TIP3    H2 3931   2.936   5.249   2.587
 1323TIP3   OH2 3932   4.373   4.108   2.341
 1323TIP3    H1 3933   4.433   4.183   2.342
 1323TIP3    H2 3934   4.288   4.147   2.360
 1324TIP3   OH2 3935   1.938   5.134   1.714
 1324TIP3    H1 3936   1.929   5.169   1.802
 1324TIP3    H2 3937   2.023   5.167   1.684
 1325TIP3   OH2 3938   6.411   5.973   3.509
 1325TIP3    H1 3939   6.492   6.020   3.490
 1325TIP3    H2 3940   6.401   5.911   3.436
 1326TIP3   OH2 3941   4.264   6.657   1.061
 1326TIP3    H1 3942   4.244   6.612   1.143
 1326TIP3    H2 3943   4.224   6.602   0.994
 1327TIP3   OH2 3944   1.470   0.350   4.467
 1327TIP3    H1 3945   1.437   0.435   4.496
 1327TIP3    H2 3946   1.444   0.289   4.536
 1328TIP3   OH2 3947   0.084   1.414   2.336
 1328TIP3    H1 3948  -0.006   1.388   2.319
 1328TIP3    H2 3949   0.134   1.372   2.266
 1329TIP3   OH2 3950   4.603   2.907   0.115
 1329TIP3    H1 3951   4.604   2.813   0.098
 1329TIP3    H2 3952   4.520   2.937   0.080
 1330TIP3   OH2 3953   2.649   4.965   2.371
 1330TIP3    H1 3954   2.684   4.918   2.446
 1330TIP3    H2 3955   2.602   4.899   2.320
 1331TIP3   OH2 3956   4.692   0.195   4.001
 1331TIP3    H1 3957   4.616   0.152   3.959
 1331TIP3    H2 3958   4.681   0.176   4.094
 1332TIP3   OH2 3959   4.418   4.831   1.933
 1332TIP3    H1 3960   4.339   4.885   1.937
 1332TIP3    H2 3961   4.458   4.854   1.849
 1333TIP3   OH2 3962   2.314   0.487   1.132
 1333TIP3    H1 3963   2.326   0.458   1.222
 1333TIP3    H2 3964   2.383   0.442   1.082
 1334TIP3   OH2 3965   2.760   3.655   4.432
 1334TIP3    H1 3966   2.756   3.749   4.417
 1334TIP3    H2 3967   2.826   3.624   4.370
 1335TIP3   OH2 3968   2.008   4.714   5.262
 1335TIP3    H1 3969   2.038   4.708   5.172
 1335TIP3    H2 3970   2.089   4.713   5.314
 1336TIP3   OH2 3971   1.394   3.524   2.763
 1336TIP3    H1 3972   1.376   3.556   2.675
 1336TIP3    H2 3973   1.315   3.476   2.788
 1337TIP3   OH2 3974   7.150   1.652   1.264
 1337TIP3    H1 3975   7.188   1.575   1.306
 1337TIP3    H2 3976   7.056   1.635   1.264
 1338TIP3   OH2 3977   2.841   6.142   3.753
 1338TIP3    H1 3978   2.848   6.053   3.717
 1338TIP3    H2 3979   2.822   6.129   3.846
 1339TIP3   OH2 3980   2.624   4.580   2.968
 1339TIP3    H1 3981   2.688   4.616   3.030
 1339TIP3    H2 3982   2.562   4.533   3.024
 1340TIP3   OH2 3983   1.786   2.070   3.053
 1340TIP3    H1 3984   1.711   2.102   3.105
 1340TIP3    H2 3985   1.761   1.981   3.028
 1341TIP3   OH2 3986   1.150   2.293   1.163
 1341TIP3    H1 3987   1.069   2.248   1.141
 1341TIP3    H2 3988   1.211   2.224   1.189
 1342TIP3   OH2 3989   2.859   0.087   1.862
 1342TIP3    H1 3990   2.861   0.072   1.767
 1342TIP3    H2 3991   2.820   0.008   1.898
 1343TIP3   OH2 3992   6.941   0.481   1.935
 1343TIP3    H1 3993   6.968   0.440   1.853
 1343TIP3    H2 3994   6.912   0.569   1.910
 1344TIP3   OH2 3995   6.629   4.592   2.471
 1344TIP3    H1 3996   6.553   4.645   2.448
 1344TIP3    H2 3997   6.703   4.635   2.427
 1345TIP3   OH2 3998  -0.019   4.004   5.874
 1345TIP3    H1 3999   0.063   4.053   5.864
 1345TIP3    H2 4000  -0.015   3.970   5.963
 1346TIP3   OH2 4001   3.193   4.188   0.361
 1346TIP3    H1 4002   3.249   4.149   0.428
 1346TIP3    H2 4003   3.137   4.116   0.333
 1347TIP3   OH2 4004   5.245   0.127   0.982
 1347TIP3    H1 4005   5.172   0.073   0.953
 1347TIP3    H2 4006   5.293   0.148   0.902
 1348TIP3   OH2 4007   1.088   0.496   0.260
 1348TIP3    H1 4008   1.183   0.481   0.256
 1348TIP3    H2 4009   1.078   0.591   0.251
 1349TIP3   OH2 4010   3.865   4.692   3.125
 1349TIP3    H1 4011   3.929   4.704   3.055
 1349TIP3    H2 4012   3.783   4.674   3.080
 1350TIP3   OH2 4013   2.834   1.614   3.905
 1350TIP3    H1 4014   2.852   1.564   3.825
 1350TIP3    H2 4015   2.875   1.699   3.891
 1351TIP3   OH2 4016   5.090   0.892   0.197
 1351TIP3    H1 4017   5.112   0.913   0.287
 1351TIP3    H2 4018   5.073   0.798   0.197
 1352TIP3   OH2 4019   4.455   0.235   2.086
 1352TIP3    H1 4020   4.539   0.271   2.057
 1352TIP3    H2 4021   4.400   0.311   2.101
 1353TIP3   OH2 4022   6.934   1.783   0.392
 1353TIP3    H1 4023   6.929   1.866   0.441
 1353TIP3    H2 4024   6.932   1.810   0.300
 1354TIP3   OH2 4025   5.260   1.084   2.093
 1354TIP3    H1 4026   5.300   1.008   2.051
 1354TIP3    H2 4027   5.300   1.088   2.180
 1355TIP3   OH2 4028   4.746   2.249   2.421
 1355TIP3    H1 4029   4.754   2.341   2.446
 1355TIP3    H2 4030   4.743   2.201   2.503
 1356TIP3   OH2 4031   4.891   6.004   4.410
 1356TIP3    H1 4032   4.818   6.063   4.429
 1356TIP3    H2 4033   4.852   5.934   4.357
 1357TIP3   OH2 4034   0.515   1.219   5.036
 1357TIP3    H1 4035   0.440   1.278   5.042
 1357TIP3    H2 4036   0.494   1.148   5.096
 1358TIP3   OH2 4037   1.786   5.498   1.611
 1358TIP3    H1 4038   1.859   5.538   1.659
 1358TIP3    H2 4039   1.710   5.550   1.635
 1359TIP3   OH2 4040   2.398   2.911   3.249
 1359TIP3    H1 4041   2.430   2.853   3.319
 1359TIP3    H2 4042   2.474   2.921   3.191
 1360TIP3   OH2 4043   3.693   1.732   2.627
 1360TIP3    H1 4044   3.743   1.660   2.665
 1360TIP3    H2 4045   3.759   1.794   2.595
 1361TIP3   OH2 4046   6.602   1.243   3.803
 1361TIP3    H1 4047   6.528   1.304   3.810
 1361TIP3    H2 4048   6.644   1.265   3.721
 1362TIP3   OH2 4049   2.056   3.778   4.695
 1362TIP3    H1 4050   2.010   3.723   4.759
 1362TIP3    H2 4051   2.046   3.731   4.612
 1363TIP3   OH2 4052   0.911   1.115   4.313
 1363TIP3    H1 4053   0.843   1.174   4.280
 1363TIP3    H2 4054   0.968   1.172   4.366
 1364TIP3   OH2 4055   1.420   4.637   5.026
 1364TIP3    H1 4056   1.396   4.555   4.983
 1364TIP3    H2 4057   1.338   4.673   5.059
 1365TIP3   OH2 4058   1.537   0.981   0.711
 1365TIP3    H1 4059   1.570   0.952   0.626
 1365TIP3    H2 4060   1.503   0.901   0.751
 1366TIP3   OH2 4061   2.319   0.140   5.280
 1366TIP3    H1 4062   2.394   0.195   5.306
 1366TIP3    H2 4063   2.249   0.203   5.263
 1367TIP3   OH2 4064   4.405   0.494   2.139
 1367TIP3    H1 4065   4.463   0.481   2.213
 1367TIP3    H2 4066   4.436   0.575   2.098
 1368TIP3   OH2 4067   1.190   5.912   2.138
 1368TIP3    H1 4068   1.240   5.966   2.077
 1368TIP3    H2 4069   1.198   5.823   2.103
 1369TIP3   OH2 4070   2.755   5.126   0.823
 1369TIP3    H1 4071   2.814   5.200   0.806
 1369TIP3    H2 4072   2.715   5.146   0.908
 1370TIP3   OH2 4073   2.301   3.313   3.812
 1370TIP3    H1 4074   2.220   3.340   3.855
 1370TIP3    H2 4075   2.332   3.392   3.767
 1371TIP3   OH2 4076   6.555   1.390   4.809
 1371TIP3    H1 4077   6.488   1.352   4.752
 1371TIP3    H2 4078   6.603   1.451   4.752
 1372TIP3   OH2 4079   4.248   3.376   1.487
 1372TIP3    H1 4080   4.322   3.347   1.433
 1372TIP3    H2 4081   4.286   3.440   1.548
 1373TIP3   OH2 4082   0.910   1.569   4.911
 1373TIP3    H1 4083   0.926   1.658   4.880
 1373TIP3    H2 4084   0.995   1.538   4.941
 1374TIP3   OH2 4085   4.344   0.613   0.396
 1374TIP3    H1 4086   4.358   0.520   0.377
 1374TIP3    H2 4087   4.326   0.617   0.490
 1375TIP3   OH2 4088   5.149   1.840   1.378
 1375TIP3    H1 4089   5.233   1.858   1.420
 1375TIP3    H2 4090   5.092   1.813   1.450
 1376TIP3   OH2 4091   1.298   5.438   4.373
 1376TIP3    H1 4092   1.266   5.353   4.343
 1376TIP3    H2 4093   1.393   5.429   4.377
 1377TIP3   OH2 4094   4.517   0.656   3.101
 1377TIP3    H1 4095   4.531   0.647   3.195
 1377TIP3    H2 4096   4.566   0.584   3.062
 1378TIP3   OH2 4097   4.918   6.623   1.653
 1378TIP3    H1 4098   4.842   6.593   1.703
 1378TIP3    H2 4099   4.911   6.578   1.569
 1379TIP3   OH2 4100   2.937   5.026   0.043
 1379TIP3    H1 4101   2.992   4.996   0.115
 1379TIP3    H2 4102   2.999   5.065  -0.019
 1380TIP3   OH2 4103   6.168   3.796   3.464
 1380TIP3    H1 4104   6.094   3.838   3.422
 1380TIP3    H2 4105   6.180   3.844   3.546
 1381TIP3   OH2 4106   5.187   2.650   2.367
 1381TIP3    H1 4107   5.117   2.607   2.318
 1381TIP3    H2 4108   5.223   2.714   2.306
 1382TIP3   OH2 4109   4.166   0.864   1.632
 1382TIP3    H1 4110   4.212   0.915   1.565
 1382TIP3    H2 4111   4.187   0.908   1.714
 1383TIP3   OH2 4112   5.101   0.424   2.035
 1383TIP3    H1 4113   5.157   0.435   2.112
 1383TIP3    H2 4114   5.105   0.331   2.016
 1384TIP3   OH2 4115   5.356   2.740   0.612
 1384TIP3    H1 4116   5.389   2.829   0.626
 1384TIP3    H2 4117   5.394   2.714   0.528
 1385TIP3   OH2 4118   2.143   5.124   2.000
 1385TIP3    H1 4119   2.113   5.043   1.960
 1385TIP3    H2 4120   2.070   5.185   1.988
 1386TIP3   OH2 4121   3.429   2.428   0.964
 1386TIP3    H1 4122   3.444   2.387   0.879
 1386TIP3    H2 4123   3.513   2.420   1.010
 1387TIP3   OH2 4124   0.376   2.195   2.252
 1387TIP3    H1 4125   0.294   2.237   2.280
 1387TIP3    H2 4126   0.374   2.204   2.156
 1388TIP3   OH2 4127   0.524   1.517   4.652
 1388TIP3    H1 4128   0.501   1.580   4.720
 1388TIP3    H2 4129   0.468   1.539   4.578
 1389TIP3   OH2 4130   2.416   3.253   1.714
 1389TIP3    H1 4131   2.464   3.187   1.665
 1389TIP3    H2 4132   2.475   3.277   1.786
 1390TIP3   OH2 4133   3.363   4.896   3.626
 1390TIP3    H1 4134   3.431   4.934   3.680
 1390TIP3    H2 4135   3.347   4.960   3.557
 1391TIP3   OH2 4136   2.815   2.112   2.733
 1391TIP3    H1 4137   2.743   2.170   2.708
 1391TIP3    H2 4138   2.856   2.086   2.650
 1392TIP3   OH2 4139   6.313   0.877   4.480
 1392TIP3    H1 4140   6.241   0.904   4.424
 1392TIP3    H2 4141   6.275   0.815   4.541
 1393TIP3   OH2 4142   3.015   4.184   4.572
 1393TIP3    H1 4143   3.063   4.151   4.496
 1393TIP3    H2 4144   3.083   4.208   4.634
 1394TIP3   OH2 4145   5.976   3.500   2.692
 1394TIP3    H1 4146   5.908   3.521   2.628
 1394TIP3    H2 4147   5.977   3.404   2.695
 1395TIP3   OH2 4148   5.788   1.695   2.735
 1395TIP3    H1 4149   5.794   1.704   2.640
 1395TIP3    H2 4150   5.845   1.621   2.756
 1396TIP3   OH2 4151   6.944   2.595   5.144
 1396TIP3    H1 4152   6.988   2.511   5.153
 1396TIP3    H2 4153   6.874   2.579   5.080
 1397TIP3   OH2 4154   5.914   1.432   1.320
 1397TIP3    H1 4155   6.006   1.457   1.310
 1397TIP3    H2 4156   5.913   1.373   1.395
 1398TIP3   OH2 4157   5.036   2.638   2.028
 1398TIP3    H1 4158   5.041   2.721   2.076
 1398TIP3    H2 4159   5.085   2.576   2.082
 1399TIP3   OH2 4160   3.005   2.617   1.659
 1399TIP3    H1 4161   2.974   2.633   1.570
 1399TIP3    H2 4162   3.090   2.576   1.648
 1400TIP3   OH2 4163   3.663   5.705   3.201
 1400TIP3    H1 4164   3.577   5.746   3.189
 1400TIP3    H2 4165   3.659   5.669   3.290
 1401TIP3   OH2 4166   3.814   1.239   2.727
 1401TIP3    H1 4167   3.841   1.212   2.815
 1401TIP3    H2 4168   3.719   1.241   2.731
 1402TIP3   OH2 4169   0.500   4.405   3.515
 1402TIP3    H1 4170   0.459   4.323   3.543
 1402TIP3    H2 4171   0.531   4.388   3.426
 1403TIP3   OH2 4172   2.260   3.105   5.414
 1403TIP3    H1 4173   2.227   3.192   5.389
 1403TIP3    H2 4174   2.217   3.086   5.497
 1404TIP3   OH2 4175   4.142   0.003   4.028
 1404TIP3    H1 4176   4.115   0.069   3.963
 1404TIP3    H2 4177   4.060  -0.029   4.065
 1405TIP3   OH2 4178   6.979   5.655   0.492
 1405TIP3    H1 4179   7.061   5.624   0.531
 1405TIP3    H2 4180   6.942   5.714   0.558
 1406TIP3   OH2 4181   0.282   1.007   1.903
 1406TIP3    H1 4182   0.371   1.022   1.871
 1406TIP3    H2 4183   0.226   1.024   1.828
 1407TIP3   OH2 4184   1.480   2.092   1.257
 1407TIP3    H1 4185   1.447   2.085   1.346
 1407TIP3    H2 4186   1.563   2.043   1.258
 1408TIP3   OH2 4187   5.204   1.718   3.964
 1408TIP3    H1 4188   5.300   1.724   3.957
 1408TIP3    H2 4189   5.174   1.716   3.873
 1409TIP3   OH2 4190   2.099   5.949   2.544
 1409TIP3    H1 4191   2.191   5.929   2.524
 1409TIP3    H2 4192   2.067   5.872   2.591
 1410TIP3   OH2 4193   3.885   6.052   1.910
 1410TIP3    H1 4194   3.932   5.970   1.925
 1410TIP3    H2 4195   3.932   6.093   1.836
 1411TIP3   OH2 4196   3.895   6.036   0.665
 1411TIP3    H1 4197   3.832   6.105   0.642
 1411TIP3    H2 4198   3.979   6.069   0.632
 1412TIP3   OH2 4199   6.304   5.909   2.041
 1412TIP3    H1 4200   6.395   5.923   2.067
 1412TIP3    H2 4201   6.259   5.989   2.068
 1413TIP3   OH2 4202   3.423   5.881   5.067
 1413TIP3    H1 4203   3.379   5.903   5.149
 1413TIP3    H2 4204   3.364   5.819   5.023
 1414TIP3   OH2 4205   3.056   2.495   4.627
 1414TIP3    H1 4206   2.977   2.545   4.651
 1414TIP3    H2 4207   3.100   2.550   4.562
 1415TIP3   OH2 4208   0.572   1.710   1.411
 1415TIP3    H1 4209   0.633   1.778   1.440
 1415TIP3    H2 4210   0.624   1.653   1.354
 1416TIP3   OH2 4211   0.771   2.342   3.373
 1416TIP3    H1 4212   0.760   2.359   3.466
 1416TIP3    H2 4213   0.790   2.248   3.368
 1417TIP3   OH2 4214   0.913   4.774   5.026
 1417TIP3    H1 4215   0.925   4.802   5.117
 1417TIP3    H2 4216   0.999   4.741   5.000
 1418TIP3   OH2 4217   2.475   5.810   4.061
 1418TIP3    H1 4218   2.564   5.785   4.037
 1418TIP3    H2 4219   2.424   5.729   4.051
 1419TIP3   OH2 4220   2.115   4.057   4.584
 1419TIP3    H1 4221   2.079   3.995   4.648
 1419TIP3    H2 4222   2.209   4.043   4.588
 1420TIP3   OH2 4223   0.190   0.794   5.721
 1420TIP3    H1 4224   0.223   0.769   5.636
 1420TIP3    H2 4225   0.095   0.799   5.709
 1421TIP3   OH2 4226   3.826   4.690   5.602
 1421TIP3    H1 4227   3.780   4.662   5.523
 1421TIP3    H2 4228   3.762   4.676   5.673
 1422TIP3   OH2 4229   6.061   5.500   4.549
 1422TIP3    H1 4230   6.019   5.421   4.514
 1422TIP3    H2 4231   6.088   5.548   4.471
 1423TIP3   OH2 4232   4.709   2.860   0.381
 1423TIP3    H1 4233   4.683   2.886   0.292
 1423TIP3    H2 4234   4.797   2.896   0.392
 1424TIP3   OH2 4235   1.597   5.708   4.534
 1424TIP3    H1 4236   1.652   5.754   4.596
 1424TIP3    H2 4237   1.623   5.616   4.543
 1425TIP3   OH2 4238   6.991   2.468   5.662
 1425TIP3    H1 4239   6.992   2.375   5.640
 1425TIP3    H2 4240   7.079   2.486   5.695
 1426TIP3   OH2 4241   4.008   0.722   0.651
 1426TIP3    H1 4242   4.094   0.763   0.647
 1426TIP3    H2 4243   3.946   0.794   0.646
 1427TIP3   OH2 4244   3.404   6.778   3.673
 1427TIP3    H1 4245   3.473   6.741   3.618
 1427TIP3    H2 4246   3.323   6.740   3.639
 1428TIP3   OH2 4247   6.215   2.185   3.129
 1428TIP3    H1 4248   6.268   2.112   3.161
 1428TIP3    H2 4249   6.273   2.261   3.135
 1429TIP3   OH2 4250   6.125   4.867   3.173
 1429TIP3    H1 4251   6.096   4.954   3.201
 1429TIP3    H2 4252   6.209   4.854   3.216
 1430TIP3   OH2 4253   1.387   2.414   1.840
 1430TIP3    H1 4254   1.300   2.388   1.868
 1430TIP3    H2 4255   1.378   2.430   1.746
 1431TIP3   OH2 4256   4.832   1.806   2.989
 1431TIP3    H1 4257   4.864   1.872   2.928
 1431TIP3    H2 4258   4.846   1.845   3.075
 1432TIP3   OH2 4259   5.845   2.001   4.586
 1432TIP3    H1 4260   5.775   1.955   4.631
 1432TIP3    H2 4261   5.915   2.008   4.651
 1433TIP3   OH2 4262   2.627   6.387   3.347
 1433TIP3    H1 4263   2.672   6.427   3.272
 1433TIP3    H2 4264   2.585   6.460   3.391
 1434TIP3   OH2 4265   4.282   2.084   4.435
 1434TIP3    H1 4266   4.193   2.118   4.421
 1434TIP3    H2 4267   4.308   2.118   4.520
 1435TIP3   OH2 4268   1.842   5.518   2.781
 1435TIP3    H1 4269   1.808   5.531   2.692
 1435TIP3    H2 4270   1.821   5.599   2.827
 1436TIP3   OH2 4271   2.929   4.969   2.345
 1436TIP3    H1 4272   2.855   5.010   2.301
 1436TIP3    H2 4273   2.889   4.906   2.406
 1437TIP3   OH2 4274   5.545   2.567   1.738
 1437TIP3    H1 4275   5.525   2.475   1.754
 1437TIP3    H2 4276   5.460   2.608   1.725
 1438TIP3   OH2 4277   6.966   1.515   0.416
 1438TIP3    H1 4278   6.956   1.610   0.416
 1438TIP3    H2 4279   6.876   1.481   0.416
 1439TIP3   OH2 4280   0.326   6.752   5.390
 1439TIP3    H1 4281   0.346   6.840   5.360
 1439TIP3    H2 4282   0.384   6.695   5.339
 1440TIP3   OH2 4283   0.549   4.705   1.832
 1440TIP3    H1 4284   0.560   4.761   1.755
 1440TIP3    H2 4285   0.539   4.765   1.905
 1441TIP3   OH2 4286   1.532   5.995   5.085
 1441TIP3    H1 4287   1.461   6.050   5.052
 1441TIP3    H2 4288   1.580   6.050   5.147
 1442TIP3   OH2 4289   3.105   6.243   1.795
 1442TIP3    H1 4290   3.170   6.313   1.803
 1442TIP3    H2 4291   3.033   6.282   1.745
 1443TIP3   OH2 4292   1.143   6.515   2.407
 1443TIP3    H1 4293   1.206   6.584   2.385
 1443TIP3    H2 4294   1.070   6.562   2.448
 1444TIP3   OH2 4295  -0.009   0.093   3.772
 1444TIP3    H1 4296   0.036   0.061   3.694
 1444TIP3    H2 4297   0.029   0.043   3.844
 1445TIP3   OH2 4298   5.870   3.653   5.146
 1445TIP3    H1 4299   5.942   3.612   5.098
 1445TIP3    H2 4300   5.824   3.705   5.080
 1446TIP3   OH2 4301   0.175   6.480   0.921
 1446TIP3    H1 4302   0.197   6.567   0.886
 1446TIP3    H2 4303   0.211   6.481   1.010
 1447TIP3   OH2 4304   2.651   5.901   4.724
 1447TIP3    H1 4305   2.746   5.900   4.736
 1447TIP3    H2 4306   2.635   5.979   4.670
 1448TIP3   OH2 4307   1.804   4.980   5.799
 1448TIP3    H1 4308   1.817   4.900   5.748
 1448TIP3    H2 4309   1.809   4.951   5.890
 1449TIP3   OH2 4310   5.258   2.329   4.648
 1449TIP3    H1 4311   5.164   2.316   4.652
 1449TIP3    H2 4312   5.276   2.393   4.717
 1450TIP3   OH2 4313   4.082   5.795   0.080
 1450TIP3    H1 4314   4.012   5.750   0.126
 1450TIP3    H2 4315   4.151   5.805   0.146
 1451TIP3   OH2 4316   1.801   1.425   4.684
 1451TIP3    H1 4317   1.807   1.334   4.714
 1451TIP3    H2 4318   1.847   1.426   4.600
 1452TIP3   OH2 4319   6.798   2.093   3.506
 1452TIP3    H1 4320   6.843   2.178   3.499
 1452TIP3    H2 4321   6.846   2.047   3.575
 1453TIP3   OH2 4322   2.246   4.909   2.755
 1453TIP3    H1 4323   2.245   4.948   2.667
 1453TIP3    H2 4324   2.333   4.872   2.764
 1454TIP3   OH2 4325   6.068   3.517   4.994
 1454TIP3    H1 4326   6.142   3.457   4.991
 1454TIP3    H2 4327   5.993   3.461   5.014
 1455TIP3   OH2 4328   6.812   0.724   1.828
 1455TIP3    H1 4329   6.843   0.814   1.838
 1455TIP3    H2 4330   6.786   0.717   1.736
 1456TIP3   OH2 4331   3.153   6.139   4.501
 1456TIP3    H1 4332   3.170   6.047   4.486
 1456TIP3    H2 4333   3.086   6.162   4.436
 1457TIP3   OH2 4334   2.500   4.415   0.559
 1457TIP3    H1 4335   2.490   4.322   0.579
 1457TIP3    H2 4336   2.424   4.436   0.506
 1458TIP3   OH2 4337   1.336   2.648   5.514
 1458TIP3    H1 4338   1.346   2.696   5.432
 1458TIP3    H2 4339   1.362   2.710   5.582
 1459TIP3   OH2 4340   4.402   6.091   4.326
 1459TIP3    H1 4341   4.493   6.119   4.332
 1459TIP3    H2 4342   4.389   6.072   4.232
 1460TIP3   OH2 4343   5.686   3.530   2.512
 1460TIP3    H1 4344   5.692   3.452   2.567
 1460TIP3    H2 4345   5.596   3.561   2.522
 1461TIP3   OH2 4346   6.446   3.334   2.431
 1461TIP3    H1 4347   6.492   3.251   2.447
 1461TIP3    H2 4348   6.357   3.318   2.462
 1462TIP3   OH2 4349   1.211   5.659   5.401
 1462TIP3    H1 4350   1.305   5.644   5.393
 1462TIP3    H2 4351   1.172   5.609   5.329
 1463TIP3   OH2 4352   6.649   2.402   3.728
 1463TIP3    H1 4353   6.629   2.495   3.725
 1463TIP3    H2 4354   6.735   2.396   3.770
 1464TIP3   OH2 4355   6.105   3.554   0.842
 1464TIP3    H1 4356   6.009   3.553   0.839
 1464TIP3    H2 4357   6.128   3.646   0.830
 1465TIP3   OH2 4358   1.357   0.742   2.907
 1465TIP3    H1 4359   1.386   0.833   2.912
 1465TIP3    H2 4360   1.425   0.692   2.952
 1466TIP3   OH2 4361   3.459   1.842   2.582
 1466TIP3    H1 4362   3.481   1.882   2.497
 1466TIP3    H2 4363   3.542   1.806   2.613
 1467TIP3   OH2 4364   5.807   6.631   0.710
 1467TIP3    H1 4365   5.873   6.691   0.673
 1467TIP3    H2 4366   5.826   6.547   0.669
 1468TIP3   OH2 4367   0.464   4.128   0.754
 1468TIP3    H1 4368   0.487   4.068   0.684
 1468TIP3    H2 4369   0.400   4.187   0.715
 1469TIP3   OH2 4370   5.329   4.026   4.152
 1469TIP3    H1 4371   5.301   4.104   4.102
 1469TIP3    H2 4372   5.278   4.030   4.233
 1470TIP3   OH2 4373   0.153   6.103   2.033
 1470TIP3    H1 4374   0.193   6.148   1.958
 1470TIP3    H2 4375   0.110   6.027   1.994
 1471TIP3   OH2 4376   1.860   3.423   3.190
 1471TIP3    H1 4377   1.871   3.486   3.118
 1471TIP3    H2 4378   1.891   3.340   3.153
 1472TIP3   OH2 4379   7.222   6.685   5.542
 1472TIP3    H1 4380   7.167   6.608   5.553
 1472TIP3    H2 4381   7.270   6.670   5.461
 1473TIP3   OH2 4382   2.082   0.715   4.910
 1473TIP3    H1 4383   2.143   0.760   4.852
 1473TIP3    H2 4384   2.003   0.769   4.908
 1474TIP3   OH2 4385   1.165   6.734   1.175
 1474TIP3    H1 4386   1.101   6.678   1.131
 1474TIP3    H2 4387   1.125   6.822   1.173
 1475TIP3   OH2 4388   7.126   1.472   4.930
 1475TIP3    H1 4389   7.072   1.430   4.863
 1475TIP3    H2 4390   7.177   1.401   4.968
 1476TIP3   OH2 4391   7.006   1.612   1.759
 1476TIP3    H1 4392   7.026   1.706   1.762
 1476TIP3    H2 4393   7.013   1.589   1.666
 1477TIP3   OH2 4394   0.371   4.065   2.789
 1477TIP3    H1 4395   0.413   4.064   2.874
 1477TIP3    H2 4396   0.434   4.108   2.731
 1478TIP3   OH2 4397   6.192   5.352   2.480
 1478TIP3    H1 4398   6.163   5.443   2.487
 1478TIP3    H2 4399   6.253   5.340   2.553
 1479TIP3   OH2 4400   0.542   1.168   3.593
 1479TIP3    H1 4401   0.623   1.133   3.554
 1479TIP3    H2 4402   0.492   1.200   3.518
 1480TIP3   OH2 4403   5.745   0.872   2.668
 1480TIP3    H1 4404   5.689   0.913   2.602
 1480TIP3    H2 4405   5.811   0.825   2.619
 1481TIP3   OH2 4406   0.238   3.907   2.563
 1481TIP3    H1 4407   0.271   3.968   2.497
 1481TIP3    H2 4408   0.315   3.885   2.616
 1482TIP3   OH2 4409   0.197   6.035   0.862
 1482TIP3    H1 4410   0.237   6.080   0.937
 1482TIP3    H2 4411   0.205   5.941   0.884
 1483TIP3   OH2 4412   4.579   0.510   3.890
 1483TIP3    H1 4413   4.560   0.418   3.875
 1483TIP3    H2 4414   4.609   0.514   3.981
 1484TIP3   OH2 4415   2.290   5.783   2.407
 1484TIP3    H1 4416   2.200   5.755   2.390
 1484TIP3    H2 4417   2.326   5.803   2.320
 1485TIP3   OH2 4418   1.250   2.027   3.850
 1485TIP3    H1 4419   1.180   2.091   3.862
 1485TIP3    H2 4420   1.300   2.030   3.932
 1486TIP3   OH2 4421   3.661   5.413   2.617
 1486TIP3    H1 4422   3.585   5.356   2.624
 1486TIP3    H2 4423   3.651   5.476   2.689
 1487TIP3   OH2 4424   3.741   2.589   4.710
 1487TIP3    H1 4425   3.673   2.564   4.648
 1487TIP3    H2 4426   3.821   2.594   4.658
 1488TIP3   OH2 4427   6.304   0.600   0.932
 1488TIP3    H1 4428   6.321   0.615   0.839
 1488TIP3    H2 4429   6.390   0.586   0.971
 1489TIP3   OH2 4430   4.631   3.281   1.250
 1489TIP3    H1 4431   4.700   3.263   1.314
 1489TIP3    H2 4432   4.554   3.236   1.286
 1490TIP3   OH2 4433   6.575   2.203   3.224
 1490TIP3    H1 4434   6.574   2.266   3.296
 1490TIP3    H2 4435   6.621   2.247   3.154
 1491TIP3   OH2 4436   5.942   3.924   1.241
 1491TIP3    H1 4437   6.013   3.946   1.181
 1491TIP3    H2 4438   5.873   3.987   1.221
 1492TIP3   OH2 4439   1.295   2.820   4.712
 1492TIP3    H1 4440   1.240   2.750   4.678
 1492TIP3    H2 4441   1.385   2.788   4.698
 1493TIP3   OH2 4442   2.015   1.455   5.097
 1493TIP3    H1 4443   1.991   1.533   5.145
 1493TIP3    H2 4444   2.010   1.480   5.005
 1494TIP3   OH2 4445   6.286   4.686   1.515
 1494TIP3    H1 4446   6.302   4.721   1.603
 1494TIP3    H2 4447   6.242   4.602   1.531
 1495TIP3   OH2 4448   4.206   2.919   1.442
 1495TIP3    H1 4449   4.235   2.991   1.498
 1495TIP3    H2 4450   4.146   2.960   1.380
 1496TIP3   OH2 4451   5.989   5.817   3.585
 1496TIP3    H1 4452   6.036   5.824   3.668
 1496TIP3    H2 4453   6.020   5.736   3.546
 1497TIP3   OH2 4454   5.390   3.849   5.686
 1497TIP3    H1 4455   5.297   3.863   5.667
 1497TIP3    H2 4456   5.435   3.870   5.604
 1498TIP3   OH2 4457   1.886   3.759   5.778
 1498TIP3    H1 4458   1.957   3.792   5.724
 1498TIP3    H2 4459   1.928   3.702   5.842
 1499TIP3   OH2 4460   6.316   6.660   2.555
 1499TIP3    H1 4461   6.256   6.656   2.481
 1499TIP3    H2 4462   6.265   6.626   2.629
 1500TIP3   OH2 4463   7.012   3.812   2.086
 1500TIP3    H1 4464   6.941   3.805   2.149
 1500TIP3    H2 4465   6.975   3.779   2.004
 1501TIP3   OH2 4466   3.368   1.389   2.206
 1501TIP3    H1 4467   3.309   1.352   2.141
 1501TIP3    H2 4468   3.326   1.470   2.234
 1502TIP3   OH2 4469   3.574   1.928   2.001
 1502TIP3    H1 4470   3.543   2.018   2.000
 1502TIP3    H2 4471   3.648   1.927   1.941
 1503TIP3   OH2 4472   4.867   3.640   1.828
 1503TIP3    H1 4473   4.794   3.692   1.794
 1503TIP3    H2 4474   4.945   3.690   1.805
 1504TIP3   OH2 4475   6.823   5.128   3.752
 1504TIP3    H1 4476   6.827   5.097   3.662
 1504TIP3    H2 4477   6.817   5.048   3.805
 1505TIP3   OH2 4478   4.724   6.404   3.538
 1505TIP3    H1 4479   4.682   6.370   3.617
 1505TIP3    H2 4480   4.806   6.355   3.531
 1506TIP3   OH2 4481   1.606   4.023   1.829
 1506TIP3    H1 4482   1.521   4.027   1.872
 1506TIP3    H2 4483   1.670   4.041   1.898
 1507TIP3   OH2 4484   0.460   3.798   0.834
 1507TIP3    H1 4485   0.377   3.831   0.869
 1507TIP3    H2 4486   0.463   3.707   0.862
 1508TIP3   OH2 4487   2.344   5.062   1.196
 1508TIP3    H1 4488   2.401   5.064   1.119
 1508TIP3    H2 4489   2.358   4.976   1.234
 1509TIP3   OH2 4490   3.622   0.055   3.108
 1509TIP3    H1 4491   3.593   0.142   3.135
 1509TIP3    H2 4492   3.543   0.011   3.078
 1510TIP3   OH2 4493   3.624   2.337   3.559
 1510TIP3    H1 4494   3.530   2.327   3.572
 1510TIP3    H2 4495   3.649   2.264   3.504
 1511TIP3   OH2 4496   0.812   4.193   3.966
 1511TIP3    H1 4497   0.812   4.161   3.876
 1511TIP3    H2 4498   0.845   4.119   4.017
 1512TIP3   OH2 4499   6.033   5.604   5.788
 1512TIP3    H1 4500   5.976   5.671   5.751
 1512TIP3    H2 4501   5.973   5.543   5.830
 1513TIP3   OH2 4502   1.783   4.891   4.580
 1513TIP3    H1 4503   1.854   4.930   4.630
 1513TIP3    H2 4504   1.811   4.800   4.566
 1514TIP3   OH2 4505   1.393   0.185   4.707
 1514TIP3    H1 4506   1.446   0.105   4.715
 1514TIP3    H2 4507   1.307   0.159   4.739
 1515TIP3   OH2 4508   3.219   6.395   4.286
 1515TIP3    H1 4509   3.136   6.348   4.282
 1515TIP3    H2 4510   3.215   6.459   4.215
 1516TIP3   OH2 4511   1.121   2.060   1.894
 1516TIP3    H1 4512   1.191   2.050   1.958
 1516TIP3    H2 4513   1.163   2.099   1.818
 1517TIP3   OH2 4514   4.683   3.413   3.852
 1517TIP3    H1 4515   4.618   3.371   3.909
 1517TIP3    H2 4516   4.654   3.504   3.845
 1518TIP3   OH2 4517   2.282   6.530   3.577
 1518TIP3    H1 4518   2.302   6.608   3.629
 1518TIP3    H2 4519   2.297   6.556   3.486
 1519TIP3   OH2 4520   3.405   4.854   4.669
 1519TIP3    H1 4521   3.396   4.936   4.620
 1519TIP3    H2 4522   3.364   4.872   4.753
 1520TIP3   OH2 4523   4.675   0.239   1.682
 1520TIP3    H1 4524   4.582   0.233   1.660
 1520TIP3    H2 4525   4.694   0.333   1.678
 1521TIP3   OH2 4526   6.777   0.372   5.063
 1521TIP3    H1 4527   6.825   0.426   4.999
 1521TIP3    H2 4528   6.698   0.345   5.017
 1522TIP3   OH2 4529   4.781   2.102   4.182
 1522TIP3    H1 4530   4.775   2.015   4.143
 1522TIP3    H2 4531   4.711   2.152   4.139
 1523TIP3   OH2 4532   1.182   2.609   3.598
 1523TIP3    H1 4533   1.192   2.700   3.569
 1523TIP3    H2 4534   1.271   2.573   3.591
 1524TIP3   OH2 4535   1.836   2.683   5.313
 1524TIP3    H1 4536   1.899   2.707   5.380
 1524TIP3    H2 4537   1.858   2.740   5.238
 1525TIP3   OH2 4538   1.502   0.227   1.896
 1525TIP3    H1 4539   1.585   0.257   1.932
 1525TIP3    H2 4540   1.521   0.140   1.860
 1526TIP3   OH2 4541   2.228   3.949   1.440
 1526TIP3    H1 4542   2.249   3.874   1.495
 1526TIP3    H2 4543   2.312   3.989   1.420
 1527TIP3   OH2 4544   0.444   5.659   4.207
 1527TIP3    H1 4545   0.539   5.654   4.192
 1527TIP3    H2 4546   0.432   5.619   4.293
 1528TIP3   OH2 4547   5.116   5.495   4.745
 1528TIP3    H1 4548   5.146   5.525   4.659
 1528TIP3    H2 4549   5.032   5.540   4.758
 1529TIP3   OH2 4550   0.823   4.097   0.276
 1529TIP3    H1 4551   0.908   4.124   0.243
 1529TIP3    H2 4552   0.842   4.041   0.351
 1530TIP3   OH2 4553   3.093   4.956   1.882
 1530TIP3    H1 4554   3.071   4.897   1.954
 1530TIP3    H2 4555   3.125   4.898   1.813
 1531TIP3   OH2 4556   0.167   2.902   2.336
 1531TIP3    H1 4557   0.079   2.932   2.358
 1531TIP3    H2 4558   0.221   2.981   2.340
 1532TIP3   OH2 4559   1.253   5.106   3.925
 1532TIP3    H1 4560   1.250   5.063   3.840
 1532TIP3    H2 4561   1.198   5.183   3.916
 1533TIP3   OH2 4562   2.073   1.730   1.327
 1533TIP3    H1 4563   2.148   1.694   1.280
 1533TIP3    H2 4564   2.111   1.772   1.405
 1534TIP3   OH2 4565   2.665   0.181   4.771
 1534TIP3    H1 4566   2.732   0.249   4.783
 1534TIP3    H2 4567   2.582   0.226   4.787
 1535TIP3   OH2 4568   2.966   4.922   4.927
 1535TIP3    H1 4569   2.873   4.940   4.936
 1535TIP3    H2 4570   2.970   4.838   4.879
 1536TIP3   OH2 4571   5.994   2.604   2.504
 1536TIP3    H1 4572   5.907   2.565   2.497
 1536TIP3    H2 4573   6.024   2.612   2.414
 1537TIP3   OH2 4574   6.489   1.491   5.038
 1537TIP3    H1 4575   6.433   1.420   5.072
 1537TIP3    H2 4576   6.516   1.460   4.951
 1538TIP3   OH2 4577   3.476   6.571   1.985
 1538TIP3    H1 4578   3.543   6.520   2.030
 1538TIP3    H2 4579   3.395   6.551   2.033
 1539TIP3   OH2 4580   2.903   2.607   3.741
 1539TIP3    H1 4581   2.822   2.636   3.783
 1539TIP3    H2 4582   2.919   2.672   3.672
 1540TIP3   OH2 4583   6.944   3.005   2.757
 1540TIP3    H1 4584   6.896   3.085   2.777
 1540TIP3    H2 4585   6.879   2.948   2.716
 1541TIP3   OH2 4586   3.716   2.890   2.605
 1541TIP3    H1 4587   3.768   2.970   2.609
 1541TIP3    H2 4588   3.747   2.845   2.527
 1542TIP3   OH2 4589   4.274   5.622   2.634
 1542TIP3    H1 4590   4.227   5.554   2.586
 1542TIP3    H2 4591   4.204   5.680   2.666
 1543TIP3   OH2 4592   6.525   2.569   5.781
 1543TIP3    H1 4593   6.459   2.586   5.848
 1543TIP3    H2 4594   6.523   2.646   5.724
 1544TIP3   OH2 4595   4.164   5.380   5.590
 1544TIP3    H1 4596   4.080   5.334   5.581
 1544TIP3    H2 4597   4.140   5.466   5.624
 1545TIP3   OH2 4598   0.214   4.714   3.587
 1545TIP3    H1 4599   0.288   4.658   3.612
 1545TIP3    H2 4600   0.252   4.802   3.580
 1546TIP3   OH2 4601   4.690   2.399   4.906
 1546TIP3    H1 4602   4.702   2.410   4.811
 1546TIP3    H2 4603   4.714   2.307   4.921
 1547TIP3   OH2 4604   0.813   6.012   0.355
 1547TIP3    H1 4605   0.866   5.995   0.278
 1547TIP3    H2 4606   0.844   6.096   0.389
 1548TIP3   OH2 4607   0.266   3.063   5.257
 1548TIP3    H1 4608   0.341   3.026   5.303
 1548TIP3    H2 4609   0.203   3.082   5.327
 1549TIP3   OH2 4610   1.863   5.416   1.114
 1549TIP3    H1 4611   1.940   5.360   1.109
 1549TIP3    H2 4612   1.791   5.360   1.084
 1550TIP3   OH2 4613   6.665   0.900   2.566
 1550TIP3    H1 4614   6.678   0.825   2.507
 1550TIP3    H2 4615   6.750   0.944   2.567
 1551TIP3   OH2 4616   3.765   6.404   2.511
 1551TIP3    H1 4617   3.799   6.492   2.495
 1551TIP3    H2 4618   3.770   6.360   2.426
 1552TIP3   OH2 4619   5.375   3.980   2.873
 1552TIP3    H1 4620   5.394   3.944   2.959
 1552TIP3    H2 4621   5.279   3.980   2.868
 1553TIP3   OH2 4622   1.226   4.921   3.226
 1553TIP3    H1 4623   1.188   4.852   3.171
 1553TIP3    H2 4624   1.276   4.975   3.165
 1554TIP3   OH2 4625   1.841   5.908   2.244
 1554TIP3    H1 4626   1.748   5.928   2.255
 1554TIP3    H2 4627   1.887   5.985   2.279
 1555TIP3   OH2 4628   1.037   4.097   1.053
 1555TIP3    H1 4629   1.092   4.033   1.008
 1555TIP3    H2 4630   0.962   4.110   0.995
 1556TIP3   OH2 4631   6.430   6.543   0.128
 1556TIP3    H1 4632   6.441   6.456   0.088
 1556TIP3    H2 4633   6.373   6.590   0.066
 1557TIP3   OH2 4634   4.148   0.766   0.269
 1557TIP3    H1 4635   4.230   0.718   0.278
 1557TIP3    H2 4636   4.152   0.805   0.182
 1558TIP3   OH2 4637   3.445   4.894   1.013
 1558TIP3    H1 4638   3.516   4.898   1.078
 1558TIP3    H2 4639   3.431   4.986   0.990
 1559TIP3   OH2 4640   5.572   0.530   2.885
 1559TIP3    H1 4641   5.494   0.511   2.833
 1559TIP3    H2 4642   5.644   0.526   2.822
 1560TIP3   OH2 4643   5.990   6.184   2.391
 1560TIP3    H1 4644   5.934   6.199   2.467
 1560TIP3    H2 4645   6.073   6.225   2.414
 1561TIP3   OH2 4646   4.148   1.829   5.234
 1561TIP3    H1 4647   4.218   1.893   5.241
 1561TIP3    H2 4648   4.076   1.876   5.191
 1562TIP3   OH2 4649   1.956   2.809   2.377
 1562TIP3    H1 4650   1.898   2.876   2.411
 1562TIP3    H2 4651   1.917   2.784   2.293
 1563TIP3   OH2 4652   4.310   4.565   2.746
 1563TIP3    H1 4653   4.240   4.502   2.764
 1563TIP3    H2 4654   4.339   4.594   2.832
 1564TIP3   OH2 4655   3.445   6.073   4.651
 1564TIP3    H1 4656   3.370   6.132   4.642
 1564TIP3    H2 4657   3.485   6.098   4.734
 1565TIP3   OH2 4658   2.869   4.926   4.611
 1565TIP3    H1 4659   2.916   4.942   4.529
 1565TIP3    H2 4660   2.858   5.012   4.650
 1566TIP3   OH2 4661   5.838   5.201   2.558
 1566TIP3    H1 4662   5.903   5.253   2.605
 1566TIP3    H2 4663   5.796   5.147   2.625
 1567TIP3   OH2 4664   2.658   3.029   0.560
 1567TIP3    H1 4665   2.748   3.024   0.591
 1567TIP3    H2 4666   2.628   2.938   0.559
 1568TIP3   OH2 4667   4.394   4.792   2.197
 1568TIP3    H1 4668   4.301   4.802   2.219
 1568TIP3    H2 4669   4.396   4.797   2.102
 1569TIP3   OH2 4670   3.413   1.702   4.262
 1569TIP3    H1 4671   3.389   1.785   4.220
 1569TIP3    H2 4672   3.379   1.709   4.351
 1570TIP3   OH2 4673   3.114   2.924   0.606
 1570TIP3    H1 4674   3.118   3.019   0.614
 1570TIP3    H2 4675   3.187   2.901   0.549
 1571TIP3   OH2 4676   5.779   5.733   2.145
 1571TIP3    H1 4677   5.805   5.799   2.210
 1571TIP3    H2 4678   5.817   5.763   2.063
 1572TIP3   OH2 4679   3.952   3.788   0.940
 1572TIP3    H1 4680   3.973   3.846   0.867
 1572TIP3    H2 4681   3.995   3.827   1.016
 1573TIP3   OH2 4682   3.974   0.166   4.808
 1573TIP3    H1 4683   4.036   0.189   4.877
 1573TIP3    H2 4684   3.960   0.072   4.818
 1574TIP3   OH2 4685   6.266   3.253   1.609
 1574TIP3    H1 4686   6.291   3.250   1.517
 1574TIP3    H2 4687   6.179   3.294   1.609
 1575TIP3   OH2 4688   1.881   2.222   0.076
 1575TIP3    H1 4689   1.898   2.256  -0.012
 1575TIP3    H2 4690   1.804   2.270   0.106
 1576TIP3   OH2 4691   4.118   0.309   3.604
 1576TIP3    H1 4692   4.146   0.257   3.528
 1576TIP3    H2 4693   4.198   0.352   3.634
 1577TIP3   OH2 4694   4.605   5.325   3.611
 1577TIP3    H1 4695   4.572   5.330   3.521
 1577TIP3    H2 4696   4.552   5.257   3.652
 1578TIP3   OH2 4697   6.962   4.840   0.229
 1578TIP3    H1 4698   6.878   4.886   0.230
 1578TIP3    H2 4699   6.954   4.776   0.159
 1579TIP3   OH2 4700   6.163   4.898   0.193
 1579TIP3    H1 4701   6.233   4.910   0.128
 1579TIP3    H2 4702   6.142   4.805   0.188
 1580TIP3   OH2 4703   1.194   4.711   2.390
 1580TIP3    H1 4704   1.138   4.720   2.467
 1580TIP3    H2 4705   1.283   4.723   2.423
 1581TIP3   OH2 4706   0.497   3.439   3.790
 1581TIP3    H1 4707   0.544   3.356   3.795
 1581TIP3    H2 4708   0.508   3.478   3.877
 1582TIP3   OH2 4709   0.578   0.927   0.355
 1582TIP3    H1 4710   0.622   0.994   0.407
 1582TIP3    H2 4711   0.530   0.874   0.419
 1583TIP3   OH2 4712   2.326   5.283   1.354
 1583TIP3    H1 4713   2.353   5.200   1.314
 1583TIP3    H2 4714   2.407   5.323   1.384
 1584TIP3   OH2 4715   5.022   5.813   4.108
 1584TIP3    H1 4716   5.041   5.900   4.073
 1584TIP3    H2 4717   5.077   5.754   4.057
 1585TIP3   OH2 4718   1.019   4.725   2.159
 1585TIP3    H1 4719   1.025   4.630   2.167
 1585TIP3    H2 4720   1.090   4.759   2.212
 1586TIP3   OH2 4721   5.056   6.572   1.920
 1586TIP3    H1 4722   4.960   6.581   1.919
 1586TIP3    H2 4723   5.086   6.631   1.851
 1587TIP3   OH2 4724   1.126   2.226   3.577
 1587TIP3    H1 4725   1.089   2.140   3.599
 1587TIP3    H2 4726   1.082   2.287   3.635
 1588TIP3   OH2 4727   1.878   1.952   0.314
 1588TIP3    H1 4728   1.862   2.046   0.315
 1588TIP3    H2 4729   1.966   1.941   0.278
 1589TIP3   OH2 4730   3.364   3.697   5.127
 1589TIP3    H1 4731   3.278   3.737   5.138
 1589TIP3    H2 4732   3.346   3.611   5.089
 1590TIP3   OH2 4733   0.682   1.307   3.198
 1590TIP3    H1 4734   0.615   1.299   3.130
 1590TIP3    H2 4735   0.693   1.218   3.231
 1591TIP3   OH2 4736   3.758   0.902   2.462
 1591TIP3    H1 4737   3.849   0.929   2.451
 1591TIP3    H2 4738   3.755   0.861   2.548
 1592TIP3   OH2 4739   6.583   3.587   0.967
 1592TIP3    H1 4740   6.518   3.525   0.935
 1592TIP3    H2 4741   6.567   3.667   0.917
 1593TIP3   OH2 4742   4.808   2.483   2.160
 1593TIP3    H1 4743   4.802   2.576   2.181
 1593TIP3    H2 4744   4.891   2.474   2.114
 1594TIP3   OH2 4745   0.469   1.646   4.887
 1594TIP3    H1 4746   0.510   1.622   4.970
 1594TIP3    H2 4747   0.380   1.672   4.911
 1595TIP3   OH2 4748   3.221   1.832   2.740
 1595TIP3    H1 4749   3.294   1.869   2.691
 1595TIP3    H2 4750   3.248   1.743   2.760
 1596TIP3   OH2 4751   1.630   3.941   3.890
 1596TIP3    H1 4752   1.621   3.846   3.877
 1596TIP3    H2 4753   1.556   3.964   3.947
 1597TIP3   OH2 4754   4.799   1.276   5.673
 1597TIP3    H1 4755   4.791   1.299   5.581
 1597TIP3    H2 4756   4.893   1.273   5.689
 1598TIP3   OH2 4757   4.617   0.569   1.234
 1598TIP3    H1 4758   4.615   0.522   1.317
 1598TIP3    H2 4759   4.532   0.550   1.193
 1599TIP3   OH2 4760   0.851   4.196   2.115
 1599TIP3    H1 4761   0.808   4.113   2.134
 1599TIP3    H2 4762   0.944   4.178   2.125
 1600TIP3   OH2 4763   3.559   0.886   5.354
 1600TIP3    H1 4764   3.510   0.848   5.281
 1600TIP3    H2 4765   3.630   0.823   5.370
 1601TIP3   OH2 4766   3.687   1.583   4.846
 1601TIP3    H1 4767   3.603   1.627   4.832
 1601TIP3    H2 4768   3.701   1.586   4.940
 1602TIP3   OH2 4769   5.863   1.039   1.989
 1602TIP3    H1 4770   5.813   1.119   1.974
 1602TIP3    H2 4771   5.825   1.002   2.069
 1603TIP3   OH2 4772   2.894   5.732   1.928
 1603TIP3    H1 4773   2.828   5.772   1.872
 1603TIP3    H2 4774   2.945   5.806   1.962
 1604TIP3   OH2 4775   2.808   0.417   0.393
 1604TIP3    H1 4776   2.792   0.504   0.356
 1604TIP3    H2 4777   2.848   0.368   0.321
 1605TIP3   OH2 4778   3.029   4.750   4.209
 1605TIP3    H1 4779   3.011   4.693   4.284
 1605TIP3    H2 4780   3.035   4.690   4.134
 1606TIP3   OH2 4781   0.825   2.851   0.499
 1606TIP3    H1 4782   0.913   2.864   0.462
 1606TIP3    H2 4783   0.837   2.785   0.567
 1607TIP3   OH2 4784   5.116   1.060   5.666
 1607TIP3    H1 4785   5.196   1.008   5.678
 1607TIP3    H2 4786   5.142   1.149   5.687
 1608TIP3   OH2 4787   3.411   0.147   0.227
 1608TIP3    H1 4788   3.437   0.218   0.286
 1608TIP3    H2 4789   3.347   0.187   0.168
 1609TIP3   OH2 4790   4.597   3.059   0.975
 1609TIP3    H1 4791   4.582   3.022   0.888
 1609TIP3    H2 4792   4.560   3.147   0.971
 1610TIP3   OH2 4793  -0.012   5.326   5.247
 1610TIP3    H1 4794   0.080   5.333   5.272
 1610TIP3    H2 4795  -0.060   5.366   5.320
 1611TIP3   OH2 4796   4.801   1.080   4.685
 1611TIP3    H1 4797   4.828   1.126   4.606
 1611TIP3    H2 4798   4.719   1.036   4.662
 1612TIP3   OH2 4799   1.231   4.949   0.750
 1612TIP3    H1 4800   1.195   5.012   0.687
 1612TIP3    H2 4801   1.323   4.941   0.726
 1613TIP3   OH2 4802   0.614   3.074   2.401
 1613TIP3    H1 4803   0.676   3.024   2.347
 1613TIP3    H2 4804   0.667   3.112   2.470
 1614TIP3   OH2 4805   2.173   4.876   3.178
 1614TIP3    H1 4806   2.220   4.805   3.134
 1614TIP3    H2 4807   2.213   4.880   3.265
 1615TIP3   OH2 4808   4.262   1.849   1.872
 1615TIP3    H1 4809   4.274   1.820   1.782
 1615TIP3    H2 4810   4.248   1.769   1.922
 1616TIP3   OH2 4811   4.995   6.372   2.146
 1616TIP3    H1 4812   5.040   6.431   2.087
 1616TIP3    H2 4813   4.917   6.420   2.174
 1617TIP3   OH2 4814   2.009   0.335   3.933
 1617TIP3    H1 4815   2.066   0.410   3.951
 1617TIP3    H2 4816   2.069   0.261   3.927
 1618TIP3   OH2 4817   2.106   1.850   3.116
 1618TIP3    H1 4818   2.102   1.933   3.069
 1618TIP3    H2 4819   2.172   1.799   3.068
 1619TIP3   OH2 4820   6.625   2.961   2.912
 1619TIP3    H1 4821   6.635   3.005   2.828
 1619TIP3    H2 4822   6.541   2.993   2.945
 1620TIP3   OH2 4823   2.022   3.906   0.109
 1620TIP3    H1 4824   2.003   3.998   0.124
 1620TIP3    H2 4825   2.024   3.867   0.197
 1621TIP3   OH2 4826   0.147   5.278   2.265
 1621TIP3    H1 4827   0.166   5.194   2.307
 1621TIP3    H2 4828   0.124   5.336   2.338
 1622TIP3   OH2 4829   6.087   5.094   2.373
 1622TIP3    H1 4830   6.090   5.176   2.422
 1622TIP3    H2 4831   6.017   5.044   2.416
 1623TIP3   OH2 4832   4.676   1.986   2.323
 1623TIP3    H1 4833   4.632   1.942   2.396
 1623TIP3    H2 4834   4.725   1.917   2.279
 1624TIP3   OH2 4835   5.934   0.441   2.398
 1624TIP3    H1 4836   5.958   0.354   2.430
 1624TIP3    H2 4837   5.863   0.424   2.336
 1625TIP3   OH2 4838   0.617   4.201   2.779
 1625TIP3    H1 4839   0.619   4.293   2.807
 1625TIP3    H2 4840   0.681   4.158   2.835
 1626TIP3   OH2 4841   3.994   2.617   3.337
 1626TIP3    H1 4842   3.970   2.570   3.417
 1626TIP3    H2 4843   4.089   2.608   3.331
 1627TIP3   OH2 4844   1.429   0.803   1.893
 1627TIP3    H1 4845   1.455   0.894   1.875
 1627TIP3    H2 4846   1.507   0.762   1.929
 1628TIP3   OH2 4847   4.650   2.581   3.127
 1628TIP3    H1 4848   4.587   2.562   3.057
 1628TIP3    H2 4849   4.718   2.633   3.084
 1629TIP3   OH2 4850   0.407   5.860   3.661
 1629TIP3    H1 4851   0.501   5.866   3.678
 1629TIP3    H2 4852   0.397   5.776   3.616
 1630TIP3   OH2 4853   1.146   6.290   0.446
 1630TIP3    H1 4854   1.088   6.312   0.372
 1630TIP3    H2 4855   1.099   6.320   0.523
 1631TIP3   OH2 4856   5.814   5.190   1.292
 1631TIP3    H1 4857   5.724   5.165   1.273
 1631TIP3    H2 4858   5.850   5.116   1.341
 1632TIP3   OH2 4859   6.799   6.101   0.615
 1632TIP3    H1 4860   6.892   6.079   0.620
 1632TIP3    H2 4861   6.757   6.021   0.583
 1633TIP3   OH2 4862   0.059   0.553   0.605
 1633TIP3    H1 4863   0.076   0.498   0.528
 1633TIP3    H2 4864   0.030   0.491   0.672
 1634TIP3   OH2 4865   7.020   3.899   3.604
 1634TIP3    H1 4866   7.045   3.808   3.620
 1634TIP3    H2 4867   7.078   3.950   3.660
 1635TIP3   OH2 4868   6.322   5.593   2.676
 1635TIP3    H1 4869   6.315   5.501   2.701
 1635TIP3    H2 4870   6.405   5.598   2.628
 1636TIP3   OH2 4871   5.707   6.039   3.025
 1636TIP3    H1 4872   5.757   5.958   3.035
 1636TIP3    H2 4873   5.645   6.021   2.954
 1637TIP3   OH2 4874   1.510   2.989   3.774
 1637TIP3    H1 4875   1.509   3.085   3.765
 1637TIP3    H2 4876   1.469   2.973   3.859
 1638TIP3   OH2 4877   6.660   6.711   0.176
 1638TIP3    H1 4878   6.607   6.641   0.138
 1638TIP3    H2 4879   6.709   6.747   0.102
 1639TIP3   OH2 4880   1.787   2.603   4.704
 1639TIP3    H1 4881   1.737   2.581   4.625
 1639TIP3    H2 4882   1.805   2.696   4.695
 1640TIP3   OH2 4883   2.562   6.094   2.100
 1640TIP3    H1 4884   2.507   6.030   2.145
 1640TIP3    H2 4885   2.651   6.063   2.116
 1641TIP3   OH2 4886   6.028   0.792   4.659
 1641TIP3    H1 4887   6.105   0.737   4.645
 1641TIP3    H2 4888   6.003   0.776   4.750
 1642TIP3   OH2 4889   1.126   2.097   5.478
 1642TIP3    H1 4890   1.200   2.157   5.475
 1642TIP3    H2 4891   1.066   2.137   5.541
 1643TIP3   OH2 4892   2.576   2.499   5.427
 1643TIP3    H1 4893   2.522   2.564   5.472
 1643TIP3    H2 4894   2.663   2.510   5.464
 1644TIP3   OH2 4895   5.299   6.135   4.200
 1644TIP3    H1 4896   5.320   6.227   4.187
 1644TIP3    H2 4897   5.248   6.133   4.281
 1645TIP3   OH2 4898   0.515   4.741   1.244
 1645TIP3    H1 4899   0.609   4.728   1.237
 1645TIP3    H2 4900   0.490   4.704   1.328
 1646TIP3   OH2 4901   4.644   3.256   4.581
 1646TIP3    H1 4902   4.649   3.348   4.556
 1646TIP3    H2 4903   4.734   3.231   4.601
 1647TIP3   OH2 4904   1.950   5.385   0.426
 1647TIP3    H1 4905   1.865   5.428   0.423
 1647TIP3    H2 4906   1.992   5.421   0.504
 1648TIP3   OH2 4907   4.728   3.291   1.890
 1648TIP3    H1 4908   4.801   3.349   1.870
 1648TIP3    H2 4909   4.767   3.222   1.944
 1649TIP3   OH2 4910   1.448   0.412   1.623
 1649TIP3    H1 4911   1.496   0.422   1.705
 1649TIP3    H2 4912   1.469   0.323   1.593
 1650TIP3   OH2 4913   5.416   4.991   1.026
 1650TIP3    H1 4914   5.346   4.989   0.960
 1650TIP3    H2 4915   5.490   5.030   0.980
 1651TIP3   OH2 4916   4.898   3.657   4.156
 1651TIP3    H1 4917   4.956   3.612   4.094
 1651TIP3    H2 4918   4.953   3.675   4.232
 1652TIP3   OH2 4919   4.585   1.629   5.748
 1652TIP3    H1 4920   4.559   1.613   5.658
 1652TIP3    H2 4921   4.528   1.701   5.777
 1653TIP3   OH2 4922   3.219   3.657   1.073
 1653TIP3    H1 4923   3.176   3.575   1.050
 1653TIP3    H2 4924   3.199   3.715   0.999
 1654TIP3   OH2 4925   5.795   3.321   0.831
 1654TIP3    H1 4926   5.836   3.398   0.792
 1654TIP3    H2 4927   5.701   3.338   0.825
 1655TIP3   OH2 4928   1.733   0.787   5.716
 1655TIP3    H1 4929   1.722   0.815   5.625
 1655TIP3    H2 4930   1.786   0.707   5.710
 1656TIP3   OH2 4931   1.531   6.706   1.443
 1656TIP3    H1 4932   1.571   6.733   1.525
 1656TIP3    H2 4933   1.589   6.638   1.408
 1657TIP3   OH2 4934   7.117   1.212   3.420
 1657TIP3    H1 4935   7.029   1.187   3.447
 1657TIP3    H2 4936   7.123   1.305   3.442
 1658TIP3   OH2 4937   4.838   2.754   5.687
 1658TIP3    H1 4938   4.779   2.793   5.751
 1658TIP3    H2 4939   4.917   2.732   5.737
 1659TIP3   OH2 4940   4.150   2.721   0.622
 1659TIP3    H1 4941   4.137   2.765   0.706
 1659TIP3    H2 4942   4.063   2.716   0.584
 1660TIP3   OH2 4943   2.004   0.772   2.124
 1660TIP3    H1 4944   2.098   0.777   2.140
 1660TIP3    H2 4945   1.996   0.738   2.035
 1661TIP3   OH2 4946   3.074   2.676   2.980
 1661TIP3    H1 4947   3.035   2.605   3.031
 1661TIP3    H2 4948   3.147   2.708   3.033
 1662TIP3   OH2 4949   4.885   6.356   5.425
 1662TIP3    H1 4950   4.899   6.448   5.449
 1662TIP3    H2 4951   4.803   6.356   5.377
 1663TIP3   OH2 4952   0.124   6.261   3.986
 1663TIP3    H1 4953   0.098   6.197   4.052
 1663TIP3    H2 4954   0.054   6.326   3.988
 1664TIP3   OH2 4955   3.035   4.841   2.125
 1664TIP3    H1 4956   3.016   4.749   2.144
 1664TIP3    H2 4957   2.983   4.890   2.189
 1665TIP3   OH2 4958   4.325   6.612   2.954
 1665TIP3    H1 4959   4.250   6.614   2.895
 1665TIP3    H2 4960   4.398   6.583   2.900
 1666TIP3   OH2 4961   6.174   3.511   2.213
 1666TIP3    H1 4962   6.245   3.474   2.160
 1666TIP3    H2 4963   6.094   3.479   2.170
 1667TIP3   OH2 4964   3.677   2.829   4.905
 1667TIP3    H1 4965   3.735   2.755   4.894
 1667TIP3    H2 4966   3.644   2.848   4.817
 1668TIP3   OH2 4967   3.585   1.346   1.594
 1668TIP3    H1 4968   3.595   1.383   1.507
 1668TIP3    H2 4969   3.530   1.408   1.642
 1669TIP3   OH2 4970   1.757   1.391   1.114
 1669TIP3    H1 4971   1.663   1.382   1.104
 1669TIP3    H2 4972   1.777   1.349   1.198
 1670TIP3   OH2 4973   0.726   1.429   4.273
 1670TIP3    H1 4974   0.818   1.451   4.286
 1670TIP3    H2 4975   0.702   1.472   4.190
 1671TIP3   OH2 4976   0.056   2.071   4.848
 1671TIP3    H1 4977   0.110   1.993   4.836
 1671TIP3    H2 4978  -0.028   2.037   4.878
 1672TIP3   OH2 4979   6.790   5.566   1.948
 1672TIP3    H1 4980   6.712   5.568   2.003
 1672TIP3    H2 4981   6.831   5.482   1.967
 1673TIP3   OH2 4982   2.686   1.033   0.015
 1673TIP3    H1 4983   2.637   0.988   0.084
 1673TIP3    H2 4984   2.624   1.040  -0.058
 1674TIP3   OH2 4985   0.456   1.556   2.709
 1674TIP3    H1 4986   0.411   1.634   2.743
 1674TIP3    H2 4987   0.548   1.581   2.709
 1675TIP3   OH2 4988   1.126   0.584   5.622
 1675TIP3    H1 4989   1.170   0.668   5.606
 1675TIP3    H2 4990   1.088   0.560   5.538
 1676TIP3   OH2 4991   3.652   4.946   0.333
 1676TIP3    H1 4992   3.715   5.009   0.367
 1676TIP3    H2 4993   3.703   4.867   0.316
 1677TIP3   OH2 4994   3.135   2.197   2.268
 1677TIP3    H1 4995   3.106   2.172   2.180
 1677TIP3    H2 4996   3.053   2.216   2.315
 1678TIP3   OH2 4997   2.823   2.784   3.108
 1678TIP3    H1 4998   2.896   2.823   3.061
 1678TIP3    H2 4999   2.832   2.690   3.093
 1679TIP3   OH2 5000   1.245   4.840   1.273
 1679TIP3    H1 5001   1.155   4.810   1.288
 1679TIP3    H2 5002   1.237   4.934   1.260
 1680TIP3   OH2 5003   6.522   6.511   4.394
 1680TIP3    H1 5004   6.602   6.531   4.345
 1680TIP3    H2 5005   6.508   6.588   4.449
 1681TIP3   OH2 5006   6.402   1.215   4.636
 1681TIP3    H1 5007   6.475   1.196   4.577
 1681TIP3    H2 5008   6.333   1.154   4.609
 1682TIP3   OH2 5009   1.201   0.149   1.872
 1682TIP3    H1 5010   1.276   0.200   1.839
 1682TIP3    H2 5011   1.232   0.111   1.954
 1683TIP3   OH2 5012   0.101   2.551   3.678
 1683TIP3    H1 5013   0.168   2.501   3.726
 1683TIP3    H2 5014   0.089   2.631   3.729
 1684TIP3   OH2 5015   6.632   6.192   5.206
 1684TIP3    H1 5016   6.614   6.276   5.164
 1684TIP3    H2 5017   6.646   6.213   5.298
 1685TIP3   OH2 5018   0.786   3.457   4.179
 1685TIP3    H1 5019   0.814   3.384   4.234
 1685TIP3    H2 5020   0.865   3.508   4.164
 1686TIP3   OH2 5021   5.588   1.877   2.620
 1686TIP3    H1 5022   5.672   1.920   2.607
 1686TIP3    H2 5023   5.538   1.938   2.673
 1687TIP3   OH2 5024   6.006   3.142   3.022
 1687TIP3    H1 5025   5.984   3.136   3.115
 1687TIP3    H2 5026   6.049   3.226   3.013
 1688TIP3   OH2 5027   2.268   3.227   3.375
 1688TIP3    H1 5028   2.295   3.310   3.337
 1688TIP3    H2 5029   2.221   3.182   3.304
 1689TIP3   OH2 5030   1.100   3.271   0.270
 1689TIP3    H1 5031   1.124   3.179   0.285
 1689TIP3    H2 5032   1.178   3.320   0.295
 1690TIP3   OH2 5033   1.202   4.473   2.215
 1690TIP3    H1 5034   1.217   4.558   2.258
 1690TIP3    H2 5035   1.160   4.420   2.282
 1691TIP3   OH2 5036   6.179   2.161   3.925
 1691TIP3    H1 5037   6.178   2.188   3.833
 1691TIP3    H2 5038   6.090   2.130   3.942
 1692TIP3   OH2 5039   5.942   1.654   4.585
 1692TIP3    H1 5040   5.880   1.623   4.519
 1692TIP3    H2 5041   5.904   1.736   4.617
 1693TIP3   OH2 5042   2.598   1.627   1.659
 1693TIP3    H1 5043   2.515   1.613   1.614
 1693TIP3    H2 5044   2.576   1.629   1.752
 1694TIP3   OH2 5045   1.166   5.413   1.304
 1694TIP3    H1 5046   1.150   5.499   1.263
 1694TIP3    H2 5047   1.079   5.383   1.330
 1695TIP3   OH2 5048   1.416   3.541   3.286
 1695TIP3    H1 5049   1.493   3.489   3.310
 1695TIP3    H2 5050   1.451   3.625   3.258
 1696TIP3   OH2 5051   1.211   3.927   3.691
 1696TIP3    H1 5052   1.223   3.832   3.689
 1696TIP3    H2 5053   1.140   3.940   3.754
 1697TIP3   OH2 5054   2.659   5.842   1.348
 1697TIP3    H1 5055   2.689   5.893   1.273
 1697TIP3    H2 5056   2.735   5.789   1.373
 1698TIP3   OH2 5057   0.832   1.744   5.374
 1698TIP3    H1 5058   0.880   1.802   5.315
 1698TIP3    H2 5059   0.740   1.769   5.363
 1699TIP3   OH2 5060   1.872   1.096   2.720
 1699TIP3    H1 5061   1.919   1.043   2.784
 1699TIP3    H2 5062   1.814   1.035   2.676
 1700TIP3   OH2 5063   3.459   1.409   1.289
 1700TIP3    H1 5064   3.425   1.445   1.207
 1700TIP3    H2 5065   3.420   1.322   1.295
 1701TIP3   OH2 5066   4.765   4.235   1.060
 1701TIP3    H1 5067   4.839   4.297   1.067
 1701TIP3    H2 5068   4.720   4.242   1.144
 1702TIP3   OH2 5069   3.471   0.659   1.593
 1702TIP3    H1 5070   3.495   0.714   1.668
 1702TIP3    H2 5071   3.376   0.664   1.590
 1703TIP3   OH2 5072   3.272   3.893   5.369
 1703TIP3    H1 5073   3.225   3.958   5.318
 1703TIP3    H2 5074   3.362   3.924   5.370
 1704TIP3   OH2 5075   5.645   0.134   3.442
 1704TIP3    H1 5076   5.636   0.052   3.394
 1704TIP3    H2 5077   5.726   0.124   3.492
 1705TIP3   OH2 5078   5.833   6.032   2.690
 1705TIP3    H1 5079   5.809   6.101   2.627
 1705TIP3    H2 5080   5.824   5.951   2.641
 1706TIP3   OH2 5081   4.811   6.119   2.153
 1706TIP3    H1 5082   4.864   6.061   2.208
 1706TIP3    H2 5083   4.840   6.207   2.176
 1707TIP3   OH2 5084   0.570   1.108   4.061
 1707TIP3    H1 5085   0.495   1.054   4.035
 1707TIP3    H2 5086   0.551   1.133   4.151
 1708TIP3   OH2 5087   6.181   4.435   2.859
 1708TIP3    H1 5088   6.237   4.462   2.785
 1708TIP3    H2 5089   6.105   4.492   2.854
 1709TIP3   OH2 5090   6.582   2.469   5.356
 1709TIP3    H1 5091   6.664   2.482   5.403
 1709TIP3    H2 5092   6.601   2.495   5.266
 1710TIP3   OH2 5093   5.567   1.553   1.575
 1710TIP3    H1 5094   5.562   1.481   1.512
 1710TIP3    H2 5095   5.618   1.621   1.530
 1711TIP3   OH2 5096   0.205   3.482   0.928
 1711TIP3    H1 5097   0.151   3.559   0.948
 1711TIP3    H2 5098   0.142   3.416   0.898
 1712TIP3   OH2 5099   3.216   0.388   0.209
 1712TIP3    H1 5100   3.145   0.323   0.210
 1712TIP3    H2 5101   3.195   0.445   0.135
 1713TIP3   OH2 5102   0.845   3.960   4.426
 1713TIP3    H1 5103   0.829   4.000   4.340
 1713TIP3    H2 5104   0.891   4.028   4.475
 1714TIP3   OH2 5105   2.880   3.438   0.469
 1714TIP3    H1 5106   2.854   3.523   0.503
 1714TIP3    H2 5107   2.798   3.398   0.439
 1715TIP3   OH2 5108   3.864   1.733   3.175
 1715TIP3    H1 5109   3.933   1.798   3.190
 1715TIP3    H2 5110   3.825   1.759   3.092
 1716TIP3   OH2 5111   1.173   1.532   5.722
 1716TIP3    H1 5112   1.135   1.556   5.807
 1716TIP3    H2 5113   1.108   1.562   5.658
 1717TIP3   OH2 5114   1.557   4.724   0.856
 1717TIP3    H1 5115   1.647   4.727   0.889
 1717TIP3    H2 5116   1.503   4.727   0.935
 1718TIP3   OH2 5117   5.661   3.758   1.751
 1718TIP3    H1 5118   5.580   3.757   1.802
 1718TIP3    H2 5119   5.730   3.768   1.816
 1719TIP3   OH2 5120   6.381   2.292   1.083
 1719TIP3    H1 5121   6.407   2.219   1.138
 1719TIP3    H2 5122   6.387   2.259   0.993
 1720TIP3   OH2 5123   0.579   6.100   4.827
 1720TIP3    H1 5124   0.514   6.042   4.867
 1720TIP3    H2 5125   0.548   6.112   4.737
 1721TIP3   OH2 5126   7.147   5.737   1.631
 1721TIP3    H1 5127   7.235   5.766   1.654
 1721TIP3    H2 5128   7.129   5.666   1.693
 1722TIP3   OH2 5129   1.215   5.677   4.241
 1722TIP3    H1 5130   1.288   5.737   4.257
 1722TIP3    H2 5131   1.240   5.596   4.287
 1723TIP3   OH2 5132   3.160   3.494   0.395
 1723TIP3    H1 5133   3.072   3.474   0.428
 1723TIP3    H2 5134   3.218   3.481   0.470
 1724TIP3   OH2 5135   6.767   5.999   0.980
 1724TIP3    H1 5136   6.728   6.045   1.054
 1724TIP3    H2 5137   6.861   6.008   0.993
 1725TIP3   OH2 5138   6.821   2.057   2.178
 1725TIP3    H1 5139   6.796   1.966   2.162
 1725TIP3    H2 5140   6.775   2.081   2.258
 1726TIP3   OH2 5141   5.859   4.169   5.797
 1726TIP3    H1 5142   5.779   4.196   5.752
 1726TIP3    H2 5143   5.829   4.112   5.868
 1727TIP3   OH2 5144   2.643   0.126   2.204
 1727TIP3    H1 5145   2.714   0.185   2.181
 1727TIP3    H2 5146   2.568   0.157   2.154
 1728TIP3   OH2 5147   5.086   5.885   5.802
 1728TIP3    H1 5148   5.065   5.791   5.805
 1728TIP3    H2 5149   5.069   5.916   5.891
 1729TIP3   OH2 5150   0.459   0.687   3.505
 1729TIP3    H1 5151   0.379   0.737   3.524
 1729TIP3    H2 5152   0.475   0.702   3.412
 1730TIP3   OH2 5153   2.126   1.439   3.130
 1730TIP3    H1 5154   2.046   1.470   3.087
 1730TIP3    H2 5155   2.144   1.504   3.198
 1731TIP3   OH2 5156   2.748   2.194   1.639
 1731TIP3    H1 5157   2.732   2.224   1.728
 1731TIP3    H2 5158   2.814   2.126   1.648
 1732TIP3   OH2 5159   4.500   6.023   5.389
 1732TIP3    H1 5160   4.530   5.941   5.429
 1732TIP3    H2 5161   4.509   6.088   5.459
 1733TIP3   OH2 5162   5.676   1.464   3.639
 1733TIP3    H1 5163   5.599   1.459   3.695
 1733TIP3    H2 5164   5.669   1.387   3.582
 1734TIP3   OH2 5165   2.529   2.821   4.611
 1734TIP3    H1 5166   2.541   2.757   4.682
 1734TIP3    H2 5167   2.618   2.841   4.583
 1735TIP3   OH2 5168   0.316   6.268   1.852
 1735TIP3    H1 5169   0.387   6.284   1.915
 1735TIP3    H2 5170   0.356   6.283   1.766
 1736TIP3   OH2 5171   4.566   6.252   5.549
 1736TIP3    H1 5172   4.644   6.275   5.601
 1736TIP3    H2 5173   4.525   6.336   5.529
 1737TIP3   OH2 5174   2.449   1.622   4.177
 1737TIP3    H1 5175   2.505   1.560   4.131
 1737TIP3    H2 5176   2.473   1.614   4.269
 1738TIP3   OH2 5177   4.482   6.744   1.683
 1738TIP3    H1 5178   4.545   6.680   1.716
 1738TIP3    H2 5179   4.402   6.694   1.668
 1739TIP3   OH2 5180   2.752   0.936   2.340
 1739TIP3    H1 5181   2.800   0.894   2.269
 1739TIP3    H2 5182   2.714   0.864   2.390
 1740TIP3   OH2 5183   6.862   0.499   2.298
 1740TIP3    H1 5184   6.842   0.482   2.390
 1740TIP3    H2 5185   6.956   0.485   2.291
 1741TIP3   OH2 5186   2.334   4.556   2.679
 1741TIP3    H1 5187   2.249   4.600   2.677
 1741TIP3    H2 5188   2.376   4.590   2.758
 1742TIP3   OH2 5189   1.502   2.299   3.379
 1742TIP3    H1 5190   1.421   2.345   3.354
 1742TIP3    H2 5191   1.485   2.268   3.468
 1743TIP3   OH2 5192   2.512   1.451   0.791
 1743TIP3    H1 5193   2.445   1.476   0.728
 1743TIP3    H2 5194   2.514   1.355   0.787
 1744TIP3   OH2 5195   6.770   2.027   3.894
 1744TIP3    H1 5196   6.767   2.040   3.799
 1744TIP3    H2 5197   6.680   2.040   3.923
 1745TIP3   OH2 5198   3.957   3.626   2.097
 1745TIP3    H1 5199   3.972   3.577   2.178
 1745TIP3    H2 5200   4.020   3.698   2.101
 1746TIP3   OH2 5201   6.318   5.360   4.127
 1746TIP3    H1 5202   6.233   5.384   4.163
 1746TIP3    H2 5203   6.365   5.444   4.118
 1747TIP3   OH2 5204   6.117   6.062   0.262
 1747TIP3    H1 5205   6.202   6.026   0.288
 1747TIP3    H2 5206   6.138   6.132   0.201
 1748TIP3   OH2 5207   0.358   5.733   2.101
 1748TIP3    H1 5208   0.307   5.658   2.129
 1748TIP3    H2 5209   0.393   5.708   2.015
 1749TIP3   OH2 5210   2.737   4.598   0.780
 1749TIP3    H1 5211   2.778   4.562   0.701
 1749TIP3    H2 5212   2.730   4.692   0.763
 1750TIP3   OH2 5213   5.319   0.756   3.595
 1750TIP3    H1 5214   5.347   0.702   3.521
 1750TIP3    H2 5215   5.382   0.736   3.664
 1751TIP3   OH2 5216   0.272   1.202   4.514
 1751TIP3    H1 5217   0.321   1.255   4.451
 1751TIP3    H2 5218   0.187   1.246   4.522
 1752TIP3   OH2 5219   5.584   5.444   4.976
 1752TIP3    H1 5220   5.500   5.457   4.933
 1752TIP3    H2 5221   5.575   5.488   5.060
 1753TIP3   OH2 5222   6.651   6.225   4.496
 1753TIP3    H1 5223   6.609   6.166   4.433
 1753TIP3    H2 5224   6.720   6.269   4.447
 1754TIP3   OH2 5225   4.279   5.464   3.907
 1754TIP3    H1 5226   4.199   5.422   3.939
 1754TIP3    H2 5227   4.271   5.462   3.812
 1755TIP3   OH2 5228   6.469   5.671   2.959
 1755TIP3    H1 5229   6.406   5.599   2.963
 1755TIP3    H2 5230   6.470   5.697   2.866
 1756TIP3   OH2 5231   4.870   2.452   3.237
 1756TIP3    H1 5232   4.788   2.451   3.188
 1756TIP3    H2 5233   4.938   2.447   3.170
 1757TIP3   OH2 5234   0.562   5.969   2.486
 1757TIP3    H1 5235   0.608   6.042   2.444
 1757TIP3    H2 5236   0.514   6.010   2.558
 1758TIP3   OH2 5237   0.232   5.391   5.371
 1758TIP3    H1 5238   0.257   5.439   5.450
 1758TIP3    H2 5239   0.246   5.454   5.300
 1759TIP3   OH2 5240   1.375   1.490   3.686
 1759TIP3    H1 5241   1.307   1.517   3.625
 1759TIP3    H2 5242   1.376   1.559   3.752
 1760TIP3   OH2 5243   6.582   4.224   4.704
 1760TIP3    H1 5244   6.542   4.247   4.620
 1760TIP3    H2 5245   6.656   4.168   4.680
 1761TIP3   OH2 5246   2.267   6.011   0.514
 1761TIP3    H1 5247   2.204   5.951   0.474
 1761TIP3    H2 5248   2.217   6.056   0.582
 1762TIP3   OH2 5249   2.180   6.114   0.765
 1762TIP3    H1 5250   2.085   6.123   0.764
 1762TIP3    H2 5251   2.196   6.033   0.813
 1763TIP3   OH2 5252   6.025   2.380   5.046
 1763TIP3    H1 5253   6.108   2.422   5.068
 1763TIP3    H2 5254   5.974   2.448   5.002
 1764TIP3   OH2 5255   5.901   2.084   3.980
 1764TIP3    H1 5256   5.813   2.115   3.998
 1764TIP3    H2 5257   5.899   1.991   4.005
 1765TIP3   OH2 5258   5.537   5.741   4.722
 1765TIP3    H1 5259   5.553   5.818   4.776
 1765TIP3    H2 5260   5.589   5.755   4.643
 1766TIP3   OH2 5261   2.190   5.699   3.150
 1766TIP3    H1 5262   2.117   5.638   3.146
 1766TIP3    H2 5263   2.148   5.785   3.159
 1767TIP3   OH2 5264   3.260   3.465   3.132
 1767TIP3    H1 5265   3.270   3.425   3.219
 1767TIP3    H2 5266   3.348   3.460   3.093
 1768TIP3   OH2 5267   6.104   3.371   0.498
 1768TIP3    H1 5268   6.149   3.295   0.536
 1768TIP3    H2 5269   6.032   3.333   0.447
 1769TIP3   OH2 5270   6.501   3.214   3.352
 1769TIP3    H1 5271   6.469   3.301   3.376
 1769TIP3    H2 5272   6.518   3.220   3.258
 1770TIP3   OH2 5273   7.129   3.189   1.100
 1770TIP3    H1 5274   7.165   3.261   1.047
 1770TIP3    H2 5275   7.159   3.110   1.056
 1771TIP3   OH2 5276   0.152   3.134   0.178
 1771TIP3    H1 5277   0.246   3.150   0.178
 1771TIP3    H2 5278   0.120   3.181   0.256
 1772TIP3   OH2 5279   2.971   6.681   0.362
 1772TIP3    H1 5280   2.913   6.681   0.439
 1772TIP3    H2 5281   2.923   6.629   0.297
 1773TIP3   OH2 5282   5.300   3.651   3.137
 1773TIP3    H1 5283   5.327   3.624   3.049
 1773TIP3    H2 5284   5.360   3.722   3.160
 1774TIP3   OH2 5285   6.039   3.453   2.973
 1774TIP3    H1 5286   6.010   3.477   2.885
 1774TIP3    H2 5287   6.046   3.536   3.019
 1775TIP3   OH2 5288   2.573   2.645   4.842
 1775TIP3    H1 5289   2.563   2.696   4.923
 1775TIP3    H2 5290   2.638   2.579   4.864
 1776TIP3   OH2 5291   3.645   4.931   5.314
 1776TIP3    H1 5292   3.588   4.951   5.240
 1776TIP3    H2 5293   3.609   4.984   5.386
 1777TIP3   OH2 5294   2.026   2.731   4.385
 1777TIP3    H1 5295   2.004   2.802   4.325
 1777TIP3    H2 5296   2.088   2.769   4.447
 1778TIP3   OH2 5297   2.879   2.552   5.286
 1778TIP3    H1 5298   2.910   2.482   5.227
 1778TIP3    H2 5299   2.786   2.559   5.268
 1779TIP3   OH2 5300   7.135   1.051   5.849
 1779TIP3    H1 5301   7.144   0.980   5.785
 1779TIP3    H2 5302   7.056   1.028   5.898
 1780TIP3   OH2 5303   2.794   0.665   4.743
 1780TIP3    H1 5304   2.726   0.686   4.679
 1780TIP3    H2 5305   2.748   0.661   4.827
 1781TIP3   OH2 5306   1.709   2.005   4.434
 1781TIP3    H1 5307   1.782   1.970   4.383
 1781TIP3    H2 5308   1.633   1.953   4.407
 1782TIP3   OH2 5309   6.267   3.909   5.598
 1782TIP3    H1 5310   6.317   3.962   5.536
 1782TIP3    H2 5311   6.263   3.823   5.558
 1783TIP3   OH2 5312   5.358   0.528   3.452
 1783TIP3    H1 5313   5.344   0.466   3.380
 1783TIP3    H2 5314   5.418   0.484   3.511
 1784TIP3   OH2 5315   6.737   5.042   1.866
 1784TIP3    H1 5316   6.778   5.041   1.953
 1784TIP3    H2 5317   6.654   5.089   1.879
 1785TIP3   OH2 5318   4.998   6.196   2.730
 1785TIP3    H1 5319   4.976   6.284   2.702
 1785TIP3    H2 5320   5.091   6.187   2.710
 1786TIP3   OH2 5321   3.514   4.202   4.611
 1786TIP3    H1 5322   3.487   4.126   4.662
 1786TIP3    H2 5323   3.478   4.187   4.523
 1787TIP3   OH2 5324   4.096   0.222   5.444
 1787TIP3    H1 5325   4.061   0.310   5.430
 1787TIP3    H2 5326   4.187   0.236   5.469
 1788TIP3   OH2 5327   2.265   6.352   2.619
 1788TIP3    H1 5328   2.320   6.307   2.682
 1788TIP3    H2 5329   2.185   6.372   2.667
 1789TIP3   OH2 5330   0.838   0.817   5.406
 1789TIP3    H1 5331   0.747   0.844   5.418
 1789TIP3    H2 5332   0.843   0.730   5.445
 1790TIP3   OH2 5333   0.268   5.860   3.896
 1790TIP3    H1 5334   0.299   5.865   3.806
 1790TIP3    H2 5335   0.198   5.795   3.895
 1791TIP3   OH2 5336   3.783   0.373   2.345
 1791TIP3    H1 5337   3.826   0.383   2.430
 1791TIP3    H2 5338   3.828   0.434   2.287
 1792TIP3   OH2 5339   4.347   6.533   3.196
 1792TIP3    H1 5340   4.321   6.443   3.177
 1792TIP3    H2 5341   4.336   6.579   3.113
 1793TIP3   OH2 5342   3.505   2.367   5.598
 1793TIP3    H1 5343   3.491   2.330   5.511
 1793TIP3    H2 5344   3.598   2.388   5.601
 1794TIP3   OH2 5345   4.898   3.268   3.856
 1794TIP3    H1 5346   4.812   3.306   3.836
 1794TIP3    H2 5347   4.960   3.329   3.817
 1795TIP3   OH2 5348   5.819   0.273   4.196
 1795TIP3    H1 5349   5.826   0.289   4.290
 1795TIP3    H2 5350   5.754   0.203   4.189
 1796TIP3   OH2 5351   4.189   4.813   0.153
 1796TIP3    H1 5352   4.145   4.739   0.112
 1796TIP3    H2 5353   4.245   4.774   0.220
 1797TIP3   OH2 5354   6.247   3.117   0.348
 1797TIP3    H1 5355   6.228   3.164   0.268
 1797TIP3    H2 5356   6.162   3.100   0.387
 1798TIP3   OH2 5357   6.219   5.279   5.017
 1798TIP3    H1 5358   6.168   5.350   5.054
 1798TIP3    H2 5359   6.202   5.284   4.923
 1799TIP3   OH2 5360   3.669   5.852   3.796
 1799TIP3    H1 5361   3.758   5.825   3.820
 1799TIP3    H2 5362   3.632   5.887   3.877
 1800TIP3   OH2 5363   5.017   1.597   3.196
 1800TIP3    H1 5364   5.067   1.515   3.202
 1800TIP3    H2 5365   4.932   1.570   3.160
 1801TIP3   OH2 5366   5.061   2.060   3.915
 1801TIP3    H1 5367   5.115   2.063   3.994
 1801TIP3    H2 5368   5.026   2.149   3.907
 1802TIP3   OH2 5369   3.418   6.194   0.057
 1802TIP3    H1 5370   3.492   6.155   0.102
 1802TIP3    H2 5371   3.366   6.120   0.027
 1803TIP3   OH2 5372   3.711   4.491   5.090
 1803TIP3    H1 5373   3.694   4.439   5.012
 1803TIP3    H2 5374   3.631   4.486   5.141
 1804TIP3   OH2 5375   0.161   6.088   0.593
 1804TIP3    H1 5376   0.179   6.182   0.584
 1804TIP3    H2 5377   0.147   6.075   0.687
 1805TIP3   OH2 5378   5.575   4.668   2.172
 1805TIP3    H1 5379   5.570   4.752   2.219
 1805TIP3    H2 5380   5.484   4.645   2.154
 1806TIP3   OH2 5381   3.512   2.879   3.816
 1806TIP3    H1 5382   3.426   2.836   3.818
 1806TIP3    H2 5383   3.531   2.890   3.723
 1807TIP3   OH2 5384   1.268   5.061   5.625
 1807TIP3    H1 5385   1.329   5.123   5.585
 1807TIP3    H2 5386   1.297   5.054   5.716
 1808TIP3   OH2 5387   0.410   4.415   0.848
 1808TIP3    H1 5388   0.502   4.390   0.846
 1808TIP3    H2 5389   0.373   4.379   0.767
 1809TIP3   OH2 5390   7.217   5.097  -0.011
 1809TIP3    H1 5391   7.138   5.057  -0.048
 1809TIP3    H2 5392   7.268   5.024   0.023
 1810TIP3   OH2 5393   2.805   5.673   0.519
 1810TIP3    H1 5394   2.830   5.587   0.486
 1810TIP3    H2 5395   2.870   5.733   0.483
 1811TIP3   OH2 5396   6.502   0.866   1.156
 1811TIP3    H1 5397   6.412   0.891   1.177
 1811TIP3    H2 5398   6.527   0.806   1.226
 1812TIP3   OH2 5399   2.038   5.828   5.017
 1812TIP3    H1 5400   1.949   5.843   5.047
 1812TIP3    H2 5401   2.044   5.873   4.933
 1813TIP3   OH2 5402   6.690   0.658   0.796
 1813TIP3    H1 5403   6.766   0.600   0.801
 1813TIP3    H2 5404   6.629   0.623   0.861
 1814TIP3   OH2 5405   0.123   4.457   2.400
 1814TIP3    H1 5406   0.215   4.431   2.397
 1814TIP3    H2 5407   0.080   4.389   2.453
 1815TIP3   OH2 5408   3.525   0.519   1.955
 1815TIP3    H1 5409   3.481   0.604   1.949
 1815TIP3    H2 5410   3.499   0.485   2.040
 1816TIP3   OH2 5411   1.426   1.197   2.513
 1816TIP3    H1 5412   1.360   1.225   2.576
 1816TIP3    H2 5413   1.489   1.269   2.509
 1817TIP3   OH2 5414   4.452   4.538   5.608
 1817TIP3    H1 5415   4.396   4.462   5.593
 1817TIP3    H2 5416   4.447   4.587   5.525
 1818TIP3   OH2 5417   7.198   4.222   4.092
 1818TIP3    H1 5418   7.289   4.223   4.122
 1818TIP3    H2 5419   7.202   4.253   4.002
 1819TIP3   OH2 5420   6.308   0.953   2.812
 1819TIP3    H1 5421   6.266   0.988   2.733
 1819TIP3    H2 5422   6.402   0.963   2.796
 1820TIP3   OH2 5423   6.567   3.234   3.079
 1820TIP3    H1 5424   6.551   3.295   3.007
 1820TIP3    H2 5425   6.659   3.245   3.101
 1821TIP3   OH2 5426   6.483   3.842   0.397
 1821TIP3    H1 5427   6.536   3.785   0.453
 1821TIP3    H2 5428   6.407   3.865   0.451
 1822TIP3   OH2 5429   4.721   1.883   5.071
 1822TIP3    H1 5430   4.739   1.796   5.107
 1822TIP3    H2 5431   4.642   1.871   5.018
 1823TIP3   OH2 5432   4.951   6.195   0.831
 1823TIP3    H1 5433   4.928   6.266   0.770
 1823TIP3    H2 5434   5.044   6.210   0.849
 1824TIP3   OH2 5435   2.502   2.347   3.917
 1824TIP3    H1 5436   2.483   2.409   3.846
 1824TIP3    H2 5437   2.426   2.289   3.919
 1825TIP3   OH2 5438   6.315   0.002   3.983
 1825TIP3    H1 5439   6.378  -0.063   3.954
 1825TIP3    H2 5440   6.367   0.073   4.020
 1826TIP3   OH2 5441   0.183   0.763   4.850
 1826TIP3    H1 5442   0.222   0.820   4.784
 1826TIP3    H2 5443   0.202   0.807   4.933
 1827TIP3   OH2 5444   4.867   4.496   2.726
 1827TIP3    H1 5445   4.928   4.566   2.751
 1827TIP3    H2 5446   4.887   4.424   2.786
 1828TIP3   OH2 5447   3.353   0.399   3.410
 1828TIP3    H1 5448   3.310   0.399   3.325
 1828TIP3    H2 5449   3.441   0.434   3.394
 1829TIP3   OH2 5450   0.103   3.184   5.844
 1829TIP3    H1 5451   0.024   3.146   5.804
 1829TIP3    H2 5452   0.101   3.276   5.816
 1830TIP3   OH2 5453   6.369   2.496   1.793
 1830TIP3    H1 5454   6.309   2.564   1.763
 1830TIP3    H2 5455   6.421   2.474   1.716
 1831TIP3   OH2 5456   4.448   3.462   5.158
 1831TIP3    H1 5457   4.511   3.412   5.105
 1831TIP3    H2 5458   4.367   3.412   5.151
 1832TIP3   OH2 5459   1.564   6.651   1.092
 1832TIP3    H1 5460   1.512   6.571   1.099
 1832TIP3    H2 5461   1.647   6.630   1.133
 1833TIP3   OH2 5462   6.090   5.580   5.055
 1833TIP3    H1 5463   6.143   5.630   5.116
 1833TIP3    H2 5464   6.111   5.617   4.969
 1834TIP3   OH2 5465   6.654   4.363   2.608
 1834TIP3    H1 5466   6.658   4.426   2.536
 1834TIP3    H2 5467   6.675   4.279   2.567
 1835TIP3   OH2 5468   1.147   2.251   4.023
 1835TIP3    H1 5469   1.158   2.302   4.103
 1835TIP3    H2 5470   1.133   2.317   3.955
 1836TIP3   OH2 5471   1.846   5.124   2.972
 1836TIP3    H1 5472   1.830   5.215   2.996
 1836TIP3    H2 5473   1.941   5.116   2.970
 1837TIP3   OH2 5474   5.178   3.603   0.319
 1837TIP3    H1 5475   5.088   3.583   0.296
 1837TIP3    H2 5476   5.175   3.691   0.355
 1838TIP3   OH2 5477   6.177   6.565   0.595
 1838TIP3    H1 5478   6.210   6.577   0.507
 1838TIP3    H2 5479   6.253   6.577   0.652
 1839TIP3   OH2 5480   2.317   4.973   2.477
 1839TIP3    H1 5481   2.350   5.030   2.407
 1839TIP3    H2 5482   2.288   4.894   2.431
 1840TIP3   OH2 5483   2.948   0.132   2.363
 1840TIP3    H1 5484   2.977   0.193   2.295
 1840TIP3    H2 5485   2.992   0.049   2.342
 1841TIP3   OH2 5486   6.369   3.867   1.906
 1841TIP3    H1 5487   6.321   3.935   1.952
 1841TIP3    H2 5488   6.313   3.842   1.833
 1842TIP3   OH2 5489   4.262   5.271   3.596
 1842TIP3    H1 5490   4.214   5.191   3.616
 1842TIP3    H2 5491   4.344   5.263   3.646
 1843TIP3   OH2 5492   4.365   5.136   1.006
 1843TIP3    H1 5493   4.370   5.177   1.093
 1843TIP3    H2 5494   4.316   5.199   0.953
 1844TIP3   OH2 5495   6.763   5.674   1.237
 1844TIP3    H1 5496   6.681   5.631   1.210
 1844TIP3    H2 5497   6.832   5.623   1.194
 1845TIP3   OH2 5498   4.546   0.923   4.291
 1845TIP3    H1 5499   4.482   0.928   4.220
 1845TIP3    H2 5500   4.627   0.897   4.248
 1846TIP3   OH2 5501   6.640   4.731   5.207
 1846TIP3    H1 5502   6.710   4.796   5.215
 1846TIP3    H2 5503   6.629   4.698   5.296
 1847TIP3   OH2 5504   6.696   1.500   0.720
 1847TIP3    H1 5505   6.774   1.537   0.761
 1847TIP3    H2 5506   6.680   1.419   0.768
 1848TIP3   OH2 5507   6.585   6.133   0.820
 1848TIP3    H1 5508   6.642   6.076   0.873
 1848TIP3    H2 5509   6.640   6.159   0.746
 1849TIP3   OH2 5510   3.385   3.173   0.536
 1849TIP3    H1 5511   3.384   3.100   0.598
 1849TIP3    H2 5512   3.460   3.226   0.561
 1850TIP3   OH2 5513   0.286   5.219   1.899
 1850TIP3    H1 5514   0.265   5.129   1.924
 1850TIP3    H2 5515   0.239   5.274   1.962
 1851TIP3   OH2 5516   1.873   5.193   1.999
 1851TIP3    H1 5517   1.812   5.129   2.038
 1851TIP3    H2 5518   1.826   5.276   2.001
 1852TIP3   OH2 5519   4.969   3.885   3.722
 1852TIP3    H1 5520   4.950   3.918   3.810
 1852TIP3    H2 5521   4.957   3.790   3.729
 1853TIP3   OH2 5522   0.916   1.183   2.619
 1853TIP3    H1 5523   0.899   1.269   2.581
 1853TIP3    H2 5524   0.889   1.193   2.711
 1854TIP3   OH2 5525   4.235   4.794   1.495
 1854TIP3    H1 5526   4.169   4.852   1.533
 1854TIP3    H2 5527   4.185   4.725   1.453
 1855TIP3   OH2 5528   1.299   5.670   4.733
 1855TIP3    H1 5529   1.310   5.647   4.641
 1855TIP3    H2 5530   1.376   5.632   4.777
 1856TIP3   OH2 5531   0.244   0.387   2.464
 1856TIP3    H1 5532   0.189   0.392   2.543
 1856TIP3    H2 5533   0.205   0.452   2.405
 1857TIP3   OH2 5534   7.142   0.732   4.796
 1857TIP3    H1 5535   7.230   0.735   4.833
 1857TIP3    H2 5536   7.084   0.761   4.867
 1858TIP3   OH2 5537   1.355   6.226   4.635
 1858TIP3    H1 5538   1.409   6.286   4.585
 1858TIP3    H2 5539   1.270   6.226   4.591
 1859TIP3   OH2 5540   5.467   5.542   3.236
 1859TIP3    H1 5541   5.436   5.478   3.301
 1859TIP3    H2 5542   5.525   5.491   3.179
 1860TIP3   OH2 5543   4.583   1.860   2.574
 1860TIP3    H1 5544   4.580   1.765   2.563
 1860TIP3    H2 5545   4.602   1.872   2.667
 1861TIP3   OH2 5546   4.357   1.507   1.539
 1861TIP3    H1 5547   4.370   1.444   1.468
 1861TIP3    H2 5548   4.399   1.467   1.615
 1862TIP3   OH2 5549   2.287   6.317   4.793
 1862TIP3    H1 5550   2.219   6.280   4.850
 1862TIP3    H2 5551   2.260   6.293   4.705
 1863TIP3   OH2 5552   2.983   5.707   1.015
 1863TIP3    H1 5553   3.001   5.770   0.946
 1863TIP3    H2 5554   2.966   5.624   0.970
 1864TIP3   OH2 5555   1.164   4.887   1.657
 1864TIP3    H1 5556   1.231   4.942   1.615
 1864TIP3    H2 5557   1.196   4.872   1.745
 1865TIP3   OH2 5558   5.288   5.562   0.956
 1865TIP3    H1 5559   5.360   5.614   0.991
 1865TIP3    H2 5560   5.210   5.613   0.975
 1866TIP3   OH2 5561   6.536   4.603   4.688
 1866TIP3    H1 5562   6.521   4.697   4.699
 1866TIP3    H2 5563   6.449   4.564   4.697
 1867TIP3   OH2 5564   4.107   4.151   5.388
 1867TIP3    H1 5565   4.015   4.138   5.412
 1867TIP3    H2 5566   4.134   4.067   5.351
 1868TIP3   OH2 5567   2.263   0.343   5.566
 1868TIP3    H1 5568   2.210   0.273   5.605
 1868TIP3    H2 5569   2.242   0.340   5.473
 1869TIP3   OH2 5570   1.603   6.137   0.898
 1869TIP3    H1 5571   1.630   6.175   0.982
 1869TIP3    H2 5572   1.623   6.043   0.907
 1870TIP3   OH2 5573   3.563   5.957   0.538
 1870TIP3    H1 5574   3.582   6.025   0.474
 1870TIP3    H2 5575   3.621   5.978   0.612
 1871TIP3   OH2 5576   2.372   4.123   2.351
 1871TIP3    H1 5577   2.293   4.161   2.389
 1871TIP3    H2 5578   2.366   4.030   2.371
 1872TIP3   OH2 5579   0.620   0.346   0.736
 1872TIP3    H1 5580   0.598   0.366   0.827
 1872TIP3    H2 5581   0.595   0.255   0.725
 1873TIP3   OH2 5582   3.360   1.130   5.804
 1873TIP3    H1 5583   3.368   1.080   5.724
 1873TIP3    H2 5584   3.266   1.138   5.820
 1874TIP3   OH2 5585   1.298   0.919   2.302
 1874TIP3    H1 5586   1.341   0.854   2.358
 1874TIP3    H2 5587   1.364   0.988   2.290
 1875TIP3   OH2 5588   2.598   1.415   2.279
 1875TIP3    H1 5589   2.589   1.374   2.193
 1875TIP3    H2 5590   2.513   1.405   2.321
 1876TIP3   OH2 5591   0.275   4.454   1.092
 1876TIP3    H1 5592   0.343   4.483   1.152
 1876TIP3    H2 5593   0.323   4.416   1.018
 1877TIP3   OH2 5594   1.140   4.022   3.426
 1877TIP3    H1 5595   1.057   4.068   3.441
 1877TIP3    H2 5596   1.176   4.010   3.514
 1878TIP3   OH2 5597   6.695   4.055   2.563
 1878TIP3    H1 5598   6.780   4.011   2.569
 1878TIP3    H2 5599   6.695   4.094   2.476
 1879TIP3   OH2 5600   1.492   3.413   4.570
 1879TIP3    H1 5601   1.462   3.464   4.495
 1879TIP3    H2 5602   1.588   3.422   4.569
 1880TIP3   OH2 5603   3.054   1.925   4.675
 1880TIP3    H1 5604   3.002   1.990   4.723
 1880TIP3    H2 5605   3.029   1.841   4.713
 1881TIP3   OH2 5606   6.342   5.460   2.054
 1881TIP3    H1 5607   6.337   5.377   2.007
 1881TIP3    H2 5608   6.272   5.514   2.015
 1882TIP3   OH2 5609   6.421   0.895   2.369
 1882TIP3    H1 5610   6.476   0.965   2.335
 1882TIP3    H2 5611   6.483   0.829   2.400
 1883TIP3   OH2 5612   4.688   3.462   1.630
 1883TIP3    H1 5613   4.707   3.488   1.720
 1883TIP3    H2 5614   4.683   3.545   1.582
 1884TIP3   OH2 5615   4.370   3.492   0.240
 1884TIP3    H1 5616   4.453   3.493   0.193
 1884TIP3    H2 5617   4.319   3.423   0.198
 1885TIP3   OH2 5618   3.181   2.895   1.620
 1885TIP3    H1 5619   3.128   2.846   1.557
 1885TIP3    H2 5620   3.135   2.887   1.703
 1886TIP3   OH2 5621   2.382   0.162   3.644
 1886TIP3    H1 5622   2.296   0.178   3.607
 1886TIP3    H2 5623   2.388   0.222   3.719
 1887TIP3   OH2 5624   5.305   6.696   2.710
 1887TIP3    H1 5625   5.391   6.670   2.742
 1887TIP3    H2 5626   5.312   6.791   2.697
 1888TIP3   OH2 5627   4.285   5.884   4.472
 1888TIP3    H1 5628   4.324   5.954   4.420
 1888TIP3    H2 5629   4.340   5.877   4.550
 1889TIP3   OH2 5630   0.506   2.873   4.580
 1889TIP3    H1 5631   0.482   2.789   4.540
 1889TIP3    H2 5632   0.465   2.939   4.524
 1890TIP3   OH2 5633   2.995   0.907   4.708
 1890TIP3    H1 5634   2.997   0.819   4.746
 1890TIP3    H2 5635   3.010   0.892   4.614
 1891TIP3   OH2 5636   5.167   3.855   2.568
 1891TIP3    H1 5637   5.260   3.871   2.579
 1891TIP3    H2 5638   5.130   3.864   2.656
 1892TIP3   OH2 5639   6.440   5.121   0.489
 1892TIP3    H1 5640   6.507   5.173   0.534
 1892TIP3    H2 5641   6.482   5.094   0.407
 1893TIP3   OH2 5642   5.248   6.142   0.143
 1893TIP3    H1 5643   5.317   6.122   0.206
 1893TIP3    H2 5644   5.172   6.164   0.197
 1894TIP3   OH2 5645   5.774   4.727   4.797
 1894TIP3    H1 5646   5.850   4.696   4.748
 1894TIP3    H2 5647   5.806   4.802   4.846
 1895TIP3   OH2 5648   3.409   1.293   3.201
 1895TIP3    H1 5649   3.490   1.271   3.247
 1895TIP3    H2 5650   3.340   1.259   3.258
 1896TIP3   OH2 5651   4.278   5.617   4.662
 1896TIP3    H1 5652   4.201   5.665   4.693
 1896TIP3    H2 5653   4.331   5.682   4.616
 1897TIP3   OH2 5654   5.703   1.068   2.481
 1897TIP3    H1 5655   5.768   1.067   2.411
 1897TIP3    H2 5656   5.619   1.079   2.435
 1898TIP3   OH2 5657   0.998   6.751   5.833
 1898TIP3    H1 5658   0.908   6.743   5.865
 1898TIP3    H2 5659   1.039   6.815   5.891
 1899TIP3   OH2 5660   4.985   1.066   4.269
 1899TIP3    H1 5661   5.063   1.012   4.285
 1899TIP3    H2 5662   5.020   1.150   4.238
 1900TIP3   OH2 5663   3.146   2.945   4.502
 1900TIP3    H1 5664   3.181   3.028   4.534
 1900TIP3    H2 5665   3.064   2.968   4.458
 1901TIP3   OH2 5666   3.136   5.050   4.049
 1901TIP3    H1 5667   3.047   5.024   4.072
 1901TIP3    H2 5668   3.146   5.027   3.957
 1902TIP3   OH2 5669   1.692   6.650   1.942
 1902TIP3    H1 5670   1.769   6.706   1.948
 1902TIP3    H2 5671   1.717   6.582   1.879
 1903TIP3   OH2 5672   5.883   6.689   1.698
 1903TIP3    H1 5673   5.872   6.619   1.763
 1903TIP3    H2 5674   5.807   6.681   1.640
 1904TIP3   OH2 5675   6.880   6.601   3.559
 1904TIP3    H1 5676   6.955   6.574   3.505
 1904TIP3    H2 5677   6.806   6.601   3.499
 1905TIP3   OH2 5678   5.592   0.821   0.028
 1905TIP3    H1 5679   5.652   0.896   0.030
 1905TIP3    H2 5680   5.506   0.861   0.013
 1906TIP3   OH2 5681   0.692   4.483   1.910
 1906TIP3    H1 5682   0.721   4.445   1.827
 1906TIP3    H2 5683   0.648   4.564   1.885
 1907TIP3   OH2 5684   1.516   2.465   0.582
 1907TIP3    H1 5685   1.584   2.398   0.577
 1907TIP3    H2 5686   1.441   2.427   0.537
 1908TIP3   OH2 5687   1.461   5.907   1.151
 1908TIP3    H1 5688   1.399   5.937   1.085
 1908TIP3    H2 5689   1.494   5.824   1.118
 1909TIP3   OH2 5690   3.230   0.371   0.986
 1909TIP3    H1 5691   3.266   0.286   0.961
 1909TIP3    H2 5692   3.306   0.421   1.016
 1910TIP3   OH2 5693   4.043   0.029   5.230
 1910TIP3    H1 5694   3.968   0.045   5.174
 1910TIP3    H2 5695   4.051   0.108   5.283
 1911TIP3   OH2 5696   2.676   0.715   5.756
 1911TIP3    H1 5697   2.720   0.704   5.840
 1911TIP3    H2 5698   2.597   0.661   5.762
 1912TIP3   OH2 5699   4.162   6.502   2.694
 1912TIP3    H1 5700   4.079   6.468   2.727
 1912TIP3    H2 5701   4.223   6.429   2.700
 1913TIP3   OH2 5702   5.866   0.190   3.194
 1913TIP3    H1 5703   5.961   0.203   3.198
 1913TIP3    H2 5704   5.833   0.271   3.153
 1914TIP3   OH2 5705   0.962   3.663   4.255
 1914TIP3    H1 5706   0.983   3.751   4.225
 1914TIP3    H2 5707   0.987   3.662   4.347
 1915TIP3   OH2 5708   3.815   4.583   3.364
 1915TIP3    H1 5709   3.823   4.602   3.271
 1915TIP3    H2 5710   3.739   4.526   3.371
 1916TIP3   OH2 5711   4.918   2.667   2.984
 1916TIP3    H1 5712   5.002   2.632   3.015
 1916TIP3    H2 5713   4.942   2.747   2.937
 1917TIP3   OH2 5714   2.066   4.475   0.131
 1917TIP3    H1 5715   1.991   4.488   0.189
 1917TIP3    H2 5716   2.108   4.561   0.125
 1918TIP3   OH2 5717   2.121   1.861   0.196
 1918TIP3    H1 5718   2.162   1.919   0.132
 1918TIP3    H2 5719   2.178   1.783   0.197
 1919TIP3   OH2 5720   1.271   3.399   0.479
 1919TIP3    H1 5721   1.355   3.376   0.517
 1919TIP3    H2 5722   1.211   3.331   0.510
 1920TIP3   OH2 5723   2.942   6.470   0.120
 1920TIP3    H1 5724   3.003   6.520   0.066
 1920TIP3    H2 5725   2.864   6.462   0.066
 1921TIP3   OH2 5726   4.493   5.962   0.797
 1921TIP3    H1 5727   4.581   6.000   0.788
 1921TIP3    H2 5728   4.435   6.038   0.803
 1922TIP3   OH2 5729   0.383   3.941   0.543
 1922TIP3    H1 5730   0.439   3.970   0.472
 1922TIP3    H2 5731   0.427   3.864   0.578
 1923TIP3   OH2 5732   5.573   5.562   5.226
 1923TIP3    H1 5733   5.668   5.555   5.228
 1923TIP3    H2 5734   5.543   5.481   5.268
 1924TIP3   OH2 5735   3.189   1.135   0.985
 1924TIP3    H1 5736   3.258   1.168   1.041
 1924TIP3    H2 5737   3.151   1.213   0.944
 1925TIP3   OH2 5738   3.879   0.417   5.302
 1925TIP3    H1 5739   3.838   0.440   5.386
 1925TIP3    H2 5740   3.816   0.359   5.260
 1926TIP3   OH2 5741   0.108   6.588   5.297
 1926TIP3    H1 5742   0.177   6.653   5.316
 1926TIP3    H2 5743   0.106   6.584   5.201
 1927TIP3   OH2 5744   4.550   5.927   3.578
 1927TIP3    H1 5745   4.477   5.988   3.570
 1927TIP3    H2 5746   4.613   5.973   3.633
 1928TIP3   OH2 5747   4.316   0.836   5.286
 1928TIP3    H1 5748   4.367   0.893   5.228
 1928TIP3    H2 5749   4.375   0.763   5.306
 1929TIP3   OH2 5750   6.509   5.923   0.547
 1929TIP3    H1 5751   6.527   5.873   0.468
 1929TIP3    H2 5752   6.477   6.007   0.515
 1930TIP3   OH2 5753   0.282   3.372   4.355
 1930TIP3    H1 5754   0.258   3.417   4.436
 1930TIP3    H2 5755   0.320   3.290   4.385
 1931TIP3   OH2 5756   4.564   0.874   2.297
 1931TIP3    H1 5757   4.558   0.780   2.312
 1931TIP3    H2 5758   4.568   0.913   2.385
 1932TIP3   OH2 5759   3.034   4.073   2.530
 1932TIP3    H1 5760   3.043   4.155   2.578
 1932TIP3    H2 5761   2.975   4.020   2.584
 1933TIP3   OH2 5762   1.940   0.320   5.493
 1933TIP3    H1 5763   1.881   0.395   5.492
 1933TIP3    H2 5764   2.002   0.337   5.422
 1934TIP3   OH2 5765   0.254   0.236   5.582
 1934TIP3    H1 5766   0.276   0.172   5.515
 1934TIP3    H2 5767   0.198   0.188   5.643
 1935TIP3   OH2 5768   6.832   3.438   1.874
 1935TIP3    H1 5769   6.854   3.526   1.843
 1935TIP3    H2 5770   6.776   3.454   1.951
 1936TIP3   OH2 5771   0.932   5.829   1.139
 1936TIP3    H1 5772   0.962   5.753   1.089
 1936TIP3    H2 5773   0.836   5.825   1.133
 1937TIP3   OH2 5774   3.342   2.326   3.466
 1937TIP3    H1 5775   3.360   2.336   3.372
 1937TIP3    H2 5776   3.336   2.416   3.498
 1938TIP3   OH2 5777   3.143   1.536   2.796
 1938TIP3    H1 5778   3.174   1.473   2.860
 1938TIP3    H2 5779   3.068   1.578   2.838
 1939TIP3   OH2 5780   6.230   0.883   1.249
 1939TIP3    H1 5781   6.160   0.828   1.285
 1939TIP3    H2 5782   6.193   0.971   1.250
 1940TIP3   OH2 5783   6.185   4.299   4.443
 1940TIP3    H1 5784   6.168   4.362   4.372
 1940TIP3    H2 5785   6.098   4.268   4.468
 1941TIP3   OH2 5786   4.697   0.428   5.534
 1941TIP3    H1 5787   4.711   0.348   5.483
 1941TIP3    H2 5788   4.718   0.499   5.474
 1942TIP3   OH2 5789   0.267   2.016   3.769
 1942TIP3    H1 5790   0.318   2.020   3.688
 1942TIP3    H2 5791   0.177   2.038   3.742
 1943TIP3   OH2 5792   7.087   4.195   2.287
 1943TIP3    H1 5793   7.068   4.260   2.220
 1943TIP3    H2 5794   7.160   4.144   2.252
 1944TIP3   OH2 5795   1.747   4.276   0.276
 1944TIP3    H1 5796   1.772   4.322   0.356
 1944TIP3    H2 5797   1.720   4.189   0.306
 1945TIP3   OH2 5798   0.599   6.129   4.217
 1945TIP3    H1 5799   0.668   6.078   4.260
 1945TIP3    H2 5800   0.524   6.070   4.214
 1946TIP3   OH2 5801   0.349   1.255   2.486
 1946TIP3    H1 5802   0.353   1.240   2.581
 1946TIP3    H2 5803   0.429   1.305   2.467
 1947TIP3   OH2 5804   0.926   1.957   2.266
 1947TIP3    H1 5805   0.838   1.994   2.269
 1947TIP3    H2 5806   0.940   1.919   2.353
 1948TIP3   OH2 5807   0.732   2.969   4.708
 1948TIP3    H1 5808   0.657   2.923   4.671
 1948TIP3    H2 5809   0.768   2.908   4.772
 1949TIP3   OH2 5810   3.517   0.989   3.135
 1949TIP3    H1 5811   3.519   1.003   3.230
 1949TIP3    H2 5812   3.459   0.914   3.123
 1950TIP3   OH2 5813   3.283   3.312   3.396
 1950TIP3    H1 5814   3.353   3.265   3.441
 1950TIP3    H2 5815   3.240   3.362   3.466
 1951TIP3   OH2 5816   4.718   0.298   2.021
 1951TIP3    H1 5817   4.796   0.278   1.970
 1951TIP3    H2 5818   4.747   0.364   2.084
 1952TIP3   OH2 5819   6.205   1.275   3.659
 1952TIP3    H1 5820   6.225   1.333   3.585
 1952TIP3    H2 5821   6.210   1.187   3.623
 1953TIP3   OH2 5822   0.660   1.864   5.681
 1953TIP3    H1 5823   0.729   1.830   5.739
 1953TIP3    H2 5824   0.622   1.786   5.641
 1954TIP3   OH2 5825   6.567   1.901   5.197
 1954TIP3    H1 5826   6.479   1.908   5.232
 1954TIP3    H2 5827   6.577   1.978   5.141
 1955TIP3   OH2 5828   2.282   0.744   2.559
 1955TIP3    H1 5829   2.324   0.696   2.630
 1955TIP3    H2 5830   2.188   0.730   2.572
 1956TIP3   OH2 5831   5.498   3.466   1.554
 1956TIP3    H1 5832   5.431   3.486   1.488
 1956TIP3    H2 5833   5.568   3.529   1.538
 1957TIP3   OH2 5834   6.544   5.647   2.129
 1957TIP3    H1 5835   6.556   5.596   2.210
 1957TIP3    H2 5836   6.473   5.602   2.083
 1958TIP3   OH2 5837   1.807   5.852   4.668
 1958TIP3    H1 5838   1.789   5.784   4.733
 1958TIP3    H2 5839   1.893   5.887   4.694
 1959TIP3   OH2 5840   4.386   0.314   3.814
 1959TIP3    H1 5841   4.335   0.341   3.890
 1959TIP3    H2 5842   4.342   0.235   3.782
 1960TIP3   OH2 5843   7.125   4.176   3.675
 1960TIP3    H1 5844   7.064   4.201   3.744
 1960TIP3    H2 5845   7.155   4.259   3.638
 1961TIP3   OH2 5846   0.169   0.593   3.276
 1961TIP3    H1 5847   0.202   0.670   3.322
 1961TIP3    H2 5848   0.247   0.544   3.252
 1962TIP3   OH2 5849   0.659   5.579   2.418
 1962TIP3    H1 5850   0.593   5.511   2.432
 1962TIP3    H2 5851   0.646   5.606   2.327
 1963TIP3   OH2 5852   2.169   1.980   0.526
 1963TIP3    H1 5853   2.126   1.991   0.441
 1963TIP3    H2 5854   2.134   2.051   0.580
 1964TIP3   OH2 5855   0.625   4.026   0.075
 1964TIP3    H1 5856   0.693   4.048   0.138
 1964TIP3    H2 5857   0.659   4.057  -0.009
 1965TIP3   OH2 5858   5.759   3.147   1.794
 1965TIP3    H1 5859   5.702   3.224   1.785
 1965TIP3    H2 5860   5.779   3.122   1.704
 1966TIP3   OH2 5861   1.273   0.991   0.429
 1966TIP3    H1 5862   1.258   1.085   0.422
 1966TIP3    H2 5863   1.335   0.971   0.358
 1967TIP3   OH2 5864   4.321   6.175   5.003
 1967TIP3    H1 5865   4.375   6.108   5.045
 1967TIP3    H2 5866   4.308   6.242   5.070
 1968TIP3   OH2 5867   4.420   3.042   2.694
 1968TIP3    H1 5868   4.397   2.985   2.620
 1968TIP3    H2 5869   4.405   3.131   2.662
 1969TIP3   OH2 5870   4.827   5.653   4.852
 1969TIP3    H1 5871   4.763   5.589   4.884
 1969TIP3    H2 5872   4.784   5.696   4.779
 1970TIP3   OH2 5873   6.286   0.271   4.904
 1970TIP3    H1 5874   6.254   0.293   4.817
 1970TIP3    H2 5875   6.218   0.213   4.940
 1971TIP3   OH2 5876   5.530   4.500   2.467
 1971TIP3    H1 5877   5.580   4.470   2.542
 1971TIP3    H2 5878   5.553   4.440   2.396
 1972TIP3   OH2 5879   4.071   2.289   5.578
 1972TIP3    H1 5880   4.113   2.312   5.661
 1972TIP3    H2 5881   4.002   2.227   5.603
 1973TIP3   OH2 5882   4.783   3.230   2.446
 1973TIP3    H1 5883   4.725   3.174   2.498
 1973TIP3    H2 5884   4.829   3.283   2.510
 1974TIP3   OH2 5885   3.100   3.229   5.516
 1974TIP3    H1 5886   3.100   3.193   5.427
 1974TIP3    H2 5887   3.038   3.174   5.564
 1975TIP3   OH2 5888   1.426   2.470   0.996
 1975TIP3    H1 5889   1.483   2.401   1.030
 1975TIP3    H2 5890   1.350   2.424   0.962
 1976TIP3   OH2 5891   6.950   3.483   2.930
 1976TIP3    H1 5892   7.026   3.538   2.949
 1976TIP3    H2 5893   6.951   3.473   2.834
 1977TIP3   OH2 5894   5.727   4.213   2.292
 1977TIP3    H1 5895   5.799   4.258   2.334
 1977TIP3    H2 5896   5.758   4.123   2.280
 1978TIP3   OH2 5897   4.870   3.209   5.240
 1978TIP3    H1 5898   4.820   3.129   5.224
 1978TIP3    H2 5899   4.915   3.193   5.323
 1979TIP3   OH2 5900   2.822   2.345   4.043
 1979TIP3    H1 5901   2.873   2.274   4.084
 1979TIP3    H2 5902   2.870   2.425   4.064
 1980TIP3   OH2 5903   2.118   5.535   5.081
 1980TIP3    H1 5904   2.110   5.616   5.030
 1980TIP3    H2 5905   2.171   5.477   5.026
 1981TIP3   OH2 5906   0.824   0.878   4.967
 1981TIP3    H1 5907   0.747   0.852   5.016
 1981TIP3    H2 5908   0.883   0.914   5.033
 1982TIP3   OH2 5909   2.375   6.108   3.303
 1982TIP3    H1 5910   2.390   6.107   3.208
 1982TIP3    H2 5911   2.315   6.035   3.318
 1983TIP3   OH2 5912   4.570   1.166   5.337
 1983TIP3    H1 5913   4.590   1.255   5.310
 1983TIP3    H2 5914   4.486   1.172   5.383
 1984TIP3   OH2 5915   3.290   3.810   4.128
 1984TIP3    H1 5916   3.319   3.892   4.089
 1984TIP3    H2 5917   3.366   3.780   4.178
 1985TIP3   OH2 5918   2.403   3.581   0.746
 1985TIP3    H1 5919   2.387   3.649   0.812
 1985TIP3    H2 5920   2.347   3.607   0.672
 1986TIP3   OH2 5921   1.532   4.366   0.716
 1986TIP3    H1 5922   1.464   4.430   0.738
 1986TIP3    H2 5923   1.601   4.381   0.782
 1987TIP3   OH2 5924   3.515   4.503   5.277
 1987TIP3    H1 5925   3.575   4.565   5.321
 1987TIP3    H2 5926   3.453   4.559   5.231
 1988TIP3   OH2 5927   0.685   1.623   5.083
 1988TIP3    H1 5928   0.733   1.580   5.011
 1988TIP3    H2 5929   0.726   1.709   5.090
 1989TIP3   OH2 5930   5.626   1.740   4.412
 1989TIP3    H1 5931   5.642   1.648   4.434
 1989TIP3    H2 5932   5.552   1.737   4.351
 1990TIP3   OH2 5933   5.180   2.639   4.638
 1990TIP3    H1 5934   5.148   2.624   4.727
 1990TIP3    H2 5935   5.105   2.676   4.591
 1991TIP3   OH2 5936   3.426   4.184   1.862
 1991TIP3    H1 5937   3.378   4.107   1.833
 1991TIP3    H2 5938   3.407   4.192   1.955
 1992TIP3   OH2 5939   4.824   5.062   1.124
 1992TIP3    H1 5940   4.784   5.065   1.037
 1992TIP3    H2 5941   4.916   5.041   1.107
 1993TIP3   OH2 5942   7.137   4.642   0.614
 1993TIP3    H1 5943   7.195   4.672   0.544
 1993TIP3    H2 5944   7.049   4.649   0.577
 1994TIP3   OH2 5945   3.730   3.857   2.796
 1994TIP3    H1 5946   3.704   3.935   2.844
 1994TIP3    H2 5947   3.655   3.797   2.805
 1995TIP3   OH2 5948   3.856   5.677   2.955
 1995TIP3    H1 5949   3.792   5.729   3.004
 1995TIP3    H2 5950   3.862   5.594   3.003
 1996TIP3   OH2 5951   3.484   4.236   1.160
 1996TIP3    H1 5952   3.424   4.287   1.106
 1996TIP3    H2 5953   3.510   4.163   1.104
 1997TIP3   OH2 5954   2.435   0.890   0.811
 1997TIP3    H1 5955   2.415   0.924   0.724
 1997TIP3    H2 5956   2.378   0.814   0.821
 1998TIP3   OH2 5957   4.816   3.251   0.786
 1998TIP3    H1 5958   4.776   3.194   0.852
 1998TIP3    H2 5959   4.791   3.339   0.814
 1999TIP3   OH2 5960   3.478   1.952   0.831
 1999TIP3    H1 5961   3.519   2.033   0.861
 1999TIP3    H2 5962   3.417   1.980   0.764
 2000TIP3   OH2 5963   3.841   3.043   3.705
 2000TIP3    H1 5964   3.893   3.092   3.769
 2000TIP3    H2 5965   3.872   2.953   3.713
 2001TIP3   OH2 5966   2.194   0.199   4.327
 2001TIP3    H1 5967   2.250   0.215   4.252
 2001TIP3    H2 5968   2.244   0.141   4.384
 2002TIP3   OH2 5969   3.447   2.569   0.051
 2002TIP3    H1 5970   3.510   2.512   0.095
 2002TIP3    H2 5971   3.485   2.657   0.058
 2003TIP3   OH2 5972   7.144   5.698   1.101
 2003TIP3    H1 5973   7.215   5.663   1.046
 2003TIP3    H2 5974   7.181   5.776   1.141
 2004TIP3   OH2 5975   3.127   1.094   4.208
 2004TIP3    H1 5976   3.158   1.069   4.121
 2004TIP3    H2 5977   3.042   1.052   4.216
 2005TIP3   OH2 5978   0.603   1.323   2.462
 2005TIP3    H1 5979   0.656   1.269   2.521
 2005TIP3    H2 5980   0.660   1.396   2.439
 2006TIP3   OH2 5981   2.642   0.121   3.067
 2006TIP3    H1 5982   2.640   0.215   3.052
 2006TIP3    H2 5983   2.687   0.111   3.151
 2007TIP3   OH2 5984   0.162   4.758   4.657
 2007TIP3    H1 5985   0.088   4.746   4.597
 2007TIP3    H2 5986   0.174   4.853   4.662
 2008TIP3   OH2 5987   2.149   1.112   5.479
 2008TIP3    H1 5988   2.232   1.084   5.516
 2008TIP3    H2 5989   2.158   1.207   5.467
 2009TIP3   OH2 5990   6.080   5.182   2.964
 2009TIP3    H1 5991   5.988   5.195   2.944
 2009TIP3    H2 5992   6.100   5.246   3.032
 2010TIP3   OH2 5993   5.938   1.325   0.131
 2010TIP3    H1 5994   5.980   1.247   0.095
 2010TIP3    H2 5995   5.964   1.395   0.072
 2011TIP3   OH2 5996   1.388   4.729   3.878
 2011TIP3    H1 5997   1.335   4.762   3.805
 2011TIP3    H2 5998   1.476   4.763   3.861
 2012TIP3   OH2 5999   3.358   4.191   5.835
 2012TIP3    H1 6000   3.342   4.105   5.796
 2012TIP3    H2 6001   3.276   4.213   5.880
 2013TIP3   OH2 6002   2.825   5.453   3.287
 2013TIP3    H1 6003   2.799   5.434   3.376
 2013TIP3    H2 6004   2.842   5.367   3.247
 2014TIP3   OH2 6005   3.508   4.989   1.355
 2014TIP3    H1 6006   3.571   4.968   1.287
 2014TIP3    H2 6007   3.560   5.028   1.425
 2015TIP3   OH2 6008   6.640   1.810   0.163
 2015TIP3    H1 6009   6.553   1.836   0.131
 2015TIP3    H2 6010   6.646   1.717   0.143
 2016TIP3   OH2 6011   5.393   1.990   1.491
 2016TIP3    H1 6012   5.367   1.983   1.583
 2016TIP3    H2 6013   5.485   2.018   1.494
 2017TIP3   OH2 6014   2.160   5.659   5.601
 2017TIP3    H1 6015   2.151   5.638   5.508
 2017TIP3    H2 6016   2.110   5.739   5.613
 2018TIP3   OH2 6017   5.845   5.646   4.225
 2018TIP3    H1 6018   5.826   5.729   4.268
 2018TIP3    H2 6019   5.791   5.582   4.271
 2019TIP3   OH2 6020   4.591   4.316   2.488
 2019TIP3    H1 6021   4.655   4.379   2.521
 2019TIP3    H2 6022   4.629   4.285   2.406
 2020TIP3   OH2 6023   0.439   2.134   1.758
 2020TIP3    H1 6024   0.516   2.192   1.762
 2020TIP3    H2 6025   0.425   2.107   1.849
 2021TIP3   OH2 6026   6.520   2.882   3.417
 2021TIP3    H1 6027   6.569   2.811   3.376
 2021TIP3    H2 6028   6.555   2.961   3.377
 2022TIP3   OH2 6029   2.697   3.060   1.917
 2022TIP3    H1 6030   2.751   3.109   1.979
 2022TIP3    H2 6031   2.743   2.977   1.905
 2023TIP3   OH2 6032   5.631   5.839   5.341
 2023TIP3    H1 6033   5.576   5.791   5.279
 2023TIP3    H2 6034   5.582   5.919   5.360
 2024TIP3   OH2 6035   1.003   3.747   3.356
 2024TIP3    H1 6036   1.074   3.738   3.419
 2024TIP3    H2 6037   0.926   3.769   3.408
 2025TIP3   OH2 6038   4.170   5.846   5.608
 2025TIP3    H1 6039   4.244   5.797   5.644
 2025TIP3    H2 6040   4.184   5.936   5.637
 2026TIP3   OH2 6041   2.707   5.588   1.545
 2026TIP3    H1 6042   2.798   5.615   1.530
 2026TIP3    H2 6043   2.681   5.543   1.465
 2027TIP3   OH2 6044   3.325   0.627   5.572
 2027TIP3    H1 6045   3.265   0.554   5.556
 2027TIP3    H2 6046   3.411   0.586   5.584
 2028TIP3   OH2 6047   3.399   6.171   4.236
 2028TIP3    H1 6048   3.355   6.255   4.246
 2028TIP3    H2 6049   3.382   6.146   4.145
 2029TIP3   OH2 6050   2.774   0.210   0.832
 2029TIP3    H1 6051   2.855   0.262   0.832
 2029TIP3    H2 6052   2.705   0.274   0.814
 2030TIP3   OH2 6053   1.880   4.862   3.287
 2030TIP3    H1 6054   1.955   4.879   3.230
 2030TIP3    H2 6055   1.918   4.830   3.369
 2031TIP3   OH2 6056   0.413   0.100   3.492
 2031TIP3    H1 6057   0.393   0.189   3.521
 2031TIP3    H2 6058   0.438   0.054   3.572
 2032TIP3   OH2 6059   3.858   5.789   1.591
 2032TIP3    H1 6060   3.865   5.738   1.672
 2032TIP3    H2 6061   3.938   5.842   1.589
 2033TIP3   OH2 6062   1.113   4.809   0.964
 2033TIP3    H1 6063   1.148   4.880   0.910
 2033TIP3    H2 6064   1.054   4.852   1.025
 2034TIP3   OH2 6065   6.287   0.199   1.364
 2034TIP3    H1 6066   6.318   0.110   1.349
 2034TIP3    H2 6067   6.245   0.195   1.450
 2035TIP3   OH2 6068   5.575   0.606   4.872
 2035TIP3    H1 6069   5.655   0.563   4.843
 2035TIP3    H2 6070   5.598   0.699   4.877
 2036TIP3   OH2 6071   6.859   2.618   5.876
 2036TIP3    H1 6072   6.785   2.645   5.822
 2036TIP3    H2 6073   6.919   2.574   5.815
 2037TIP3   OH2 6074   2.504   3.393   1.933
 2037TIP3    H1 6075   2.451   3.473   1.932
 2037TIP3    H2 6076   2.530   3.384   2.025
 2038TIP3   OH2 6077   5.655   6.529   5.048
 2038TIP3    H1 6078   5.743   6.555   5.023
 2038TIP3    H2 6079   5.612   6.508   4.965
 2039TIP3   OH2 6080   2.432   0.762   3.662
 2039TIP3    H1 6081   2.404   0.728   3.746
 2039TIP3    H2 6082   2.359   0.745   3.603
 2040TIP3   OH2 6083   6.053   0.268   4.479
 2040TIP3    H1 6084   5.958   0.278   4.494
 2040TIP3    H2 6085   6.061   0.187   4.429
 2041TIP3   OH2 6086   4.918   6.553   5.111
 2041TIP3    H1 6087   4.860   6.508   5.050
 2041TIP3    H2 6088   4.987   6.490   5.131
 2042TIP3   OH2 6089   5.502   6.389   1.113
 2042TIP3    H1 6090   5.479   6.441   1.036
 2042TIP3    H2 6091   5.464   6.437   1.187
 2043TIP3   OH2 6092   0.897   3.017   2.729
 2043TIP3    H1 6093   0.934   2.992   2.814
 2043TIP3    H2 6094   0.922   2.945   2.671
 2044TIP3   OH2 6095   6.761   6.114   5.503
 2044TIP3    H1 6096   6.797   6.177   5.440
 2044TIP3    H2 6097   6.678   6.152   5.531
 2045TIP3   OH2 6098   0.116   4.734   3.335
 2045TIP3    H1 6099   0.126   4.717   3.429
 2045TIP3    H2 6100   0.056   4.666   3.305
 2046TIP3   OH2 6101   7.042   0.355   1.466
 2046TIP3    H1 6102   6.988   0.320   1.537
 2046TIP3    H2 6103   7.053   0.281   1.406
 2047TIP3   OH2 6104   0.116   3.609   4.288
 2047TIP3    H1 6105   0.033   3.615   4.336
 2047TIP3    H2 6106   0.155   3.526   4.316
 2048TIP3   OH2 6107   2.437   3.081   0.259
 2048TIP3    H1 6108   2.446   3.057   0.351
 2048TIP3    H2 6109   2.343   3.073   0.241
 2049TIP3   OH2 6110   5.452   1.483   2.838
 2049TIP3    H1 6111   5.365   1.484   2.879
 2049TIP3    H2 6112   5.447   1.550   2.770
 2050TIP3   OH2 6113   6.778   3.599   1.168
 2050TIP3    H1 6114   6.789   3.512   1.208
 2050TIP3    H2 6115   6.706   3.587   1.105
 2051TIP3   OH2 6116   3.462   0.395   1.439
 2051TIP3    H1 6117   3.412   0.398   1.521
 2051TIP3    H2 6118   3.548   0.430   1.462
 2052TIP3   OH2 6119   1.393   2.155   0.139
 2052TIP3    H1 6120   1.403   2.244   0.104
 2052TIP3    H2 6121   1.481   2.118   0.136
 2053TIP3   OH2 6122   6.849   1.811   4.720
 2053TIP3    H1 6123   6.768   1.857   4.744
 2053TIP3    H2 6124   6.851   1.734   4.777
 2054TIP3   OH2 6125   4.141   4.058   0.308
 2054TIP3    H1 6126   4.078   3.999   0.266
 2054TIP3    H2 6127   4.169   4.117   0.237
 2055TIP3   OH2 6128   1.014   0.921   2.096
 2055TIP3    H1 6129   1.062   0.884   2.022
 2055TIP3    H2 6130   0.972   0.999   2.061
 2056TIP3   OH2 6131   2.966   3.608   4.632
 2056TIP3    H1 6132   3.008   3.636   4.713
 2056TIP3    H2 6133   2.872   3.622   4.647
 2057TIP3   OH2 6134   2.115   6.822   3.890
 2057TIP3    H1 6135   2.037   6.848   3.842
 2057TIP3    H2 6136   2.087   6.747   3.942
 2058TIP3   OH2 6137   3.481   6.483   0.888
 2058TIP3    H1 6138   3.414   6.482   0.819
 2058TIP3    H2 6139   3.454   6.553   0.947
 2059TIP3   OH2 6140   1.445   1.505   3.141
 2059TIP3    H1 6141   1.457   1.538   3.052
 2059TIP3    H2 6142   1.523   1.534   3.188
 2060TIP3   OH2 6143   5.419   3.207   5.499
 2060TIP3    H1 6144   5.446   3.189   5.409
 2060TIP3    H2 6145   5.406   3.120   5.539
 2061TIP3   OH2 6146   5.637   4.970   4.138
 2061TIP3    H1 6147   5.591   5.017   4.068
 2061TIP3    H2 6148   5.677   5.038   4.191
 2062TIP3   OH2 6149   2.003   3.975   0.859
 2062TIP3    H1 6150   1.911   3.957   0.840
 2062TIP3    H2 6151   2.008   4.069   0.873
 2063TIP3   OH2 6152   2.164   5.815   1.549
 2063TIP3    H1 6153   2.213   5.897   1.551
 2063TIP3    H2 6154   2.179   5.779   1.461
 2064TIP3   OH2 6155   1.629   1.765   4.694
 2064TIP3    H1 6156   1.710   1.799   4.731
 2064TIP3    H2 6157   1.654   1.732   4.608
 2065TIP3   OH2 6158   0.520   3.658   1.623
 2065TIP3    H1 6159   0.436   3.669   1.667
 2065TIP3    H2 6160   0.503   3.681   1.531
 2066TIP3   OH2 6161   0.431   4.907   5.318
 2066TIP3    H1 6162   0.403   4.986   5.364
 2066TIP3    H2 6163   0.461   4.849   5.388
 2067TIP3   OH2 6164   6.407   3.915   5.339
 2067TIP3    H1 6165   6.374   4.002   5.363
 2067TIP3    H2 6166   6.488   3.932   5.291
 2068TIP3   OH2 6167   4.258   1.609   1.200
 2068TIP3    H1 6168   4.347   1.629   1.173
 2068TIP3    H2 6169   4.258   1.515   1.219
 2069TIP3   OH2 6170   4.172   6.056   5.822
 2069TIP3    H1 6171   4.256   6.019   5.851
 2069TIP3    H2 6172   4.109   6.024   5.887
 2070TIP3   OH2 6173   2.126   0.966   0.208
 2070TIP3    H1 6174   2.157   1.000   0.293
 2070TIP3    H2 6175   2.160   1.028   0.144
 2071TIP3   OH2 6176   1.406   2.926   3.146
 2071TIP3    H1 6177   1.377   2.834   3.145
 2071TIP3    H2 6178   1.330   2.975   3.113
 2072TIP3   OH2 6179   2.493   1.130   1.510
 2072TIP3    H1 6180   2.460   1.191   1.444
 2072TIP3    H2 6181   2.422   1.120   1.573
 2073TIP3   OH2 6182   5.139   1.953   4.617
 2073TIP3    H1 6183   5.100   1.980   4.533
 2073TIP3    H2 6184   5.233   1.953   4.600
 2074TIP3   OH2 6185   5.799   1.445   5.605
 2074TIP3    H1 6186   5.834   1.475   5.522
 2074TIP3    H2 6187   5.704   1.457   5.597
 2075TIP3   OH2 6188   7.200   4.474   0.291
 2075TIP3    H1 6189   7.238   4.473   0.203
 2075TIP3    H2 6190   7.251   4.538   0.339
 2076TIP3   OH2 6191   5.248   5.058   3.865
 2076TIP3    H1 6192   5.216   4.996   3.930
 2076TIP3    H2 6193   5.342   5.061   3.879
 2077TIP3   OH2 6194   6.695   2.704   0.853
 2077TIP3    H1 6195   6.606   2.731   0.880
 2077TIP3    H2 6196   6.753   2.749   0.915
 2078TIP3   OH2 6197   0.047   1.061   0.081
 2078TIP3    H1 6198   0.087   0.975   0.098
 2078TIP3    H2 6199   0.056   1.108   0.164
 2079TIP3   OH2 6200   5.346   3.395   0.456
 2079TIP3    H1 6201   5.284   3.466   0.470
 2079TIP3    H2 6202   5.292   3.318   0.441
 2080TIP3   OH2 6203   6.495   5.958   3.034
 2080TIP3    H1 6204   6.501   5.870   2.996
 2080TIP3    H2 6205   6.574   5.965   3.089
 2081TIP3   OH2 6206   4.446   1.352   1.761
 2081TIP3    H1 6207   4.488   1.325   1.843
 2081TIP3    H2 6208   4.352   1.355   1.782
 2082TIP3   OH2 6209   4.829   1.777   2.293
 2082TIP3    H1 6210   4.745   1.741   2.269
 2082TIP3    H2 6211   4.885   1.701   2.308
 2083TIP3   OH2 6212   0.907   4.937   0.690
 2083TIP3    H1 6213   0.933   5.027   0.671
 2083TIP3    H2 6214   0.929   4.888   0.610
 2084TIP3   OH2 6215   6.075   1.641   0.055
 2084TIP3    H1 6216   6.161   1.624   0.093
 2084TIP3    H2 6217   6.015   1.633   0.129
 2085TIP3   OH2 6218   3.287   0.675   2.048
 2085TIP3    H1 6219   3.220   0.743   2.052
 2085TIP3    H2 6220   3.320   0.667   2.137
 2086TIP3   OH2 6221   6.913   3.705   1.854
 2086TIP3    H1 6222   6.972   3.748   1.793
 2086TIP3    H2 6223   6.826   3.737   1.830
 2087TIP3   OH2 6224   5.339   2.439   2.484
 2087TIP3    H1 6225   5.288   2.518   2.468
 2087TIP3    H2 6226   5.366   2.410   2.397
 2088TIP3   OH2 6227   4.103   5.783   2.036
 2088TIP3    H1 6228   4.182   5.730   2.051
 2088TIP3    H2 6229   4.132   5.873   2.053
 2089TIP3   OH2 6230   5.841   0.363   2.005
 2089TIP3    H1 6231   5.922   0.371   2.056
 2089TIP3    H2 6232   5.822   0.451   1.975
 2090TIP3   OH2 6233   3.620   4.697   2.991
 2090TIP3    H1 6234   3.563   4.760   3.034
 2090TIP3    H2 6235   3.614   4.718   2.898
 2091TIP3   OH2 6236   4.691   4.069   5.466
 2091TIP3    H1 6237   4.734   3.986   5.483
 2091TIP3    H2 6238   4.704   4.085   5.372
 2092TIP3   OH2 6239   1.978   5.968   3.128
 2092TIP3    H1 6240   1.933   5.900   3.178
 2092TIP3    H2 6241   1.963   6.048   3.178
 2093TIP3   OH2 6242   4.928   2.267   3.424
 2093TIP3    H1 6243   4.846   2.218   3.436
 2093TIP3    H2 6244   4.903   2.343   3.371
 2094TIP3   OH2 6245   0.535   0.349   5.737
 2094TIP3    H1 6246   0.588   0.381   5.810
 2094TIP3    H2 6247   0.478   0.283   5.776
 2095TIP3   OH2 6248   2.821   2.753   0.199
 2095TIP3    H1 6249   2.801   2.660   0.211
 2095TIP3    H2 6250   2.916   2.758   0.211
 2096TIP3   OH2 6251   1.772   5.852   5.069
 2096TIP3    H1 6252   1.763   5.762   5.038
 2096TIP3    H2 6253   1.687   5.892   5.054
 2097TIP3   OH2 6254   1.410   0.567   5.476
 2097TIP3    H1 6255   1.374   0.650   5.504
 2097TIP3    H2 6256   1.379   0.556   5.386
 2098TIP3   OH2 6257   2.620   4.443   0.989
 2098TIP3    H1 6258   2.642   4.502   0.916
 2098TIP3    H2 6259   2.705   4.414   1.022
 2099TIP3   OH2 6260   5.834   1.152   1.481
 2099TIP3    H1 6261   5.857   1.195   1.564
 2099TIP3    H2 6262   5.794   1.069   1.507
 2100TIP3   OH2 6263   6.234   1.729   2.975
 2100TIP3    H1 6264   6.182   1.808   2.958
 2100TIP3    H2 6265   6.169   1.665   3.004
 2101TIP3   OH2 6266   0.707   4.896   5.306
 2101TIP3    H1 6267   0.617   4.895   5.274
 2101TIP3    H2 6268   0.761   4.901   5.227
 2102TIP3   OH2 6269   2.547   1.727   1.921
 2102TIP3    H1 6270   2.499   1.810   1.915
 2102TIP3    H2 6271   2.578   1.724   2.012
 2103TIP3   OH2 6272   0.202   3.225   3.037
 2103TIP3    H1 6273   0.180   3.280   3.112
 2103TIP3    H2 6274   0.245   3.148   3.076
 2104TIP3   OH2 6275   0.978   6.797   4.652
 2104TIP3    H1 6276   0.961   6.758   4.566
 2104TIP3    H2 6277   0.894   6.831   4.680
 2105TIP3   OH2 6278   1.957   2.356   5.782
 2105TIP3    H1 6279   1.981   2.313   5.701
 2105TIP3    H2 6280   1.870   2.322   5.803
 2106TIP3   OH2 6281   6.739   0.734   2.354
 2106TIP3    H1 6282   6.808   0.774   2.302
 2106TIP3    H2 6283   6.755   0.640   2.349
 2107TIP3   OH2 6284   2.612   3.768   1.149
 2107TIP3    H1 6285   2.665   3.726   1.082
 2107TIP3    H2 6286   2.603   3.702   1.218
 2108TIP3   OH2 6287   4.622   3.701   3.218
 2108TIP3    H1 6288   4.682   3.683   3.290
 2108TIP3    H2 6289   4.617   3.796   3.214
 2109TIP3   OH2 6290   0.050   3.892   4.847
 2109TIP3    H1 6291  -0.004   3.912   4.924
 2109TIP3    H2 6292   0.136   3.928   4.869
 2110TIP3   OH2 6293   2.546   6.739   0.976
 2110TIP3    H1 6294   2.528   6.795   0.900
 2110TIP3    H2 6295   2.514   6.790   1.050
 2111TIP3   OH2 6296   0.896   1.061   3.606
 2111TIP3    H1 6297   0.985   1.065   3.642
 2111TIP3    H2 6298   0.839   1.077   3.681
 2112TIP3   OH2 6299   4.279   5.850   0.616
 2112TIP3    H1 6300   4.343   5.830   0.684
 2112TIP3    H2 6301   4.217   5.911   0.658
 2113TIP3   OH2 6302   3.418   5.222   0.254
 2113TIP3    H1 6303   3.480   5.207   0.183
 2113TIP3    H2 6304   3.360   5.291   0.221
 2114TIP3   OH2 6305   0.615   0.332   5.474
 2114TIP3    H1 6306   0.685   0.379   5.519
 2114TIP3    H2 6307   0.545   0.325   5.539
 2115TIP3   OH2 6308   1.395   5.579   2.914
 2115TIP3    H1 6309   1.484   5.550   2.894
 2115TIP3    H2 6310   1.388   5.666   2.874
 2116TIP3   OH2 6311   1.280   0.593   5.235
 2116TIP3    H1 6312   1.274   0.643   5.154
 2116TIP3    H2 6313   1.220   0.519   5.223
 2117TIP3   OH2 6314   3.337   2.859   2.026
 2117TIP3    H1 6315   3.342   2.866   2.121
 2117TIP3    H2 6316   3.413   2.806   2.001
 2118TIP3   OH2 6317   4.274   2.574   3.421
 2118TIP3    H1 6318   4.360   2.539   3.398
 2118TIP3    H2 6319   4.292   2.636   3.493
 2119TIP3   OH2 6320   5.093   2.370   0.662
 2119TIP3    H1 6321   5.132   2.338   0.744
 2119TIP3    H2 6322   5.000   2.381   0.684
 2120TIP3   OH2 6323   6.275   1.605   0.645
 2120TIP3    H1 6324   6.231   1.584   0.727
 2120TIP3    H2 6325   6.233   1.549   0.580
 2121TIP3   OH2 6326   3.658   6.438   3.225
 2121TIP3    H1 6327   3.715   6.362   3.215
 2121TIP3    H2 6328   3.666   6.485   3.142
 2122TIP3   OH2 6329   4.431   1.852   5.855
 2122TIP3    H1 6330   4.505   1.909   5.832
 2122TIP3    H2 6331   4.358   1.912   5.871
 2123TIP3   OH2 6332   0.941   5.654   2.409
 2123TIP3    H1 6333   0.912   5.615   2.326
 2123TIP3    H2 6334   1.032   5.626   2.418
 2124TIP3   OH2 6335   5.582   0.726   4.118
 2124TIP3    H1 6336   5.627   0.806   4.091
 2124TIP3    H2 6337   5.644   0.656   4.098
 2125TIP3   OH2 6338   1.814   6.611   5.318
 2125TIP3    H1 6339   1.758   6.670   5.269
 2125TIP3    H2 6340   1.896   6.659   5.330
 2126TIP3   OH2 6341   2.524   6.494   0.211
 2126TIP3    H1 6342   2.502   6.522   0.123
 2126TIP3    H2 6343   2.583   6.419   0.199
 2127TIP3   OH2 6344   0.464   5.610   0.890
 2127TIP3    H1 6345   0.527   5.543   0.863
 2127TIP3    H2 6346   0.457   5.599   0.985
 2128TIP3   OH2 6347   4.576   0.909   4.562
 2128TIP3    H1 6348   4.554   0.933   4.472
 2128TIP3    H2 6349   4.533   0.824   4.575
 2129TIP3   OH2 6350   5.607   2.450   4.636
 2129TIP3    H1 6351   5.613   2.417   4.546
 2129TIP3    H2 6352   5.571   2.538   4.628
 2130TIP3   OH2 6353   5.925   0.084   1.957
 2130TIP3    H1 6354   6.014   0.114   1.975
 2130TIP3    H2 6355   5.871   0.163   1.964
 2131TIP3   OH2 6356   0.701   5.495   2.007
 2131TIP3    H1 6357   0.734   5.585   1.999
 2131TIP3    H2 6358   0.608   5.505   2.024
 2132TIP3   OH2 6359   1.967   0.907   5.528
 2132TIP3    H1 6360   2.031   0.966   5.488
 2132TIP3    H2 6361   1.930   0.858   5.455
 2133TIP3   OH2 6362   5.367   6.373   1.730
 2133TIP3    H1 6363   5.276   6.347   1.717
 2133TIP3    H2 6364   5.414   6.334   1.656
 2134TIP3   OH2 6365   3.934   0.938   0.327
 2134TIP3    H1 6366   3.987   0.859   0.323
 2134TIP3    H2 6367   3.918   0.951   0.420
 2135TIP3   OH2 6368   6.394   4.182   0.714
 2135TIP3    H1 6369   6.357   4.211   0.630
 2135TIP3    H2 6370   6.439   4.100   0.692
 2136TIP3   OH2 6371   0.247   3.674   2.920
 2136TIP3    H1 6372   0.275   3.621   2.995
 2136TIP3    H2 6373   0.313   3.658   2.853
 2137TIP3   OH2 6374   2.982   3.804   2.939
 2137TIP3    H1 6375   2.976   3.721   2.985
 2137TIP3    H2 6376   2.966   3.870   3.007
 2138TIP3   OH2 6377   3.930   5.295   4.680
 2138TIP3    H1 6378   3.879   5.372   4.706
 2138TIP3    H2 6379   4.021   5.319   4.699
 2139TIP3   OH2 6380   4.477   4.366   4.762
 2139TIP3    H1 6381   4.430   4.437   4.718
 2139TIP3    H2 6382   4.461   4.289   4.708
 2140TIP3   OH2 6383   2.271   4.031   0.806
 2140TIP3    H1 6384   2.340   3.972   0.836
 2140TIP3    H2 6385   2.189   3.987   0.829
 2141TIP3   OH2 6386   7.247   0.377   0.822
 2141TIP3    H1 6387   7.241   0.366   0.917
 2141TIP3    H2 6388   7.171   0.331   0.788
 2142TIP3   OH2 6389   3.125   6.844   1.550
 2142TIP3    H1 6390   3.207   6.795   1.548
 2142TIP3    H2 6391   3.061   6.783   1.587
 2143TIP3   OH2 6392   4.990   4.525   4.200
 2143TIP3    H1 6393   4.941   4.568   4.130
 2143TIP3    H2 6394   5.082   4.538   4.176
 2144TIP3   OH2 6395   6.286   3.576   2.654
 2144TIP3    H1 6396   6.320   3.592   2.566
 2144TIP3    H2 6397   6.205   3.526   2.640
 2145TIP3   OH2 6398   3.496   1.662   0.778
 2145TIP3    H1 6399   3.404   1.636   0.788
 2145TIP3    H2 6400   3.495   1.757   0.780
 2146TIP3   OH2 6401   5.153   1.572   4.196
 2146TIP3    H1 6402   5.153   1.623   4.115
 2146TIP3    H2 6403   5.121   1.632   4.263
 2147TIP3   OH2 6404   0.185   0.453   5.035
 2147TIP3    H1 6405   0.226   0.440   4.949
 2147TIP3    H2 6406   0.215   0.379   5.087
 2148TIP3   OH2 6407   5.856   6.120   1.715
 2148TIP3    H1 6408   5.892   6.207   1.697
 2148TIP3    H2 6409   5.933   6.066   1.738
 2149TIP3   OH2 6410   0.984   5.418   5.470
 2149TIP3    H1 6411   0.971   5.346   5.409
 2149TIP3    H2 6412   0.906   5.472   5.460
 2150TIP3   OH2 6413   0.938   0.798   1.113
 2150TIP3    H1 6414   0.991   0.808   1.034
 2150TIP3    H2 6415   0.849   0.782   1.080
 2151TIP3   OH2 6416   6.151   0.454   3.079
 2151TIP3    H1 6417   6.110   0.372   3.107
 2151TIP3    H2 6418   6.143   0.512   3.154
 2152TIP3   OH2 6419   6.841   0.228   1.609
 2152TIP3    H1 6420   6.887   0.161   1.660
 2152TIP3    H2 6421   6.764   0.183   1.574
 2153TIP3   OH2 6422   5.091   5.160   0.782
 2153TIP3    H1 6423   5.129   5.085   0.829
 2153TIP3    H2 6424   5.119   5.147   0.691
 2154TIP3   OH2 6425   4.909   3.626   3.767
 2154TIP3    H1 6426   4.839   3.635   3.831
 2154TIP3    H2 6427   4.984   3.595   3.817
 2155TIP3   OH2 6428   1.007   6.231   4.774
 2155TIP3    H1 6429   1.009   6.291   4.849
 2155TIP3    H2 6430   0.940   6.167   4.798
 2156TIP3   OH2 6431   6.550   5.258   3.811
 2156TIP3    H1 6432   6.641   5.228   3.818
 2156TIP3    H2 6433   6.505   5.215   3.883
 2157TIP3   OH2 6434   1.524   1.206   3.459
 2157TIP3    H1 6435   1.578   1.251   3.524
 2157TIP3    H2 6436   1.437   1.202   3.499
 2158TIP3   OH2 6437   1.782   5.736   2.923
 2158TIP3    H1 6438   1.732   5.816   2.937
 2158TIP3    H2 6439   1.751   5.676   2.991
 2159TIP3   OH2 6440   3.369   3.099   3.220
 2159TIP3    H1 6441   3.368   3.141   3.134
 2159TIP3    H2 6442   3.357   3.171   3.282
 2160TIP3   OH2 6443   1.758   3.042   1.695
 2160TIP3    H1 6444   1.762   2.990   1.614
 2160TIP3    H2 6445   1.695   3.112   1.675
 2161TIP3   OH2 6446   4.809   3.240   5.691
 2161TIP3    H1 6447   4.790   3.210   5.779
 2161TIP3    H2 6448   4.803   3.336   5.696
 2162TIP3   OH2 6449   4.879   1.118   1.465
 2162TIP3    H1 6450   4.921   1.189   1.417
 2162TIP3    H2 6451   4.821   1.161   1.527
 2163TIP3   OH2 6452   1.914   2.725   2.734
 2163TIP3    H1 6453   1.933   2.657   2.669
 2163TIP3    H2 6454   1.839   2.690   2.782
 2164TIP3   OH2 6455   0.660   0.669   2.134
 2164TIP3    H1 6456   0.596   0.651   2.203
 2164TIP3    H2 6457   0.745   0.653   2.176
 2165TIP3   OH2 6458   7.024   2.174   5.585
 2165TIP3    H1 6459   7.108   2.219   5.578
 2165TIP3    H2 6460   7.046   2.081   5.592
 2166TIP3   OH2 6461   5.853   6.577   1.014
 2166TIP3    H1 6462   5.936   6.550   1.054
 2166TIP3    H2 6463   5.878   6.644   0.950
 2167TIP3   OH2 6464   0.928   3.141   3.062
 2167TIP3    H1 6465   0.971   3.136   3.147
 2167TIP3    H2 6466   0.865   3.070   3.063
 2168TIP3   OH2 6467   1.421   2.855   1.495
 2168TIP3    H1 6468   1.388   2.937   1.533
 2168TIP3    H2 6469   1.460   2.882   1.412
 2169TIP3   OH2 6470   4.321   5.717   3.244
 2169TIP3    H1 6471   4.403   5.725   3.196
 2169TIP3    H2 6472   4.253   5.722   3.176
 2170TIP3   OH2 6473   1.974   4.055   1.757
 2170TIP3    H1 6474   1.964   4.042   1.662
 2170TIP3    H2 6475   1.893   4.100   1.783
 2171TIP3   OH2 6476   3.387   5.121   5.761
 2171TIP3    H1 6477   3.298   5.103   5.731
 2171TIP3    H2 6478   3.385   5.102   5.855
 2172TIP3   OH2 6479   4.377   6.135   3.655
 2172TIP3    H1 6480   4.348   6.159   3.743
 2172TIP3    H2 6481   4.321   6.187   3.597
 2173TIP3   OH2 6482   5.163   3.436   4.751
 2173TIP3    H1 6483   5.248   3.442   4.794
 2173TIP3    H2 6484   5.110   3.505   4.791
 2174TIP3   OH2 6485   5.080   3.904   2.849
 2174TIP3    H1 6486   5.014   3.841   2.877
 2174TIP3    H2 6487   5.089   3.964   2.923
 2175TIP3   OH2 6488   5.478   4.601   3.505
 2175TIP3    H1 6489   5.478   4.679   3.560
 2175TIP3    H2 6490   5.502   4.529   3.563
 2176TIP3   OH2 6491   4.830   6.118   0.144
 2176TIP3    H1 6492   4.883   6.111   0.064
 2176TIP3    H2 6493   4.800   6.028   0.160
 2177TIP3   OH2 6494   3.664   5.174   3.477
 2177TIP3    H1 6495   3.678   5.079   3.480
 2177TIP3    H2 6496   3.652   5.193   3.384
 2178TIP3   OH2 6497   4.722   4.157   4.569
 2178TIP3    H1 6498   4.789   4.091   4.551
 2178TIP3    H2 6499   4.677   4.125   4.648
 2179TIP3   OH2 6500   4.574   3.416   0.086
 2179TIP3    H1 6501   4.640   3.436   0.019
 2179TIP3    H2 6502   4.600   3.332   0.122
 2180TIP3   OH2 6503   3.391   1.340   5.621
 2180TIP3    H1 6504   3.356   1.297   5.699
 2180TIP3    H2 6505   3.415   1.268   5.562
 2181TIP3   OH2 6506   0.233   2.783   1.740
 2181TIP3    H1 6507   0.237   2.873   1.706
 2181TIP3    H2 6508   0.205   2.731   1.665
 2182TIP3   OH2 6509   0.991   5.145   3.160
 2182TIP3    H1 6510   0.993   5.192   3.244
 2182TIP3    H2 6511   1.071   5.174   3.115
 2183TIP3   OH2 6512   5.605   4.049   0.888
 2183TIP3    H1 6513   5.566   4.057   0.801
 2183TIP3    H2 6514   5.650   4.132   0.903
 2184TIP3   OH2 6515   6.082   2.346   0.797
 2184TIP3    H1 6516   6.042   2.316   0.878
 2184TIP3    H2 6517   6.127   2.427   0.821
 2185TIP3   OH2 6518   5.999   3.029   0.441
 2185TIP3    H1 6519   5.942   2.954   0.421
 2185TIP3    H2 6520   5.966   3.061   0.525
 2186TIP3   OH2 6521   0.976   0.387   3.531
 2186TIP3    H1 6522   1.026   0.327   3.476
 2186TIP3    H2 6523   1.043   0.434   3.582
 2187TIP3   OH2 6524   1.019   0.016   5.725
 2187TIP3    H1 6525   1.004  -0.076   5.747
 2187TIP3    H2 6526   0.933   0.049   5.698
 2188TIP3   OH2 6527   3.640   0.213   5.466
 2188TIP3    H1 6528   3.627   0.130   5.420
 2188TIP3    H2 6529   3.721   0.199   5.516
 2189TIP3   OH2 6530   1.657   2.815   0.500
 2189TIP3    H1 6531   1.736   2.788   0.547
 2189TIP3    H2 6532   1.655   2.757   0.424
 2190TIP3   OH2 6533   6.357   3.871   1.153
 2190TIP3    H1 6534   6.262   3.884   1.145
 2190TIP3    H2 6535   6.365   3.781   1.186
 2191TIP3   OH2 6536   0.141   1.130   3.490
 2191TIP3    H1 6537   0.208   1.096   3.430
 2191TIP3    H2 6538   0.065   1.147   3.434
 2192TIP3   OH2 6539   7.025   4.844   3.244
 2192TIP3    H1 6540   7.072   4.761   3.238
 2192TIP3    H2 6541   6.948   4.832   3.188
 2193TIP3   OH2 6542   3.118   1.615   4.481
 2193TIP3    H1 6543   3.138   1.691   4.427
 2193TIP3    H2 6544   3.100   1.545   4.418
 2194TIP3   OH2 6545   0.795   6.241   2.965
 2194TIP3    H1 6546   0.732   6.241   2.892
 2194TIP3    H2 6547   0.760   6.305   3.027
 2195TIP3   OH2 6548   5.225   4.213   1.572
 2195TIP3    H1 6549   5.236   4.176   1.485
 2195TIP3    H2 6550   5.269   4.298   1.569
 2196TIP3   OH2 6551   5.272   4.394   1.825
 2196TIP3    H1 6552   5.344   4.453   1.803
 2196TIP3    H2 6553   5.194   4.449   1.820
 2197TIP3   OH2 6554   0.176   2.229   1.089
 2197TIP3    H1 6555   0.254   2.270   1.127
 2197TIP3    H2 6556   0.172   2.263   0.999
 2198TIP3   OH2 6557   3.154   5.613   0.654
 2198TIP3    H1 6558   3.205   5.583   0.729
 2198TIP3    H2 6559   3.218   5.623   0.584
 2199TIP3   OH2 6560   3.264   1.210   1.263
 2199TIP3    H1 6561   3.341   1.155   1.265
 2199TIP3    H2 6562   3.207   1.176   1.333
 2200TIP3   OH2 6563   0.240   4.734   1.765
 2200TIP3    H1 6564   0.219   4.735   1.858
 2200TIP3    H2 6565   0.193   4.658   1.731
 2201TIP3   OH2 6566   1.866   3.661   3.931
 2201TIP3    H1 6567   1.869   3.746   3.886
 2201TIP3    H2 6568   1.893   3.680   4.021
 2202TIP3   OH2 6569   4.681   5.502   2.254
 2202TIP3    H1 6570   4.589   5.526   2.255
 2202TIP3    H2 6571   4.704   5.490   2.347
 2203TIP3   OH2 6572   3.786   3.353   4.766
 2203TIP3    H1 6573   3.736   3.272   4.758
 2203TIP3    H2 6574   3.731   3.419   4.723
 2204TIP3   OH2 6575   3.165   0.458   1.308
 2204TIP3    H1 6576   3.193   0.496   1.224
 2204TIP3    H2 6577   3.210   0.373   1.311
 2205TIP3   OH2 6578   6.801   2.917   1.029
 2205TIP3    H1 6579   6.841   2.946   1.111
 2205TIP3    H2 6580   6.844   2.969   0.961
 2206TIP3   OH2 6581   3.923   4.995   0.432
 2206TIP3    H1 6582   3.898   4.971   0.522
 2206TIP3    H2 6583   3.920   4.912   0.384
 2207TIP3   OH2 6584   2.190   5.221   1.627
 2207TIP3    H1 6585   2.268   5.221   1.572
 2207TIP3    H2 6586   2.186   5.309   1.664
 2208TIP3   OH2 6587   3.074   4.665   3.249
 2208TIP3    H1 6588   3.001   4.628   3.298
 2208TIP3    H2 6589   3.051   4.758   3.237
 2209TIP3   OH2 6590   0.678   4.160   4.954
 2209TIP3    H1 6591   0.615   4.208   5.006
 2209TIP3    H2 6592   0.675   4.202   4.868
 2210TIP3   OH2 6593   3.323   2.924   1.111
 2210TIP3    H1 6594   3.265   2.884   1.176
 2210TIP3    H2 6595   3.383   2.978   1.162
 2211TIP3   OH2 6596   4.313   6.623   0.227
 2211TIP3    H1 6597   4.354   6.631   0.141
 2211TIP3    H2 6598   4.225   6.591   0.209
 2212TIP3   OH2 6599   0.023   1.980   0.792
 2212TIP3    H1 6600   0.103   1.950   0.749
 2212TIP3    H2 6601   0.001   2.061   0.746
 2213TIP3   OH2 6602   6.623   0.512   1.584
 2213TIP3    H1 6603   6.605   0.471   1.668
 2213TIP3    H2 6604   6.657   0.441   1.529
 2214TIP3   OH2 6605   6.618   0.507   5.295
 2214TIP3    H1 6606   6.587   0.519   5.205
 2214TIP3    H2 6607   6.561   0.563   5.347
 2215TIP3   OH2 6608   6.596   0.344   1.803
 2215TIP3    H1 6609   6.611   0.373   1.893
 2215TIP3    H2 6610   6.650   0.265   1.793
 2216TIP3   OH2 6611   1.448   0.373   0.060
 2216TIP3    H1 6612   1.505   0.396  -0.013
 2216TIP3    H2 6613   1.385   0.311   0.023
 2217TIP3   OH2 6614   3.339   6.491   5.349
 2217TIP3    H1 6615   3.343   6.526   5.259
 2217TIP3    H2 6616   3.269   6.541   5.391
 2218TIP3   OH2 6617   3.985   3.702   2.707
 2218TIP3    H1 6618   3.982   3.663   2.794
 2218TIP3    H2 6619   3.903   3.751   2.700
 2219TIP3   OH2 6620   6.353   6.368   3.692
 2219TIP3    H1 6621   6.380   6.431   3.626
 2219TIP3    H2 6622   6.316   6.295   3.642
 2220TIP3   OH2 6623   2.575   2.849   2.528
 2220TIP3    H1 6624   2.499   2.812   2.573
 2220TIP3    H2 6625   2.585   2.937   2.565
 2221TIP3   OH2 6626   3.590   6.136   4.877
 2221TIP3    H1 6627   3.616   6.061   4.931
 2221TIP3    H2 6628   3.638   6.210   4.915
 2222TIP3   OH2 6629   4.204   2.118   1.015
 2222TIP3    H1 6630   4.187   2.197   0.963
 2222TIP3    H2 6631   4.259   2.064   0.958
 2223TIP3   OH2 6632   1.652   0.750   5.459
 2223TIP3    H1 6633   1.674   0.835   5.421
 2223TIP3    H2 6634   1.605   0.704   5.389
 2224TIP3   OH2 6635   6.294   2.730   3.420
 2224TIP3    H1 6636   6.212   2.779   3.423
 2224TIP3    H2 6637   6.359   2.793   3.389
 2225TIP3   OH2 6638   5.012   6.312   4.468
 2225TIP3    H1 6639   5.038   6.330   4.559
 2225TIP3    H2 6640   5.064   6.236   4.443
 2226TIP3   OH2 6641   3.309   0.188   1.895
 2226TIP3    H1 6642   3.384   0.231   1.854
 2226TIP3    H2 6643   3.308   0.221   1.985
 2227TIP3   OH2 6644   4.801   3.278   1.479
 2227TIP3    H1 6645   4.750   3.333   1.538
 2227TIP3    H2 6646   4.875   3.332   1.453
 2228TIP3   OH2 6647   0.759   0.691   2.405
 2228TIP3    H1 6648   0.771   0.782   2.433
 2228TIP3    H2 6649   0.664   0.679   2.405
 2229TIP3   OH2 6650   0.379   0.718   4.372
 2229TIP3    H1 6651   0.418   0.684   4.452
 2229TIP3    H2 6652   0.379   0.813   4.383
 2230TIP3   OH2 6653   0.800   0.607   5.173
 2230TIP3    H1 6654   0.830   0.524   5.210
 2230TIP3    H2 6655   0.865   0.671   5.200
 2231TIP3   OH2 6656   2.104   4.423   4.333
 2231TIP3    H1 6657   2.184   4.470   4.312
 2231TIP3    H2 6658   2.037   4.463   4.278
 2232TIP3   OH2 6659   0.027   3.822   3.763
 2232TIP3    H1 6660   0.036   3.830   3.858
 2232TIP3    H2 6661   0.067   3.738   3.742
 2233TIP3   OH2 6662   5.254   1.537   5.503
 2233TIP3    H1 6663   5.285   1.607   5.447
 2233TIP3    H2 6664   5.179   1.500   5.457
 2234TIP3   OH2 6665   0.014   2.596   3.073
 2234TIP3    H1 6666  -0.020   2.685   3.083
 2234TIP3    H2 6667   0.088   2.605   3.012
 2235TIP3   OH2 6668   6.570   2.028   0.620
 2235TIP3    H1 6669   6.570   2.015   0.525
 2235TIP3    H2 6670   6.536   1.946   0.655
 2236TIP3   OH2 6671   5.551   6.460   5.518
 2236TIP3    H1 6672   5.589   6.432   5.601
 2236TIP3    H2 6673   5.485   6.394   5.498
 2237TIP3   OH2 6674   4.981   5.950   5.268
 2237TIP3    H1 6675   4.997   5.868   5.315
 2237TIP3    H2 6676   4.953   6.012   5.336
 2238TIP3   OH2 6677   1.226   3.118   3.061
 2238TIP3    H1 6678   1.285   3.149   2.993
 2238TIP3    H2 6679   1.194   3.197   3.104
 2239TIP3   OH2 6680   2.084   4.754   5.617
 2239TIP3    H1 6681   2.147   4.824   5.628
 2239TIP3    H2 6682   2.121   4.679   5.664
 2240TIP3   OH2 6683   4.875   4.604   0.590
 2240TIP3    H1 6684   4.850   4.603   0.683
 2240TIP3    H2 6685   4.898   4.513   0.571
 2241TIP3   OH2 6686   2.028   3.134   1.583
 2241TIP3    H1 6687   2.013   3.075   1.508
 2241TIP3    H2 6688   2.054   3.075   1.654
 2242TIP3   OH2 6689   4.544   2.962   3.421
 2242TIP3    H1 6690   4.500   2.989   3.341
 2242TIP3    H2 6691   4.570   3.043   3.463
 2243TIP3   OH2 6692   1.543   4.963   1.817
 2243TIP3    H1 6693   1.516   4.871   1.828
 2243TIP3    H2 6694   1.499   5.010   1.888
 2244TIP3   OH2 6695   0.998   4.407   5.854
 2244TIP3    H1 6696   1.025   4.468   5.785
 2244TIP3    H2 6697   1.078   4.391   5.904
 2245TIP3   OH2 6698   6.738   5.509   3.003
 2245TIP3    H1 6699   6.654   5.545   3.032
 2245TIP3    H2 6700   6.775   5.577   2.947
 2246TIP3   OH2 6701   4.823   5.656   4.000
 2246TIP3    H1 6702   4.889   5.723   4.020
 2246TIP3    H2 6703   4.747   5.705   3.970
 2247TIP3   OH2 6704   6.373   0.474   2.038
 2247TIP3    H1 6705   6.456   0.521   2.026
 2247TIP3    H2 6706   6.394   0.404   2.100
 2248TIP3   OH2 6707   6.539   2.808   1.619
 2248TIP3    H1 6708   6.590   2.791   1.540
 2248TIP3    H2 6709   6.565   2.740   1.680
 2249TIP3   OH2 6710   5.595   3.473   3.495
 2249TIP3    H1 6711   5.682   3.496   3.530
 2249TIP3    H2 6712   5.564   3.554   3.454
 2250TIP3   OH2 6713   2.415   3.709   2.654
 2250TIP3    H1 6714   2.486   3.762   2.691
 2250TIP3    H2 6715   2.347   3.773   2.632
 2251TIP3   OH2 6716   1.356   2.319   4.254
 2251TIP3    H1 6717   1.383   2.355   4.170
 2251TIP3    H2 6718   1.438   2.301   4.300
 2252TIP3   OH2 6719   2.448   6.687   4.125
 2252TIP3    H1 6720   2.358   6.701   4.153
 2252TIP3    H2 6721   2.500   6.746   4.180
 2253TIP3   OH2 6722   0.121   1.682   3.809
 2253TIP3    H1 6723   0.189   1.622   3.838
 2253TIP3    H2 6724   0.078   1.709   3.891
 2254TIP3   OH2 6725   6.535   6.427   0.426
 2254TIP3    H1 6726   6.597   6.450   0.495
 2254TIP3    H2 6727   6.540   6.500   0.364
 2255TIP3   OH2 6728   6.662   2.032   4.779
 2255TIP3    H1 6729   6.706   2.024   4.864
 2255TIP3    H2 6730   6.577   2.070   4.800
 2256TIP3   OH2 6731   3.028   2.932   3.349
 2256TIP3    H1 6732   3.053   3.019   3.319
 2256TIP3    H2 6733   2.975   2.896   3.278
 2257TIP3   OH2 6734   7.071   6.298   3.967
 2257TIP3    H1 6735   7.035   6.210   3.959
 2257TIP3    H2 6736   7.033   6.333   4.047
 2258TIP3   OH2 6737   3.998   0.118   1.098
 2258TIP3    H1 6738   3.981   0.024   1.105
 2258TIP3    H2 6739   3.917   0.159   1.128
 2259TIP3   OH2 6740   5.882   3.529   3.790
 2259TIP3    H1 6741   5.869   3.554   3.698
 2259TIP3    H2 6742   5.870   3.610   3.839
 2260TIP3   OH2 6743   3.183   0.792   2.825
 2260TIP3    H1 6744   3.129   0.778   2.903
 2260TIP3    H2 6745   3.152   0.875   2.789
 2261TIP3   OH2 6746   4.035   2.312   2.717
 2261TIP3    H1 6747   4.052   2.367   2.640
 2261TIP3    H2 6748   3.979   2.367   2.773
 2262TIP3   OH2 6749   6.853   4.834   3.877
 2262TIP3    H1 6750   6.932   4.873   3.912
 2262TIP3    H2 6751   6.859   4.742   3.902
 2263TIP3   OH2 6752   0.945   3.193   3.377
 2263TIP3    H1 6753   0.957   3.104   3.342
 2263TIP3    H2 6754   1.033   3.221   3.402
 2264TIP3   OH2 6755   5.222   6.157   5.794
 2264TIP3    H1 6756   5.145   6.153   5.850
 2264TIP3    H2 6757   5.207   6.232   5.737
 2265TIP3   OH2 6758   3.891   2.828   2.067
 2265TIP3    H1 6759   3.912   2.758   2.004
 2265TIP3    H2 6760   3.798   2.846   2.053
 2266TIP3   OH2 6761   3.122   2.285   5.613
 2266TIP3    H1 6762   3.170   2.256   5.535
 2266TIP3    H2 6763   3.134   2.214   5.676
 2267TIP3   OH2 6764   6.562   5.665   4.336
 2267TIP3    H1 6765   6.505   5.615   4.394
 2267TIP3    H2 6766   6.529   5.647   4.248
 2268TIP3   OH2 6767   3.965   6.547   3.513
 2268TIP3    H1 6768   3.873   6.523   3.501
 2268TIP3    H2 6769   4.009   6.513   3.435
 2269TIP3   OH2 6770   0.259   3.255   2.767
 2269TIP3    H1 6771   0.255   3.240   2.861
 2269TIP3    H2 6772   0.212   3.338   2.754
 2270TIP3   OH2 6773   3.502   4.202   4.184
 2270TIP3    H1 6774   3.468   4.251   4.109
 2270TIP3    H2 6775   3.589   4.175   4.157
 2271TIP3   OH2 6776   0.332   6.440   1.471
 2271TIP3    H1 6777   0.392   6.487   1.529
 2271TIP3    H2 6778   0.380   6.430   1.389
 2272TIP3   OH2 6779   7.172   2.047   2.275
 2272TIP3    H1 6780   7.124   2.039   2.357
 2272TIP3    H2 6781   7.147   2.132   2.240
 2273TIP3   OH2 6782   1.267   1.951   3.401
 2273TIP3    H1 6783   1.330   2.006   3.448
 2273TIP3    H2 6784   1.316   1.872   3.378
 2274TIP3   OH2 6785   5.024   2.707   3.983
 2274TIP3    H1 6786   4.988   2.795   3.997
 2274TIP3    H2 6787   5.111   2.721   3.947
 2275TIP3   OH2 6788   2.953   5.030   5.235
 2275TIP3    H1 6789   2.933   5.007   5.145
 2275TIP3    H2 6790   2.875   5.004   5.285
 2276TIP3   OH2 6791   1.937   0.047   0.689
 2276TIP3    H1 6792   1.969   0.120   0.742
 2276TIP3    H2 6793   1.901  -0.015   0.752
 2277TIP3   OH2 6794   6.148   3.818   2.253
 2277TIP3    H1 6795   6.091   3.750   2.216
 2277TIP3    H2 6796   6.104   3.846   2.333
 2278TIP3   OH2 6797   3.421   1.745   4.544
 2278TIP3    H1 6798   3.478   1.782   4.610
 2278TIP3    H2 6799   3.384   1.667   4.585
 2279TIP3   OH2 6800   4.619   1.291   3.717
 2279TIP3    H1 6801   4.555   1.348   3.674
 2279TIP3    H2 6802   4.657   1.239   3.646
 2280TIP3   OH2 6803   2.914   5.918   4.744
 2280TIP3    H1 6804   2.968   5.996   4.759
 2280TIP3    H2 6805   2.970   5.845   4.768
 2281TIP3   OH2 6806   0.768   4.566   1.435
 2281TIP3    H1 6807   0.816   4.632   1.385
 2281TIP3    H2 6808   0.690   4.612   1.466
 2282TIP3   OH2 6809   7.177   0.960   1.937
 2282TIP3    H1 6810   7.131   1.031   1.981
 2282TIP3    H2 6811   7.109   0.914   1.887
 2283TIP3   OH2 6812   3.297   6.339   2.886
 2283TIP3    H1 6813   3.365   6.396   2.850
 2283TIP3    H2 6814   3.333   6.251   2.881
 2284TIP3   OH2 6815   4.102   3.257   2.920
 2284TIP3    H1 6816   4.093   3.176   2.869
 2284TIP3    H2 6817   4.191   3.287   2.902
 2285TIP3   OH2 6818   0.319   2.391   4.862
 2285TIP3    H1 6819   0.374   2.438   4.798
 2285TIP3    H2 6820   0.380   2.369   4.933
 2286TIP3   OH2 6821   2.582   1.953   5.391
 2286TIP3    H1 6822   2.566   1.881   5.330
 2286TIP3    H2 6823   2.504   1.956   5.446
 2287TIP3   OH2 6824   0.433   6.716   0.755
 2287TIP3    H1 6825   0.342   6.702   0.730
 2287TIP3    H2 6826   0.439   6.810   0.775
 2288TIP3   OH2 6827   0.066   0.685   2.567
 2288TIP3    H1 6828   0.132   0.718   2.627
 2288TIP3    H2 6829  -0.005   0.654   2.623
 2289TIP3   OH2 6830   1.264   6.089   3.818
 2289TIP3    H1 6831   1.204   6.145   3.769
 2289TIP3    H2 6832   1.262   6.125   3.907
 2290TIP3   OH2 6833   3.123   1.001   3.343
 2290TIP3    H1 6834   3.077   0.985   3.261
 2290TIP3    H2 6835   3.064   0.967   3.410
 2291TIP3   OH2 6836   5.880   0.126   2.868
 2291TIP3    H1 6837   5.794   0.130   2.909
 2291TIP3    H2 6838   5.876   0.050   2.810
 2292TIP3   OH2 6839   6.517   3.736   1.614
 2292TIP3    H1 6840   6.583   3.744   1.683
 2292TIP3    H2 6841   6.450   3.678   1.651
 2293TIP3   OH2 6842   0.248   3.475   1.526
 2293TIP3    H1 6843   0.165   3.438   1.556
 2293TIP3    H2 6844   0.238   3.569   1.536
 2294TIP3   OH2 6845   3.767   3.321   0.306
 2294TIP3    H1 6846   3.693   3.263   0.290
 2294TIP3    H2 6847   3.743   3.403   0.264
 2295TIP3   OH2 6848   0.241   2.892   4.285
 2295TIP3    H1 6849   0.191   2.860   4.360
 2295TIP3    H2 6850   0.179   2.888   4.212
 2296TIP3   OH2 6851   0.947   6.062   5.628
 2296TIP3    H1 6852   0.907   5.994   5.684
 2296TIP3    H2 6853   1.017   6.016   5.582
 2297TIP3   OH2 6854   5.525   5.834   3.459
 2297TIP3    H1 6855   5.447   5.881   3.487
 2297TIP3    H2 6856   5.514   5.746   3.494
 2298TIP3   OH2 6857   1.528   0.820   3.249
 2298TIP3    H1 6858   1.568   0.845   3.332
 2298TIP3    H2 6859   1.590   0.849   3.183
 2299TIP3   OH2 6860   2.119   2.899   1.763
 2299TIP3    H1 6861   2.027   2.902   1.790
 2299TIP3    H2 6862   2.137   2.805   1.753
 2300TIP3   OH2 6863   2.251   0.718   2.276
 2300TIP3    H1 6864   2.329   0.670   2.247
 2300TIP3    H2 6865   2.257   0.720   2.371
 2301TIP3   OH2 6866   6.228   3.308   5.081
 2301TIP3    H1 6867   6.214   3.214   5.090
 2301TIP3    H2 6868   6.281   3.317   5.001
 2302TIP3   OH2 6869   4.884   3.812   3.429
 2302TIP3    H1 6870   4.905   3.836   3.519
 2302TIP3    H2 6871   4.801   3.856   3.411
 2303TIP3   OH2 6872   3.363   4.756   1.888
 2303TIP3    H1 6873   3.280   4.722   1.855
 2303TIP3    H2 6874   3.429   4.703   1.845
 2304TIP3   OH2 6875   1.011   4.842   5.263
 2304TIP3    H1 6876   1.030   4.755   5.297
 2304TIP3    H2 6877   1.021   4.900   5.338
 2305TIP3   OH2 6878   5.196   2.589   4.283
 2305TIP3    H1 6879   5.127   2.555   4.340
 2305TIP3    H2 6880   5.270   2.529   4.296
 2306TIP3   OH2 6881   3.821   6.221   2.310
 2306TIP3    H1 6882   3.776   6.137   2.303
 2306TIP3    H2 6883   3.884   6.221   2.239
 2307TIP3   OH2 6884   0.414   2.100   4.654
 2307TIP3    H1 6885   0.369   2.039   4.595
 2307TIP3    H2 6886   0.366   2.182   4.644
 2308TIP3   OH2 6887   3.895   4.678   4.272
 2308TIP3    H1 6888   3.812   4.669   4.226
 2308TIP3    H2 6889   3.875   4.655   4.363
 2309TIP3   OH2 6890   4.891   0.999   0.566
 2309TIP3    H1 6891   4.866   1.091   0.573
 2309TIP3    H2 6892   4.843   0.956   0.637
 2310TIP3   OH2 6893   1.026   1.713   1.635
 2310TIP3    H1 6894   1.120   1.716   1.614
 2310TIP3    H2 6895   0.986   1.671   1.558
 2311TIP3   OH2 6896   0.160   4.591   3.944
 2311TIP3    H1 6897   0.226   4.524   3.959
 2311TIP3    H2 6898   0.209   4.673   3.944
 2312TIP3   OH2 6899   3.281   5.363   0.558
 2312TIP3    H1 6900   3.297   5.407   0.642
 2312TIP3    H2 6901   3.315   5.274   0.571
 2313TIP3   OH2 6902   6.290   3.629   0.179
 2313TIP3    H1 6903   6.325   3.682   0.251
 2313TIP3    H2 6904   6.195   3.642   0.184
 2314TIP3   OH2 6905   3.811   1.974   3.553
 2314TIP3    H1 6906   3.888   1.997   3.501
 2314TIP3    H2 6907   3.758   1.919   3.495
 2315TIP3   OH2 6908   5.331   6.275   2.448
 2315TIP3    H1 6909   5.408   6.330   2.433
 2315TIP3    H2 6910   5.257   6.330   2.425
 2316TIP3   OH2 6911   3.413   5.110   0.631
 2316TIP3    H1 6912   3.508   5.120   0.624
 2316TIP3    H2 6913   3.395   5.106   0.725
 2317TIP3   OH2 6914   3.482   2.997   0.723
 2317TIP3    H1 6915   3.488   2.901   0.729
 2317TIP3    H2 6916   3.559   3.028   0.771
 2318TIP3   OH2 6917   6.342   4.657   3.257
 2318TIP3    H1 6918   6.342   4.641   3.162
 2318TIP3    H2 6919   6.343   4.570   3.296
 2319TIP3   OH2 6920   1.925   2.561   4.938
 2319TIP3    H1 6921   1.931   2.571   4.843
 2319TIP3    H2 6922   1.888   2.644   4.968
 2320TIP3   OH2 6923   2.889   1.018   0.333
 2320TIP3    H1 6924   2.827   1.014   0.406
 2320TIP3    H2 6925   2.955   1.082   0.361
 2321TIP3   OH2 6926   3.543   1.259   4.275
 2321TIP3    H1 6927   3.506   1.326   4.217
 2321TIP3    H2 6928   3.581   1.309   4.347
 2322TIP3   OH2 6929   0.488   1.645   1.671
 2322TIP3    H1 6930   0.522   1.655   1.582
 2322TIP3    H2 6931   0.549   1.695   1.725
 2323TIP3   OH2 6932   5.666   1.523   4.138
 2323TIP3    H1 6933   5.571   1.535   4.145
 2323TIP3    H2 6934   5.695   1.511   4.229
 2324TIP3   OH2 6935   4.805   1.133   2.337
 2324TIP3    H1 6936   4.880   1.104   2.388
 2324TIP3    H2 6937   4.775   1.054   2.293
 2325TIP3   OH2 6938   5.743   3.312   0.399
 2325TIP3    H1 6939   5.706   3.401   0.398
 2325TIP3    H2 6940   5.730   3.282   0.489
 2326TIP3   OH2 6941   6.299   5.181   1.349
 2326TIP3    H1 6942   6.244   5.124   1.296
 2326TIP3    H2 6943   6.248   5.261   1.359
 2327TIP3   OH2 6944   0.685   3.401   2.133
 2327TIP3    H1 6945   0.639   3.381   2.214
 2327TIP3    H2 6946   0.737   3.322   2.115
 2328TIP3   OH2 6947   7.129   1.872   5.886
 2328TIP3    H1 6948   7.074   1.899   5.812
 2328TIP3    H2 6949   7.193   1.812   5.848
 2329TIP3   OH2 6950   1.937   1.233   0.229
 2329TIP3    H1 6951   1.867   1.297   0.240
 2329TIP3    H2 6952   1.980   1.260   0.147
 2330TIP3   OH2 6953   5.425   4.968   1.969
 2330TIP3    H1 6954   5.410   4.928   2.055
 2330TIP3    H2 6955   5.350   5.027   1.957
 2331TIP3   OH2 6956   5.213   0.193   5.800
 2331TIP3    H1 6957   5.168   0.224   5.721
 2331TIP3    H2 6958   5.253   0.271   5.837
 2332TIP3   OH2 6959   6.713   3.834   2.232
 2332TIP3    H1 6960   6.619   3.819   2.224
 2332TIP3    H2 6961   6.733   3.898   2.164
 2333TIP3   OH2 6962   0.995   3.528   1.301
 2333TIP3    H1 6963   1.060   3.566   1.242
 2333TIP3    H2 6964   0.974   3.598   1.362
 2334TIP3   OH2 6965   1.873   6.138   0.743
 2334TIP3    H1 6966   1.853   6.096   0.659
 2334TIP3    H2 6967   1.788   6.163   0.779
 2335TIP3   OH2 6968   0.044   2.716   1.132
 2335TIP3    H1 6969   0.120   2.673   1.172
 2335TIP3    H2 6970  -0.012   2.739   1.206
 2336TIP3   OH2 6971   6.466   4.228   4.446
 2336TIP3    H1 6972   6.532   4.270   4.391
 2336TIP3    H2 6973   6.382   4.250   4.405
 2337TIP3   OH2 6974   4.035   2.553   1.553
 2337TIP3    H1 6975   3.993   2.473   1.584
 2337TIP3    H2 6976   3.975   2.588   1.487
 2338TIP3   OH2 6977   3.832   5.413   5.173
 2338TIP3    H1 6978   3.901   5.420   5.107
 2338TIP3    H2 6979   3.771   5.349   5.137
 2339TIP3   OH2 6980   3.796   6.206   5.591
 2339TIP3    H1 6981   3.702   6.195   5.578
 2339TIP3    H2 6982   3.835   6.127   5.553
 2340TIP3   OH2 6983   3.291   1.926   5.199
 2340TIP3    H1 6984   3.345   1.960   5.271
 2340TIP3    H2 6985   3.324   1.971   5.122
 2341TIP3   OH2 6986   5.844   2.281   3.791
 2341TIP3    H1 6987   5.899   2.359   3.778
 2341TIP3    H2 6988   5.894   2.226   3.852
 2342TIP3   OH2 6989   3.169   4.610   2.469
 2342TIP3    H1 6990   3.220   4.689   2.449
 2342TIP3    H2 6991   3.133   4.627   2.556
 2343TIP3   OH2 6992   2.189   5.620   4.721
 2343TIP3    H1 6993   2.195   5.536   4.767
 2343TIP3    H2 6994   2.268   5.667   4.746
 2344TIP3   OH2 6995   6.028   3.972   5.667
 2344TIP3    H1 6996   6.035   4.056   5.712
 2344TIP3    H2 6997   6.117   3.955   5.635
 2345TIP3   OH2 6998   1.702   3.464   5.711
 2345TIP3    H1 6999   1.640   3.486   5.782
 2345TIP3    H2 7000   1.788   3.467   5.753
 2346TIP3   OH2 7001   5.502   4.463   0.359
 2346TIP3    H1 7002   5.582   4.422   0.327
 2346TIP3    H2 7003   5.442   4.389   0.373
 2347TIP3   OH2 7004   4.983   1.053   2.505
 2347TIP3    H1 7005   4.942   1.108   2.572
 2347TIP3    H2 7006   5.058   1.013   2.549
 2348TIP3   OH2 7007   0.234   6.392   4.770
 2348TIP3    H1 7008   0.239   6.304   4.732
 2348TIP3    H2 7009   0.204   6.379   4.860
 2349TIP3   OH2 7010   7.215   5.996   5.234
 2349TIP3    H1 7011   7.205   6.078   5.284
 2349TIP3    H2 7012   7.140   5.995   5.175
 2350TIP3   OH2 7013   0.533   6.785   4.579
 2350TIP3    H1 7014   0.614   6.819   4.618
 2350TIP3    H2 7015   0.518   6.702   4.625
 2351TIP3   OH2 7016   3.844   2.067   1.254
 2351TIP3    H1 7017   3.759   2.087   1.217
 2351TIP3    H2 7018   3.826   2.005   1.325
 2352TIP3   OH2 7019   6.438   0.688   0.107
 2352TIP3    H1 7020   6.485   0.744   0.169
 2352TIP3    H2 7021   6.504   0.626   0.077
 2353TIP3   OH2 7022   7.190   6.516   3.058
 2353TIP3    H1 7023   7.227   6.427   3.053
 2353TIP3    H2 7024   7.266   6.574   3.050
 2354TIP3   OH2 7025   2.837   2.376   1.426
 2354TIP3    H1 7026   2.787   2.354   1.504
 2354TIP3    H2 7027   2.794   2.455   1.392
 2355TIP3   OH2 7028   6.932   3.649   2.344
 2355TIP3    H1 7029   6.869   3.722   2.347
 2355TIP3    H2 7030   6.877   3.571   2.334
 2356TIP3   OH2 7031   2.877   5.445   5.668
 2356TIP3    H1 7032   2.845   5.362   5.702
 2356TIP3    H2 7033   2.803   5.480   5.618
 2357TIP3   OH2 7034   1.158   0.843   1.884
 2357TIP3    H1 7035   1.171   0.927   1.839
 2357TIP3    H2 7036   1.247   0.814   1.906
 2358TIP3   OH2 7037   0.977   1.771   2.070
 2358TIP3    H1 7038   0.907   1.715   2.036
 2358TIP3    H2 7039   0.952   1.789   2.160
 2359TIP3   OH2 7040   3.876   4.498   0.381
 2359TIP3    H1 7041   3.849   4.408   0.402
 2359TIP3    H2 7042   3.962   4.488   0.339
 2360TIP3   OH2 7043   0.701   5.809   0.531
 2360TIP3    H1 7044   0.674   5.884   0.478
 2360TIP3    H2 7045   0.788   5.833   0.564
 2361TIP3   OH2 7046   0.838   6.466   4.649
 2361TIP3    H1 7047   0.752   6.484   4.686
 2361TIP3    H2 7048   0.835   6.373   4.626
 2362TIP3   OH2 7049   0.332   5.914   3.184
 2362TIP3    H1 7050   0.404   5.908   3.122
 2362TIP3    H2 7051   0.343   5.838   3.241
 2363TIP3   OH2 7052   1.460   6.414   4.467
 2363TIP3    H1 7053   1.378   6.436   4.424
 2363TIP3    H2 7054   1.490   6.497   4.506
 2364TIP3   OH2 7055   1.982   0.643   1.233
 2364TIP3    H1 7056   1.912   0.706   1.248
 2364TIP3    H2 7057   2.040   0.652   1.309
 2365TIP3   OH2 7058   4.348   5.810   3.865
 2365TIP3    H1 7059   4.395   5.727   3.856
 2365TIP3    H2 7060   4.309   5.825   3.779
 2366TIP3   OH2 7061   1.082   0.666   1.327
 2366TIP3    H1 7062   1.033   0.711   1.259
 2366TIP3    H2 7063   1.085   0.727   1.401
 2367TIP3   OH2 7064   0.889   6.462   2.239
 2367TIP3    H1 7065   0.880   6.479   2.333
 2367TIP3    H2 7066   0.823   6.394   2.222
 2368TIP3   OH2 7067   4.720   4.487   0.014
 2368TIP3    H1 7068   4.791   4.505   0.076
 2368TIP3    H2 7069   4.764   4.475  -0.070
 2369TIP3   OH2 7070   1.259   0.434   3.071
 2369TIP3    H1 7071   1.341   0.482   3.066
 2369TIP3    H2 7072   1.213   0.473   3.146
 2370TIP3   OH2 7073   1.733   6.532   2.476
 2370TIP3    H1 7074   1.698   6.488   2.552
 2370TIP3    H2 7075   1.788   6.602   2.512
 2371TIP3   OH2 7076   1.099   5.492   2.744
 2371TIP3    H1 7077   1.162   5.464   2.677
 2371TIP3    H2 7078   1.129   5.578   2.771
 2372TIP3   OH2 7079   1.145   4.296   0.082
 2372TIP3    H1 7080   1.119   4.248   0.161
 2372TIP3    H2 7081   1.177   4.380   0.115
 2373TIP3   OH2 7082   4.397   2.745   0.952
 2373TIP3    H1 7083   4.409   2.663   1.000
 2373TIP3    H2 7084   4.446   2.733   0.871
 2374TIP3   OH2 7085   6.772   0.759   4.669
 2374TIP3    H1 7086   6.840   0.786   4.608
 2374TIP3    H2 7087   6.690   0.774   4.621
 2375TIP3   OH2 7088   1.653   2.035   0.105
 2375TIP3    H1 7089   1.739   2.024   0.145
 2375TIP3    H2 7090   1.668   2.090   0.029
 2376TIP3   OH2 7091   5.394   1.761   5.419
 2376TIP3    H1 7092   5.452   1.837   5.426
 2376TIP3    H2 7093   5.369   1.759   5.327
 2377TIP3   OH2 7094   4.017   4.835   4.071
 2377TIP3    H1 7095   4.050   4.906   4.126
 2377TIP3    H2 7096   3.976   4.774   4.131
 2378TIP3   OH2 7097   3.081   4.593   0.570
 2378TIP3    H1 7098   3.016   4.659   0.596
 2378TIP3    H2 7099   3.153   4.645   0.533
 2379TIP3   OH2 7100   4.982   5.272   2.845
 2379TIP3    H1 7101   4.977   5.187   2.889
 2379TIP3    H2 7102   4.897   5.281   2.801
 2380TIP3   OH2 7103   1.577   1.697   2.116
 2380TIP3    H1 7104   1.632   1.644   2.058
 2380TIP3    H2 7105   1.633   1.771   2.141
 2381TIP3   OH2 7106   6.652   1.754   4.454
 2381TIP3    H1 7107   6.707   1.829   4.477
 2381TIP3    H2 7108   6.680   1.731   4.365
 2382TIP3   OH2 7109   5.264   4.622   2.578
 2382TIP3    H1 7110   5.310   4.550   2.623
 2382TIP3    H2 7111   5.192   4.644   2.636
 2383TIP3   OH2 7112   5.913   3.481   5.785
 2383TIP3    H1 7113   5.940   3.517   5.869
 2383TIP3    H2 7114   5.914   3.555   5.725
 2384TIP3   OH2 7115   6.396   3.590   2.384
 2384TIP3    H1 7116   6.430   3.501   2.383
 2384TIP3    H2 7117   6.326   3.590   2.318
 2385TIP3   OH2 7118   5.477   2.940   5.540
 2385TIP3    H1 7119   5.405   2.909   5.485
 2385TIP3    H2 7120   5.510   2.862   5.584
 2386TIP3   OH2 7121   0.316   1.976   2.399
 2386TIP3    H1 7122   0.339   2.059   2.358
 2386TIP3    H2 7123   0.247   1.940   2.344
 2387TIP3   OH2 7124   6.337   3.299   4.824
 2387TIP3    H1 7125   6.376   3.360   4.762
 2387TIP3    H2 7126   6.293   3.234   4.770
 2388TIP3   OH2 7127   3.264   1.333   4.876
 2388TIP3    H1 7128   3.349   1.347   4.919
 2388TIP3    H2 7129   3.245   1.240   4.889
 2389TIP3   OH2 7130   0.877   5.850   4.794
 2389TIP3    H1 7131   0.948   5.791   4.819
 2389TIP3    H2 7132   0.806   5.792   4.767
 2390TIP3   OH2 7133   4.801   1.242   0.512
 2390TIP3    H1 7134   4.870   1.242   0.445
 2390TIP3    H2 7135   4.720   1.253   0.462
 2391TIP3   OH2 7136   2.703   6.245   2.597
 2391TIP3    H1 7137   2.638   6.193   2.549
 2391TIP3    H2 7138   2.740   6.183   2.660
 2392TIP3   OH2 7139   0.207   0.195   5.144
 2392TIP3    H1 7140   0.134   0.171   5.203
 2392TIP3    H2 7141   0.208   0.125   5.079
 2393TIP3   OH2 7142   6.339   0.126   2.494
 2393TIP3    H1 7143   6.430   0.138   2.520
 2393TIP3    H2 7144   6.288   0.151   2.571
 2394TIP3   OH2 7145   0.924   5.007   1.448
 2394TIP3    H1 7146   1.003   5.040   1.491
 2394TIP3    H2 7147   0.880   5.086   1.415
 2395TIP3   OH2 7148   3.349   0.635   0.108
 2395TIP3    H1 7149   3.284   0.610   0.042
 2395TIP3    H2 7150   3.301   0.636   0.190
 2396TIP3   OH2 7151   3.333   2.573   4.843
 2396TIP3    H1 7152   3.388   2.610   4.911
 2396TIP3    H2 7153   3.324   2.643   4.778
 2397TIP3   OH2 7154   0.633   5.071   2.226
 2397TIP3    H1 7155   0.626   5.017   2.305
 2397TIP3    H2 7156   0.705   5.131   2.243
 2398TIP3   OH2 7157   4.459   5.293   4.865
 2398TIP3    H1 7158   4.460   5.238   4.943
 2398TIP3    H2 7159   4.517   5.366   4.887
 2399TIP3   OH2 7160   5.506   5.701   1.467
 2399TIP3    H1 7161   5.539   5.612   1.482
 2399TIP3    H2 7162   5.581   5.749   1.433
 2400TIP3   OH2 7163   2.283   1.228   0.979
 2400TIP3    H1 7164   2.228   1.306   0.985
 2400TIP3    H2 7165   2.229   1.157   1.013
 2401TIP3   OH2 7166   6.906   0.190   5.912
 2401TIP3    H1 7167   6.834   0.175   5.851
 2401TIP3    H2 7168   6.961   0.255   5.868
 2402TIP3   OH2 7169   0.476   4.427   0.380
 2402TIP3    H1 7170   0.531   4.488   0.429
 2402TIP3    H2 7171   0.485   4.453   0.289
 2403TIP3   OH2 7172   0.065   6.680   1.979
 2403TIP3    H1 7173  -0.004   6.618   2.004
 2403TIP3    H2 7174   0.147   6.636   2.003
 2404TIP3   OH2 7175   5.897   1.425   2.338
 2404TIP3    H1 7176   5.822   1.378   2.375
 2404TIP3    H2 7177   5.893   1.407   2.244
 2405TIP3   OH2 7178   4.442   3.819   3.560
 2405TIP3    H1 7179   4.376   3.765   3.601
 2405TIP3    H2 7180   4.459   3.889   3.623
 2406TIP3   OH2 7181   1.309   0.782   1.590
 2406TIP3    H1 7182   1.383   0.815   1.539
 2406TIP3    H2 7183   1.342   0.778   1.680
 2407TIP3   OH2 7184   2.181   3.700   5.558
 2407TIP3    H1 7185   2.145   3.617   5.587
 2407TIP3    H2 7186   2.253   3.718   5.618
 2408TIP3   OH2 7187   1.523   0.776   4.831
 2408TIP3    H1 7188   1.606   0.802   4.791
 2408TIP3    H2 7189   1.534   0.795   4.924
 2409TIP3   OH2 7190   5.019   3.319   5.037
 2409TIP3    H1 7191   4.976   3.274   5.109
 2409TIP3    H2 7192   5.068   3.390   5.079
 2410TIP3   OH2 7193   5.321   2.351   4.356
 2410TIP3    H1 7194   5.310   2.356   4.451
 2410TIP3    H2 7195   5.415   2.343   4.344
 2411TIP3   OH2 7196   2.598   1.479   0.060
 2411TIP3    H1 7197   2.556   1.459   0.143
 2411TIP3    H2 7198   2.622   1.572   0.067
 2412TIP3   OH2 7199   5.536   4.189   3.145
 2412TIP3    H1 7200   5.591   4.227   3.077
 2412TIP3    H2 7201   5.593   4.183   3.221
 2413TIP3   OH2 7202   6.979   3.336   5.631
 2413TIP3    H1 7203   7.063   3.352   5.674
 2413TIP3    H2 7204   7.003   3.292   5.549
 2414TIP3   OH2 7205   0.251   0.734   0.696
 2414TIP3    H1 7206   0.168   0.709   0.657
 2414TIP3    H2 7207   0.283   0.654   0.739
 2415TIP3   OH2 7208   5.597   3.291   3.701
 2415TIP3    H1 7209   5.599   3.383   3.674
 2415TIP3    H2 7210   5.513   3.259   3.670
 2416TIP3   OH2 7211   2.807   4.557   2.050
 2416TIP3    H1 7212   2.892   4.549   2.007
 2416TIP3    H2 7213   2.827   4.566   2.143
 2417TIP3   OH2 7214   0.592   3.850   4.576
 2417TIP3    H1 7215   0.650   3.887   4.510
 2417TIP3    H2 7216   0.507   3.845   4.532
 2418TIP3   OH2 7217   2.490   2.347   5.870
 2418TIP3    H1 7218   2.408   2.396   5.868
 2418TIP3    H2 7219   2.558   2.412   5.851
 2419TIP3   OH2 7220   0.180   5.671   0.840
 2419TIP3    H1 7221   0.161   5.590   0.887
 2419TIP3    H2 7222   0.234   5.722   0.900
 2420TIP3   OH2 7223   4.850   5.822   3.208
 2420TIP3    H1 7224   4.783   5.775   3.258
 2420TIP3    H2 7225   4.885   5.757   3.147
 2421TIP3   OH2 7226   5.553   2.005   0.189
 2421TIP3    H1 7227   5.602   1.928   0.159
 2421TIP3    H2 7228   5.603   2.038   0.264
 2422TIP3   OH2 7229   2.187   5.360   3.483
 2422TIP3    H1 7230   2.118   5.425   3.495
 2422TIP3    H2 7231   2.145   5.290   3.433
 2423TIP3   OH2 7232   6.441   6.127   4.669
 2423TIP3    H1 7233   6.456   6.136   4.763
 2423TIP3    H2 7234   6.528   6.137   4.630
 2424TIP3   OH2 7235   5.151   6.116   3.254
 2424TIP3    H1 7236   5.222   6.164   3.298
 2424TIP3    H2 7237   5.072   6.144   3.300
 2425TIP3   OH2 7238   4.167   2.507   3.856
 2425TIP3    H1 7239   4.179   2.418   3.889
 2425TIP3    H2 7240   4.237   2.518   3.792
 2426TIP3   OH2 7241   1.579   1.306   3.974
 2426TIP3    H1 7242   1.576   1.394   4.013
 2426TIP3    H2 7243   1.672   1.290   3.961
 2427TIP3   OH2 7244   2.467   5.263   3.522
 2427TIP3    H1 7245   2.411   5.215   3.461
 2427TIP3    H2 7246   2.425   5.348   3.532
 2428TIP3   OH2 7247   7.206   4.679   2.661
 2428TIP3    H1 7248   7.207   4.694   2.756
 2428TIP3    H2 7249   7.261   4.749   2.625
 2429TIP3   OH2 7250   5.899   0.066   5.850
 2429TIP3    H1 7251   5.829   0.053   5.786
 2429TIP3    H2 7252   5.886  -0.004   5.914
 2430TIP3   OH2 7253   3.470   1.627   3.375
 2430TIP3    H1 7254   3.474   1.539   3.339
 2430TIP3    H2 7255   3.489   1.616   3.468
 2431TIP3   OH2 7256   6.513   3.740   3.525
 2431TIP3    H1 7257   6.581   3.746   3.457
 2431TIP3    H2 7258   6.433   3.721   3.477
 2432TIP3   OH2 7259   0.687   0.411   3.446
 2432TIP3    H1 7260   0.778   0.439   3.449
 2432TIP3    H2 7261   0.666   0.387   3.536
 2433TIP3   OH2 7262   4.943   0.982   3.042
 2433TIP3    H1 7263   4.941   1.058   2.984
 2433TIP3    H2 7264   4.875   0.924   3.007
 2434TIP3   OH2 7265   2.932   6.109   0.963
 2434TIP3    H1 7266   2.995   6.137   0.897
 2434TIP3    H2 7267   2.850   6.154   0.940
 2435TIP3   OH2 7268   1.855   1.591   2.489
 2435TIP3    H1 7269   1.898   1.656   2.544
 2435TIP3    H2 7270   1.769   1.630   2.469
 2436TIP3   OH2 7271   2.179   4.989   0.793
 2436TIP3    H1 7272   2.222   4.945   0.720
 2436TIP3    H2 7273   2.218   5.076   0.795
 2437TIP3   OH2 7274   3.495   1.003   2.439
 2437TIP3    H1 7275   3.585   0.994   2.469
 2437TIP3    H2 7276   3.485   1.096   2.418
 2438TIP3   OH2 7277   6.145   0.690   3.344
 2438TIP3    H1 7278   6.192   0.772   3.327
 2438TIP3    H2 7279   6.213   0.624   3.353
 2439TIP3   OH2 7280   1.483   4.704   4.366
 2439TIP3    H1 7281   1.418   4.678   4.301
 2439TIP3    H2 7282   1.539   4.768   4.321
 2440TIP3   OH2 7283   5.293   1.888   5.674
 2440TIP3    H1 7284   5.245   1.956   5.627
 2440TIP3    H2 7285   5.341   1.841   5.606
 2441TIP3   OH2 7286   2.502   5.064   3.945
 2441TIP3    H1 7287   2.417   5.051   3.904
 2441TIP3    H2 7288   2.565   5.059   3.873
 2442TIP3   OH2 7289   1.722   6.250   1.538
 2442TIP3    H1 7290   1.668   6.174   1.515
 2442TIP3    H2 7291   1.810   6.213   1.550
 2443TIP3   OH2 7292   0.357   4.587   4.701
 2443TIP3    H1 7293   0.287   4.652   4.701
 2443TIP3    H2 7294   0.335   4.528   4.629
 2444TIP3   OH2 7295   1.868   5.013   0.336
 2444TIP3    H1 7296   1.943   5.017   0.395
 2444TIP3    H2 7297   1.872   5.095   0.287
 2445TIP3   OH2 7298   0.457   3.314   5.327
 2445TIP3    H1 7299   0.543   3.276   5.310
 2445TIP3    H2 7300   0.454   3.392   5.273
 2446TIP3   OH2 7301   4.471   0.580   3.375
 2446TIP3    H1 7302   4.527   0.656   3.382
 2446TIP3    H2 7303   4.420   0.579   3.456
 2447TIP3   OH2 7304   5.097   6.498   0.903
 2447TIP3    H1 7305   5.123   6.409   0.879
 2447TIP3    H2 7306   5.176   6.536   0.943
 2448TIP3   OH2 7307   6.155   3.675   4.054
 2448TIP3    H1 7308   6.193   3.605   3.999
 2448TIP3    H2 7309   6.225   3.740   4.060
 2449TIP3   OH2 7310   2.138   5.356   2.455
 2449TIP3    H1 7311   2.140   5.411   2.378
 2449TIP3    H2 7312   2.046   5.333   2.466
 2450TIP3   OH2 7313   3.024   5.730   3.020
 2450TIP3    H1 7314   3.005   5.705   3.110
 2450TIP3    H2 7315   3.109   5.773   3.023
 2451TIP3   OH2 7316   7.040   3.574   3.547
 2451TIP3    H1 7317   6.977   3.510   3.512
 2451TIP3    H2 7318   7.099   3.522   3.602
 2452TIP3   OH2 7319   5.529   2.088   2.123
 2452TIP3    H1 7320   5.545   2.055   2.212
 2452TIP3    H2 7321   5.560   2.018   2.066
 2453TIP3   OH2 7322   6.853   1.122   3.159
 2453TIP3    H1 7323   6.851   1.120   3.063
 2453TIP3    H2 7324   6.767   1.089   3.185
 2454TIP3   OH2 7325   3.456   0.382   5.565
 2454TIP3    H1 7326   3.441   0.339   5.649
 2454TIP3    H2 7327   3.526   0.330   5.524
 2455TIP3   OH2 7328   1.530   1.666   0.505
 2455TIP3    H1 7329   1.596   1.725   0.541
 2455TIP3    H2 7330   1.491   1.714   0.432
 2456TIP3   OH2 7331   0.184   5.583   3.183
 2456TIP3    H1 7332   0.139   5.599   3.266
 2456TIP3    H2 7333   0.171   5.490   3.167
 2457TIP3   OH2 7334   2.985   0.708   3.987
 2457TIP3    H1 7335   3.058   0.677   4.040
 2457TIP3    H2 7336   3.023   0.724   3.900
 2458TIP3   OH2 7337   7.026   3.990   0.420
 2458TIP3    H1 7338   6.933   3.997   0.398
 2458TIP3    H2 7339   7.071   4.015   0.339
 2459TIP3   OH2 7340   5.046   0.241   3.653
 2459TIP3    H1 7341   4.981   0.284   3.596
 2459TIP3    H2 7342   5.004   0.236   3.738
 2460TIP3   OH2 7343   5.400   3.485   4.871
 2460TIP3    H1 7344   5.468   3.419   4.884
 2460TIP3    H2 7345   5.390   3.526   4.957
 2461TIP3   OH2 7346   2.619   0.814   3.303
 2461TIP3    H1 7347   2.529   0.788   3.283
 2461TIP3    H2 7348   2.672   0.767   3.239
 2462TIP3   OH2 7349   1.805   3.167   4.489
 2462TIP3    H1 7350   1.746   3.243   4.490
 2462TIP3    H2 7351   1.746   3.092   4.489
 2463TIP3   OH2 7352   1.854   1.272   1.827
 2463TIP3    H1 7353   1.946   1.284   1.805
 2463TIP3    H2 7354   1.813   1.245   1.745
 2464TIP3   OH2 7355   2.461   5.738   3.039
 2464TIP3    H1 7356   2.435   5.776   2.955
 2464TIP3    H2 7357   2.378   5.711   3.080
 2465TIP3   OH2 7358   3.041   0.015   2.734
 2465TIP3    H1 7359   3.030  -0.077   2.758
 2465TIP3    H2 7360   3.057   0.060   2.818
 2466TIP3   OH2 7361   0.646   1.958   2.330
 2466TIP3    H1 7362   0.659   1.919   2.417
 2466TIP3    H2 7363   0.567   2.012   2.340
 2467TIP3   OH2 7364   1.357   3.759   2.896
 2467TIP3    H1 7365   1.385   3.678   2.854
 2467TIP3    H2 7366   1.269   3.774   2.863
 2468TIP3   OH2 7367   4.081   3.700   0.464
 2468TIP3    H1 7368   4.159   3.754   0.473
 2468TIP3    H2 7369   4.026   3.747   0.401
 2469TIP3   OH2 7370   5.303   3.473   3.754
 2469TIP3    H1 7371   5.344   3.456   3.839
 2469TIP3    H2 7372   5.313   3.392   3.705
 2470TIP3   OH2 7373   5.057   3.121   0.734
 2470TIP3    H1 7374   5.037   3.098   0.643
 2470TIP3    H2 7375   4.976   3.161   0.766
 2471TIP3   OH2 7376   6.170   2.520   2.971
 2471TIP3    H1 7377   6.156   2.605   3.012
 2471TIP3    H2 7378   6.136   2.457   3.035
 2472TIP3   OH2 7379   2.823   3.729   0.499
 2472TIP3    H1 7380   2.878   3.724   0.421
 2472TIP3    H2 7381   2.879   3.695   0.569
 2473TIP3   OH2 7382   6.332   3.422   4.203
 2473TIP3    H1 7383   6.279   3.345   4.222
 2473TIP3    H2 7384   6.297   3.490   4.260
 2474TIP3   OH2 7385   2.555   2.848   5.066
 2474TIP3    H1 7386   2.544   2.765   5.112
 2474TIP3    H2 7387   2.500   2.910   5.114
 2475TIP3   OH2 7388   5.652   2.048   3.768
 2475TIP3    H1 7389   5.559   2.038   3.787
 2475TIP3    H2 7390   5.691   1.964   3.792
 2476TIP3   OH2 7391   2.866   2.933   5.537
 2476TIP3    H1 7392   2.942   2.902   5.487
 2476TIP3    H2 7393   2.904   2.973   5.615
 2477TIP3   OH2 7394   6.883   0.545   5.318
 2477TIP3    H1 7395   6.804   0.499   5.290
 2477TIP3    H2 7396   6.943   0.537   5.244
 2478TIP3   OH2 7397   3.048   0.830   0.526
 2478TIP3    H1 7398   3.075   0.876   0.606
 2478TIP3    H2 7399   3.008   0.899   0.472
 2479TIP3   OH2 7400   0.584   2.359   0.979
 2479TIP3    H1 7401   0.528   2.369   1.056
 2479TIP3    H2 7402   0.654   2.423   0.992
 2480TIP3   OH2 7403   2.508   2.140   0.674
 2480TIP3    H1 7404   2.540   2.223   0.638
 2480TIP3    H2 7405   2.476   2.162   0.761
 2481TIP3   OH2 7406   5.785   0.850   3.931
 2481TIP3    H1 7407   5.873   0.836   3.967
 2481TIP3    H2 7408   5.773   0.945   3.935
 2482TIP3   OH2 7409   6.566   1.463   4.335
 2482TIP3    H1 7410   6.613   1.495   4.413
 2482TIP3    H2 7411   6.630   1.407   4.290
 2483TIP3   OH2 7412   5.652   2.299   0.368
 2483TIP3    H1 7413   5.711   2.361   0.410
 2483TIP3    H2 7414   5.572   2.303   0.420
 2484TIP3   OH2 7415   2.337   4.364   4.114
 2484TIP3    H1 7416   2.321   4.348   4.022
 2484TIP3    H2 7417   2.297   4.290   4.159
 2485TIP3   OH2 7418   3.581   6.674   1.068
 2485TIP3    H1 7419   3.580   6.742   1.135
 2485TIP3    H2 7420   3.599   6.720   0.987
 2486TIP3   OH2 7421   1.606   6.795   1.698
 2486TIP3    H1 7422   1.631   6.729   1.763
 2486TIP3    H2 7423   1.632   6.878   1.738
 2487TIP3   OH2 7424   0.632   2.725   3.162
 2487TIP3    H1 7425   0.551   2.701   3.208
 2487TIP3    H2 7426   0.617   2.697   3.072
 2488TIP3   OH2 7427   5.004   4.846   4.572
 2488TIP3    H1 7428   5.030   4.775   4.514
 2488TIP3    H2 7429   5.002   4.807   4.660
 2489TIP3   OH2 7430   6.907   5.880   3.042
 2489TIP3    H1 7431   6.948   5.833   2.969
 2489TIP3    H2 7432   6.887   5.811   3.106
 2490TIP3   OH2 7433   6.516   5.362   4.985
 2490TIP3    H1 7434   6.487   5.370   4.894
 2490TIP3    H2 7435   6.440   5.324   5.031
 2491TIP3   OH2 7436   5.657   6.174   0.789
 2491TIP3    H1 7437   5.677   6.239   0.721
 2491TIP3    H2 7438   5.571   6.201   0.823
 2492TIP3   OH2 7439   5.544   5.766   1.020
 2492TIP3    H1 7440   5.566   5.727   0.935
 2492TIP3    H2 7441   5.627   5.802   1.051
 2493TIP3   OH2 7442   4.259   6.384   0.458
 2493TIP3    H1 7443   4.225   6.411   0.373
 2493TIP3    H2 7444   4.353   6.399   0.452
 2494TIP3   OH2 7445   3.665   1.577   2.318
 2494TIP3    H1 7446   3.644   1.663   2.280
 2494TIP3    H2 7447   3.583   1.528   2.313
 2495TIP3   OH2 7448   0.056   3.556   0.513
 2495TIP3    H1 7449   0.121   3.612   0.471
 2495TIP3    H2 7450   0.106   3.504   0.576
 2496TIP3   OH2 7451   5.176   4.638   0.800
 2496TIP3    H1 7452   5.263   4.622   0.837
 2496TIP3    H2 7453   5.124   4.563   0.829
 2497TIP3   OH2 7454   7.074   6.064   0.983
 2497TIP3    H1 7455   7.107   6.089   1.069
 2497TIP3    H2 7456   7.105   5.974   0.970
 2498TIP3   OH2 7457   5.477   4.411   4.928
 2498TIP3    H1 7458   5.468   4.358   4.849
 2498TIP3    H2 7459   5.495   4.500   4.897
 2499TIP3   OH2 7460   4.931   6.801   2.997
 2499TIP3    H1 7461   4.903   6.714   3.023
 2499TIP3    H2 7462   5.007   6.819   3.053
 2500TIP3   OH2 7463   5.691   0.532   2.219
 2500TIP3    H1 7464   5.623   0.595   2.242
 2500TIP3    H2 7465   5.719   0.558   2.131
 2501TIP3   OH2 7466   0.350   5.909   4.867
 2501TIP3    H1 7467   0.276   5.891   4.809
 2501TIP3    H2 7468   0.311   5.915   4.955
 2502TIP3   OH2 7469   3.133   0.027   0.383
 2502TIP3    H1 7470   3.078   0.092   0.426
 2502TIP3    H2 7471   3.072  -0.033   0.341
 2503TIP3   OH2 7472   3.542   3.911   1.252
 2503TIP3    H1 7473   3.525   3.860   1.172
 2503TIP3    H2 7474   3.637   3.928   1.249
 2504TIP3   OH2 7475   5.707   5.441   5.514
 2504TIP3    H1 7476   5.648   5.377   5.472
 2504TIP3    H2 7477   5.794   5.417   5.482
 2505TIP3   OH2 7478   6.781   4.404   3.435
 2505TIP3    H1 7479   6.772   4.486   3.387
 2505TIP3    H2 7480   6.870   4.406   3.471
 2506TIP3   OH2 7481   4.612   2.246   3.942
 2506TIP3    H1 7482   4.576   2.209   3.862
 2506TIP3    H2 7483   4.633   2.337   3.919
 2507TIP3   OH2 7484   4.908   2.693   1.577
 2507TIP3    H1 7485   4.873   2.693   1.666
 2507TIP3    H2 7486   4.882   2.608   1.541
 2508TIP3   OH2 7487   0.733   4.382   1.097
 2508TIP3    H1 7488   0.761   4.474   1.101
 2508TIP3    H2 7489   0.756   4.354   1.009
 2509TIP3   OH2 7490   4.937   4.669   3.611
 2509TIP3    H1 7491   5.008   4.690   3.551
 2509TIP3    H2 7492   4.886   4.602   3.566
 2510TIP3   OH2 7493   1.196   0.564   3.394
 2510TIP3    H1 7494   1.126   0.605   3.444
 2510TIP3    H2 7495   1.162   0.478   3.370
 2511TIP3   OH2 7496   2.529   4.303   2.690
 2511TIP3    H1 7497   2.461   4.369   2.685
 2511TIP3    H2 7498   2.562   4.308   2.780
 2512TIP3   OH2 7499   4.359   1.950   2.204
 2512TIP3    H1 7500   4.430   1.887   2.208
 2512TIP3    H2 7501   4.283   1.900   2.175
 2513TIP3   OH2 7502   1.475   0.538   3.377
 2513TIP3    H1 7503   1.499   0.618   3.423
 2513TIP3    H2 7504   1.384   0.522   3.403
 2514TIP3   OH2 7505   4.753   0.838   0.787
 2514TIP3    H1 7506   4.770   0.746   0.811
 2514TIP3    H2 7507   4.779   0.888   0.865
 2515TIP3   OH2 7508   7.116   0.571   4.128
 2515TIP3    H1 7509   7.127   0.607   4.216
 2515TIP3    H2 7510   7.178   0.620   4.074
 2516TIP3   OH2 7511   4.197   3.978   4.022
 2516TIP3    H1 7512   4.180   3.965   4.115
 2516TIP3    H2 7513   4.112   3.997   3.984
 2517TIP3   OH2 7514   3.718   1.137   3.853
 2517TIP3    H1 7515   3.727   1.207   3.917
 2517TIP3    H2 7516   3.808   1.114   3.830
 2518TIP3   OH2 7517   6.348   2.489   4.564
 2518TIP3    H1 7518   6.350   2.544   4.485
 2518TIP3    H2 7519   6.267   2.515   4.609
 2519TIP3   OH2 7520   4.442   2.176   3.041
 2519TIP3    H1 7521   4.536   2.165   3.058
 2519TIP3    H2 7522   4.437   2.215   2.954
 2520TIP3   OH2 7523   6.125   0.322   2.090
 2520TIP3    H1 7524   6.170   0.340   2.172
 2520TIP3    H2 7525   6.178   0.364   2.023
 2521TIP3   OH2 7526   3.496   3.791   3.626
 2521TIP3    H1 7527   3.514   3.754   3.539
 2521TIP3    H2 7528   3.583   3.815   3.660
 2522TIP3   OH2 7529   5.960   6.559   4.724
 2522TIP3    H1 7530   5.877   6.599   4.749
 2522TIP3    H2 7531   6.002   6.623   4.667
 2523TIP3   OH2 7532  -0.024   0.245   4.957
 2523TIP3    H1 7533   0.029   0.166   4.947
 2523TIP3    H2 7534   0.023   0.297   5.022
 2524TIP3   OH2 7535   5.209   3.974   1.799
 2524TIP3    H1 7536   5.191   4.035   1.728
 2524TIP3    H2 7537   5.154   4.005   1.871
 2525TIP3   OH2 7538   6.849   0.800   0.169
 2525TIP3    H1 7539   6.877   0.852   0.094
 2525TIP3    H2 7540   6.792   0.733   0.133
 2526TIP3   OH2 7541   1.556   3.316   4.867
 2526TIP3    H1 7542   1.468   3.327   4.902
 2526TIP3    H2 7543   1.556   3.369   4.787
 2527TIP3   OH2 7544   1.422   5.722   5.850
 2527TIP3    H1 7545   1.370   5.742   5.928
 2527TIP3    H2 7546   1.415   5.627   5.840
 2528TIP3   OH2 7547   0.191   5.199   2.676
 2528TIP3    H1 7548   0.096   5.188   2.667
 2528TIP3    H2 7549   0.217   5.136   2.743
 2529TIP3   OH2 7550   2.950   6.312   2.385
 2529TIP3    H1 7551   2.855   6.314   2.375
 2529TIP3    H2 7552   2.972   6.219   2.386
 2530TIP3   OH2 7553   6.310   3.446   3.030
 2530TIP3    H1 7554   6.222   3.471   3.004
 2530TIP3    H2 7555   6.351   3.415   2.949
 2531TIP3   OH2 7556   4.632   1.306   0.977
 2531TIP3    H1 7557   4.555   1.249   0.975
 2531TIP3    H2 7558   4.614   1.372   0.910
 2532TIP3   OH2 7559   6.694   4.828   4.522
 2532TIP3    H1 7560   6.711   4.734   4.510
 2532TIP3    H2 7561   6.750   4.853   4.596
 2533TIP3   OH2 7562   0.398   0.358   5.286
 2533TIP3    H1 7563   0.482   0.312   5.281
 2533TIP3    H2 7564   0.333   0.290   5.266
 2534TIP3   OH2 7565   5.705   4.221   3.360
 2534TIP3    H1 7566   5.789   4.197   3.399
 2534TIP3    H2 7567   5.640   4.185   3.420
 2535TIP3   OH2 7568   4.698   5.133   1.643
 2535TIP3    H1 7569   4.697   5.084   1.561
 2535TIP3    H2 7570   4.788   5.165   1.651
 2536TIP3   OH2 7571   1.113   5.507   4.023
 2536TIP3    H1 7572   1.170   5.432   4.042
 2536TIP3    H2 7573   1.110   5.557   4.105
 2537TIP3   OH2 7574   3.878   2.846   3.456
 2537TIP3    H1 7575   3.860   2.765   3.504
 2537TIP3    H2 7576   3.851   2.826   3.366
 2538TIP3   OH2 7577   4.059   5.815   3.431
 2538TIP3    H1 7578   4.101   5.875   3.493
 2538TIP3    H2 7579   4.126   5.750   3.411
 2539TIP3   OH2 7580   1.654   4.489   4.369
 2539TIP3    H1 7581   1.584   4.554   4.370
 2539TIP3    H2 7582   1.650   4.451   4.281
 2540TIP3   OH2 7583   1.611   3.232   3.686
 2540TIP3    H1 7584   1.595   3.322   3.658
 2540TIP3    H2 7585   1.704   3.231   3.711
 2541TIP3   OH2 7586   2.753   2.626   2.102
 2541TIP3    H1 7587   2.780   2.542   2.139
 2541TIP3    H2 7588   2.704   2.669   2.172
 2542TIP3   OH2 7589   2.651   2.635   0.818
 2542TIP3    H1 7590   2.635   2.582   0.897
 2542TIP3    H2 7591   2.641   2.725   0.848
 2543TIP3   OH2 7592   1.940   4.562   2.351
 2543TIP3    H1 7593   1.956   4.526   2.438
 2543TIP3    H2 7594   2.023   4.604   2.328
 2544TIP3   OH2 7595   3.480   3.048   5.598
 2544TIP3    H1 7596   3.402   2.994   5.607
 2544TIP3    H2 7597   3.459   3.129   5.645
 2545TIP3   OH2 7598   0.991   4.146   1.511
 2545TIP3    H1 7599   1.079   4.155   1.474
 2545TIP3    H2 7600   0.932   4.176   1.442
 2546TIP3   OH2 7601   1.129   0.561   2.529
 2546TIP3    H1 7602   1.159   0.501   2.597
 2546TIP3    H2 7603   1.178   0.642   2.546
 2547TIP3   OH2 7604   3.800   4.088   1.706
 2547TIP3    H1 7605   3.737   4.161   1.704
 2547TIP3    H2 7606   3.746   4.011   1.689
 2548TIP3   OH2 7607   6.887   0.470   0.406
 2548TIP3    H1 7608   6.961   0.530   0.393
 2548TIP3    H2 7609   6.818   0.524   0.444
 2549TIP3   OH2 7610   6.019   6.787   0.643
 2549TIP3    H1 7611   6.027   6.802   0.737
 2549TIP3    H2 7612   6.072   6.709   0.627
 2550TIP3   OH2 7613   6.960   3.504   2.623
 2550TIP3    H1 7614   7.005   3.421   2.606
 2550TIP3    H2 7615   6.978   3.557   2.545
 2551TIP3   OH2 7616   3.220   2.276   4.547
 2551TIP3    H1 7617   3.148   2.338   4.551
 2551TIP3    H2 7618   3.266   2.287   4.630
 2552TIP3   OH2 7619   3.188   0.673   4.822
 2552TIP3    H1 7620   3.161   0.636   4.738
 2552TIP3    H2 7621   3.188   0.599   4.882
 2553TIP3   OH2 7622   2.305   1.833   1.489
 2553TIP3    H1 7623   2.312   1.739   1.504
 2553TIP3    H2 7624   2.342   1.873   1.568
 2554TIP3   OH2 7625   5.275   5.635   0.067
 2554TIP3    H1 7626   5.241   5.694  -0.001
 2554TIP3    H2 7627   5.343   5.685   0.110
 2555TIP3   OH2 7628   5.263   2.001   4.264
 2555TIP3    H1 7629   5.348   1.999   4.306
 2555TIP3    H2 7630   5.248   2.093   4.244
 2556TIP3   OH2 7631   0.002   2.006   1.174
 2556TIP3    H1 7632   0.066   1.951   1.219
 2556TIP3    H2 7633   0.053   2.079   1.139
 2557TIP3   OH2 7634   4.891   5.109   5.425
 2557TIP3    H1 7635   4.906   5.081   5.516
 2557TIP3    H2 7636   4.803   5.079   5.404
 2558TIP3   OH2 7637   0.997   0.882   5.183
 2558TIP3    H1 7638   0.945   0.888   5.263
 2558TIP3    H2 7639   1.063   0.951   5.192
 2559TIP3   OH2 7640   0.772   0.541   4.683
 2559TIP3    H1 7641   0.740   0.630   4.694
 2559TIP3    H2 7642   0.771   0.504   4.772
 2560TIP3   OH2 7643   4.071   0.205   3.853
 2560TIP3    H1 7644   4.100   0.240   3.769
 2560TIP3    H2 7645   4.091   0.275   3.916
 2561TIP3   OH2 7646   4.959   6.014   1.595
 2561TIP3    H1 7647   4.963   5.919   1.587
 2561TIP3    H2 7648   4.923   6.030   1.682
 2562TIP3   OH2 7649   1.492   2.085   3.971
 2562TIP3    H1 7650   1.577   2.056   4.004
 2562TIP3    H2 7651   1.512   2.162   3.918
 2563TIP3   OH2 7652   0.974   2.253   0.888
 2563TIP3    H1 7653   0.905   2.277   0.826
 2563TIP3    H2 7654   0.944   2.170   0.926
 2564TIP3   OH2 7655   4.526   0.898   1.558
 2564TIP3    H1 7656   4.499   0.874   1.469
 2564TIP3    H2 7657   4.463   0.964   1.585
 2565TIP3   OH2 7658   3.732   6.000   2.604
 2565TIP3    H1 7659   3.653   5.947   2.602
 2565TIP3    H2 7660   3.755   6.012   2.511
 2566TIP3   OH2 7661   6.929   2.666   0.611
 2566TIP3    H1 7662   6.915   2.701   0.523
 2566TIP3    H2 7663   6.846   2.622   0.633
 2567TIP3   OH2 7664   0.053   2.819   4.117
 2567TIP3    H1 7665  -0.023   2.792   4.168
 2567TIP3    H2 7666   0.020   2.889   4.061
 2568TIP3   OH2 7667   0.448   0.163   0.066
 2568TIP3    H1 7668   0.479   0.097   0.128
 2568TIP3    H2 7669   0.363   0.129   0.036
 2569TIP3   OH2 7670   0.821   4.377   2.366
 2569TIP3    H1 7671   0.817   4.345   2.276
 2569TIP3    H2 7672   0.811   4.472   2.359
 2570TIP3   OH2 7673   5.768   2.221   2.263
 2570TIP3    H1 7674   5.853   2.265   2.264
 2570TIP3    H2 7675   5.790   2.128   2.265
 2571TIP3   OH2 7676   1.201   0.754   3.596
 2571TIP3    H1 7677   1.109   0.762   3.571
 2571TIP3    H2 7678   1.250   0.763   3.515
 2572TIP3   OH2 7679   4.840   3.581   3.029
 2572TIP3    H1 7680   4.818   3.631   2.950
 2572TIP3    H2 7681   4.892   3.641   3.082
 2573TIP3   OH2 7682   1.416   2.016   5.616
 2573TIP3    H1 7683   1.440   2.042   5.527
 2573TIP3    H2 7684   1.491   2.043   5.669
 2574TIP3   OH2 7685   1.164   2.595   3.911
 2574TIP3    H1 7686   1.117   2.540   3.849
 2574TIP3    H2 7687   1.252   2.556   3.917
 2575TIP3   OH2 7688   5.628   2.504   1.100
 2575TIP3    H1 7689   5.720   2.524   1.084
 2575TIP3    H2 7690   5.580   2.554   1.034
 2576TIP3   OH2 7691   6.584   0.225   5.288
 2576TIP3    H1 7692   6.616   0.313   5.306
 2576TIP3    H2 7693   6.587   0.217   5.193
 2577TIP3   OH2 7694   2.078   5.012   2.965
 2577TIP3    H1 7695   2.108   4.969   2.885
 2577TIP3    H2 7696   2.122   4.963   3.036
 2578TIP3   OH2 7697   2.331   6.586   4.738
 2578TIP3    H1 7698   2.340   6.492   4.755
 2578TIP3    H2 7699   2.335   6.593   4.642
 2579TIP3   OH2 7700   2.085   3.111   3.168
 2579TIP3    H1 7701   2.047   3.102   3.255
 2579TIP3    H2 7702   2.022   3.163   3.119
 2580TIP3   OH2 7703   4.027   0.598   5.556
 2580TIP3    H1 7704   4.053   0.684   5.590
 2580TIP3    H2 7705   4.095   0.575   5.493
 2581TIP3   OH2 7706   2.460   0.880   4.494
 2581TIP3    H1 7707   2.541   0.914   4.530
 2581TIP3    H2 7708   2.455   0.917   4.405
 2582TIP3   OH2 7709   4.969   4.290   5.112
 2582TIP3    H1 7710   5.041   4.227   5.106
 2582TIP3    H2 7711   5.010   4.371   5.143
 2583TIP3   OH2 7712   1.082   5.492   0.742
 2583TIP3    H1 7713   1.028   5.538   0.678
 2583TIP3    H2 7714   1.168   5.486   0.701
 2584TIP3   OH2 7715   3.351   6.275   2.025
 2584TIP3    H1 7716   3.326   6.352   1.974
 2584TIP3    H2 7717   3.407   6.309   2.095
 2585TIP3   OH2 7718   2.393   6.569   2.902
 2585TIP3    H1 7719   2.350   6.552   2.819
 2585TIP3    H2 7720   2.367   6.658   2.925
 2586TIP3   OH2 7721   5.454   4.694   0.463
 2586TIP3    H1 7722   5.360   4.696   0.478
 2586TIP3    H2 7723   5.471   4.608   0.424
 2587TIP3   OH2 7724   3.962   2.545   4.031
 2587TIP3    H1 7725   3.912   2.617   3.992
 2587TIP3    H2 7726   4.053   2.564   4.007
 2588TIP3   OH2 7727   3.231   5.153  -0.023
 2588TIP3    H1 7728   3.235   5.233   0.029
 2588TIP3    H2 7729   3.256   5.083   0.037
 2589TIP3   OH2 7730   4.503   2.809   1.826
 2589TIP3    H1 7731   4.517   2.736   1.766
 2589TIP3    H2 7732   4.478   2.882   1.770
 2590TIP3   OH2 7733   7.111   0.537   5.846
 2590TIP3    H1 7734   7.030   0.533   5.896
 2590TIP3    H2 7735   7.103   0.466   5.782
 2591TIP3   OH2 7736   0.175   0.622   4.005
 2591TIP3    H1 7737   0.201   0.665   4.086
 2591TIP3    H2 7738   0.258   0.600   3.962
 2592TIP3   OH2 7739   5.740   4.383   4.029
 2592TIP3    H1 7740   5.757   4.475   4.009
 2592TIP3    H2 7741   5.805   4.360   4.094
 2593TIP3   OH2 7742  -0.043   2.973   0.027
 2593TIP3    H1 7743   0.024   3.021   0.077
 2593TIP3    H2 7744  -0.006   2.885   0.017
 2594TIP3   OH2 7745   0.134   4.845   0.753
 2594TIP3    H1 7746   0.087   4.841   0.837
 2594TIP3    H2 7747   0.201   4.776   0.761
 2595TIP3   OH2 7748   1.828   5.408   5.809
 2595TIP3    H1 7749   1.868   5.441   5.728
 2595TIP3    H2 7750   1.776   5.333   5.781
 2596TIP3   OH2 7751   3.660   3.248   4.153
 2596TIP3    H1 7752   3.635   3.173   4.099
 2596TIP3    H2 7753   3.726   3.294   4.101
 2597TIP3   OH2 7754   3.353   1.687   3.630
 2597TIP3    H1 7755   3.370   1.685   3.725
 2597TIP3    H2 7756   3.286   1.620   3.617
 2598TIP3   OH2 7757   4.486   5.772   0.205
 2598TIP3    H1 7758   4.526   5.689   0.229
 2598TIP3    H2 7759   4.530   5.798   0.124
 2599TIP3   OH2 7760   4.339   3.458   1.234
 2599TIP3    H1 7761   4.319   3.540   1.188
 2599TIP3    H2 7762   4.256   3.410   1.234
 2600TIP3   OH2 7763   3.492   4.161   3.449
 2600TIP3    H1 7764   3.407   4.121   3.467
 2600TIP3    H2 7765   3.480   4.211   3.369
 2601TIP3   OH2 7766   3.452   6.766   2.646
 2601TIP3    H1 7767   3.465   6.768   2.551
 2601TIP3    H2 7768   3.358   6.750   2.657
 2602TIP3   OH2 7769   2.709   2.150   3.497
 2602TIP3    H1 7770   2.629   2.127   3.545
 2602TIP3    H2 7771   2.738   2.232   3.536
 2603TIP3   OH2 7772   2.831   4.341   0.357
 2603TIP3    H1 7773   2.896   4.350   0.287
 2603TIP3    H2 7774   2.747   4.359   0.314
 2604TIP3   OH2 7775   6.083   6.407   2.523
 2604TIP3    H1 7776   6.095   6.474   2.456
 2604TIP3    H2 7777   6.118   6.447   2.603
 2605TIP3   OH2 7778   6.659   6.601   3.399
 2605TIP3    H1 7779   6.622   6.514   3.414
 2605TIP3    H2 7780   6.628   6.654   3.473
 2606TIP3   OH2 7781   4.811   5.562   1.431
 2606TIP3    H1 7782   4.743   5.509   1.472
 2606TIP3    H2 7783   4.772   5.592   1.349
 2607TIP3   OH2 7784   6.833   2.827   0.039
 2607TIP3    H1 7785   6.812   2.909  -0.004
 2607TIP3    H2 7786   6.781   2.761  -0.007
 2608TIP3   OH2 7787   1.288   2.678   3.069
 2608TIP3    H1 7788   1.269   2.692   2.976
 2608TIP3    H2 7789   1.327   2.590   3.072
 2609TIP3   OH2 7790   1.009   5.658   3.028
 2609TIP3    H1 7791   1.073   5.700   2.971
 2609TIP3    H2 7792   1.056   5.584   3.067
 2610TIP3   OH2 7793   4.373   2.223   4.679
 2610TIP3    H1 7794   4.373   2.293   4.745
 2610TIP3    H2 7795   4.460   2.226   4.641
 2611TIP3   OH2 7796   5.560   4.012   5.813
 2611TIP3    H1 7797   5.504   3.936   5.799
 2611TIP3    H2 7798   5.539   4.071   5.741
 2612TIP3   OH2 7799   1.040   2.813   2.073
 2612TIP3    H1 7800   1.100   2.882   2.046
 2612TIP3    H2 7801   1.061   2.797   2.165
 2613TIP3   OH2 7802   6.748   4.333   5.840
 2613TIP3    H1 7803   6.657   4.351   5.861
 2613TIP3    H2 7804   6.773   4.262   5.899
 2614TIP3   OH2 7805   0.103   6.504   3.427
 2614TIP3    H1 7806   0.140   6.569   3.367
 2614TIP3    H2 7807   0.112   6.544   3.513
 2615TIP3   OH2 7808   4.389   1.025   0.970
 2615TIP3    H1 7809   4.410   1.022   1.063
 2615TIP3    H2 7810   4.300   0.991   0.964
 2616TIP3   OH2 7811   5.073   4.126   0.446
 2616TIP3    H1 7812   5.088   4.202   0.390
 2616TIP3    H2 7813   5.099   4.155   0.534
 2617TIP3   OH2 7814   1.879   0.491   2.147
 2617TIP3    H1 7815   1.867   0.585   2.132
 2617TIP3    H2 7816   1.961   0.470   2.102
 2618TIP3   OH2 7817   3.116   1.344   0.844
 2618TIP3    H1 7818   3.178   1.399   0.796
 2618TIP3    H2 7819   3.030   1.380   0.823
 2619TIP3   OH2 7820   3.220   0.618   4.095
 2619TIP3    H1 7821   3.283   0.684   4.124
 2619TIP3    H2 7822   3.235   0.543   4.151
 2620TIP3   OH2 7823   5.929   1.709   2.070
 2620TIP3    H1 7824   5.902   1.662   1.991
 2620TIP3    H2 7825   5.848   1.723   2.119
 2621TIP3   OH2 7826   3.685   1.949   0.556
 2621TIP3    H1 7827   3.719   2.038   0.547
 2621TIP3    H2 7828   3.717   1.920   0.641
 2622TIP3   OH2 7829   0.345   2.753   1.993
 2622TIP3    H1 7830   0.300   2.756   1.908
 2622TIP3    H2 7831   0.431   2.792   1.977
 2623TIP3   OH2 7832   1.240   3.262   1.527
 2623TIP3    H1 7833   1.168   3.233   1.471
 2623TIP3    H2 7834   1.317   3.258   1.471
 2624TIP3   OH2 7835   2.806   5.624   1.237
 2624TIP3    H1 7836   2.828   5.665   1.154
 2624TIP3    H2 7837   2.873   5.655   1.298
 2625TIP3   OH2 7838   6.769   2.854   2.589
 2625TIP3    H1 7839   6.808   2.851   2.501
 2625TIP3    H2 7840   6.747   2.763   2.609
 2626TIP3   OH2 7841   1.709   2.623   4.208
 2626TIP3    H1 7842   1.758   2.585   4.135
 2626TIP3    H2 7843   1.681   2.709   4.177
 2627TIP3   OH2 7844   1.048   4.226   4.193
 2627TIP3    H1 7845   1.130   4.264   4.162
 2627TIP3    H2 7846   1.069   4.187   4.277
 2628TIP3   OH2 7847   1.509   5.580   0.216
 2628TIP3    H1 7848   1.478   5.654   0.164
 2628TIP3    H2 7849   1.563   5.529   0.156
 2629TIP3   OH2 7850   1.212   2.805   1.273
 2629TIP3    H1 7851   1.239   2.893   1.298
 2629TIP3    H2 7852   1.291   2.764   1.239
 2630TIP3   OH2 7853   5.959   2.212   5.622
 2630TIP3    H1 7854   5.916   2.142   5.574
 2630TIP3    H2 7855   5.984   2.276   5.555
 2631TIP3   OH2 7856   4.301   3.790   0.068
 2631TIP3    H1 7857   4.291   3.835  -0.015
 2631TIP3    H2 7858   4.213   3.790   0.106
 2632TIP3   OH2 7859   4.673   2.851   2.927
 2632TIP3    H1 7860   4.583   2.885   2.932
 2632TIP3    H2 7861   4.727   2.918   2.968
 2633TIP3   OH2 7862   6.506   2.119   3.925
 2633TIP3    H1 7863   6.456   2.168   3.990
 2633TIP3    H2 7864   6.514   2.179   3.851
 2634TIP3   OH2 7865   1.516   0.838   0.049
 2634TIP3    H1 7866   1.490   0.853  -0.042
 2634TIP3    H2 7867   1.579   0.766   0.044
 2635TIP3   OH2 7868   3.135   5.491   0.357
 2635TIP3    H1 7869   3.186   5.453   0.427
 2635TIP3    H2 7870   3.055   5.438   0.353
 2636TIP3   OH2 7871   0.266   2.981   3.160
 2636TIP3    H1 7872   0.307   2.899   3.186
 2636TIP3    H2 7873   0.237   3.022   3.242
 2637TIP3   OH2 7874   1.010   5.696   3.346
 2637TIP3    H1 7875   1.088   5.738   3.310
 2637TIP3    H2 7876   0.939   5.758   3.328
 2638TIP3   OH2 7877   5.619   3.386   2.238
 2638TIP3    H1 7878   5.581   3.470   2.264
 2638TIP3    H2 7879   5.583   3.323   2.300
 2639TIP3   OH2 7880   2.718   2.208   4.440
 2639TIP3    H1 7881   2.750   2.145   4.375
 2639TIP3    H2 7882   2.623   2.198   4.439
 2640TIP3   OH2 7883   4.431   0.579   5.458
 2640TIP3    H1 7884   4.434   0.574   5.553
 2640TIP3    H2 7885   4.517   0.547   5.429
 2641TIP3   OH2 7886   3.852   1.286   5.456
 2641TIP3    H1 7887   3.908   1.360   5.430
 2641TIP3    H2 7888   3.871   1.218   5.391
 2642TIP3   OH2 7889   0.589   2.069   0.945
 2642TIP3    H1 7890   0.496   2.057   0.928
 2642TIP3    H2 7891   0.604   2.163   0.934
 2643TIP3   OH2 7892   4.013   2.765   1.764
 2643TIP3    H1 7893   4.052   2.850   1.786
 2643TIP3    H2 7894   4.068   2.731   1.693
 2644TIP3   OH2 7895   5.321   0.781   4.838
 2644TIP3    H1 7896   5.387   0.725   4.881
 2644TIP3    H2 7897   5.371   0.856   4.806
 2645TIP3   OH2 7898   3.746   5.239   1.657
 2645TIP3    H1 7899   3.819   5.250   1.717
 2645TIP3    H2 7900   3.685   5.309   1.679
 2646TIP3   OH2 7901   4.331   1.331   3.714
 2646TIP3    H1 7902   4.307   1.242   3.686
 2646TIP3    H2 7903   4.263   1.355   3.777
 2647TIP3   OH2 7904   1.357   5.001   1.060
 2647TIP3    H1 7905   1.377   4.908   1.045
 2647TIP3    H2 7906   1.263   5.008   1.044
 2648TIP3   OH2 7907   3.928   2.682   4.883
 2648TIP3    H1 7908   4.023   2.671   4.878
 2648TIP3    H2 7909   3.896   2.654   4.797
 2649TIP3   OH2 7910   4.100   4.891   2.752
 2649TIP3    H1 7911   4.182   4.925   2.786
 2649TIP3    H2 7912   4.125   4.823   2.691
 2650TIP3   OH2 7913   4.050   4.732   0.601
 2650TIP3    H1 7914   4.015   4.818   0.622
 2650TIP3    H2 7915   3.982   4.671   0.627
 2651TIP3   OH2 7916   5.902   0.996   2.867
 2651TIP3    H1 7917   5.845   0.961   2.798
 2651TIP3    H2 7918   5.922   1.085   2.838
 2652TIP3   OH2 7919   5.959   3.305   1.600
 2652TIP3    H1 7920   5.899   3.359   1.651
 2652TIP3    H2 7921   5.912   3.222   1.587
 2653TIP3   OH2 7922   3.392   3.486   0.566
 2653TIP3    H1 7923   3.416   3.563   0.515
 2653TIP3    H2 7924   3.469   3.430   0.563
 2654TIP3   OH2 7925   3.357   2.869   4.191
 2654TIP3    H1 7926   3.338   2.963   4.187
 2654TIP3    H2 7927   3.293   2.830   4.132
 2655TIP3   OH2 7928   5.911   2.556   1.052
 2655TIP3    H1 7929   5.986   2.608   1.081
 2655TIP3    H2 7930   5.880   2.602   0.974
 2656TIP3   OH2 7931   7.117   3.299   2.552
 2656TIP3    H1 7932   7.128   3.278   2.460
 2656TIP3    H2 7933   7.124   3.215   2.597
 2657TIP3   OH2 7934   1.679   5.983   2.868
 2657TIP3    H1 7935   1.639   5.900   2.843
 2657TIP3    H2 7936   1.732   6.008   2.793
 2658TIP3   OH2 7937   6.722   6.690   4.868
 2658TIP3    H1 7938   6.780   6.705   4.942
 2658TIP3    H2 7939   6.746   6.603   4.836
 2659TIP3   OH2 7940   0.483   2.593   0.386
 2659TIP3    H1 7941   0.422   2.523   0.408
 2659TIP3    H2 7942   0.442   2.673   0.421
 2660TIP3   OH2 7943   5.662   1.778   1.345
 2660TIP3    H1 7944   5.595   1.715   1.319
 2660TIP3    H2 7945   5.618   1.835   1.408
 2661TIP3   OH2 7946   6.850   3.154   0.875
 2661TIP3    H1 7947   6.910   3.157   0.800
 2661TIP3    H2 7948   6.796   3.232   0.865
 2662TIP3   OH2 7949   5.124   2.410   2.151
 2662TIP3    H1 7950   5.163   2.361   2.223
 2662TIP3    H2 7951   5.108   2.344   2.083
 2663TIP3   OH2 7952   3.123   6.246   3.647
 2663TIP3    H1 7953   3.068   6.194   3.704
 2663TIP3    H2 7954   3.163   6.182   3.588
 2664TIP3   OH2 7955   1.007   5.030   5.509
 2664TIP3    H1 7956   0.962   5.048   5.591
 2664TIP3    H2 7957   1.077   5.095   5.505
 2665TIP3   OH2 7958   2.657   4.224   4.575
 2665TIP3    H1 7959   2.593   4.296   4.568
 2665TIP3    H2 7960   2.735   4.258   4.531
 2666TIP3   OH2 7961   1.580   6.450   4.850
 2666TIP3    H1 7962   1.572   6.377   4.789
 2666TIP3    H2 7963   1.672   6.477   4.843
 2667TIP3   OH2 7964   4.558   0.424   4.905
 2667TIP3    H1 7965   4.478   0.460   4.943
 2667TIP3    H2 7966   4.606   0.388   4.979
 2668TIP3   OH2 7967   6.459   2.625   3.623
 2668TIP3    H1 7968   6.364   2.618   3.607
 2668TIP3    H2 7969   6.495   2.654   3.539
 2669TIP3   OH2 7970   0.040   0.036   0.889
 2669TIP3    H1 7971   0.047  -0.054   0.921
 2669TIP3    H2 7972   0.113   0.082   0.930
 2670TIP3   OH2 7973   3.221   0.179   1.537
 2670TIP3    H1 7974   3.226   0.147   1.447
 2670TIP3    H2 7975   3.312   0.179   1.568
 2671TIP3   OH2 7976   2.306   4.249   1.800
 2671TIP3    H1 7977   2.402   4.250   1.794
 2671TIP3    H2 7978   2.288   4.206   1.884
 2672TIP3   OH2 7979   3.772   0.314   4.477
 2672TIP3    H1 7980   3.696   0.260   4.452
 2672TIP3    H2 7981   3.755   0.340   4.567
 2673TIP3   OH2 7982   4.489   5.481   2.713
 2673TIP3    H1 7983   4.417   5.525   2.667
 2673TIP3    H2 7984   4.446   5.418   2.771
 2674TIP3   OH2 7985   4.687   0.546   4.670
 2674TIP3    H1 7986   4.780   0.529   4.659
 2674TIP3    H2 7987   4.668   0.518   4.760
 2675TIP3   OH2 7988   6.440   5.573   0.094
 2675TIP3    H1 7989   6.418   5.501   0.034
 2675TIP3    H2 7990   6.437   5.533   0.181
 2676TIP3   OH2 7991   0.058   6.281   5.389
 2676TIP3    H1 7992   0.129   6.280   5.453
 2676TIP3    H2 7993   0.063   6.368   5.350
 2677TIP3   OH2 7994   1.004   2.881   4.833
 2677TIP3    H1 7995   1.044   2.946   4.891
 2677TIP3    H2 7996   1.062   2.878   4.757
 2678TIP3   OH2 7997   5.680   1.769   0.961
 2678TIP3    H1 7998   5.755   1.826   0.945
 2678TIP3    H2 7999   5.718   1.690   0.999
 2679TIP3   OH2 8000   4.605   6.623   5.663
 2679TIP3    H1 8001   4.547   6.607   5.589
 2679TIP3    H2 8002   4.547   6.642   5.736
 2680TIP3   OH2 8003   5.936   5.189   1.681
 2680TIP3    H1 8004   6.011   5.134   1.660
 2680TIP3    H2 8005   5.860   5.137   1.655
 2681TIP3   OH2 8006   1.307   3.343   5.616
 2681TIP3    H1 8007   1.253   3.373   5.542
 2681TIP3    H2 8008   1.319   3.421   5.670
 2682TIP3   OH2 8009   1.149   3.490   1.898
 2682TIP3    H1 8010   1.062   3.462   1.869
 2682TIP3    H2 8011   1.132   3.548   1.972
 2683TIP3   OH2 8012   6.569   6.147   2.767
 2683TIP3    H1 8013   6.632   6.142   2.839
 2683TIP3    H2 8014   6.484   6.155   2.811
 2684TIP3   OH2 8015   6.482   1.260   5.173
 2684TIP3    H1 8016   6.556   1.247   5.233
 2684TIP3    H2 8017   6.504   1.206   5.097
 2685TIP3   OH2 8018   5.861   1.216   2.645
 2685TIP3    H1 8019   5.834   1.150   2.581
 2685TIP3    H2 8020   5.779   1.258   2.672
 2686TIP3   OH2 8021   4.011   6.707   4.277
 2686TIP3    H1 8022   3.972   6.661   4.203
 2686TIP3    H2 8023   4.045   6.638   4.333
 2687TIP3   OH2 8024   3.637   1.083   2.162
 2687TIP3    H1 8025   3.711   1.064   2.220
 2687TIP3    H2 8026   3.655   1.171   2.128
 2688TIP3   OH2 8027   5.156   1.797   3.019
 2688TIP3    H1 8028   5.131   1.706   3.035
 2688TIP3    H2 8029   5.097   1.849   3.073
 2689TIP3   OH2 8030   3.128   6.808   1.087
 2689TIP3    H1 8031   3.152   6.730   1.037
 2689TIP3    H2 8032   3.035   6.797   1.104
 2690TIP3   OH2 8033   3.845   4.841   4.730
 2690TIP3    H1 8034   3.930   4.884   4.732
 2690TIP3    H2 8035   3.841   4.794   4.813
 2691TIP3   OH2 8036   0.875   2.256   5.009
 2691TIP3    H1 8037   0.915   2.294   5.088
 2691TIP3    H2 8038   0.795   2.215   5.040
 2692TIP3   OH2 8039   5.489   2.086   0.570
 2692TIP3    H1 8040   5.436   2.054   0.497
 2692TIP3    H2 8041   5.464   2.178   0.579
 2693TIP3   OH2 8042   2.718   1.833   2.822
 2693TIP3    H1 8043   2.754   1.922   2.823
 2693TIP3    H2 8044   2.785   1.780   2.778
 2694TIP3   OH2 8045   4.102   6.400   5.236
 2694TIP3    H1 8046   4.051   6.396   5.317
 2694TIP3    H2 8047   4.155   6.321   5.237
 2695TIP3   OH2 8048   0.433   6.491   5.033
 2695TIP3    H1 8049   0.407   6.580   5.007
 2695TIP3    H2 8050   0.523   6.483   5.001
 2696TIP3   OH2 8051   6.794   5.635   4.527
 2696TIP3    H1 8052   6.882   5.671   4.540
 2696TIP3    H2 8053   6.806   5.566   4.462
 2697TIP3   OH2 8054   4.140   4.646   0.893
 2697TIP3    H1 8055   4.161   4.726   0.845
 2697TIP3    H2 8056   4.045   4.651   0.906
 2698TIP3   OH2 8057   2.579   1.622   2.939
 2698TIP3    H1 8058   2.585   1.655   3.029
 2698TIP3    H2 8059   2.600   1.697   2.884
 2699TIP3   OH2 8060   2.493   6.725   1.373
 2699TIP3    H1 8061   2.574   6.678   1.353
 2699TIP3    H2 8062   2.436   6.708   1.298
 2700TIP3   OH2 8063   0.914   5.144   2.264
 2700TIP3    H1 8064   0.931   5.148   2.169
 2700TIP3    H2 8065   1.001   5.135   2.303
 2701TIP3   OH2 8066   0.205   3.917   3.989
 2701TIP3    H1 8067   0.281   3.859   3.982
 2701TIP3    H2 8068   0.213   3.977   3.915
 2702TIP3   OH2 8069   4.425   1.975   0.876
 2702TIP3    H1 8070   4.450   1.896   0.827
 2702TIP3    H2 8071   4.407   2.040   0.808
 2703TIP3   OH2 8072   2.047   2.215   0.629
 2703TIP3    H1 8073   2.096   2.278   0.682
 2703TIP3    H2 8074   2.019   2.265   0.552
 2704TIP3   OH2 8075   4.070   0.952   0.053
 2704TIP3    H1 8076   3.976   0.931   0.056
 2704TIP3    H2 8077   4.087   0.995   0.137
 2705TIP3   OH2 8078   5.892   3.343   5.127
 2705TIP3    H1 8079   5.917   3.390   5.205
 2705TIP3    H2 8080   5.946   3.264   5.128
 2706TIP3   OH2 8081   5.717   3.859   0.643
 2706TIP3    H1 8082   5.755   3.807   0.572
 2706TIP3    H2 8083   5.771   3.938   0.646
 2707TIP3   OH2 8084   5.452   5.720   3.988
 2707TIP3    H1 8085   5.394   5.677   3.926
 2707TIP3    H2 8086   5.436   5.813   3.975
 2708TIP3   OH2 8087   4.625   0.369   1.407
 2708TIP3    H1 8088   4.607   0.275   1.413
 2708TIP3    H2 8089   4.674   0.389   1.487
 2709TIP3   OH2 8090   3.598   5.870   1.655
 2709TIP3    H1 8091   3.687   5.844   1.633
 2709TIP3    H2 8092   3.606   5.959   1.687
 2710TIP3   OH2 8093   5.785   0.142   5.192
 2710TIP3    H1 8094   5.792   0.212   5.256
 2710TIP3    H2 8095   5.702   0.158   5.147
 2711TIP3   OH2 8096   3.560   0.968   4.763
 2711TIP3    H1 8097   3.484   0.978   4.706
 2711TIP3    H2 8098   3.578   1.056   4.795
 2712TIP3   OH2 8099   4.532   2.698   3.995
 2712TIP3    H1 8100   4.522   2.787   3.959
 2712TIP3    H2 8101   4.620   2.698   4.034
 2713TIP3   OH2 8102   1.939   6.382   0.562
 2713TIP3    H1 8103   2.010   6.438   0.593
 2713TIP3    H2 8104   1.925   6.319   0.633
 2714TIP3   OH2 8105   2.689   5.162   0.563
 2714TIP3    H1 8106   2.605   5.204   0.547
 2714TIP3    H2 8107   2.699   5.164   0.659
 2715TIP3   OH2 8108   5.337   3.563   2.874
 2715TIP3    H1 8109   5.328   3.575   2.779
 2715TIP3    H2 8110   5.431   3.551   2.889
 2716TIP3   OH2 8111   6.927   1.363   5.875
 2716TIP3    H1 8112   6.845   1.350   5.923
 2716TIP3    H2 8113   6.921   1.453   5.843
 2717TIP3   OH2 8114   5.391   6.070   2.094
 2717TIP3    H1 8115   5.422   5.994   2.045
 2717TIP3    H2 8116   5.300   6.081   2.065
 2718TIP3   OH2 8117   2.963   5.838   2.571
 2718TIP3    H1 8118   2.916   5.760   2.541
 2718TIP3    H2 8119   3.014   5.865   2.495
 2719TIP3   OH2 8120   0.433   5.934   4.101
 2719TIP3    H1 8121   0.473   5.858   4.141
 2719TIP3    H2 8122   0.377   5.899   4.032
 2720TIP3   OH2 8123   2.962   4.822   0.718
 2720TIP3    H1 8124   2.943   4.814   0.811
 2720TIP3    H2 8125   3.023   4.896   0.712
 2721TIP3   OH2 8126   1.917   6.516   4.468
 2721TIP3    H1 8127   1.915   6.518   4.564
 2721TIP3    H2 8128   2.000   6.559   4.446
 2722TIP3   OH2 8129   2.554   2.486   3.347
 2722TIP3    H1 8130   2.497   2.430   3.399
 2722TIP3    H2 8131   2.640   2.477   3.386
 2723TIP3   OH2 8132   3.596   2.942   3.543
 2723TIP3    H1 8133   3.687   2.971   3.547
 2723TIP3    H2 8134   3.599   2.861   3.493
 2724TIP3   OH2 8135   1.380   1.165   4.578
 2724TIP3    H1 8136   1.463   1.180   4.532
 2724TIP3    H2 8137   1.361   1.072   4.561
 2725TIP3   OH2 8138   6.566   1.432   2.244
 2725TIP3    H1 8139   6.571   1.338   2.260
 2725TIP3    H2 8140   6.657   1.461   2.237
 2726TIP3   OH2 8141   4.225   2.932   3.658
 2726TIP3    H1 8142   4.170   2.854   3.669
 2726TIP3    H2 8143   4.217   2.954   3.566
 2727TIP3   OH2 8144   2.155   4.601   3.488
 2727TIP3    H1 8145   2.181   4.693   3.493
 2727TIP3    H2 8146   2.061   4.601   3.508
 2728TIP3   OH2 8147   5.678   2.895   4.587
 2728TIP3    H1 8148   5.609   2.873   4.524
 2728TIP3    H2 8149   5.751   2.926   4.533
 2729TIP3   OH2 8150   5.043   4.086   1.996
 2729TIP3    H1 8151   5.035   4.142   1.919
 2729TIP3    H2 8152   5.042   4.147   2.070
 2730TIP3   OH2 8153   5.957   4.880   1.951
 2730TIP3    H1 8154   5.871   4.917   1.933
 2730TIP3    H2 8155   5.941   4.786   1.961
 2731TIP3   OH2 8156   2.393   0.111   2.071
 2731TIP3    H1 8157   2.347   0.144   1.994
 2731TIP3    H2 8158   2.438   0.032   2.040
 2732TIP3   OH2 8159   0.915   0.840   2.671
 2732TIP3    H1 8160   0.979   0.908   2.651
 2732TIP3    H2 8161   0.839   0.862   2.617
 2733TIP3   OH2 8162   1.186   5.937   1.047
 2733TIP3    H1 8163   1.102   5.893   1.059
 2733TIP3    H2 8164   1.179   6.018   1.098
 2734TIP3   OH2 8165   6.769   5.190   4.870
 2734TIP3    H1 8166   6.738   5.275   4.838
 2734TIP3    H2 8167   6.785   5.204   4.964
 2735TIP3   OH2 8168   3.320   3.158   1.558
 2735TIP3    H1 8169   3.382   3.106   1.609
 2735TIP3    H2 8170   3.253   3.096   1.529
 2736TIP3   OH2 8171   3.278   4.657   3.034
 2736TIP3    H1 8172   3.359   4.606   3.039
 2736TIP3    H2 8173   3.233   4.641   3.116
 2737TIP3   OH2 8174   5.535   6.071   0.245
 2737TIP3    H1 8175   5.523   5.978   0.230
 2737TIP3    H2 8176   5.630   6.082   0.253
 2738TIP3   OH2 8177   6.792   0.286   0.984
 2738TIP3    H1 8178   6.868   0.229   0.973
 2738TIP3    H2 8179   6.718   0.233   0.956
 2739TIP3   OH2 8180   0.413   0.871   2.887
 2739TIP3    H1 8181   0.353   0.918   2.944
 2739TIP3    H2 8182   0.493   0.861   2.938
 2740TIP3   OH2 8183   1.450   4.795   2.438
 2740TIP3    H1 8184   1.509   4.725   2.412
 2740TIP3    H2 8185   1.478   4.821   2.525
 2741TIP3   OH2 8186   3.217   3.219   2.732
 2741TIP3    H1 8187   3.194   3.289   2.671
 2741TIP3    H2 8188   3.198   3.138   2.685
 2742TIP3   OH2 8189   1.507   6.373   1.650
 2742TIP3    H1 8190   1.593   6.356   1.611
 2742TIP3    H2 8191   1.489   6.296   1.704
 2743TIP3   OH2 8192   1.350   4.597   0.719
 2743TIP3    H1 8193   1.280   4.644   0.764
 2743TIP3    H2 8194   1.431   4.637   0.753
 2744TIP3   OH2 8195   0.277   6.666   3.621
 2744TIP3    H1 8196   0.342   6.597   3.604
 2744TIP3    H2 8197   0.256   6.657   3.714
 2745TIP3   OH2 8198   1.230   5.302   3.367
 2745TIP3    H1 8199   1.136   5.315   3.361
 2745TIP3    H2 8200   1.265   5.336   3.284
 2746TIP3   OH2 8201   6.818   0.526   4.336
 2746TIP3    H1 8202   6.845   0.618   4.345
 2746TIP3    H2 8203   6.778   0.522   4.249
 2747TIP3   OH2 8204   0.088   6.578   2.793
 2747TIP3    H1 8205   0.155   6.643   2.812
 2747TIP3    H2 8206   0.023   6.587   2.862
 2748TIP3   OH2 8207   0.610   2.356   1.336
 2748TIP3    H1 8208   0.550   2.427   1.360
 2748TIP3    H2 8209   0.583   2.282   1.391
 2749TIP3   OH2 8210   2.276   3.457   4.432
 2749TIP3    H1 8211   2.354   3.496   4.393
 2749TIP3    H2 8212   2.308   3.401   4.502
 2750TIP3   OH2 8213   5.343   2.223   1.090
 2750TIP3    H1 8214   5.421   2.212   1.144
 2750TIP3    H2 8215   5.273   2.183   1.141
 2751TIP3   OH2 8216   0.907   0.730   1.880
 2751TIP3    H1 8217   0.919   0.638   1.857
 2751TIP3    H2 8218   0.994   0.769   1.868
 2752TIP3   OH2 8219   6.585   1.446   3.346
 2752TIP3    H1 8220   6.660   1.452   3.287
 2752TIP3    H2 8221   6.512   1.482   3.296
 2753TIP3   OH2 8222   6.327   1.887   2.099
 2753TIP3    H1 8223   6.306   1.972   2.138
 2753TIP3    H2 8224   6.339   1.828   2.173
 2754TIP3   OH2 8225   3.282   1.285   0.264
 2754TIP3    H1 8226   3.343   1.335   0.211
 2754TIP3    H2 8227   3.196   1.312   0.233
 2755TIP3   OH2 8228   4.006   5.476   2.138
 2755TIP3    H1 8229   3.966   5.393   2.165
 2755TIP3    H2 8230   4.062   5.453   2.065
 2756TIP3   OH2 8231   5.350   5.572   4.224
 2756TIP3    H1 8232   5.279   5.508   4.223
 2756TIP3    H2 8233   5.333   5.627   4.147
 2757TIP3   OH2 8234   2.765   5.556   3.799
 2757TIP3    H1 8235   2.687   5.545   3.745
 2757TIP3    H2 8236   2.734   5.600   3.878
 2758TIP3   OH2 8237   6.493   2.543   4.001
 2758TIP3    H1 8238   6.452   2.533   4.087
 2758TIP3    H2 8239   6.573   2.490   4.006
 2759TIP3   OH2 8240   5.329   1.294   1.719
 2759TIP3    H1 8241   5.322   1.359   1.649
 2759TIP3    H2 8242   5.333   1.210   1.673
 2760TIP3   OH2 8243   7.002   1.326   1.259
 2760TIP3    H1 8244   7.006   1.328   1.163
 2760TIP3    H2 8245   6.983   1.235   1.280
 2761TIP3   OH2 8246   0.614   1.618   0.938
 2761TIP3    H1 8247   0.530   1.663   0.936
 2761TIP3    H2 8248   0.593   1.526   0.954
 2762TIP3   OH2 8249   3.139   0.233   4.136
 2762TIP3    H1 8250   3.186   0.167   4.186
 2762TIP3    H2 8251   3.103   0.293   4.202
 2763TIP3   OH2 8252   5.969   0.730   4.935
 2763TIP3    H1 8253   5.985   0.802   4.996
 2763TIP3    H2 8254   5.875   0.715   4.939
 2764TIP3   OH2 8255   6.269   5.204   1.877
 2764TIP3    H1 8256   6.210   5.174   1.946
 2764TIP3    H2 8257   6.235   5.164   1.797
 2765TIP3   OH2 8258   2.471   3.510   2.854
 2765TIP3    H1 8259   2.390   3.535   2.898
 2765TIP3    H2 8260   2.469   3.557   2.771
 2766TIP3   OH2 8261   1.812   2.319   3.612
 2766TIP3    H1 8262   1.851   2.405   3.596
 2766TIP3    H2 8263   1.852   2.261   3.547
 2767TIP3   OH2 8264   1.800   4.923   1.818
 2767TIP3    H1 8265   1.859   4.975   1.764
 2767TIP3    H2 8266   1.714   4.965   1.807
 2768TIP3   OH2 8267   0.912   3.253   3.923
 2768TIP3    H1 8268   0.831   3.215   3.958
 2768TIP3    H2 8269   0.901   3.249   3.828
 2769TIP3   OH2 8270   4.544   5.420   5.350
 2769TIP3    H1 8271   4.628   5.463   5.335
 2769TIP3    H2 8272   4.552   5.381   5.437
 2770TIP3   OH2 8273   5.701   5.095   4.426
 2770TIP3    H1 8274   5.728   5.131   4.511
 2770TIP3    H2 8275   5.622   5.144   4.403
 2771TIP3   OH2 8276   0.881   5.928   2.106
 2771TIP3    H1 8277   0.953   5.910   2.166
 2771TIP3    H2 8278   0.922   5.933   2.019
 2772TIP3   OH2 8279   5.674   5.016   3.459
 2772TIP3    H1 8280   5.689   4.974   3.543
 2772TIP3    H2 8281   5.690   4.947   3.394
 2773TIP3   OH2 8282   0.244   3.890   3.495
 2773TIP3    H1 8283   0.282   3.903   3.408
 2773TIP3    H2 8284   0.201   3.973   3.516
 2774TIP3   OH2 8285   6.956   4.411   4.202
 2774TIP3    H1 8286   6.872   4.447   4.174
 2774TIP3    H2 8287   6.933   4.343   4.266
 2775TIP3   OH2 8288   5.498   4.919   0.663
 2775TIP3    H1 8289   5.461   4.844   0.617
 2775TIP3    H2 8290   5.549   4.966   0.597
 2776TIP3   OH2 8291   4.946   0.246   3.904
 2776TIP3    H1 8292   4.859   0.215   3.930
 2776TIP3    H2 8293   4.992   0.260   3.987
 2777TIP3   OH2 8294   6.833   4.995   2.121
 2777TIP3    H1 8295   6.909   4.970   2.173
 2777TIP3    H2 8296   6.773   5.035   2.183
 2778TIP3   OH2 8297   0.356   0.685   1.942
 2778TIP3    H1 8298   0.307   0.603   1.936
 2778TIP3    H2 8299   0.447   0.661   1.927
 2779TIP3   OH2 8300   3.724   5.680   3.478
 2779TIP3    H1 8301   3.809   5.708   3.512
 2779TIP3    H2 8302   3.705   5.599   3.526
 2780TIP3   OH2 8303   2.467   0.505   2.642
 2780TIP3    H1 8304   2.462   0.552   2.725
 2780TIP3    H2 8305   2.558   0.477   2.636
 2781TIP3   OH2 8306   1.013   0.619   4.856
 2781TIP3    H1 8307   0.947   0.672   4.901
 2781TIP3    H2 8308   0.970   0.534   4.842
 2782TIP3   OH2 8309   0.408   4.859   2.248
 2782TIP3    H1 8310   0.456   4.918   2.190
 2782TIP3    H2 8311   0.447   4.873   2.334
 2783TIP3   OH2 8312   5.966   6.336   1.607
 2783TIP3    H1 8313   6.050   6.297   1.583
 2783TIP3    H2 8314   5.954   6.407   1.545
 2784TIP3   OH2 8315   1.878   3.192   3.007
 2784TIP3    H1 8316   1.920   3.140   2.939
 2784TIP3    H2 8317   1.805   3.139   3.037
 2785TIP3   OH2 8318   0.921   1.966   1.715
 2785TIP3    H1 8319   0.947   1.878   1.688
 2785TIP3    H2 8320   0.986   1.992   1.780
 2786TIP3   OH2 8321   1.799   3.460   1.045
 2786TIP3    H1 8322   1.803   3.471   0.950
 2786TIP3    H2 8323   1.890   3.466   1.073
 2787TIP3   OH2 8324   4.681   3.393   2.657
 2787TIP3    H1 8325   4.706   3.485   2.643
 2787TIP3    H2 8326   4.638   3.368   2.575
 2788TIP3   OH2 8327   6.882   1.681   1.213
 2788TIP3    H1 8328   6.875   1.639   1.128
 2788TIP3    H2 8329   6.824   1.629   1.270
 2789TIP3   OH2 8330   1.485   4.833   3.349
 2789TIP3    H1 8331   1.403   4.862   3.308
 2789TIP3    H2 8332   1.512   4.908   3.402
 2790TIP3   OH2 8333   1.363   6.120   4.906
 2790TIP3    H1 8334   1.414   6.056   4.857
 2790TIP3    H2 8335   1.340   6.188   4.842
 2791TIP3   OH2 8336   2.262   4.284   3.850
 2791TIP3    H1 8337   2.240   4.271   3.758
 2791TIP3    H2 8338   2.353   4.314   3.849
 2792TIP3   OH2 8339   4.072   0.139   3.279
 2792TIP3    H1 8340   4.156   0.157   3.322
 2792TIP3    H2 8341   4.090   0.064   3.223
 2793TIP3   OH2 8342   5.821   3.131   4.752
 2793TIP3    H1 8343   5.766   3.103   4.825
 2793TIP3    H2 8344   5.806   3.065   4.684
 2794TIP3   OH2 8345   1.560   0.126   3.864
 2794TIP3    H1 8346   1.604   0.108   3.781
 2794TIP3    H2 8347   1.606   0.203   3.898
 2795TIP3   OH2 8348   5.030   0.567   0.762
 2795TIP3    H1 8349   4.972   0.532   0.829
 2795TIP3    H2 8350   4.975   0.576   0.684
 2796TIP3   OH2 8351   6.601   0.172   1.472
 2796TIP3    H1 8352   6.561   0.093   1.437
 2796TIP3    H2 8353   6.539   0.203   1.538
 2797TIP3   OH2 8354   4.037   0.753   3.134
 2797TIP3    H1 8355   4.081   0.820   3.186
 2797TIP3    H2 8356   4.020   0.682   3.196
 2798TIP3   OH2 8357   1.777   4.185   2.811
 2798TIP3    H1 8358   1.812   4.273   2.818
 2798TIP3    H2 8359   1.815   4.149   2.731
 2799TIP3   OH2 8360   4.857   3.084  -0.006
 2799TIP3    H1 8361   4.887   3.140  -0.078
 2799TIP3    H2 8362   4.880   3.133   0.073
 2800TIP3   OH2 8363   3.563   3.553   4.919
 2800TIP3    H1 8364   3.523   3.627   4.965
 2800TIP3    H2 8365   3.611   3.506   4.987
 2801TIP3   OH2 8366   0.173   2.469   4.574
 2801TIP3    H1 8367   0.123   2.524   4.515
 2801TIP3    H2 8368   0.183   2.521   4.653
 2802TIP3   OH2 8369   4.193   2.307   1.855
 2802TIP3    H1 8370   4.245   2.275   1.929
 2802TIP3    H2 8371   4.115   2.345   1.896
 2803TIP3   OH2 8372   6.993   4.702   2.078
 2803TIP3    H1 8373   7.056   4.769   2.102
 2803TIP3    H2 8374   6.919   4.717   2.137
 2804TIP3   OH2 8375   5.137   3.895   5.544
 2804TIP3    H1 8376   5.105   3.806   5.532
 2804TIP3    H2 8377   5.090   3.947   5.479
 2805TIP3   OH2 8378   7.085   3.199   3.737
 2805TIP3    H1 8379   6.993   3.214   3.756
 2805TIP3    H2 8380   7.127   3.284   3.751
 2806TIP3   OH2 8381   2.857   3.169   4.820
 2806TIP3    H1 8382   2.801   3.233   4.863
 2806TIP3    H2 8383   2.820   3.084   4.844
 2807TIP3   OH2 8384   4.295   4.408   0.963
 2807TIP3    H1 8385   4.245   4.334   0.928
 2807TIP3    H2 8386   4.251   4.485   0.927
 2808TIP3   OH2 8387   3.770   0.781   0.899
 2808TIP3    H1 8388   3.706   0.759   0.832
 2808TIP3    H2 8389   3.725   0.843   0.957
 2809TIP3   OH2 8390   1.184   0.743   5.003
 2809TIP3    H1 8391   1.113   0.779   5.055
 2809TIP3    H2 8392   1.143   0.676   4.948
 2810TIP3   OH2 8393   2.673   5.558   5.499
 2810TIP3    H1 8394   2.729   5.634   5.488
 2810TIP3    H2 8395   2.589   5.584   5.459
 2811TIP3   OH2 8396   6.945   4.495   2.757
 2811TIP3    H1 8397   6.915   4.417   2.710
 2811TIP3    H2 8398   7.033   4.511   2.722
 2812TIP3   OH2 8399   0.676   3.048   0.851
 2812TIP3    H1 8400   0.732   3.109   0.899
 2812TIP3    H2 8401   0.618   3.011   0.917
 2813TIP3   OH2 8402   2.942   4.262   5.682
 2813TIP3    H1 8403   2.849   4.278   5.667
 2813TIP3    H2 8404   2.944   4.191   5.747
 2814TIP3   OH2 8405   3.960   1.542   3.343
 2814TIP3    H1 8406   3.922   1.618   3.299
 2814TIP3    H2 8407   3.889   1.507   3.397
 2815TIP3   OH2 8408   2.660   1.194   3.865
 2815TIP3    H1 8409   2.640   1.101   3.852
 2815TIP3    H2 8410   2.677   1.227   3.777
 2816TIP3   OH2 8411   0.385   1.992   3.536
 2816TIP3    H1 8412   0.426   1.906   3.546
 2816TIP3    H2 8413   0.422   2.027   3.455
 2817TIP3   OH2 8414   0.074   1.142   2.507
 2817TIP3    H1 8415   0.153   1.188   2.479
 2817TIP3    H2 8416   0.048   1.186   2.588
 2818TIP3   OH2 8417   6.029   4.664   4.708
 2818TIP3    H1 8418   6.046   4.574   4.682
 2818TIP3    H2 8419   6.054   4.668   4.800
 2819TIP3   OH2 8420   3.137   4.278   3.302
 2819TIP3    H1 8421   3.138   4.345   3.371
 2819TIP3    H2 8422   3.046   4.250   3.297
 2820TIP3   OH2 8423   3.063   0.280   1.794
 2820TIP3    H1 8424   3.003   0.217   1.834
 2820TIP3    H2 8425   3.151   0.248   1.817
 2821TIP3   OH2 8426   5.103   3.323   5.927
 2821TIP3    H1 8427   5.111   3.417   5.943
 2821TIP3    H2 8428   5.141   3.310   5.840
 2822TIP3   OH2 8429   4.042   6.442   3.259
 2822TIP3    H1 8430   3.972   6.432   3.195
 2822TIP3    H2 8431   4.108   6.377   3.235
 2823TIP3   OH2 8432   3.181   5.881   1.109
 2823TIP3    H1 8433   3.257   5.900   1.054
 2823TIP3    H2 8434   3.122   5.831   1.052
 2824TIP3   OH2 8435   4.978   0.428   5.848
 2824TIP3    H1 8436   4.928   0.429   5.929
 2824TIP3    H2 8437   4.943   0.353   5.799
 2825TIP3   OH2 8438   6.445   4.356   1.286
 2825TIP3    H1 8439   6.480   4.346   1.375
 2825TIP3    H2 8440   6.436   4.450   1.275
 2826TIP3   OH2 8441   3.408   0.746   2.397
 2826TIP3    H1 8442   3.488   0.705   2.365
 2826TIP3    H2 8443   3.431   0.838   2.409
 2827TIP3   OH2 8444   2.731   3.669   0.906
 2827TIP3    H1 8445   2.749   3.592   0.960
 2827TIP3    H2 8446   2.816   3.695   0.872
 2828TIP3   OH2 8447   5.511   1.543   2.109
 2828TIP3    H1 8448   5.491   1.472   2.047
 2828TIP3    H2 8449   5.441   1.538   2.174
 2829TIP3   OH2 8450   5.801   0.496   4.760
 2829TIP3    H1 8451   5.893   0.480   4.783
 2829TIP3    H2 8452   5.784   0.436   4.687
 2830TIP3   OH2 8453   5.783   5.579   1.662
 2830TIP3    H1 8454   5.849   5.569   1.593
 2830TIP3    H2 8455   5.699   5.568   1.617
 2831TIP3   OH2 8456   4.645   1.245   4.972
 2831TIP3    H1 8457   4.588   1.206   4.906
 2831TIP3    H2 8458   4.723   1.190   4.974
 2832TIP3   OH2 8459   2.886   2.984   0.727
 2832TIP3    H1 8460   2.955   2.923   0.701
 2832TIP3    H2 8461   2.921   3.070   0.705
 2833TIP3   OH2 8462   3.846   0.866   3.453
 2833TIP3    H1 8463   3.916   0.857   3.388
 2833TIP3    H2 8464   3.880   0.929   3.517
 2834TIP3   OH2 8465   3.464   3.662   2.096
 2834TIP3    H1 8466   3.468   3.661   2.192
 2834TIP3    H2 8467   3.460   3.755   2.072
 2835TIP3   OH2 8468   6.444   2.885   1.253
 2835TIP3    H1 8469   6.492   2.926   1.181
 2835TIP3    H2 8470   6.423   2.957   1.312
 2836TIP3   OH2 8471   5.247   0.615   1.633
 2836TIP3    H1 8472   5.285   0.661   1.558
 2836TIP3    H2 8473   5.157   0.596   1.606
 2837TIP3   OH2 8474   2.246   4.957   5.448
 2837TIP3    H1 8475   2.327   5.006   5.465
 2837TIP3    H2 8476   2.178   5.008   5.491
 2838TIP3   OH2 8477   3.819   5.798   2.159
 2838TIP3    H1 8478   3.785   5.711   2.143
 2838TIP3    H2 8479   3.911   5.793   2.134
 2839TIP3   OH2 8480   6.171   6.110   4.491
 2839TIP3    H1 8481   6.252   6.119   4.543
 2839TIP3    H2 8482   6.103   6.093   4.556
 2840TIP3   OH2 8483   4.544   0.253   1.085
 2840TIP3    H1 8484   4.510   0.236   1.173
 2840TIP3    H2 8485   4.552   0.167   1.045
 2841TIP3   OH2 8486   4.193   3.850   2.559
 2841TIP3    H1 8487   4.247   3.772   2.543
 2841TIP3    H2 8488   4.135   3.824   2.631
 2842TIP3   OH2 8489   4.686   2.274   4.658
 2842TIP3    H1 8490   4.731   2.242   4.579
 2842TIP3    H2 8491   4.685   2.369   4.647
 2843TIP3   OH2 8492   0.860   5.211   5.332
 2843TIP3    H1 8493   0.851   5.146   5.402
 2843TIP3    H2 8494   0.833   5.165   5.253
 2844TIP3   OH2 8495   0.821   0.233   4.650
 2844TIP3    H1 8496   0.793   0.297   4.586
 2844TIP3    H2 8497   0.828   0.282   4.732
 2845TIP3   OH2 8498   2.790   6.570   4.790
 2845TIP3    H1 8499   2.719   6.507   4.801
 2845TIP3    H2 8500   2.867   6.516   4.773
 2846TIP3   OH2 8501   6.867   4.291   4.685
 2846TIP3    H1 8502   6.933   4.350   4.647
 2846TIP3    H2 8503   6.807   4.349   4.732
 2847TIP3   OH2 8504   7.041   0.310   0.018
 2847TIP3    H1 8505   7.100   0.258   0.073
 2847TIP3    H2 8506   7.098   0.356  -0.043
 2848TIP3   OH2 8507   2.527   0.317   1.033
 2848TIP3    H1 8508   2.512   0.223   1.018
 2848TIP3    H2 8509   2.526   0.355   0.946
 2849TIP3   OH2 8510   3.323   0.909   3.683
 2849TIP3    H1 8511   3.378   0.869   3.616
 2849TIP3    H2 8512   3.271   0.974   3.636
 2850TIP3   OH2 8513   2.595   3.113   3.376
 2850TIP3    H1 8514   2.522   3.052   3.364
 2850TIP3    H2 8515   2.570   3.166   3.452
 2851TIP3   OH2 8516   4.284   0.730   1.120
 2851TIP3    H1 8517   4.217   0.767   1.063
 2851TIP3    H2 8518   4.259   0.638   1.130
 2852TIP3   OH2 8519   7.028   5.474   0.302
 2852TIP3    H1 8520   7.017   5.550   0.359
 2852TIP3    H2 8521   6.990   5.401   0.351
 2853TIP3   OH2 8522   5.318   1.997   3.689
 2853TIP3    H1 8523   5.242   2.053   3.702
 2853TIP3    H2 8524   5.285   1.908   3.702
 2854TIP3   OH2 8525   6.508   5.452   2.349
 2854TIP3    H1 8526   6.413   5.446   2.346
 2854TIP3    H2 8527   6.528   5.461   2.442
 2855TIP3   OH2 8528   6.193   0.062   5.126
 2855TIP3    H1 8529   6.280   0.042   5.091
 2855TIP3    H2 8530   6.210   0.118   5.202
 2856TIP3   OH2 8531   5.677   1.949   4.941
 2856TIP3    H1 8532   5.659   1.935   4.849
 2856TIP3    H2 8533   5.751   1.892   4.961
 2857TIP3   OH2 8534   0.654   4.477   3.259
 2857TIP3    H1 8535   0.724   4.522   3.212
 2857TIP3    H2 8536   0.577   4.485   3.202
 2858TIP3   OH2 8537   1.252   0.782   2.634
 2858TIP3    H1 8538   1.197   0.860   2.643
 2858TIP3    H2 8539   1.273   0.757   2.724
 2859TIP3   OH2 8540   3.789   2.920   5.316
 2859TIP3    H1 8541   3.738   2.958   5.244
 2859TIP3    H2 8542   3.843   2.854   5.275
 2860TIP3   OH2 8543   3.434   5.267   2.610
 2860TIP3    H1 8544   3.437   5.236   2.520
 2860TIP3    H2 8545   3.342   5.288   2.626
 2861TIP3   OH2 8546   1.423   1.031   3.966
 2861TIP3    H1 8547   1.425   1.043   4.061
 2861TIP3    H2 8548   1.383   1.112   3.932
 2862TIP3   OH2 8549   6.592   0.920   5.106
 2862TIP3    H1 8550   6.685   0.942   5.106
 2862TIP3    H2 8551   6.573   0.898   5.198
 2863TIP3   OH2 8552   5.028   6.187   5.078
 2863TIP3    H1 8553   5.034   6.097   5.108
 2863TIP3    H2 8554   5.101   6.231   5.122
 2864TIP3   OH2 8555   2.728   5.810   1.716
 2864TIP3    H1 8556   2.748   5.876   1.650
 2864TIP3    H2 8557   2.689   5.738   1.666
 2865TIP3   OH2 8558   7.094   6.046   0.384
 2865TIP3    H1 8559   7.063   6.046   0.474
 2865TIP3    H2 8560   7.127   6.134   0.370
 2866TIP3   OH2 8561   7.113   3.061   5.690
 2866TIP3    H1 8562   7.090   2.976   5.729
 2866TIP3    H2 8563   7.123   3.043   5.597
 2867TIP3   OH2 8564   2.500   4.842   5.187
 2867TIP3    H1 8565   2.570   4.884   5.237
 2867TIP3    H2 8566   2.546   4.788   5.122
 2868TIP3   OH2 8567   1.908   4.440   5.668
 2868TIP3    H1 8568   1.822   4.396   5.671
 2868TIP3    H2 8569   1.911   4.480   5.581
 2869TIP3   OH2 8570   1.705   2.176   0.352
 2869TIP3    H1 8571   1.705   2.264   0.314
 2869TIP3    H2 8572   1.683   2.190   0.444
 2870TIP3   OH2 8573   0.286   3.690   4.833
 2870TIP3    H1 8574   0.196   3.658   4.840
 2870TIP3    H2 8575   0.284   3.778   4.871
 2871TIP3   OH2 8576   1.386   2.081   5.048
 2871TIP3    H1 8577   1.304   2.107   5.006
 2871TIP3    H2 8578   1.409   1.998   5.007
 2872TIP3   OH2 8579   4.623   3.669   3.866
 2872TIP3    H1 8580   4.639   3.729   3.939
 2872TIP3    H2 8581   4.529   3.655   3.866
 2873TIP3   OH2 8582   4.272   6.615   2.106
 2873TIP3    H1 8583   4.296   6.702   2.072
 2873TIP3    H2 8584   4.200   6.632   2.166
 2874TIP3   OH2 8585   7.213   6.332   1.494
 2874TIP3    H1 8586   7.186   6.376   1.574
 2874TIP3    H2 8587   7.301   6.366   1.475
 2875TIP3   OH2 8588   7.186   6.469   0.601
 2875TIP3    H1 8589   7.280   6.453   0.598
 2875TIP3    H2 8590   7.153   6.404   0.663
 2876TIP3   OH2 8591   0.080   2.483   1.439
 2876TIP3    H1 8592   0.014   2.424   1.402
 2876TIP3    H2 8593   0.040   2.569   1.435
 2877TIP3   OH2 8594   3.399   5.232   2.332
 2877TIP3    H1 8595   3.404   5.312   2.281
 2877TIP3    H2 8596   3.309   5.201   2.320
 2878TIP3   OH2 8597   7.006   5.715   5.444
 2878TIP3    H1 8598   6.932   5.759   5.402
 2878TIP3    H2 8599   6.991   5.622   5.429
 2879TIP3   OH2 8600   3.908   4.139   4.754
 2879TIP3    H1 8601   3.849   4.130   4.679
 2879TIP3    H2 8602   3.856   4.109   4.829
 2880TIP3   OH2 8603   2.658   1.767   4.970
 2880TIP3    H1 8604   2.613   1.848   4.994
 2880TIP3    H2 8605   2.710   1.745   5.048
 2881TIP3   OH2 8606   6.205   0.616   0.251
 2881TIP3    H1 8607   6.210   0.531   0.293
 2881TIP3    H2 8608   6.276   0.616   0.187
 2882TIP3   OH2 8609   0.210   0.458   3.731
 2882TIP3    H1 8610   0.121   0.426   3.747
 2882TIP3    H2 8611   0.261   0.421   3.803
 2883TIP3   OH2 8612   3.702   3.681   5.500
 2883TIP3    H1 8613   3.650   3.755   5.467
 2883TIP3    H2 8614   3.793   3.706   5.483
 2884TIP3   OH2 8615   0.430   4.998   3.068
 2884TIP3    H1 8616   0.475   5.045   2.997
 2884TIP3    H2 8617   0.501   4.969   3.125
 2885TIP3   OH2 8618   4.548   4.783   3.675
 2885TIP3    H1 8619   4.578   4.817   3.591
 2885TIP3    H2 8620   4.582   4.694   3.679
 2886TIP3   OH2 8621   2.235   3.922   3.333
 2886TIP3    H1 8622   2.323   3.888   3.320
 2886TIP3    H2 8623   2.224   3.987   3.262
 2887TIP3   OH2 8624   4.835   0.691   3.521
 2887TIP3    H1 8625   4.796   0.762   3.572
 2887TIP3    H2 8626   4.761   0.642   3.487
 2888TIP3   OH2 8627   5.614   2.985   0.400
 2888TIP3    H1 8628   5.561   3.020   0.472
 2888TIP3    H2 8629   5.631   3.061   0.344
 2889TIP3   OH2 8630   3.531   2.244   1.435
 2889TIP3    H1 8631   3.571   2.162   1.404
 2889TIP3    H2 8632   3.546   2.306   1.365
 2890TIP3   OH2 8633   2.091   1.947   4.679
 2890TIP3    H1 8634   1.997   1.928   4.680
 2890TIP3    H2 8635   2.101   2.020   4.740
 2891TIP3   OH2 8636   6.218   1.700   1.895
 2891TIP3    H1 8637   6.212   1.705   1.991
 2891TIP3    H2 8638   6.188   1.786   1.865
 2892TIP3   OH2 8639   6.880   0.993   1.882
 2892TIP3    H1 8640   6.839   1.058   1.938
 2892TIP3    H2 8641   6.889   1.037   1.797
 2893TIP3   OH2 8642   1.944   3.316   2.453
 2893TIP3    H1 8643   1.970   3.407   2.442
 2893TIP3    H2 8644   1.857   3.311   2.413
 2894TIP3   OH2 8645   5.784   5.925   3.875
 2894TIP3    H1 8646   5.723   5.910   3.947
 2894TIP3    H2 8647   5.852   5.981   3.912
 2895TIP3   OH2 8648   5.220   5.030   1.679
 2895TIP3    H1 8649   5.192   5.083   1.753
 2895TIP3    H2 8650   5.303   4.991   1.706
 2896TIP3   OH2 8651   5.827   0.794   4.241
 2896TIP3    H1 8652   5.784   0.737   4.177
 2896TIP3    H2 8653   5.841   0.737   4.317
 2897TIP3   OH2 8654   5.839   5.738   0.764
 2897TIP3    H1 8655   5.909   5.724   0.827
 2897TIP3    H2 8656   5.882   5.741   0.679
 2898TIP3   OH2 8657   2.284   4.671   4.980
 2898TIP3    H1 8658   2.206   4.617   4.967
 2898TIP3    H2 8659   2.344   4.643   4.911
 2899TIP3   OH2 8660   2.972   5.478   0.862
 2899TIP3    H1 8661   3.068   5.482   0.860
 2899TIP3    H2 8662   2.948   5.442   0.776
 2900TIP3   OH2 8663   1.575   2.285   4.413
 2900TIP3    H1 8664   1.617   2.200   4.400
 2900TIP3    H2 8665   1.525   2.275   4.494
 2901TIP3   OH2 8666   4.787   6.145   2.926
 2901TIP3    H1 8667   4.785   6.127   3.020
 2901TIP3    H2 8668   4.836   6.226   2.918
 2902TIP3   OH2 8669   6.307   4.587   2.039
 2902TIP3    H1 8670   6.245   4.605   1.968
 2902TIP3    H2 8671   6.290   4.656   2.104
 2903TIP3   OH2 8672   6.456   2.825   4.195
 2903TIP3    H1 8673   6.506   2.748   4.221
 2903TIP3    H2 8674   6.437   2.869   4.278
 2904TIP3   OH2 8675   6.785   3.621   1.454
 2904TIP3    H1 8676   6.766   3.653   1.366
 2904TIP3    H2 8677   6.812   3.699   1.503
 2905TIP3   OH2 8678   6.696   2.613   4.465
 2905TIP3    H1 8679   6.713   2.530   4.509
 2905TIP3    H2 8680   6.746   2.608   4.383
 2906TIP3   OH2 8681   2.401   3.966   1.104
 2906TIP3    H1 8682   2.403   4.024   1.180
 2906TIP3    H2 8683   2.477   3.909   1.115
 2907TIP3   OH2 8684   4.158   3.457   4.960
 2907TIP3    H1 8685   4.189   3.542   4.928
 2907TIP3    H2 8686   4.112   3.418   4.886
 2908TIP3   OH2 8687   1.560   3.020   2.931
 2908TIP3    H1 8688   1.489   3.016   2.995
 2908TIP3    H2 8689   1.638   2.992   2.980
 2909TIP3   OH2 8690   4.793   1.519   2.000
 2909TIP3    H1 8691   4.747   1.455   1.945
 2909TIP3    H2 8692   4.852   1.466   2.054
 2910TIP3   OH2 8693   6.939   6.669   1.602
 2910TIP3    H1 8694   7.007   6.679   1.535
 2910TIP3    H2 8695   6.859   6.700   1.559
 2911TIP3   OH2 8696   3.922   1.840   2.544
 2911TIP3    H1 8697   3.962   1.839   2.631
 2911TIP3    H2 8698   3.960   1.764   2.499
 2912TIP3   OH2 8699   0.845   0.684   0.609
 2912TIP3    H1 8700   0.774   0.647   0.557
 2912TIP3    H2 8701   0.837   0.778   0.598
 2913TIP3   OH2 8702   0.546   4.987   0.639
 2913TIP3    H1 8703   0.619   4.995   0.577
 2913TIP3    H2 8704   0.568   4.911   0.692
 2914TIP3   OH2 8705   6.073   1.672   5.682
 2914TIP3    H1 8706   6.161   1.636   5.670
 2914TIP3    H2 8707   6.015   1.604   5.647
 2915TIP3   OH2 8708   2.513   4.760   1.610
 2915TIP3    H1 8709   2.574   4.688   1.624
 2915TIP3    H2 8710   2.428   4.727   1.641
 2916TIP3   OH2 8711   2.925   1.476   5.074
 2916TIP3    H1 8712   2.856   1.413   5.094
 2916TIP3    H2 8713   2.899   1.556   5.121
 2917TIP3   OH2 8714   0.921   6.714   2.680
 2917TIP3    H1 8715   0.978   6.658   2.732
 2917TIP3    H2 8716   0.845   6.730   2.736
 2918TIP3   OH2 8717   2.815   5.192   3.167
 2918TIP3    H1 8718   2.892   5.137   3.175
 2918TIP3    H2 8719   2.816   5.220   3.075
 2919TIP3   OH2 8720   1.549   2.100   3.213
 2919TIP3    H1 8721   1.530   2.165   3.281
 2919TIP3    H2 8722   1.507   2.020   3.245
 2920TIP3   OH2 8723   3.556   2.730   0.666
 2920TIP3    H1 8724   3.495   2.665   0.701
 2920TIP3    H2 8725   3.572   2.702   0.576
 2921TIP3   OH2 8726   0.822   4.357   4.263
 2921TIP3    H1 8727   0.902   4.318   4.227
 2921TIP3    H2 8728   0.842   4.375   4.354
 2922TIP3   OH2 8729   7.066   6.658   0.207
 2922TIP3    H1 8730   7.075   6.720   0.280
 2922TIP3    H2 8731   7.048   6.574   0.248
 2923TIP3   OH2 8732   4.153   4.031   4.962
 2923TIP3    H1 8733   4.246   4.023   4.939
 2923TIP3    H2 8734   4.119   4.095   4.900
 2924TIP3   OH2 8735   6.242   6.090   4.213
 2924TIP3    H1 8736   6.308   6.151   4.182
 2924TIP3    H2 8737   6.222   6.119   4.303
 2925TIP3   OH2 8738   0.012   6.003   2.260
 2925TIP3    H1 8739   0.074   6.029   2.192
 2925TIP3    H2 8740  -0.064   5.972   2.211
 2926TIP3   OH2 8741   5.153   4.770   4.229
 2926TIP3    H1 8742   5.117   4.725   4.305
 2926TIP3    H2 8743   5.247   4.774   4.246
 2927TIP3   OH2 8744   4.569   4.076   4.273
 2927TIP3    H1 8745   4.618   4.039   4.346
 2927TIP3    H2 8746   4.508   4.138   4.314
 2928TIP3   OH2 8747   5.743   5.581   4.797
 2928TIP3    H1 8748   5.665   5.632   4.778
 2928TIP3    H2 8749   5.709   5.502   4.840
 2929TIP3   OH2 8750   4.918   5.011   4.361
 2929TIP3    H1 8751   4.943   4.938   4.418
 2929TIP3    H2 8752   4.919   4.974   4.273
 2930TIP3   OH2 8753   1.325   1.349   4.180
 2930TIP3    H1 8754   1.335   1.372   4.272
 2930TIP3    H2 8755   1.367   1.420   4.132
 2931TIP3   OH2 8756   1.179   2.017   1.277
 2931TIP3    H1 8757   1.260   2.021   1.327
 2931TIP3    H2 8758   1.161   1.924   1.268
 2932TIP3   OH2 8759   0.479   4.142   1.016
 2932TIP3    H1 8760   0.473   4.135   0.920
 2932TIP3    H2 8761   0.560   4.192   1.030
 2933TIP3   OH2 8762   6.541   1.195   0.730
 2933TIP3    H1 8763   6.564   1.180   0.638
 2933TIP3    H2 8764   6.448   1.173   0.736
 2934TIP3   OH2 8765   1.600   4.947   4.920
 2934TIP3    H1 8766   1.632   4.931   5.009
 2934TIP3    H2 8767   1.605   4.861   4.877
 2935TIP3   OH2 8768   5.801   4.696   1.056
 2935TIP3    H1 8769   5.746   4.731   0.985
 2935TIP3    H2 8770   5.883   4.744   1.048
 2936TIP3   OH2 8771   2.792   5.928   0.670
 2936TIP3    H1 8772   2.795   5.845   0.622
 2936TIP3    H2 8773   2.865   5.922   0.732
 2937TIP3   OH2 8774   6.574   0.890   0.864
 2937TIP3    H1 8775   6.497   0.887   0.806
 2937TIP3    H2 8776   6.633   0.823   0.829
 2938TIP3   OH2 8777   0.080   2.828   5.745
 2938TIP3    H1 8778  -0.005   2.813   5.787
 2938TIP3    H2 8779   0.063   2.818   5.652
 2939TIP3   OH2 8780   5.873   3.001   5.136
 2939TIP3    H1 8781   5.783   3.005   5.105
 2939TIP3    H2 8782   5.865   2.983   5.230
 2940TIP3   OH2 8783   3.121   3.810   5.576
 2940TIP3    H1 8784   3.038   3.790   5.534
 2940TIP3    H2 8785   3.179   3.837   5.505
 2941TIP3   OH2 8786   4.157   3.449   3.946
 2941TIP3    H1 8787   4.177   3.436   4.038
 2941TIP3    H2 8788   4.192   3.372   3.902
 2942TIP3   OH2 8789   2.446   2.113   1.839
 2942TIP3    H1 8790   2.538   2.103   1.866
 2942TIP3    H2 8791   2.425   2.031   1.795
 2943TIP3   OH2 8792   1.647   1.927   0.830
 2943TIP3    H1 8793   1.682   1.925   0.741
 2943TIP3    H2 8794   1.561   1.969   0.821
 2944TIP3   OH2 8795   3.340   0.666   0.837
 2944TIP3    H1 8796   3.347   0.761   0.827
 2944TIP3    H2 8797   3.270   0.653   0.900
 2945TIP3   OH2 8798   6.065   0.401   4.739
 2945TIP3    H1 8799   6.019   0.341   4.797
 2945TIP3    H2 8800   6.084   0.350   4.661
 2946TIP3   OH2 8801   5.882   2.037   5.433
 2946TIP3    H1 8802   5.891   1.942   5.431
 2946TIP3    H2 8803   5.906   2.066   5.345
 2947TIP3   OH2 8804   1.314   4.851   5.202
 2947TIP3    H1 8805   1.224   4.882   5.209
 2947TIP3    H2 8806   1.349   4.896   5.124
 2948TIP3   OH2 8807   2.303   5.066   3.387
 2948TIP3    H1 8808   2.276   5.118   3.311
 2948TIP3    H2 8809   2.390   5.034   3.364
 2949TIP3   OH2 8810   4.581   3.489   5.722
 2949TIP3    H1 8811   4.623   3.549   5.660
 2949TIP3    H2 8812   4.652   3.461   5.780
 2950TIP3   OH2 8813   5.437   6.093   2.863
 2950TIP3    H1 8814   5.368   6.145   2.823
 2950TIP3    H2 8815   5.471   6.038   2.793
 2951TIP3   OH2 8816   0.668   5.402   0.854
 2951TIP3    H1 8817   0.673   5.441   0.766
 2951TIP3    H2 8818   0.730   5.329   0.851
 2952TIP3   OH2 8819   5.138   1.209   0.028
 2952TIP3    H1 8820   5.173   1.188   0.115
 2952TIP3    H2 8821   5.201   1.171  -0.033
 2953TIP3   OH2 8822   6.802   5.305   2.030
 2953TIP3    H1 8823   6.729   5.253   1.995
 2953TIP3    H2 8824   6.879   5.249   2.021
 2954TIP3   OH2 8825   4.224   5.039   3.988
 2954TIP3    H1 8826   4.190   5.087   4.063
 2954TIP3    H2 8827   4.153   4.979   3.964
 2955TIP3   OH2 8828   4.381   4.180   5.419
 2955TIP3    H1 8829   4.291   4.149   5.420
 2955TIP3    H2 8830   4.433   4.101   5.400
 2956TIP3   OH2 8831   3.495   4.554   1.740
 2956TIP3    H1 8832   3.564   4.490   1.724
 2956TIP3    H2 8833   3.418   4.501   1.763
 2957TIP3   OH2 8834   4.865   4.259   5.542
 2957TIP3    H1 8835   4.826   4.328   5.487
 2957TIP3    H2 8836   4.822   4.179   5.512
 2958TIP3   OH2 8837   4.394   1.848   4.337
 2958TIP3    H1 8838   4.379   1.856   4.243
 2958TIP3    H2 8839   4.359   1.929   4.375
 2959TIP3   OH2 8840   3.300   6.472   3.736
 2959TIP3    H1 8841   3.377   6.432   3.697
 2959TIP3    H2 8842   3.231   6.407   3.725
 2960TIP3   OH2 8843   2.422   6.304   0.881
 2960TIP3    H1 8844   2.451   6.220   0.915
 2960TIP3    H2 8845   2.375   6.283   0.800
 2961TIP3   OH2 8846   3.934   4.710   1.618
 2961TIP3    H1 8847   3.942   4.622   1.655
 2961TIP3    H2 8848   4.010   4.757   1.654
 2962TIP3   OH2 8849   7.166   6.746   1.091
 2962TIP3    H1 8850   7.125   6.665   1.060
 2962TIP3    H2 8851   7.155   6.807   1.018
 2963TIP3   OH2 8852   4.157   4.401   3.139
 2963TIP3    H1 8853   4.196   4.434   3.219
 2963TIP3    H2 8854   4.140   4.479   3.086
 2964TIP3   OH2 8855   3.741   6.740   3.706
 2964TIP3    H1 8856   3.704   6.820   3.743
 2964TIP3    H2 8857   3.800   6.770   3.637
 2965TIP3   OH2 8858   0.795   6.217   2.606
 2965TIP3    H1 8859   0.834   6.164   2.536
 2965TIP3    H2 8860   0.712   6.248   2.571
 2966TIP3   OH2 8861   1.637   1.145   0.998
 2966TIP3    H1 8862   1.653   1.054   1.024
 2966TIP3    H2 8863   1.565   1.173   1.055
 2967TIP3   OH2 8864   7.082   6.505   4.446
 2967TIP3    H1 8865   7.159   6.543   4.490
 2967TIP3    H2 8866   7.074   6.418   4.483
 2968TIP3   OH2 8867   4.886   4.655   5.270
 2968TIP3    H1 8868   4.857   4.586   5.210
 2968TIP3    H2 8869   4.822   4.726   5.258
 2969TIP3   OH2 8870   6.768   2.923   4.069
 2969TIP3    H1 8871   6.751   2.957   3.981
 2969TIP3    H2 8872   6.681   2.902   4.103
 2970TIP3   OH2 8873   3.989   6.683   2.897
 2970TIP3    H1 8874   3.956   6.628   2.968
 2970TIP3    H2 8875   3.929   6.668   2.824
 2971TIP3   OH2 8876   4.020   6.664   5.283
 2971TIP3    H1 8877   3.928   6.639   5.296
 2971TIP3    H2 8878   4.062   6.583   5.253
 2972TIP3   OH2 8879   6.208   4.750   3.508
 2972TIP3    H1 8880   6.222   4.745   3.413
 2972TIP3    H2 8881   6.161   4.669   3.529
 2973TIP3   OH2 8882   4.397   3.130   3.791
 2973TIP3    H1 8883   4.340   3.070   3.744
 2973TIP3    H2 8884   4.415   3.200   3.728
 2974TIP3   OH2 8885   4.353   3.450   2.352
 2974TIP3    H1 8886   4.443   3.462   2.322
 2974TIP3    H2 8887   4.358   3.376   2.413
 2975TIP3   OH2 8888   2.567   1.903   3.393
 2975TIP3    H1 8889   2.658   1.918   3.418
 2975TIP3    H2 8890   2.570   1.823   3.339
 2976TIP3   OH2 8891   0.255   2.549   5.850
 2976TIP3    H1 8892   0.238   2.567   5.757
 2976TIP3    H2 8893   0.225   2.459   5.863
 2977TIP3   OH2 8894   4.988   3.944   2.296
 2977TIP3    H1 8895   5.018   4.027   2.257
 2977TIP3    H2 8896   4.987   3.962   2.390
 2978TIP3   OH2 8897   5.834   3.671   5.421
 2978TIP3    H1 8898   5.789   3.751   5.449
 2978TIP3    H2 8899   5.852   3.685   5.328
 2979TIP3   OH2 8900   0.180   3.302   5.359
 2979TIP3    H1 8901   0.275   3.300   5.366
 2979TIP3    H2 8902   0.163   3.325   5.267
 2980TIP3   OH2 8903   1.364   3.872   4.083
 2980TIP3    H1 8904   1.445   3.887   4.133
 2980TIP3    H2 8905   1.386   3.802   4.022
 2981TIP3   OH2 8906   7.143   5.530   1.412
 2981TIP3    H1 8907   7.056   5.491   1.405
 2981TIP3    H2 8908   7.130   5.606   1.469
 2982TIP3   OH2 8909   0.157   2.667   0.657
 2982TIP3    H1 8910   0.179   2.602   0.724
 2982TIP3    H2 8911   0.076   2.635   0.619
 2983TIP3   OH2 8912   6.627   2.122   2.788
 2983TIP3    H1 8913   6.605   2.171   2.709
 2983TIP3    H2 8914   6.558   2.056   2.796
 2984TIP3   OH2 8915   5.364   6.021   1.536
 2984TIP3    H1 8916   5.435   5.959   1.554
 2984TIP3    H2 8917   5.308   5.976   1.473
 2985TIP3   OH2 8918   4.171   0.086   2.692
 2985TIP3    H1 8919   4.188   0.049   2.778
 2985TIP3    H2 8920   4.213   0.026   2.630
 2986TIP3   OH2 8921   6.518   6.695   2.245
 2986TIP3    H1 8922   6.437   6.705   2.195
 2986TIP3    H2 8923   6.568   6.775   2.228
 2987TIP3   OH2 8924   0.668   0.879   3.738
 2987TIP3    H1 8925   0.701   0.950   3.792
 2987TIP3    H2 8926   0.609   0.830   3.796
 2988TIP3   OH2 8927   2.151   0.255   2.883
 2988TIP3    H1 8928   2.141   0.328   2.822
 2988TIP3    H2 8929   2.110   0.286   2.964
 2989TIP3   OH2 8930   2.494   2.772   1.929
 2989TIP3    H1 8931   2.406   2.802   1.909
 2989TIP3    H2 8932   2.490   2.746   2.022
 2990TIP3   OH2 8933   4.858   4.766   3.876
 2990TIP3    H1 8934   4.770   4.793   3.902
 2990TIP3    H2 8935   4.843   4.700   3.808
 2991TIP3   OH2 8936   1.620   2.248   1.096
 2991TIP3    H1 8937   1.580   2.179   1.149
 2991TIP3    H2 8938   1.693   2.280   1.149
 2992TIP3   OH2 8939   6.169   2.129   4.497
 2992TIP3    H1 8940   6.136   2.147   4.409
 2992TIP3    H2 8941   6.106   2.171   4.555
 2993TIP3   OH2 8942   1.512   6.136   0.069
 2993TIP3    H1 8943   1.490   6.162   0.158
 2993TIP3    H2 8944   1.494   6.213   0.016
 2994TIP3   OH2 8945   1.107   1.789   4.067
 2994TIP3    H1 8946   1.102   1.753   4.155
 2994TIP3    H2 8947   1.026   1.839   4.057
 2995TIP3   OH2 8948   3.762   0.555   0.654
 2995TIP3    H1 8949   3.716   0.598   0.582
 2995TIP3    H2 8950   3.839   0.609   0.669
 2996TIP3   OH2 8951   6.796   0.539   3.764
 2996TIP3    H1 8952   6.818   0.631   3.781
 2996TIP3    H2 8953   6.851   0.490   3.825
 2997TIP3   OH2 8954   1.953   4.200   0.098
 2997TIP3    H1 8955   2.010   4.277   0.100
 2997TIP3    H2 8956   1.871   4.230   0.136
 2998TIP3   OH2 8957   0.430   3.149   4.430
 2998TIP3    H1 8958   0.475   3.150   4.346
 2998TIP3    H2 8959   0.497   3.169   4.494
 2999TIP3   OH2 8960   3.089   0.752   3.736
 2999TIP3    H1 8961   3.081   0.845   3.718
 2999TIP3    H2 8962   3.172   0.727   3.696
 3000TIP3   OH2 8963   2.810   1.181   5.466
 3000TIP3    H1 8964   2.836   1.274   5.466
 3000TIP3    H2 8965   2.720   1.182   5.496
 3001TIP3   OH2 8966   5.689   1.733   2.189
 3001TIP3    H1 8967   5.642   1.650   2.176
 3001TIP3    H2 8968   5.630   1.786   2.242
 3002TIP3   OH2 8969   6.813   5.960   2.013
 3002TIP3    H1 8970   6.785   5.906   1.939
 3002TIP3    H2 8971   6.873   5.905   2.062
 3003TIP3   OH2 8972   4.729   5.390   0.980
 3003TIP3    H1 8973   4.739   5.307   0.933
 3003TIP3    H2 8974   4.764   5.456   0.920
 3004TIP3   OH2 8975   0.709   2.766   1.531
 3004TIP3    H1 8976   0.699   2.759   1.626
 3004TIP3    H2 8977   0.713   2.860   1.514
 3005TIP3   OH2 8978   2.960   6.158   0.633
 3005TIP3    H1 8979   2.916   6.242   0.647
 3005TIP3    H2 8980   2.890   6.093   0.637
 3006TIP3   OH2 8981   1.127   4.415   3.444
 3006TIP3    H1 8982   1.156   4.498   3.481
 3006TIP3    H2 8983   1.193   4.394   3.378
 3007TIP3   OH2 8984   0.640   6.755   2.015
 3007TIP3    H1 8985   0.698   6.769   1.940
 3007TIP3    H2 8986   0.564   6.810   1.996
 3008TIP3   OH2 8987   0.045   1.245   3.078
 3008TIP3    H1 8988   0.080   1.165   3.118
 3008TIP3    H2 8989   0.065   1.314   3.142
 3009TIP3   OH2 8990   6.735   5.789   1.787
 3009TIP3    H1 8991   6.767   5.710   1.832
 3009TIP3    H2 8992   6.652   5.761   1.747
 3010TIP3   OH2 8993   1.175   1.085   5.232
 3010TIP3    H1 8994   1.147   1.161   5.284
 3010TIP3    H2 8995   1.177   1.117   5.142
 3011TIP3   OH2 8996   2.616   2.223   4.791
 3011TIP3    H1 8997   2.552   2.263   4.732
 3011TIP3    H2 8998   2.701   2.241   4.749
 3012TIP3   OH2 8999   0.893   3.932   3.996
 3012TIP3    H1 9000   0.908   3.855   3.940
 3012TIP3    H2 9001   0.963   3.928   4.061
 3013TIP3   OH2 9002   5.070   5.988   3.888
 3013TIP3    H1 9003   5.162   5.994   3.917
 3013TIP3    H2 9004   5.072   5.924   3.817
 3014TIP3   OH2 9005   1.971   5.616   1.776
 3014TIP3    H1 9006   1.981   5.619   1.871
 3014TIP3    H2 9007   2.054   5.579   1.744
 3015TIP3   OH2 9008   3.612   2.771   1.441
 3015TIP3    H1 9009   3.571   2.837   1.385
 3015TIP3    H2 9010   3.570   2.783   1.527
 3016TIP3   OH2 9011   0.822   5.143   1.057
 3016TIP3    H1 9012   0.831   5.201   0.981
 3016TIP3    H2 9013   0.742   5.093   1.039
 3017TIP3   OH2 9014   2.601   4.193   5.279
 3017TIP3    H1 9015   2.681   4.243   5.292
 3017TIP3    H2 9016   2.619   4.109   5.321
 3018TIP3   OH2 9017   3.638   1.468   5.458
 3018TIP3    H1 9018   3.561   1.432   5.501
 3018TIP3    H2 9019   3.705   1.401   5.466
 3019TIP3   OH2 9020   2.403   2.166   3.294
 3019TIP3    H1 9021   2.478   2.128   3.341
 3019TIP3    H2 9022   2.333   2.102   3.307
 3020TIP3   OH2 9023   2.825   5.177   5.709
 3020TIP3    H1 9024   2.809   5.086   5.682
 3020TIP3    H2 9025   2.753   5.197   5.769
 3021TIP3   OH2 9026   4.043   2.148   2.278
 3021TIP3    H1 9027   4.076   2.101   2.202
 3021TIP3    H2 9028   4.074   2.238   2.266
 3022TIP3   OH2 9029   4.111   4.110   2.065
 3022TIP3    H1 9030   4.090   4.052   2.138
 3022TIP3    H2 9031   4.134   4.193   2.106
 3023TIP3   OH2 9032   2.948   2.503   5.567
 3023TIP3    H1 9033   3.012   2.432   5.564
 3023TIP3    H2 9034   2.936   2.528   5.475
 3024TIP3   OH2 9035   0.494   4.667   5.533
 3024TIP3    H1 9036   0.558   4.610   5.491
 3024TIP3    H2 9037   0.501   4.646   5.626
 3025TIP3   OH2 9038   6.102   0.623   4.268
 3025TIP3    H1 9039   6.104   0.712   4.303
 3025TIP3    H2 9040   6.024   0.584   4.307
 3026TIP3   OH2 9041   3.056   0.554   1.885
 3026TIP3    H1 9042   3.151   0.570   1.887
 3026TIP3    H2 9043   3.047   0.470   1.840
 3027TIP3   OH2 9044   0.446   4.065   5.556
 3027TIP3    H1 9045   0.413   4.144   5.598
 3027TIP3    H2 9046   0.514   4.033   5.616
 3028TIP3   OH2 9047   6.251   1.161   5.677
 3028TIP3    H1 9048   6.168   1.199   5.706
 3028TIP3    H2 9049   6.317   1.221   5.711
 3029TIP3   OH2 9050   3.161   2.493   2.384
 3029TIP3    H1 9051   3.098   2.422   2.369
 3029TIP3    H2 9052   3.161   2.505   2.479
 3030TIP3   OH2 9053   5.697   3.357   3.070
 3030TIP3    H1 9054   5.781   3.361   3.115
 3030TIP3    H2 9055   5.635   3.329   3.138
 3031TIP3   OH2 9056   6.199   4.050   2.616
 3031TIP3    H1 9057   6.259   4.112   2.574
 3031TIP3    H2 9058   6.251   4.010   2.686
 3032TIP3   OH2 9059   1.243   3.229   5.881
 3032TIP3    H1 9060   1.318   3.182   5.845
 3032TIP3    H2 9061   1.219   3.292   5.814
 3033TIP3   OH2 9062   4.248   0.445   2.463
 3033TIP3    H1 9063   4.226   0.381   2.395
 3033TIP3    H2 9064   4.336   0.475   2.440
 3034TIP3   OH2 9065   4.850   6.432   4.301
 3034TIP3    H1 9066   4.910   6.372   4.344
 3034TIP3    H2 9067   4.900   6.512   4.289
 3035TIP3   OH2 9068   1.436   6.116   4.133
 3035TIP3    H1 9069   1.371   6.050   4.158
 3035TIP3    H2 9070   1.509   6.102   4.194
 3036TIP3   OH2 9071   0.552   2.527   3.621
 3036TIP3    H1 9072   0.499   2.502   3.697
 3036TIP3    H2 9073   0.637   2.486   3.637
 3037TIP3   OH2 9074   3.267   2.871   5.661
 3037TIP3    H1 9075   3.346   2.817   5.662
 3037TIP3    H2 9076   3.199   2.815   5.698
 3038TIP3   OH2 9077   6.165   5.683   2.025
 3038TIP3    H1 9078   6.091   5.703   1.968
 3038TIP3    H2 9079   6.214   5.765   2.031
 3039TIP3   OH2 9080   6.033   6.056   4.047
 3039TIP3    H1 9081   6.075   6.074   4.131
 3039TIP3    H2 9082   6.096   6.086   3.982
 3040TIP3   OH2 9083   2.767   6.635   1.414
 3040TIP3    H1 9084   2.766   6.641   1.509
 3040TIP3    H2 9085   2.815   6.554   1.395
 3041TIP3   OH2 9086   1.835   3.104   5.368
 3041TIP3    H1 9087   1.774   3.073   5.436
 3041TIP3    H2 9088   1.884   3.026   5.342
 3042TIP3   OH2 9089   2.093   2.367   3.724
 3042TIP3    H1 9090   2.092   2.295   3.661
 3042TIP3    H2 9091   2.036   2.433   3.686
 3043TIP3   OH2 9092   1.528   0.168   2.360
 3043TIP3    H1 9093   1.616   0.170   2.396
 3043TIP3    H2 9094   1.536   0.210   2.274
 3044TIP3   OH2 9095   5.098   2.466   0.394
 3044TIP3    H1 9096   5.102   2.433   0.484
 3044TIP3    H2 9097   5.144   2.400   0.342
 3045TIP3   OH2 9098   1.571   5.077   4.506
 3045TIP3    H1 9099   1.620   4.998   4.531
 3045TIP3    H2 9100   1.639   5.141   4.484
 3046TIP3   OH2 9101   5.424   2.456   4.858
 3046TIP3    H1 9102   5.477   2.498   4.925
 3046TIP3    H2 9103   5.478   2.456   4.779
 3047TIP3   OH2 9104   2.600   6.322   3.827
 3047TIP3    H1 9105   2.562   6.410   3.825
 3047TIP3    H2 9106   2.660   6.324   3.902
 3048TIP3   OH2 9107   3.708   0.147   5.853
 3048TIP3    H1 9108   3.762   0.125   5.776
 3048TIP3    H2 9109   3.771   0.179   5.917
 3049TIP3   OH2 9110   5.447   0.576   4.481
 3049TIP3    H1 9111   5.513   0.644   4.492
 3049TIP3    H2 9112   5.364   0.622   4.494
 3050TIP3   OH2 9113   5.912   1.769   5.366
 3050TIP3    H1 9114   5.938   1.686   5.407
 3050TIP3    H2 9115   5.817   1.767   5.366
 3051TIP3   OH2 9116   0.377   5.787   0.245
 3051TIP3    H1 9117   0.403   5.755   0.332
 3051TIP3    H2 9118   0.332   5.870   0.264
 3052TIP3   OH2 9119   2.477   3.744   3.339
 3052TIP3    H1 9120   2.556   3.741   3.284
 3052TIP3    H2 9121   2.511   3.750   3.428
 3053TIP3   OH2 9122   2.664   6.117   4.957
 3053TIP3    H1 9123   2.658   6.028   4.923
 3053TIP3    H2 9124   2.746   6.119   5.006
 3054TIP3   OH2 9125   3.607   0.952   1.057
 3054TIP3    H1 9126   3.617   1.046   1.066
 3054TIP3    H2 9127   3.552   0.926   1.131
 3055TIP3   OH2 9128   4.444   3.946   5.583
 3055TIP3    H1 9129   4.410   4.035   5.598
 3055TIP3    H2 9130   4.522   3.959   5.529
 3056TIP3   OH2 9131   5.605   5.417   1.498
 3056TIP3    H1 9132   5.669   5.409   1.428
 3056TIP3    H2 9133   5.558   5.334   1.498
 3057TIP3   OH2 9134   1.814   3.758   4.198
 3057TIP3    H1 9135   1.872   3.829   4.169
 3057TIP3    H2 9136   1.846   3.735   4.285
 3058TIP3   OH2 9137   4.669   5.670   1.209
 3058TIP3    H1 9138   4.658   5.686   1.115
 3058TIP3    H2 9139   4.593   5.617   1.233
 3059TIP3   OH2 9140   2.804   0.584   2.000
 3059TIP3    H1 9141   2.741   0.587   1.929
 3059TIP3    H2 9142   2.889   0.577   1.956
 3060TIP3   OH2 9143   5.222   0.585   4.053
 3060TIP3    H1 9144   5.247   0.574   3.962
 3060TIP3    H2 9145   5.291   0.541   4.103
 3061TIP3   OH2 9146   5.382   1.734   1.751
 3061TIP3    H1 9147   5.299   1.719   1.705
 3061TIP3    H2 9148   5.442   1.670   1.713
 3062TIP3   OH2 9149   4.003   3.068   2.713
 3062TIP3    H1 9150   3.979   3.023   2.632
 3062TIP3    H2 9151   4.048   3.001   2.765
 3063TIP3   OH2 9152   4.220   0.996   2.568
 3063TIP3    H1 9153   4.165   0.934   2.521
 3063TIP3    H2 9154   4.162   1.071   2.585
 3064TIP3   OH2 9155   3.786   2.241   2.181
 3064TIP3    H1 9156   3.836   2.312   2.142
 3064TIP3    H2 9157   3.830   2.223   2.264
 3065TIP3   OH2 9158   0.051   3.329   1.313
 3065TIP3    H1 9159   0.053   3.314   1.408
 3065TIP3    H2 9160   0.004   3.253   1.278
 3066TIP3   OH2 9161   3.160   4.696   5.541
 3066TIP3    H1 9162   3.164   4.776   5.593
 3066TIP3    H2 9163   3.153   4.626   5.605
 3067TIP3   OH2 9164   6.210   0.862   2.219
 3067TIP3    H1 9165   6.178   0.787   2.269
 3067TIP3    H2 9166   6.301   0.873   2.248
 3068TIP3   OH2 9167   2.519   1.976   2.570
 3068TIP3    H1 9168   2.488   1.888   2.593
 3068TIP3    H2 9169   2.504   2.028   2.648
 3069TIP3   OH2 9170   5.877   4.497   4.424
 3069TIP3    H1 9171   5.923   4.569   4.380
 3069TIP3    H2 9172   5.907   4.418   4.378
 3070TIP3   OH2 9173   1.275   0.980   4.876
 3070TIP3    H1 9174   1.217   1.003   4.803
 3070TIP3    H2 9175   1.232   0.905   4.918
 3071TIP3   OH2 9176   3.350   4.829   2.754
 3071TIP3    H1 9177   3.410   4.760   2.724
 3071TIP3    H2 9178   3.326   4.876   2.674
 3072TIP3   OH2 9179   0.685   0.582   2.856
 3072TIP3    H1 9180   0.651   0.658   2.903
 3072TIP3    H2 9181   0.780   0.588   2.866
 3073TIP3   OH2 9182   6.090   2.113   4.964
 3073TIP3    H1 9183   6.166   2.152   4.922
 3073TIP3    H2 9184   6.031   2.186   4.980
 3074TIP3   OH2 9185   1.618   1.410   0.471
 3074TIP3    H1 9186   1.688   1.446   0.417
 3074TIP3    H2 9187   1.566   1.485   0.498
 3075TIP3   OH2 9188   0.795   2.701   2.109
 3075TIP3    H1 9189   0.808   2.607   2.117
 3075TIP3    H2 9190   0.882   2.736   2.088
 3076TIP3   OH2 9191   5.209   0.356   3.278
 3076TIP3    H1 9192   5.220   0.339   3.185
 3076TIP3    H2 9193   5.133   0.413   3.284
 3077TIP3   OH2 9194   6.147   2.329   2.069
 3077TIP3    H1 9195   6.236   2.321   2.034
 3077TIP3    H2 9196   6.122   2.240   2.093
 3078TIP3   OH2 9197   4.017   3.143   5.666
 3078TIP3    H1 9198   4.034   3.104   5.580
 3078TIP3    H2 9199   3.922   3.154   5.669
 3079TIP3   OH2 9200   2.559   0.496   5.538
 3079TIP3    H1 9201   2.555   0.439   5.615
 3079TIP3    H2 9202   2.556   0.437   5.463
 3080TIP3   OH2 9203   7.085   0.239   0.624
 3080TIP3    H1 9204   7.165   0.216   0.578
 3080TIP3    H2 9205   7.018   0.180   0.588
 3081TIP3   OH2 9206   4.383   6.434   3.455
 3081TIP3    H1 9207   4.318   6.365   3.442
 3081TIP3    H2 9208   4.361   6.501   3.390
 3082TIP3   OH2 9209   3.627   1.425   4.481
 3082TIP3    H1 9210   3.686   1.489   4.522
 3082TIP3    H2 9211   3.541   1.446   4.517
 3083TIP3   OH2 9212   3.409   4.275   2.926
 3083TIP3    H1 9213   3.405   4.313   2.839
 3083TIP3    H2 9214   3.326   4.228   2.936
 3084TIP3   OH2 9215   5.654   5.840   4.514
 3084TIP3    H1 9216   5.745   5.854   4.490
 3084TIP3    H2 9217   5.605   5.903   4.461
 3085TIP3   OH2 9218   4.512   1.943   1.774
 3085TIP3    H1 9219   4.433   1.939   1.828
 3085TIP3    H2 9220   4.575   1.885   1.819
 3086TIP3   OH2 9221   6.570   4.283   5.011
 3086TIP3    H1 9222   6.508   4.279   5.084
 3086TIP3    H2 9223   6.550   4.205   4.959
 3087TIP3   OH2 9224   0.211  -0.015   5.464
 3087TIP3    H1 9225   0.267  -0.067   5.407
 3087TIP3    H2 9226   0.138   0.013   5.408
 3088TIP3   OH2 9227   1.517   1.154   1.521
 3088TIP3    H1 9228   1.453   1.173   1.452
 3088TIP3    H2 9229   1.480   1.193   1.600
 3089TIP3   OH2 9230   6.608   3.538   3.270
 3089TIP3    H1 9231   6.565   3.501   3.193
 3089TIP3    H2 9232   6.608   3.632   3.255
 3090TIP3   OH2 9233   0.458   5.054   1.439
 3090TIP3    H1 9234   0.407   5.030   1.517
 3090TIP3    H2 9235   0.448   5.149   1.433
 3091TIP3   OH2 9236   3.228   4.382   0.693
 3091TIP3    H1 9237   3.168   4.416   0.627
 3091TIP3    H2 9238   3.228   4.288   0.681
 3092TIP3   OH2 9239   5.318   5.733   3.742
 3092TIP3    H1 9240   5.322   5.816   3.695
 3092TIP3    H2 9241   5.342   5.667   3.677
 3093TIP3   OH2 9242   0.140   0.739   1.575
 3093TIP3    H1 9243   0.223   0.786   1.574
 3093TIP3    H2 9244   0.163   0.651   1.605
 3094TIP3   OH2 9245   6.158   1.954   1.841
 3094TIP3    H1 9246   6.106   1.970   1.921
 3094TIP3    H2 9247   6.199   2.038   1.823
 3095TIP3   OH2 9248   3.188   5.159   1.435
 3095TIP3    H1 9249   3.247   5.176   1.508
 3095TIP3    H2 9250   3.102   5.189   1.467
 3096TIP3   OH2 9251   5.963   5.336   2.036
 3096TIP3    H1 9252   5.891   5.346   1.975
 3096TIP3    H2 9253   5.972   5.241   2.049
 3097TIP3   OH2 9254   6.961   0.118   1.950
 3097TIP3    H1 9255   7.016   0.107   1.872
 3097TIP3    H2 9256   7.021   0.151   2.017
 3098TIP3   OH2 9257   3.252   4.509   3.894
 3098TIP3    H1 9258   3.264   4.452   3.818
 3098TIP3    H2 9259   3.169   4.554   3.877
 3099TIP3   OH2 9260   3.304   6.776   5.420
 3099TIP3    H1 9261   3.349   6.860   5.429
 3099TIP3    H2 9262   3.252   6.784   5.340
 3100TIP3   OH2 9263   0.625   2.257   1.946
 3100TIP3    H1 9264   0.706   2.304   1.927
 3100TIP3    H2 9265   0.652   2.182   1.998
 3101TIP3   OH2 9266   3.756   3.777   2.553
 3101TIP3    H1 9267   3.747   3.689   2.588
 3101TIP3    H2 9268   3.728   3.835   2.624
 3102TIP3   OH2 9269   4.497   2.474   0.576
 3102TIP3    H1 9270   4.525   2.440   0.661
 3102TIP3    H2 9271   4.578   2.504   0.535
 3103TIP3   OH2 9272   3.353   2.091   4.994
 3103TIP3    H1 9273   3.336   2.053   4.908
 3103TIP3    H2 9274   3.316   2.179   4.988
 3104TIP3   OH2 9275   5.387   0.836   1.994
 3104TIP3    H1 9276   5.347   0.760   1.952
 3104TIP3    H2 9277   5.466   0.853   1.943
 3105TIP3   OH2 9278   7.159   5.752   4.201
 3105TIP3    H1 9279   7.197   5.833   4.167
 3105TIP3    H2 9280   7.233   5.693   4.213
 3106TIP3   OH2 9281   3.373   4.934   2.500
 3106TIP3    H1 9282   3.355   4.880   2.424
 3106TIP3    H2 9283   3.468   4.943   2.501
 3107TIP3   OH2 9284   2.179   0.991   1.094
 3107TIP3    H1 9285   2.125   0.928   1.046
 3107TIP3    H2 9286   2.167   0.967   1.186
 3108TIP3   OH2 9287   0.601   3.538   0.670
 3108TIP3    H1 9288   0.661   3.471   0.702
 3108TIP3    H2 9289   0.523   3.528   0.724
 3109TIP3   OH2 9290   2.560   0.791   1.641
 3109TIP3    H1 9291   2.592   0.869   1.685
 3109TIP3    H2 9292   2.583   0.804   1.549
 3110TIP3   OH2 9293   4.020   4.740   3.653
 3110TIP3    H1 9294   4.103   4.726   3.608
 3110TIP3    H2 9295   4.038   4.719   3.744
 3111TIP3   OH2 9296   3.648   3.855   4.003
 3111TIP3    H1 9297   3.654   3.950   4.001
 3111TIP3    H2 9298   3.566   3.837   4.048
 3112TIP3   OH2 9299   3.874   0.133   2.660
 3112TIP3    H1 9300   3.965   0.106   2.675
 3112TIP3    H2 9301   3.831   0.117   2.744
 3113TIP3   OH2 9302   5.376   4.700   4.858
 3113TIP3    H1 9303   5.340   4.624   4.812
 3113TIP3    H2 9304   5.427   4.746   4.792
 3114TIP3   OH2 9305   2.006   5.064   4.608
 3114TIP3    H1 9306   2.021   4.985   4.557
 3114TIP3    H2 9307   2.093   5.099   4.624
 3115TIP3   OH2 9308   7.166   4.924   1.878
 3115TIP3    H1 9309   7.185   4.830   1.885
 3115TIP3    H2 9310   7.158   4.939   1.784
 3116TIP3   OH2 9311   1.589   6.735   4.933
 3116TIP3    H1 9312   1.672   6.688   4.942
 3116TIP3    H2 9313   1.525   6.666   4.916
 3117TIP3   OH2 9314   2.035   5.609   0.257
 3117TIP3    H1 9315   2.028   5.695   0.215
 3117TIP3    H2 9316   1.974   5.613   0.330
 3118TIP3   OH2 9317   1.475   0.320   5.869
 3118TIP3    H1 9318   1.413   0.318   5.796
 3118TIP3    H2 9319   1.541   0.255   5.846
 3119TIP3   OH2 9320   4.770   3.466   5.296
 3119TIP3    H1 9321   4.718   3.387   5.309
 3119TIP3    H2 9322   4.856   3.434   5.266
 3120TIP3   OH2 9323   2.553   3.354   3.254
 3120TIP3    H1 9324   2.556   3.274   3.306
 3120TIP3    H2 9325   2.464   3.387   3.263
 3121TIP3   OH2 9326   4.694   4.461   5.465
 3121TIP3    H1 9327   4.726   4.551   5.458
 3121TIP3    H2 9328   4.614   4.468   5.515
 3122TIP3   OH2 9329   4.157   1.438   2.917
 3122TIP3    H1 9330   4.171   1.352   2.876
 3122TIP3    H2 9331   4.082   1.424   2.975
 3123TIP3   OH2 9332   4.044   6.513   0.209
 3123TIP3    H1 9333   3.989   6.445   0.248
 3123TIP3    H2 9334   4.027   6.591   0.263
 3124TIP3   OH2 9335   4.653   4.288   3.063
 3124TIP3    H1 9336   4.676   4.258   2.975
 3124TIP3    H2 9337   4.563   4.259   3.075
 3125TIP3   OH2 9338   6.623   0.137   2.471
 3125TIP3    H1 9339   6.655   0.181   2.392
 3125TIP3    H2 9340   6.660   0.049   2.467
 3126TIP3   OH2 9341   2.135   6.547   4.222
 3126TIP3    H1 9342   2.146   6.516   4.132
 3126TIP3    H2 9343   2.050   6.590   4.222
 3127TIP3   OH2 9344   1.146   3.003   4.536
 3127TIP3    H1 9345   1.205   2.967   4.603
 3127TIP3    H2 9346   1.118   3.087   4.571
 3128TIP3   OH2 9347   6.178   2.265   0.306
 3128TIP3    H1 9348   6.170   2.291   0.398
 3128TIP3    H2 9349   6.143   2.339   0.257
 3129TIP3   OH2 9350   6.197   1.282   1.641
 3129TIP3    H1 9351   6.245   1.343   1.696
 3129TIP3    H2 9352   6.105   1.305   1.654
 3130TIP3   OH2 9353   5.159   0.011   4.723
 3130TIP3    H1 9354   5.245   0.045   4.698
 3130TIP3    H2 9355   5.174  -0.082   4.741
 3131TIP3   OH2 9356   2.851   5.596  -0.008
 3131TIP3    H1 9357   2.846   5.509   0.031
 3131TIP3    H2 9358   2.886   5.652   0.062
 3132TIP3   OH2 9359   5.660   1.264   1.857
 3132TIP3    H1 9360   5.653   1.209   1.779
 3132TIP3    H2 9361   5.570   1.270   1.890
 3133TIP3   OH2 9362   1.396   0.306   4.957
 3133TIP3    H1 9363   1.415   0.271   4.870
 3133TIP3    H2 9364   1.482   0.323   4.995
 3134TIP3   OH2 9365   1.582   1.715   0.989
 3134TIP3    H1 9366   1.623   1.656   0.924
 3134TIP3    H2 9367   1.595   1.803   0.953
 3135TIP3   OH2 9368   6.888   1.761   2.390
 3135TIP3    H1 9369   6.815   1.703   2.411
 3135TIP3    H2 9370   6.875   1.784   2.299
 3136TIP3   OH2 9371   1.576   6.208   2.981
 3136TIP3    H1 9372   1.627   6.130   2.959
 3136TIP3    H2 9373   1.531   6.230   2.899
 3137TIP3   OH2 9374   1.469   3.898   1.473
 3137TIP3    H1 9375   1.503   3.987   1.482
 3137TIP3    H2 9376   1.451   3.870   1.563
 3138TIP3   OH2 9377   5.657   1.373   2.477
 3138TIP3    H1 9378   5.656   1.391   2.571
 3138TIP3    H2 9379   5.595   1.302   2.465
 3139TIP3   OH2 9380   5.527   0.765   0.712
 3139TIP3    H1 9381   5.484   0.802   0.635
 3139TIP3    H2 9382   5.457   0.717   0.757
 3140TIP3   OH2 9383   2.567   4.244   1.748
 3140TIP3    H1 9384   2.628   4.171   1.737
 3140TIP3    H2 9385   2.594   4.288   1.828
 3141TIP3   OH2 9386   2.059   4.309   1.917
 3141TIP3    H1 9387   2.147   4.341   1.896
 3141TIP3    H2 9388   2.036   4.252   1.844
 3142TIP3   OH2 9389   3.763   1.795   0.252
 3142TIP3    H1 9390   3.827   1.800   0.322
 3142TIP3    H2 9391   3.813   1.811   0.172
 3143TIP3   OH2 9392   4.830   1.432   2.613
 3143TIP3    H1 9393   4.738   1.416   2.592
 3143TIP3    H2 9394   4.829   1.508   2.671
 3144TIP3   OH2 9395   5.052   2.908   2.893
 3144TIP3    H1 9396   5.029   3.001   2.891
 3144TIP3    H2 9397   5.112   2.897   2.819
 3145TIP3   OH2 9398   0.603   0.718   3.084
 3145TIP3    H1 9399   0.679   0.742   3.136
 3145TIP3    H2 9400   0.596   0.623   3.094
 3146TIP3   OH2 9401   2.726   5.988   5.605
 3146TIP3    H1 9402   2.740   6.026   5.691
 3146TIP3    H2 9403   2.775   5.905   5.608
 3147TIP3   OH2 9404   6.580   4.500   2.105
 3147TIP3    H1 9405   6.601   4.594   2.109
 3147TIP3    H2 9406   6.486   4.497   2.087
 3148TIP3   OH2 9407   3.155   5.166   2.866
 3148TIP3    H1 9408   3.179   5.137   2.777
 3148TIP3    H2 9409   3.122   5.255   2.854
 3149TIP3   OH2 9410   5.306   3.204   5.001
 3149TIP3    H1 9411   5.230   3.261   5.009
 3149TIP3    H2 9412   5.335   3.214   4.911
 3150TIP3   OH2 9413   0.384   4.691   4.262
 3150TIP3    H1 9414   0.368   4.680   4.168
 3150TIP3    H2 9415   0.376   4.786   4.276
 3151TIP3   OH2 9416   5.099   3.640   1.242
 3151TIP3    H1 9417   5.093   3.648   1.147
 3151TIP3    H2 9418   5.009   3.656   1.272
 3152TIP3   OH2 9419   0.468   6.202   1.636
 3152TIP3    H1 9420   0.433   6.237   1.554
 3152TIP3    H2 9421   0.548   6.155   1.610
 3153TIP3   OH2 9422   0.122   5.689   0.155
 3153TIP3    H1 9423   0.212   5.721   0.150
 3153TIP3    H2 9424   0.089   5.723   0.238
 3154TIP3   OH2 9425   1.805   2.320   1.286
 3154TIP3    H1 9426   1.784   2.300   1.377
 3154TIP3    H2 9427   1.839   2.410   1.287
 3155TIP3   OH2 9428   5.678   4.012   0.108
 3155TIP3    H1 9429   5.633   3.955   0.045
 3155TIP3    H2 9430   5.761   3.969   0.125
 3156TIP3   OH2 9431   7.226   2.409   0.377
 3156TIP3    H1 9432   7.221   2.366   0.292
 3156TIP3    H2 9433   7.143   2.388   0.420
 3157TIP3   OH2 9434   4.958   5.303   5.248
 3157TIP3    H1 9435   4.962   5.274   5.157
 3157TIP3    H2 9436   4.940   5.223   5.298
 3158TIP3   OH2 9437   7.157   3.755   2.404
 3158TIP3    H1 9438   7.175   3.722   2.492
 3158TIP3    H2 9439   7.070   3.719   2.382
 3159TIP3   OH2 9440  -0.051   4.206   2.815
 3159TIP3    H1 9441   0.017   4.138   2.818
 3159TIP3    H2 9442  -0.053   4.233   2.723
 3160TIP3   OH2 9443   0.423   0.882   2.152
 3160TIP3    H1 9444   0.469   0.803   2.183
 3160TIP3    H2 9445   0.442   0.948   2.218
 3161TIP3   OH2 9446   4.826   5.388   5.581
 3161TIP3    H1 9447   4.892   5.377   5.513
 3161TIP3    H2 9448   4.874   5.376   5.663
 3162TIP3   OH2 9449   4.173   2.003   3.852
 3162TIP3    H1 9450   4.258   1.999   3.808
 3162TIP3    H2 9451   4.134   1.917   3.837
 3163TIP3   OH2 9452   7.010   3.342   4.729
 3163TIP3    H1 9453   6.996   3.394   4.809
 3163TIP3    H2 9454   7.101   3.314   4.736
 3164TIP3   OH2 9455   3.707   3.044   1.686
 3164TIP3    H1 9456   3.619   3.021   1.659
 3164TIP3    H2 9457   3.696   3.120   1.743
 3165TIP3   OH2 9458   0.620   2.848   5.038
 3165TIP3    H1 9459   0.653   2.933   5.007
 3165TIP3    H2 9460   0.631   2.851   5.133
 3166TIP3   OH2 9461   0.718   5.482   1.622
 3166TIP3    H1 9462   0.667   5.512   1.547
 3166TIP3    H2 9463   0.661   5.419   1.666
 3167TIP3   OH2 9464   6.561   6.383   0.925
 3167TIP3    H1 9465   6.634   6.387   0.987
 3167TIP3    H2 9466   6.564   6.294   0.890
 3168TIP3   OH2 9467   3.288   2.534   1.383
 3168TIP3    H1 9468   3.232   2.475   1.435
 3168TIP3    H2 9469   3.264   2.515   1.292
 3169TIP3   OH2 9470   4.772   4.214   0.279
 3169TIP3    H1 9471   4.763   4.120   0.264
 3169TIP3    H2 9472   4.682   4.247   0.276
 3170TIP3   OH2 9473   6.767   5.159   2.398
 3170TIP3    H1 9474   6.763   5.151   2.494
 3170TIP3    H2 9475   6.850   5.204   2.381
 3171TIP3   OH2 9476   1.990   1.859   2.133
 3171TIP3    H1 9477   1.912   1.908   2.157
 3171TIP3    H2 9478   2.032   1.911   2.065
 3172TIP3   OH2 9479   2.737   2.676   5.609
 3172TIP3    H1 9480   2.817   2.627   5.588
 3172TIP3    H2 9481   2.754   2.764   5.578
 3173TIP3   OH2 9482   4.723   2.590   0.484
 3173TIP3    H1 9483   4.781   2.605   0.559
 3173TIP3    H2 9484   4.710   2.677   0.446
 3174TIP3   OH2 9485   4.391   1.726   4.591
 3174TIP3    H1 9486   4.431   1.761   4.511
 3174TIP3    H2 9487   4.463   1.681   4.635
 3175TIP3   OH2 9488   6.282   5.312   2.733
 3175TIP3    H1 9489   6.332   5.246   2.684
 3175TIP3    H2 9490   6.223   5.261   2.788
 3176TIP3   OH2 9491   6.727   0.281   4.792
 3176TIP3    H1 9492   6.737   0.239   4.706
 3176TIP3    H2 9493   6.789   0.354   4.790
 3177TIP3   OH2 9494   2.003   6.089   1.334
 3177TIP3    H1 9495   2.026   6.181   1.344
 3177TIP3    H2 9496   1.975   6.061   1.421
 3178TIP3   OH2 9497   5.516   3.675   1.001
 3178TIP3    H1 9498   5.599   3.677   0.953
 3178TIP3    H2 9499   5.513   3.587   1.039
 3179TIP3   OH2 9500   0.982   3.760   1.850
 3179TIP3    H1 9501   1.036   3.791   1.777
 3179TIP3    H2 9502   0.921   3.699   1.810
 3180TIP3   OH2 9503   3.777   5.790   4.810
 3180TIP3    H1 9504   3.770   5.852   4.883
 3180TIP3    H2 9505   3.758   5.842   4.732
 3181TIP3   OH2 9506   4.721   2.996   3.642
 3181TIP3    H1 9507   4.655   2.974   3.576
 3181TIP3    H2 9508   4.805   2.990   3.596
 3182TIP3   OH2 9509   5.519   5.605   3.584
 3182TIP3    H1 9510   5.478   5.528   3.622
 3182TIP3    H2 9511   5.598   5.619   3.638
 3183TIP3   OH2 9512   4.369   5.774   1.071
 3183TIP3    H1 9513   4.301   5.809   1.014
 3183TIP3    H2 9514   4.398   5.694   1.028
 3184TIP3   OH2 9515   1.332   5.255   0.329
 3184TIP3    H1 9516   1.253   5.205   0.306
 3184TIP3    H2 9517   1.344   5.237   0.422
 3185TIP3   OH2 9518   6.234   5.580   4.278
 3185TIP3    H1 9519   6.159   5.550   4.226
 3185TIP3    H2 9520   6.232   5.676   4.271
 3186TIP3   OH2 9521   2.865   3.375   4.068
 3186TIP3    H1 9522   2.873   3.338   4.156
 3186TIP3    H2 9523   2.863   3.470   4.081
 3187TIP3   OH2 9524   1.366   5.422   1.075
 3187TIP3    H1 9525   1.439   5.457   1.126
 3187TIP3    H2 9526   1.312   5.375   1.139
 3188TIP3   OH2 9527   2.758   5.112   0.302
 3188TIP3    H1 9528   2.848   5.081   0.294
 3188TIP3    H2 9529   2.747   5.129   0.395
 3189TIP3   OH2 9530   7.243   6.666   4.160
 3189TIP3    H1 9531   7.166   6.705   4.200
 3189TIP3    H2 9532   7.212   6.584   4.123
 3190TIP3   OH2 9533   5.527   5.289   4.672
 3190TIP3    H1 9534   5.447   5.239   4.688
 3190TIP3    H2 9535   5.518   5.368   4.724
 3191TIP3   OH2 9536   2.452   0.989   1.055
 3191TIP3    H1 9537   2.453   0.942   0.972
 3191TIP3    H2 9538   2.360   1.003   1.074
 3192TIP3   OH2 9539   3.802   2.210   5.240
 3192TIP3    H1 9540   3.736   2.213   5.172
 3192TIP3    H2 9541   3.810   2.301   5.270
 3193TIP3   OH2 9542   4.078   3.586   5.661
 3193TIP3    H1 9543   4.063   3.623   5.748
 3193TIP3    H2 9544   4.123   3.655   5.612
 3194TIP3   OH2 9545   6.900   5.997   5.198
 3194TIP3    H1 9546   6.857   6.006   5.114
 3194TIP3    H2 9547   6.923   5.905   5.203
 3195TIP3   OH2 9548   5.155   5.313   3.798
 3195TIP3    H1 9549   5.201   5.238   3.836
 3195TIP3    H2 9550   5.072   5.277   3.766
 3196TIP3   OH2 9551   1.473   6.261   3.219
 3196TIP3    H1 9552   1.490   6.239   3.127
 3196TIP3    H2 9553   1.377   6.267   3.225
 3197TIP3   OH2 9554   0.519   5.180   1.038
 3197TIP3    H1 9555   0.582   5.198   0.968
 3197TIP3    H2 9556   0.475   5.100   1.010
 3198TIP3   OH2 9557   0.780   6.291   0.122
 3198TIP3    H1 9558   0.684   6.288   0.127
 3198TIP3    H2 9559   0.799   6.285   0.028
 3199TIP3   OH2 9560   0.350   2.409   3.803
 3199TIP3    H1 9561   0.271   2.396   3.856
 3199TIP3    H2 9562   0.405   2.334   3.824
 3200TIP3   OH2 9563   3.519   2.015   2.376
 3200TIP3    H1 9564   3.610   1.990   2.359
 3200TIP3    H2 9565   3.506   2.093   2.321
 3201TIP3   OH2 9566   0.248   6.597   0.289
 3201TIP3    H1 9567   0.201   6.606   0.206
 3201TIP3    H2 9568   0.204   6.659   0.348
 3202TIP3   OH2 9569   4.318   2.574   5.288
 3202TIP3    H1 9570   4.356   2.538   5.368
 3202TIP3    H2 9571   4.275   2.499   5.246
 3203TIP3   OH2 9572   1.236   2.400   3.392
 3203TIP3    H1 9573   1.207   2.346   3.466
 3203TIP3    H2 9574   1.180   2.477   3.395
 3204TIP3   OH2 9575   0.134   4.732   5.307
 3204TIP3    H1 9576   0.138   4.827   5.297
 3204TIP3    H2 9577   0.041   4.712   5.313
 3205TIP3   OH2 9578   2.295   1.867   1.844
 3205TIP3    H1 9579   2.246   1.786   1.853
 3205TIP3    H2 9580   2.228   1.936   1.845
 3206TIP3   OH2 9581   2.066   3.414   3.916
 3206TIP3    H1 9582   2.080   3.508   3.914
 3206TIP3    H2 9583   2.036   3.396   4.005
 3207TIP3   OH2 9584   3.121   4.976   5.624
 3207TIP3    H1 9585   3.136   5.028   5.704
 3207TIP3    H2 9586   3.197   4.996   5.569
 3208TIP3   OH2 9587   5.178   2.994   5.077
 3208TIP3    H1 9588   5.106   2.994   5.013
 3208TIP3    H2 9589   5.236   3.065   5.048
 3209TIP3   OH2 9590   4.531   6.724   0.374
 3209TIP3    H1 9591   4.454   6.735   0.318
 3209TIP3    H2 9592   4.537   6.807   0.422
 3210TIP3   OH2 9593   0.403   4.317   5.298
 3210TIP3    H1 9594   0.325   4.294   5.347
 3210TIP3    H2 9595   0.392   4.409   5.275
 3211TIP3   OH2 9596   4.454   4.017   0.633
 3211TIP3    H1 9597   4.457   4.106   0.666
 3211TIP3    H2 9598   4.467   4.026   0.539
 3212TIP3   OH2 9599   6.454   0.311   2.709
 3212TIP3    H1 9600   6.512   0.366   2.761
 3212TIP3    H2 9601   6.368   0.321   2.749
 3213TIP3   OH2 9602   2.305   4.883   0.585
 3213TIP3    H1 9603   2.392   4.858   0.555
 3213TIP3    H2 9604   2.249   4.872   0.509
 3214TIP3   OH2 9605   6.718   0.360   3.036
 3214TIP3    H1 9606   6.731   0.271   3.067
 3214TIP3    H2 9607   6.767   0.364   2.954
 3215TIP3   OH2 9608   6.819   2.552   5.439
 3215TIP3    H1 9609   6.875   2.563   5.363
 3215TIP3    H2 9610   6.878   2.523   5.509
 3216TIP3   OH2 9611   0.893   3.719   4.581
 3216TIP3    H1 9612   0.862   3.764   4.659
 3216TIP3    H2 9613   0.853   3.766   4.508
 3217TIP3   OH2 9614   3.883   2.732   0.542
 3217TIP3    H1 9615   3.827   2.760   0.469
 3217TIP3    H2 9616   3.869   2.798   0.609
 3218TIP3   OH2 9617   2.447   0.076   5.865
 3218TIP3    H1 9618   2.452   0.139   5.793
 3218TIP3    H2 9619   2.462  -0.009   5.823
 3219TIP3   OH2 9620   2.619   5.268   2.629
 3219TIP3    H1 9621   2.659   5.236   2.549
 3219TIP3    H2 9622   2.525   5.251   2.619
 3220TIP3   OH2 9623   0.100   2.816   4.514
 3220TIP3    H1 9624   0.006   2.828   4.525
 3220TIP3    H2 9625   0.130   2.783   4.599
 3221TIP3   OH2 9626   4.969   5.898   2.837
 3221TIP3    H1 9627   5.045   5.882   2.781
 3221TIP3    H2 9628   4.959   5.818   2.889
 3222TIP3   OH2 9629   4.666   5.897   0.526
 3222TIP3    H1 9630   4.597   5.958   0.499
 3222TIP3    H2 9631   4.712   5.943   0.596
 3223TIP3   OH2 9632   2.821   4.417   1.234
 3223TIP3    H1 9633   2.831   4.348   1.299
 3223TIP3    H2 9634   2.883   4.394   1.165
 3224TIP3   OH2 9635   5.650   4.299   2.627
 3224TIP3    H1 9636   5.741   4.276   2.649
 3224TIP3    H2 9637   5.612   4.218   2.594
 3225TIP3   OH2 9638   0.803   5.063   4.291
 3225TIP3    H1 9639   0.784   5.025   4.377
 3225TIP3    H2 9640   0.737   5.132   4.280
 3226TIP3   OH2 9641   0.812   0.594   5.703
 3226TIP3    H1 9642   0.869   0.613   5.777
 3226TIP3    H2 9643   0.739   0.656   5.713
 3227TIP3   OH2 9644   1.329   2.911   0.064
 3227TIP3    H1 9645   1.390   2.937  -0.006
 3227TIP3    H2 9646   1.378   2.848   0.117
 3228TIP3   OH2 9647   6.141   5.613   3.484
 3228TIP3    H1 9648   6.226   5.645   3.515
 3228TIP3    H2 9649   6.143   5.629   3.389
 3229TIP3   OH2 9650   3.906   5.789   0.571
 3229TIP3    H1 9651   3.898   5.869   0.624
 3229TIP3    H2 9652   3.932   5.721   0.633
 3230TIP3   OH2 9653   5.368   5.348   1.314
 3230TIP3    H1 9654   5.300   5.413   1.333
 3230TIP3    H2 9655   5.355   5.326   1.222
 3231TIP3   OH2 9656   2.509   6.358   5.479
 3231TIP3    H1 9657   2.558   6.294   5.427
 3231TIP3    H2 9658   2.576   6.406   5.528
 3232TIP3   OH2 9659   5.241   1.467   1.469
 3232TIP3    H1 9660   5.301   1.523   1.420
 3232TIP3    H2 9661   5.186   1.427   1.402
 3233TIP3   OH2 9662   5.768   5.229   3.032
 3233TIP3    H1 9663   5.804   5.140   3.029
 3233TIP3    H2 9664   5.674   5.216   3.037
 3234TIP3   OH2 9665   3.137   0.889   2.144
 3234TIP3    H1 9666   3.172   0.960   2.090
 3234TIP3    H2 9667   3.149   0.920   2.234
 3235TIP3   OH2 9668   4.002   0.658   4.401
 3235TIP3    H1 9669   3.987   0.580   4.346
 3235TIP3    H2 9670   3.938   0.651   4.471
 3236TIP3   OH2 9671   2.175   3.037   4.430
 3236TIP3    H1 9672   2.259   3.061   4.390
 3236TIP3    H2 9673   2.200   3.004   4.517
 3237TIP3   OH2 9674   1.645   3.985   1.090
 3237TIP3    H1 9675   1.669   4.023   1.005
 3237TIP3    H2 9676   1.621   4.060   1.144
 3238TIP3   OH2 9677   1.784   6.566   3.792
 3238TIP3    H1 9678   1.756   6.477   3.770
 3238TIP3    H2 9679   1.717   6.622   3.753
 3239TIP3   OH2 9680   2.596   3.847   2.770
 3239TIP3    H1 9681   2.631   3.766   2.807
 3239TIP3    H2 9682   2.537   3.880   2.838
 3240TIP3   OH2 9683   6.197   5.957   5.622
 3240TIP3    H1 9684   6.202   6.042   5.580
 3240TIP3    H2 9685   6.120   5.916   5.584
 3241TIP3   OH2 9686   1.140   1.403   0.410
 3241TIP3    H1 9687   1.143   1.315   0.374
 3241TIP3    H2 9688   1.115   1.391   0.502
 3242TIP3   OH2 9689   6.348   3.828   3.180
 3242TIP3    H1 9690   6.406   3.837   3.105
 3242TIP3    H2 9691   6.337   3.917   3.213
 3243TIP3   OH2 9692   0.085   1.346   1.248
 3243TIP3    H1 9693   0.027   1.273   1.266
 3243TIP3    H2 9694   0.173   1.307   1.245
 3244TIP3   OH2 9695   3.679   5.348   1.958
 3244TIP3    H1 9696   3.771   5.354   1.933
 3244TIP3    H2 9697   3.646   5.271   1.911
 3245TIP3   OH2 9698   4.637   3.859   4.070
 3245TIP3    H1 9699   4.610   3.887   4.158
 3245TIP3    H2 9700   4.733   3.851   4.077
 3246TIP3   OH2 9701   5.353   4.705   3.764
 3246TIP3    H1 9702   5.308   4.785   3.790
 3246TIP3    H2 9703   5.381   4.665   3.846
 3247TIP3   OH2 9704   1.237   5.046   1.995
 3247TIP3    H1 9705   1.272   5.010   2.076
 3247TIP3    H2 9706   1.302   5.111   1.967
 3248TIP3   OH2 9707   6.395   0.746   0.455
 3248TIP3    H1 9708   6.474   0.788   0.422
 3248TIP3    H2 9709   6.350   0.715   0.376
 3249TIP3   OH2 9710   2.955   2.417   1.841
 3249TIP3    H1 9711   2.988   2.457   1.921
 3249TIP3    H2 9712   2.950   2.489   1.778
 3250TIP3   OH2 9713   6.951   3.019   4.648
 3250TIP3    H1 9714   6.866   3.061   4.636
 3250TIP3    H2 9715   7.015   3.083   4.618
 3251TIP3   OH2 9716   1.275   2.680   0.453
 3251TIP3    H1 9717   1.321   2.677   0.537
 3251TIP3    H2 9718   1.251   2.589   0.435
 3252TIP3   OH2 9719   1.846   4.555   5.423
 3252TIP3    H1 9720   1.783   4.549   5.350
 3252TIP3    H2 9721   1.907   4.623   5.396
 3253TIP3   OH2 9722   7.117   5.559   3.693
 3253TIP3    H1 9723   7.030   5.531   3.721
 3253TIP3    H2 9724   7.106   5.651   3.669
 3254TIP3   OH2 9725   2.762   5.271   2.125
 3254TIP3    H1 9726   2.699   5.239   2.190
 3254TIP3    H2 9727   2.779   5.362   2.150
 3255TIP3   OH2 9728   5.375   4.660   5.443
 3255TIP3    H1 9729   5.314   4.733   5.444
 3255TIP3    H2 9730   5.457   4.697   5.409
 3256TIP3   OH2 9731   6.590   5.436   1.759
 3256TIP3    H1 9732   6.546   5.423   1.843
 3256TIP3    H2 9733   6.610   5.347   1.728
 3257TIP3   OH2 9734   2.025   6.485   5.050
 3257TIP3    H1 9735   2.071   6.404   5.028
 3257TIP3    H2 9736   2.094   6.550   5.061
 3258TIP3   OH2 9737   1.450   3.220   0.895
 3258TIP3    H1 9738   1.380   3.162   0.927
 3258TIP3    H2 9739   1.510   3.161   0.850
 3259TIP3   OH2 9740   1.994   6.306   3.913
 3259TIP3    H1 9741   1.951   6.292   3.997
 3259TIP3    H2 9742   2.044   6.387   3.925
 3260TIP3   OH2 9743   2.612   0.985   5.724
 3260TIP3    H1 9744   2.631   0.892   5.732
 3260TIP3    H2 9745   2.665   1.026   5.792
 3261TIP3   OH2 9746   4.417   3.152   5.820
 3261TIP3    H1 9747   4.370   3.235   5.817
 3261TIP3    H2 9748   4.354   3.086   5.791
 3262TIP3   OH2 9749   0.811   5.578   5.051
 3262TIP3    H1 9750   0.743   5.575   4.983
 3262TIP3    H2 9751   0.775   5.636   5.118
 3263TIP3   OH2 9752   3.465   1.337   3.892
 3263TIP3    H1 9753   3.556   1.324   3.921
 3263TIP3    H2 9754   3.420   1.371   3.969
 3264TIP3   OH2 9755   4.225   5.170   4.497
 3264TIP3    H1 9756   4.184   5.255   4.483
 3264TIP3    H2 9757   4.307   5.191   4.542
 3265TIP3   OH2 9758   6.015   6.395   4.498
 3265TIP3    H1 9759   6.095   6.421   4.453
 3265TIP3    H2 9760   6.010   6.451   4.575
 3266TIP3   OH2 9761   0.889   1.523   3.982
 3266TIP3    H1 9762   0.915   1.562   3.899
 3266TIP3    H2 9763   0.800   1.556   3.997
 3267TIP3   OH2 9764   1.717   5.665   5.581
 3267TIP3    H1 9765   1.694   5.622   5.499
 3267TIP3    H2 9766   1.798   5.622   5.609
 3268TIP3   OH2 9767   3.790   6.288   0.556
 3268TIP3    H1 9768   3.705   6.328   0.538
 3268TIP3    H2 9769   3.821   6.259   0.471
 3269TIP3   OH2 9770   5.727   6.148   4.829
 3269TIP3    H1 9771   5.805   6.157   4.775
 3269TIP3    H2 9772   5.734   6.218   4.894
 3270TIP3   OH2 9773   5.114   5.788   1.003
 3270TIP3    H1 9774   5.153   5.837   1.075
 3270TIP3    H2 9775   5.104   5.852   0.933
 3271TIP3   OH2 9776   5.341   4.448   1.517
 3271TIP3    H1 9777   5.395   4.475   1.591
 3271TIP3    H2 9778   5.387   4.482   1.440
 3272TIP3   OH2 9779   2.853   4.929   5.635
 3272TIP3    H1 9780   2.946   4.950   5.644
 3272TIP3    H2 9781   2.850   4.866   5.563
 3273TIP3   OH2 9782   7.178   5.681   5.708
 3273TIP3    H1 9783   7.196   5.740   5.781
 3273TIP3    H2 9784   7.218   5.598   5.733
 3274TIP3   OH2 9785   5.061   0.508   5.137
 3274TIP3    H1 9786   5.139   0.552   5.170
 3274TIP3    H2 9787   5.074   0.502   5.042
 3275TIP3   OH2 9788   3.901   4.427   5.250
 3275TIP3    H1 9789   3.862   4.432   5.337
 3275TIP3    H2 9790   3.827   4.436   5.189
 3276TIP3   OH2 9791   6.612   0.228   3.819
 3276TIP3    H1 9792   6.568   0.310   3.843
 3276TIP3    H2 9793   6.576   0.206   3.733
 3277TIP3   OH2 9794   1.496   3.243   0.578
 3277TIP3    H1 9795   1.576   3.213   0.621
 3277TIP3    H2 9796   1.444   3.163   0.567
 3278TIP3   OH2 9797   6.385   5.980   0.208
 3278TIP3    H1 9798   6.451   5.919   0.243
 3278TIP3    H2 9799   6.406   6.064   0.248
 3279TIP3   OH2 9800   0.612   0.240   1.929
 3279TIP3    H1 9801   0.585   0.285   2.009
 3279TIP3    H2 9802   0.545   0.173   1.915
 3280TIP3   OH2 9803   0.615   5.211   5.862
 3280TIP3    H1 9804   0.699   5.206   5.817
 3280TIP3    H2 9805   0.634   5.187   5.952
 3281TIP3   OH2 9806   3.235   4.778   1.117
 3281TIP3    H1 9807   3.185   4.860   1.123
 3281TIP3    H2 9808   3.318   4.803   1.076
 3282TIP3   OH2 9809   0.341   3.107   2.366
 3282TIP3    H1 9810   0.436   3.119   2.370
 3282TIP3    H2 9811   0.309   3.186   2.323
 3283TIP3   OH2 9812   5.515   5.323   5.321
 3283TIP3    H1 9813   5.426   5.298   5.299
 3283TIP3    H2 9814   5.536   5.272   5.399
 3284TIP3   OH2 9815   3.629   4.240   4.880
 3284TIP3    H1 9816   3.581   4.185   4.943
 3284TIP3    H2 9817   3.599   4.210   4.794
 3285TIP3   OH2 9818   2.400   1.887   0.641
 3285TIP3    H1 9819   2.322   1.925   0.600
 3285TIP3    H2 9820   2.456   1.962   0.659
 3286TIP3   OH2 9821   2.277   3.228   2.778
 3286TIP3    H1 9822   2.300   3.169   2.849
 3286TIP3    H2 9823   2.283   3.316   2.816
 3287TIP3   OH2 9824   4.198   1.878   0.566
 3287TIP3    H1 9825   4.154   1.936   0.629
 3287TIP3    H2 9826   4.222   1.801   0.616
 3288TIP3   OH2 9827   0.335   1.209   1.204
 3288TIP3    H1 9828   0.318   1.117   1.227
 3288TIP3    H2 9829   0.421   1.226   1.243
 3289TIP3   OH2 9830   4.828   3.852   5.563
 3289TIP3    H1 9831   4.826   3.757   5.567
 3289TIP3    H2 9832   4.853   3.880   5.651
 3290TIP3   OH2 9833   7.130   1.058   2.211
 3290TIP3    H1 9834   7.126   1.154   2.217
 3290TIP3    H2 9835   7.176   1.031   2.290
 3291TIP3   OH2 9836   0.133   0.661   0.288
 3291TIP3    H1 9837   0.071   0.732   0.302
 3291TIP3    H2 9838   0.087   0.583   0.317
 3292TIP3   OH2 9839   4.789   0.970   3.721
 3292TIP3    H1 9840   4.849   1.023   3.773
 3292TIP3    H2 9841   4.742   1.034   3.667
 3293TIP3   OH2 9842   2.539   3.899   0.840
 3293TIP3    H1 9843   2.616   3.852   0.807
 3293TIP3    H2 9844   2.552   3.903   0.935
 3294TIP3   OH2 9845   1.829   1.072   4.073
 3294TIP3    H1 9846   1.921   1.060   4.097
 3294TIP3    H2 9847   1.780   1.051   4.153
 3295TIP3   OH2 9848   1.120   2.600   2.312
 3295TIP3    H1 9849   1.212   2.623   2.295
 3295TIP3    H2 9850   1.094   2.656   2.385
 3296TIP3   OH2 9851   3.397   0.112   3.348
 3296TIP3    H1 9852   3.342   0.188   3.367
 3296TIP3    H2 9853   3.445   0.137   3.269
 3297TIP3   OH2 9854   3.639   5.912   1.193
 3297TIP3    H1 9855   3.623   5.972   1.266
 3297TIP3    H2 9856   3.677   5.835   1.235
 3298TIP3   OH2 9857   1.759   1.824   0.552
 3298TIP3    H1 9858   1.794   1.873   0.478
 3298TIP3    H2 9859   1.806   1.741   0.551
 3299TIP3   OH2 9860   1.762   0.742   0.863
 3299TIP3    H1 9861   1.801   0.762   0.778
 3299TIP3    H2 9862   1.670   0.722   0.843
 3300TIP3   OH2 9863   3.008   2.399   5.074
 3300TIP3    H1 9864   3.048   2.347   5.004
 3300TIP3    H2 9865   3.034   2.489   5.054
 3301TIP3   OH2 9866   0.320   2.927   0.902
 3301TIP3    H1 9867   0.260   2.967   0.839
 3301TIP3    H2 9868   0.355   3.000   0.953
 3302TIP3   OH2 9869   3.960   6.116   3.455
 3302TIP3    H1 9870   3.883   6.128   3.511
 3302TIP3    H2 9871   3.933   6.051   3.390
 3303TIP3   OH2 9872   2.068   0.984   1.484
 3303TIP3    H1 9873   1.997   0.948   1.431
 3303TIP3    H2 9874   2.147   0.962   1.435
 3304TIP3   OH2 9875   0.578   0.474   1.038
 3304TIP3    H1 9876   0.672   0.460   1.042
 3304TIP3    H2 9877   0.542   0.417   1.105
 3305TIP3   OH2 9878   3.973   5.914   4.077
 3305TIP3    H1 9879   3.924   5.838   4.045
 3305TIP3    H2 9880   4.062   5.882   4.089
 3306TIP3   OH2 9881   2.989   2.755   1.400
 3306TIP3    H1 9882   3.033   2.730   1.320
 3306TIP3    H2 9883   3.002   2.850   1.406
 3307TIP3   OH2 9884   5.790   0.530   4.121
 3307TIP3    H1 9885   5.778   0.445   4.163
 3307TIP3    H2 9886   5.857   0.515   4.054
 3308TIP3   OH2 9887   6.479   5.773   3.313
 3308TIP3    H1 9888   6.401   5.739   3.269
 3308TIP3    H2 9889   6.551   5.721   3.280
 3309TIP3   OH2 9890   1.784   0.193   1.607
 3309TIP3    H1 9891   1.749   0.121   1.658
 3309TIP3    H2 9892   1.855   0.228   1.661
 3310TIP3   OH2 9893   5.842   4.806   0.532
 3310TIP3    H1 9894   5.832   4.844   0.445
 3310TIP3    H2 9895   5.791   4.863   0.589
 3311TIP3   OH2 9896   0.142   5.266   4.527
 3311TIP3    H1 9897   0.197   5.294   4.601
 3311TIP3    H2 9898   0.098   5.187   4.560
 3312TIP3   OH2 9899   2.806   0.090   3.858
 3312TIP3    H1 9900   2.885   0.051   3.822
 3312TIP3    H2 9901   2.796   0.049   3.944
 3313TIP3   OH2 9902   5.310   0.582   1.905
 3313TIP3    H1 9903   5.309   0.576   1.809
 3313TIP3    H2 9904   5.221   0.559   1.931
 3314TIP3   OH2 9905   6.925   4.407   0.617
 3314TIP3    H1 9906   6.928   4.390   0.523
 3314TIP3    H2 9907   7.000   4.358   0.652
 3315TIP3   OH2 9908   6.958   4.502   1.401
 3315TIP3    H1 9909   7.031   4.547   1.442
 3315TIP3    H2 9910   6.949   4.544   1.316
 3316TIP3   OH2 9911   4.904   4.330   1.520
 3316TIP3    H1 9912   4.912   4.315   1.425
 3316TIP3    H2 9913   4.830   4.390   1.529
 3317TIP3   OH2 9914   1.719   1.920   2.200
 3317TIP3    H1 9915   1.726   1.915   2.295
 3317TIP3    H2 9916   1.690   2.009   2.183
 3318TIP3   OH2 9917   3.869   1.493   1.508
 3318TIP3    H1 9918   3.800   1.557   1.492
 3318TIP3    H2 9919   3.924   1.534   1.575
 3319TIP3   OH2 9920   4.355   6.144   4.741
 3319TIP3    H1 9921   4.341   6.156   4.835
 3319TIP3    H2 9922   4.297   6.208   4.700
 3320TIP3   OH2 9923   6.768   4.060   0.363
 3320TIP3    H1 9924   6.716   3.998   0.311
 3320TIP3    H2 9925   6.704   4.121   0.398
 3321TIP3   OH2 9926   7.212   3.040   3.939
 3321TIP3    H1 9927   7.148   3.084   3.995
 3321TIP3    H2 9928   7.200   3.081   3.853
 3322TIP3   OH2 9929   4.768   0.097   2.519
 3322TIP3    H1 9930   4.744   0.057   2.603
 3322TIP3    H2 9931   4.689   0.143   2.490
 3323TIP3   OH2 9932   0.335   4.440   4.947
 3323TIP3    H1 9933   0.349   4.475   4.860
 3323TIP3    H2 9934   0.391   4.493   5.004
 3324TIP3   OH2 9935   0.456   2.684   5.486
 3324TIP3    H1 9936   0.448   2.777   5.465
 3324TIP3    H2 9937   0.439   2.678   5.580
 3325TIP3   OH2 9938   5.155   5.136   0.513
 3325TIP3    H1 9939   5.131   5.229   0.516
 3325TIP3    H2 9940   5.250   5.136   0.529
 3326TIP3   OH2 9941   4.478   5.190   3.795
 3326TIP3    H1 9942   4.536   5.179   3.870
 3326TIP3    H2 9943   4.415   5.119   3.802
 3327TIP3   OH2 9944   3.069   3.098   0.279
 3327TIP3    H1 9945   2.980   3.116   0.310
 3327TIP3    H2 9946   3.066   3.006   0.252
 3328TIP3   OH2 9947   1.743   0.890   3.111
 3328TIP3    H1 9948   1.785   0.975   3.101
 3328TIP3    H2 9949   1.725   0.860   3.022
 3329TIP3   OH2 9950   2.226   0.893   5.201
 3329TIP3    H1 9951   2.236   0.906   5.296
 3329TIP3    H2 9952   2.159   0.957   5.176
 3330TIP3   OH2 9953   4.254   2.349   5.150
 3330TIP3    H1 9954   4.216   2.294   5.081
 3330TIP3    H2 9955   4.291   2.287   5.213
 3331TIP3   OH2 9956   3.902   3.416   2.795
 3331TIP3    H1 9957   3.984   3.415   2.845
 3331TIP3    H2 9958   3.880   3.323   2.784
 3332TIP3   OH2 9959   0.751   5.567   3.891
 3332TIP3    H1 9960   0.697   5.554   3.813
 3332TIP3    H2 9961   0.820   5.626   3.862
 3333TIP3   OH2 9962   6.501   3.078   1.677
 3333TIP3    H1 9963   6.493   2.983   1.672
 3333TIP3    H2 9964   6.410   3.109   1.681
 3334TIP3   OH2 9965   3.694   2.984   0.503
 3334TIP3    H1 9966   3.727   2.976   0.592
 3334TIP3    H2 9967   3.601   3.003   0.513
 3335TIP3   OH2 9968   0.517   2.728   2.315
 3335TIP3    H1 9969   0.587   2.715   2.380
 3335TIP3    H2 9970   0.562   2.726   2.231
 3336TIP3   OH2 9971   1.445   0.223   0.532
 3336TIP3    H1 9972   1.457   0.317   0.526
 3336TIP3    H2 9973   1.529   0.186   0.504
 3337TIP3   OH2 9974   6.500   1.704   0.934
 3337TIP3    H1 9975   6.523   1.796   0.947
 3337TIP3    H2 9976   6.498   1.693   0.839
 3338TIP3   OH2 9977   5.978   0.633   5.404
 3338TIP3    H1 9978   5.929   0.707   5.368
 3338TIP3    H2 9979   5.950   0.558   5.352
 3339TIP3   OH2 9980   2.344   6.619   4.441
 3339TIP3    H1 9981   2.290   6.692   4.471
 3339TIP3    H2 9982   2.291   6.574   4.376
 3340TIP3   OH2 9983   6.231   5.754   5.202
 3340TIP3    H1 9984   6.211   5.768   5.295
 3340TIP3    H2 9985   6.215   5.840   5.162
 3341TIP3   OH2 9986   4.147   3.061   1.690
 3341TIP3    H1 9987   4.235   3.027   1.708
 3341TIP3    H2 9988   4.145   3.146   1.733
 3342TIP3   OH2 9989   0.411   0.420   3.927
 3342TIP3    H1 9990   0.495   0.377   3.909
 3342TIP3    H2 9991   0.415   0.442   4.020
 3343TIP3   OH2 9992   3.187   1.840   3.940
 3343TIP3    H1 9993   3.153   1.761   3.981
 3343TIP3    H2 9994   3.283   1.829   3.941
 3344TIP3   OH2 9995   2.862   3.795   5.410
 3344TIP3    H1 9996   2.851   3.887   5.434
 3344TIP3    H2 9997   2.809   3.747   5.474
 3345TIP3   OH2 9998   5.398   0.991   2.708
 3345TIP3    H1 9999   5.445   1.057   2.758
 3345TIP3    H210000   5.331   1.040   2.660
 3346TIP3   OH210001   6.126   3.694   4.767
 3346TIP3    H110002   6.105   3.651   4.850
 3346TIP3    H210003   6.095   3.632   4.700
 3347TIP3   OH210004   0.466   4.962   0.071
 3347TIP3    H110005   0.445   5.052   0.048
 3347TIP3    H210006   0.512   4.928  -0.006
 3348TIP3   OH210007   5.136   0.710   2.551
 3348TIP3    H110008   5.100   0.635   2.598
 3348TIP3    H210009   5.072   0.726   2.481
 3349TIP3   OH210010   1.057   2.833   0.389
 3349TIP3    H110011   1.132   2.782   0.419
 3349TIP3    H210012   1.095   2.906   0.340
 3350TIP3   OH210013   1.598   3.610   4.140
 3350TIP3    H110014   1.671   3.672   4.140
 3350TIP3    H210015   1.624   3.543   4.076
 3351TIP3   OH210016   6.530   2.309   2.587
 3351TIP3    H110017   6.547   2.316   2.493
 3351TIP3    H210018   6.522   2.399   2.617
 3352TIP3   OH210019   1.453   0.149   1.475
 3352TIP3    H110020   1.470   0.194   1.393
 3352TIP3    H210021   1.520   0.081   1.481
 3353TIP3   OH210022   6.566   0.630   4.805
 3353TIP3    H110023   6.548   0.555   4.749
 3353TIP3    H210024   6.644   0.671   4.767
 3354TIP3   OH210025   6.902   3.504   3.843
 3354TIP3    H110026   6.860   3.508   3.757
 3354TIP3    H210027   6.990   3.539   3.828
 3355TIP3   OH210028   1.628   2.388   0.035
 3355TIP3    H110029   1.605   2.346  -0.048
 3355TIP3    H210030   1.546   2.394   0.083
 3356TIP3   OH210031   4.337   0.781   1.373
 3356TIP3    H110032   4.331   0.752   1.283
 3356TIP3    H210033   4.364   0.704   1.422
 3357TIP3   OH210034   2.383   5.563   1.454
 3357TIP3    H110035   2.336   5.566   1.371
 3357TIP3    H210036   2.446   5.492   1.443
 3358TIP3   OH210037   4.220   3.633   3.509
 3358TIP3    H110038   4.250   3.706   3.455
 3358TIP3    H210039   4.235   3.555   3.455
 3359TIP3   OH210040   0.218   3.639   3.763
 3359TIP3    H110041   0.273   3.715   3.746
 3359TIP3    H210042   0.237   3.614   3.853
 3360TIP3   OH210043   6.395   3.500   0.553
 3360TIP3    H110044   6.469   3.519   0.495
 3360TIP3    H210045   6.338   3.577   0.545
 3361TIP3   OH210046   7.170   0.604   0.078
 3361TIP3    H110047   7.225   0.528   0.097
 3361TIP3    H210048   7.152   0.642   0.164
 3362TIP3   OH210049   5.145   4.624   4.475
 3362TIP3    H110050   5.214   4.584   4.527
 3362TIP3    H210051   5.088   4.552   4.450
 3363TIP3   OH210052   4.278   4.419   5.850
 3363TIP3    H110053   4.292   4.350   5.786
 3363TIP3    H210054   4.264   4.498   5.798
 3364TIP3   OH210055   6.946   4.603   3.030
 3364TIP3    H110056   6.957   4.553   2.949
 3364TIP3    H210057   6.885   4.550   3.082
 3365TIP3   OH210058   6.807   1.205   1.712
 3365TIP3    H110059   6.766   1.291   1.722
 3365TIP3    H210060   6.745   1.155   1.659
 3366TIP3   OH210061   3.962   6.282   2.064
 3366TIP3    H110062   3.953   6.191   2.034
 3366TIP3    H210063   3.906   6.333   2.005
 3367TIP3   OH210064   4.786   6.076   3.629
 3367TIP3    H110065   4.820   6.127   3.702
 3367TIP3    H210066   4.858   6.072   3.566
 3368TIP3   OH210067   4.916   6.274   3.358
 3368TIP3    H110068   4.896   6.364   3.332
 3368TIP3    H210069   4.992   6.283   3.416
 3369TIP3   OH210070   3.601   5.663   0.558
 3369TIP3    H110071   3.616   5.735   0.497
 3369TIP3    H210072   3.614   5.702   0.645
 3370TIP3   OH210073   7.028   5.724   2.066
 3370TIP3    H110074   7.057   5.643   2.108
 3370TIP3    H210075   6.957   5.697   2.008
 3371TIP3   OH210076   0.584   4.124   1.356
 3371TIP3    H110077   0.664   4.166   1.385
 3371TIP3    H210078   0.565   4.058   1.423
 3372TIP3   OH210079   2.452   2.553   3.693
 3372TIP3    H110080   2.389   2.583   3.758
 3372TIP3    H210081   2.409   2.479   3.649
 3373TIP3   OH210082   0.924   2.758   3.678
 3373TIP3    H110083   0.946   2.851   3.684
 3373TIP3    H210084   0.839   2.757   3.634
 3374TIP3   OH210085   5.883   4.701   3.133
 3374TIP3    H110086   5.962   4.730   3.178
 3374TIP3    H210087   5.811   4.742   3.181
 3375TIP3   OH210088   3.656   0.619   5.795
 3375TIP3    H110089   3.685   0.704   5.828
 3375TIP3    H210090   3.614   0.577   5.870
 3376TIP3   OH210091   3.266   3.150   2.322
 3376TIP3    H110092   3.177   3.172   2.348
 3376TIP3    H210093   3.290   3.219   2.259
 3377TIP3   OH210094   2.399   3.827   5.714
 3377TIP3    H110095   2.345   3.899   5.681
 3377TIP3    H210096   2.452   3.867   5.783
 3378TIP3   OH210097   6.072   0.889   4.333
 3378TIP3    H110098   5.983   0.870   4.303
 3378TIP3    H210099   6.118   0.918   4.254
 3379TIP3   OH210100   6.177   1.130   1.411
 3379TIP3    H110101   6.156   1.193   1.479
 3379TIP3    H210102   6.208   1.183   1.337
 3380TIP3   OH210103   0.332   1.830   3.980
 3380TIP3    H110104   0.296   1.892   3.916
 3380TIP3    H210105   0.378   1.765   3.926
 3381TIP3   OH210106   7.066   5.218   2.367
 3381TIP3    H110107   7.068   5.312   2.346
 3381TIP3    H210108   7.155   5.188   2.348
 3382TIP3   OH210109   6.671   4.491   0.718
 3382TIP3    H110110   6.636   4.416   0.765
 3382TIP3    H210111   6.766   4.478   0.719
 3383TIP3   OH210112   1.983   5.507   3.175
 3383TIP3    H110113   2.011   5.455   3.100
 3383TIP3    H210114   1.888   5.516   3.165
 3384TIP3   OH210115   1.510   0.772   0.503
 3384TIP3    H110116   1.430   0.788   0.452
 3384TIP3    H210117   1.479   0.730   0.583
 3385TIP3   OH210118   0.925   2.645   0.658
 3385TIP3    H110119   0.917   2.599   0.574
 3385TIP3    H210120   1.012   2.621   0.689
 3386TIP3   OH210121   2.052   0.736   0.084
 3386TIP3    H110122   2.040   0.790   0.006
 3386TIP3    H210123   2.065   0.799   0.155
 3387TIP3   OH210124   3.218   4.884   0.067
 3387TIP3    H110125   3.167   4.805   0.088
 3387TIP3    H210126   3.289   4.884   0.131
 3388TIP3   OH210127   6.767   4.025   2.031
 3388TIP3    H110128   6.853   4.022   1.988
 3388TIP3    H210129   6.705   4.045   1.961
 3389TIP3   OH210130   6.230   6.543   5.294
 3389TIP3    H110131   6.198   6.575   5.378
 3389TIP3    H210132   6.250   6.622   5.243
 3390TIP3   OH210133   5.423   0.153   0.771
 3390TIP3    H110134   5.413   0.205   0.691
 3390TIP3    H210135   5.495   0.196   0.818
 3391TIP3   OH210136   4.867   5.171   5.019
 3391TIP3    H110137   4.875   5.197   4.927
 3391TIP3    H210138   4.785   5.122   5.023
 3392TIP3   OH210139   2.819   0.006   2.577
 3392TIP3    H110140   2.858   0.047   2.500
 3392TIP3    H210141   2.893  -0.019   2.631
 3393TIP3   OH210142   5.792   2.833   0.551
 3393TIP3    H110143   5.795   2.925   0.579
 3393TIP3    H210144   5.744   2.835   0.469
 3394TIP3   OH210145   2.581   5.448   0.366
 3394TIP3    H110146   2.510   5.500   0.404
 3394TIP3    H210147   2.573   5.462   0.272
 3395TIP3   OH210148   4.304   1.297   5.317
 3395TIP3    H110149   4.228   1.239   5.306
 3395TIP3    H210150   4.296   1.361   5.247
 3396TIP3   OH210151   6.880   1.989   0.643
 3396TIP3    H110152   6.916   2.076   0.658
 3396TIP3    H210153   6.785   2.000   0.648
 3397TIP3   OH210154   2.574   2.550   1.519
 3397TIP3    H110155   2.612   2.590   1.597
 3397TIP3    H210156   2.550   2.462   1.546
 3398TIP3   OH210157   3.325   0.048   5.259
 3398TIP3    H110158   3.307   0.069   5.350
 3398TIP3    H210159   3.416   0.018   5.259
 3399TIP3   OH210160   3.010   3.548   1.281
 3399TIP3    H110161   3.018   3.502   1.197
 3399TIP3    H210162   2.963   3.629   1.260
 3400TIP3   OH210163   0.042   0.693   3.050
 3400TIP3    H110164   0.081   0.708   3.137
 3400TIP3    H210165  -0.047   0.727   3.058
 3401TIP3   OH210166   1.280   0.572   1.948
 3401TIP3    H110167   1.325   0.648   1.984
 3401TIP3    H210168   1.219   0.545   2.017
 3402TIP3   OH210169   3.482   4.884   3.125
 3402TIP3    H110170   3.418   4.929   3.070
 3402TIP3    H210171   3.430   4.852   3.199
 3403TIP3   OH210172   5.275   6.304   2.736
 3403TIP3    H110173   5.237   6.303   2.648
 3403TIP3    H210174   5.240   6.384   2.776
 3404TIP3   OH210175   6.132   6.704   3.591
 3404TIP3    H110176   6.201   6.644   3.618
 3404TIP3    H210177   6.118   6.760   3.668
 3405TIP3   OH210178   5.262   0.333   1.167
 3405TIP3    H110179   5.283   0.387   1.090
 3405TIP3    H210180   5.258   0.244   1.133
 3406TIP3   OH210181   1.535   3.918   3.412
 3406TIP3    H110182   1.594   3.896   3.483
 3406TIP3    H210183   1.550   3.850   3.346
 3407TIP3   OH210184   0.826   2.922   2.308
 3407TIP3    H110185   0.822   2.843   2.253
 3407TIP3    H210186   0.871   2.893   2.388
 3408TIP3   OH210187   5.643   2.052   1.455
 3408TIP3    H110188   5.674   2.073   1.543
 3408TIP3    H210189   5.618   2.136   1.417
 3409TIP3   OH210190   3.403   0.927   0.878
 3409TIP3    H110191   3.324   0.947   0.929
 3409TIP3    H210192   3.475   0.945   0.939
 3410TIP3   OH210193   4.793   5.855   1.368
 3410TIP3    H110194   4.849   5.831   1.442
 3410TIP3    H210195   4.796   5.779   1.309
 3411TIP3   OH210196   6.162   0.013   0.639
 3411TIP3    H110197   6.157   0.070   0.715
 3411TIP3    H210198   6.224   0.057   0.580
 3412TIP3   OH210199   2.764   2.073   3.040
 3412TIP3    H110200   2.724   2.116   2.964
 3412TIP3    H210201   2.798   2.145   3.093
 3413TIP3   OH210202   2.801   0.318   0.027
 3413TIP3    H110203   2.883   0.317   0.077
 3413TIP3    H210204   2.766   0.406   0.041
 3414TIP3   OH210205   5.157   6.154   0.616
 3414TIP3    H110206   5.238   6.118   0.579
 3414TIP3    H210207   5.118   6.081   0.664
 3415TIP3   OH210208   7.119   0.598   2.761
 3415TIP3    H110209   7.169   0.611   2.842
 3415TIP3    H210210   7.050   0.665   2.765
 3416TIP3   OH210211   0.597   5.726   3.165
 3416TIP3    H110212   0.514   5.726   3.117
 3416TIP3    H210213   0.659   5.684   3.106
 3417TIP3   OH210214   0.534   5.311   1.714
 3417TIP3    H110215   0.459   5.307   1.773
 3417TIP3    H210216   0.587   5.235   1.739
 3418TIP3   OH210217   5.321   0.614   5.254
 3418TIP3    H110218   5.411   0.612   5.223
 3418TIP3    H210219   5.325   0.578   5.342
 3419TIP3   OH210220   4.940   0.576   4.098
 3419TIP3    H110221   5.030   0.574   4.131
 3419TIP3    H210222   4.950   0.578   4.002
 3420TIP3   OH210223   5.882   1.412   2.065
 3420TIP3    H110224   5.796   1.409   2.025
 3420TIP3    H210225   5.943   1.422   1.992
 3421TIP3   OH210226   6.102   1.634   2.280
 3421TIP3    H110227   6.046   1.670   2.212
 3421TIP3    H210228   6.061   1.551   2.305
 3422TIP3   OH210229   2.189   3.837   1.876
 3422TIP3    H110230   2.106   3.811   1.917
 3422TIP3    H210231   2.218   3.913   1.926
 3423TIP3   OH210232   3.448   2.938   1.654
 3423TIP3    H110233   3.368   2.890   1.632
 3423TIP3    H210234   3.489   2.886   1.722
 3424TIP3   OH210235   2.702   6.496   5.581
 3424TIP3    H110236   2.791   6.471   5.554
 3424TIP3    H210237   2.701   6.592   5.574
 3425TIP3   OH210238   1.849   2.104   5.868
 3425TIP3    H110239   1.776   2.082   5.810
 3425TIP3    H210240   1.810   2.113   5.955
 3426TIP3   OH210241   1.384   2.810   5.272
 3426TIP3    H110242   1.345   2.738   5.222
 3426TIP3    H210243   1.311   2.866   5.294
 3427TIP3   OH210244   5.236   6.255   3.508
 3427TIP3    H110245   5.303   6.209   3.558
 3427TIP3    H210246   5.177   6.291   3.574
 3428TIP3   OH210247   3.157   5.519   5.017
 3428TIP3    H110248   3.092   5.475   4.962
 3428TIP3    H210249   3.232   5.533   4.960
 3429TIP3   OH210250   2.952   0.318   5.782
 3429TIP3    H110251   2.972   0.268   5.702
 3429TIP3    H210252   3.030   0.372   5.796
 3430TIP3   OH210253   1.192   6.408   1.171
 3430TIP3    H110254   1.192   6.467   1.247
 3430TIP3    H210255   1.117   6.437   1.119
 3431TIP3   OH210256   6.360   1.823   5.813
 3431TIP3    H110257   6.306   1.776   5.877
 3431TIP3    H210258   6.441   1.773   5.809
 3432TIP3   OH210259   2.707   1.313   0.259
 3432TIP3    H110260   2.779   1.251   0.245
 3432TIP3    H210261   2.707   1.367   0.180
 3433TIP3   OH210262   4.261   2.808   2.570
 3433TIP3    H110263   4.212   2.853   2.503
 3433TIP3    H210264   4.316   2.746   2.522
 3434TIP3   OH210265   4.477   2.698   4.357
 3434TIP3    H110266   4.405   2.690   4.294
 3434TIP3    H210267   4.434   2.692   4.443
 3435TIP3   OH210268   4.158   1.334   1.237
 3435TIP3    H110269   4.131   1.252   1.195
 3435TIP3    H210270   4.079   1.388   1.236
 3436TIP3   OH210271   4.085   2.703   4.324
 3436TIP3    H110272   4.046   2.778   4.279
 3436TIP3    H210273   4.151   2.670   4.263
 3437TIP3   OH210274   0.235   6.362   0.611
 3437TIP3    H110275   0.311   6.355   0.554
 3437TIP3    H210276   0.268   6.408   0.689
 3438TIP3   OH210277   3.498   6.340   3.589
 3438TIP3    H110278   3.572   6.387   3.553
 3438TIP3    H210279   3.537   6.276   3.649
 3439TIP3   OH210280   2.023   1.278   3.370
 3439TIP3    H110281   1.931   1.300   3.384
 3439TIP3    H210282   2.058   1.350   3.318
 3440TIP3   OH210283   1.647   3.872   5.709
 3440TIP3    H110284   1.699   3.951   5.698
 3440TIP3    H210285   1.708   3.808   5.746
 3441TIP3   OH210286   2.048   1.805   5.669
 3441TIP3    H110287   2.046   1.769   5.758
 3441TIP3    H210288   2.123   1.763   5.627
 3442TIP3   OH210289   5.800   5.092   3.757
 3442TIP3    H110290   5.758   5.008   3.775
 3442TIP3    H210291   5.876   5.070   3.703
 3443TIP3   OH210292   3.404   0.820   1.213
 3443TIP3    H110293   3.367   0.756   1.152
 3443TIP3    H210294   3.356   0.806   1.294
 3444TIP3   OH210295   6.415   1.440   1.064
 3444TIP3    H110296   6.360   1.477   0.995
 3444TIP3    H210297   6.505   1.455   1.034
 3445TIP3   OH210298   3.425   0.354   1.177
 3445TIP3    H110299   3.473   0.399   1.107
 3445TIP3    H210300   3.476   0.371   1.256
 3446TIP3   OH210301   2.973   1.609   3.011
 3446TIP3    H110302   2.925   1.674   3.061
 3446TIP3    H210303   3.034   1.570   3.073
 3447TIP3   OH210304   4.759   1.477   5.448
 3447TIP3    H110305   4.672   1.466   5.411
 3447TIP3    H210306   4.774   1.572   5.448
 3448TIP3   OH210307   3.581   5.096   1.858
 3448TIP3    H110308   3.597   5.002   1.847
 3448TIP3    H210309   3.521   5.102   1.932
 3449TIP3   OH210310   5.338   0.729   5.592
 3449TIP3    H110311   5.275   0.658   5.609
 3449TIP3    H210312   5.394   0.731   5.670
 3450TIP3   OH210313   5.971   1.195   5.675
 3450TIP3    H110314   5.908   1.265   5.657
 3450TIP3    H210315   5.924   1.135   5.734
 3451TIP3   OH210316   5.187   0.341   0.392
 3451TIP3    H110317   5.166   0.329   0.299
 3451TIP3    H210318   5.214   0.433   0.398
 3452TIP3   OH210319   0.161   3.135   2.126
 3452TIP3    H110320   0.226   3.080   2.082
 3452TIP3    H210321   0.206   3.219   2.139
 3453TIP3   OH210322   6.287   1.390   2.958
 3453TIP3    H110323   6.330   1.465   3.000
 3453TIP3    H210324   6.301   1.404   2.864
 3454TIP3   OH210325   2.278   2.905   4.687
 3454TIP3    H110326   2.359   2.884   4.641
 3454TIP3    H210327   2.303   2.974   4.749
 3455TIP3   OH210328   4.026   2.021   5.054
 3455TIP3    H110329   3.988   2.062   5.131
 3455TIP3    H210330   4.070   2.092   5.007
 3456TIP3   OH210331   6.510   0.442   4.367
 3456TIP3    H110332   6.421   0.414   4.347
 3456TIP3    H210333   6.554   0.445   4.282
 3457TIP3   OH210334   1.184   1.206   5.000
 3457TIP3    H110335   1.096   1.215   4.963
 3457TIP3    H210336   1.227   1.140   4.945
 3458TIP3   OH210337   3.476   1.128   5.441
 3458TIP3    H110338   3.516   1.046   5.411
 3458TIP3    H210339   3.444   1.170   5.362
 3459TIP3   OH210340   2.031   4.302   3.982
 3459TIP3    H110341   2.110   4.297   3.928
 3459TIP3    H210342   1.962   4.264   3.928
 3460TIP3   OH210343   1.663   4.690   5.853
 3460TIP3    H110344   1.731   4.703   5.787
 3460TIP3    H210345   1.581   4.707   5.807
 3461TIP3   OH210346   5.186   3.242   2.199
 3461TIP3    H110347   5.277   3.217   2.211
 3461TIP3    H210348   5.164   3.211   2.111
 3462TIP3   OH210349   1.095   3.066   0.898
 3462TIP3    H110350   1.108   3.111   0.815
 3462TIP3    H210351   1.158   2.994   0.897
 3463TIP3   OH210352   4.396   2.149   0.661
 3463TIP3    H110353   4.319   2.204   0.650
 3463TIP3    H210354   4.466   2.210   0.683
 3464TIP3   OH210355   3.051   6.136   5.465
 3464TIP3    H110356   2.970   6.141   5.515
 3464TIP3    H210357   3.040   6.059   5.409
 3465TIP3   OH210358   2.282   2.764   1.400
 3465TIP3    H110359   2.272   2.670   1.415
 3465TIP3    H210360   2.335   2.794   1.474
 3466TIP3   OH210361   3.543   5.129   4.167
 3466TIP3    H110362   3.619   5.160   4.217
 3466TIP3    H210363   3.490   5.207   4.153
 3467TIP3   OH210364   1.162   1.181   0.221
 3467TIP3    H110365   1.114   1.255   0.183
 3467TIP3    H210366   1.235   1.166   0.161
 3468TIP3   OH210367   7.034   6.659   5.257
 3468TIP3    H110368   7.104   6.725   5.258
 3468TIP3    H210369   6.984   6.677   5.337
 3469TIP3   OH210370   2.278   6.395   0.309
 3469TIP3    H110371   2.331   6.470   0.282
 3469TIP3    H210372   2.333   6.347   0.370
 3470TIP3   OH210373   2.908   6.512   2.175
 3470TIP3    H110374   2.902   6.423   2.210
 3470TIP3    H210375   2.974   6.555   2.228
 3471TIP3   OH210376   3.902   2.391   5.014
 3471TIP3    H110377   3.814   2.414   4.985
 3471TIP3    H210378   3.902   2.408   5.108
 3472TIP3   OH210379   5.708   0.224   1.453
 3472TIP3    H110380   5.753   0.238   1.536
 3472TIP3    H210381   5.633   0.168   1.476
 3473TIP3   OH210382   1.727   0.329   4.013
 3473TIP3    H110383   1.821   0.311   4.005
 3473TIP3    H210384   1.720   0.381   4.093
 3474TIP3   OH210385   6.906   2.093   2.743
 3474TIP3    H110386   6.926   2.020   2.802
 3474TIP3    H210387   6.813   2.108   2.755
 3475TIP3   OH210388   6.494   2.062   1.240
 3475TIP3    H110389   6.514   1.977   1.278
 3475TIP3    H210390   6.527   2.057   1.150
 3476TIP3   OH210391   4.357   4.882   5.387
 3476TIP3    H110392   4.369   4.788   5.372
 3476TIP3    H210393   4.385   4.922   5.305
 3477TIP3   OH210394   2.089   6.669   0.160
 3477TIP3    H110395   2.013   6.680   0.218
 3477TIP3    H210396   2.053   6.677   0.071
 3478TIP3   OH210397   6.484   2.513   4.803
 3478TIP3    H110398   6.470   2.521   4.709
 3478TIP3    H210399   6.567   2.466   4.811
 3479TIP3   OH210400   4.880   1.546   3.853
 3479TIP3    H110401   4.946   1.565   3.786
 3479TIP3    H210402   4.870   1.451   3.851
 3480TIP3   OH210403   4.708   3.522   4.569
 3480TIP3    H110404   4.779   3.576   4.603
 3480TIP3    H210405   4.688   3.560   4.483
 3481TIP3   OH210406   6.322   5.186   0.775
 3481TIP3    H110407   6.400   5.221   0.733
 3481TIP3    H210408   6.342   5.094   0.792
 3482TIP3   OH210409   0.398   2.743   4.944
 3482TIP3    H110410   0.480   2.760   4.990
 3482TIP3    H210411   0.353   2.678   4.997
 3483TIP3   OH210412   6.141   0.206   5.857
 3483TIP3    H110413   6.164   0.182   5.947
 3483TIP3    H210414   6.055   0.166   5.843
 3484TIP3   OH210415   0.451   5.216   3.383
 3484TIP3    H110416   0.366   5.247   3.413
 3484TIP3    H210417   0.497   5.296   3.356
 3485TIP3   OH210418   0.021   2.443   3.436
 3485TIP3    H110419  -0.015   2.530   3.418
 3485TIP3    H210420   0.053   2.449   3.526
 3486TIP3   OH210421   0.495   3.281   1.255
 3486TIP3    H110422   0.585   3.314   1.258
 3486TIP3    H210423   0.441   3.356   1.279
 3487TIP3   OH210424   3.188   4.243   4.789
 3487TIP3    H110425   3.264   4.188   4.769
 3487TIP3    H210426   3.125   4.182   4.828
 3488TIP3   OH210427   5.559   0.652   5.446
 3488TIP3    H110428   5.563   0.682   5.355
 3488TIP3    H210429   5.472   0.678   5.476
 3489TIP3   OH210430   6.030   3.328   2.063
 3489TIP3    H110431   5.941   3.346   2.032
 3489TIP3    H210432   6.069   3.275   1.994
 3490TIP3   OH210433   2.039   4.769   4.130
 3490TIP3    H110434   1.989   4.702   4.177
 3490TIP3    H210435   2.048   4.734   4.041
 3491TIP3   OH210436   2.845   0.630   5.551
 3491TIP3    H110437   2.889   0.677   5.622
 3491TIP3    H210438   2.755   0.622   5.580
 3492TIP3   OH210439   1.231   3.288   4.311
 3492TIP3    H110440   1.139   3.304   4.331
 3492TIP3    H210441   1.243   3.194   4.327
 3493TIP3   OH210442   3.414   6.059   1.857
 3493TIP3    H110443   3.350   6.024   1.796
 3493TIP3    H210444   3.363   6.112   1.918
 3494TIP3   OH210445   4.908   4.749   3.037
 3494TIP3    H110446   4.990   4.705   3.018
 3494TIP3    H210447   4.841   4.680   3.030
 3495TIP3   OH210448   4.990   0.351   2.953
 3495TIP3    H110449   5.084   0.330   2.952
 3495TIP3    H210450   4.982   0.427   2.896
 3496TIP3   OH210451   0.681   4.850   1.033
 3496TIP3    H110452   0.677   4.846   0.937
 3496TIP3    H210453   0.591   4.839   1.061
 3497TIP3   OH210454   5.625   1.759   0.137
 3497TIP3    H110455   5.697   1.742   0.076
 3497TIP3    H210456   5.649   1.710   0.216
 3498TIP3   OH210457   6.649   5.698   3.690
 3498TIP3    H110458   6.688   5.655   3.766
 3498TIP3    H210459   6.555   5.686   3.701
 3499TIP3   OH210460   1.714   0.218   4.516
 3499TIP3    H110461   1.768   0.261   4.450
 3499TIP3    H210462   1.644   0.280   4.534
 3500TIP3   OH210463   0.279   1.614   5.895
 3500TIP3    H110464   0.371   1.590   5.892
 3500TIP3    H210465   0.243   1.580   5.812
 3501TIP3   OH210466   0.790   5.294   3.035
 3501TIP3    H110467   0.859   5.238   3.071
 3501TIP3    H210468   0.719   5.233   3.014
 3502TIP3   OH210469   3.084   1.486   5.730
 3502TIP3    H110470   3.102   1.421   5.662
 3502TIP3    H210471   2.992   1.509   5.718
 3503TIP3   OH210472   3.145   4.176   2.948
 3503TIP3    H110473   3.071   4.152   3.004
 3503TIP3    H210474   3.106   4.225   2.876
 3504TIP3   OH210475   6.757   6.794   4.013
 3504TIP3    H110476   6.844   6.831   4.000
 3504TIP3    H210477   6.727   6.829   4.097
 3505TIP3   OH210478   5.316   6.348   4.703
 3505TIP3    H110479   5.383   6.285   4.677
 3505TIP3    H210480   5.256   6.352   4.629
 3506TIP3   OH210481   6.326   0.474   3.338
 3506TIP3    H110482   6.406   0.431   3.309
 3506TIP3    H210483   6.301   0.427   3.418
 3507TIP3   OH210484   2.753   6.691   0.632
 3507TIP3    H110485   2.673   6.648   0.661
 3507TIP3    H210486   2.724   6.777   0.599
 3508TIP3   OH210487   5.748   6.114   4.213
 3508TIP3    H110488   5.664   6.159   4.211
 3508TIP3    H210489   5.812   6.182   4.190
 3509TIP3   OH210490   5.860   5.772   1.881
 3509TIP3    H110491   5.939   5.811   1.843
 3509TIP3    H210492   5.868   5.679   1.863
 3510TIP3   OH210493   5.875   2.774   5.696
 3510TIP3    H110494   5.823   2.715   5.750
 3510TIP3    H210495   5.897   2.847   5.754
 3511TIP3   OH210496   6.683   5.753   0.917
 3511TIP3    H110497   6.628   5.718   0.987
 3511TIP3    H210498   6.689   5.847   0.936
 3512TIP3   OH210499   5.632   4.786   1.263
 3512TIP3    H110500   5.605   4.696   1.278
 3512TIP3    H210501   5.697   4.780   1.193
 3513TIP3   OH210502   3.812   1.606   5.685
 3513TIP3    H110503   3.779   1.690   5.653
 3513TIP3    H210504   3.760   1.541   5.638
 3514TIP3   OH210505   1.697   0.179   5.726
 3514TIP3    H110506   1.785   0.172   5.764
 3514TIP3    H210507   1.695   0.266   5.685
 3515TIP3   OH210508   0.106   5.673   3.503
 3515TIP3    H110509   0.097   5.752   3.557
 3515TIP3    H210510   0.027   5.622   3.522
 3516TIP3   OH210511   6.504   1.034   1.992
 3516TIP3    H110512   6.453   0.986   1.927
 3516TIP3    H210513   6.547   1.104   1.943
 3517TIP3   OH210514   0.164   5.658   1.264
 3517TIP3    H110515   0.076   5.640   1.298
 3517TIP3    H210516   0.187   5.579   1.215
 3518TIP3   OH210517   4.651   2.502   4.233
 3518TIP3    H110518   4.719   2.562   4.204
 3518TIP3    H210519   4.582   2.558   4.268
 3519TIP3   OH210520   4.282   3.762   3.216
 3519TIP3    H110521   4.217   3.788   3.151
 3519TIP3    H210522   4.329   3.842   3.238
 3520TIP3   OH210523   5.398   1.140   4.304
 3520TIP3    H110524   5.371   1.170   4.217
 3520TIP3    H210525   5.424   1.048   4.290
 3521TIP3   OH210526   3.757   6.438   1.946
 3521TIP3    H110527   3.702   6.364   1.921
 3521TIP3    H210528   3.742   6.503   1.877
 3522TIP3   OH210529   2.331   3.480   3.339
 3522TIP3    H110530   2.309   3.476   3.432
 3522TIP3    H210531   2.371   3.566   3.327
 3523TIP3   OH210532   7.047   0.702   0.313
 3523TIP3    H110533   7.016   0.736   0.397
 3523TIP3    H210534   6.988   0.741   0.248
 3524TIP3   OH210535   1.132   5.171   4.407
 3524TIP3    H110536   1.087   5.150   4.325
 3524TIP3    H210537   1.192   5.098   4.421
 3525TIP3   OH210538   5.156   1.575   0.521
 3525TIP3    H110539   5.163   1.657   0.570
 3525TIP3    H210540   5.071   1.539   0.547
 3526TIP3   OH210541   1.147   4.798   5.616
 3526TIP3    H110542   1.059   4.764   5.631
 3526TIP3    H210543   1.137   4.893   5.624
 3527TIP3   OH210544   5.626   1.402   1.313
 3527TIP3    H110545   5.562   1.332   1.303
 3527TIP3    H210546   5.699   1.362   1.360
 3528TIP3   OH210547   1.296   4.746   1.865
 3528TIP3    H110548   1.290   4.655   1.893
 3528TIP3    H210549   1.275   4.797   1.943
 3529TIP3   OH210550   5.002   1.877   4.167
 3529TIP3    H110551   5.075   1.906   4.222
 3529TIP3    H210552   5.045   1.845   4.087
 3530TIP3   OH210553   6.495   0.972   5.836
 3530TIP3    H110554   6.504   1.066   5.851
 3530TIP3    H210555   6.585   0.942   5.825
 3531TIP3   OH210556   6.008   2.232   1.670
 3531TIP3    H110557   5.968   2.296   1.728
 3531TIP3    H210558   6.099   2.225   1.699
 3532TIP3   OH210559   5.032   6.252   1.442
 3532TIP3    H110560   4.976   6.174   1.436
 3532TIP3    H210561   5.088   6.235   1.518
 3533TIP3   OH210562   5.654   1.838   4.651
 3533TIP3    H110563   5.627   1.765   4.706
 3533TIP3    H210564   5.649   1.804   4.562
 3534TIP3   OH210565   3.854   1.621   0.700
 3534TIP3    H110566   3.827   1.655   0.615
 3534TIP3    H210567   3.916   1.551   0.680
 3535TIP3   OH210568   3.370   3.087   2.910
 3535TIP3    H110569   3.296   3.103   2.851
 3535TIP3    H210570   3.446   3.078   2.853
 3536TIP3   OH210571   0.365   4.393   4.037
 3536TIP3    H110572   0.335   4.397   4.128
 3536TIP3    H210573   0.461   4.394   4.044
 3537TIP3   OH210574   0.203   2.241   4.396
 3537TIP3    H110575   0.168   2.190   4.469
 3537TIP3    H210576   0.195   2.332   4.425
 3538TIP3   OH210577   3.733   4.703   3.993
 3538TIP3    H110578   3.641   4.680   3.993
 3538TIP3    H210579   3.737   4.791   4.030
 3539TIP3   OH210580   2.276   4.722   5.299
 3539TIP3    H110581   2.271   4.798   5.357
 3539TIP3    H210582   2.342   4.747   5.234
 3540TIP3   OH210583   2.233   1.758   0.826
 3540TIP3    H110584   2.234   1.829   0.890
 3540TIP3    H210585   2.306   1.778   0.767
 3541TIP3   OH210586   1.995   3.352   1.414
 3541TIP3    H110587   1.927   3.398   1.464
 3541TIP3    H210588   2.030   3.288   1.476
 3542TIP3   OH210589   0.585   6.484   1.940
 3542TIP3    H110590   0.581   6.412   2.003
 3542TIP3    H210591   0.653   6.542   1.975
 3543TIP3   OH210592   5.932   6.790   3.374
 3543TIP3    H110593   6.009   6.832   3.334
 3543TIP3    H210594   5.969   6.739   3.447
 3544TIP3   OH210595   1.718   6.449   0.833
 3544TIP3    H110596   1.727   6.368   0.884
 3544TIP3    H210597   1.626   6.471   0.840
 3545TIP3   OH210598   5.562   4.920   0.345
 3545TIP3    H110599   5.531   4.836   0.378
 3545TIP3    H210600   5.548   4.916   0.251
 3546TIP3   OH210601   4.849   2.675   1.180
 3546TIP3    H110602   4.874   2.732   1.108
 3546TIP3    H210603   4.803   2.602   1.139
 3547TIP3   OH210604   5.263   0.729   2.797
 3547TIP3    H110605   5.347   0.774   2.806
 3547TIP3    H210606   5.233   0.753   2.709
 3548TIP3   OH210607   5.089   2.553   1.272
 3548TIP3    H110608   5.061   2.472   1.314
 3548TIP3    H210609   5.008   2.594   1.242
 3549TIP3   OH210610   1.413   3.127   2.717
 3549TIP3    H110611   1.445   3.066   2.784
 3549TIP3    H210612   1.492   3.170   2.684
 3550TIP3   OH210613   1.931   5.574   4.826
 3550TIP3    H110614   1.935   5.491   4.779
 3550TIP3    H210615   2.003   5.625   4.790
 3551TIP3   OH210616   5.570   5.303   0.060
 3551TIP3    H110617   5.490   5.256   0.086
 3551TIP3    H210618   5.639   5.237   0.064
 3552TIP3   OH210619   5.363   4.567   2.926
 3552TIP3    H110620   5.359   4.525   3.012
 3552TIP3    H210621   5.370   4.494   2.864
 3553TIP3   OH210622   5.045   0.332   5.561
 3553TIP3    H110623   5.033   0.299   5.472
 3553TIP3    H210624   4.963   0.309   5.606
 3554TIP3   OH210625   6.378   1.605   2.353
 3554TIP3    H110626   6.289   1.594   2.319
 3554TIP3    H210627   6.431   1.547   2.297
 3555TIP3   OH210628   5.480   5.248   4.386
 3555TIP3    H110629   5.467   5.322   4.446
 3555TIP3    H210630   5.394   5.207   4.379
 3556TIP3   OH210631   5.104   2.172   3.638
 3556TIP3    H110632   5.040   2.237   3.609
 3556TIP3    H210633   5.097   2.173   3.733
 3557TIP3   OH210634   3.035   6.508   1.911
 3557TIP3    H110635   2.968   6.440   1.910
 3557TIP3    H210636   3.056   6.520   2.004
 3558TIP3   OH210637   4.570   5.243   4.292
 3558TIP3    H110638   4.606   5.269   4.378
 3558TIP3    H210639   4.476   5.258   4.300
 3559TIP3   OH210640   2.197   2.208   4.759
 3559TIP3    H110641   2.276   2.255   4.735
 3559TIP3    H210642   2.125   2.265   4.733
 3560TIP3   OH210643   6.823   6.704   2.418
 3560TIP3    H110644   6.846   6.670   2.331
 3560TIP3    H210645   6.800   6.796   2.403
 3561TIP3   OH210646   7.052   1.773   2.114
 3561TIP3    H110647   7.135   1.726   2.105
 3561TIP3    H210648   7.053   1.805   2.204
 3562TIP3   OH210649   5.413   2.356   0.516
 3562TIP3    H110650   5.347   2.356   0.447
 3562TIP3    H210651   5.391   2.432   0.570
 3563TIP3   OH210652   4.361   6.506   5.680
 3563TIP3    H110653   4.351   6.485   5.587
 3563TIP3    H210654   4.297   6.450   5.724
 3564TIP3   OH210655   2.870   6.347   0.824
 3564TIP3    H110656   2.906   6.404   0.893
 3564TIP3    H210657   2.792   6.393   0.793
 3565TIP3   OH210658   5.265   5.085   2.698
 3565TIP3    H110659   5.294   5.010   2.751
 3565TIP3    H210660   5.173   5.067   2.680
 3566TIP3   OH210661   2.036   0.238   0.037
 3566TIP3    H110662   2.067   0.327   0.020
 3566TIP3    H210663   2.092   0.182  -0.016
 3567TIP3   OH210664   3.639   4.837   5.810
 3567TIP3    H110665   3.731   4.859   5.793
 3567TIP3    H210666   3.614   4.892   5.884
 3568TIP3   OH210667   2.993   3.483   1.538
 3568TIP3    H110668   3.082   3.452   1.549
 3568TIP3    H210669   2.988   3.512   1.447
 3569TIP3   OH210670   3.726   3.316   2.279
 3569TIP3    H110671   3.713   3.295   2.372
 3569TIP3    H210672   3.745   3.409   2.278
 3570TIP3   OH210673   1.397   3.290   4.083
 3570TIP3    H110674   1.415   3.196   4.082
 3570TIP3    H210675   1.336   3.303   4.155
 3571TIP3   OH210676   4.048   0.739   1.418
 3571TIP3    H110677   4.060   0.793   1.496
 3571TIP3    H210678   4.118   0.766   1.359
 3572TIP3   OH210679   4.734   4.122   5.217
 3572TIP3    H110680   4.783   4.196   5.184
 3572TIP3    H210681   4.665   4.108   5.152
 3573TIP3   OH210682   2.726   6.225   1.288
 3573TIP3    H110683   2.772   6.142   1.300
 3573TIP3    H210684   2.785   6.291   1.325
 3574TIP3   OH210685   3.765   4.444   1.956
 3574TIP3    H110686   3.768   4.350   1.971
 3574TIP3    H210687   3.709   4.478   2.025
 3575TIP3   OH210688   0.290   3.959   4.969
 3575TIP3    H110689   0.365   3.953   4.910
 3575TIP3    H210690   0.304   4.041   5.018
 3576TIP3   OH210691   2.260   6.420   3.997
 3576TIP3    H110692   2.329   6.475   3.960
 3576TIP3    H210693   2.254   6.346   3.937
 3577TIP3   OH210694   1.998   1.926   3.371
 3577TIP3    H110695   2.025   1.854   3.429
 3577TIP3    H210696   2.043   1.909   3.289
 3578TIP3   OH210697   0.993   1.073   2.348
 3578TIP3    H110698   0.912   1.085   2.298
 3578TIP3    H210699   0.972   1.109   2.435
 3579TIP3   OH210700   6.508   1.232   3.484
 3579TIP3    H110701   6.549   1.318   3.480
 3579TIP3    H210702   6.415   1.251   3.495
 3580TIP3   OH210703   1.052   2.606   1.875
 3580TIP3    H110704   1.049   2.681   1.934
 3580TIP3    H210705   1.117   2.631   1.809
 3581TIP3   OH210706   6.306   0.671   1.527
 3581TIP3    H110707   6.283   0.762   1.543
 3581TIP3    H210708   6.376   0.675   1.461
 3582TIP3   OH210709   4.621   4.154   0.833
 3582TIP3    H110710   4.654   4.194   0.913
 3582TIP3    H210711   4.541   4.203   0.813
 3583TIP3   OH210712   6.685   6.706   1.429
 3583TIP3    H110713   6.740   6.644   1.380
 3583TIP3    H210714   6.676   6.781   1.370
 3584TIP3   OH210715   4.877   1.207   0.921
 3584TIP3    H110716   4.783   1.224   0.930
 3584TIP3    H210717   4.917   1.293   0.916
 3585TIP3   OH210718   0.467   6.121   0.736
 3585TIP3    H110719   0.458   6.073   0.653
 3585TIP3    H210720   0.378   6.124   0.772
 3586TIP3   OH210721   3.562   3.330   4.409
 3586TIP3    H110722   3.608   3.408   4.441
 3586TIP3    H210723   3.607   3.307   4.328
 3587TIP3   OH210724   4.630   4.282   4.965
 3587TIP3    H110725   4.588   4.332   4.895
 3587TIP3    H210726   4.563   4.275   5.033
 3588TIP3   OH210727   5.689   2.991   5.364
 3588TIP3    H110728   5.600   3.015   5.387
 3588TIP3    H210729   5.742   3.065   5.394
 3589TIP3   OH210730   2.486   0.575   2.126
 3589TIP3    H110731   2.532   0.517   2.064
 3589TIP3    H210732   2.490   0.528   2.209
 3590TIP3   OH210733   1.475   0.712   0.776
 3590TIP3    H110734   1.480   0.617   0.765
 3590TIP3    H210735   1.430   0.724   0.860
 3591TIP3   OH210736   3.975   6.555   0.560
 3591TIP3    H110737   3.961   6.462   0.543
 3591TIP3    H210738   3.898   6.598   0.522
 3592TIP3   OH210739   5.475   3.840   3.464
 3592TIP3    H110740   5.563   3.836   3.500
 3592TIP3    H210741   5.455   3.934   3.460
 3593TIP3   OH210742   2.076   3.017   0.051
 3593TIP3    H110743   2.077   3.111   0.067
 3593TIP3    H210744   1.989   3.000   0.015
 3594TIP3   OH210745   2.921   4.300   4.261
 3594TIP3    H110746   2.947   4.349   4.183
 3594TIP3    H210747   2.976   4.222   4.260
 3595TIP3   OH210748   6.520   3.815   3.781
 3595TIP3    H110749   6.544   3.736   3.830
 3595TIP3    H210750   6.521   3.787   3.690
 3596TIP3   OH210751   1.692   2.551   0.862
 3596TIP3    H110752   1.763   2.490   0.880
 3596TIP3    H210753   1.613   2.501   0.884
 3597TIP3   OH210754   4.074   6.198   2.579
 3597TIP3    H110755   4.064   6.154   2.494
 3597TIP3    H210756   4.133   6.141   2.629
 3598TIP3   OH210757   3.061   3.194   3.237
 3598TIP3    H110758   3.033   3.269   3.290
 3598TIP3    H210759   3.121   3.232   3.173
 3599TIP3   OH210760   0.425   0.852   1.549
 3599TIP3    H110761   0.462   0.895   1.626
 3599TIP3    H210762   0.495   0.795   1.517
 3600TIP3   OH210763   2.061   3.457   1.169
 3600TIP3    H110764   2.139   3.402   1.164
 3600TIP3    H210765   2.029   3.446   1.258
 3601TIP3   OH210766   1.229   2.771   2.789
 3601TIP3    H110767   1.154   2.798   2.842
 3601TIP3    H210768   1.199   2.776   2.699
 3602TIP3   OH210769   0.917   5.280   0.824
 3602TIP3    H110770   0.943   5.251   0.736
 3602TIP3    H210771   0.975   5.354   0.843
 3603TIP3   OH210772   0.193   1.442   0.506
 3603TIP3    H110773   0.260   1.481   0.562
 3603TIP3    H210774   0.125   1.509   0.500
 3604TIP3   OH210775   0.682   4.181   3.278
 3604TIP3    H110776   0.621   4.180   3.351
 3604TIP3    H210777   0.689   4.274   3.254
 3605TIP3   OH210778   6.823   3.448   0.881
 3605TIP3    H110779   6.881   3.523   0.881
 3605TIP3    H210780   6.739   3.482   0.850
 3606TIP3   OH210781   3.850   2.258   2.485
 3606TIP3    H110782   3.915   2.189   2.472
 3606TIP3    H210783   3.902   2.338   2.495
 3607TIP3   OH210784   1.896   1.094   1.176
 3607TIP3    H110785   1.857   1.009   1.155
 3607TIP3    H210786   1.851   1.123   1.255
 3608TIP3   OH210787   3.044   0.869   4.446
 3608TIP3    H110788   2.979   0.865   4.376
 3608TIP3    H210789   3.127   0.851   4.402
 3609TIP3   OH210790   5.634   1.210   0.706
 3609TIP3    H110791   5.702   1.166   0.656
 3609TIP3    H210792   5.608   1.285   0.653
 3610TIP3   OH210793   4.990   0.100   4.924
 3610TIP3    H110794   5.043   0.075   4.848
 3610TIP3    H210795   4.905   0.060   4.907
 3611TIP3   OH210796   0.246   0.165   2.025
 3611TIP3    H110797   0.307   0.148   2.096
 3611TIP3    H210798   0.285   0.121   1.949
 3612TIP3   OH210799   5.695   1.796   3.897
 3612TIP3    H110800   5.667   1.830   3.982
 3612TIP3    H210801   5.782   1.759   3.913
 3613TIP3   OH210802   0.842   5.259   5.698
 3613TIP3    H110803   0.878   5.264   5.610
 3613TIP3    H210804   0.918   5.261   5.756
 3614TIP3   OH210805   1.559   4.270   1.683
 3614TIP3    H110806   1.474   4.248   1.720
 3614TIP3    H210807   1.618   4.202   1.716
 3615TIP3   OH210808   5.483   4.267   4.693
 3615TIP3    H110809   5.449   4.188   4.735
 3615TIP3    H210810   5.572   4.242   4.665
 3616TIP3   OH210811   4.260   4.430   1.784
 3616TIP3    H110812   4.242   4.431   1.878
 3616TIP3    H210813   4.175   4.447   1.743
 3617TIP3   OH210814   0.897   0.450   2.450
 3617TIP3    H110815   0.866   0.541   2.449
 3617TIP3    H210816   0.993   0.457   2.454
 3618TIP3   OH210817   5.886   1.173   1.198
 3618TIP3    H110818   5.896   1.143   1.288
 3618TIP3    H210819   5.961   1.230   1.183
 3619TIP3   OH210820   4.503   2.661   1.282
 3619TIP3    H110821   4.432   2.657   1.346
 3619TIP3    H210822   4.550   2.742   1.303
 3620TIP3   OH210823   6.785   6.048   2.308
 3620TIP3    H110824   6.811   6.138   2.324
 3620TIP3    H210825   6.696   6.042   2.343
 3621TIP3   OH210826   6.217   6.236   1.535
 3621TIP3    H110827   6.218   6.232   1.631
 3621TIP3    H210828   6.214   6.144   1.508
 3622TIP3   OH210829   0.212   4.532   1.540
 3622TIP3    H110830   0.303   4.559   1.529
 3622TIP3    H210831   0.208   4.444   1.501
 3623TIP3   OH210832   5.385   5.010   5.285
 3623TIP3    H110833   5.331   5.089   5.287
 3623TIP3    H210834   5.472   5.041   5.258
 3624TIP3   OH210835   1.936   1.331   2.389
 3624TIP3    H110836   2.025   1.315   2.421
 3624TIP3    H210837   1.899   1.394   2.451
 3625TIP3   OH210838   0.456   5.803   5.807
 3625TIP3    H110839   0.457   5.881   5.862
 3625TIP3    H210840   0.484   5.834   5.721
 3626TIP3   OH210841   4.073   6.311   3.693
 3626TIP3    H110842   4.076   6.402   3.665
 3626TIP3    H210843   4.048   6.262   3.615
 3627TIP3   OH210844   1.284   1.466   4.439
 3627TIP3    H110845   1.253   1.556   4.432
 3627TIP3    H210846   1.379   1.473   4.449
 3628TIP3   OH210847   2.930   1.852   3.808
 3628TIP3    H110848   2.914   1.940   3.774
 3628TIP3    H210849   3.021   1.853   3.837
 3629TIP3   OH210850   1.243   3.410   3.615
 3629TIP3    H110851   1.227   3.347   3.684
 3629TIP3    H210852   1.222   3.364   3.534
 3630TIP3   OH210853   0.969   2.878   4.228
 3630TIP3    H110854   0.997   2.815   4.295
 3630TIP3    H210855   0.978   2.830   4.145
 3631TIP3   OH210856   1.213   6.274   3.322
 3631TIP3    H110857   1.165   6.354   3.344
 3631TIP3    H210858   1.146   6.216   3.283
 3632TIP3   OH210859   0.066   1.166   5.289
 3632TIP3    H110860   0.154   1.132   5.270
 3632TIP3    H210861   0.055   1.149   5.383
 3633TIP3   OH210862   3.072   5.933   4.065
 3633TIP3    H110863   3.135   5.961   3.999
 3633TIP3    H210864   3.071   5.838   4.059
 3634TIP3   OH210865   1.014   5.396   3.663
 3634TIP3    H110866   0.926   5.376   3.632
 3634TIP3    H210867   1.044   5.466   3.605
 3635TIP3   OH210868   0.278   1.638   3.526
 3635TIP3    H110869   0.198   1.591   3.502
 3635TIP3    H210870   0.281   1.713   3.467
 3636TIP3   OH210871   5.795   3.545   1.606
 3636TIP3    H110872   5.734   3.604   1.650
 3636TIP3    H210873   5.779   3.559   1.512
 3637TIP3   OH210874   0.908   3.388   1.780
 3637TIP3    H110875   0.900   3.317   1.716
 3637TIP3    H210876   0.871   3.464   1.735
 3638TIP3   OH210877   2.230   2.532   0.206
 3638TIP3    H110878   2.214   2.626   0.197
 3638TIP3    H210879   2.301   2.525   0.269
 3639TIP3   OH210880   0.895   0.230   3.939
 3639TIP3    H110881   0.986   0.231   3.968
 3639TIP3    H210882   0.869   0.138   3.944
 3640TIP3   OH210883   0.358   0.501   5.579
 3640TIP3    H110884   0.432   0.489   5.638
 3640TIP3    H210885   0.294   0.436   5.607
 3641TIP3   OH210886   3.782   0.885   4.071
 3641TIP3    H110887   3.693   0.891   4.036
 3641TIP3    H210888   3.771   0.849   4.159
 3642TIP3   OH210889   7.144   0.279   2.451
 3642TIP3    H110890   7.083   0.353   2.449
 3642TIP3    H210891   7.213   0.307   2.511
 3643TIP3   OH210892   6.997   3.558   0.441
 3643TIP3    H110893   7.087   3.551   0.472
 3643TIP3    H210894   6.992   3.495   0.369
 3644TIP3   OH210895   2.405   4.487   1.173
 3644TIP3    H110896   2.477   4.467   1.113
 3644TIP3    H210897   2.447   4.497   1.259
 3645TIP3   OH210898   3.369   1.689   0.416
 3645TIP3    H110899   3.287   1.729   0.446
 3645TIP3    H210900   3.393   1.628   0.485
 3646TIP3   OH210901   2.524   5.363   4.782
 3646TIP3    H110902   2.518   5.440   4.726
 3646TIP3    H210903   2.606   5.321   4.757
 3647TIP3   OH210904   6.091   2.969   1.265
 3647TIP3    H110905   6.009   3.003   1.231
 3647TIP3    H210906   6.145   3.046   1.280
 3648TIP3   OH210907   7.154   0.984   3.646
 3648TIP3    H110908   7.121   0.920   3.583
 3648TIP3    H210909   7.227   1.026   3.602
 3649TIP3   OH210910   3.671   3.965   0.715
 3649TIP3    H110911   3.679   3.900   0.645
 3649TIP3    H210912   3.584   4.003   0.702
 3650TIP3   OH210913   4.111   5.945   4.938
 3650TIP3    H110914   4.024   5.982   4.927
 3650TIP3    H210915   4.170   6.020   4.937
 3651TIP3   OH210916   2.741   6.768   5.615
 3651TIP3    H110917   2.754   6.824   5.691
 3651TIP3    H210918   2.826   6.765   5.571
 3652TIP3   OH210919   6.879   6.660   2.682
 3652TIP3    H110920   6.857   6.658   2.588
 3652TIP3    H210921   6.807   6.613   2.724
 3653TIP3   OH210922   6.506   2.532   1.072
 3653TIP3    H110923   6.453   2.456   1.094
 3653TIP3    H210924   6.579   2.529   1.134
 3654TIP3   OH210925   1.747   2.046   4.076
 3654TIP3    H110926   1.827   2.041   4.022
 3654TIP3    H210927   1.768   2.110   4.143
 3655TIP3   OH210928   6.006   5.663   4.769
 3655TIP3    H110929   6.022   5.605   4.695
 3655TIP3    H210930   5.918   5.642   4.798
 3656TIP3   OH210931   3.437   2.284   4.735
 3656TIP3    H110932   3.495   2.312   4.805
 3656TIP3    H210933   3.495   2.255   4.665
 3657TIP3   OH210934   4.587   1.287   2.013
 3657TIP3    H110935   4.591   1.335   2.096
 3657TIP3    H210936   4.632   1.205   2.030
 3658TIP3   OH210937   0.020   1.855   3.585
 3658TIP3    H110938   0.054   1.847   3.496
 3658TIP3    H210939   0.089   1.817   3.640
 3659TIP3   OH210940   4.257   0.557   1.496
 3659TIP3    H110941   4.182   0.614   1.513
 3659TIP3    H210942   4.218   0.480   1.454
 3660TIP3   OH210943   2.342   6.775   0.497
 3660TIP3    H110944   2.296   6.696   0.525
 3660TIP3    H210945   2.310   6.844   0.555
 3661TIP3   OH210946   1.181   0.330   1.094
 3661TIP3    H110947   1.199   0.349   1.001
 3661TIP3    H210948   1.233   0.395   1.142
 3662TIP3   OH210949   1.151   4.693   4.925
 3662TIP3    H110950   1.201   4.745   4.861
 3662TIP3    H210951   1.149   4.605   4.888
 3663TIP3   OH210952   2.079   3.193   5.160
 3663TIP3    H110953   2.019   3.216   5.089
 3663TIP3    H210954   2.025   3.192   5.238
 3664TIP3   OH210955   3.783   1.993   0.062
 3664TIP3    H110956   3.735   1.997   0.144
 3664TIP3    H210957   3.859   2.049   0.076
 3665TIP3   OH210958   1.208   0.018   0.925
 3665TIP3    H110959   1.165   0.064   0.997
 3665TIP3    H210960   1.300   0.013   0.951
 3666TIP3   OH210961   3.465   4.637   4.009
 3666TIP3    H110962   3.447   4.729   4.028
 3666TIP3    H210963   3.383   4.604   3.972
 3667TIP3   OH210964   0.009   5.270   5.639
 3667TIP3    H110965   0.068   5.195   5.636
 3667TIP3    H210966   0.064   5.343   5.666
 3668TIP3   OH210967   4.114   3.581   1.865
 3668TIP3    H110968   4.033   3.576   1.915
 3668TIP3    H210969   4.184   3.579   1.931
 3669TIP3   OH210970   0.479   3.102   1.057
 3669TIP3    H110971   0.531   3.033   1.099
 3669TIP3    H210972   0.481   3.175   1.119
 3670TIP3   OH210973   2.460   0.998   4.913
 3670TIP3    H110974   2.465   0.943   4.991
 3670TIP3    H210975   2.549   0.998   4.877
 3671TIP3   OH210976   5.882   2.787   3.832
 3671TIP3    H110977   5.836   2.857   3.878
 3671TIP3    H210978   5.900   2.824   3.745
 3672TIP3   OH210979   5.889   4.933   1.440
 3672TIP3    H110980   5.844   4.873   1.500
 3672TIP3    H210981   5.972   4.890   1.421
 3673TIP3   OH210982   3.138   4.666   5.275
 3673TIP3    H110983   3.161   4.692   5.364
 3673TIP3    H210984   3.188   4.725   5.219
 3674TIP3   OH210985   3.765   1.250   2.452
 3674TIP3    H110986   3.801   1.214   2.533
 3674TIP3    H210987   3.819   1.214   2.383
 3675TIP3   OH210988   3.699   2.106   5.720
 3675TIP3    H110989   3.656   2.061   5.792
 3675TIP3    H210990   3.656   2.192   5.716
 3676TIP3   OH210991   6.377   5.708   3.606
 3676TIP3    H110992   6.397   5.801   3.593
 3676TIP3    H210993   6.307   5.708   3.671
 3677TIP3   OH210994   2.405   6.311   0.582
 3677TIP3    H110995   2.419   6.217   0.571
 3677TIP3    H210996   2.493   6.348   0.592
 3678TIP3   OH210997   3.799   0.743   1.320
 3678TIP3    H110998   3.888   0.752   1.356
 3678TIP3    H210999   3.804   0.667   1.262
 3679TIP3   OH211000   2.294   4.603   5.803
 3679TIP3    H111001   2.329   4.615   5.715
 3679TIP3    H211002   2.360   4.549   5.847
 3680TIP3   OH211003   6.105   1.119   2.121
 3680TIP3    H111004   6.033   1.109   2.059
 3680TIP3    H211005   6.139   1.030   2.134
 3681TIP3   OH211006   0.333   1.551   2.203
 3681TIP3    H111007   0.291   1.466   2.188
 3681TIP3    H211008   0.316   1.570   2.295
 3682TIP3   OH211009   2.912   3.174   5.702
 3682TIP3    H111010   2.916   3.126   5.784
 3682TIP3    H211011   2.947   3.261   5.723
 3683TIP3   OH211012   6.119   2.231   1.241
 3683TIP3    H111013   6.060   2.220   1.315
 3683TIP3    H211014   6.061   2.257   1.169
 3684TIP3   OH211015   4.885   0.363   4.290
 3684TIP3    H111016   4.896   0.279   4.246
 3684TIP3    H211017   4.859   0.423   4.220
 3685TIP3   OH211018   6.010   5.220  -0.003
 3685TIP3    H111019   5.972   5.156   0.056
 3685TIP3    H211020   6.101   5.228   0.026
 3686TIP3   OH211021   0.174   6.671   5.766
 3686TIP3    H111022   0.138   6.661   5.678
 3686TIP3    H211023   0.266   6.646   5.757
 3687TIP3   OH211024   4.160   5.928   3.686
 3687TIP3    H111025   4.233   5.988   3.703
 3687TIP3    H211026   4.083   5.975   3.719
 3688TIP3   OH211027   3.991   2.135   0.245
 3688TIP3    H111028   3.969   2.187   0.168
 3688TIP3    H211029   4.036   2.196   0.303
 3689TIP3   OH211030   4.588   2.939   3.860
 3689TIP3    H111031   4.643   2.951   3.782
 3689TIP3    H211032   4.511   2.994   3.843
 3690TIP3   OH211033   6.944   0.771   1.202
 3690TIP3    H111034   6.932   0.699   1.265
 3690TIP3    H211035   7.026   0.812   1.228
 3691TIP3   OH211036   2.412   4.808   0.910
 3691TIP3    H111037   2.383   4.724   0.945
 3691TIP3    H211038   2.343   4.833   0.848
 3692TIP3   OH211039   0.154   4.119   2.318
 3692TIP3    H111040   0.130   4.041   2.269
 3692TIP3    H211041   0.205   4.172   2.257
 3693TIP3   OH211042   2.317   2.848   3.712
 3693TIP3    H111043   2.402   2.870   3.749
 3693TIP3    H211044   2.275   2.932   3.696
 3694TIP3   OH211045   2.303   1.983   0.048
 3694TIP3    H111046   2.356   2.050   0.092
 3694TIP3    H211047   2.275   2.026  -0.033
 3695TIP3   OH211048   5.993   3.262   4.569
 3695TIP3    H111049   5.926   3.223   4.626
 3695TIP3    H211050   6.074   3.219   4.595
 3696TIP3   OH211051   6.241   1.327   3.405
 3696TIP3    H111052   6.269   1.415   3.382
 3696TIP3    H211053   6.185   1.300   3.332
 3697TIP3   OH211054   3.527   5.345   5.666
 3697TIP3    H111055   3.484   5.273   5.713
 3697TIP3    H211056   3.485   5.345   5.580
 3698TIP3   OH211057   5.832   4.074   5.045
 3698TIP3    H111058   5.800   3.987   5.022
 3698TIP3    H211059   5.875   4.106   4.967
 3699TIP3   OH211060   7.159   3.864   0.636
 3699TIP3    H111061   7.091   3.886   0.699
 3699TIP3    H211062   7.125   3.895   0.552
 3700TIP3   OH211063   1.201   3.206   3.395
 3700TIP3    H111064   1.277   3.174   3.444
 3700TIP3    H211065   1.239   3.260   3.325
 3701TIP3   OH211066   1.328   4.188   2.832
 3701TIP3    H111067   1.253   4.176   2.890
 3701TIP3    H211068   1.293   4.236   2.757
 3702TIP3   OH211069   1.368   2.476   2.167
 3702TIP3    H111070   1.349   2.567   2.145
 3702TIP3    H211071   1.294   2.427   2.131
 3703TIP3   OH211072   1.642   4.203   3.281
 3703TIP3    H111073   1.551   4.183   3.304
 3703TIP3    H211074   1.641   4.211   3.185
 3704TIP3   OH211075   3.484   3.185   3.487
 3704TIP3    H111076   3.469   3.094   3.513
 3704TIP3    H211077   3.548   3.218   3.551
 3705TIP3   OH211078   5.398   0.461   0.087
 3705TIP3    H111079   5.366   0.530   0.147
 3705TIP3    H211080   5.478   0.429   0.129
 3706TIP3   OH211081   5.773   1.322   5.095
 3706TIP3    H111082   5.715   1.393   5.124
 3706TIP3    H211083   5.861   1.360   5.098
 3707TIP3   OH211084   2.688   1.561   4.797
 3707TIP3    H111085   2.764   1.587   4.745
 3707TIP3    H211086   2.696   1.612   4.878
 3708TIP3   OH211087   0.522   5.953   5.574
 3708TIP3    H111088   0.538   6.038   5.532
 3708TIP3    H211089   0.433   5.929   5.547
 3709TIP3   OH211090   1.786   5.510   2.522
 3709TIP3    H111091   1.793   5.546   2.434
 3709TIP3    H211092   1.810   5.417   2.511
 3710TIP3   OH211093   2.695   6.294   2.288
 3710TIP3    H111094   2.654   6.368   2.242
 3710TIP3    H211095   2.621   6.245   2.325
 3711TIP3   OH211096   6.667   3.468   2.971
 3711TIP3    H111097   6.632   3.531   2.908
 3711TIP3    H211098   6.755   3.500   2.992
 3712TIP3   OH211099   4.639   6.693   3.534
 3712TIP3    H111100   4.733   6.690   3.553
 3712TIP3    H211101   4.618   6.606   3.501
 3713TIP3   OH211102   4.752   6.712   0.660
 3713TIP3    H111103   4.668   6.666   0.661
 3713TIP3    H211104   4.763   6.745   0.749
 3714TIP3   OH211105   6.745   1.271   5.267
 3714TIP3    H111106   6.797   1.191   5.268
 3714TIP3    H211107   6.799   1.334   5.220
 3715TIP3   OH211108   3.329   3.273   5.739
 3715TIP3    H111109   3.297   3.224   5.815
 3715TIP3    H211110   3.263   3.259   5.671
 3716TIP3   OH211111   1.241   2.297   0.841
 3716TIP3    H111112   1.154   2.283   0.879
 3716TIP3    H211113   1.231   2.275   0.749
 3717TIP3   OH211114   6.836   4.852   4.997
 3717TIP3    H111115   6.823   4.757   4.991
 3717TIP3    H211116   6.749   4.890   4.984
 3718TIP3   OH211117   3.300   3.542   5.715
 3718TIP3    H111118   3.207   3.560   5.727
 3718TIP3    H211119   3.311   3.450   5.740
 3719TIP3   OH211120   7.049   6.207   0.040
 3719TIP3    H111121   6.974   6.171   0.088
 3719TIP3    H211122   7.022   6.294   0.013
 3720TIP3   OH211123   3.950   6.521   1.575
 3720TIP3    H111124   3.983   6.484   1.494
 3720TIP3    H211125   3.978   6.460   1.643
 3721TIP3   OH211126   2.630   0.666   4.954
 3721TIP3    H111127   2.585   0.710   5.026
 3721TIP3    H211128   2.559   0.630   4.901
 3722TIP3   OH211129   6.906   1.962   4.363
 3722TIP3    H111130   6.834   2.010   4.402
 3722TIP3    H211131   6.976   2.027   4.353
 3723TIP3   OH211132   6.049   0.856   3.638
 3723TIP3    H111133   6.016   0.938   3.674
 3723TIP3    H211134   5.984   0.791   3.663
 3724TIP3   OH211135   2.130   5.205   5.727
 3724TIP3    H111136   2.076   5.211   5.648
 3724TIP3    H211137   2.142   5.112   5.742
 3725TIP3   OH211138   2.660   4.492   0.182
 3725TIP3    H111139   2.680   4.451   0.098
 3725TIP3    H211140   2.684   4.584   0.172
 3726TIP3   OH211141   4.563   5.332   3.322
 3726TIP3    H111142   4.578   5.240   3.300
 3726TIP3    H211143   4.650   5.371   3.321
 3727TIP3   OH211144   6.896   1.516   5.206
 3727TIP3    H111145   6.932   1.477   5.126
 3727TIP3    H211146   6.820   1.566   5.176
 3728TIP3   OH211147   4.398   4.336   0.383
 3728TIP3    H111148   4.451   4.392   0.327
 3728TIP3    H211149   4.405   4.249   0.344
 3729TIP3   OH211150   3.778   0.501   2.890
 3729TIP3    H111151   3.692   0.540   2.903
 3729TIP3    H211152   3.777   0.420   2.941
 3730TIP3   OH211153   5.010   1.622   2.793
 3730TIP3    H111154   4.962   1.623   2.710
 3730TIP3    H211155   5.017   1.714   2.818
 3731TIP3   OH211156   2.586   3.726   1.815
 3731TIP3    H111157   2.518   3.661   1.836
 3731TIP3    H211158   2.560   3.804   1.862
 3732TIP3   OH211159   5.375   5.630   0.543
 3732TIP3    H111160   5.444   5.588   0.491
 3732TIP3    H211161   5.362   5.573   0.618
 3733TIP3   OH211162   1.212   6.785   5.194
 3733TIP3    H111163   1.260   6.761   5.273
 3733TIP3    H211164   1.168   6.704   5.168
 3734TIP3   OH211165   2.413   4.004   3.896
 3734TIP3    H111166   2.455   4.001   3.810
 3734TIP3    H211167   2.417   4.096   3.922
 3735TIP3   OH211168   0.713   2.279   0.235
 3735TIP3    H111169   0.722   2.349   0.300
 3735TIP3    H211170   0.802   2.256   0.211
 3736TIP3   OH211171   6.000   2.329   2.319
 3736TIP3    H111172   6.058   2.334   2.395
 3736TIP3    H211173   6.015   2.411   2.272
 3737TIP3   OH211174   3.888   5.048   2.786
 3737TIP3    H111175   3.960   4.990   2.764
 3737TIP3    H211176   3.914   5.090   2.868
 3738TIP3   OH211177   3.169   4.471   3.502
 3738TIP3    H111178   3.099   4.537   3.500
 3738TIP3    H211179   3.247   4.520   3.478
 3739TIP3   OH211180   6.692   4.465   4.847
 3739TIP3    H111181   6.630   4.406   4.891
 3739TIP3    H211182   6.642   4.504   4.776
 3740TIP3   OH211183   0.748   2.465   4.377
 3740TIP3    H111184   0.657   2.454   4.403
 3740TIP3    H211185   0.798   2.440   4.455
 3741TIP3   OH211186   4.068   5.449   4.133
 3741TIP3    H111187   4.048   5.502   4.209
 3741TIP3    H211188   4.027   5.495   4.060
 3742TIP3   OH211189   0.808   5.674   1.798
 3742TIP3    H111190   0.901   5.658   1.814
 3742TIP3    H211191   0.788   5.625   1.719
 3743TIP3   OH211192   2.530   6.121   1.041
 3743TIP3    H111193   2.582   6.043   1.023
 3743TIP3    H211194   2.579   6.168   1.109
 3744TIP3   OH211195   5.796   4.204   5.470
 3744TIP3    H111196   5.760   4.271   5.412
 3744TIP3    H211197   5.881   4.182   5.432
 3745TIP3   OH211198   4.508   6.510   5.407
 3745TIP3    H111199   4.541   6.459   5.334
 3745TIP3    H211200   4.449   6.574   5.368
 3746TIP3   OH211201   2.498   0.162   5.595
 3746TIP3    H111202   2.457   0.238   5.554
 3746TIP3    H211203   2.448   0.087   5.564
 3747TIP3   OH211204   3.098   3.706   2.574
 3747TIP3    H111205   3.023   3.742   2.622
 3747TIP3    H211206   3.064   3.689   2.486
 3748TIP3   OH211207   1.272   3.583   2.494
 3748TIP3    H111208   1.227   3.667   2.486
 3748TIP3    H211209   1.201   3.519   2.502
 3749TIP3   OH211210   3.443   1.172   0.590
 3749TIP3    H111211   3.523   1.214   0.621
 3749TIP3    H211212   3.460   1.153   0.498
 3750TIP3   OH211213   5.693   3.656   1.379
 3750TIP3    H111214   5.627   3.723   1.361
 3750TIP3    H211215   5.726   3.632   1.293
 3751TIP3   OH211216   2.906   3.427   2.545
 3751TIP3    H111217   2.821   3.427   2.501
 3751TIP3    H211218   2.885   3.425   2.638
 3752TIP3   OH211219   0.846   1.743   0.816
 3752TIP3    H111220   0.838   1.740   0.721
 3752TIP3    H211221   0.797   1.667   0.847
 3753TIP3   OH211222   4.433   4.045   3.720
 3753TIP3    H111223   4.450   4.067   3.812
 3753TIP3    H211224   4.342   4.017   3.719
 3754TIP3   OH211225   4.246   5.946   2.633
 3754TIP3    H111226   4.266   5.930   2.541
 3754TIP3    H211227   4.179   5.881   2.655
 3755TIP3   OH211228   0.951   6.455   3.700
 3755TIP3    H111229   0.860   6.473   3.723
 3755TIP3    H211230   0.974   6.524   3.637
 3756TIP3   OH211231   6.825   4.927   0.896
 3756TIP3    H111232   6.755   4.862   0.888
 3756TIP3    H211233   6.872   4.901   0.976
 3757TIP3   OH211234   2.159   2.793   3.267
 3757TIP3    H111235   2.210   2.719   3.233
 3757TIP3    H211236   2.217   2.868   3.257
 3758TIP3   OH211237   4.985   1.336   4.990
 3758TIP3    H111238   5.066   1.301   5.028
 3758TIP3    H211239   4.996   1.431   4.992
 3759TIP3   OH211240   2.603   4.049   2.575
 3759TIP3    H111241   2.536   4.110   2.605
 3759TIP3    H211242   2.631   4.003   2.654
 3760TIP3   OH211243   1.315   4.567   5.289
 3760TIP3    H111244   1.327   4.657   5.258
 3760TIP3    H211245   1.221   4.557   5.299
 3761TIP3   OH211246   5.857   2.529   3.380
 3761TIP3    H111247   5.897   2.443   3.383
 3761TIP3    H211248   5.864   2.556   3.288
 3762TIP3   OH211249   1.886   3.852   5.006
 3762TIP3    H111250   1.922   3.785   5.064
 3762TIP3    H211251   1.807   3.883   5.051
 3763TIP3   OH211252   5.433   1.920   5.062
 3763TIP3    H111253   5.525   1.917   5.038
 3763TIP3    H211254   5.386   1.918   4.979
 3764TIP3   OH211255   5.590   5.589   0.821
 3764TIP3    H111256   5.568   5.542   0.741
 3764TIP3    H211257   5.679   5.621   0.806
 3765TIP3   OH211258   6.929   2.234   4.917
 3765TIP3    H111259   6.975   2.150   4.918
 3765TIP3    H211260   6.854   2.221   4.976
 3766TIP3   OH211261   6.423   6.241   2.349
 3766TIP3    H111262   6.377   6.204   2.424
 3766TIP3    H211263   6.495   6.292   2.387
 3767TIP3   OH211264   5.155   6.780   3.790
 3767TIP3    H111265   5.107   6.831   3.856
 3767TIP3    H211266   5.226   6.740   3.839
 3768TIP3   OH211267   2.164   1.262   5.223
 3768TIP3    H111268   2.090   1.203   5.236
 3768TIP3    H211269   2.125   1.346   5.198
 3769TIP3   OH211270   5.439   5.201   2.962
 3769TIP3    H111271   5.460   5.295   2.961
 3769TIP3    H211272   5.348   5.197   2.990
 3770TIP3   OH211273   6.587   6.726   4.540
 3770TIP3    H111274   6.668   6.730   4.592
 3770TIP3    H211275   6.588   6.807   4.489
 3771TIP3   OH211276   2.399   0.327   3.851
 3771TIP3    H111277   2.494   0.342   3.847
 3771TIP3    H211278   2.362   0.389   3.788
 3772TIP3   OH211279   4.636   4.569   4.180
 3772TIP3    H111280   4.624   4.663   4.192
 3772TIP3    H211281   4.549   4.532   4.195
 3773TIP3   OH211282   5.501   5.283   4.073
 3773TIP3    H111283   5.425   5.326   4.112
 3773TIP3    H211284   5.557   5.260   4.147
 3774TIP3   OH211285   3.623   1.665   3.660
 3774TIP3    H111286   3.691   1.728   3.682
 3774TIP3    H211287   3.551   1.719   3.625
 3775TIP3   OH211288   4.696   6.663   5.232
 3775TIP3    H111289   4.698   6.595   5.299
 3775TIP3    H211290   4.763   6.636   5.169
 3776TIP3   OH211291   6.798   0.511   2.553
 3776TIP3    H111292   6.766   0.434   2.599
 3776TIP3    H211293   6.767   0.585   2.605
 3777TIP3   OH211294   4.675   6.349   2.556
 3777TIP3    H111295   4.760   6.368   2.594
 3777TIP3    H211296   4.660   6.420   2.493
 3778TIP3   OH211297   1.410   5.559   3.528
 3778TIP3    H111298   1.417   5.604   3.612
 3778TIP3    H211299   1.353   5.484   3.546
 3779TIP3   OH211300   2.614   3.174   4.192
 3779TIP3    H111301   2.586   3.211   4.108
 3779TIP3    H211302   2.693   3.124   4.171
 3780TIP3   OH211303   2.286   1.689   3.592
 3780TIP3    H111304   2.359   1.630   3.612
 3780TIP3    H211305   2.288   1.754   3.663
 3781TIP3   OH211306   6.276   0.440   5.506
 3781TIP3    H111307   6.332   0.511   5.475
 3781TIP3    H211308   6.204   0.484   5.551
 3782TIP3   OH211309   6.812   4.371   5.126
 3782TIP3    H111310   6.727   4.344   5.091
 3782TIP3    H211311   6.828   4.457   5.086
 3783TIP3   OH211312   6.882   5.458   1.401
 3783TIP3    H111313   6.874   5.508   1.482
 3783TIP3    H211314   6.801   5.479   1.353
 3784TIP3   OH211315   1.130   0.257   4.067
 3784TIP3    H111316   1.217   0.224   4.091
 3784TIP3    H211317   1.146   0.314   3.992
 3785TIP3   OH211318   0.824   3.731   1.082
 3785TIP3    H111319   0.746   3.786   1.094
 3785TIP3    H211320   0.860   3.720   1.170
 3786TIP3   OH211321   6.083  -0.015   4.724
 3786TIP3    H111322   6.162   0.039   4.723
 3786TIP3    H211323   6.011   0.048   4.728
 3787TIP3   OH211324   4.674   0.273   3.678
 3787TIP3    H111325   4.581   0.253   3.681
 3787TIP3    H211326   4.717   0.188   3.669
 3788TIP3   OH211327   3.113   2.648   5.001
 3788TIP3    H111328   3.144   2.727   5.046
 3788TIP3    H211329   3.184   2.627   4.940
 3789TIP3   OH211330   4.348   0.310   5.517
 3789TIP3    H111331   4.419   0.256   5.550
 3789TIP3    H211332   4.392   0.387   5.480
 3790TIP3   OH211333   6.903   5.822   2.432
 3790TIP3    H111334   6.850   5.747   2.406
 3790TIP3    H211335   6.864   5.896   2.388
 3791TIP3   OH211336   6.252   3.434   5.774
 3791TIP3    H111337   6.327   3.477   5.814
 3791TIP3    H211338   6.239   3.481   5.691
 3792TIP3   OH211339   0.642   5.779   2.165
 3792TIP3    H111340   0.701   5.847   2.133
 3792TIP3    H211341   0.559   5.796   2.121
 3793TIP3   OH211342   3.730   3.138   5.684
 3793TIP3    H111343   3.718   3.110   5.775
 3793TIP3    H211344   3.702   3.062   5.632
 3794TIP3   OH211345   2.639   5.265   5.511
 3794TIP3    H111346   2.718   5.234   5.555
 3794TIP3    H211347   2.643   5.361   5.519
 3795TIP3   OH211348   0.487   0.383   2.587
 3795TIP3    H111349   0.526   0.468   2.566
 3795TIP3    H211350   0.410   0.378   2.531
 3796TIP3   OH211351   0.118   3.736   3.186
 3796TIP3    H111352   0.180   3.665   3.172
 3796TIP3    H211353   0.086   3.722   3.276
 3797TIP3   OH211354   0.706   0.833   3.487
 3797TIP3    H111355   0.738   0.875   3.567
 3797TIP3    H211356   0.624   0.791   3.514
 3798TIP3   OH211357   1.679   6.169   4.719
 3798TIP3    H111358   1.591   6.169   4.682
 3798TIP3    H211359   1.711   6.080   4.702
 3799TIP3   OH211360   1.126   1.225   1.293
 3799TIP3    H111361   1.053   1.265   1.246
 3799TIP3    H211362   1.093   1.212   1.382
 3800TIP3   OH211363   0.351   4.986   1.701
 3800TIP3    H111364   0.332   5.034   1.782
 3800TIP3    H211365   0.307   4.902   1.711
 3801TIP3   OH211366   6.579   4.612   0.983
 3801TIP3    H111367   6.572   4.558   0.904
 3801TIP3    H211368   6.670   4.641   0.984
 3802TIP3   OH211369   5.722   6.126   1.460
 3802TIP3    H111370   5.795   6.143   1.518
 3802TIP3    H211371   5.723   6.199   1.398
 3803TIP3   OH211372   1.950   0.591   2.856
 3803TIP3    H111373   2.031   0.641   2.853
 3803TIP3    H211374   1.966   0.522   2.919
 3804TIP3   OH211375   0.385   3.321   4.741
 3804TIP3    H111376   0.394   3.288   4.830
 3804TIP3    H211377   0.463   3.288   4.695
 3805TIP3   OH211378   6.580   3.580   0.276
 3805TIP3    H111379   6.509   3.616   0.223
 3805TIP3    H211380   6.637   3.537   0.212
 3806TIP3   OH211381   5.220   5.196   1.974
 3806TIP3    H111382   5.286   5.256   1.938
 3806TIP3    H211383   5.223   5.211   2.068
 3807TIP3   OH211384   0.251   5.942   5.496
 3807TIP3    H111385   0.195   6.007   5.539
 3807TIP3    H211386   0.189   5.887   5.447
 3808TIP3   OH211387   4.218   3.569   2.879
 3808TIP3    H111388   4.131   3.601   2.902
 3808TIP3    H211389   4.274   3.646   2.885
 3809TIP3   OH211390   3.753   1.096   5.278
 3809TIP3    H111391   3.687   1.156   5.243
 3809TIP3    H211392   3.707   1.048   5.347
 3810TIP3   OH211393   6.362   4.006   4.314
 3810TIP3    H111394   6.427   4.061   4.359
 3810TIP3    H211395   6.395   4.000   4.224
 3811TIP3   OH211396   4.471   2.249   3.685
 3811TIP3    H111397   4.540   2.284   3.630
 3811TIP3    H211398   4.431   2.326   3.726
 3812TIP3   OH211399   4.465   6.192   1.402
 3812TIP3    H111400   4.373   6.217   1.392
 3812TIP3    H211401   4.481   6.131   1.330
 3813TIP3   OH211402   0.063   5.765   5.414
 3813TIP3    H111403   0.015   5.807   5.342
 3813TIP3    H211404  -0.003   5.720   5.465
 3814TIP3   OH211405   7.120   6.508   2.564
 3814TIP3    H111406   7.106   6.582   2.506
 3814TIP3    H211407   7.215   6.507   2.581
 3815TIP3   OH211408   6.798   3.054   0.338
 3815TIP3    H111409   6.749   2.983   0.379
 3815TIP3    H211410   6.736   3.093   0.276
 3816TIP3   OH211411   6.655   3.244   0.666
 3816TIP3    H111412   6.608   3.267   0.746
 3816TIP3    H211413   6.667   3.150   0.671
 3817TIP3   OH211414   0.383   4.800   4.007
 3817TIP3    H111415   0.319   4.868   3.985
 3817TIP3    H211416   0.468   4.843   3.997
 3818TIP3   OH211417   2.710   5.471   1.797
 3818TIP3    H111418   2.801   5.489   1.824
 3818TIP3    H211419   2.696   5.528   1.721
 3819TIP3   OH211420   3.291   2.769   4.656
 3819TIP3    H111421   3.213   2.818   4.628
 3819TIP3    H211422   3.330   2.824   4.723
 3820TIP3   OH211423   1.072   4.043   2.993
 3820TIP3    H111424   1.079   4.138   3.004
 3820TIP3    H211425   1.099   4.007   3.077
 3821TIP3   OH211426   0.000   5.979   2.763
 3821TIP3    H111427   0.051   5.957   2.841
 3821TIP3    H211428   0.057   5.955   2.689
 3822TIP3   OH211429   3.693   5.979   2.308
 3822TIP3    H111430   3.608   6.002   2.271
 3822TIP3    H211431   3.730   5.915   2.247
 3823TIP3   OH211432   6.710   3.282   4.364
 3823TIP3    H111433   6.715   3.196   4.405
 3823TIP3    H211434   6.744   3.342   4.431
 3824TIP3   OH211435   1.018   1.751   4.657
 3824TIP3    H111436   0.928   1.776   4.637
 3824TIP3    H211437   1.040   1.802   4.734
 3825TIP3   OH211438   0.695   2.720   3.533
 3825TIP3    H111439   0.651   2.648   3.577
 3825TIP3    H211440   0.627   2.763   3.482
 3826TIP3   OH211441   0.577   6.225   2.793
 3826TIP3    H111442   0.509   6.166   2.761
 3826TIP3    H211443   0.580   6.296   2.729
 3827TIP3   OH211444   4.792   2.561   5.269
 3827TIP3    H111445   4.745   2.506   5.331
 3827TIP3    H211446   4.819   2.638   5.320
 3828TIP3   OH211447   2.196   3.805   4.413
 3828TIP3    H111448   2.282   3.801   4.455
 3828TIP3    H211449   2.207   3.869   4.343
 3829TIP3   OH211450   1.132   0.954   4.287
 3829TIP3    H111451   1.083   0.997   4.357
 3829TIP3    H211452   1.083   0.975   4.208
 3830TIP3   OH211453   3.462   6.022   2.160
 3830TIP3    H111454   3.479   6.031   2.066
 3830TIP3    H211455   3.367   6.011   2.167
 3831TIP3   OH211456   1.648   4.831   3.806
 3831TIP3    H111457   1.728   4.884   3.798
 3831TIP3    H211458   1.649   4.775   3.729
 3832TIP3   OH211459   6.148   0.051   5.588
 3832TIP3    H111460   6.142   0.109   5.665
 3832TIP3    H211461   6.220   0.088   5.536
 3833TIP3   OH211462   4.121   2.236   4.937
 3833TIP3    H111463   4.135   2.259   4.845
 3833TIP3    H211464   4.043   2.284   4.963
 3834TIP3   OH211465   3.942   3.431   5.162
 3834TIP3    H111466   4.016   3.415   5.104
 3834TIP3    H211467   3.979   3.434   5.250
 3835TIP3   OH211468   6.847   1.930   5.407
 3835TIP3    H111469   6.783   1.998   5.387
 3835TIP3    H211470   6.900   1.923   5.328
 3836TIP3   OH211471   2.486   3.164   2.408
 3836TIP3    H111472   2.506   3.112   2.330
 3836TIP3    H211473   2.439   3.104   2.466
 3837TIP3   OH211474   5.374   4.053   4.808
 3837TIP3    H111475   5.317   3.981   4.779
 3837TIP3    H211476   5.422   4.016   4.883
 3838TIP3   OH211477   4.976   2.475   4.399
 3838TIP3    H111478   4.959   2.401   4.458
 3838TIP3    H211479   4.891   2.518   4.390
 3839TIP3   OH211480   0.684   4.358   5.311
 3839TIP3    H111481   0.688   4.439   5.260
 3839TIP3    H211482   0.591   4.337   5.314
 3840TIP3   OH211483   2.629   3.428   4.511
 3840TIP3    H111484   2.607   3.448   4.602
 3840TIP3    H211485   2.643   3.513   4.469
 3841TIP3   OH211486   6.103   4.755   0.613
 3841TIP3    H111487   6.016   4.783   0.642
 3841TIP3    H211488   6.125   4.814   0.541
 3842TIP3   OH211489   2.578   0.060   1.233
 3842TIP3    H111490   2.573   0.088   1.324
 3842TIP3    H211491   2.501   0.005   1.220
 3843TIP3   OH211492   7.031   2.825   5.801
 3843TIP3    H111493   6.987   2.814   5.885
 3843TIP3    H211494   6.965   2.802   5.736
 3844TIP3   OH211495   3.906   1.028   1.424
 3844TIP3    H111496   3.835   1.084   1.391
 3844TIP3    H211497   3.893   0.944   1.380
 3845TIP3   OH211498   1.039   1.316   3.328
 3845TIP3    H111499   1.110   1.374   3.303
 3845TIP3    H211500   1.039   1.248   3.261
 3846TIP3   OH211501   7.249   5.321   3.624
 3846TIP3    H111502   7.212   5.408   3.636
 3846TIP3    H211503   7.176   5.261   3.643
 3847TIP3   OH211504   2.399   3.650   0.105
 3847TIP3    H111505   2.342   3.601   0.164
 3847TIP3    H211506   2.396   3.602   0.022
 3848TIP3   OH211507   4.564   4.716   1.393
 3848TIP3    H111508   4.511   4.669   1.329
 3848TIP3    H211509   4.579   4.802   1.354
 3849TIP3   OH211510   5.108   1.021   4.737
 3849TIP3    H111511   5.130   1.070   4.658
 3849TIP3    H211512   5.193   0.998   4.775
 3850TIP3   OH211513   5.481   4.758   4.008
 3850TIP3    H111514   5.534   4.701   4.063
 3850TIP3    H211515   5.453   4.829   4.066
 3851TIP3   OH211516   1.325   4.799   0.105
 3851TIP3    H111517   1.365   4.843   0.030
 3851TIP3    H211518   1.399   4.775   0.161
 3852TIP3   OH211519   5.498   2.941   1.511
 3852TIP3    H111520   5.504   3.036   1.502
 3852TIP3    H211521   5.481   2.926   1.604
 3853TIP3   OH211522   2.607   1.734   0.545
 3853TIP3    H111523   2.522   1.740   0.590
 3853TIP3    H211524   2.621   1.641   0.532
 3854TIP3   OH211525   3.529   4.490   2.184
 3854TIP3    H111526   3.529   4.409   2.236
 3854TIP3    H211527   3.438   4.501   2.157
 3855TIP3   OH211528   2.171   2.358   2.860
 3855TIP3    H111529   2.138   2.438   2.900
 3855TIP3    H211530   2.243   2.331   2.918
 3856TIP3   OH211531   1.158   1.397   0.685
 3856TIP3    H111532   1.203   1.474   0.719
 3856TIP3    H211533   1.228   1.335   0.663
 3857TIP3   OH211534   5.252   3.139   1.883
 3857TIP3    H111535   5.207   3.218   1.854
 3857TIP3    H211536   5.193   3.067   1.859
 3858TIP3   OH211537   4.489   2.903   4.604
 3858TIP3    H111538   4.412   2.869   4.560
 3858TIP3    H211539   4.503   2.844   4.678
 3859TIP3   OH211540   1.794   5.439   4.159
 3859TIP3    H111541   1.793   5.418   4.066
 3859TIP3    H211542   1.868   5.390   4.195
 3860TIP3   OH211543   4.039   6.265   4.756
 3860TIP3    H111544   4.024   6.224   4.841
 3860TIP3    H211545   3.951   6.281   4.722
 3861TIP3   OH211546   3.586   0.768   3.438
 3861TIP3    H111547   3.549   0.856   3.434
 3861TIP3    H211548   3.680   0.781   3.430
 3862TIP3   OH211549   5.521   6.653   0.625
 3862TIP3    H111550   5.579   6.633   0.699
 3862TIP3    H211551   5.524   6.575   0.571
 3863TIP3   OH211552   1.473   4.493   1.308
 3863TIP3    H111553   1.378   4.506   1.319
 3863TIP3    H211554   1.511   4.524   1.390
 3864TIP3   OH211555   6.902   1.894   0.127
 3864TIP3    H111556   6.814   1.859   0.140
 3864TIP3    H211557   6.919   1.884   0.034
 3865TIP3   OH211558   0.558   3.611   3.573
 3865TIP3    H111559   0.559   3.552   3.648
 3865TIP3    H211560   0.500   3.682   3.599
 3866TIP3   OH211561   3.379   2.455   2.966
 3866TIP3    H111562   3.469   2.429   2.985
 3866TIP3    H211563   3.345   2.384   2.912
 3867TIP3   OH211564   5.499   4.828   0.099
 3867TIP3    H111565   5.405   4.836   0.121
 3867TIP3    H211566   5.503   4.840   0.005
 3868TIP3   OH211567   5.741   2.590   3.120
 3868TIP3    H111568   5.663   2.560   3.167
 3868TIP3    H211569   5.736   2.685   3.124
 3869TIP3   OH211570   5.100   4.924   2.129
 3869TIP3    H111571   5.031   4.924   2.195
 3869TIP3    H211572   5.056   4.955   2.049
 3870TIP3   OH211573   5.746   5.576   2.427
 3870TIP3    H111574   5.663   5.532   2.414
 3870TIP3    H211575   5.804   5.541   2.360
 3871TIP3   OH211576   3.453   5.336   3.700
 3871TIP3    H111577   3.498   5.380   3.627
 3871TIP3    H211578   3.511   5.349   3.775
 3872TIP3   OH211579   4.556   2.758   4.858
 3872TIP3    H111580   4.568   2.700   4.932
 3872TIP3    H211581   4.541   2.844   4.897
 3873TIP3   OH211582   2.713   4.546   4.594
 3873TIP3    H111583   2.623   4.513   4.584
 3873TIP3    H211584   2.750   4.493   4.665
 3874TIP3   OH211585   7.059   1.263   0.732
 3874TIP3    H111586   7.069   1.356   0.709
 3874TIP3    H211587   6.966   1.246   0.722
 3875TIP3   OH211588   4.652   4.506   5.885
 3875TIP3    H111589   4.742   4.513   5.854
 3875TIP3    H211590   4.601   4.478   5.809
 3876TIP3   OH211591   1.973   4.722   1.793
 3876TIP3    H111592   2.035   4.768   1.737
 3876TIP3    H211593   1.894   4.776   1.793
 3877TIP3   OH211594   2.427   2.120   2.370
 3877TIP3    H111595   2.458   2.079   2.451
 3877TIP3    H211596   2.424   2.049   2.306
 3878TIP3   OH211597   0.995   5.225   4.179
 3878TIP3    H111598   0.916   5.178   4.206
 3878TIP3    H211599   1.000   5.210   4.084
 3879TIP3   OH211600   6.062   1.668   3.511
 3879TIP3    H111601   6.024   1.674   3.423
 3879TIP3    H211602   6.050   1.576   3.536
 3880TIP3   OH211603   6.987   1.591   3.410
 3880TIP3    H111604   6.928   1.575   3.336
 3880TIP3    H211605   6.935   1.573   3.488
 3881TIP3   OH211606   1.795   2.221   1.539
 3881TIP3    H111607   1.850   2.159   1.587
 3881TIP3    H211608   1.733   2.253   1.605
 3882TIP3   OH211609   3.585   1.224   1.019
 3882TIP3    H111610   3.551   1.273   0.944
 3882TIP3    H211611   3.652   1.281   1.057
 3883TIP3   OH211612   6.035   6.257   1.085
 3883TIP3    H111613   5.940   6.266   1.093
 3883TIP3    H211614   6.069   6.346   1.096
 3884TIP3   OH211615   6.348   0.894   5.564
 3884TIP3    H111616   6.327   0.837   5.637
 3884TIP3    H211617   6.333   0.983   5.597
 3885TIP3   OH211618   6.758   2.132   1.874
 3885TIP3    H111619   6.772   2.044   1.840
 3885TIP3    H211620   6.769   2.124   1.968
 3886TIP3   OH211621   0.499   0.880   4.814
 3886TIP3    H111622   0.472   0.956   4.763
 3886TIP3    H211623   0.580   0.850   4.772
 3887TIP3   OH211624   7.103   0.815   5.700
 3887TIP3    H111625   7.060   0.752   5.757
 3887TIP3    H211626   7.062   0.802   5.614
 3888TIP3   OH211627   6.588   6.647   3.827
 3888TIP3    H111628   6.660   6.589   3.850
 3888TIP3    H211629   6.582   6.708   3.900
 3889TIP3   OH211630   6.045   4.654   5.777
 3889TIP3    H111631   6.024   4.560   5.778
 3889TIP3    H211632   6.120   4.662   5.836
 3890TIP3   OH211633   3.404   4.614   3.565
 3890TIP3    H111634   3.408   4.707   3.589
 3890TIP3    H211635   3.473   4.573   3.616
 3891TIP3   OH211636   3.564   2.051   5.428
 3891TIP3    H111637   3.652   2.027   5.398
 3891TIP3    H211638   3.517   1.968   5.429
 3892TIP3   OH211639   4.199   2.292   3.407
 3892TIP3    H111640   4.203   2.385   3.429
 3892TIP3    H211641   4.175   2.248   3.488
 3893TIP3   OH211642   3.903   0.796   2.891
 3893TIP3    H111643   3.967   0.762   2.828
 3893TIP3    H211644   3.941   0.776   2.976
 3894TIP3   OH211645   5.052   1.113   3.551
 3894TIP3    H111646   5.100   1.158   3.620
 3894TIP3    H211647   5.098   1.031   3.539
 3895TIP3   OH211648   4.472   2.381   3.258
 3895TIP3    H111649   4.476   2.309   3.194
 3895TIP3    H211650   4.530   2.448   3.221
 3896TIP3   OH211651   4.891   4.385   2.482
 3896TIP3    H111652   4.923   4.418   2.565
 3896TIP3    H211653   4.872   4.463   2.430
 3897TIP3   OH211654   2.298   5.623   3.946
 3897TIP3    H111655   2.205   5.615   3.969
 3897TIP3    H211656   2.298   5.644   3.853
 3898TIP3   OH211657   7.064   0.956   4.657
 3898TIP3    H111658   7.072   0.892   4.727
 3898TIP3    H211659   7.118   0.922   4.586
 3899TIP3   OH211660   4.089   1.100   4.793
 3899TIP3    H111661   4.117   1.009   4.799
 3899TIP3    H211662   4.146   1.139   4.727
 3900TIP3   OH211663   3.066   2.055   3.240
 3900TIP3    H111664   3.121   2.015   3.172
 3900TIP3    H211665   3.123   2.060   3.316
 3901TIP3   OH211666   0.203   3.922   0.938
 3901TIP3    H111667   0.217   3.951   0.848
 3901TIP3    H211668   0.172   4.000   0.984
 3902TIP3   OH211669   3.697   1.347   4.040
 3902TIP3    H111670   3.708   1.278   4.105
 3902TIP3    H211671   3.733   1.425   4.081
 3903TIP3   OH211672   5.207   2.713   3.494
 3903TIP3    H111673   5.208   2.806   3.515
 3903TIP3    H211674   5.137   2.704   3.429
 3904TIP3   OH211675   6.265   3.177   2.706
 3904TIP3    H111676   6.323   3.208   2.775
 3904TIP3    H211677   6.303   3.093   2.679
 3905TIP3   OH211678   6.546   4.318   1.555
 3905TIP3    H111679   6.612   4.295   1.620
 3905TIP3    H211680   6.464   4.318   1.604
 3906TIP3   OH211681   1.384   0.902   4.617
 3906TIP3    H111682   1.321   0.834   4.591
 3906TIP3    H211683   1.431   0.864   4.691
 3907TIP3   OH211684   7.063   1.320   2.252
 3907TIP3    H111685   6.979   1.323   2.298
 3907TIP3    H211686   7.044   1.357   2.166
 3908TIP3   OH211687   0.525   3.319   1.597
 3908TIP3    H111688   0.577   3.367   1.533
 3908TIP3    H211689   0.452   3.377   1.618
 3909TIP3   OH211690   4.236   0.369   3.347
 3909TIP3    H111691   4.233   0.369   3.252
 3909TIP3    H211692   4.329   0.359   3.369
 3910TIP3   OH211693   5.065   6.485   3.952
 3910TIP3    H111694   4.975   6.478   3.922
 3910TIP3    H211695   5.060   6.537   4.032
 3911TIP3   OH211696   4.266   2.664   1.463
 3911TIP3    H111697   4.185   2.630   1.501
 3911TIP3    H211698   4.256   2.759   1.468
 3912TIP3   OH211699   5.343   2.349   5.828
 3912TIP3    H111700   5.424   2.299   5.834
 3912TIP3    H211701   5.279   2.298   5.878
 3913TIP3   OH211702   5.019   6.614   3.395
 3913TIP3    H111703   4.988   6.611   3.305
 3913TIP3    H211704   5.115   6.616   3.388
 3914TIP3   OH211705   0.856   6.758   3.759
 3914TIP3    H111706   0.814   6.844   3.766
 3914TIP3    H211707   0.891   6.755   3.670
 3915TIP3   OH211708   3.226   0.685   3.467
 3915TIP3    H111709   3.290   0.616   3.484
 3915TIP3    H211710   3.146   0.638   3.442
 3916TIP3   OH211711   2.063   5.660   2.573
 3916TIP3    H111712   1.971   5.654   2.598
 3916TIP3    H211713   2.109   5.604   2.636
 3917TIP3   OH211714   4.750   4.867   5.207
 3917TIP3    H111715   4.743   4.904   5.119
 3917TIP3    H211716   4.661   4.873   5.242
 3918TIP3   OH211717   2.841   1.138   0.840
 3918TIP3    H111718   2.836   1.226   0.802
 3918TIP3    H211719   2.884   1.151   0.925
 3919TIP3   OH211720   3.088   2.820   0.263
 3919TIP3    H111721   3.142   2.800   0.340
 3919TIP3    H211722   3.133   2.778   0.190
 3920TIP3   OH211723   0.598   1.015   5.546
 3920TIP3    H111724   0.558   0.960   5.479
 3920TIP3    H211725   0.658   1.072   5.498
 3921TIP3   OH211726   1.823   2.792   0.988
 3921TIP3    H111727   1.752   2.735   0.959
 3921TIP3    H211728   1.901   2.758   0.945
 3922TIP3   OH211729   1.259   0.205   5.320
 3922TIP3    H111730   1.320   0.200   5.393
 3922TIP3    H211731   1.199   0.131   5.333
 3923TIP3   OH211732   3.407   2.830   4.971
 3923TIP3    H111733   3.502   2.838   4.962
 3923TIP3    H211734   3.386   2.878   5.051
 3924TIP3   OH211735   6.522   3.642   5.040
 3924TIP3    H111736   6.553   3.682   4.959
 3924TIP3    H211737   6.554   3.552   5.036
 3925TIP3   OH211738   3.718   6.612   5.340
 3925TIP3    H111739   3.707   6.652   5.426
 3925TIP3    H211740   3.703   6.684   5.279
 3926TIP3   OH211741   5.542   3.912   4.231
 3926TIP3    H111742   5.587   3.858   4.165
 3926TIP3    H211743   5.461   3.940   4.188
 3927TIP3   OH211744   7.152   3.192   3.337
 3927TIP3    H111745   7.075   3.195   3.280
 3927TIP3    H211746   7.188   3.280   3.334
 3928TIP3   OH211747   2.812   4.545   4.296
 3928TIP3    H111748   2.785   4.540   4.388
 3928TIP3    H211749   2.847   4.457   4.277
 3929TIP3   OH211750   1.013   2.824   2.937
 3929TIP3    H111751   0.963   2.747   2.966
 3929TIP3    H211752   1.028   2.874   3.017
 3930TIP3   OH211753   5.873   3.873   3.143
 3930TIP3    H111754   5.952   3.920   3.167
 3930TIP3    H211755   5.860   3.894   3.050
 3931TIP3   OH211756   5.578   0.050   0.037
 3931TIP3    H111757   5.527   0.098  -0.028
 3931TIP3    H211758   5.564   0.097   0.119
 3932TIP3   OH211759   2.232   1.116   1.709
 3932TIP3    H111760   2.187   1.196   1.735
 3932TIP3    H211761   2.172   1.073   1.649
 3933TIP3   OH211762   4.540   4.196   5.692
 3933TIP3    H111763   4.606   4.171   5.756
 3933TIP3    H211764   4.586   4.200   5.609
 3934TIP3   OH211765   4.291   0.754   3.871
 3934TIP3    H111766   4.219   0.807   3.904
 3934TIP3    H211767   4.319   0.702   3.946
 3935TIP3   OH211768   2.430   0.502   3.427
 3935TIP3    H111769   2.488   0.538   3.495
 3935TIP3    H211770   2.388   0.579   3.388
 3936TIP3   OH211771   0.634   3.161   4.241
 3936TIP3    H111772   0.647   3.068   4.262
 3936TIP3    H211773   0.613   3.162   4.148
 3937TIP3   OH211774   0.643   6.363   4.829
 3937TIP3    H111775   0.613   6.276   4.804
 3937TIP3    H211776   0.702   6.347   4.903
 3938TIP3   OH211777   2.433   4.597   4.755
 3938TIP3    H111778   2.416   4.658   4.684
 3938TIP3    H211779   2.353   4.547   4.765
 3939TIP3   OH211780   7.197   6.531   3.902
 3939TIP3    H111781   7.140   6.592   3.855
 3939TIP3    H211782   7.138   6.461   3.932
 3940TIP3   OH211783   1.522   2.226   0.818
 3940TIP3    H111784   1.440   2.269   0.842
 3940TIP3    H211785   1.575   2.228   0.898
 3941TIP3   OH211786   0.902   0.508   5.462
 3941TIP3    H111787   0.891   0.531   5.555
 3941TIP3    H211788   0.885   0.414   5.459
 3942TIP3   OH211789   0.556   1.019   1.777
 3942TIP3    H111790   0.609   0.990   1.852
 3942TIP3    H211791   0.579   1.111   1.766
 3943TIP3   OH211792   2.331   0.642   1.639
 3943TIP3    H111793   2.390   0.715   1.655
 3943TIP3    H211794   2.312   0.607   1.726
 3944TIP3   OH211795   0.920   2.535   2.717
 3944TIP3    H111796   0.943   2.470   2.651
 3944TIP3    H211797   0.943   2.619   2.677
 3945TIP3   OH211798   5.708   2.950   4.254
 3945TIP3    H111799   5.800   2.978   4.255
 3945TIP3    H211800   5.665   3.013   4.196
 3946TIP3   OH211801   6.588   6.243   5.664
 3946TIP3    H111802   6.577   6.337   5.650
 3946TIP3    H211803   6.555   6.228   5.752
 3947TIP3   OH211804   0.482   6.521   5.307
 3947TIP3    H111805   0.451   6.485   5.224
 3947TIP3    H211806   0.546   6.457   5.339
 3948TIP3   OH211807   2.114   6.117   5.332
 3948TIP3    H111808   2.155   6.116   5.418
 3948TIP3    H211809   2.072   6.031   5.325
 3949TIP3   OH211810   5.583   5.048   1.245
 3949TIP3    H111811   5.494   5.068   1.215
 3949TIP3    H211812   5.596   4.957   1.222
 3950TIP3   OH211813   5.755   5.515   4.480
 3950TIP3    H111814   5.663   5.542   4.482
 3950TIP3    H211815   5.795   5.559   4.555
 3951TIP3   OH211816   3.679   4.969   1.149
 3951TIP3    H111817   3.735   4.892   1.142
 3951TIP3    H211818   3.739   5.043   1.150
 3952TIP3   OH211819   3.033   6.679   3.969
 3952TIP3    H111820   3.046   6.716   3.882
 3952TIP3    H211821   2.939   6.689   3.985
 3953TIP3   OH211822   1.054   6.057   3.205
 3953TIP3    H111823   1.070   6.094   3.118
 3953TIP3    H211824   0.959   6.046   3.210
 3954TIP3   OH211825   4.587   5.850   4.031
 3954TIP3    H111826   4.527   5.924   4.039
 3954TIP3    H211827   4.531   5.776   4.008
 3955TIP3   OH211828   4.597   6.741   4.184
 3955TIP3    H111829   4.504   6.750   4.162
 3955TIP3    H211830   4.602   6.656   4.228
 3956TIP3   OH211831   0.357   1.116   0.552
 3956TIP3    H111832   0.445   1.123   0.515
 3956TIP3    H211833   0.299   1.144   0.481
 3957TIP3   OH211834   0.607   4.270   4.434
 3957TIP3    H111835   0.597   4.216   4.355
 3957TIP3    H211836   0.644   4.352   4.402
 3958TIP3   OH211837   3.169   1.038   1.823
 3958TIP3    H111838   3.112   0.962   1.813
 3958TIP3    H211839   3.255   1.001   1.845
 3959TIP3   OH211840   3.064   3.820   5.873
 3959TIP3    H111841   3.079   3.832   5.779
 3959TIP3    H211842   3.141   3.773   5.904
 3960TIP3   OH211843   4.602   0.355   5.278
 3960TIP3    H111844   4.675   0.381   5.221
 3960TIP3    H211845   4.637   0.283   5.330
 3961TIP3   OH211846   7.055   2.980   2.365
 3961TIP3    H111847   7.082   2.983   2.457
 3961TIP3    H211848   7.099   3.054   2.324
 3962TIP3   OH211849   3.348   5.006   2.009
 3962TIP3    H111850   3.264   5.046   1.985
 3962TIP3    H211851   3.351   4.925   1.958
 3963TIP3   OH211852   2.577   1.067   3.502
 3963TIP3    H111853   2.626   1.032   3.576
 3963TIP3    H211854   2.638   1.064   3.429
 3964TIP3   OH211855   4.651   5.710   3.428
 3964TIP3    H111856   4.615   5.793   3.460
 3964TIP3    H211857   4.679   5.664   3.508
 3965TIP3   OH211858   3.864   3.921   3.161
 3965TIP3    H111859   3.872   4.017   3.157
 3965TIP3    H211860   3.771   3.905   3.148
 3966TIP3   OH211861   5.441   5.789   0.229
 3966TIP3    H111862   5.364   5.816   0.279
 3966TIP3    H211863   5.506   5.767   0.295
 3967TIP3   OH211864   4.421   3.729   2.323
 3967TIP3    H111865   4.347   3.676   2.352
 3967TIP3    H211866   4.395   3.761   2.237
 3968TIP3   OH211867   2.334   4.725   3.865
 3968TIP3    H111868   2.354   4.766   3.781
 3968TIP3    H211869   2.250   4.681   3.850
 3969TIP3   OH211870   6.806   1.157   0.849
 3969TIP3    H111871   6.716   1.187   0.832
 3969TIP3    H211872   6.830   1.199   0.931
 3970TIP3   OH211873   2.155   1.039   2.807
 3970TIP3    H111874   2.216   1.042   2.734
 3970TIP3    H211875   2.133   1.130   2.824
 3971TIP3   OH211876   5.170   4.398   3.448
 3971TIP3    H111877   5.090   4.450   3.457
 3971TIP3    H211878   5.229   4.434   3.514
 3972TIP3   OH211879   0.054   6.599   4.637
 3972TIP3    H111880   0.101   6.523   4.671
 3972TIP3    H211881   0.124   6.663   4.618
 3973TIP3   OH211882   2.054   0.005   4.567
 3973TIP3    H111883   2.138  -0.024   4.602
 3973TIP3    H211884   2.024   0.072   4.628
 3974TIP3   OH211885   3.796   3.297   5.440
 3974TIP3    H111886   3.776   3.260   5.526
 3974TIP3    H211887   3.716   3.343   5.414
 3975TIP3   OH211888   6.890   5.486   5.334
 3975TIP3    H111889   6.917   5.495   5.242
 3975TIP3    H211890   6.795   5.501   5.332
 3976TIP3   OH211891   7.018   5.462   5.097
 3976TIP3    H111892   7.021   5.414   5.014
 3976TIP3    H211893   7.069   5.409   5.158
 3977TIP3   OH211894   5.859   0.659   3.747
 3977TIP3    H111895   5.893   0.581   3.792
 3977TIP3    H211896   5.846   0.723   3.817
 3978TIP3   OH211897   1.924   3.261   0.803
 3978TIP3    H111898   1.905   3.203   0.877
 3978TIP3    H211899   2.008   3.300   0.824
 3979TIP3   OH211900   6.828   2.006   0.992
 3979TIP3    H111901   6.888   1.937   0.962
 3979TIP3    H211902   6.881   2.086   0.989
 3980TIP3   OH211903   4.546   2.337   0.837
 3980TIP3    H111904   4.634   2.304   0.855
 3980TIP3    H211905   4.507   2.348   0.924
 3981TIP3   OH211906   5.407   4.265   0.102
 3981TIP3    H111907   5.424   4.202   0.032
 3981TIP3    H211908   5.477   4.329   0.095
 3982TIP3   OH211909   6.407   3.720   4.631
 3982TIP3    H111910   6.319   3.748   4.657
 3982TIP3    H211911   6.457   3.802   4.628
 3983TIP3   OH211912   4.321   5.654   3.504
 3983TIP3    H111913   4.319   5.664   3.409
 3983TIP3    H211914   4.409   5.684   3.530
 3984TIP3   OH211915   0.519   6.291   0.113
 3984TIP3    H111916   0.453   6.356   0.089
 3984TIP3    H211917   0.517   6.227   0.042
 3985TIP3   OH211918   0.612   1.055   2.698
 3985TIP3    H111919   0.688   1.100   2.734
 3985TIP3    H211920   0.537   1.102   2.734
 3986TIP3   OH211921   1.053   3.211   2.231
 3986TIP3    H111922   1.075   3.131   2.278
 3986TIP3    H211923   1.099   3.281   2.278
 3987TIP3   OH211924   4.409   1.809   0.087
 3987TIP3    H111925   4.330   1.786   0.038
 3987TIP3    H211926   4.376   1.845   0.169
 3988TIP3   OH211927   4.191   2.707   4.821
 3988TIP3    H111928   4.262   2.683   4.881
 3988TIP3    H211929   4.171   2.798   4.843
 3989TIP3   OH211930   3.285   2.000   0.660
 3989TIP3    H111931   3.229   1.968   0.589
 3989TIP3    H211932   3.224   2.042   0.721
 3990TIP3   OH211933   6.760   5.840   5.431
 3990TIP3    H111934   6.679   5.833   5.382
 3990TIP3    H211935   6.760   5.929   5.466
 3991TIP3   OH211936   5.444   5.032   2.461
 3991TIP3    H111937   5.394   5.098   2.508
 3991TIP3    H211938   5.450   4.958   2.521
 3992TIP3   OH211939   4.724   2.143   1.319
 3992TIP3    H111940   4.662   2.122   1.249
 3992TIP3    H211941   4.801   2.177   1.272
 3993TIP3   OH211942   4.654   1.169   4.113
 3993TIP3    H111943   4.681   1.079   4.128
 3993TIP3    H211944   4.573   1.162   4.063
 3994TIP3   OH211945   3.545   5.787   0.196
 3994TIP3    H111946   3.592   5.834   0.127
 3994TIP3    H211947   3.596   5.707   0.210
 3995TIP3   OH211948   2.730   0.464   1.528
 3995TIP3    H111949   2.720   0.449   1.434
 3995TIP3    H211950   2.808   0.415   1.552
 3996TIP3   OH211951   6.996   1.935   4.024
 3996TIP3    H111952   6.979   2.001   4.092
 3996TIP3    H211953   6.929   1.951   3.958
 3997TIP3   OH211954   2.754   1.087   5.188
 3997TIP3    H111955   2.801   1.121   5.264
 3997TIP3    H211956   2.812   1.106   5.114
 3998TIP3   OH211957   4.354   1.035   5.502
 3998TIP3    H111958   4.297   0.988   5.441
 3998TIP3    H211959   4.379   0.969   5.567
 3999TIP3   OH211960   4.345   3.746   4.003
 3999TIP3    H111961   4.310   3.709   3.923
 3999TIP3    H211962   4.301   3.830   4.013
 4000TIP3   OH211963   5.314   3.986   5.220
 4000TIP3    H111964   5.343   3.971   5.310
 4000TIP3    H211965   5.255   4.062   5.226
 4001TIP3   OH211966   1.698   2.083   5.657
 4001TIP3    H111967   1.681   2.177   5.645
 4001TIP3    H211968   1.746   2.057   5.578
 4002TIP3   OH211969   3.988   5.547   5.743
 4002TIP3    H111970   3.933   5.473   5.767
 4002TIP3    H211971   3.949   5.579   5.661
 4003TIP3   OH211972   5.559   0.390   0.826
 4003TIP3    H111973   5.513   0.437   0.896
 4003TIP3    H211974   5.496   0.387   0.754
 4004TIP3   OH211975   5.252   6.595   0.466
 4004TIP3    H111976   5.330   6.595   0.522
 4004TIP3    H211977   5.186   6.548   0.517
 4005TIP3   OH211978   5.131   4.838   3.965
 4005TIP3    H111979   5.134   4.780   4.042
 4005TIP3    H211980   5.056   4.807   3.915
 4006TIP3   OH211981   4.621   5.047   5.506
 4006TIP3    H111982   4.529   5.021   5.499
 4006TIP3    H211983   4.624   5.105   5.582
 4007TIP3   OH211984   2.183   3.685   5.293
 4007TIP3    H111985   2.095   3.681   5.255
 4007TIP3    H211986   2.169   3.709   5.384
 4008TIP3   OH211987   2.175   2.443   1.578
 4008TIP3    H111988   2.194   2.355   1.609
 4008TIP3    H211989   2.175   2.497   1.657
 4009TIP3   OH211990   4.867   0.948   1.000
 4009TIP3    H111991   4.874   1.040   0.974
 4009TIP3    H211992   4.909   0.945   1.086
 4010TIP3   OH211993   1.751   0.553   1.779
 4010TIP3    H111994   1.829   0.601   1.806
 4010TIP3    H211995   1.739   0.486   1.846
 4011TIP3   OH211996   4.305   6.150   0.827
 4011TIP3    H111997   4.228   6.178   0.778
 4011TIP3    H211998   4.289   6.180   0.917
 4012TIP3   OH211999   6.487   4.726   4.273
 4012TIP3    H112000   6.435   4.715   4.352
 4012TIP3    H212001   6.443   4.672   4.207
 4013TIP3   OH212002   2.520   5.521   3.702
 4013TIP3    H112003   2.475   5.467   3.766
 4013TIP3    H212004   2.457   5.588   3.678
 4014TIP3   OH212005   3.845   2.548   5.248
 4014TIP3    H112006   3.867   2.640   5.230
 4014TIP3    H212007   3.758   2.536   5.211
 4015TIP3   OH212008   1.365   2.682   0.704
 4015TIP3    H112009   1.302   2.626   0.750
 4015TIP3    H212010   1.442   2.626   0.692
 4016TIP3   OH212011   2.716   4.715   3.189
 4016TIP3    H112012   2.733   4.666   3.269
 4016TIP3    H212013   2.758   4.800   3.203
 4017TIP3   OH212014   2.862   3.127   1.096
 4017TIP3    H112015   2.956   3.131   1.078
 4017TIP3    H212016   2.821   3.178   1.026
 4018TIP3   OH212017   1.058   0.840   0.862
 4018TIP3    H112018   1.040   0.906   0.795
 4018TIP3    H212019   1.113   0.775   0.819
 4019TIP3   OH212020   5.024   5.426   3.064
 4019TIP3    H112021   5.066   5.360   3.119
 4019TIP3    H212022   5.006   5.381   2.982
 4020TIP3   OH212023   1.452   5.781   2.000
 4020TIP3    H112024   1.482   5.799   2.089
 4020TIP3    H212025   1.364   5.745   2.012
 4021TIP3   OH212026   2.874   2.285   4.673
 4021TIP3    H112027   2.834   2.268   4.588
 4021TIP3    H212028   2.905   2.376   4.667
 4022TIP3   OH212029   5.952   0.573   1.778
 4022TIP3    H112030   6.028   0.608   1.825
 4022TIP3    H212031   5.990   0.525   1.704
 4023TIP3   OH212032   4.702   4.813   5.890
 4023TIP3    H112033   4.614   4.792   5.857
 4023TIP3    H212034   4.750   4.843   5.813
 4024TIP3   OH212035   5.696   1.593   4.794
 4024TIP3    H112036   5.783   1.556   4.809
 4024TIP3    H212037   5.653   1.531   4.735
 4025TIP3   OH212038   2.457   4.541   2.409
 4025TIP3    H112039   2.390   4.579   2.352
 4025TIP3    H212040   2.415   4.533   2.494
 4026TIP3   OH212041   3.374   6.841   2.379
 4026TIP3    H112042   3.279   6.851   2.370
 4026TIP3    H212043   3.399   6.787   2.304
 4027TIP3   OH212044   2.048   2.241   5.539
 4027TIP3    H112045   1.993   2.193   5.476
 4027TIP3    H212046   2.106   2.174   5.576
 4028TIP3   OH212047   1.837   4.081   3.437
 4028TIP3    H112048   1.756   4.108   3.394
 4028TIP3    H212049   1.810   4.009   3.494
 4029TIP3   OH212050   6.683   2.350   4.073
 4029TIP3    H112051   6.660   2.293   4.146
 4029TIP3    H212052   6.722   2.291   4.008
 4030TIP3   OH212053   2.180   4.858   0.343
 4030TIP3    H112054   2.101   4.855   0.289
 4030TIP3    H212055   2.239   4.794   0.302
 4031TIP3   OH212056   5.444   3.397   5.889
 4031TIP3    H112057   5.460   3.490   5.872
 4031TIP3    H212058   5.531   3.358   5.889
 4032TIP3   OH212059   1.265   0.037   4.976
 4032TIP3    H112060   1.270   0.043   5.072
 4032TIP3    H212061   1.202   0.105   4.951
 4033TIP3   OH212062   5.168   4.164   0.690
 4033TIP3    H112063   5.226   4.088   0.684
 4033TIP3    H212064   5.187   4.202   0.775
 4034TIP3   OH212065   2.126   1.338   1.835
 4034TIP3    H112066   2.153   1.299   1.918
 4034TIP3    H212067   2.185   1.412   1.823
 4035TIP3   OH212068   2.489   4.785   3.339
 4035TIP3    H112069   2.539   4.803   3.260
 4035TIP3    H212070   2.414   4.734   3.310
 4036TIP3   OH212071   0.822   5.295   2.602
 4036TIP3    H112072   0.727   5.287   2.593
 4036TIP3    H212073   0.837   5.388   2.619
 4037TIP3   OH212074   6.650   6.059   3.435
 4037TIP3    H112075   6.699   6.069   3.353
 4037TIP3    H212076   6.664   5.968   3.460
 4038TIP3   OH212077   1.236   3.247   3.863
 4038TIP3    H112078   1.164   3.307   3.884
 4038TIP3    H212079   1.300   3.262   3.933
 4039TIP3   OH212080   7.061   5.521   0.838
 4039TIP3    H112081   7.085   5.544   0.748
 4039TIP3    H212082   7.096   5.432   0.850
 4040TIP3   OH212083   3.131   2.043   4.450
 4040TIP3    H112084   3.090   2.012   4.531
 4040TIP3    H212085   3.152   2.135   4.467
 4041TIP3   OH212086   5.399   2.327   1.771
 4041TIP3    H112087   5.318   2.345   1.820
 4041TIP3    H212088   5.413   2.233   1.783
 4042TIP3   OH212089   3.101   2.339   0.011
 4042TIP3    H112090   3.176   2.381  -0.031
 4042TIP3    H212091   3.103   2.372   0.101
 4043TIP3   OH212092   2.857   2.827   1.919
 4043TIP3    H112093   2.812   2.760   1.971
 4043TIP3    H212094   2.948   2.798   1.917
 4044TIP3   OH212095   0.321   0.104   3.237
 4044TIP3    H112096   0.362   0.104   3.324
 4044TIP3    H212097   0.354   0.184   3.195
 4045TIP3   OH212098   1.043   3.923   0.105
 4045TIP3    H112099   1.078   3.973   0.179
 4045TIP3    H212100   0.964   3.881   0.140
 4046TIP3   OH212101   0.105   1.487   4.145
 4046TIP3    H112102   0.034   1.507   4.206
 4046TIP3    H212103   0.089   1.544   4.070
 4047TIP3   OH212104   1.788   5.652   2.294
 4047TIP3    H112105   1.818   5.601   2.219
 4047TIP3    H212106   1.836   5.735   2.287
 4048TIP3   OH212107   6.741   2.249   0.501
 4048TIP3    H112108   6.647   2.257   0.482
 4048TIP3    H212109   6.745   2.219   0.592
 4049TIP3   OH212110   0.300   2.999   4.833
 4049TIP3    H112111   0.332   3.060   4.900
 4049TIP3    H212112   0.370   2.934   4.824
 4050TIP3   OH212113   6.432   4.989   3.257
 4050TIP3    H112114   6.526   4.978   3.243
 4050TIP3    H212115   6.426   5.041   3.337
 4051TIP3   OH212116   4.166   3.341   0.127
 4051TIP3    H112117   4.161   3.337   0.032
 4051TIP3    H212118   4.129   3.426   0.150
 4052TIP3   OH212119   1.568   2.643   2.826
 4052TIP3    H112120   1.502   2.597   2.878
 4052TIP3    H212121   1.650   2.629   2.874
 4053TIP3   OH212122   1.275   1.659   5.486
 4053TIP3    H112123   1.244   1.596   5.551
 4053TIP3    H212124   1.262   1.744   5.527
 4054TIP3   OH212125   3.793   5.513   4.725
 4054TIP3    H112126   3.742   5.516   4.644
 4054TIP3    H212127   3.803   5.605   4.751
 4055TIP3   OH212128   6.216   0.307   0.752
 4055TIP3    H112129   6.244   0.365   0.681
 4055TIP3    H212130   6.282   0.320   0.821
 4056TIP3   OH212131   5.135   2.869   1.508
 4056TIP3    H112132   5.045   2.838   1.515
 4056TIP3    H212133   5.129   2.948   1.454
 4057TIP3   OH212134   2.961   2.248   1.133
 4057TIP3    H112135   2.982   2.324   1.188
 4057TIP3    H212136   2.939   2.179   1.195
 4058TIP3   OH212137   2.178   0.082   3.942
 4058TIP3    H112138   2.211   0.007   3.893
 4058TIP3    H212139   2.253   0.113   3.993
 4059TIP3   OH212140   5.193   6.724   4.979
 4059TIP3    H112141   5.158   6.813   4.984
 4059TIP3    H212142   5.165   6.692   4.893
 4060TIP3   OH212143   0.235   0.997   4.156
 4060TIP3    H112144   0.216   1.091   4.155
 4060TIP3    H212145   0.279   0.980   4.073
 4061TIP3   OH212146   0.447   6.449   3.620
 4061TIP3    H112147   0.426   6.405   3.537
 4061TIP3    H212148   0.438   6.380   3.686
 4062TIP3   OH212149   3.303   4.375   2.703
 4062TIP3    H112150   3.320   4.299   2.647
 4062TIP3    H212151   3.207   4.383   2.703
 4063TIP3   OH212152   4.438   3.588   4.231
 4063TIP3    H112153   4.403   3.499   4.225
 4063TIP3    H212154   4.430   3.623   4.142
 4064TIP3   OH212155   2.438   5.667   5.410
 4064TIP3    H112156   2.396   5.741   5.365
 4064TIP3    H212157   2.461   5.606   5.339
 4065TIP3   OH212158   5.393   0.114   4.621
 4065TIP3    H112159   5.402   0.203   4.656
 4065TIP3    H212160   5.419   0.122   4.529
 4066TIP3   OH212161   3.014   5.248   2.019
 4066TIP3    H112162   2.927   5.245   2.059
 4066TIP3    H212163   2.998   5.284   1.931
 4067TIP3   OH212164   1.609   6.188   5.667
 4067TIP3    H112165   1.682   6.127   5.659
 4067TIP3    H212166   1.646   6.274   5.645
 4068TIP3   OH212167   4.094   4.613   5.311
 4068TIP3    H112168   4.097   4.672   5.236
 4068TIP3    H212169   4.016   4.559   5.296
 4069TIP3   OH212170   1.668   5.840   5.796
 4069TIP3    H112171   1.666   5.769   5.732
 4069TIP3    H212172   1.576   5.866   5.805
 4070TIP3   OH212173   4.092   5.196   0.523
 4070TIP3    H112174   4.043   5.129   0.474
 4070TIP3    H212175   4.040   5.276   0.513
 4071TIP3   OH212176   6.640   6.287   2.530
 4071TIP3    H112177   6.667   6.378   2.543
 4071TIP3    H212178   6.629   6.252   2.619
 4072TIP3   OH212179   1.992   1.425   5.433
 4072TIP3    H112180   2.071   1.448   5.483
 4072TIP3    H212181   1.947   1.508   5.418
 4073TIP3   OH212182   4.330   5.312   0.761
 4073TIP3    H112183   4.258   5.351   0.712
 4073TIP3    H212184   4.407   5.326   0.705
 4074TIP3   OH212185   4.042   2.208   4.393
 4074TIP3    H112186   4.053   2.232   4.485
 4074TIP3    H212187   4.006   2.287   4.352
 4075TIP3   OH212188   2.054   5.118   0.502
 4075TIP3    H112189   2.146   5.101   0.525
 4075TIP3    H212190   2.052   5.210   0.479
 4076TIP3   OH212191   4.929   5.663   0.370
 4076TIP3    H112192   4.883   5.583   0.343
 4076TIP3    H212193   5.021   5.637   0.371
 4077TIP3   OH212194   6.578   4.712   0.571
 4077TIP3    H112195   6.647   4.778   0.578
 4077TIP3    H212196   6.607   4.641   0.628
 4078TIP3   OH212197   5.022   5.498   0.030
 4078TIP3    H112198   4.970   5.572  -0.001
 4078TIP3    H212199   5.109   5.535   0.046
 4079TIP3   OH212200   6.435   2.119   5.061
 4079TIP3    H112201   6.415   2.143   5.151
 4079TIP3    H212202   6.354   2.082   5.027
 4080TIP3   OH212203   6.619   0.074   0.904
 4080TIP3    H112204   6.525   0.062   0.891
 4080TIP3    H212205   6.649  -0.009   0.944
 4081TIP3   OH212206   2.170   5.586   1.288
 4081TIP3    H112207   2.083   5.570   1.324
 4081TIP3    H212208   2.165   5.674   1.251
 4082TIP3   OH212209   6.945   3.376   4.090
 4082TIP3    H112210   6.888   3.427   4.148
 4082TIP3    H212211   6.931   3.414   4.004
 4083TIP3   OH212212   6.711   5.572   3.942
 4083TIP3    H112213   6.675   5.488   3.971
 4083TIP3    H212214   6.792   5.582   3.991
 4084TIP3   OH212215   3.222   0.403   3.149
 4084TIP3    H112216   3.241   0.457   3.073
 4084TIP3    H212217   3.128   0.409   3.161
 4085TIP3   OH212218   4.832   0.140   1.154
 4085TIP3    H112219   4.749   0.169   1.191
 4085TIP3    H212220   4.896   0.204   1.186
 4086TIP3   OH212221   1.371   4.454   4.828
 4086TIP3    H112222   1.409   4.371   4.800
 4086TIP3    H212223   1.366   4.507   4.748
 4087TIP3   OH212224   4.121   5.670   5.102
 4087TIP3    H112225   4.094   5.733   5.036
 4087TIP3    H212226   4.117   5.719   5.184
 4088TIP3   OH212227   5.759   6.472   3.988
 4088TIP3    H112228   5.772   6.388   3.944
 4088TIP3    H212229   5.844   6.494   4.024
 4089TIP3   OH212230   0.532   1.645   0.336
 4089TIP3    H112231   0.458   1.613   0.284
 4089TIP3    H212232   0.501   1.725   0.377
 4090TIP3   OH212233   3.550   4.243   5.354
 4090TIP3    H112234   3.558   4.256   5.448
 4090TIP3    H212235   3.552   4.331   5.317
 4091TIP3   OH212236   1.178   6.135   1.230
 4091TIP3    H112237   1.180   6.227   1.203
 4091TIP3    H212238   1.246   6.128   1.297
 4092TIP3   OH212239   4.504   4.258   2.765
 4092TIP3    H112240   4.482   4.312   2.689
 4092TIP3    H212241   4.590   4.221   2.744
 4093TIP3   OH212242   0.015   4.458   0.781
 4093TIP3    H112243   0.005   4.387   0.717
 4093TIP3    H212244  -0.026   4.534   0.740
 4094TIP3   OH212245   0.375   4.490   1.888
 4094TIP3    H112246   0.392   4.571   1.841
 4094TIP3    H212247   0.406   4.421   1.829
 4095TIP3   OH212248   3.150   5.434   1.098
 4095TIP3    H112249   3.187   5.441   1.186
 4095TIP3    H212250   3.101   5.516   1.086
 4096TIP3   OH212251   1.212   0.526   1.695
 4096TIP3    H112252   1.294   0.498   1.654
 4096TIP3    H212253   1.238   0.560   1.781
 4097TIP3   OH212254   2.964   0.496   2.700
 4097TIP3    H112255   2.956   0.564   2.633
 4097TIP3    H212256   3.022   0.431   2.660
 4098TIP3   OH212257   2.375   4.846   1.352
 4098TIP3    H112258   2.349   4.763   1.392
 4098TIP3    H212259   2.425   4.891   1.419
 4099TIP3   OH212260   5.614   0.238   1.192
 4099TIP3    H112261   5.656   0.216   1.275
 4099TIP3    H212262   5.570   0.158   1.165
 4100TIP3   OH212263   3.307   3.907   0.871
 4100TIP3    H112264   3.248   3.898   0.795
 4100TIP3    H212265   3.357   3.825   0.872
 4101TIP3   OH212266   1.478   6.226   0.674
 4101TIP3    H112267   1.548   6.257   0.617
 4101TIP3    H212268   1.523   6.189   0.750
 4102TIP3   OH212269   1.228   0.281   0.682
 4102TIP3    H112270   1.279   0.233   0.617
 4102TIP3    H212271   1.149   0.228   0.694
 4103TIP3   OH212272   4.968   3.809   2.073
 4103TIP3    H112273   4.972   3.837   2.165
 4103TIP3    H212274   5.014   3.877   2.025
 4104TIP3   OH212275   6.848   2.141   5.238
 4104TIP3    H112276   6.795   2.212   5.202
 4104TIP3    H212277   6.939   2.169   5.225
 4105TIP3   OH212278   6.280   4.722   3.816
 4105TIP3    H112279   6.190   4.702   3.789
 4105TIP3    H212280   6.281   4.706   3.910
 4106TIP3   OH212281   0.240   0.904   0.200
 4106TIP3    H112282   0.240   0.813   0.173
 4106TIP3    H212283   0.329   0.920   0.231
 4107TIP3   OH212284   5.493   5.577   4.452
 4107TIP3    H112285   5.456   5.555   4.366
 4107TIP3    H212286   5.448   5.657   4.478
 4108TIP3   OH212287   6.809   1.357   4.234
 4108TIP3    H112288   6.899   1.376   4.260
 4108TIP3    H212289   6.812   1.269   4.197
 4109TIP3   OH212290   4.499   0.979   3.061
 4109TIP3    H112291   4.502   0.886   3.084
 4109TIP3    H212292   4.450   0.981   2.978
 4110TIP3   OH212293   6.022   5.967   4.732
 4110TIP3    H112294   5.969   5.901   4.688
 4110TIP3    H212295   6.085   5.917   4.784
 4111TIP3   OH212296   1.610   0.668   1.258
 4111TIP3    H112297   1.633   0.588   1.209
 4111TIP3    H212298   1.634   0.648   1.348
 4112TIP3   OH212299   3.169   3.400   0.700
 4112TIP3    H112300   3.211   3.393   0.785
 4112TIP3    H212301   3.242   3.411   0.638
 4113TIP3   OH212302   6.547   5.435   2.621
 4113TIP3    H112303   6.540   5.359   2.679
 4113TIP3    H212304   6.640   5.459   2.624
 4114TIP3   OH212305   0.462   0.689   3.847
 4114TIP3    H112306   0.487   0.607   3.889
 4114TIP3    H212307   0.442   0.664   3.757
 4115TIP3   OH212308   5.186   0.124   3.410
 4115TIP3    H112309   5.198   0.212   3.376
 4115TIP3    H212310   5.096   0.122   3.441
 4116TIP3   OH212311   2.867   6.155   2.118
 4116TIP3    H112312   2.882   6.078   2.172
 4116TIP3    H212313   2.825   6.218   2.177
 4117TIP3   OH212314   0.585   5.147   4.933
 4117TIP3    H112315   0.576   5.098   4.851
 4117TIP3    H212316   0.661   5.108   4.976
 4118TIP3   OH212317   5.006   4.244   2.222
 4118TIP3    H112318   4.977   4.327   2.183
 4118TIP3    H212319   5.092   4.263   2.259
 4119TIP3   OH212320   6.055   6.218   2.030
 4119TIP3    H112321   5.969   6.230   2.069
 4119TIP3    H212322   6.108   6.178   2.099
 4120TIP3   OH212323   2.253   0.031   3.385
 4120TIP3    H112324   2.209   0.052   3.468
 4120TIP3    H212325   2.181   0.021   3.322
 4121TIP3   OH212326   2.279   3.308   1.088
 4121TIP3    H112327   2.254   3.216   1.098
 4121TIP3    H212328   2.372   3.306   1.067
 4122TIP3   OH212329   2.868   3.907   2.667
 4122TIP3    H112330   2.909   3.887   2.751
 4122TIP3    H212331   2.778   3.878   2.677
 4123TIP3   OH212332   4.917   6.460   2.622
 4123TIP3    H112333   4.965   6.526   2.671
 4123TIP3    H212334   4.941   6.477   2.530
 4124TIP3   OH212335   1.385   1.129   1.264
 4124TIP3    H112336   1.381   1.042   1.224
 4124TIP3    H212337   1.293   1.154   1.275
 4125TIP3   OH212338   6.660   1.539   4.603
 4125TIP3    H112339   6.745   1.500   4.582
 4125TIP3    H212340   6.660   1.624   4.559
 4126TIP3   OH212341   3.358   6.697   0.210
 4126TIP3    H112342   3.411   6.776   0.217
 4126TIP3    H212343   3.271   6.724   0.240
 4127TIP3   OH212344   5.627   4.311   1.519
 4127TIP3    H112345   5.682   4.234   1.501
 4127TIP3    H212346   5.556   4.277   1.574
 4128TIP3   OH212347   2.666   4.306   5.609
 4128TIP3    H112348   2.571   4.295   5.604
 4128TIP3    H212349   2.679   4.399   5.623
 4129TIP3   OH212350   3.130   4.852   3.794
 4129TIP3    H112351   3.222   4.835   3.777
 4129TIP3    H212352   3.091   4.866   3.707
 4130TIP3   OH212353   5.517   4.576   5.158
 4130TIP3    H112354   5.560   4.500   5.197
 4130TIP3    H212355   5.454   4.539   5.097
 4131TIP3   OH212356   1.282   6.402   2.606
 4131TIP3    H112357   1.238   6.410   2.521
 4131TIP3    H212358   1.296   6.493   2.634
 4132TIP3   OH212359   4.660   4.671   4.819
 4132TIP3    H112360   4.614   4.688   4.737
 4132TIP3    H212361   4.606   4.604   4.863
 4133TIP3   OH212362   5.037   3.369   1.861
 4133TIP3    H112363   5.020   3.447   1.914
 4133TIP3    H212364   5.026   3.296   1.922
 4134TIP3   OH212365   5.654   0.462   0.208
 4134TIP3    H112366   5.619   0.458   0.297
 4134TIP3    H212367   5.690   0.550   0.199
 4135TIP3   OH212368   2.257   5.933   3.757
 4135TIP3    H112369   2.298   6.019   3.768
 4135TIP3    H212370   2.175   5.950   3.712
 4136TIP3   OH212371   5.506   1.847   1.952
 4136TIP3    H112372   5.437   1.814   1.895
 4136TIP3    H212373   5.534   1.771   2.002
 4137TIP3   OH212374   0.800   6.523   1.253
 4137TIP3    H112375   0.828   6.593   1.312
 4137TIP3    H212376   0.841   6.444   1.289
 4138TIP3   OH212377   0.692   2.943   5.295
 4138TIP3    H112378   0.752   2.870   5.309
 4138TIP3    H212379   0.749   3.020   5.295
 4139TIP3   OH212380   2.422   2.175   0.947
 4139TIP3    H112381   2.343   2.217   0.981
 4139TIP3    H212382   2.411   2.083   0.968
 4140TIP3   OH212383   2.034   6.004   3.602
 4140TIP3    H112384   1.965   6.007   3.669
 4140TIP3    H212385   2.030   5.915   3.567
 4141TIP3   OH212386   2.715   5.491   4.185
 4141TIP3    H112387   2.728   5.452   4.272
 4141TIP3    H212388   2.652   5.433   4.142
 4142TIP3   OH212389   3.932   3.284   2.048
 4142TIP3    H112390   3.954   3.339   2.124
 4142TIP3    H212391   3.841   3.305   2.029
 4143TIP3   OH212392   3.098   2.549   2.664
 4143TIP3    H112393   3.023   2.585   2.710
 4143TIP3    H212394   3.089   2.454   2.674
 4144TIP3   OH212395   5.091   4.839   3.296
 4144TIP3    H112396   5.148   4.856   3.221
 4144TIP3    H212397   5.147   4.794   3.359
 4145TIP3   OH212398   5.557   4.836   4.683
 4145TIP3    H112399   5.633   4.780   4.703
 4145TIP3    H212400   5.560   4.905   4.749
 4146TIP3   OH212401   5.769   2.277   4.767
 4146TIP3    H112402   5.722   2.256   4.847
 4146TIP3    H212403   5.720   2.350   4.728
 4147TIP3   OH212404   5.305   0.261   3.640
 4147TIP3    H112405   5.315   0.276   3.546
 4147TIP3    H212406   5.211   0.248   3.652
 4148TIP3   OH212407   5.729   5.861   1.433
 4148TIP3    H112408   5.819   5.831   1.443
 4148TIP3    H212409   5.734   5.956   1.441
 4149TIP3   OH212410   4.461   6.599  -0.009
 4149TIP3    H112411   4.537   6.656  -0.018
 4149TIP3    H212412   4.496   6.519   0.029
 4150TIP3   OH212413   0.095   6.615   5.019
 4150TIP3    H112414   0.025   6.675   4.995
 4150TIP3    H212415   0.174   6.653   4.981
 4151TIP3   OH212416   6.403   6.736   0.585
 4151TIP3    H112417   6.413   6.798   0.513
 4151TIP3    H212418   6.487   6.691   0.590
 4152TIP3   OH212419   5.946   4.357   0.719
 4152TIP3    H112420   6.017   4.422   0.717
 4152TIP3    H212421   5.893   4.377   0.643
 4153TIP3   OH212422   4.294   2.077   5.914
 4153TIP3    H112423   4.216   2.108   5.960
 4153TIP3    H212424   4.283   2.108   5.824
 4154TIP3   OH212425   4.046   0.579   5.110
 4154TIP3    H112426   3.982   0.540   5.170
 4154TIP3    H212427   4.096   0.640   5.165
 4155TIP3   OH212428   6.412   5.099   5.120
 4155TIP3    H112429   6.340   5.141   5.073
 4155TIP3    H212430   6.380   5.088   5.209
 4156TIP3   OH212431   2.903   3.648   4.184
 4156TIP3    H112432   2.933   3.730   4.144
 4156TIP3    H212433   2.969   3.629   4.251
 4157TIP3   OH212434   5.773   3.877   3.423
 4157TIP3    H112435   5.826   3.957   3.430
 4157TIP3    H212436   5.777   3.853   3.331
 4158TIP3   OH212437   1.976   4.545   3.277
 4158TIP3    H112438   1.970   4.453   3.301
 4158TIP3    H212439   2.060   4.574   3.311
 4159TIP3   OH212440   4.895   3.056   1.672
 4159TIP3    H112441   4.875   3.138   1.625
 4159TIP3    H212442   4.818   3.040   1.726
 4160TIP3   OH212443   2.779   1.162   1.478
 4160TIP3    H112444   2.691   1.135   1.507
 4160TIP3    H212445   2.776   1.258   1.482
 4161TIP3   OH212446   6.984   4.862   5.224
 4161TIP3    H112447   7.043   4.937   5.232
 4161TIP3    H212448   6.944   4.872   5.137
 4162TIP3   OH212449   4.865   1.748   3.425
 4162TIP3    H112450   4.932   1.816   3.425
 4162TIP3    H212451   4.914   1.666   3.412
 4163TIP3   OH212452   5.029   2.518   5.787
 4163TIP3    H112453   4.992   2.430   5.775
 4163TIP3    H212454   4.978   2.556   5.859
 4164TIP3   OH212455   1.812   4.671   0.665
 4164TIP3    H112456   1.801   4.757   0.706
 4164TIP3    H212457   1.897   4.676   0.621
 4165TIP3   OH212458   5.056   0.117   2.234
 4165TIP3    H112459   5.150   0.135   2.244
 4165TIP3    H212460   5.053   0.033   2.188
 4166TIP3   OH212461   3.595   2.868   4.649
 4166TIP3    H112462   3.581   2.809   4.576
 4166TIP3    H212463   3.572   2.954   4.616
 4167TIP3   OH212464   3.568   5.252   4.677
 4167TIP3    H112465   3.539   5.291   4.760
 4167TIP3    H212466   3.610   5.170   4.702
 4168TIP3   OH212467   1.842   0.155   3.094
 4168TIP3    H112468   1.830   0.214   3.019
 4168TIP3    H212469   1.918   0.102   3.070
 4169TIP3   OH212470   1.398   2.961   0.466
 4169TIP3    H112471   1.478   2.909   0.463
 4169TIP3    H212472   1.379   2.970   0.559
 4170TIP3   OH212473   5.687   3.206   5.647
 4170TIP3    H112474   5.752   3.218   5.578
 4170TIP3    H212475   5.668   3.112   5.647
 4171TIP3   OH212476   2.276   6.227   2.373
 4171TIP3    H112477   2.268   6.246   2.466
 4171TIP3    H212478   2.258   6.311   2.330
 4172TIP3   OH212479   0.758   0.803   1.629
 4172TIP3    H112480   0.844   0.841   1.612
 4172TIP3    H212481   0.726   0.777   1.542
 4173TIP3   OH212482   6.656   0.747   3.010
 4173TIP3    H112483   6.710   0.690   3.064
 4173TIP3    H212484   6.569   0.742   3.050
 4174TIP3   OH212485   4.489   0.993   5.127
 4174TIP3    H112486   4.539   1.047   5.188
 4174TIP3    H212487   4.461   1.054   5.058
 4175TIP3   OH212488   4.584   0.390   2.976
 4175TIP3    H112489   4.502   0.341   2.971
 4175TIP3    H212490   4.583   0.447   2.899
 4176TIP3   OH212491   5.922   6.566   1.439
 4176TIP3    H112492   5.965   6.555   1.353
 4176TIP3    H212493   5.844   6.618   1.420
 4177TIP3   OH212494   1.050   0.875   1.563
 4177TIP3    H112495   1.125   0.816   1.561
 4177TIP3    H212496   1.078   0.947   1.619
 4178TIP3   OH212497   5.852   3.043   1.559
 4178TIP3    H112498   5.854   2.951   1.586
 4178TIP3    H212499   5.838   3.040   1.464
 4179TIP3   OH212500   6.632   4.018   1.803
 4179TIP3    H112501   6.680   4.023   1.720
 4179TIP3    H212502   6.563   3.953   1.787
 4180TIP3   OH212503   6.875   4.540   1.879
 4180TIP3    H112504   6.911   4.594   1.950
 4180TIP3    H212505   6.785   4.522   1.906
 4181TIP3   OH212506   2.296   6.311   4.299
 4181TIP3    H112507   2.261   6.392   4.261
 4181TIP3    H212508   2.311   6.254   4.224
 4182TIP3   OH212509   3.724   0.072   1.389
 4182TIP3    H112510   3.716   0.010   1.317
 4182TIP3    H212511   3.794   0.037   1.445
 4183TIP3   OH212512   0.746   3.235   5.308
 4183TIP3    H112513   0.802   3.285   5.249
 4183TIP3    H212514   0.761   3.275   5.394
 4184TIP3   OH212515   5.317   2.870   2.263
 4184TIP3    H112516   5.369   2.950   2.254
 4184TIP3    H212517   5.377   2.806   2.300
 4185TIP3   OH212518   5.800   2.940   2.307
 4185TIP3    H112519   5.857   2.953   2.382
 4185TIP3    H212520   5.788   3.027   2.270
 4186TIP3   OH212521   5.078   3.509   3.939
 4186TIP3    H112522   5.081   3.442   4.007
 4186TIP3    H212523   5.148   3.485   3.878
 4187TIP3   OH212524   5.602   3.209   1.537
 4187TIP3    H112525   5.660   3.194   1.462
 4187TIP3    H212526   5.569   3.298   1.524
 4188TIP3   OH212527   6.516   5.510   3.203
 4188TIP3    H112528   6.456   5.473   3.268
 4188TIP3    H212529   6.465   5.515   3.123
 4189TIP3   OH212530   4.700   4.181   2.278
 4189TIP3    H112531   4.795   4.189   2.279
 4189TIP3    H212532   4.683   4.102   2.226
 4190TIP3   OH212533   0.113   0.891   2.394
 4190TIP3    H112534   0.108   0.815   2.452
 4190TIP3    H212535   0.123   0.966   2.454
 4191TIP3   OH212536   5.343   1.359   0.454
 4191TIP3    H112537   5.412   1.400   0.506
 4191TIP3    H212538   5.262   1.374   0.504
 4192TIP3   OH212539   2.190   2.444   1.286
 4192TIP3    H112540   2.206   2.463   1.379
 4192TIP3    H212541   2.099   2.469   1.272
 4193TIP3   OH212542   5.517   3.671   5.875
 4193TIP3    H112543   5.478   3.719   5.802
 4193TIP3    H212544   5.610   3.666   5.854
 4194TIP3   OH212545   0.707   2.379   3.090
 4194TIP3    H112546   0.771   2.369   3.161
 4194TIP3    H212547   0.624   2.354   3.130
 4195TIP3   OH212548   2.846   5.022   4.030
 4195TIP3    H112549   2.823   4.933   4.058
 4195TIP3    H212550   2.810   5.029   3.942
 4196TIP3   OH212551   6.972   1.968   3.666
 4196TIP3    H112552   6.947   1.875   3.662
 4196TIP3    H212553   7.066   1.968   3.649
 4197TIP3   OH212554   7.016   1.570   5.456
 4197TIP3    H112555   7.106   1.540   5.447
 4197TIP3    H212556   6.982   1.573   5.367
 4198TIP3   OH212557   1.820   4.757   5.630
 4198TIP3    H112558   1.780   4.734   5.546
 4198TIP3    H212559   1.914   4.752   5.614
 4199TIP3   OH212560   6.361   1.517   0.175
 4199TIP3    H112561   6.454   1.537   0.189
 4199TIP3    H212562   6.329   1.491   0.261
 4200TIP3   OH212563   2.306   1.654   1.212
 4200TIP3    H112564   2.329   1.561   1.211
 4200TIP3    H212565   2.385   1.698   1.181
 4201TIP3   OH212566   6.173   5.302   5.690
 4201TIP3    H112567   6.268   5.299   5.704
 4201TIP3    H212568   6.139   5.349   5.766
 4202TIP3   OH212569   4.236   6.656   0.561
 4202TIP3    H112570   4.271   6.620   0.479
 4202TIP3    H212571   4.146   6.625   0.564
 4203TIP3   OH212572   0.702   3.886   0.784
 4203TIP3    H112573   0.606   3.880   0.780
 4203TIP3    H212574   0.730   3.802   0.821
 4204TIP3   OH212575   1.411   0.587   4.218
 4204TIP3    H112576   1.350   0.554   4.284
 4204TIP3    H212577   1.356   0.638   4.158
 4205TIP3   OH212578   0.859   2.929   1.304
 4205TIP3    H112579   0.907   2.958   1.382
 4205TIP3    H212580   0.894   2.982   1.233
 4206TIP3   OH212581   5.884   5.903   0.499
 4206TIP3    H112582   5.955   5.886   0.436
 4206TIP3    H212583   5.927   5.940   0.575
 4207TIP3   OH212584   2.809   6.027   1.524
 4207TIP3    H112585   2.743   6.001   1.460
 4207TIP3    H212586   2.889   6.039   1.472
 4208TIP3   OH212587   1.640   1.624   5.211
 4208TIP3    H112588   1.595   1.586   5.287
 4208TIP3    H212589   1.671   1.709   5.243
 4209TIP3   OH212590   3.384   3.911   1.723
 4209TIP3    H112591   3.339   3.906   1.638
 4209TIP3    H212592   3.470   3.873   1.707
 4210TIP3   OH212593   3.292   5.424   4.498
 4210TIP3    H112594   3.199   5.437   4.480
 4210TIP3    H212595   3.295   5.374   4.579
 4211TIP3   OH212596   4.299   4.649   3.603
 4211TIP3    H112597   4.314   4.649   3.697
 4211TIP3    H212598   4.357   4.581   3.569
 4212TIP3   OH212599   3.302   2.331   3.876
 4212TIP3    H112600   3.230   2.347   3.815
 4212TIP3    H212601   3.281   2.248   3.917
 4213TIP3   OH212602   2.855   1.860   3.195
 4213TIP3    H112603   2.809   1.918   3.135
 4213TIP3    H212604   2.909   1.918   3.248
 4214TIP3   OH212605   5.601   2.954   1.156
 4214TIP3    H112606   5.513   2.975   1.188
 4214TIP3    H212607   5.613   2.862   1.179
 4215TIP3   OH212608   0.444   3.857   0.205
 4215TIP3    H112609   0.494   3.934   0.178
 4215TIP3    H212610   0.510   3.794   0.235
 4216TIP3   OH212611   5.680   5.550   4.029
 4216TIP3    H112612   5.709   5.606   4.101
 4216TIP3    H212613   5.597   5.587   4.002
 4217TIP3   OH212614   3.213   3.468   2.565
 4217TIP3    H112615   3.130   3.428   2.537
 4217TIP3    H212616   3.188   3.553   2.600
 4218TIP3   OH212617   4.075   6.546   3.877
 4218TIP3    H112618   3.984   6.533   3.850
 4218TIP3    H212619   4.087   6.489   3.952
 4219TIP3   OH212620   5.891   4.959   2.994
 4219TIP3    H112621   5.978   4.932   2.963
 4219TIP3    H212622   5.858   4.883   3.043
 4220TIP3   OH212623   6.470   5.667   1.084
 4220TIP3    H112624   6.445   5.662   1.176
 4220TIP3    H212625   6.413   5.603   1.040
 4221TIP3   OH212626   3.062   1.632   3.553
 4221TIP3    H112627   3.073   1.699   3.620
 4221TIP3    H212628   3.027   1.556   3.600
 4222TIP3   OH212629   2.209   0.564   5.293
 4222TIP3    H112630   2.180   0.563   5.384
 4222TIP3    H212631   2.288   0.618   5.294
 4223TIP3   OH212632   1.163   0.305   3.344
 4223TIP3    H112633   1.093   0.249   3.309
 4223TIP3    H212634   1.238   0.247   3.352
 4224TIP3   OH212635   6.830   2.783   5.615
 4224TIP3    H112636   6.854   2.734   5.537
 4224TIP3    H212637   6.736   2.800   5.605
 4225TIP3   OH212638   4.286   2.733   4.538
 4225TIP3    H112639   4.212   2.730   4.477
 4225TIP3    H212640   4.253   2.687   4.616
 4226TIP3   OH212641   4.350   4.504   4.248
 4226TIP3    H112642   4.309   4.467   4.171
 4226TIP3    H212643   4.291   4.573   4.277
 4227TIP3   OH212644   5.441   2.907   4.960
 4227TIP3    H112645   5.396   2.884   5.042
 4227TIP3    H212646   5.370   2.921   4.897
 4228TIP3   OH212647   2.044   2.624   0.887
 4228TIP3    H112648   2.053   2.538   0.846
 4228TIP3    H212649   2.133   2.658   0.892
 4229TIP3   OH212650   1.753   4.431   0.502
 4229TIP3    H112651   1.680   4.376   0.531
 4229TIP3    H212652   1.730   4.519   0.530
 4230TIP3   OH212653   6.786   0.458   5.588
 4230TIP3    H112654   6.712   0.397   5.589
 4230TIP3    H212655   6.790   0.489   5.497
 4231TIP3   OH212656   4.423   1.231   3.973
 4231TIP3    H112657   4.430   1.256   3.881
 4231TIP3    H212658   4.402   1.312   4.019
 4232TIP3   OH212659   4.530   0.523   5.742
 4232TIP3    H112660   4.591   0.455   5.714
 4232TIP3    H212661   4.524   0.513   5.837
 4233TIP3   OH212662   6.349   4.004   4.620
 4233TIP3    H112663   6.369   4.040   4.533
 4233TIP3    H212664   6.259   4.030   4.637
 4234TIP3   OH212665   6.161   6.581   2.322
 4234TIP3    H112666   6.215   6.612   2.249
 4234TIP3    H212667   6.075   6.620   2.307
 4235TIP3   OH212668   3.988   2.450   2.155
 4235TIP3    H112669   4.060   2.511   2.170
 4235TIP3    H212670   3.962   2.466   2.064
 4236TIP3   OH212671   5.726   6.715   1.363
 4236TIP3    H112672   5.749   6.780   1.297
 4236TIP3    H212673   5.631   6.725   1.374
 4237TIP3   OH212674   5.214   4.298   1.089
 4237TIP3    H112675   5.135   4.339   1.124
 4237TIP3    H212676   5.246   4.360   1.023
 4238TIP3   OH212677   7.222   3.497   4.056
 4238TIP3    H112678   7.240   3.556   4.129
 4238TIP3    H212679   7.155   3.438   4.089
 4239TIP3   OH212680   0.514   2.737   2.929
 4239TIP3    H112681   0.432   2.698   2.901
 4239TIP3    H212682   0.571   2.732   2.852
 4240TIP3   OH212683   5.768   5.339   0.419
 4240TIP3    H112684   5.807   5.401   0.481
 4240TIP3    H212685   5.791   5.374   0.333
 4241TIP3   OH212686   6.378   5.374   3.637
 4241TIP3    H112687   6.451   5.333   3.682
 4241TIP3    H212688   6.328   5.417   3.706
 4242TIP3   OH212689   6.011   5.508   1.095
 4242TIP3    H112690   6.004   5.478   1.004
 4242TIP3    H212691   5.928   5.483   1.135
 4243TIP3   OH212692   4.799   1.570   1.397
 4243TIP3    H112693   4.739   1.585   1.471
 4243TIP3    H212694   4.767   1.489   1.357
 4244TIP3   OH212695   5.169   4.183   3.283
 4244TIP3    H112696   5.146   4.250   3.348
 4244TIP3    H212697   5.120   4.106   3.310
 4245TIP3   OH212698   5.698   2.316   3.566
 4245TIP3    H112699   5.781   2.321   3.518
 4245TIP3    H212700   5.638   2.273   3.505
 4246TIP3   OH212701   3.326   5.558   4.817
 4246TIP3    H112702   3.299   5.603   4.737
 4246TIP3    H212703   3.422   5.552   4.810
 4247TIP3   OH212704   3.047   2.768   2.371
 4247TIP3    H112705   2.959   2.746   2.399
 4247TIP3    H212706   3.089   2.683   2.356
 4248TIP3   OH212707   2.469   5.792   1.577
 4248TIP3    H112708   2.535   5.829   1.518
 4248TIP3    H212709   2.429   5.721   1.527
 4249TIP3   OH212710   4.495   0.146   0.023
 4249TIP3    H112711   4.441   0.122   0.098
 4249TIP3    H212712   4.582   0.111   0.044
 4250TIP3   OH212713   4.707   1.921   0.751
 4250TIP3    H112714   4.780   1.859   0.745
 4250TIP3    H212715   4.629   1.867   0.759
 4251TIP3   OH212716   3.165   2.338   4.880
 4251TIP3    H112717   3.254   2.369   4.866
 4251TIP3    H212718   3.116   2.372   4.805
 4252TIP3   OH212719   3.975   3.650   2.980
 4252TIP3    H112720   3.881   3.663   2.980
 4252TIP3    H212721   3.990   3.580   3.044
 4253TIP3   OH212722   1.587   5.587   1.319
 4253TIP3    H112723   1.594   5.492   1.313
 4253TIP3    H212724   1.586   5.617   1.228
 4254TIP3   OH212725   2.894   4.328   0.987
 4254TIP3    H112726   2.849   4.307   0.905
 4254TIP3    H212727   2.955   4.397   0.964
 4255TIP3   OH212728   4.065   4.484   3.447
 4255TIP3    H112729   4.135   4.549   3.437
 4255TIP3    H212730   3.992   4.519   3.395
 4256TIP3   OH212731   1.914   5.701   0.636
 4256TIP3    H112732   1.855   5.699   0.711
 4256TIP3    H212733   1.980   5.635   0.655
 4257TIP3   OH212734   2.186   3.044   1.082
 4257TIP3    H112735   2.167   3.043   0.988
 4257TIP3    H212736   2.279   3.020   1.087
 4258TIP3   OH212737   4.728   0.024   2.984
 4258TIP3    H112738   4.740   0.079   2.906
 4258TIP3    H212739   4.796   0.054   3.045
 4259TIP3   OH212740   2.499   2.364   2.112
 4259TIP3    H112741   2.481   2.323   2.197
 4259TIP3    H212742   2.482   2.457   2.126
 4260TIP3   OH212743   6.412   6.708   1.524
 4260TIP3    H112744   6.403   6.645   1.595
 4260TIP3    H212745   6.506   6.714   1.509
 4261TIP3   OH212746   2.458   2.394   2.414
 4261TIP3    H112747   2.451   2.303   2.383
 4261TIP3    H212748   2.367   2.424   2.419
 4262TIP3   OH212749   6.063   5.798   0.936
 4262TIP3    H112750   6.141   5.760   0.896
 4262TIP3    H212751   6.097   5.863   0.998
 4263TIP3   OH212752   3.195   2.693   0.051
 4263TIP3    H112753   3.280   2.651   0.049
 4263TIP3    H212754   3.138   2.635   0.001
 4264TIP3   OH212755   7.178   0.824   0.747
 4264TIP3    H112756   7.182   0.768   0.669
 4264TIP3    H212757   7.186   0.763   0.821
 4265TIP3   OH212758   6.329   2.855   5.382
 4265TIP3    H112759   6.406   2.913   5.376
 4265TIP3    H212760   6.256   2.915   5.394
 4266TIP3   OH212761   5.041   1.956   1.897
 4266TIP3    H112762   5.044   1.942   1.802
 4266TIP3    H212763   4.970   1.900   1.927
 4267TIP3   OH212764   7.005   2.804   4.477
 4267TIP3    H112765   6.956   2.880   4.507
 4267TIP3    H212766   7.009   2.814   4.382
 4268TIP3   OH212767   0.141   6.342   0.044
 4268TIP3    H112768   0.083   6.376  -0.025
 4268TIP3    H212769   0.227   6.379   0.023
 4269TIP3   OH212770   4.084   2.312   0.417
 4269TIP3    H112771   4.113   2.317   0.508
 4269TIP3    H212772   4.083   2.403   0.387
 4270TIP3   OH212773   1.778   1.446   0.199
 4270TIP3    H112774   1.833   1.520   0.224
 4270TIP3    H212775   1.777   1.448   0.103
 4271TIP3   OH212776   1.540   0.712   5.226
 4271TIP3    H112777   1.538   0.793   5.175
 4271TIP3    H212778   1.449   0.683   5.230
 4272TIP3   OH212779   5.296   4.755   1.396
 4272TIP3    H112780   5.235   4.696   1.351
 4272TIP3    H212781   5.253   4.840   1.393
 4273TIP3   OH212782   4.161   1.067   3.582
 4273TIP3    H112783   4.181   1.120   3.505
 4273TIP3    H212784   4.244   1.025   3.605
 4274TIP3   OH212785   4.004   1.933   1.061
 4274TIP3    H112786   3.959   1.971   1.136
 4274TIP3    H212787   4.070   1.998   1.037
 4275TIP3   OH212788   5.635   3.098   5.007
 4275TIP3    H112789   5.605   3.122   5.095
 4275TIP3    H212790   5.570   3.035   4.976
 4276TIP3   OH212791   6.772   0.936   0.619
 4276TIP3    H112792   6.695   0.969   0.575
 4276TIP3    H212793   6.769   0.975   0.707
 4277TIP3   OH212794   6.517   6.409   3.031
 4277TIP3    H112795   6.475   6.439   3.112
 4277TIP3    H212796   6.457   6.342   2.997
 4278TIP3   OH212797   0.788   3.629   1.686
 4278TIP3    H112798   0.802   3.697   1.621
 4278TIP3    H212799   0.693   3.612   1.683
 4279TIP3   OH212800   3.119   4.486   5.723
 4279TIP3    H112801   3.039   4.442   5.751
 4279TIP3    H212802   3.190   4.434   5.760
 4280TIP3   OH212803   2.045   5.728   3.577
 4280TIP3    H112804   2.024   5.652   3.522
 4280TIP3    H212805   1.987   5.718   3.653
 4281TIP3   OH212806   4.062   1.225   2.048
 4281TIP3    H112807   4.036   1.217   2.140
 4281TIP3    H212808   4.149   1.262   2.051
 4282TIP3   OH212809   1.799   2.269   4.207
 4282TIP3    H112810   1.796   2.360   4.178
 4282TIP3    H212811   1.715   2.255   4.250
 4283TIP3   OH212812   1.332   3.929   0.027
 4283TIP3    H112813   1.241   3.898   0.035
 4283TIP3    H212814   1.343   3.946  -0.066
 4284TIP3   OH212815   2.757   3.689   3.216
 4284TIP3    H112816   2.758   3.601   3.255
 4284TIP3    H212817   2.842   3.726   3.239
 4285TIP3   OH212818   2.911   1.968   0.922
 4285TIP3    H112819   2.890   1.897   0.862
 4285TIP3    H212820   2.826   1.995   0.959
 4286TIP3   OH212821   5.489   1.656   3.778
 4286TIP3    H112822   5.557   1.714   3.813
 4286TIP3    H212823   5.505   1.655   3.684
 4287TIP3   OH212824   6.605   2.603   0.071
 4287TIP3    H112825   6.657   2.522   0.071
 4287TIP3    H212826   6.532   2.584   0.012
 4288TIP3   OH212827   6.895   5.443   5.859
 4288TIP3    H112828   6.985   5.465   5.882
 4288TIP3    H212829   6.885   5.351   5.885
 4289TIP3   OH212830   5.468   0.869   2.460
 4289TIP3    H112831   5.458   0.953   2.415
 4289TIP3    H212832   5.442   0.887   2.550
 4290TIP3   OH212833   3.876   1.681   2.116
 4290TIP3    H112834   3.834   1.745   2.173
 4290TIP3    H212835   3.804   1.625   2.087
 4291TIP3   OH212836   4.352   1.342   5.607
 4291TIP3    H112837   4.439   1.301   5.610
 4291TIP3    H212838   4.326   1.335   5.516
 4292TIP3   OH212839   4.492   4.497   0.192
 4292TIP3    H112840   4.571   4.504   0.137
 4292TIP3    H212841   4.466   4.588   0.207
 4293TIP3   OH212842   5.887   4.254   0.966
 4293TIP3    H112843   5.956   4.265   1.032
 4293TIP3    H212844   5.926   4.286   0.885
 4294TIP3   OH212845   5.273   3.472   1.386
 4294TIP3    H112846   5.250   3.545   1.329
 4294TIP3    H212847   5.219   3.484   1.464
 4295TIP3   OH212848   4.119   1.065   1.127
 4295TIP3    H112849   4.106   0.993   1.065
 4295TIP3    H212850   4.036   1.112   1.127
 4296TIP3   OH212851   5.806   0.435   5.266
 4296TIP3    H112852   5.733   0.493   5.243
 4296TIP3    H212853   5.858   0.430   5.186
 4297TIP3   OH212854   4.992   1.504   5.331
 4297TIP3    H112855   4.909   1.464   5.358
 4297TIP3    H212856   4.968   1.590   5.297
 4298TIP3   OH212857   1.421   2.868   2.403
 4298TIP3    H112858   1.443   2.856   2.495
 4298TIP3    H212859   1.505   2.872   2.358
 4299TIP3   OH212860   1.033   1.224   0.946
 4299TIP3    H112861   1.119   1.263   0.959
 4299TIP3    H212862   0.998   1.212   1.035
 4300TIP3   OH212863   4.140   5.796   0.871
 4300TIP3    H112864   4.127   5.714   0.821
 4300TIP3    H212865   4.057   5.808   0.917
 4301TIP3   OH212866   7.112   0.143   3.020
 4301TIP3    H112867   7.195   0.098   3.032
 4301TIP3    H212868   7.137   0.234   3.002
 4302TIP3   OH212869   5.292   2.928   5.322
 4302TIP3    H112870   5.237   2.961   5.251
 4302TIP3    H212871   5.307   2.836   5.300
 4303TIP3   OH212872   6.467   6.314   4.228
 4303TIP3    H112873   6.467   6.388   4.289
 4303TIP3    H212874   6.518   6.345   4.153
 4304TIP3   OH212875   0.019   6.220   3.059
 4304TIP3    H112876   0.023   6.199   3.152
 4304TIP3    H212877   0.048   6.140   3.014
 4305TIP3   OH212878   2.817   2.480   0.213
 4305TIP3    H112879   2.877   2.421   0.168
 4305TIP3    H212880   2.808   2.444   0.301
 4306TIP3   OH212881   6.020   0.587   0.988
 4306TIP3    H112882   5.985   0.517   0.933
 4306TIP3    H212883   6.115   0.581   0.976
 4307TIP3   OH212884   6.101   5.587   0.535
 4307TIP3    H112885   6.058   5.646   0.473
 4307TIP3    H212886   6.113   5.506   0.485
 4308TIP3   OH212887   4.235   3.775   5.514
 4308TIP3    H112888   4.294   3.711   5.473
 4308TIP3    H212889   4.291   3.849   5.536
 4309TIP3   OH212890   6.938   5.514   1.102
 4309TIP3    H112891   7.010   5.567   1.136
 4309TIP3    H212892   6.950   5.515   1.007
 4310TIP3   OH212893   2.625   3.444   5.889
 4310TIP3    H112894   2.617   3.356   5.853
 4310TIP3    H212895   2.563   3.497   5.838
 4311TIP3   OH212896   0.617   5.266   4.327
 4311TIP3    H112897   0.648   5.334   4.267
 4311TIP3    H212898   0.522   5.279   4.331
 4312TIP3   OH212899   4.335   3.613   2.034
 4312TIP3    H112900   4.393   3.626   1.959
 4312TIP3    H212901   4.348   3.521   2.059
 4313TIP3   OH212902   3.823   0.042   2.922
 4313TIP3    H112903   3.808   0.050   3.017
 4313TIP3    H212904   3.737   0.019   2.887
 4314TIP3   OH212905   6.226   6.549   5.754
 4314TIP3    H112906   6.281   6.622   5.783
 4314TIP3    H212907   6.174   6.526   5.831
 4315TIP3   OH212908   0.512   4.018   4.782
 4315TIP3    H112909   0.572   4.060   4.845
 4315TIP3    H212910   0.569   3.967   4.725
 4316TIP3   OH212911   0.170   2.332   2.317
 4316TIP3    H112912   0.096   2.371   2.271
 4316TIP3    H212913   0.159   2.360   2.408
 4317TIP3   OH212914   0.258   5.979   5.118
 4317TIP3    H112915   0.170   5.984   5.156
 4317TIP3    H212916   0.298   6.064   5.141
 4318TIP3   OH212917   2.677   3.510   0.683
 4318TIP3    H112918   2.585   3.519   0.709
 4318TIP3    H212919   2.727   3.547   0.755
 4319TIP3   OH212920   2.862   5.581   2.540
 4319TIP3    H112921   2.851   5.496   2.584
 4319TIP3    H212922   2.949   5.577   2.502
 4320TIP3   OH212923   0.520   3.618   4.969
 4320TIP3    H112924   0.486   3.670   4.897
 4320TIP3    H212925   0.522   3.678   5.043
 4321TIP3   OH212926   4.336   4.537   3.906
 4321TIP3    H112927   4.282   4.474   3.953
 4321TIP3    H212928   4.417   4.491   3.887
 4322TIP3   OH212929   4.189   1.906   1.333
 4322TIP3    H112930   4.150   1.915   1.246
 4322TIP3    H212931   4.247   1.981   1.342
 4323TIP3   OH212932   4.295   2.082   5.641
 4323TIP3    H112933   4.349   2.090   5.563
 4323TIP3    H212934   4.205   2.097   5.610
 4324TIP3   OH212935   7.001   3.795   3.358
 4324TIP3    H112936   7.010   3.710   3.401
 4324TIP3    H212937   7.004   3.859   3.429
 4325TIP3   OH212938   4.698   6.382   5.754
 4325TIP3    H112939   4.690   6.474   5.729
 4325TIP3    H212940   4.639   6.373   5.830
 4326TIP3   OH212941   1.869   4.208   3.786
 4326TIP3    H112942   1.891   4.120   3.754
 4326TIP3    H212943   1.773   4.209   3.789
 4327TIP3   OH212944   2.242   3.438   2.608
 4327TIP3    H112945   2.271   3.357   2.649
 4327TIP3    H212946   2.234   3.500   2.680
 4328TIP3   OH212947   2.783   4.297   0.000
 4328TIP3    H112948   2.713   4.258  -0.051
 4328TIP3    H212949   2.807   4.230   0.064
 4329TIP3   OH212950   3.987   1.156   3.789
 4329TIP3    H112951   4.036   1.218   3.843
 4329TIP3    H212952   4.042   1.143   3.711
 4330TIP3   OH212953   3.412   6.720   3.962
 4330TIP3    H112954   3.413   6.700   3.869
 4330TIP3    H212955   3.504   6.732   3.985
 4331TIP3   OH212956   0.397   6.244   1.007
 4331TIP3    H112957   0.474   6.284   0.966
 4331TIP3    H212958   0.371   6.306   1.075
 4332TIP3   OH212959   3.623   3.085   2.818
 4332TIP3    H112960   3.659   3.124   2.898
 4332TIP3    H212961   3.652   2.994   2.821
 4333TIP3   OH212962   5.932   1.355   0.891
 4333TIP3    H112963   5.901   1.324   0.976
 4333TIP3    H212964   5.969   1.277   0.849
 4334TIP3   OH212965   3.874   2.938   0.741
 4334TIP3    H112966   3.959   2.980   0.730
 4334TIP3    H212967   3.872   2.910   0.832
 4335TIP3   OH212968   3.550   3.961   5.416
 4335TIP3    H112969   3.528   3.966   5.509
 4335TIP3    H212970   3.518   4.043   5.379
 4336TIP3   OH212971   6.044   1.235   0.358
 4336TIP3    H112972   6.023   1.292   0.284
 4336TIP3    H212973   6.120   1.185   0.328
 4337TIP3   OH212974   3.665   6.720   4.090
 4337TIP3    H112975   3.661   6.813   4.113
 4337TIP3    H212976   3.756   6.705   4.065
 4338TIP3   OH212977   3.529   3.523   4.128
 4338TIP3    H112978   3.595   3.477   4.179
 4338TIP3    H212979   3.484   3.455   4.078
 4339TIP3   OH212980   3.711   3.904   4.823
 4339TIP3    H112981   3.666   3.909   4.908
 4339TIP3    H212982   3.780   3.839   4.837
 4340TIP3   OH212983   5.550   0.552   5.157
 4340TIP3    H112984   5.533   0.460   5.139
 4340TIP3    H212985   5.564   0.591   5.070
 4341TIP3   OH212986   3.554   5.598   3.843
 4341TIP3    H112987   3.549   5.633   3.933
 4341TIP3    H212988   3.574   5.675   3.789
 4342TIP3   OH212989   2.931   1.860   2.020
 4342TIP3    H112990   2.998   1.803   2.058
 4342TIP3    H212991   2.892   1.808   1.950
 4343TIP3   OH212992   3.583   4.211   1.624
 4343TIP3    H112993   3.534   4.205   1.705
 4343TIP3    H212994   3.518   4.197   1.555
 4344TIP3   OH212995   0.396   0.756   3.248
 4344TIP3    H112996   0.381   0.851   3.246
 4344TIP3    H212997   0.449   0.738   3.170
 4345TIP3   OH212998   2.344   6.784   0.120
 4345TIP3    H112999   2.388   6.790   0.204
 4345TIP3    H213000   2.253   6.763   0.142
 4346TIP3   OH213001   3.469   0.385   4.676
 4346TIP3    H113002   3.458   0.416   4.766
 4346TIP3    H213003   3.540   0.321   4.682
 4347TIP3   OH213004   1.323   6.662   2.009
 4347TIP3    H113005   1.234   6.653   2.043
 4347TIP3    H213006   1.312   6.708   1.925
 4348TIP3   OH213007   1.111   5.144   1.069
 4348TIP3    H113008   1.111   5.108   1.158
 4348TIP3    H213009   1.018   5.152   1.047
 4349TIP3   OH213010   1.430   1.838   3.112
 4349TIP3    H113011   1.352   1.830   3.057
 4349TIP3    H213012   1.424   1.764   3.172
 4350TIP3   OH213013   7.011   5.737   5.129
 4350TIP3    H113014   7.049   5.750   5.042
 4350TIP3    H213015   7.023   5.643   5.146
 4351TIP3   OH213016   0.055   1.098   0.715
 4351TIP3    H113017  -0.016   1.159   0.696
 4351TIP3    H213018   0.020   1.012   0.692
 4352TIP3   OH213019   3.353   2.878   2.304
 4352TIP3    H113020   3.311   2.964   2.295
 4352TIP3    H213021   3.371   2.870   2.398
 4353TIP3   OH213022   5.840   1.128   0.542
 4353TIP3    H113023   5.926   1.088   0.528
 4353TIP3    H213024   5.851   1.219   0.513
 4354TIP3   OH213025   2.425   5.502   1.853
 4354TIP3    H113026   2.422   5.414   1.892
 4354TIP3    H213027   2.515   5.512   1.823
 4355TIP3   OH213028   7.088   6.504  -0.016
 4355TIP3    H113029   6.999   6.499  -0.052
 4355TIP3    H213030   7.083   6.572   0.051
 4356TIP3   OH213031   0.281   3.637   4.048
 4356TIP3    H113032   0.354   3.582   4.078
 4356TIP3    H213033   0.240   3.668   4.128
 4357TIP3   OH213034   5.165   3.474   5.233
 4357TIP3    H113035   5.230   3.452   5.299
 4357TIP3    H213036   5.104   3.532   5.278
 4358TIP3   OH213037   3.064   5.460   2.904
 4358TIP3    H113038   3.077   5.427   2.993
 4358TIP3    H213039   3.066   5.555   2.914
 4359TIP3   OH213040   5.066   3.705  -0.035
 4359TIP3    H113041   5.073   3.638   0.034
 4359TIP3    H213042   5.153   3.705  -0.076
 4360TIP3   OH213043   0.821   6.271   0.399
 4360TIP3    H113044   0.835   6.360   0.430
 4360TIP3    H213045   0.813   6.280   0.304
 4361TIP3   OH213046   6.786   3.180   3.399
 4361TIP3    H113047   6.690   3.178   3.394
 4361TIP3    H213048   6.805   3.261   3.447
 4362TIP3   OH213049   3.812   1.171   5.719
 4362TIP3    H113050   3.843   1.212   5.638
 4362TIP3    H213051   3.799   1.079   5.697
 4363TIP3   OH213052   3.836   4.644   4.548
 4363TIP3    H113053   3.808   4.712   4.609
 4363TIP3    H213054   3.784   4.567   4.571
 4364TIP3   OH213055   6.546   1.977   3.375
 4364TIP3    H113056   6.591   2.005   3.454
 4364TIP3    H213057   6.560   2.048   3.312
 4365TIP3   OH213058   3.604   5.145   2.819
 4365TIP3    H113059   3.655   5.065   2.808
 4365TIP3    H213060   3.583   5.173   2.730
 4366TIP3   OH213061   0.024   0.055   2.728
 4366TIP3    H113062  -0.055   0.107   2.744
 4366TIP3    H213063   0.069   0.051   2.812
 4367TIP3   OH213064   1.972   1.344   0.697
 4367TIP3    H113065   2.066   1.327   0.689
 4367TIP3    H213066   1.950   1.317   0.786
 4368TIP3   OH213067   5.215   1.277   5.774
 4368TIP3    H113068   5.305   1.311   5.777
 4368TIP3    H213069   5.193   1.260   5.865
 4369TIP3   OH213070   5.425   0.021   3.751
 4369TIP3    H113071   5.389   0.104   3.718
 4369TIP3    H213072   5.476  -0.013   3.678
 4370TIP3   OH213073   2.885   3.913   3.643
 4370TIP3    H113074   2.977   3.927   3.667
 4370TIP3    H213075   2.841   3.896   3.726
 4371TIP3   OH213076   1.583   4.921   4.097
 4371TIP3    H113077   1.625   4.922   4.011
 4371TIP3    H213078   1.655   4.904   4.159
 4372TIP3   OH213079   1.909   1.209   0.920
 4372TIP3    H113080   1.939   1.166   1.000
 4372TIP3    H213081   1.814   1.201   0.921
 4373TIP3   OH213082   3.048   1.264   2.484
 4373TIP3    H113083   2.966   1.226   2.451
 4373TIP3    H213084   3.051   1.239   2.576
 4374TIP3   OH213085   4.723   2.079   3.541
 4374TIP3    H113086   4.768   1.996   3.530
 4374TIP3    H213087   4.647   2.058   3.596
 4375TIP3   OH213088   6.848   5.192   1.517
 4375TIP3    H113089   6.855   5.285   1.496
 4375TIP3    H213090   6.774   5.187   1.578
 4376TIP3   OH213091   3.163   1.090   4.816
 4376TIP3    H113092   3.235   1.026   4.820
 4376TIP3    H213093   3.092   1.044   4.772
 4377TIP3   OH213094   0.886   1.653   1.410
 4377TIP3    H113095   0.839   1.572   1.429
 4377TIP3    H213096   0.841   1.691   1.335
 4378TIP3   OH213097   6.878   2.783   2.357
 4378TIP3    H113098   6.946   2.850   2.348
 4378TIP3    H213099   6.836   2.780   2.271
 4379TIP3   OH213100   5.647   5.801   0.425
 4379TIP3    H113101   5.733   5.843   0.433
 4379TIP3    H213102   5.594   5.843   0.492
 4380TIP3   OH213103   3.978   3.377   4.331
 4380TIP3    H113104   3.887   3.377   4.299
 4380TIP3    H213105   3.983   3.454   4.387
 4381TIP3   OH213106   1.658   4.687   4.848
 4381TIP3    H113107   1.695   4.625   4.785
 4381TIP3    H213108   1.576   4.647   4.877
 4382TIP3   OH213109   5.516   1.308   5.741
 4382TIP3    H113110   5.548   1.282   5.655
 4382TIP3    H213111   5.585   1.280   5.802
 4383TIP3   OH213112   4.152   4.323   5.163
 4383TIP3    H113113   4.151   4.257   5.232
 4383TIP3    H213114   4.077   4.379   5.182
 4384TIP3   OH213115   6.951   5.006   4.746
 4384TIP3    H113116   6.873   5.026   4.798
 4384TIP3    H213117   6.996   4.937   4.795
 4385TIP3   OH213118   3.975   2.080   5.718
 4385TIP3    H113119   3.879   2.070   5.723
 4385TIP3    H213120   4.009   1.999   5.757
 4386TIP3   OH213121   0.205   6.343   2.187
 4386TIP3    H113122   0.150   6.290   2.130
 4386TIP3    H213123   0.231   6.285   2.258
 4387TIP3   OH213124   1.735   5.918   0.955
 4387TIP3    H113125   1.727   5.833   0.998
 4387TIP3    H213126   1.827   5.942   0.967
 4388TIP3   OH213127   2.363   1.257   4.987
 4388TIP3    H113128   2.324   1.253   5.074
 4388TIP3    H213129   2.400   1.169   4.974
 4389TIP3   OH213130   2.185   0.909   0.657
 4389TIP3    H113131   2.108   0.899   0.713
 4389TIP3    H213132   2.154   0.962   0.583
 4390TIP3   OH213133   2.612   0.548   3.651
 4390TIP3    H113134   2.640   0.470   3.699
 4390TIP3    H213135   2.557   0.596   3.713
 4391TIP3   OH213136   2.498   1.178   0.831
 4391TIP3    H113137   2.427   1.202   0.891
 4391TIP3    H213138   2.515   1.086   0.849
 4392TIP3   OH213139   5.302   3.106   4.506
 4392TIP3    H113140   5.357   3.050   4.452
 4392TIP3    H213141   5.289   3.057   4.587
 4393TIP3   OH213142   6.482   5.732   2.482
 4393TIP3    H113143   6.415   5.696   2.424
 4393TIP3    H213144   6.497   5.820   2.448
 4394TIP3   OH213145   0.976   5.770   3.871
 4394TIP3    H113146   0.986   5.822   3.791
 4394TIP3    H213147   1.052   5.792   3.924
 4395TIP3   OH213148   6.390   0.663   5.360
 4395TIP3    H113149   6.346   0.678   5.276
 4395TIP3    H213150   6.457   0.732   5.364
 4396TIP3   OH213151   5.996   3.960   2.442
 4396TIP3    H113152   6.074   3.982   2.493
 4396TIP3    H213153   5.932   3.929   2.507
 4397TIP3   OH213154   6.314   1.919   3.778
 4397TIP3    H113155   6.354   1.982   3.837
 4397TIP3    H213156   6.226   1.907   3.813
 4398TIP3   OH213157   3.790   0.415   4.018
 4398TIP3    H113158   3.797   0.354   3.945
 4398TIP3    H213159   3.698   0.441   4.020
 4399TIP3   OH213160   0.126   2.757   1.466
 4399TIP3    H113161   0.094   2.847   1.471
 4399TIP3    H213162   0.221   2.766   1.462
 4400TIP3   OH213163   7.150   2.951   3.539
 4400TIP3    H113164   7.122   3.025   3.485
 4400TIP3    H213165   7.081   2.942   3.605
 4401TIP3   OH213166   1.785   4.435   0.869
 4401TIP3    H113167   1.728   4.461   0.941
 4401TIP3    H213168   1.805   4.516   0.823
 4402TIP3   OH213169   6.963   0.764   5.486
 4402TIP3    H113170   6.982   0.808   5.403
 4402TIP3    H213171   6.928   0.678   5.460
 4403TIP3   OH213172   3.627   2.168   0.884
 4403TIP3    H113173   3.703   2.226   0.888
 4403TIP3    H213174   3.566   2.212   0.825
 4404TIP3   OH213175   0.144   0.750   4.239
 4404TIP3    H113176   0.149   0.842   4.214
 4404TIP3    H213177   0.226   0.732   4.284
 4405TIP3   OH213178   0.944   6.118   2.368
 4405TIP3    H113179   0.980   6.029   2.379
 4405TIP3    H213180   1.018   6.169   2.334
 4406TIP3   OH213181   1.694   5.401   2.051
 4406TIP3    H113182   1.740   5.444   2.123
 4406TIP3    H213183   1.686   5.468   1.984
 4407TIP3   OH213184   1.615   3.676   0.663
 4407TIP3    H113185   1.568   3.646   0.585
 4407TIP3    H213186   1.690   3.618   0.670
 4408TIP3   OH213187   6.091   1.751   2.618
 4408TIP3    H113188   6.150   1.675   2.615
 4408TIP3    H213189   6.008   1.717   2.586
 4409TIP3   OH213190   1.892   6.118   0.235
 4409TIP3    H113191   1.904   6.075   0.151
 4409TIP3    H213192   1.976   6.162   0.252
 4410TIP3   OH213193   5.132   5.404   5.008
 4410TIP3    H113194   5.190   5.454   5.066
 4410TIP3    H213195   5.143   5.446   4.922
 4411TIP3   OH213196   1.822   5.633   0.948
 4411TIP3    H113197   1.846   5.562   1.007
 4411TIP3    H213198   1.906   5.671   0.921
 4412TIP3   OH213199   4.633   2.049   0.519
 4412TIP3    H113200   4.670   2.001   0.593
 4412TIP3    H213201   4.548   2.080   0.549
 4413TIP3   OH213202   5.394   2.370   3.103
 4413TIP3    H113203   5.450   2.325   3.040
 4413TIP3    H213204   5.385   2.458   3.067
 4414TIP3   OH213205   4.348   5.449   3.070
 4414TIP3    H113206   4.322   5.422   3.158
 4414TIP3    H213207   4.355   5.545   3.075
 4415TIP3   OH213208   2.764   1.809   0.312
 4415TIP3    H113209   2.719   1.799   0.396
 4415TIP3    H213210   2.825   1.735   0.308
 4416TIP3   OH213211   5.976   3.166   1.024
 4416TIP3    H113212   5.971   3.160   0.929
 4416TIP3    H213213   6.040   3.235   1.041
 4417TIP3   OH213214   4.022   2.317   4.658
 4417TIP3    H113215   4.002   2.409   4.642
 4417TIP3    H213216   3.941   2.280   4.693
 4418TIP3   OH213217   2.575   4.899   4.580
 4418TIP3    H113218   2.570   4.990   4.550
 4418TIP3    H213219   2.663   4.870   4.555
 4419TIP3   OH213220   2.447   4.118   0.577
 4419TIP3    H113221   2.522   4.058   0.583
 4419TIP3    H213222   2.379   4.075   0.629
 4420TIP3   OH213223   3.415   2.319   0.704
 4420TIP3    H113224   3.435   2.310   0.611
 4420TIP3    H213225   3.319   2.320   0.708
 4421TIP3   OH213226   3.071   3.428   1.029
 4421TIP3    H113227   2.987   3.388   1.006
 4421TIP3    H213228   3.136   3.365   1.000
 4422TIP3   OH213229   6.492   4.170   2.744
 4422TIP3    H113230   6.438   4.239   2.706
 4422TIP3    H213231   6.552   4.145   2.673
 4423TIP3   OH213232   3.200   6.049   2.105
 4423TIP3    H113233   3.126   6.037   2.046
 4423TIP3    H213234   3.234   6.135   2.083
 4424TIP3   OH213235   5.989   4.129   5.281
 4424TIP3    H113236   5.929   4.114   5.207
 4424TIP3    H213237   6.020   4.218   5.269
 4425TIP3   OH213238   6.886   3.029   3.199
 4425TIP3    H113239   6.852   3.058   3.283
 4425TIP3    H213240   6.935   3.104   3.166
 4426TIP3   OH213241   5.726   2.597   2.143
 4426TIP3    H113242   5.696   2.523   2.090
 4426TIP3    H213243   5.812   2.619   2.108
 4427TIP3   OH213244   3.182   6.647   2.690
 4427TIP3    H113245   3.128   6.700   2.632
 4427TIP3    H213246   3.144   6.559   2.684
 4428TIP3   OH213247   4.356   4.629   4.657
 4428TIP3    H113248   4.314   4.715   4.661
 4428TIP3    H213249   4.427   4.640   4.593
 4429TIP3   OH213250   3.469   4.599   2.670
 4429TIP3    H113251   3.501   4.565   2.587
 4429TIP3    H213252   3.414   4.529   2.705
 4430TIP3   OH213253   0.957   4.256   5.309
 4430TIP3    H113254   0.873   4.303   5.309
 4430TIP3    H213255   0.957   4.207   5.227
 4431TIP3   OH213256   4.671   6.420   4.553
 4431TIP3    H113257   4.740   6.486   4.551
 4431TIP3    H213258   4.629   6.432   4.639
 4432TIP3   OH213259   3.640   5.355   3.900
 4432TIP3    H113260   3.635   5.446   3.871
 4432TIP3    H213261   3.679   5.360   3.987
 4433TIP3   OH213262   0.089   5.695   4.946
 4433TIP3    H113263   0.081   5.611   4.901
 4433TIP3    H213264   0.090   5.760   4.876
 4434TIP3   OH213265   5.220   5.878   1.734
 4434TIP3    H113266   5.240   5.957   1.683
 4434TIP3    H213267   5.285   5.877   1.804
 4435TIP3   OH213268   1.735   1.095   3.316
 4435TIP3    H113269   1.660   1.145   3.349
 4435TIP3    H213270   1.739   1.116   3.223
 4436TIP3   OH213271   6.007   3.476   0.226
 4436TIP3    H113272   5.990   3.514   0.312
 4436TIP3    H213273   5.956   3.529   0.166
 4437TIP3   OH213274   3.800   4.108   5.429
 4437TIP3    H113275   3.732   4.075   5.488
 4437TIP3    H213276   3.781   4.202   5.421
 4438TIP3   OH213277   5.521   4.296   0.693
 4438TIP3    H113278   5.483   4.220   0.648
 4438TIP3    H213279   5.609   4.304   0.656
 4439TIP3   OH213280   5.510   1.185   3.768
 4439TIP3    H113281   5.472   1.097   3.766
 4439TIP3    H213282   5.450   1.239   3.716
 4440TIP3   OH213283   3.270   6.571   2.143
 4440TIP3    H113284   3.263   6.487   2.187
 4440TIP3    H213285   3.208   6.628   2.188
 4441TIP3   OH213286   0.523   3.370   5.613
 4441TIP3    H113287   0.496   3.287   5.573
 4441TIP3    H213288   0.587   3.406   5.552
 4442TIP3   OH213289   1.258   5.079   2.823
 4442TIP3    H113290   1.180   5.082   2.766
 4442TIP3    H213291   1.233   5.128   2.901
 4443TIP3   OH213292   5.985   4.401   5.191
 4443TIP3    H113293   6.056   4.453   5.229
 4443TIP3    H213294   6.005   4.399   5.097
 4444TIP3   OH213295   5.665   4.644   3.816
 4444TIP3    H113296   5.627   4.694   3.888
 4444TIP3    H213297   5.752   4.682   3.803
 4445TIP3   OH213298   4.036   0.542   3.393
 4445TIP3    H113299   4.077   0.594   3.463
 4445TIP3    H213300   4.101   0.477   3.369
 4446TIP3   OH213301   3.442   2.029   4.204
 4446TIP3    H113302   3.364   2.056   4.155
 4446TIP3    H213303   3.444   2.087   4.280
 4447TIP3   OH213304   5.991   4.923   2.581
 4447TIP3    H113305   6.069   4.937   2.634
 4447TIP3    H213306   5.918   4.946   2.638
 4448TIP3   OH213307   2.573   3.297   3.621
 4448TIP3    H113308   2.563   3.392   3.623
 4448TIP3    H213309   2.668   3.283   3.625
 4449TIP3   OH213310   5.298   0.466   2.800
 4449TIP3    H113311   5.284   0.554   2.835
 4449TIP3    H213312   5.223   0.451   2.742
 4450TIP3   OH213313   5.951   1.501   5.378
 4450TIP3    H113314   6.002   1.531   5.303
 4450TIP3    H213315   5.966   1.406   5.381
 4451TIP3   OH213316   7.023   0.762   5.185
 4451TIP3    H113317   7.073   0.682   5.204
 4451TIP3    H213318   6.968   0.738   5.110
 4452TIP3   OH213319   4.938   5.003   5.686
 4452TIP3    H113320   5.008   4.986   5.749
 4452TIP3    H213321   4.886   5.073   5.726
 4453TIP3   OH213322   4.706   4.570   3.073
 4453TIP3    H113323   4.648   4.589   2.999
 4453TIP3    H213324   4.701   4.475   3.083
 4454TIP3   OH213325   0.760   0.813   4.713
 4454TIP3    H113326   0.818   0.863   4.655
 4454TIP3    H213327   0.789   0.836   4.801
 4455TIP3   OH213328   0.079   1.746   5.718
 4455TIP3    H113329   0.114   1.675   5.665
 4455TIP3    H213330   0.115   1.825   5.679
 4456TIP3   OH213331   6.140   0.828   5.767
 4456TIP3    H113332   6.080   0.833   5.841
 4456TIP3    H213333   6.124   0.908   5.717
 4457TIP3   OH213334   2.356   5.962   4.539
 4457TIP3    H113335   2.443   6.001   4.530
 4457TIP3    H213336   2.338   5.923   4.454
 4458TIP3   OH213337   6.210   6.105   2.215
 4458TIP3    H113338   6.273   6.151   2.270
 4458TIP3    H213339   6.139   6.080   2.274
 4459TIP3   OH213340   1.110   1.246   4.473
 4459TIP3    H113341   1.198   1.280   4.455
 4459TIP3    H213342   1.080   1.297   4.548
 4460TIP3   OH213343   0.756   2.159   1.634
 4460TIP3    H113344   0.777   2.095   1.703
 4460TIP3    H213345   0.833   2.158   1.577
 4461TIP3   OH213346   1.050   3.858   5.505
 4461TIP3    H113347   1.020   3.935   5.553
 4461TIP3    H213348   0.970   3.811   5.483
 4462TIP3   OH213349   1.429   4.530   5.597
 4462TIP3    H113350   1.410   4.574   5.515
 4462TIP3    H213351   1.438   4.600   5.661
 4463TIP3   OH213352   4.500   6.030   5.128
 4463TIP3    H113353   4.594   6.016   5.138
 4463TIP3    H213354   4.463   6.007   5.214
 4464TIP3   OH213355   1.237   5.949   3.396
 4464TIP3    H113356   1.202   5.974   3.310
 4464TIP3    H213357   1.294   6.022   3.421
 4465TIP3   OH213358   4.406   3.260   4.719
 4465TIP3    H113359   4.439   3.340   4.760
 4465TIP3    H213360   4.483   3.224   4.675
 4466TIP3   OH213361   5.386   1.405   4.925
 4466TIP3    H113362   5.380   1.497   4.899
 4466TIP3    H213363   5.299   1.369   4.906
 4467TIP3   OH213364   5.949   5.560   1.445
 4467TIP3    H113365   6.039   5.545   1.415
 4467TIP3    H213366   5.894   5.527   1.373
 4468TIP3   OH213367   2.204   5.028   3.903
 4468TIP3    H113368   2.137   4.967   3.873
 4468TIP3    H213369   2.197   5.102   3.842
 4469TIP3   OH213370   6.305   5.474   0.979
 4469TIP3    H113371   6.249   5.523   0.918
 4469TIP3    H213372   6.326   5.393   0.933
 4470TIP3   OH213373   3.448   1.754   3.918
 4470TIP3    H113374   3.506   1.809   3.971
 4470TIP3    H213375   3.494   1.670   3.913
 4471TIP3   OH213376   0.531   5.220   5.606
 4471TIP3    H113377   0.553   5.251   5.694
 4471TIP3    H213378   0.562   5.290   5.548
 4472TIP3   OH213379   5.778   1.492   4.395
 4472TIP3    H113380   5.858   1.449   4.365
 4472TIP3    H213381   5.718   1.419   4.415
 4473TIP3   OH213382   6.256   6.624   0.345
 4473TIP3    H113383   6.313   6.561   0.300
 4473TIP3    H213384   6.235   6.689   0.278
 4474TIP3   OH213385   1.386   5.135   3.074
 4474TIP3    H113386   1.332   5.214   3.084
 4474TIP3    H213387   1.461   5.164   3.023
 4475TIP3   OH213388   5.964   0.447   5.060
 4475TIP3    H113389   6.052   0.415   5.079
 4475TIP3    H213390   5.978   0.527   5.009
 4476TIP3   OH213391   4.829   3.729   2.812
 4476TIP3    H113392   4.737   3.723   2.788
 4476TIP3    H213393   4.876   3.717   2.730
 4477TIP3   OH213394   0.691   6.736   1.609
 4477TIP3    H113395   0.609   6.696   1.578
 4477TIP3    H213396   0.684   6.828   1.583
 4478TIP3   OH213397   3.376   3.154   4.878
 4478TIP3    H113398   3.416   3.135   4.793
 4478TIP3    H213399   3.282   3.152   4.861
 4479TIP3   OH213400   4.197   2.161   3.169
 4479TIP3    H113401   4.287   2.159   3.138
 4479TIP3    H213402   4.204   2.186   3.261
 4480TIP3   OH213403   4.905   4.729   1.062
 4480TIP3    H113404   4.980   4.789   1.062
 4480TIP3    H213405   4.852   4.757   1.137
 4481TIP3   OH213406   1.179   5.486   0.176
 4481TIP3    H113407   1.161   5.451   0.089
 4481TIP3    H213408   1.261   5.445   0.203
 4482TIP3   OH213409   5.436   5.975   5.749
 4482TIP3    H113410   5.413   5.887   5.776
 4482TIP3    H213411   5.354   6.023   5.748
 4483TIP3   OH213412   2.034   4.734   1.247
 4483TIP3    H113413   1.957   4.702   1.294
 4483TIP3    H213414   2.059   4.814   1.293
 4484TIP3   OH213415   6.438   5.727   1.848
 4484TIP3    H113416   6.395   5.811   1.866
 4484TIP3    H213417   6.492   5.712   1.925
 4485TIP3   OH213418   5.299   3.198   1.537
 4485TIP3    H113419   5.225   3.242   1.578
 4485TIP3    H213420   5.373   3.258   1.552
 4486TIP3   OH213421   0.539   1.036   0.959
 4486TIP3    H113422   0.554   0.998   1.046
 4486TIP3    H213423   0.624   1.032   0.915
 4487TIP3   OH213424   1.067   4.129   0.586
 4487TIP3    H113425   1.055   4.167   0.672
 4487TIP3    H213426   1.140   4.068   0.597
 4488TIP3   OH213427   4.372   3.581   0.743
 4488TIP3    H113428   4.300   3.641   0.725
 4488TIP3    H213429   4.349   3.502   0.694
 4489TIP3   OH213430   5.034   3.331   4.157
 4489TIP3    H113431   4.959   3.298   4.106
 4489TIP3    H213432   4.995   3.362   4.239
 4490TIP3   OH213433   3.126   2.661   4.388
 4490TIP3    H113434   3.137   2.755   4.397
 4490TIP3    H213435   3.042   2.650   4.343
 4491TIP3   OH213436   0.718   3.450   1.023
 4491TIP3    H113437   0.781   3.522   1.010
 4491TIP3    H213438   0.633   3.489   1.005
 4492TIP3   OH213439   6.961   1.264   5.553
 4492TIP3    H113440   6.980   1.339   5.610
 4492TIP3    H213441   6.867   1.250   5.563
 4493TIP3   OH213442   3.377   5.090   2.984
 4493TIP3    H113443   3.299   5.138   2.955
 4493TIP3    H213444   3.438   5.098   2.911
 4494TIP3   OH213445   4.970   6.715   0.254
 4494TIP3    H113446   5.037   6.764   0.206
 4494TIP3    H213447   5.002   6.624   0.254
 4495TIP3   OH213448   1.336   0.514   1.277
 4495TIP3    H113449   1.308   0.583   1.337
 4495TIP3    H213450   1.387   0.454   1.332
 4496TIP3   OH213451   6.204   6.166   3.877
 4496TIP3    H113452   6.214   6.261   3.875
 4496TIP3    H213453   6.194   6.141   3.785
 4497TIP3   OH213454   4.663   4.448   1.219
 4497TIP3    H113455   4.623   4.426   1.303
 4497TIP3    H213456   4.705   4.533   1.233
 4498TIP3   OH213457   1.138   5.748   4.958
 4498TIP3    H113458   1.171   5.705   4.880
 4498TIP3    H213459   1.216   5.772   5.008
 4499TIP3   OH213460   1.950   3.919   3.801
 4499TIP3    H113461   2.033   3.922   3.848
 4499TIP3    H213462   1.974   3.890   3.713
 4500TIP3   OH213463   0.273   6.246   4.372
 4500TIP3    H113464   0.358   6.258   4.414
 4500TIP3    H213465   0.252   6.332   4.334
 4501TIP3   OH213466   1.694   2.382   4.805
 4501TIP3    H113467   1.702   2.412   4.895
 4501TIP3    H213468   1.722   2.456   4.752
 4502TIP3   OH213469   2.462   6.037   3.003
 4502TIP3    H113470   2.543   5.986   3.008
 4502TIP3    H213471   2.420   6.008   2.922
 4503TIP3   OH213472   7.016   0.218   2.728
 4503TIP3    H113473   6.939   0.273   2.737
 4503TIP3    H213474   7.083   0.276   2.691
 4504TIP3   OH213475   2.051   3.407   1.756
 4504TIP3    H113476   2.120   3.454   1.709
 4504TIP3    H213477   2.082   3.316   1.757
 4505TIP3   OH213478   2.328   2.696   5.496
 4505TIP3    H113479   2.316   2.714   5.402
 4505TIP3    H213480   2.274   2.619   5.512
 4506TIP3   OH213481   2.053   2.296   5.075
 4506TIP3    H113482   2.046   2.367   5.011
 4506TIP3    H213483   2.011   2.221   5.033
 4507TIP3   OH213484   6.497   6.725   0.858
 4507TIP3    H113485   6.478   6.663   0.788
 4507TIP3    H213486   6.452   6.805   0.833
 4508TIP3   OH213487   1.228   6.379   0.769
 4508TIP3    H113488   1.293   6.331   0.717
 4508TIP3    H213489   1.145   6.361   0.725
 4509TIP3   OH213490   5.613   3.504   5.223
 4509TIP3    H113491   5.609   3.489   5.317
 4509TIP3    H213492   5.698   3.546   5.209
 4510TIP3   OH213493   6.323   4.830   0.955
 4510TIP3    H113494   6.358   4.863   0.872
 4510TIP3    H213495   6.395   4.780   0.993
 4511TIP3   OH213496   4.783   0.474   2.218
 4511TIP3    H113497   4.698   0.509   2.245
 4511TIP3    H213498   4.792   0.392   2.267
 4512TIP3   OH213499   0.024   5.437   2.028
 4512TIP3    H113500   0.072   5.486   2.094
 4512TIP3    H213501   0.017   5.349   2.065
 4513TIP3   OH213502   5.565   2.506   2.643
 4513TIP3    H113503   5.633   2.517   2.577
 4513TIP3    H213504   5.488   2.476   2.595
 4514TIP3   OH213505   6.724   2.983   3.787
 4514TIP3    H113506   6.663   2.910   3.805
 4514TIP3    H213507   6.688   3.025   3.710
 4515TIP3   OH213508   3.001   5.619   3.662
 4515TIP3    H113509   2.921   5.587   3.704
 4515TIP3    H213510   3.070   5.606   3.727
 4516TIP3   OH213511   3.523   2.733   5.660
 4516TIP3    H113512   3.572   2.811   5.631
 4516TIP3    H213513   3.577   2.659   5.633
 4517TIP3   OH213514   0.300   3.804   4.445
 4517TIP3    H113515   0.210   3.807   4.413
 4517TIP3    H213516   0.311   3.715   4.480
 4518TIP3   OH213517   4.626   5.519   0.316
 4518TIP3    H113518   4.695   5.460   0.285
 4518TIP3    H213519   4.563   5.461   0.359
 4519TIP3   OH213520   1.723   4.459   4.722
 4519TIP3    H113521   1.646   4.404   4.706
 4519TIP3    H213522   1.796   4.397   4.727
 4520TIP3   OH213523   0.998   5.966   1.389
 4520TIP3    H113524   1.054   6.014   1.328
 4520TIP3    H213525   0.947   5.907   1.333
 4521TIP3   OH213526   6.290   0.087   3.139
 4521TIP3    H113527   6.384   0.098   3.156
 4521TIP3    H213528   6.286   0.032   3.060
 4522TIP3   OH213529   4.301   3.668   4.835
 4522TIP3    H113530   4.329   3.750   4.876
 4522TIP3    H213531   4.380   3.614   4.835
 4523TIP3   OH213532   4.384   5.542   5.150
 4523TIP3    H113533   4.403   5.560   5.242
 4523TIP3    H213534   4.289   5.549   5.143
 4524TIP3   OH213535   6.242   1.476   2.598
 4524TIP3    H113536   6.329   1.442   2.620
 4524TIP3    H213537   6.213   1.422   2.525
 4525TIP3   OH213538   2.314   3.546   4.894
 4525TIP3    H113539   2.253   3.506   4.956
 4525TIP3    H213540   2.268   3.541   4.810
 4526TIP3   OH213541   6.366   6.203   0.414
 4526TIP3    H113542   6.421   6.273   0.448
 4526TIP3    H213543   6.278   6.240   0.412
 4527TIP3   OH213544   2.660   5.034   5.288
 4527TIP3    H113545   2.632   5.098   5.223
 4527TIP3    H213546   2.622   5.065   5.370
 4528TIP3   OH213547   4.995   4.988   2.969
 4528TIP3    H113548   5.081   4.964   3.002
 4528TIP3    H213549   4.940   4.912   2.989
 4529TIP3   OH213550   4.973   1.312   2.076
 4529TIP3    H113551   4.987   1.229   2.122
 4529TIP3    H213552   5.058   1.357   2.082
 4530TIP3   OH213553   6.021   2.198   4.257
 4530TIP3    H113554   6.006   2.195   4.162
 4530TIP3    H213555   5.985   2.282   4.284
 4531TIP3   OH213556   3.933   2.970   1.543
 4531TIP3    H113557   3.859   3.019   1.578
 4531TIP3    H213558   4.007   2.997   1.598
 4532TIP3   OH213559   1.762   4.835   4.273
 4532TIP3    H113560   1.849   4.812   4.241
 4532TIP3    H213561   1.778   4.895   4.345
 4533TIP3   OH213562   2.139   2.374   0.818
 4533TIP3    H113563   2.135   2.344   0.908
 4533TIP3    H213564   2.227   2.410   0.808
 4534TIP3   OH213565   1.832   1.340   2.862
 4534TIP3    H113566   1.847   1.264   2.805
 4534TIP3    H213567   1.890   1.407   2.827
 4535TIP3   OH213568   2.896   4.979   1.290
 4535TIP3    H113569   2.986   5.003   1.269
 4535TIP3    H213570   2.882   4.896   1.244
 4536TIP3   OH213571   3.160   5.861   4.409
 4536TIP3    H113572   3.140   5.871   4.316
 4536TIP3    H213573   3.074   5.859   4.452
 4537TIP3   OH213574   5.088   2.538   4.884
 4537TIP3    H113575   5.117   2.487   4.960
 4537TIP3    H213576   5.028   2.604   4.921
 4538TIP3   OH213577   4.720   5.306   2.728
 4538TIP3    H113578   4.699   5.223   2.685
 4538TIP3    H213579   4.640   5.328   2.776
 4539TIP3   OH213580   5.420   5.025   5.889
 4539TIP3    H113581   5.413   5.008   5.795
 4539TIP3    H213582   5.441   4.940   5.927
 4540TIP3   OH213583   2.955   0.487   5.360
 4540TIP3    H113584   2.907   0.543   5.420
 4540TIP3    H213585   2.982   0.546   5.289
 4541TIP3   OH213586   0.817   3.382   0.703
 4541TIP3    H113587   0.911   3.399   0.702
 4541TIP3    H213588   0.807   3.302   0.652
 4542TIP3   OH213589   4.264   3.332   5.309
 4542TIP3    H113590   4.194   3.375   5.359
 4542TIP3    H213591   4.345   3.360   5.351
 4543TIP3   OH213592   3.790   1.174   0.722
 4543TIP3    H113593   3.752   1.241   0.665
 4543TIP3    H213594   3.749   1.190   0.807
 4544TIP3   OH213595   1.936   4.243   4.445
 4544TIP3    H113596   2.008   4.201   4.493
 4544TIP3    H213597   1.979   4.306   4.387
 4545TIP3   OH213598   3.225   2.163   1.105
 4545TIP3    H113599   3.131   2.167   1.125
 4545TIP3    H213600   3.229   2.157   1.010
 4546TIP3   OH213601   6.980   2.639   4.733
 4546TIP3    H113602   6.979   2.679   4.646
 4546TIP3    H213603   7.007   2.549   4.717
 4547TIP3   OH213604   1.992   3.012   2.845
 4547TIP3    H113605   1.987   2.931   2.794
 4547TIP3    H213606   2.014   3.079   2.780
 4548TIP3   OH213607   2.273   1.933   5.431
 4548TIP3    H113608   2.247   2.000   5.494
 4548TIP3    H213609   2.286   1.854   5.483
 4549TIP3   OH213610   2.125   4.565   0.830
 4549TIP3    H113611   2.137   4.471   0.841
 4549TIP3    H213612   2.157   4.603   0.912
 4550TIP3   OH213613   6.824   2.739   2.085
 4550TIP3    H113614   6.903   2.755   2.034
 4550TIP3    H213615   6.809   2.645   2.076
 4551TIP3   OH213616   2.035   5.880   0.458
 4551TIP3    H113617   1.997   5.858   0.373
 4551TIP3    H213618   2.007   5.809   0.516
 4552TIP3   OH213619   1.309   6.272   5.839
 4552TIP3    H113620   1.372   6.228   5.897
 4552TIP3    H213621   1.223   6.242   5.869
 4553TIP3   OH213622   3.819   5.195   1.125
 4553TIP3    H113623   3.911   5.177   1.145
 4553TIP3    H213624   3.786   5.241   1.202
 4554TIP3   OH213625   5.369   4.971   3.255
 4554TIP3    H113626   5.358   4.997   3.346
 4554TIP3    H213627   5.464   4.963   3.243
 4555TIP3   OH213628   3.236   0.209   2.959
 4555TIP3    H113629   3.310   0.253   2.916
 4555TIP3    H213630   3.202   0.274   3.020
 4556TIP3   OH213631   4.053   1.791   2.846
 4556TIP3    H113632   4.050   1.809   2.940
 4556TIP3    H213633   4.074   1.874   2.805
 4557TIP3   OH213634   5.657   2.220   0.999
 4557TIP3    H113635   5.623   2.302   1.035
 4557TIP3    H213636   5.713   2.185   1.068
 4558TIP3   OH213637   6.777   6.390   1.086
 4558TIP3    H113638   6.744   6.326   1.149
 4558TIP3    H213639   6.854   6.428   1.128
 4559TIP3   OH213640   6.940   6.584   5.021
 4559TIP3    H113641   6.984   6.616   5.099
 4559TIP3    H213642   6.874   6.523   5.053
 4560TIP3   OH213643   6.661   5.189   5.566
 4560TIP3    H113644   6.630   5.265   5.615
 4560TIP3    H213645   6.756   5.200   5.563
 4561TIP3   OH213646   1.999   0.167   0.952
 4561TIP3    H113647   1.987   0.261   0.962
 4561TIP3    H213648   1.940   0.128   1.017
 4562TIP3   OH213649   0.738   1.268   5.349
 4562TIP3    H113650   0.776   1.263   5.261
 4562TIP3    H213651   0.682   1.345   5.347
 4563TIP3   OH213652   7.089   2.326   2.795
 4563TIP3    H113653   7.081   2.403   2.739
 4563TIP3    H213654   7.022   2.266   2.763
 4564TIP3   OH213655   4.394   6.039   2.293
 4564TIP3    H113656   4.315   5.991   2.321
 4564TIP3    H213657   4.445   6.049   2.373
 4565TIP3   OH213658   5.366   6.553   0.933
 4565TIP3    H113659   5.447   6.601   0.919
 4565TIP3    H213660   5.376   6.473   0.883
 4566TIP3   OH213661   5.575   6.504   0.046
 4566TIP3    H113662   5.621   6.485   0.128
 4566TIP3    H213663   5.489   6.464   0.058
 4567TIP3   OH213664   5.761   0.555   0.659
 4567TIP3    H113665   5.835   0.508   0.697
 4567TIP3    H213666   5.693   0.552   0.727
 4568TIP3   OH213667   1.973   4.829   4.883
 4568TIP3    H113668   1.908   4.772   4.843
 4568TIP3    H213669   2.053   4.815   4.832
 4569TIP3   OH213670   5.907   4.396   1.592
 4569TIP3    H113671   5.822   4.356   1.611
 4569TIP3    H213672   5.885   4.477   1.545
 4570TIP3   OH213673   6.882   1.805   3.140
 4570TIP3    H113674   6.858   1.896   3.121
 4570TIP3    H213675   6.915   1.806   3.229
 4571TIP3   OH213676   7.008   4.026   1.133
 4571TIP3    H113677   6.949   4.100   1.141
 4571TIP3    H213678   6.965   3.956   1.182
 4572TIP3   OH213679   0.142   1.310   3.683
 4572TIP3    H113680   0.063   1.292   3.733
 4572TIP3    H213681   0.131   1.261   3.601
 4573TIP3   OH213682   3.215   4.721   4.474
 4573TIP3    H113683   3.177   4.801   4.438
 4573TIP3    H213684   3.146   4.686   4.531
 4574TIP3   OH213685   1.395   0.170   4.155
 4574TIP3    H113686   1.479   0.177   4.109
 4574TIP3    H213687   1.408   0.218   4.236
 4575TIP3   OH213688   0.382   4.193   5.060
 4575TIP3    H113689   0.368   4.266   4.999
 4575TIP3    H213690   0.386   4.235   5.146
 4576TIP3   OH213691   1.564   3.815   0.157
 4576TIP3    H113692   1.631   3.800   0.090
 4576TIP3    H213693   1.491   3.854   0.110
 4577TIP3   OH213694   0.971   1.657   0.534
 4577TIP3    H113695   1.032   1.587   0.556
 4577TIP3    H213696   0.896   1.611   0.496
 4578TIP3   OH213697   7.021   1.868   5.604
 4578TIP3    H113698   7.051   1.779   5.586
 4578TIP3    H213699   6.969   1.893   5.527
 4579TIP3   OH213700   1.780   2.992   2.504
 4579TIP3    H113701   1.718   2.925   2.531
 4579TIP3    H213702   1.760   3.068   2.559
 4580TIP3   OH213703   6.889   5.681   3.237
 4580TIP3    H113704   6.921   5.596   3.207
 4580TIP3    H213705   6.815   5.660   3.293
 4581TIP3   OH213706   4.049   0.581   2.790
 4581TIP3    H113707   3.996   0.533   2.853
 4581TIP3    H213708   4.130   0.531   2.783
 4582TIP3   OH213709   4.121   0.872   3.365
 4582TIP3    H113710   4.152   0.959   3.391
 4582TIP3    H213711   4.146   0.815   3.438
 4583TIP3   OH213712   1.426   1.891   1.729
 4583TIP3    H113713   1.365   1.834   1.776
 4583TIP3    H213714   1.464   1.835   1.662
 4584TIP3   OH213715   4.934   5.357   1.573
 4584TIP3    H113716   4.906   5.416   1.503
 4584TIP3    H213717   5.023   5.385   1.594
 4585TIP3   OH213718   2.759   0.431   5.068
 4585TIP3    H113719   2.804   0.492   5.009
 4585TIP3    H213720   2.666   0.448   5.054
 4586TIP3   OH213721   6.628   6.176   3.699
 4586TIP3    H113722   6.621   6.264   3.737
 4586TIP3    H213723   6.637   6.192   3.605
 4587TIP3   OH213724   1.545   3.412   1.124
 4587TIP3    H113725   1.638   3.433   1.111
 4587TIP3    H213726   1.511   3.397   1.036
 4588TIP3   OH213727   3.398   5.100   4.470
 4588TIP3    H113728   3.314   5.131   4.437
 4588TIP3    H213729   3.438   5.177   4.512
 4589TIP3   OH213730   2.820   2.220   3.253
 4589TIP3    H113731   2.777   2.183   3.330
 4589TIP3    H213732   2.906   2.177   3.250
 4590TIP3   OH213733   2.962   3.250   0.658
 4590TIP3    H113734   3.031   3.304   0.697
 4590TIP3    H213735   2.912   3.311   0.603
 4591TIP3   OH213736   4.304   1.137   0.427
 4591TIP3    H113737   4.275   1.139   0.336
 4591TIP3    H213738   4.348   1.052   0.436
 4592TIP3   OH213739   1.239   2.395   0.389
 4592TIP3    H113740   1.214   2.305   0.406
 4592TIP3    H213741   1.234   2.404   0.294
 4593TIP3   OH213742   4.958   3.155   2.027
 4593TIP3    H113743   4.944   3.071   1.983
 4593TIP3    H213744   4.924   3.142   2.115
 4594TIP3   OH213745   2.033   3.908   4.127
 4594TIP3    H113746   2.094   3.897   4.054
 4594TIP3    H213747   2.060   3.989   4.170
 4595TIP3   OH213748   1.139   2.117   2.215
 4595TIP3    H113749   1.150   2.130   2.309
 4595TIP3    H213750   1.061   2.062   2.207
 4596TIP3   OH213751   4.690   3.607   4.324
 4596TIP3    H113752   4.737   3.626   4.243
 4596TIP3    H213753   4.600   3.594   4.297
 4597TIP3   OH213754   4.951   2.629   0.239
 4597TIP3    H113755   5.014   2.574   0.287
 4597TIP3    H213756   4.873   2.629   0.294
 4598TIP3   OH213757   1.792   5.676   0.026
 4598TIP3    H113758   1.728   5.714  -0.035
 4598TIP3    H213759   1.766   5.584   0.034
 4599TIP3   OH213760   0.568   0.808   5.054
 4599TIP3    H113761   0.552   0.715   5.041
 4599TIP3    H213762   0.533   0.849   4.974
 4600TIP3   OH213763   4.085   5.251   3.851
 4600TIP3    H113764   4.157   5.192   3.871
 4600TIP3    H213765   4.010   5.194   3.835
 4601TIP3   OH213766   4.360   3.267   2.571
 4601TIP3    H113767   4.377   3.291   2.663
 4601TIP3    H213768   4.266   3.282   2.561
 4602TIP3   OH213769   5.288   5.225   5.630
 4602TIP3    H113770   5.286   5.188   5.719
 4602TIP3    H213771   5.379   5.218   5.603
 4603TIP3   OH213772   0.001   0.298   1.092
 4603TIP3    H113773   0.087   0.257   1.104
 4603TIP3    H213774  -0.057   0.249   1.149
 4604TIP3   OH213775   3.683   4.032   0.292
 4604TIP3    H113776   3.676   4.000   0.202
 4604TIP3    H213777   3.664   3.955   0.346
 4605TIP3   OH213778   2.938   1.637   4.698
 4605TIP3    H113779   3.007   1.629   4.632
 4605TIP3    H213780   2.978   1.608   4.779
 4606TIP3   OH213781   2.699   1.142   2.981
 4606TIP3    H113782   2.635   1.074   2.958
 4606TIP3    H213783   2.646   1.218   3.005
 4607TIP3   OH213784   3.252   3.413   1.617
 4607TIP3    H113785   3.264   3.442   1.708
 4607TIP3    H213786   3.296   3.329   1.612
 4608TIP3   OH213787   6.452   2.598   2.036
 4608TIP3    H113788   6.476   2.516   2.078
 4608TIP3    H213789   6.432   2.574   1.945
 4609TIP3   OH213790   0.671   3.382   0.139
 4609TIP3    H113791   0.695   3.414   0.052
 4609TIP3    H213792   0.732   3.310   0.155
 4610TIP3   OH213793   0.639   1.968   0.671
 4610TIP3    H113794   0.695   2.045   0.671
 4610TIP3    H213795   0.599   1.967   0.758
 4611TIP3   OH213796   2.438   3.164   4.395
 4611TIP3    H113797   2.476   3.213   4.468
 4611TIP3    H213798   2.493   3.186   4.320
 4612TIP3   OH213799   6.435   6.248   1.791
 4612TIP3    H113800   6.470   6.259   1.880
 4612TIP3    H213801   6.498   6.191   1.748
 4613TIP3   OH213802   3.842   3.689   4.103
 4613TIP3    H113803   3.896   3.747   4.157
 4613TIP3    H213804   3.773   3.745   4.068
 4614TIP3   OH213805   1.169   4.724   4.043
 4614TIP3    H113806   1.237   4.727   3.976
 4614TIP3    H213807   1.180   4.805   4.092
 4615TIP3   OH213808   1.918   4.212   0.960
 4615TIP3    H113809   1.857   4.265   0.909
 4615TIP3    H213810   2.004   4.246   0.937
 4616TIP3   OH213811   5.233   3.810   1.431
 4616TIP3    H113812   5.319   3.846   1.409
 4616TIP3    H213813   5.201   3.774   1.349
 4617TIP3   OH213814   6.641   3.661   2.766
 4617TIP3    H113815   6.673   3.751   2.762
 4617TIP3    H213816   6.548   3.668   2.745
 4618TIP3   OH213817   1.190   0.936   3.840
 4618TIP3    H113818   1.266   0.967   3.889
 4618TIP3    H213819   1.223   0.920   3.751
 4619TIP3   OH213820   5.349   0.385   4.314
 4619TIP3    H113821   5.401   0.304   4.318
 4619TIP3    H213822   5.389   0.443   4.379
 4620TIP3   OH213823   0.365   3.956   1.765
 4620TIP3    H113824   0.308   3.962   1.841
 4620TIP3    H213825   0.311   3.989   1.692
 4621TIP3   OH213826   4.705   2.496   1.462
 4621TIP3    H113827   4.641   2.492   1.533
 4621TIP3    H213828   4.665   2.554   1.397
 4622TIP3   OH213829   1.183   2.742   1.674
 4622TIP3    H113830   1.240   2.741   1.597
 4622TIP3    H213831   1.208   2.821   1.721
 4623TIP3   OH213832   2.389   5.451   3.099
 4623TIP3    H113833   2.363   5.513   3.032
 4623TIP3    H213834   2.485   5.458   3.103
 4624TIP3   OH213835   6.381   2.481   4.231
 4624TIP3    H113836   6.290   2.510   4.231
 4624TIP3    H213837   6.376   2.386   4.232
 4625TIP3   OH213838   2.730   6.545   2.494
 4625TIP3    H113839   2.709   6.465   2.543
 4625TIP3    H213840   2.690   6.531   2.408
 4626TIP3   OH213841   1.567   1.176   4.815
 4626TIP3    H113842   1.608   1.167   4.730
 4626TIP3    H213843   1.489   1.120   4.811
 4627TIP3   OH213844   0.840   0.452   1.964
 4627TIP3    H113845   0.746   0.467   1.978
 4627TIP3    H213846   0.863   0.385   2.029
 4628TIP3   OH213847   0.264   4.959   1.964
 4628TIP3    H113848   0.356   4.955   1.990
 4628TIP3    H213849   0.229   4.873   1.985
 4629TIP3   OH213850   4.030   0.856   2.406
 4629TIP3    H113851   4.035   0.874   2.312
 4629TIP3    H213852   4.016   0.762   2.412
 4630TIP3   OH213853   1.844   6.090   4.960
 4630TIP3    H113854   1.825   5.996   4.955
 4630TIP3    H213855   1.794   6.129   4.888
 4631TIP3   OH213856   6.740   5.432   4.735
 4631TIP3    H113857   6.741   5.500   4.803
 4631TIP3    H213858   6.771   5.475   4.656
 4632TIP3   OH213859   2.233   3.919   2.636
 4632TIP3    H113860   2.208   3.908   2.544
 4632TIP3    H213861   2.174   3.987   2.669
 4633TIP3   OH213862   2.996   6.018   1.918
 4633TIP3    H113863   3.037   6.077   1.854
 4633TIP3    H213864   2.954   6.076   1.981
 4634TIP3   OH213865   3.853   1.326   4.990
 4634TIP3    H113866   3.781   1.349   5.048
 4634TIP3    H213867   3.902   1.407   4.978
 4635TIP3   OH213868   4.899   4.561   1.867
 4635TIP3    H113869   4.839   4.634   1.875
 4635TIP3    H213870   4.985   4.602   1.853
 4636TIP3   OH213871   1.236   2.860   3.501
 4636TIP3    H113872   1.194   2.903   3.575
 4636TIP3    H213873   1.304   2.922   3.474
 4637TIP3   OH213874   4.206   4.755   3.891
 4637TIP3    H113875   4.152   4.775   3.967
 4637TIP3    H213876   4.240   4.667   3.909
 4638TIP3   OH213877   2.515   6.126   2.419
 4638TIP3    H113878   2.511   6.033   2.395
 4638TIP3    H213879   2.426   6.158   2.401
 4639TIP3   OH213880   5.845   0.274   1.731
 4639TIP3    H113881   5.868   0.286   1.823
 4639TIP3    H213882   5.880   0.353   1.688
 4640TIP3   OH213883   6.681   1.177   5.589
 4640TIP3    H113884   6.679   1.082   5.585
 4640TIP3    H213885   6.617   1.200   5.655
 4641TIP3   OH213886   4.822   3.915   5.009
 4641TIP3    H113887   4.799   3.832   4.966
 4641TIP3    H213888   4.796   3.903   5.100
 4642TIP3   OH213889   6.970   2.395   0.908
 4642TIP3    H113890   6.967   2.486   0.939
 4642TIP3    H213891   6.971   2.342   0.988
 4643TIP3   OH213892   6.994   6.088   2.907
 4643TIP3    H113893   6.969   6.008   2.954
 4643TIP3    H213894   7.032   6.144   2.975
 4644TIP3   OH213895   4.050   1.827   5.862
 4644TIP3    H113896   4.085   1.802   5.948
 4644TIP3    H213897   3.990   1.756   5.839
 4645TIP3   OH213898   1.198   4.021   4.674
 4645TIP3    H113899   1.128   4.079   4.704
 4645TIP3    H213900   1.266   4.029   4.741
 4646TIP3   OH213901   0.493   2.869   2.576
 4646TIP3    H113902   0.509   2.908   2.490
 4646TIP3    H213903   0.413   2.911   2.607
 4647TIP3   OH213904   6.869   1.128   3.478
 4647TIP3    H113905   6.843   1.053   3.531
 4647TIP3    H213906   6.852   1.101   3.388
 4648TIP3   OH213907   1.708   2.045   3.587
 4648TIP3    H113908   1.725   2.133   3.619
 4648TIP3    H213909   1.613   2.036   3.592
 4649TIP3   OH213910   7.181   6.760   2.366
 4649TIP3    H113911   7.108   6.733   2.311
 4649TIP3    H213912   7.247   6.791   2.304
 4650TIP3   OH213913   6.394   0.148   0.488
 4650TIP3    H113914   6.428   0.115   0.571
 4650TIP3    H213915   6.441   0.231   0.475
 4651TIP3   OH213916   4.757   4.113   1.883
 4651TIP3    H113917   4.735   4.064   1.962
 4651TIP3    H213918   4.848   4.140   1.895
 4652TIP3   OH213919   7.057   4.428   3.480
 4652TIP3    H113920   7.060   4.387   3.394
 4652TIP3    H213921   7.135   4.483   3.484
 4653TIP3   OH213922   1.926   4.784   0.200
 4653TIP3    H113923   1.868   4.854   0.230
 4653TIP3    H213924   1.877   4.703   0.216
 4654TIP3   OH213925   3.151   6.271   0.843
 4654TIP3    H113926   3.065   6.270   0.801
 4654TIP3    H213927   3.206   6.320   0.782
 4655TIP3   OH213928   3.847   2.883   3.188
 4655TIP3    H113929   3.922   2.934   3.157
 4655TIP3    H213930   3.805   2.851   3.108
 4656TIP3   OH213931   1.853   1.580   1.342
 4656TIP3    H113932   1.930   1.631   1.318
 4656TIP3    H213933   1.804   1.570   1.261
 4657TIP3   OH213934   4.806   1.614   5.114
 4657TIP3    H113935   4.776   1.576   5.032
 4657TIP3    H213936   4.749   1.574   5.180
 4658TIP3   OH213937   2.246   4.326   4.541
 4658TIP3    H113938   2.196   4.366   4.469
 4658TIP3    H213939   2.260   4.236   4.513
 4659TIP3   OH213940   3.727   6.761   2.384
 4659TIP3    H113941   3.759   6.702   2.315
 4659TIP3    H213942   3.793   6.830   2.389
 4660TIP3   OH213943   6.275   2.726   1.667
 4660TIP3    H113944   6.214   2.718   1.594
 4660TIP3    H213945   6.347   2.779   1.633
 4661TIP3   OH213946   7.170   2.436   2.203
 4661TIP3    H113947   7.104   2.374   2.171
 4661TIP3    H213948   7.129   2.481   2.276
 4662TIP3   OH213949   4.990   0.672   2.288
 4662TIP3    H113950   4.923   0.603   2.286
 4662TIP3    H213951   5.073   0.625   2.280
 4663TIP3   OH213952   0.742   1.364   3.700
 4663TIP3    H113953   0.832   1.336   3.685
 4663TIP3    H213954   0.691   1.282   3.701
 4664TIP3   OH213955   3.583   5.185   0.029
 4664TIP3    H113956   3.675   5.167   0.010
 4664TIP3    H213957   3.545   5.207  -0.056
 4665TIP3   OH213958   0.833   5.290   4.796
 4665TIP3    H113959   0.777   5.237   4.739
 4665TIP3    H213960   0.890   5.337   4.735
 4666TIP3   OH213961   3.257   5.523   1.671
 4666TIP3    H113962   3.269   5.450   1.731
 4666TIP3    H213963   3.297   5.598   1.715
 4667TIP3   OH213964   0.269   0.665   1.004
 4667TIP3    H113965   0.174   0.673   0.991
 4667TIP3    H213966   0.301   0.629   0.921
 4668TIP3   OH213967   3.946   4.182   3.383
 4668TIP3    H113968   4.012   4.249   3.368
 4668TIP3    H213969   3.996   4.100   3.388
 4669TIP3   OH213970   1.608   0.072   2.706
 4669TIP3    H113971   1.526   0.120   2.699
 4669TIP3    H213972   1.599   0.000   2.644
 4670TIP3   OH213973   0.320   0.983   0.831
 4670TIP3    H113974   0.401   0.992   0.882
 4670TIP3    H213975   0.314   0.889   0.813
 4671TIP3   OH213976   5.196   0.754   4.602
 4671TIP3    H113977   5.125   0.695   4.628
 4671TIP3    H213978   5.250   0.762   4.681
 4672TIP3   OH213979   0.579   2.375   4.186
 4672TIP3    H113980   0.644   2.432   4.226
 4672TIP3    H213981   0.514   2.434   4.150
 4673TIP3   OH213982   6.001   6.335   3.734
 4673TIP3    H113983   6.009   6.427   3.758
 4673TIP3    H213984   6.076   6.318   3.678
 4674TIP3   OH213985   5.434   3.926   1.073
 4674TIP3    H113986   5.506   3.980   1.041
 4674TIP3    H213987   5.460   3.837   1.053
 4675TIP3   OH213988   1.927   6.722   2.536
 4675TIP3    H113989   1.932   6.759   2.448
 4675TIP3    H213990   2.012   6.680   2.548
 4676TIP3   OH213991   4.506   6.424   2.045
 4676TIP3    H113992   4.440   6.493   2.041
 4676TIP3    H213993   4.480   6.371   2.120
 4677TIP3   OH213994   5.557   1.113   3.004
 4677TIP3    H113995   5.633   1.090   3.058
 4677TIP3    H213996   5.514   1.029   2.986
 4678TIP3   OH213997   3.261   2.210   0.436
 4678TIP3    H113998   3.279   2.123   0.470
 4678TIP3    H213999   3.175   2.233   0.472
 4679TIP3   OH214000   1.773   1.166   1.602
 4679TIP3    H114001   1.785   1.080   1.643
 4679TIP3    H214002   1.687   1.161   1.561
 4680TIP3   OH214003   4.357   4.143   1.902
 4680TIP3    H114004   4.381   4.226   1.861
 4680TIP3    H214005   4.269   4.159   1.938
 4681TIP3   OH214006   2.962   6.255   4.355
 4681TIP3    H114007   2.879   6.215   4.326
 4681TIP3    H214008   2.935   6.322   4.418
 4682TIP3   OH214009   5.406   0.862   3.171
 4682TIP3    H114010   5.473   0.841   3.105
 4682TIP3    H214011   5.452   0.855   3.255
 4683TIP3   OH214012   5.116   2.040   5.561
 4683TIP3    H114013   5.022   2.024   5.550
 4683TIP3    H214014   5.145   2.069   5.475
 4684TIP3   OH214015   1.113   3.162   2.624
 4684TIP3    H114016   1.199   3.135   2.655
 4684TIP3    H214017   1.054   3.093   2.654
 4685TIP3   OH214018   6.511   4.723   3.471
 4685TIP3    H114019   6.464   4.787   3.525
 4685TIP3    H214020   6.462   4.720   3.389
 4686TIP3   OH214021   6.804   3.416   5.182
 4686TIP3    H114022   6.802   3.341   5.122
 4686TIP3    H214023   6.802   3.377   5.269
 4687TIP3   OH214024   4.208   6.283   2.172
 4687TIP3    H114025   4.122   6.277   2.131
 4687TIP3    H214026   4.198   6.351   2.239
 4688TIP3   OH214027   6.132   5.996   1.105
 4688TIP3    H114028   6.080   6.076   1.103
 4688TIP3    H214029   6.212   6.021   1.153
 4689TIP3   OH214030   0.338   4.015   3.280
 4689TIP3    H114031   0.384   4.002   3.196
 4689TIP3    H214032   0.266   4.075   3.259
 4690TIP3   OH214033   2.952   4.042   1.700
 4690TIP3    H114034   3.014   3.979   1.662
 4690TIP3    H214035   2.866   4.005   1.680
 4691TIP3   OH214036   3.183   4.003   2.320
 4691TIP3    H114037   3.134   4.006   2.402
 4691TIP3    H214038   3.157   3.920   2.280
 4692TIP3   OH214039   2.953   6.644   1.671
 4692TIP3    H114040   2.858   6.627   1.670
 4692TIP3    H214041   2.980   6.622   1.760
 4693TIP3   OH214042   1.790   6.537   1.474
 4693TIP3    H114043   1.798   6.531   1.570
 4693TIP3    H214044   1.780   6.447   1.445
 4694TIP3   OH214045   3.267   2.406   0.239
 4694TIP3    H114046   3.357   2.436   0.237
 4694TIP3    H214047   3.266   2.337   0.306
 4695TIP3   OH214048   0.213   3.351   3.889
 4695TIP3    H114049   0.143   3.400   3.930
 4695TIP3    H214050   0.280   3.342   3.957
 4696TIP3   OH214051   6.036   3.155   5.654
 4696TIP3    H114052   6.019   3.094   5.725
 4696TIP3    H214053   5.989   3.235   5.679
 4697TIP3   OH214054   3.925   4.849   3.373
 4697TIP3    H114055   3.861   4.789   3.411
 4697TIP3    H214056   3.880   4.886   3.296
 4698TIP3   OH214057   3.350   3.996   4.793
 4698TIP3    H114058   3.320   3.943   4.719
 4698TIP3    H214059   3.300   3.962   4.868
 4699TIP3   OH214060   1.194   0.170   1.577
 4699TIP3    H114061   1.164   0.237   1.515
 4699TIP3    H214062   1.287   0.159   1.558
 4700TIP3   OH214063   5.823   3.366   1.154
 4700TIP3    H114064   5.826   3.453   1.116
 4700TIP3    H214065   5.855   3.308   1.084
 4701TIP3   OH214066   3.083   4.496   0.906
 4701TIP3    H114067   3.105   4.488   0.813
 4701TIP3    H214068   3.101   4.588   0.927
 4702TIP3   OH214069   1.681   2.424   3.146
 4702TIP3    H114070   1.623   2.398   3.074
 4702TIP3    H214071   1.644   2.381   3.223
 4703TIP3   OH214072   2.339   4.667   3.135
 4703TIP3    H114073   2.368   4.663   3.044
 4703TIP3    H214074   2.348   4.578   3.167
 4704TIP3   OH214075   2.635   3.407   2.489
 4704TIP3    H114076   2.571   3.337   2.477
 4704TIP3    H214077   2.593   3.485   2.451
 4705TIP3   OH214078   2.263   5.583   2.869
 4705TIP3    H114079   2.296   5.576   2.779
 4705TIP3    H214080   2.241   5.676   2.879
 4706TIP3   OH214081   0.164   1.213   0.373
 4706TIP3    H114082   0.171   1.290   0.429
 4706TIP3    H214083   0.073   1.213   0.344
 4707TIP3   OH214084   4.069   1.229   2.583
 4707TIP3    H114085   3.983   1.248   2.620
 4707TIP3    H214086   4.123   1.305   2.605
 4708TIP3   OH214087   0.751   2.175   4.135
 4708TIP3    H114088   0.748   2.145   4.225
 4708TIP3    H214089   0.685   2.245   4.130
 4709TIP3   OH214090   1.856   1.923   1.010
 4709TIP3    H114091   1.935   1.882   0.974
 4709TIP3    H214092   1.790   1.911   0.942
 4710TIP3   OH214093   3.365   6.160   3.942
 4710TIP3    H114094   3.309   6.169   3.865
 4710TIP3    H214095   3.405   6.246   3.953
 4711TIP3   OH214096   4.848   6.159   3.885
 4711TIP3    H114097   4.781   6.149   3.953
 4711TIP3    H214098   4.908   6.086   3.899
 4712TIP3   OH214099   3.087   5.399   3.173
 4712TIP3    H114100   3.139   5.322   3.193
 4712TIP3    H214101   3.077   5.444   3.257
 4713TIP3   OH214102   7.091   6.438   2.023
 4713TIP3    H114103   7.041   6.362   1.992
 4713TIP3    H214104   7.119   6.414   2.111
 4714TIP3   OH214105   3.904   2.324   0.048
 4714TIP3    H114106   3.869   2.330  -0.041
 4714TIP3    H214107   3.947   2.409   0.063
 4715TIP3   OH214108   1.611   2.933   2.220
 4715TIP3    H114109   1.560   3.005   2.182
 4715TIP3    H214110   1.654   2.893   2.145
 4716TIP3   OH214111   6.779   5.673   2.777
 4716TIP3    H114112   6.719   5.740   2.746
 4716TIP3    H214113   6.864   5.717   2.782
 4717TIP3   OH214114   4.474   5.299   2.442
 4717TIP3    H114115   4.499   5.373   2.498
 4717TIP3    H214116   4.539   5.232   2.462
 4718TIP3   OH214117   5.154   5.512   5.540
 4718TIP3    H114118   5.227   5.573   5.540
 4718TIP3    H214119   5.190   5.431   5.577
 4719TIP3   OH214120   1.594   0.017   3.068
 4719TIP3    H114121   1.557  -0.007   2.983
 4719TIP3    H214122   1.688   0.020   3.054
 4720TIP3   OH214123   3.339   0.848   4.958
 4720TIP3    H114124   3.430   0.838   4.931
 4720TIP3    H214125   3.291   0.783   4.906
 4721TIP3   OH214126   4.867   3.030   1.102
 4721TIP3    H114127   4.781   3.011   1.064
 4721TIP3    H214128   4.857   3.117   1.140
 4722TIP3   OH214129   0.420   1.221   0.164
 4722TIP3    H114130   0.397   1.221   0.071
 4722TIP3    H214131   0.336   1.224   0.209
 4723TIP3   OH214132   6.027   1.889   1.570
 4723TIP3    H114133   5.988   1.917   1.652
 4723TIP3    H214134   6.104   1.945   1.559
 4724TIP3   OH214135   3.744   2.875   5.583
 4724TIP3    H114136   3.828   2.846   5.618
 4724TIP3    H214137   3.761   2.891   5.490
 4725TIP3   OH214138   5.926   0.548   3.414
 4725TIP3    H114139   6.003   0.605   3.415
 4725TIP3    H214140   5.859   0.599   3.368
 4726TIP3   OH214141   3.876   6.297   0.289
 4726TIP3    H114142   3.801   6.355   0.277
 4726TIP3    H214143   3.856   6.221   0.234
 4727TIP3   OH214144   5.175   5.517   4.476
 4727TIP3    H114145   5.198   5.596   4.426
 4727TIP3    H214146   5.147   5.454   4.410
 4728TIP3   OH214147   3.617   6.470   1.408
 4728TIP3    H114148   3.529   6.475   1.369
 4728TIP3    H214149   3.674   6.512   1.344
 4729TIP3   OH214150   0.672   6.711   2.285
 4729TIP3    H114151   0.663   6.735   2.193
 4729TIP3    H214152   0.725   6.631   2.284
 4730TIP3   OH214153   6.721   6.396   5.926
 4730TIP3    H114154   6.728   6.477   5.875
 4730TIP3    H214155   6.642   6.353   5.893
 4731TIP3   OH214156   0.175   0.930   2.693
 4731TIP3    H114157   0.225   0.932   2.774
 4731TIP3    H214158   0.144   1.021   2.682
 4732TIP3   OH214159   0.340   3.558   4.610
 4732TIP3    H114160   0.297   3.602   4.683
 4732TIP3    H214161   0.341   3.465   4.635
 4733TIP3   OH214162   3.326   0.066   0.986
 4733TIP3    H114163   3.406   0.114   0.965
 4733TIP3    H214164   3.327  -0.009   0.927
 4734TIP3   OH214165   0.039   4.193   4.755
 4734TIP3    H114166  -0.029   4.150   4.807
 4734TIP3    H214167   0.077   4.122   4.703
 4735TIP3   OH214168   0.337   5.821   2.441
 4735TIP3    H114169   0.420   5.869   2.449
 4735TIP3    H214170   0.330   5.803   2.347
 4736TIP3   OH214171   4.635   6.502   1.709
 4736TIP3    H114172   4.700   6.434   1.692
 4736TIP3    H214173   4.552   6.464   1.680
 4737TIP3   OH214174   0.906   4.629   4.231
 4737TIP3    H114175   0.866   4.707   4.194
 4737TIP3    H214176   0.870   4.556   4.180
 4738TIP3   OH214177   3.748   6.553   5.651
 4738TIP3    H114178   3.684   6.531   5.718
 4738TIP3    H214179   3.760   6.648   5.659
 4739TIP3   OH214180   4.877   4.460   2.126
 4739TIP3    H114181   4.891   4.501   2.041
 4739TIP3    H214182   4.797   4.500   2.160
 4740TIP3   OH214183   6.431   5.971   3.826
 4740TIP3    H114184   6.500   6.004   3.769
 4740TIP3    H214185   6.370   6.044   3.836
 4741TIP3   OH214186   5.226   1.032   3.042
 4741TIP3    H114187   5.295   0.976   3.077
 4741TIP3    H214188   5.147   0.978   3.046
 4742TIP3   OH214189   5.283   5.111   4.685
 4742TIP3    H114190   5.240   5.046   4.741
 4742TIP3    H214191   5.306   5.062   4.606
 4743TIP3   OH214192   2.482   4.090   0.083
 4743TIP3    H114193   2.427   4.052   0.015
 4743TIP3    H214194   2.542   4.148   0.036
 4744TIP3   OH214195   4.085   4.137   0.975
 4744TIP3    H114196   4.065   4.217   1.024
 4744TIP3    H214197   4.007   4.122   0.921
 4745TIP3   OH214198   2.214   4.222   4.902
 4745TIP3    H114199   2.125   4.191   4.916
 4745TIP3    H214200   2.265   4.142   4.887
 4746TIP3   OH214201   5.426   2.856   0.266
 4746TIP3    H114202   5.453   2.770   0.299
 4746TIP3    H214203   5.504   2.911   0.279
 4747TIP3   OH214204   0.917   6.642   1.483
 4747TIP3    H114205   0.838   6.654   1.535
 4747TIP3    H214206   0.973   6.716   1.507
 4748TIP3   OH214207   4.038   0.716   1.905
 4748TIP3    H114208   4.011   0.710   1.813
 4748TIP3    H214209   4.097   0.641   1.917
 4749TIP3   OH214210   2.441   4.069   2.866
 4749TIP3    H114211   2.511   4.124   2.900
 4749TIP3    H214212   2.383   4.130   2.821
 4750TIP3   OH214213   2.530   3.573   1.329
 4750TIP3    H114214   2.457   3.517   1.355
 4750TIP3    H214215   2.606   3.515   1.333
 4751TIP3   OH214216   0.933   3.886   5.161
 4751TIP3    H114217   0.961   3.802   5.199
 4751TIP3    H214218   0.844   3.869   5.130
 4752TIP3   OH214219   4.439   3.026   1.699
 4752TIP3    H114220   4.521   3.042   1.652
 4752TIP3    H214221   4.416   3.112   1.737
 4753TIP3   OH214222   3.569   0.530   3.308
 4753TIP3    H114223   3.551   0.619   3.338
 4753TIP3    H214224   3.541   0.529   3.217
 4754TIP3   OH214225   5.981   0.056   1.291
 4754TIP3    H114226   5.941   0.123   1.235
 4754TIP3    H214227   5.999   0.102   1.373
 4755TIP3   OH214228   5.276   3.592   2.592
 4755TIP3    H114229   5.245   3.679   2.569
 4755TIP3    H214230   5.293   3.549   2.508
 4756TIP3   OH214231   1.337   2.758   2.187
 4756TIP3    H114232   1.390   2.806   2.250
 4756TIP3    H214233   1.332   2.816   2.111
 4757TIP3   OH214234   1.192   4.286   0.808
 4757TIP3    H114235   1.169   4.377   0.791
 4757TIP3    H214236   1.280   4.290   0.846
 4758TIP3   OH214237   4.658   0.347   0.839
 4758TIP3    H114238   4.634   0.341   0.932
 4758TIP3    H214239   4.641   0.438   0.815
 4759TIP3   OH214240   1.926   0.119   4.270
 4759TIP3    H114241   1.915   0.212   4.293
 4759TIP3    H214242   2.020   0.104   4.274
 4760TIP3   OH214243   2.181   1.312   2.890
 4760TIP3    H114244   2.153   1.379   2.827
 4760TIP3    H214245   2.182   1.357   2.974
 4761TIP3   OH214246   4.956   6.099   5.482
 4761TIP3    H114247   4.930   6.183   5.444
 4761TIP3    H214248   4.893   6.084   5.552
 4762TIP3   OH214249   1.231   6.663   0.766
 4762TIP3    H114250   1.136   6.671   0.774
 4762TIP3    H214251   1.247   6.569   0.776
 4763TIP3   OH214252   4.583   6.305   0.673
 4763TIP3    H114253   4.500   6.308   0.720
 4763TIP3    H214254   4.568   6.356   0.593
 4764TIP3   OH214255   6.351   2.631   1.342
 4764TIP3    H114256   6.403   2.685   1.283
 4764TIP3    H214257   6.289   2.691   1.382
 4765TIP3   OH214258   6.243   3.580   4.423
 4765TIP3    H114259   6.164   3.581   4.477
 4765TIP3    H214260   6.309   3.625   4.476
 4766TIP3   OH214261   6.407   4.042   3.381
 4766TIP3    H114262   6.403   4.038   3.477
 4766TIP3    H214263   6.500   4.055   3.362
 4767TIP3   OH214264   7.076   1.665   2.677
 4767TIP3    H114265   7.114   1.699   2.758
 4767TIP3    H214266   7.150   1.663   2.616
 4768TIP3   OH214267   4.223   6.675   1.674
 4768TIP3    H114268   4.145   6.677   1.618
 4768TIP3    H214269   4.201   6.612   1.742
 4769TIP3   OH214270   1.424   4.079   4.882
 4769TIP3    H114271   1.450   4.000   4.834
 4769TIP3    H214272   1.504   4.107   4.926
 4770TIP3   OH214273   0.644   4.272   4.706
 4770TIP3    H114274   0.645   4.368   4.700
 4770TIP3    H214275   0.635   4.243   4.615
 4771TIP3   OH214276   0.998   6.464   3.986
 4771TIP3    H114277   1.008   6.487   3.894
 4771TIP3    H214278   1.033   6.539   4.034
 4772TIP3   OH214279   6.130   0.889   0.681
 4772TIP3    H114280   6.090   0.865   0.598
 4772TIP3    H214281   6.072   0.855   0.748
 4773TIP3   OH214282   3.323   5.646   4.262
 4773TIP3    H114283   3.283   5.577   4.315
 4773TIP3    H214284   3.336   5.719   4.323
 4774TIP3   OH214285   1.725   4.428   3.484
 4774TIP3    H114286   1.641   4.453   3.447
 4774TIP3    H214287   1.730   4.333   3.473
 4775TIP3   OH214288   1.360   4.975   4.753
 4775TIP3    H114289   1.435   4.968   4.813
 4775TIP3    H214290   1.400   4.996   4.668
 4776TIP3   OH214291   6.137   3.640   0.484
 4776TIP3    H114292   6.125   3.550   0.514
 4776TIP3    H214293   6.048   3.671   0.465
 4777TIP3   OH214294   4.622   6.325   5.221
 4777TIP3    H114295   4.587   6.248   5.265
 4777TIP3    H214296   4.684   6.291   5.157
 4778TIP3   OH214297   1.840   3.175   1.936
 4778TIP3    H114298   1.842   3.167   1.841
 4778TIP3    H214299   1.904   3.110   1.967
 4779TIP3   OH214300   5.815   6.259   5.666
 4779TIP3    H114301   5.887   6.316   5.637
 4779TIP3    H214302   5.844   6.227   5.752
 4780TIP3   OH214303   1.537   1.188   5.202
 4780TIP3    H114304   1.473   1.242   5.248
 4780TIP3    H214305   1.587   1.250   5.149
 4781TIP3   OH214306   0.262   1.722   5.065
 4781TIP3    H114307   0.172   1.725   5.031
 4781TIP3    H214308   0.256   1.665   5.141
 4782TIP3   OH214309   0.148   1.234   4.059
 4782TIP3    H114310   0.158   1.329   4.062
 4782TIP3    H214311   0.078   1.214   4.122
 4783TIP3   OH214312   2.367   5.826   4.794
 4783TIP3    H114313   2.455   5.829   4.832
 4783TIP3    H214314   2.369   5.892   4.725
 4784TIP3   OH214315   7.173   3.004   2.595
 4784TIP3    H114316   7.262   2.992   2.627
 4784TIP3    H214317   7.119   2.997   2.674
 4785TIP3   OH214318   0.886   0.382   3.119
 4785TIP3    H114319   0.912   0.319   3.051
 4785TIP3    H214320   0.894   0.333   3.201
 4786TIP3   OH214321   3.097   1.163   2.743
 4786TIP3    H114322   3.154   1.191   2.814
 4786TIP3    H214323   3.023   1.121   2.786
 4787TIP3   OH214324   6.875   3.856   1.598
 4787TIP3    H114325   6.947   3.916   1.578
 4787TIP3    H214326   6.796   3.904   1.570
 4788TIP3   OH214327   4.781   0.843   2.797
 4788TIP3    H114328   4.751   0.896   2.723
 4788TIP3    H214329   4.728   0.764   2.792
 4789TIP3   OH214330   4.812   5.663   5.480
 4789TIP3    H114331   4.903   5.687   5.460
 4789TIP3    H214332   4.818   5.572   5.509
 4790TIP3   OH214333   6.577   4.624   1.521
 4790TIP3    H114334   6.581   4.601   1.614
 4790TIP3    H214335   6.499   4.578   1.488
 4791TIP3   OH214336   0.682   1.778   1.828
 4791TIP3    H114337   0.662   1.835   1.901
 4791TIP3    H214338   0.768   1.806   1.798
 4792TIP3   OH214339   1.952   1.031   2.432
 4792TIP3    H114340   1.940   1.084   2.511
 4792TIP3    H214341   2.003   1.087   2.373
 4793TIP3   OH214342   3.023   6.119   3.054
 4793TIP3    H114343   3.055   6.203   3.087
 4793TIP3    H214344   2.929   6.122   3.066
 4794TIP3   OH214345   4.748   2.964   0.711
 4794TIP3    H114346   4.687   2.891   0.700
 4794TIP3    H214347   4.700   3.040   0.680
 4795TIP3   OH214348   6.682   5.438   5.696
 4795TIP3    H114349   6.678   5.528   5.665
 4795TIP3    H214350   6.768   5.431   5.738
 4796TIP3   OH214351   1.208   3.027   0.268
 4796TIP3    H114352   1.232   2.977   0.190
 4796TIP3    H214353   1.280   3.013   0.329
 4797TIP3   OH214354   4.832   1.843   1.707
 4797TIP3    H114355   4.794   1.829   1.794
 4797TIP3    H214356   4.857   1.755   1.678
 4798TIP3   OH214357   7.156   4.298   3.259
 4798TIP3    H114358   7.249   4.285   3.243
 4798TIP3    H214359   7.112   4.235   3.201
 4799TIP3   OH214360   4.424   1.525   4.290
 4799TIP3    H114361   4.343   1.556   4.329
 4799TIP3    H214362   4.399   1.503   4.200
 4800TIP3   OH214363   6.901   3.863   4.139
 4800TIP3    H114364   6.995   3.875   4.129
 4800TIP3    H214365   6.865   3.885   4.053
 4801TIP3   OH214366   1.719   3.851   3.616
 4801TIP3    H114367   1.664   3.784   3.656
 4801TIP3    H214368   1.698   3.931   3.664
 4802TIP3   OH214369   5.554   0.698   3.370
 4802TIP3    H114370   5.480   0.639   3.381
 4802TIP3    H214371   5.596   0.670   3.289
 4803TIP3   OH214372   1.542   6.714   0.684
 4803TIP3    H114373   1.447   6.720   0.690
 4803TIP3    H214374   1.571   6.803   0.665
 4804TIP3   OH214375   2.671   5.823   3.182
 4804TIP3    H114376   2.600   5.786   3.130
 4804TIP3    H214377   2.660   5.785   3.269
 4805TIP3   OH214378   2.543   5.445   0.097
 4805TIP3    H114379   2.615   5.386   0.074
 4805TIP3    H214380   2.465   5.389   0.095
 4806TIP3   OH214381   2.945   5.742   3.327
 4806TIP3    H114382   2.898   5.818   3.361
 4806TIP3    H214383   2.878   5.673   3.323
 4807TIP3   OH214384   4.485   5.667   0.634
 4807TIP3    H114385   4.578   5.645   0.643
 4807TIP3    H214386   4.484   5.752   0.591
 4808TIP3   OH214387   6.969   3.128   0.133
 4808TIP3    H114388   7.029   3.069   0.087
 4808TIP3    H214389   6.921   3.072   0.193
 4809TIP3   OH214390   3.785   3.416   3.938
 4809TIP3    H114391   3.794   3.482   4.006
 4809TIP3    H214392   3.759   3.465   3.860
 4810TIP3   OH214393   2.335   6.552   3.308
 4810TIP3    H114394   2.412   6.609   3.313
 4810TIP3    H214395   2.355   6.491   3.237
 4811TIP3   OH214396   1.416   2.453   2.934
 4811TIP3    H114397   1.439   2.361   2.926
 4811TIP3    H214398   1.324   2.458   2.910
 4812TIP3   OH214399   0.815   6.519   0.516
 4812TIP3    H114400   0.850   6.578   0.450
 4812TIP3    H214401   0.720   6.521   0.504
 4813TIP3   OH214402   0.808   1.912   4.554
 4813TIP3    H114403   0.799   1.996   4.507
 4813TIP3    H214404   0.757   1.924   4.634
 4814TIP3   OH214405   6.700   0.094   1.866
 4814TIP3    H114406   6.700   0.016   1.810
 4814TIP3    H214407   6.791   0.104   1.894
 4815TIP3   OH214408   0.483   4.958   4.257
 4815TIP3    H114409   0.457   5.034   4.309
 4815TIP3    H214410   0.481   4.989   4.166
 4816TIP3   OH214411   4.102   0.295   3.051
 4816TIP3    H114412   4.008   0.305   3.036
 4816TIP3    H214413   4.108   0.239   3.128
 4817TIP3   OH214414   2.053   0.592   0.512
 4817TIP3    H114415   2.008   0.672   0.541
 4817TIP3    H214416   2.117   0.623   0.448
 4818TIP3   OH214417   4.070   1.600   0.315
 4818TIP3    H114418   4.008   1.565   0.251
 4818TIP3    H214419   4.046   1.693   0.323
 4819TIP3   OH214420   2.392   2.614   2.140
 4819TIP3    H114421   2.439   2.682   2.189
 4819TIP3    H214422   2.306   2.653   2.121
 4820TIP3   OH214423   0.517   6.214   2.037
 4820TIP3    H114424   0.463   6.146   2.078
 4820TIP3    H214425   0.598   6.214   2.089
 4821TIP3   OH214426   6.105   2.425   2.711
 4821TIP3    H114427   6.080   2.485   2.641
 4821TIP3    H214428   6.128   2.482   2.784
 4822TIP3   OH214429   0.616   0.653   1.810
 4822TIP3    H114430   0.673   0.664   1.886
 4822TIP3    H214431   0.669   0.681   1.736
 4823TIP3   OH214432   4.937   1.728   0.718
 4823TIP3    H114433   5.020   1.721   0.766
 4823TIP3    H214434   4.901   1.640   0.721
 4824TIP3   OH214435   4.480   3.997   1.185
 4824TIP3    H114436   4.515   3.937   1.119
 4824TIP3    H214437   4.554   4.012   1.245
 4825TIP3   OH214438   3.973   1.540   1.229
 4825TIP3    H114439   4.054   1.590   1.223
 4825TIP3    H214440   3.940   1.556   1.317
 4826TIP3   OH214441   0.715   2.154   4.447
 4826TIP3    H114442   0.622   2.145   4.425
 4826TIP3    H214443   0.715   2.169   4.542
 4827TIP3   OH214444   2.575   3.364   2.199
 4827TIP3    H114445   2.650   3.420   2.215
 4827TIP3    H214446   2.569   3.308   2.276
 4828TIP3   OH214447   2.492   2.065   3.640
 4828TIP3    H114448   2.412   2.037   3.685
 4828TIP3    H214449   2.531   1.983   3.608
 4829TIP3   OH214450   1.415   5.230   5.273
 4829TIP3    H114451   1.437   5.139   5.293
 4829TIP3    H214452   1.383   5.266   5.355
 4830TIP3   OH214453   1.089   3.878   4.197
 4830TIP3    H114454   1.097   3.933   4.275
 4830TIP3    H214455   1.176   3.879   4.158
 4831TIP3   OH214456   2.787   2.873   4.527
 4831TIP3    H114457   2.873   2.832   4.512
 4831TIP3    H214458   2.805   2.967   4.525
 4832TIP3   OH214459   0.675   5.565   4.797
 4832TIP3    H114460   0.733   5.531   4.728
 4832TIP3    H214461   0.590   5.573   4.755
 4833TIP3   OH214462   3.534   3.014   1.314
 4833TIP3    H114463   3.479   3.089   1.337
 4833TIP3    H214464   3.594   3.049   1.248
 4834TIP3   OH214465   1.568   3.292   1.657
 4834TIP3    H114466   1.638   3.344   1.618
 4834TIP3    H214467   1.507   3.357   1.693
 4835TIP3   OH214468   3.381   5.248   1.192
 4835TIP3    H114469   3.340   5.245   1.278
 4835TIP3    H214470   3.470   5.278   1.208
 4836TIP3   OH214471   1.168   2.100   2.486
 4836TIP3    H114472   1.128   2.014   2.502
 4836TIP3    H214473   1.261   2.086   2.503
 4837TIP3   OH214474   4.542   0.036   4.519
 4837TIP3    H114475   4.592   0.107   4.561
 4837TIP3    H214476   4.451   0.055   4.542
 4838TIP3   OH214477   1.941   4.979   2.434
 4838TIP3    H114478   1.902   4.934   2.508
 4838TIP3    H214479   2.006   4.917   2.400
 4839TIP3   OH214480   4.714   3.416   3.577
 4839TIP3    H114481   4.623   3.444   3.566
 4839TIP3    H214482   4.722   3.403   3.672
 4840TIP3   OH214483   7.006   2.029   2.491
 4840TIP3    H114484   7.010   1.934   2.484
 4840TIP3    H214485   7.006   2.047   2.585
 4841TIP3   OH214486   4.932   2.194   1.152
 4841TIP3    H114487   5.015   2.184   1.198
 4841TIP3    H214488   4.939   2.137   1.075
 4842TIP3   OH214489   2.992   2.454   0.897
 4842TIP3    H114490   2.972   2.371   0.941
 4842TIP3    H214491   3.064   2.491   0.948
 4843TIP3   OH214492   2.969   0.819   1.798
 4843TIP3    H114493   2.963   0.735   1.845
 4843TIP3    H214494   2.970   0.794   1.706
 4844TIP3   OH214495   5.907   1.324   1.680
 4844TIP3    H114496   5.817   1.358   1.682
 4844TIP3    H214497   5.957   1.384   1.735
 4845TIP3   OH214498   4.156   0.364   4.443
 4845TIP3    H114499   4.093   0.349   4.373
 4845TIP3    H214500   4.213   0.434   4.409
 4846TIP3   OH214501   0.187   5.009   0.520
 4846TIP3    H114502   0.198   4.940   0.585
 4846TIP3    H214503   0.165   4.963   0.439
 4847TIP3   OH214504   1.902   0.141   3.777
 4847TIP3    H114505   1.889   0.078   3.848
 4847TIP3    H214506   1.914   0.225   3.822
 4848TIP3   OH214507   0.904   2.983   1.816
 4848TIP3    H114508   0.959   3.041   1.869
 4848TIP3    H214509   0.814   3.011   1.834
 4849TIP3   OH214510   1.492   3.842   2.623
 4849TIP3    H114511   1.462   3.810   2.708
 4849TIP3    H214512   1.588   3.836   2.628
 4850TIP3   OH214513   1.460   5.187   4.924
 4850TIP3    H114514   1.416   5.222   5.001
 4850TIP3    H214515   1.488   5.100   4.950
 4851TIP3   OH214516   0.956   0.064   2.294
 4851TIP3    H114517   1.031   0.010   2.321
 4851TIP3    H214518   0.888   0.042   2.357
 4852TIP3   OH214519   2.566   0.976   4.257
 4852TIP3    H114520   2.601   1.065   4.259
 4852TIP3    H214521   2.524   0.968   4.171
 4853TIP3   OH214522   0.718   1.337   4.699
 4853TIP3    H114523   0.803   1.382   4.691
 4853TIP3    H214524   0.653   1.407   4.695
 4854TIP3   OH214525   5.997   2.034   5.202
 4854TIP3    H114526   6.049   2.083   5.265
 4854TIP3    H214527   6.046   2.042   5.120
 4855TIP3   OH214528   6.294   2.765   0.162
 4855TIP3    H114529   6.317   2.817   0.239
 4855TIP3    H214530   6.372   2.713   0.144
 4856TIP3   OH214531   5.263   6.652   5.756
 4856TIP3    H114532   5.345   6.603   5.768
 4856TIP3    H214533   5.243   6.686   5.843
 4857TIP3   OH214534   3.574   5.344   3.007
 4857TIP3    H114535   3.507   5.407   2.981
 4857TIP3    H214536   3.575   5.279   2.937
 4858TIP3   OH214537   2.441   4.737   4.112
 4858TIP3    H114538   2.399   4.730   4.026
 4858TIP3    H214539   2.464   4.830   4.120
 4859TIP3   OH214540   7.121   1.327   0.281
 4859TIP3    H114541   7.081   1.377   0.352
 4859TIP3    H214542   7.069   1.247   0.276
 4860TIP3   OH214543   4.778   2.437   1.055
 4860TIP3    H114544   4.770   2.358   1.109
 4860TIP3    H214545   4.839   2.413   0.986
 4861TIP3   OH214546   5.515   4.774   2.578
 4861TIP3    H114547   5.464   4.694   2.564
 4861TIP3    H214548   5.578   4.775   2.506
 4862TIP3   OH214549   6.004   3.229   2.745
 4862TIP3    H114550   5.977   3.206   2.833
 4862TIP3    H214551   6.099   3.217   2.745
 4863TIP3   OH214552   0.866   3.662   0.603
 4863TIP3    H114553   0.920   3.606   0.657
 4863TIP3    H214554   0.778   3.624   0.608
 4864TIP3   OH214555   2.788   4.244   0.730
 4864TIP3    H114556   2.693   4.242   0.729
 4864TIP3    H214557   2.814   4.219   0.642
 4865TIP3   OH214558   5.276   2.671  -0.003
 4865TIP3    H114559   5.237   2.745   0.046
 4865TIP3    H214560   5.294   2.707  -0.089
 4866TIP3   OH214561   5.762   3.720   5.774
 4866TIP3    H114562   5.736   3.802   5.732
 4866TIP3    H214563   5.817   3.747   5.848
 4867TIP3   OH214564   3.948   1.127   2.284
 4867TIP3    H114565   3.976   1.043   2.248
 4867TIP3    H214566   4.006   1.141   2.359
 4868TIP3   OH214567   3.874   4.361   2.240
 4868TIP3    H114568   3.808   4.293   2.256
 4868TIP3    H214569   3.865   4.421   2.315
 4869TIP3   OH214570   5.137   2.982   3.505
 4869TIP3    H114571   5.102   2.947   3.586
 4869TIP3    H214572   5.061   3.012   3.456
 4870TIP3   OH214573   6.024   2.657   5.220
 4870TIP3    H114574   5.958   2.608   5.268
 4870TIP3    H214575   5.995   2.652   5.128
 4871TIP3   OH214576   3.273   1.030   3.961
 4871TIP3    H114577   3.232   0.996   3.882
 4871TIP3    H214578   3.354   1.071   3.930
 4872TIP3   OH214579   6.975   6.365   0.830
 4872TIP3    H114580   7.041   6.296   0.832
 4872TIP3    H214581   6.894   6.320   0.806
 4873TIP3   OH214582   4.856   3.349   3.216
 4873TIP3    H114583   4.852   3.409   3.141
 4873TIP3    H214584   4.833   3.404   3.292
 4874TIP3   OH214585   6.303   2.050   0.430
 4874TIP3    H114586   6.261   2.124   0.387
 4874TIP3    H214587   6.389   2.043   0.389
 4875TIP3   OH214588   5.782   5.539   5.850
 4875TIP3    H114589   5.770   5.444   5.856
 4875TIP3    H214590   5.692   5.574   5.845
 4876TIP3   OH214591   6.439   5.456   1.515
 4876TIP3    H114592   6.345   5.443   1.526
 4876TIP3    H214593   6.472   5.472   1.604
 4877TIP3   OH214594   4.189   5.019   1.227
 4877TIP3    H114595   4.109   5.025   1.279
 4877TIP3    H214596   4.192   4.927   1.200
 4878TIP3   OH214597   4.242   5.102   2.535
 4878TIP3    H114598   4.188   5.032   2.499
 4878TIP3    H214599   4.309   5.056   2.586
 4879TIP3   OH214600   4.018   0.919   4.308
 4879TIP3    H114601   4.029   0.842   4.364
 4879TIP3    H214602   4.106   0.954   4.297
 4880TIP3   OH214603   1.816   4.839   2.950
 4880TIP3    H114604   1.849   4.928   2.936
 4880TIP3    H214605   1.734   4.851   2.999
 4881TIP3   OH214606   4.530   5.235   0.058
 4881TIP3    H114607   4.563   5.325   0.062
 4881TIP3    H214608   4.596   5.188   0.007
 4882TIP3   OH214609   4.399   6.542   3.696
 4882TIP3    H114610   4.462   6.485   3.741
 4882TIP3    H214611   4.392   6.505   3.608
 4883TIP3   OH214612   2.689   0.235   4.367
 4883TIP3    H114613   2.697   0.294   4.442
 4883TIP3    H214614   2.620   0.174   4.392
 4884TIP3   OH214615   5.297   5.909   1.246
 4884TIP3    H114616   5.340   5.825   1.228
 4884TIP3    H214617   5.367   5.973   1.238
 4885TIP3   OH214618   4.075   0.927   3.956
 4885TIP3    H114619   3.993   0.915   4.004
 4885TIP3    H214620   4.057   1.001   3.897
 4886TIP3   OH214621   7.037   4.174   3.059
 4886TIP3    H114622   7.063   4.207   2.973
 4886TIP3    H214623   7.042   4.079   3.051
 4887TIP3   OH214624   6.565   3.282   0.922
 4887TIP3    H114625   6.478   3.318   0.905
 4887TIP3    H214626   6.579   3.298   1.015
 4888TIP3   OH214627   6.189   3.960   3.678
 4888TIP3    H114628   6.271   4.006   3.692
 4888TIP3    H214629   6.151   3.950   3.765
 4889TIP3   OH214630   2.967   2.141   4.172
 4889TIP3    H114631   3.007   2.217   4.214
 4889TIP3    H214632   2.927   2.092   4.243
 4890TIP3   OH214633   6.876   2.775   1.538
 4890TIP3    H114634   6.794   2.758   1.493
 4890TIP3    H214635   6.851   2.824   1.616
 4891TIP3   OH214636   3.735   6.092   3.629
 4891TIP3    H114637   3.724   6.157   3.699
 4891TIP3    H214638   3.679   6.019   3.654
 4892TIP3   OH214639   2.290   0.543   0.682
 4892TIP3    H114640   2.302   0.586   0.767
 4892TIP3    H214641   2.214   0.585   0.644
 4893TIP3   OH214642   0.969   5.416   3.346
 4893TIP3    H114643   0.974   5.509   3.326
 4893TIP3    H214644   0.887   5.406   3.394
 4894TIP3   OH214645   3.879   0.148   0.139
 4894TIP3    H114646   3.804   0.113   0.091
 4894TIP3    H214647   3.871   0.111   0.227
 4895TIP3   OH214648   6.708   6.181   4.839
 4895TIP3    H114649   6.628   6.215   4.877
 4895TIP3    H214650   6.756   6.259   4.810
 4896TIP3   OH214651   4.575   2.632   5.094
 4896TIP3    H114652   4.506   2.639   5.159
 4896TIP3    H214653   4.649   2.593   5.141
 4897TIP3   OH214654   2.597   6.523   0.808
 4897TIP3    H114655   2.546   6.460   0.859
 4897TIP3    H214656   2.603   6.600   0.865
 4898TIP3   OH214657   1.321   2.394   0.044
 4898TIP3    H114658   1.292   2.480   0.015
 4898TIP3    H214659   1.254   2.334   0.013
 4899TIP3   OH214660   3.785   5.724   5.580
 4899TIP3    H114661   3.698   5.723   5.619
 4899TIP3    H214662   3.790   5.643   5.530
 4900TIP3   OH214663   3.997   5.652   4.294
 4900TIP3    H114664   3.974   5.738   4.260
 4900TIP3    H214665   3.913   5.615   4.323
 4901TIP3   OH214666   2.947   0.939   5.498
 4901TIP3    H114667   3.026   0.938   5.443
 4901TIP3    H214668   2.910   1.026   5.485
 4902TIP3   OH214669   6.154   4.835   4.166
 4902TIP3    H114670   6.098   4.760   4.145
 4902TIP3    H214671   6.098   4.892   4.219
 4903TIP3   OH214672   1.130   5.875   1.603
 4903TIP3    H114673   1.220   5.869   1.573
 4903TIP3    H214674   1.086   5.928   1.536
 4904TIP3   OH214675   6.679   0.601   0.507
 4904TIP3    H114676   6.659   0.680   0.457
 4904TIP3    H214677   6.675   0.629   0.598
 4905TIP3   OH214678   1.781   0.764   3.756
 4905TIP3    H114679   1.779   0.848   3.709
 4905TIP3    H214680   1.728   0.779   3.834
 4906TIP3   OH214681   7.180   3.459   3.775
 4906TIP3    H114682   7.268   3.423   3.763
 4906TIP3    H214683   7.181   3.497   3.863
 4907TIP3   OH214684   0.525   5.682   1.885
 4907TIP3    H114685   0.524   5.775   1.864
 4907TIP3    H214686   0.597   5.646   1.834
 4908TIP3   OH214687   5.801   3.632   3.563
 4908TIP3    H114688   5.771   3.719   3.536
 4908TIP3    H214689   5.859   3.603   3.492
 4909TIP3   OH214690   1.597   2.597   2.506
 4909TIP3    H114691   1.568   2.675   2.553
 4909TIP3    H214692   1.564   2.524   2.558
 4910TIP3   OH214693   4.003   5.539   0.694
 4910TIP3    H114694   4.012   5.461   0.749
 4910TIP3    H214695   3.962   5.507   0.613
 4911TIP3   OH214696   0.607   3.550   4.561
 4911TIP3    H114697   0.645   3.632   4.593
 4911TIP3    H214698   0.514   3.558   4.581
 4912TIP3   OH214699   5.762   5.047   2.763
 4912TIP3    H114700   5.672   5.019   2.780
 4912TIP3    H214701   5.812   5.009   2.835
 4913TIP3   OH214702   4.943   4.222   4.095
 4913TIP3    H114703   4.865   4.272   4.118
 4913TIP3    H214704   4.925   4.133   4.125
 4914TIP3   OH214705   0.655   3.651   0.249
 4914TIP3    H114706   0.697   3.673   0.165
 4914TIP3    H214707   0.659   3.555   0.252
 4915TIP3   OH214708   2.250   6.084   4.045
 4915TIP3    H114709   2.279   6.130   3.966
 4915TIP3    H214710   2.172   6.036   4.017
 4916TIP3   OH214711   6.769   3.461   3.484
 4916TIP3    H114712   6.719   3.486   3.406
 4916TIP3    H214713   6.707   3.473   3.556
 4917TIP3   OH214714   1.826   0.492   3.755
 4917TIP3    H114715   1.900   0.470   3.811
 4917TIP3    H214716   1.829   0.588   3.747
 4918TIP3   OH214717   6.983   5.149   1.893
 4918TIP3    H114718   7.044   5.076   1.905
 4918TIP3    H214719   6.913   5.114   1.838
 4919TIP3   OH214720   6.901   4.716   0.462
 4919TIP3    H114721   6.880   4.796   0.510
 4919TIP3    H214722   6.941   4.747   0.380
 4920TIP3   OH214723   2.299   3.020   2.966
 4920TIP3    H114724   2.233   3.043   3.032
 4920TIP3    H214725   2.381   3.053   3.001
 4921TIP3   OH214726   3.838   3.900   5.229
 4921TIP3    H114727   3.838   3.986   5.272
 4921TIP3    H214728   3.750   3.892   5.194
 4922TIP3   OH214729   1.782   1.332   4.190
 4922TIP3    H114730   1.754   1.245   4.162
 4922TIP3    H214731   1.828   1.368   4.114
 4923TIP3   OH214732   3.093   2.045   2.861
 4923TIP3    H114733   3.131   1.966   2.824
 4923TIP3    H214734   2.999   2.029   2.860
 4924TIP3   OH214735   3.187   3.853   4.607
 4924TIP3    H114736   3.120   3.839   4.673
 4924TIP3    H214737   3.140   3.853   4.524
 4925TIP3   OH214738   5.750   0.492   1.362
 4925TIP3    H114739   5.736   0.398   1.374
 4925TIP3    H214740   5.781   0.522   1.447
 4926TIP3   OH214741   1.286   2.338   5.441
 4926TIP3    H114742   1.345   2.366   5.512
 4926TIP3    H214743   1.333   2.360   5.361
 4927TIP3   OH214744   6.404   2.220   2.024
 4927TIP3    H114745   6.456   2.291   2.062
 4927TIP3    H214746   6.468   2.156   1.994
 4928TIP3   OH214747   4.569   1.946   3.777
 4928TIP3    H114748   4.557   1.940   3.872
 4928TIP3    H214749   4.663   1.957   3.765
 4929TIP3   OH214750   6.740   1.594   1.512
 4929TIP3    H114751   6.758   1.681   1.547
 4929TIP3    H214752   6.822   1.547   1.521
 4930TIP3   OH214753   6.633   1.411   2.889
 4930TIP3    H114754   6.569   1.413   2.960
 4930TIP3    H214755   6.684   1.491   2.901
 4931TIP3   OH214756   4.951   2.335   3.852
 4931TIP3    H114757   4.953   2.354   3.946
 4931TIP3    H214758   4.865   2.366   3.823
 4932TIP3   OH214759   0.722   2.980   3.082
 4932TIP3    H114760   0.657   2.998   3.014
 4932TIP3    H214761   0.700   2.892   3.114
 4933TIP3   OH214762   5.505   0.352   4.696
 4933TIP3    H114763   5.583   0.351   4.641
 4933TIP3    H214764   5.463   0.436   4.676
 4934TIP3   OH214765   1.657   2.316   3.863
 4934TIP3    H114766   1.718   2.350   3.929
 4934TIP3    H214767   1.697   2.339   3.780
 4935TIP3   OH214768   4.619   0.065   1.911
 4935TIP3    H114769   4.646   0.074   1.820
 4935TIP3    H214770   4.665   0.136   1.957
 4936TIP3   OH214771   1.851   5.876   1.950
 4936TIP3    H114772   1.929   5.921   1.917
 4936TIP3    H214773   1.845   5.903   2.042
 4937TIP3   OH214774   1.520   6.445   2.038
 4937TIP3    H114775   1.438   6.490   2.016
 4937TIP3    H214776   1.586   6.514   2.042
 4938TIP3   OH214777   6.132   1.332   1.154
 4938TIP3    H114778   6.133   1.337   1.058
 4938TIP3    H214779   6.224   1.339   1.179
 4939TIP3   OH214780   1.005   5.948   0.181
 4939TIP3    H114781   1.067   5.957   0.254
 4939TIP3    H214782   1.060   5.919   0.108
 4940TIP3   OH214783   6.434   3.936   2.958
 4940TIP3    H114784   6.408   3.901   2.872
 4940TIP3    H214785   6.514   3.986   2.940
 4941TIP3   OH214786   1.276   1.191   3.545
 4941TIP3    H114787   1.265   1.193   3.640
 4941TIP3    H214788   1.211   1.252   3.511
 4942TIP3   OH214789   6.504   0.586   2.832
 4942TIP3    H114790   6.563   0.638   2.887
 4942TIP3    H214791   6.446   0.542   2.894
 4943TIP3   OH214792   5.440   0.411   1.634
 4943TIP3    H114793   5.410   0.346   1.570
 4943TIP3    H214794   5.371   0.477   1.635
 4944TIP3   OH214795   3.017   5.216   1.044
 4944TIP3    H114796   3.071   5.161   1.099
 4944TIP3    H214797   3.065   5.299   1.038
 4945TIP3   OH214798   1.460   1.895   4.408
 4945TIP3    H114799   1.388   1.858   4.460
 4945TIP3    H214800   1.425   1.901   4.319
 4946TIP3   OH214801   3.310   0.733   3.195
 4946TIP3    H114802   3.237   0.785   3.161
 4946TIP3    H214803   3.287   0.717   3.286
 4947TIP3   OH214804   4.452   1.411   3.485
 4947TIP3    H114805   4.423   1.497   3.454
 4947TIP3    H214806   4.397   1.393   3.561
 4948TIP3   OH214807   1.490   0.589   3.101
 4948TIP3    H114808   1.485   0.667   3.156
 4948TIP3    H214809   1.532   0.523   3.156
 4949TIP3   OH214810   6.606   1.488   3.631
 4949TIP3    H114811   6.594   1.570   3.680
 4949TIP3    H214812   6.601   1.514   3.539
 4950TIP3   OH214813   4.578   1.907   4.066
 4950TIP3    H114814   4.643   1.880   4.131
 4950TIP3    H214815   4.547   1.992   4.097
 4951TIP3   OH214816   0.515   4.281   2.142
 4951TIP3    H114817   0.539   4.373   2.137
 4951TIP3    H214818   0.563   4.247   2.217
 4952TIP3   OH214819   6.377   1.560   5.294
 4952TIP3    H114820   6.297   1.546   5.242
 4952TIP3    H214821   6.448   1.541   5.234
 4953TIP3   OH214822   6.141   3.229   0.130
 4953TIP3    H114823   6.067   3.189   0.084
 4953TIP3    H214824   6.105   3.310   0.168
 4954TIP3   OH214825   4.214   4.977   2.014
 4954TIP3    H114826   4.240   5.000   2.103
 4954TIP3    H214827   4.215   5.060   1.966
 4955TIP3   OH214828   6.916   3.812   2.677
 4955TIP3    H114829   6.960   3.856   2.750
 4955TIP3    H214830   6.952   3.724   2.676
 4956TIP3   OH214831   2.827   6.010   2.753
 4956TIP3    H114832   2.802   5.944   2.818
 4956TIP3    H214833   2.841   5.960   2.672
 4957TIP3   OH214834   0.392   0.662   0.267
 4957TIP3    H114835   0.427   0.716   0.337
 4957TIP3    H214836   0.297   0.659   0.284
 4958TIP3   OH214837   4.850   3.557   3.378
 4958TIP3    H114838   4.840   3.535   3.470
 4958TIP3    H214839   4.883   3.647   3.378
 4959TIP3   OH214840   4.571   1.328   2.553
 4959TIP3    H114841   4.575   1.312   2.458
 4959TIP3    H214842   4.600   1.245   2.592
 4960TIP3   OH214843   6.041   2.616   3.576
 4960TIP3    H114844   6.007   2.706   3.575
 4960TIP3    H214845   5.978   2.566   3.523
 4961TIP3   OH214846   1.385   6.382   4.123
 4961TIP3    H114847   1.425   6.425   4.046
 4961TIP3    H214848   1.412   6.291   4.116
 4962TIP3   OH214849   1.818   6.479   1.746
 4962TIP3    H114850   1.771   6.396   1.760
 4962TIP3    H214851   1.908   6.452   1.727
 4963TIP3   OH214852   4.268   4.097   2.754
 4963TIP3    H114853   4.354   4.134   2.774
 4963TIP3    H214854   4.281   4.003   2.751
 4964TIP3   OH214855   0.770   4.629   2.282
 4964TIP3    H114856   0.822   4.687   2.227
 4964TIP3    H214857   0.701   4.597   2.224
 4965TIP3   OH214858   0.367   2.181   5.572
 4965TIP3    H114859   0.457   2.205   5.550
 4965TIP3    H214860   0.313   2.234   5.514
 4966TIP3   OH214861   7.008   3.420   1.482
 4966TIP3    H114862   7.086   3.462   1.445
 4966TIP3    H214863   6.941   3.488   1.479
 4967TIP3   OH214864   5.247   2.270   0.296
 4967TIP3    H114865   5.297   2.271   0.215
 4967TIP3    H214866   5.261   2.183   0.333
 4968TIP3   OH214867   5.225   2.394   3.874
 4968TIP3    H114868   5.249   2.485   3.857
 4968TIP3    H214869   5.134   2.387   3.844
 4969TIP3   OH214870   5.021   6.454   0.215
 4969TIP3    H114871   4.947   6.421   0.164
 4969TIP3    H214872   5.048   6.380   0.269
 4970TIP3   OH214873   0.060   3.414   3.313
 4970TIP3    H114874   0.147   3.388   3.344
 4970TIP3    H214875   0.048   3.502   3.349
 4971TIP3   OH214876   1.822   1.523   5.792
 4971TIP3    H114877   1.905   1.481   5.773
 4971TIP3    H214878   1.810   1.512   5.886
 4972TIP3   OH214879   3.703   5.839   0.790
 4972TIP3    H114880   3.755   5.919   0.783
 4972TIP3    H214881   3.643   5.856   0.863
 4973TIP3   OH214882   2.124   1.290   4.356
 4973TIP3    H114883   2.218   1.280   4.345
 4973TIP3    H214884   2.094   1.327   4.273
 4974TIP3   OH214885   0.218   1.853   4.791
 4974TIP3    H114886   0.196   1.761   4.776
 4974TIP3    H214887   0.248   1.885   4.706
 4975TIP3   OH214888   4.941   5.126   0.075
 4975TIP3    H114889   4.933   5.083   0.160
 4975TIP3    H214890   5.034   5.151   0.069
 4976TIP3   OH214891   6.913   0.881   2.149
 4976TIP3    H114892   6.894   0.892   2.056
 4976TIP3    H214893   7.002   0.915   2.160
 4977TIP3   OH214894   1.453   0.031   1.063
 4977TIP3    H114895   1.516   0.056   0.996
 4977TIP3    H214896   1.503  -0.027   1.122
 4978TIP3   OH214897   6.789   6.503   4.696
 4978TIP3    H114898   6.849   6.551   4.639
 4978TIP3    H214899   6.711   6.488   4.643
 4979TIP3   OH214900   2.834   4.059   1.089
 4979TIP3    H114901   2.865   4.139   1.047
 4979TIP3    H214902   2.847   4.073   1.182
 4980TIP3   OH214903   4.169   4.690   4.330
 4980TIP3    H114904   4.075   4.690   4.314
 4980TIP3    H214905   4.181   4.744   4.408
 4981TIP3   OH214906   6.318   5.172   2.265
 4981TIP3    H114907   6.260   5.108   2.307
 4981TIP3    H214908   6.276   5.257   2.282
 4982TIP3   OH214909   2.364   2.918   0.485
 4982TIP3    H114910   2.401   2.851   0.542
 4982TIP3    H214911   2.313   2.974   0.544
 4983TIP3   OH214912   5.626   0.119   4.028
 4983TIP3    H114913   5.563   0.048   4.038
 4983TIP3    H214914   5.703   0.077   3.989
 4984TIP3   OH214915   5.839   5.504   5.238
 4984TIP3    H114916   5.886   5.463   5.311
 4984TIP3    H214917   5.861   5.449   5.162
 4985TIP3   OH214918   5.193   1.417   4.627
 4985TIP3    H114919   5.111   1.444   4.586
 4985TIP3    H214920   5.207   1.481   4.696
 4986TIP3   OH214921   0.215   0.086   3.999
 4986TIP3    H114922   0.139   0.029   4.010
 4986TIP3    H214923   0.180   0.174   4.012
 4987TIP3   OH214924   3.274   5.356   1.899
 4987TIP3    H114925   3.326   5.372   1.978
 4987TIP3    H214926   3.184   5.373   1.927
 4988TIP3   OH214927   1.603   3.776   3.206
 4988TIP3    H114928   1.585   3.781   3.113
 4988TIP3    H214929   1.683   3.827   3.218
 4989TIP3   OH214930   1.432   0.334   2.142
 4989TIP3    H114931   1.446   0.330   2.047
 4989TIP3    H214932   1.340   0.309   2.154
 4990TIP3   OH214933   3.717   3.125   3.245
 4990TIP3    H114934   3.639   3.112   3.299
 4990TIP3    H214935   3.759   3.039   3.243
 4991TIP3   OH214936   3.213   4.343   1.530
 4991TIP3    H114937   3.172   4.269   1.484
 4991TIP3    H214938   3.227   4.408   1.462
 4992TIP3   OH214939   5.998   2.979   5.850
 4992TIP3    H114940   6.089   2.958   5.870
 4992TIP3    H214941   5.955   2.982   5.935
 4993TIP3   OH214942   6.335   3.969   0.052
 4993TIP3    H114943   6.415   4.000   0.094
 4993TIP3    H214944   6.359   3.885   0.013
 4994TIP3   OH214945   4.658   5.084   3.231
 4994TIP3    H114946   4.725   5.024   3.264
 4994TIP3    H214947   4.614   5.035   3.161
 4995TIP3   OH214948   0.962   3.291   4.338
 4995TIP3    H114949   0.990   3.252   4.255
 4995TIP3    H214950   0.920   3.219   4.385
 4996TIP3   OH214951   6.703   5.186   0.895
 4996TIP3    H114952   6.725   5.257   0.834
 4996TIP3    H214953   6.770   5.119   0.879
 4997TIP3   OH214954   3.854   4.943   5.517
 4997TIP3    H114955   3.799   4.947   5.439
 4997TIP3    H214956   3.839   4.855   5.552
 4998TIP3   OH214957   1.569   5.055   5.473
 4998TIP3    H114958   1.647   5.054   5.419
 4998TIP3    H214959   1.546   4.962   5.483
 4999TIP3   OH214960   3.735   5.362   1.380
 4999TIP3    H114961   3.816   5.412   1.371
 4999TIP3    H214962   3.751   5.305   1.456
 5000TIP3   OH214963   3.385   4.191   3.206
 5000TIP3    H114964   3.304   4.236   3.231
 5000TIP3    H214965   3.418   4.241   3.131
 5001TIP3   OH214966   1.941   6.810   1.965
 5001TIP3    H114967   1.978   6.890   2.001
 5001TIP3    H214968   1.998   6.787   1.892
 5002TIP3   OH214969   3.729   4.883   2.010
 5002TIP3    H114970   3.728   4.803   1.957
 5002TIP3    H214971   3.691   4.857   2.093
 5003TIP3   OH214972   4.954   0.660   2.949
 5003TIP3    H114973   4.923   0.726   2.887
 5003TIP3    H214974   5.037   0.695   2.981
 5004TIP3   OH214975   5.072   1.111   1.684
 5004TIP3    H114976   5.011   1.075   1.619
 5004TIP3    H214977   5.030   1.190   1.716
 5005TIP3   OH214978   3.697   2.245   4.139
 5005TIP3    H114979   3.764   2.179   4.152
 5005TIP3    H214980   3.681   2.280   4.227
 5006TIP3   OH214981   3.824   2.355   0.908
 5006TIP3    H114982   3.818   2.390   0.819
 5006TIP3    H214983   3.913   2.375   0.936
 5007TIP3   OH214984   1.775   4.552   2.749
 5007TIP3    H114985   1.844   4.558   2.815
 5007TIP3    H214986   1.698   4.523   2.797
 5008TIP3   OH214987   3.385   2.598   2.719
 5008TIP3    H114988   3.373   2.569   2.809
 5008TIP3    H214989   3.297   2.600   2.682
 5009TIP3   OH214990   1.408   3.315   1.977
 5009TIP3    H114991   1.360   3.327   2.059
 5009TIP3    H214992   1.363   3.372   1.914
 5010TIP3   OH214993   1.468   2.283   4.679
 5010TIP3    H114994   1.391   2.296   4.734
 5010TIP3    H214995   1.535   2.338   4.718
 5011TIP3   OH214996   2.949   4.878   3.539
 5011TIP3    H114997   2.964   4.927   3.458
 5011TIP3    H214998   2.883   4.813   3.516
 5012TIP3   OH214999   2.663   4.571   5.572
 5012TIP3    H115000   2.582   4.609   5.538
 5012TIP3    H215001   2.732   4.626   5.534
 5013TIP3   OH215002   6.925   2.421   3.931
 5013TIP3    H115003   6.957   2.373   4.008
 5013TIP3    H215004   6.968   2.506   3.937
 5014TIP3   OH215005   5.003   1.340   4.182
 5014TIP3    H115006   5.061   1.408   4.149
 5014TIP3    H215007   4.916   1.380   4.179
 5015TIP3   OH215008   1.595  -0.018   5.215
 5015TIP3    H115009   1.648   0.053   5.251
 5015TIP3    H215010   1.576   0.010   5.125
 5016TIP3   OH215011   5.105   5.526   3.476
 5016TIP3    H115012   5.060   5.584   3.537
 5016TIP3    H215013   5.146   5.586   3.413
 5017TIP3   OH215014   2.836   5.535   2.156
 5017TIP3    H115015   2.927   5.505   2.157
 5017TIP3    H215016   2.837   5.616   2.105
 5018TIP3   OH215017   6.771   2.389   4.586
 5018TIP3    H115018   6.707   2.324   4.617
 5018TIP3    H215019   6.856   2.352   4.610
 5019TIP3   OH215020   3.306   5.197   1.687
 5019TIP3    H115021   3.296   5.250   1.766
 5019TIP3    H215022   3.375   5.135   1.708
 5020TIP3   OH215023   2.926   4.550   3.028
 5020TIP3    H115024   2.950   4.589   2.944
 5020TIP3    H215025   3.005   4.559   3.082
 5021TIP3   OH215026   5.054   3.740   4.366
 5021TIP3    H115027   5.147   3.753   4.353
 5021TIP3    H215028   5.042   3.745   4.460
 5022TIP3   OH215029   3.218   1.004   0.152
 5022TIP3    H115030   3.239   1.028   0.062
 5022TIP3    H215031   3.170   1.079   0.188
 5023TIP3   OH215032   5.314   4.333   4.489
 5023TIP3    H115033   5.343   4.359   4.402
 5023TIP3    H215034   5.392   4.300   4.533
 5024TIP3   OH215035   5.065   6.606   2.786
 5024TIP3    H115036   5.015   6.677   2.826
 5024TIP3    H215037   5.148   6.647   2.762
 5025TIP3   OH215038   1.723   6.360   0.192
 5025TIP3    H115039   1.765   6.278   0.219
 5025TIP3    H215040   1.629   6.343   0.202
 5026TIP3   OH215041   0.913   4.734   3.923
 5026TIP3    H115042   1.006   4.748   3.941
 5026TIP3    H215043   0.909   4.647   3.882
 5027TIP3   OH215044   3.423   4.680   5.095
 5027TIP3    H115045   3.455   4.765   5.066
 5027TIP3    H215046   3.428   4.624   5.018
 5028TIP3   OH215047   0.115   3.741   1.989
 5028TIP3    H115048   0.108   3.833   1.961
 5028TIP3    H215049   0.203   3.715   1.961
 5029TIP3   OH215050   5.693   4.521   2.946
 5029TIP3    H115051   5.637   4.588   2.985
 5029TIP3    H215052   5.663   4.439   2.983
 5030TIP3   OH215053   6.791   2.970   5.004
 5030TIP3    H115054   6.776   2.935   5.091
 5030TIP3    H215055   6.856   2.912   4.965
 5031TIP3   OH215056   2.905   5.087   3.765
 5031TIP3    H115057   2.916   5.015   3.703
 5031TIP3    H215058   2.992   5.129   3.769
 5032TIP3   OH215059   2.923   1.401   3.680
 5032TIP3    H115060   2.944   1.338   3.611
 5032TIP3    H215061   2.827   1.398   3.686
 5033TIP3   OH215062   6.965   0.123   3.380
 5033TIP3    H115063   6.977   0.046   3.435
 5033TIP3    H215064   7.045   0.174   3.391
 5034TIP3   OH215065   1.563   4.091   0.635
 5034TIP3    H115066   1.521   4.171   0.665
 5034TIP3    H215067   1.532   4.079   0.545
 5035TIP3   OH215068   2.009   0.338   1.698
 5035TIP3    H115069   2.064   0.340   1.776
 5035TIP3    H215070   2.070   0.321   1.626
 5036TIP3   OH215071   4.390   3.113   4.194
 5036TIP3    H115072   4.314   3.056   4.183
 5036TIP3    H215073   4.428   3.086   4.278
 5037TIP3   OH215074   4.359   2.347   5.476
 5037TIP3    H115075   4.349   2.267   5.423
 5037TIP3    H215076   4.277   2.353   5.525
 5038TIP3   OH215077   0.766   3.260   2.542
 5038TIP3    H115078   0.710   3.260   2.620
 5038TIP3    H215079   0.841   3.207   2.567
 5039TIP3   OH215080   3.041   2.145   2.004
 5039TIP3    H115081   3.021   2.051   2.008
 5039TIP3    H215082   2.986   2.178   1.933
 5040TIP3   OH215083   0.549   3.493   4.064
 5040TIP3    H115084   0.496   3.417   4.086
 5040TIP3    H215085   0.633   3.478   4.108
 5041TIP3   OH215086   4.097   0.907   2.120
 5041TIP3    H115087   4.067   0.872   2.037
 5041TIP3    H215088   4.192   0.899   2.117
 5042TIP3   OH215089   5.155   2.231   2.371
 5042TIP3    H115090   5.133   2.267   2.457
 5042TIP3    H215091   5.206   2.152   2.391
 5043TIP3   OH215092   0.222   3.737   1.642
 5043TIP3    H115093   0.240   3.818   1.593
 5043TIP3    H215094   0.131   3.746   1.670
 5044TIP3   OH215095   5.178   2.606   2.886
 5044TIP3    H115096   5.271   2.609   2.863
 5044TIP3    H215097   5.136   2.665   2.823
 5045TIP3   OH215098   6.157   6.183   5.448
 5045TIP3    H115099   6.201   6.246   5.504
 5045TIP3    H215100   6.200   6.192   5.363
 5046TIP3   OH215101   1.401   1.711   3.362
 5046TIP3    H115102   1.477   1.727   3.419
 5046TIP3    H215103   1.351   1.644   3.407
 5047TIP3   OH215104   0.061   2.329   4.914
 5047TIP3    H115105   0.146   2.344   4.872
 5047TIP3    H215106   0.037   2.240   4.888
 5048TIP3   OH215107   3.265   3.473   4.658
 5048TIP3    H115108   3.224   3.491   4.742
 5048TIP3    H215109   3.291   3.559   4.624
 5049TIP3   OH215110   5.691   2.165   1.722
 5049TIP3    H115111   5.735   2.249   1.710
 5049TIP3    H215112   5.759   2.107   1.755
 5050TIP3   OH215113   5.560   1.959   2.351
 5050TIP3    H115114   5.523   1.882   2.394
 5050TIP3    H215115   5.648   1.966   2.388
 5051TIP3   OH215116   4.317   1.098   1.606
 5051TIP3    H115117   4.299   1.071   1.696
 5051TIP3    H215118   4.325   1.194   1.611
 5052TIP3   OH215119   1.625   4.355   5.600
 5052TIP3    H115120   1.550   4.407   5.627
 5052TIP3    H215121   1.631   4.286   5.666
 5053TIP3   OH215122   1.725   0.484   0.500
 5053TIP3    H115123   1.707   0.562   0.448
 5053TIP3    H215124   1.813   0.457   0.474
 5054TIP3   OH215125   3.594   5.477   4.548
 5054TIP3    H115126   3.588   5.394   4.595
 5054TIP3    H215127   3.503   5.506   4.539
 5055TIP3   OH215128   2.264   5.463   0.220
 5055TIP3    H115129   2.180   5.508   0.225
 5055TIP3    H215130   2.259   5.411   0.140
 5056TIP3   OH215131   4.573   1.525   3.885
 5056TIP3    H115132   4.647   1.522   3.946
 5056TIP3    H215133   4.609   1.494   3.802
 5057TIP3   OH215134   5.872   5.515   3.582
 5057TIP3    H115135   5.968   5.512   3.584
 5057TIP3    H215136   5.849   5.576   3.653
 5058TIP3   OH215137   2.041   3.728   2.765
 5058TIP3    H115138   2.105   3.689   2.824
 5058TIP3    H215139   2.091   3.791   2.713
 5059TIP3   OH215140   6.460   0.927   1.741
 5059TIP3    H115141   6.383   0.927   1.684
 5059TIP3    H215142   6.526   0.977   1.693
 5060TIP3   OH215143   5.955   5.975   5.278
 5060TIP3    H115144   5.905   5.925   5.214
 5060TIP3    H215145   5.889   6.026   5.326
 5061TIP3   OH215146   1.282   5.692   3.322
 5061TIP3    H115147   1.289   5.785   3.342
 5061TIP3    H215148   1.331   5.649   3.392
 5062TIP3   OH215149   6.079   1.249   3.984
 5062TIP3    H115150   6.011   1.226   3.921
 5062TIP3    H215151   6.060   1.340   4.009
 5063TIP3   OH215152   2.300   5.411   5.699
 5063TIP3    H115153   2.262   5.498   5.688
 5063TIP3    H215154   2.226   5.355   5.720
 5064TIP3   OH215155   2.260   2.271   4.192
 5064TIP3    H115156   2.252   2.275   4.097
 5064TIP3    H215157   2.175   2.300   4.225
 5065TIP3   OH215158   1.595   5.889   5.460
 5065TIP3    H115159   1.599   5.983   5.444
 5065TIP3    H215160   1.658   5.874   5.530
 5066TIP3   OH215161   3.258   2.977   3.632
 5066TIP3    H115162   3.245   3.052   3.690
 5066TIP3    H215163   3.201   2.909   3.668
 5067TIP3   OH215164   2.597   4.258   2.952
 5067TIP3    H115165   2.689   4.236   2.960
 5067TIP3    H215166   2.571   4.288   3.039
 5068TIP3   OH215167   6.726   4.899   2.555
 5068TIP3    H115168   6.766   4.954   2.623
 5068TIP3    H215169   6.720   4.812   2.596
 5069TIP3   OH215170   6.117   6.724   4.261
 5069TIP3    H115171   6.025   6.750   4.254
 5069TIP3    H215172   6.163   6.784   4.202
 5070TIP3   OH215173   4.667   5.156   4.022
 5070TIP3    H115174   4.729   5.086   4.043
 5070TIP3    H215175   4.649   5.198   4.107
 5071TIP3   OH215176   1.353   5.214   0.844
 5071TIP3    H115177   1.337   5.130   0.887
 5071TIP3    H215178   1.350   5.278   0.915
 5072TIP3   OH215179   3.524   0.463   2.254
 5072TIP3    H115180   3.574   0.405   2.311
 5072TIP3    H215181   3.577   0.542   2.248
 5073TIP3   OH215182   5.171   2.883   0.190
 5073TIP3    H115183   5.250   2.866   0.241
 5073TIP3    H215184   5.105   2.826   0.228
 5074TIP3   OH215185   2.277   2.620   3.909
 5074TIP3    H115186   2.214   2.601   3.979
 5074TIP3    H215187   2.238   2.693   3.861
 5075TIP3   OH215188   2.089   5.942   4.279
 5075TIP3    H115189   2.059   5.926   4.190
 5075TIP3    H215190   2.181   5.965   4.270
 5076TIP3   OH215191   3.536   6.392   4.033
 5076TIP3    H115192   3.500   6.475   4.002
 5076TIP3    H215193   3.579   6.414   4.115
 5077TIP3   OH215194   5.737   1.231   0.267
 5077TIP3    H115195   5.796   1.206   0.338
 5077TIP3    H215196   5.795   1.263   0.198
 5078TIP3   OH215197   2.800   6.315   1.893
 5078TIP3    H115198   2.705   6.312   1.900
 5078TIP3    H215199   2.832   6.274   1.973
 5079TIP3   OH215200   4.393   5.544   2.353
 5079TIP3    H115201   4.299   5.549   2.374
 5079TIP3    H215202   4.416   5.453   2.371
 5080TIP3   OH215203   5.474   2.280   0.150
 5080TIP3    H115204   5.495   2.231   0.071
 5080TIP3    H215205   5.548   2.266   0.208
 5081TIP3   OH215206   5.471   4.245   5.145
 5081TIP3    H115207   5.495   4.318   5.087
 5081TIP3    H215208   5.378   4.257   5.160
 5082TIP3   OH215209   6.736   3.986   4.607
 5082TIP3    H115210   6.649   3.949   4.624
 5082TIP3    H215211   6.749   3.974   4.513
 5083TIP3   OH215212   5.049   4.003   1.553
 5083TIP3    H115213   5.110   3.957   1.494
 5083TIP3    H215214   5.087   4.090   1.564
 5084TIP3   OH215215   0.422   4.596   3.705
 5084TIP3    H115216   0.468   4.616   3.787
 5084TIP3    H215217   0.479   4.534   3.660
 5085TIP3   OH215218   3.847   0.557   2.107
 5085TIP3    H115219   3.802   0.604   2.036
 5085TIP3    H215220   3.939   0.579   2.095
 5086TIP3   OH215221   0.767   1.394   1.498
 5086TIP3    H115222   0.766   1.410   1.593
 5086TIP3    H215223   0.840   1.333   1.485
 5087TIP3   OH215224   6.337   1.644   3.685
 5087TIP3    H115225   6.261   1.650   3.627
 5087TIP3    H215226   6.358   1.735   3.705
 5088TIP3   OH215227   5.261   2.235   4.107
 5088TIP3    H115228   5.246   2.298   4.035
 5088TIP3    H215229   5.262   2.289   4.186
 5089TIP3   OH215230   0.671   3.821   3.095
 5089TIP3    H115231   0.639   3.750   3.151
 5089TIP3    H215232   0.762   3.833   3.121
 5090TIP3   OH215233   4.369   4.205   3.015
 5090TIP3    H115234   4.384   4.250   2.932
 5090TIP3    H215235   4.291   4.246   3.051
 5091TIP3   OH215236   2.432   3.310   5.129
 5091TIP3    H115237   2.447   3.305   5.224
 5091TIP3    H215238   2.376   3.386   5.117
 5092TIP3   OH215239   5.593   0.270   4.974
 5092TIP3    H115240   5.634   0.209   4.912
 5092TIP3    H215241   5.628   0.356   4.949
 5093TIP3   OH215242   0.257   2.369   0.851
 5093TIP3    H115243   0.284   2.461   0.860
 5093TIP3    H215244   0.318   2.333   0.786
 5094TIP3   OH215245   6.309   0.354   0.042
 5094TIP3    H115246   6.346   0.432   0.000
 5094TIP3    H215247   6.215   0.360   0.024
 5095TIP3   OH215248   5.592   2.959   0.839
 5095TIP3    H115249   5.548   3.025   0.894
 5095TIP3    H215250   5.574   2.876   0.883
 5096TIP3   OH215251   2.168   1.111   0.427
 5096TIP3    H115252   2.189   1.134   0.518
 5096TIP3    H215253   2.095   1.168   0.405
 5097TIP3   OH215254   4.913   2.219   2.794
 5097TIP3    H115255   4.989   2.268   2.761
 5097TIP3    H215256   4.838   2.264   2.757
 5098TIP3   OH215257   4.360   1.907   0.345
 5098TIP3    H115258   4.440   1.864   0.377
 5098TIP3    H215259   4.297   1.896   0.416
 5099TIP3   OH215260   3.665   3.553   3.738
 5099TIP3    H115261   3.721   3.631   3.737
 5099TIP3    H215262   3.673   3.516   3.650
 5100TIP3   OH215263   0.579   2.475   2.773
 5100TIP3    H115264   0.513   2.409   2.796
 5100TIP3    H215265   0.659   2.444   2.815
 5101TIP3   OH215266   5.220   0.904   4.010
 5101TIP3    H115267   5.128   0.911   3.985
 5101TIP3    H215268   5.219   0.852   4.091
 5102TIP3   OH215269   3.907   6.729   0.352
 5102TIP3    H115270   3.835   6.762   0.298
 5102TIP3    H215271   3.939   6.806   0.399
 5103TIP3   OH215272   2.400   2.954   5.265
 5103TIP3    H115273   2.351   3.005   5.330
 5103TIP3    H215274   2.361   2.867   5.268
 5104TIP3   OH215275   4.084   2.034   2.692
 5104TIP3    H115276   4.058   2.124   2.708
 5104TIP3    H215277   4.153   2.040   2.626
 5105TIP3   OH215278   2.608   2.774   2.277
 5105TIP3    H115279   2.601   2.862   2.239
 5105TIP3    H215280   2.602   2.788   2.371
 5106TIP3   OH215281   3.572   4.278   0.629
 5106TIP3    H115282   3.494   4.232   0.658
 5106TIP3    H215283   3.556   4.370   0.652
 5107TIP3   OH215284   5.171   3.605   0.656
 5107TIP3    H115285   5.241   3.646   0.604
 5107TIP3    H215286   5.210   3.591   0.742
 5108TIP3   OH215287   3.185   4.685   1.368
 5108TIP3    H115288   3.265   4.692   1.421
 5108TIP3    H215289   3.216   4.687   1.278
 5109TIP3   OH215290   3.410   5.371   5.185
 5109TIP3    H115291   3.395   5.462   5.209
 5109TIP3    H215292   3.434   5.328   5.267
 5110TIP3   OH215293   0.788   3.110   4.953
 5110TIP3    H115294   0.739   3.191   4.957
 5110TIP3    H215295   0.788   3.086   4.861
 5111TIP3   OH215296   7.182   3.213   0.643
 5111TIP3    H115297   7.096   3.173   0.631
 5111TIP3    H215298   7.213   3.231   0.554
 5112TIP3   OH215299   7.059   4.422   2.136
 5112TIP3    H115300   7.077   4.491   2.072
 5112TIP3    H215301   6.976   4.449   2.177
 5113TIP3   OH215302   3.753   6.496   1.152
 5113TIP3    H115303   3.840   6.511   1.115
 5113TIP3    H215304   3.696   6.556   1.104
 5114TIP3   OH215305   5.907   3.317   3.250
 5114TIP3    H115306   6.002   3.323   3.253
 5114TIP3    H215307   5.883   3.272   3.331
 5115TIP3   OH215308   0.314   3.799   5.606
 5115TIP3    H115309   0.407   3.810   5.585
 5115TIP3    H215310   0.308   3.713   5.648
 5116TIP3   OH215311   3.216   0.451   0.489
 5116TIP3    H115312   3.248   0.371   0.530
 5116TIP3    H215313   3.221   0.433   0.395
 5117TIP3   OH215314   2.773   1.637   4.174
 5117TIP3    H115315   2.707   1.571   4.153
 5117TIP3    H215316   2.811   1.662   4.089
 5118TIP3   OH215317   3.359   0.472   4.275
 5118TIP3    H115318   3.322   0.422   4.348
 5118TIP3    H215319   3.432   0.520   4.315
 5119TIP3   OH215320   6.916   1.841   2.856
 5119TIP3    H115321   6.919   1.782   2.932
 5119TIP3    H215322   6.861   1.795   2.793
 5120TIP3   OH215323   4.562   6.257   1.057
 5120TIP3    H115324   4.644   6.273   1.105
 5120TIP3    H215325   4.555   6.331   0.997
 5121TIP3   OH215326   7.033   1.451   1.991
 5121TIP3    H115327   7.127   1.437   1.986
 5121TIP3    H215328   7.016   1.523   1.930
 5122TIP3   OH215329   2.302   6.644   1.178
 5122TIP3    H115330   2.305   6.738   1.159
 5122TIP3    H215331   2.214   6.629   1.214
 5123TIP3   OH215332   3.744   6.604   1.722
 5123TIP3    H115333   3.734   6.699   1.717
 5123TIP3    H215334   3.833   6.588   1.691
 5124TIP3   OH215335   1.031   6.126   2.954
 5124TIP3    H115336   1.096   6.192   2.927
 5124TIP3    H215337   0.951   6.177   2.971
 5125TIP3   OH215338   4.182   1.759   4.766
 5125TIP3    H115339   4.241   1.738   4.694
 5125TIP3    H215340   4.206   1.848   4.792
 5126TIP3   OH215341   1.942   3.631   3.021
 5126TIP3    H115342   1.981   3.713   3.053
 5126TIP3    H215343   1.937   3.642   2.926
 5127TIP3   OH215344   7.056   5.722   4.487
 5127TIP3    H115345   7.110   5.799   4.470
 5127TIP3    H215346   7.036   5.687   4.400
 5128TIP3   OH215347   1.104   4.974   0.114
 5128TIP3    H115348   1.143   5.045   0.063
 5128TIP3    H215349   1.171   4.905   0.114
 5129TIP3   OH215350   3.939   6.377   5.762
 5129TIP3    H115351   3.892   6.317   5.703
 5129TIP3    H215352   3.987   6.435   5.703
 5130TIP3   OH215353   0.458   1.884   0.479
 5130TIP3    H115354   0.535   1.897   0.534
 5130TIP3    H215355   0.439   1.970   0.444
 5131TIP3   OH215356   6.340   0.062   0.910
 5131TIP3    H115357   6.283  -0.008   0.942
 5131TIP3    H215358   6.296   0.142   0.938
 5132TIP3   OH215359   4.184   3.308   0.933
 5132TIP3    H115360   4.157   3.273   1.018
 5132TIP3    H215361   4.145   3.395   0.930
 5133TIP3   OH215362   4.948   0.818   3.904
 5133TIP3    H115363   4.921   0.866   3.825
 5133TIP3    H215364   4.969   0.730   3.873
 5134TIP3   OH215365   0.685   0.384   3.882
 5134TIP3    H115366   0.740   0.449   3.839
 5134TIP3    H215367   0.745   0.314   3.907
 5135TIP3   OH215368   4.456   1.865   4.916
 5135TIP3    H115369   4.516   1.908   4.855
 5135TIP3    H215370   4.374   1.914   4.910
 5136TIP3   OH215371   0.629   1.446   0.130
 5136TIP3    H115372   0.563   1.496   0.083
 5136TIP3    H215373   0.579   1.383   0.182
 5137TIP3   OH215374   3.075   6.407   3.046
 5137TIP3    H115375   3.158   6.392   3.000
 5137TIP3    H215376   3.017   6.442   2.978
 5138TIP3   OH215377   4.270   0.113   1.158
 5138TIP3    H115378   4.291   0.069   1.075
 5138TIP3    H215379   4.176   0.126   1.155
 5139TIP3   OH215380   5.943   5.222   3.965
 5139TIP3    H115381   6.018   5.170   3.992
 5139TIP3    H215382   5.916   5.185   3.881
 5140TIP3   OH215383   5.283   3.069   3.013
 5140TIP3    H115384   5.282   3.143   3.073
 5140TIP3    H215385   5.191   3.043   3.006
 5141TIP3   OH215386   6.363   3.839   4.021
 5141TIP3    H115387   6.307   3.915   4.005
 5141TIP3    H215388   6.412   3.828   3.940
 5142TIP3   OH215389   5.262   2.904   2.677
 5142TIP3    H115390   5.325   2.957   2.627
 5142TIP3    H215391   5.313   2.828   2.706
 5143TIP3   OH215392   0.852   4.330   0.446
 5143TIP3    H115393   0.944   4.312   0.464
 5143TIP3    H215394   0.804   4.262   0.495
 5144TIP3   OH215395   2.024   5.386   4.325
 5144TIP3    H115396   2.050   5.476   4.343
 5144TIP3    H215397   2.090   5.354   4.263
 5145TIP3   OH215398   2.312   1.054   2.599
 5145TIP3    H115399   2.255   1.107   2.544
 5145TIP3    H215400   2.329   0.976   2.546
 5146TIP3   OH215401   3.818   1.254   4.547
 5146TIP3    H115402   3.892   1.314   4.539
 5146TIP3    H215403   3.741   1.309   4.533
 5147TIP3   OH215404   4.953   5.057   1.905
 5147TIP3    H115405   4.861   5.061   1.876
 5147TIP3    H215406   4.974   5.148   1.927
 5148TIP3   OH215407   4.465   4.968   5.152
 5148TIP3    H115408   4.492   5.059   5.162
 5148TIP3    H215409   4.452   4.957   5.058
 5149TIP3   OH215410   7.058   4.293   5.695
 5149TIP3    H115411   6.982   4.351   5.690
 5149TIP3    H215412   7.020   4.205   5.698
 5150TIP3   OH215413   4.199   6.702   3.568
 5150TIP3    H115414   4.118   6.650   3.562
 5150TIP3    H215415   4.257   6.650   3.623
 5151TIP3   OH215416   4.941   2.144   2.207
 5151TIP3    H115417   5.019   2.172   2.256
 5151TIP3    H215418   4.970   2.141   2.116
 5152TIP3   OH215419   2.010   0.737   1.627
 5152TIP3    H115420   2.036   0.826   1.601
 5152TIP3    H215421   2.047   0.681   1.558
 5153TIP3   OH215422   5.201   1.507   2.932
 5153TIP3    H115423   5.198   1.414   2.911
 5153TIP3    H215424   5.120   1.543   2.894
 5154TIP3   OH215425   1.874   2.495   1.886
 5154TIP3    H115426   1.867   2.575   1.939
 5154TIP3    H215427   1.786   2.458   1.886
 5155TIP3   OH215428   2.899   1.053   3.993
 5155TIP3    H115429   2.821   1.081   3.945
 5155TIP3    H215430   2.960   1.026   3.924
 5156TIP3   OH215431   3.694   2.358   4.418
 5156TIP3    H115432   3.629   2.399   4.476
 5156TIP3    H215433   3.770   2.416   4.423
 5157TIP3   OH215434   0.360   1.446   1.375
 5157TIP3    H115435   0.287   1.490   1.419
 5157TIP3    H215436   0.338   1.450   1.282
 5158TIP3   OH215437   0.068   1.689   0.469
 5158TIP3    H115438   0.110   1.768   0.434
 5158TIP3    H215439  -0.015   1.720   0.505
 5159TIP3   OH215440   2.544   3.863   4.095
 5159TIP3    H115441   2.512   3.775   4.119
 5159TIP3    H215442   2.480   3.895   4.032
 5160TIP3   OH215443   0.114   2.867   5.118
 5160TIP3    H115444   0.153   2.936   5.171
 5160TIP3    H215445   0.071   2.913   5.045
 5161TIP3   OH215446   0.769   4.104   2.965
 5161TIP3    H115447   0.819   4.095   3.046
 5161TIP3    H215448   0.763   4.015   2.931
 5162TIP3   OH215449   4.995   1.570   5.702
 5162TIP3    H115450   4.927   1.586   5.636
 5162TIP3    H215451   5.076   1.561   5.652
 5163TIP3   OH215452   6.613   0.770   4.173
 5163TIP3    H115453   6.707   0.753   4.180
 5163TIP3    H215454   6.599   0.791   4.081
 5164TIP3   OH215455   6.393   6.577   3.541
 5164TIP3    H115456   6.445   6.647   3.582
 5164TIP3    H215457   6.373   6.609   3.454
 5165TIP3   OH215458   1.522   5.263   2.865
 5165TIP3    H115459   1.435   5.241   2.830
 5165TIP3    H215460   1.582   5.247   2.793
 5166TIP3   OH215461   6.738   4.591   4.162
 5166TIP3    H115462   6.647   4.577   4.187
 5166TIP3    H215463   6.767   4.664   4.217
 5167TIP3   OH215464   1.795   1.170   3.831
 5167TIP3    H115465   1.798   1.120   3.912
 5167TIP3    H215466   1.831   1.112   3.765
 5168TIP3   OH215467   4.075   2.045   2.015
 5168TIP3    H115468   4.155   1.998   1.994
 5168TIP3    H215469   4.033   2.060   1.930
 5169TIP3   OH215470   2.617   2.750   0.576
 5169TIP3    H115471   2.703   2.741   0.536
 5169TIP3    H215472   2.615   2.684   0.645
 5170TIP3   OH215473   0.099   2.771   0.289
 5170TIP3    H115474   0.165   2.763   0.357
 5170TIP3    H215475   0.054   2.853   0.309
 5171TIP3   OH215476   2.059   5.352   2.916
 5171TIP3    H115477   2.000   5.394   2.853
 5171TIP3    H215478   2.145   5.391   2.898
 5172TIP3   OH215479   0.492   4.036   3.015
 5172TIP3    H115480   0.567   4.094   2.999
 5172TIP3    H215481   0.532   3.950   3.032
 5173TIP3   OH215482   1.758   1.857   5.061
 5173TIP3    H115483   1.843   1.856   5.105
 5173TIP3    H215484   1.747   1.948   5.033
 5174TIP3   OH215485   7.195   4.397   1.034
 5174TIP3    H115486   7.197   4.420   0.941
 5174TIP3    H215487   7.275   4.434   1.070
 5175TIP3   OH215488   0.567   4.110   4.226
 5175TIP3    H115489   0.537   4.021   4.214
 5175TIP3    H215490   0.582   4.144   4.138
 5176TIP3   OH215491   3.971   3.600   3.676
 5176TIP3    H115492   4.035   3.530   3.690
 5176TIP3    H215493   3.982   3.624   3.584
 5177TIP3   OH215494   3.691   1.948   1.451
 5177TIP3    H115495   3.765   1.888   1.440
 5177TIP3    H215496   3.615   1.896   1.425
 5178TIP3   OH215497   2.149   2.162   3.570
 5178TIP3    H115498   2.182   2.098   3.634
 5178TIP3    H215499   2.110   2.108   3.501
 5179TIP3   OH215500   0.391   1.252   2.771
 5179TIP3    H115501   0.426   1.337   2.744
 5179TIP3    H215502   0.395   1.254   2.866
 5180TIP3   OH215503   4.312   5.982   3.305
 5180TIP3    H115504   4.328   5.887   3.305
 5180TIP3    H215505   4.397   6.020   3.325
 5181TIP3   OH215506   3.598   4.529   5.607
 5181TIP3    H115507   3.585   4.522   5.702
 5181TIP3    H215508   3.524   4.582   5.577
 5182TIP3   OH215509   4.956   2.683   3.393
 5182TIP3    H115510   4.902   2.702   3.470
 5182TIP3    H215511   4.910   2.612   3.349
 5183TIP3   OH215512   6.882   1.350   0.063
 5183TIP3    H115513   6.817   1.279   0.071
 5183TIP3    H215514   6.964   1.305   0.044
 5184TIP3   OH215515   6.039   4.392   5.801
 5184TIP3    H115516   6.098   4.356   5.867
 5184TIP3    H215517   5.981   4.319   5.779
 5185TIP3   OH215518   0.700   6.635   0.914
 5185TIP3    H115519   0.671   6.546   0.934
 5185TIP3    H215520   0.619   6.682   0.891
 5186TIP3   OH215521   6.178   3.194   3.658
 5186TIP3    H115522   6.225   3.271   3.691
 5186TIP3    H215523   6.227   3.119   3.692
 5187TIP3   OH215524   0.845   4.192   3.691
 5187TIP3    H115525   0.897   4.182   3.611
 5187TIP3    H215526   0.809   4.281   3.685
 5188TIP3   OH215527   3.787   4.931   0.695
 5188TIP3    H115528   3.752   5.011   0.733
 5188TIP3    H215529   3.745   4.861   0.744
 5189TIP3   OH215530   5.170   4.333   5.573
 5189TIP3    H115531   5.220   4.400   5.620
 5189TIP3    H215532   5.155   4.265   5.638
 5190TIP3   OH215533   6.602   2.389   3.433
 5190TIP3    H115534   6.616   2.365   3.524
 5190TIP3    H215535   6.684   2.431   3.406
 5191TIP3   OH215536   7.079   1.520   0.657
 5191TIP3    H115537   7.094   1.614   0.658
 5191TIP3    H215538   7.039   1.503   0.571
 5192TIP3   OH215539   7.094   5.230   3.940
 5192TIP3    H115540   7.114   5.194   3.853
 5192TIP3    H215541   7.007   5.197   3.960
 5193TIP3   OH215542   1.679   0.985   5.328
 5193TIP3    H115543   1.607   1.023   5.279
 5193TIP3    H215544   1.728   1.060   5.362
 5194TIP3   OH215545   5.580   1.954   5.430
 5194TIP3    H115546   5.515   2.016   5.397
 5194TIP3    H215547   5.662   1.980   5.388
 5195TIP3   OH215548   0.217   2.440   2.554
 5195TIP3    H115549   0.261   2.525   2.563
 5195TIP3    H215550   0.288   2.376   2.558
 5196TIP3   OH215551   0.035   6.130   3.349
 5196TIP3    H115552   0.080   6.064   3.402
 5196TIP3    H215553  -0.058   6.112   3.362
 5197TIP3   OH215554   6.350   2.361   3.775
 5197TIP3    H115555   6.313   2.403   3.853
 5197TIP3    H215556   6.408   2.427   3.737
 5198TIP3   OH215557   0.084   1.201   2.785
 5198TIP3    H115558   0.177   1.183   2.798
 5198TIP3    H215559   0.054   1.236   2.869
 5199TIP3   OH215560   5.880   0.592   4.471
 5199TIP3    H115561   5.895   0.611   4.563
 5199TIP3    H215562   5.839   0.505   4.470
 5200TIP3   OH215563   2.852   1.934   5.667
 5200TIP3    H115564   2.943   1.961   5.681
 5200TIP3    H215565   2.802   2.015   5.672
 5201TIP3   OH215566   4.405   4.309   0.652
 5201TIP3    H115567   4.398   4.316   0.557
 5201TIP3    H215568   4.315   4.318   0.684
 5202TIP3   OH215569   4.169   4.210   4.717
 5202TIP3    H115570   4.160   4.305   4.709
 5202TIP3    H215571   4.079   4.178   4.720
 5203TIP3   OH215572   6.586   3.437   4.127
 5203TIP3    H115573   6.629   3.360   4.164
 5203TIP3    H215574   6.497   3.434   4.161
 5204TIP3   OH215575   6.645   0.220   5.712
 5204TIP3    H115576   6.638   0.237   5.806
 5204TIP3    H215577   6.554   0.220   5.682
 5205TIP3   OH215578   6.284   3.637   5.517
 5205TIP3    H115579   6.244   3.582   5.449
 5205TIP3    H215580   6.378   3.626   5.505
 5206TIP3   OH215581   1.719   0.203   3.334
 5206TIP3    H115582   1.679   0.117   3.348
 5206TIP3    H215583   1.768   0.193   3.252
 5207TIP3   OH215584   5.720   2.735   5.247
 5207TIP3    H115585   5.762   2.689   5.320
 5207TIP3    H215586   5.699   2.822   5.282
 5208TIP3   OH215587   2.499   1.515   0.326
 5208TIP3    H115588   2.466   1.438   0.280
 5208TIP3    H215589   2.553   1.480   0.397
 5209TIP3   OH215590   6.644   4.691   5.832
 5209TIP3    H115591   6.721   4.638   5.855
 5209TIP3    H215592   6.677   4.781   5.829
 5210TIP3   OH215593   0.946   3.397   5.499
 5210TIP3    H115594   0.982   3.387   5.587
 5210TIP3    H215595   0.871   3.456   5.512
 5211TIP3   OH215596   3.034   6.403   2.652
 5211TIP3    H115597   3.060   6.328   2.705
 5211TIP3    H215598   3.010   6.366   2.567
 5212TIP3   OH215599   2.934   4.013   3.135
 5212TIP3    H115600   2.875   4.088   3.129
 5212TIP3    H215601   2.935   3.992   3.229
 5213TIP3   OH215602   1.016   2.485   4.886
 5213TIP3    H115603   0.993   2.571   4.921
 5213TIP3    H215604   0.945   2.427   4.915
 5214TIP3   OH215605   0.084   5.015   2.368
 5214TIP3    H115606   0.074   5.003   2.463
 5214TIP3    H215607   0.111   4.929   2.336
 5215TIP3   OH215608   0.425   6.191   3.745
 5215TIP3    H115609   0.512   6.204   3.706
 5215TIP3    H215610   0.433   6.110   3.796
 5216TIP3   OH215611   1.375   5.781   3.674
 5216TIP3    H115612   1.303   5.841   3.653
 5216TIP3    H215613   1.377   5.780   3.770
 5217TIP3   OH215614   2.023   3.579   4.502
 5217TIP3    H115615   2.073   3.498   4.506
 5217TIP3    H215616   2.069   3.632   4.436
 5218TIP3   OH215617   3.787   2.203   0.519
 5218TIP3    H115618   3.856   2.241   0.464
 5218TIP3    H215619   3.820   2.215   0.608
 5219TIP3   OH215620   4.822   6.311   1.700
 5219TIP3    H115621   4.802   6.243   1.764
 5219TIP3    H215622   4.797   6.274   1.616
 5220TIP3   OH215623   4.564   1.282   0.350
 5220TIP3    H115624   4.483   1.330   0.370
 5220TIP3    H215625   4.539   1.218   0.284
 5221TIP3   OH215626   6.284   3.656   1.737
 5221TIP3    H115627   6.334   3.576   1.756
 5221TIP3    H215628   6.193   3.628   1.744
 5222TIP3   OH215629   4.329   1.226   2.121
 5222TIP3    H115630   4.411   1.189   2.086
 5222TIP3    H215631   4.348   1.241   2.214
 5223TIP3   OH215632   3.929   5.288   1.865
 5223TIP3    H115633   3.996   5.221   1.879
 5223TIP3    H215634   3.974   5.358   1.818
 5224TIP3   OH215635   2.639   0.117   3.544
 5224TIP3    H115636   2.563   0.160   3.582
 5224TIP3    H215637   2.646   0.034   3.591
 5225TIP3   OH215638   4.611   1.707   3.563
 5225TIP3    H115639   4.641   1.760   3.638
 5225TIP3    H215640   4.679   1.719   3.497
 5226TIP3   OH215641   4.421   0.366   0.327
 5226TIP3    H115642   4.513   0.362   0.354
 5226TIP3    H215643   4.388   0.276   0.340
 5227TIP3   OH215644   3.900   2.994   4.063
 5227TIP3    H115645   3.911   2.913   4.014
 5227TIP3    H215646   3.815   3.028   4.036
 5228TIP3   OH215647   3.643   3.276   1.806
 5228TIP3    H115648   3.649   3.341   1.736
 5228TIP3    H215649   3.602   3.324   1.879
 5229TIP3   OH215650   2.345   0.700   3.247
 5229TIP3    H115651   2.255   0.729   3.265
 5229TIP3    H215652   2.342   0.669   3.157
 5230TIP3   OH215653   4.332   2.163   1.285
 5230TIP3    H115654   4.268   2.208   1.228
 5230TIP3    H215655   4.382   2.234   1.325
 5231TIP3   OH215656   1.846   1.785   1.821
 5231TIP3    H115657   1.837   1.725   1.747
 5231TIP3    H215658   1.845   1.872   1.782
 5232TIP3   OH215659   4.496   6.810   3.808
 5232TIP3    H115660   4.579   6.857   3.796
 5232TIP3    H215661   4.500   6.737   3.746
 5233TIP3   OH215662   3.844   2.744   2.381
 5233TIP3    H115663   3.812   2.658   2.354
 5233TIP3    H215664   3.891   2.778   2.305
 5234TIP3   OH215665   3.372   6.731   1.445
 5234TIP3    H115666   3.369   6.657   1.385
 5234TIP3    H215667   3.423   6.798   1.398
 5235TIP3   OH215668   5.002   1.467   0.914
 5235TIP3    H115669   4.993   1.482   1.008
 5235TIP3    H215670   5.096   1.467   0.899
 5236TIP3   OH215671   0.962   6.734   3.053
 5236TIP3    H115672   0.889   6.796   3.050
 5236TIP3    H215673   0.947   6.676   2.979
 5237TIP3   OH215674   6.631   3.120   2.057
 5237TIP3    H115675   6.721   3.086   2.062
 5237TIP3    H215676   6.587   3.062   1.995
 5238TIP3   OH215677   0.756   5.557   2.936
 5238TIP3    H115678   0.757   5.469   2.973
 5238TIP3    H215679   0.824   5.604   2.984
 5239TIP3   OH215680   3.815   4.400   5.502
 5239TIP3    H115681   3.734   4.435   5.541
 5239TIP3    H215682   3.877   4.399   5.575
 5240TIP3   OH215683   6.329   3.067   3.007
 5240TIP3    H115684   6.399   3.102   3.061
 5240TIP3    H215685   6.252   3.118   3.030
 5241TIP3   OH215686   6.197   2.197   2.825
 5241TIP3    H115687   6.160   2.278   2.791
 5241TIP3    H215688   6.173   2.196   2.918
 5242TIP3   OH215689   4.764   1.770   1.202
 5242TIP3    H115690   4.803   1.702   1.257
 5242TIP3    H215691   4.735   1.837   1.263
 5243TIP3   OH215692   6.275   1.047   0.408
 5243TIP3    H115693   6.268   1.051   0.504
 5243TIP3    H215694   6.369   1.036   0.391
 5244TIP3   OH215695   2.663   0.408   1.275
 5244TIP3    H115696   2.714   0.478   1.234
 5244TIP3    H215697   2.623   0.362   1.202
 5245TIP3   OH215698   2.256   3.120   0.821
 5245TIP3    H115699   2.348   3.141   0.833
 5245TIP3    H215700   2.218   3.198   0.782
 5246TIP3   OH215701   2.507   4.176   3.473
 5246TIP3    H115702   2.423   4.218   3.495
 5246TIP3    H215703   2.511   4.101   3.532
 5247TIP3   OH215704   1.103   6.591   4.803
 5247TIP3    H115705   1.039   6.539   4.754
 5247TIP3    H215706   1.069   6.680   4.798
 5248TIP3   OH215707   4.383   5.040   0.162
 5248TIP3    H115708   4.432   5.113   0.124
 5248TIP3    H215709   4.303   5.080   0.196
 5249TIP3   OH215710   3.108   6.116   4.765
 5249TIP3    H115711   3.141   6.154   4.683
 5249TIP3    H215712   3.187   6.096   4.815
 5250TIP3   OH215713   3.235   3.151   0.844
 5250TIP3    H115714   3.286   3.226   0.816
 5250TIP3    H215715   3.284   3.075   0.813
 5251TIP3   OH215716   4.853   2.055   5.571
 5251TIP3    H115717   4.835   2.119   5.640
 5251TIP3    H215718   4.766   2.026   5.543
 5252TIP3   OH215719   4.026   2.649   5.756
 5252TIP3    H115720   4.087   2.594   5.805
 5252TIP3    H215721   4.032   2.616   5.666
 5253TIP3   OH215722   1.043   3.746   0.889
 5253TIP3    H115723   0.977   3.754   0.957
 5253TIP3    H215724   1.119   3.794   0.922
 5254TIP3   OH215725   1.795   5.130   4.830
 5254TIP3    H115726   1.851   5.089   4.764
 5254TIP3    H215727   1.751   5.056   4.873
 5255TIP3   OH215728   6.664   6.344   3.483
 5255TIP3    H115729   6.616   6.281   3.429
 5255TIP3    H215730   6.753   6.342   3.449
 5256TIP3   OH215731   1.337   6.632   2.755
 5256TIP3    H115732   1.409   6.670   2.806
 5256TIP3    H215733   1.324   6.692   2.682
 5257TIP3   OH215734   3.153   4.072   1.429
 5257TIP3    H115735   3.247   4.084   1.442
 5257TIP3    H215736   3.140   3.978   1.440
 5258TIP3   OH215737   0.234   0.667   2.852
 5258TIP3    H115738   0.178   0.677   2.929
 5258TIP3    H215739   0.313   0.717   2.873
 5259TIP3   OH215740   4.972   6.585   3.659
 5259TIP3    H115741   4.980   6.603   3.565
 5259TIP3    H215742   5.023   6.655   3.700
 5260TIP3   OH215743   6.032   4.818   0.972
 5260TIP3    H115744   6.017   4.903   0.931
 5260TIP3    H215745   6.126   4.802   0.959
 5261TIP3   OH215746   1.672   0.408   4.910
 5261TIP3    H115747   1.706   0.319   4.897
 5261TIP3    H215748   1.703   0.457   4.834
 5262TIP3   OH215749   4.767   3.971   0.698
 5262TIP3    H115750   4.719   3.889   0.710
 5262TIP3    H215751   4.719   4.036   0.750
 5263TIP3   OH215752   1.051   3.262   1.338
 5263TIP3    H115753   1.096   3.240   1.256
 5263TIP3    H215754   1.035   3.356   1.333
 5264TIP3   OH215755   3.145   0.501   2.908
 5264TIP3    H115756   3.109   0.486   2.820
 5264TIP3    H215757   3.074   0.479   2.967
 5265TIP3   OH215758   3.936   6.349   2.749
 5265TIP3    H115759   3.853   6.368   2.706
 5265TIP3    H215760   3.971   6.273   2.701
 5266TIP3   OH215761   2.254   3.977   5.527
 5266TIP3    H115762   2.230   4.041   5.594
 5266TIP3    H215763   2.175   3.926   5.513
 5267TIP3   OH215764   3.484   0.307   4.038
 5267TIP3    H115765   3.412   0.291   4.099
 5267TIP3    H215766   3.467   0.394   4.003
 5268TIP3   OH215767   2.774   1.950   4.301
 5268TIP3    H115768   2.744   1.886   4.236
 5268TIP3    H215769   2.782   1.899   4.382
 5269TIP3   OH215770   5.433   2.058   1.776
 5269TIP3    H115771   5.528   2.066   1.769
 5269TIP3    H215772   5.419   1.972   1.817
 5270TIP3   OH215773   4.703   2.527   2.503
 5270TIP3    H115774   4.750   2.607   2.480
 5270TIP3    H215775   4.611   2.552   2.501
 5271TIP3   OH215776   5.649   0.588   1.623
 5271TIP3    H115777   5.591   0.513   1.634
 5271TIP3    H215778   5.590   0.662   1.610
 5272TIP3   OH215779   5.480   3.630   2.242
 5272TIP3    H115780   5.477   3.602   2.151
 5272TIP3    H215781   5.388   3.639   2.268
 5273TIP3   OH215782   4.081   4.630   5.583
 5273TIP3    H115783   4.111   4.617   5.493
 5273TIP3    H215784   3.992   4.664   5.574
 5274TIP3   OH215785   3.133   0.764   2.467
 5274TIP3    H115786   3.224   0.735   2.466
 5274TIP3    H215787   3.138   0.859   2.460
 5275TIP3   OH215788   0.632   1.427   1.748
 5275TIP3    H115789   0.571   1.500   1.758
 5275TIP3    H215790   0.587   1.366   1.691
 5276TIP3   OH215791   5.541   3.437   1.123
 5276TIP3    H115792   5.635   3.428   1.138
 5276TIP3    H215793   5.501   3.369   1.177
 5277TIP3   OH215794   4.559   3.800   0.788
 5277TIP3    H115795   4.501   3.732   0.753
 5277TIP3    H215796   4.514   3.882   0.768
 5278TIP3   OH215797   4.324   4.975   4.853
 5278TIP3    H115798   4.245   5.028   4.856
 5278TIP3    H215799   4.354   4.982   4.762
 5279TIP3   OH215800   6.242   0.444   5.106
 5279TIP3    H115801   6.268   0.416   5.018
 5279TIP3    H215802   6.291   0.525   5.121
 5280TIP3   OH215803   2.934   2.058   0.099
 5280TIP3    H115804   3.002   1.997   0.130
 5280TIP3    H215805   2.977   2.108   0.030
 5281TIP3   OH215806   0.473   3.259   0.786
 5281TIP3    H115807   0.496   3.219   0.870
 5281TIP3    H215808   0.555   3.297   0.754
 5282TIP3   OH215809   6.859   0.549   1.333
 5282TIP3    H115810   6.928   0.499   1.376
 5282TIP3    H215811   6.806   0.482   1.289
 5283TIP3   OH215812   1.392   4.882   0.402
 5283TIP3    H115813   1.480   4.865   0.436
 5283TIP3    H215814   1.336   4.818   0.446
 5284TIP3   OH215815   6.061   5.081   2.098
 5284TIP3    H115816   6.055   5.053   2.190
 5284TIP3    H215817   6.047   5.001   2.048
 5285TIP3   OH215818   5.183   0.767   0.666
 5285TIP3    H115819   5.131   0.701   0.712
 5285TIP3    H215820   5.222   0.819   0.737
 5286TIP3   OH215821   5.098   3.046   4.340
 5286TIP3    H115822   5.172   3.093   4.380
 5286TIP3    H215823   5.137   3.000   4.266
 5287TIP3   OH215824   3.752   0.806   4.335
 5287TIP3    H115825   3.709   0.746   4.396
 5287TIP3    H215826   3.842   0.773   4.328
 5288TIP3   OH215827   1.670   4.313   4.119
 5288TIP3    H115828   1.626   4.318   4.034
 5288TIP3    H215829   1.634   4.234   4.161
 5289TIP3   OH215830   1.171   2.985   2.328
 5289TIP3    H115831   1.143   2.952   2.413
 5289TIP3    H215832   1.237   2.923   2.298
 5290TIP3   OH215833   1.493   5.666   5.354
 5290TIP3    H115834   1.547   5.602   5.307
 5290TIP3    H215835   1.555   5.733   5.383
 5291TIP3   OH215836   0.866   2.764   0.940
 5291TIP3    H115837   0.879   2.709   0.862
 5291TIP3    H215838   0.807   2.834   0.911
 5292TIP3   OH215839   2.899   1.387   4.053
 5292TIP3    H115840   2.819   1.351   4.089
 5292TIP3    H215841   2.870   1.461   3.999
 5293TIP3   OH215842   6.372   4.153   5.469
 5293TIP3    H115843   6.328   4.186   5.547
 5293TIP3    H215844   6.463   4.139   5.498
 5294TIP3   OH215845   6.062   2.648   0.267
 5294TIP3    H115846   6.074   2.638   0.361
 5294TIP3    H215847   6.140   2.693   0.236
 5295TIP3   OH215848   5.008   4.665   2.391
 5295TIP3    H115849   5.043   4.682   2.478
 5295TIP3    H215850   5.083   4.633   2.340
 5296TIP3   OH215851   4.715   2.468   3.830
 5296TIP3    H115852   4.709   2.530   3.904
 5296TIP3    H215853   4.760   2.518   3.761
 5297TIP3   OH215854   3.052   2.561   3.986
 5297TIP3    H115855   3.059   2.469   3.961
 5297TIP3    H215856   2.999   2.601   3.917
 5298TIP3   OH215857   1.655   3.388   2.858
 5298TIP3    H115858   1.630   3.465   2.807
 5298TIP3    H215859   1.598   3.390   2.934
 5299TIP3   OH215860   5.752   5.098   0.083
 5299TIP3    H115861   5.782   5.041   0.154
 5299TIP3    H215862   5.759   5.044   0.004
 5300TIP3   OH215863   1.823   0.176   1.323
 5300TIP3    H115864   1.738   0.219   1.311
 5300TIP3    H215865   1.836   0.175   1.418
 5301TIP3   OH215866   6.300   3.733   5.158
 5301TIP3    H115867   6.361   3.691   5.097
 5301TIP3    H215868   6.353   3.795   5.207
 5302TIP3   OH215869   4.975   5.369   1.870
 5302TIP3    H115870   4.934   5.370   1.784
 5302TIP3    H215871   5.055   5.421   1.858
 5303TIP3   OH215872   1.986   5.297   4.004
 5303TIP3    H115873   1.980   5.201   4.004
 5303TIP3    H215874   1.925   5.324   3.936
 5304TIP3   OH215875   3.812   1.393   3.545
 5304TIP3    H115876   3.864   1.440   3.610
 5304TIP3    H215877   3.722   1.399   3.578
 5305TIP3   OH215878   6.203   5.049   1.642
 5305TIP3    H115879   6.279   5.050   1.583
 5305TIP3    H215880   6.178   4.956   1.648
 5306TIP3   OH215881   5.736   6.145   5.351
 5306TIP3    H115882   5.651   6.124   5.311
 5306TIP3    H215883   5.716   6.156   5.444
 5307TIP3   OH215884   6.461   3.452   4.643
 5307TIP3    H115885   6.556   3.451   4.626
 5307TIP3    H215886   6.438   3.545   4.642
 5308TIP3   OH215887   7.195   2.932   0.990
 5308TIP3    H115888   7.224   2.844   1.013
 5308TIP3    H215889   7.154   2.923   0.904
 5309TIP3   OH215890   1.713   0.174   0.495
 5309TIP3    H115891   1.738   0.265   0.478
 5309TIP3    H215892   1.773   0.146   0.564
 5310TIP3   OH215893   7.113   1.223   4.221
 5310TIP3    H115894   7.116   1.303   4.274
 5310TIP3    H215895   7.088   1.253   4.134
 5311TIP3   OH215896   7.048   5.891   4.839
 5311TIP3    H115897   7.097   5.971   4.820
 5311TIP3    H215898   6.962   5.921   4.868
 5312TIP3   OH215899   0.998   3.343   5.784
 5312TIP3    H115900   1.024   3.253   5.804
 5312TIP3    H215901   0.938   3.367   5.855
 5313TIP3   OH215902   0.876   1.999   0.915
 5313TIP3    H115903   0.793   2.028   0.954
 5313TIP3    H215904   0.860   1.908   0.889
 5314TIP3   OH215905   0.305   1.913   4.516
 5314TIP3    H115906   0.214   1.887   4.503
 5314TIP3    H215907   0.349   1.889   4.434
 5315TIP3   OH215908   0.921   4.922   4.775
 5315TIP3    H115909   0.940   4.851   4.836
 5315TIP3    H215910   0.984   4.990   4.798
 5316TIP3   OH215911   4.211   3.986   4.302
 5316TIP3    H115912   4.240   3.918   4.363
 5316TIP3    H215913   4.270   4.059   4.319
 5317TIP3   OH215914   3.747   5.582   4.306
 5317TIP3    H115915   3.697   5.560   4.385
 5317TIP3    H215916   3.717   5.670   4.282
 5318TIP3   OH215917   5.381   0.591   2.506
 5318TIP3    H115918   5.416   0.618   2.421
 5318TIP3    H215919   5.309   0.651   2.523
 5319TIP3   OH215920   2.361   1.874   4.071
 5319TIP3    H115921   2.363   1.779   4.079
 5319TIP3    H215922   2.313   1.890   3.989
 5320TIP3   OH215923   1.875   5.254   2.437
 5320TIP3    H115924   1.908   5.168   2.409
 5320TIP3    H215925   1.781   5.250   2.420
 5321TIP3   OH215926   1.830   0.947   0.221
 5321TIP3    H115927   1.920   0.975   0.205
 5321TIP3    H215928   1.789   0.945   0.135
 5322TIP3   OH215929   2.304   1.635   5.836
 5322TIP3    H115930   2.317   1.542   5.814
 5322TIP3    H215931   2.389   1.663   5.871
 5323TIP3   OH215932   4.824   0.637   5.438
 5323TIP3    H115933   4.876   0.651   5.359
 5323TIP3    H215934   4.858   0.700   5.501
 5324TIP3   OH215935   7.064   1.865   0.993
 5324TIP3    H115936   7.096   1.893   1.079
 5324TIP3    H215937   7.122   1.909   0.930
 5325TIP3   OH215938   0.235   2.443   3.180
 5325TIP3    H115939   0.163   2.505   3.193
 5325TIP3    H215940   0.197   2.372   3.129
 5326TIP3   OH215941   2.140   3.850   1.156
 5326TIP3    H115942   2.233   3.874   1.148
 5326TIP3    H215943   2.093   3.925   1.120
 5327TIP3   OH215944   4.216   6.193   3.451
 5327TIP3    H115945   4.264   6.145   3.384
 5327TIP3    H215946   4.124   6.174   3.433
 5328TIP3   OH215947   6.702   6.184   1.260
 5328TIP3    H115948   6.739   6.103   1.295
 5328TIP3    H215949   6.615   6.188   1.299
 5329TIP3   OH215950   0.895   6.677   3.442
 5329TIP3    H115951   0.862   6.767   3.449
 5329TIP3    H215952   0.967   6.684   3.378
 5330TIP3   OH215953   6.197   6.130   3.615
 5330TIP3    H115954   6.139   6.138   3.540
 5330TIP3    H215955   6.270   6.077   3.583
 5331TIP3   OH215956   4.120   2.925   2.369
 5331TIP3    H115957   4.144   2.970   2.289
 5331TIP3    H215958   4.035   2.962   2.394
 5332TIP3   OH215959   1.163   4.788   2.972
 5332TIP3    H115960   1.162   4.864   2.915
 5332TIP3    H215961   1.110   4.722   2.926
 5333TIP3   OH215962   4.496   1.648   5.428
 5333TIP3    H115963   4.423   1.695   5.469
 5333TIP3    H215964   4.491   1.672   5.336
 5334TIP3   OH215965   3.906   6.411   5.428
 5334TIP3    H115966   3.903   6.334   5.485
 5334TIP3    H215967   3.823   6.456   5.445
 5335TIP3   OH215968   6.371   2.271   5.737
 5335TIP3    H115969   6.300   2.208   5.747
 5335TIP3    H215970   6.351   2.317   5.656
 5336TIP3   OH215971   3.724   3.493   3.487
 5336TIP3    H115972   3.746   3.581   3.457
 5336TIP3    H215973   3.676   3.454   3.414
 5337TIP3   OH215974   5.359   2.689   3.078
 5337TIP3    H115975   5.275   2.730   3.098
 5337TIP3    H215976   5.395   2.742   3.007
 5338TIP3   OH215977   1.765   3.548   4.846
 5338TIP3    H115978   1.675   3.575   4.864
 5338TIP3    H215979   1.816   3.587   4.917
 5339TIP3   OH215980   0.681   6.504   3.372
 5339TIP3    H115981   0.612   6.569   3.363
 5339TIP3    H215982   0.752   6.551   3.416
 5340TIP3   OH215983   3.024   5.871   5.383
 5340TIP3    H115984   2.935   5.835   5.382
 5340TIP3    H215985   3.055   5.858   5.472
 5341TIP3   OH215986   5.951   5.099   5.711
 5341TIP3    H115987   6.017   5.169   5.705
 5341TIP3    H215988   5.995   5.023   5.673
 5342TIP3   OH215989   4.785   2.364   0.066
 5342TIP3    H115990   4.840   2.340   0.141
 5342TIP3    H215991   4.699   2.326   0.087
 5343TIP3   OH215992   6.041   1.943   2.386
 5343TIP3    H115993   6.099   2.016   2.407
 5343TIP3    H215994   6.090   1.865   2.414
 5344TIP3   OH215995   5.474   3.227   5.231
 5344TIP3    H115996   5.505   3.317   5.217
 5344TIP3    H215997   5.397   3.219   5.175
 5345TIP3   OH215998   2.749   0.501   4.482
 5345TIP3    H115999   2.746   0.581   4.429
 5345TIP3    H216000   2.785   0.530   4.566
 5346TIP3   OH216001   2.384   5.117   4.843
 5346TIP3    H116002   2.438   5.038   4.836
 5346TIP3    H216003   2.445   5.184   4.873
 5347TIP3   OH216004   2.026   5.182   3.359
 5347TIP3    H116005   2.001   5.135   3.280
 5347TIP3    H216006   1.944   5.191   3.408
 5348TIP3   OH216007   0.534   6.505   0.487
 5348TIP3    H116008   0.514   6.552   0.568
 5348TIP3    H216009   0.538   6.574   0.420
 5349TIP3   OH216010   1.020   6.268   1.655
 5349TIP3    H116011   1.104   6.223   1.641
 5349TIP3    H216012   1.043   6.346   1.704
 5350TIP3   OH216013   0.482   5.381   2.262
 5350TIP3    H116014   0.507   5.290   2.246
 5350TIP3    H216015   0.386   5.380   2.259
 5351TIP3   OH216016   6.328   5.113   4.684
 5351TIP3    H116017   6.398   5.177   4.672
 5351TIP3    H216018   6.263   5.136   4.619
 5352TIP3   OH216019   5.753   6.703   4.834
 5352TIP3    H116020   5.811   6.774   4.864
 5352TIP3    H216021   5.667   6.745   4.826
 5353TIP3   OH216022   0.758   0.098   5.084
 5353TIP3    H116023   0.741   0.010   5.118
 5353TIP3    H216024   0.724   0.156   5.152
 5354TIP3   OH216025   1.623   1.550   2.882
 5354TIP3    H116026   1.706   1.505   2.897
 5354TIP3    H216027   1.569   1.486   2.836
 5355TIP3   OH216028   1.708   1.050   0.445
 5355TIP3    H116029   1.737   1.028   0.357
 5355TIP3    H216030   1.632   1.106   0.433
 5356TIP3   OH216031   4.927   0.116   1.553
 5356TIP3    H116032   4.858   0.180   1.539
 5356TIP3    H216033   4.903   0.042   1.498
 5357TIP3   OH216034   2.512   6.528   2.267
 5357TIP3    H116035   2.533   6.619   2.284
 5357TIP3    H216036   2.450   6.504   2.337
 5358TIP3   OH216037   0.251   4.751   1.093
 5358TIP3    H116038   0.320   4.769   1.157
 5358TIP3    H216039   0.295   4.751   1.009
 5359TIP3   OH216040   2.477   1.541   5.414
 5359TIP3    H116041   2.470   1.622   5.364
 5359TIP3    H216042   2.458   1.471   5.351
 5360TIP3   OH216043   0.692   6.061   1.605
 5360TIP3    H116044   0.671   5.987   1.548
 5360TIP3    H216045   0.773   6.035   1.650
 5361TIP3   OH216046   3.273   0.298   5.071
 5361TIP3    H116047   3.335   0.277   5.141
 5361TIP3    H216048   3.327   0.342   5.004
 5362TIP3   OH216049   0.474   0.513   4.216
 5362TIP3    H116050   0.433   0.598   4.231
 5362TIP3    H216051   0.422   0.452   4.268
 5363TIP3   OH216052   6.573   6.573   2.565
 5363TIP3    H116053   6.485   6.609   2.553
 5363TIP3    H216054   6.621   6.600   2.487
 5364TIP3   OH216055   6.545   0.225   5.003
 5364TIP3    H116056   6.455   0.258   5.001
 5364TIP3    H216057   6.574   0.225   4.912
 5365TIP3   OH216058   3.441   5.671   5.491
 5365TIP3    H116059   3.483   5.755   5.472
 5365TIP3    H216060   3.363   5.671   5.435
 5366TIP3   OH216061   0.676   2.114   4.758
 5366TIP3    H116062   0.585   2.100   4.733
 5366TIP3    H216063   0.679   2.096   4.852
 5367TIP3   OH216064   0.515   6.684   0.278
 5367TIP3    H116065   0.423   6.688   0.306
 5367TIP3    H216066   0.511   6.684   0.183
 5368TIP3   OH216067   4.675   3.208   3.390
 5368TIP3    H116068   4.695   3.272   3.458
 5368TIP3    H216069   4.632   3.259   3.321
 5369TIP3   OH216070   2.782   6.638   3.516
 5369TIP3    H116071   2.820   6.555   3.545
 5369TIP3    H216072   2.837   6.664   3.442
 5370TIP3   OH216073   1.107   4.108   0.307
 5370TIP3    H116074   1.190   4.062   0.322
 5370TIP3    H216075   1.069   4.116   0.394
 5371TIP3   OH216076   3.091   0.099   5.022
 5371TIP3    H116077   3.003   0.123   5.049
 5371TIP3    H216078   3.149   0.150   5.079
 5372TIP3   OH216079   1.970   6.247   3.535
 5372TIP3    H116080   1.951   6.266   3.627
 5372TIP3    H216081   1.993   6.154   3.534
 5373TIP3   OH216082   4.600   1.706   2.178
 5373TIP3    H116083   4.516   1.676   2.213
 5373TIP3    H216084   4.622   1.643   2.110
 5374TIP3   OH216085   6.167   1.821   0.437
 5374TIP3    H116086   6.194   1.913   0.429
 5374TIP3    H216087   6.226   1.785   0.504
 5375TIP3   OH216088   7.082   5.493   2.317
 5375TIP3    H116089   7.095   5.570   2.373
 5375TIP3    H216090   6.989   5.492   2.299
 5376TIP3   OH216091   6.846   1.722   4.237
 5376TIP3    H116092   6.912   1.656   4.259
 5376TIP3    H216093   6.870   1.798   4.290
 5377TIP3   OH216094   1.633   6.025   1.344
 5377TIP3    H116095   1.693   5.951   1.336
 5377TIP3    H216096   1.578   6.020   1.266
 5378TIP3   OH216097   2.020   4.577   2.029
 5378TIP3    H116098   1.980   4.621   1.955
 5378TIP3    H216099   2.020   4.484   2.005
 5379TIP3   OH216100   5.748   2.685   4.204
 5379TIP3    H116101   5.731   2.776   4.229
 5379TIP3    H216102   5.690   2.669   4.129
 5380TIP3   OH216103   6.803   1.209   2.051
 5380TIP3    H116104   6.718   1.230   2.013
 5380TIP3    H216105   6.861   1.278   2.019
 5381TIP3   OH216106   0.666   2.662   4.795
 5381TIP3    H116107   0.721   2.691   4.868
 5381TIP3    H216108   0.581   2.702   4.813
 5382TIP3   OH216109   0.360   0.402   3.490
 5382TIP3    H116110   0.417   0.477   3.501
 5382TIP3    H216111   0.294   0.411   3.558
 5383TIP3   OH216112   1.966   2.973   4.253
 5383TIP3    H116113   2.027   3.022   4.308
 5383TIP3    H216114   1.989   2.997   4.163
 5384TIP3   OH216115   5.846   0.159   0.228
 5384TIP3    H116116   5.894   0.241   0.244
 5384TIP3    H216117   5.786   0.181   0.156
 5385TIP3   OH216118   3.116   4.202   1.846
 5385TIP3    H116119   3.069   4.245   1.918
 5385TIP3    H216120   3.047   4.165   1.791
 5386TIP3   OH216121   4.722   1.837   1.965
 5386TIP3    H116122   4.708   1.849   2.059
 5386TIP3    H216123   4.669   1.761   1.943
 5387TIP3   OH216124   5.328   3.508   4.240
 5387TIP3    H116125   5.314   3.602   4.231
 5387TIP3    H216126   5.319   3.491   4.334
 5388TIP3   OH216127   2.311   4.162   0.321
 5388TIP3    H116128   2.361   4.143   0.400
 5388TIP3    H216129   2.374   4.150   0.250
 5389TIP3   OH216130   0.786   1.133   0.862
 5389TIP3    H116131   0.873   1.148   0.901
 5389TIP3    H216132   0.755   1.221   0.840
 5390TIP3   OH216133   1.808   2.610   2.974
 5390TIP3    H116134   1.903   2.615   2.962
 5390TIP3    H216135   1.796   2.544   3.043
 5391TIP3   OH216136   0.526   1.243   4.319
 5391TIP3    H116137   0.593   1.310   4.336
 5391TIP3    H216138   0.445   1.292   4.306
 5392TIP3   OH216139   4.873   2.945   3.930
 5392TIP3    H116140   4.786   2.922   3.899
 5392TIP3    H216141   4.877   3.040   3.921
 5393TIP3   OH216142   2.606   2.257   2.622
 5393TIP3    H116143   2.603   2.337   2.569
 5393TIP3    H216144   2.516   2.224   2.622
 5394TIP3   OH216145   3.079   2.727   1.112
 5394TIP3    H116146   3.135   2.649   1.104
 5394TIP3    H216147   3.122   2.792   1.056
 5395TIP3   OH216148   1.590   5.664   1.063
 5395TIP3    H116149   1.549   5.652   0.977
 5395TIP3    H216150   1.683   5.647   1.047
 5396TIP3   OH216151   2.342   0.642   1.916
 5396TIP3    H116152   2.257   0.599   1.924
 5396TIP3    H216153   2.386   0.625   2.000
 5397TIP3   OH216154   5.840   2.002   0.418
 5397TIP3    H116155   5.885   2.084   0.435
 5397TIP3    H216156   5.775   1.994   0.488
 5398TIP3   OH216157   1.785   5.039   5.319
 5398TIP3    H116158   1.810   5.126   5.288
 5398TIP3    H216159   1.793   4.983   5.242
 5399TIP3   OH216160   4.902   6.645   2.221
 5399TIP3    H116161   4.989   6.670   2.191
 5399TIP3    H216162   4.898   6.677   2.311
 5400TIP3   OH216163   1.047   6.565   4.469
 5400TIP3    H116164   1.068   6.473   4.454
 5400TIP3    H216165   0.953   6.565   4.488
 5401TIP3   OH216166   6.783   3.912   3.897
 5401TIP3    H116167   6.798   4.006   3.903
 5401TIP3    H216168   6.693   3.903   3.866
 5402TIP3   OH216169   5.829   2.119   0.018
 5402TIP3    H116170   5.871   2.063   0.083
 5402TIP3    H216171   5.889   2.120  -0.057
 5403TIP3   OH216172   1.670   6.150   5.278
 5403TIP3    H116173   1.694   6.177   5.367
 5403TIP3    H216174   1.699   6.222   5.222
 5404TIP3   OH216175   2.576   2.359   0.449
 5404TIP3    H116176   2.662   2.375   0.489
 5404TIP3    H216177   2.550   2.444   0.414
 5405TIP3   OH216178   6.990   6.029   3.352
 5405TIP3    H116179   6.946   5.975   3.418
 5405TIP3    H216180   6.933   6.024   3.275
 5406TIP3   OH216181   5.395   3.784   0.785
 5406TIP3    H116182   5.318   3.829   0.820
 5406TIP3    H216183   5.454   3.776   0.860
 5407TIP3   OH216184   1.890   5.025   4.017
 5407TIP3    H116185   1.965   4.976   4.051
 5407TIP3    H216186   1.897   5.016   3.922
 5408TIP3   OH216187   0.116   5.954   3.020
 5408TIP3    H116188   0.045   5.902   3.058
 5408TIP3    H216189   0.193   5.932   3.073
 5409TIP3   OH216190   4.618   5.124   2.103
 5409TIP3    H116191   4.626   5.218   2.085
 5409TIP3    H216192   4.534   5.115   2.147
 5410TIP3   OH216193   5.045   0.436   2.678
 5410TIP3    H116194   5.046   0.367   2.612
 5410TIP3    H216195   4.953   0.461   2.685
 5411TIP3   OH216196   1.701   0.501   4.231
 5411TIP3    H116197   1.731   0.566   4.295
 5411TIP3    H216198   1.611   0.527   4.211
 5412TIP3   OH216199   4.065   2.078   5.362
 5412TIP3    H116200   4.159   2.060   5.353
 5412TIP3    H216201   4.061   2.155   5.418
 5413TIP3   OH216202   0.214   5.663   5.201
 5413TIP3    H116203   0.181   5.710   5.278
 5413TIP3    H216204   0.176   5.710   5.127
 5414TIP3   OH216205   0.038   0.904   4.472
 5414TIP3    H116206   0.014   0.958   4.397
 5414TIP3    H216207   0.044   0.815   4.437
 5415TIP3   OH216208   5.477   6.662   4.207
 5415TIP3    H116209   5.532   6.637   4.282
 5415TIP3    H216210   5.444   6.749   4.230
 5416TIP3   OH216211   0.960   4.723   1.586
 5416TIP3    H116212   1.027   4.790   1.597
 5416TIP3    H216213   0.884   4.757   1.634
 5417TIP3   OH216214   0.197   0.466   1.671
 5417TIP3    H116215   0.267   0.443   1.610
 5417TIP3    H216216   0.242   0.477   1.755
 5418TIP3   OH216217   2.256   4.645   1.715
 5418TIP3    H116218   2.179   4.689   1.678
 5418TIP3    H216219   2.276   4.576   1.653
 5419TIP3   OH216220   2.013   5.406   4.614
 5419TIP3    H116221   2.089   5.349   4.610
 5419TIP3    H216222   1.999   5.433   4.523
 5420TIP3   OH216223   6.850   1.720   3.639
 5420TIP3    H116224   6.872   1.643   3.691
 5420TIP3    H216225   6.758   1.737   3.657
 5421TIP3   OH216226   1.156   5.052   2.445
 5421TIP3    H116227   1.128   5.047   2.536
 5421TIP3    H216228   1.131   4.967   2.408
 5422TIP3   OH216229   0.269   2.649   2.271
 5422TIP3    H116230   0.213   2.726   2.280
 5422TIP3    H216231   0.343   2.665   2.330
 5423TIP3   OH216232   2.894   6.396   3.609
 5423TIP3    H116233   2.982   6.368   3.583
 5423TIP3    H216234   2.866   6.333   3.674
 5424TIP3   OH216235   2.711   1.018   1.168
 5424TIP3    H116236   2.752   1.102   1.149
 5424TIP3    H216237   2.633   1.016   1.112
 5425TIP3   OH216238   3.717   3.627   2.270
 5425TIP3    H116239   3.749   3.714   2.246
 5425TIP3    H216240   3.648   3.644   2.335
 5426TIP3   OH216241   0.092   1.052   1.007
 5426TIP3    H116242   0.177   1.096   1.002
 5426TIP3    H216243   0.050   1.072   0.923
 5427TIP3   OH216244   3.062   2.273   2.658
 5427TIP3    H116245   3.044   2.203   2.721
 5427TIP3    H216246   3.147   2.250   2.620
 5428TIP3   OH216247   2.268   1.743   4.614
 5428TIP3    H116248   2.217   1.817   4.648
 5428TIP3    H216249   2.300   1.698   4.692
 5429TIP3   OH216250   4.694   1.583   2.862
 5429TIP3    H116251   4.734   1.667   2.881
 5429TIP3    H216252   4.664   1.551   2.947
 5430TIP3   OH216253   2.824   0.176   5.116
 5430TIP3    H116254   2.819   0.182   5.212
 5430TIP3    H216255   2.808   0.265   5.086
 5431TIP3   OH216256   1.397   6.605   5.612
 5431TIP3    H116257   1.407   6.554   5.692
 5431TIP3    H216258   1.482   6.647   5.599
 5432TIP3   OH216259   3.722   3.564   4.341
 5432TIP3    H116260   3.799   3.560   4.396
 5432TIP3    H216261   3.751   3.608   4.261
 5433TIP3   OH216262   5.557   5.552   2.119
 5433TIP3    H116263   5.566   5.507   2.202
 5433TIP3    H216264   5.634   5.609   2.113
 5434TIP3   OH216265   5.834   3.871   2.644
 5434TIP3    H116266   5.866   3.910   2.725
 5434TIP3    H216267   5.739   3.879   2.648
 5435TIP3   OH216268   5.913   5.937   4.405
 5435TIP3    H116269   5.851   5.995   4.360
 5435TIP3    H216270   5.938   5.986   4.484
 5436TIP3   OH216271   0.073   1.343   1.891
 5436TIP3    H116272   0.028   1.303   1.816
 5436TIP3    H216273   0.152   1.381   1.854
 5437TIP3   OH216274   0.432   0.987   4.335
 5437TIP3    H116275   0.478   1.070   4.349
 5437TIP3    H216276   0.368   1.007   4.267
 5438TIP3   OH216277   1.845   4.679   1.450
 5438TIP3    H116278   1.827   4.773   1.442
 5438TIP3    H216279   1.768   4.644   1.493
 5439TIP3   OH216280   2.151   3.878   3.584
 5439TIP3    H116281   2.192   3.891   3.498
 5439TIP3    H216282   2.185   3.794   3.614
 5440TIP3   OH216283   4.862   1.253   1.825
 5440TIP3    H116284   4.802   1.185   1.855
 5440TIP3    H216285   4.912   1.277   1.903
 5441TIP3   OH216286   6.588   6.552   0.664
 5441TIP3    H116287   6.680   6.551   0.639
 5441TIP3    H216288   6.581   6.485   0.732
 5442TIP3   OH216289   7.063   2.787   2.836
 5442TIP3    H116290   7.022   2.868   2.807
 5442TIP3    H216291   7.136   2.814   2.891
 5443TIP3   OH216292   2.429   0.337   4.808
 5443TIP3    H116293   2.334   0.326   4.807
 5443TIP3    H216294   2.445   0.417   4.759
 5444TIP3   OH216295   5.837   1.851   2.944
 5444TIP3    H116296   5.926   1.879   2.920
 5444TIP3    H216297   5.807   1.799   2.870
 5445TIP3   OH216298   2.487   5.037   1.595
 5445TIP3    H116299   2.504   4.948   1.627
 5445TIP3    H216300   2.545   5.092   1.647
 5446TIP3   OH216301   4.215   6.263   1.432
 5446TIP3    H116302   4.140   6.267   1.372
 5446TIP3    H216303   4.176   6.250   1.518
 5447TIP3   OH216304   4.021   4.693   2.904
 5447TIP3    H116305   4.096   4.642   2.874
 5447TIP3    H216306   4.031   4.778   2.861
 5448TIP3   OH216307   6.155   3.960   5.069
 5448TIP3    H116308   6.209   3.888   5.101
 5448TIP3    H216309   6.129   4.007   5.148
 5449TIP3   OH216310   2.517   0.001   0.389
 5449TIP3    H116311   2.540   0.076   0.444
 5449TIP3    H216312   2.423   0.011   0.373
 5450TIP3   OH216313   1.183   1.696   5.212
 5450TIP3    H116314   1.204   1.682   5.304
 5450TIP3    H216315   1.165   1.609   5.178
 5451TIP3   OH216316   4.648   3.548   0.388
 5451TIP3    H116317   4.609   3.618   0.336
 5451TIP3    H216318   4.706   3.594   0.450
 5452TIP3   OH216319   3.229   6.782   1.899
 5452TIP3    H116320   3.199   6.870   1.874
 5452TIP3    H216321   3.149   6.736   1.923
 5453TIP3   OH216322   3.118   0.347   2.272
 5453TIP3    H116323   3.111   0.441   2.254
 5453TIP3    H216324   3.091   0.339   2.364
 5454TIP3   OH216325   2.440   5.295   0.610
 5454TIP3    H116326   2.401   5.287   0.697
 5454TIP3    H216327   2.493   5.375   0.615
 5455TIP3   OH216328   2.266   5.849   3.392
 5455TIP3    H116329   2.187   5.841   3.444
 5455TIP3    H216330   2.265   5.773   3.334
 5456TIP3   OH216331   4.189   0.413   4.013
 5456TIP3    H116332   4.161   0.504   4.003
 5456TIP3    H216333   4.196   0.400   4.107
 5457TIP3   OH216334   4.715   5.561   3.683
 5457TIP3    H116335   4.681   5.594   3.766
 5457TIP3    H216336   4.689   5.470   3.680
 5458TIP3   OH216337   6.711   3.922   4.337
 5458TIP3    H116338   6.791   3.897   4.292
 5458TIP3    H216339   6.642   3.868   4.298
 5459TIP3   OH216340   6.783   0.193   4.027
 5459TIP3    H116341   6.699   0.195   3.983
 5459TIP3    H216342   6.840   0.144   3.968
 5460TIP3   OH216343   3.287   5.508   5.743
 5460TIP3    H116344   3.227   5.519   5.669
 5460TIP3    H216345   3.370   5.482   5.703
 5461TIP3   OH216346   4.915   3.290   0.515
 5461TIP3    H116347   4.864   3.356   0.468
 5461TIP3    H216348   4.890   3.302   0.607
 5462TIP3   OH216349   1.861   3.913   3.215
 5462TIP3    H116350   1.878   3.961   3.296
 5462TIP3    H216351   1.944   3.873   3.192
 5463TIP3   OH216352   0.558   1.121   5.790
 5463TIP3    H116353   0.576   1.095   5.700
 5463TIP3    H216354   0.506   1.049   5.825
 5464TIP3   OH216355   5.034   2.855   4.857
 5464TIP3    H116356   5.008   2.844   4.766
 5464TIP3    H216357   4.959   2.822   4.908
 5465TIP3   OH216358   1.354   1.323   5.357
 5465TIP3    H116359   1.392   1.411   5.353
 5465TIP3    H216360   1.260   1.338   5.348
 5466TIP3   OH216361   6.765   3.839   5.483
 5466TIP3    H116362   6.811   3.794   5.555
 5466TIP3    H216363   6.751   3.770   5.418
 5467TIP3   OH216364   2.441   5.851   2.784
 5467TIP3    H116365   2.404   5.861   2.697
 5467TIP3    H216366   2.512   5.787   2.773
 5468TIP3   OH216367   3.196   5.922   3.001
 5468TIP3    H116368   3.238   6.003   2.973
 5468TIP3    H216369   3.107   5.947   3.024
 5469TIP3   OH216370   3.979   1.648   5.072
 5469TIP3    H116371   4.000   1.642   4.979
 5469TIP3    H216372   4.059   1.682   5.112
 5470TIP3   OH216373   4.435   2.400   5.774
 5470TIP3    H116374   4.483   2.444   5.704
 5470TIP3    H216375   4.482   2.424   5.854
 5471TIP3   OH216376   1.598   5.613   2.696
 5471TIP3    H116377   1.625   5.548   2.632
 5471TIP3    H216378   1.661   5.684   2.686
 5472TIP3   OH216379   3.740   1.118   3.580
 5472TIP3    H116380   3.798   1.193   3.572
 5472TIP3    H216381   3.729   1.106   3.675
 5473TIP3   OH216382   7.017   4.930   2.528
 5473TIP3    H116383   6.923   4.913   2.527
 5473TIP3    H216384   7.055   4.863   2.472
 5474TIP3   OH216385   2.010   0.440   1.050
 5474TIP3    H116386   1.983   0.501   1.119
 5474TIP3    H216387   2.103   0.458   1.036
 5475TIP3   OH216388   2.692   2.023   2.028
 5475TIP3    H116389   2.735   2.097   1.985
 5475TIP3    H216390   2.759   1.954   2.029
 5476TIP3   OH216391   3.711   4.662   5.342
 5476TIP3    H116392   3.684   4.752   5.359
 5476TIP3    H216393   3.755   4.666   5.257
 5477TIP3   OH216394   3.096   3.721   4.850
 5477TIP3    H116395   3.105   3.804   4.897
 5477TIP3    H216396   3.161   3.663   4.890
 5478TIP3   OH216397   6.259   0.402   4.335
 5478TIP3    H116398   6.215   0.480   4.301
 5478TIP3    H216399   6.198   0.366   4.399
 5479TIP3   OH216400   0.936   6.643   0.280
 5479TIP3    H116401   0.998   6.715   0.294
 5479TIP3    H216402   0.903   6.657   0.191
 5480TIP3   OH216403   6.352   4.612   2.981
 5480TIP3    H116404   6.433   4.583   2.938
 5480TIP3    H216405   6.286   4.549   2.951
 5481TIP3   OH216406   5.728   2.454   0.771
 5481TIP3    H116407   5.751   2.361   0.772
 5481TIP3    H216408   5.638   2.456   0.803
 5482TIP3   OH216409   2.535   5.157   4.395
 5482TIP3    H116410   2.601   5.222   4.375
 5482TIP3    H216411   2.530   5.103   4.317
 5483TIP3   OH216412   3.261   4.464   4.344
 5483TIP3    H116413   3.296   4.427   4.425
 5483TIP3    H216414   3.233   4.553   4.369
 5484TIP3   OH216415   6.333   3.035   3.994
 5484TIP3    H116416   6.266   2.984   4.039
 5484TIP3    H216417   6.414   2.985   4.005
 5485TIP3   OH216418   1.902   6.019   1.575
 5485TIP3    H116419   1.815   5.999   1.609
 5485TIP3    H216420   1.957   5.946   1.605
 5486TIP3   OH216421   4.639   6.244   4.035
 5486TIP3    H116422   4.689   6.279   4.109
 5486TIP3    H216423   4.548   6.263   4.057
 5487TIP3   OH216424   6.689   2.034   4.508
 5487TIP3    H116425   6.711   2.004   4.596
 5487TIP3    H216426   6.596   2.056   4.512
 5488TIP3   OH216427   1.526   4.142   5.758
 5488TIP3    H116428   1.542   4.121   5.850
 5488TIP3    H216429   1.433   4.166   5.755
 5489TIP3   OH216430   6.880   5.714   5.730
 5489TIP3    H116431   6.889   5.673   5.816
 5489TIP3    H216432   6.790   5.694   5.702
 5490TIP3   OH216433   4.438   4.115   3.976
 5490TIP3    H116434   4.358   4.064   3.981
 5490TIP3    H216435   4.476   4.109   4.064
 5491TIP3   OH216436   1.734   5.370   2.984
 5491TIP3    H116437   1.756   5.430   2.912
 5491TIP3    H216438   1.652   5.328   2.955
 5492TIP3   OH216439   6.447   6.172   4.943
 5492TIP3    H116440   6.408   6.088   4.968
 5492TIP3    H216441   6.421   6.233   5.013
 5493TIP3   OH216442   4.509   2.339   2.813
 5493TIP3    H116443   4.593   2.382   2.798
 5493TIP3    H216444   4.461   2.398   2.871
 5494TIP3   OH216445   1.523   6.460   5.819
 5494TIP3    H116446   1.469   6.500   5.886
 5494TIP3    H216447   1.473   6.383   5.791
 5495TIP3   OH216448   4.582   0.242   5.797
 5495TIP3    H116449   4.537   0.175   5.745
 5495TIP3    H216450   4.543   0.234   5.884
 5496TIP3   OH216451   0.247   3.977   5.801
 5496TIP3    H116452   0.212   3.911   5.740
 5496TIP3    H216453   0.302   4.033   5.748
 5497TIP3   OH216454   4.151   5.674   1.541
 5497TIP3    H116455   4.130   5.744   1.480
 5497TIP3    H216456   4.218   5.711   1.599
 5498TIP3   OH216457   2.018   3.542   0.268
 5498TIP3    H116458   2.053   3.552   0.179
 5498TIP3    H216459   2.037   3.626   0.311
 5499TIP3   OH216460   1.150   6.507   1.796
 5499TIP3    H116461   1.231   6.554   1.778
 5499TIP3    H216462   1.083   6.575   1.801
 5500TIP3   OH216463   2.449   1.400   5.781
 5500TIP3    H116464   2.509   1.352   5.724
 5500TIP3    H216465   2.468   1.366   5.869
 5501TIP3   OH216466   1.141   0.751   0.620
 5501TIP3    H116467   1.164   0.823   0.562
 5501TIP3    H216468   1.049   0.733   0.602
 5502TIP3   OH216469   5.180   0.888   4.323
 5502TIP3    H116470   5.163   0.857   4.411
 5502TIP3    H216471   5.276   0.891   4.317
 5503TIP3   OH216472   4.002   0.686   1.002
 5503TIP3    H116473   3.921   0.705   0.955
 5503TIP3    H216474   3.982   0.609   1.054
 5504TIP3   OH216475   3.497   3.373   2.674
 5504TIP3    H116476   3.415   3.412   2.643
 5504TIP3    H216477   3.490   3.281   2.649
 5505TIP3   OH216478   4.405   5.676   4.200
 5505TIP3    H116479   4.437   5.669   4.290
 5505TIP3    H216480   4.407   5.587   4.167
 5506TIP3   OH216481   1.597   5.345   3.225
 5506TIP3    H116482   1.640   5.262   3.248
 5506TIP3    H216483   1.621   5.358   3.133
 5507TIP3   OH216484   6.584   3.422   3.685
 5507TIP3    H116485   6.509   3.376   3.720
 5507TIP3    H216486   6.601   3.492   3.748
 5508TIP3   OH216487   0.886   3.078   4.467
 5508TIP3    H116488   0.832   3.024   4.409
 5508TIP3    H216489   0.918   3.017   4.533
 5509TIP3   OH216490   7.184   0.062   1.777
 5509TIP3    H116491   7.206  -0.001   1.845
 5509TIP3    H216492   7.239   0.038   1.703
 5510TIP3   OH216493   6.834   3.179   1.496
 5510TIP3    H116494   6.804   3.166   1.586
 5510TIP3    H216495   6.889   3.257   1.500
 5511TIP3   OH216496   1.424   6.243   0.331
 5511TIP3    H116497   1.337   6.269   0.360
 5511TIP3    H216498   1.459   6.191   0.404
 5512TIP3   OH216499   6.651   3.644   5.296
 5512TIP3    H116500   6.685   3.565   5.253
 5512TIP3    H216501   6.592   3.683   5.232
 5513TIP3   OH216502   2.920   4.896   1.003
 5513TIP3    H116503   2.828   4.878   1.021
 5513TIP3    H216504   2.923   4.989   0.982
 5514TIP3   OH216505   5.669   2.530   3.933
 5514TIP3    H116506   5.743   2.475   3.960
 5514TIP3    H216507   5.707   2.594   3.874
 5515TIP3   OH216508   4.413   3.152   1.368
 5515TIP3    H116509   4.403   3.084   1.301
 5515TIP3    H216510   4.453   3.107   1.443
 5516TIP3   OH216511   6.536   0.446   4.088
 5516TIP3    H116512   6.571   0.534   4.072
 5516TIP3    H216513   6.483   0.427   4.010
 5517TIP3   OH216514   7.148   3.222   2.271
 5517TIP3    H116515   7.098   3.278   2.212
 5517TIP3    H216516   7.223   3.193   2.219
 5518TIP3   OH216517   4.210   2.702   2.227
 5518TIP3    H116518   4.166   2.761   2.289
 5518TIP3    H216519   4.267   2.759   2.176
 5519TIP3   OH216520   0.470   3.561   0.955
 5519TIP3    H116521   0.383   3.532   0.926
 5519TIP3    H216522   0.458   3.590   1.045
 5520TIP3   OH216523   1.767   0.809   2.843
 5520TIP3    H116524   1.734   0.833   2.756
 5520TIP3    H216525   1.845   0.758   2.825
 5521TIP3   OH216526   1.521   4.447   2.814
 5521TIP3    H116527   1.490   4.376   2.871
 5521TIP3    H216528   1.442   4.487   2.779
 5522TIP3   OH216529   6.481   4.715   0.036
 5522TIP3    H116530   6.526   4.703   0.119
 5522TIP3    H216531   6.527   4.657  -0.025
 5523TIP3   OH216532   0.815   5.640   5.521
 5523TIP3    H116533   0.806   5.711   5.585
 5523TIP3    H216534   0.809   5.682   5.436
 5524TIP3   OH216535   0.056   2.606   4.342
 5524TIP3    H116536   0.092   2.583   4.256
 5524TIP3    H216537   0.103   2.685   4.367
 5525TIP3   OH216538   0.093   6.198   1.242
 5525TIP3    H116539   0.178   6.190   1.286
 5525TIP3    H216540   0.056   6.280   1.277
 5526TIP3   OH216541   4.459   6.789   1.190
 5526TIP3    H116542   4.387   6.745   1.144
 5526TIP3    H216543   4.522   6.810   1.121
 5527TIP3   OH216544   4.864   1.725   5.522
 5527TIP3    H116545   4.906   1.772   5.451
 5527TIP3    H216546   4.795   1.785   5.552
 5528TIP3   OH216547   1.404   0.549   4.717
 5528TIP3    H116548   1.405   0.482   4.786
 5528TIP3    H216549   1.448   0.624   4.756
 5529TIP3   OH216550   3.891   5.480   5.469
 5529TIP3    H116551   3.846   5.461   5.387
 5529TIP3    H216552   3.899   5.396   5.513
 5530TIP3   OH216553   3.839   1.682   4.552
 5530TIP3    H116554   3.855   1.768   4.592
 5530TIP3    H216555   3.770   1.698   4.488
 5531TIP3   OH216556   2.661   6.102   3.254
 5531TIP3    H116557   2.568   6.119   3.272
 5531TIP3    H216558   2.669   6.007   3.255
 5532TIP3   OH216559   0.342   3.025   1.303
 5532TIP3    H116560   0.340   3.101   1.245
 5532TIP3    H216561   0.295   3.052   1.381
 5533TIP3   OH216562   3.012   3.568   3.048
 5533TIP3    H116563   3.077   3.509   3.086
 5533TIP3    H216564   2.961   3.512   2.989
 5534TIP3   OH216565   1.094   4.539   2.789
 5534TIP3    H116566   1.006   4.576   2.786
 5534TIP3    H216567   1.080   4.444   2.796
 5535TIP3   OH216568   6.524   1.790   1.903
 5535TIP3    H116569   6.440   1.822   1.938
 5535TIP3    H216570   6.507   1.778   1.809
 5536TIP3   OH216571   4.018   5.057   0.149
 5536TIP3    H116572   4.052   4.976   0.186
 5536TIP3    H216573   4.072   5.126   0.187
 5537TIP3   OH216574   3.886   4.072   2.499
 5537TIP3    H116575   3.916   3.988   2.465
 5537TIP3    H216576   3.795   4.078   2.472
 5538TIP3   OH216577   3.237   5.674   3.313
 5538TIP3    H116578   3.207   5.595   3.358
 5538TIP3    H216579   3.157   5.722   3.291
 5539TIP3   OH216580   4.974   0.083   4.279
 5539TIP3    H116581   5.060   0.043   4.268
 5539TIP3    H216582   4.934   0.032   4.350
 5540TIP3   OH216583   6.769   5.158   2.702
 5540TIP3    H116584   6.824   5.236   2.711
 5540TIP3    H216585   6.696   5.172   2.762
 5541TIP3   OH216586   5.314   3.946   2.179
 5541TIP3    H116587   5.309   4.041   2.184
 5541TIP3    H216588   5.370   3.921   2.252
 5542TIP3   OH216589   5.064   3.435   2.930
 5542TIP3    H116590   4.991   3.496   2.938
 5542TIP3    H216591   5.134   3.486   2.889
 5543TIP3   OH216592   6.015   1.893   1.070
 5543TIP3    H116593   6.006   1.902   1.165
 5543TIP3    H216594   6.095   1.941   1.049
 5544TIP3   OH216595   5.607   6.711   0.906
 5544TIP3    H116596   5.667   6.776   0.869
 5544TIP3    H216597   5.664   6.646   0.947
 5545TIP3   OH216598   6.039   5.033   4.334
 5545TIP3    H116599   6.129   5.064   4.323
 5545TIP3    H216600   5.986   5.113   4.338
 5546TIP3   OH216601   1.148   5.754   2.764
 5546TIP3    H116602   1.212   5.818   2.796
 5546TIP3    H216603   1.077   5.807   2.729
 5547TIP3   OH216604   2.635   4.795   1.123
 5547TIP3    H116605   2.649   4.706   1.091
 5547TIP3    H216606   2.546   4.794   1.158
 5548TIP3   OH216607   0.631   0.748   5.841
 5548TIP3    H116608   0.552   0.802   5.834
 5548TIP3    H216609   0.701   0.810   5.861
 5549TIP3   OH216610   2.359   4.671   0.223
 5549TIP3    H116611   2.336   4.580   0.241
 5549TIP3    H216612   2.413   4.667   0.144
 5550TIP3   OH216613   0.020   2.331   5.623
 5550TIP3    H116614   0.074   2.298   5.695
 5550TIP3    H216615   0.058   2.417   5.602
 5551TIP3   OH216616   2.395   2.617   4.268
 5551TIP3    H116617   2.424   2.598   4.179
 5551TIP3    H216618   2.391   2.712   4.273
 5552TIP3   OH216619   6.570   5.095   2.217
 5552TIP3    H116620   6.478   5.119   2.232
 5552TIP3    H216621   6.616   5.130   2.293
 5553TIP3   OH216622   6.229   0.002   2.031
 5553TIP3    H116623   6.219  -0.063   2.100
 5553TIP3    H216624   6.259   0.081   2.077
 5554TIP3   OH216625   2.000   2.921   5.264
 5554TIP3    H116626   2.056   2.978   5.210
 5554TIP3    H216627   2.062   2.861   5.306
 5555TIP3   OH216628   6.943   0.173   5.153
 5555TIP3    H116629   7.010   0.167   5.085
 5555TIP3    H216630   6.885   0.243   5.124
 5556TIP3   OH216631   1.826   1.451   3.475
 5556TIP3    H116632   1.887   1.501   3.529
 5556TIP3    H216633   1.763   1.414   3.537
 5557TIP3   OH216634   0.366   2.424   1.175
 5557TIP3    H116635   0.355   2.517   1.195
 5557TIP3    H216636   0.385   2.383   1.259
 5558TIP3   OH216637   2.851   3.325   4.345
 5558TIP3    H116638   2.756   3.323   4.356
 5558TIP3    H216639   2.881   3.389   4.409
 5559TIP3   OH216640   1.124   2.903   5.378
 5559TIP3    H116641   1.192   2.967   5.397
 5559TIP3    H216642   1.089   2.879   5.464
 5560TIP3   OH216643   4.513   1.866   1.346
 5560TIP3    H116644   4.458   1.836   1.273
 5560TIP3    H216645   4.494   1.959   1.355
 5561TIP3   OH216646   5.621   4.110   3.957
 5561TIP3    H116647   5.713   4.091   3.973
 5561TIP3    H216648   5.609   4.200   3.987
 5562TIP3   OH216649   4.159   3.364   4.635
 5562TIP3    H116650   4.236   3.309   4.623
 5562TIP3    H216651   4.185   3.450   4.599
 5563TIP3   OH216652   4.583   2.166   2.624
 5563TIP3    H116653   4.591   2.074   2.648
 5563TIP3    H216654   4.552   2.209   2.704
 5564TIP3   OH216655   2.014   1.345   5.762
 5564TIP3    H116656   1.999   1.255   5.733
 5564TIP3    H216657   2.029   1.337   5.856
 5565TIP3   OH216658   1.204   5.102   1.320
 5565TIP3    H116659   1.234   5.171   1.262
 5565TIP3    H216660   1.229   5.132   1.408
 5566TIP3   OH216661   6.281   0.783   5.111
 5566TIP3    H116662   6.302   0.842   5.038
 5566TIP3    H216663   6.219   0.832   5.164
 5567TIP3   OH216664   0.494   2.909   3.469
 5567TIP3    H116665   0.400   2.893   3.472
 5567TIP3    H216666   0.504   3.003   3.487
 5568TIP3   OH216667   5.855   2.717   0.808
 5568TIP3    H116668   5.845   2.774   0.732
 5568TIP3    H216669   5.798   2.642   0.789
 5569TIP3   OH216670   2.445   0.256   2.780
 5569TIP3    H116671   2.491   0.282   2.860
 5569TIP3    H216672   2.495   0.296   2.709
 5570TIP3   OH216673   1.780   0.604   5.087
 5570TIP3    H116674   1.758   0.545   5.015
 5570TIP3    H216675   1.702   0.605   5.142
 5571TIP3   OH216676   3.264   3.313   0.196
 5571TIP3    H116677   3.229   3.237   0.243
 5571TIP3    H216678   3.241   3.388   0.251
 5572TIP3   OH216679   1.348   3.713   2.087
 5572TIP3    H116680   1.409   3.731   2.160
 5572TIP3    H216681   1.302   3.634   2.114
 5573TIP3   OH216682   2.005   2.744   5.528
 5573TIP3    H116683   2.100   2.753   5.540
 5573TIP3    H216684   1.967   2.780   5.608
 5574TIP3   OH216685   3.799   5.343   5.763
 5574TIP3    H116686   3.730   5.378   5.708
 5574TIP3    H216687   3.754   5.307   5.839
 5575TIP3   OH216688   2.161   6.254   3.013
 5575TIP3    H116689   2.242   6.276   3.060
 5575TIP3    H216690   2.105   6.213   3.079
 5576TIP3   OH216691   5.599   5.434   1.081
 5576TIP3    H116692   5.522   5.378   1.084
 5576TIP3    H216693   5.587   5.487   1.002
 5577TIP3   OH216694   4.421   4.948   1.361
 5577TIP3    H116695   4.356   4.994   1.307
 5577TIP3    H216696   4.370   4.906   1.429
 5578TIP3   OH216697   3.750   3.189   1.241
 5578TIP3    H116698   3.716   3.242   1.313
 5578TIP3    H216699   3.774   3.252   1.174
 5579TIP3   OH216700   3.013   3.615   2.059
 5579TIP3    H116701   2.932   3.665   2.074
 5579TIP3    H216702   3.066   3.671   2.002
 5580TIP3   OH216703   3.478   1.056   0.320
 5580TIP3    H116704   3.519   0.969   0.324
 5580TIP3    H216705   3.390   1.039   0.287
 5581TIP3   OH216706   0.670   5.834   1.136
 5581TIP3    H116707   0.633   5.884   1.063
 5581TIP3    H216708   0.616   5.755   1.141
 5582TIP3   OH216709   0.505   2.796   0.759
 5582TIP3    H116710   0.426   2.840   0.790
 5582TIP3    H216711   0.556   2.865   0.716
 5583TIP3   OH216712   3.088   4.103   5.291
 5583TIP3    H116713   3.000   4.117   5.324
 5583TIP3    H216714   3.137   4.182   5.315
 5584TIP3   OH216715   2.198   0.426   2.679
 5584TIP3    H116716   2.203   0.373   2.599
 5584TIP3    H216717   2.288   0.454   2.694
 5585TIP3   OH216718   5.036   3.773   3.162
 5585TIP3    H116719   5.008   3.808   3.246
 5585TIP3    H216720   5.114   3.721   3.182
 5586TIP3   OH216721   0.573   2.045   3.238
 5586TIP3    H116722   0.638   2.042   3.308
 5586TIP3    H216723   0.556   2.138   3.224
 5587TIP3   OH216724   3.335   2.164   2.869
 5587TIP3    H116725   3.328   2.137   2.777
 5587TIP3    H216726   3.264   2.118   2.913
 5588TIP3   OH216727   3.005   1.586   1.021
 5588TIP3    H116728   2.911   1.601   1.007
 5588TIP3    H216729   3.008   1.519   1.089
 5589TIP3   OH216730   2.994   5.502   1.817
 5589TIP3    H116731   2.972   5.582   1.866
 5589TIP3    H216732   3.054   5.532   1.748
 5590TIP3   OH216733   5.271   1.489   0.894
 5590TIP3    H116734   5.300   1.411   0.846
 5590TIP3    H216735   5.338   1.503   0.960
 5591TIP3   OH216736   2.454   4.606   2.026
 5591TIP3    H116737   2.439   4.519   2.063
 5591TIP3    H216738   2.540   4.600   1.985
 5592TIP3   OH216739   2.238   2.239   3.907
 5592TIP3    H116740   2.175   2.301   3.870
 5592TIP3    H216741   2.202   2.153   3.884
 5593TIP3   OH216742   6.788   1.238   4.888
 5593TIP3    H116743   6.838   1.216   4.809
 5593TIP3    H216744   6.702   1.267   4.855
 5594TIP3   OH216745   6.023   6.129   4.948
 5594TIP3    H116746   6.014   6.077   4.868
 5594TIP3    H216747   6.097   6.089   4.994
 5595TIP3   OH216748   1.103   6.294   2.006
 5595TIP3    H116749   1.134   6.344   1.930
 5595TIP3    H216750   1.011   6.275   1.987
 5596TIP3   OH216751   0.770   4.650   5.417
 5596TIP3    H116752   0.747   4.733   5.375
 5596TIP3    H216753   0.861   4.635   5.390
 5597TIP3   OH216754   2.927   3.808   1.198
 5597TIP3    H116755   2.882   3.812   1.282
 5597TIP3    H216756   2.894   3.882   1.149
 5598TIP3   OH216757   2.406   0.040   1.745
 5598TIP3    H116758   2.472   0.081   1.801
 5598TIP3    H216759   2.410  -0.053   1.767
 5599TIP3   OH216760   4.572   2.979   2.219
 5599TIP3    H116761   4.493   2.965   2.167
 5599TIP3    H216762   4.547   2.955   2.308
 5600TIP3   OH216763   0.032   0.141   4.556
 5600TIP3    H116764   0.021   0.147   4.461
 5600TIP3    H216765  -0.056   0.151   4.591
 5601TIP3   OH216766   1.025   1.555   1.894
 5601TIP3    H116767   1.020   1.610   1.815
 5601TIP3    H216768   1.082   1.604   1.953
 5602TIP3   OH216769   4.138   6.482   4.971
 5602TIP3    H116770   4.103   6.450   5.055
 5602TIP3    H216771   4.231   6.460   4.973
 5603TIP3   OH216772   0.770   3.387   3.270
 5603TIP3    H116773   0.717   3.310   3.250
 5603TIP3    H216774   0.845   3.353   3.319
 5604TIP3   OH216775   4.924   4.967   2.379
 5604TIP3    H116776   4.870   4.925   2.312
 5604TIP3    H216777   4.915   5.061   2.362
 5605TIP3   OH216778   6.581   0.852   4.468
 5605TIP3    H116779   6.598   0.781   4.406
 5605TIP3    H216780   6.486   0.856   4.475
 5606TIP3   OH216781   1.124   0.562   4.267
 5606TIP3    H116782   1.140   0.561   4.173
 5606TIP3    H216783   1.091   0.650   4.285
 5607TIP3   OH216784   1.561   1.725   1.259
 5607TIP3    H116785   1.571   1.697   1.168
 5607TIP3    H216786   1.469   1.710   1.279
 5608TIP3   OH216787   2.047   2.925   1.313
 5608TIP3    H116788   2.072   2.984   1.241
 5608TIP3    H216789   2.128   2.879   1.335
 5609TIP3   OH216790   2.811   6.308   0.321
 5609TIP3    H116791   2.745   6.286   0.255
 5609TIP3    H216792   2.867   6.374   0.279
 5610TIP3   OH216793   2.303   0.321   2.230
 5610TIP3    H116794   2.336   0.255   2.169
 5610TIP3    H216795   2.244   0.375   2.177
 5611TIP3   OH216796   0.598   2.072   2.712
 5611TIP3    H116797   0.629   2.062   2.802
 5611TIP3    H216798   0.678   2.069   2.659
 5612TIP3   OH216799   4.526   5.295   1.459
 5612TIP3    H116800   4.543   5.247   1.540
 5612TIP3    H216801   4.587   5.258   1.396
 5613TIP3   OH216802   3.229   1.959   5.496
 5613TIP3    H116803   3.289   1.928   5.564
 5613TIP3    H216804   3.147   1.913   5.512
 5614TIP3   OH216805   6.627   4.767   2.101
 5614TIP3    H116806   6.695   4.805   2.157
 5614TIP3    H216807   6.590   4.842   2.055
 5615TIP3   OH216808   3.576   6.073   1.422
 5615TIP3    H116809   3.514   6.123   1.475
 5615TIP3    H216810   3.661   6.089   1.462
 5616TIP3   OH216811   6.599   4.014   0.636
 5616TIP3    H116812   6.650   3.936   0.611
 5616TIP3    H216813   6.665   4.084   0.642
 5617TIP3   OH216814   5.320   4.256   0.345
 5617TIP3    H116815   5.342   4.283   0.256
 5617TIP3    H216816   5.354   4.167   0.353
 5618TIP3   OH216817   6.769   2.587   4.187
 5618TIP3    H116818   6.747   2.632   4.106
 5618TIP3    H216819   6.729   2.500   4.178
 5619TIP3   OH216820   0.366   0.199   2.300
 5619TIP3    H116821   0.308   0.241   2.364
 5619TIP3    H216822   0.396   0.120   2.344
 5620TIP3   OH216823   2.273   1.407   4.761
 5620TIP3    H116824   2.288   1.336   4.699
 5620TIP3    H216825   2.302   1.373   4.845
 5621TIP3   OH216826   1.886   3.272   3.732
 5621TIP3    H116827   1.957   3.306   3.787
 5621TIP3    H216828   1.901   3.312   3.646
 5622TIP3   OH216829   6.051   5.291   4.761
 5622TIP3    H116830   6.061   5.204   4.723
 5622TIP3    H216831   6.040   5.349   4.686
 5623TIP3   OH216832   5.837   5.457   0.182
 5623TIP3    H116833   5.809   5.397   0.113
 5623TIP3    H216834   5.806   5.543   0.153
 5624TIP3   OH216835   6.982   3.780   1.245
 5624TIP3    H116836   6.906   3.727   1.221
 5624TIP3    H216837   7.057   3.725   1.225
 5625TIP3   OH216838   0.305   5.015   0.966
 5625TIP3    H116839   0.318   5.040   0.874
 5625TIP3    H216840   0.213   4.991   0.971
 5626TIP3   OH216841   4.833   5.009   3.653
 5626TIP3    H116842   4.875   5.076   3.706
 5626TIP3    H216843   4.853   4.927   3.697
 5627TIP3   OH216844   2.969   2.959   2.166
 5627TIP3    H116845   2.959   2.910   2.085
 5627TIP3    H216846   2.987   2.892   2.232
 5628TIP3   OH216847   3.009   4.964   0.291
 5628TIP3    H116848   3.074   5.015   0.339
 5628TIP3    H216849   2.993   4.888   0.346
 5629TIP3   OH216850   2.513   3.195   3.936
 5629TIP3    H116851   2.583   3.216   3.875
 5629TIP3    H216852   2.435   3.233   3.897
 5630TIP3   OH216853   6.163   2.726   1.115
 5630TIP3    H116854   6.206   2.680   1.187
 5630TIP3    H216855   6.150   2.815   1.149
 5631TIP3   OH216856   6.457   5.409   5.450
 5631TIP3    H116857   6.366   5.439   5.461
 5631TIP3    H216858   6.496   5.420   5.536
 5632TIP3   OH216859   1.915   3.645   5.195
 5632TIP3    H116860   1.891   3.553   5.210
 5632TIP3    H216861   1.864   3.694   5.258
 5633TIP3   OH216862   2.383   2.335   3.564
 5633TIP3    H116863   2.433   2.266   3.607
 5633TIP3    H216864   2.294   2.301   3.559
 5634TIP3   OH216865   0.631   0.076   0.750
 5634TIP3    H116866   0.636  -0.007   0.703
 5634TIP3    H216867   0.610   0.051   0.840
 5635TIP3   OH216868   3.438   2.358   1.680
 5635TIP3    H116869   3.488   2.322   1.606
 5635TIP3    H216870   3.396   2.281   1.719
 5636TIP3   OH216871   5.722   1.826   5.652
 5636TIP3    H116872   5.651   1.827   5.717
 5636TIP3    H216873   5.690   1.882   5.582
 5637TIP3   OH216874   4.617   2.044   4.788
 5637TIP3    H116875   4.654   2.125   4.752
 5637TIP3    H216876   4.581   2.070   4.873
 5638TIP3   OH216877   3.726   3.509   2.599
 5638TIP3    H116878   3.778   3.469   2.668
 5638TIP3    H216879   3.641   3.464   2.604
 5639TIP3   OH216880   1.216   2.091   0.343
 5639TIP3    H116881   1.257   2.102   0.258
 5639TIP3    H216882   1.189   1.999   0.345
 5640TIP3   OH216883   6.144   4.259   3.295
 5640TIP3    H116884   6.106   4.330   3.243
 5640TIP3    H216885   6.188   4.304   3.367
 5641TIP3   OH216886   1.836   3.105   3.399
 5641TIP3    H116887   1.870   3.061   3.476
 5641TIP3    H216888   1.842   3.198   3.419
 5642TIP3   OH216889   5.354   4.425   3.882
 5642TIP3    H116890   5.313   4.401   3.965
 5642TIP3    H216891   5.289   4.478   3.837
 5643TIP3   OH216892   6.809   5.438   2.271
 5643TIP3    H116893   6.723   5.454   2.311
 5643TIP3    H216894   6.788   5.396   2.187
 5644TIP3   OH216895   0.646   0.024   4.702
 5644TIP3    H116896   0.566   0.014   4.650
 5644TIP3    H216897   0.692   0.098   4.662
 5645TIP3   OH216898   2.514   3.959   5.434
 5645TIP3    H116899   2.426   3.985   5.461
 5645TIP3    H216900   2.507   3.866   5.415
 5646TIP3   OH216901   4.593   2.052   5.744
 5646TIP3    H116902   4.670   2.109   5.753
 5646TIP3    H216903   4.520   2.106   5.774
 5647TIP3   OH216904   6.971   6.385   1.353
 5647TIP3    H116905   6.955   6.478   1.333
 5647TIP3    H216906   7.037   6.386   1.422
 5648TIP3   OH216907   5.535   5.494   2.692
 5648TIP3    H116908   5.628   5.474   2.681
 5648TIP3    H216909   5.490   5.413   2.670
 5649TIP3   OH216910   1.480   3.688   0.388
 5649TIP3    H116911   1.502   3.754   0.322
 5649TIP3    H216912   1.554   3.628   0.388
 5650TIP3   OH216913   6.687   4.158   2.328
 5650TIP3    H116914   6.724   4.114   2.252
 5650TIP3    H216915   6.596   4.175   2.305
 5651TIP3   OH216916   0.794   6.027   4.995
 5651TIP3    H116917   0.822   5.944   4.955
 5651TIP3    H216918   0.705   6.040   4.964
 5652TIP3   OH216919   5.873   4.917   0.256
 5652TIP3    H116920   5.846   4.834   0.216
 5652TIP3    H216921   5.967   4.922   0.240
 5653TIP3   OH216922   4.664   0.717   3.743
 5653TIP3    H116923   4.649   0.657   3.816
 5653TIP3    H216924   4.703   0.794   3.784
 5654TIP3   OH216925   1.517   3.462   3.571
 5654TIP3    H116926   1.423   3.455   3.556
 5654TIP3    H216927   1.556   3.409   3.501
 5655TIP3   OH216928   4.294   1.524   4.035
 5655TIP3    H116929   4.238   1.600   4.025
 5655TIP3    H216930   4.375   1.547   3.989
 5656TIP3   OH216931   1.013   1.908   5.253
 5656TIP3    H116932   1.038   1.961   5.330
 5656TIP3    H216933   1.082   1.843   5.246
 5657TIP3   OH216934   2.591   4.857   0.253
 5657TIP3    H116935   2.549   4.851   0.339
 5657TIP3    H216936   2.611   4.767   0.229
 5658TIP3   OH216937   3.762   4.667   3.601
 5658TIP3    H116938   3.844   4.695   3.642
 5658TIP3    H216939   3.790   4.618   3.524
 5659TIP3   OH216940   1.144   1.084   1.732
 5659TIP3    H116941   1.213   1.147   1.709
 5659TIP3    H216942   1.107   1.117   1.813
 5660TIP3   OH216943   6.274   3.608   1.249
 5660TIP3    H116944   6.357   3.580   1.287
 5660TIP3    H216945   6.209   3.590   1.317
 5661TIP3   OH216946   4.173   1.112   3.048
 5661TIP3    H116947   4.085   1.114   3.012
 5661TIP3    H216948   4.226   1.067   2.982
 5662TIP3   OH216949   4.137   2.861   2.821
 5662TIP3    H116950   4.199   2.826   2.758
 5662TIP3    H216951   4.111   2.786   2.874
 5663TIP3   OH216952   6.503   2.279   4.616
 5663TIP3    H116953   6.464   2.192   4.602
 5663TIP3    H216954   6.435   2.340   4.589
 5664TIP3   OH216955   6.799   1.152   2.835
 5664TIP3    H116956   6.715   1.107   2.840
 5664TIP3    H216957   6.777   1.244   2.819
 5665TIP3   OH216958   0.347   1.359   4.774
 5665TIP3    H116959   0.301   1.308   4.707
 5665TIP3    H216960   0.435   1.371   4.739
 5666TIP3   OH216961   5.422   1.591   1.276
 5666TIP3    H116962   5.382   1.594   1.189
 5666TIP3    H216963   5.495   1.530   1.266
 5667TIP3   OH216964   2.766   4.031   5.483
 5667TIP3    H116965   2.677   3.997   5.472
 5667TIP3    H216966   2.765   4.075   5.568
 5668TIP3   OH216967   4.799   3.825   0.215
 5668TIP3    H116968   4.714   3.804   0.254
 5668TIP3    H216969   4.854   3.852   0.289
 5669TIP3   OH216970   3.191   6.349   5.035
 5669TIP3    H116971   3.220   6.437   5.011
 5669TIP3    H216972   3.264   6.292   5.008
 5670TIP3   OH216973   5.796   5.455   1.249
 5670TIP3    H116974   5.835   5.369   1.265
 5670TIP3    H216975   5.721   5.437   1.193
 5671TIP3   OH216976   4.199   2.428   3.121
 5671TIP3    H116977   4.181   2.335   3.113
 5671TIP3    H216978   4.234   2.439   3.210
 5672TIP3   OH216979   3.023   5.683   0.180
 5672TIP3    H116980   2.997   5.754   0.239
 5672TIP3    H216981   3.055   5.614   0.239
 5673TIP3   OH216982   4.504   4.538   1.702
 5673TIP3    H116983   4.573   4.531   1.768
 5673TIP3    H216984   4.439   4.473   1.728
 5674TIP3   OH216985   1.140   5.988   0.419
 5674TIP3    H116986   1.138   6.082   0.435
 5674TIP3    H216987   1.230   5.962   0.439
 5675TIP3   OH216988   0.750   1.978   0.065
 5675TIP3    H116989   0.791   2.018  -0.012
 5675TIP3    H216990   0.663   2.017   0.070
 5676TIP3   OH216991   0.043   4.772   2.961
 5676TIP3    H116992   0.126   4.755   3.005
 5676TIP3    H216993  -0.002   4.834   3.018
 5677TIP3   OH216994   5.899   1.818   5.050
 5677TIP3    H116995   5.891   1.865   5.133
 5677TIP3    H216996   5.990   1.789   5.048
 5678TIP3   OH216997   3.720   0.448   1.558
 5678TIP3    H116998   3.718   0.539   1.530
 5678TIP3    H216999   3.757   0.451   1.647
 5679TIP3   OH217000   2.532   4.986   4.188
 5679TIP3    H117001   2.526   5.013   4.097
 5679TIP3    H217002   2.620   4.948   4.196
 5680TIP3   OH217003   1.346   1.825   0.154
 5680TIP3    H117004   1.316   1.829   0.245
 5680TIP3    H217005   1.440   1.842   0.158
 5681TIP3   OH217006   1.010   5.472   0.433
 5681TIP3    H117007   1.032   5.562   0.410
 5681TIP3    H217008   1.021   5.423   0.352
 5682TIP3   OH217009   6.560   3.596   5.539
 5682TIP3    H117010   6.577   3.645   5.459
 5682TIP3    H217011   6.646   3.577   5.575
 5683TIP3   OH217012   1.385   0.481   0.572
 5683TIP3    H117013   1.379   0.483   0.477
 5683TIP3    H217014   1.299   0.509   0.603
 5684TIP3   OH217015   3.647   4.893   3.520
 5684TIP3    H117016   3.626   4.930   3.606
 5684TIP3    H217017   3.691   4.810   3.540
 5685TIP3   OH217018   2.985   3.776   5.138
 5685TIP3    H117019   2.939   3.812   5.214
 5685TIP3    H217020   2.952   3.687   5.129
 5686TIP3   OH217021   4.370   2.198   2.066
 5686TIP3    H117022   4.402   2.271   2.120
 5686TIP3    H217023   4.359   2.126   2.129
 5687TIP3   OH217024   4.429   3.022   5.209
 5687TIP3    H117025   4.380   3.033   5.290
 5687TIP3    H217026   4.421   3.106   5.164
 5688TIP3   OH217027   3.103   3.313   5.119
 5688TIP3    H117028   3.148   3.229   5.122
 5688TIP3    H217029   3.127   3.356   5.201
 5689TIP3   OH217030   3.426   2.846   2.585
 5689TIP3    H117031   3.521   2.837   2.581
 5689TIP3    H217032   3.398   2.775   2.642
 5690TIP3   OH217033   5.063   5.285   1.069
 5690TIP3    H117034   5.015   5.271   0.987
 5690TIP3    H217035   5.008   5.347   1.118
 5691TIP3   OH217036   6.112   3.258   4.303
 5691TIP3    H117037   6.102   3.205   4.224
 5691TIP3    H217038   6.024   3.293   4.319
 5692TIP3   OH217039   0.657   3.372   4.891
 5692TIP3    H117040   0.618   3.456   4.912
 5692TIP3    H217041   0.670   3.374   4.796
 5693TIP3   OH217042   3.552   5.490   1.238
 5693TIP3    H117043   3.493   5.540   1.295
 5693TIP3    H217044   3.622   5.460   1.296
 5694TIP3   OH217045   5.037   5.845   1.987
 5694TIP3    H117046   5.049   5.920   1.929
 5694TIP3    H217047   5.119   5.796   1.979
 5695TIP3   OH217048   6.980   1.463   1.516
 5695TIP3    H117049   7.042   1.404   1.559
 5695TIP3    H217050   6.969   1.426   1.428
 5696TIP3   OH217051   4.193   1.176   0.178
 5696TIP3    H117052   4.286   1.173   0.155
 5696TIP3    H217053   4.156   1.245   0.122
 5697TIP3   OH217054   0.116   1.574   4.778
 5697TIP3    H117055   0.190   1.529   4.819
 5697TIP3    H217056   0.044   1.563   4.840
 5698TIP3   OH217057   4.848   4.239   2.843
 5698TIP3    H117058   4.912   4.173   2.871
 5698TIP3    H217059   4.812   4.204   2.762
 5699TIP3   OH217060   3.622   6.459   4.283
 5699TIP3    H117061   3.704   6.495   4.249
 5699TIP3    H217062   3.579   6.534   4.324
 5700TIP3   OH217063   2.945   0.405   4.306
 5700TIP3    H117064   2.892   0.445   4.374
 5700TIP3    H217065   2.896   0.419   4.225
 5701TIP3   OH217066   3.122   3.223  -0.029
 5701TIP3    H117067   3.136   3.129  -0.025
 5701TIP3    H217068   3.180   3.258   0.040
 5702TIP3   OH217069   2.098   5.940   1.833
 5702TIP3    H117070   2.154   6.009   1.797
 5702TIP3    H217071   2.100   5.871   1.767
 5703TIP3   OH217072   3.639   3.077   3.952
 5703TIP3    H117073   3.601   3.006   3.901
 5703TIP3    H217074   3.640   3.152   3.892
 5704TIP3   OH217075   3.855   1.127   4.190
 5704TIP3    H117076   3.905   1.071   4.249
 5704TIP3    H217077   3.808   1.066   4.133
 5705TIP3   OH217078   0.987   2.209   0.222
 5705TIP3    H117079   0.988   2.169   0.136
 5705TIP3    H217080   1.016   2.140   0.281
 5706TIP3   OH217081   1.075   6.563   2.837
 5706TIP3    H117082   1.162   6.587   2.805
 5706TIP3    H217083   1.078   6.467   2.847
 5707TIP3   OH217084   0.292   1.999   0.960
 5707TIP3    H117085   0.299   2.077   1.016
 5707TIP3    H217086   0.201   2.000   0.930
 5708TIP3   OH217087   5.302   4.941   5.664
 5708TIP3    H117088   5.279   4.851   5.687
 5708TIP3    H217089   5.243   4.965   5.593
 5709TIP3   OH217090   4.356   3.798   4.425
 5709TIP3    H117091   4.303   3.744   4.484
 5709TIP3    H217092   4.378   3.740   4.352
 5710TIP3   OH217093   2.399   0.460   1.394
 5710TIP3    H117094   2.444   0.385   1.433
 5710TIP3    H217095   2.453   0.535   1.416
 5711TIP3   OH217096   0.580   0.306   1.613
 5711TIP3    H117097   0.651   0.254   1.576
 5711TIP3    H217098   0.587   0.293   1.707
 5712TIP3   OH217099   4.140   3.757   1.659
 5712TIP3    H117100   4.129   3.847   1.689
 5712TIP3    H217101   4.124   3.704   1.736
 5713TIP3   OH217102   2.716   2.520   2.884
 5713TIP3    H117103   2.626   2.504   2.855
 5713TIP3    H217104   2.734   2.448   2.945
 5714TIP3   OH217105   5.125   1.052   1.219
 5714TIP3    H117106   5.208   1.076   1.176
 5714TIP3    H217107   5.082   1.136   1.234
 5715TIP3   OH217108   4.812   5.338   3.426
 5715TIP3    H117109   4.760   5.318   3.504
 5715TIP3    H217110   4.849   5.424   3.443
 5716TIP3   OH217111   0.975   5.814   4.263
 5716TIP3    H117112   1.066   5.785   4.265
 5716TIP3    H217113   0.937   5.780   4.343
 5717TIP3   OH217114   3.897   3.309   0.760
 5717TIP3    H117115   3.905   3.250   0.685
 5717TIP3    H217116   3.962   3.377   0.744
 5718TIP3   OH217117   5.010   1.916   0.115
 5718TIP3    H117118   5.042   1.876   0.196
 5718TIP3    H217119   5.000   1.842   0.054
 5719TIP3   OH217120   1.557   2.832   2.654
 5719TIP3    H117121   1.521   2.912   2.692
 5719TIP3    H217122   1.548   2.766   2.723
 5720TIP3   OH217123   0.443   5.980   2.753
 5720TIP3    H117124   0.350   5.956   2.747
 5720TIP3    H217125   0.463   5.972   2.846
 5721TIP3   OH217126   1.504   0.939   5.882
 5721TIP3    H117127   1.430   0.925   5.941
 5721TIP3    H217128   1.524   0.852   5.848
 5722TIP3   OH217129   5.700   5.194   5.068
 5722TIP3    H117130   5.786   5.229   5.048
 5722TIP3    H217131   5.640   5.266   5.051
 5723TIP3   OH217132   1.756   3.894   4.670
 5723TIP3    H117133   1.828   3.880   4.731
 5723TIP3    H217134   1.798   3.906   4.585
 5724TIP3   OH217135   5.041   4.769   5.033
 5724TIP3    H117136   4.972   4.794   5.094
 5724TIP3    H217137   4.998   4.710   4.971
 5725TIP3   OH217138   1.555   1.346   0.808
 5725TIP3    H117139   1.598   1.268   0.843
 5725TIP3    H217140   1.518   1.317   0.725
 5726TIP3   OH217141   5.796   5.234   4.658
 5726TIP3    H117142   5.705   5.259   4.647
 5726TIP3    H217143   5.828   5.291   4.729
 5727TIP3   OH217144   3.381   4.948   0.313
 5727TIP3    H117145   3.468   4.910   0.325
 5727TIP3    H217146   3.396   5.042   0.309
 5728TIP3   OH217147   0.204   2.036   2.870
 5728TIP3    H117148   0.206   2.059   2.963
 5728TIP3    H217149   0.153   2.105   2.829
 5729TIP3   OH217150   5.157   1.185   3.826
 5729TIP3    H117151   5.190   1.268   3.862
 5729TIP3    H217152   5.065   1.182   3.854
 5730TIP3   OH217153   0.247   0.840   3.574
 5730TIP3    H117154   0.263   0.917   3.629
 5730TIP3    H217155   0.165   0.860   3.529
 5731TIP3   OH217156   1.675   5.378   4.843
 5731TIP3    H117157   1.597   5.367   4.898
 5731TIP3    H217158   1.714   5.290   4.839
 5732TIP3   OH217159   0.447   5.374   3.016
 5732TIP3    H117160   0.371   5.322   3.044
 5732TIP3    H217161   0.509   5.310   2.982
 5733TIP3   OH217162   6.912   1.029   2.519
 5733TIP3    H117163   6.881   1.047   2.430
 5733TIP3    H217164   6.997   1.072   2.523
 5734TIP3   OH217165   5.433   2.068   2.749
 5734TIP3    H117166   5.445   2.113   2.665
 5734TIP3    H217167   5.480   2.123   2.812
 5735TIP3   OH217168   6.617   4.298   0.874
 5735TIP3    H117169   6.677   4.224   0.869
 5735TIP3    H217170   6.531   4.259   0.886
 5736TIP3   OH217171   6.543   2.777   3.862
 5736TIP3    H117172   6.512   2.736   3.781
 5736TIP3    H217173   6.503   2.725   3.932
 5737TIP3   OH217174   0.536   3.744   5.400
 5737TIP3    H117175   0.473   3.677   5.372
 5737TIP3    H217176   0.536   3.809   5.330
 5738TIP3   OH217177   6.781   1.603   2.741
 5738TIP3    H117178   6.739   1.602   2.655
 5738TIP3    H217179   6.875   1.597   2.721
 5739TIP3   OH217180   4.749   4.817   2.737
 5739TIP3    H117181   4.681   4.759   2.768
 5739TIP3    H217182   4.722   4.904   2.766
 5740TIP3   OH217183   1.914   1.606   3.034
 5740TIP3    H117184   1.840   1.591   3.092
 5740TIP3    H217185   1.935   1.699   3.045
 5741TIP3   OH217186   0.448   2.106   1.242
 5741TIP3    H117187   0.470   2.099   1.335
 5741TIP3    H217188   0.527   2.077   1.196
 5742TIP3   OH217189   4.842   1.230   3.904
 5742TIP3    H117190   4.756   1.240   3.863
 5742TIP3    H217191   4.825   1.238   3.997
 5743TIP3   OH217192   4.318   4.234   3.440
 5743TIP3    H117193   4.259   4.261   3.510
 5743TIP3    H217194   4.336   4.314   3.392
 5744TIP3   OH217195   7.028   6.274   3.623
 5744TIP3    H117196   7.021   6.337   3.552
 5744TIP3    H217197   7.119   6.279   3.651
 5745TIP3   OH217198   6.763   4.023   3.633
 5745TIP3    H117199   6.793   4.014   3.543
 5745TIP3    H217200   6.828   3.974   3.684
 5746TIP3   OH217201   3.490   0.042   1.554
 5746TIP3    H117202   3.561   0.048   1.490
 5746TIP3    H217203   3.531   0.066   1.637
 5747TIP3   OH217204   6.055   3.745   5.855
 5747TIP3    H117205   6.105   3.789   5.923
 5747TIP3    H217206   6.050   3.810   5.784
 5748TIP3   OH217207   0.415   5.829   0.729
 5748TIP3    H117208   0.406   5.758   0.792
 5748TIP3    H217209   0.487   5.882   0.764
 5749TIP3   OH217210   7.060   5.216   1.319
 5749TIP3    H117211   7.016   5.287   1.273
 5749TIP3    H217212   6.993   5.176   1.373
 5750TIP3   OH217213   4.362   3.827   2.880
 5750TIP3    H117214   4.440   3.841   2.933
 5750TIP3    H217215   4.289   3.846   2.938
 5751TIP3   OH217216   2.774   1.050   0.572
 5751TIP3    H117217   2.684   1.029   0.595
 5751TIP3    H217218   2.816   1.069   0.656
 5752TIP3   OH217219   6.227   4.523   5.143
 5752TIP3    H117220   6.282   4.591   5.182
 5752TIP3    H217221   6.236   4.536   5.049
 5753TIP3   OH217222   0.351   5.276   4.342
 5753TIP3    H117223   0.288   5.327   4.291
 5753TIP3    H217224   0.297   5.225   4.403
 5754TIP3   OH217225   1.239   0.733   4.062
 5754TIP3    H117226   1.180   0.807   4.075
 5754TIP3    H217227   1.242   0.719   3.968
 5755TIP3   OH217228   4.244   5.179   1.817
 5755TIP3    H117229   4.246   5.259   1.869
 5755TIP3    H217230   4.335   5.148   1.816
 5756TIP3   OH217231   6.591   5.069   4.429
 5756TIP3    H117232   6.659   5.122   4.472
 5756TIP3    H217233   6.615   4.979   4.449
 5757TIP3   OH217234   4.110   6.347   4.128
 5757TIP3    H117235   4.201   6.375   4.136
 5757TIP3    H217236   4.088   6.313   4.214
 5758TIP3   OH217237   4.649   5.577   1.756
 5758TIP3    H117238   4.713   5.568   1.827
 5758TIP3    H217239   4.655   5.669   1.729
 5759TIP3   OH217240   1.719   1.935   1.259
 5759TIP3    H117241   1.653   1.869   1.277
 5759TIP3    H217242   1.760   1.907   1.177
 5760TIP3   OH217243   4.429   3.910   4.909
 5760TIP3    H117244   4.495   3.873   4.968
 5760TIP3    H217245   4.474   3.917   4.824
 5761TIP3   OH217246   3.885   4.759   0.279
 5761TIP3    H117247   3.853   4.752   0.189
 5761TIP3    H217248   3.923   4.673   0.298
 5762TIP3   OH217249   3.215   3.948   5.066
 5762TIP3    H117250   3.129   3.915   5.093
 5762TIP3    H217251   3.216   4.039   5.097
 5763TIP3   OH217252   2.576   6.738   0.341
 5763TIP3    H117253   2.559   6.655   0.297
 5763TIP3    H217254   2.491   6.765   0.376
 5764TIP3   OH217255   5.927   4.282   1.285
 5764TIP3    H117256   5.895   4.246   1.367
 5764TIP3    H217257   6.010   4.236   1.270
 5765TIP3   OH217258  -0.017   6.126   4.848
 5765TIP3    H117259   0.008   6.203   4.899
 5765TIP3    H217260   0.035   6.132   4.768
 5766TIP3   OH217261   4.837   3.649   1.344
 5766TIP3    H117262   4.767   3.625   1.283
 5766TIP3    H217263   4.791   3.668   1.426
 5767TIP3   OH217264   5.430   6.171   3.680
 5767TIP3    H117265   5.507   6.114   3.672
 5767TIP3    H217266   5.415   6.178   3.774
 5768TIP3   OH217267   1.851   2.688   0.689
 5768TIP3    H117268   1.767   2.672   0.731
 5768TIP3    H217269   1.879   2.603   0.657
 5769TIP3   OH217270   1.517   5.279   3.762
 5769TIP3    H117271   1.525   5.237   3.848
 5769TIP3    H217272   1.425   5.268   3.738
 5770TIP3   OH217273   1.903   2.525   3.236
 5770TIP3    H117274   1.818   2.488   3.212
 5770TIP3    H217275   1.959   2.448   3.253
 5771TIP3   OH217276   2.646  -0.021   4.569
 5771TIP3    H117277   2.652   0.038   4.644
 5771TIP3    H217278   2.737  -0.038   4.545
 5772TIP3   OH217279   7.033   5.903   0.068
 5772TIP3    H117280   7.120   5.927   0.101
 5772TIP3    H217281   6.975   5.971   0.104
 5773TIP3   OH217282   6.307   5.505   4.837
 5773TIP3    H117283   6.334   5.597   4.839
 5773TIP3    H217284   6.300   5.484   4.744
 5774TIP3   OH217285   3.845   2.450   0.668
 5774TIP3    H117286   3.810   2.398   0.596
 5774TIP3    H217287   3.845   2.540   0.636
 5775TIP3   OH217288   5.619   5.207   2.151
 5775TIP3    H117289   5.616   5.176   2.061
 5775TIP3    H217290   5.707   5.185   2.182
 5776TIP3   OH217291   0.410   3.164   3.501
 5776TIP3    H117292   0.405   3.255   3.531
 5776TIP3    H217293   0.320   3.141   3.479
 5777TIP3   OH217294   1.689   1.584   0.771
 5777TIP3    H117295   1.691   1.610   0.679
 5777TIP3    H217296   1.638   1.503   0.772
 5778TIP3   OH217297   3.803   6.629   4.510
 5778TIP3    H117298   3.892   6.599   4.489
 5778TIP3    H217299   3.816   6.716   4.548
 5779TIP3   OH217300   4.264   2.390   2.305
 5779TIP3    H117301   4.276   2.354   2.392
 5779TIP3    H217302   4.351   2.420   2.278
 5780TIP3   OH217303   0.197   1.001   2.975
 5780TIP3    H117304   0.104   0.990   2.993
 5780TIP3    H217305   0.238   1.005   3.062
 5781TIP3   OH217306   3.252   4.488   2.067
 5781TIP3    H117307   3.164   4.524   2.055
 5781TIP3    H217308   3.280   4.462   1.980
 5782TIP3   OH217309   0.853   1.069   3.091
 5782TIP3    H117310   0.945   1.063   3.117
 5782TIP3    H217311   0.805   1.032   3.165
 5783TIP3   OH217312   7.078   0.715   1.516
 5783TIP3    H117313   7.170   0.731   1.537
 5783TIP3    H217314   7.071   0.620   1.508
 5784TIP3   OH217315   3.893   5.406   0.484
 5784TIP3    H117316   3.901   5.393   0.390
 5784TIP3    H217317   3.804   5.378   0.505
 5785TIP3   OH217318   7.080   1.267   1.703
 5785TIP3    H117319   7.097   1.180   1.668
 5785TIP3    H217320   6.986   1.281   1.689
 5786TIP3   OH217321   2.258   5.182   4.607
 5786TIP3    H117322   2.315   5.140   4.543
 5786TIP3    H217323   2.302   5.169   4.691
 5787TIP3   OH217324   4.519   4.223   0.132
 5787TIP3    H117325   4.515   4.205   0.038
 5787TIP3    H217326   4.513   4.319   0.138
 5788TIP3   OH217327   0.214   4.434   4.307
 5788TIP3    H117328   0.225   4.408   4.398
 5788TIP3    H217329   0.268   4.512   4.298
 5789TIP3   OH217330   5.801   1.126   4.450
 5789TIP3    H117331   5.815   1.110   4.356
 5789TIP3    H217332   5.882   1.096   4.491
 5790TIP3   OH217333   1.601   2.535   1.966
 5790TIP3    H117334   1.612   2.526   2.061
 5790TIP3    H217335   1.511   2.507   1.950
 5791TIP3   OH217336   6.071   4.260   3.845
 5791TIP3    H117337   6.124   4.265   3.765
 5791TIP3    H217338   5.983   4.284   3.817
 5792TIP3   OH217339   5.843   3.264   3.816
 5792TIP3    H117340   5.882   3.350   3.799
 5792TIP3    H217341   5.755   3.270   3.779
 5793TIP3   OH217342   0.368   6.579   5.609
 5793TIP3    H117343   0.461   6.601   5.598
 5793TIP3    H217344   0.323   6.636   5.547
 5794TIP3   OH217345   0.778   0.836   0.186
 5794TIP3    H117346   0.700   0.847   0.241
 5794TIP3    H217347   0.843   0.895   0.225
 5795TIP3   OH217348   0.444   6.001   4.539
 5795TIP3    H117349   0.373   5.983   4.477
 5795TIP3    H217350   0.507   5.931   4.525
 5796TIP3   OH217351   6.073   6.416   4.923
 5796TIP3    H117352   6.047   6.327   4.947
 5796TIP3    H217353   6.030   6.432   4.838
 5797TIP3   OH217354   0.095   4.971   4.922
 5797TIP3    H117355   0.180   5.003   4.952
 5797TIP3    H217356   0.096   4.878   4.942
 5798TIP3   OH217357   1.835   3.314   0.239
 5798TIP3    H117358   1.880   3.398   0.249
 5798TIP3    H217359   1.845   3.292   0.146
 5799TIP3   OH217360   6.420   6.172   1.303
 5799TIP3    H117361   6.400   6.103   1.240
 5799TIP3    H217362   6.369   6.149   1.381
 5800TIP3   OH217363   0.068   1.041   1.698
 5800TIP3    H117364   0.032   1.053   1.786
 5800TIP3    H217365   0.024   0.963   1.665
 5801TIP3   OH217366   2.552   3.949   4.697
 5801TIP3    H117367   2.531   3.881   4.633
 5801TIP3    H217368   2.633   3.918   4.738
 5802TIP3   OH217369   6.054   4.431   4.907
 5802TIP3    H117370   6.011   4.363   4.856
 5802TIP3    H217371   6.147   4.422   4.885
 5803TIP3   OH217372   2.079   4.346   3.653
 5803TIP3    H117373   2.076   4.439   3.633
 5803TIP3    H217374   2.005   4.332   3.712
 5804TIP3   OH217375   1.549   4.873   3.005
 5804TIP3    H117376   1.507   4.953   3.034
 5804TIP3    H217377   1.505   4.803   3.054
 5805TIP3   OH217378   4.952   0.183   3.162
 5805TIP3    H117379   4.976   0.251   3.099
 5805TIP3    H217380   4.886   0.225   3.218
 5806TIP3   OH217381   4.391   5.534   1.801
 5806TIP3    H117382   4.373   5.624   1.776
 5806TIP3    H217383   4.484   5.522   1.784
 5807TIP3   OH217384   1.427   1.926   0.659
 5807TIP3    H117385   1.470   1.939   0.574
 5807TIP3    H217386   1.352   1.986   0.658
 5808TIP3   OH217387   3.714   4.987   4.021
 5808TIP3    H117388   3.641   5.022   4.071
 5808TIP3    H217389   3.768   5.063   4.001
 5809TIP3   OH217390   7.169   4.654   1.494
 5809TIP3    H117391   7.177   4.733   1.441
 5809TIP3    H217392   7.259   4.626   1.510
 5810TIP3   OH217393   3.423   4.102   1.402
 5810TIP3    H117394   3.449   4.017   1.367
 5810TIP3    H217395   3.444   4.165   1.333
 5811TIP3   OH217396   6.328   2.387   1.405
 5811TIP3    H117397   6.334   2.480   1.385
 5811TIP3    H217398   6.314   2.345   1.320
 5812TIP3   OH217399   1.167   2.025   4.632
 5812TIP3    H117400   1.256   1.996   4.652
 5812TIP3    H217401   1.171   2.057   4.542
 5813TIP3   OH217402   4.277   6.659   2.500
 5813TIP3    H117403   4.225   6.621   2.570
 5813TIP3    H217404   4.358   6.686   2.542
 5814TIP3   OH217405   5.183   4.455   0.056
 5814TIP3    H117406   5.143   4.411   0.131
 5814TIP3    H217407   5.277   4.441   0.067
 5815TIP3   OH217408   1.964   6.132   2.311
 5815TIP3    H117409   2.033   6.088   2.261
 5815TIP3    H217410   1.954   6.217   2.269
 5816TIP3   OH217411   1.067   3.185   5.037
 5816TIP3    H117412   0.976   3.154   5.042
 5816TIP3    H217413   1.115   3.110   5.002
 5817TIP3   OH217414   6.488   3.528   1.389
 5817TIP3    H117415   6.501   3.597   1.455
 5817TIP3    H217416   6.566   3.473   1.398
 5818TIP3   OH217417   1.669   5.066   2.133
 5818TIP3    H117418   1.636   4.977   2.144
 5818TIP3    H217419   1.598   5.113   2.089
 5819TIP3   OH217420   2.614   5.103   3.316
 5819TIP3    H117421   2.705   5.112   3.288
 5819TIP3    H217422   2.605   5.165   3.388
 5820TIP3   OH217423   1.964   1.984   1.386
 5820TIP3    H117424   1.878   2.015   1.357
 5820TIP3    H217425   1.976   1.902   1.339
 5821TIP3   OH217426   6.770   3.452   4.645
 5821TIP3    H117427   6.785   3.547   4.637
 5821TIP3    H217428   6.858   3.416   4.659
 5822TIP3   OH217429   5.452   6.101   4.973
 5822TIP3    H117430   5.548   6.095   4.972
 5822TIP3    H217431   5.422   6.017   4.939
 5823TIP3   OH217432   6.800   1.446   3.185
 5823TIP3    H117433   6.844   1.378   3.237
 5823TIP3    H217434   6.790   1.406   3.098
 5824TIP3   OH217435   6.696   1.755   5.578
 5824TIP3    H117436   6.704   1.663   5.555
 5824TIP3    H217437   6.750   1.801   5.514
 5825TIP3   OH217438   1.370   0.854   1.184
 5825TIP3    H117439   1.284   0.816   1.165
 5825TIP3    H217440   1.432   0.794   1.143
 5826TIP3   OH217441   4.746   2.455   2.775
 5826TIP3    H117442   4.801   2.517   2.823
 5826TIP3    H217443   4.750   2.486   2.684
 5827TIP3   OH217444   1.974   6.182   2.619
 5827TIP3    H117445   2.018   6.101   2.645
 5827TIP3    H217446   1.966   6.175   2.524
 5828TIP3   OH217447   2.119   5.527   0.681
 5828TIP3    H117448   2.086   5.439   0.700
 5828TIP3    H217449   2.174   5.548   0.757
 5829TIP3   OH217450   6.965   2.508   1.507
 5829TIP3    H117451   7.005   2.479   1.589
 5829TIP3    H217452   6.948   2.601   1.520
 5830TIP3   OH217453   5.168   6.671   2.133
 5830TIP3    H117454   5.262   6.664   2.121
 5830TIP3    H217455   5.131   6.619   2.061
 5831TIP3   OH217456   6.068   5.410   0.312
 5831TIP3    H117457   6.109   5.352   0.248
 5831TIP3    H217458   5.983   5.432   0.274
 5832TIP3   OH217459   1.591   3.494   5.351
 5832TIP3    H117460   1.681   3.523   5.343
 5832TIP3    H217461   1.548   3.561   5.404
 5833TIP3   OH217462   5.540   3.383   1.828
 5833TIP3    H117463   5.529   3.411   1.737
 5833TIP3    H217464   5.484   3.442   1.879
 5834TIP3   OH217465   4.380   4.603   3.033
 5834TIP3    H117466   4.400   4.586   3.125
 5834TIP3    H217467   4.408   4.694   3.019
 5835TIP3   OH217468   0.017   0.880   3.936
 5835TIP3    H117469  -0.022   0.893   3.849
 5835TIP3    H217470   0.049   0.790   3.934
 5836TIP3   OH217471   2.243   3.552   2.364
 5836TIP3    H117472   2.214   3.474   2.317
 5836TIP3    H217473   2.250   3.523   2.455
 5837TIP3   OH217474   4.593   6.211   1.853
 5837TIP3    H117475   4.620   6.135   1.905
 5837TIP3    H217476   4.560   6.274   1.916
 5838TIP3   OH217477   0.860   0.386   0.392
 5838TIP3    H117478   0.822   0.474   0.386
 5838TIP3    H217479   0.949   0.395   0.359
 5839TIP3   OH217480   4.618   5.477   4.143
 5839TIP3    H117481   4.694   5.507   4.192
 5839TIP3    H217482   4.594   5.394   4.185
 5840TIP3   OH217483   3.581   3.909   5.077
 5840TIP3    H117484   3.537   3.857   5.144
 5840TIP3    H217485   3.515   3.972   5.048
 5841TIP3   OH217486   3.997   0.597   2.458
 5841TIP3    H117487   4.078   0.548   2.473
 5841TIP3    H217488   3.936   0.562   2.524
 5842TIP3   OH217489   2.693   1.349   5.154
 5842TIP3    H117490   2.685   1.256   5.132
 5842TIP3    H217491   2.745   1.351   5.234
 5843TIP3   OH217492   6.175   4.357   2.294
 5843TIP3    H117493   6.166   4.301   2.217
 5843TIP3    H217494   6.199   4.442   2.259
 5844TIP3   OH217495  -0.018   0.250   2.081
 5844TIP3    H117496  -0.007   0.299   1.999
 5844TIP3    H217497   0.067   0.208   2.095
 5845TIP3   OH217498   3.544   3.474   3.281
 5845TIP3    H117499   3.519   3.565   3.300
 5845TIP3    H217500   3.480   3.422   3.329
 5846TIP3   OH217501   7.192   1.715   4.043
 5846TIP3    H117502   7.104   1.752   4.053
 5846TIP3    H217503   7.249   1.777   4.087
 5847TIP3   OH217504   0.218   0.420   4.375
 5847TIP3    H117505   0.226   0.377   4.460
 5847TIP3    H217506   0.229   0.513   4.394
 5848TIP3   OH217507   7.136   4.525   4.830
 5848TIP3    H117508   7.201   4.466   4.867
 5848TIP3    H217509   7.119   4.490   4.742
 5849TIP3   OH217510   6.048   5.949   3.217
 5849TIP3    H117511   6.028   5.933   3.125
 5849TIP3    H217512   5.963   5.948   3.261
 5850TIP3   OH217513   4.264   6.188   0.115
 5850TIP3    H117514   4.359   6.179   0.120
 5850TIP3    H217515   4.233   6.165   0.203
 5851TIP3   OH217516   5.282   0.505   0.711
 5851TIP3    H117517   5.188   0.501   0.731
 5851TIP3    H217518   5.287   0.559   0.632
 5852TIP3   OH217519   5.436   6.612   2.070
 5852TIP3    H117520   5.501   6.670   2.030
 5852TIP3    H217521   5.488   6.544   2.113
 5853TIP3   OH217522   1.400   3.884   0.809
 5853TIP3    H117523   1.477   3.931   0.778
 5853TIP3    H217524   1.344   3.876   0.732
 5854TIP3   OH217525   3.021   0.466   3.626
 5854TIP3    H117526   3.041   0.553   3.660
 5854TIP3    H217527   3.010   0.479   3.532
 5855TIP3   OH217528   0.314   5.454   0.353
 5855TIP3    H117529   0.363   5.382   0.393
 5855TIP3    H217530   0.346   5.533   0.396
 5856TIP3   OH217531   4.405   4.893   4.155
 5856TIP3    H117532   4.348   4.816   4.157
 5856TIP3    H217533   4.361   4.955   4.098
 5857TIP3   OH217534   5.245   1.155   4.530
 5857TIP3    H117535   5.224   1.247   4.544
 5857TIP3    H217536   5.271   1.150   4.438
 5858TIP3   OH217537   0.699   4.173   0.607
 5858TIP3    H117538   0.650   4.153   0.527
 5858TIP3    H217539   0.705   4.090   0.654
 5859TIP3   OH217540   1.896   2.198   1.068
 5859TIP3    H117541   1.860   2.227   1.152
 5859TIP3    H217542   1.868   2.106   1.060
 5860TIP3   OH217543   1.647   2.969   0.184
 5860TIP3    H117544   1.587   2.894   0.188
 5860TIP3    H217545   1.590   3.045   0.189
 5861TIP3   OH217546   6.577   5.848   2.728
 5861TIP3    H117547   6.592   5.942   2.720
 5861TIP3    H217548   6.522   5.825   2.653
 5862TIP3   OH217549   5.959   6.670   3.910
 5862TIP3    H117550   6.018   6.741   3.936
 5862TIP3    H217551   5.892   6.714   3.857
 5863TIP3   OH217552   2.861   2.637   4.906
 5863TIP3    H117553   2.955   2.626   4.915
 5863TIP3    H217554   2.844   2.724   4.942
 5864TIP3   OH217555   1.112   5.640   1.751
 5864TIP3    H117556   1.134   5.585   1.676
 5864TIP3    H217557   1.125   5.729   1.719
 5865TIP3   OH217558   3.603   2.201   2.577
 5865TIP3    H117559   3.573   2.138   2.512
 5865TIP3    H217560   3.687   2.232   2.544
 5866TIP3   OH217561   1.377   4.733   5.764
 5866TIP3    H117562   1.413   4.821   5.756
 5866TIP3    H217563   1.294   4.736   5.717
 5867TIP3   OH217564   4.618   1.114   2.745
 5867TIP3    H117565   4.581   1.140   2.830
 5867TIP3    H217566   4.713   1.122   2.757
 5868TIP3   OH217567   5.648   4.519   5.802
 5868TIP3    H117568   5.631   4.605   5.840
 5868TIP3    H217569   5.696   4.537   5.722
 5869TIP3   OH217570   0.129   5.835   4.701
 5869TIP3    H117571   0.142   5.793   4.616
 5869TIP3    H217572   0.057   5.896   4.688
 5870TIP3   OH217573   3.544   1.083   1.627
 5870TIP3    H117574   3.507   1.059   1.542
 5870TIP3    H217575   3.564   1.176   1.620
 5871TIP3   OH217576   5.786   1.364   3.238
 5871TIP3    H117577   5.735   1.441   3.212
 5871TIP3    H217578   5.840   1.345   3.162
 5872TIP3   OH217579   0.609   4.069   3.711
 5872TIP3    H117580   0.692   4.105   3.680
 5872TIP3    H217581   0.630   4.028   3.795
 5873TIP3   OH217582   5.955   1.675   0.309
 5873TIP3    H117583   5.884   1.669   0.372
 5873TIP3    H217584   6.026   1.719   0.356
 5874TIP3   OH217585   3.059   4.362   0.172
 5874TIP3    H117586   3.096   4.331   0.255
 5874TIP3    H217587   3.128   4.344   0.108
 5875TIP3   OH217588   2.253   2.923   2.266
 5875TIP3    H117589   2.262   3.002   2.213
 5875TIP3    H217590   2.256   2.954   2.356
 5876TIP3   OH217591   3.922   2.506   1.897
 5876TIP3    H117592   3.832   2.486   1.873
 5876TIP3    H217593   3.949   2.576   1.838
 5877TIP3   OH217594   2.867   6.106   4.068
 5877TIP3    H117595   2.928   6.038   4.096
 5877TIP3    H217596   2.922   6.173   4.027
 5878TIP3   OH217597   4.334   3.322   1.997
 5878TIP3    H117598   4.394   3.260   2.038
 5878TIP3    H217599   4.362   3.327   1.906
 5879TIP3   OH217600   0.242   5.801   2.754
 5879TIP3    H117601   0.310   5.745   2.792
 5879TIP3    H217602   0.174   5.740   2.725
 5880TIP3   OH217603   4.733   4.440   4.555
 5880TIP3    H117604   4.820   4.428   4.516
 5880TIP3    H217605   4.702   4.351   4.571
 5881TIP3   OH217606   1.663   5.447   4.562
 5881TIP3    H117607   1.719   5.370   4.553
 5881TIP3    H217608   1.641   5.450   4.655
 5882TIP3   OH217609   5.965   1.110   2.348
 5882TIP3    H117610   6.004   1.145   2.268
 5882TIP3    H217611   5.973   1.015   2.339
 5883TIP3   OH217612   4.335   3.596   3.753
 5883TIP3    H117613   4.306   3.603   3.662
 5883TIP3    H217614   4.294   3.515   3.785
 5884TIP3   OH217615   3.249   4.433   1.774
 5884TIP3    H117616   3.213   4.348   1.798
 5884TIP3    H217617   3.253   4.430   1.678
 5885TIP3   OH217618   5.316   1.269   3.386
 5885TIP3    H117619   5.400   1.275   3.341
 5885TIP3    H217620   5.309   1.177   3.411
 5886TIP3   OH217621   3.388   4.813   1.514
 5886TIP3    H117622   3.463   4.811   1.573
 5886TIP3    H217623   3.416   4.868   1.441
 5887TIP3   OH217624   3.070   1.647   4.090
 5887TIP3    H117625   3.033   1.578   4.146
 5887TIP3    H217626   3.111   1.709   4.151
 5888TIP3   OH217627   5.993   5.361   5.461
 5888TIP3    H117628   6.060   5.411   5.507
 5888TIP3    H217629   6.036   5.279   5.437
 5889TIP3   OH217630   2.579   1.313   5.579
 5889TIP3    H117631   2.531   1.267   5.510
 5889TIP3    H217632   2.567   1.406   5.558
 5890TIP3   OH217633   7.044   1.355   2.965
 5890TIP3    H117634   7.095   1.303   3.027
 5890TIP3    H217635   7.047   1.444   3.000
 5891TIP3   OH217636   3.065   2.753   5.817
 5891TIP3    H117637   2.974   2.779   5.830
 5891TIP3    H217638   3.093   2.718   5.902
 5892TIP3   OH217639   6.352   1.251   4.322
 5892TIP3    H117640   6.398   1.176   4.286
 5892TIP3    H217641   6.283   1.213   4.376
 5893TIP3   OH217642   7.115   3.905   3.142
 5893TIP3    H117643   7.082   3.864   3.222
 5893TIP3    H217644   7.204   3.872   3.133
 5894TIP3   OH217645   6.916   5.609   4.131
 5894TIP3    H117646   6.941   5.583   4.219
 5894TIP3    H217647   6.989   5.662   4.100
 5895TIP3   OH217648   2.251   6.618   1.871
 5895TIP3    H117649   2.241   6.557   1.944
 5895TIP3    H217650   2.233   6.704   1.909
 5896TIP3   OH217651   3.760   5.319   4.164
 5896TIP3    H117652   3.777   5.414   4.162
 5896TIP3    H217653   3.813   5.287   4.237
 5897TIP3   OH217654   1.221   6.327   2.870
 5897TIP3    H117655   1.244   6.340   2.778
 5897TIP3    H217656   1.305   6.318   2.915
 5898TIP3   OH217657   2.107   4.781   4.627
 5898TIP3    H117658   2.185   4.771   4.573
 5898TIP3    H217659   2.049   4.710   4.600
 5899TIP3   OH217660   5.163   6.678   4.125
 5899TIP3    H117661   5.128   6.760   4.090
 5899TIP3    H217662   5.246   6.666   4.079
 5900TIP3   OH217663   6.362   3.231   4.478
 5900TIP3    H117664   6.401   3.313   4.508
 5900TIP3    H217665   6.280   3.257   4.436
 5901TIP3   OH217666   6.044   2.932   0.849
 5901TIP3    H117667   5.992   2.852   0.864
 5901TIP3    H217668   6.028   2.986   0.926
 5902TIP3   OH217669   7.076   5.089   5.151
 5902TIP3    H117670   7.140   5.154   5.180
 5902TIP3    H217671   6.991   5.131   5.164
 5903TIP3   OH217672   5.270   1.165   0.243
 5903TIP3    H117673   5.292   1.233   0.307
 5903TIP3    H217674   5.352   1.119   0.228
 5904TIP3   OH217675   0.786   6.034   5.379
 5904TIP3    H117676   0.743   6.120   5.378
 5904TIP3    H217677   0.862   6.047   5.435
 5905TIP3   OH217678   6.565   5.114   0.218
 5905TIP3    H117679   6.645   5.166   0.211
 5905TIP3    H217680   6.592   5.026   0.190
 5906TIP3   OH217681   3.903   2.076   4.204
 5906TIP3    H117682   3.977   2.054   4.147
 5906TIP3    H217683   3.943   2.113   4.282
 5907TIP3   OH217684   6.469   1.066   1.390
 5907TIP3    H117685   6.428   1.153   1.384
 5907TIP3    H217686   6.396   1.005   1.381
 5908TIP3   OH217687   3.532   0.576   4.499
 5908TIP3    H117688   3.626   0.560   4.508
 5908TIP3    H217689   3.490   0.512   4.556
 5909TIP3   OH217690   0.191   6.132   4.632
 5909TIP3    H117691   0.188   6.148   4.538
 5909TIP3    H217692   0.254   6.061   4.643
 5910TIP3   OH217693   7.039   2.253   3.446
 5910TIP3    H117694   7.119   2.303   3.432
 5910TIP3    H217695   7.021   2.262   3.540
 5911TIP3   OH217696   5.307   1.903   4.828
 5911TIP3    H117697   5.362   1.935   4.756
 5911TIP3    H217698   5.218   1.921   4.799
 5912TIP3   OH217699   6.793   0.031   4.902
 5912TIP3    H117700   6.768  -0.011   4.984
 5912TIP3    H217701   6.751   0.116   4.904
 5913TIP3   OH217702   0.461   2.592   4.478
 5913TIP3    H117703   0.396   2.540   4.431
 5913TIP3    H217704   0.482   2.540   4.555
 5914TIP3   OH217705   0.806   1.199   2.865
 5914TIP3    H117706   0.848   1.153   2.938
 5914TIP3    H217707   0.811   1.291   2.890
 5915TIP3   OH217708   1.667   6.231   1.138
 5915TIP3    H117709   1.650   6.183   1.220
 5915TIP3    H217710   1.582   6.268   1.114
 5916TIP3   OH217711   6.203   2.013   0.698
 5916TIP3    H117712   6.116   2.039   0.667
 5916TIP3    H217713   6.259   2.019   0.620
 5917TIP3   OH217714   4.553   2.770   0.728
 5917TIP3    H117715   4.563   2.700   0.663
 5917TIP3    H217716   4.497   2.835   0.686
 5918TIP3   OH217717   5.769   5.305   0.749
 5918TIP3    H117718   5.766   5.216   0.713
 5918TIP3    H217719   5.857   5.313   0.786
 5919TIP3   OH217720   3.124   0.087   3.422
 5919TIP3    H117721   3.093   0.145   3.491
 5919TIP3    H217722   3.050   0.078   3.363
 5920TIP3   OH217723   3.966   2.433   4.281
 5920TIP3    H117724   4.023   2.508   4.298
 5920TIP3    H217725   3.922   2.454   4.199
 5921TIP3   OH217726   3.348   5.505   2.933
 5921TIP3    H117727   3.320   5.584   2.886
 5921TIP3    H217728   3.287   5.498   3.007
 5922TIP3   OH217729   6.334   4.450   2.634
 5922TIP3    H117730   6.382   4.513   2.581
 5922TIP3    H217731   6.326   4.372   2.580
 5923TIP3   OH217732   2.582   5.311   4.011
 5923TIP3    H117733   2.527   5.349   3.942
 5923TIP3    H217734   2.543   5.226   4.030
 5924TIP3   OH217735   3.010   6.031   1.321
 5924TIP3    H117736   3.058   5.978   1.257
 5924TIP3    H217737   3.070   6.102   1.342
 5925TIP3   OH217738   1.989   6.609   5.635
 5925TIP3    H117739   2.039   6.537   5.597
 5925TIP3    H217740   1.943   6.569   5.709
 5926TIP3   OH217741   3.305   1.926   4.776
 5926TIP3    H117742   3.384   1.933   4.723
 5926TIP3    H217743   3.234   1.928   4.712
 5927TIP3   OH217744   0.450   2.947   5.423
 5927TIP3    H117745   0.464   3.001   5.500
 5927TIP3    H217746   0.534   2.948   5.376
 5928TIP3   OH217747   1.996   3.376   2.801
 5928TIP3    H117748   1.912   3.355   2.842
 5928TIP3    H217749   2.011   3.304   2.740
 5929TIP3   OH217750   2.306   6.074   5.740
 5929TIP3    H117751   2.354   6.001   5.700
 5929TIP3    H217752   2.365   6.109   5.805
 5930TIP3   OH217753   4.913   4.313   3.150
 5930TIP3    H117754   4.918   4.296   3.244
 5930TIP3    H217755   4.819   4.323   3.133
 5931TIP3   OH217756   4.471   5.060   5.877
 5931TIP3    H117757   4.473   5.101   5.963
 5931TIP3    H217758   4.483   4.967   5.894
 5932TIP3   OH217759   5.326   6.639   1.807
 5932TIP3    H117760   5.337   6.549   1.775
 5932TIP3    H217761   5.341   6.634   1.901
 5933TIP3   OH217762   2.621   6.207   0.129
 5933TIP3    H117763   2.545   6.189   0.185
 5933TIP3    H217764   2.617   6.140   0.061
 5934TIP3   OH217765   6.750   0.075   2.187
 5934TIP3    H117766   6.844   0.064   2.203
 5934TIP3    H217767   6.744   0.154   2.134
 5935TIP3   OH217768   0.251   3.363   3.616
 5935TIP3    H117769   0.290   3.450   3.618
 5935TIP3    H217770   0.250   3.335   3.708
 5936TIP3   OH217771   1.745   1.902   3.310
 5936TIP3    H117772   1.839   1.906   3.327
 5936TIP3    H217773   1.708   1.971   3.365
 5937TIP3   OH217774   0.483   6.681   3.355
 5937TIP3    H117775   0.421   6.745   3.390
 5937TIP3    H217776   0.488   6.701   3.261
 5938TIP3   OH217777   5.089   4.943   1.131
 5938TIP3    H117778   5.138   4.971   1.208
 5938TIP3    H217779   5.144   4.966   1.057
 5939TIP3   OH217780   2.803   1.752   0.762
 5939TIP3    H117781   2.885   1.721   0.724
 5939TIP3    H217782   2.746   1.767   0.686
 5940TIP3   OH217783   4.690   5.557   2.879
 5940TIP3    H117784   4.625   5.536   2.811
 5940TIP3    H217785   4.755   5.487   2.872
 5941TIP3   OH217786   3.175   1.203   4.483
 5941TIP3    H117787   3.118   1.134   4.519
 5941TIP3    H217788   3.180   1.183   4.390
 5942TIP3   OH217789   0.613   0.713   1.401
 5942TIP3    H117790   0.559   0.690   1.326
 5942TIP3    H217791   0.693   0.662   1.390
 5943TIP3   OH217792   1.944   0.145   5.837
 5943TIP3    H117793   2.004   0.111   5.903
 5943TIP3    H217794   1.937   0.238   5.856
 5944TIP3   OH217795   0.148   5.000   4.411
 5944TIP3    H117796   0.069   5.025   4.459
 5944TIP3    H217797   0.217   4.996   4.477
 5945TIP3   OH217798   3.326   6.257   1.557
 5945TIP3    H117799   3.279   6.182   1.594
 5945TIP3    H217800   3.328   6.322   1.627
 5946TIP3   OH217801   0.911   0.502   0.796
 5946TIP3    H117802   0.880   0.572   0.739
 5946TIP3    H217803   0.889   0.421   0.750
 5947TIP3   OH217804   5.193   6.252   1.210
 5947TIP3    H117805   5.257   6.287   1.272
 5947TIP3    H217806   5.132   6.203   1.265
 5948TIP3   OH217807   4.004   3.207   3.860
 5948TIP3    H117808   4.036   3.175   3.945
 5948TIP3    H217809   3.972   3.295   3.878
 5949TIP3   OH217810   1.433   4.846   2.735
 5949TIP3    H117811   1.471   4.850   2.823
 5949TIP3    H217812   1.359   4.906   2.737
 5950TIP3   OH217813   0.141   0.275   1.415
 5950TIP3    H117814   0.184   0.359   1.397
 5950TIP3    H217815   0.052   0.299   1.439
 5951TIP3   OH217816   4.942   6.262   5.777
 5951TIP3    H117817   4.856   6.304   5.773
 5951TIP3    H217818   5.003   6.329   5.748
 5952TIP3   OH217819   4.341   1.688   3.476
 5952TIP3    H117820   4.332   1.747   3.401
 5952TIP3    H217821   4.428   1.706   3.510
 5953TIP3   OH217822   5.008   4.246   1.781
 5953TIP3    H117823   4.956   4.299   1.720
 5953TIP3    H217824   5.097   4.249   1.745
 5954TIP3   OH217825   6.864   1.378   3.570
 5954TIP3    H117826   6.853   1.298   3.519
 5954TIP3    H217827   6.775   1.413   3.579
 5955TIP3   OH217828   5.197   1.754   2.510
 5955TIP3    H117829   5.211   1.780   2.601
 5955TIP3    H217830   5.210   1.835   2.460
 5956TIP3   OH217831   1.451   1.830   4.961
 5956TIP3    H117832   1.410   1.746   4.941
 5956TIP3    H217833   1.530   1.807   5.010
 5957TIP3   OH217834   1.677   0.526   0.132
 5957TIP3    H117835   1.677   0.433   0.109
 5957TIP3    H217836   1.696   0.528   0.226
 5958TIP3   OH217837   2.604   4.387   4.191
 5958TIP3    H117838   2.650   4.471   4.182
 5958TIP3    H217839   2.512   4.410   4.185
 5959TIP3   OH217840   0.336   2.723   1.170
 5959TIP3    H117841   0.351   2.740   1.077
 5959TIP3    H217842   0.377   2.798   1.214
 5960TIP3   OH217843   5.639   2.646   3.510
 5960TIP3    H117844   5.584   2.660   3.432
 5960TIP3    H217845   5.704   2.581   3.482
 5961TIP3   OH217846   4.152   4.881   2.346
 5961TIP3    H117847   4.068   4.926   2.335
 5961TIP3    H217848   4.128   4.793   2.377
 5962TIP3   OH217849   2.974   5.415   4.862
 5962TIP3    H117850   2.908   5.352   4.835
 5962TIP3    H217851   2.970   5.484   4.795
 5963TIP3   OH217852   6.333   1.847   3.268
 5963TIP3    H117853   6.400   1.912   3.293
 5963TIP3    H217854   6.381   1.764   3.264
 5964TIP3   OH217855   2.386   5.841   5.639
 5964TIP3    H117856   2.343   5.760   5.614
 5964TIP3    H217857   2.456   5.815   5.699
 5965TIP3   OH217858   6.493   5.983   2.393
 5965TIP3    H117859   6.517   6.062   2.442
 5965TIP3    H217860   6.494   6.011   2.301
 5966TIP3   OH217861   6.454   6.711   5.520
 5966TIP3    H117862   6.407   6.723   5.438
 5966TIP3    H217863   6.401   6.756   5.585
 5967TIP3   OH217864   6.618   1.746   3.246
 5967TIP3    H117865   6.709   1.744   3.218
 5967TIP3    H217866   6.614   1.813   3.314
 5968TIP3   OH217867   0.151   3.634   3.456
 5968TIP3    H117868   0.183   3.724   3.456
 5968TIP3    H217869   0.147   3.610   3.548
 5969TIP3   OH217870   1.925   4.296   4.781
 5969TIP3    H117871   2.016   4.321   4.766
 5969TIP3    H217872   1.926   4.201   4.784
 5970TIP3   OH217873   0.689   2.240   5.797
 5970TIP3    H117874   0.687   2.256   5.892
 5970TIP3    H217875   0.606   2.198   5.778
 5971TIP3   OH217876   5.924   1.811   4.068
 5971TIP3    H117877   5.911   1.846   4.156
 5971TIP3    H217878   6.009   1.767   4.072
 5972TIP3   OH217879   7.149   5.286   1.650
 5972TIP3    H117880   7.087   5.228   1.695
 5972TIP3    H217881   7.216   5.227   1.615
 5973TIP3   OH217882   2.243   0.681   4.568
 5973TIP3    H117883   2.164   0.735   4.570
 5973TIP3    H217884   2.312   0.739   4.535
 5974TIP3   OH217885   5.659   5.889   4.911
 5974TIP3    H117886   5.738   5.855   4.954
 5974TIP3    H217887   5.686   5.973   4.874
 5975TIP3   OH217888   3.426   4.318   0.241
 5975TIP3    H117889   3.427   4.409   0.272
 5975TIP3    H217890   3.349   4.279   0.282
 5976TIP3   OH217891   5.192   6.225   0.938
 5976TIP3    H117892   5.195   6.228   1.034
 5976TIP3    H217893   5.236   6.144   0.915
 5977TIP3   OH217894   1.976   4.990   1.402
 5977TIP3    H117895   1.983   5.065   1.343
 5977TIP3    H217896   1.902   5.010   1.459
 5978TIP3   OH217897   3.961   3.229   0.494
 5978TIP3    H117898   3.914   3.252   0.414
 5978TIP3    H217899   4.020   3.158   0.469
 5979TIP3   OH217900   6.444   1.031   4.207
 5979TIP3    H117901   6.482   1.021   4.119
 5979TIP3    H217902   6.474   0.953   4.254
 5980TIP3   OH217903   0.526   1.342   0.968
 5980TIP3    H117904   0.511   1.250   0.946
 5980TIP3    H217905   0.500   1.349   1.059
 5981TIP3   OH217906   1.122   0.787   3.068
 5981TIP3    H117907   1.161   0.831   3.144
 5981TIP3    H217908   1.196   0.755   3.017
 5982TIP3   OH217909   0.659   5.690   4.425
 5982TIP3    H117910   0.588   5.639   4.464
 5982TIP3    H217911   0.739   5.649   4.459
 5983TIP3   OH217912   4.915   1.072   4.969
 5983TIP3    H117913   4.937   1.164   4.980
 5983TIP3    H217914   4.949   1.029   5.048
 5984TIP3   OH217915   5.543   0.665   3.794
 5984TIP3    H117916   5.624   0.709   3.819
 5984TIP3    H217917   5.567   0.573   3.784
 5985TIP3   OH217918   2.967   5.266   0.679
 5985TIP3    H117919   2.975   5.280   0.585
 5985TIP3    H217920   3.029   5.196   0.698
 5986TIP3   OH217921   3.333   1.881   3.421
 5986TIP3    H117922   3.337   1.801   3.368
 5986TIP3    H217923   3.314   1.850   3.509
 5987TIP3   OH217924   3.528   0.999   4.328
 5987TIP3    H117925   3.553   1.088   4.302
 5987TIP3    H217926   3.610   0.951   4.331
 5988TIP3   OH217927   0.080   4.342   4.989
 5988TIP3    H117928   0.073   4.279   4.917
 5988TIP3    H217929   0.173   4.363   4.993
 5989TIP3   OH217930   4.584   6.461   4.270
 5989TIP3    H117931   4.550   6.436   4.355
 5989TIP3    H217932   4.679   6.449   4.277
 5990TIP3   OH217933   1.692   3.433   3.920
 5990TIP3    H117934   1.636   3.418   3.844
 5990TIP3    H217935   1.750   3.505   3.893
 5991TIP3   OH217936   1.079   0.769   0.184
 5991TIP3    H117937   1.048   0.775   0.093
 5991TIP3    H217938   1.029   0.836   0.231
 5992TIP3   OH217939   2.080   1.034   3.215
 5992TIP3    H117940   2.043   1.079   3.291
 5992TIP3    H217941   2.100   0.946   3.246
 5993TIP3   OH217942   5.761   2.745   1.611
 5993TIP3    H117943   5.684   2.713   1.657
 5993TIP3    H217944   5.744   2.725   1.519
 5994TIP3   OH217945   6.567   1.988   0.980
 5994TIP3    H117946   6.557   2.069   0.931
 5994TIP3    H217947   6.661   1.978   0.992
 5995TIP3   OH217948   2.540   0.388   0.783
 5995TIP3    H117949   2.591   0.450   0.731
 5995TIP3    H217950   2.451   0.396   0.747
 5996TIP3   OH217951   6.382   0.768   0.724
 5996TIP3    H117952   6.295   0.808   0.724
 5996TIP3    H217953   6.409   0.769   0.632
 5997TIP3   OH217954   1.047   5.895   2.488
 5997TIP3    H117955   1.008   5.812   2.461
 5997TIP3    H217956   1.141   5.883   2.474
 5998TIP3   OH217957   5.345   0.163   2.136
 5998TIP3    H117958   5.292   0.184   2.058
 5998TIP3    H217959   5.391   0.244   2.156
 5999TIP3   OH217960   0.501   5.614   1.183
 5999TIP3    H117961   0.536   5.536   1.225
 5999TIP3    H217962   0.408   5.614   1.205
 6000TIP3   OH217963   2.976   6.186   5.001
 6000TIP3    H117964   3.021   6.263   5.036
 6000TIP3    H217965   3.004   6.183   4.909
 6001TIP3   OH217966   0.508   4.162   2.535
 6001TIP3    H117967   0.555   4.201   2.609
 6001TIP3    H217968   0.569   4.098   2.499
 6002TIP3   OH217969   4.150   6.216   5.602
 6002TIP3    H117970   4.141   6.148   5.668
 6002TIP3    H217971   4.120   6.296   5.645
 6003TIP3   OH217972   0.179   1.470   5.672
 6003TIP3    H117973   0.260   1.419   5.685
 6003TIP3    H217974   0.112   1.422   5.720
 6004TIP3   OH217975   0.496   0.684   2.361
 6004TIP3    H117976   0.492   0.747   2.433
 6004TIP3    H217977   0.406   0.657   2.348
 6005TIP3   OH217978   1.903   5.565   1.367
 6005TIP3    H117979   1.879   5.533   1.280
 6005TIP3    H217980   1.830   5.541   1.423
 6006TIP3   OH217981   0.126   2.287   3.921
 6006TIP3    H117982   0.049   2.245   3.882
 6006TIP3    H217983   0.135   2.245   4.007
 6007TIP3   OH217984   2.621   6.736   3.112
 6007TIP3    H117985   2.697   6.767   3.063
 6007TIP3    H217986   2.570   6.815   3.129
 6008TIP3   OH217987   3.854   6.578   2.212
 6008TIP3    H117988   3.919   6.544   2.273
 6008TIP3    H217989   3.848   6.511   2.143
 6009TIP3   OH217990   6.946   0.477   4.861
 6009TIP3    H117991   7.030   0.444   4.894
 6009TIP3    H217992   6.968   0.515   4.776
 6010TIP3   OH217993   2.318   2.724   0.922
 6010TIP3    H117994   2.388   2.659   0.927
 6010TIP3    H217995   2.326   2.775   1.003
 6011TIP3   OH217996   0.495   3.030   0.323
 6011TIP3    H117997   0.480   2.936   0.309
 6011TIP3    H217998   0.437   3.053   0.396
 6012TIP3   OH217999   6.016   4.314   2.031
 6012TIP3    H118000   5.937   4.263   2.011
 6012TIP3    H218001   6.071   4.304   1.953
 6013TIP3   OH218002   6.105   1.313   0.606
 6013TIP3    H118003   6.046   1.379   0.643
 6013TIP3    H218004   6.070   1.297   0.518
 6014TIP3   OH218005   1.374   4.332   5.189
 6014TIP3    H118006   1.469   4.323   5.193
 6014TIP3    H218007   1.357   4.425   5.205
 6015TIP3   OH218008   0.641   2.854   1.145
 6015TIP3    H118009   0.732   2.866   1.172
 6015TIP3    H218010   0.614   2.772   1.185
 6016TIP3   OH218011   4.806   6.379   4.909
 6016TIP3    H118012   4.775   6.294   4.941
 6016TIP3    H218013   4.729   6.420   4.870
 6017TIP3   OH218014   4.143   4.706   3.241
 6017TIP3    H118015   4.157   4.794   3.278
 6017TIP3    H218016   4.049   4.702   3.225
 6018TIP3   OH218017   6.865   4.365   1.664
 6018TIP3    H118018   6.883   4.426   1.736
 6018TIP3    H218019   6.836   4.421   1.592
 6019TIP3   OH218020   0.126   0.854   2.135
 6019TIP3    H118021   0.114   0.870   2.228
 6019TIP3    H218022   0.051   0.896   2.093
 6020TIP3   OH218023   6.322   4.261   3.644
 6020TIP3    H118024   6.377   4.337   3.667
 6020TIP3    H218025   6.380   4.186   3.655
 6021TIP3   OH218026   4.111   0.868   4.997
 6021TIP3    H118027   4.068   0.951   5.016
 6021TIP3    H218028   4.202   0.891   4.979
 6022TIP3   OH218029   7.122   4.995   0.609
 6022TIP3    H118030   7.087   4.975   0.696
 6022TIP3    H218031   7.215   4.973   0.614
 6023TIP3   OH218032   3.849   0.416   2.606
 6023TIP3    H118033   3.858   0.454   2.693
 6023TIP3    H218034   3.847   0.321   2.621
 6024TIP3   OH218035   3.731   6.138   0.123
 6024TIP3    H118036   3.754   6.192   0.048
 6024TIP3    H218037   3.739   6.048   0.092
 6025TIP3   OH218038   1.745   6.379   5.457
 6025TIP3    H118039   1.766   6.462   5.414
 6025TIP3    H218040   1.830   6.342   5.482
 6026TIP3   OH218041   5.405   6.677   3.017
 6026TIP3    H118042   5.394   6.597   2.965
 6026TIP3    H218043   5.439   6.741   2.954
 6027TIP3   OH218044   1.012   2.334   2.552
 6027TIP3    H118045   1.066   2.255   2.560
 6027TIP3    H218046   0.989   2.339   2.459
 6028TIP3   OH218047   6.002   2.618   0.564
 6028TIP3    H118048   5.974   2.709   0.549
 6028TIP3    H218049   6.037   2.619   0.653
 6029TIP3   OH218050   6.931   0.802   3.832
 6029TIP3    H118051   7.018   0.820   3.797
 6029TIP3    H218052   6.872   0.859   3.782
 6030TIP3   OH218053   6.306   1.761   1.165
 6030TIP3    H118054   6.362   1.707   1.109
 6030TIP3    H218055   6.263   1.821   1.104
 6031TIP3   OH218056   3.137   5.085   0.801
 6031TIP3    H118057   3.204   5.052   0.860
 6031TIP3    H218058   3.075   5.130   0.857
 6032TIP3   OH218059   2.489   0.430   5.076
 6032TIP3    H118060   2.474   0.410   4.984
 6032TIP3    H218061   2.450   0.516   5.089
 6033TIP3   OH218062   0.052   0.023   2.468
 6033TIP3    H118063   0.048   0.039   2.562
 6033TIP3    H218064   0.015   0.102   2.429
 6034TIP3   OH218065   1.852   6.752   2.917
 6034TIP3    H118066   1.946   6.753   2.939
 6034TIP3    H218067   1.815   6.684   2.972
 6035TIP3   OH218068   2.070   5.244   4.926
 6035TIP3    H118069   1.987   5.241   4.878
 6035TIP3    H218070   2.086   5.154   4.953
 6036TIP3   OH218071   1.146   5.044   3.448
 6036TIP3    H118072   1.152   4.993   3.367
 6036TIP3    H218073   1.215   5.111   3.438
 6037TIP3   OH218074   7.203   0.133   4.288
 6037TIP3    H118075   7.164   0.061   4.240
 6037TIP3    H218076   7.195   0.208   4.229
 6038TIP3   OH218077   5.103   4.539   1.390
 6038TIP3    H118078   5.030   4.580   1.437
 6038TIP3    H218079   5.150   4.490   1.457
 6039TIP3   OH218080   5.813   5.506   2.994
 6039TIP3    H118081   5.793   5.413   3.005
 6039TIP3    H218082   5.880   5.524   3.060
 6040TIP3   OH218083   0.031   5.032   3.096
 6040TIP3    H118084  -0.058   5.063   3.078
 6040TIP3    H218085   0.033   5.015   3.190
 6041TIP3   OH218086   5.761   0.255   5.460
 6041TIP3    H118087   5.789   0.329   5.407
 6041TIP3    H218088   5.802   0.270   5.546
 6042TIP3   OH218089   2.984   3.333   4.611
 6042TIP3    H118090   2.936   3.283   4.677
 6042TIP3    H218091   2.955   3.423   4.622
 6043TIP3   OH218092   4.279   5.525   0.561
 6043TIP3    H118093   4.342   5.587   0.598
 6043TIP3    H218094   4.195   5.572   0.563
 6044TIP3   OH218095   5.164   6.088   4.475
 6044TIP3    H118096   5.088   6.036   4.447
 6044TIP3    H218097   5.151   6.101   4.569
 6045TIP3   OH218098   5.582   3.262   3.307
 6045TIP3    H118099   5.575   3.331   3.373
 6045TIP3    H218100   5.498   3.218   3.308
 6046TIP3   OH218101   3.861   5.322   0.207
 6046TIP3    H118102   3.801   5.305   0.134
 6046TIP3    H218103   3.900   5.237   0.226
 6047TIP3   OH218104   5.650   3.301   2.679
 6047TIP3    H118105   5.591   3.274   2.749
 6047TIP3    H218106   5.730   3.249   2.693
 6048TIP3   OH218107   6.147   3.412   1.090
 6048TIP3    H118108   6.137   3.460   1.008
 6048TIP3    H218109   6.169   3.478   1.155
 6049TIP3   OH218110   0.826   3.736   1.360
 6049TIP3    H118111   0.741   3.698   1.384
 6049TIP3    H218112   0.835   3.813   1.416
 6050TIP3   OH218113   6.296   4.277   5.712
 6050TIP3    H118114   6.333   4.365   5.711
 6050TIP3    H218115   6.240   4.276   5.790
 6051TIP3   OH218116   0.300   6.540   2.012
 6051TIP3    H118117   0.265   6.469   2.065
 6051TIP3    H218118   0.378   6.503   1.971
 6052TIP3   OH218119   6.988   2.205   1.641
 6052TIP3    H118120   7.024   2.152   1.570
 6052TIP3    H218121   6.902   2.166   1.658
 6053TIP3   OH218122   5.191   4.710   3.530
 6053TIP3    H118123   5.242   4.661   3.594
 6053TIP3    H218124   5.184   4.798   3.568
 6054TIP3   OH218125   4.554   2.706   2.093
 6054TIP3    H118126   4.628   2.759   2.123
 6054TIP3    H218127   4.539   2.734   2.003
 6055TIP3   OH218128   2.692   1.589   0.950
 6055TIP3    H118129   2.682   1.670   0.900
 6055TIP3    H218130   2.624   1.531   0.917
 6056TIP3   OH218131   0.769   5.388   4.096
 6056TIP3    H118132   0.860   5.375   4.121
 6056TIP3    H218133   0.771   5.456   4.029
 6057TIP3   OH218134   3.059   0.816   3.093
 6057TIP3    H118135   3.004   0.740   3.115
 6057TIP3    H218136   3.009   0.862   3.026
 6058TIP3   OH218137   4.991   4.068   5.346
 6058TIP3    H118138   4.926   4.038   5.283
 6058TIP3    H218139   4.983   4.163   5.347
 6059TIP3   OH218140   5.472   6.314   4.430
 6059TIP3    H118141   5.520   6.340   4.351
 6059TIP3    H218142   5.531   6.335   4.502
 6060TIP3   OH218143   4.389   3.319   3.547
 6060TIP3    H118144   4.308   3.320   3.598
 6060TIP3    H218145   4.400   3.409   3.516
 6061TIP3   OH218146   3.794   2.721   3.858
 6061TIP3    H118147   3.722   2.737   3.918
 6061TIP3    H218148   3.765   2.646   3.806
 6062TIP3   OH218149   3.632   1.540   1.997
 6062TIP3    H118150   3.650   1.464   2.052
 6062TIP3    H218151   3.647   1.510   1.908
 6063TIP3   OH218152   6.100   2.458   5.450
 6063TIP3    H118153   6.174   2.441   5.509
 6063TIP3    H218154   6.137   2.511   5.380
 6064TIP3   OH218155   6.789   5.927   1.369
 6064TIP3    H118156   6.788   5.842   1.325
 6064TIP3    H218157   6.841   5.912   1.448
 6065TIP3   OH218158   4.223   6.524   1.307
 6065TIP3    H118159   4.220   6.429   1.301
 6065TIP3    H218160   4.297   6.542   1.364
 6066TIP3   OH218161   1.825   2.070   1.803
 6066TIP3    H118162   1.800   2.162   1.796
 6066TIP3    H218163   1.748   2.027   1.839
 6067TIP3   OH218164   1.628   4.824   0.168
 6067TIP3    H118165   1.612   4.916   0.148
 6067TIP3    H218166   1.653   4.824   0.260
 6068TIP3   OH218167   6.504   3.687   5.822
 6068TIP3    H118168   6.519   3.675   5.729
 6068TIP3    H218169   6.427   3.744   5.828
 6069TIP3   OH218170   4.031   3.014   5.407
 6069TIP3    H118171   3.937   3.018   5.390
 6069TIP3    H218172   4.059   2.931   5.370
 6070TIP3   OH218173   1.378   5.368   2.235
 6070TIP3    H118174   1.422   5.449   2.263
 6070TIP3    H218175   1.294   5.398   2.199
 6071TIP3   OH218176   0.982   5.148   0.299
 6071TIP3    H118177   1.010   5.085   0.233
 6071TIP3    H218178   0.950   5.223   0.248
 6072TIP3   OH218179   0.025   5.994   4.040
 6072TIP3    H118180   0.097   5.956   3.991
 6072TIP3    H218181  -0.037   6.024   3.974
 6073TIP3   OH218182   6.056   5.447   4.114
 6073TIP3    H118183   6.031   5.376   4.055
 6073TIP3    H218184   5.975   5.495   4.131
 6074TIP3   OH218185   4.159   3.244   1.196
 6074TIP3    H118186   4.083   3.202   1.236
 6074TIP3    H218187   4.228   3.236   1.262
 6075TIP3   OH218188   0.544   2.204   0.448
 6075TIP3    H118189   0.600   2.150   0.392
 6075TIP3    H218190   0.583   2.291   0.444
 6076TIP3   OH218191   4.360   1.226   0.705
 6076TIP3    H118192   4.303   1.199   0.633
 6076TIP3    H218193   4.421   1.152   0.716
 6077TIP3   OH218194   3.272   3.895   3.332
 6077TIP3    H118195   3.218   3.959   3.379
 6077TIP3    H218196   3.281   3.933   3.244
 6078TIP3   OH218197   4.184   0.680   3.583
 6078TIP3    H118198   4.147   0.690   3.670
 6078TIP3    H218199   4.271   0.643   3.597
 6079TIP3   OH218200   1.777   4.238   1.871
 6079TIP3    H118201   1.804   4.326   1.842
 6079TIP3    H218202   1.708   4.255   1.936
 6080TIP3   OH218203   0.398   1.969   2.013
 6080TIP3    H118204   0.332   1.901   1.997
 6080TIP3    H218205   0.459   1.929   2.075
 6081TIP3   OH218206   4.188   6.747   4.742
 6081TIP3    H118207   4.274   6.772   4.776
 6081TIP3    H218208   4.188   6.777   4.651
 6082TIP3   OH218209   3.641   2.086   5.013
 6082TIP3    H118210   3.644   1.991   5.000
 6082TIP3    H218211   3.549   2.106   5.025
 6083TIP3   OH218212   2.718   5.209   1.132
 6083TIP3    H118213   2.805   5.245   1.117
 6083TIP3    H218214   2.722   5.171   1.220
 6084TIP3   OH218215   2.133   6.322   1.346
 6084TIP3    H118216   2.161   6.373   1.422
 6084TIP3    H218217   2.191   6.350   1.275
 6085TIP3   OH218218   5.887   1.117   4.929
 6085TIP3    H118219   5.915   1.064   5.004
 6085TIP3    H218220   5.847   1.195   4.968
 6086TIP3   OH218221   1.768   4.791   3.540
 6086TIP3    H118222   1.819   4.848   3.597
 6086TIP3    H218223   1.709   4.851   3.493
 6087TIP3   OH218224   4.450   5.523   1.290
 6087TIP3    H118225   4.497   5.443   1.311
 6087TIP3    H218226   4.393   5.500   1.217
 6088TIP3   OH218227   5.656   4.037   1.712
 6088TIP3    H118228   5.648   3.943   1.723
 6088TIP3    H218229   5.567   4.071   1.719
 6089TIP3   OH218230   3.836   5.750   1.296
 6089TIP3    H118231   3.894   5.677   1.275
 6089TIP3    H218232   3.826   5.747   1.391
 6090TIP3   OH218233   0.332   5.447   5.069
 6090TIP3    H118234   0.278   5.512   5.115
 6090TIP3    H218235   0.325   5.471   4.977
 6091TIP3   OH218236   0.558   1.712   5.317
 6091TIP3    H118237   0.463   1.702   5.321
 6091TIP3    H218238   0.585   1.658   5.243
 6092TIP3   OH218239   5.624   1.016   3.399
 6092TIP3    H118240   5.669   0.940   3.435
 6092TIP3    H218241   5.649   1.018   3.306
 6093TIP3   OH218242   1.302   2.215   5.821
 6093TIP3    H118243   1.330   2.295   5.777
 6093TIP3    H218244   1.301   2.149   5.752
 6094TIP3   OH218245   4.676   3.963   2.102
 6094TIP3    H118246   4.580   3.966   2.096
 6094TIP3    H218247   4.696   3.871   2.118
 6095TIP3   OH218248   2.060   5.950   4.775
 6095TIP3    H118249   2.136   5.891   4.770
 6095TIP3    H218250   2.094   6.035   4.746
 6096TIP3   OH218251   3.998   3.773   3.876
 6096TIP3    H118252   4.044   3.694   3.845
 6096TIP3    H218253   3.933   3.739   3.938
 6097TIP3   OH218254   0.977   5.283   5.059
 6097TIP3    H118255   0.915   5.335   5.111
 6097TIP3    H218256   0.944   5.290   4.969
 6098TIP3   OH218257   4.966   4.579   3.280
 6098TIP3    H118258   4.988   4.672   3.279
 6098TIP3    H218259   5.004   4.544   3.199
 6099TIP3   OH218260   2.818   2.711   2.529
 6099TIP3    H118261   2.845   2.705   2.621
 6099TIP3    H218262   2.737   2.762   2.531
 6100TIP3   OH218263   0.338   4.320   0.620
 6100TIP3    H118264   0.244   4.325   0.601
 6100TIP3    H218265   0.380   4.324   0.534
 6101TIP3   OH218266   0.226   4.328   1.362
 6101TIP3    H118267   0.207   4.411   1.319
 6101TIP3    H218268   0.289   4.285   1.303
 6102TIP3   OH218269   3.621   5.651   2.717
 6102TIP3    H118270   3.527   5.658   2.696
 6102TIP3    H218271   3.634   5.714   2.787
 6103TIP3   OH218272   4.546   6.116   0.196
 6103TIP3    H118273   4.526   6.090   0.286
 6103TIP3    H218274   4.627   6.070   0.175
 6104TIP3   OH218275   0.505   2.065   1.508
 6104TIP3    H118276   0.460   2.039   1.588
 6104TIP3    H218277   0.595   2.084   1.536
 6105TIP3   OH218278   4.659   2.544   4.654
 6105TIP3    H118279   4.599   2.591   4.712
 6105TIP3    H218280   4.703   2.613   4.604
 6106TIP3   OH218281   7.171   5.244   3.261
 6106TIP3    H118282   7.189   5.158   3.299
 6106TIP3    H218283   7.137   5.296   3.333
 6107TIP3   OH218284   5.946   4.670   2.499
 6107TIP3    H118285   5.956   4.765   2.499
 6107TIP3    H218286   5.931   4.648   2.591
 6108TIP3   OH218287   3.432   2.749   5.336
 6108TIP3    H118288   3.442   2.844   5.344
 6108TIP3    H218289   3.450   2.715   5.424
 6109TIP3   OH218290   4.567   4.679   3.262
 6109TIP3    H118291   4.640   4.638   3.216
 6109TIP3    H218292   4.608   4.740   3.323
 6110TIP3   OH218293   5.877   2.639   4.983
 6110TIP3    H118294   5.808   2.699   5.014
 6110TIP3    H218295   5.892   2.664   4.892
 6111TIP3   OH218296   1.627   3.624   1.712
 6111TIP3    H118297   1.666   3.595   1.794
 6111TIP3    H218298   1.542   3.661   1.737
 6112TIP3   OH218299   6.681   1.181   0.124
 6112TIP3    H118300   6.658   1.165   0.216
 6112TIP3    H218301   6.598   1.202   0.081
 6113TIP3   OH218302   6.670   2.268   5.054
 6113TIP3    H118303   6.586   2.223   5.054
 6113TIP3    H218304   6.648   2.361   5.046
 6114TIP3   OH218305   1.648   5.926   3.608
 6114TIP3    H118306   1.558   5.896   3.619
 6114TIP3    H218307   1.640   6.021   3.597
 6115TIP3   OH218308   2.514   3.826   1.457
 6115TIP3    H118309   2.446   3.803   1.520
 6115TIP3    H218310   2.506   3.759   1.389
 6116TIP3   OH218311   4.804   4.336   0.540
 6116TIP3    H118312   4.783   4.281   0.465
 6116TIP3    H218313   4.785   4.281   0.616
 6117TIP3   OH218314   6.512   3.089   3.595
 6117TIP3    H118315   6.488   3.005   3.555
 6117TIP3    H218316   6.508   3.152   3.523
 6118TIP3   OH218317   0.387   3.294   4.129
 6118TIP3    H118318   0.377   3.199   4.120
 6118TIP3    H218319   0.332   3.316   4.204
 6119TIP3   OH218320   6.274   1.442   5.516
 6119TIP3    H118321   6.226   1.378   5.464
 6119TIP3    H218322   6.314   1.501   5.452
 6120TIP3   OH218323   0.924   5.916   0.637
 6120TIP3    H118324   0.970   5.864   0.702
 6120TIP3    H218325   0.968   5.898   0.554
 6121TIP3   OH218326   0.310   6.697   2.331
 6121TIP3    H118327   0.319   6.726   2.422
 6121TIP3    H218328   0.266   6.770   2.288
 6122TIP3   OH218329   0.038   2.094   4.563
 6122TIP3    H118330   0.054   2.112   4.655
 6122TIP3    H218331   0.005   2.004   4.561
 6123TIP3   OH218332   5.224   5.235   5.343
 6123TIP3    H118333   5.133   5.266   5.335
 6123TIP3    H218334   5.241   5.235   5.437
 6124TIP3   OH218335   6.594   4.975   4.176
 6124TIP3    H118336   6.572   5.029   4.252
 6124TIP3    H218337   6.557   4.889   4.196
 6125TIP3   OH218338   3.380   5.249   5.466
 6125TIP3    H118339   3.319   5.203   5.409
 6125TIP3    H218340   3.466   5.219   5.439
 6126TIP3   OH218341   5.134   0.939   0.454
 6126TIP3    H118342   5.044   0.956   0.485
 6126TIP3    H218343   5.174   0.888   0.524
 6127TIP3   OH218344   6.512   5.391   0.678
 6127TIP3    H118345   6.598   5.370   0.640
 6127TIP3    H218346   6.518   5.483   0.701
 6128TIP3   OH218347   3.105   2.543   3.357
 6128TIP3    H118348   3.178   2.570   3.302
 6128TIP3    H218349   3.138   2.549   3.447
 6129TIP3   OH218350   3.843   0.504   1.807
 6129TIP3    H118351   3.783   0.575   1.827
 6129TIP3    H218352   3.878   0.477   1.891
 6130TIP3   OH218353   3.313   0.741   4.427
 6130TIP3    H118354   3.377   0.783   4.370
 6130TIP3    H218355   3.366   0.701   4.496
 6131TIP3   OH218356   3.130   3.455   3.654
 6131TIP3    H118357   3.066   3.512   3.695
 6131TIP3    H218358   3.209   3.508   3.648
 6132TIP3   OH218359   5.932   3.995   2.884
 6132TIP3    H118360   6.020   4.031   2.886
 6132TIP3    H218361   5.875   4.071   2.898
 6133TIP3   OH218362   2.871   0.809   0.144
 6133TIP3    H118363   2.888   0.888   0.196
 6133TIP3    H218364   2.871   0.839   0.053
 6134TIP3   OH218365   4.373   0.470   1.748
 6134TIP3    H118366   4.338   0.526   1.678
 6134TIP3    H218367   4.384   0.384   1.707
 6135TIP3   OH218368   4.783   2.561   0.792
 6135TIP3    H118369   4.730   2.523   0.863
 6135TIP3    H218370   4.823   2.638   0.830
 6136TIP3   OH218371   4.562   5.226   5.124
 6136TIP3    H118372   4.522   5.277   5.194
 6136TIP3    H218373   4.648   5.266   5.111
 6137TIP3   OH218374   0.161   6.164   3.742
 6137TIP3    H118375   0.155   6.213   3.824
 6137TIP3    H218376   0.252   6.177   3.713
 6138TIP3   OH218377   2.819   2.728   1.044
 6138TIP3    H118378   2.825   2.681   0.961
 6138TIP3    H218379   2.906   2.720   1.083
 6139TIP3   OH218380   3.361   4.072   3.952
 6139TIP3    H118381   3.290   4.136   3.950
 6139TIP3    H218382   3.441   4.124   3.947
 6140TIP3   OH218383   2.607   5.537   2.413
 6140TIP3    H118384   2.701   5.539   2.435
 6140TIP3    H218385   2.581   5.446   2.430
 6141TIP3   OH218386   1.208   6.167   5.310
 6141TIP3    H118387   1.210   6.210   5.225
 6141TIP3    H218388   1.169   6.081   5.293
 6142TIP3   OH218389   1.551   4.974   0.731
 6142TIP3    H118390   1.642   5.003   0.727
 6142TIP3    H218391   1.556   4.886   0.770
 6143TIP3   OH218392   2.860   4.358   5.213
 6143TIP3    H118393   2.878   4.443   5.173
 6143TIP3    H218394   2.918   4.356   5.290
 6144TIP3   OH218395   2.627   5.874   0.894
 6144TIP3    H118396   2.663   5.931   0.826
 6144TIP3    H218397   2.551   5.832   0.853
 6145TIP3   OH218398   6.536   3.844   0.872
 6145TIP3    H118399   6.588   3.887   0.804
 6145TIP3    H218400   6.495   3.916   0.920
 6146TIP3   OH218401   2.338   5.956  -0.015
 6146TIP3    H118402   2.432   5.967  -0.005
 6146TIP3    H218403   2.299   6.024   0.041
 6147TIP3   OH218404   1.714   3.117   0.645
 6147TIP3    H118405   1.745   3.085   0.560
 6147TIP3    H218406   1.789   3.163   0.683
 6148TIP3   OH218407   5.646   4.778   0.860
 6148TIP3    H118408   5.623   4.704   0.804
 6148TIP3    H218409   5.652   4.852   0.800
 6149TIP3   OH218410   0.161   2.513   1.998
 6149TIP3    H118411   0.134   2.487   1.910
 6149TIP3    H218412   0.081   2.513   2.049
 6150TIP3   OH218413   4.187   5.773   4.062
 6150TIP3    H118414   4.258   5.759   4.125
 6150TIP3    H218415   4.228   5.760   3.976
 6151TIP3   OH218416   3.460   3.117   2.527
 6151TIP3    H118417   3.450   3.024   2.551
 6151TIP3    H218418   3.393   3.132   2.460
 6152TIP3   OH218419   6.536   3.069   2.441
 6152TIP3    H118420   6.524   3.050   2.348
 6152TIP3    H218421   6.463   3.023   2.484
 6153TIP3   OH218422   4.443   1.742   5.168
 6153TIP3    H118423   4.438   1.743   5.072
 6153TIP3    H218424   4.453   1.834   5.192
 6154TIP3   OH218425   1.147   2.374   1.958
 6154TIP3    H118426   1.104   2.459   1.949
 6154TIP3    H218427   1.096   2.316   1.901
 6155TIP3   OH218428   2.230   5.477   2.135
 6155TIP3    H118429   2.297   5.544   2.152
 6155TIP3    H218430   2.273   5.415   2.077
 6156TIP3   OH218431   0.658   3.084   3.969
 6156TIP3    H118432   0.704   3.004   3.944
 6156TIP3    H218433   0.565   3.059   3.971
 6157TIP3   OH218434   4.013   4.215   1.589
 6157TIP3    H118435   3.987   4.218   1.497
 6157TIP3    H218436   3.941   4.169   1.632
 6158TIP3   OH218437   6.106   0.594   5.635
 6158TIP3    H118438   6.115   0.684   5.666
 6158TIP3    H218439   6.051   0.601   5.557
 6159TIP3   OH218440   5.450   2.026   0.913
 6159TIP3    H118441   5.533   2.068   0.937
 6159TIP3    H218442   5.383   2.081   0.954
 6160TIP3   OH218443   2.981   2.856   3.616
 6160TIP3    H118444   2.896   2.861   3.573
 6160TIP3    H218445   3.044   2.882   3.549
 6161TIP3   OH218446   0.684   6.596   2.886
 6161TIP3    H118447   0.736   6.531   2.933
 6161TIP3    H218448   0.641   6.546   2.816
 6162TIP3   OH218449   3.728   5.855   4.286
 6162TIP3    H118450   3.660   5.874   4.352
 6162TIP3    H218451   3.729   5.932   4.230
 6163TIP3   OH218452   3.294   2.697   0.469
 6163TIP3    H118453   3.362   2.642   0.430
 6163TIP3    H218454   3.308   2.690   0.563
 6164TIP3   OH218455   4.828   3.057   2.255
 6164TIP3    H118456   4.736   3.040   2.237
 6164TIP3    H218457   4.827   3.128   2.320
 6165TIP3   OH218458   6.909   0.491   0.820
 6165TIP3    H118459   6.884   0.425   0.885
 6165TIP3    H218460   6.967   0.445   0.759
 6166TIP3   OH218461   5.943   6.504   2.950
 6166TIP3    H118462   5.917   6.530   3.039
 6166TIP3    H218463   5.919   6.412   2.944
 6167TIP3   OH218464   3.489   3.661   0.890
 6167TIP3    H118465   3.552   3.626   0.827
 6167TIP3    H218466   3.542   3.678   0.969
 6168TIP3   OH218467   6.956   2.760   0.284
 6168TIP3    H118468   7.015   2.836   0.286
 6168TIP3    H218469   6.915   2.764   0.197
 6169TIP3   OH218470   0.985   0.186   4.931
 6169TIP3    H118471   1.044   0.231   4.992
 6169TIP3    H218472   0.909   0.163   4.984
 6170TIP3   OH218473   3.219   4.326   4.110
 6170TIP3    H118474   3.240   4.356   4.199
 6170TIP3    H218475   3.269   4.384   4.053
 6171TIP3   OH218476   3.280   1.661   5.145
 6171TIP3    H118477   3.271   1.673   5.051
 6171TIP3    H218478   3.246   1.742   5.183
 6172TIP3   OH218479   3.703   6.514   3.497
 6172TIP3    H118480   3.657   6.593   3.527
 6172TIP3    H218481   3.676   6.505   3.405
 6173TIP3   OH218482   3.470   4.492   3.079
 6173TIP3    H118483   3.557   4.528   3.062
 6173TIP3    H218484   3.455   4.431   3.007
 6174TIP3   OH218485   0.031   4.229   2.534
 6174TIP3    H118486  -0.033   4.227   2.462
 6174TIP3    H218487   0.106   4.181   2.501
 6175TIP3   OH218488   2.341   2.673   2.636
 6175TIP3    H118489   2.286   2.690   2.560
 6175TIP3    H218490   2.293   2.712   2.709
 6176TIP3   OH218491   2.557   5.309   5.095
 6176TIP3    H118492   2.500   5.251   5.145
 6176TIP3    H218493   2.604   5.250   5.035
 6177TIP3   OH218494   5.946   2.736   1.817
 6177TIP3    H118495   5.858   2.721   1.783
 6177TIP3    H218496   5.994   2.774   1.744
 6178TIP3   OH218497   6.071   0.414   1.590
 6178TIP3    H118498   6.103   0.445   1.505
 6178TIP3    H218499   6.140   0.436   1.651
 6179TIP3   OH218500   5.894   0.421   3.892
 6179TIP3    H118501   5.978   0.434   3.936
 6179TIP3    H218502   5.908   0.346   3.834
 6180TIP3   OH218503   3.913   6.182   3.974
 6180TIP3    H118504   3.997   6.227   3.982
 6180TIP3    H218505   3.934   6.089   3.985
 6181TIP3   OH218506   5.108   3.578   2.061
 6181TIP3    H118507   5.029   3.631   2.053
 6181TIP3    H218508   5.116   3.563   2.156
 6182TIP3   OH218509   1.387   1.043   5.442
 6182TIP3    H118510   1.336   1.014   5.366
 6182TIP3    H218511   1.458   1.095   5.405
 6183TIP3   OH218512   3.984   0.970   5.895
 6183TIP3    H118513   3.990   1.055   5.852
 6183TIP3    H218514   4.049   0.974   5.965
 6184TIP3   OH218515   1.270   5.299   3.638
 6184TIP3    H118516   1.277   5.309   3.543
 6184TIP3    H218517   1.180   5.324   3.658
 6185TIP3   OH218518   2.814   1.199   2.362
 6185TIP3    H118519   2.819   1.105   2.341
 6185TIP3    H218520   2.759   1.202   2.441
 6186TIP3   OH218521   1.226   3.917   5.292
 6186TIP3    H118522   1.187   3.893   5.376
 6186TIP3    H218523   1.152   3.946   5.239
 6187TIP3   OH218524   3.483   0.291   3.122
 6187TIP3    H118525   3.397   0.330   3.108
 6187TIP3    H218526   3.540   0.336   3.060
 6188TIP3   OH218527   4.394   1.513   2.228
 6188TIP3    H118528   4.315   1.499   2.279
 6188TIP3    H218529   4.456   1.449   2.262
 6189TIP3   OH218530   4.109   6.030   3.142
 6189TIP3    H118531   4.030   5.986   3.173
 6189TIP3    H218532   4.178   6.001   3.202
 6190TIP3   OH218533   7.091   0.146   1.289
 6190TIP3    H118534   7.006   0.104   1.275
 6190TIP3    H218535   7.155   0.079   1.264
 6191TIP3   OH218536   0.832   1.379   1.946
 6191TIP3    H118537   0.750   1.410   1.908
 6191TIP3    H218538   0.899   1.438   1.912
 6192TIP3   OH218539   5.005   3.365   1.317
 6192TIP3    H118540   4.998   3.366   1.222
 6192TIP3    H218541   5.065   3.437   1.337
 6193TIP3   OH218542   0.383   2.635   2.654
 6193TIP3    H118543   0.465   2.587   2.657
 6193TIP3    H218544   0.406   2.718   2.611
 6194TIP3   OH218545   6.536   3.047   5.059
 6194TIP3    H118546   6.551   3.141   5.052
 6194TIP3    H218547   6.610   3.007   5.013
 6195TIP3   OH218548   1.696   3.163   2.723
 6195TIP3    H118549   1.681   3.097   2.791
 6195TIP3    H218550   1.703   3.245   2.771
 6196TIP3   OH218551   2.335   5.621   0.845
 6196TIP3    H118552   2.403   5.569   0.802
 6196TIP3    H218553   2.353   5.711   0.819
 6197TIP3   OH218554   1.414   3.822   4.456
 6197TIP3    H118555   1.481   3.843   4.391
 6197TIP3    H218556   1.395   3.729   4.442
 6198TIP3   OH218557   3.890   0.031   4.151
 6198TIP3    H118558   3.925   0.108   4.197
 6198TIP3    H218559   3.832   0.068   4.084
 6199TIP3   OH218560   5.729   6.374   0.232
 6199TIP3    H118561   5.740   6.279   0.233
 6199TIP3    H218562   5.818   6.409   0.234
 6200TIP3   OH218563   6.764   3.147   1.766
 6200TIP3    H118564   6.679   3.113   1.738
 6200TIP3    H218565   6.743   3.213   1.832
 6201TIP3   OH218566   0.286   1.461   1.779
 6201TIP3    H118567   0.318   1.509   1.702
 6201TIP3    H218568   0.310   1.517   1.853
 6202TIP3   OH218569   0.563   5.981   2.995
 6202TIP3    H118570   0.568   6.071   3.026
 6202TIP3    H218571   0.654   5.958   2.972
 6203TIP3   OH218572   0.173   1.435   3.249
 6203TIP3    H118573   0.188   1.511   3.192
 6203TIP3    H218574   0.117   1.469   3.319
 6204TIP3   OH218575   5.189   5.573   0.325
 6204TIP3    H118576   5.241   5.578   0.245
 6204TIP3    H218577   5.243   5.616   0.391
 6205TIP3   OH218578   2.737   6.493   4.033
 6205TIP3    H118579   2.659   6.462   4.079
 6205TIP3    H218580   2.737   6.588   4.047
 6206TIP3   OH218581   6.809   5.866   4.341
 6206TIP3    H118582   6.777   5.777   4.358
 6206TIP3    H218583   6.770   5.890   4.257
 6207TIP3   OH218584   4.597   6.678   2.907
 6207TIP3    H118585   4.592   6.671   3.002
 6207TIP3    H218586   4.593   6.772   2.890
 6208TIP3   OH218587   4.524   3.353   3.161
 6208TIP3    H118588   4.444   3.389   3.200
 6208TIP3    H218589   4.549   3.418   3.095
 6209TIP3   OH218590   1.994   4.433   2.592
 6209TIP3    H118591   1.956   4.398   2.673
 6209TIP3    H218592   2.055   4.500   2.622
 6210TIP3   OH218593   6.285   1.500   5.795
 6210TIP3    H118594   6.294   1.502   5.700
 6210TIP3    H218595   6.363   1.545   5.827
 6211TIP3   OH218596   6.177   4.996   1.177
 6211TIP3    H118597   6.223   4.946   1.109
 6211TIP3    H218598   6.152   4.930   1.242
 6212TIP3   OH218599   0.210   5.174   0.172
 6212TIP3    H118600   0.158   5.103   0.209
 6212TIP3    H218601   0.292   5.172   0.220
 6213TIP3   OH218602   2.581   2.919   5.717
 6213TIP3    H118603   2.591   2.894   5.625
 6213TIP3    H218604   2.664   2.896   5.757
 6214TIP3   OH218605   0.072   2.843   2.060
 6214TIP3    H118606   0.153   2.801   2.033
 6214TIP3    H218607   0.088   2.871   2.150
 6215TIP3   OH218608   7.168   3.573   1.237
 6215TIP3    H118609   7.217   3.610   1.163
 6215TIP3    H218610   7.209   3.488   1.252
 6216TIP3   OH218611   1.502   1.966   0.397
 6216TIP3    H118612   1.589   1.989   0.363
 6216TIP3    H218613   1.452   2.048   0.391
 6217TIP3   OH218614   7.130   4.669   1.754
 6217TIP3    H118615   7.038   4.647   1.766
 6217TIP3    H218616   7.145   4.661   1.660
 6218TIP3   OH218617   0.816   4.303   1.357
 6218TIP3    H118618   0.791   4.333   1.270
 6218TIP3    H218619   0.796   4.377   1.414
 6219TIP3   OH218620   5.631   6.257   3.159
 6219TIP3    H118621   5.671   6.179   3.122
 6219TIP3    H218622   5.549   6.267   3.111
 6220TIP3   OH218623   0.458   3.202   0.130
 6220TIP3    H118624   0.495   3.145   0.197
 6220TIP3    H218625   0.529   3.263   0.109
 6221TIP3   OH218626   1.973   4.115   1.194
 6221TIP3    H118627   2.053   4.167   1.198
 6221TIP3    H218628   1.936   4.134   1.108
 6222TIP3   OH218629   5.790   0.394   3.023
 6222TIP3    H118630   5.836   0.333   2.965
 6222TIP3    H218631   5.710   0.416   2.975
 6223TIP3   OH218632   3.157   5.115   0.472
 6223TIP3    H118633   3.193   5.110   0.561
 6223TIP3    H218634   3.231   5.099   0.415
 6224TIP3   OH218635   1.318   1.601   4.892
 6224TIP3    H118636   1.314   1.543   4.816
 6224TIP3    H218637   1.227   1.607   4.922
 6225TIP3   OH218638   6.147   4.514   0.765
 6225TIP3    H118639   6.139   4.608   0.749
 6225TIP3    H218640   6.194   4.507   0.847
 6226TIP3   OH218641   0.216   5.454   1.748
 6226TIP3    H118642   0.238   5.376   1.799
 6226TIP3    H218643   0.122   5.448   1.734
 6227TIP3   OH218644   1.086   1.345   5.374
 6227TIP3    H118645   0.999   1.377   5.350
 6227TIP3    H218646   1.090   1.357   5.469
 6228TIP3   OH218647   2.793   3.826   1.439
 6228TIP3    H118648   2.697   3.827   1.432
 6228TIP3    H218649   2.810   3.787   1.524
 6229TIP3   OH218650   6.288   0.504   1.728
 6229TIP3    H118651   6.309   0.573   1.666
 6229TIP3    H218652   6.344   0.522   1.804
 6230TIP3   OH218653   5.679   2.048   3.024
 6230TIP3    H118654   5.598   2.001   3.046
 6230TIP3    H218655   5.737   1.980   2.991
 6231TIP3   OH218656   5.314   3.167   3.318
 6231TIP3    H118657   5.235   3.115   3.334
 6231TIP3    H218658   5.281   3.255   3.296
 6232TIP3   OH218659   2.235   4.251   1.203
 6232TIP3    H118660   2.294   4.189   1.246
 6232TIP3    H218661   2.284   4.333   1.201
 6233TIP3   OH218662   4.410   5.875   4.714
 6233TIP3    H118663   4.399   5.968   4.732
 6233TIP3    H218664   4.395   5.832   4.798
 6234TIP3   OH218665   6.943   2.273   3.704
 6234TIP3    H118666   6.924   2.342   3.767
 6234TIP3    H218667   7.009   2.219   3.747
 6235TIP3   OH218668   5.357   5.316   2.611
 6235TIP3    H118669   5.328   5.235   2.654
 6235TIP3    H218670   5.279   5.352   2.570
 6236TIP3   OH218671   3.239   5.381   0.133
 6236TIP3    H118672   3.258   5.468   0.096
 6236TIP3    H218673   3.197   5.399   0.217
 6237TIP3   OH218674   5.847   2.822   3.514
 6237TIP3    H118675   5.795   2.895   3.482
 6237TIP3    H218676   5.787   2.748   3.516
 6238TIP3   OH218677   3.378   3.594   1.294
 6238TIP3    H118678   3.309   3.590   1.228
 6238TIP3    H218679   3.457   3.564   1.248
 6239TIP3   OH218680   6.340   2.868   0.420
 6239TIP3    H118681   6.310   2.861   0.511
 6239TIP3    H218682   6.304   2.952   0.389
 6240TIP3   OH218683   5.782   0.660   1.974
 6240TIP3    H118684   5.839   0.654   1.897
 6240TIP3    H218685   5.714   0.722   1.949
 6241TIP3   OH218686   5.873   0.301   3.489
 6241TIP3    H118687   5.883   0.393   3.463
 6241TIP3    H218688   5.853   0.255   3.408
 6242TIP3   OH218689   2.041   6.602   1.262
 6242TIP3    H118690   2.019   6.599   1.355
 6242TIP3    H218691   1.963   6.567   1.219
 6243TIP3   OH218692   1.863   4.999   0.673
 6243TIP3    H118693   1.947   5.007   0.719
 6243TIP3    H218694   1.878   5.042   0.589
 6244TIP3   OH218695   3.133   0.075   4.762
 6244TIP3    H118696   3.092   0.158   4.737
 6244TIP3    H218697   3.126   0.073   4.858
 6245TIP3   OH218698   5.936   5.286   4.397
 6245TIP3    H118699   5.873   5.314   4.463
 6245TIP3    H218700   5.900   5.317   4.314
 6246TIP3   OH218701   7.180   3.645   2.949
 6246TIP3    H118702   7.190   3.677   3.039
 6246TIP3    H218703   7.269   3.625   2.921
 6247TIP3   OH218704   6.172   5.670   3.211
 6247TIP3    H118705   6.091   5.628   3.181
 6247TIP3    H218706   6.153   5.763   3.206
 6248TIP3   OH218707   6.735   0.867   3.614
 6248TIP3    H118708   6.743   0.827   3.528
 6248TIP3    H218709   6.641   0.880   3.627
 6249TIP3   OH218710   1.721   0.442   1.164
 6249TIP3    H118711   1.771   0.438   1.245
 6249TIP3    H218712   1.783   0.415   1.096
 6250TIP3   OH218713   4.781   4.810   1.874
 6250TIP3    H118714   4.700   4.820   1.825
 6250TIP3    H218715   4.851   4.831   1.812
 6251TIP3   OH218716   4.174   4.726   2.571
 6251TIP3    H118717   4.159   4.635   2.544
 6251TIP3    H218718   4.267   4.729   2.593
 6252TIP3   OH218719   2.856   6.722   5.050
 6252TIP3    H118720   2.832   6.724   4.957
 6252TIP3    H218721   2.831   6.808   5.082
 6253TIP3   OH218722   2.128   5.857   1.246
 6253TIP3    H118723   2.204   5.914   1.236
 6253TIP3    H218724   2.062   5.912   1.289
 6254TIP3   OH218725   5.306   3.399   4.499
 6254TIP3    H118726   5.251   3.408   4.577
 6254TIP3    H218727   5.297   3.307   4.474
 6255TIP3   OH218728   0.415   3.838   3.726
 6255TIP3    H118729   0.480   3.898   3.763
 6255TIP3    H218730   0.352   3.896   3.682
 6256TIP3   OH218731   3.440   2.735   4.441
 6256TIP3    H118732   3.413   2.778   4.360
 6256TIP3    H218733   3.368   2.750   4.502
 6257TIP3   OH218734   2.195   4.470   4.762
 6257TIP3    H118735   2.210   4.449   4.670
 6257TIP3    H218736   2.217   4.389   4.809
 6258TIP3   OH218737   3.562   1.844   1.054
 6258TIP3    H118738   3.622   1.774   1.029
 6258TIP3    H218739   3.519   1.869   0.972
 6259TIP3   OH218740   3.821   5.979   4.620
 6259TIP3    H118741   3.766   6.028   4.559
 6259TIP3    H218742   3.908   5.977   4.578
 6260TIP3   OH218743   0.857   3.376   5.103
 6260TIP3    H118744   0.796   3.403   5.034
 6260TIP3    H218745   0.935   3.345   5.056
 6261TIP3   OH218746   1.932   2.555   3.641
 6261TIP3    H118747   2.001   2.616   3.613
 6261TIP3    H218748   1.851   2.605   3.634
 6262TIP3   OH218749   4.630   2.398   5.427
 6262TIP3    H118750   4.538   2.377   5.446
 6262TIP3    H218751   4.659   2.448   5.504
 6263TIP3   OH218752   4.147   4.688   1.815
 6263TIP3    H118753   4.203   4.611   1.803
 6263TIP3    H218754   4.199   4.761   1.780
 6264TIP3   OH218755   2.466   4.342   2.219
 6264TIP3    H118756   2.455   4.395   2.298
 6264TIP3    H218757   2.507   4.262   2.249
 6265TIP3   OH218758   3.821   5.416   3.077
 6265TIP3    H118759   3.836   5.454   3.163
 6265TIP3    H218760   3.730   5.386   3.079
 6266TIP3   OH218761   1.115   6.273   4.530
 6266TIP3    H118762   1.100   6.188   4.488
 6266TIP3    H218763   1.077   6.263   4.617
 6267TIP3   OH218764   4.867   6.042   1.870
 6267TIP3    H118765   4.896   5.967   1.921
 6267TIP3    H218766   4.823   6.099   1.933
 6268TIP3   OH218767   0.479   6.530   4.697
 6268TIP3    H118768   0.532   6.495   4.769
 6268TIP3    H218769   0.391   6.497   4.713
 6269TIP3   OH218770   3.278   6.738   4.295
 6269TIP3    H118771   3.311   6.699   4.214
 6269TIP3    H218772   3.340   6.707   4.362
 6270TIP3   OH218773   4.750   3.751   5.255
 6270TIP3    H118774   4.690   3.787   5.320
 6270TIP3    H218775   4.736   3.656   5.260
 6271TIP3   OH218776   6.268   0.695   2.677
 6271TIP3    H118777   6.263   0.790   2.688
 6271TIP3    H218778   6.336   0.668   2.739
 6272TIP3   OH218779   5.525   0.975   0.339
 6272TIP3    H118780   5.582   0.898   0.339
 6272TIP3    H218781   5.585   1.049   0.342
 6273TIP3   OH218782   3.741   1.257   1.358
 6273TIP3    H118783   3.778   1.298   1.436
 6273TIP3    H218784   3.721   1.329   1.299
 6274TIP3   OH218785   2.454   2.892   4.327
 6274TIP3    H118786   2.478   2.868   4.416
 6274TIP3    H218787   2.436   2.986   4.331
 6275TIP3   OH218788   3.624   1.902   4.042
 6275TIP3    H118789   3.696   1.930   3.986
 6275TIP3    H218790   3.611   1.974   4.103
 6276TIP3   OH218791   1.551   0.527   3.785
 6276TIP3    H118792   1.631   0.526   3.732
 6276TIP3    H218793   1.571   0.472   3.860
 6277TIP3   OH218794   5.420   3.221   1.265
 6277TIP3    H118795   5.346   3.251   1.318
 6277TIP3    H218796   5.422   3.126   1.278
 6278TIP3   OH218797   2.683   4.575   3.982
 6278TIP3    H118798   2.728   4.644   3.934
 6278TIP3    H218799   2.625   4.621   4.043
 6279TIP3   OH218800   5.259   5.452   0.705
 6279TIP3    H118801   5.254   5.467   0.799
 6279TIP3    H218802   5.332   5.392   0.693
 6280TIP3   OH218803   2.265   1.054   3.806
 6280TIP3    H118804   2.353   1.080   3.830
 6280TIP3    H218805   2.212   1.075   3.883
 6281TIP3   OH218806   1.707   3.206   2.338
 6281TIP3    H118807   1.612   3.206   2.338
 6281TIP3    H218808   1.731   3.116   2.313
 6282TIP3   OH218809   2.945   1.260   3.034
 6282TIP3    H118810   2.851   1.241   3.037
 6282TIP3    H218811   2.950   1.347   2.995
 6283TIP3   OH218812   4.162   6.047   2.042
 6283TIP3    H118813   4.220   6.063   1.968
 6283TIP3    H218814   4.190   6.109   2.109
 6284TIP3   OH218815   5.527   0.975   1.430
 6284TIP3    H118816   5.453   0.916   1.446
 6284TIP3    H218817   5.582   0.927   1.367
 6285TIP3   OH218818   5.628   3.502   5.492
 6285TIP3    H118819   5.661   3.467   5.576
 6285TIP3    H218820   5.683   3.579   5.475
 6286TIP3   OH218821   0.435   0.885   2.547
 6286TIP3    H118822   0.482   0.928   2.619
 6286TIP3    H218823   0.343   0.909   2.561
 6287TIP3   OH218824   1.712   6.326   4.371
 6287TIP3    H118825   1.745   6.413   4.348
 6287TIP3    H218826   1.645   6.342   4.437
 6288TIP3   OH218827   1.235   0.151   2.365
 6288TIP3    H118828   1.329   0.160   2.384
 6288TIP3    H218829   1.192   0.190   2.441
 6289TIP3   OH218830   5.252   4.922   0.806
 6289TIP3    H118831   5.230   4.829   0.802
 6289TIP3    H218832   5.305   4.938   0.729
 6290TIP3   OH218833   6.266   1.969   0.966
 6290TIP3    H118834   6.361   1.979   0.965
 6290TIP3    H218835   6.239   1.987   0.876
 6291TIP3   OH218836   5.581   6.116   2.278
 6291TIP3    H118837   5.521   6.064   2.331
 6291TIP3    H218838   5.541   6.118   2.191
 6292TIP3   OH218839   3.984   2.776   1.141
 6292TIP3    H118840   4.040   2.830   1.085
 6292TIP3    H218841   4.000   2.808   1.229
 6293TIP3   OH218842   3.226   5.714   2.784
 6293TIP3    H118843   3.229   5.755   2.698
 6293TIP3    H218844   3.166   5.768   2.835
 6294TIP3   OH218845   3.785   1.895   1.810
 6294TIP3    H118846   3.874   1.861   1.795
 6294TIP3    H218847   3.795   1.990   1.806
 6295TIP3   OH218848   2.442   2.781   3.485
 6295TIP3    H118849   2.402   2.769   3.571
 6295TIP3    H218850   2.488   2.698   3.469
 6296TIP3   OH218851   4.817   0.210   2.797
 6296TIP3    H118852   4.751   0.263   2.753
 6296TIP3    H218853   4.866   0.272   2.851
 6297TIP3   OH218854   2.378   6.245   3.561
 6297TIP3    H118855   2.366   6.221   3.469
 6297TIP3    H218856   2.350   6.336   3.566
 6298TIP3   OH218857   0.615   3.185   3.256
 6298TIP3    H118858   0.550   3.153   3.320
 6298TIP3    H218859   0.635   3.108   3.203
 6299TIP3   OH218860   1.333   3.475   1.710
 6299TIP3    H118861   1.282   3.427   1.644
 6299TIP3    H218862   1.270   3.493   1.780
 6300TIP3   OH218863   5.102   1.731   4.426
 6300TIP3    H118864   5.105   1.803   4.489
 6300TIP3    H218865   5.034   1.673   4.459
 6301TIP3   OH218866   2.811   4.033   0.120
 6301TIP3    H118867   2.905   4.017   0.115
 6301TIP3    H218868   2.773   3.953   0.155
 6302TIP3   OH218869   0.796   6.160   0.687
 6302TIP3    H118870   0.750   6.197   0.612
 6302TIP3    H218871   0.839   6.082   0.653
 6303TIP3   OH218872   4.709   1.272   1.612
 6303TIP3    H118873   4.778   1.285   1.677
 6303TIP3    H218874   4.627   1.284   1.660
 6304TIP3   OH218875   3.336   6.149   4.933
 6304TIP3    H118876   3.427   6.170   4.912
 6304TIP3    H218877   3.341   6.065   4.978
 6305TIP3   OH218878   4.507   5.128   1.835
 6305TIP3    H118879   4.558   5.156   1.911
 6305TIP3    H218880   4.571   5.123   1.764
 6306TIP3   OH218881   2.940   0.217   0.239
 6306TIP3    H118882   2.985   0.139   0.207
 6306TIP3    H218883   2.942   0.207   0.335
 6307TIP3   OH218884   6.751   6.508   4.236
 6307TIP3    H118885   6.777   6.600   4.237
 6307TIP3    H218886   6.797   6.470   4.311
 6308TIP3   OH218887   2.310   1.916   1.046
 6308TIP3    H118888   2.394   1.872   1.059
 6308TIP3    H218889   2.262   1.902   1.128
 6309TIP3   OH218890   0.374   0.200   0.818
 6309TIP3    H118891   0.448   0.156   0.859
 6309TIP3    H218892   0.319   0.129   0.785
 6310TIP3   OH218893   5.598   5.919   0.703
 6310TIP3    H118894   5.655   5.844   0.724
 6310TIP3    H218895   5.639   5.993   0.746
 6311TIP3   OH218896   5.693   6.428   3.381
 6311TIP3    H118897   5.710   6.363   3.450
 6311TIP3    H218898   5.676   6.377   3.302
 6312TIP3   OH218899   3.395   3.545   3.624
 6312TIP3    H118900   3.443   3.472   3.664
 6312TIP3    H218901   3.443   3.623   3.651
 6313TIP3   OH218902   0.764   1.496   0.410
 6313TIP3    H118903   0.688   1.552   0.404
 6313TIP3    H218904   0.749   1.426   0.346
 6314TIP3   OH218905   2.559   6.690   3.369
 6314TIP3    H118906   2.596   6.690   3.281
 6314TIP3    H218907   2.634   6.673   3.426
 6315TIP3   OH218908   5.524   1.835   5.839
 6315TIP3    H118909   5.490   1.748   5.857
 6315TIP3    H218910   5.465   1.871   5.773
 6316TIP3   OH218911   6.949   5.192   5.571
 6316TIP3    H118912   6.938   5.212   5.478
 6316TIP3    H218913   7.041   5.214   5.589
 6317TIP3   OH218914   3.651   2.619   3.509
 6317TIP3    H118915   3.694   2.620   3.424
 6317TIP3    H218916   3.652   2.527   3.536
 6318TIP3   OH218917   2.663   4.109   2.171
 6318TIP3    H118918   2.645   4.042   2.237
 6318TIP3    H218919   2.751   4.140   2.192
 6319TIP3   OH218920   0.464   5.528   4.516
 6319TIP3    H118921   0.379   5.561   4.546
 6319TIP3    H218922   0.446   5.438   4.487
 6320TIP3   OH218923   2.271   0.603   5.663
 6320TIP3    H118924   2.338   0.593   5.730
 6320TIP3    H218925   2.271   0.520   5.616
 6321TIP3   OH218926   4.151   4.495   2.421
 6321TIP3    H118927   4.226   4.520   2.367
 6321TIP3    H218928   4.154   4.399   2.424
 6322TIP3   OH218929   3.830   1.683   3.955
 6322TIP3    H118930   3.862   1.621   3.889
 6322TIP3    H218931   3.815   1.764   3.906
 6323TIP3   OH218932   7.197   1.695   0.039
 6323TIP3    H118933   7.138   1.764   0.068
 6323TIP3    H218934   7.225   1.652   0.120
 6324TIP3   OH218935   2.870   3.530   3.728
 6324TIP3    H118936   2.909   3.545   3.814
 6324TIP3    H218937   2.784   3.572   3.734
 6325TIP3   OH218938   5.460   4.014   0.625
 6325TIP3    H118939   5.448   3.932   0.673
 6325TIP3    H218940   5.501   3.988   0.542
 6326TIP3   OH218941   1.134   5.718   0.551
 6326TIP3    H118942   1.164   5.798   0.508
 6326TIP3    H218943   1.204   5.654   0.536
 6327TIP3   OH218944   7.045   5.468   3.108
 6327TIP3    H118945   7.059   5.443   3.017
 6327TIP3    H218946   7.098   5.407   3.159
 6328TIP3   OH218947   4.839   1.024   5.911
 6328TIP3    H118948   4.854   0.936   5.874
 6328TIP3    H218949   4.774   1.063   5.853
 6329TIP3   OH218950   5.496   4.562   0.727
 6329TIP3    H118951   5.505   4.576   0.633
 6329TIP3    H218952   5.507   4.468   0.739
 6330TIP3   OH218953   2.966   1.567   1.383
 6330TIP3    H118954   3.004   1.502   1.323
 6330TIP3    H218955   3.041   1.606   1.427
 6331TIP3   OH218956   2.006   0.742   2.412
 6331TIP3    H118957   2.015   0.728   2.318
 6331TIP3    H218958   1.999   0.837   2.422
 6332TIP3   OH218959   0.251   4.040   4.672
 6332TIP3    H118960   0.274   3.971   4.611
 6332TIP3    H218961   0.332   4.060   4.719
 6333TIP3   OH218962   5.961   1.919   5.812
 6333TIP3    H118963   5.879   1.931   5.763
 6333TIP3    H218964   5.991   1.831   5.789
 6334TIP3   OH218965   0.884   2.007   1.239
 6334TIP3    H118966   0.980   2.001   1.244
 6334TIP3    H218967   0.868   2.088   1.190
 6335TIP3   OH218968   5.835   1.398   0.489
 6335TIP3    H118969   5.894   1.449   0.544
 6335TIP3    H218970   5.806   1.460   0.422
 6336TIP3   OH218971   4.429   2.521   3.739
 6336TIP3    H118972   4.452   2.590   3.677
 6336TIP3    H218973   4.478   2.543   3.819
 6337TIP3   OH218974   5.554   1.528   0.625
 6337TIP3    H118975   5.602   1.487   0.697
 6337TIP3    H218976   5.515   1.606   0.664
 6338TIP3   OH218977   3.732   6.360   0.821
 6338TIP3    H118978   3.720   6.338   0.729
 6338TIP3    H218979   3.643   6.366   0.856
 6339TIP3   OH218980   6.791   2.035   1.530
 6339TIP3    H118981   6.779   1.955   1.581
 6339TIP3    H218982   6.848   2.009   1.457
 6340TIP3   OH218983   7.048   4.594   5.200
 6340TIP3    H118984   6.990   4.582   5.124
 6340TIP3    H218985   7.044   4.688   5.218
 6341TIP3   OH218986   4.458   4.812   0.604
 6341TIP3    H118987   4.489   4.726   0.575
 6341TIP3    H218988   4.366   4.815   0.579
 6342TIP3   OH218989   0.374   4.934   3.473
 6342TIP3    H118990   0.441   4.890   3.526
 6342TIP3    H218991   0.414   5.016   3.447
 6343TIP3   OH218992   0.819   0.949   0.562
 6343TIP3    H118993   0.733   0.989   0.571
 6343TIP3    H218994   0.876   0.999   0.620
 6344TIP3   OH218995   2.386   1.305   4.288
 6344TIP3    H118996   2.481   1.304   4.274
 6344TIP3    H218997   2.369   1.388   4.332
 6345TIP3   OH218998   3.262   3.768   0.330
 6345TIP3    H118999   3.353   3.757   0.356
 6345TIP3    H219000   3.226   3.679   0.331
 6346TIP3   OH219001   0.753   1.730   2.997
 6346TIP3    H119002   0.795   1.811   3.024
 6346TIP3    H219003   0.659   1.750   2.996
 6347TIP3   OH219004   2.364   4.595   5.545
 6347TIP3    H119005   2.357   4.657   5.472
 6347TIP3    H219006   2.351   4.509   5.504
 6348TIP3   OH219007   2.361   4.713   4.530
 6348TIP3    H119008   2.453   4.739   4.524
 6348TIP3    H219009   2.344   4.668   4.447
 6349TIP3   OH219010   3.176   1.045   0.669
 6349TIP3    H119011   3.171   1.064   0.762
 6349TIP3    H219012   3.263   1.076   0.643
 6350TIP3   OH219013   3.555   2.440   3.992
 6350TIP3    H119014   3.594   2.377   4.052
 6350TIP3    H219015   3.478   2.395   3.957
 6351TIP3   OH219016   3.403   2.602   2.278
 6351TIP3    H119017   3.369   2.691   2.272
 6351TIP3    H219018   3.354   2.563   2.352
 6352TIP3   OH219019   1.982   2.981   2.075
 6352TIP3    H119020   1.994   2.900   2.124
 6352TIP3    H219021   2.049   3.040   2.111
 6353TIP3   OH219022   0.883   2.752   5.315
 6353TIP3    H119023   0.846   2.712   5.395
 6353TIP3    H219024   0.964   2.793   5.344
 6354TIP3   OH219025   3.110   2.165   5.332
 6354TIP3    H119026   3.014   2.156   5.334
 6354TIP3    H219027   3.142   2.094   5.388
 6355TIP3   OH219028   2.672   4.329   1.985
 6355TIP3    H119029   2.708   4.413   2.015
 6355TIP3    H219030   2.634   4.290   2.063
 6356TIP3   OH219031   5.146   1.674   1.622
 6356TIP3    H119032   5.087   1.652   1.694
 6356TIP3    H219033   5.174   1.589   1.588
 6357TIP3   OH219034   0.688   0.024   1.687
 6357TIP3    H119035   0.681  -0.034   1.763
 6357TIP3    H219036   0.640  -0.022   1.618
 6358TIP3   OH219037   4.389   4.565   1.221
 6358TIP3    H119038   4.370   4.498   1.155
 6358TIP3    H219039   4.402   4.516   1.302
 6359TIP3   OH219040   4.472   3.294   1.759
 6359TIP3    H119041   4.561   3.288   1.792
 6359TIP3    H219042   4.475   3.364   1.693
 6360TIP3   OH219043   5.073   0.829   3.477
 6360TIP3    H119044   5.008   0.767   3.510
 6360TIP3    H219045   5.152   0.811   3.528
 6361TIP3   OH219046   1.999   5.291   0.780
 6361TIP3    H119047   1.908   5.302   0.754
 6361TIP3    H219048   1.996   5.234   0.856
 6362TIP3   OH219049   7.242   2.186   1.762
 6362TIP3    H119050   7.247   2.135   1.843
 6362TIP3    H219051   7.148   2.195   1.745
 6363TIP3   OH219052   5.044   0.115   0.536
 6363TIP3    H119053   5.042   0.063   0.455
 6363TIP3    H219054   5.078   0.200   0.509
 6364TIP3   OH219055   0.127   1.781   2.594
 6364TIP3    H119056   0.159   1.809   2.680
 6364TIP3    H219057   0.173   1.699   2.577
 6365TIP3   OH219058   4.840   6.334   0.583
 6365TIP3    H119059   4.751   6.327   0.619
 6365TIP3    H219060   4.828   6.326   0.488
 6366TIP3   OH219061   5.748   5.665   3.782
 6366TIP3    H119062   5.752   5.756   3.813
 6366TIP3    H219063   5.737   5.613   3.861
 6367TIP3   OH219064   5.095   3.748   1.687
 6367TIP3    H119065   5.145   3.770   1.609
 6367TIP3    H219066   5.111   3.822   1.747
 6368TIP3   OH219067   7.165   4.569   3.213
 6368TIP3    H119068   7.148   4.476   3.222
 6368TIP3    H219069   7.124   4.594   3.130
 6369TIP3   OH219070   2.473   0.512   5.869
 6369TIP3    H119071   2.429   0.491   5.951
 6369TIP3    H219072   2.533   0.438   5.855
 6370TIP3   OH219073   2.664   6.778   3.733
 6370TIP3    H119074   2.712   6.720   3.674
 6370TIP3    H219075   2.659   6.861   3.686
 6371TIP3   OH219076   1.868   3.470   0.633
 6371TIP3    H119077   1.905   3.383   0.651
 6371TIP3    H219078   1.892   3.522   0.709
 6372TIP3   OH219079   0.506   4.570   5.140
 6372TIP3    H119080   0.474   4.656   5.170
 6372TIP3    H219081   0.561   4.590   5.065
 6373TIP3   OH219082   0.064   0.368   2.680
 6373TIP3    H119083   0.101   0.344   2.765
 6373TIP3    H219084   0.016   0.449   2.696
 6374TIP3   OH219085   1.113   6.676   3.757
 6374TIP3    H119086   1.027   6.715   3.773
 6374TIP3    H219087   1.172   6.721   3.818
 6375TIP3   OH219088   6.872   5.436   2.694
 6375TIP3    H119089   6.959   5.464   2.665
 6375TIP3    H219090   6.832   5.514   2.731
 6376TIP3   OH219091   2.297   1.714   5.566
 6376TIP3    H119092   2.319   1.689   5.656
 6376TIP3    H219093   2.297   1.631   5.518
 6377TIP3   OH219094   5.820   0.672   0.160
 6377TIP3    H119095   5.841   0.730   0.087
 6377TIP3    H219096   5.899   0.619   0.172
 6378TIP3   OH219097   4.105   1.350   3.934
 6378TIP3    H119098   4.053   1.322   4.010
 6378TIP3    H219099   4.176   1.402   3.972
 6379TIP3   OH219100   3.226   3.489   4.935
 6379TIP3    H119101   3.173   3.436   4.995
 6379TIP3    H219102   3.290   3.428   4.899
 6380TIP3   OH219103   5.578   4.952   2.999
 6380TIP3    H119104   5.534   5.036   2.983
 6380TIP3    H219105   5.535   4.891   2.939
 6381TIP3   OH219106   3.665   2.506   1.608
 6381TIP3    H119107   3.572   2.486   1.610
 6381TIP3    H219108   3.669   2.601   1.617
 6382TIP3   OH219109   3.511   5.953   4.021
 6382TIP3    H119110   3.447   6.009   3.978
 6382TIP3    H219111   3.546   6.006   4.092
 6383TIP3   OH219112   1.457   4.100   2.493
 6383TIP3    H119113   1.469   4.013   2.531
 6383TIP3    H219114   1.456   4.159   2.568
 6384TIP3   OH219115   0.435   3.176   4.989
 6384TIP3    H119116   0.393   3.188   5.074
 6384TIP3    H219117   0.527   3.197   5.005
 6385TIP3   OH219118   2.833   2.074   5.371
 6385TIP3    H119119   2.799   2.157   5.339
 6385TIP3    H219120   2.757   2.016   5.374
 6386TIP3   OH219121   1.044   5.368   2.450
 6386TIP3    H119122   0.985   5.314   2.503
 6386TIP3    H219123   1.130   5.328   2.462
 6387TIP3   OH219124   1.705   4.300   2.290
 6387TIP3    H119125   1.689   4.284   2.383
 6387TIP3    H219126   1.773   4.368   2.289
 6388TIP3   OH219127   5.553   0.940   5.160
 6388TIP3    H119128   5.470   0.925   5.205
 6388TIP3    H219129   5.564   1.035   5.160
 6389TIP3   OH219130   3.985   5.504   1.364
 6389TIP3    H119131   4.024   5.434   1.312
 6389TIP3    H219132   4.051   5.525   1.430
 6390TIP3   OH219133   6.738   3.081  -0.019
 6390TIP3    H119134   6.814   3.114   0.027
 6390TIP3    H219135   6.666   3.137   0.010
 6391TIP3   OH219136   6.954   4.498   5.465
 6391TIP3    H119137   6.990   4.505   5.376
 6391TIP3    H219138   7.021   4.537   5.521
 6392TIP3   OH219139   1.711   1.561   3.223
 6392TIP3    H119140   1.708   1.651   3.257
 6392TIP3    H219141   1.740   1.509   3.298
 6393TIP3   OH219142   1.684   5.656   1.934
 6393TIP3    H119143   1.752   5.723   1.930
 6393TIP3    H219144   1.602   5.705   1.934
 6394TIP3   OH219145   6.840   5.218   0.232
 6394TIP3    H119146   6.922   5.188   0.272
 6394TIP3    H219147   6.863   5.236   0.141
 6395TIP3   OH219148   2.653   3.272   0.423
 6395TIP3    H119149   2.566   3.312   0.429
 6395TIP3    H219150   2.641   3.184   0.458
 6396TIP3   OH219151   0.978   3.623   5.232
 6396TIP3    H119152   1.069   3.599   5.216
 6396TIP3    H219153   0.931   3.540   5.236
 6397TIP3   OH219154   7.081   6.805   2.722
 6397TIP3    H119155   7.000   6.762   2.697
 6397TIP3    H219156   7.150   6.745   2.693
 6398TIP3   OH219157   4.942   5.113   0.342
 6398TIP3    H119158   4.880   5.045   0.371
 6398TIP3    H219159   5.014   5.108   0.405
 6399TIP3   OH219160   6.351   4.221   2.463
 6399TIP3    H119161   6.276   4.273   2.433
 6399TIP3    H219162   6.387   4.183   2.383
 6400TIP3   OH219163   0.359   1.749   0.899
 6400TIP3    H119164   0.344   1.843   0.909
 6400TIP3    H219165   0.298   1.709   0.960
 6401TIP3   OH219166   3.819   4.571   2.741
 6401TIP3    H119167   3.875   4.627   2.795
 6401TIP3    H219168   3.740   4.623   2.727
 6402TIP3   OH219169   2.480   0.622   0.487
 6402TIP3    H119170   2.399   0.612   0.436
 6402TIP3    H219171   2.451   0.648   0.574
 6403TIP3   OH219172   6.733   5.291   4.126
 6403TIP3    H119173   6.652   5.239   4.129
 6403TIP3    H219174   6.803   5.226   4.128
 6404TIP3   OH219175   3.141   4.113   4.320
 6404TIP3    H119176   3.171   4.131   4.231
 6404TIP3    H219177   3.089   4.033   4.312
 6405TIP3   OH219178   1.210   3.461   0.986
 6405TIP3    H119179   1.209   3.372   1.023
 6405TIP3    H219180   1.289   3.463   0.932
 6406TIP3   OH219181   3.055   0.622   2.240
 6406TIP3    H119182   3.045   0.679   2.316
 6406TIP3    H219183   3.090   0.680   2.172
 6407TIP3   OH219184   1.021   3.721   2.479
 6407TIP3    H119185   0.962   3.656   2.518
 6407TIP3    H219186   0.979   3.805   2.499
 6408TIP3   OH219187   5.914   4.249   0.108
 6408TIP3    H119188   6.005   4.226   0.131
 6408TIP3    H219189   5.914   4.252   0.012
 6409TIP3   OH219190   5.967   2.378   5.855
 6409TIP3    H119191   6.057   2.369   5.887
 6409TIP3    H219192   5.953   2.301   5.800
 6410TIP3   OH219193   7.031   2.785   1.307
 6410TIP3    H119194   7.010   2.745   1.391
 6410TIP3    H219195   7.007   2.877   1.316
 6411TIP3   OH219196   4.021   4.224   4.244
 6411TIP3    H119197   4.046   4.138   4.277
 6411TIP3    H219198   3.926   4.227   4.253
 6412TIP3   OH219199   4.532   4.415   1.460
 6412TIP3    H119200   4.550   4.487   1.520
 6412TIP3    H219201   4.437   4.403   1.464
 6413TIP3   OH219202   5.940   1.386   3.008
 6413TIP3    H119203   5.865   1.445   3.002
 6413TIP3    H219204   5.999   1.416   2.939
 6414TIP3   OH219205   1.960   0.162   1.961
 6414TIP3    H119206   2.036   0.218   1.973
 6414TIP3    H219207   1.996   0.082   1.921
 6415TIP3   OH219208   5.780   1.038   3.146
 6415TIP3    H119209   5.821   1.023   3.060
 6415TIP3    H219210   5.842   1.001   3.208
 6416TIP3   OH219211   6.169   2.580   0.866
 6416TIP3    H119212   6.262   2.602   0.858
 6416TIP3    H219213   6.144   2.613   0.952
 6417TIP3   OH219214   3.446   5.958   3.707
 6417TIP3    H119215   3.430   5.893   3.639
 6417TIP3    H219216   3.498   5.911   3.773
 6418TIP3   OH219217   4.447   0.580   2.820
 6418TIP3    H119218   4.377   0.634   2.858
 6418TIP3    H219219   4.434   0.587   2.726
 6419TIP3   OH219220   0.581   3.257   2.776
 6419TIP3    H119221   0.551   3.171   2.806
 6419TIP3    H219222   0.648   3.283   2.839
 6420TIP3   OH219223   4.787   5.210   4.502
 6420TIP3    H119224   4.839   5.143   4.456
 6420TIP3    H219225   4.851   5.278   4.524
 6421TIP3   OH219226   6.783   6.380   0.596
 6421TIP3    H119227   6.792   6.285   0.597
 6421TIP3    H219228   6.843   6.411   0.529
 6422TIP3   OH219229   5.547   2.954   2.564
 6422TIP3    H119230   5.615   2.958   2.631
 6422TIP3    H219231   5.581   2.893   2.499
 6423TIP3   OH219232   5.690   2.170   0.736
 6423TIP3    H119233   5.615   2.134   0.690
 6423TIP3    H219234   5.658   2.184   0.826
 6424TIP3   OH219235   7.003   2.634   1.010
 6424TIP3    H119236   6.955   2.695   1.066
 6424TIP3    H219237   7.095   2.652   1.028
 6425TIP3   OH219238   6.264   5.865   2.642
 6425TIP3    H119239   6.284   5.916   2.720
 6425TIP3    H219240   6.291   5.776   2.664
 6426TIP3   OH219241   4.041   1.321   4.195
 6426TIP3    H119242   4.001   1.389   4.248
 6426TIP3    H219243   3.971   1.258   4.179
 6427TIP3   OH219244   4.207   1.262   4.600
 6427TIP3    H119245   4.249   1.315   4.668
 6427TIP3    H219246   4.128   1.310   4.578
 6428TIP3   OH219247   3.640   5.006   2.454
 6428TIP3    H119248   3.703   5.061   2.500
 6428TIP3    H219249   3.653   5.027   2.362
 6429TIP3   OH219250   5.887   6.452   1.847
 6429TIP3    H119251   5.879   6.418   1.936
 6429TIP3    H219252   5.910   6.376   1.795
 6430TIP3   OH219253   3.692   0.101   1.849
 6430TIP3    H119254   3.637   0.176   1.828
 6430TIP3    H219255   3.741   0.128   1.927
 6431TIP3   OH219256   1.252   3.707   5.614
 6431TIP3    H119257   1.324   3.706   5.550
 6431TIP3    H219258   1.173   3.696   5.561
 6432TIP3   OH219259   5.381   1.224   4.029
 6432TIP3    H119260   5.318   1.170   3.981
 6432TIP3    H219261   5.446   1.250   3.963
 6433TIP3   OH219262   4.986   5.315   5.783
 6433TIP3    H119263   4.985   5.355   5.870
 6433TIP3    H219264   5.031   5.232   5.794
 6434TIP3   OH219265   6.118   3.998   1.645
 6434TIP3    H119266   6.051   3.936   1.615
 6434TIP3    H219267   6.198   3.968   1.603
 6435TIP3   OH219268   6.049   0.118   0.908
 6435TIP3    H119269   5.959   0.152   0.903
 6435TIP3    H219270   6.098   0.188   0.951
 6436TIP3   OH219271   5.959   3.515   4.293
 6436TIP3    H119272   5.963   3.538   4.200
 6436TIP3    H219273   6.046   3.540   4.327
 6437TIP3   OH219274   4.423   2.950   2.958
 6437TIP3    H119275   4.376   2.870   2.982
 6437TIP3    H219276   4.402   2.964   2.866
 6438TIP3   OH219277   4.035   6.811   5.725
 6438TIP3    H119278   4.025   6.825   5.631
 6438TIP3    H219279   3.987   6.884   5.765
 6439TIP3   OH219280   5.437   2.535   0.177
 6439TIP3    H119281   5.376   2.578   0.116
 6439TIP3    H219282   5.429   2.442   0.157
 6440TIP3   OH219283   5.829   3.983   2.224
 6440TIP3    H119284   5.893   4.000   2.293
 6440TIP3    H219285   5.882   3.957   2.148
 6441TIP3   OH219286   0.693   2.700   3.926
 6441TIP3    H119287   0.627   2.697   3.994
 6441TIP3    H219288   0.760   2.637   3.953
 6442TIP3   OH219289   6.152   1.753   4.997
 6442TIP3    H119290   6.206   1.799   5.061
 6442TIP3    H219291   6.203   1.757   4.916
 6443TIP3   OH219292   5.207   5.492   2.155
 6443TIP3    H119293   5.115   5.494   2.182
 6443TIP3    H219294   5.240   5.410   2.189
 6444TIP3   OH219295   0.166   3.100   4.510
 6444TIP3    H119296   0.164   3.007   4.534
 6444TIP3    H219297   0.256   3.114   4.480
 6445TIP3   OH219298   1.721   6.384   3.260
 6445TIP3    H119299   1.728   6.410   3.352
 6445TIP3    H219300   1.644   6.328   3.256
 6446TIP3   OH219301   0.532   0.670  -0.003
 6446TIP3    H119302   0.533   0.723   0.077
 6446TIP3    H219303   0.583   0.592   0.018
 6447TIP3   OH219304   3.628   2.899   2.100
 6447TIP3    H119305   3.596   2.989   2.093
 6447TIP3    H219306   3.592   2.868   2.183
 6448TIP3   OH219307   5.682   4.851   3.244
 6448TIP3    H119308   5.625   4.774   3.252
 6448TIP3    H219309   5.665   4.884   3.156
 6449TIP3   OH219310   1.639   0.829   4.002
 6449TIP3    H119311   1.612   0.823   4.093
 6449TIP3    H219312   1.570   0.878   3.959
 6450TIP3   OH219313   1.704   0.684   4.469
 6450TIP3    H119314   1.648   0.717   4.540
 6450TIP3    H219315   1.775   0.748   4.463
 6451TIP3   OH219316   6.543   1.142   1.082
 6451TIP3    H119317   6.541   1.222   1.030
 6451TIP3    H219318   6.459   1.141   1.128
 6452TIP3   OH219319   0.600   0.129   5.307
 6452TIP3    H119320   0.613   0.183   5.385
 6452TIP3    H219321   0.591   0.040   5.341
 6453TIP3   OH219322   7.003   5.380   3.456
 6453TIP3    H119323   6.917   5.416   3.434
 6453TIP3    H219324   7.003   5.373   3.552
 6454TIP3   OH219325   0.664   2.268   5.211
 6454TIP3    H119326   0.685   2.268   5.305
 6454TIP3    H219327   0.659   2.361   5.189
 6455TIP3   OH219328   7.037   2.377   4.674
 6455TIP3    H119329   7.005   2.332   4.752
 6455TIP3    H219330   7.131   2.356   4.671
 6456TIP3   OH219331   2.725   1.009   1.854
 6456TIP3    H119332   2.705   0.981   1.944
 6456TIP3    H219333   2.819   0.995   1.846
 6457TIP3   OH219334   0.855   5.988   2.789
 6457TIP3    H119335   0.915   6.026   2.853
 6457TIP3    H219336   0.820   6.064   2.741
 6458TIP3   OH219337   2.863   2.073   1.329
 6458TIP3    H119338   2.805   2.122   1.387
 6458TIP3    H219339   2.860   1.983   1.364
 6459TIP3   OH219340   5.330   6.193   5.440
 6459TIP3    H119341   5.279   6.115   5.462
 6459TIP3    H219342   5.416   6.177   5.480
 6460TIP3   OH219343   0.370   5.525   0.071
 6460TIP3    H119344   0.335   5.509   0.159
 6460TIP3    H219345   0.311   5.478   0.013
 6461TIP3   OH219346   5.568   2.795   2.316
 6461TIP3    H119347   5.561   2.717   2.261
 6461TIP3    H219348   5.644   2.842   2.281
 6462TIP3   OH219349   6.197   3.270   2.335
 6462TIP3    H119350   6.164   3.358   2.317
 6462TIP3    H219351   6.251   3.249   2.259
 6463TIP3   OH219352   5.402   0.072   5.573
 6463TIP3    H119353   5.408   0.149   5.517
 6463TIP3    H219354   5.474   0.016   5.544
 6464TIP3   OH219355   6.549   2.222   0.815
 6464TIP3    H119356   6.594   2.305   0.797
 6464TIP3    H219357   6.536   2.183   0.728
 6465TIP3   OH219358   2.481   2.459   1.268
 6465TIP3    H119359   2.513   2.485   1.354
 6465TIP3    H219360   2.386   2.475   1.272
 6466TIP3   OH219361   1.128   2.798   0.998
 6466TIP3    H119362   1.035   2.799   0.974
 6466TIP3    H219363   1.129   2.811   1.093
 6467TIP3   OH219364   4.913   1.421   5.902
 6467TIP3    H119365   4.839   1.396   5.847
 6467TIP3    H219366   4.970   1.471   5.844
 6468TIP3   OH219367   5.122   1.348   3.168
 6468TIP3    H119368   5.168   1.336   3.085
 6468TIP3    H219369   5.188   1.327   3.235
 6469TIP3   OH219370   2.521   6.717   1.861
 6469TIP3    H119371   2.490   6.808   1.856
 6469TIP3    H219372   2.441   6.666   1.871
 6470TIP3   OH219373   6.249   3.807   0.758
 6470TIP3    H119374   6.277   3.831   0.670
 6470TIP3    H219375   6.329   3.807   0.810
 6471TIP3   OH219376   0.546   0.151   4.926
 6471TIP3    H119377   0.571   0.082   4.864
 6471TIP3    H219378   0.609   0.145   4.997
 6472TIP3   OH219379   6.444   3.428   1.747
 6472TIP3    H119380   6.534   3.407   1.724
 6472TIP3    H219381   6.391   3.371   1.691
 6473TIP3   OH219382   6.142   4.402   0.322
 6473TIP3    H119383   6.151   4.339   0.251
 6473TIP3    H219384   6.053   4.389   0.355
 6474TIP3   OH219385   6.524   5.753   0.322
 6474TIP3    H119386   6.611   5.713   0.329
 6474TIP3    H219387   6.470   5.686   0.281
 6475TIP3   OH219388   3.535   3.727   3.336
 6475TIP3    H119389   3.589   3.805   3.346
 6475TIP3    H219390   3.445   3.759   3.345
 6476TIP3   OH219391   3.064   1.393   0.151
 6476TIP3    H119392   3.011   1.323   0.114
 6476TIP3    H219393   3.001   1.448   0.199
 6477TIP3   OH219394   0.294   3.392   0.614
 6477TIP3    H119395   0.335   3.332   0.676
 6477TIP3    H219396   0.358   3.401   0.543
 6478TIP3   OH219397   0.727   1.118   3.852
 6478TIP3    H119398   0.810   1.156   3.881
 6478TIP3    H219399   0.669   1.125   3.928
 6479TIP3   OH219400   5.546   3.014   3.974
 6479TIP3    H119401   5.465   2.966   3.994
 6479TIP3    H219402   5.546   3.087   4.037
 6480TIP3   OH219403   6.196   0.275   1.072
 6480TIP3    H119404   6.269   0.334   1.093
 6480TIP3    H219405   6.173   0.235   1.156
 6481TIP3   OH219406   1.813   3.133   3.996
 6481TIP3    H119407   1.798   3.197   3.927
 6481TIP3    H219408   1.900   3.097   3.978
 6482TIP3   OH219409   0.873   3.709   0.040
 6482TIP3    H119410   0.896   3.711   0.133
 6482TIP3    H219411   0.856   3.616   0.022
 6483TIP3   OH219412   6.696   1.109   4.409
 6483TIP3    H119413   6.739   1.096   4.324
 6483TIP3    H219414   6.647   1.028   4.423
 6484TIP3   OH219415   6.402   3.412   0.052
 6484TIP3    H119416   6.366   3.495   0.084
 6484TIP3    H219417   6.336   3.380  -0.010
 6485TIP3   OH219418   6.469   4.087   1.042
 6485TIP3    H119419   6.424   4.015   1.086
 6485TIP3    H219420   6.419   4.165   1.068
 6486TIP3   OH219421   0.940   4.215   3.445
 6486TIP3    H119422   0.988   4.298   3.449
 6486TIP3    H219423   0.870   4.232   3.381
 6487TIP3   OH219424   1.318   1.092   5.736
 6487TIP3    H119425   1.311   1.066   5.645
 6487TIP3    H219426   1.399   1.051   5.767
 6488TIP3   OH219427   0.290   0.935   1.282
 6488TIP3    H119428   0.275   0.919   1.375
 6488TIP3    H219429   0.371   0.889   1.262
 6489TIP3   OH219430   2.088   6.298   0.151
 6489TIP3    H119431   2.152   6.332   0.213
 6489TIP3    H219432   2.054   6.375   0.107
 6490TIP3   OH219433   0.160   4.049   0.659
 6490TIP3    H119434   0.241   4.033   0.611
 6490TIP3    H219435   0.118   3.963   0.664
 6491TIP3   OH219436   2.896   0.876   4.233
 6491TIP3    H119437   2.900   0.890   4.138
 6491TIP3    H219438   2.810   0.838   4.248
 6492TIP3   OH219439   5.013   4.121   5.708
 6492TIP3    H119440   4.966   4.166   5.638
 6492TIP3    H219441   5.062   4.052   5.664
 6493TIP3   OH219442   0.390   3.639   1.999
 6493TIP3    H119443   0.423   3.579   1.933
 6493TIP3    H219444   0.461   3.702   2.013
 6494TIP3   OH219445   4.470   5.258   4.595
 6494TIP3    H119446   4.469   5.261   4.691
 6494TIP3    H219447   4.560   5.236   4.573
 6495TIP3   OH219448   6.440   3.286   5.282
 6495TIP3    H119449   6.355   3.292   5.237
 6495TIP3    H219450   6.503   3.316   5.216
 6496TIP3   OH219451   6.891   6.027   4.553
 6496TIP3    H119452   6.870   5.951   4.498
 6496TIP3    H219453   6.811   6.080   4.551
 6497TIP3   OH219454   6.632   6.117   0.315
 6497TIP3    H119455   6.564   6.160   0.367
 6497TIP3    H219456   6.697   6.186   0.298
 6498TIP3   OH219457   1.701   4.926   1.463
 6498TIP3    H119458   1.628   4.869   1.439
 6498TIP3    H219459   1.690   5.003   1.407
 6499TIP3   OH219460   3.637   3.904   4.568
 6499TIP3    H119461   3.562   3.847   4.580
 6499TIP3    H219462   3.674   3.914   4.656
 6500TIP3   OH219463   5.867   0.823   0.639
 6500TIP3    H119464   5.833   0.912   0.634
 6500TIP3    H219465   5.793   0.771   0.670
 6501TIP3   OH219466   4.086   5.031   3.510
 6501TIP3    H119467   4.029   4.968   3.465
 6501TIP3    H219468   4.115   4.984   3.588
 6502TIP3   OH219469   5.452   6.580   4.847
 6502TIP3    H119470   5.417   6.669   4.843
 6502TIP3    H219471   5.382   6.525   4.810
 6503TIP3   OH219472   0.270   3.975   1.494
 6503TIP3    H119473   0.197   4.038   1.496
 6503TIP3    H219474   0.311   3.989   1.409
 6504TIP3   OH219475   4.592   1.655   1.564
 6504TIP3    H119476   4.512   1.611   1.535
 6504TIP3    H219477   4.579   1.747   1.539
 6505TIP3   OH219478   3.268   0.276   3.661
 6505TIP3    H119479   3.199   0.293   3.725
 6505TIP3    H219480   3.249   0.336   3.589
 6506TIP3   OH219481   2.691   1.117   2.600
 6506TIP3    H119482   2.608   1.142   2.641
 6506TIP3    H219483   2.723   1.043   2.652
 6507TIP3   OH219484   6.233   4.540   1.049
 6507TIP3    H119485   6.173   4.566   1.119
 6507TIP3    H219486   6.319   4.569   1.079
 6508TIP3   OH219487   4.427   2.513   2.982
 6508TIP3    H119488   4.365   2.500   3.054
 6508TIP3    H219489   4.372   2.539   2.908
 6509TIP3   OH219490   3.842   2.792   2.905
 6509TIP3    H119491   3.821   2.823   2.817
 6509TIP3    H219492   3.921   2.738   2.893
 6510TIP3   OH219493   2.799  -0.031   1.071
 6510TIP3    H119494   2.843   0.030   1.012
 6510TIP3    H219495   2.718   0.014   1.095
 6511TIP3   OH219496   3.530   1.763   1.726
 6511TIP3    H119497   3.483   1.843   1.749
 6511TIP3    H219498   3.615   1.771   1.770
 6512TIP3   OH219499   2.098   2.324   1.957
 6512TIP3    H119500   2.181   2.346   1.914
 6512TIP3    H219501   2.035   2.387   1.921
 6513TIP3   OH219502   2.273   3.941   4.788
 6513TIP3    H119503   2.368   3.953   4.785
 6513TIP3    H219504   2.260   3.847   4.800
 6514TIP3   OH219505   6.909   6.294   2.408
 6514TIP3    H119506   6.896   6.363   2.343
 6514TIP3    H219507   6.837   6.305   2.470
 6515TIP3   OH219508   0.349   6.140   1.345
 6515TIP3    H119509   0.329   6.047   1.335
 6515TIP3    H219510   0.439   6.149   1.316
 6516TIP3   OH219511   6.589   4.239   2.994
 6516TIP3    H119512   6.569   4.202   2.908
 6516TIP3    H219513   6.505   4.237   3.041
 6517TIP3   OH219514   5.974   5.874   2.958
 6517TIP3    H119515   5.977   5.798   2.900
 6517TIP3    H219516   5.952   5.947   2.901
 6518TIP3   OH219517   2.411   5.241   1.967
 6518TIP3    H119518   2.329   5.192   1.958
 6518TIP3    H219519   2.479   5.174   1.964
 6519TIP3   OH219520   0.395   1.635   1.951
 6519TIP3    H119521   0.460   1.705   1.959
 6519TIP3    H219522   0.380   1.606   2.041
 6520TIP3   OH219523   1.660   1.889   5.373
 6520TIP3    H119524   1.601   1.961   5.350
 6520TIP3    H219525   1.737   1.932   5.411
 6521TIP3   OH219526   2.787   3.300   0.137
 6521TIP3    H119527   2.746   3.219   0.107
 6521TIP3    H219528   2.765   3.306   0.230
 6522TIP3   OH219529   0.536   6.756   5.822
 6522TIP3    H119530   0.467   6.702   5.860
 6522TIP3    H219531   0.574   6.803   5.897
 6523TIP3   OH219532   2.912   4.256   2.312
 6523TIP3    H119533   2.982   4.234   2.374
 6523TIP3    H219534   2.862   4.324   2.355
 6524TIP3   OH219535   2.945   1.755   5.442
 6524TIP3    H119536   3.026   1.735   5.489
 6524TIP3    H219537   2.906   1.827   5.492
 6525TIP3   OH219538   6.660   3.537   2.090
 6525TIP3    H119539   6.695   3.527   2.178
 6525TIP3    H219540   6.578   3.488   2.091
 6526TIP3   OH219541   6.560   3.356   5.025
 6526TIP3    H119542   6.646   3.337   4.989
 6526TIP3    H219543   6.500   3.345   4.951
 6527TIP3   OH219544   4.281   2.379   0.123
 6527TIP3    H119545   4.305   2.291   0.153
 6527TIP3    H219546   4.350   2.436   0.158
 6528TIP3   OH219547   7.215   5.948   1.199
 6528TIP3    H119548   7.274   6.023   1.201
 6528TIP3    H219549   7.143   5.971   1.258
 6529TIP3   OH219550   1.105   2.510   5.629
 6529TIP3    H119551   1.154   2.561   5.564
 6529TIP3    H219552   1.094   2.424   5.588
 6530TIP3   OH219553   6.623   0.819   0.315
 6530TIP3    H119554   6.716   0.823   0.292
 6530TIP3    H219555   6.598   0.911   0.328
 6531TIP3   OH219556   0.677   5.895   0.153
 6531TIP3    H119557   0.643   5.808   0.175
 6531TIP3    H219558   0.717   5.926   0.234
 6532TIP3   OH219559   3.477   6.062   3.383
 6532TIP3    H119560   3.492   6.064   3.477
 6532TIP3    H219561   3.547   6.115   3.346
 6533TIP3   OH219562   4.504   1.129   4.758
 6533TIP3    H119563   4.444   1.103   4.828
 6533TIP3    H219564   4.520   1.048   4.708
 6534TIP3   OH219565   3.322   1.502   4.657
 6534TIP3    H119566   3.289   1.452   4.731
 6534TIP3    H219567   3.246   1.516   4.602
 6535TIP3   OH219568   4.472   2.767   5.482
 6535TIP3    H119569   4.444   2.745   5.393
 6535TIP3    H219570   4.507   2.855   5.476
 6536TIP3   OH219571   3.015   3.707   2.314
 6536TIP3    H119572   2.926   3.672   2.322
 6536TIP3    H219573   3.049   3.667   2.234
 6537TIP3   OH219574   2.640   2.517   4.415
 6537TIP3    H119575   2.544   2.521   4.412
 6537TIP3    H219576   2.660   2.423   4.410
 6538TIP3   OH219577   4.966   0.558   4.677
 6538TIP3    H119578   5.001   0.525   4.594
 6538TIP3    H219579   5.001   0.498   4.743
 6539TIP3   OH219580   1.682   1.763   5.701
 6539TIP3    H119581   1.721   1.683   5.737
 6539TIP3    H219582   1.733   1.834   5.741
 6540TIP3   OH219583   3.223   3.812   0.605
 6540TIP3    H119584   3.140   3.766   0.589
 6540TIP3    H219585   3.288   3.763   0.555
 6541TIP3   OH219586   2.452   3.632   3.970
 6541TIP3    H119587   2.453   3.566   4.040
 6541TIP3    H219588   2.367   3.619   3.926
 6542TIP3   OH219589   0.858   5.347   0.156
 6542TIP3    H119590   0.856   5.442   0.149
 6542TIP3    H219591   0.810   5.316   0.079
 6543TIP3   OH219592   6.562   6.027   2.116
 6543TIP3    H119593   6.527   6.115   2.101
 6543TIP3    H219594   6.647   6.027   2.073
 6544TIP3   OH219595   2.695   3.342   4.995
 6544TIP3    H119596   2.614   3.335   5.047
 6544TIP3    H219597   2.757   3.387   5.053
 6545TIP3   OH219598   5.535   2.655   0.406
 6545TIP3    H119599   5.613   2.616   0.444
 6545TIP3    H219600   5.514   2.599   0.331
 6546TIP3   OH219601   3.462   0.805   4.125
 6546TIP3    H119602   3.485   0.870   4.191
 6546TIP3    H219603   3.494   0.841   4.042
 6547TIP3   OH219604   0.841   3.488   2.349
 6547TIP3    H119605   0.783   3.538   2.291
 6547TIP3    H219606   0.814   3.512   2.437
 6548TIP3   OH219607   5.017   3.178   2.910
 6548TIP3    H119608   5.047   3.268   2.899
 6548TIP3    H219609   4.935   3.173   2.861
 6549TIP3   OH219610   5.636   6.011   3.643
 6549TIP3    H119611   5.644   5.927   3.599
 6549TIP3    H219612   5.687   6.001   3.724
 6550TIP3   OH219613   4.477   0.278   3.247
 6550TIP3    H119614   4.560   0.293   3.292
 6550TIP3    H219615   4.475   0.344   3.178
 6551TIP3   OH219616   3.901   0.435   4.260
 6551TIP3    H119617   3.857   0.376   4.321
 6551TIP3    H219618   3.871   0.407   4.173
 6552TIP3   OH219619   2.261   5.385   1.067
 6552TIP3    H119620   2.271   5.412   1.158
 6552TIP3    H219621   2.238   5.465   1.020
 6553TIP3   OH219622   1.032   1.080   5.834
 6553TIP3    H119623   1.117   1.118   5.815
 6553TIP3    H219624   0.972   1.124   5.774
 6554TIP3   OH219625   5.311   1.004   1.706
 6554TIP3    H119626   5.231   1.056   1.706
 6554TIP3    H219627   5.282   0.916   1.684
 6555TIP3   OH219628   7.092   3.629   0.817
 6555TIP3    H119629   7.008   3.676   0.818
 6555TIP3    H219630   7.135   3.660   0.737
 6556TIP3   OH219631   0.608   3.950   3.954
 6556TIP3    H119632   0.697   3.954   3.989
 6556TIP3    H219633   0.562   3.891   4.014
 6557TIP3   OH219634   2.419   2.291   5.347
 6557TIP3    H119635   2.348   2.345   5.382
 6557TIP3    H219636   2.498   2.341   5.365
 6558TIP3   OH219637   5.261   5.726   3.326
 6558TIP3    H119638   5.237   5.771   3.245
 6558TIP3    H219639   5.339   5.676   3.304
 6559TIP3   OH219640   7.023   1.987   4.847
 6559TIP3    H119641   7.025   1.976   4.752
 6559TIP3    H219642   6.957   1.925   4.877
 6560TIP3   OH219643   6.649   2.749   1.381
 6560TIP3    H119644   6.608   2.798   1.310
 6560TIP3    H219645   6.625   2.658   1.365
 6561TIP3   OH219646   6.597   2.608   5.112
 6561TIP3    H119647   6.612   2.610   5.018
 6561TIP3    H219648   6.618   2.697   5.141
 6562TIP3   OH219649   4.145   2.938   4.926
 6562TIP3    H119650   4.205   2.999   4.970
 6562TIP3    H219651   4.064   2.988   4.917
 6563TIP3   OH219652   4.403   6.398   1.636
 6563TIP3    H119653   4.332   6.396   1.701
 6563TIP3    H219654   4.412   6.308   1.607
 6564TIP3   OH219655   5.568   5.177   5.576
 6564TIP3    H119656   5.608   5.244   5.631
 6564TIP3    H219657   5.628   5.102   5.583
 6565TIP3   OH219658   4.227   2.451   1.298
 6565TIP3    H119659   4.155   2.391   1.318
 6565TIP3    H219660   4.231   2.510   1.373
 6566TIP3   OH219661   2.610   6.431   2.822
 6566TIP3    H119662   2.539   6.495   2.830
 6566TIP3    H219663   2.565   6.348   2.803
 6567TIP3   OH219664   2.351   5.608   2.622
 6567TIP3    H119665   2.372   5.518   2.598
 6567TIP3    H219666   2.335   5.652   2.539
 6568TIP3   OH219667   2.789   4.414   3.213
 6568TIP3    H119668   2.840   4.480   3.167
 6568TIP3    H219669   2.784   4.445   3.304
 6569TIP3   OH219670   4.670   5.119   2.489
 6569TIP3    H119671   4.761   5.137   2.464
 6569TIP3    H219672   4.647   5.040   2.441
 6570TIP3   OH219673   2.240   0.080   0.410
 6570TIP3    H119674   2.248   0.033   0.493
 6570TIP3    H219675   2.231   0.172   0.436
 6571TIP3   OH219676   2.357   1.533   4.454
 6571TIP3    H119677   2.305   1.599   4.500
 6571TIP3    H219678   2.423   1.507   4.518
 6572TIP3   OH219679   3.527   4.997   5.569
 6572TIP3    H119680   3.485   5.069   5.617
 6572TIP3    H219681   3.570   4.945   5.636
 6573TIP3   OH219682   3.877   3.708   1.309
 6573TIP3    H119683   3.939   3.642   1.339
 6573TIP3    H219684   3.925   3.791   1.315
 6574TIP3   OH219685   5.312   2.317   0.833
 6574TIP3    H119686   5.320   2.305   0.928
 6574TIP3    H219687   5.326   2.230   0.796
 6575TIP3   OH219688   6.500   6.328   5.400
 6575TIP3    H119689   6.458   6.296   5.480
 6575TIP3    H219690   6.538   6.413   5.425
 6576TIP3   OH219691   0.028   5.426   0.133
 6576TIP3    H119692   0.057   5.517   0.143
 6576TIP3    H219693  -0.051   5.420   0.186
 6577TIP3   OH219694   0.599   3.905   1.159
 6577TIP3    H119695   0.627   3.982   1.209
 6577TIP3    H219696   0.561   3.942   1.079
 6578TIP3   OH219697   3.870   2.336   1.567
 6578TIP3    H119698   3.849   2.271   1.634
 6578TIP3    H219699   3.798   2.399   1.571
 6579TIP3   OH219700   1.052   0.409   1.378
 6579TIP3    H119701   1.089   0.497   1.387
 6579TIP3    H219702   0.958   0.423   1.366
 6580TIP3   OH219703   2.897   0.813   1.256
 6580TIP3    H119704   2.901   0.738   1.198
 6580TIP3    H219705   2.843   0.877   1.209
 6581TIP3   OH219706   6.889   6.050   3.706
 6581TIP3    H119707   6.796   6.063   3.688
 6581TIP3    H219708   6.931   6.130   3.675
 6582TIP3   OH219709   0.631   5.973   0.890
 6582TIP3    H119710   0.579   6.032   0.835
 6582TIP3    H219711   0.722   5.991   0.864
 6583TIP3   OH219712   3.767   3.808   3.720
 6583TIP3    H119713   3.860   3.789   3.738
 6583TIP3    H219714   3.733   3.839   3.803
 6584TIP3   OH219715   3.940   5.481   3.894
 6584TIP3    H119716   4.005   5.414   3.877
 6584TIP3    H219717   3.923   5.521   3.809
 6585TIP3   OH219718   0.280   0.269   4.607
 6585TIP3    H119719   0.287   0.321   4.687
 6585TIP3    H219720   0.191   0.232   4.611
 6586TIP3   OH219721   4.704   1.204   3.028
 6586TIP3    H119722   4.669   1.246   3.106
 6586TIP3    H219723   4.676   1.113   3.035
 6587TIP3   OH219724   2.523   3.962   1.966
 6587TIP3    H119725   2.564   4.004   2.041
 6587TIP3    H219726   2.443   4.012   1.949
 6588TIP3   OH219727   4.033   4.213   1.320
 6588TIP3    H119728   4.123   4.192   1.296
 6588TIP3    H219729   4.022   4.305   1.294
 6589TIP3   OH219730   5.347   5.397   3.630
 6589TIP3    H119731   5.266   5.368   3.673
 6589TIP3    H219732   5.321   5.415   3.540
 6590TIP3   OH219733   6.760   1.707   3.989
 6590TIP3    H119734   6.771   1.735   4.080
 6590TIP3    H219735   6.718   1.621   3.996
 6591TIP3   OH219736   1.524   0.951   3.707
 6591TIP3    H119737   1.513   1.002   3.788
 6591TIP3    H219738   1.595   0.995   3.661
 6592TIP3   OH219739   4.210   1.161   3.320
 6592TIP3    H119740   4.200   1.256   3.316
 6592TIP3    H219741   4.192   1.131   3.231
 6593TIP3   OH219742   0.290   6.783   1.639
 6593TIP3    H119743   0.354   6.787   1.568
 6593TIP3    H219744   0.256   6.693   1.634
 6594TIP3   OH219745   3.452   5.881   3.185
 6594TIP3    H119746   3.358   5.867   3.201
 6594TIP3    H219747   3.480   5.938   3.257
 6595TIP3   OH219748   4.809   5.155   0.847
 6595TIP3    H119749   4.886   5.167   0.791
 6595TIP3    H219750   4.736   5.145   0.785
 6596TIP3   OH219751   0.926   2.594   0.383
 6596TIP3    H119752   0.964   2.681   0.372
 6596TIP3    H219753   0.901   2.567   0.295
 6597TIP3   OH219754   5.280   0.290   4.948
 6597TIP3    H119755   5.310   0.237   5.022
 6597TIP3    H219756   5.360   0.312   4.901
 6598TIP3   OH219757   6.211   2.793   3.059
 6598TIP3    H119758   6.243   2.875   3.022
 6598TIP3    H219759   6.163   2.818   3.137
 6599TIP3   OH219760   2.693   0.569   0.067
 6599TIP3    H119761   2.721   0.633   0.132
 6599TIP3    H219762   2.654   0.622  -0.003
 6600TIP3   OH219763   6.805   6.042   0.086
 6600TIP3    H119764   6.741   6.081   0.145
 6600TIP3    H219765   6.779   6.072  -0.001
 6601TIP3   OH219766   6.356   6.789   1.791
 6601TIP3    H119767   6.436   6.740   1.770
 6601TIP3    H219768   6.285   6.726   1.778
 6602TIP3   OH219769   2.259   0.417   3.617
 6602TIP3    H119770   2.319   0.429   3.543
 6602TIP3    H219771   2.216   0.502   3.627
 6603TIP3   OH219772   2.146   0.617   1.448
 6603TIP3    H119773   2.160   0.525   1.426
 6603TIP3    H219774   2.221   0.640   1.503
 6604TIP3   OH219775   3.622   3.527   4.647
 6604TIP3    H119776   3.606   3.538   4.741
 6604TIP3    H219777   3.559   3.586   4.606
 6605TIP3   OH219778   1.794   6.776   0.936
 6605TIP3    H119779   1.821   6.719   0.864
 6605TIP3    H219780   1.704   6.802   0.913
 6606TIP3   OH219781   4.840   2.183   5.072
 6606TIP3    H119782   4.817   2.205   5.162
 6606TIP3    H219783   4.784   2.108   5.050
 6607TIP3   OH219784   3.203   2.044   1.565
 6607TIP3    H119785   3.130   1.995   1.602
 6607TIP3    H219786   3.216   2.006   1.478
 6608TIP3   OH219787   2.482   3.112   1.001
 6608TIP3    H119788   2.519   3.024   0.999
 6608TIP3    H219789   2.533   3.160   0.936
 6609TIP3   OH219790   2.615   0.408   3.009
 6609TIP3    H119791   2.596   0.499   2.986
 6609TIP3    H219792   2.702   0.411   3.050
 6610TIP3   OH219793   5.799   5.334   4.163
 6610TIP3    H119794   5.854   5.280   4.106
 6610TIP3    H219795   5.752   5.392   4.104
 6611TIP3   OH219796   0.996   6.368   0.657
 6611TIP3    H119797   0.930   6.300   0.668
 6611TIP3    H219798   0.946   6.446   0.632
 6612TIP3   OH219799   4.257   2.046   2.495
 6612TIP3    H119800   4.205   2.058   2.415
 6612TIP3    H219801   4.338   2.005   2.465
 6613TIP3   OH219802   5.642   3.210   0.147
 6613TIP3    H119803   5.730   3.173   0.140
 6613TIP3    H219804   5.646   3.269   0.222
 6614TIP3   OH219805   5.356   5.685   2.316
 6614TIP3    H119806   5.413   5.613   2.346
 6614TIP3    H219807   5.304   5.646   2.246
 6615TIP3   OH219808   2.653   3.691   5.651
 6615TIP3    H119809   2.575   3.735   5.617
 6615TIP3    H219810   2.691   3.755   5.712
 6616TIP3   OH219811   6.138   6.475   3.266
 6616TIP3    H119812   6.103   6.386   3.262
 6616TIP3    H219813   6.061   6.532   3.259
 6617TIP3   OH219814   7.126   2.851   3.162
 6617TIP3    H119815   7.043   2.898   3.156
 6617TIP3    H219816   7.116   2.793   3.238
 6618TIP3   OH219817   5.009   2.254   4.869
 6618TIP3    H119818   5.012   2.349   4.857
 6618TIP3    H219819   4.961   2.241   4.951
 6619TIP3   OH219820   6.492   1.727   1.652
 6619TIP3    H119821   6.477   1.774   1.571
 6619TIP3    H219822   6.460   1.638   1.635
 6620TIP3   OH219823   3.874   2.147   2.977
 6620TIP3    H119824   3.867   2.243   2.976
 6620TIP3    H219825   3.815   2.119   2.906
 6621TIP3   OH219826   4.073   4.347   3.679
 6621TIP3    H119827   4.055   4.408   3.607
 6621TIP3    H219828   4.131   4.396   3.738
 6622TIP3   OH219829   6.458   0.673   3.189
 6622TIP3    H119830   6.383   0.613   3.195
 6622TIP3    H219831   6.510   0.654   3.267
 6623TIP3   OH219832   7.124   2.500   0.690
 6623TIP3    H119833   7.104   2.466   0.777
 6623TIP3    H219834   7.065   2.574   0.679
 6624TIP3   OH219835   4.602   2.075   1.067
 6624TIP3    H119836   4.540   2.029   1.012
 6624TIP3    H219837   4.681   2.083   1.013
 6625TIP3   OH219838   1.597   1.229   1.970
 6625TIP3    H119839   1.612   1.282   2.048
 6625TIP3    H219840   1.684   1.212   1.935
 6626TIP3   OH219841   1.378   0.631   1.034
 6626TIP3    H119842   1.345   0.568   0.969
 6626TIP3    H219843   1.383   0.581   1.115
 6627TIP3   OH219844   4.426   2.482   1.067
 6627TIP3    H119845   4.332   2.479   1.082
 6627TIP3    H219846   4.463   2.513   1.150
 6628TIP3   OH219847   4.714   5.813   4.638
 6628TIP3    H119848   4.628   5.850   4.660
 6628TIP3    H219849   4.766   5.889   4.612
 6629TIP3   OH219850   0.726   3.423   1.361
 6629TIP3    H119851   0.773   3.498   1.325
 6629TIP3    H219852   0.793   3.356   1.373
 6630TIP3   OH219853   6.310   2.604   5.297
 6630TIP3    H119854   6.399   2.596   5.264
 6630TIP3    H219855   6.301   2.696   5.321
 6631TIP3   OH219856   2.848   6.036   5.189
 6631TIP3    H119857   2.916   6.068   5.130
 6631TIP3    H219858   2.871   5.944   5.205
 6632TIP3   OH219859   1.982   4.880   2.038
 6632TIP3    H119860   1.925   4.876   1.960
 6632TIP3    H219861   1.925   4.913   2.107
 6633TIP3   OH219862   4.828   0.721   5.882
 6633TIP3    H119863   4.869   0.703   5.967
 6633TIP3    H219864   4.848   0.644   5.829
 6634TIP3   OH219865   0.456   4.752   0.518
 6634TIP3    H119866   0.494   4.832   0.554
 6634TIP3    H219867   0.438   4.772   0.426
 6635TIP3   OH219868   3.768   4.241   0.463
 6635TIP3    H119869   3.704   4.247   0.535
 6635TIP3    H219870   3.728   4.180   0.401
 6636TIP3   OH219871   2.430   0.709   5.379
 6636TIP3    H119872   2.517   0.747   5.366
 6636TIP3    H219873   2.440   0.653   5.456
 6637TIP3   OH219874   5.869   1.099   4.172
 6637TIP3    H119875   5.865   1.118   4.079
 6637TIP3    H219876   5.868   1.003   4.178
 6638TIP3   OH219877   2.336   5.103   2.236
 6638TIP3    H119878   2.392   5.075   2.164
 6638TIP3    H219879   2.249   5.110   2.198
 6639TIP3   OH219880   6.175   4.110   2.946
 6639TIP3    H119881   6.253   4.116   3.001
 6639TIP3    H219882   6.191   4.173   2.875
 6640TIP3   OH219883   5.139   4.529   3.753
 6640TIP3    H119884   5.077   4.584   3.706
 6640TIP3    H219885   5.090   4.450   3.776
 6641TIP3   OH219886   6.378   3.168   5.666
 6641TIP3    H119887   6.385   3.230   5.593
 6641TIP3    H219888   6.284   3.151   5.674
 6642TIP3   OH219889   0.140   1.872   4.200
 6642TIP3    H119890   0.129   1.819   4.279
 6642TIP3    H219891   0.234   1.875   4.185
 6643TIP3   OH219892   1.393   5.923   1.500
 6643TIP3    H119893   1.442   5.841   1.508
 6643TIP3    H219894   1.418   5.958   1.415
 6644TIP3   OH219895   2.241   2.600   1.827
 6644TIP3    H119896   2.300   2.524   1.832
 6644TIP3    H219897   2.219   2.619   1.918
 6645TIP3   OH219898   3.325   3.948   5.724
 6645TIP3    H119899   3.260   3.899   5.672
 6645TIP3    H219900   3.332   3.900   5.806
 6646TIP3   OH219901   7.097   6.817   4.707
 6646TIP3    H119902   7.093   6.847   4.798
 6646TIP3    H219903   7.148   6.736   4.711
 6647TIP3   OH219904   2.040   4.397   0.479
 6647TIP3    H119905   2.070   4.480   0.517
 6647TIP3    H219906   1.944   4.405   0.478
 6648TIP3   OH219907   5.871   0.828   2.245
 6648TIP3    H119908   5.869   0.748   2.193
 6648TIP3    H219909   5.851   0.800   2.334
 6649TIP3   OH219910   2.506   4.791   2.213
 6649TIP3    H119911   2.431   4.791   2.271
 6649TIP3    H219912   2.494   4.713   2.158
 6650TIP3   OH219913   5.766   3.402   2.003
 6650TIP3    H119914   5.718   3.409   2.085
 6650TIP3    H219915   5.700   3.377   1.938
 6651TIP3   OH219916   6.984   3.245   2.051
 6651TIP3    H119917   7.040   3.172   2.024
 6651TIP3    H219918   6.943   3.274   1.970
 6652TIP3   OH219919   4.699   3.684   2.354
 6652TIP3    H119920   4.603   3.677   2.350
 6652TIP3    H219921   4.729   3.654   2.268
 6653TIP3   OH219922   0.531   1.476   3.561
 6653TIP3    H119923   0.616   1.446   3.592
 6653TIP3    H219924   0.497   1.403   3.510
 6654TIP3   OH219925   2.010   1.717   3.544
 6654TIP3    H119926   1.957   1.772   3.600
 6654TIP3    H219927   2.086   1.694   3.597
 6655TIP3   OH219928   3.265   0.110   2.519
 6655TIP3    H119929   3.298   0.035   2.568
 6655TIP3    H219930   3.227   0.073   2.440
 6656TIP3   OH219931   1.776   1.365   5.136
 6656TIP3    H119932   1.776   1.306   5.211
 6656TIP3    H219933   1.868   1.372   5.111
 6657TIP3   OH219934   0.067   5.677   3.901
 6657TIP3    H119935   0.143   5.636   3.941
 6657TIP3    H219936   0.014   5.603   3.869
 6658TIP3   OH219937   3.286   5.860   0.231
 6658TIP3    H119938   3.247   5.913   0.301
 6658TIP3    H219939   3.376   5.846   0.259
 6659TIP3   OH219940   3.499   2.187   0.203
 6659TIP3    H119941   3.433   2.189   0.133
 6659TIP3    H219942   3.469   2.119   0.263
 6660TIP3   OH219943   5.111   5.600   1.756
 6660TIP3    H119944   5.155   5.679   1.788
 6660TIP3    H219945   5.182   5.549   1.716
 6661TIP3   OH219946   0.372   5.273   4.726
 6661TIP3    H119947   0.344   5.352   4.772
 6661TIP3    H219948   0.467   5.274   4.731
 6662TIP3   OH219949   1.009   0.298   4.309
 6662TIP3    H119950   1.020   0.262   4.221
 6662TIP3    H219951   1.062   0.378   4.309
 6663TIP3   OH219952   5.167   4.727   0.440
 6663TIP3    H119953   5.104   4.793   0.469
 6663TIP3    H219954   5.126   4.643   0.460
 6664TIP3   OH219955   5.742   0.672   1.046
 6664TIP3    H119956   5.826   0.637   1.015
 6664TIP3    H219957   5.695   0.596   1.080
 6665TIP3   OH219958   2.266   0.849   1.367
 6665TIP3    H119959   2.362   0.843   1.366
 6665TIP3    H219960   2.237   0.762   1.341
 6666TIP3   OH219961   2.790   2.948   2.823
 6666TIP3    H119962   2.874   2.992   2.830
 6666TIP3    H219963   2.803   2.879   2.757
 6667TIP3   OH219964   5.481   6.346   5.843
 6667TIP3    H119965   5.387   6.330   5.849
 6667TIP3    H219966   5.521   6.266   5.877
 6668TIP3   OH219967   6.991   5.109   3.054
 6668TIP3    H119968   6.932   5.034   3.048
 6668TIP3    H219969   6.942   5.173   3.105
 6669TIP3   OH219970   2.910   3.712   0.210
 6669TIP3    H119971   2.958   3.632   0.189
 6669TIP3    H219972   2.823   3.698   0.173
 6670TIP3   OH219973   0.268   3.127   1.553
 6670TIP3    H119974   0.309   3.214   1.556
 6670TIP3    H219975   0.266   3.099   1.644
 6671TIP3   OH219976   0.224   2.010   1.359
 6671TIP3    H119977   0.205   2.063   1.437
 6671TIP3    H219978   0.295   2.057   1.315
 6672TIP3   OH219979   0.666   2.042   2.967
 6672TIP3    H119980   0.618   2.067   3.046
 6672TIP3    H219981   0.758   2.043   2.993
 6673TIP3   OH219982   1.621   3.007   0.861
 6673TIP3    H119983   1.657   3.025   0.775
 6673TIP3    H219984   1.696   2.978   0.913
 6674TIP3   OH219985   4.919   1.477   2.346
 6674TIP3    H119986   4.988   1.416   2.319
 6674TIP3    H219987   4.913   1.467   2.441
 6675TIP3   OH219988   1.285   2.655   5.063
 6675TIP3    H119989   1.326   2.574   5.033
 6675TIP3    H219990   1.192   2.632   5.072
 6676TIP3   OH219991   5.696   3.868   4.465
 6676TIP3    H119992   5.640   3.895   4.392
 6676TIP3    H219993   5.744   3.792   4.431
 6677TIP3   OH219994   0.689   6.565   5.676
 6677TIP3    H119995   0.622   6.613   5.724
 6677TIP3    H219996   0.684   6.476   5.710
 6678TIP3   OH219997   3.195   0.614   1.564
 6678TIP3    H119998   3.102   0.628   1.583
 6678TIP3    H219999   3.196   0.578   1.476
 6679TIP3   OH220000   0.654   4.627   2.567
 6679TIP3    H120001   0.630   4.718   2.585
 6679TIP3    H220002   0.704   4.632   2.485
 6680TIP3   OH220003   5.379   1.475   4.225
 6680TIP3    H120004   5.395   1.382   4.211
 6680TIP3    H220005   5.285   1.486   4.214
 6681TIP3   OH220006   1.348   4.607   1.625
 6681TIP3    H120007   1.284   4.541   1.650
 6681TIP3    H220008   1.347   4.670   1.697
 6682TIP3   OH220009   2.166   5.214   3.707
 6682TIP3    H120010   2.094   5.163   3.670
 6682TIP3    H220011   2.185   5.280   3.641
 6683TIP3   OH220012   6.628   3.930   5.094
 6683TIP3    H120013   6.703   3.889   5.052
 6683TIP3    H220014   6.585   3.980   5.024
 6684TIP3   OH220015   0.870   2.581   2.975
 6684TIP3    H120016   0.820   2.508   3.012
 6684TIP3    H220017   0.873   2.563   2.881
 6685TIP3   OH220018   1.482   2.674   3.571
 6685TIP3    H120019   1.475   2.766   3.547
 6685TIP3    H220020   1.537   2.635   3.503
 6686TIP3   OH220021   7.215   4.945   1.402
 6686TIP3    H120022   7.209   5.025   1.350
 6686TIP3    H220023   7.183   4.969   1.489
 6687TIP3   OH220024   6.728   2.417   2.379
 6687TIP3    H120025   6.681   2.484   2.430
 6687TIP3    H220026   6.816   2.453   2.369
 6688TIP3   OH220027   0.891   3.974   3.224
 6688TIP3    H120028   0.833   4.047   3.247
 6688TIP3    H220029   0.960   3.976   3.290
 6689TIP3   OH220030   0.162   1.922   0.392
 6689TIP3    H120031   0.238   1.963   0.350
 6689TIP3    H220032   0.089   1.943   0.333
 6690TIP3   OH220033   2.692   0.558   0.645
 6690TIP3    H120034   2.631   0.595   0.582
 6690TIP3    H220035   2.777   0.560   0.601
 6691TIP3   OH220036   1.149   1.113   2.921
 6691TIP3    H120037   1.112   1.053   2.985
 6691TIP3    H220038   1.244   1.104   2.932
 6692TIP3   OH220039   0.454   5.521   1.464
 6692TIP3    H120040   0.450   5.449   1.401
 6692TIP3    H220041   0.364   5.530   1.496
 6693TIP3   OH220042   7.057   6.103   1.734
 6693TIP3    H120043   7.145   6.099   1.697
 6693TIP3    H220044   7.008   6.037   1.686
 6694TIP3   OH220045   1.920   2.205   3.363
 6694TIP3    H120046   1.985   2.256   3.315
 6694TIP3    H220047   1.942   2.114   3.343
 6695TIP3   OH220048   2.895   0.973   3.516
 6695TIP3    H120049   2.866   0.884   3.534
 6695TIP3    H220050   2.863   0.991   3.427
 6696TIP3   OH220051   1.166   6.277   2.285
 6696TIP3    H120052   1.133   6.364   2.304
 6696TIP3    H220053   1.133   6.258   2.197
 6697TIP3   OH220054   5.834   1.653   2.464
 6697TIP3    H120055   5.801   1.693   2.384
 6697TIP3    H220056   5.879   1.573   2.435
 6698TIP3   OH220057   1.730   0.894   1.807
 6698TIP3    H120058   1.767   0.883   1.894
 6698TIP3    H220059   1.712   0.805   1.777
 6699TIP3   OH220060   4.151   1.772   2.183
 6699TIP3    H120061   4.150   1.704   2.250
 6699TIP3    H220062   4.065   1.766   2.141
 6700TIP3   OH220063   3.721   3.726   1.087
 6700TIP3    H120064   3.792   3.727   1.023
 6700TIP3    H220065   3.766   3.732   1.172
 6701TIP3   OH220066   6.257   1.013   3.519
 6701TIP3    H120067   6.182   0.958   3.543
 6701TIP3    H220068   6.262   1.008   3.424
 6702TIP3   OH220069   2.269   0.124   0.928
 6702TIP3    H120070   2.273   0.148   0.836
 6702TIP3    H220071   2.177   0.106   0.945
 6703TIP3   OH220072   3.495   3.382   2.981
 6703TIP3    H120073   3.589   3.377   2.967
 6703TIP3    H220074   3.457   3.344   2.902
 6704TIP3   OH220075   2.887   3.485   5.123
 6704TIP3    H120076   2.948   3.417   5.154
 6704TIP3    H220077   2.825   3.496   5.195
 6705TIP3   OH220078   4.573   5.994   2.054
 6705TIP3    H120079   4.492   5.981   2.103
 6705TIP3    H220080   4.633   6.033   2.116
 6706TIP3   OH220081   2.236   1.240   0.657
 6706TIP3    H120082   2.276   1.207   0.737
 6706TIP3    H220083   2.275   1.326   0.644
 6707TIP3   OH220084   4.683   4.296   4.098
 6707TIP3    H120085   4.635   4.238   4.158
 6707TIP3    H220086   4.680   4.382   4.139
 6708TIP3   OH220087   5.949   2.288   1.032
 6708TIP3    H120088   5.926   2.381   1.038
 6708TIP3    H220089   5.895   2.246   1.099
 6709TIP3   OH220090   0.670   4.159   1.915
 6709TIP3    H120091   0.745   4.185   1.969
 6709TIP3    H220092   0.594   4.200   1.958
 6710TIP3   OH220093   6.980   6.034   3.958
 6710TIP3    H120094   6.959   6.019   3.866
 6710TIP3    H220095   6.895   6.045   4.001
 6711TIP3   OH220096   3.222   2.098   4.041
 6711TIP3    H120097   3.214   2.030   3.975
 6711TIP3    H220098   3.140   2.094   4.089
 6712TIP3   OH220099   1.137   1.794   0.368
 6712TIP3    H120100   1.056   1.789   0.317
 6712TIP3    H220101   1.114   1.756   0.453
 6713TIP3   OH220102   5.293   5.311   0.271
 6713TIP3    H120103   5.248   5.238   0.229
 6713TIP3    H220104   5.223   5.374   0.289
 6714TIP3   OH220105   1.293   2.987   4.313
 6714TIP3    H120106   1.223   2.999   4.377
 6714TIP3    H220107   1.288   2.895   4.289
 6715TIP3   OH220108   2.390   5.135   5.222
 6715TIP3    H120109   2.334   5.082   5.166
 6715TIP3    H220110   2.342   5.143   5.304
 6716TIP3   OH220111   4.744   2.925   1.869
 6716TIP3    H120112   4.782   2.842   1.841
 6716TIP3    H220113   4.651   2.907   1.877
 6717TIP3   OH220114   6.545   0.647   1.944
 6717TIP3    H120115   6.505   0.732   1.964
 6717TIP3    H220116   6.615   0.668   1.881
 6718TIP3   OH220117   2.509   1.845   3.123
 6718TIP3    H120118   2.551   1.918   3.078
 6718TIP3    H220119   2.421   1.841   3.084
 6719TIP3   OH220120   2.434   2.472   0.818
 6719TIP3    H120121   2.511   2.517   0.782
 6719TIP3    H220122   2.470   2.392   0.857
 6720TIP3   OH220123   2.411   0.088   4.477
 6720TIP3    H120124   2.488   0.034   4.497
 6720TIP3    H220125   2.351   0.071   4.550
 6721TIP3   OH220126   3.898   6.433   3.009
 6721TIP3    H120127   3.925   6.397   2.925
 6721TIP3    H220128   3.814   6.475   2.991
 6722TIP3   OH220129   1.818   5.232   4.451
 6722TIP3    H120130   1.865   5.187   4.521
 6722TIP3    H220131   1.886   5.270   4.396
 6723TIP3   OH220132   5.083   2.022   0.856
 6723TIP3    H120133   5.043   1.985   0.934
 6723TIP3    H220134   5.087   1.949   0.794
 6724TIP3   OH220135   0.563   6.281   2.455
 6724TIP3    H120136   0.474   6.246   2.454
 6724TIP3    H220137   0.571   6.331   2.374
 6725TIP3   OH220138   4.119   6.042   0.327
 6725TIP3    H120139   4.156   5.955   0.311
 6725TIP3    H220140   4.024   6.029   0.326
 6726TIP3   OH220141   3.670   1.549   0.376
 6726TIP3    H120142   3.712   1.628   0.340
 6726TIP3    H220143   3.632   1.506   0.299
 6727TIP3   OH220144   1.443   4.117   0.220
 6727TIP3    H120145   1.390   4.049   0.179
 6727TIP3    H220146   1.433   4.193   0.164
 6728TIP3   OH220147   6.802   5.192   5.154
 6728TIP3    H120148   6.749   5.270   5.172
 6728TIP3    H220149   6.760   5.123   5.206
 6729TIP3   OH220150   3.929   2.505   3.576
 6729TIP3    H120151   3.863   2.488   3.644
 6729TIP3    H220152   4.004   2.450   3.602
 6730TIP3   OH220153   4.734   0.144   5.400
 6730TIP3    H120154   4.754   0.081   5.469
 6730TIP3    H220155   4.785   0.114   5.325
 6731TIP3   OH220156   2.305   1.815   2.926
 6731TIP3    H120157   2.333   1.901   2.895
 6731TIP3    H220158   2.302   1.761   2.847
 6732TIP3   OH220159   1.592   3.114   3.281
 6732TIP3    H120160   1.581   3.039   3.222
 6732TIP3    H220161   1.683   3.110   3.309
 6733TIP3   OH220162   1.210   5.945   4.554
 6733TIP3    H120163   1.262   5.990   4.620
 6733TIP3    H220164   1.273   5.891   4.506
 6734TIP3   OH220165   1.434   5.272   0.588
 6734TIP3    H120166   1.488   5.203   0.550
 6734TIP3    H220167   1.421   5.246   0.679
 6735TIP3   OH220168   5.555   4.422   3.709
 6735TIP3    H120169   5.601   4.498   3.743
 6735TIP3    H220170   5.483   4.407   3.770
 6736TIP3   OH220171   1.920   0.214   4.696
 6736TIP3    H120172   1.836   0.227   4.652
 6736TIP3    H220173   1.983   0.261   4.642
 6737TIP3   OH220174   7.023   2.831   4.932
 6737TIP3    H120175   7.065   2.909   4.895
 6737TIP3    H220176   7.002   2.777   4.856
 6738TIP3   OH220177   1.882   2.866   5.731
 6738TIP3    H120178   1.805   2.917   5.709
 6738TIP3    H220179   1.882   2.861   5.826
 6739TIP3   OH220180   6.839   3.203   2.301
 6739TIP3    H120181   6.895   3.129   2.324
 6739TIP3    H220182   6.873   3.234   2.217
 6740TIP3   OH220183   5.517   5.841   1.955
 6740TIP3    H120184   5.559   5.877   1.877
 6740TIP3    H220185   5.584   5.788   1.997
 6741TIP3   OH220186   0.483   3.367   1.864
 6741TIP3    H120187   0.512   3.310   1.935
 6741TIP3    H220188   0.546   3.352   1.793
 6742TIP3   OH220189   4.853   2.265   1.518
 6742TIP3    H120190   4.808   2.349   1.524
 6742TIP3    H220191   4.803   2.216   1.453
 6743TIP3   OH220192   6.586   1.103   3.224
 6743TIP3    H120193   6.570   1.151   3.305
 6743TIP3    H220194   6.505   1.111   3.175
 6744TIP3   OH220195   7.031   2.214   2.123
 6744TIP3    H120196   7.039   2.200   2.029
 6744TIP3    H220197   6.954   2.163   2.148
 6745TIP3   OH220198   5.523   4.465   4.315
 6745TIP3    H120199   5.561   4.507   4.392
 6745TIP3    H220200   5.591   4.470   4.248
 6746TIP3   OH220201   6.336   6.501   4.904
 6746TIP3    H120202   6.362   6.459   4.822
 6746TIP3    H220203   6.242   6.484   4.911
 6747TIP3   OH220204   4.381   4.519   2.275
 6747TIP3    H120205   4.433   4.452   2.232
 6747TIP3    H220206   4.420   4.602   2.247
 6748TIP3   OH220207   4.586   3.686   2.694
 6748TIP3    H120208   4.530   3.610   2.676
 6748TIP3    H220209   4.540   3.759   2.652
 6749TIP3   OH220210   2.348   5.776   1.842
 6749TIP3    H120211   2.380   5.786   1.753
 6749TIP3    H220212   2.385   5.693   1.872
 6750TIP3   OH220213   3.076   3.265   1.848
 6750TIP3    H120214   3.162   3.222   1.855
 6750TIP3    H220215   3.053   3.257   1.755
 6751TIP3   OH220216   5.156   4.651   1.850
 6751TIP3    H120217   5.183   4.680   1.763
 6751TIP3    H220218   5.229   4.677   1.907
 6752TIP3   OH220219   0.443   5.680   0.480
 6752TIP3    H120220   0.528   5.725   0.477
 6752TIP3    H220221   0.410   5.698   0.568
 6753TIP3   OH220222   3.176   5.122   2.592
 6753TIP3    H120223   3.125   5.136   2.512
 6753TIP3    H220224   3.252   5.072   2.564
 6754TIP3   OH220225   6.006   2.280   4.638
 6754TIP3    H120226   5.928   2.260   4.691
 6754TIP3    H220227   6.004   2.375   4.627
 6755TIP3   OH220228   6.290   0.730   3.835
 6755TIP3    H120229   6.379   0.694   3.828
 6755TIP3    H220230   6.264   0.748   3.745
 6756TIP3   OH220231   6.954   2.774   3.753
 6756TIP3    H120232   6.890   2.835   3.788
 6756TIP3    H220233   6.918   2.749   3.667
 6757TIP3   OH220234   0.846   5.544   2.677
 6757TIP3    H120235   0.937   5.530   2.705
 6757TIP3    H220236   0.799   5.562   2.758
 6758TIP3   OH220237   4.422   4.784   5.842
 6758TIP3    H120238   4.329   4.798   5.823
 6758TIP3    H220239   4.447   4.714   5.782
 6759TIP3   OH220240   1.927   4.698   0.974
 6759TIP3    H120241   1.956   4.630   0.913
 6759TIP3    H220242   1.991   4.695   1.045
 6760TIP3   OH220243   6.658   2.817   4.673
 6760TIP3    H120244   6.679   2.750   4.608
 6760TIP3    H220245   6.742   2.835   4.716
 6761TIP3   OH220246   3.381   4.114   4.401
 6761TIP3    H120247   3.412   4.133   4.313
 6761TIP3    H220248   3.285   4.110   4.392
 6762TIP3   OH220249   0.882   6.276   1.325
 6762TIP3    H120250   0.964   6.249   1.367
 6762TIP3    H220251   0.815   6.258   1.390
 6763TIP3   OH220252   1.909   3.755   1.445
 6763TIP3    H120253   1.863   3.785   1.523
 6763TIP3    H220254   1.945   3.835   1.406
 6764TIP3   OH220255   3.313   1.069   5.116
 6764TIP3    H120256   3.296   1.003   5.049
 6764TIP3    H220257   3.405   1.095   5.101
 6765TIP3   OH220258   4.631   3.039   1.498
 6765TIP3    H120259   4.712   3.088   1.510
 6765TIP3    H220260   4.650   2.979   1.426
 6766TIP3   OH220261   3.148   1.583   1.850
 6766TIP3    H120262   3.121   1.492   1.836
 6766TIP3    H220263   3.089   1.615   1.918
 6767TIP3   OH220264   2.777   3.372   1.800
 6767TIP3    H120265   2.709   3.383   1.867
 6767TIP3    H220266   2.859   3.376   1.848
 6768TIP3   OH220267   6.983   4.296   0.355
 6768TIP3    H120268   6.934   4.275   0.275
 6768TIP3    H220269   7.023   4.381   0.336
 6769TIP3   OH220270   6.751   0.320   3.436
 6769TIP3    H120271   6.813   0.247   3.428
 6769TIP3    H220272   6.694   0.294   3.509
 6770TIP3   OH220273   1.199   2.640   0.033
 6770TIP3    H120274   1.115   2.648   0.078
 6770TIP3    H220275   1.188   2.693  -0.046
 6771TIP3   OH220276   3.853   5.745   2.483
 6771TIP3    H120277   3.876   5.835   2.459
 6771TIP3    H220278   3.758   5.742   2.480
 6772TIP3   OH220279   6.237   5.323   0.555
 6772TIP3    H120280   6.225   5.331   0.650
 6772TIP3    H220281   6.271   5.234   0.543
 6773TIP3   OH220282   1.680   6.170   3.463
 6773TIP3    H120283   1.728   6.206   3.538
 6773TIP3    H220284   1.743   6.169   3.391
 6774TIP3   OH220285   6.164   5.724   3.794
 6774TIP3    H120286   6.101   5.746   3.863
 6774TIP3    H220287   6.162   5.628   3.791
 6775TIP3   OH220288   6.276   2.256   4.834
 6775TIP3    H120289   6.301   2.343   4.864
 6775TIP3    H220290   6.236   2.270   4.748
 6776TIP3   OH220291   1.329   3.932   0.458
 6776TIP3    H120292   1.279   3.893   0.529
 6776TIP3    H220293   1.393   3.865   0.434
 6777TIP3   OH220294   1.023   6.400   0.191
 6777TIP3    H120295   1.021   6.492   0.216
 6777TIP3    H220296   0.935   6.381   0.159
 6778TIP3   OH220297   6.147   0.617   2.338
 6778TIP3    H120298   6.196   0.556   2.394
 6778TIP3    H220299   6.063   0.573   2.323
 6779TIP3   OH220300   6.579   6.506   5.625
 6779TIP3    H120301   6.535   6.585   5.592
 6779TIP3    H220302   6.672   6.524   5.611
 6780TIP3   OH220303   3.006   3.045   1.344
 6780TIP3    H120304   2.927   3.098   1.356
 6780TIP3    H220305   3.045   3.077   1.262
 6781TIP3   OH220306   0.626   4.925   2.822
 6781TIP3    H120307   0.628   4.921   2.726
 6781TIP3    H220308   0.576   4.847   2.847
 6782TIP3   OH220309   5.163   3.451   3.432
 6782TIP3    H120310   5.135   3.443   3.341
 6782TIP3    H220311   5.121   3.531   3.463
 6783TIP3   OH220312   2.329   6.786   3.728
 6783TIP3    H120313   2.259   6.804   3.790
 6783TIP3    H220314   2.408   6.782   3.781
 6784TIP3   OH220315   5.261   2.020   2.105
 6784TIP3    H120316   5.336   2.070   2.074
 6784TIP3    H220317   5.201   2.018   2.031
 6785TIP3   OH220318   5.967   6.300   4.211
 6785TIP3    H120319   5.980   6.373   4.271
 6785TIP3    H220320   6.006   6.329   4.129
 6786TIP3   OH220321   6.292   6.132   2.561
 6786TIP3    H120322   6.310   6.040   2.580
 6786TIP3    H220323   6.322   6.179   2.639
 6787TIP3   OH220324   4.261   5.039   2.935
 6787TIP3    H120325   4.213   5.047   3.017
 6787TIP3    H220326   4.253   5.124   2.894
 6788TIP3   OH220327   0.750   1.906   1.502
 6788TIP3    H120328   0.771   1.949   1.420
 6788TIP3    H220329   0.815   1.938   1.564
 6789TIP3   OH220330   4.780   0.057   3.481
 6789TIP3    H120331   4.760   0.018   3.566
 6789TIP3    H220332   4.850   0.002   3.446
 6790TIP3   OH220333   3.211   0.866   5.409
 6790TIP3    H120334   3.217   0.770   5.403
 6790TIP3    H220335   3.250   0.897   5.327
 6791TIP3   OH220336   2.884   2.741   0.509
 6791TIP3    H120337   2.945   2.672   0.535
 6791TIP3    H220338   2.932   2.791   0.443
 6792TIP3   OH220339   2.380   4.438   3.401
 6792TIP3    H120340   2.298   4.487   3.405
 6792TIP3    H220341   2.430   4.466   3.478
 6793TIP3   OH220342   3.238   4.365   2.404
 6793TIP3    H120343   3.253   4.380   2.311
 6793TIP3    H220344   3.219   4.452   2.440
 6794TIP3   OH220345   5.193   5.939   5.512
 6794TIP3    H120346   5.180   5.928   5.607
 6794TIP3    H220347   5.119   5.992   5.484
 6795TIP3   OH220348   6.408   0.399   3.827
 6795TIP3    H120349   6.413   0.464   3.756
 6795TIP3    H220350   6.324   0.356   3.814
 6796TIP3   OH220351   5.249   0.282   3.001
 6796TIP3    H120352   5.297   0.331   2.934
 6796TIP3    H220353   5.249   0.192   2.970
 6797TIP3   OH220354   1.095   1.045   4.681
 6797TIP3    H120355   1.048   0.977   4.633
 6797TIP3    H220356   1.141   1.095   4.614
 6798TIP3   OH220357   2.346   0.662   5.074
 6798TIP3    H120358   2.353   0.736   5.134
 6798TIP3    H220359   2.256   0.664   5.044
 6799TIP3   OH220360   0.348   1.419   4.236
 6799TIP3    H120361   0.265   1.437   4.192
 6799TIP3    H220362   0.408   1.397   4.165
 6800TIP3   OH220363   0.073   2.750   5.433
 6800TIP3    H120364   0.034   2.837   5.423
 6800TIP3    H220365   0.112   2.731   5.348
 6801TIP3   OH220366   2.481   2.173   1.261
 6801TIP3    H120367   2.397   2.128   1.271
 6801TIP3    H220368   2.457   2.262   1.235
 6802TIP3   OH220369   0.780   0.471   1.463
 6802TIP3    H120370   0.814   0.462   1.552
 6802TIP3    H220371   0.740   0.386   1.444
 6803TIP3   OH220372   0.697   3.874   2.813
 6803TIP3    H120373   0.694   3.839   2.902
 6803TIP3    H220374   0.606   3.873   2.783
 6804TIP3   OH220375   0.632   4.558   4.672
 6804TIP3    H120376   0.542   4.588   4.685
 6804TIP3    H220377   0.638   4.541   4.578
 6805TIP3   OH220378   4.784   0.303   3.339
 6805TIP3    H120379   4.756   0.219   3.376
 6805TIP3    H220380   4.829   0.347   3.411
 6806TIP3   OH220381   6.672   1.446   4.008
 6806TIP3    H120382   6.721   1.414   4.084
 6806TIP3    H220383   6.670   1.372   3.948
 6807TIP3   OH220384   2.099   1.449   4.117
 6807TIP3    H120385   2.159   1.524   4.113
 6807TIP3    H220386   2.067   1.439   4.028
 6808TIP3   OH220387   2.592   0.826   0.169
 6808TIP3    H120388   2.564   0.881   0.242
 6808TIP3    H220389   2.686   0.816   0.182
 6809TIP3   OH220390   2.711   0.791   5.381
 6809TIP3    H120391   2.754   0.857   5.436
 6809TIP3    H220392   2.762   0.711   5.395
 6810TIP3   OH220393   6.785   2.399   0.078
 6810TIP3    H120394   6.777   2.308   0.107
 6810TIP3    H220395   6.851   2.438   0.136
 6811TIP3   OH220396   3.622   2.122   2.860
 6811TIP3    H120397   3.530   2.123   2.885
 6811TIP3    H220398   3.622   2.145   2.767
 6812TIP3   OH220399   5.353   1.224   0.767
 6812TIP3    H120400   5.449   1.216   0.767
 6812TIP3    H220401   5.323   1.166   0.698
 6813TIP3   OH220402   0.752   6.359   1.581
 6813TIP3    H120403   0.837   6.388   1.613
 6813TIP3    H220404   0.755   6.264   1.587
 6814TIP3   OH220405   1.887   1.588   0.934
 6814TIP3    H120406   1.833   1.587   0.855
 6814TIP3    H220407   1.832   1.550   1.002
 6815TIP3   OH220408   1.817   0.512   4.675
 6815TIP3    H120409   1.759   0.531   4.602
 6815TIP3    H220410   1.888   0.460   4.637
 6816TIP3   OH220411   4.168   5.307   1.267
 6816TIP3    H120412   4.237   5.339   1.325
 6816TIP3    H220413   4.176   5.212   1.269
 6817TIP3   OH220414   5.480   2.206   2.519
 6817TIP3    H120415   5.443   2.294   2.527
 6817TIP3    H220416   5.508   2.201   2.428
 6818TIP3   OH220417   4.543   1.373   5.832
 6818TIP3    H120418   4.581   1.460   5.823
 6818TIP3    H220419   4.450   1.389   5.846
 6819TIP3   OH220420   0.643   5.195   4.596
 6819TIP3    H120421   0.664   5.103   4.579
 6819TIP3    H220422   0.654   5.237   4.511
 6820TIP3   OH220423   6.154   4.185   0.820
 6820TIP3    H120424   6.237   4.182   0.774
 6820TIP3    H220425   6.093   4.225   0.758
 6821TIP3   OH220426   1.889   6.228   4.147
 6821TIP3    H120427   1.804   6.246   4.187
 6821TIP3    H220428   1.951   6.235   4.219
 6822TIP3   OH220429   2.113   2.745   3.535
 6822TIP3    H120430   2.204   2.755   3.565
 6822TIP3    H220431   2.120   2.741   3.440
 6823TIP3   OH220432   0.775   1.991   2.021
 6823TIP3    H120433   0.721   1.936   2.076
 6823TIP3    H220434   0.864   1.960   2.036
 6824TIP3   OH220435   3.636   6.197   1.905
 6824TIP3    H120436   3.716   6.151   1.880
 6824TIP3    H220437   3.565   6.140   1.874
 6825TIP3   OH220438   5.677   5.669   0.093
 6825TIP3    H120439   5.634   5.731   0.034
 6825TIP3    H220440   5.626   5.673   0.174
 6826TIP3   OH220441   3.556   2.575   0.408
 6826TIP3    H120442   3.620   2.575   0.336
 6826TIP3    H220443   3.554   2.485   0.438
 6827TIP3   OH220444   4.622   3.565   1.197
 6827TIP3    H120445   4.551   3.623   1.226
 6827TIP3    H220446   4.583   3.478   1.198
 6828TIP3   OH220447   4.752   6.585   1.953
 6828TIP3    H120448   4.738   6.531   2.031
 6828TIP3    H220449   4.678   6.565   1.896
 6829TIP3   OH220450   4.102   5.467   1.727
 6829TIP3    H120451   4.131   5.550   1.689
 6829TIP3    H220452   4.175   5.407   1.712
 6830TIP3   OH220453   0.956   1.330   0.101
 6830TIP3    H120454   0.875   1.375   0.078
 6830TIP3    H220455   1.025   1.395   0.086
 6831TIP3   OH220456   0.042   0.187   3.349
 6831TIP3    H120457   0.080   0.179   3.261
 6831TIP3    H220458   0.089   0.261   3.388
 6832TIP3   OH220459   3.506   6.699   4.447
 6832TIP3    H120460   3.594   6.735   4.441
 6832TIP3    H220461   3.504   6.654   4.531
 6833TIP3   OH220462   2.992   5.230   3.464
 6833TIP3    H120463   2.901   5.218   3.488
 6833TIP3    H220464   3.004   5.175   3.386
 6834TIP3   OH220465   6.291   2.458   3.325
 6834TIP3    H120466   6.381   2.427   3.323
 6834TIP3    H220467   6.297   2.551   3.348
 6835TIP3   OH220468   3.298   5.457   0.805
 6835TIP3    H120469   3.377   5.482   0.852
 6835TIP3    H220470   3.252   5.398   0.866
 6836TIP3   OH220471   3.991   3.903   0.128
 6836TIP3    H120472   3.968   3.976   0.071
 6836TIP3    H220473   3.943   3.828   0.093
 6837TIP3   OH220474   5.366   3.466   5.418
 6837TIP3    H120475   5.440   3.513   5.458
 6837TIP3    H220476   5.389   3.374   5.427
 6838TIP3   OH220477   4.242   5.804   0.324
 6838TIP3    H120478   4.333   5.807   0.295
 6838TIP3    H220479   4.247   5.782   0.417
 6839TIP3   OH220480   0.938   6.686   0.788
 6839TIP3    H120481   0.914   6.751   0.721
 6839TIP3    H220482   0.854   6.650   0.817
 6840TIP3   OH220483   6.710   5.048   3.303
 6840TIP3    H120484   6.754   5.119   3.256
 6840TIP3    H220485   6.771   5.024   3.373
 6841TIP3   OH220486   2.699   3.631   2.905
 6841TIP3    H120487   2.617   3.585   2.925
 6841TIP3    H220488   2.738   3.648   2.991
 6842TIP3   OH220489   4.976   0.272   2.450
 6842TIP3    H120490   5.007   0.207   2.387
 6842TIP3    H220491   4.903   0.229   2.494
 6843TIP3   OH220492   2.103   6.796   1.015
 6843TIP3    H120493   2.062   6.725   1.064
 6843TIP3    H220494   2.116   6.761   0.927
 6844TIP3   OH220495   4.863   5.011   4.730
 6844TIP3    H120496   4.827   5.080   4.675
 6844TIP3    H220497   4.911   4.955   4.670
 6845TIP3   OH220498   6.340   4.383   0.517
 6845TIP3    H120499   6.334   4.448   0.587
 6845TIP3    H220500   6.264   4.401   0.462
 6846TIP3   OH220501   6.495   2.205   0.087
 6846TIP3    H120502   6.465   2.266   0.020
 6846TIP3    H220503   6.544   2.138   0.040
 6847TIP3   OH220504   5.667   4.418   1.050
 6847TIP3    H120505   5.704   4.501   1.019
 6847TIP3    H220506   5.718   4.351   1.005
 6848TIP3   OH220507   1.704   6.091   2.431
 6848TIP3    H120508   1.795   6.067   2.414
 6848TIP3    H220509   1.694   6.176   2.388
 6849TIP3   OH220510   5.960   4.374   2.460
 6849TIP3    H120511   6.022   4.375   2.387
 6849TIP3    H220512   5.933   4.465   2.470
 6850TIP3   OH220513   5.083   4.086   3.600
 6850TIP3    H120514   5.053   4.005   3.641
 6850TIP3    H220515   5.173   4.097   3.631
 6851TIP3   OH220516   0.128   2.280   2.757
 6851TIP3    H120517   0.033   2.272   2.754
 6851TIP3    H220518   0.150   2.343   2.689
 6852TIP3   OH220519   0.597   0.343   0.239
 6852TIP3    H120520   0.684   0.351   0.277
 6852TIP3    H220521   0.608   0.372   0.148
 6853TIP3   OH220522   1.916   3.668   0.806
 6853TIP3    H120523   2.005   3.659   0.837
 6853TIP3    H220524   1.911   3.759   0.775
 6854TIP3   OH220525   1.104   1.852   3.703
 6854TIP3    H120526   1.167   1.899   3.757
 6854TIP3    H220527   1.031   1.912   3.693
 6855TIP3   OH220528   5.077   6.344   1.752
 6855TIP3    H120529   5.050   6.414   1.813
 6855TIP3    H220530   4.997   6.320   1.707
 6856TIP3   OH220531   6.889   6.297   4.343
 6856TIP3    H120532   6.915   6.294   4.435
 6856TIP3    H220533   6.966   6.267   4.295
 6857TIP3   OH220534   3.112   1.423   1.207
 6857TIP3    H120535   3.152   1.352   1.258
 6857TIP3    H220536   3.178   1.443   1.140
 6858TIP3   OH220537   3.718   1.191   3.088
 6858TIP3    H120538   3.639   1.165   3.042
 6858TIP3    H220539   3.704   1.162   3.178
 6859TIP3   OH220540   0.300   5.533   3.981
 6859TIP3    H120541   0.364   5.579   4.035
 6859TIP3    H220542   0.327   5.442   3.984
 6860TIP3   OH220543   5.214   5.076   0.120
 6860TIP3    H120544   5.231   5.075   0.026
 6860TIP3    H220545   5.233   4.986   0.149
 6861TIP3   OH220546   1.828   2.867   1.438
 6861TIP3    H120547   1.911   2.890   1.396
 6861TIP3    H220548   1.843   2.781   1.476
 6862TIP3   OH220549   4.015   1.451   4.540
 6862TIP3    H120550   4.049   1.512   4.475
 6862TIP3    H220551   3.946   1.499   4.585
 6863TIP3   OH220552   1.511   1.335   0.145
 6863TIP3    H120553   1.604   1.309   0.145
 6863TIP3    H220554   1.512   1.426   0.116
 6864TIP3   OH220555   6.583   1.683   5.831
 6864TIP3    H120556   6.624   1.714   5.750
 6864TIP3    H220557   6.656   1.665   5.890
 6865TIP3   OH220558   4.444   6.651   1.434
 6865TIP3    H120559   4.493   6.698   1.502
 6865TIP3    H220560   4.449   6.709   1.358
 6866TIP3   OH220561   2.997   1.941   5.173
 6866TIP3    H120562   3.093   1.951   5.172
 6866TIP3    H220563   2.970   1.984   5.254
 6867TIP3   OH220564   0.173   1.957   5.601
 6867TIP3    H120565   0.159   1.948   5.507
 6867TIP3    H220566   0.229   2.033   5.610
 6868TIP3   OH220567   1.475   0.293   2.886
 6868TIP3    H120568   1.548   0.337   2.843
 6868TIP3    H220569   1.458   0.346   2.964
 6869TIP3   OH220570   1.055   5.193   1.675
 6869TIP3    H120571   1.129   5.228   1.724
 6869TIP3    H220572   1.024   5.119   1.727
 6870TIP3   OH220573   3.829   0.616   0.168
 6870TIP3    H120574   3.790   0.631   0.254
 6870TIP3    H220575   3.903   0.558   0.185
 6871TIP3   OH220576   1.985   6.269   5.508
 6871TIP3    H120577   2.003   6.236   5.420
 6871TIP3    H220578   2.072   6.278   5.549
 6872TIP3   OH220579   0.339   1.897   5.845
 6872TIP3    H120580   0.302   1.929   5.762
 6872TIP3    H220581   0.337   1.802   5.837
 6873TIP3   OH220582   1.069   5.571   5.163
 6873TIP3    H120583   1.083   5.630   5.089
 6873TIP3    H220584   0.978   5.540   5.152
 6874TIP3   OH220585   4.297   5.389   3.335
 6874TIP3    H120586   4.391   5.392   3.319
 6874TIP3    H220587   4.289   5.389   3.430
 6875TIP3   OH220588   0.391   0.931   3.947
 6875TIP3    H120589   0.374   0.984   3.869
 6875TIP3    H220590   0.396   0.841   3.914
 6876TIP3   OH220591   4.439   3.293   4.002
 6876TIP3    H120592   4.405   3.234   4.069
 6876TIP3    H220593   4.436   3.242   3.921
 6877TIP3   OH220594   0.859   0.968   1.309
 6877TIP3    H120595   0.893   0.908   1.242
 6877TIP3    H220596   0.930   0.974   1.373
 6878TIP3   OH220597   1.978   0.654   1.877
 6878TIP3    H120598   2.008   0.565   1.895
 6878TIP3    H220599   2.003   0.671   1.787
 6879TIP3   OH220600   6.069   0.859   0.957
 6879TIP3    H120601   6.050   0.765   0.962
 6879TIP3    H220602   6.158   0.866   0.992
 6880TIP3   OH220603   4.802   0.024   2.250
 6880TIP3    H120604   4.808   0.023   2.346
 6880TIP3    H220605   4.882   0.068   2.221
 6881TIP3   OH220606   4.352   6.360   4.442
 6881TIP3    H120607   4.311   6.382   4.526
 6881TIP3    H220608   4.332   6.268   4.429
 6882TIP3   OH220609   1.941   4.113   2.595
 6882TIP3    H120610   1.995   4.170   2.541
 6882TIP3    H220611   1.934   4.031   2.545
 6883TIP3   OH220612   5.418   3.755   0.438
 6883TIP3    H120613   5.334   3.792   0.465
 6883TIP3    H220614   5.466   3.829   0.400
 6884TIP3   OH220615   5.096   3.859   5.108
 6884TIP3    H120616   5.171   3.915   5.126
 6884TIP3    H220617   5.056   3.896   5.030
 6885TIP3   OH220618   1.203   3.327   2.854
 6885TIP3    H120619   1.157   3.258   2.807
 6885TIP3    H220620   1.134   3.383   2.890
 6886TIP3   OH220621   6.614   4.399   0.154
 6886TIP3    H120622   6.672   4.353   0.094
 6886TIP3    H220623   6.640   4.367   0.241
 6887TIP3   OH220624   2.128   5.620   4.434
 6887TIP3    H120625   2.139   5.619   4.529
 6887TIP3    H220626   2.106   5.711   4.414
 6888TIP3   OH220627   6.238   6.297   2.883
 6888TIP3    H120628   6.258   6.388   2.861
 6888TIP3    H220629   6.143   6.290   2.874
 6889TIP3   OH220630   2.120   4.698   2.605
 6889TIP3    H120631   2.130   4.699   2.510
 6889TIP3    H220632   2.139   4.788   2.632
 6890TIP3   OH220633   2.493   1.408   2.003
 6890TIP3    H120634   2.492   1.503   1.992
 6890TIP3    H220635   2.546   1.376   1.930
 6891TIP3   OH220636   5.974   4.011   0.428
 6891TIP3    H120637   5.951   4.052   0.511
 6891TIP3    H220638   5.942   3.921   0.435
 6892TIP3   OH220639   3.516   2.502   4.562
 6892TIP3    H120640   3.442   2.462   4.609
 6892TIP3    H220641   3.479   2.581   4.524
 6893TIP3   OH220642   5.471   5.168   1.472
 6893TIP3    H120643   5.427   5.215   1.401
 6893TIP3    H220644   5.521   5.098   1.427
 6894TIP3   OH220645   1.610   3.431   0.408
 6894TIP3    H120646   1.686   3.392   0.364
 6894TIP3    H220647   1.564   3.356   0.446
 6895TIP3   OH220648   3.654   0.950   5.701
 6895TIP3    H120649   3.634   1.023   5.760
 6895TIP3    H220650   3.572   0.935   5.653
 6896TIP3   OH220651   3.791   0.760   5.084
 6896TIP3    H120652   3.886   0.756   5.077
 6896TIP3    H220653   3.774   0.772   5.177
 6897TIP3   OH220654   1.025   2.927   3.357
 6897TIP3    H120655   0.981   2.845   3.338
 6897TIP3    H220656   1.118   2.904   3.361
 6898TIP3   OH220657   2.565   6.358   2.021
 6898TIP3    H120658   2.533   6.421   2.085
 6898TIP3    H220659   2.547   6.273   2.061
 6899TIP3   OH220660   3.506   0.169   3.633
 6899TIP3    H120661   3.430   0.220   3.660
 6899TIP3    H220662   3.478   0.124   3.554
 6900TIP3   OH220663   5.848   6.568   3.202
 6900TIP3    H120664   5.795   6.535   3.275
 6900TIP3    H220665   5.842   6.663   3.210
 6901TIP3   OH220666   0.088   1.822   2.317
 6901TIP3    H120667   0.107   1.817   2.411
 6901TIP3    H220668   0.055   1.911   2.305
 6902TIP3   OH220669   5.065   3.628   4.940
 6902TIP3    H120670   5.073   3.705   4.997
 6902TIP3    H220671   5.019   3.660   4.863
 6903TIP3   OH220672   3.735   4.259   3.585
 6903TIP3    H120673   3.812   4.219   3.545
 6903TIP3    H220674   3.669   4.256   3.515
 6904TIP3   OH220675   4.162   2.395   5.832
 6904TIP3    H120676   4.254   2.392   5.807
 6904TIP3    H220677   4.150   2.321   5.890
 6905TIP3   OH220678   1.854   4.438   5.010
 6905TIP3    H120679   1.912   4.368   5.041
 6905TIP3    H220680   1.853   4.428   4.915
 6906TIP3   OH220681   1.523   0.894   1.445
 6906TIP3    H120682   1.513   0.986   1.472
 6906TIP3    H220683   1.504   0.895   1.351
 6907TIP3   OH220684   3.772   0.302   0.790
 6907TIP3    H120685   3.761   0.372   0.726
 6907TIP3    H220686   3.862   0.313   0.822
 6908TIP3   OH220687   0.729   0.523   4.156
 6908TIP3    H120688   0.742   0.492   4.067
 6908TIP3    H220689   0.641   0.492   4.180
 6909TIP3   OH220690   0.218   6.634   3.097
 6909TIP3    H120691   0.250   6.713   3.054
 6909TIP3    H220692   0.188   6.664   3.183
 6910TIP3   OH220693   2.655   0.005   4.097
 6910TIP3    H120694   2.637   0.099   4.091
 6910TIP3    H220695   2.576  -0.032   4.134
 6911TIP3   OH220696   5.020   6.635   4.358
 6911TIP3    H120697   5.073   6.614   4.282
 6911TIP3    H220698   5.072   6.698   4.408
 6912TIP3   OH220699   2.902   5.287   4.056
 6912TIP3    H120700   2.818   5.327   4.033
 6912TIP3    H220701   2.883   5.194   4.067
 6913TIP3   OH220702   5.730   4.559   5.533
 6913TIP3    H120703   5.824   4.551   5.517
 6913TIP3    H220704   5.691   4.484   5.488
 6914TIP3   OH220705   6.937   3.037   1.276
 6914TIP3    H120706   6.996   3.091   1.225
 6914TIP3    H220707   6.908   3.093   1.348
 6915TIP3   OH220708   0.458   0.662   1.192
 6915TIP3    H120709   0.374   0.661   1.147
 6915TIP3    H220710   0.515   0.608   1.138
 6916TIP3   OH220711   0.840   4.100   0.868
 6916TIP3    H120712   0.787   4.172   0.835
 6916TIP3    H220713   0.784   4.023   0.861
 6917TIP3   OH220714   6.848   4.651   2.320
 6917TIP3    H120715   6.828   4.565   2.284
 6917TIP3    H220716   6.937   4.642   2.356
 6918TIP3   OH220717   5.846   6.363   0.594
 6918TIP3    H120718   5.901   6.308   0.650
 6918TIP3    H220719   5.896   6.371   0.512
 6919TIP3   OH220720   2.685   6.402   0.535
 6919TIP3    H120721   2.721   6.342   0.469
 6919TIP3    H220722   2.743   6.477   0.534
 6920TIP3   OH220723   5.064   2.663   2.657
 6920TIP3    H120724   4.997   2.722   2.621
 6920TIP3    H220725   5.125   2.649   2.585
 6921TIP3   OH220726   5.397   4.718   1.099
 6921TIP3    H120727   5.415   4.810   1.079
 6921TIP3    H220728   5.431   4.706   1.188
 6922TIP3   OH220729   5.494   4.536   0.070
 6922TIP3    H120730   5.487   4.546   0.165
 6922TIP3    H220731   5.481   4.624   0.036
 6923TIP3   OH220732   1.084   3.264   4.653
 6923TIP3    H120733   1.102   3.345   4.701
 6923TIP3    H220734   0.991   3.270   4.630
 6924TIP3   OH220735   0.375   4.386   2.495
 6924TIP3    H120736   0.402   4.295   2.493
 6924TIP3    H220737   0.452   4.434   2.525
 6925TIP3   OH220738   4.185   2.816   5.258
 6925TIP3    H120739   4.229   2.739   5.295
 6925TIP3    H220740   4.257   2.871   5.225
 6926TIP3   OH220741   2.360   6.698   5.881
 6926TIP3    H120742   2.396   6.717   5.794
 6926TIP3    H220743   2.328   6.608   5.874
 6927TIP3   OH220744   0.406   6.301   4.049
 6927TIP3    H120745   0.390   6.208   4.028
 6927TIP3    H220746   0.332   6.347   4.008
 6928TIP3   OH220747   1.397   2.126   3.601
 6928TIP3    H120748   1.312   2.166   3.613
 6928TIP3    H220749   1.414   2.079   3.682
 6929TIP3   OH220750   2.760   6.646   1.126
 6929TIP3    H120751   2.737   6.632   1.218
 6929TIP3    H220752   2.677   6.674   1.086
 6930TIP3   OH220753   3.036   1.030   3.749
 6930TIP3    H120754   3.053   1.121   3.775
 6930TIP3    H220755   2.977   1.037   3.674
 6931TIP3   OH220756   2.466   6.079   1.799
 6931TIP3    H120757   2.485   6.079   1.892
 6931TIP3    H220758   2.506   5.999   1.765
 6932TIP3   OH220759   2.524   5.053   0.989
 6932TIP3    H120760   2.479   4.971   0.973
 6932TIP3    H220761   2.582   5.035   1.062
 6933TIP3   OH220762   7.166   3.065   1.928
 6933TIP3    H120763   7.256   3.036   1.946
 6933TIP3    H220764   7.157   3.058   1.833
 6934TIP3   OH220765   2.125   2.881   0.701
 6934TIP3    H120766   2.186   2.926   0.760
 6934TIP3    H220767   2.059   2.844   0.760
 6935TIP3   OH220768   4.850   1.849   3.822
 6935TIP3    H120769   4.917   1.908   3.856
 6935TIP3    H220770   4.865   1.766   3.867
 6936TIP3   OH220771   3.002   3.758   0.916
 6936TIP3    H120772   2.986   3.760   1.010
 6936TIP3    H220773   2.965   3.841   0.884
 6937TIP3   OH220774   5.889   1.629   1.537
 6937TIP3    H120775   5.908   1.595   1.450
 6937TIP3    H220776   5.943   1.708   1.544
 6938TIP3   OH220777   5.931   3.220   3.491
 6938TIP3    H120778   5.990   3.269   3.548
 6938TIP3    H220779   5.864   3.185   3.550
 6939TIP3   OH220780   0.086   4.313   0.497
 6939TIP3    H120781   0.056   4.379   0.435
 6939TIP3    H220782   0.006   4.264   0.519
 6940TIP3   OH220783   1.954   0.769   5.239
 6940TIP3    H120784   1.880   0.750   5.181
 6940TIP3    H220785   2.028   0.780   5.180
 6941TIP3   OH220786   1.437   6.684   3.499
 6941TIP3    H120787   1.440   6.656   3.407
 6941TIP3    H220788   1.405   6.775   3.495
 6942TIP3   OH220789   4.144   5.493   0.267
 6942TIP3    H120790   4.198   5.537   0.333
 6942TIP3    H220791   4.055   5.522   0.287
 6943TIP3   OH220792   5.200   6.674   5.285
 6943TIP3    H120793   5.186   6.690   5.191
 6943TIP3    H220794   5.221   6.581   5.290
 6944TIP3   OH220795   3.965   3.889   4.217
 6944TIP3    H120796   3.898   3.945   4.256
 6944TIP3    H220797   4.046   3.913   4.261
 6945TIP3   OH220798   5.477   0.705   2.224
 6945TIP3    H120799   5.475   0.772   2.293
 6945TIP3    H220800   5.442   0.749   2.147
 6946TIP3   OH220801   2.566   3.538   0.410
 6946TIP3    H120802   2.611   3.508   0.489
 6946TIP3    H220803   2.609   3.620   0.388
 6947TIP3   OH220804   1.312   2.669   4.302
 6947TIP3    H120805   1.329   2.587   4.254
 6947TIP3    H220806   1.224   2.657   4.337
 6948TIP3   OH220807   2.549   2.607   5.164
 6948TIP3    H120808   2.576   2.553   5.238
 6948TIP3    H220809   2.469   2.565   5.132
 6949TIP3   OH220810   3.299   6.258   5.479
 6949TIP3    H120811   3.318   6.349   5.459
 6949TIP3    H220812   3.215   6.240   5.436
 6950TIP3   OH220813   4.747   0.720   2.507
 6950TIP3    H120814   4.681   0.678   2.452
 6950TIP3    H220815   4.797   0.775   2.446
 6951TIP3   OH220816   4.756   1.876   4.569
 6951TIP3    H120817   4.710   1.928   4.635
 6951TIP3    H220818   4.728   1.786   4.586
 6952TIP3   OH220819   3.302   2.181   1.923
 6952TIP3    H120820   3.218   2.183   1.970
 6952TIP3    H220821   3.350   2.257   1.956
 6953TIP3   OH220822   3.571   0.032   0.525
 6953TIP3    H120823   3.609   0.001   0.607
 6953TIP3    H220824   3.642   0.079   0.482
 6954TIP3   OH220825   6.782   0.079   5.473
 6954TIP3    H120826   6.762   0.100   5.564
 6954TIP3    H220827   6.707   0.112   5.424
 6955TIP3   OH220828   6.186   5.852   4.318
 6955TIP3    H120829   6.241   5.921   4.282
 6955TIP3    H220830   6.104   5.896   4.341
 6956TIP3   OH220831   1.025   1.532   4.227
 6956TIP3    H120832   0.995   1.517   4.137
 6956TIP3    H220833   1.112   1.491   4.231
 6957TIP3   OH220834   7.003   3.641   5.164
 6957TIP3    H120835   7.089   3.675   5.191
 6957TIP3    H220836   6.954   3.633   5.245
 6958TIP3   OH220837   1.115   1.032   2.665
 6958TIP3    H120838   1.061   1.105   2.636
 6958TIP3    H220839   1.123   1.044   2.760
 6959TIP3   OH220840   4.872   6.569   3.157
 6959TIP3    H120841   4.883   6.497   3.095
 6959TIP3    H220842   4.779   6.569   3.178
 6960TIP3   OH220843   6.688   0.578   0.054
 6960TIP3    H120844   6.708   0.508   0.116
 6960TIP3    H220845   6.709   0.541  -0.032
 6961TIP3   OH220846   6.322   5.380   3.335
 6961TIP3    H120847   6.340   5.287   3.348
 6961TIP3    H220848   6.287   5.409   3.419
 6962TIP3   OH220849   0.573   4.841   3.621
 6962TIP3    H120850   0.516   4.790   3.679
 6962TIP3    H220851   0.641   4.876   3.679
 6963TIP3   OH220852   5.557   1.688   2.432
 6963TIP3    H120853   5.616   1.614   2.442
 6963TIP3    H220854   5.573   1.742   2.510
 6964TIP3   OH220855   6.295   4.581   4.147
 6964TIP3    H120856   6.269   4.502   4.099
 6964TIP3    H220857   6.216   4.607   4.195
 6965TIP3   OH220858   2.639   0.283   4.112
 6965TIP3    H120859   2.722   0.289   4.065
 6965TIP3    H220860   2.663   0.255   4.200
 6966TIP3   OH220861   0.103   3.557   5.054
 6966TIP3    H120862   0.184   3.534   5.008
 6966TIP3    H220863   0.116   3.647   5.084
 6967TIP3   OH220864   2.790   4.846   2.559
 6967TIP3    H120865   2.791   4.769   2.616
 6967TIP3    H220866   2.823   4.917   2.614
 6968TIP3   OH220867   1.015   4.541   5.321
 6968TIP3    H120868   1.026   4.488   5.400
 6968TIP3    H220869   0.974   4.481   5.259
 6969TIP3   OH220870   2.711   4.175   4.031
 6969TIP3    H120871   2.747   4.231   4.101
 6969TIP3    H220872   2.741   4.216   3.950
 6970TIP3   OH220873   3.171   0.667   1.045
 6970TIP3    H120874   3.124   0.750   1.034
 6970TIP3    H220875   3.110   0.600   1.013
 6971TIP3   OH220876   4.660   5.850   0.973
 6971TIP3    H120877   4.649   5.927   1.029
 6971TIP3    H220878   4.595   5.861   0.904
 6972TIP3   OH220879   5.227   1.868   2.753
 6972TIP3    H120880   5.243   1.827   2.838
 6972TIP3    H220881   5.285   1.944   2.751
 6973TIP3   OH220882   0.178   4.721   2.303
 6973TIP3    H120883   0.259   4.769   2.316
 6973TIP3    H220884   0.184   4.645   2.361
 6974TIP3   OH220885   6.613   2.857   0.464
 6974TIP3    H120886   6.520   2.848   0.445
 6974TIP3    H220887   6.653   2.779   0.426
 6975TIP3   OH220888   0.360   6.390   2.987
 6975TIP3    H120889   0.440   6.347   3.017
 6975TIP3    H220890   0.332   6.443   3.061
 6976TIP3   OH220891   1.876   3.828   1.926
 6976TIP3    H120892   1.929   3.872   1.861
 6976TIP3    H220893   1.883   3.735   1.904
 6977TIP3   OH220894   1.308   1.626   0.703
 6977TIP3    H120895   1.387   1.658   0.658
 6977TIP3    H220896   1.255   1.705   0.717
 6978TIP3   OH220897   0.222   0.124   1.622
 6978TIP3    H120898   0.241   0.218   1.631
 6978TIP3    H220899   0.174   0.117   1.540
 6979TIP3   OH220900   4.620   5.844   5.566
 6979TIP3    H120901   4.662   5.764   5.535
 6979TIP3    H220902   4.691   5.896   5.602
 6980TIP3   OH220903   2.503   4.279   1.484
 6980TIP3    H120904   2.528   4.291   1.576
 6980TIP3    H220905   2.557   4.341   1.436
 6981TIP3   OH220906   0.743   5.184   3.327
 6981TIP3    H120907   0.648   5.174   3.325
 6981TIP3    H220908   0.763   5.238   3.251
 6982TIP3   OH220909   0.910   3.939   2.667
 6982TIP3    H120910   0.910   4.033   2.649
 6982TIP3    H220911   0.818   3.919   2.686
 6983TIP3   OH220912   1.156   4.162   5.839
 6983TIP3    H120913   1.114   4.185   5.756
 6983TIP3    H220914   1.207   4.083   5.820
 6984TIP3   OH220915   2.800   3.213   5.422
 6984TIP3    H120916   2.820   3.177   5.508
 6984TIP3    H220917   2.754   3.295   5.440
 6985TIP3   OH220918   4.975   4.853   1.671
 6985TIP3    H120919   5.062   4.888   1.692
 6985TIP3    H220920   4.958   4.882   1.582
 6986TIP3   OH220921   7.189   4.419   3.851
 6986TIP3    H120922   7.264   4.478   3.856
 6986TIP3    H220923   7.115   4.476   3.830
 6987TIP3   OH220924   3.574   0.912   3.901
 6987TIP3    H120925   3.582   0.840   3.840
 6987TIP3    H220926   3.607   0.988   3.853
 6988TIP3   OH220927   0.558   6.089   0.481
 6988TIP3    H120928   0.494   6.159   0.470
 6988TIP3    H220929   0.619   6.100   0.407
 6989TIP3   OH220930   4.779   0.697   5.062
 6989TIP3    H120931   4.701   0.727   5.016
 6989TIP3    H220932   4.762   0.605   5.081
 6990TIP3   OH220933   1.720   3.536   2.509
 6990TIP3    H120934   1.793   3.484   2.541
 6990TIP3    H220935   1.690   3.586   2.585
 6991TIP3   OH220936   4.296   0.636   4.943
 6991TIP3    H120937   4.208   0.646   4.980
 6991TIP3    H220938   4.281   0.623   4.849
 6992TIP3   OH220939   6.725   2.270   3.000
 6992TIP3    H120940   6.791   2.328   2.961
 6992TIP3    H220941   6.705   2.207   2.932
 6993TIP3   OH220942   3.910   4.199   3.842
 6993TIP3    H120943   3.980   4.218   3.780
 6993TIP3    H220944   3.852   4.275   3.836
 6994TIP3   OH220945   3.744   1.844   5.596
 6994TIP3    H120946   3.764   1.870   5.506
 6994TIP3    H220947   3.685   1.913   5.628
 6995TIP3   OH220948   0.732   0.332   4.399
 6995TIP3    H120949   0.745   0.425   4.381
 6995TIP3    H220950   0.797   0.288   4.344
 6996TIP3   OH220951   4.988   6.307   3.662
 6996TIP3    H120952   4.971   6.266   3.747
 6996TIP3    H220953   4.983   6.401   3.679
 6997TIP3   OH220954   0.639   2.077   5.037
 6997TIP3    H120955   0.639   2.145   5.103
 6997TIP3    H220956   0.546   2.064   5.016
 6998TIP3   OH220957   4.449   5.962   5.884
 6998TIP3    H120958   4.469   5.911   5.962
 6998TIP3    H220959   4.534   5.993   5.853
 6999TIP3   OH220960   0.108   1.545   0.238
 6999TIP3    H120961   0.114   1.576   0.329
 6999TIP3    H220962   0.060   1.462   0.245
 7000TIP3   OH220963   5.641   0.785   4.533
 7000TIP3    H120964   5.643   0.852   4.601
 7000TIP3    H220965   5.719   0.731   4.549
 7001TIP3   OH220966   1.670   0.485   2.801
 7001TIP3    H120967   1.711   0.541   2.867
 7001TIP3    H220968   1.740   0.426   2.773
 7002TIP3   OH220969   1.086   4.372   1.072
 7002TIP3    H120970   1.086   4.344   1.163
 7002TIP3    H220971   1.075   4.291   1.022
 7003TIP3   OH220972   3.728   2.461   3.783
 7003TIP3    H120973   3.669   2.470   3.858
 7003TIP3    H220974   3.672   2.431   3.712
 7004TIP3   OH220975   1.207   5.670   2.027
 7004TIP3    H120976   1.174   5.669   1.937
 7004TIP3    H220977   1.179   5.586   2.063
 7005TIP3   OH220978   2.066   6.619   4.706
 7005TIP3    H120979   2.069   6.708   4.671
 7005TIP3    H220980   2.157   6.594   4.716
 7006TIP3   OH220981   4.667   0.530   4.148
 7006TIP3    H120982   4.747   0.575   4.121
 7006TIP3    H220983   4.647   0.567   4.234
 7007TIP3   OH220984   4.728   5.976   2.653
 7007TIP3    H120985   4.756   5.891   2.619
 7007TIP3    H220986   4.636   5.982   2.630
 7008TIP3   OH220987   4.631   1.487   4.444
 7008TIP3    H120988   4.622   1.395   4.470
 7008TIP3    H220989   4.557   1.502   4.385
 7009TIP3   OH220990   1.072   0.599   2.132
 7009TIP3    H120991   1.050   0.625   2.221
 7009TIP3    H220992   1.002   0.637   2.078
 7010TIP3   OH220993   0.154   2.657   2.834
 7010TIP3    H120994   0.137   2.748   2.809
 7010TIP3    H220995   0.223   2.629   2.774
 7011TIP3   OH220996   4.926   4.683   4.788
 7011TIP3    H120997   4.949   4.590   4.791
 7011TIP3    H220998   4.832   4.685   4.804
 7012TIP3   OH220999   4.360   0.884   5.706
 7012TIP3    H121000   4.455   0.884   5.710
 7012TIP3    H221001   4.333   0.813   5.763
 7013TIP3   OH221002   0.393   2.415   5.376
 7013TIP3    H121003   0.399   2.376   5.289
 7013TIP3    H221004   0.455   2.489   5.373
 7014TIP3   OH221005   5.943   2.034   3.399
 7014TIP3    H121006   6.027   2.015   3.441
 7014TIP3    H221007   5.908   1.948   3.378
 7015TIP3   OH221008   5.352   2.652   5.858
 7015TIP3    H121009   5.270   2.607   5.837
 7015TIP3    H221010   5.394   2.595   5.924
 7016TIP3   OH221011   3.535   6.294   2.605
 7016TIP3    H121012   3.606   6.334   2.555
 7016TIP3    H221013   3.579   6.253   2.681
 7017TIP3   OH221014   3.673   1.321   0.529
 7017TIP3    H121015   3.742   1.295   0.468
 7017TIP3    H221016   3.645   1.407   0.497
 7018TIP3   OH221017   5.479   1.113   5.520
 7018TIP3    H121018   5.463   1.033   5.470
 7018TIP3    H221019   5.479   1.183   5.454
 7019TIP3   OH221020   6.035   1.515   1.820
 7019TIP3    H121021   6.120   1.560   1.825
 7019TIP3    H221022   5.973   1.584   1.796
 7020TIP3   OH221023   0.676   6.645   5.032
 7020TIP3    H121024   0.680   6.735   5.000
 7020TIP3    H221025   0.755   6.634   5.085
 7021TIP3   OH221026   3.413   1.510   1.721
 7021TIP3    H121027   3.442   1.590   1.678
 7021TIP3    H221028   3.363   1.542   1.797
 7022TIP3   OH221029   3.625   5.103   3.196
 7022TIP3    H121030   3.666   5.127   3.113
 7022TIP3    H221031   3.559   5.038   3.172
 7023TIP3   OH221032   6.785   3.307   5.810
 7023TIP3    H121033   6.749   3.395   5.795
 7023TIP3    H221034   6.853   3.298   5.744
 7024TIP3   OH221035   5.614   1.095   2.114
 7024TIP3    H121036   5.566   1.091   2.196
 7024TIP3    H221037   5.573   1.167   2.066
 7025TIP3   OH221038   4.556   1.587   2.637
 7025TIP3    H121039   4.548   1.502   2.595
 7025TIP3    H221040   4.607   1.570   2.716
 7026TIP3   OH221041   3.428   4.094   2.224
 7026TIP3    H121042   3.458   4.015   2.179
 7026TIP3    H221043   3.340   4.073   2.255
 7027TIP3   OH221044   4.866   0.428   3.572
 7027TIP3    H121045   4.872   0.520   3.598
 7027TIP3    H221046   4.795   0.392   3.625
 7028TIP3   OH221047   2.677   0.331   3.790
 7028TIP3    H121048   2.743   0.366   3.849
 7028TIP3    H221049   2.712   0.247   3.761
 7029TIP3   OH221050   2.127   3.628   0.986
 7029TIP3    H121051   2.113   3.558   1.050
 7029TIP3    H221052   2.167   3.699   1.037
 7030TIP3   OH221053   4.471   0.065   5.596
 7030TIP3    H121054   4.423  -0.016   5.616
 7030TIP3    H221055   4.505   0.052   5.507
 7031TIP3   OH221056   2.169   6.046   2.170
 7031TIP3    H121057   2.191   6.116   2.232
 7031TIP3    H221058   2.241   5.983   2.179
 7032TIP3   OH221059   4.348   3.604   1.601
 7032TIP3    H121060   4.370   3.653   1.522
 7032TIP3    H221061   4.269   3.648   1.635
 7033TIP3   OH221062   1.843   2.605   1.553
 7033TIP3    H121063   1.767   2.569   1.599
 7033TIP3    H221064   1.918   2.578   1.606
 7034TIP3   OH221065   5.885   0.728   2.483
 7034TIP3    H121066   5.879   0.637   2.454
 7034TIP3    H221067   5.966   0.732   2.534
 7035TIP3   OH221068   6.638   5.684   5.622
 7035TIP3    H121069   6.683   5.719   5.545
 7035TIP3    H221070   6.584   5.757   5.653
 7036TIP3   OH221071   4.454   0.315   4.200
 7036TIP3    H121072   4.547   0.332   4.211
 7036TIP3    H221073   4.411   0.374   4.262
 7037TIP3   OH221074   0.457   2.451   5.103
 7037TIP3    H121075   0.525   2.511   5.134
 7037TIP3    H221076   0.378   2.504   5.102
 7038TIP3   OH221077   3.769   5.085   4.812
 7038TIP3    H121078   3.810   5.002   4.787
 7038TIP3    H221079   3.829   5.152   4.780
 7039TIP3   OH221080   5.084   0.458   1.463
 7039TIP3    H121081   5.178   0.455   1.447
 7039TIP3    H221082   5.074   0.423   1.552
 7040TIP3   OH221083   4.758   5.842   4.236
 7040TIP3    H121084   4.835   5.800   4.198
 7040TIP3    H221085   4.696   5.850   4.164
 7041TIP3   OH221086   4.079   6.475   2.367
 7041TIP3    H121087   4.063   6.423   2.445
 7041TIP3    H221088   4.153   6.531   2.391
 7042TIP3   OH221089   0.726   1.079   3.354
 7042TIP3    H121090   0.801   1.111   3.403
 7042TIP3    H221091   0.702   0.997   3.398
 7043TIP3   OH221092   4.778   1.458   4.882
 7043TIP3    H121093   4.832   1.388   4.847
 7043TIP3    H221094   4.702   1.413   4.920
 7044TIP3   OH221095   5.674   5.865   4.194
 7044TIP3    H121096   5.712   5.952   4.203
 7044TIP3    H221097   5.579   5.881   4.188
 7045TIP3   OH221098   4.955   1.946   2.726
 7045TIP3    H121099   5.049   1.927   2.727
 7045TIP3    H221100   4.949   2.039   2.747
 7046TIP3   OH221101   0.326   3.582   0.175
 7046TIP3    H121102   0.337   3.569   0.081
 7046TIP3    H221103   0.339   3.676   0.188
 7047TIP3   OH221104   6.595   4.418   5.576
 7047TIP3    H121105   6.629   4.400   5.488
 7047TIP3    H221106   6.657   4.375   5.635
 7048TIP3   OH221107   0.390   2.243   2.516
 7048TIP3    H121108   0.455   2.184   2.553
 7048TIP3    H221109   0.382   2.216   2.424
 7049TIP3   OH221110   0.345   3.551   3.149
 7049TIP3    H121111   0.392   3.478   3.108
 7049TIP3    H221112   0.412   3.598   3.198
 7050TIP3   OH221113   0.362   4.790   0.246
 7050TIP3    H121114   0.327   4.732   0.178
 7050TIP3    H221115   0.386   4.870   0.200
 7051TIP3   OH221116   5.180  -0.034   3.993
 7051TIP3    H121117   5.139  -0.041   3.906
 7051TIP3    H221118   5.148   0.049   4.028
 7052TIP3   OH221119   6.993   1.187   3.750
 7052TIP3    H121120   7.022   1.110   3.700
 7052TIP3    H221121   6.964   1.248   3.683
 7053TIP3   OH221122   6.394   0.367   2.990
 7053TIP3    H121123   6.452   0.375   3.066
 7053TIP3    H221124   6.306   0.362   3.027
 7054TIP3   OH221125   5.773   3.116   1.312
 7054TIP3    H121126   5.704   3.069   1.265
 7054TIP3    H221127   5.788   3.195   1.260
 7055TIP3   OH221128   0.857   6.695   1.856
 7055TIP3    H121129   0.797   6.680   1.784
 7055TIP3    H221130   0.905   6.775   1.832
 7056TIP3   OH221131   6.419   5.135   4.015
 7056TIP3    H121132   6.387   5.219   4.050
 7056TIP3    H221133   6.428   5.079   4.092
 7057TIP3   OH221134   4.244   4.054   1.582
 7057TIP3    H121135   4.287   4.018   1.660
 7057TIP3    H221136   4.180   4.116   1.617
 7058TIP3   OH221137   5.157   1.350   2.313
 7058TIP3    H121138   5.228   1.287   2.326
 7058TIP3    H221139   5.197   1.435   2.329
 7059TIP3   OH221140   0.073   1.389   4.564
 7059TIP3    H121141   0.070   1.438   4.647
 7059TIP3    H221142  -0.004   1.418   4.517
 7060TIP3   OH221143   3.255   5.427   1.401
 7060TIP3    H121144   3.194   5.357   1.423
 7060TIP3    H221145   3.261   5.480   1.481
 7061TIP3   OH221146   0.602   3.047   1.491
 7061TIP3    H121147   0.576   3.033   1.400
 7061TIP3    H221148   0.575   3.137   1.510
 7062TIP3   OH221149   3.215   6.422   1.071
 7062TIP3    H121150   3.125   6.439   1.097
 7062TIP3    H221151   3.207   6.363   0.996
 7063TIP3   OH221152   5.920   2.631   2.898
 7063TIP3    H121153   5.997   2.596   2.943
 7063TIP3    H221154   5.848   2.618   2.960
 7064TIP3   OH221155   5.508   5.362   0.657
 7064TIP3    H121156   5.508   5.319   0.571
 7064TIP3    H221157   5.594   5.339   0.694
 7065TIP3   OH221158   3.817   4.603   0.623
 7065TIP3    H121159   3.825   4.566   0.535
 7065TIP3    H221160   3.748   4.552   0.664
 7066TIP3   OH221161   2.729   1.729   0.041
 7066TIP3    H121162   2.709   1.759   0.130
 7066TIP3    H221163   2.825   1.731   0.036
 7067TIP3   OH221164   3.447   4.501   5.836
 7067TIP3    H121165   3.410   4.575   5.884
 7067TIP3    H221166   3.461   4.433   5.902
 7068TIP3   OH221167   6.747   2.142   2.424
 7068TIP3    H121168   6.751   2.233   2.451
 7068TIP3    H221169   6.806   2.096   2.484
 7069TIP3   OH221170   3.190   6.005   3.469
 7069TIP3    H121171   3.280   6.016   3.437
 7069TIP3    H221172   3.176   5.910   3.471
 7070TIP3   OH221173   4.328   2.344   2.590
 7070TIP3    H121174   4.271   2.271   2.611
 7070TIP3    H221175   4.415   2.316   2.620
 7071TIP3   OH221176   5.299   2.271   3.353
 7071TIP3    H121177   5.216   2.311   3.379
 7071TIP3    H221178   5.326   2.320   3.276
 7072TIP3   OH221179   2.375   3.315   0.565
 7072TIP3    H121180   2.294   3.302   0.516
 7072TIP3    H221181   2.377   3.409   0.583
 7073TIP3   OH221182   1.642   4.559   1.094
 7073TIP3    H121183   1.573   4.543   1.157
 7073TIP3    H221184   1.720   4.519   1.133
 7074TIP3   OH221185   4.920   6.620   5.763
 7074TIP3    H121186   4.977   6.578   5.827
 7074TIP3    H221187   4.882   6.548   5.713
 7075TIP3   OH221188   2.207   2.659   2.377
 7075TIP3    H121189   2.118   2.695   2.372
 7075TIP3    H221190   2.260   2.721   2.327
 7076TIP3   OH221191   4.763   1.801   4.240
 7076TIP3    H121192   4.852   1.816   4.206
 7076TIP3    H221193   4.772   1.814   4.335
 7077TIP3   OH221194   3.857   4.680   4.955
 7077TIP3    H121195   3.947   4.651   4.945
 7077TIP3    H221196   3.823   4.629   5.029
 7078TIP3   OH221197   1.867   4.481   1.711
 7078TIP3    H121198   1.915   4.443   1.636
 7078TIP3    H221199   1.889   4.574   1.709
 7079TIP3   OH221200   7.076   4.941   3.993
 7079TIP3    H121201   7.147   4.991   4.033
 7079TIP3    H221202   7.099   4.850   4.007
 7080TIP3   OH221203   3.587   1.259   3.399
 7080TIP3    H121204   3.635   1.189   3.443
 7080TIP3    H221205   3.574   1.326   3.466
 7081TIP3   OH221206   4.824   0.469   0.579
 7081TIP3    H121207   4.804   0.520   0.500
 7081TIP3    H221208   4.746   0.479   0.633
 7082TIP3   OH221209   3.706   2.140   1.697
 7082TIP3    H121210   3.716   2.091   1.615
 7082TIP3    H221211   3.620   2.115   1.730
 7083TIP3   OH221212   0.121   2.518   4.080
 7083TIP3    H121213   0.122   2.441   4.023
 7083TIP3    H221214   0.054   2.575   4.042
 7084TIP3   OH221215   6.948   6.709   4.311
 7084TIP3    H121216   6.912   6.756   4.385
 7084TIP3    H221217   6.988   6.631   4.349
 7085TIP3   OH221218   5.297   4.723   2.117
 7085TIP3    H121219   5.242   4.800   2.132
 7085TIP3    H221220   5.261   4.656   2.176
 7086TIP3   OH221221   1.798   1.822   4.266
 7086TIP3    H121222   1.765   1.849   4.181
 7086TIP3    H221223   1.893   1.811   4.253
 7087TIP3   OH221224   0.271   4.087   3.770
 7087TIP3    H121225   0.233   4.127   3.691
 7087TIP3    H221226   0.350   4.139   3.787
 7088TIP3   OH221227   2.671   1.843   3.727
 7088TIP3    H121228   2.608   1.783   3.767
 7088TIP3    H221229   2.756   1.814   3.760
 7089TIP3   OH221230   5.684   4.004   5.260
 7089TIP3    H121231   5.625   4.067   5.219
 7089TIP3    H221232   5.745   3.979   5.191
 7090TIP3   OH221233   1.629   4.593   1.933
 7090TIP3    H121234   1.549   4.572   1.982
 7090TIP3    H221235   1.635   4.525   1.867
 7091TIP3   OH221236   5.028   3.732   1.005
 7091TIP3    H121237   4.988   3.667   0.946
 7091TIP3    H221238   4.979   3.813   0.988
 7092TIP3   OH221239   2.235   0.121   1.318
 7092TIP3    H121240   2.267   0.086   1.235
 7092TIP3    H221241   2.300   0.095   1.383
 7093TIP3   OH221242   1.388   3.000   1.122
 7093TIP3    H121243   1.460   3.027   1.180
 7093TIP3    H221244   1.417   2.916   1.086
 7094TIP3   OH221245   6.606   2.361   2.111
 7094TIP3    H121246   6.650   2.340   2.194
 7094TIP3    H221247   6.676   2.368   2.047
 7095TIP3   OH221248   4.171   0.472   1.960
 7095TIP3    H121249   4.209   0.490   2.046
 7095TIP3    H221250   4.244   0.485   1.899
 7096TIP3   OH221251   7.113   2.565   2.664
 7096TIP3    H121252   7.203   2.550   2.692
 7096TIP3    H221253   7.076   2.623   2.730
 7097TIP3   OH221254   6.760   2.916   0.682
 7097TIP3    H121255   6.746   2.845   0.745
 7097TIP3    H221256   6.713   2.887   0.603
 7098TIP3   OH221257   2.186   3.826   3.917
 7098TIP3    H121258   2.262   3.883   3.907
 7098TIP3    H221259   2.196   3.759   3.850
 7099TIP3   OH221260   0.720   6.246   3.458
 7099TIP3    H121261   0.707   6.265   3.551
 7099TIP3    H221262   0.733   6.331   3.417
 7100TIP3   OH221263   2.541   5.994   0.602
 7100TIP3    H121264   2.532   5.917   0.545
 7100TIP3    H221265   2.634   6.015   0.599
 7101TIP3   OH221266   4.828   2.289   0.552
 7101TIP3    H121267   4.758   2.225   0.540
 7101TIP3    H221268   4.849   2.319   0.463
 7102TIP3   OH221269   3.122   6.041   0.448
 7102TIP3    H121270   3.190   5.985   0.487
 7102TIP3    H221271   3.072   6.074   0.523
 7103TIP3   OH221272   1.015   6.535   1.028
 7103TIP3    H121273   1.015   6.552   0.934
 7103TIP3    H221274   0.923   6.546   1.054
 7104TIP3   OH221275   6.301   5.049   2.994
 7104TIP3    H121276   6.219   5.096   3.011
 7104TIP3    H221277   6.343   5.044   3.080
 7105TIP3   OH221278   1.351   1.476   0.939
 7105TIP3    H121279   1.434   1.432   0.920
 7105TIP3    H221280   1.341   1.540   0.869
 7106TIP3   OH221281   1.162   1.414   1.699
 7106TIP3    H121282   1.137   1.446   1.786
 7106TIP3    H221283   1.194   1.492   1.653
 7107TIP3   OH221284   1.165   3.367   3.174
 7107TIP3    H121285   1.228   3.435   3.199
 7107TIP3    H221286   1.096   3.415   3.128
 7108TIP3   OH221287   0.947   0.668   3.416
 7108TIP3    H121288   0.873   0.701   3.468
 7108TIP3    H221289   0.914   0.665   3.326
 7109TIP3   OH221290   6.128   1.631   1.323
 7109TIP3    H121291   6.216   1.657   1.298
 7109TIP3    H221292   6.074   1.708   1.307
 7110TIP3   OH221293   4.552   4.974   0.922
 7110TIP3    H121294   4.588   5.014   0.843
 7110TIP3    H221295   4.486   5.037   0.953
 7111TIP3   OH221296   1.589   4.246   2.056
 7111TIP3    H121297   1.526   4.317   2.072
 7111TIP3    H221298   1.653   4.255   2.126
 7112TIP3   OH221299   5.708   5.014   1.912
 7112TIP3    H121300   5.617   4.999   1.936
 7112TIP3    H221301   5.703   5.067   1.832
 7113TIP3   OH221302   0.625   1.414   0.666
 7113TIP3    H121303   0.693   1.439   0.728
 7113TIP3    H221304   0.654   1.450   0.582
 7114TIP3   OH221305   1.111   3.888   2.068
 7114TIP3    H121306   1.073   3.851   1.989
 7114TIP3    H221307   1.096   3.822   2.136
 7115TIP3   OH221308   6.313   6.463   1.990
 7115TIP3    H121309   6.254   6.443   1.917
 7115TIP3    H221310   6.305   6.558   2.001
 7116TIP3   OH221311   3.949   3.951   0.725
 7116TIP3    H121312   3.855   3.938   0.741
 7116TIP3    H221313   3.952   3.998   0.642
 7117TIP3   OH221314   5.589   3.580   2.952
 7117TIP3    H121315   5.632   3.496   2.970
 7117TIP3    H221316   5.607   3.634   3.029
 7118TIP3   OH221317   4.518   3.552   2.968
 7118TIP3    H121318   4.531   3.603   2.888
 7118TIP3    H221319   4.576   3.593   3.032
 7119TIP3   OH221320   1.475   2.789   1.775
 7119TIP3    H121321   1.463   2.830   1.689
 7119TIP3    H221322   1.418   2.840   1.834
 7120TIP3   OH221323   5.098   3.908   0.772
 7120TIP3    H121324   5.010   3.948   0.771
 7120TIP3    H221325   5.137   3.941   0.853
 7121TIP3   OH221326   5.422   0.373   5.819
 7121TIP3    H121327   5.431   0.453   5.869
 7121TIP3    H221328   5.511   0.336   5.815
 7122TIP3   OH221329   5.351   5.756   2.904
 7122TIP3    H121330   5.425   5.817   2.899
 7122TIP3    H221331   5.292   5.794   2.969
 7123TIP3   OH221332   3.225   1.833   3.049
 7123TIP3    H121333   3.179   1.792   2.976
 7123TIP3    H221334   3.308   1.786   3.055
 7124TIP3   OH221335   1.322   6.339   5.119
 7124TIP3    H121336   1.408   6.381   5.130
 7124TIP3    H221337   1.335   6.277   5.047
 7125TIP3   OH221338   0.138   0.402   5.365
 7125TIP3    H121339   0.227   0.428   5.388
 7125TIP3    H221340   0.114   0.336   5.431
 7126TIP3   OH221341   0.560   6.517   2.642
 7126TIP3    H121342   0.465   6.515   2.656
 7126TIP3    H221343   0.570   6.529   2.548
 7127TIP3   OH221344   0.057   4.947   0.275
 7127TIP3    H121345  -0.036   4.970   0.266
 7127TIP3    H221346   0.059   4.852   0.265
 7128TIP3   OH221347   3.393   5.774   3.491
 7128TIP3    H121348   3.337   5.724   3.432
 7128TIP3    H221349   3.480   5.734   3.482
 7129TIP3   OH221350   2.748   1.738   1.355
 7129TIP3    H121351   2.820   1.675   1.354
 7129TIP3    H221352   2.718   1.737   1.446
 7130TIP3   OH221353   1.631   1.373   3.647
 7130TIP3    H121354   1.549   1.422   3.653
 7130TIP3    H221355   1.641   1.333   3.734
 7131TIP3   OH221356   4.441   2.768   3.586
 7131TIP3    H121357   4.492   2.836   3.541
 7131TIP3    H221358   4.367   2.815   3.624
 7132TIP3   OH221359   1.251   4.326   2.598
 7132TIP3    H121360   1.259   4.299   2.506
 7132TIP3    H221361   1.275   4.419   2.598
 7133TIP3   OH221362   0.179   2.569   5.593
 7133TIP3    H121363   0.264   2.574   5.549
 7133TIP3    H221364   0.123   2.629   5.544
 7134TIP3   OH221365   6.299   1.635   4.806
 7134TIP3    H121366   6.370   1.624   4.870
 7134TIP3    H221367   6.263   1.547   4.795
 7135TIP3   OH221368   3.269   2.700   3.762
 7135TIP3    H121369   3.318   2.624   3.730
 7135TIP3    H221370   3.204   2.664   3.822
 7136TIP3   OH221371   4.917   6.800   4.990
 7136TIP3    H121372   4.839   6.773   4.942
 7136TIP3    H221373   4.948   6.720   5.033
 7137TIP3   OH221374   2.327   2.988   4.036
 7137TIP3    H121375   2.389   3.054   4.003
 7137TIP3    H221376   2.382   2.922   4.077
 7138TIP3   OH221377   1.880   1.580   2.125
 7138TIP3    H121378   1.884   1.539   2.212
 7138TIP3    H221379   1.918   1.667   2.138
 7139TIP3   OH221380   7.147   1.734   5.004
 7139TIP3    H121381   7.057   1.747   5.033
 7139TIP3    H221382   7.156   1.640   4.993
 7140TIP3   OH221383   2.716   0.428   2.629
 7140TIP3    H121384   2.753   0.408   2.543
 7140TIP3    H221385   2.790   0.465   2.678
 7141TIP3   OH221386   0.475   3.848   4.179
 7141TIP3    H121387   0.509   3.775   4.230
 7141TIP3    H221388   0.381   3.848   4.195
 7142TIP3   OH221389   4.039   5.757   4.760
 7142TIP3    H121390   4.069   5.813   4.831
 7142TIP3    H221391   3.944   5.754   4.769
 7143TIP3   OH221392   6.422   4.546   3.655
 7143TIP3    H121393   6.400   4.609   3.724
 7143TIP3    H221394   6.457   4.599   3.584
 7144TIP3   OH221395   0.707   0.134   3.036
 7144TIP3    H121396   0.699   0.119   3.130
 7144TIP3    H221397   0.637   0.197   3.016
 7145TIP3   OH221398   2.066   6.592   0.742
 7145TIP3    H121399   2.148   6.597   0.692
 7145TIP3    H221400   2.012   6.662   0.706
 7146TIP3   OH221401   5.342   1.431   3.839
 7146TIP3    H121402   5.380   1.519   3.846
 7146TIP3    H221403   5.331   1.417   3.745
 7147TIP3   OH221404   6.625   1.759   3.767
 7147TIP3    H121405   6.683   1.777   3.841
 7147TIP3    H221406   6.567   1.834   3.763
 7148TIP3   OH221407   6.796   4.410   2.226
 7148TIP3    H121408   6.728   4.434   2.163
 7148TIP3    H221409   6.771   4.323   2.257
 7149TIP3   OH221410   2.579   0.190   0.101
 7149TIP3    H121411   2.590   0.141   0.183
 7149TIP3    H221412   2.657   0.245   0.096
 7150TIP3   OH221413   3.933   5.013   3.842
 7150TIP3    H121414   3.928   4.936   3.899
 7150TIP3    H221415   3.916   4.979   3.755
 7151TIP3   OH221416   3.113   0.340   2.558
 7151TIP3    H121417   3.078   0.252   2.553
 7151TIP3    H221418   3.208   0.329   2.548
 7152TIP3   OH221419   1.378   2.950   0.777
 7152TIP3    H121420   1.377   2.859   0.748
 7152TIP3    H221421   1.451   2.955   0.839
 7153TIP3   OH221422   4.908   0.104   0.777
 7153TIP3    H121423   4.948   0.112   0.690
 7153TIP3    H221424   4.828   0.156   0.771
 7154TIP3   OH221425   5.794   1.995   2.479
 7154TIP3    H121426   5.867   1.981   2.419
 7154TIP3    H221427   5.828   2.053   2.546
 7155TIP3   OH221428   5.959   1.095   0.864
 7155TIP3    H121429   5.994   1.009   0.887
 7155TIP3    H221430   5.866   1.081   0.848
 7156TIP3   OH221431   0.802   2.345   5.449
 7156TIP3    H121432   0.859   2.316   5.520
 7156TIP3    H221433   0.767   2.429   5.478
 7157TIP3   OH221434   0.320   2.806   0.490
 7157TIP3    H121435   0.264   2.769   0.558
 7157TIP3    H221436   0.320   2.900   0.508
 7158TIP3   OH221437   4.137   4.559   0.079
 7158TIP3    H121438   4.198   4.551   0.005
 7158TIP3    H221439   4.065   4.501   0.057
 7159TIP3   OH221440   2.669   0.700   2.467
 7159TIP3    H121441   2.592   0.646   2.488
 7159TIP3    H221442   2.738   0.637   2.449
 7160TIP3   OH221443   6.435   2.699   2.303
 7160TIP3    H121444   6.384   2.780   2.296
 7160TIP3    H221445   6.449   2.672   2.212
 7161TIP3   OH221446   3.564   4.446   2.485
 7161TIP3    H121447   3.536   4.377   2.425
 7161TIP3    H221448   3.659   4.453   2.471
 7162TIP3   OH221449   4.781   6.332   0.293
 7162TIP3    H121450   4.747   6.407   0.244
 7162TIP3    H221451   4.789   6.262   0.228
 7163TIP3   OH221452   0.228   1.020   4.944
 7163TIP3    H121453   0.145   0.978   4.966
 7163TIP3    H221454   0.220   1.042   4.852
 7164TIP3   OH221455   5.517   0.168   4.360
 7164TIP3    H121456   5.573   0.101   4.320
 7164TIP3    H221457   5.577   0.221   4.413
 7165TIP3   OH221458   4.879   5.236   3.828
 7165TIP3    H121459   4.794   5.194   3.839
 7165TIP3    H221460   4.891   5.287   3.908
 7166TIP3   OH221461   3.416   6.022   1.061
 7166TIP3    H121462   3.497   5.987   1.099
 7166TIP3    H221463   3.424   6.116   1.073
 7167TIP3   OH221464   5.987   4.554   1.220
 7167TIP3    H121465   5.942   4.562   1.136
 7167TIP3    H221466   5.962   4.467   1.253
 7168TIP3   OH221467   3.381   4.589   0.232
 7168TIP3    H121468   3.475   4.608   0.228
 7168TIP3    H221469   3.356   4.570   0.142
 7169TIP3   OH221470   6.222   1.740   4.074
 7169TIP3    H121471   6.283   1.687   4.023
 7169TIP3    H221472   6.274   1.813   4.107
 7170TIP3   OH221473   1.123   1.687   2.331
 7170TIP3    H121474   1.087   1.756   2.386
 7170TIP3    H221475   1.186   1.731   2.274
 7171TIP3   OH221476   1.220   1.779   1.899
 7171TIP3    H121477   1.240   1.790   1.992
 7171TIP3    H221478   1.152   1.844   1.881
 7172TIP3   OH221479   6.432   3.374   2.795
 7172TIP3    H121480   6.515   3.388   2.750
 7172TIP3    H221481   6.368   3.423   2.744
 7173TIP3   OH221482   3.701   6.100   5.299
 7173TIP3    H121483   3.673   6.191   5.286
 7173TIP3    H221484   3.796   6.102   5.285
 7174TIP3   OH221485   5.211   4.271   4.094
 7174TIP3    H121486   5.225   4.356   4.136
 7174TIP3    H221487   5.117   4.265   4.082
 7175TIP3   OH221488   6.202   1.383   4.709
 7175TIP3    H121489   6.124   1.400   4.656
 7175TIP3    H221490   6.261   1.334   4.650
 7176TIP3   OH221491   1.201   4.279   3.106
 7176TIP3    H121492   1.269   4.259   3.170
 7176TIP3    H221493   1.218   4.370   3.080
 7177TIP3   OH221494   6.286   0.660   4.670
 7177TIP3    H121495   6.304   0.669   4.764
 7177TIP3    H221496   6.312   0.570   4.650
 7178TIP3   OH221497   1.764   6.494   1.127
 7178TIP3    H121498   1.782   6.401   1.137
 7178TIP3    H221499   1.824   6.523   1.058
 7179TIP3   OH221500   5.455   5.944   2.470
 7179TIP3    H121501   5.513   5.922   2.542
 7179TIP3    H221502   5.427   5.860   2.434
 7180TIP3   OH221503   2.097   3.708   2.116
 7180TIP3    H121504   2.106   3.633   2.057
 7180TIP3    H221505   2.024   3.685   2.173
 7181TIP3   OH221506   2.359   0.260   4.126
 7181TIP3    H121507   2.358   0.277   4.031
 7181TIP3    H221508   2.450   0.273   4.152
 7182TIP3   OH221509   3.596   5.861   2.900
 7182TIP3    H121510   3.673   5.911   2.924
 7182TIP3    H221511   3.544   5.856   2.981
 7183TIP3   OH221512   0.931   2.455   1.533
 7183TIP3    H121513   1.008   2.485   1.485
 7183TIP3    H221514   0.858   2.469   1.472
 7184TIP3   OH221515   6.104   6.541   0.061
 7184TIP3    H121516   6.145   6.626   0.075
 7184TIP3    H221517   6.032   6.539   0.124
 7185TIP3   OH221518   5.867   6.172   4.515
 7185TIP3    H121519   5.809   6.176   4.439
 7185TIP3    H221520   5.922   6.250   4.507
 7186TIP3   OH221521   5.096   0.467   4.452
 7186TIP3    H121522   5.028   0.401   4.436
 7186TIP3    H221523   5.161   0.451   4.384
 7187TIP3   OH221524   3.535   4.855   4.438
 7187TIP3    H121525   3.518   4.837   4.531
 7187TIP3    H221526   3.488   4.936   4.420
 7188TIP3   OH221527   7.168   3.924   4.100
 7188TIP3    H121528   7.154   4.017   4.081
 7188TIP3    H221529   7.247   3.902   4.051
 7189TIP3   OH221530   4.761   4.061   3.884
 7189TIP3    H121531   4.779   4.126   3.952
 7189TIP3    H221532   4.714   3.991   3.929
 7190TIP3   OH221533   4.686   3.795   1.041
 7190TIP3    H121534   4.678   3.705   1.072
 7190TIP3    H221535   4.672   3.790   0.947
 7191TIP3   OH221536   3.686   3.032   5.092
 7191TIP3    H121537   3.604   3.082   5.101
 7191TIP3    H221538   3.666   2.965   5.027
 7192TIP3   OH221539   1.090   1.760   1.271
 7192TIP3    H121540   1.020   1.717   1.319
 7192TIP3    H221541   1.067   1.748   1.179
 7193TIP3   OH221542   1.592   5.051   1.204
 7193TIP3    H121543   1.517   5.032   1.148
 7193TIP3    H221544   1.658   4.986   1.179
 7194TIP3   OH221545   7.108   3.935   5.052
 7194TIP3    H121546   7.104   3.947   5.147
 7194TIP3    H221547   7.047   4.000   5.017
 7195TIP3   OH221548   1.843   4.615   4.538
 7195TIP3    H121549   1.783   4.595   4.467
 7195TIP3    H221550   1.812   4.561   4.611
 7196TIP3   OH221551   0.929   0.231   5.437
 7196TIP3    H121552   0.995   0.164   5.420
 7196TIP3    H221553   0.861   0.185   5.486
 7197TIP3   OH221554   6.927   6.738   1.878
 7197TIP3    H121555   6.962   6.738   1.789
 7197TIP3    H221556   6.870   6.661   1.882
 7198TIP3   OH221557   1.882   1.815   4.811
 7198TIP3    H121558   1.944   1.743   4.794
 7198TIP3    H221559   1.863   1.808   4.905
 7199TIP3   OH221560   5.270   2.260   5.166
 7199TIP3    H121561   5.204   2.327   5.184
 7199TIP3    H221562   5.313   2.290   5.085
 7200TIP3   OH221563   5.977   6.442   0.284
 7200TIP3    H121564   6.049   6.400   0.330
 7200TIP3    H221565   5.946   6.509   0.345
 7201TIP3   OH221566   5.210   1.745   3.671
 7201TIP3    H121567   5.297   1.708   3.658
 7201TIP3    H221568   5.155   1.700   3.607
 7202TIP3   OH221569   1.957   0.493   0.244
 7202TIP3    H121570   2.031   0.447   0.204
 7202TIP3    H221571   1.953   0.577   0.197
 7203TIP3   OH221572   5.188   6.401   5.653
 7203TIP3    H121573   5.209   6.493   5.664
 7203TIP3    H221574   5.178   6.389   5.558
 7204TIP3   OH221575   2.367   5.335   3.835
 7204TIP3    H121576   2.307   5.373   3.900
 7204TIP3    H221577   2.311   5.277   3.782
 7205TIP3   OH221578   1.396   6.161   3.493
 7205TIP3    H121579   1.483   6.147   3.458
 7205TIP3    H221580   1.352   6.217   3.430
 7206TIP3   OH221581   6.571   3.046   5.371
 7206TIP3    H121582   6.640   3.058   5.436
 7206TIP3    H221583   6.548   3.135   5.344
 7207TIP3   OH221584   3.725   4.420   1.481
 7207TIP3    H121585   3.677   4.444   1.402
 7207TIP3    H221586   3.692   4.334   1.505
 7208TIP3   OH221587   6.353   1.841   0.088
 7208TIP3    H121588   6.293   1.914   0.084
 7208TIP3    H221589   6.345   1.798   0.003
 7209TIP3   OH221590   6.136   5.838   2.408
 7209TIP3    H121591   6.191   5.779   2.357
 7209TIP3    H221592   6.183   5.849   2.491
 7210TIP3   OH221593   1.852   1.008   2.106
 7210TIP3    H121594   1.919   1.075   2.118
 7210TIP3    H221595   1.900   0.925   2.108
 7211TIP3   OH221596   1.784   5.205   3.474
 7211TIP3    H121597   1.792   5.184   3.567
 7211TIP3    H221598   1.754   5.295   3.472
 7212TIP3   OH221599   0.088   4.678   5.814
 7212TIP3    H121600   0.124   4.737   5.747
 7212TIP3    H221601   0.164   4.654   5.867
 7213TIP3   OH221602   4.748   0.885   4.097
 7213TIP3    H121603   4.829   0.930   4.123
 7213TIP3    H221604   4.774   0.833   4.021
 7214TIP3   OH221605   0.244   1.761   1.637
 7214TIP3    H121606   0.252   1.733   1.546
 7214TIP3    H221607   0.325   1.732   1.679
 7215TIP3   OH221608   5.859   6.763   4.200
 7215TIP3    H121609   5.799   6.802   4.137
 7215TIP3    H221610   5.804   6.704   4.252
 7216TIP3   OH221611   0.877   2.661   1.330
 7216TIP3    H121612   0.896   2.753   1.309
 7216TIP3    H221613   0.825   2.665   1.409
 7217TIP3   OH221614   0.638   4.376   4.060
 7217TIP3    H121615   0.699   4.314   4.021
 7217TIP3    H221616   0.665   4.381   4.152
 7218TIP3   OH221617   2.686   4.686   1.861
 7218TIP3    H121618   2.726   4.633   1.931
 7218TIP3    H221619   2.758   4.711   1.804
 7219TIP3   OH221620   5.418   5.779   5.018
 7219TIP3    H121621   5.368   5.797   4.939
 7219TIP3    H221622   5.507   5.808   4.998
 7220TIP3   OH221623   1.247   3.601   5.164
 7220TIP3    H121624   1.301   3.655   5.222
 7220TIP3    H221625   1.245   3.649   5.081
 7221TIP3   OH221626   0.628   3.656   4.305
 7221TIP3    H121627   0.667   3.612   4.228
 7221TIP3    H221628   0.634   3.591   4.374
 7222TIP3   OH221629   4.196   0.542   5.343
 7222TIP3    H121630   4.227   0.505   5.260
 7222TIP3    H221631   4.276   0.569   5.388
 7223TIP3   OH221632   7.127   4.665   4.029
 7223TIP3    H121633   7.138   4.609   4.106
 7223TIP3    H221634   7.197   4.638   3.970
 7224TIP3   OH221635   1.450   2.357   2.635
 7224TIP3    H121636   1.485   2.287   2.691
 7224TIP3    H221637   1.366   2.379   2.674
 7225TIP3   OH221638   1.627   1.393   2.584
 7225TIP3    H121639   1.612   1.450   2.508
 7225TIP3    H221640   1.698   1.437   2.633
 7226TIP3   OH221641   5.079   4.152   3.010
 7226TIP3    H121642   5.142   4.121   3.074
 7226TIP3    H221643   5.032   4.223   3.054
 7227TIP3   OH221644   0.177   4.186   3.140
 7227TIP3    H121645   0.239   4.243   3.093
 7227TIP3    H221646   0.118   4.153   3.072
 7228TIP3   OH221647   0.491   3.703   2.301
 7228TIP3    H121648   0.399   3.715   2.276
 7228TIP3    H221649   0.501   3.609   2.315
 7229TIP3   OH221650   1.011   1.222   3.842
 7229TIP3    H121651   1.085   1.211   3.903
 7229TIP3    H221652   1.039   1.292   3.783
 7230TIP3   OH221653   5.557   2.294   1.318
 7230TIP3    H121654   5.583   2.369   1.264
 7230TIP3    H221655   5.501   2.331   1.385
 7231TIP3   OH221656   4.842   2.701   4.969
 7231TIP3    H121657   4.827   2.669   5.058
 7231TIP3    H221658   4.790   2.643   4.913
 7232TIP3   OH221659   3.810   2.603   0.273
 7232TIP3    H121660   3.790   2.676   0.215
 7232TIP3    H221661   3.902   2.584   0.257
 7233TIP3   OH221662   6.172   2.205   3.663
 7233TIP3    H121663   6.246   2.265   3.667
 7233TIP3    H221664   6.211   2.119   3.653
 7234TIP3   OH221665   5.407   0.278   0.534
 7234TIP3    H121666   5.457   0.351   0.498
 7234TIP3    H221667   5.317   0.293   0.503
 7235TIP3   OH221668   6.179   3.085   4.719
 7235TIP3    H121669   6.116   3.041   4.776
 7235TIP3    H221670   6.254   3.025   4.715
 7236TIP3   OH221671   2.266   4.119   3.108
 7236TIP3    H121672   2.183   4.150   3.074
 7236TIP3    H221673   2.306   4.072   3.033
 7237TIP3   OH221674   0.293   3.570   1.255
 7237TIP3    H121675   0.228   3.598   1.190
 7237TIP3    H221676   0.242   3.529   1.324
 7238TIP3   OH221677   4.232   3.881   0.742
 7238TIP3    H121678   4.141   3.913   0.745
 7238TIP3    H221679   4.283   3.958   0.716
 7239TIP3   OH221680   6.543   4.798   3.089
 7239TIP3    H121681   6.491   4.815   3.167
 7239TIP3    H221682   6.478   4.771   3.023
 7240TIP3   OH221683   3.141   1.742   1.623
 7240TIP3    H121684   3.182   1.709   1.543
 7240TIP3    H221685   3.164   1.678   1.690
 7241TIP3   OH221686   1.534   1.470   1.710
 7241TIP3    H121687   1.569   1.514   1.632
 7241TIP3    H221688   1.610   1.458   1.767
 7242TIP3   OH221689   4.040   3.092   3.178
 7242TIP3    H121690   4.038   3.149   3.255
 7242TIP3    H221691   4.035   3.152   3.104
 7243TIP3   OH221692   5.449   2.312   2.263
 7243TIP3    H121693   5.446   2.242   2.198
 7243TIP3    H221694   5.461   2.392   2.211
 7244TIP3   OH221695   0.076   1.441   0.987
 7244TIP3    H121696   0.065   1.386   1.064
 7244TIP3    H221697   0.109   1.524   1.021
 7245TIP3   OH221698   6.673   0.126   0.631
 7245TIP3    H121699   6.655   0.037   0.599
 7245TIP3    H221700   6.678   0.117   0.726
 7246TIP3   OH221701   6.981   0.096   0.946
 7246TIP3    H121702   6.971   0.014   0.898
 7246TIP3    H221703   7.073   0.120   0.932
 7247TIP3   OH221704   7.103   5.526   1.799
 7247TIP3    H121705   7.103   5.440   1.757
 7247TIP3    H221706   7.116   5.507   1.892
 7248TIP3   OH221707   1.935   3.292   2.164
 7248TIP3    H121708   1.919   3.244   2.082
 7248TIP3    H221709   1.888   3.242   2.230
 7249TIP3   OH221710   5.131   4.133   4.951
 7249TIP3    H121711   5.207   4.129   4.893
 7249TIP3    H221712   5.056   4.122   4.892
 7250TIP3   OH221713   2.816   1.272   1.190
 7250TIP3    H121714   2.791   1.246   1.278
 7250TIP3    H221715   2.900   1.317   1.201
 7251TIP3   OH221716   5.686   6.763   3.924
 7251TIP3    H121717   5.733   6.681   3.938
 7251TIP3    H221718   5.606   6.737   3.879
 7252TIP3   OH221719   2.260   6.283   5.571
 7252TIP3    H121720   2.267   6.215   5.637
 7252TIP3    H221721   2.350   6.299   5.543
 7253TIP3   OH221722   1.053   6.230   5.843
 7253TIP3    H121723   1.035   6.195   5.756
 7253TIP3    H221724   0.983   6.194   5.898
 7254TIP3   OH221725   0.978   4.792   0.469
 7254TIP3    H121726   0.974   4.811   0.375
 7254TIP3    H221727   1.063   4.749   0.481
 7255TIP3   OH221728   6.915   0.803   4.926
 7255TIP3    H121729   6.888   0.878   4.978
 7255TIP3    H221730   6.847   0.794   4.859
 7256TIP3   OH221731   0.835   2.555   5.889
 7256TIP3    H121732   0.790   2.477   5.856
 7256TIP3    H221733   0.866   2.531   5.976
 7257TIP3   OH221734   0.706   6.219   3.738
 7257TIP3    H121735   0.700   6.174   3.822
 7257TIP3    H221736   0.744   6.304   3.758
 7258TIP3   OH221737   5.596   3.370   4.981
 7258TIP3    H121738   5.597   3.430   5.055
 7258TIP3    H221739   5.662   3.303   5.003
 7259TIP3   OH221740   0.890   3.925   0.516
 7259TIP3    H121741   0.955   3.941   0.584
 7259TIP3    H221742   0.863   3.834   0.529
 7260TIP3   OH221743   3.968   3.585   2.464
 7260TIP3    H121744   3.883   3.540   2.468
 7260TIP3    H221745   3.960   3.655   2.530
 7261TIP3   OH221746   2.407   6.393   3.108
 7261TIP3    H121747   2.429   6.456   3.039
 7261TIP3    H221748   2.479   6.330   3.108
 7262TIP3   OH221749   1.345   5.340   2.578
 7262TIP3    H121750   1.380   5.260   2.539
 7262TIP3    H221751   1.373   5.410   2.519
 7263TIP3   OH221752   2.804   0.153   3.318
 7263TIP3    H121753   2.743   0.155   3.393
 7263TIP3    H221754   2.815   0.245   3.294
 7264TIP3   OH221755   2.069   5.916   5.714
 7264TIP3    H121756   2.148   5.968   5.729
 7264TIP3    H221757   2.043   5.887   5.802
 7265TIP3   OH221758   6.351   0.308   2.289
 7265TIP3    H121759   6.344   0.237   2.353
 7265TIP3    H221760   6.406   0.373   2.332
 7266TIP3   OH221761   6.281   4.751   2.272
 7266TIP3    H121762   6.306   4.842   2.256
 7266TIP3    H221763   6.332   4.725   2.348
 7267TIP3   OH221764   2.444   6.230   1.425
 7267TIP3    H121765   2.404   6.206   1.342
 7267TIP3    H221766   2.538   6.222   1.410
 7268TIP3   OH221767   2.308   3.101   4.915
 7268TIP3    H121768   2.225   3.060   4.941
 7268TIP3    H221769   2.344   3.136   4.997
 7269TIP3   OH221770   5.018   1.526   1.185
 7269TIP3    H121771   4.957   1.570   1.244
 7269TIP3    H221772   5.067   1.597   1.144
 7270TIP3   OH221773   4.085   4.424   2.743
 7270TIP3    H121774   3.991   4.436   2.756
 7270TIP3    H221775   4.092   4.336   2.706
 7271TIP3   OH221776   2.229   0.301   0.585
 7271TIP3    H121777   2.154   0.320   0.529
 7271TIP3    H221778   2.253   0.385   0.623
 7272TIP3   OH221779   3.735   2.590   3.250
 7272TIP3    H121780   3.830   2.598   3.258
 7272TIP3    H221781   3.708   2.670   3.206
 7273TIP3   OH221782   6.095   5.794   1.476
 7273TIP3    H121783   6.103   5.710   1.521
 7273TIP3    H221784   6.064   5.772   1.388
 7274TIP3   OH221785   2.712   6.130   4.287
 7274TIP3    H121786   2.773   6.070   4.332
 7274TIP3    H221787   2.750   6.140   4.199
 7275TIP3   OH221788   6.092   3.709   3.022
 7275TIP3    H121789   6.147   3.787   3.010
 7275TIP3    H221790   6.019   3.740   3.075
 7276TIP3   OH221791   3.268   5.635   5.293
 7276TIP3    H121792   3.229   5.599   5.214
 7276TIP3    H221793   3.224   5.720   5.304
 7277TIP3   OH221794   5.348   0.416   5.524
 7277TIP3    H121795   5.365   0.399   5.616
 7277TIP3    H221796   5.253   0.427   5.518
 7278TIP3   OH221797   6.255   1.205   0.132
 7278TIP3    H121798   6.307   1.272   0.088
 7278TIP3    H221799   6.305   1.185   0.211
 7279TIP3   OH221800   6.568   0.064   2.819
 7279TIP3    H121801   6.504  -0.007   2.822
 7279TIP3    H221802   6.525   0.133   2.769
 7280TIP3   OH221803   2.544   3.858   5.044
 7280TIP3    H121804   2.501   3.840   4.960
 7280TIP3    H221805   2.524   3.949   5.062
 7281TIP3   OH221806   2.100   1.282   3.709
 7281TIP3    H121807   2.121   1.287   3.615
 7281TIP3    H221808   2.115   1.191   3.732
 7282TIP3   OH221809   2.259   6.064   1.584
 7282TIP3    H121810   2.336   6.054   1.640
 7282TIP3    H221811   2.285   6.130   1.519
 7283TIP3   OH221812   0.401   0.448   1.464
 7283TIP3    H121813   0.427   0.540   1.463
 7283TIP3    H221814   0.473   0.402   1.508
 7284TIP3   OH221815   2.759   4.612   2.695
 7284TIP3    H121816   2.852   4.609   2.718
 7284TIP3    H221817   2.715   4.571   2.769
 7285TIP3   OH221818   6.826   2.449   1.966
 7285TIP3    H121819   6.844   2.362   1.931
 7285TIP3    H221820   6.870   2.509   1.905
 7286TIP3   OH221821   0.263   1.305   0.802
 7286TIP3    H121822   0.196   1.362   0.840
 7286TIP3    H221823   0.325   1.366   0.760
 7287TIP3   OH221824   5.756   4.575   1.809
 7287TIP3    H121825   5.771   4.620   1.892
 7287TIP3    H221826   5.837   4.589   1.759
 7288TIP3   OH221827   5.451   1.902   3.069
 7288TIP3    H121828   5.364   1.937   3.085
 7288TIP3    H221829   5.439   1.807   3.066
 7289TIP3   OH221830   2.982   0.566   0.223
 7289TIP3    H121831   3.056   0.608   0.267
 7289TIP3    H221832   2.935   0.638   0.181
 7290TIP3   OH221833   5.409   3.398   3.985
 7290TIP3    H121834   5.375   3.449   4.059
 7290TIP3    H221835   5.454   3.325   4.026
 7291TIP3   OH221836   1.696   6.348   2.287
 7291TIP3    H121837   1.603   6.352   2.265
 7291TIP3    H221838   1.705   6.408   2.362
 7292TIP3   OH221839   2.849   1.702   1.812
 7292TIP3    H121840   2.771   1.691   1.756
 7292TIP3    H221841   2.859   1.617   1.855
 7293TIP3   OH221842   2.979   0.569   3.391
 7293TIP3    H121843   2.905   0.628   3.400
 7293TIP3    H221844   2.964   0.523   3.308
 7294TIP3   OH221845   4.130   3.898   1.140
 7294TIP3    H121846   4.141   3.975   1.083
 7294TIP3    H221847   4.139   3.933   1.229
 7295TIP3   OH221848   5.897   3.674   2.474
 7295TIP3    H121849   5.907   3.744   2.539
 7295TIP3    H221850   5.806   3.647   2.483
 7296TIP3   OH221851   7.192   4.534   5.604
 7296TIP3    H121852   7.170   4.453   5.649
 7296TIP3    H221853   7.235   4.587   5.671
 7297TIP3   OH221854   6.225   2.112   2.236
 7297TIP3    H121855   6.255   2.200   2.213
 7297TIP3    H221856   6.280   2.087   2.311
 7298TIP3   OH221857   1.881   3.373   5.315
 7298TIP3    H121858   1.845   3.320   5.245
 7298TIP3    H221859   1.845   3.335   5.395
 7299TIP3   OH221860   2.485   6.336   4.558
 7299TIP3    H121861   2.548   6.408   4.559
 7299TIP3    H221862   2.418   6.364   4.495
 7300TIP3   OH221863   5.429   6.500   1.359
 7300TIP3    H121864   5.333   6.498   1.359
 7300TIP3    H221865   5.455   6.426   1.413
 7301TIP3   OH221866   4.950   1.917   1.063
 7301TIP3    H121867   4.871   1.875   1.096
 7301TIP3    H221868   5.021   1.861   1.092
 7302TIP3   OH221869   5.691   0.918   0.921
 7302TIP3    H121870   5.708   0.835   0.964
 7302TIP3    H221871   5.617   0.900   0.862
 7303TIP3   OH221872   5.054   0.267   5.288
 7303TIP3    H121873   5.064   0.348   5.238
 7303TIP3    H221874   4.994   0.214   5.235
 7304TIP3   OH221875   4.318   1.242   2.413
 7304TIP3    H121876   4.312   1.282   2.500
 7304TIP3    H221877   4.322   1.148   2.430
 7305TIP3   OH221878   5.409   5.142   3.520
 7305TIP3    H121879   5.494   5.098   3.525
 7305TIP3    H221880   5.420   5.221   3.573
 7306TIP3   OH221881   0.744   2.276   0.745
 7306TIP3    H121882   0.665   2.282   0.800
 7306TIP3    H221883   0.731   2.342   0.677
 7307TIP3   OH221884   7.118   0.489   2.203
 7307TIP3    H121885   7.079   0.476   2.117
 7307TIP3    H221886   7.171   0.410   2.218
 7308TIP3   OH221887   6.593   5.198   1.618
 7308TIP3    H121888   6.568   5.105   1.619
 7308TIP3    H221889   6.585   5.224   1.527
 7309TIP3   OH221890   5.229   4.546   2.319
 7309TIP3    H121891   5.275   4.478   2.271
 7309TIP3    H221892   5.292   4.577   2.384
 7310TIP3   OH221893   1.474   6.031   2.589
 7310TIP3    H121894   1.472   6.097   2.658
 7310TIP3    H221895   1.532   6.067   2.522
 7311TIP3   OH221896   1.941   3.928   0.532
 7311TIP3    H121897   1.968   4.002   0.479
 7311TIP3    H221898   1.920   3.965   0.617
 7312TIP3   OH221899   0.784   5.300   3.561
 7312TIP3    H121900   0.705   5.318   3.613
 7312TIP3    H221901   0.759   5.227   3.504
 7313TIP3   OH221902   2.813   4.710   0.178
 7313TIP3    H121903   2.894   4.664   0.155
 7313TIP3    H221904   2.834   4.754   0.261
 7314TIP3   OH221905   4.559   6.635   0.855
 7314TIP3    H121906   4.485   6.574   0.858
 7314TIP3    H221907   4.617   6.605   0.925
 7315TIP3   OH221908   6.002   1.921   4.792
 7315TIP3    H121909   6.032   1.892   4.878
 7315TIP3    H221910   6.042   2.007   4.780
 7316TIP3   OH221911   6.826   6.431   3.787
 7316TIP3    H121912   6.896   6.368   3.769
 7316TIP3    H221913   6.804   6.468   3.702
 7317TIP3   OH221914   5.329   4.294   2.114
 7317TIP3    H121915   5.293   4.295   2.025
 7317TIP3    H221916   5.424   4.295   2.102
 7318TIP3   OH221917   2.792   2.385   0.600
 7318TIP3    H121918   2.850   2.460   0.591
 7318TIP3    H221919   2.764   2.387   0.691
 7319TIP3   OH221920   2.062   2.501   5.258
 7319TIP3    H121921   1.972   2.533   5.266
 7319TIP3    H221922   2.054   2.418   5.212
 7320TIP3   OH221923   5.878   2.440   4.324
 7320TIP3    H121924   5.831   2.521   4.304
 7320TIP3    H221925   5.919   2.457   4.409
 7321TIP3   OH221926   2.202   5.132   4.233
 7321TIP3    H121927   2.213   5.223   4.207
 7321TIP3    H221928   2.223   5.082   4.153
 7322TIP3   OH221929   1.847   1.642   3.976
 7322TIP3    H121930   1.929   1.665   4.021
 7322TIP3    H221931   1.865   1.558   3.936
 7323TIP3   OH221932   4.499   1.676   0.437
 7323TIP3    H121933   4.582   1.638   0.410
 7323TIP3    H221934   4.434   1.609   0.417
 7324TIP3   OH221935   4.782   4.473   3.449
 7324TIP3    H121936   4.820   4.388   3.473
 7324TIP3    H221937   4.831   4.500   3.371
 7325TIP3   OH221938   1.993   4.185   3.042
 7325TIP3    H121939   1.994   4.211   3.134
 7325TIP3    H221940   1.904   4.154   3.027
 7326TIP3   OH221941   4.791   2.721   4.123
 7326TIP3    H121942   4.824   2.795   4.176
 7326TIP3    H221943   4.870   2.675   4.095
 7327TIP3   OH221944   1.455   5.220   2.007
 7327TIP3    H121945   1.421   5.247   2.093
 7327TIP3    H221946   1.523   5.283   1.987
 7328TIP3   OH221947   3.679   3.638   0.694
 7328TIP3    H121948   3.653   3.669   0.608
 7328TIP3    H221949   3.769   3.608   0.683
 7329TIP3   OH221950   4.734   0.433   2.657
 7329TIP3    H121951   4.703   0.441   2.567
 7329TIP3    H221952   4.671   0.484   2.708
 7330TIP3   OH221953   4.028   0.391   5.735
 7330TIP3    H121954   4.110   0.404   5.782
 7330TIP3    H221955   4.028   0.458   5.667
 7331TIP3   OH221956   6.718   4.696   2.734
 7331TIP3    H121957   6.789   4.634   2.716
 7331TIP3    H221958   6.651   4.643   2.777
 7332TIP3   OH221959   2.801   3.010   0.305
 7332TIP3    H121960   2.809   2.920   0.273
 7332TIP3    H221961   2.736   3.006   0.375
 7333TIP3   OH221962   3.989   6.109   5.271
 7333TIP3    H121963   4.074   6.150   5.290
 7333TIP3    H221964   3.981   6.040   5.336
 7334TIP3   OH221965   4.975   0.497   3.237
 7334TIP3    H121966   4.972   0.514   3.143
 7334TIP3    H221967   4.892   0.454   3.256
 7335TIP3   OH221968   4.441   5.558   0.906
 7335TIP3    H121969   4.474   5.589   0.822
 7335TIP3    H221970   4.449   5.462   0.901
 7336TIP3   OH221971   4.910   0.926   2.159
 7336TIP3    H121972   5.005   0.915   2.161
 7336TIP3    H221973   4.878   0.874   2.232
 7337TIP3   OH221974   4.216   4.388   2.062
 7337TIP3    H121975   4.302   4.386   2.104
 7337TIP3    H221976   4.166   4.454   2.111
 7338TIP3   OH221977   4.542   0.849   1.857
 7338TIP3    H121978   4.563   0.759   1.883
 7338TIP3    H221979   4.564   0.853   1.764
 7339TIP3   OH221980   4.050   0.868   5.400
 7339TIP3    H121981   4.132   0.843   5.358
 7339TIP3    H221982   4.073   0.886   5.491
 7340TIP3   OH221983   1.101   5.103   4.800
 7340TIP3    H121984   1.187   5.069   4.775
 7340TIP3    H221985   1.098   5.191   4.764
 7341TIP3   OH221986   2.879   3.257   3.591
 7341TIP3    H121987   2.902   3.335   3.641
 7341TIP3    H221988   2.951   3.247   3.528
 7342TIP3   OH221989   1.484   3.741   5.424
 7342TIP3    H121990   1.511   3.825   5.461
 7342TIP3    H221991   1.465   3.760   5.332
 7343TIP3   OH221992   5.534   4.627   3.248
 7343TIP3    H121993   5.472   4.573   3.199
 7343TIP3    H221994   5.530   4.592   3.338
 7344TIP3   OH221995   6.555   2.005   0.338
 7344TIP3    H121996   6.606   1.936   0.296
 7344TIP3    H221997   6.522   2.059   0.266
 7345TIP3   OH221998   6.992   2.238   1.116
 7345TIP3    H121999   6.921   2.273   1.169
 7345TIP3    H222000   7.070   2.248   1.171
 7346TIP3   OH222001   4.249   4.054   5.811
 7346TIP3    H122002   4.198   4.012   5.881
 7346TIP3    H222003   4.339   4.056   5.845
 7347TIP3   OH222004   0.331   1.067   3.722
 7347TIP3    H122005   0.267   1.134   3.747
 7347TIP3    H222006   0.411   1.117   3.704
 7348TIP3   OH222007   5.252   3.717   3.575
 7348TIP3    H122008   5.262   3.631   3.616
 7348TIP3    H222009   5.341   3.741   3.547
 7349TIP3   OH222010   1.037   6.624   2.044
 7349TIP3    H122011   1.021   6.564   2.118
 7349TIP3    H222012   0.951   6.639   2.007
 7350TIP3   OH222013   6.695   3.758   0.582
 7350TIP3    H122014   6.703   3.665   0.604
 7350TIP3    H222015   6.754   3.770   0.507
 7351TIP3   OH222016   0.973   3.686   3.824
 7351TIP3    H122017   0.891   3.650   3.792
 7351TIP3    H222018   1.033   3.611   3.827
 7352TIP3   OH222019   4.874   0.792   4.805
 7352TIP3    H122020   4.902   0.725   4.742
 7352TIP3    H222021   4.839   0.742   4.879
 7353TIP3   OH222022   0.761   0.091   5.649
 7353TIP3    H122023   0.760   0.000   5.680
 7353TIP3    H222024   0.678   0.102   5.603
 7354TIP3   OH222025   2.103   6.210   4.976
 7354TIP3    H122026   2.035   6.146   4.955
 7354TIP3    H222027   2.146   6.175   5.055
 7355TIP3   OH222028   3.072   6.443   5.722
 7355TIP3    H122029   3.080   6.492   5.640
 7355TIP3    H222030   2.983   6.462   5.753
 7356TIP3   OH222031   3.007   2.985   3.874
 7356TIP3    H122032   2.976   2.954   3.789
 7356TIP3    H222033   3.058   3.063   3.854
 7357TIP3   OH222034   5.362   2.598   1.361
 7357TIP3    H122035   5.270   2.610   1.337
 7357TIP3    H222036   5.363   2.516   1.410
 7358TIP3   OH222037   1.328   4.949   4.432
 7358TIP3    H122038   1.405   5.006   4.442
 7358TIP3    H222039   1.332   4.920   4.341
 7359TIP3   OH222040   1.934   5.477   5.563
 7359TIP3    H122041   2.015   5.528   5.562
 7359TIP3    H222042   1.944   5.414   5.491
 7360TIP3   OH222043   0.104   0.049   3.550
 7360TIP3    H122044   0.077   0.079   3.463
 7360TIP3    H222045   0.194   0.021   3.539
 7361TIP3   OH222046   0.183   3.804   5.157
 7361TIP3    H122047   0.191   3.858   5.079
 7361TIP3    H222048   0.187   3.865   5.230
 7362TIP3   OH222049   0.145   4.990   5.243
 7362TIP3    H122050   0.231   5.019   5.273
 7362TIP3    H222051   0.128   5.040   5.163
 7363TIP3   OH222052   1.675   2.251   0.603
 7363TIP3    H122053   1.625   2.251   0.685
 7363TIP3    H222054   1.763   2.224   0.629
 7364TIP3   OH222055   3.785   0.619   4.586
 7364TIP3    H122056   3.810   0.542   4.637
 7364TIP3    H222057   3.801   0.693   4.645
 7365TIP3   OH222058   1.355   0.780   0.257
 7365TIP3    H122059   1.408   0.798   0.179
 7365TIP3    H222060   1.266   0.770   0.223
 7366TIP3   OH222061   1.119   1.392   2.958
 7366TIP3    H122062   1.113   1.298   2.940
 7366TIP3    H222063   1.028   1.421   2.967
 7367TIP3   OH222064   5.543   3.002   3.686
 7367TIP3    H122065   5.480   2.930   3.678
 7367TIP3    H222066   5.541   3.026   3.779
 7368TIP3   OH222067   3.544   0.325   1.754
 7368TIP3    H122068   3.527   0.398   1.815
 7368TIP3    H222069   3.587   0.367   1.679
 7369TIP3   OH222070   5.549   0.539   0.452
 7369TIP3    H122071   5.538   0.631   0.428
 7369TIP3    H222072   5.605   0.541   0.530
 7370TIP3   OH222073   0.821   3.613   2.639
 7370TIP3    H122074   0.795   3.702   2.662
 7370TIP3    H222075   0.817   3.565   2.722
 7371TIP3   OH222076   1.284   5.510   1.567
 7371TIP3    H122077   1.272   5.498   1.473
 7371TIP3    H222078   1.341   5.439   1.594
 7372TIP3   OH222079   1.691   5.689   4.855
 7372TIP3    H122080   1.766   5.636   4.827
 7372TIP3    H222081   1.633   5.628   4.899
 7373TIP3   OH222082   6.846   2.645   2.856
 7373TIP3    H122083   6.926   2.694   2.839
 7373TIP3    H222084   6.811   2.682   2.937
 7374TIP3   OH222085   2.365   5.949   4.268
 7374TIP3    H122086   2.456   5.920   4.263
 7374TIP3    H222087   2.343   5.975   4.178
 7375TIP3   OH222088   6.066   3.465   1.366
 7375TIP3    H122089   6.071   3.400   1.297
 7375TIP3    H222090   6.042   3.416   1.444
 7376TIP3   OH222091   5.867   1.583   3.794
 7376TIP3    H122092   5.786   1.558   3.750
 7376TIP3    H222093   5.914   1.637   3.731
 7377TIP3   OH222094   4.198   0.356   2.718
 7377TIP3    H122095   4.240   0.390   2.639
 7377TIP3    H222096   4.179   0.264   2.698
 7378TIP3   OH222097   4.663   4.597   2.216
 7378TIP3    H122098   4.682   4.685   2.186
 7378TIP3    H222099   4.658   4.605   2.311
 7379TIP3   OH222100   0.865   4.929   2.418
 7379TIP3    H122101   0.867   5.018   2.384
 7379TIP3    H222102   0.779   4.921   2.459
 7380TIP3   OH222103   3.423   5.162   0.940
 7380TIP3    H122104   3.416   5.209   1.024
 7380TIP3    H222105   3.510   5.184   0.907
 7381TIP3   OH222106   4.249   4.705   0.419
 7381TIP3    H122107   4.251   4.611   0.400
 7381TIP3    H222108   4.182   4.715   0.486
 7382TIP3   OH222109   3.284   4.733   0.457
 7382TIP3    H122110   3.280   4.690   0.372
 7382TIP3    H222111   3.306   4.824   0.437
 7383TIP3   OH222112   4.819   6.724   4.016
 7383TIP3    H122113   4.814   6.639   3.972
 7383TIP3    H222114   4.744   6.725   4.075
 7384TIP3   OH222115   7.038   4.142   4.522
 7384TIP3    H122116   7.088   4.061   4.538
 7384TIP3    H222117   6.975   4.146   4.595
 7385TIP3   OH222118   5.334   3.755   4.372
 7385TIP3    H122119   5.344   3.849   4.381
 7385TIP3    H222120   5.395   3.718   4.436
 7386TIP3   OH222121   5.978   5.363   2.742
 7386TIP3    H122122   5.917   5.403   2.804
 7386TIP3    H222123   6.004   5.435   2.684
 7387TIP3   OH222124   3.563   1.247   5.176
 7387TIP3    H122125   3.558   1.259   5.081
 7387TIP3    H222126   3.514   1.320   5.212
 7388TIP3   OH222127   5.900   0.203   3.744
 7388TIP3    H122128   5.885   0.244   3.659
 7388TIP3    H222129   5.866   0.114   3.734
 7389TIP3   OH222130   3.914   5.888   1.037
 7389TIP3    H122131   3.885   5.812   1.088
 7389TIP3    H222132   3.838   5.947   1.036
 7390TIP3   OH222133   3.322   1.474   1.047
 7390TIP3    H122134   3.340   1.547   0.988
 7390TIP3    H222135   3.346   1.396   0.996
 7391TIP3   OH222136   3.160   4.801   1.684
 7391TIP3    H122137   3.230   4.802   1.619
 7391TIP3    H222138   3.080   4.813   1.633
 7392TIP3   OH222139   6.696   1.798   2.146
 7392TIP3    H122140   6.637   1.769   2.076
 7392TIP3    H222141   6.643   1.856   2.200
 7393TIP3   OH222142   6.272   5.983   1.460
 7393TIP3    H122143   6.199   5.922   1.471
 7393TIP3    H222144   6.348   5.926   1.444
 7394TIP3   OH222145   2.157   0.484   0.020
 7394TIP3    H122146   2.145   0.573  -0.014
 7394TIP3    H222147   2.249   0.480   0.043
 7395TIP3   OH222148   3.546   6.738   5.102
 7395TIP3    H122149   3.619   6.799   5.113
 7395TIP3    H222150   3.467   6.792   5.110
 7396TIP3   OH222151   1.914   5.669   3.792
 7396TIP3    H122152   1.821   5.692   3.799
 7396TIP3    H222153   1.929   5.609   3.866
 7397TIP3   OH222154   2.382   3.345   1.374
 7397TIP3    H122155   2.338   3.316   1.294
 7397TIP3    H222156   2.420   3.265   1.411
 7398TIP3   OH222157   4.770   4.870   2.150
 7398TIP3    H122158   4.707   4.941   2.140
 7398TIP3    H222159   4.768   4.825   2.066
 7399TIP3   OH222160   2.381   1.304   0.231
 7399TIP3    H122161   2.314   1.242   0.261
 7399TIP3    H222162   2.353   1.329   0.143
 7400TIP3   OH222163   4.543   6.388   4.794
 7400TIP3    H122164   4.489   6.313   4.769
 7400TIP3    H222165   4.494   6.430   4.865
 7401TIP3   OH222166   6.529   1.393   1.555
 7401TIP3    H122167   6.463   1.396   1.624
 7401TIP3    H222168   6.599   1.450   1.585
 7402TIP3   OH222169   2.545   3.213   0.743
 7402TIP3    H122170   2.494   3.267   0.682
 7402TIP3    H222171   2.566   3.134   0.693
 7403TIP3   OH222172   1.301   0.642   3.818
 7403TIP3    H122173   1.274   0.674   3.732
 7403TIP3    H222174   1.393   0.620   3.808
 7404TIP3   OH222175   0.078   2.436   5.290
 7404TIP3    H122176   0.126   2.459   5.370
 7404TIP3    H222177   0.144   2.397   5.232
 7405TIP3   OH222178   2.620   3.432   5.561
 7405TIP3    H122179   2.631   3.526   5.574
 7405TIP3    H222180   2.527   3.422   5.539
 7406TIP3   OH222181   3.292   1.791   1.939
 7406TIP3    H122182   3.263   1.723   1.878
 7406TIP3    H222183   3.316   1.865   1.882
 7407TIP3   OH222184   2.397   0.973   5.523
 7407TIP3    H122185   2.415   0.884   5.492
 7407TIP3    H222186   2.466   0.992   5.586
 7408TIP3   OH222187   0.244   6.614   3.876
 7408TIP3    H122188   0.262   6.679   3.944
 7408TIP3    H222189   0.161   6.574   3.903
 7409TIP3   OH222190   3.997   3.135   4.701
 7409TIP3    H122191   4.058   3.207   4.684
 7409TIP3    H222192   3.942   3.166   4.772
 7410TIP3   OH222193   2.509   6.570   3.866
 7410TIP3    H122194   2.548   6.630   3.803
 7410TIP3    H222195   2.517   6.614   3.950
 7411TIP3   OH222196   4.685   2.093   3.094
 7411TIP3    H122197   4.669   2.016   3.148
 7411TIP3    H222198   4.774   2.121   3.118
 7412TIP3   OH222199   1.589   3.933   4.222
 7412TIP3    H122200   1.639   3.996   4.272
 7412TIP3    H222201   1.653   3.867   4.194
 7413TIP3   OH222202   2.925   3.371   2.033
 7413TIP3    H122203   2.984   3.325   1.973
 7413TIP3    H222204   2.970   3.454   2.051
 7414TIP3   OH222205   0.439   1.282   3.374
 7414TIP3    H122206   0.365   1.335   3.345
 7414TIP3    H222207   0.438   1.206   3.316
 7415TIP3   OH222208   6.206   3.168   1.936
 7415TIP3    H122209   6.202   3.082   1.893
 7415TIP3    H222210   6.258   3.153   2.014
 7416TIP3   OH222211   3.936   1.724   0.050
 7416TIP3    H122212   4.020   1.708   0.006
 7416TIP3    H222213   3.908   1.810   0.018
 7417TIP3   OH222214   0.853   4.905   5.760
 7417TIP3    H122215   0.865   4.814   5.731
 7417TIP3    H222216   0.806   4.947   5.687
 7418TIP3   OH222217   4.546   1.442   0.750
 7418TIP3    H122218   4.524   1.352   0.728
 7418TIP3    H222219   4.490   1.495   0.694
 7419TIP3   OH222220   1.152   4.817   4.612
 7419TIP3    H122221   1.215   4.888   4.603
 7419TIP3    H222222   1.081   4.840   4.552
 7420TIP3   OH222223   4.333   5.290   0.456
 7420TIP3    H122224   4.335   5.377   0.495
 7420TIP3    H222225   4.255   5.248   0.492
 7421TIP3   OH222226   1.749   0.284   0.010
 7421TIP3    H122227   1.844   0.285   0.009
 7421TIP3    H222228   1.726   0.225   0.082
 7422TIP3   OH222229   2.341   2.576   3.175
 7422TIP3    H122230   2.387   2.521   3.239
 7422TIP3    H222231   2.410   2.615   3.122
 7423TIP3   OH222232   0.719   5.027   5.560
 7423TIP3    H122233   0.641   5.082   5.572
 7423TIP3    H222234   0.717   5.004   5.467
 7424TIP3   OH222235   6.491   6.289   2.074
 7424TIP3    H122236   6.490   6.293   2.169
 7424TIP3    H222237   6.419   6.346   2.047
 7425TIP3   OH222238   1.629   6.083   4.320
 7425TIP3    H122239   1.704   6.023   4.323
 7425TIP3    H222240   1.665   6.167   4.348
 7426TIP3   OH222241   4.540   6.434   0.445
 7426TIP3    H122242   4.536   6.524   0.413
 7426TIP3    H222243   4.588   6.387   0.377
 7427TIP3   OH222244   1.037   4.323   4.841
 7427TIP3    H122245   1.081   4.378   4.776
 7427TIP3    H222246   1.106   4.301   4.904
 7428TIP3   OH222247   6.783   3.236   4.947
 7428TIP3    H122248   6.797   3.142   4.958
 7428TIP3    H222249   6.862   3.266   4.901
 7429TIP3   OH222250   6.573   1.277   1.906
 7429TIP3    H122251   6.607   1.336   1.838
 7429TIP3    H222252   6.493   1.320   1.937
 7430TIP3   OH222253   6.183   1.019   4.102
 7430TIP3    H122254   6.271   1.041   4.131
 7430TIP3    H222255   6.149   1.100   4.064
 7431TIP3   OH222256   7.155   2.132   3.830
 7431TIP3    H122257   7.076   2.127   3.885
 7431TIP3    H222258   7.174   2.041   3.808
 7432TIP3   OH222259   0.529   5.478   3.303
 7432TIP3    H122260   0.578   5.555   3.334
 7432TIP3    H222261   0.534   5.483   3.208
 7433TIP3   OH222262   4.631   4.799   1.117
 7433TIP3    H122263   4.549   4.749   1.123
 7433TIP3    H222264   4.618   4.858   1.042
 7434TIP3   OH222265   3.657   3.377   1.445
 7434TIP3    H122266   3.589   3.411   1.502
 7434TIP3    H222267   3.734   3.366   1.501
 7435TIP3   OH222268   5.295   0.173   5.187
 7435TIP3    H122269   5.225   0.203   5.246
 7435TIP3    H222270   5.374   0.177   5.240
 7436TIP3   OH222271   5.797   4.228   2.952
 7436TIP3    H122272   5.844   4.306   2.983
 7436TIP3    H222273   5.793   4.239   2.857
 7437TIP3   OH222274   6.683   0.687   5.745
 7437TIP3    H122275   6.713   0.604   5.708
 7437TIP3    H222276   6.714   0.685   5.836
 7438TIP3   OH222277   3.652   2.580   2.002
 7438TIP3    H122278   3.632   2.495   1.962
 7438TIP3    H222279   3.675   2.559   2.092
 7439TIP3   OH222280   3.025   3.724   3.280
 7439TIP3    H122281   3.105   3.758   3.321
 7439TIP3    H222282   3.056   3.658   3.218
 7440TIP3   OH222283   4.164   3.937   3.726
 7440TIP3    H122284   4.114   4.015   3.749
 7440TIP3    H222285   4.110   3.864   3.758
 7441TIP3   OH222286   5.938   4.199   4.803
 7441TIP3    H122287   5.864   4.169   4.751
 7441TIP3    H222288   6.004   4.130   4.794
 7442TIP3   OH222289   5.633   1.288   3.445
 7442TIP3    H122290   5.696   1.314   3.377
 7442TIP3    H222291   5.651   1.194   3.458
 7443TIP3   OH222292   1.854   0.575   5.419
 7443TIP3    H122293   1.902   0.617   5.347
 7443TIP3    H222294   1.782   0.635   5.438
 7444TIP3   OH222295   4.914   6.488   1.372
 7444TIP3    H122296   4.824   6.457   1.372
 7444TIP3    H222297   4.966   6.411   1.398
 7445TIP3   OH222298   6.090   4.052   4.236
 7445TIP3    H122299   6.180   4.047   4.268
 7445TIP3    H222300   6.037   4.054   4.316
 7446TIP3   OH222301   5.519   1.156   0.112
 7446TIP3    H122302   5.523   1.062   0.127
 7446TIP3    H222303   5.585   1.193   0.171
 7447TIP3   OH222304   3.858   0.969   4.546
 7447TIP3    H122305   3.852   0.947   4.452
 7447TIP3    H222306   3.852   1.064   4.549
 7448TIP3   OH222307   7.024   6.289   4.596
 7448TIP3    H122308   7.050   6.331   4.678
 7448TIP3    H222309   6.977   6.210   4.623
 7449TIP3   OH222310   0.490   4.135   3.480
 7449TIP3    H122311   0.515   4.070   3.545
 7449TIP3    H222312   0.422   4.093   3.428
 7450TIP3   OH222313   6.408   4.847   4.707
 7450TIP3    H122314   6.399   4.853   4.802
 7450TIP3    H222315   6.392   4.936   4.675
 7451TIP3   OH222316   1.921   0.521   5.703
 7451TIP3    H122317   1.950   0.438   5.665
 7451TIP3    H222318   2.002   0.569   5.720
 7452TIP3   OH222319   0.169   0.501   1.226
 7452TIP3    H122320   0.108   0.449   1.174
 7452TIP3    H222321   0.197   0.571   1.167
 7453TIP3   OH222322   3.010   4.495   3.748
 7453TIP3    H122323   3.077   4.469   3.685
 7453TIP3    H222324   2.936   4.525   3.695
 7454TIP3   OH222325   4.646   3.469   0.804
 7454TIP3    H122326   4.591   3.547   0.793
 7454TIP3    H222327   4.586   3.402   0.837
 7455TIP3   OH222328   1.551   0.244   1.254
 7455TIP3    H122329   1.498   0.198   1.189
 7455TIP3    H222330   1.582   0.322   1.208
 7456TIP3   OH222331   2.596   4.508   1.361
 7456TIP3    H122332   2.638   4.530   1.445
 7456TIP3    H222333   2.663   4.460   1.313
 7457TIP3   OH222334   3.873   6.588   0.862
 7457TIP3    H122335   3.854   6.640   0.784
 7457TIP3    H222336   3.829   6.504   0.846
 7458TIP3   OH222337   1.449   4.067   2.240
 7458TIP3    H122338   1.521   4.111   2.195
 7458TIP3    H222339   1.473   4.071   2.332
 7459TIP3   OH222340   6.991   2.472   3.056
 7459TIP3    H122341   7.082   2.497   3.074
 7459TIP3    H222342   6.964   2.527   2.983
 7460TIP3   OH222343   5.234   1.601   5.199
 7460TIP3    H122344   5.186   1.659   5.141
 7460TIP3    H222345   5.168   1.542   5.235
 7461TIP3   OH222346   1.345   2.929   1.959
 7461TIP3    H122347   1.419   2.988   1.968
 7461TIP3    H222348   1.270   2.986   1.941
 7462TIP3   OH222349   5.121   5.583   3.914
 7462TIP3    H122350   5.110   5.491   3.891
 7462TIP3    H222351   5.186   5.616   3.852
 7463TIP3   OH222352   5.444   2.670   5.286
 7463TIP3    H122353   5.528   2.682   5.241
 7463TIP3    H222354   5.467   2.617   5.363
 7464TIP3   OH222355   6.817   3.580   4.199
 7464TIP3    H122356   6.825   3.673   4.178
 7464TIP3    H222357   6.723   3.567   4.214
 7465TIP3   OH222358   0.086   6.330   4.999
 7465TIP3    H122359   0.069   6.422   5.022
 7465TIP3    H222360   0.163   6.306   5.050
 7466TIP3   OH222361   5.646   2.848   3.225
 7466TIP3    H122362   5.565   2.859   3.175
 7466TIP3    H222363   5.645   2.920   3.288
 7467TIP3   OH222364   0.833   2.092   2.540
 7467TIP3    H122365   0.921   2.061   2.521
 7467TIP3    H222366   0.833   2.184   2.513
 7468TIP3   OH222367   4.464   1.154   0.092
 7468TIP3    H122368   4.532   1.215   0.064
 7468TIP3    H222369   4.494   1.069   0.059
 7469TIP3   OH222370   6.340   2.212   4.168
 7469TIP3    H122371   6.356   2.121   4.195
 7469TIP3    H222372   6.280   2.205   4.094
 7470TIP3   OH222373   7.223   3.915   2.215
 7470TIP3    H122374   7.209   3.847   2.280
 7470TIP3    H222375   7.170   3.888   2.140
 7471TIP3   OH222376   1.083   4.479   1.667
 7471TIP3    H122377   1.038   4.557   1.636
 7471TIP3    H222378   1.099   4.496   1.760
 7472TIP3   OH222379   7.111   3.300   5.399
 7472TIP3    H122380   7.077   3.389   5.392
 7472TIP3    H222381   7.206   3.311   5.400
 7473TIP3   OH222382   1.735   5.618   3.206
 7473TIP3    H122383   1.675   5.584   3.271
 7473TIP3    H222384   1.768   5.700   3.244
 7474TIP3   OH222385   2.600   2.909   5.457
 7474TIP3    H122386   2.535   2.926   5.389
 7474TIP3    H222387   2.684   2.933   5.417
 7475TIP3   OH222388   1.678   5.195   5.684
 7475TIP3    H122389   1.627   5.161   5.611
 7475TIP3    H222390   1.743   5.126   5.701
 7476TIP3   OH222391   6.195   3.278   3.212
 7476TIP3    H122392   6.223   3.343   3.148
 7476TIP3    H222393   6.270   3.268   3.271
 7477TIP3   OH222394   1.228   4.683   3.455
 7477TIP3    H122395   1.145   4.717   3.421
 7477TIP3    H222396   1.213   4.671   3.549
 7478TIP3   OH222397   6.317   6.292   5.193
 7478TIP3    H122398   6.305   6.387   5.199
 7478TIP3    H222399   6.383   6.271   5.259
 7479TIP3   OH222400   3.235   3.842   1.942
 7479TIP3    H122401   3.303   3.863   1.877
 7479TIP3    H222402   3.158   3.890   1.912
 7480TIP3   OH222403   1.577   4.232   3.014
 7480TIP3    H122404   1.516   4.158   3.013
 7480TIP3    H222405   1.639   4.212   2.943
 7481TIP3   OH222406   5.138   3.872   4.052
 7481TIP3    H122407   5.210   3.899   4.109
 7481TIP3    H222408   5.179   3.860   3.966
 7482TIP3   OH222409   0.468   1.748   2.450
 7482TIP3    H122410   0.443   1.839   2.466
 7482TIP3    H222411   0.410   1.697   2.507
 7483TIP3   OH222412   0.153   5.461   5.770
 7483TIP3    H122413   0.208   5.436   5.845
 7483TIP3    H222414   0.207   5.521   5.719
 7484TIP3   OH222415   3.708   0.295   3.755
 7484TIP3    H122416   3.725   0.377   3.709
 7484TIP3    H222417   3.647   0.248   3.697
 7485TIP3   OH222418   6.716   3.822   3.311
 7485TIP3    H122419   6.696   3.887   3.243
 7485TIP3    H222420   6.810   3.831   3.325
 7486TIP3   OH222421   1.055   1.426   2.248
 7486TIP3    H122422   1.083   1.383   2.168
 7486TIP3    H222423   1.081   1.517   2.238
 7487TIP3   OH222424   0.865   1.414   0.813
 7487TIP3    H122425   0.942   1.415   0.755
 7487TIP3    H222426   0.896   1.371   0.893
 7488TIP3   OH222427   6.882   4.192   3.907
 7488TIP3    H122428   6.951   4.242   3.951
 7488TIP3    H222429   6.824   4.259   3.871
 7489TIP3   OH222430   4.838   0.740   1.250
 7489TIP3    H122431   4.780   0.665   1.256
 7489TIP3    H222432   4.784   0.815   1.275
 7490TIP3   OH222433   1.276   3.489   4.747
 7490TIP3    H122434   1.341   3.460   4.682
 7490TIP3    H222435   1.243   3.572   4.712
 7491TIP3   OH222436   4.181   1.374   1.739
 7491TIP3    H122437   4.170   1.437   1.668
 7491TIP3    H222438   4.095   1.370   1.782
 7492TIP3   OH222439   4.199   2.982   5.769
 7492TIP3    H122440   4.138   3.047   5.733
 7492TIP3    H222441   4.145   2.927   5.826
 7493TIP3   OH222442   4.896   3.035   3.390
 7493TIP3    H122443   4.952   3.039   3.312
 7493TIP3    H222444   4.823   3.093   3.369
 7494TIP3   OH222445   6.993   1.391   2.696
 7494TIP3    H122446   7.038   1.472   2.671
 7494TIP3    H222447   7.009   1.382   2.790
 7495TIP3   OH222448   1.503   1.423   5.030
 7495TIP3    H122449   1.437   1.486   5.002
 7495TIP3    H222450   1.510   1.361   4.957
 7496TIP3   OH222451   2.188   0.219   2.513
 7496TIP3    H122452   2.225   0.242   2.428
 7496TIP3    H222453   2.233   0.138   2.537
 7497TIP3   OH222454   4.025   3.530   1.443
 7497TIP3    H122455   4.027   3.560   1.534
 7497TIP3    H222456   4.082   3.454   1.442
 7498TIP3   OH222457   5.863   0.164   0.537
 7498TIP3    H122458   5.805   0.165   0.460
 7498TIP3    H222459   5.937   0.110   0.511
 7499TIP3   OH222460   0.933   3.702   0.308
 7499TIP3    H122461   1.019   3.690   0.347
 7499TIP3    H222462   0.871   3.680   0.377
 7500TIP3   OH222463   4.232   3.364   4.189
 7500TIP3    H122464   4.284   3.285   4.200
 7500TIP3    H222465   4.153   3.348   4.240
 7501TIP3   OH222466   3.408   3.710   4.573
 7501TIP3    H122467   3.413   3.693   4.478
 7501TIP3    H222468   3.340   3.776   4.582
 7502TIP3   OH222469   6.510   0.604   3.692
 7502TIP3    H122470   6.506   0.583   3.599
 7502TIP3    H222471   6.603   0.598   3.714
 7503TIP3   OH222472   5.564   4.860   1.542
 7503TIP3    H122473   5.602   4.855   1.455
 7503TIP3    H222474   5.482   4.810   1.536
 7504TIP3   OH222475   6.062   1.900   3.169
 7504TIP3    H122476   6.063   1.993   3.145
 7504TIP3    H222477   6.153   1.882   3.196
 7505TIP3   OH222478   7.006   6.412   0.391
 7505TIP3    H122479   7.050   6.440   0.471
 7505TIP3    H222480   7.071   6.356   0.347
 7506TIP3   OH222481   1.321   1.400   4.714
 7506TIP3    H122482   1.340   1.309   4.691
 7506TIP3    H222483   1.316   1.445   4.630
 7507TIP3   OH222484   4.138   1.702   0.947
 7507TIP3    H122485   4.079   1.769   0.981
 7507TIP3    H222486   4.183   1.668   1.025
 7508TIP3   OH222487   7.028   3.962   0.849
 7508TIP3    H122488   6.954   3.904   0.868
 7508TIP3    H222489   7.055   3.995   0.935
 7509TIP3   OH222490   2.998   0.235   0.509
 7509TIP3    H122491   2.919   0.289   0.514
 7509TIP3    H222492   3.038   0.242   0.595
 7510TIP3   OH222493   6.382   2.968   4.432
 7510TIP3    H122494   6.384   3.064   4.432
 7510TIP3    H222495   6.380   2.944   4.525
 7511TIP3   OH222496   0.845   1.591   3.598
 7511TIP3    H122497   0.833   1.511   3.648
 7511TIP3    H222498   0.826   1.567   3.507
 7512TIP3   OH222499   5.254   5.870   4.821
 7512TIP3    H122500   5.187   5.820   4.867
 7512TIP3    H222501   5.210   5.952   4.798
 7513TIP3   OH222502   4.029   3.831   2.351
 7513TIP3    H122503   4.100   3.858   2.408
 7513TIP3    H222504   4.002   3.745   2.383
 7514TIP3   OH222505   6.749   5.638   4.905
 7514TIP3    H122506   6.757   5.629   5.000
 7514TIP3    H222507   6.744   5.733   4.890
 7515TIP3   OH222508   6.366   1.488   1.785
 7515TIP3    H122509   6.363   1.581   1.808
 7515TIP3    H222510   6.343   1.443   1.866
 7516TIP3   OH222511   6.019   5.052   4.631
 7516TIP3    H122512   5.937   5.098   4.614
 7516TIP3    H222513   6.028   4.992   4.557
 7517TIP3   OH222514   2.212   2.809   2.855
 7517TIP3    H122515   2.118   2.803   2.871
 7517TIP3    H222516   2.243   2.873   2.919
 7518TIP3   OH222517   5.416   5.156   0.452
 7518TIP3    H122518   5.369   5.201   0.382
 7518TIP3    H222519   5.456   5.080   0.409
 7519TIP3   OH222520   4.226   0.535   4.672
 7519TIP3    H122521   4.141   0.553   4.713
 7519TIP3    H222522   4.206   0.469   4.605
 7520TIP3   OH222523   1.452   2.298   2.372
 7520TIP3    H122524   1.423   2.358   2.303
 7520TIP3    H222525   1.429   2.342   2.453
 7521TIP3   OH222526   3.386   6.556   1.228
 7521TIP3    H122527   3.445   6.587   1.159
 7521TIP3    H222528   3.314   6.514   1.180
 7522TIP3   OH222529   3.733   6.338   5.038
 7522TIP3    H122530   3.711   6.346   5.131
 7522TIP3    H222531   3.751   6.428   5.010
 7523TIP3   OH222532   1.706   0.086   4.908
 7523TIP3    H122533   1.651   0.039   4.845
 7523TIP3    H222534   1.784   0.032   4.917
 7524TIP3   OH222535   1.782   6.696   3.219
 7524TIP3    H122536   1.845   6.720   3.288
 7524TIP3    H222537   1.821   6.620   3.176
 7525TIP3   OH222538   3.391   1.057   4.565
 7525TIP3    H122539   3.331   1.128   4.542
 7525TIP3    H222540   3.453   1.054   4.493
 7526TIP3   OH222541   1.130   2.566   0.825
 7526TIP3    H122542   1.114   2.634   0.891
 7526TIP3    H222543   1.110   2.484   0.869
 7527TIP3   OH222544   5.022   2.854   3.714
 7527TIP3    H122545   4.968   2.895   3.781
 7527TIP3    H222546   5.044   2.768   3.750
 7528TIP3   OH222547   6.080   4.254   1.750
 7528TIP3    H122548   5.994   4.290   1.727
 7528TIP3    H222549   6.086   4.172   1.701
 7529TIP3   OH222550   1.598   2.959   5.174
 7529TIP3    H122551   1.602   3.020   5.248
 7529TIP3    H222552   1.538   2.890   5.203
 7530TIP3   OH222553   2.054   4.943   4.340
 7530TIP3    H122554   2.110   5.014   4.309
 7530TIP3    H222555   2.045   4.884   4.265
 7531TIP3   OH222556   4.348   6.014   4.076
 7531TIP3    H122557   4.318   5.934   4.032
 7531TIP3    H222558   4.310   6.085   4.024
 7532TIP3   OH222559   3.503   3.718   2.835
 7532TIP3    H122560   3.409   3.707   2.847
 7532TIP3    H222561   3.543   3.655   2.896
 7533TIP3   OH222562   5.378   1.036   3.497
 7533TIP3    H122563   5.362   0.980   3.573
 7533TIP3    H222564   5.468   1.016   3.472
 7534TIP3   OH222565   2.079   5.792   0.986
 7534TIP3    H122566   2.110   5.787   1.077
 7534TIP3    H222567   2.029   5.873   0.983
 7535TIP3   OH222568   1.428   2.653   3.849
 7535TIP3    H122569   1.371   2.728   3.862
 7535TIP3    H222570   1.466   2.666   3.762
 7536TIP3   OH222571   6.952   0.733   0.565
 7536TIP3    H122572   6.934   0.678   0.642
 7536TIP3    H222573   6.911   0.817   0.586
 7537TIP3   OH222574   6.151   0.262   2.719
 7537TIP3    H122575   6.103   0.336   2.755
 7537TIP3    H222576   6.089   0.220   2.659
 7538TIP3   OH222577   2.613   2.153   4.116
 7538TIP3    H122578   2.574   2.183   4.198
 7538TIP3    H222579   2.620   2.058   4.126
 7539TIP3   OH222580   3.199   6.699   5.170
 7539TIP3    H122581   3.253   6.668   5.097
 7539TIP3    H222582   3.110   6.676   5.144
 7540TIP3   OH222583   4.278   2.048   1.616
 7540TIP3    H122584   4.368   2.031   1.642
 7540TIP3    H222585   4.248   1.966   1.575
 7541TIP3   OH222586   0.044   0.398   0.373
 7541TIP3    H122587   0.114   0.350   0.329
 7541TIP3    H222588  -0.025   0.334   0.385
 7542TIP3   OH222589   1.657   2.517   5.043
 7542TIP3    H122590   1.743   2.551   5.066
 7542TIP3    H222591   1.617   2.586   4.990
 7543TIP3   OH222592   0.570   3.857   1.975
 7543TIP3    H122593   0.644   3.918   1.978
 7543TIP3    H222594   0.530   3.871   1.890
 7544TIP3   OH222595   4.037   1.559   1.934
 7544TIP3    H122596   4.008   1.597   2.017
 7544TIP3    H222597   3.980   1.483   1.921
 7545TIP3   OH222598   3.255   1.624   1.392
 7545TIP3    H122599   3.327   1.641   1.332
 7545TIP3    H222600   3.238   1.531   1.384
 7546TIP3   OH222601   0.903   0.719   4.021
 7546TIP3    H122602   0.859   0.698   4.103
 7546TIP3    H222603   0.938   0.807   4.033
 7547TIP3   OH222604   2.817   0.567   1.097
 7547TIP3    H122605   2.763   0.632   1.050
 7547TIP3    H222606   2.884   0.542   1.034
 7548TIP3   OH222607   3.072   0.875   5.069
 7548TIP3    H122608   3.054   0.968   5.087
 7548TIP3    H222609   3.144   0.877   5.006
 7549TIP3   OH222610   6.041   0.911   1.817
 7549TIP3    H122611   6.096   0.855   1.872
 7549TIP3    H222612   5.986   0.959   1.880
 7550TIP3   OH222613   4.653   1.644   4.680
 7550TIP3    H122614   4.696   1.607   4.757
 7550TIP3    H222615   4.649   1.571   4.617
 7551TIP3   OH222616   5.084   5.400   0.502
 7551TIP3    H122617   5.125   5.441   0.578
 7551TIP3    H222618   5.110   5.455   0.428
 7552TIP3   OH222619   3.911   1.079   2.934
 7552TIP3    H122620   3.845   1.111   2.995
 7552TIP3    H222621   3.878   0.993   2.906
 7553TIP3   OH222622   6.741   1.460   1.825
 7553TIP3    H122623   6.831   1.492   1.817
 7553TIP3    H222624   6.694   1.531   1.869
 7554TIP3   OH222625   0.270   2.424   0.445
 7554TIP3    H122626   0.174   2.425   0.435
 7554TIP3    H222627   0.285   2.363   0.517
 7555TIP3   OH222628   3.145   6.278   1.352
 7555TIP3    H122629   3.214   6.256   1.415
 7555TIP3    H222630   3.192   6.303   1.273
 7556TIP3   OH222631   6.907   0.012   2.553
 7556TIP3    H122632   6.882   0.078   2.618
 7556TIP3    H222633   6.984   0.048   2.509
 7557TIP3   OH222634   2.210   2.041   4.972
 7557TIP3    H122635   2.280   2.058   5.034
 7557TIP3    H222636   2.225   2.103   4.900
 7558TIP3   OH222637   0.347   1.607   0.121
 7558TIP3    H122638   0.259   1.604   0.159
 7558TIP3    H222639   0.335   1.647   0.036
 7559TIP3   OH222640   4.910   3.579   0.823
 7559TIP3    H122641   4.833   3.554   0.773
 7559TIP3    H222642   4.977   3.596   0.757
 7560TIP3   OH222643   0.071   6.003   0.131
 7560TIP3    H122644   0.112   5.983   0.215
 7560TIP3    H222645   0.038   6.092   0.140
 7561TIP3   OH222646   3.830   2.170   4.777
 7561TIP3    H122647   3.846   2.077   4.795
 7561TIP3    H222648   3.761   2.195   4.839
 7562TIP3   OH222649   3.084   3.634   4.388
 7562TIP3    H122650   3.179   3.631   4.374
 7562TIP3    H222651   3.072   3.604   4.478
 7563TIP3   OH222652   1.441   2.431   5.655
 7563TIP3    H122653   1.531   2.398   5.659
 7563TIP3    H222654   1.446   2.505   5.595
 7564TIP3   OH222655   2.155   2.669   4.732
 7564TIP3    H122656   2.190   2.757   4.716
 7564TIP3    H222657   2.196   2.614   4.666
 7565TIP3   OH222658   3.634   1.909   3.344
 7565TIP3    H122659   3.542   1.893   3.363
 7565TIP3    H222660   3.661   1.833   3.293
 7566TIP3   OH222661   2.073   5.177   1.235
 7566TIP3    H122662   2.101   5.252   1.288
 7566TIP3    H222663   2.149   5.119   1.234
 7567TIP3   OH222664   0.232   4.988   2.884
 7567TIP3    H122665   0.169   5.006   2.954
 7567TIP3    H222666   0.317   4.989   2.927
 7568TIP3   OH222667   7.018   6.675   2.146
 7568TIP3    H122668   6.989   6.724   2.069
 7568TIP3    H222669   7.034   6.587   2.113
 7569TIP3   OH222670   5.515   6.117   1.147
 7569TIP3    H122671   5.484   6.207   1.159
 7569TIP3    H222672   5.604   6.127   1.113
 7570TIP3   OH222673   5.094   6.656   4.711
 7570TIP3    H122674   5.008   6.671   4.672
 7570TIP3    H222675   5.154   6.707   4.657
 7571TIP3   OH222676   1.372   0.493   0.301
 7571TIP3    H122677   1.419   0.461   0.225
 7571TIP3    H222678   1.390   0.588   0.302
 7572TIP3   OH222679   1.324   6.111   1.986
 7572TIP3    H122680   1.344   6.129   1.894
 7572TIP3    H222681   1.253   6.170   2.008
 7573TIP3   OH222682   6.561   4.245   3.960
 7573TIP3    H122683   6.527   4.333   3.942
 7573TIP3    H222684   6.608   4.221   3.880
 7574TIP3   OH222685   5.016   0.435   1.209
 7574TIP3    H122686   5.002   0.481   1.292
 7574TIP3    H222687   5.100   0.390   1.220
 7575TIP3   OH222688   1.791   6.347   5.116
 7575TIP3    H122689   1.796   6.278   5.050
 7575TIP3    H222690   1.861   6.408   5.093
 7576TIP3   OH222691   6.044   1.073   0.064
 7576TIP3    H122692   6.131   1.112   0.071
 7576TIP3    H222693   6.043   1.005   0.131
 7577TIP3   OH222694   5.831   5.974   3.378
 7577TIP3    H122695   5.867   5.924   3.452
 7577TIP3    H222696   5.752   6.014   3.413
 7578TIP3   OH222697   5.773   3.070   0.666
 7578TIP3    H122698   5.714   3.016   0.718
 7578TIP3    H222699   5.786   3.149   0.718
 7579TIP3   OH222700   6.904   4.581   4.970
 7579TIP3    H122701   6.825   4.559   4.920
 7579TIP3    H222702   6.976   4.566   4.909
 7580TIP3   OH222703   0.364   2.692   3.227
 7580TIP3    H122704   0.342   2.612   3.180
 7580TIP3    H222705   0.348   2.670   3.319
 7581TIP3   OH222706   6.562   4.523   1.793
 7581TIP3    H122707   6.513   4.567   1.862
 7581TIP3    H222708   6.568   4.432   1.822
 7582TIP3   OH222709   3.820   0.363   3.342
 7582TIP3    H122710   3.889   0.415   3.384
 7582TIP3    H222711   3.746   0.424   3.334
 7583TIP3   OH222712  -0.016   3.724   2.667
 7583TIP3    H122713   0.054   3.789   2.667
 7583TIP3    H222714  -0.071   3.747   2.742
 7584TIP3   OH222715   5.200   6.028   2.401
 7584TIP3    H122716   5.203   6.110   2.351
 7584TIP3    H222717   5.292   6.003   2.409
 7585TIP3   OH222718   1.229   6.491   3.547
 7585TIP3    H122719   1.211   6.539   3.466
 7585TIP3    H222720   1.210   6.554   3.617
 7586TIP3   OH222721   5.228   2.728   1.054
 7586TIP3    H122722   5.207   2.683   1.136
 7586TIP3    H222723   5.193   2.817   1.065
 7587TIP3   OH222724   3.078   6.057   2.364
 7587TIP3    H122725   3.150   6.078   2.424
 7587TIP3    H222726   3.121   6.026   2.284
 7588TIP3   OH222727   3.675   4.840   2.739
 7588TIP3    H122728   3.762   4.877   2.751
 7588TIP3    H222729   3.658   4.846   2.645
 7589TIP3   OH222730   1.266   5.753   0.285
 7589TIP3    H122731   1.299   5.782   0.201
 7589TIP3    H222732   1.224   5.669   0.267
 7590TIP3   OH222733   1.134   6.263   4.112
 7590TIP3    H122734   1.226   6.267   4.141
 7590TIP3    H222735   1.124   6.339   4.054
 7591TIP3   OH222736   1.566   1.568   4.101
 7591TIP3    H122737   1.550   1.568   4.195
 7591TIP3    H222738   1.657   1.595   4.092
 7592TIP3   OH222739   6.023   2.810   2.085
 7592TIP3    H122740   5.990   2.795   1.996
 7592TIP3    H222741   5.959   2.868   2.125
 7593TIP3   OH222742   2.665   1.333   3.343
 7593TIP3    H122743   2.723   1.403   3.312
 7593TIP3    H222744   2.595   1.328   3.278
 7594TIP3   OH222745   6.075   5.873   1.760
 7594TIP3    H122746   6.123   5.955   1.767
 7594TIP3    H222747   6.090   5.844   1.670
 7595TIP3   OH222748   3.601   4.382   3.305
 7595TIP3    H122749   3.537   4.416   3.242
 7595TIP3    H222750   3.647   4.313   3.257
 7596TIP3   OH222751   4.082   3.560   0.944
 7596TIP3    H122752   4.084   3.555   0.849
 7596TIP3    H222753   4.051   3.649   0.963
 7597TIP3   OH222754   4.040   6.220   1.000
 7597TIP3    H122755   4.019   6.130   0.974
 7597TIP3    H222756   4.112   6.211   1.063
 7598TIP3   OH222757   6.497   0.304   3.248
 7598TIP3    H122758   6.520   0.220   3.208
 7598TIP3    H222759   6.555   0.311   3.324
 7599TIP3   OH222760   1.652   6.724   5.560
 7599TIP3    H122761   1.711   6.657   5.595
 7599TIP3    H222762   1.702   6.766   5.491
 7600TIP3   OH222763   2.595   6.085   4.533
 7600TIP3    H122764   2.545   6.165   4.551
 7600TIP3    H222765   2.614   6.089   4.440
 7601TIP3   OH222766   1.824   4.819   2.668
 7601TIP3    H122767   1.821   4.724   2.662
 7601TIP3    H222768   1.835   4.837   2.762
 7602TIP3   OH222769   6.585   2.610   2.529
 7602TIP3    H122770   6.544   2.669   2.593
 7602TIP3    H222771   6.555   2.642   2.444
 7603TIP3   OH222772   0.975   5.192   0.564
 7603TIP3    H122773   0.978   5.159   0.475
 7603TIP3    H222774   0.965   5.287   0.555
 7604TIP3   OH222775   0.921   0.165   3.325
 7604TIP3    H122776   0.827   0.145   3.320
 7604TIP3    H222777   0.962   0.079   3.337
 7605TIP3   OH222778   6.822   2.870   1.804
 7605TIP3    H122779   6.766   2.947   1.813
 7605TIP3    H222780   6.768   2.798   1.838
 7606TIP3   OH222781   0.236   4.596   0.065
 7606TIP3    H122782   0.196   4.681   0.047
 7606TIP3    H222783   0.175   4.533   0.026
 7607TIP3   OH222784   6.912   3.715   4.612
 7607TIP3    H122785   6.845   3.740   4.676
 7607TIP3    H222786   6.978   3.784   4.618
 7608TIP3   OH222787   5.644   6.644   5.303
 7608TIP3    H122788   5.587   6.592   5.359
 7608TIP3    H222789   5.645   6.596   5.220
 7609TIP3   OH222790   2.301   1.909   3.352
 7609TIP3    H122791   2.293   1.828   3.301
 7609TIP3    H222792   2.396   1.922   3.361
 7610TIP3   OH222793   6.562   5.165   1.327
 7610TIP3    H122794   6.480   5.214   1.327
 7610TIP3    H222795   6.617   5.210   1.264
 7611TIP3   OH222796   1.193   0.118   3.093
 7611TIP3    H122797   1.106   0.144   3.064
 7611TIP3    H222798   1.242   0.200   3.101
 7612TIP3   OH222799   3.718   6.755   2.793
 7612TIP3    H122800   3.741   6.832   2.845
 7612TIP3    H222801   3.649   6.786   2.734
 7613TIP3   OH222802   1.863   6.758   0.651
 7613TIP3    H122803   1.842   6.846   0.682
 7613TIP3    H222804   1.778   6.720   0.626
 7614TIP3   OH222805   3.408   6.452   5.865
 7614TIP3    H122806   3.471   6.396   5.910
 7614TIP3    H222807   3.338   6.393   5.837
 7615TIP3   OH222808   1.687   0.256   3.626
 7615TIP3    H122809   1.770   0.301   3.645
 7615TIP3    H222810   1.694   0.233   3.533
 7616TIP3   OH222811   0.893   5.662   0.129
 7616TIP3    H122812   0.798   5.676   0.127
 7616TIP3    H222813   0.930   5.749   0.138
 7617TIP3   OH222814   5.439   2.635   3.338
 7617TIP3    H122815   5.354   2.622   3.381
 7617TIP3    H222816   5.417   2.658   3.248
 7618TIP3   OH222817   0.999   1.225   1.528
 7618TIP3    H122818   1.006   1.146   1.582
 7618TIP3    H222819   1.053   1.289   1.574
 7619TIP3   OH222820   2.500   4.836   3.615
 7619TIP3    H122821   2.489   4.824   3.521
 7619TIP3    H222822   2.542   4.921   3.624
 7620TIP3   OH222823   4.633   3.282   5.031
 7620TIP3    H122824   4.705   3.317   4.978
 7620TIP3    H222825   4.657   3.191   5.048
 7621TIP3   OH222826   6.677   4.043   1.538
 7621TIP3    H122827   6.658   4.011   1.450
 7621TIP3    H222828   6.706   4.133   1.525
 7622TIP3   OH222829   6.007   2.005   2.069
 7622TIP3    H122830   6.061   2.035   2.143
 7622TIP3    H222831   5.960   1.929   2.102
 7623TIP3   OH222832   1.783   2.809   5.022
 7623TIP3    H122833   1.734   2.827   4.942
 7623TIP3    H222834   1.746   2.868   5.087
 7624TIP3   OH222835   1.770   1.678   4.484
 7624TIP3    H122836   1.786   1.730   4.405
 7624TIP3    H222837   1.856   1.645   4.508
 7625TIP3   OH222838   1.563   0.160   0.822
 7625TIP3    H122839   1.587   0.253   0.827
 7625TIP3    H222840   1.497   0.156   0.754
 7626TIP3   OH222841   7.183   3.781   1.513
 7626TIP3    H122842   7.116   3.845   1.489
 7626TIP3    H222843   7.205   3.737   1.431
 7627TIP3   OH222844   0.269   2.500   0.144
 7627TIP3    H122845   0.281   2.595   0.147
 7627TIP3    H222846   0.274   2.472   0.235
 7628TIP3   OH222847   3.868   1.584   4.211
 7628TIP3    H122848   3.866   1.639   4.133
 7628TIP3    H222849   3.815   1.632   4.275
 7629TIP3   OH222850   3.797   6.507   3.869
 7629TIP3    H122851   3.771   6.577   3.809
 7629TIP3    H222852   3.750   6.430   3.838
 7630TIP3   OH222853   2.786   2.301   5.205
 7630TIP3    H122854   2.700   2.316   5.166
 7630TIP3    H222855   2.848   2.337   5.142
 7631TIP3   OH222856   1.098   1.783   4.945
 7631TIP3    H122857   1.121   1.750   5.032
 7631TIP3    H222858   1.102   1.878   4.953
 7632TIP3   OH222859   4.271   1.277   4.329
 7632TIP3    H122860   4.208   1.331   4.281
 7632TIP3    H222861   4.247   1.289   4.421
 7633TIP3   OH222862   5.933   5.106   1.058
 7633TIP3    H122863   5.875   5.127   1.131
 7633TIP3    H222864   6.006   5.059   1.098
 7634TIP3   OH222865   2.274   3.473   1.610
 7634TIP3    H122866   2.298   3.435   1.525
 7634TIP3    H222867   2.325   3.423   1.674
 7635TIP3   OH222868   2.355   5.564   0.461
 7635TIP3    H122869   2.294   5.516   0.518
 7635TIP3    H222870   2.331   5.536   0.372
 7636TIP3   OH222871   7.058   1.933   5.223
 7636TIP3    H122872   7.117   1.858   5.218
 7636TIP3    H222873   7.106   1.997   5.277
 7637TIP3   OH222874   4.910   2.800   0.016
 7637TIP3    H122875   4.879   2.883   0.053
 7637TIP3    H222876   4.915   2.740   0.091
 7638TIP3   OH222877   2.753   6.119   5.846
 7638TIP3    H122878   2.740   6.210   5.873
 7638TIP3    H222879   2.825   6.088   5.901
 7639TIP3   OH222880   3.618   2.330   1.899
 7639TIP3    H122881   3.682   2.271   1.860
 7639TIP3    H222882   3.564   2.359   1.826
 7640TIP3   OH222883   0.917   6.011   4.089
 7640TIP3    H122884   0.931   5.937   4.147
 7640TIP3    H222885   0.990   6.070   4.107
 7641TIP3   OH222886   4.738   4.798   5.594
 7641TIP3    H122887   4.832   4.813   5.592
 7641TIP3    H222888   4.699   4.877   5.557
 7642TIP3   OH222889   0.704   4.337   5.637
 7642TIP3    H122890   0.656   4.255   5.648
 7642TIP3    H222891   0.694   4.358   5.543
 7643TIP3   OH222892   1.029   4.668   1.330
 7643TIP3    H122893   1.017   4.689   1.423
 7643TIP3    H222894   1.080   4.587   1.331
 7644TIP3   OH222895   0.141   6.516   1.670
 7644TIP3    H122896   0.085   6.467   1.730
 7644TIP3    H222897   0.214   6.456   1.652
 7645TIP3   OH222898   0.497   6.297   4.539
 7645TIP3    H122899   0.498   6.376   4.594
 7645TIP3    H222900   0.586   6.264   4.543
 7646TIP3   OH222901   6.945   6.259   1.904
 7646TIP3    H122902   6.866   6.218   1.939
 7646TIP3    H222903   6.982   6.193   1.846
 7647TIP3   OH222904   4.159   4.822   5.797
 7647TIP3    H122905   4.131   4.738   5.761
 7647TIP3    H222906   4.141   4.885   5.727
 7648TIP3   OH222907   0.862   1.237   5.639
 7648TIP3    H122908   0.810   1.304   5.683
 7648TIP3    H222909   0.824   1.231   5.551
 7649TIP3   OH222910   5.479   0.497   3.135
 7649TIP3    H122911   5.514   0.500   3.046
 7649TIP3    H222912   5.395   0.542   3.129
 7650TIP3   OH222913   5.820   4.619   1.456
 7650TIP3    H122914   5.740   4.606   1.405
 7650TIP3    H222915   5.881   4.659   1.394
 7651TIP3   OH222916   4.615   5.358   1.968
 7651TIP3    H122917   4.566   5.396   1.895
 7651TIP3    H222918   4.616   5.426   2.035
 7652TIP3   OH222919   3.513   3.404   5.381
 7652TIP3    H122920   3.543   3.491   5.405
 7652TIP3    H222921   3.421   3.401   5.409
 7653TIP3   OH222922   7.040   2.475   4.278
 7653TIP3    H122923   7.107   2.533   4.315
 7653TIP3    H222924   6.975   2.534   4.242
 7654TIP3   OH222925   0.550   2.846   3.758
 7654TIP3    H122926   0.578   2.825   3.669
 7654TIP3    H222927   0.598   2.784   3.814
 7655TIP3   OH222928   0.560   0.905   1.193
 7655TIP3    H122929   0.639   0.879   1.241
 7655TIP3    H222930   0.515   0.823   1.174
 7656TIP3   OH222931   5.448   5.479   2.950
 7656TIP3    H122932   5.459   5.489   2.855
 7656TIP3    H222933   5.403   5.558   2.977
 7657TIP3   OH222934   5.555   5.043   4.870
 7657TIP3    H122935   5.471   5.057   4.912
 7657TIP3    H222936   5.620   5.061   4.938
 7658TIP3   OH222937   5.859   6.641   0.428
 7658TIP3    H122938   5.901   6.720   0.463
 7658TIP3    H222939   5.766   6.652   0.449
 7659TIP3   OH222940   3.837   0.381   4.743
 7659TIP3    H122941   3.876   0.301   4.779
 7659TIP3    H222942   3.876   0.452   4.795
 7660TIP3   OH222943   5.790   0.513   2.733
 7660TIP3    H122944   5.883   0.506   2.752
 7660TIP3    H222945   5.785   0.519   2.637
 7661TIP3   OH222946   4.891   5.743   1.612
 7661TIP3    H122947   4.954   5.710   1.677
 7661TIP3    H222948   4.854   5.664   1.572
 7662TIP3   OH222949   6.834   6.247   1.584
 7662TIP3    H122950   6.859   6.286   1.500
 7662TIP3    H222951   6.916   6.239   1.632
 7663TIP3   OH222952   2.890   6.270   1.641
 7663TIP3    H122953   2.852   6.289   1.726
 7663TIP3    H222954   2.885   6.174   1.633
 7664TIP3   OH222955   5.240   6.400   5.289
 7664TIP3    H122956   5.278   6.379   5.204
 7664TIP3    H222957   5.248   6.319   5.339
 7665TIP3   OH222958   5.346   0.208   1.442
 7665TIP3    H122959   5.408   0.138   1.464
 7665TIP3    H222960   5.337   0.202   1.346
 7666TIP3   OH222961   0.626   6.082   1.273
 7666TIP3    H122962   0.661   6.090   1.184
 7666TIP3    H222963   0.648   5.992   1.299
 7667TIP3   OH222964   2.806   3.376   2.794
 7667TIP3    H122965   2.764   3.333   2.869
 7667TIP3    H222966   2.741   3.440   2.764
 7668TIP3   OH222967   3.911   3.271   3.381
 7668TIP3    H122968   3.856   3.200   3.345
 7668TIP3    H222969   3.856   3.312   3.448
 7669TIP3   OH222970   4.601   1.413   5.171
 7669TIP3    H122971   4.627   1.367   5.092
 7669TIP3    H222972   4.512   1.443   5.153
 7670TIP3   OH222973   6.235   0.937   1.603
 7670TIP3    H122974   6.161   0.939   1.664
 7670TIP3    H222975   6.226   1.017   1.551
 7671TIP3   OH222976   3.668   3.131   0.870
 7671TIP3    H122977   3.690   3.049   0.912
 7671TIP3    H222978   3.745   3.186   0.881
 7672TIP3   OH222979   3.261   5.975   5.273
 7672TIP3    H122980   3.277   6.057   5.320
 7672TIP3    H222981   3.166   5.963   5.276
 7673TIP3   OH222982   2.288   4.147   2.053
 7673TIP3    H122983   2.370   4.172   2.095
 7673TIP3    H222984   2.221   4.165   2.120
 7674TIP3   OH222985   1.192   6.764   0.226
 7674TIP3    H122986   1.228   6.770   0.315
 7674TIP3    H222987   1.130   6.836   0.221
 7675TIP3   OH222988   6.105   2.851   2.505
 7675TIP3    H122989   6.046   2.783   2.537
 7675TIP3    H222990   6.064   2.934   2.530
 7676TIP3   OH222991   0.613   1.313   1.263
 7676TIP3    H122992   0.675   1.295   1.333
 7676TIP3    H222993   0.569   1.394   1.291
 7677TIP3   OH222994   6.705   4.869   0.206
 7677TIP3    H122995   6.681   4.878   0.114
 7677TIP3    H222996   6.691   4.776   0.225
 7678TIP3   OH222997   3.621   4.088   2.571
 7678TIP3    H122998   3.530   4.118   2.571
 7678TIP3    H222999   3.645   4.083   2.664
 7679TIP3   OH223000   0.133   1.809   1.886
 7679TIP3    H123001   0.113   1.723   1.922
 7679TIP3    H223002   0.177   1.790   1.802
 7680TIP3   OH223003   5.902   5.615   3.235
 7680TIP3    H123004   5.890   5.612   3.329
 7680TIP3    H223005   5.843   5.684   3.205
 7681TIP3   OH223006   1.079   3.410   2.455
 7681TIP3    H123007   1.015   3.431   2.387
 7681TIP3    H223008   1.044   3.333   2.498
 7682TIP3   OH223009   4.021   0.606   4.834
 7682TIP3    H123010   4.021   0.597   4.930
 7682TIP3    H223011   3.982   0.691   4.818
 7683TIP3   OH223012   5.488   1.784   0.745
 7683TIP3    H123013   5.478   1.879   0.755
 7683TIP3    H223014   5.532   1.756   0.824
 7684TIP3   OH223015   2.647   2.585   5.883
 7684TIP3    H123016   2.681   2.608   5.797
 7684TIP3    H223017   2.719   2.603   5.943
 7685TIP3   OH223018   0.720   2.593   2.466
 7685TIP3    H123019   0.708   2.530   2.537
 7685TIP3    H223020   0.778   2.660   2.503
 7686TIP3   OH223021   4.269   6.733   5.854
 7686TIP3    H123022   4.193   6.772   5.810
 7686TIP3    H223023   4.301   6.667   5.792
 7687TIP3   OH223024   5.346   5.312   1.032
 7687TIP3    H123025   5.262   5.281   1.066
 7687TIP3    H223026   5.330   5.404   1.009
 7688TIP3   OH223027   5.553   6.178   3.928
 7688TIP3    H123028   5.512   6.264   3.931
 7688TIP3    H223029   5.647   6.195   3.937
 7689TIP3   OH223030   1.228   3.899   1.025
 7689TIP3    H123031   1.269   3.941   1.101
 7689TIP3    H223032   1.301   3.875   0.968
 7690TIP3   OH223033   2.663   3.523   5.283
 7690TIP3    H123034   2.593   3.478   5.329
 7690TIP3    H223035   2.634   3.614   5.278
 7691TIP3   OH223036   5.849   0.328   5.696
 7691TIP3    H123037   5.850   0.280   5.779
 7691TIP3    H223038   5.795   0.405   5.714
 7692TIP3   OH223039   6.837   0.796   3.372
 7692TIP3    H123040   6.839   0.727   3.305
 7692TIP3    H223041   6.925   0.795   3.410
 7693TIP3   OH223042   0.483   4.558   1.458
 7693TIP3    H123043   0.487   4.493   1.387
 7693TIP3    H223044   0.497   4.508   1.538
 7694TIP3   OH223045   1.056   2.599   4.348
 7694TIP3    H123046   1.003   2.589   4.427
 7694TIP3    H223047   1.029   2.527   4.292
 7695TIP3   OH223048   1.249   0.812   3.306
 7695TIP3    H123049   1.247   0.720   3.330
 7695TIP3    H223050   1.342   0.831   3.290
 7696TIP3   OH223051   1.395   6.098   5.551
 7696TIP3    H123052   1.384   6.009   5.583
 7696TIP3    H223053   1.461   6.136   5.609
 7697TIP3   OH223054   4.306   4.971   3.685
 7697TIP3    H123055   4.248   4.924   3.745
 7697TIP3    H223056   4.386   4.919   3.681
 7698TIP3   OH223057   0.513   6.217   5.510
 7698TIP3    H123058   0.551   6.271   5.441
 7698TIP3    H223059   0.566   6.238   5.587
 7699TIP3   OH223060   3.559   1.420   3.621
 7699TIP3    H123061   3.576   1.509   3.651
 7699TIP3    H223062   3.494   1.386   3.682
 7700TIP3   OH223063   0.686   6.339   5.316
 7700TIP3    H123064   0.719   6.316   5.229
 7700TIP3    H223065   0.762   6.375   5.362
 7701TIP3   OH223066   4.178   3.937   5.222
 7701TIP3    H123067   4.175   3.988   5.141
 7701TIP3    H223068   4.123   3.860   5.204
 7702TIP3   OH223069   0.816   5.033   5.059
 7702TIP3    H123070   0.846   4.953   5.017
 7702TIP3    H223071   0.886   5.096   5.042
 7703TIP3   OH223072   3.305   5.850   0.525
 7703TIP3    H123073   3.328   5.786   0.457
 7703TIP3    H223074   3.390   5.885   0.554
 7704TIP3   OH223075   6.308   2.425   2.393
 7704TIP3    H123076   6.372   2.471   2.447
 7704TIP3    H223077   6.285   2.488   2.324
 7705TIP3   OH223078   6.033   2.561   4.535
 7705TIP3    H123079   6.000   2.624   4.599
 7705TIP3    H223080   6.094   2.611   4.481
 7706TIP3   OH223081   4.956   1.449   4.480
 7706TIP3    H123082   4.910   1.365   4.489
 7706TIP3    H223083   4.966   1.461   4.386
 7707TIP3   OH223084   3.825   1.915   4.864
 7707TIP3    H123085   3.883   1.954   4.929
 7707TIP3    H223086   3.802   1.830   4.900
 7708TIP3   OH223087   3.066   2.404   4.241
 7708TIP3    H123088   3.040   2.484   4.288
 7708TIP3    H223089   3.139   2.432   4.185
 7709TIP3   OH223090   1.367   6.619   4.276
 7709TIP3    H123091   1.408   6.692   4.228
 7709TIP3    H223092   1.366   6.547   4.212
 7710TIP3   OH223093   6.103   4.779   1.343
 7710TIP3    H123094   6.174   4.756   1.403
 7710TIP3    H223095   6.083   4.698   1.296
 7711TIP3   OH223096   0.954   5.001   1.861
 7711TIP3    H123097   0.925   4.911   1.876
 7711TIP3    H223098   1.036   5.007   1.910
 7712TIP3   OH223099   4.720   4.094   2.629
 7712TIP3    H123100   4.667   4.131   2.558
 7712TIP3    H223101   4.713   4.000   2.618
 7713TIP3   OH223102   3.211   1.394   1.522
 7713TIP3    H123103   3.157   1.326   1.564
 7713TIP3    H223104   3.272   1.421   1.589
 7714TIP3   OH223105   5.135   0.998   5.345
 7714TIP3    H123106   5.141   1.024   5.437
 7714TIP3    H223107   5.050   0.956   5.337
 7715TIP3   OH223108   0.508   2.768   4.099
 7715TIP3    H123109   0.432   2.815   4.064
 7715TIP3    H223110   0.562   2.836   4.139
 7716TIP3   OH223111   2.492   1.892   2.160
 7716TIP3    H123112   2.537   1.814   2.192
 7716TIP3    H223113   2.562   1.947   2.124
 7717TIP3   OH223114   3.400   1.887   5.702
 7717TIP3    H123115   3.377   1.972   5.740
 7717TIP3    H223116   3.458   1.847   5.766
 7718TIP3   OH223117   3.775   3.217   3.003
 7718TIP3    H123118   3.861   3.259   3.007
 7718TIP3    H223119   3.758   3.188   3.092
 7719TIP3   OH223120   2.184   2.278   1.079
 7719TIP3    H123121   2.178   2.335   1.156
 7719TIP3    H223122   2.095   2.243   1.069
 7720TIP3   OH223123   4.053   4.145   3.039
 7720TIP3    H123124   4.087   4.232   3.063
 7720TIP3    H223125   4.033   4.153   2.946
 7721TIP3   OH223126   3.688   1.241   4.799
 7721TIP3    H123127   3.751   1.260   4.868
 7721TIP3    H223128   3.741   1.223   4.722
 7722TIP3   OH223129   2.881   2.642   4.314
 7722TIP3    H123130   2.827   2.689   4.250
 7722TIP3    H223131   2.819   2.589   4.364
 7723TIP3   OH223132   3.743   6.265   4.422
 7723TIP3    H123133   3.685   6.329   4.381
 7723TIP3    H223134   3.713   6.260   4.513
 7724TIP3   OH223135   1.557   4.193   3.858
 7724TIP3    H123136   1.499   4.194   3.782
 7724TIP3    H223137   1.596   4.106   3.857
 7725TIP3   OH223138   3.673   1.755   4.360
 7725TIP3    H123139   3.588   1.728   4.326
 7725TIP3    H223140   3.673   1.850   4.352
 7726TIP3   OH223141   3.646   2.361   1.133
 7726TIP3    H123142   3.612   2.272   1.124
 7726TIP3    H223143   3.722   2.364   1.075
 7727TIP3   OH223144   5.399   1.051   4.789
 7727TIP3    H123145   5.409   1.116   4.719
 7727TIP3    H223146   5.482   1.053   4.836
 7728TIP3   OH223147   2.002   5.098   0.978
 7728TIP3    H123148   2.053   5.137   1.050
 7728TIP3    H223149   2.064   5.039   0.935
 7729TIP3   OH223150   2.392   3.474   5.394
 7729TIP3    H123151   2.385   3.567   5.374
 7729TIP3    H223152   2.302   3.447   5.414
 7730TIP3   OH223153   0.383   1.518   0.686
 7730TIP3    H123154   0.471   1.480   0.686
 7730TIP3    H223155   0.393   1.600   0.734
 7731TIP3   OH223156   6.499   5.135   2.568
 7731TIP3    H123157   6.584   5.090   2.578
 7731TIP3    H223158   6.508   5.184   2.486
 7732TIP3   OH223159   6.235   0.361   0.363
 7732TIP3    H123160   6.280   0.404   0.436
 7732TIP3    H223161   6.266   0.271   0.366
 7733TIP3   OH223162   3.675   1.218   0.223
 7733TIP3    H123163   3.608   1.161   0.262
 7733TIP3    H223164   3.624   1.286   0.177
 7734TIP3   OH223165   4.418   0.242   1.598
 7734TIP3    H123166   4.397   0.311   1.535
 7734TIP3    H223167   4.362   0.169   1.572
 7735TIP3   OH223168   5.824   3.642   1.151
 7735TIP3    H123169   5.876   3.695   1.211
 7735TIP3    H223170   5.809   3.699   1.075
 7736TIP3   OH223171   6.638   3.594   3.906
 7736TIP3    H123172   6.614   3.541   3.982
 7736TIP3    H223173   6.734   3.595   3.907
 7737TIP3   OH223174   3.338   6.697   5.704
 7737TIP3    H123175   3.375   6.617   5.740
 7737TIP3    H223176   3.371   6.701   5.614
 7738TIP3   OH223177   5.510   2.697   0.979
 7738TIP3    H123178   5.432   2.745   1.007
 7738TIP3    H223179   5.481   2.643   0.905
 7739TIP3   OH223180   1.308   4.926   4.132
 7739TIP3    H123181   1.283   4.985   4.061
 7739TIP3    H223182   1.404   4.925   4.130
 7740TIP3   OH223183   6.812   4.912   3.041
 7740TIP3    H123184   6.730   4.910   3.091
 7740TIP3    H223185   6.805   4.840   2.979
 7741TIP3   OH223186   3.030   4.563   1.892
 7741TIP3    H123187   3.067   4.500   1.830
 7741TIP3    H223188   3.040   4.648   1.849
 7742TIP3   OH223189   2.419   2.389   4.733
 7742TIP3    H123190   2.416   2.461   4.795
 7742TIP3    H223191   2.401   2.429   4.648
 7743TIP3   OH223192   4.686   4.112   3.627
 7743TIP3    H123193   4.598   4.108   3.664
 7743TIP3    H223194   4.743   4.078   3.696
 7744TIP3   OH223195   1.197   4.196   2.367
 7744TIP3    H123196   1.254   4.124   2.395
 7744TIP3    H223197   1.190   4.184   2.272
 7745TIP3   OH223198   4.668   0.660   4.392
 7745TIP3    H123199   4.613   0.737   4.408
 7745TIP3    H223200   4.757   0.694   4.388
 7746TIP3   OH223201   4.411   0.212   5.135
 7746TIP3    H123202   4.484   0.259   5.175
 7746TIP3    H223203   4.420   0.122   5.166
 7747TIP3   OH223204   5.478   1.735   3.504
 7747TIP3    H123205   5.518   1.814   3.466
 7747TIP3    H223206   5.399   1.721   3.453
 7748TIP3   OH223207   1.120   4.150   2.081
 7748TIP3    H123208   1.104   4.165   1.988
 7748TIP3    H223209   1.111   4.055   2.092
 7749TIP3   OH223210   6.595   0.936   2.819
 7749TIP3    H123211   6.620   0.915   2.729
 7749TIP3    H223212   6.633   0.866   2.872
 7750TIP3   OH223213   2.881   4.118   1.371
 7750TIP3    H123214   2.841   4.041   1.411
 7750TIP3    H223215   2.973   4.115   1.400
 7751TIP3   OH223216   3.953   6.163   4.983
 7751TIP3    H123217   3.984   6.138   5.070
 7751TIP3    H223218   3.869   6.205   4.999
 7752TIP3   OH223219   3.204   5.151   4.299
 7752TIP3    H123220   3.264   5.221   4.275
 7752TIP3    H223221   3.174   5.115   4.215
 7753TIP3   OH223222   4.815   4.636   1.435
 7753TIP3    H123223   4.720   4.640   1.436
 7753TIP3    H223224   4.844   4.727   1.439
 7754TIP3   OH223225   5.039   4.155   2.497
 7754TIP3    H123226   4.993   4.236   2.477
 7754TIP3    H223227   4.984   4.112   2.563
 7755TIP3   OH223228   4.691   0.265   0.377
 7755TIP3    H123229   4.668   0.173   0.370
 7755TIP3    H223230   4.714   0.276   0.470
 7756TIP3   OH223231   2.264   4.767   1.954
 7756TIP3    H123232   2.269   4.751   1.860
 7756TIP3    H223233   2.347   4.735   1.988
 7757TIP3   OH223234   0.563   0.525   5.076
 7757TIP3    H123235   0.525   0.462   5.137
 7757TIP3    H223236   0.636   0.565   5.124
 7758TIP3   OH223237   5.573   5.902   2.723
 7758TIP3    H123238   5.627   5.877   2.648
 7758TIP3    H223239   5.610   5.853   2.797
 7759TIP3   OH223240   7.098   0.971   3.108
 7759TIP3    H123241   7.089   0.981   3.013
 7759TIP3    H223242   7.036   1.035   3.144
 7760TIP3   OH223243   5.945   2.248   2.603
 7760TIP3    H123244   6.030   2.287   2.623
 7760TIP3    H223245   5.884   2.293   2.661
 7761TIP3   OH223246   3.229   3.202   4.514
 7761TIP3    H123247   3.142   3.220   4.549
 7761TIP3    H223248   3.279   3.282   4.532
 7762TIP3   OH223249   1.125   6.817   4.343
 7762TIP3    H123250   1.160   6.785   4.259
 7762TIP3    H223251   1.120   6.739   4.398
 7763TIP3   OH223252   4.364   6.203   2.800
 7763TIP3    H123253   4.382   6.180   2.891
 7763TIP3    H223254   4.401   6.291   2.790
 7764TIP3   OH223255   5.621   1.296   2.760
 7764TIP3    H123256   5.562   1.369   2.779
 7764TIP3    H223257   5.622   1.244   2.840
 7765TIP3   OH223258   5.038   5.623   5.807
 7765TIP3    H123259   5.016   5.552   5.867
 7765TIP3    H223260   5.026   5.586   5.720
 7766TIP3   OH223261   5.371   0.888   5.384
 7766TIP3    H123262   5.356   0.826   5.456
 7766TIP3    H223263   5.283   0.912   5.355
 7767TIP3   OH223264   6.190   3.097   5.357
 7767TIP3    H123265   6.152   3.176   5.397
 7767TIP3    H223266   6.117   3.035   5.355
 7768TIP3   OH223267   6.022   5.766   1.208
 7768TIP3    H123268   6.064   5.848   1.181
 7768TIP3    H223269   6.045   5.704   1.139
 7769TIP3   OH223270   4.748   6.070   0.743
 7769TIP3    H123271   4.828   6.100   0.786
 7769TIP3    H223272   4.703   6.150   0.716
 7770TIP3   OH223273   0.595   4.603   3.907
 7770TIP3    H123274   0.611   4.669   3.975
 7770TIP3    H223275   0.612   4.519   3.949
 7771TIP3   OH223276   1.789   5.820   2.635
 7771TIP3    H123277   1.824   5.860   2.555
 7771TIP3    H223278   1.859   5.829   2.699
 7772TIP3   OH223279   4.576   4.694   4.513
 7772TIP3    H123280   4.609   4.739   4.436
 7772TIP3    H223281   4.623   4.611   4.515
 7773TIP3   OH223282   0.718   2.435   2.239
 7773TIP3    H123283   0.811   2.414   2.249
 7773TIP3    H223284   0.700   2.497   2.310
 7774TIP3   OH223285   1.682   0.430   5.598
 7774TIP3    H123286   1.605   0.479   5.569
 7774TIP3    H223287   1.752   0.495   5.598
 7775TIP3   OH223288   3.617   0.137   4.670
 7775TIP3    H123289   3.536   0.086   4.663
 7775TIP3    H223290   3.678   0.078   4.714
 7776TIP3   OH223291   0.102   6.780   3.307
 7776TIP3    H123292   0.144   6.836   3.372
 7776TIP3    H223293   0.008   6.792   3.323
 7777TIP3   OH223294   1.101   5.921   3.621
 7777TIP3    H123295   1.128   5.930   3.530
 7777TIP3    H223296   1.140   5.997   3.665
 7778TIP3   OH223297   0.871   2.660   0.109
 7778TIP3    H123298   0.862   2.747   0.147
 7778TIP3    H223299   0.852   2.673   0.015
 7779TIP3   OH223300   5.676   0.868   4.931
 7779TIP3    H123301   5.663   0.942   4.872
 7779TIP3    H223302   5.636   0.896   5.013
 7780TIP3   OH223303   1.344   1.521   1.945
 7780TIP3    H123304   1.438   1.517   1.928
 7780TIP3    H223305   1.311   1.589   1.886
 7781TIP3   OH223306   1.902   0.116   2.279
 7781TIP3    H123307   1.966   0.160   2.223
 7781TIP3    H223308   1.876   0.182   2.343
 7782TIP3   OH223309   0.592   4.991   3.976
 7782TIP3    H123310   0.655   4.977   3.905
 7782TIP3    H223311   0.581   5.086   3.980
 7783TIP3   OH223312   3.231   3.665   2.879
 7783TIP3    H123313   3.226   3.590   2.938
 7783TIP3    H223314   3.153   3.717   2.900
 7784TIP3   OH223315   5.617   4.889   3.699
 7784TIP3    H123316   5.618   4.793   3.696
 7784TIP3    H223317   5.537   4.910   3.746
 7785TIP3   OH223318   3.458   6.491   4.747
 7785TIP3    H123319   3.412   6.440   4.680
 7785TIP3    H223320   3.551   6.483   4.723
 7786TIP3   OH223321   7.211   0.059   5.799
 7786TIP3    H123322   7.150   0.027   5.732
 7786TIP3    H223323   7.280  -0.007   5.802
 7787TIP3   OH223324   1.455   4.463   2.127
 7787TIP3    H123325   1.362   4.459   2.149
 7787TIP3    H223326   1.496   4.497   2.206
 7788TIP3   OH223327   1.300   0.082   3.819
 7788TIP3    H123328   1.257   0.166   3.838
 7788TIP3    H223329   1.392   0.097   3.841
 7789TIP3   OH223330   5.602   4.369   2.067
 7789TIP3    H123331   5.616   4.463   2.073
 7789TIP3    H223332   5.641   4.334   2.148
 7790TIP3   OH223333   5.672   1.047   4.700
 7790TIP3    H123334   5.739   1.076   4.638
 7790TIP3    H223335   5.674   1.113   4.770
 7791TIP3   OH223336   5.929   6.408   5.446
 7791TIP3    H123337   5.947   6.321   5.411
 7791TIP3    H223338   5.840   6.428   5.416
 7792TIP3   OH223339   6.593   3.956   0.188
 7792TIP3    H123340   6.557   3.922   0.271
 7792TIP3    H223341   6.622   3.877   0.142
 7793TIP3   OH223342   4.344   0.092   3.386
 7793TIP3    H123343   4.414   0.027   3.383
 7793TIP3    H223344   4.385   0.172   3.353
 7794TIP3   OH223345   0.510   3.695   1.359
 7794TIP3    H123346   0.516   3.766   1.295
 7794TIP3    H223347   0.442   3.637   1.324
 7795TIP3   OH223348   3.702   4.286   0.130
 7795TIP3    H123349   3.648   4.268   0.053
 7795TIP3    H223350   3.641   4.281   0.203
 7796TIP3   OH223351   6.158   6.558   2.775
 7796TIP3    H123352   6.081   6.538   2.829
 7796TIP3    H223353   6.181   6.647   2.801
 7797TIP3   OH223354   6.160   0.362   3.577
 7797TIP3    H123355   6.066   0.366   3.559
 7797TIP3    H223356   6.171   0.281   3.626
 7798TIP3   OH223357   7.170   3.364   0.873
 7798TIP3    H123358   7.167   3.313   0.792
 7798TIP3    H223359   7.167   3.455   0.844
 7799TIP3   OH223360   1.617   4.302   5.337
 7799TIP3    H123361   1.607   4.317   5.431
 7799TIP3    H223362   1.654   4.384   5.304
 7800TIP3   OH223363   0.864   0.310   2.194
 7800TIP3    H123364   0.872   0.370   2.268
 7800TIP3    H223365   0.892   0.225   2.229
 7801TIP3   OH223366   6.399   2.017   4.556
 7801TIP3    H123367   6.386   1.928   4.523
 7801TIP3    H223368   6.311   2.055   4.557
 7802TIP3   OH223369   1.515   4.505   3.113
 7802TIP3    H123370   1.544   4.417   3.090
 7802TIP3    H223371   1.595   4.555   3.127
 7803TIP3   OH223372   6.108   0.140   1.552
 7803TIP3    H123373   6.163   0.118   1.627
 7803TIP3    H223374   6.068   0.223   1.574
 7804TIP3   OH223375   3.201   1.697   5.605
 7804TIP3    H123376   3.289   1.701   5.641
 7804TIP3    H223377   3.150   1.650   5.672
 7805TIP3   OH223378   3.948   4.566   3.892
 7805TIP3    H123379   3.881   4.618   3.936
 7805TIP3    H223380   3.899   4.514   3.828
 7806TIP3   OH223381   2.527   5.737   3.409
 7806TIP3    H123382   2.453   5.797   3.416
 7806TIP3    H223383   2.488   5.652   3.386
 7807TIP3   OH223384   0.971   0.635   2.859
 7807TIP3    H123385   1.000   0.701   2.922
 7807TIP3    H223386   0.963   0.683   2.776
 7808TIP3   OH223387   4.701   2.477   5.697
 7808TIP3    H123388   4.668   2.494   5.786
 7808TIP3    H223389   4.756   2.553   5.677
 7809TIP3   OH223390   1.682   4.147   4.390
 7809TIP3    H123391   1.774   4.173   4.382
 7809TIP3    H223392   1.675   4.115   4.480
 7810TIP3   OH223393   0.906   4.123   4.651
 7810TIP3    H123394   0.895   4.124   4.746
 7810TIP3    H223395   0.931   4.213   4.629
 7811TIP3   OH223396   4.536   0.098   2.768
 7811TIP3    H123397   4.490   0.123   2.687
 7811TIP3    H223398   4.493   0.148   2.836
 7812TIP3   OH223399   5.537   2.715   5.687
 7812TIP3    H123400   5.462   2.710   5.746
 7812TIP3    H223401   5.598   2.649   5.720
 7813TIP3   OH223402   4.122   2.683   3.645
 7813TIP3    H123403   4.100   2.648   3.558
 7813TIP3    H223404   4.073   2.628   3.706
 7814TIP3   OH223405   5.428   1.582   5.727
 7814TIP3    H123406   5.483   1.503   5.730
 7814TIP3    H223407   5.371   1.569   5.652
 7815TIP3   OH223408   3.729   4.303   4.363
 7815TIP3    H123409   3.762   4.373   4.418
 7815TIP3    H223410   3.636   4.324   4.351
 7816TIP3   OH223411   4.847   0.402   0.190
 7816TIP3    H123412   4.805   0.338   0.248
 7816TIP3    H223413   4.914   0.352   0.144
 7817TIP3   OH223414   3.537   5.565   2.389
 7817TIP3    H123415   3.605   5.572   2.322
 7817TIP3    H223416   3.582   5.530   2.465
 7818TIP3   OH223417   0.357   5.170   2.467
 7818TIP3    H123418   0.395   5.082   2.472
 7818TIP3    H223419   0.287   5.170   2.532
 7819TIP3   OH223420   1.256   3.625   1.218
 7819TIP3    H123421   1.334   3.586   1.257
 7819TIP3    H223422   1.241   3.575   1.138
 7820TIP3   OH223423   3.598   5.022   3.757
 7820TIP3    H123424   3.655   4.992   3.828
 7820TIP3    H223425   3.597   5.117   3.764
 7821TIP3   OH223426   7.037   1.041   2.874
 7821TIP3    H123427   7.107   1.099   2.843
 7821TIP3    H223428   6.958   1.076   2.834
 7822TIP3   OH223429   0.840   3.385   4.585
 7822TIP3    H123430   0.867   3.377   4.494
 7822TIP3    H223431   0.778   3.459   4.585
 7823TIP3   OH223432   4.931   3.496   0.225
 7823TIP3    H123433   4.855   3.538   0.264
 7823TIP3    H223434   4.911   3.494   0.131
 7824TIP3   OH223435   5.819   5.680   5.512
 7824TIP3    H123436   5.762   5.604   5.522
 7824TIP3    H223437   5.776   5.733   5.445
 7825TIP3   OH223438   6.392   1.739   4.534
 7825TIP3    H123439   6.485   1.755   4.521
 7825TIP3    H223440   6.385   1.711   4.625
 7826TIP3   OH223441   2.180   0.456   4.730
 7826TIP3    H123442   2.115   0.466   4.799
 7826TIP3    H223443   2.193   0.545   4.696
 7827TIP3   OH223444   0.722   2.426   0.487
 7827TIP3    H123445   0.651   2.464   0.539
 7827TIP3    H223446   0.771   2.502   0.455
 7828TIP3   OH223447   0.950   4.971   2.923
 7828TIP3    H123448   0.887   4.901   2.940
 7828TIP3    H223449   0.948   5.025   3.001
 7829TIP3   OH223450   0.830   0.308   2.663
 7829TIP3    H123451   0.749   0.350   2.695
 7829TIP3    H223452   0.850   0.354   2.582
 7830TIP3   OH223453   1.869   3.752   1.125
 7830TIP3    H123454   1.903   3.679   1.073
 7830TIP3    H223455   1.945   3.784   1.174
 7831TIP3   OH223456   5.698   6.357   1.324
 7831TIP3    H123457   5.616   6.361   1.274
 7831TIP3    H223458   5.727   6.448   1.330
 7832TIP3   OH223459   6.919   6.285   5.305
 7832TIP3    H123460   7.008   6.288   5.270
 7832TIP3    H223461   6.880   6.208   5.263
 7833TIP3   OH223462   1.122   1.071   3.209
 7833TIP3    H123463   1.126   1.032   3.296
 7833TIP3    H223464   1.204   1.120   3.202
 7834TIP3   OH223465   1.167   1.527   3.228
 7834TIP3    H123466   1.134   1.505   3.141
 7834TIP3    H223467   1.253   1.565   3.213
 7835TIP3   OH223468   4.535   3.515   4.800
 7835TIP3    H123469   4.564   3.515   4.708
 7835TIP3    H223470   4.615   3.498   4.850
 7836TIP3   OH223471   6.729   6.765   5.503
 7836TIP3    H123472   6.724   6.682   5.456
 7836TIP3    H223473   6.642   6.775   5.543
 7837TIP3   OH223474   4.687   4.383   1.867
 7837TIP3    H123475   4.690   4.288   1.883
 7837TIP3    H223476   4.777   4.413   1.879
 7838TIP3   OH223477   7.121   0.526   3.258
 7838TIP3    H123478   7.122   0.471   3.337
 7838TIP3    H223479   7.206   0.570   3.259
 7839TIP3   OH223480   4.293   6.245   3.906
 7839TIP3    H123481   4.229   6.293   3.854
 7839TIP3    H223482   4.335   6.312   3.960
 7840TIP3   OH223483   5.266   3.099   0.894
 7840TIP3    H123484   5.244   3.052   0.974
 7840TIP3    H223485   5.183   3.111   0.849
 7841TIP3   OH223486   2.863   0.373   4.775
 7841TIP3    H123487   2.875   0.467   4.761
 7841TIP3    H223488   2.921   0.353   4.849
 7842TIP3   OH223489   0.697   4.624   4.937
 7842TIP3    H123490   0.780   4.671   4.948
 7842TIP3    H223491   0.688   4.615   4.842
 7843TIP3   OH223492   0.612   5.400   5.432
 7843TIP3    H123493   0.586   5.378   5.343
 7843TIP3    H223494   0.645   5.490   5.426
 7844TIP3   OH223495   3.515   3.123   4.577
 7844TIP3    H123496   3.558   3.188   4.523
 7844TIP3    H223497   3.422   3.132   4.557
 7845TIP3   OH223498   3.337   4.119   2.567
 7845TIP3    H123499   3.345   4.029   2.598
 7845TIP3    H223500   3.273   4.115   2.496
 7846TIP3   OH223501   2.120   4.251   2.445
 7846TIP3    H123502   2.086   4.336   2.471
 7846TIP3    H223503   2.094   4.241   2.354
 7847TIP3   OH223504   6.854   4.586   0.192
 7847TIP3    H123505   6.786   4.521   0.176
 7847TIP3    H223506   6.851   4.601   0.286
 7848TIP3   OH223507   0.100   5.280   0.505
 7848TIP3    H123508   0.138   5.193   0.516
 7848TIP3    H223509   0.169   5.332   0.463
 7849TIP3   OH223510   4.522   4.776   0.177
 7849TIP3    H123511   4.553   4.772   0.268
 7849TIP3    H223512   4.464   4.852   0.174
 7850TIP3   OH223513   6.817   6.564   5.745
 7850TIP3    H123514   6.892   6.506   5.731
 7850TIP3    H223515   6.847   6.650   5.718
 7851TIP3   OH223516   5.073   6.236   0.375
 7851TIP3    H123517   5.124   6.225   0.455
 7851TIP3    H223518   4.985   6.204   0.397
 7852TIP3   OH223519   2.969   1.297   3.423
 7852TIP3    H123520   2.936   1.221   3.374
 7852TIP3    H223521   3.013   1.351   3.358
 7853TIP3   OH223522   5.837   4.656   2.080
 7853TIP3    H123523   5.903   4.636   2.147
 7853TIP3    H223524   5.761   4.686   2.129
 7854TIP3   OH223525   0.986   2.394   2.245
 7854TIP3    H123526   1.016   2.331   2.178
 7854TIP3    H223527   1.060   2.452   2.257
 7855TIP3   OH223528   6.085   5.395   3.159
 7855TIP3    H123529   6.157   5.402   3.222
 7855TIP3    H223530   6.013   5.357   3.209
 7856TIP3   OH223531   6.143   1.505   5.130
 7856TIP3    H123532   6.108   1.567   5.066
 7856TIP3    H223533   6.178   1.433   5.077
 7857TIP3   OH223534   0.721   6.365   4.006
 7857TIP3    H123535   0.687   6.431   3.946
 7857TIP3    H223536   0.816   6.365   3.991
 7858TIP3   OH223537   1.353   4.420   0.994
 7858TIP3    H123538   1.395   4.484   1.052
 7858TIP3    H223539   1.262   4.416   1.023
 7859TIP3   OH223540   3.487   4.489   4.885
 7859TIP3    H123541   3.532   4.404   4.881
 7859TIP3    H223542   3.479   4.515   4.793
 7860TIP3   OH223543   6.067   0.198   4.135
 7860TIP3    H123544   6.120   0.278   4.133
 7860TIP3    H223545   5.977   0.229   4.141
 7861TIP3   OH223546   0.841   1.454   2.999
 7861TIP3    H123547   0.809   1.414   3.080
 7861TIP3    H223548   0.808   1.544   3.003
 7862TIP3   OH223549   0.228   2.829   3.526
 7862TIP3    H123550   0.162   2.812   3.593
 7862TIP3    H223551   0.280   2.748   3.521
 7863TIP3   OH223552   2.911   6.406   1.393
 7863TIP3    H123553   2.995   6.372   1.362
 7863TIP3    H223554   2.903   6.375   1.483
 7864TIP3   OH223555   5.575   2.048   4.413
 7864TIP3    H123556   5.623   1.977   4.371
 7864TIP3    H223557   5.584   2.031   4.507
 7865TIP3   OH223558   5.770   3.934   5.579
 7865TIP3    H123559   5.769   4.007   5.517
 7865TIP3    H223560   5.856   3.937   5.619
 7866TIP3   OH223561   0.696   4.946   0.401
 7866TIP3    H123562   0.739   5.030   0.385
 7866TIP3    H223563   0.746   4.884   0.348
 7867TIP3   OH223564   3.938   1.400   3.072
 7867TIP3    H123565   3.870   1.334   3.082
 7867TIP3    H223566   3.946   1.439   3.160
 7868TIP3   OH223567   2.504   0.945   3.994
 7868TIP3    H123568   2.587   0.897   3.994
 7868TIP3    H223569   2.445   0.890   3.943
 7869TIP3   OH223570   2.389   0.646   3.923
 7869TIP3    H123571   2.300   0.637   3.956
 7869TIP3    H223572   2.443   0.597   3.985
 7870TIP3   OH223573   3.811   0.076   0.412
 7870TIP3    H123574   3.831  -0.018   0.412
 7870TIP3    H223575   3.882   0.115   0.463
 7871TIP3   OH223576   0.522   1.406   4.013
 7871TIP3    H123577   0.594   1.351   3.981
 7871TIP3    H223578   0.563   1.491   4.029
 7872TIP3   OH223579   5.356   2.477   5.574
 7872TIP3    H123580   5.426   2.532   5.609
 7872TIP3    H223581   5.312   2.442   5.651
 7873TIP3   OH223582   0.374   6.344   5.807
 7873TIP3    H123583   0.380   6.439   5.801
 7873TIP3    H223584   0.323   6.327   5.886
 7874TIP3   OH223585   0.947   0.197   2.923
 7874TIP3    H123586   0.864   0.154   2.945
 7874TIP3    H223587   0.928   0.246   2.843
 7875TIP3   OH223588   1.152   3.731   4.678
 7875TIP3    H123589   1.059   3.723   4.657
 7875TIP3    H223590   1.180   3.809   4.631
 7876TIP3   OH223591   3.931   4.721   2.315
 7876TIP3    H123592   3.972   4.665   2.250
 7876TIP3    H223593   3.858   4.762   2.269
 7877TIP3   OH223594   6.775   6.318   0.205
 7877TIP3    H123595   6.847   6.362   0.250
 7877TIP3    H223596   6.738   6.384   0.147
 7878TIP3   OH223597   4.916   0.876   5.189
 7878TIP3    H123598   5.000   0.835   5.169
 7878TIP3    H223599   4.852   0.825   5.140
 7879TIP3   OH223600   4.396   1.755   3.922
 7879TIP3    H123601   4.440   1.803   3.992
 7879TIP3    H223602   4.464   1.702   3.882
 7880TIP3   OH223603   2.502   3.581   4.306
 7880TIP3    H123604   2.456   3.541   4.232
 7880TIP3    H223605   2.591   3.545   4.301
 7881TIP3   OH223606   6.078   6.472   4.022
 7881TIP3    H123607   6.169   6.473   3.994
 7881TIP3    H223608   6.034   6.532   3.961
 7882TIP3   OH223609   6.859   1.020   5.082
 7882TIP3    H123610   6.905   1.053   5.159
 7882TIP3    H223611   6.828   1.099   5.038
 7883TIP3   OH223612   1.153   1.622   3.546
 7883TIP3    H123613   1.132   1.697   3.601
 7883TIP3    H223614   1.135   1.652   3.457
 7884TIP3   OH223615   1.327   2.420   1.554
 7884TIP3    H123616   1.416   2.454   1.559
 7884TIP3    H223617   1.290   2.463   1.476
 7885TIP3   OH223618   4.000   6.094   1.283
 7885TIP3    H123619   4.007   6.046   1.366
 7885TIP3    H223620   3.992   6.026   1.216
 7886TIP3   OH223621   1.345   4.592   2.663
 7886TIP3    H123622   1.388   4.672   2.695
 7886TIP3    H223623   1.254   4.601   2.691
 7887TIP3   OH223624   5.612   0.133   2.954
 7887TIP3    H123625   5.527   0.148   2.912
 7887TIP3    H223626   5.593   0.139   3.047
 7888TIP3   OH223627   2.157   4.151   4.183
 7888TIP3    H123628   2.124   4.215   4.247
 7888TIP3    H223629   2.124   4.182   4.099
 7889TIP3   OH223630   4.223   0.140   0.144
 7889TIP3    H123631   4.175   0.176   0.070
 7889TIP3    H223632   4.191   0.051   0.153
 7890TIP3   OH223633   5.205   1.163   5.042
 7890TIP3    H123634   5.266   1.112   4.988
 7890TIP3    H223635   5.182   1.104   5.114
 7891TIP3   OH223636   3.157   5.378   3.948
 7891TIP3    H123637   3.200   5.294   3.933
 7891TIP3    H223638   3.064   5.356   3.955
 7892TIP3   OH223639   0.611   5.588   0.194
 7892TIP3    H123640   0.550   5.547   0.133
 7892TIP3    H223641   0.558   5.610   0.270
 7893TIP3   OH223642   2.237   3.841   2.384
 7893TIP3    H123643   2.186   3.761   2.397
 7893TIP3    H223644   2.210   3.873   2.298
 7894TIP3   OH223645   4.725   3.700   2.064
 7894TIP3    H123646   4.813   3.730   2.041
 7894TIP3    H223647   4.697   3.648   1.990
 7895TIP3   OH223648   3.625   4.234   2.327
 7895TIP3    H123649   3.635   4.194   2.413
 7895TIP3    H223650   3.551   4.188   2.287
 7896TIP3   OH223651   6.783   6.757   2.979
 7896TIP3    H123652   6.714   6.710   2.930
 7896TIP3    H223653   6.848   6.780   2.913
 7897TIP3   OH223654   7.127   2.999   5.422
 7897TIP3    H123655   7.074   2.950   5.358
 7897TIP3    H223656   7.114   3.091   5.399
 7898TIP3   OH223657   4.220   4.927   0.841
 7898TIP3    H123658   4.276   4.965   0.909
 7898TIP3    H223659   4.261   4.953   0.759
 7899TIP3   OH223660   3.420   1.684   4.881
 7899TIP3    H123661   3.387   1.772   4.862
 7899TIP3    H223662   3.360   1.626   4.835
 7900TIP3   OH223663   3.105   0.626   5.162
 7900TIP3    H123664   3.198   0.639   5.184
 7900TIP3    H223665   3.079   0.707   5.119
 7901TIP3   OH223666   6.235   2.920   2.276
 7901TIP3    H123667   6.161   2.940   2.220
 7901TIP3    H223668   6.197   2.905   2.362
 7902TIP3   OH223669   2.262   5.421   4.893
 7902TIP3    H123670   2.348   5.381   4.877
 7902TIP3    H223671   2.201   5.347   4.895
 7903TIP3   OH223672   2.635   3.933   0.517
 7903TIP3    H123673   2.688   3.854   0.529
 7903TIP3    H223674   2.597   3.923   0.429
 7904TIP3   OH223675   6.180   2.829   4.129
 7904TIP3    H123676   6.161   2.745   4.087
 7904TIP3    H223677   6.274   2.840   4.119
 7905TIP3   OH223678   5.516   5.125   3.848
 7905TIP3    H123679   5.508   5.191   3.916
 7905TIP3    H223680   5.587   5.156   3.792
 7906TIP3   OH223681   5.869   6.594   2.265
 7906TIP3    H123682   5.813   6.550   2.201
 7906TIP3    H223683   5.835   6.566   2.350
 7907TIP3   OH223684   7.004   2.550   2.409
 7907TIP3    H123685   6.949   2.628   2.400
 7907TIP3    H223686   7.049   2.562   2.492
 7908TIP3   OH223687   2.895   4.038   3.406
 7908TIP3    H123688   2.844   4.114   3.435
 7908TIP3    H223689   2.891   3.977   3.480
 7909TIP3   OH223690   3.964   5.438   2.834
 7909TIP3    H123691   3.914   5.504   2.786
 7909TIP3    H223692   3.907   5.412   2.906
 7910TIP3   OH223693   5.755   1.636   3.381
 7910TIP3    H123694   5.691   1.705   3.360
 7910TIP3    H223695   5.718   1.592   3.457
 7911TIP3   OH223696   1.881   6.453  -0.014
 7911TIP3    H123697   1.868   6.547   0.000
 7911TIP3    H223698   1.824   6.412   0.051
 7912TIP3   OH223699   5.313   6.809   5.540
 7912TIP3    H123700   5.231   6.811   5.490
 7912TIP3    H223701   5.294   6.752   5.614
 7913TIP3   OH223702   5.691   1.651   5.095
 7913TIP3    H123703   5.764   1.713   5.095
 7913TIP3    H223704   5.680   1.628   5.003
 7914TIP3   OH223705   3.037   3.844   4.042
 7914TIP3    H123706   3.122   3.831   4.084
 7914TIP3    H223707   3.039   3.934   4.009
 7915TIP3   OH223708   6.330   5.829   4.041
 7915TIP3    H123709   6.242   5.867   4.038
 7915TIP3    H223710   6.377   5.874   3.971
 7916TIP3   OH223711   4.112   1.115   5.285
 7916TIP3    H123712   4.064   1.098   5.204
 7916TIP3    H223713   4.075   1.053   5.348
 7917TIP3   OH223714   0.688   5.089   1.798
 7917TIP3    H123715   0.669   5.062   1.708
 7917TIP3    H223716   0.776   5.054   1.815
 7918TIP3   OH223717   1.428   3.218   1.340
 7918TIP3    H123718   1.467   3.297   1.302
 7918TIP3    H223719   1.492   3.149   1.323
 7919TIP3   OH223720   3.782   1.938   2.325
 7919TIP3    H123721   3.842   1.933   2.399
 7919TIP3    H223722   3.822   2.000   2.265
 7920TIP3   OH223723   0.938   5.778   5.896
 7920TIP3    H123724   0.938   5.683   5.907
 7920TIP3    H223725   0.914   5.791   5.804
 7921TIP3   OH223726   5.775   6.140   1.055
 7921TIP3    H123727   5.733   6.158   0.970
 7921TIP3    H223728   5.775   6.045   1.062
 7922TIP3   OH223729   4.419   3.760   1.382
 7922TIP3    H123730   4.371   3.830   1.425
 7922TIP3    H223731   4.400   3.771   1.289
 7923TIP3   OH223732   2.027   1.218   2.154
 7923TIP3    H123733   1.988   1.256   2.233
 7923TIP3    H223734   2.078   1.290   2.116
 7924TIP3   OH223735   7.056   3.929   2.868
 7924TIP3    H123736   7.146   3.952   2.843
 7924TIP3    H223737   7.058   3.926   2.964
 7925TIP3   OH223738   2.173   0.269   3.264
 7925TIP3    H123739   2.246   0.293   3.208
 7925TIP3    H223740   2.204   0.192   3.312
 7926TIP3   OH223741   2.194   4.291   0.936
 7926TIP3    H123742   2.229   4.264   1.021
 7926TIP3    H223743   2.229   4.227   0.874
 7927TIP3   OH223744   2.992   6.658   0.764
 7927TIP3    H123745   3.019   6.747   0.743
 7927TIP3    H223746   2.899   6.655   0.741
 7928TIP3   OH223747   6.202   0.249   5.326
 7928TIP3    H123748   6.241   0.319   5.273
 7928TIP3    H223749   6.206   0.282   5.416
 7929TIP3   OH223750   6.347   1.330   0.397
 7929TIP3    H123751   6.305   1.300   0.478
 7929TIP3    H223752   6.424   1.273   0.389
 7930TIP3   OH223753   3.338   3.547   4.334
 7930TIP3    H123754   3.383   3.541   4.249
 7930TIP3    H223755   3.351   3.461   4.373
 7931TIP3   OH223756   1.458   2.174   2.934
 7931TIP3    H123757   1.429   2.099   2.883
 7931TIP3    H223758   1.477   2.138   3.021
 7932TIP3   OH223759   4.571   2.907   2.496
 7932TIP3    H123760   4.602   2.966   2.564
 7932TIP3    H223761   4.585   2.819   2.531
 7933TIP3   OH223762   7.038   3.010   1.690
 7933TIP3    H123763   6.992   2.929   1.669
 7933TIP3    H223764   6.968   3.073   1.708
 7934TIP3   OH223765   3.995   6.715   5.022
 7934TIP3    H123766   4.054   6.741   5.094
 7934TIP3    H223767   4.048   6.655   4.969
 7935TIP3   OH223768   3.257   6.501   0.745
 7935TIP3    H123769   3.168   6.526   0.771
 7935TIP3    H223770   3.285   6.570   0.685
 7936TIP3   OH223771   3.395   1.459   5.268
 7936TIP3    H123772   3.423   1.515   5.340
 7936TIP3    H223773   3.363   1.521   5.201
 7937TIP3   OH223774   0.224   2.153   1.588
 7937TIP3    H123775   0.297   2.166   1.649
 7937TIP3    H223776   0.146   2.149   1.644
 7938TIP3   OH223777   7.012   6.111   2.597
 7938TIP3    H123778   6.980   6.025   2.569
 7938TIP3    H223779   7.005   6.166   2.519
 7939TIP3   OH223780   3.810   4.712   1.195
 7939TIP3    H123781   3.869   4.650   1.236
 7939TIP3    H223782   3.735   4.660   1.167
 7940TIP3   OH223783   3.596   3.497   1.163
 7940TIP3    H123784   3.640   3.466   1.242
 7940TIP3    H223785   3.657   3.560   1.124
 7941TIP3   OH223786   3.670   3.846   1.695
 7941TIP3    H123787   3.622   3.819   1.617
 7941TIP3    H223788   3.699   3.764   1.736
 7942TIP3   OH223789   3.783   4.152   0.909
 7942TIP3    H123790   3.785   4.147   0.813
 7942TIP3    H223791   3.716   4.089   0.934
 7943TIP3   OH223792   1.346   5.893   0.837
 7943TIP3    H123793   1.351   5.800   0.860
 7943TIP3    H223794   1.274   5.927   0.890
 7944TIP3   OH223795   5.096   0.318   0.083
 7944TIP3    H123796   5.085   0.267   0.003
 7944TIP3    H223797   5.084   0.409   0.055
 7945TIP3   OH223798   3.053   6.599   4.396
 7945TIP3    H123799   3.135   6.634   4.360
 7945TIP3    H223800   3.049   6.634   4.485
 7946TIP3   OH223801   4.188   4.737   1.164
 7946TIP3    H123802   4.175   4.710   1.073
 7946TIP3    H223803   4.253   4.677   1.199
 7947TIP3   OH223804   2.645   5.230   1.690
 7947TIP3    H123805   2.660   5.307   1.745
 7947TIP3    H223806   2.725   5.178   1.700
 7948TIP3   OH223807   5.007   1.449   0.241
 7948TIP3    H123808   4.983   1.512   0.174
 7948TIP3    H223809   5.102   1.442   0.235
 7949TIP3   OH223810   2.361   1.056   3.217
 7949TIP3    H123811   2.266   1.055   3.214
 7949TIP3    H223812   2.388   1.043   3.126
 7950TIP3   OH223813   5.430   2.691   2.789
 7950TIP3    H123814   5.479   2.765   2.825
 7950TIP3    H223815   5.495   2.639   2.742
 7951TIP3   OH223816   0.539   5.313   0.534
 7951TIP3    H123817   0.508   5.377   0.599
 7951TIP3    H223818   0.624   5.348   0.505
 7952TIP3   OH223819   0.994   5.261   3.900
 7952TIP3    H123820   0.942   5.203   3.844
 7952TIP3    H223821   1.033   5.324   3.840
 7953TIP3   OH223822   6.582   4.875   3.893
 7953TIP3    H123823   6.564   4.910   3.981
 7953TIP3    H223824   6.677   4.864   3.891
 7954TIP3   OH223825   2.236   0.844   4.242
 7954TIP3    H123826   2.170   0.847   4.312
 7954TIP3    H223827   2.278   0.759   4.252
 7955TIP3   OH223828   4.351   0.079   2.300
 7955TIP3    H123829   4.375   0.116   2.216
 7955TIP3    H223830   4.257   0.061   2.293
 7956TIP3   OH223831   6.016   3.617   1.746
 7956TIP3    H123832   6.037   3.699   1.702
 7956TIP3    H223833   5.957   3.572   1.686
 7957TIP3   OH223834   6.475   4.031   4.877
 7957TIP3    H123835   6.399   4.006   4.825
 7957TIP3    H223836   6.515   4.104   4.829
 7958TIP3   OH223837   5.503   4.518   1.750
 7958TIP3    H123838   5.599   4.523   1.753
 7958TIP3    H223839   5.474   4.604   1.779
 7959TIP3   OH223840   1.833   5.901   4.354
 7959TIP3    H123841   1.840   5.875   4.445
 7959TIP3    H223842   1.922   5.929   4.330
 7960TIP3   OH223843   5.349   2.964   1.279
 7960TIP3    H123844   5.278   2.904   1.259
 7960TIP3    H223845   5.358   2.959   1.374
 7961TIP3   OH223846   0.535   4.956   1.997
 7961TIP3    H123847   0.563   4.997   1.916
 7961TIP3    H223848   0.596   4.988   2.063
 7962TIP3   OH223849   6.791   2.136   0.219
 7962TIP3    H123850   6.804   2.056   0.168
 7962TIP3    H223851   6.774   2.105   0.308
 7963TIP3   OH223852   3.133   3.167   1.108
 7963TIP3    H123853   3.202   3.127   1.054
 7963TIP3    H223854   3.179   3.222   1.170
 7964TIP3   OH223855   6.979   0.932   0.888
 7964TIP3    H123856   7.043   0.881   0.838
 7964TIP3    H223857   6.975   1.017   0.844
 7965TIP3   OH223858   5.037   6.506   0.621
 7965TIP3    H123859   4.961   6.452   0.598
 7965TIP3    H223860   5.043   6.500   0.716
 7966TIP3   OH223861   2.477   6.206   5.129
 7966TIP3    H123862   2.547   6.165   5.078
 7966TIP3    H223863   2.518   6.229   5.213
 7967TIP3   OH223864   3.623   4.607   4.325
 7967TIP3    H123865   3.536   4.606   4.287
 7967TIP3    H223866   3.631   4.694   4.366
 7968TIP3   OH223867   4.036   2.908   0.022
 7968TIP3    H123868   4.056   2.863   0.104
 7968TIP3    H223869   4.027   3.000   0.046
 7969TIP3   OH223870   4.514   0.705   0.173
 7969TIP3    H123871   4.483   0.689   0.261
 7969TIP3    H223872   4.485   0.629   0.122
 7970TIP3   OH223873   1.819   1.102   4.967
 7970TIP3    H123874   1.734   1.135   4.938
 7970TIP3    H223875   1.883   1.160   4.928
 7971TIP3   OH223876   2.677   5.714   2.695
 7971TIP3    H123877   2.715   5.735   2.780
 7971TIP3    H223878   2.746   5.666   2.649
 7972TIP3   OH223879   2.106   6.738   5.336
 7972TIP3    H123880   2.132   6.665   5.393
 7972TIP3    H223881   2.131   6.709   5.248
 7973TIP3   OH223882   1.600   6.747   3.701
 7973TIP3    H123883   1.615   6.836   3.732
 7973TIP3    H223884   1.538   6.757   3.628
 7974TIP3   OH223885   1.205   4.494   1.911
 7974TIP3    H123886   1.254   4.411   1.913
 7974TIP3    H223887   1.143   4.487   1.983
 7975TIP3   OH223888   5.999   6.223   3.387
 7975TIP3    H123889   5.918   6.230   3.437
 7975TIP3    H223890   5.984   6.153   3.325
 7976TIP3   OH223891   5.652   3.812   4.725
 7976TIP3    H123892   5.666   3.825   4.631
 7976TIP3    H223893   5.647   3.718   4.736
 7977TIP3   OH223894   0.204   3.331   1.886
 7977TIP3    H123895   0.293   3.366   1.883
 7977TIP3    H223896   0.161   3.380   1.955
 7978TIP3   OH223897   0.263   2.071   3.244
 7978TIP3    H123898   0.219   2.147   3.204
 7978TIP3    H223899   0.356   2.086   3.227
 7979TIP3   OH223900   1.261   0.115   5.830
 7979TIP3    H123901   1.194   0.091   5.766
 7979TIP3    H223902   1.214   0.165   5.897
 7980TIP3   OH223903   2.995   2.195   0.573
 7980TIP3    H123904   2.936   2.270   0.589
 7980TIP3    H223905   2.958   2.151   0.497
 7981TIP3   OH223906   5.663   4.596   4.582
 7981TIP3    H123907   5.694   4.620   4.669
 7981TIP3    H223908   5.733   4.542   4.545
 7982TIP3   OH223909   4.318   6.093   1.726
 7982TIP3    H123910   4.234   6.139   1.718
 7982TIP3    H223911   4.371   6.149   1.781
 7983TIP3   OH223912   3.575   5.441   3.487
 7983TIP3    H123913   3.545   5.441   3.396
 7983TIP3    H223914   3.620   5.358   3.498
 7984TIP3   OH223915  -0.012   0.131   0.153
 7984TIP3    H123916   0.000   0.061   0.217
 7984TIP3    H223917   0.076   0.163   0.137
 7985TIP3   OH223918   5.253   3.903   3.806
 7985TIP3    H123919   5.196   3.866   3.738
 7985TIP3    H223920   5.321   3.837   3.818
 7986TIP3   OH223921   5.149   6.421   3.067
 7986TIP3    H123922   5.223   6.364   3.086
 7986TIP3    H223923   5.156   6.492   3.130
 7987TIP3   OH223924   0.275   5.556   2.472
 7987TIP3    H123925   0.312   5.531   2.557
 7987TIP3    H223926   0.306   5.645   2.457
 7988TIP3   OH223927   3.797   5.284   2.232
 7988TIP3    H123928   3.856   5.213   2.259
 7988TIP3    H223929   3.710   5.245   2.235
 7989TIP3   OH223930   4.583   5.446   5.693
 7989TIP3    H123931   4.510   5.393   5.660
 7989TIP3    H223932   4.658   5.421   5.639
 7990TIP3   OH223933   1.706   1.696   3.760
 7990TIP3    H123934   1.734   1.661   3.844
 7990TIP3    H223935   1.760   1.773   3.746
 7991TIP3   OH223936   3.612   4.111   2.908
 7991TIP3    H123937   3.537   4.170   2.897
 7991TIP3    H223938   3.671   4.158   2.967
 7992TIP3   OH223939   5.680   5.760   2.927
 7992TIP3    H123940   5.675   5.749   3.022
 7992TIP3    H223941   5.705   5.674   2.894
 7993TIP3   OH223942   6.913   0.780   2.825
 7993TIP3    H123943   6.963   0.859   2.805
 7993TIP3    H223944   6.857   0.805   2.899
 7994TIP3   OH223945   3.098   6.558   3.357
 7994TIP3    H123946   3.009   6.580   3.329
 7994TIP3    H223947   3.154   6.590   3.286
 7995TIP3   OH223948   4.773   2.606   3.585
 7995TIP3    H123949   4.732   2.521   3.569
 7995TIP3    H223950   4.737   2.662   3.516
 7996TIP3   OH223951   5.326   1.470   3.562
 7996TIP3    H123952   5.398   1.497   3.505
 7996TIP3    H223953   5.291   1.392   3.521
 7997TIP3   OH223954   2.582   3.015   3.070
 7997TIP3    H123955   2.640   2.965   3.013
 7997TIP3    H223956   2.625   3.100   3.079
 7998TIP3   OH223957   3.117   1.382   4.210
 7998TIP3    H123958   3.040   1.384   4.152
 7998TIP3    H223959   3.142   1.290   4.213
 7999TIP3   OH223960   5.243   4.904   3.044
 7999TIP3    H123961   5.298   4.913   3.122
 7999TIP3    H223962   5.303   4.873   2.976
 8000TIP3   OH223963   7.249   4.970   1.010
 8000TIP3    H123964   7.217   4.880   1.020
 8000TIP3    H223965   7.171   5.022   0.993
 8001TIP3   OH223966   0.908   6.326   4.298
 8001TIP3    H123967   0.986   6.302   4.248
 8001TIP3    H223968   0.840   6.341   4.233
 8002TIP3   OH223969   4.675   5.532   2.521
 8002TIP3    H123970   4.738   5.603   2.533
 8002TIP3    H223971   4.670   5.490   2.607
 8003TIP3   OH223972   1.439   1.774   5.852
 8003TIP3    H123973   1.485   1.731   5.924
 8003TIP3    H223974   1.510   1.805   5.795
 8004TIP3   OH223975   6.035   4.630   2.248
 8004TIP3    H123976   6.121   4.673   2.255
 8004TIP3    H223977   5.989   4.656   2.328
 8005TIP3   OH223978   0.096   5.955   5.762
 8005TIP3    H123979   0.110   5.879   5.819
 8005TIP3    H223980   0.124   6.030   5.815
 8006TIP3   OH223981   0.622   4.606   4.391
 8006TIP3    H123982   0.533   4.605   4.355
 8006TIP3    H223983   0.673   4.655   4.326
 8007TIP3   OH223984   6.418   5.670   1.364
 8007TIP3    H123985   6.435   5.579   1.389
 8007TIP3    H223986   6.460   5.722   1.433
 8008TIP3   OH223987   6.016   0.955   5.116
 8008TIP3    H123988   5.956   0.911   5.176
 8008TIP3    H223989   6.078   1.000   5.174
 8009TIP3   OH223990   3.533   0.991   2.843
 8009TIP3    H123991   3.568   0.975   2.930
 8009TIP3    H223992   3.570   0.921   2.789
 8010TIP3   OH223993   7.055   5.817   3.618
 8010TIP3    H123994   6.981   5.865   3.655
 8010TIP3    H223995   7.122   5.884   3.601
 8011TIP3   OH223996   0.205   3.758   0.425
 8011TIP3    H123997   0.290   3.714   0.428
 8011TIP3    H223998   0.225   3.849   0.447
 8012TIP3   OH223999   1.223   1.308   2.056
 8012TIP3    H124000   1.268   1.267   2.129
 8012TIP3    H224001   1.288   1.368   2.018
 8013TIP3   OH224002   4.233   5.398   1.991
 8013TIP3    H124003   4.261   5.424   1.903
 8013TIP3    H224004   4.275   5.462   2.049
 8014TIP3   OH224005   2.344   3.608   1.906
 8014TIP3    H124006   2.281   3.541   1.931
 8014TIP3    H224007   2.295   3.690   1.913
 8015TIP3   OH224008   0.871   0.682   4.328
 8015TIP3    H124009   0.820   0.763   4.333
 8015TIP3    H224010   0.815   0.622   4.278
 8016TIP3   OH224011   0.250   4.585   2.679
 8016TIP3    H124012   0.266   4.519   2.611
 8016TIP3    H224013   0.157   4.606   2.670
 8017TIP3   OH224014   4.064   5.034   4.690
 8017TIP3    H124015   4.119   5.086   4.631
 8017TIP3    H224016   4.057   5.087   4.769
 8018TIP3   OH224017   0.630   3.644   5.794
 8018TIP3    H124018   0.649   3.717   5.852
 8018TIP3    H224019   0.535   3.635   5.798
 8019TIP3   OH224020   6.670   3.307   1.313
 8019TIP3    H124021   6.713   3.264   1.387
 8019TIP3    H224022   6.735   3.307   1.244
 8020TIP3   OH224023   4.724   1.922   0.283
 8020TIP3    H124024   4.697   1.961   0.367
 8020TIP3    H224025   4.784   1.852   0.308
 8021TIP3   OH224026   0.480   6.676   4.325
 8021TIP3    H124027   0.494   6.727   4.246
 8021TIP3    H224028   0.493   6.738   4.397
 8022TIP3   OH224029   0.076   1.475   5.403
 8022TIP3    H124030   0.115   1.484   5.490
 8022TIP3    H224031   0.077   1.382   5.385
 8023TIP3   OH224032   7.197   1.315   5.821
 8023TIP3    H124033   7.185   1.221   5.807
 8023TIP3    H224034   7.111   1.346   5.850
 8024TIP3   OH224035   6.300   6.727   2.067
 8024TIP3    H124036   6.317   6.762   1.979
 8024TIP3    H224037   6.216   6.763   2.092
 8025TIP3   OH224038   0.070   6.055   1.559
 8025TIP3    H124039   0.044   6.145   1.545
 8025TIP3    H224040   0.066   6.015   1.472
 8026TIP3   OH224041   3.543   1.262   2.726
 8026TIP3    H124042   3.490   1.189   2.759
 8026TIP3    H224043   3.517   1.272   2.635
 8027TIP3   OH224044   0.542   2.447   4.704
 8027TIP3    H124045   0.598   2.370   4.713
 8027TIP3    H224046   0.587   2.515   4.753
 8028TIP3   OH224047   3.104   2.434   5.840
 8028TIP3    H124048   3.123   2.417   5.748
 8028TIP3    H224049   3.031   2.496   5.839
 8029TIP3   OH224050   4.707   1.532   0.361
 8029TIP3    H124051   4.700   1.440   0.385
 8029TIP3    H224052   4.791   1.560   0.398
 8030TIP3   OH224053   0.144   5.823   0.600
 8030TIP3    H124054   0.142   5.913   0.568
 8030TIP3    H224055   0.211   5.822   0.668
 8031TIP3   OH224056   4.945   2.061   4.423
 8031TIP3    H124057   4.889   1.996   4.467
 8031TIP3    H224058   4.910   2.067   4.335
 8032TIP3   OH224059   2.249   3.105   3.639
 8032TIP3    H124060   2.266   3.186   3.688
 8032TIP3    H224061   2.277   3.126   3.549
 8033TIP3   OH224062   0.242   3.017   2.618
 8033TIP3    H124063   0.235   3.100   2.666
 8033TIP3    H224064   0.273   3.043   2.531
 8034TIP3   OH224065   7.017   1.567   3.842
 8034TIP3    H124066   6.953   1.630   3.875
 8034TIP3    H224067   7.102   1.607   3.861
 8035TIP3   OH224068   0.193   2.282   5.852
 8035TIP3    H124069   0.286   2.261   5.864
 8035TIP3    H224070   0.147   2.219   5.907
 8036TIP3   OH224071   3.954   0.256   1.427
 8036TIP3    H124072   3.940   0.192   1.497
 8036TIP3    H224073   3.869   0.297   1.414
 8037TIP3   OH224074   2.970   6.345   3.981
 8037TIP3    H124075   2.897   6.407   3.987
 8037TIP3    H224076   3.048   6.399   3.994
 8038TIP3   OH224077   5.550   2.971   0.032
 8038TIP3    H124078   5.560   3.060   0.066
 8038TIP3    H224079   5.482   2.933   0.088
 8039TIP3   OH224080   0.223   0.433   1.944
 8039TIP3    H124081   0.230   0.347   1.985
 8039TIP3    H224082   0.130   0.442   1.923
 8040TIP3   OH224083   6.139   4.963   4.870
 8040TIP3    H124084   6.222   4.936   4.831
 8040TIP3    H224085   6.094   5.011   4.800
 8041TIP3   OH224086   6.512   0.620   5.080
 8041TIP3    H124087   6.520   0.595   4.988
 8041TIP3    H224088   6.508   0.716   5.079
 8042TIP3   OH224089   3.120   4.925   2.970
 8042TIP3    H124090   3.076   4.939   3.053
 8042TIP3    H224091   3.128   5.012   2.931
 8043TIP3   OH224092   5.911   4.245   2.689
 8043TIP3    H124093   5.983   4.183   2.680
 8043TIP3    H224094   5.924   4.308   2.618
 8044TIP3   OH224095   2.119   1.112   4.591
 8044TIP3    H124096   2.097   1.023   4.563
 8044TIP3    H224097   2.106   1.165   4.512
 8045TIP3   OH224098   1.808   4.869   5.109
 8045TIP3    H124099   1.808   4.775   5.126
 8045TIP3    H224100   1.857   4.878   5.027
 8046TIP3   OH224101   4.313   2.640   4.142
 8046TIP3    H124102   4.307   2.552   4.104
 8046TIP3    H224103   4.390   2.679   4.100
 8047TIP3   OH224104   5.105   3.222   2.464
 8047TIP3    H124105   5.091   3.210   2.369
 8047TIP3    H224106   5.163   3.297   2.471
 8048TIP3   OH224107   1.328   1.292   3.867
 8048TIP3    H124108   1.399   1.303   3.931
 8048TIP3    H224109   1.337   1.367   3.808
 8049TIP3   OH224110   5.754   1.683   1.792
 8049TIP3    H124111   5.782   1.656   1.705
 8049TIP3    H224112   5.660   1.665   1.794
 8050TIP3   OH224113   5.032   2.234   1.928
 8050TIP3    H124114   5.080   2.294   1.871
 8050TIP3    H224115   5.052   2.147   1.893
 8051TIP3   OH224116   1.566   5.437   4.296
 8051TIP3    H124117   1.597   5.422   4.386
 8051TIP3    H224118   1.645   5.435   4.243
 8052TIP3   OH224119   5.951   2.939   4.488
 8052TIP3    H124120   6.014   2.999   4.527
 8052TIP3    H224121   6.004   2.881   4.434
 8053TIP3   OH224122   2.071   0.765   3.318
 8053TIP3    H124123   2.035   0.715   3.391
 8053TIP3    H224124   2.039   0.720   3.240
 8054TIP3   OH224125   7.051   6.454   3.398
 8054TIP3    H124126   7.046   6.494   3.311
 8054TIP3    H224127   7.144   6.430   3.408
 8055TIP3   OH224128   4.568   4.448   0.947
 8055TIP3    H124129   4.475   4.431   0.933
 8055TIP3    H224130   4.578   4.452   1.043
 8056TIP3   OH224131   1.323   4.936   3.678
 8056TIP3    H124132   1.405   4.944   3.629
 8056TIP3    H224133   1.255   4.965   3.617
 8057TIP3   OH224134   0.696   1.814   4.807
 8057TIP3    H124135   0.609   1.784   4.833
 8057TIP3    H224136   0.746   1.814   4.888
 8058TIP3   OH224137   0.970   0.854   4.518
 8058TIP3    H124138   1.027   0.787   4.556
 8058TIP3    H224139   0.928   0.811   4.443
 8059TIP3   OH224140   2.403   1.176   4.620
 8059TIP3    H124141   2.309   1.164   4.633
 8059TIP3    H224142   2.421   1.133   4.536
 8060TIP3   OH224143   6.360   0.288   5.741
 8060TIP3    H124144   6.289   0.285   5.805
 8060TIP3    H224145   6.322   0.331   5.665
 8061TIP3   OH224146   3.732   1.539   5.131
 8061TIP3    H124147   3.816   1.584   5.132
 8061TIP3    H224148   3.705   1.537   5.223
 8062TIP3   OH224149   1.788   0.897   4.728
 8062TIP3    H124150   1.859   0.895   4.664
 8062TIP3    H224151   1.818   0.958   4.795
 8063TIP3   OH224152   4.890   3.665   2.564
 8063TIP3    H124153   4.810   3.671   2.512
 8063TIP3    H224154   4.960   3.688   2.504
 8064TIP3   OH224155   2.698   2.870   3.328
 8064TIP3    H124156   2.742   2.839   3.249
 8064TIP3    H224157   2.693   2.965   3.317
 8065TIP3   OH224158   3.689   5.173   0.821
 8065TIP3    H124159   3.653   5.260   0.805
 8065TIP3    H224160   3.769   5.188   0.870
 8066TIP3   OH224161   2.859   5.855   3.553
 8066TIP3    H124162   2.926   5.787   3.566
 8066TIP3    H224163   2.782   5.820   3.598
 8067TIP3   OH224164   2.961   1.186   2.141
 8067TIP3    H124165   2.906   1.115   2.108
 8067TIP3    H224166   2.920   1.213   2.223
 8068TIP3   OH224167   4.024   0.155   0.593
 8068TIP3    H124168   3.989   0.185   0.676
 8068TIP3    H224169   4.077   0.228   0.561
 8069TIP3   OH224170   6.505   6.539   1.774
 8069TIP3    H124171   6.592   6.517   1.809
 8069TIP3    H224172   6.449   6.467   1.802
 8070TIP3   OH224173   1.665   4.525   5.181
 8070TIP3    H124174   1.731   4.501   5.116
 8070TIP3    H224175   1.595   4.566   5.131
 8071TIP3   OH224176   2.684   1.429   0.505
 8071TIP3    H124177   2.671   1.360   0.440
 8071TIP3    H224178   2.709   1.384   0.585
 8072TIP3   OH224179   0.877   4.547   0.712
 8072TIP3    H124180   0.940   4.539   0.783
 8072TIP3    H224181   0.924   4.593   0.643
 8073TIP3   OH224182   6.957   1.131   0.377
 8073TIP3    H124183   6.867   1.162   0.380
 8073TIP3    H224184   6.950   1.036   0.383
 8074TIP3   OH224185   4.754   4.130   5.839
 8074TIP3    H124186   4.828   4.137   5.778
 8074TIP3    H224187   4.789   4.160   5.923
 8075TIP3   OH224188   5.062   1.938   3.479
 8075TIP3    H124189   5.087   2.024   3.515
 8075TIP3    H224190   5.107   1.875   3.535
 8076TIP3   OH224191   2.651   2.495   1.048
 8076TIP3    H124192   2.720   2.550   1.085
 8076TIP3    H224193   2.587   2.487   1.119
 8077TIP3   OH224194   3.034   4.355   5.411
 8077TIP3    H124195   3.085   4.431   5.384
 8077TIP3    H224196   3.020   4.368   5.504
 8078TIP3   OH224197   2.354   2.270   3.041
 8078TIP3    H124198   2.440   2.312   3.038
 8078TIP3    H224199   2.339   2.252   3.133
 8079TIP3   OH224200   3.677   3.256   3.701
 8079TIP3    H124201   3.728   3.175   3.708
 8079TIP3    H224202   3.737   3.325   3.732
 8080TIP3   OH224203   1.860   1.135   3.076
 8080TIP3    H124204   1.874   1.197   3.004
 8080TIP3    H224205   1.947   1.118   3.111
 8081TIP3   OH224206   0.773   1.131   2.194
 8081TIP3    H124207   0.774   1.207   2.136
 8081TIP3    H224208   0.719   1.066   2.149
 8082TIP3   OH224209   0.311   2.628   0.901
 8082TIP3    H124210   0.358   2.695   0.850
 8082TIP3    H224211   0.242   2.676   0.946
 8083TIP3   OH224212   5.795   2.408   1.786
 8083TIP3    H124213   5.764   2.402   1.877
 8083TIP3    H224214   5.750   2.484   1.750
 8084TIP3   OH224215   3.957   5.968   5.502
 8084TIP3    H124216   3.894   5.913   5.549
 8084TIP3    H224217   4.040   5.922   5.511
 8085TIP3   OH224218  -0.010   4.944   5.466
 8085TIP3    H124219   0.060   4.900   5.514
 8085TIP3    H224220   0.035   5.003   5.406
 8086TIP3   OH224221   3.547   0.475   0.950
 8086TIP3    H124222   3.493   0.554   0.949
 8086TIP3    H224223   3.606   0.485   0.875
 8087TIP3   OH224224   2.883   5.926   4.450
 8087TIP3    H124225   2.822   5.869   4.402
 8087TIP3    H224226   2.844   5.934   4.537
 8088TIP3   OH224227   4.419   4.157   4.595
 8088TIP3    H124228   4.327   4.146   4.619
 8088TIP3    H224229   4.457   4.069   4.604
 8089TIP3   OH224230   0.566   6.413   4.294
 8089TIP3    H124231   0.559   6.502   4.331
 8089TIP3    H224232   0.536   6.356   4.364
 8090TIP3   OH224233   2.501   1.086   2.355
 8090TIP3    H124234   2.572   1.046   2.305
 8090TIP3    H224235   2.539   1.104   2.441
 8091TIP3   OH224236   6.185   3.516   5.263
 8091TIP3    H124237   6.220   3.602   5.241
 8091TIP3    H224238   6.205   3.461   5.187
 8092TIP3   OH224239   5.700   6.451   4.600
 8092TIP3    H124240   5.791   6.429   4.619
 8092TIP3    H224241   5.670   6.499   4.678
 8093TIP3   OH224242   5.349   6.227   3.093
 8093TIP3    H124243   5.359   6.178   3.011
 8093TIP3    H224244   5.318   6.163   3.156
 8094TIP3   OH224245   1.055   6.418   5.027
 8094TIP3    H124246   1.132   6.374   5.063
 8094TIP3    H224247   1.091   6.486   4.970
 8095TIP3   OH224248   0.819   6.180   1.090
 8095TIP3    H124249   0.880   6.106   1.081
 8095TIP3    H224250   0.853   6.229   1.166
 8096TIP3   OH224251   3.132   5.182   2.262
 8096TIP3    H124252   3.083   5.196   2.181
 8096TIP3    H224253   3.129   5.087   2.275
 8097TIP3   OH224254   6.744   6.033   3.189
 8097TIP3    H124255   6.729   6.120   3.154
 8097TIP3    H224256   6.804   5.991   3.127
 8098TIP3   OH224257   3.983   5.180   3.022
 8098TIP3    H124258   3.923   5.253   3.034
 8098TIP3    H224259   4.036   5.178   3.102
 8099TIP3   OH224260   0.244   0.977   4.655
 8099TIP3    H124261   0.301   1.037   4.606
 8099TIP3    H224262   0.165   0.970   4.602
 8100TIP3   OH224263   6.604   1.157   2.525
 8100TIP3    H124264   6.589   1.158   2.430
 8100TIP3    H224265   6.613   1.064   2.547
 8101TIP3   OH224266   3.878   2.667   2.659
 8101TIP3    H124267   3.811   2.607   2.693
 8101TIP3    H224268   3.849   2.687   2.570
 8102TIP3   OH224269   2.081   2.010   5.260
 8102TIP3    H124270   2.158   2.001   5.316
 8102TIP3    H224271   2.113   2.059   5.184
 8103TIP3   OH224272   2.870   4.276   2.972
 8103TIP3    H124273   2.891   4.303   2.883
 8103TIP3    H224274   2.849   4.357   3.018
 8104TIP3   OH224275   1.410   5.841   0.062
 8104TIP3    H124276   1.466   5.794   0.000
 8104TIP3    H224277   1.444   5.930   0.062
 8105TIP3   OH224278   7.155   6.197   5.605
 8105TIP3    H124279   7.236   6.177   5.650
 8105TIP3    H224280   7.182   6.225   5.517
 8106TIP3   OH224281   5.907   1.478   4.047
 8106TIP3    H124282   5.828   1.508   4.091
 8106TIP3    H224283   5.903   1.519   3.960
 8107TIP3   OH224284   4.900   5.253   2.368
 8107TIP3    H124285   4.912   5.318   2.298
 8107TIP3    H224286   4.936   5.296   2.446
 8108TIP3   OH224287   4.480   0.902   0.484
 8108TIP3    H124288   4.508   0.939   0.568
 8108TIP3    H224289   4.543   0.936   0.420
 8109TIP3   OH224290   4.395   3.372   2.814
 8109TIP3    H124291   4.479   3.395   2.855
 8109TIP3    H224292   4.333   3.435   2.851
 8110TIP3   OH224293   2.312   2.255   2.664
 8110TIP3    H124294   2.245   2.278   2.728
 8110TIP3    H224295   2.290   2.306   2.586
 8111TIP3   OH224296   5.822   4.544   0.414
 8111TIP3    H124297   5.797   4.624   0.460
 8111TIP3    H224298   5.805   4.562   0.322
 8112TIP3   OH224299   6.739   5.332   1.152
 8112TIP3    H124300   6.740   5.275   1.075
 8112TIP3    H224301   6.821   5.382   1.147
 8113TIP3   OH224302   0.313   2.572   3.467
 8113TIP3    H124303   0.246   2.510   3.438
 8113TIP3    H224304   0.385   2.517   3.498
 8114TIP3   OH224305   3.696   6.108   4.158
 8114TIP3    H124306   3.672   6.155   4.237
 8114TIP3    H224307   3.765   6.161   4.118
 8115TIP3   OH224308   3.796   2.926   1.007
 8115TIP3    H124309   3.859   2.919   1.079
 8115TIP3    H224310   3.752   2.841   1.005
 8116TIP3   OH224311   6.470   5.609   4.075
 8116TIP3    H124312   6.556   5.630   4.039
 8116TIP3    H224313   6.415   5.684   4.052
 8117TIP3   OH224314   1.533   5.072   3.499
 8117TIP3    H124315   1.539   5.117   3.583
 8117TIP3    H224316   1.600   5.113   3.444
 8118TIP3   OH224317   3.678   3.641   3.034
 8118TIP3    H124318   3.642   3.600   3.112
 8118TIP3    H224319   3.663   3.735   3.046
 8119TIP3   OH224320   6.461   1.592   3.061
 8119TIP3    H124321   6.517   1.639   3.123
 8119TIP3    H224322   6.409   1.661   3.019
 8120TIP3   OH224323   1.575   3.250   5.639
 8120TIP3    H124324   1.630   3.322   5.670
 8120TIP3    H224325   1.491   3.292   5.618
 8121TIP3   OH224326   5.894   2.346   1.445
 8121TIP3    H124327   5.881   2.440   1.458
 8121TIP3    H224328   5.938   2.316   1.525
 8122TIP3   OH224329   0.880   3.244   1.534
 8122TIP3    H124330   0.852   3.155   1.551
 8122TIP3    H224331   0.946   3.235   1.465
 8123TIP3   OH224332   6.233   6.099   5.870
 8123TIP3    H124333   6.216   6.038   5.798
 8123TIP3    H224334   6.329   6.100   5.879
 8124TIP3   OH224335   4.837   0.634   1.996
 8124TIP3    H124336   4.839   0.719   2.041
 8124TIP3    H224337   4.786   0.578   2.054
 8125TIP3   OH224338   3.049   5.406   5.250
 8125TIP3    H124339   3.085   5.440   5.168
 8125TIP3    H224340   2.958   5.385   5.228
 8126TIP3   OH224341   4.538   0.742   1.009
 8126TIP3    H124342   4.454   0.731   1.054
 8126TIP3    H224343   4.604   0.731   1.077
 8127TIP3   OH224344   4.621   1.608   0.114
 8127TIP3    H124345   4.577   1.693   0.108
 8127TIP3    H224346   4.636   1.595   0.207
 8128TIP3   OH224347   2.695   1.218   4.289
 8128TIP3    H124348   2.677   1.312   4.287
 8128TIP3    H224349   2.762   1.208   4.357
 8129TIP3   OH224350   2.484   4.439   4.496
 8129TIP3    H124351   2.398   4.401   4.513
 8129TIP3    H224352   2.471   4.495   4.420
 8130TIP3   OH224353   1.001   2.358   5.238
 8130TIP3    H124354   1.081   2.335   5.284
 8130TIP3    H224355   0.938   2.378   5.307
 8131TIP3   OH224356   6.384   0.512   2.489
 8131TIP3    H124357   6.358   0.580   2.551
 8131TIP3    H224358   6.400   0.434   2.544
 8132TIP3   OH224359   6.685   4.154   3.380
 8132TIP3    H124360   6.691   4.131   3.287
 8132TIP3    H224361   6.723   4.241   3.386
 8133TIP3   OH224362   4.715   1.355   1.256
 8133TIP3    H124363   4.689   1.347   1.164
 8133TIP3    H224364   4.633   1.344   1.305
 8134TIP3   OH224365   1.657   4.189   5.016
 8134TIP3    H124366   1.632   4.271   5.059
 8134TIP3    H224367   1.752   4.196   5.007
 8135TIP3   OH224368   1.606   5.234   2.359
 8135TIP3    H124369   1.621   5.161   2.298
 8135TIP3    H224370   1.521   5.270   2.333
 8136TIP3   OH224371   0.573   0.365   2.178
 8136TIP3    H124372   0.504   0.307   2.212
 8136TIP3    H224373   0.653   0.332   2.219
 8137TIP3   OH224374   1.780   5.845   3.360
 8137TIP3    H124375   1.701   5.896   3.340
 8137TIP3    H224376   1.785   5.844   3.455
 8138TIP3   OH224377   6.727   1.459   5.483
 8138TIP3    H124378   6.822   1.467   5.472
 8138TIP3    H224379   6.703   1.384   5.429
 8139TIP3   OH224380   3.800   0.873   0.089
 8139TIP3    H124381   3.808   0.926   0.168
 8139TIP3    H224382   3.811   0.783   0.119
 8140TIP3   OH224383   5.805   1.129   3.910
 8140TIP3    H124384   5.711   1.121   3.895
 8140TIP3    H224385   5.831   1.205   3.857
 8141TIP3   OH224386   2.178   2.406   2.467
 8141TIP3    H124387   2.083   2.393   2.462
 8141TIP3    H224388   2.193   2.490   2.424
 8142TIP3   OH224389   2.735   4.127   4.816
 8142TIP3    H124390   2.710   4.119   4.724
 8142TIP3    H224391   2.656   4.102   4.864
 8143TIP3   OH224392   5.283   5.920   3.511
 8143TIP3    H124393   5.202   5.969   3.524
 8143TIP3    H224394   5.261   5.855   3.444
 8144TIP3   OH224395   0.591   5.832   1.454
 8144TIP3    H124396   0.566   5.743   1.477
 8144TIP3    H224397   0.511   5.872   1.419
 8145TIP3   OH224398   1.453   6.677   4.538
 8145TIP3    H124399   1.402   6.667   4.458
 8145TIP3    H224400   1.491   6.765   4.532
 8146TIP3   OH224401   7.080   4.564   2.438
 8146TIP3    H124402   7.150   4.513   2.399
 8146TIP3    H224403   7.121   4.610   2.511
 8147TIP3   OH224404   0.182   3.670   2.292
 8147TIP3    H124405   0.123   3.714   2.354
 8147TIP3    H224406   0.154   3.702   2.206
 8148TIP3   OH224407   2.815   2.558   3.419
 8148TIP3    H124408   2.797   2.647   3.388
 8148TIP3    H224409   2.909   2.546   3.404
 8149TIP3   OH224410   4.829   5.965   5.705
 8149TIP3    H124411   4.877   6.031   5.756
 8149TIP3    H224412   4.878   5.884   5.719
 8150TIP3   OH224413   7.171   4.372   1.727
 8150TIP3    H124414   7.192   4.461   1.756
 8150TIP3    H224415   7.098   4.345   1.783
 8151TIP3   OH224416   3.763   6.582   4.915
 8151TIP3    H124417   3.705   6.652   4.884
 8151TIP3    H224418   3.840   6.628   4.950
 8152TIP3   OH224419   3.769   3.598   1.815
 8152TIP3    H124420   3.764   3.557   1.902
 8152TIP3    H224421   3.684   3.579   1.775
 8153TIP3   OH224422   2.679   6.703   2.087
 8153TIP3    H124423   2.759   6.655   2.064
 8153TIP3    H224424   2.622   6.693   2.012
 8154TIP3   OH224425   6.124   2.554   4.117
 8154TIP3    H124426   6.119   2.576   4.024
 8154TIP3    H224427   6.065   2.480   4.127
 8155TIP3   OH224428   3.864   5.449   3.345
 8155TIP3    H124429   3.859   5.358   3.374
 8155TIP3    H224430   3.911   5.494   3.415
 8156TIP3   OH224431   6.168   0.218   3.800
 8156TIP3    H124432   6.192   0.193   3.889
 8156TIP3    H224433   6.073   0.217   3.799
 8157TIP3   OH224434   6.076   3.968   4.798
 8157TIP3    H124435   6.100   3.967   4.890
 8157TIP3    H224436   6.065   3.875   4.775
 8158TIP3   OH224437   2.094   0.310   5.249
 8158TIP3    H124438   2.138   0.394   5.242
 8158TIP3    H224439   2.038   0.305   5.172
 8159TIP3   OH224440   2.734   6.504   5.219
 8159TIP3    H124441   2.784   6.427   5.193
 8159TIP3    H224442   2.775   6.576   5.172
 8160TIP3   OH224443   6.492   0.971   3.659
 8160TIP3    H124444   6.510   1.065   3.655
 8160TIP3    H224445   6.408   0.961   3.614
 8161TIP3   OH224446   4.007   4.158   2.756
 8161TIP3    H124447   3.971   4.126   2.674
 8161TIP3    H224448   4.087   4.108   2.768
 8162TIP3   OH224449   2.861   1.706   5.173
 8162TIP3    H124450   2.918   1.778   5.146
 8162TIP3    H224451   2.874   1.699   5.267
 8163TIP3   OH224452   0.451   1.960   5.315
 8163TIP3    H124453   0.497   1.880   5.290
 8163TIP3    H224454   0.516   2.010   5.365
 8164TIP3   OH224455   4.531   3.915   2.522
 8164TIP3    H124456   4.448   3.955   2.497
 8164TIP3    H224457   4.573   3.894   2.439
 8165TIP3   OH224458   1.938   1.087   0.608
 8165TIP3    H124459   1.933   1.175   0.645
 8165TIP3    H224460   1.862   1.080   0.550
 8166TIP3   OH224461   3.970   2.319   1.309
 8166TIP3    H124462   3.918   2.333   1.388
 8166TIP3    H224463   3.937   2.237   1.272
 8167TIP3   OH224464   2.458   5.155   0.221
 8167TIP3    H124465   2.445   5.206   0.302
 8167TIP3    H224466   2.385   5.181   0.165
 8168TIP3   OH224467   6.677   1.000   1.591
 8168TIP3    H124468   6.716   0.912   1.590
 8168TIP3    H224469   6.666   1.022   1.498
 8169TIP3   OH224470   2.537   4.573   3.600
 8169TIP3    H124471   2.616   4.563   3.547
 8169TIP3    H224472   2.535   4.665   3.624
 8170TIP3   OH224473   2.021   4.274   3.311
 8170TIP3    H124474   2.100   4.308   3.353
 8170TIP3    H224475   1.989   4.207   3.371
 8171TIP3   OH224476   0.332   2.365   1.456
 8171TIP3    H124477   0.310   2.279   1.493
 8171TIP3    H224478   0.247   2.409   1.445
 8172TIP3   OH224479   2.587   5.417   0.966
 8172TIP3    H124480   2.582   5.333   1.011
 8172TIP3    H224481   2.557   5.480   1.031
 8173TIP3   OH224482   0.714   4.360   0.797
 8173TIP3    H124483   0.762   4.438   0.769
 8173TIP3    H224484   0.682   4.321   0.715
 8174TIP3   OH224485   6.207   5.539   5.536
 8174TIP3    H124486   6.147   5.532   5.610
 8174TIP3    H224487   6.187   5.623   5.496
 8175TIP3   OH224488   3.806   3.662   0.267
 8175TIP3    H124489   3.792   3.689   0.176
 8175TIP3    H224490   3.734   3.703   0.315
 8176TIP3   OH224491   4.386   3.982   2.112
 8176TIP3    H124492   4.362   4.054   2.053
 8176TIP3    H224493   4.387   4.022   2.199
 8177TIP3   OH224494   6.634   5.826   4.639
 8177TIP3    H124495   6.670   5.758   4.582
 8177TIP3    H224496   6.572   5.873   4.584
 8178TIP3   OH224497   6.344   3.835   2.720
 8178TIP3    H124498   6.385   3.858   2.637
 8178TIP3    H224499   6.321   3.743   2.710
 8179TIP3   OH224500   1.319   1.926   4.184
 8179TIP3    H124501   1.367   1.976   4.118
 8179TIP3    H224502   1.265   1.866   4.133
 8180TIP3   OH224503   4.730   1.527   4.136
 8180TIP3    H124504   4.691   1.511   4.222
 8180TIP3    H224505   4.744   1.622   4.133
 8181TIP3   OH224506   2.445   0.465   0.134
 8181TIP3    H124507   2.427   0.372   0.143
 8181TIP3    H224508   2.536   0.469   0.106
 8182TIP3   OH224509   2.267   0.663   0.907
 8182TIP3    H124510   2.178   0.693   0.925
 8182TIP3    H224511   2.294   0.618   0.987
 8183TIP3   OH224512   0.981   5.560   4.818
 8183TIP3    H124513   1.053   5.498   4.832
 8183TIP3    H224514   0.937   5.565   4.903
 8184TIP3   OH224515   1.915   1.991   5.476
 8184TIP3    H124516   1.958   1.935   5.540
 8184TIP3    H224517   1.974   1.990   5.400
 8185TIP3   OH224518   1.056   5.995   5.142
 8185TIP3    H124519   1.061   5.904   5.112
 8185TIP3    H224520   0.971   6.026   5.111
 8186TIP3   OH224521   5.138   4.435   0.529
 8186TIP3    H124522   5.176   4.348   0.518
 8186TIP3    H224523   5.132   4.447   0.624
 8187TIP3   OH224524   1.397   6.575   0.396
 8187TIP3    H124525   1.449   6.506   0.438
 8187TIP3    H224526   1.334   6.527   0.342
 8188TIP3   OH224527   2.685   1.902   4.722
 8188TIP3    H124528   2.739   1.956   4.780
 8188TIP3    H224529   2.632   1.849   4.782
 8189TIP3   OH224530   6.543   6.546   5.176
 8189TIP3    H124531   6.516   6.632   5.208
 8189TIP3    H224532   6.475   6.521   5.114
 8190TIP3   OH224533   0.119   3.958   2.875
 8190TIP3    H124534   0.192   4.011   2.841
 8190TIP3    H224535   0.158   3.873   2.895
 8191TIP3   OH224536   5.649   1.175   1.082
 8191TIP3    H124537   5.734   1.172   1.127
 8191TIP3    H224538   5.662   1.123   1.003
 8192TIP3   OH224539   5.937   3.828   4.145
 8192TIP3    H124540   6.010   3.879   4.181
 8192TIP3    H224541   5.978   3.752   4.106
 8193TIP3   OH224542   4.332   0.556   4.301
 8193TIP3    H124543   4.374   0.593   4.378
 8193TIP3    H224544   4.298   0.632   4.254
 8194TIP3   OH224545   5.855   3.736   1.931
 8194TIP3    H124546   5.866   3.717   2.025
 8194TIP3    H224547   5.905   3.668   1.887
 8195TIP3   OH224548   1.008   1.962   0.670
 8195TIP3    H124549   0.960   1.879   0.664
 8195TIP3    H224550   0.982   1.998   0.755
 8196TIP3   OH224551   5.371   6.002   0.950
 8196TIP3    H124552   5.409   6.052   1.022
 8196TIP3    H224553   5.426   5.923   0.945
 8197TIP3   OH224554   2.479   1.918   4.492
 8197TIP3    H124555   2.542   1.949   4.558
 8197TIP3    H224556   2.424   1.856   4.539
 8198TIP3   OH224557   2.393   1.332   3.228
 8198TIP3    H124558   2.304   1.353   3.199
 8198TIP3    H224559   2.388   1.241   3.257
 8199TIP3   OH224560   6.350   2.853   4.671
 8199TIP3    H124561   6.427   2.811   4.709
 8199TIP3    H224562   6.276   2.796   4.697
 8200TIP3   OH224563   3.099   3.608   3.895
 8200TIP3    H124564   3.089   3.701   3.916
 8200TIP3    H224565   3.176   3.580   3.944
 8201TIP3   OH224566   2.294   3.293   4.699
 8201TIP3    H124567   2.314   3.245   4.779
 8201TIP3    H224568   2.199   3.291   4.693
 8202TIP3   OH224569   3.461   5.397   3.251
 8202TIP3    H124570   3.419   5.319   3.286
 8202TIP3    H224571   3.495   5.370   3.166
 8203TIP3   OH224572   1.354   5.071   1.577
 8203TIP3    H124573   1.429   5.011   1.571
 8203TIP3    H224574   1.386   5.144   1.630
 8204TIP3   OH224575   5.533   5.496   0.356
 8204TIP3    H124576   5.478   5.448   0.294
 8204TIP3    H224577   5.593   5.429   0.391
 8205TIP3   OH224578   5.023   4.388   4.829
 8205TIP3    H124579   5.055   4.357   4.914
 8205TIP3    H224580   4.963   4.320   4.800
 8206TIP3   OH224581   3.260   1.252   3.700
 8206TIP3    H124582   3.336   1.236   3.755
 8206TIP3    H224583   3.196   1.294   3.758
 8207TIP3   OH224584   7.043   1.331   0.993
 8207TIP3    H124585   7.057   1.279   0.914
 8207TIP3    H224586   7.103   1.405   0.983
 8208TIP3   OH224587   3.107   6.781   2.265
 8208TIP3    H124588   3.060   6.764   2.347
 8208TIP3    H224589   3.057   6.850   2.222
 8209TIP3   OH224590   0.207   5.686   4.478
 8209TIP3    H124591   0.230   5.769   4.435
 8209TIP3    H224592   0.162   5.635   4.411
 8210TIP3   OH224593   0.778   6.302   5.069
 8210TIP3    H124594   0.795   6.210   5.049
 8210TIP3    H224595   0.861   6.346   5.051
 8211TIP3   OH224596   3.039   5.661   4.719
 8211TIP3    H124597   3.132   5.668   4.698
 8211TIP3    H224598   2.997   5.631   4.638
 8212TIP3   OH224599   5.564   6.441   2.412
 8212TIP3    H124600   5.581   6.467   2.321
 8212TIP3    H224601   5.635   6.479   2.462
 8213TIP3   OH224602   3.909   1.906   0.779
 8213TIP3    H124603   3.905   1.811   0.772
 8213TIP3    H224604   3.896   1.925   0.872
 8214TIP3   OH224605   5.337   5.339   3.342
 8214TIP3    H124606   5.318   5.259   3.391
 8214TIP3    H224607   5.301   5.323   3.255
 8215TIP3   OH224608   2.302   3.760   1.625
 8215TIP3    H124609   2.299   3.666   1.641
 8215TIP3    H224610   2.262   3.799   1.704
 8216TIP3   OH224611   3.496   6.707   0.646
 8216TIP3    H124612   3.482   6.787   0.696
 8216TIP3    H224613   3.589   6.706   0.627
 8217TIP3   OH224614   3.979   1.665   1.683
 8217TIP3    H124615   3.992   1.640   1.775
 8217TIP3    H224616   4.060   1.709   1.658
 8218TIP3   OH224617   0.830   4.839   3.338
 8218TIP3    H124618   0.856   4.761   3.386
 8218TIP3    H224619   0.873   4.911   3.384
 8219TIP3   OH224620   1.638   2.190   2.175
 8219TIP3    H124621   1.568   2.160   2.118
 8219TIP3    H224622   1.594   2.218   2.255
 8220TIP3   OH224623   3.522   2.296   5.314
 8220TIP3    H124624   3.453   2.290   5.248
 8220TIP3    H224625   3.518   2.212   5.360
 8221TIP3   OH224626   3.324   4.378   1.009
 8221TIP3    H124627   3.355   4.385   0.919
 8221TIP3    H224628   3.232   4.404   1.006
 8222TIP3   OH224629   2.664   5.108   4.934
 8222TIP3    H124630   2.657   5.021   4.895
 8222TIP3    H224631   2.721   5.156   4.873
 8223TIP3   OH224632   6.298   5.148   4.339
 8223TIP3    H124633   6.387   5.133   4.373
 8223TIP3    H224634   6.310   5.212   4.269
 8224TIP3   OH224635   3.255   5.190   3.223
 8224TIP3    H124636   3.322   5.152   3.165
 8224TIP3    H224637   3.192   5.120   3.236
 8225TIP3   OH224638   0.331   3.015   5.825
 8225TIP3    H124639   0.310   2.922   5.831
 8225TIP3    H224640   0.245   3.059   5.829
 8226TIP3   OH224641   2.684   6.595   1.690
 8226TIP3    H124642   2.646   6.507   1.682
 8226TIP3    H224643   2.628   6.638   1.755
 8227TIP3   OH224644   6.112   0.519   4.015
 8227TIP3    H124645   6.125   0.540   4.108
 8227TIP3    H224646   6.169   0.581   3.969
 8228TIP3   OH224647   0.912   0.176   0.743
 8228TIP3    H124648   0.926   0.110   0.674
 8228TIP3    H224649   0.816   0.179   0.753
 8229TIP3   OH224650   3.601   5.416   0.703
 8229TIP3    H124651   3.621   5.375   0.618
 8229TIP3    H224652   3.537   5.483   0.682
 8230TIP3   OH224653   3.370   6.441   0.324
 8230TIP3    H124654   3.297   6.381   0.312
 8230TIP3    H224655   3.339   6.524   0.287
 8231TIP3   OH224656   1.257   2.510   5.856
 8231TIP3    H124657   1.196   2.505   5.783
 8231TIP3    H224658   1.343   2.491   5.818
 8232TIP3   OH224659   2.535   6.656   5.375
 8232TIP3    H124660   2.468   6.592   5.401
 8232TIP3    H224661   2.596   6.605   5.322
 8233TIP3   OH224662   4.055   3.999   1.791
 8233TIP3    H124663   3.979   4.051   1.764
 8233TIP3    H224664   4.069   4.023   1.882
 8234TIP3   OH224665   5.100   5.701   5.003
 8234TIP3    H124666   5.024   5.658   4.964
 8234TIP3    H224667   5.129   5.642   5.072
 8235TIP3   OH224668   1.592   5.186   4.002
 8235TIP3    H124669   1.554   5.099   4.005
 8235TIP3    H224670   1.683   5.174   4.029
 8236TIP3   OH224671   5.886   0.305   1.165
 8236TIP3    H124672   5.793   0.289   1.151
 8236TIP3    H224673   5.890   0.393   1.203
 8237TIP3   OH224674   5.566   6.158   5.592
 8237TIP3    H124675   5.649   6.193   5.624
 8237TIP3    H224676   5.534   6.103   5.663
 8238TIP3   OH224677   6.650   5.405   5.229
 8238TIP3    H124678   6.609   5.406   5.143
 8238TIP3    H224679   6.581   5.433   5.289
 8239TIP3   OH224680   1.568   0.982   2.106
 8239TIP3    H124681   1.536   1.052   2.049
 8239TIP3    H224682   1.661   1.001   2.118
 8240TIP3   OH224683   1.040   4.436   5.559
 8240TIP3    H124684   1.113   4.378   5.537
 8240TIP3    H224685   0.973   4.378   5.595
 8241TIP3   OH224686   2.503   3.674   2.402
 8241TIP3    H124687   2.418   3.648   2.368
 8241TIP3    H224688   2.487   3.695   2.494
 8242TIP3   OH224689   1.474   3.778   2.319
 8242TIP3    H124690   1.450   3.764   2.411
 8242TIP3    H224691   1.470   3.873   2.308
 8243TIP3   OH224692   6.786   5.817   3.504
 8243TIP3    H124693   6.756   5.768   3.581
 8243TIP3    H224694   6.851   5.760   3.463
 8244TIP3   OH224695   6.201   2.392   0.538
 8244TIP3    H124696   6.118   2.438   0.551
 8244TIP3    H224697   6.207   2.333   0.614
 8245TIP3   OH224698   4.543   0.998   0.740
 8245TIP3    H124699   4.501   0.995   0.826
 8245TIP3    H224700   4.620   0.941   0.749
 8246TIP3   OH224701   3.604   2.637   1.189
 8246TIP3    H124702   3.636   2.687   1.264
 8246TIP3    H224703   3.617   2.545   1.214
 8247TIP3   OH224704   2.501   6.369   1.717
 8247TIP3    H124705   2.429   6.343   1.776
 8247TIP3    H224706   2.557   6.291   1.713
 8248TIP3   OH224707   6.802   3.568   5.637
 8248TIP3    H124708   6.835   3.483   5.608
 8248TIP3    H224709   6.848   3.584   5.720
 8249TIP3   OH224710   0.688   1.839   4.246
 8249TIP3    H124711   0.699   1.808   4.336
 8249TIP3    H224712   0.776   1.860   4.217
 8250TIP3   OH224713   3.456   5.698   1.481
 8250TIP3    H124714   3.432   5.635   1.549
 8250TIP3    H224715   3.502   5.768   1.528
 8251TIP3   OH224716   5.480   6.256   1.504
 8251TIP3    H124717   5.443   6.170   1.524
 8251TIP3    H224718   5.563   6.237   1.460
 8252TIP3   OH224719   5.568   0.383   3.534
 8252TIP3    H124720   5.597   0.296   3.504
 8252TIP3    H224721   5.623   0.402   3.610
 8253TIP3   OH224722   5.830   2.817   0.257
 8253TIP3    H124723   5.758   2.755   0.255
 8253TIP3    H224724   5.906   2.768   0.225
 8254TIP3   OH224725   1.880   3.402   3.477
 8254TIP3    H124726   1.871   3.454   3.397
 8254TIP3    H224727   1.918   3.462   3.541
 8255TIP3   OH224728   3.187   0.739   0.288
 8255TIP3    H124729   3.150   0.761   0.374
 8255TIP3    H224730   3.203   0.823   0.247
 8256TIP3   OH224731   0.572   5.327   5.174
 8256TIP3    H124732   0.622   5.273   5.113
 8256TIP3    H224733   0.503   5.365   5.121
 8257TIP3   OH224734   2.837   1.082   3.248
 8257TIP3    H124735   2.748   1.073   3.214
 8257TIP3    H224736   2.887   1.116   3.173
 8258TIP3   OH224737   2.336   5.221   0.868
 8258TIP3    H124738   2.306   5.274   0.942
 8258TIP3    H224739   2.408   5.168   0.904
 8259TIP3   OH224740   1.769   3.455   4.598
 8259TIP3    H124741   1.757   3.494   4.685
 8259TIP3    H224742   1.850   3.494   4.566
 8260TIP3   OH224743   1.512   5.942   3.864
 8260TIP3    H124744   1.434   5.996   3.866
 8260TIP3    H224745   1.564   5.971   3.939
 8261TIP3   OH224746   5.004   4.295   3.830
 8261TIP3    H124747   4.976   4.272   3.919
 8261TIP3    H224748   5.047   4.217   3.797
 8262TIP3   OH224749   2.028   3.094   2.575
 8262TIP3    H124750   1.951   3.048   2.540
 8262TIP3    H224751   2.025   3.181   2.535
 8263TIP3   OH224752   4.196   1.429   3.333
 8263TIP3    H124753   4.121   1.486   3.351
 8263TIP3    H224754   4.269   1.470   3.381
 8264TIP3   OH224755   0.490   4.327   1.658
 8264TIP3    H124756   0.585   4.329   1.656
 8264TIP3    H224757   0.467   4.236   1.644
 8265TIP3   OH224758   2.870  -0.023   1.421
 8265TIP3    H124759   2.905   0.054   1.376
 8265TIP3    H224760   2.824  -0.071   1.352
 8266TIP3   OH224761   1.272   0.801   5.517
 8266TIP3    H124762   1.337   0.847   5.462
 8266TIP3    H224763   1.210   0.870   5.543
 8267TIP3   OH224764   0.747   5.410   0.396
 8267TIP3    H124765   0.761   5.380   0.306
 8267TIP3    H224766   0.833   5.439   0.426
 8268TIP3   OH224767   3.729   1.652   0.938
 8268TIP3    H124768   3.668   1.671   0.867
 8268TIP3    H224769   3.815   1.649   0.896
 8269TIP3   OH224770   1.922   0.604   3.461
 8269TIP3    H124771   1.920   0.508   3.463
 8269TIP3    H224772   1.831   0.630   3.472
 8270TIP3   OH224773   1.039   0.116   1.170
 8270TIP3    H124774   1.106   0.087   1.232
 8270TIP3    H224775   1.065   0.206   1.148
 8271TIP3   OH224776   0.711   2.655   1.786
 8271TIP3    H124777   0.752   2.613   1.862
 8271TIP3    H224778   0.684   2.582   1.730
 8272TIP3   OH224779   3.858   1.354   1.767
 8272TIP3    H124780   3.827   1.395   1.686
 8272TIP3    H224781   3.849   1.260   1.752
 8273TIP3   OH224782   4.533   5.110   0.396
 8273TIP3    H124783   4.510   5.068   0.313
 8273TIP3    H224784   4.458   5.166   0.416
 8274TIP3   OH224785   5.187   0.426   2.309
 8274TIP3    H124786   5.127   0.370   2.359
 8274TIP3    H224787   5.272   0.411   2.349
 8275TIP3   OH224788   4.900   5.771   0.617
 8275TIP3    H124789   4.900   5.727   0.532
 8275TIP3    H224790   4.823   5.826   0.616
 8276TIP3   OH224791   6.664   3.064   4.565
 8276TIP3    H124792   6.638   2.979   4.600
 8276TIP3    H224793   6.582   3.111   4.554
 8277TIP3   OH224794   0.578   5.446   3.684
 8277TIP3    H124795   0.609   5.508   3.618
 8277TIP3    H224796   0.483   5.456   3.682
 8278TIP3   OH224797   5.654   3.011   2.009
 8278TIP3    H124798   5.704   3.040   1.933
 8278TIP3    H224799   5.713   3.024   2.083
 8279TIP3   OH224800   4.222   5.353   4.746
 8279TIP3    H124801   4.225   5.446   4.727
 8279TIP3    H224802   4.308   5.333   4.785
 8280TIP3   OH224803   0.312   5.247   3.925
 8280TIP3    H124804   0.407   5.252   3.910
 8280TIP3    H224805   0.290   5.155   3.914
 8281TIP3   OH224806   2.204   3.625   0.526
 8281TIP3    H124807   2.211   3.549   0.468
 8281TIP3    H224808   2.180   3.697   0.468
 8282TIP3   OH224809   4.739   3.257   2.872
 8282TIP3    H124810   4.693   3.268   2.955
 8282TIP3    H224811   4.708   3.328   2.816
 8283TIP3   OH224812   0.828   3.920   2.156
 8283TIP3    H124813   0.776   3.840   2.159
 8283TIP3    H224814   0.892   3.904   2.086
 8284TIP3   OH224815   1.035   1.386   3.605
 8284TIP3    H124816   1.031   1.359   3.513
 8284TIP3    H224817   1.071   1.475   3.603
 8285TIP3   OH224818   5.625   5.279   3.332
 8285TIP3    H124819   5.623   5.199   3.384
 8285TIP3    H224820   5.535   5.312   3.334
 8286TIP3   OH224821   5.349   0.739   1.421
 8286TIP3    H124822   5.259   0.756   1.392
 8286TIP3    H224823   5.388   0.688   1.350
 8287TIP3   OH224824   4.942   1.164   0.291
 8287TIP3    H124825   4.949   1.253   0.255
 8287TIP3    H224826   5.025   1.123   0.268
 8288TIP3   OH224827   2.387   0.383   4.505
 8288TIP3    H124828   2.413   0.291   4.504
 8288TIP3    H224829   2.323   0.390   4.576
 8289TIP3   OH224830   2.383   5.878   2.137
 8289TIP3    H124831   2.327   5.885   2.059
 8289TIP3    H224832   2.442   5.805   2.117
 8290TIP3   OH224833   4.381   0.894   2.083
 8290TIP3    H124834   4.438   0.899   2.159
 8290TIP3    H224835   4.440   0.882   2.009
 8291TIP3   OH224836   3.022   0.139   5.603
 8291TIP3    H124837   3.010   0.079   5.676
 8291TIP3    H224838   3.054   0.084   5.531
 8292TIP3   OH224839   0.230   6.225   5.582
 8292TIP3    H124840   0.314   6.188   5.555
 8292TIP3    H224841   0.252   6.286   5.652
 8293TIP3   OH224842   6.580   4.497   2.859
 8293TIP3    H124843   6.642   4.450   2.915
 8293TIP3    H224844   6.578   4.447   2.778
 8294TIP3   OH224845   7.018   3.388   0.212
 8294TIP3    H124846   6.997   3.295   0.207
 8294TIP3    H224847   7.098   3.397   0.160
 8295TIP3   OH224848   5.164   0.571   5.694
 8295TIP3    H124849   5.095   0.636   5.681
 8295TIP3    H224850   5.118   0.492   5.722
 8296TIP3   OH224851   5.266   1.611   4.792
 8296TIP3    H124852   5.320   1.691   4.792
 8296TIP3    H224853   5.184   1.638   4.833
 8297TIP3   OH224854   3.536   3.813   4.271
 8297TIP3    H124855   3.575   3.742   4.321
 8297TIP3    H224856   3.580   3.892   4.303
 8298TIP3   OH224857   5.253   3.150   0.127
 8298TIP3    H124858   5.245   3.170   0.221
 8298TIP3    H224859   5.269   3.055   0.125
 8299TIP3   OH224860   5.852   5.183   2.291
 8299TIP3    H124861   5.928   5.239   2.277
 8299TIP3    H224862   5.832   5.192   2.384
 8300TIP3   OH224863   4.885   1.763   0.434
 8300TIP3    H124864   4.912   1.746   0.524
 8300TIP3    H224865   4.968   1.766   0.385
 8301TIP3   OH224866   2.085   6.376   1.725
 8301TIP3    H124867   2.146   6.410   1.660
 8301TIP3    H224868   2.134   6.375   1.807
 8302TIP3   OH224869   2.596   3.040   2.190
 8302TIP3    H124870   2.661   3.108   2.208
 8302TIP3    H224871   2.598   3.030   2.095
 8303TIP3   OH224872   2.962   2.086   3.626
 8303TIP3    H124873   2.887   2.088   3.567
 8303TIP3    H224874   3.038   2.097   3.569
 8304TIP3   OH224875   3.831   1.569   2.892
 8304TIP3    H124876   3.859   1.498   2.951
 8304TIP3    H224877   3.913   1.610   2.864
 8305TIP3   OH224878   6.044   4.740   4.976
 8305TIP3    H124879   6.059   4.834   4.991
 8305TIP3    H224880   6.093   4.696   5.045
 8306TIP3   OH224881   2.218   4.196   2.731
 8306TIP3    H124882   2.125   4.215   2.736
 8306TIP3    H224883   2.238   4.196   2.637
 8307TIP3   OH224884   6.353   6.406   4.657
 8307TIP3    H124885   6.382   6.318   4.681
 8307TIP3    H224886   6.336   6.401   4.563
 8308TIP3   OH224887   1.845   1.595   1.621
 8308TIP3    H124888   1.852   1.585   1.526
 8308TIP3    H224889   1.888   1.518   1.657
 8309TIP3   OH224890   6.990   1.138   5.294
 8309TIP3    H124891   6.989   1.188   5.375
 8309TIP3    H224892   7.083   1.133   5.270
 8310TIP3   OH224893   4.382   4.582   5.354
 8310TIP3    H124894   4.403   4.495   5.318
 8310TIP3    H224895   4.292   4.598   5.326
 8311TIP3   OH224896   4.538   2.238   0.200
 8311TIP3    H124897   4.460   2.201   0.240
 8311TIP3    H224898   4.591   2.162   0.176
 8312TIP3   OH224899   3.960   5.673   1.850
 8312TIP3    H124900   3.990   5.585   1.824
 8312TIP3    H224901   4.016   5.696   1.924
 8313TIP3   OH224902   0.475   3.995   5.289
 8313TIP3    H124903   0.416   3.996   5.364
 8313TIP3    H224904   0.457   4.077   5.243
 8314TIP3   OH224905   6.397   4.722   2.541
 8314TIP3    H124906   6.319   4.736   2.594
 8314TIP3    H224907   6.463   4.781   2.579
 8315TIP3   OH224908   5.967   3.035   4.153
 8315TIP3    H124909   5.943   3.022   4.061
 8315TIP3    H224910   6.038   2.972   4.167
 8316TIP3   OH224911   5.280   5.595   5.155
 8316TIP3    H124912   5.361   5.584   5.204
 8316TIP3    H224913   5.289   5.680   5.112
 8317TIP3   OH224914   2.787   6.306   4.592
 8317TIP3    H124915   2.731   6.381   4.610
 8317TIP3    H224916   2.767   6.244   4.662
 8318TIP3   OH224917   7.083   1.793   0.669
 8318TIP3    H124918   7.009   1.854   0.659
 8318TIP3    H224919   7.139   1.834   0.735
 8319TIP3   OH224920   6.295   4.682   4.473
 8319TIP3    H124921   6.328   4.725   4.552
 8319TIP3    H224922   6.203   4.709   4.468
 8320TIP3   OH224923   4.142   5.437   4.440
 8320TIP3    H124924   4.183   5.466   4.521
 8320TIP3    H224925   4.117   5.517   4.395
 8321TIP3   OH224926   1.069   4.120   1.777
 8321TIP3    H124927   1.060   4.030   1.747
 8321TIP3    H224928   1.034   4.173   1.706
 8322TIP3   OH224929   3.137   0.395   5.551
 8322TIP3    H124930   3.123   0.300   5.542
 8322TIP3    H224931   3.081   0.433   5.483
 8323TIP3   OH224932   3.899   5.025   1.804
 8323TIP3    H124933   3.829   5.087   1.785
 8323TIP3    H224934   3.872   4.982   1.885
 8324TIP3   OH224935   1.520   1.400   1.291
 8324TIP3    H124936   1.471   1.319   1.276
 8324TIP3    H224937   1.453   1.466   1.307
 8325TIP3   OH224938   4.942   5.550   1.133
 8325TIP3    H124939   4.855   5.510   1.124
 8325TIP3    H224940   4.937   5.630   1.081
 8326TIP3   OH224941   3.839   0.154   5.096
 8326TIP3    H124942   3.860   0.145   5.003
 8326TIP3    H224943   3.751   0.118   5.105
 8327TIP3   OH224944   3.587   0.112   0.915
 8327TIP3    H124945   3.637   0.185   0.879
 8327TIP3    H224946   3.638   0.035   0.893
 8328TIP3   OH224947   3.211   1.646   0.819
 8328TIP3    H124948   3.151   1.656   0.745
 8328TIP3    H224949   3.156   1.650   0.896
 8329TIP3   OH224950   5.241   0.543   3.769
 8329TIP3    H124951   5.265   0.461   3.726
 8329TIP3    H224952   5.259   0.611   3.704
 8330TIP3   OH224953   6.240   3.048   5.083
 8330TIP3    H124954   6.220   3.044   5.176
 8330TIP3    H224955   6.336   3.044   5.079
 8331TIP3   OH224956   1.068   1.093   0.693
 8331TIP3    H124957   1.064   1.161   0.760
 8331TIP3    H224958   1.160   1.091   0.667
 8332TIP3   OH224959   4.060   0.188   1.869
 8332TIP3    H124960   3.987   0.201   1.930
 8332TIP3    H224961   4.119   0.262   1.886
 8333TIP3   OH224962   1.047   3.652   2.206
 8333TIP3    H124963   0.962   3.652   2.163
 8333TIP3    H224964   1.026   3.651   2.300
 8334TIP3   OH224965   4.086   2.181   3.672
 8334TIP3    H124966   4.069   2.098   3.627
 8334TIP3    H224967   4.068   2.162   3.764
 8335TIP3   OH224968   6.129   5.199   3.741
 8335TIP3    H124969   6.111   5.139   3.669
 8335TIP3    H224970   6.123   5.145   3.819
 8336TIP3   OH224971   2.782   5.799   2.932
 8336TIP3    H124972   2.759   5.795   3.025
 8336TIP3    H224973   2.877   5.785   2.931
 8337TIP3   OH224974   1.792   6.355   2.716
 8337TIP3    H124975   1.852   6.424   2.743
 8337TIP3    H224976   1.848   6.285   2.684
 8338TIP3   OH224977   4.454   1.764   0.705
 8338TIP3    H124978   4.491   1.748   0.618
 8338TIP3    H224979   4.380   1.704   0.711
 8339TIP3   OH224980   2.504   3.091   1.377
 8339TIP3    H124981   2.567   3.040   1.326
 8339TIP3    H224982   2.515   3.060   1.467
 8340TIP3   OH224983   1.205   4.460   4.085
 8340TIP3    H124984   1.184   4.553   4.074
 8340TIP3    H224985   1.271   4.442   4.018
 8341TIP3   OH224986   2.074   2.560   4.145
 8341TIP3    H124987   2.048   2.625   4.211
 8341TIP3    H224988   2.064   2.476   4.189
 8342TIP3   OH224989   4.884   4.484   5.722
 8342TIP3    H124990   4.920   4.541   5.654
 8342TIP3    H224991   4.884   4.397   5.682
 8343TIP3   OH224992   0.071   6.495   1.270
 8343TIP3    H124993   0.166   6.499   1.258
 8343TIP3    H224994   0.035   6.524   1.186
 8344TIP3   OH224995   5.391   0.740   0.235
 8344TIP3    H124996   5.373   0.778   0.149
 8344TIP3    H224997   5.435   0.810   0.284
 8345TIP3   OH224998   3.596   6.359   5.344
 8345TIP3    H124999   3.510   6.400   5.332
 8345TIP3    H225000   3.655   6.433   5.360
 8346TIP3   OH225001   1.322   1.806   0.945
 8346TIP3    H125002   1.398   1.751   0.965
 8346TIP3    H225003   1.342   1.842   0.858
 8347TIP3   OH225004   5.166   3.854   0.472
 8347TIP3    H125005   5.124   3.934   0.441
 8347TIP3    H225006   5.142   3.849   0.565
 8348TIP3   OH225007   6.946   0.422   3.965
 8348TIP3    H125008   6.900   0.347   4.002
 8348TIP3    H225009   7.019   0.437   4.026
 8349TIP3   OH225010   4.317   2.176   0.332
 8349TIP3    H125011   4.309   2.083   0.355
 8349TIP3    H225012   4.236   2.216   0.364
 8350TIP3   OH225013   4.643   2.367   3.526
 8350TIP3    H125014   4.608   2.367   3.437
 8350TIP3    H225015   4.698   2.289   3.530
 8351TIP3   OH225016   0.212   1.272   2.126
 8351TIP3    H125017   0.148   1.284   2.055
 8351TIP3    H225018   0.272   1.206   2.093
 8352TIP3   OH225019   5.770   6.222   3.556
 8352TIP3    H125020   5.841   6.216   3.619
 8352TIP3    H225021   5.695   6.183   3.600
 8353TIP3   OH225022   6.650   3.292   0.182
 8353TIP3    H125023   6.638   3.279   0.276
 8353TIP3    H225024   6.563   3.313   0.149
 8354TIP3   OH225025   6.185   4.212   0.108
 8354TIP3    H125026   6.218   4.126   0.086
 8354TIP3    H225027   6.248   4.273   0.068
 8355TIP3   OH225028   6.489   2.743   2.759
 8355TIP3    H125029   6.511   2.658   2.796
 8355TIP3    H225030   6.553   2.803   2.797
 8356TIP3   OH225031   3.648   4.440   1.226
 8356TIP3    H125032   3.582   4.375   1.200
 8356TIP3    H225033   3.729   4.407   1.188
 8357TIP3   OH225034   7.058   2.773   1.928
 8357TIP3    H125035   7.139   2.806   1.968
 8357TIP3    H225036   7.017   2.851   1.890
 8358TIP3   OH225037   4.228   1.157   5.767
 8358TIP3    H125038   4.259   1.076   5.725
 8358TIP3    H225039   4.258   1.227   5.710
 8359TIP3   OH225040   1.335   0.343   5.594
 8359TIP3    H125041   1.240   0.331   5.582
 8359TIP3    H225042   1.355   0.424   5.547
 8360TIP3   OH225043   1.458   0.640   5.809
 8360TIP3    H125044   1.474   0.608   5.720
 8360TIP3    H225045   1.367   0.617   5.827
 8361TIP3   OH225046   3.444   4.567   0.653
 8361TIP3    H125047   3.417   4.622   0.581
 8361TIP3    H225048   3.374   4.502   0.662
 8362TIP3   OH225049   0.822   0.618   3.757
 8362TIP3    H125050   0.784   0.692   3.708
 8362TIP3    H225051   0.851   0.657   3.839
 8363TIP3   OH225052   7.180   5.742   2.476
 8363TIP3    H125053   7.087   5.759   2.461
 8363TIP3    H225054   7.222   5.826   2.457
 8364TIP3   OH225055   5.555   3.855   5.461
 8364TIP3    H125056   5.584   3.889   5.376
 8364TIP3    H225057   5.627   3.874   5.520
 8365TIP3   OH225058   0.551   2.678   0.139
 8365TIP3    H125059   0.550   2.623   0.218
 8365TIP3    H225060   0.616   2.745   0.158
 8366TIP3   OH225061   5.766   4.226   1.887
 8366TIP3    H125062   5.708   4.186   1.822
 8366TIP3    H225063   5.708   4.273   1.945
 8367TIP3   OH225064   6.457   5.728   4.861
 8367TIP3    H125065   6.529   5.679   4.901
 8367TIP3    H225066   6.500   5.783   4.796
 8368TIP3   OH225067   5.314   5.213   2.248
 8368TIP3    H125068   5.406   5.206   2.222
 8368TIP3    H225069   5.301   5.139   2.307
 8369TIP3   OH225070   4.766   3.641   4.931
 8369TIP3    H125071   4.790   3.619   4.841
 8369TIP3    H225072   4.828   3.593   4.985
 8370TIP3   OH225073   4.654   0.928   0.083
 8370TIP3    H125074   4.684   0.918  -0.007
 8370TIP3    H225075   4.613   0.844   0.104
 8371TIP3   OH225076   3.974   5.470   4.932
 8371TIP3    H125077   4.018   5.553   4.952
 8371TIP3    H225078   3.917   5.491   4.858
 8372TIP3   OH225079   0.889   0.673   3.146
 8372TIP3    H125080   0.969   0.716   3.114
 8372TIP3    H225081   0.892   0.585   3.109
 8373TIP3   OH225082   3.201   6.706   4.670
 8373TIP3    H125083   3.179   6.613   4.674
 8373TIP3    H225084   3.117   6.750   4.679
 8374TIP3   OH225085   4.978   2.273   4.597
 8374TIP3    H125086   4.983   2.246   4.689
 8374TIP3    H225087   4.960   2.192   4.550
 8375TIP3   OH225088   0.648   6.351   0.881
 8375TIP3    H125089   0.664   6.297   0.959
 8375TIP3    H225090   0.686   6.300   0.809
 8376TIP3   OH225091   6.921   1.593   0.896
 8376TIP3    H125092   6.932   1.687   0.883
 8376TIP3    H225093   6.985   1.553   0.838
 8377TIP3   OH225094   0.616   4.504   2.804
 8377TIP3    H125095   0.625   4.531   2.712
 8377TIP3    H225096   0.554   4.567   2.841
 8378TIP3   OH225097   1.744   3.719   2.713
 8378TIP3    H125098   1.832   3.694   2.741
 8378TIP3    H225099   1.710   3.772   2.786
 8379TIP3   OH225100   3.813   0.301   3.083
 8379TIP3    H125101   3.824   0.206   3.084
 8379TIP3    H225102   3.818   0.326   3.176
 8380TIP3   OH225103   7.191   1.077   5.538
 8380TIP3    H125104   7.133   1.152   5.547
 8380TIP3    H225105   7.201   1.044   5.628
 8381TIP3   OH225106   5.899   6.220   2.912
 8381TIP3    H125107   5.820   6.211   2.965
 8381TIP3    H225108   5.886   6.160   2.839
 8382TIP3   OH225109   4.136   1.567   2.364
 8382TIP3    H125110   4.191   1.582   2.440
 8382TIP3    H225111   4.052   1.538   2.400
 8383TIP3   OH225112   3.036   5.329   4.515
 8383TIP3    H125113   2.972   5.288   4.574
 8383TIP3    H225114   2.989   5.403   4.477
 8384TIP3   OH225115   3.607   6.375   2.168
 8384TIP3    H125116   3.676   6.386   2.103
 8384TIP3    H225117   3.647   6.322   2.237
 8385TIP3   OH225118   0.862   0.441   1.060
 8385TIP3    H125119   0.867   0.448   0.965
 8385TIP3    H225120   0.952   0.455   1.090
 8386TIP3   OH225121   6.152   1.913   3.503
 8386TIP3    H125122   6.207   1.894   3.427
 8386TIP3    H225123   6.117   1.828   3.529
 8387TIP3   OH225124   2.575   0.961   2.095
 8387TIP3    H125125   2.598   0.884   2.147
 8387TIP3    H225126   2.510   0.929   2.033
 8388TIP3   OH225127   1.388   3.783   1.739
 8388TIP3    H125128   1.412   3.823   1.822
 8388TIP3    H225129   1.333   3.708   1.763
 8389TIP3   OH225130   2.553   5.769   5.116
 8389TIP3    H125131   2.514   5.681   5.113
 8389TIP3    H225132   2.482   5.828   5.091
 8390TIP3   OH225133   3.154   3.046   5.288
 8390TIP3    H125134   3.120   2.964   5.253
 8390TIP3    H225135   3.243   3.024   5.317
 8391TIP3   OH225136   0.801   1.644   4.476
 8391TIP3    H125137   0.759   1.716   4.523
 8391TIP3    H225138   0.743   1.569   4.490
 8392TIP3   OH225139   5.706   4.399   5.234
 8392TIP3    H125140   5.656   4.321   5.209
 8392TIP3    H225141   5.794   4.383   5.199
 8393TIP3   OH225142   7.114   5.819   0.826
 8393TIP3    H125143   7.196   5.818   0.776
 8393TIP3    H225144   7.120   5.743   0.883
 8394TIP3   OH225145   4.044   5.963   4.386
 8394TIP3    H125146   4.040   5.921   4.300
 8394TIP3    H225147   4.129   5.938   4.421
 8395TIP3   OH225148   4.802   4.525   5.043
 8395TIP3    H125149   4.708   4.526   5.028
 8395TIP3    H225150   4.831   4.439   5.011
 8396TIP3   OH225151   2.555   3.552   4.758
 8396TIP3    H125152   2.477   3.529   4.809
 8396TIP3    H225153   2.626   3.549   4.822
 8397TIP3   OH225154   1.232   3.687   3.535
 8397TIP3    H125155   1.205   3.604   3.575
 8397TIP3    H225156   1.305   3.663   3.478
 8398TIP3   OH225157   7.060   1.893   4.589
 8398TIP3    H125158   7.039   1.895   4.496
 8398TIP3    H225159   6.992   1.838   4.628
 8399TIP3   OH225160   3.019   2.541   0.634
 8399TIP3    H125161   3.113   2.560   0.624
 8399TIP3    H225162   3.011   2.511   0.725
 8400TIP3   OH225163   2.330   1.475   0.579
 8400TIP3    H125164   2.347   1.457   0.486
 8400TIP3    H225165   2.264   1.544   0.578
 8401TIP3   OH225166   7.160   0.382   3.797
 8401TIP3    H125167   7.071   0.378   3.833
 8401TIP3    H225168   7.168   0.301   3.745
 8402TIP3   OH225169   0.311   4.548   5.373
 8402TIP3    H125170   0.245   4.613   5.349
 8402TIP3    H225171   0.357   4.587   5.447
 8403TIP3   OH225172   3.052   5.839   0.779
 8403TIP3    H125173   3.121   5.894   0.815
 8403TIP3    H225174   3.099   5.771   0.730
 8404TIP3   OH225175   4.804   2.642   1.856
 8404TIP3    H125176   4.891   2.655   1.892
 8404TIP3    H225177   4.781   2.553   1.881
 8405TIP3   OH225178   2.452   1.019   2.930
 8405TIP3    H125179   2.382   1.049   2.872
 8405TIP3    H225180   2.475   0.933   2.897
 8406TIP3   OH225181   2.180   6.682   2.158
 8406TIP3    H125182   2.258   6.728   2.188
 8406TIP3    H225183   2.106   6.737   2.185
 8407TIP3   OH225184   5.778   3.420   4.748
 8407TIP3    H125185   5.808   3.329   4.751
 8407TIP3    H225186   5.701   3.422   4.805
 8408TIP3   OH225187   4.399   6.697   5.224
 8408TIP3    H125188   4.372   6.762   5.290
 8408TIP3    H225189   4.493   6.713   5.212
 8409TIP3   OH225190   2.818   1.210   4.539
 8409TIP3    H125191   2.885   1.237   4.602
 8409TIP3    H225192   2.759   1.284   4.532
 8410TIP3   OH225193   3.106   3.806   1.634
 8410TIP3    H125194   3.022   3.766   1.657
 8410TIP3    H225195   3.118   3.784   1.541
 8411TIP3   OH225196   2.224   0.984   2.329
 8411TIP3    H125197   2.136   0.967   2.364
 8411TIP3    H225198   2.266   0.898   2.326
 8412TIP3   OH225199   2.337   0.924   1.945
 8412TIP3    H125200   2.344   0.831   1.923
 8412TIP3    H225201   2.297   0.964   1.867
 8413TIP3   OH225202   1.819   3.051   0.405
 8413TIP3    H125203   1.825   3.141   0.372
 8413TIP3    H225204   1.768   3.004   0.339
 8414TIP3   OH225205   1.950   3.846   2.472
 8414TIP3    H125206   1.886   3.779   2.496
 8414TIP3    H225207   1.943   3.852   2.377
 8415TIP3   OH225208   4.341   2.915   2.093
 8415TIP3    H125209   4.259   2.964   2.096
 8415TIP3    H225210   4.366   2.915   2.001
 8416TIP3   OH225211   2.690   2.114   3.845
 8416TIP3    H125212   2.624   2.082   3.785
 8416TIP3    H225213   2.747   2.039   3.861
 8417TIP3   OH225214   4.145   4.753   5.071
 8417TIP3    H125215   4.143   4.683   5.006
 8417TIP3    H225216   4.200   4.821   5.031
 8418TIP3   OH225217   0.246   1.953   0.646
 8418TIP3    H125218   0.318   1.889   0.652
 8418TIP3    H225219   0.215   1.946   0.556
 8419TIP3   OH225220   2.086   6.663   3.289
 8419TIP3    H125221   2.176   6.657   3.318
 8419TIP3    H225222   2.036   6.612   3.353
 8420TIP3   OH225223   0.575   6.777   3.705
 8420TIP3    H125224   0.564   6.857   3.654
 8420TIP3    H225225   0.497   6.724   3.686
 8421TIP3   OH225226   6.146   1.173   4.480
 8421TIP3    H125227   6.081   1.123   4.528
 8421TIP3    H225228   6.095   1.238   4.431
 8422TIP3   OH225229   1.800   3.246   1.232
 8422TIP3    H125230   1.870   3.280   1.289
 8422TIP3    H225231   1.795   3.309   1.161
 8423TIP3   OH225232   3.615   3.376   5.751
 8423TIP3    H125233   3.542   3.338   5.800
 8423TIP3    H225234   3.655   3.301   5.706
 8424TIP3   OH225235   5.803   4.100   1.489
 8424TIP3    H125236   5.799   4.099   1.585
 8424TIP3    H225237   5.836   4.013   1.466
 8425TIP3   OH225238   1.722   0.710   0.354
 8425TIP3    H125239   1.657   0.742   0.415
 8425TIP3    H225240   1.713   0.766   0.277
 8426TIP3   OH225241   2.779   3.469   1.088
 8426TIP3    H125242   2.800   3.429   1.172
 8426TIP3    H225243   2.758   3.395   1.031
 8427TIP3   OH225244   2.762   4.825   4.240
 8427TIP3    H125245   2.748   4.738   4.276
 8427TIP3    H225246   2.857   4.836   4.240
 8428TIP3   OH225247   4.067   2.523   1.053
 8428TIP3    H125248   4.103   2.507   1.140
 8428TIP3    H225249   4.020   2.606   1.062
 8429TIP3   OH225250   0.189   5.726   1.732
 8429TIP3    H125251   0.215   5.635   1.720
 8429TIP3    H225252   0.259   5.777   1.692
 8430TIP3   OH225253   2.664   4.541   1.628
 8430TIP3    H125254   2.721   4.468   1.605
 8430TIP3    H225255   2.685   4.559   1.720
 8431TIP3   OH225256   2.908   1.405   5.352
 8431TIP3    H125257   2.937   1.493   5.327
 8431TIP3    H225258   2.987   1.351   5.346
 8432TIP3   OH225259   5.025   6.394   4.735
 8432TIP3    H125260   4.963   6.389   4.808
 8432TIP3    H225261   5.084   6.466   4.758
 8433TIP3   OH225262   0.827   0.000   2.022
 8433TIP3    H125263   0.824   0.089   1.987
 8433TIP3    H225264   0.864   0.010   2.109
 8434TIP3   OH225265   6.104   0.901   3.045
 8434TIP3    H125266   6.176   0.895   2.982
 8434TIP3    H225267   6.025   0.902   2.991
 8435TIP3   OH225268   5.994   0.193   2.474
 8435TIP3    H125269   6.065   0.142   2.437
 8435TIP3    H225270   5.914   0.147   2.446
 8436TIP3   OH225271   3.248   0.089   4.327
 8436TIP3    H125272   3.340   0.069   4.343
 8436TIP3    H225273   3.221   0.143   4.401
 8437TIP3   OH225274   0.112   3.275   0.422
 8437TIP3    H125275   0.176   3.320   0.477
 8437TIP3    H225276   0.098   3.334   0.348
 8438TIP3   OH225277   2.037   4.218   2.191
 8438TIP3    H125278   2.046   4.261   2.106
 8438TIP3    H225279   1.960   4.162   2.182
 8439TIP3   OH225280   6.808   5.194   4.539
 8439TIP3    H125281   6.873   5.137   4.580
 8439TIP3    H225282   6.805   5.271   4.595
 8440TIP3   OH225283   4.261   0.127   4.596
 8440TIP3    H125284   4.212   0.047   4.580
 8440TIP3    H225285   4.209   0.197   4.556
 8441TIP3   OH225286   2.657   4.879   0.726
 8441TIP3    H125287   2.587   4.883   0.791
 8441TIP3    H225288   2.711   4.957   0.743
 8442TIP3   OH225289   6.736   0.087   0.011
 8442TIP3    H125290   6.790   0.124   0.081
 8442TIP3    H225291   6.646   0.099   0.041
 8443TIP3   OH225292   5.576   3.744   2.730
 8443TIP3    H125293   5.567   3.678   2.799
 8443TIP3    H225294   5.597   3.825   2.776
 8444TIP3   OH225295   1.520   3.653   4.885
 8444TIP3    H125296   1.515   3.738   4.840
 8444TIP3    H225297   1.435   3.645   4.930
 8445TIP3   OH225298   5.624   4.029   2.768
 8445TIP3    H125299   5.529   4.022   2.764
 8445TIP3    H225300   5.642   4.075   2.850
 8446TIP3   OH225301   5.223   3.118   0.405
 8446TIP3    H125302   5.133   3.097   0.429
 8446TIP3    H225303   5.276   3.085   0.478
 8447TIP3   OH225304   4.400   2.385   4.133
 8447TIP3    H125305   4.494   2.391   4.114
 8447TIP3    H225306   4.364   2.334   4.061
 8448TIP3   OH225307   0.327   2.868   3.893
 8448TIP3    H125308   0.257   2.841   3.832
 8448TIP3    H225309   0.406   2.871   3.839
 8449TIP3   OH225310   3.464   1.706   2.981
 8449TIP3    H125311   3.542   1.760   2.966
 8449TIP3    H225312   3.483   1.623   2.938
 8450TIP3   OH225313   2.543   4.758   0.517
 8450TIP3    H125314   2.590   4.793   0.593
 8450TIP3    H225315   2.582   4.672   0.503
 8451TIP3   OH225316   5.179   2.947   5.585
 8451TIP3    H125317   5.224   2.972   5.504
 8451TIP3    H225318   5.156   2.855   5.573
 8452TIP3   OH225319   1.656   6.419   0.550
 8452TIP3    H125320   1.691   6.430   0.638
 8452TIP3    H225321   1.733   6.397   0.497
 8453TIP3   OH225322   0.976   0.982   0.326
 8453TIP3    H125323   1.052   1.032   0.296
 8453TIP3    H225324   0.976   0.993   0.421
 8454TIP3   OH225325   1.628   3.027   1.277
 8454TIP3    H125326   1.676   3.109   1.267
 8454TIP3    H225327   1.694   2.963   1.301
 8455TIP3   OH225328   2.458   3.731   5.270
 8455TIP3    H125329   2.364   3.718   5.257
 8455TIP3    H225330   2.490   3.758   5.185
 8456TIP3   OH225331   5.299   1.534   0.231
 8456TIP3    H125332   5.383   1.520   0.186
 8456TIP3    H225333   5.316   1.505   0.321
 8457TIP3   OH225334   5.705   3.302   5.906
 8457TIP3    H125335   5.779   3.359   5.887
 8457TIP3    H225336   5.687   3.256   5.824
 8458TIP3   OH225337   3.959   3.131   2.409
 8458TIP3    H125338   3.871   3.142   2.447
 8458TIP3    H225339   3.966   3.201   2.345
 8459TIP3   OH225340   3.423   2.151   5.787
 8459TIP3    H125341   3.366   2.188   5.854
 8459TIP3    H225342   3.444   2.226   5.730
 8460TIP3   OH225343   5.965   2.879   2.809
 8460TIP3    H125344   5.982   2.787   2.828
 8460TIP3    H225345   6.011   2.927   2.878
 8461TIP3   OH225346   1.544   6.006   2.181
 8461TIP3    H125347   1.490   6.078   2.214
 8461TIP3    H225348   1.522   6.000   2.088
 8462TIP3   OH225349   3.645   4.457   4.607
 8462TIP3    H125350   3.565   4.510   4.610
 8462TIP3    H225351   3.614   4.367   4.605
 8463TIP3   OH225352   2.406   4.350   5.395
 8463TIP3    H125353   2.328   4.367   5.342
 8463TIP3    H225354   2.456   4.286   5.343
 8464TIP3   OH225355   6.816   4.150   0.721
 8464TIP3    H125356   6.884   4.095   0.759
 8464TIP3    H225357   6.862   4.227   0.689
 8465TIP3   OH225358   2.794   3.905   3.914
 8465TIP3    H125359   2.733   3.975   3.936
 8465TIP3    H225360   2.871   3.922   3.969
 8466TIP3   OH225361   2.367   5.194   5.504
 8466TIP3    H125362   2.323   5.258   5.561
 8466TIP3    H225363   2.460   5.215   5.511
 8467TIP3   OH225364   1.132   1.467   1.114
 8467TIP3    H125365   1.119   1.555   1.080
 8467TIP3    H225366   1.207   1.433   1.065
 8468TIP3   OH225367   5.831   6.214   3.907
 8468TIP3    H125368   5.886   6.231   3.831
 8468TIP3    H225369   5.891   6.187   3.976
 8469TIP3   OH225370   1.353   3.517   3.906
 8469TIP3    H125371   1.261   3.526   3.931
 8469TIP3    H225372   1.385   3.444   3.958
 8470TIP3   OH225373   1.720   5.177   2.676
 8470TIP3    H125374   1.816   5.188   2.679
 8470TIP3    H225375   1.707   5.083   2.670
 8471TIP3   OH225376   6.995   0.338   5.703
 8471TIP3    H125377   6.921   0.387   5.667
 8471TIP3    H225378   7.040   0.303   5.627
 8472TIP3   OH225379   5.215   3.379   3.151
 8472TIP3    H125380   5.249   3.463   3.182
 8472TIP3    H225381   5.154   3.403   3.081
 8473TIP3   OH225382   0.399   3.028   4.105
 8473TIP3    H125383   0.369   2.975   4.031
 8473TIP3    H225384   0.356   2.990   4.181
 8474TIP3   OH225385   5.860   4.632   0.152
 8474TIP3    H125386   5.947   4.592   0.147
 8474TIP3    H225387   5.822   4.616   0.066
 8475TIP3   OH225388   1.172   6.686   3.337
 8475TIP3    H125389   1.178   6.771   3.380
 8475TIP3    H225390   1.210   6.701   3.250
 8476TIP3   OH225391   7.137   2.989   0.379
 8476TIP3    H125392   7.176   3.076   0.385
 8476TIP3    H225393   7.099   2.973   0.465
 8477TIP3   OH225394   6.071   0.810   3.970
 8477TIP3    H125395   6.132   0.775   3.906
 8477TIP3    H225396   6.112   0.891   4.000
 8478TIP3   OH225397   1.204   3.438   5.383
 8478TIP3    H125398   1.223   3.467   5.294
 8478TIP3    H225399   1.114   3.405   5.379
 8479TIP3   OH225400   4.883   3.995   1.029
 8479TIP3    H125401   4.858   4.087   1.036
 8479TIP3    H225402   4.805   3.947   1.057
 8480TIP3   OH225403   2.693   5.469   3.033
 8480TIP3    H125404   2.719   5.554   2.998
 8480TIP3    H225405   2.747   5.456   3.110
 8481TIP3   OH225406   4.755   3.055   2.668
 8481TIP3    H125407   4.849   3.036   2.667
 8481TIP3    H225408   4.741   3.106   2.748
 8482TIP3   OH225409   5.128   2.989   1.098
 8482TIP3    H125410   5.151   3.009   1.189
 8482TIP3    H225411   5.035   3.009   1.092
 8483TIP3   OH225412   7.023   6.038   4.249
 8483TIP3    H125413   6.960   5.971   4.273
 8483TIP3    H225414   7.038   6.023   4.155
 8484TIP3   OH225415   1.724   5.528   0.389
 8484TIP3    H125416   1.698   5.607   0.438
 8484TIP3    H225417   1.665   5.525   0.314
 8485TIP3   OH225418   3.965   5.034   1.382
 8485TIP3    H125419   4.022   5.052   1.456
 8485TIP3    H225420   3.926   4.949   1.402
 8486TIP3   OH225421   0.408   0.032   4.540
 8486TIP3    H125422   0.362   0.114   4.561
 8486TIP3    H225423   0.470   0.056   4.472
 8487TIP3   OH225424   2.861   4.369   4.755
 8487TIP3    H125425   2.921   4.307   4.712
 8487TIP3    H225426   2.797   4.313   4.798
 8488TIP3   OH225427   5.960   0.394   0.346
 8488TIP3    H125428   6.055   0.389   0.355
 8488TIP3    H225429   5.927   0.393   0.435
 8489TIP3   OH225430   2.436   1.406   1.167
 8489TIP3    H125431   2.423   1.344   1.095
 8489TIP3    H225432   2.505   1.465   1.137
 8490TIP3   OH225433   0.919   2.586   4.043
 8490TIP3    H125434   0.957   2.536   4.116
 8490TIP3    H225435   0.985   2.579   3.974
 8491TIP3   OH225436   5.797   6.118   0.307
 8491TIP3    H125437   5.864   6.119   0.239
 8491TIP3    H225438   5.836   6.067   0.378
 8492TIP3   OH225439   0.672   1.105   4.562
 8492TIP3    H125440   0.587   1.145   4.580
 8492TIP3    H225441   0.735   1.158   4.609
 8493TIP3   OH225442   2.619   6.583   4.526
 8493TIP3    H125443   2.537   6.625   4.502
 8493TIP3    H225444   2.671   6.653   4.567
 8494TIP3   OH225445   0.569   4.114   0.383
 8494TIP3    H125446   0.508   4.159   0.324
 8494TIP3    H225447   0.653   4.116   0.338
 8495TIP3   OH225448   2.329   5.934   5.104
 8495TIP3    H125449   2.236   5.922   5.084
 8495TIP3    H225450   2.339   6.028   5.117
 8496TIP3   OH225451   4.644   3.943   3.412
 8496TIP3    H125452   4.662   4.005   3.483
 8496TIP3    H225453   4.566   3.896   3.441
 8497TIP3   OH225454   1.380   1.398   2.776
 8497TIP3    H125455   1.316   1.403   2.847
 8497TIP3    H225456   1.346   1.457   2.709
 8498TIP3   OH225457   3.064   2.092   5.786
 8498TIP3    H125458   3.103   2.037   5.854
 8498TIP3    H225459   3.013   2.157   5.835
 8499TIP3   OH225460   1.349   6.688   1.658
 8499TIP3    H125461   1.387   6.760   1.708
 8499TIP3    H225462   1.422   6.654   1.606
 8500TIP3   OH225463   6.727   2.424   0.751
 8500TIP3    H125464   6.688   2.505   0.783
 8500TIP3    H225465   6.815   2.422   0.789
 8501TIP3   OH225466   4.108   3.340   3.622
 8501TIP3    H125467   4.091   3.261   3.674
 8501TIP3    H225468   4.052   3.332   3.546
 8502TIP3   OH225469   2.431   2.595   0.375
 8502TIP3    H125470   2.454   2.685   0.350
 8502TIP3    H225471   2.386   2.604   0.459
 8503TIP3   OH225472   5.768   5.850   1.120
 8503TIP3    H125473   5.733   5.839   1.209
 8503TIP3    H225474   5.861   5.826   1.128
 8504TIP3   OH225475   6.511   5.669   0.698
 8504TIP3    H125476   6.534   5.730   0.629
 8504TIP3    H225477   6.555   5.703   0.776
 8505TIP3   OH225478   6.067   6.623   5.534
 8505TIP3    H125479   6.126   6.602   5.607
 8505TIP3    H225480   6.028   6.539   5.510
 8506TIP3   OH225481   3.907   3.562   4.543
 8506TIP3    H125482   3.897   3.474   4.579
 8506TIP3    H225483   3.890   3.620   4.617
 8507TIP3   OH225484   4.730   3.881   4.464
 8507TIP3    H125485   4.733   3.809   4.402
 8507TIP3    H225486   4.793   3.857   4.532
 8508TIP3   OH225487   3.301   2.225   2.541
 8508TIP3    H125488   3.279   2.240   2.449
 8508TIP3    H225489   3.396   2.216   2.542
 8509TIP3   OH225490   7.033   3.626   5.444
 8509TIP3    H125491   7.010   3.587   5.528
 8509TIP3    H225492   7.041   3.720   5.462
 8510TIP3   OH225493   3.258   1.937   1.247
 8510TIP3    H125494   3.189   1.906   1.189
 8510TIP3    H225495   3.283   2.022   1.211
 8511TIP3   OH225496   6.407   6.300   3.279
 8511TIP3    H125497   6.334   6.342   3.326
 8511TIP3    H225498   6.373   6.214   3.255
 8512TIP3   OH225499   1.297   2.421   4.907
 8512TIP3    H125500   1.243   2.369   4.966
 8512TIP3    H225501   1.234   2.469   4.853
 8513TIP3   OH225502   6.035   4.754   4.464
 8513TIP3    H125503   6.027   4.735   4.558
 8513TIP3    H225504   5.953   4.797   4.441
 8514TIP3   OH225505   1.399   0.227   2.599
 8514TIP3    H125506   1.417   0.315   2.633
 8514TIP3    H225507   1.438   0.226   2.512
 8515TIP3   OH225508   3.841   0.929   0.617
 8515TIP3    H125509   3.842   1.017   0.655
 8515TIP3    H225510   3.750   0.901   0.622
 8516TIP3   OH225511   3.296   2.599   1.669
 8516TIP3    H125512   3.278   2.582   1.577
 8516TIP3    H225513   3.358   2.530   1.695
 8517TIP3   OH225514   0.918   0.352   5.192
 8517TIP3    H125515   1.006   0.340   5.158
 8517TIP3    H225516   0.916   0.299   5.272
 8518TIP3   OH225517   5.012   3.114   3.157
 8518TIP3    H125518   5.016   3.115   3.061
 8518TIP3    H225519   4.977   3.200   3.181
 8519TIP3   OH225520   5.830   6.696   2.749
 8519TIP3    H125521   5.868   6.648   2.822
 8519TIP3    H225522   5.879   6.779   2.747
 8520TIP3   OH225523   4.105   4.518   4.945
 8520TIP3    H125524   4.145   4.443   4.990
 8520TIP3    H225525   4.125   4.503   4.853
 8521TIP3   OH225526   5.138   5.498   1.343
 8521TIP3    H125527   5.154   5.575   1.398
 8521TIP3    H225528   5.075   5.528   1.278
 8522TIP3   OH225529   1.677   1.575   4.882
 8522TIP3    H125530   1.619   1.619   4.820
 8522TIP3    H225531   1.738   1.526   4.828
 8523TIP3   OH225532   2.081   5.650   5.333
 8523TIP3    H125533   2.030   5.731   5.325
 8523TIP3    H225534   2.112   5.633   5.245
 8524TIP3   OH225535   3.935   1.822   1.446
 8524TIP3    H125536   4.018   1.866   1.429
 8524TIP3    H225537   3.955   1.757   1.513
 8525TIP3   OH225538   2.377   2.082   5.189
 8525TIP3    H125539   2.405   2.024   5.260
 8525TIP3    H225540   2.394   2.170   5.222
 8526TIP3   OH225541   0.481   2.482   2.087
 8526TIP3    H125542   0.501   2.446   2.000
 8526TIP3    H225543   0.556   2.456   2.141
 8527TIP3   OH225544   6.817   4.361   3.114
 8527TIP3    H125545   6.886   4.297   3.098
 8527TIP3    H225546   6.738   4.319   3.080
 8528TIP3   OH225547   2.762   5.290   4.392
 8528TIP3    H125548   2.852   5.285   4.359
 8528TIP3    H225549   2.767   5.250   4.479
 8529TIP3   OH225550   3.339   0.255   2.145
 8529TIP3    H125551   3.412   0.310   2.174
 8529TIP3    H225552   3.266   0.282   2.201
 8530TIP3   OH225553   3.055   6.381   5.262
 8530TIP3    H125554   3.028   6.292   5.283
 8530TIP3    H225555   3.121   6.371   5.193
 8531TIP3   OH225556   7.239   1.508   3.484
 8531TIP3    H125557   7.223   1.559   3.564
 8531TIP3    H225558   7.161   1.524   3.430
 8532TIP3   OH225559   5.384   4.307   5.780
 8532TIP3    H125560   5.443   4.376   5.810
 8532TIP3    H225561   5.438   4.252   5.724
 8533TIP3   OH225562   2.117   0.156   4.910
 8533TIP3    H125563   2.115   0.245   4.945
 8533TIP3    H225564   2.033   0.145   4.866
 8534TIP3   OH225565   3.584   4.721   0.841
 8534TIP3    H125566   3.523   4.678   0.780
 8534TIP3    H225567   3.528   4.754   0.911
 8535TIP3   OH225568   1.461   2.967   4.067
 8535TIP3    H125569   1.430   2.959   4.157
 8535TIP3    H225570   1.554   2.947   4.071
 8536TIP3   OH225571   5.684   4.087   1.217
 8536TIP3    H125572   5.608   4.138   1.188
 8536TIP3    H225573   5.754   4.152   1.228
 8537TIP3   OH225574   6.624   3.720   1.880
 8537TIP3    H125575   6.534   3.750   1.896
 8537TIP3    H225576   6.648   3.675   1.961
 8538TIP3   OH225577   3.439   0.274   5.808
 8538TIP3    H125578   3.518   0.219   5.811
 8538TIP3    H225579   3.409   0.278   5.899
 8539TIP3   OH225580   0.313   6.772   4.955
 8539TIP3    H125581   0.315   6.840   4.888
 8539TIP3    H225582   0.343   6.817   5.034
 8540TIP3   OH225583   5.256   0.876   0.901
 8540TIP3    H125584   5.226   0.815   0.968
 8540TIP3    H225585   5.271   0.959   0.948
 8541TIP3   OH225586   0.845   2.269   1.210
 8541TIP3    H125587   0.853   2.341   1.147
 8541TIP3    H225588   0.755   2.276   1.242
 8542TIP3   OH225589   3.760   6.106   0.949
 8542TIP3    H125590   3.703   6.143   1.017
 8542TIP3    H225591   3.781   6.181   0.893
 8543TIP3   OH225592   4.639   3.169   0.216
 8543TIP3    H125593   4.623   3.079   0.187
 8543TIP3    H225594   4.732   3.171   0.236
 8544TIP3   OH225595   1.323   5.530   0.608
 8544TIP3    H125596   1.348   5.439   0.592
 8544TIP3    H225597   1.388   5.582   0.562
 8545TIP3   OH225598   4.665   4.665   0.402
 8545TIP3    H125599   4.611   4.596   0.438
 8545TIP3    H225600   4.740   4.672   0.461
 8546TIP3   OH225601   6.691   4.020   3.108
 8546TIP3    H125602   6.689   3.962   3.032
 8546TIP3    H225603   6.665   4.106   3.073
 8547TIP3   OH225604   0.753   6.477   3.121
 8547TIP3    H125605   0.693   6.495   3.193
 8547TIP3    H225606   0.835   6.518   3.148
 8548TIP3   OH225607   6.633   3.786   4.827
 8548TIP3    H125608   6.560   3.848   4.835
 8548TIP3    H225609   6.711   3.841   4.836
 8549TIP3   OH225610   6.977   4.133   1.789
 8549TIP3    H125611   6.924   4.202   1.749
 8549TIP3    H225612   7.018   4.089   1.715
 8550TIP3   OH225613   2.988   0.389   1.557
 8550TIP3    H125614   3.065   0.379   1.501
 8550TIP3    H225615   3.013   0.344   1.638
 8551TIP3   OH225616   5.867   3.171   5.444
 8551TIP3    H125617   5.900   3.258   5.422
 8551TIP3    H225618   5.940   3.129   5.490
 8552TIP3   OH225619   6.866   5.754   0.728
 8552TIP3    H125620   6.800   5.738   0.795
 8552TIP3    H225621   6.944   5.779   0.776
 8553TIP3   OH225622   5.436   3.843   1.910
 8553TIP3    H125623   5.441   3.892   1.993
 8553TIP3    H225624   5.367   3.887   1.861
 8554TIP3   OH225625   1.238   0.475   0.858
 8554TIP3    H125626   1.148   0.507   0.860
 8554TIP3    H225627   1.240   0.415   0.783
 8555TIP3   OH225628   0.812   3.822   3.568
 8555TIP3    H125629   0.846   3.788   3.651
 8555TIP3    H225630   0.719   3.800   3.570
 8556TIP3   OH225631   1.952   5.478   3.444
 8556TIP3    H125632   1.866   5.480   3.487
 8556TIP3    H225633   1.933   5.457   3.353
 8557TIP3   OH225634   7.202   0.341   1.817
 8557TIP3    H125635   7.194   0.247   1.800
 8557TIP3    H225636   7.260   0.373   1.749
 8558TIP3   OH225637   0.360   0.513   0.781
 8558TIP3    H125638   0.446   0.478   0.760
 8558TIP3    H225639   0.304   0.436   0.789
 8559TIP3   OH225640   7.108   0.759   3.479
 8559TIP3    H125641   7.159   0.772   3.399
 8559TIP3    H225642   7.163   0.703   3.534
 8560TIP3   OH225643   7.067   4.118   5.303
 8560TIP3    H125644   7.131   4.188   5.294
 8560TIP3    H225645   6.984   4.163   5.318
 8561TIP3   OH225646   4.241   2.020   4.815
 8561TIP3    H125647   4.178   2.084   4.848
 8561TIP3    H225648   4.302   2.072   4.762
 8562TIP3   OH225649   1.499   4.028   5.375
 8562TIP3    H125650   1.522   4.116   5.343
 8562TIP3    H225651   1.405   4.022   5.361
 8563TIP3   OH225652   1.731   5.755   4.121
 8563TIP3    H125653   1.662   5.690   4.112
 8563TIP3    H225654   1.755   5.752   4.214
 8564TIP3   OH225655   0.958   3.551   3.167
 8564TIP3    H125656   0.880   3.527   3.217
 8564TIP3    H225657   0.983   3.637   3.201
 8565TIP3   OH225658   4.854   2.808   5.385
 8565TIP3    H125659   4.847   2.790   5.479
 8565TIP3    H225660   4.804   2.890   5.373
 8566TIP3   OH225661   5.567   4.218   5.618
 8566TIP3    H125662   5.548   4.299   5.572
 8566TIP3    H225663   5.638   4.178   5.568
 8567TIP3   OH225664   6.267   2.198   1.788
 8567TIP3    H125665   6.301   2.272   1.737
 8567TIP3    H225666   6.322   2.195   1.866
 8568TIP3   OH225667   3.024   6.421   4.697
 8568TIP3    H125668   2.950   6.385   4.650
 8568TIP3    H225669   3.099   6.368   4.669
 8569TIP3   OH225670   2.361   1.241   4.006
 8569TIP3    H125671   2.377   1.287   4.089
 8569TIP3    H225672   2.429   1.174   4.003
 8570TIP3   OH225673   2.634   0.563   1.775
 8570TIP3    H125674   2.651   0.526   1.688
 8570TIP3    H225675   2.596   0.649   1.757
 8571TIP3   OH225676   1.103   3.820   2.836
 8571TIP3    H125677   1.092   3.887   2.903
 8571TIP3    H225678   1.048   3.850   2.763
 8572TIP3   OH225679   4.966   0.544   3.824
 8572TIP3    H125680   4.939   0.455   3.804
 8572TIP3    H225681   5.059   0.546   3.803
 8573TIP3   OH225682   6.402   6.276   0.013
 8573TIP3    H125683   6.413   6.189  -0.026
 8573TIP3    H225684   6.318   6.271   0.059
 8574TIP3   OH225685   3.918   1.204   1.033
 8574TIP3    H125686   3.853   1.270   1.056
 8574TIP3    H225687   3.982   1.251   0.979
 8575TIP3   OH225688   0.956   2.545   3.420
 8575TIP3    H125689   0.958   2.609   3.349
 8575TIP3    H225690   0.887   2.483   3.393
 8576TIP3   OH225691   1.518   3.039   5.876
 8576TIP3    H125692   1.539   3.108   5.813
 8576TIP3    H225693   1.569   3.061   5.954
 8577TIP3   OH225694   5.939   1.393   3.466
 8577TIP3    H125695   5.887   1.434   3.397
 8577TIP3    H225696   5.985   1.321   3.422
 8578TIP3   OH225697   1.483   3.418   2.420
 8578TIP3    H125698   1.565   3.439   2.465
 8578TIP3    H225699   1.420   3.480   2.456
 8579TIP3   OH225700   1.530   4.303   4.598
 8579TIP3    H125701   1.468   4.248   4.550
 8579TIP3    H225702   1.542   4.380   4.542
 8580TIP3   OH225703   6.592   1.092   2.237
 8580TIP3    H125704   6.555   1.073   2.151
 8580TIP3    H225705   6.685   1.108   2.220
 8581TIP3   OH225706   2.693   0.716   4.314
 8581TIP3    H125707   2.630   0.779   4.347
 8581TIP3    H225708   2.648   0.672   4.242
 8582TIP3   OH225709   2.356   0.089   3.021
 8582TIP3    H125710   2.447   0.101   3.048
 8582TIP3    H225711   2.330   0.006   3.061
 8583TIP3   OH225712   0.700   2.578   5.160
 8583TIP3    H125713   0.761   2.579   5.087
 8583TIP3    H225714   0.741   2.633   5.226
 8584TIP3   OH225715   1.677   1.814   2.941
 8584TIP3    H125716   1.661   1.730   2.898
 8584TIP3    H225717   1.608   1.820   3.007
 8585TIP3   OH225718   1.126   5.889   5.503
 8585TIP3    H125719   1.137   5.811   5.449
 8585TIP3    H225720   1.213   5.904   5.541
 8586TIP3   OH225721   6.789   1.932   4.997
 8586TIP3    H125722   6.810   1.948   5.089
 8586TIP3    H225723   6.762   1.840   4.994
 8587TIP3   OH225724   1.124   1.525   0.163
 8587TIP3    H125725   1.128   1.505   0.256
 8587TIP3    H225726   1.166   1.611   0.156
 8588TIP3   OH225727   2.945   4.246   2.041
 8588TIP3    H125728   2.941   4.254   2.136
 8588TIP3    H225729   2.854   4.249   2.013
 8589TIP3   OH225730   1.157   0.316   5.089
 8589TIP3    H125731   1.196   0.293   5.173
 8589TIP3    H225732   1.229   0.315   5.027
 8590TIP3   OH225733   4.017   1.956   3.105
 8590TIP3    H125734   3.953   2.024   3.084
 8590TIP3    H225735   4.100   2.003   3.111
 8591TIP3   OH225736   1.698   2.843   1.939
 8591TIP3    H125737   1.639   2.916   1.922
 8591TIP3    H225738   1.681   2.781   1.868
 8592TIP3   OH225739   3.511   5.959   4.396
 8592TIP3    H125740   3.512   5.984   4.488
 8592TIP3    H225741   3.458   6.026   4.353
 8593TIP3   OH225742   4.630   1.964   2.827
 8593TIP3    H125743   4.665   2.027   2.891
 8593TIP3    H225744   4.600   1.890   2.879
 8594TIP3   OH225745   2.701   0.745   4.007
 8594TIP3    H125746   2.662   0.664   4.042
 8594TIP3    H225747   2.794   0.726   4.000
 8595TIP3   OH225748   6.015   5.024   5.120
 8595TIP3    H125749   6.068   5.014   5.042
 8595TIP3    H225750   6.055   5.096   5.168
 8596TIP3   OH225751   3.558   3.915   2.021
 8596TIP3    H125752   3.541   3.972   1.945
 8596TIP3    H225753   3.651   3.894   2.013
 8597TIP3   OH225754   1.401   4.106   4.436
 8597TIP3    H125755   1.385   4.015   4.461
 8597TIP3    H225756   1.491   4.107   4.404
 8598TIP3   OH225757   5.589   6.431   0.477
 8598TIP3    H125758   5.664   6.421   0.535
 8598TIP3    H225759   5.622   6.408   0.390
 8599TIP3   OH225760   5.522   0.231   3.181
 8599TIP3    H125761   5.543   0.204   3.270
 8599TIP3    H225762   5.520   0.327   3.185
 8600TIP3   OH225763   1.634   4.796   2.143
 8600TIP3    H125764   1.601   4.728   2.084
 8600TIP3    H225765   1.650   4.750   2.226
 8601TIP3   OH225766   3.768   4.034   4.347
 8601TIP3    H125767   3.722   3.997   4.422
 8601TIP3    H225768   3.749   4.128   4.352
 8602TIP3   OH225769   6.246   2.057   1.514
 8602TIP3    H125770   6.268   2.122   1.448
 8602TIP3    H225771   6.300   2.080   1.590
 8603TIP3   OH225772   2.855   5.743   5.672
 8603TIP3    H125773   2.948   5.734   5.650
 8603TIP3    H225774   2.842   5.683   5.745
 8604TIP3   OH225775   4.436   4.322   5.170
 8604TIP3    H125776   4.422   4.274   5.252
 8604TIP3    H225777   4.350   4.329   5.131
 8605TIP3   OH225778   4.554   0.071   1.332
 8605TIP3    H125779   4.475   0.070   1.278
 8605TIP3    H225780   4.547  -0.008   1.385
 8606TIP3   OH225781   4.171   5.721   3.023
 8606TIP3    H125782   4.092   5.691   2.977
 8606TIP3    H225783   4.209   5.788   2.966
 8607TIP3   OH225784   0.304   6.195   2.454
 8607TIP3    H125785   0.253   6.270   2.484
 8607TIP3    H225786   0.277   6.123   2.511
 8608TIP3   OH225787   7.058   5.237   4.914
 8608TIP3    H125788   6.985   5.201   4.863
 8608TIP3    H225789   7.080   5.167   4.975
 8609TIP3   OH225790   6.777   0.915   1.051
 8609TIP3    H125791   6.842   0.941   0.985
 8609TIP3    H225792   6.825   0.857   1.110
 8610TIP3   OH225793   3.102   0.214   0.754
 8610TIP3    H125794   3.081   0.181   0.841
 8610TIP3    H225795   3.174   0.159   0.723
 8611TIP3   OH225796   5.023   1.938   5.794
 8611TIP3    H125797   5.091   1.872   5.782
 8611TIP3    H225798   5.022   1.987   5.712
 8612TIP3   OH225799   5.108   3.098   1.382
 8612TIP3    H125800   5.179   3.138   1.431
 8612TIP3    H225801   5.052   3.172   1.356
 8613TIP3   OH225802   0.766  -0.009   0.201
 8613TIP3    H125803   0.840  -0.061   0.168
 8613TIP3    H225804   0.804   0.077   0.220
 8614TIP3   OH225805   6.459   3.173   1.408
 8614TIP3    H125806   6.524   3.218   1.354
 8614TIP3    H225807   6.509   3.139   1.482
 8615TIP3   OH225808   6.377   2.453   5.558
 8615TIP3    H125809   6.423   2.484   5.636
 8615TIP3    H225810   6.438   2.470   5.486
 8616TIP3   OH225811   5.647   4.764   5.378
 8616TIP3    H125812   5.689   4.695   5.428
 8616TIP3    H225813   5.670   4.845   5.424
 8617TIP3   OH225814   4.415   1.058   1.235
 8617TIP3    H125815   4.323   1.080   1.220
 8617TIP3    H225816   4.412   0.977   1.286
 8618TIP3   OH225817   4.341   5.822   1.711
 8618TIP3    H125818   4.320   5.913   1.730
 8618TIP3    H225819   4.424   5.826   1.663
 8619TIP3   OH225820   2.763   4.240   3.549
 8619TIP3    H125821   2.670   4.227   3.530
 8619TIP3    H225822   2.780   4.330   3.521
 8620TIP3   OH225823   5.518   3.587   4.583
 8620TIP3    H125824   5.479   3.613   4.666
 8620TIP3    H225825   5.467   3.512   4.554
 8621TIP3   OH225826   3.036   5.511   4.240
 8621TIP3    H125827   2.987   5.450   4.185
 8621TIP3    H225828   3.030   5.595   4.195
 8622TIP3   OH225829   5.089   2.375   2.639
 8622TIP3    H125830   5.183   2.357   2.648
 8622TIP3    H225831   5.078   2.463   2.673
 8623TIP3   OH225832   6.927   5.874   1.610
 8623TIP3    H125833   7.010   5.827   1.599
 8623TIP3    H225834   6.873   5.817   1.664
 8624TIP3   OH225835   1.698   0.191   5.354
 8624TIP3    H125836   1.771   0.230   5.402
 8624TIP3    H225837   1.623   0.202   5.412
 8625TIP3   OH225838   0.174   5.437   1.436
 8625TIP3    H125839   0.083   5.466   1.428
 8625TIP3    H225840   0.173   5.370   1.504
 8626TIP3   OH225841   4.327   3.722   1.128
 8626TIP3    H125842   4.320   3.682   1.041
 8626TIP3    H225843   4.242   3.764   1.142
 8627TIP3   OH225844   5.861   2.376   4.071
 8627TIP3    H125845   5.833   2.395   4.160
 8627TIP3    H225846   5.791   2.321   4.035
 8628TIP3   OH225847   0.308   1.407   5.044
 8628TIP3    H125848   0.227   1.355   5.042
 8628TIP3    H225849   0.337   1.408   4.953
 8629TIP3   OH225850   7.127   1.640   3.059
 8629TIP3    H125851   7.074   1.687   3.124
 8629TIP3    H225852   7.163   1.708   3.003
 8630TIP3   OH225853   5.992   4.035   4.493
 8630TIP3    H125854   5.982   4.008   4.585
 8630TIP3    H225855   5.909   4.010   4.452
 8631TIP3   OH225856   1.880   0.653   3.159
 8631TIP3    H125857   1.814   0.594   3.194
 8631TIP3    H225858   1.840   0.740   3.165
 8632TIP3   OH225859   6.346   6.732   4.748
 8632TIP3    H125860   6.340   6.668   4.818
 8632TIP3    H225861   6.387   6.685   4.675
 8633TIP3   OH225862   0.367   3.069   0.584
 8633TIP3    H125863   0.280   3.063   0.624
 8633TIP3    H225864   0.409   3.143   0.629
 8634TIP3   OH225865   5.921   3.662   2.207
 8634TIP3    H125866   5.885   3.573   2.200
 8634TIP3    H225867   5.923   3.680   2.301
 8635TIP3   OH225868   5.867   2.705   4.687
 8635TIP3    H125869   5.781   2.669   4.711
 8635TIP3    H225870   5.847   2.793   4.653
 8636TIP3   OH225871   1.493   1.194   0.391
 8636TIP3    H125872   1.536   1.272   0.427
 8636TIP3    H225873   1.465   1.221   0.304
 8637TIP3   OH225874   2.304   1.636   0.160
 8637TIP3    H125875   2.389   1.639   0.205
 8637TIP3    H225876   2.312   1.563   0.100
 8638TIP3   OH225877  -0.031   2.720   3.402
 8638TIP3    H125878   0.061   2.711   3.429
 8638TIP3    H225879  -0.060   2.802   3.441
 8639TIP3   OH225880   0.827   4.441   0.206
 8639TIP3    H125881   0.807   4.432   0.299
 8639TIP3    H225882   0.773   4.373   0.164
 8640TIP3   OH225883   1.948   2.268   2.191
 8640TIP3    H125884   1.876   2.208   2.173
 8640TIP3    H225885   1.994   2.278   2.107
 8641TIP3   OH225886   2.711   2.271   1.919
 8641TIP3    H125887   2.773   2.340   1.898
 8641TIP3    H225888   2.650   2.312   1.981
 8642TIP3   OH225889   0.940   4.610   3.454
 8642TIP3    H125890   0.966   4.553   3.383
 8642TIP3    H225891   0.893   4.553   3.515
 8643TIP3   OH225892   1.613   5.315   1.309
 8643TIP3    H125893   1.584   5.236   1.262
 8643TIP3    H225894   1.692   5.288   1.355
 8644TIP3   OH225895   2.323   2.859   5.734
 8644TIP3    H125896   2.407   2.904   5.744
 8644TIP3    H225897   2.338   2.796   5.663
 8645TIP3   OH225898   4.302   0.973   2.850
 8645TIP3    H125899   4.265   0.962   2.762
 8645TIP3    H225900   4.288   0.889   2.893
 8646TIP3   OH225901   3.876   0.838   4.775
 8646TIP3    H125902   3.890   0.885   4.858
 8646TIP3    H225903   3.843   0.905   4.716
 8647TIP3   OH225904   2.165   1.704   0.550
 8647TIP3    H125905   2.164   1.798   0.535
 8647TIP3    H225906   2.139   1.694   0.641
 8648TIP3   OH225907   0.869   3.190   0.160
 8648TIP3    H125908   0.904   3.145   0.083
 8648TIP3    H225909   0.945   3.227   0.204
 8649TIP3   OH225910   1.393   5.239   4.652
 8649TIP3    H125911   1.420   5.197   4.734
 8649TIP3    H225912   1.458   5.210   4.588
 8650TIP3   OH225913   6.143   6.269   0.070
 8650TIP3    H125914   6.066   6.231   0.027
 8650TIP3    H225915   6.128   6.364   0.065
 8651TIP3   OH225916   0.526   0.871   5.311
 8651TIP3    H125917   0.568   0.865   5.225
 8651TIP3    H225918   0.490   0.784   5.326
 8652TIP3   OH225919   1.058   6.762   4.069
 8652TIP3    H125920   1.122   6.807   4.013
 8652TIP3    H225921   0.991   6.828   4.086
 8653TIP3   OH225922   3.577   0.153   2.784
 8653TIP3    H125923   3.507   0.177   2.845
 8653TIP3    H225924   3.544   0.178   2.698
 8654TIP3   OH225925   3.574   3.895   3.086
 8654TIP3    H125926   3.481   3.875   3.086
 8654TIP3    H225927   3.585   3.959   3.015
 8655TIP3   OH225928   0.786   2.747   4.513
 8655TIP3    H125929   0.815   2.656   4.503
 8655TIP3    H225930   0.716   2.742   4.577
 8656TIP3   OH225931   1.372   0.124   3.391
 8656TIP3    H125932   1.389   0.043   3.439
 8656TIP3    H225933   1.448   0.135   3.334
 8657TIP3   OH225934   2.303   3.260   5.725
 8657TIP3    H125935   2.374   3.215   5.770
 8657TIP3    H225936   2.306   3.226   5.635
 8658TIP3   OH225937   0.888   4.438   5.070
 8658TIP3    H125938   0.797   4.446   5.042
 8658TIP3    H225939   0.936   4.418   4.990
 8659TIP3   OH225940   2.550   1.062   0.327
 8659TIP3    H125941   2.615   1.130   0.307
 8659TIP3    H225942   2.467   1.100   0.297
 8660TIP3   OH225943   7.112   2.083   3.148
 8660TIP3    H125944   7.023   2.083   3.112
 8660TIP3    H225945   7.101   2.105   3.240
 8661TIP3   OH225946   2.006   6.505   0.992
 8661TIP3    H125947   2.086   6.458   1.017
 8661TIP3    H225948   2.021   6.527   0.900
 8662TIP3   OH225949   3.497   1.311   2.459
 8662TIP3    H125950   3.592   1.309   2.442
 8662TIP3    H225951   3.458   1.332   2.375
 8663TIP3   OH225952   2.031   2.342   4.316
 8663TIP3    H125953   2.062   2.270   4.372
 8663TIP3    H225954   1.939   2.323   4.301
 8664TIP3   OH225955   4.509   3.106   0.682
 8664TIP3    H125956   4.451   3.045   0.635
 8664TIP3    H225957   4.523   3.177   0.619
 8665TIP3   OH225958   5.098   6.080   4.774
 8665TIP3    H125959   5.112   6.171   4.799
 8665TIP3    H225960   5.008   6.061   4.800
 8666TIP3   OH225961   0.383   6.291   0.358
 8666TIP3    H125962   0.410   6.281   0.266
 8666TIP3    H225963   0.412   6.379   0.381
 8667TIP3   OH225964   6.059   5.779   5.451
 8667TIP3    H125965   5.986   5.719   5.466
 8667TIP3    H225966   6.019   5.853   5.405
 8668TIP3   OH225967   0.359   1.785   2.870
 8668TIP3    H125968   0.419   1.803   2.943
 8668TIP3    H225969   0.339   1.871   2.833
 8669TIP3   OH225970   2.900   4.777   0.451
 8669TIP3    H125971   2.847   4.699   0.466
 8669TIP3    H225972   2.909   4.818   0.537
 8670TIP3   OH225973   1.866   2.789   3.314
 8670TIP3    H125974   1.869   2.693   3.318
 8670TIP3    H225975   1.952   2.814   3.279
 8671TIP3   OH225976   3.559   3.732   1.462
 8671TIP3    H125977   3.601   3.804   1.414
 8671TIP3    H225978   3.517   3.679   1.395
 8672TIP3   OH225979   1.532   1.515   5.444
 8672TIP3    H125980   1.561   1.483   5.530
 8672TIP3    H225981   1.481   1.593   5.464
 8673TIP3   OH225982   0.737   0.957   2.456
 8673TIP3    H125983   0.704   1.014   2.387
 8673TIP3    H225984   0.684   0.978   2.532
 8674TIP3   OH225985   0.607   1.717   3.372
 8674TIP3    H125986   0.579   1.732   3.462
 8674TIP3    H225987   0.657   1.636   3.376
 8675TIP3   OH225988   3.974   2.557   5.502
 8675TIP3    H125989   3.941   2.568   5.413
 8675TIP3    H225990   3.988   2.463   5.511
 8676TIP3   OH225991   3.821   4.512   2.478
 8676TIP3    H125992   3.869   4.592   2.457
 8676TIP3    H225993   3.825   4.506   2.574
 8677TIP3   OH225994   1.247   2.875   3.911
 8677TIP3    H125995   1.311   2.888   3.982
 8677TIP3    H225996   1.179   2.820   3.950
 8678TIP3   OH225997   6.827   0.580   3.179
 8678TIP3    H125998   6.919   0.576   3.205
 8678TIP3    H225999   6.801   0.489   3.168
 8679TIP3   OH226000   2.889   2.694   2.771
 8679TIP3    H126001   2.955   2.700   2.840
 8679TIP3    H226002   2.821   2.637   2.807
 8680TIP3   OH226003   2.747   6.421   5.868
 8680TIP3    H126004   2.709   6.476   5.800
 8680TIP3    H226005   2.784   6.482   5.931
 8681TIP3   OH226006   1.732   5.174   0.917
 8681TIP3    H126007   1.796   5.117   0.960
 8681TIP3    H226008   1.683   5.115   0.860
 8682TIP3   OH226009   5.725   4.834   4.404
 8682TIP3    H126010   5.721   4.930   4.405
 8682TIP3    H226011   5.654   4.806   4.462
 8683TIP3   OH226012   6.974   1.425   4.666
 8683TIP3    H126013   6.958   1.335   4.639
 8683TIP3    H226014   7.026   1.463   4.595
 8684TIP3   OH226015   6.715   0.331   1.276
 8684TIP3    H126016   6.664   0.266   1.326
 8684TIP3    H226017   6.721   0.294   1.188
 8685TIP3   OH226018   6.915   1.914   1.921
 8685TIP3    H126019   6.963   1.852   1.975
 8685TIP3    H226020   6.972   1.930   1.846
 8686TIP3   OH226021   0.901   4.672   5.640
 8686TIP3    H126022   0.828   4.670   5.578
 8686TIP3    H226023   0.955   4.597   5.616
 8687TIP3   OH226024   4.791   5.516   5.174
 8687TIP3    H126025   4.859   5.455   5.202
 8687TIP3    H226026   4.836   5.599   5.160
 8688TIP3   OH226027   2.943   1.931   1.675
 8688TIP3    H126028   2.988   1.859   1.630
 8688TIP3    H226029   2.886   1.887   1.738
 8689TIP3   OH226030   4.986   4.388   4.444
 8689TIP3    H126031   4.968   4.295   4.458
 8689TIP3    H226032   4.972   4.400   4.350
 8690TIP3   OH226033   4.067   5.090   0.968
 8690TIP3    H126034   4.088   5.015   0.913
 8690TIP3    H226035   4.087   5.062   1.057
 8691TIP3   OH226036   3.111   2.127   0.836
 8691TIP3    H126037   3.043   2.092   0.894
 8691TIP3    H226038   3.066   2.141   0.753
 8692TIP3   OH226039   1.846   6.832   1.428
 8692TIP3    H126040   1.826   6.742   1.451
 8692TIP3    H226041   1.863   6.829   1.334
 8693TIP3   OH226042   2.765   5.970   1.118
 8693TIP3    H126043   2.854   6.006   1.110
 8693TIP3    H226044   2.745   5.936   1.031
 8694TIP3   OH226045   6.292   0.509   0.567
 8694TIP3    H126046   6.207   0.549   0.581
 8694TIP3    H226047   6.354   0.582   0.568
 8695TIP3   OH226048   1.776   6.054   0.494
 8695TIP3    H126049   1.844   5.988   0.481
 8695TIP3    H226050   1.778   6.107   0.414
 8696TIP3   OH226051   5.585   1.438   0.890
 8696TIP3    H126052   5.593   1.345   0.869
 8696TIP3    H226053   5.640   1.450   0.967
 8697TIP3   OH226054   4.347   1.516   0.299
 8697TIP3    H126055   4.345   1.463   0.219
 8697TIP3    H226056   4.257   1.549   0.308
 8698TIP3   OH226057   2.572   1.829   1.112
 8698TIP3    H126058   2.621   1.911   1.101
 8698TIP3    H226059   2.630   1.773   1.162
 8699TIP3   OH226060   4.453   3.322   5.541
 8699TIP3    H126061   4.407   3.280   5.614
 8699TIP3    H226062   4.517   3.379   5.583
 8700TIP3   OH226063   5.638   2.217   4.088
 8700TIP3    H126064   5.584   2.274   4.142
 8700TIP3    H226065   5.631   2.131   4.130
 8701TIP3   OH226066   6.282   1.134   0.710
 8701TIP3    H126067   6.224   1.061   0.732
 8701TIP3    H226068   6.227   1.195   0.661
 8702TIP3   OH226069   6.467   4.406   3.347
 8702TIP3    H126070   6.557   4.424   3.320
 8702TIP3    H226071   6.475   4.371   3.436
 8703TIP3   OH226072   5.488   6.039   4.414
 8703TIP3    H126073   5.402   6.004   4.438
 8703TIP3    H226074   5.483   6.132   4.435
 8704TIP3   OH226075   0.663   0.077   3.324
 8704TIP3    H126076   0.598   0.128   3.373
 8704TIP3    H226077   0.651  -0.012   3.355
 8705TIP3   OH226078   3.115   5.676   4.019
 8705TIP3    H126079   3.123   5.647   3.929
 8705TIP3    H226080   3.200   5.655   4.059
 8706TIP3   OH226081   5.590   1.181   4.941
 8706TIP3    H126082   5.645   1.232   5.000
 8706TIP3    H226083   5.502   1.217   4.953
 8707TIP3   OH226084   5.161   4.738   5.774
 8707TIP3    H126085   5.115   4.736   5.690
 8707TIP3    H226086   5.094   4.767   5.837
 8708TIP3   OH226087   1.013   2.965   1.545
 8708TIP3    H126088   1.030   2.872   1.565
 8708TIP3    H226089   0.966   2.998   1.621
 8709TIP3   OH226090   1.201   4.451   1.353
 8709TIP3    H126091   1.167   4.448   1.443
 8709TIP3    H226092   1.196   4.361   1.322
 8710TIP3   OH226093   3.223   3.135   4.221
 8710TIP3    H126094   3.199   3.063   4.279
 8710TIP3    H226095   3.175   3.210   4.254
 8711TIP3   OH226096   2.532   3.752   3.609
 8711TIP3    H126097   2.595   3.726   3.676
 8711TIP3    H226098   2.449   3.715   3.639
 8712TIP3   OH226099   0.335   5.128   5.429
 8712TIP3    H126100   0.283   5.203   5.399
 8712TIP3    H226101   0.407   5.168   5.477
 8713TIP3   OH226102   5.056   5.671   5.346
 8713TIP3    H126103   5.123   5.655   5.279
 8713TIP3    H226104   5.087   5.624   5.423
 8714TIP3   OH226105   5.440   4.780   1.791
 8714TIP3    H126106   5.524   4.808   1.755
 8714TIP3    H226107   5.426   4.838   1.866
 8715TIP3   OH226108   5.928   5.357   5.029
 8715TIP3    H126109   5.950   5.310   4.949
 8715TIP3    H226110   5.945   5.449   5.008
 8716TIP3   OH226111   3.491   4.325   3.914
 8716TIP3    H126112   3.450   4.318   3.827
 8716TIP3    H226113   3.521   4.415   3.920
 8717TIP3   OH226114   5.101   6.783   0.675
 8717TIP3    H126115   5.055   6.699   0.675
 8717TIP3    H226116   5.113   6.803   0.582
 8718TIP3   OH226117   0.935   5.382   1.477
 8718TIP3    H126118   0.994   5.349   1.545
 8718TIP3    H226119   0.863   5.423   1.526
 8719TIP3   OH226120   5.247   1.692   3.369
 8719TIP3    H126121   5.286   1.663   3.286
 8719TIP3    H226122   5.153   1.688   3.354
 8720TIP3   OH226123   2.755   4.519   2.387
 8720TIP3    H126124   2.662   4.543   2.385
 8720TIP3    H226125   2.774   4.508   2.480
 8721TIP3   OH226126   2.513   0.314   5.340
 8721TIP3    H126127   2.606   0.292   5.343
 8721TIP3    H226128   2.503   0.366   5.261
 8722TIP3   OH226129   4.415   0.922   3.678
 8722TIP3    H126130   4.361   0.880   3.745
 8722TIP3    H226131   4.505   0.898   3.700
 8723TIP3   OH226132   6.405   5.994   1.095
 8723TIP3    H126133   6.348   6.011   1.020
 8723TIP3    H226134   6.411   5.898   1.099
 8724TIP3   OH226135   3.687   3.988   5.691
 8724TIP3    H126136   3.617   3.928   5.719
 8724TIP3    H226137   3.768   3.943   5.714
 8725TIP3   OH226138   2.022   0.609   4.269
 8725TIP3    H126139   2.001   0.679   4.332
 8725TIP3    H226140   1.986   0.640   4.186
 8726TIP3   OH226141   6.966   1.866   3.380
 8726TIP3    H126142   6.964   1.798   3.447
 8726TIP3    H226143   6.988   1.946   3.428
 8727TIP3   OH226144   0.563   4.884   3.244
 8727TIP3    H126145   0.506   4.886   3.321
 8727TIP3    H226146   0.647   4.852   3.277
 8728TIP3   OH226147   4.365   2.292   1.652
 8728TIP3    H126148   4.320   2.314   1.734
 8728TIP3    H226149   4.315   2.219   1.616
 8729TIP3   OH226150   6.661   1.544   0.188
 8729TIP3    H126151   6.664   1.495   0.271
 8729TIP3    H226152   6.747   1.531   0.149
 8730TIP3   OH226153   0.143   4.704   2.022
 8730TIP3    H126154   0.118   4.614   2.003
 8730TIP3    H226155   0.154   4.707   2.117
 8731TIP3   OH226156   4.874   4.988   4.085
 8731TIP3    H126157   4.963   5.000   4.052
 8731TIP3    H226158   4.843   4.909   4.040
 8732TIP3   OH226159   2.885   3.056   5.190
 8732TIP3    H126160   2.811   3.106   5.223
 8732TIP3    H226161   2.960   3.114   5.199
 8733TIP3   OH226162   3.543   5.690   4.101
 8733TIP3    H126163   3.562   5.784   4.104
 8733TIP3    H226164   3.485   5.674   4.176
 8734TIP3   OH226165   2.516   1.929   5.739
 8734TIP3    H126166   2.564   1.987   5.798
 8734TIP3    H226167   2.564   1.846   5.742
 8735TIP3   OH226168   1.068   3.500   0.728
 8735TIP3    H126169   1.149   3.531   0.687
 8735TIP3    H226170   1.076   3.529   0.819
 8736TIP3   OH226171   6.352   3.955   1.472
 8736TIP3    H126172   6.428   4.013   1.471
 8736TIP3    H226173   6.388   3.869   1.497
 8737TIP3   OH226174   6.356   0.085   4.701
 8737TIP3    H126175   6.421   0.034   4.749
 8737TIP3    H226176   6.395   0.097   4.614
 8738TIP3   OH226177   5.407   0.314   2.445
 8738TIP3    H126178   5.480   0.253   2.457
 8738TIP3    H226179   5.431   0.391   2.497
 8739TIP3   OH226180   6.546   4.879   1.236
 8739TIP3    H126181   6.560   4.969   1.262
 8739TIP3    H226182   6.633   4.847   1.211
 8740TIP3   OH226183   4.427   2.401   4.879
 8740TIP3    H126184   4.521   2.413   4.892
 8740TIP3    H226185   4.387   2.438   4.957
 8741TIP3   OH226186   3.587   5.866   5.403
 8741TIP3    H126187   3.599   5.945   5.350
 8741TIP3    H226188   3.668   5.816   5.391
 8742TIP3   OH226189   3.892   6.849   3.495
 8742TIP3    H126190   3.933   6.763   3.502
 8742TIP3    H226191   3.857   6.852   3.406
 8743TIP3   OH226192   3.073   3.468   5.367
 8743TIP3    H126193   3.074   3.398   5.433
 8743TIP3    H226194   3.146   3.525   5.391
 8744TIP3   OH226195   1.294   1.628   1.570
 8744TIP3    H126196   1.377   1.602   1.610
 8744TIP3    H226197   1.309   1.620   1.476
 8745TIP3   OH226198   4.627   4.896   4.344
 8745TIP3    H126199   4.674   4.979   4.340
 8745TIP3    H226200   4.541   4.916   4.306
 8746TIP3   OH226201   5.960   1.566   4.845
 8746TIP3    H126202   6.040   1.607   4.879
 8746TIP3    H226203   5.959   1.589   4.752
 8747TIP3   OH226204   2.403   0.366   3.156
 8747TIP3    H126205   2.438   0.415   3.230
 8747TIP3    H226206   2.465   0.381   3.085
 8748TIP3   OH226207   3.910   2.895   4.617
 8748TIP3    H126208   3.958   2.971   4.652
 8748TIP3    H226209   3.821   2.905   4.651
 8749TIP3   OH226210   4.495   1.657   1.133
 8749TIP3    H126211   4.507   1.724   1.067
 8749TIP3    H226212   4.576   1.659   1.184
 8750TIP3   OH226213   5.205   4.045   4.445
 8750TIP3    H126214   5.119   4.035   4.485
 8750TIP3    H226215   5.219   4.140   4.439
 8751TIP3   OH226216   2.357   4.561   4.288
 8751TIP3    H126217   2.357   4.501   4.213
 8751TIP3    H226218   2.376   4.647   4.249
 8752TIP3   OH226219   4.846   6.286   1.077
 8752TIP3    H126220   4.917   6.265   1.138
 8752TIP3    H226221   4.859   6.227   1.003
 8753TIP3   OH226222   5.945   3.934   0.154
 8753TIP3    H126223   5.948   4.008   0.216
 8753TIP3    H226224   5.948   3.856   0.209
 8754TIP3   OH226225   5.694   2.629   0.036
 8754TIP3    H126226   5.713   2.536   0.026
 8754TIP3    H226227   5.601   2.632   0.059
 8755TIP3   OH226228   1.490   3.850   4.712
 8755TIP3    H126229   1.460   3.818   4.627
 8755TIP3    H226230   1.584   3.860   4.701
 8756TIP3   OH226231   1.954   3.157   4.822
 8756TIP3    H126232   1.889   3.224   4.845
 8756TIP3    H226233   1.979   3.178   4.731
 8757TIP3   OH226234   1.728   1.503   1.922
 8757TIP3    H126235   1.772   1.428   1.884
 8757TIP3    H226236   1.789   1.538   1.987
 8758TIP3   OH226237   3.665   4.558   0.219
 8758TIP3    H126238   3.729   4.528   0.283
 8758TIP3    H226239   3.668   4.493   0.149
 8759TIP3   OH226240   6.888   0.164   0.457
 8759TIP3    H126241   6.810   0.155   0.512
 8759TIP3    H226242   6.891   0.257   0.433
 8760TIP3   OH226243   0.016   6.264   0.819
 8760TIP3    H126244   0.045   6.203   0.886
 8760TIP3    H226245   0.069   6.343   0.833
 8761TIP3   OH226246   4.888   6.744   1.223
 8761TIP3    H126247   4.879   6.690   1.145
 8761TIP3    H226248   4.891   6.681   1.296
 8762TIP3   OH226249   4.114   0.414   0.541
 8762TIP3    H126250   4.108   0.454   0.628
 8762TIP3    H226251   4.067   0.474   0.483
 8763TIP3   OH226252   5.670   6.440   2.156
 8763TIP3    H126253   5.707   6.353   2.171
 8763TIP3    H226254   5.606   6.427   2.086
 8764TIP3   OH226255   1.174   3.637   0.422
 8764TIP3    H126256   1.252   3.657   0.370
 8764TIP3    H226257   1.187   3.547   0.451
 8765TIP3   OH226258   6.107   4.831   2.873
 8765TIP3    H126259   6.152   4.838   2.957
 8765TIP3    H226260   6.165   4.876   2.811
 8766TIP3   OH226261   0.927   2.710   5.032
 8766TIP3    H126262   0.935   2.733   5.125
 8766TIP3    H226263   0.969   2.782   4.986
 8767TIP3   OH226264   3.105   4.625   0.100
 8767TIP3    H126265   3.073   4.588   0.017
 8767TIP3    H226266   3.096   4.554   0.163
 8768TIP3   OH226267   7.129   3.921   5.485
 8768TIP3    H126268   7.053   3.942   5.540
 8768TIP3    H226269   7.122   3.981   5.411
 8769TIP3   OH226270   5.027   5.397   2.583
 8769TIP3    H126271   5.069   5.477   2.613
 8769TIP3    H226272   5.022   5.341   2.660
 8770TIP3   OH226273   3.472   0.580   0.619
 8770TIP3    H126274   3.419   0.602   0.695
 8770TIP3    H226275   3.432   0.501   0.583
 8771TIP3   OH226276   5.446   3.156   2.128
 8771TIP3    H126277   5.394   3.160   2.048
 8771TIP3    H226278   5.536   3.144   2.097
 8772TIP3   OH226279   0.308   5.462   3.722
 8772TIP3    H126280   0.294   5.534   3.784
 8772TIP3    H226281   0.249   5.393   3.752
 8773TIP3   OH226282   4.456   2.476   0.302
 8773TIP3    H126283   4.456   2.474   0.398
 8773TIP3    H226284   4.496   2.392   0.277
 8774TIP3   OH226285   6.247   1.853   5.506
 8774TIP3    H126286   6.305   1.868   5.581
 8774TIP3    H226287   6.180   1.794   5.538
 8775TIP3   OH226288   6.639   2.653   3.297
 8775TIP3    H126289   6.580   2.586   3.262
 8775TIP3    H226290   6.705   2.665   3.229
 8776TIP3   OH226291   6.502   3.237   0.388
 8776TIP3    H126292   6.414   3.198   0.388
 8776TIP3    H226293   6.498   3.305   0.455
 8777TIP3   OH226294   6.521   4.523   3.987
 8777TIP3    H126295   6.573   4.595   3.951
 8777TIP3    H226296   6.457   4.565   4.044
 8778TIP3   OH226297   2.347   0.019   0.019
 8778TIP3    H126298   2.300  -0.023   0.091
 8778TIP3    H226299   2.420   0.065   0.061
 8779TIP3   OH226300   6.596   0.527   1.004
 8779TIP3    H126301   6.631   0.581   1.076
 8779TIP3    H226302   6.636   0.441   1.017
 8780TIP3   OH226303   1.221   6.740   2.526
 8780TIP3    H126304   1.204   6.801   2.599
 8780TIP3    H226305   1.199   6.791   2.448
 8781TIP3   OH226306   1.100   6.241   3.637
 8781TIP3    H126307   1.178   6.283   3.602
 8781TIP3    H226308   1.045   6.314   3.668
 8782TIP3   OH226309   3.915   3.632   4.801
 8782TIP3    H126310   3.867   3.555   4.833
 8782TIP3    H226311   3.936   3.682   4.880
 8783TIP3   OH226312   2.853   5.421   0.390
 8783TIP3    H126313   2.864   5.355   0.321
 8783TIP3    H226314   2.758   5.422   0.407
 8784TIP3   OH226315   4.069   3.517   0.673
 8784TIP3    H126316   4.081   3.587   0.609
 8784TIP3    H226317   4.127   3.447   0.644
 8785TIP3   OH226318   0.315   3.542   2.536
 8785TIP3    H126319   0.276   3.609   2.480
 8785TIP3    H226320   0.242   3.505   2.586
 8786TIP3   OH226321   3.075   2.830   4.114
 8786TIP3    H126322   3.044   2.742   4.092
 8786TIP3    H226323   3.062   2.880   4.033
 8787TIP3   OH226324   0.934   4.194   2.544
 8787TIP3    H126325   1.019   4.195   2.500
 8787TIP3    H226326   0.884   4.264   2.501
 8788TIP3   OH226327   1.168   4.571   3.720
 8788TIP3    H126328   1.097   4.523   3.763
 8788TIP3    H226329   1.246   4.520   3.738
 8789TIP3   OH226330   0.701   4.809   4.183
 8789TIP3    H126331   0.620   4.845   4.221
 8789TIP3    H226332   0.746   4.885   4.147
 8790TIP3   OH226333   0.250   4.340   4.562
 8790TIP3    H126334   0.198   4.309   4.637
 8790TIP3    H226335   0.322   4.277   4.556
 8791TIP3   OH226336   0.856   6.521   5.477
 8791TIP3    H126337   0.928   6.583   5.492
 8791TIP3    H226338   0.788   6.547   5.539
 8792TIP3   OH226339   1.656   0.962   2.620
 8792TIP3    H126340   1.636   0.903   2.547
 8792TIP3    H226341   1.594   1.035   2.609
 8793TIP3   OH226342   3.328   6.587   4.970
 8793TIP3    H126343   3.351   6.555   4.882
 8793TIP3    H226344   3.407   6.629   5.002
 8794TIP3   OH226345   2.312   2.666   0.604
 8794TIP3    H126346   2.363   2.628   0.675
 8794TIP3    H226347   2.250   2.724   0.646
 8795TIP3   OH226348   3.539   3.996   0.959
 8795TIP3    H126349   3.584   3.935   0.901
 8795TIP3    H226350   3.446   3.980   0.944
 8796TIP3   OH226351   0.786   4.936   3.777
 8796TIP3    H126352   0.845   4.982   3.717
 8796TIP3    H226353   0.842   4.877   3.827
 8797TIP3   OH226354   3.466   6.659   1.705
 8797TIP3    H126355   3.428   6.684   1.620
 8797TIP3    H226356   3.549   6.618   1.683
 8798TIP3   OH226357   5.189   1.252   2.871
 8798TIP3    H126358   5.225   1.229   2.785
 8798TIP3    H226359   5.203   1.174   2.925
 8799TIP3   OH226360   1.051   5.570   1.021
 8799TIP3    H126361   1.145   5.553   1.023
 8799TIP3    H226362   1.022   5.540   0.935
 8800TIP3   OH226363   1.017   3.526   2.895
 8800TIP3    H126364   1.053   3.611   2.870
 8800TIP3    H226365   0.976   3.541   2.980
 8801TIP3   OH226366   6.608   4.298   4.227
 8801TIP3    H126367   6.692   4.263   4.254
 8801TIP3    H226368   6.598   4.269   4.136
 8802TIP3   OH226369   3.305   6.129   2.525
 8802TIP3    H126370   3.250   6.145   2.601
 8802TIP3    H226371   3.380   6.188   2.537
 8803TIP3   OH226372   0.372   4.800   5.054
 8803TIP3    H126373   0.355   4.855   5.130
 8803TIP3    H226374   0.297   4.741   5.050
 8804TIP3   OH226375   6.872   5.436   4.357
 8804TIP3    H126376   6.909   5.352   4.388
 8804TIP3    H226377   6.814   5.412   4.286
 8805TIP3   OH226378   1.312   4.217   1.819
 8805TIP3    H126379   1.219   4.204   1.803
 8805TIP3    H226380   1.336   4.150   1.883
 8806TIP3   OH226381   5.246   1.998   5.259
 8806TIP3    H126382   5.294   1.956   5.188
 8806TIP3    H226383   5.243   2.090   5.234
 8807TIP3   OH226384   0.072   3.697   1.012
 8807TIP3    H126385   0.111   3.780   0.983
 8807TIP3    H226386  -0.005   3.686   0.956
 8808TIP3   OH226387   0.959   2.231   4.714
 8808TIP3    H126388   0.921   2.159   4.664
 8808TIP3    H226389   0.912   2.230   4.798
 8809TIP3   OH226390   0.090   2.250   3.060
 8809TIP3    H126391   0.019   2.190   3.085
 8809TIP3    H226392   0.054   2.301   2.988
 8810TIP3   OH226393   4.660   1.355   0.020
 8810TIP3    H126394   4.752   1.328   0.022
 8810TIP3    H226395   4.658   1.436   0.070
 8811TIP3   OH226396   7.233   5.000   5.792
 8811TIP3    H126397   7.212   4.938   5.723
 8811TIP3    H226398   7.151   5.010   5.842
 8812TIP3   OH226399   1.449   6.383   3.651
 8812TIP3    H126400   1.386   6.443   3.610
 8812TIP3    H226401   1.418   6.296   3.628
 8813TIP3   OH226402   4.303   1.048   4.171
 8813TIP3    H126403   4.261   1.125   4.209
 8813TIP3    H226404   4.345   1.080   4.091
 8814TIP3   OH226405   7.070   6.073   0.662
 8814TIP3    H126406   7.072   6.012   0.736
 8814TIP3    H226407   7.143   6.133   0.679
 8815TIP3   OH226408   5.017   5.936   3.446
 8815TIP3    H126409   4.986   5.921   3.357
 8815TIP3    H226410   4.973   5.868   3.498
 8816TIP3   OH226411   6.391   3.416   2.087
 8816TIP3    H126412   6.395   3.429   1.993
 8816TIP3    H226413   6.413   3.324   2.100
 8817TIP3   OH226414   3.752   1.508   0.012
 8817TIP3    H126415   3.823   1.573   0.020
 8817TIP3    H226416   3.736   1.501  -0.082
 8818TIP3   OH226417   2.574   1.639   5.652
 8818TIP3    H126418   2.530   1.617   5.570
 8818TIP3    H226419   2.554   1.565   5.710
 8819TIP3   OH226420   6.596   4.973   4.952
 8819TIP3    H126421   6.631   5.058   4.925
 8819TIP3    H226422   6.521   4.994   5.007
 8820TIP3   OH226423   5.766   0.890   1.248
 8820TIP3    H126424   5.809   0.969   1.215
 8820TIP3    H226425   5.747   0.838   1.170
 8821TIP3   OH226426   0.176   4.643   0.421
 8821TIP3    H126427   0.219   4.562   0.449
 8821TIP3    H226428   0.246   4.708   0.419
 8822TIP3   OH226429   6.340   3.401   3.481
 8822TIP3    H126430   6.287   3.463   3.431
 8822TIP3    H226431   6.280   3.366   3.546
 8823TIP3   OH226432   6.397   1.467   4.066
 8823TIP3    H126433   6.482   1.497   4.036
 8823TIP3    H226434   6.359   1.423   3.990
 8824TIP3   OH226435   4.128   4.412   4.061
 8824TIP3    H126436   4.054   4.464   4.030
 8824TIP3    H226437   4.090   4.355   4.128
 8825TIP3   OH226438   0.924   0.444   1.696
 8825TIP3    H126439   1.017   0.466   1.691
 8825TIP3    H226440   0.904   0.448   1.789
 8826TIP3   OH226441   0.551   6.381   1.254
 8826TIP3    H126442   0.586   6.299   1.287
 8826TIP3    H226443   0.628   6.438   1.245
 8827TIP3   OH226444   4.043   2.469   2.478
 8827TIP3    H126445   4.028   2.558   2.511
 8827TIP3    H226446   4.104   2.480   2.405
 8828TIP3   OH226447   4.281   1.858   3.247
 8828TIP3    H126448   4.277   1.776   3.197
 8828TIP3    H226449   4.339   1.914   3.195
 8829TIP3   OH226450   0.598   2.425   1.658
 8829TIP3    H126451   0.648   2.344   1.647
 8829TIP3    H226452   0.553   2.437   1.574
 8830TIP3   OH226453   2.058   2.990   3.975
 8830TIP3    H126454   2.048   2.966   3.883
 8830TIP3    H226455   2.153   2.989   3.990
 8831TIP3   OH226456   5.334   5.176   5.014
 8831TIP3    H126457   5.263   5.113   5.023
 8831TIP3    H226458   5.293   5.254   4.978
 8832TIP3   OH226459   5.406   0.169   2.769
 8832TIP3    H126460   5.331   0.220   2.740
 8832TIP3    H226461   5.480   0.204   2.720
 8833TIP3   OH226462   0.862   4.654   2.807
 8833TIP3    H126463   0.826   4.705   2.880
 8833TIP3    H226464   0.793   4.591   2.785
 8834TIP3   OH226465   5.954   0.416   0.784
 8834TIP3    H126466   5.894   0.349   0.816
 8834TIP3    H226467   6.038   0.371   0.774
 8835TIP3   OH226468   5.765   1.524   1.096
 8835TIP3    H126469   5.781   1.449   1.154
 8835TIP3    H226470   5.781   1.600   1.152
 8836TIP3   OH226471   1.560   2.102   1.852
 8836TIP3    H126472   1.533   2.020   1.812
 8836TIP3    H226473   1.494   2.119   1.920
 8837TIP3   OH226474   6.952   0.759   4.385
 8837TIP3    H126475   6.973   0.830   4.325
 8837TIP3    H226476   7.037   0.725   4.413
 8838TIP3   OH226477   4.697   3.204   4.211
 8838TIP3    H126478   4.644   3.195   4.290
 8838TIP3    H226479   4.636   3.233   4.144
 8839TIP3   OH226480   0.627   1.168   0.510
 8839TIP3    H126481   0.689   1.205   0.446
 8839TIP3    H226482   0.612   1.238   0.573
 8840TIP3   OH226483   4.482   2.562   1.609
 8840TIP3    H126484   4.459   2.481   1.656
 8840TIP3    H226485   4.402   2.588   1.564
 8841TIP3   OH226486   7.037   5.775   2.802
 8841TIP3    H126487   7.073   5.863   2.799
 8841TIP3    H226488   7.107   5.719   2.770
 8842TIP3   OH226489   5.629   0.386   3.817
 8842TIP3    H126490   5.710   0.399   3.867
 8842TIP3    H226491   5.584   0.315   3.862
 8843TIP3   OH226492   4.795   2.362   1.862
 8843TIP3    H126493   4.879   2.316   1.872
 8843TIP3    H226494   4.737   2.297   1.822
 8844TIP3   OH226495   6.549   0.635   1.333
 8844TIP3    H126496   6.571   0.618   1.425
 8844TIP3    H226497   6.483   0.568   1.313
 8845TIP3   OH226498   1.257   2.562   4.592
 8845TIP3    H126499   1.260   2.471   4.562
 8845TIP3    H226500   1.300   2.611   4.522
 8846TIP3   OH226501   0.489   3.692   0.472
 8846TIP3    H126502   0.525   3.638   0.543
 8846TIP3    H226503   0.542   3.669   0.395
 8847TIP3   OH226504   4.422   4.908   2.679
 8847TIP3    H126505   4.493   4.940   2.734
 8847TIP3    H226506   4.463   4.886   2.596
 8848TIP3   OH226507   2.416   1.416   3.527
 8848TIP3    H126508   2.367   1.336   3.546
 8848TIP3    H226509   2.411   1.426   3.432
 8849TIP3   OH226510   4.112   4.797   4.568
 8849TIP3    H126511   4.087   4.886   4.594
 8849TIP3    H226512   4.029   4.752   4.554
 8850TIP3   OH226513   7.186   4.546   4.254
 8850TIP3    H126514   7.254   4.481   4.235
 8850TIP3    H226515   7.104   4.499   4.241
 8851TIP3   OH226516   5.883   6.811   5.375
 8851TIP3    H126517   5.923   6.743   5.429
 8851TIP3    H226518   5.802   6.771   5.342
 8852TIP3   OH226519   3.039   1.328   4.660
 8852TIP3    H126520   3.088   1.310   4.740
 8852TIP3    H226521   3.099   1.305   4.589
 8853TIP3   OH226522   4.551   3.074   4.403
 8853TIP3    H126523   4.526   2.999   4.456
 8853TIP3    H226524   4.575   3.142   4.467
 8854TIP3   OH226525   2.077   2.152   0.284
 8854TIP3    H126526   2.031   2.190   0.209
 8854TIP3    H226527   2.161   2.198   0.286
 8855TIP3   OH226528   5.777   4.991   5.549
 8855TIP3    H126529   5.828   5.000   5.629
 8855TIP3    H226530   5.840   5.007   5.479
 8856TIP3   OH226531   7.223   0.090   5.295
 8856TIP3    H126532   7.154   0.152   5.316
 8856TIP3    H226533   7.177   0.013   5.262
 8857TIP3   OH226534   0.439   4.709   2.875
 8857TIP3    H126535   0.366   4.683   2.819
 8857TIP3    H226536   0.397   4.736   2.957
 8858TIP3   OH226537   3.348   3.400   0.894
 8858TIP3    H126538   3.389   3.336   0.951
 8858TIP3    H226539   3.399   3.480   0.906
 8859TIP3   OH226540   2.913   1.181   0.057
 8859TIP3    H126541   2.862   1.106   0.088
 8859TIP3    H226542   2.864   1.214  -0.018
 8860TIP3   OH226543   0.151   1.786   3.326
 8860TIP3    H126544   0.189   1.863   3.282
 8860TIP3    H226545   0.088   1.752   3.263
 8861TIP3   OH226546   1.407   4.835   5.466
 8861TIP3    H126547   1.371   4.838   5.377
 8861TIP3    H226548   1.337   4.871   5.521
 8862TIP3   OH226549   2.954   5.282   1.507
 8862TIP3    H126550   2.946   5.271   1.602
 8862TIP3    H226551   2.864   5.298   1.477
 8863TIP3   OH226552   4.078   3.315   1.786
 8863TIP3    H126553   4.044   3.297   1.874
 8863TIP3    H226554   4.088   3.410   1.783
 8864TIP3   OH226555   0.500   1.252   1.565
 8864TIP3    H126556   0.452   1.316   1.512
 8864TIP3    H226557   0.462   1.168   1.540
 8865TIP3   OH226558   4.272   6.167   1.113
 8865TIP3    H126559   4.282   6.087   1.164
 8865TIP3    H226560   4.358   6.209   1.117
 8866TIP3   OH226561   5.266   4.513   4.692
 8866TIP3    H126562   5.172   4.501   4.702
 8866TIP3    H226563   5.297   4.431   4.654
 8867TIP3   OH226564   2.135   6.666   1.542
 8867TIP3    H126565   2.195   6.593   1.526
 8867TIP3    H226566   2.140   6.681   1.637
 8868TIP3   OH226567   6.245   5.646   0.767
 8868TIP3    H126568   6.337   5.654   0.741
 8868TIP3    H226569   6.201   5.608   0.691
 8869TIP3   OH226570   5.363   1.107   1.015
 8869TIP3    H126571   5.335   1.145   0.932
 8869TIP3    H226572   5.431   1.167   1.047
 8870TIP3   OH226573   5.674   4.271   0.249
 8870TIP3    H126574   5.750   4.287   0.193
 8870TIP3    H226575   5.628   4.199   0.206
 8871TIP3   OH226576   1.355   1.174   0.629
 8871TIP3    H126577   1.399   1.145   0.550
 8871TIP3    H226578   1.394   1.121   0.699
 8872TIP3   OH226579   4.721   2.281   4.388
 8872TIP3    H126580   4.688   2.350   4.330
 8872TIP3    H226581   4.760   2.216   4.329
 8873TIP3   OH226582   0.712   5.554   0.642
 8873TIP3    H126583   0.706   5.649   0.633
 8873TIP3    H226584   0.732   5.523   0.554
 8874TIP3   OH226585   6.404   2.751   0.924
 8874TIP3    H126586   6.433   2.676   0.975
 8874TIP3    H226587   6.387   2.819   0.988
 8875TIP3   OH226588   2.096   2.122   4.452
 8875TIP3    H126589   2.086   2.075   4.534
 8875TIP3    H226590   2.143   2.061   4.395
 8876TIP3   OH226591   4.215   1.757   1.551
 8876TIP3    H126592   4.252   1.669   1.548
 8876TIP3    H226593   4.213   1.785   1.459
 8877TIP3   OH226594   3.055   3.932   0.262
 8877TIP3    H126595   2.996   3.858   0.251
 8877TIP3    H226596   3.139   3.893   0.289
 8878TIP3   OH226597   3.924   2.202   3.913
 8878TIP3    H126598   3.838   2.206   3.955
 8878TIP3    H226599   3.944   2.292   3.889
 8879TIP3   OH226600   0.396   4.501   3.156
 8879TIP3    H126601   0.366   4.591   3.148
 8879TIP3    H226602   0.359   4.457   3.079
 8880TIP3   OH226603   2.902   5.786   5.037
 8880TIP3    H126604   2.922   5.698   5.069
 8880TIP3    H226605   2.808   5.783   5.018
 8881TIP3   OH226606   3.269   5.584   2.426
 8881TIP3    H126607   3.363   5.571   2.414
 8881TIP3    H226608   3.251   5.551   2.514
 8882TIP3   OH226609   7.046   5.194   0.422
 8882TIP3    H126610   7.037   5.109   0.466
 8882TIP3    H226611   7.138   5.218   0.436
 8883TIP3   OH226612   5.742   5.335   1.829
 8883TIP3    H126613   5.760   5.405   1.766
 8883TIP3    H226614   5.794   5.261   1.796
 8884TIP3   OH226615   2.918   5.586   4.465
 8884TIP3    H126616   2.942   5.559   4.377
 8884TIP3    H226617   2.827   5.615   4.457
 8885TIP3   OH226618   5.570   3.884   2.328
 8885TIP3    H126619   5.649   3.920   2.288
 8885TIP3    H226620   5.575   3.790   2.311
 8886TIP3   OH226621   0.611   0.478   3.175
 8886TIP3    H126622   0.689   0.436   3.139
 8886TIP3    H226623   0.624   0.477   3.270
 8887TIP3   OH226624   1.490   3.264   5.240
 8887TIP3    H126625   1.416   3.308   5.197
 8887TIP3    H226626   1.516   3.324   5.309
 8888TIP3   OH226627   4.607   1.088   5.784
 8888TIP3    H126628   4.554   1.156   5.827
 8888TIP3    H226629   4.660   1.136   5.720
 8889TIP3   OH226630   3.305   5.950   1.383
 8889TIP3    H126631   3.397   5.974   1.387
 8889TIP3    H226632   3.296   5.899   1.302
 8890TIP3   OH226633   5.496   1.492   4.648
 8890TIP3    H126634   5.405   1.471   4.667
 8890TIP3    H226635   5.508   1.467   4.556
 8891TIP3   OH226636   0.699   6.254   5.691
 8891TIP3    H126637   0.782   6.213   5.668
 8891TIP3    H226638   0.714   6.290   5.779
 8892TIP3   OH226639   5.934   6.584   5.071
 8892TIP3    H126640   5.985   6.514   5.031
 8892TIP3    H226641   5.959   6.663   5.023
 8893TIP3   OH226642   5.566   2.261   2.908
 8893TIP3    H126643   5.596   2.178   2.945
 8893TIP3    H226644   5.642   2.295   2.861
 8894TIP3   OH226645   7.003   6.135   1.265
 8894TIP3    H126646   6.916   6.123   1.302
 8894TIP3    H226647   7.015   6.230   1.261
 8895TIP3   OH226648   3.170   5.934   3.800
 8895TIP3    H126649   3.193   5.841   3.802
 8895TIP3    H226650   3.242   5.976   3.752
 8896TIP3   OH226651   3.799   0.751   5.377
 8896TIP3    H126652   3.887   0.788   5.367
 8896TIP3    H226653   3.814   0.664   5.415
 8897TIP3   OH226654   3.617   1.889   4.674
 8897TIP3    H126655   3.676   1.921   4.743
 8897TIP3    H226656   3.619   1.957   4.607
 8898TIP3   OH226657   2.703   2.901   1.295
 8898TIP3    H126658   2.741   2.970   1.241
 8898TIP3    H226659   2.778   2.850   1.326
 8899TIP3   OH226660   1.266   4.318   5.481
 8899TIP3    H126661   1.314   4.394   5.515
 8899TIP3    H226662   1.289   4.314   5.389
 8900TIP3   OH226663  -0.001   4.740   4.423
 8900TIP3    H126664   0.076   4.783   4.387
 8900TIP3    H226665  -0.015   4.665   4.366
 8901TIP3   OH226666   4.599   4.580   2.788
 8901TIP3    H126667   4.673   4.521   2.771
 8901TIP3    H226668   4.529   4.547   2.731
 8902TIP3   OH226669   4.643   6.408   1.368
 8902TIP3    H126670   4.589   6.473   1.413
 8902TIP3    H226671   4.583   6.335   1.352
 8903TIP3   OH226672   6.045   0.618   0.561
 8903TIP3    H126673   5.981   0.668   0.611
 8903TIP3    H226674   6.033   0.647   0.471
 8904TIP3   OH226675   6.259   0.962   3.250
 8904TIP3    H126676   6.309   1.029   3.203
 8904TIP3    H226677   6.192   0.934   3.186
 8905TIP3   OH226678   0.721   1.610   2.389
 8905TIP3    H126679   0.775   1.658   2.452
 8905TIP3    H226680   0.636   1.653   2.392
 8906TIP3   OH226681   3.283   0.138   5.529
 8906TIP3    H126682   3.333   0.217   5.551
 8906TIP3    H226683   3.306   0.075   5.597
 8907TIP3   OH226684   0.593   0.493   0.506
 8907TIP3    H126685   0.615   0.434   0.578
 8907TIP3    H226686   0.588   0.436   0.429
 8908TIP3   OH226687   5.866   2.861   1.054
 8908TIP3    H126688   5.837   2.940   1.099
 8908TIP3    H226689   5.799   2.846   0.987
 8909TIP3   OH226690   6.341   4.791   5.258
 8909TIP3    H126691   6.395   4.806   5.181
 8909TIP3    H226692   6.402   4.793   5.332
 8910TIP3   OH226693   5.887   1.953   1.793
 8910TIP3    H126694   5.961   1.940   1.853
 8910TIP3    H226695   5.846   1.866   1.788
 8911TIP3   OH226696   0.455   2.717   5.774
 8911TIP3    H126697   0.532   2.724   5.831
 8911TIP3    H226698   0.392   2.666   5.826
 8912TIP3   OH226699   4.746   0.665   0.389
 8912TIP3    H126700   4.661   0.651   0.348
 8912TIP3    H226701   4.755   0.760   0.395
 8913TIP3   OH226702   2.239   4.141   3.546
 8913TIP3    H126703   2.194   4.057   3.556
 8913TIP3    H226704   2.171   4.207   3.562
 8914TIP3   OH226705   7.163   0.497   5.181
 8914TIP3    H126706   7.169   0.419   5.236
 8914TIP3    H226707   7.252   0.512   5.150
 8915TIP3   OH226708   0.925   5.984   4.554
 8915TIP3    H126709   0.923   5.935   4.636
 8915TIP3    H226710   1.017   5.984   4.528
 8916TIP3   OH226711   3.525   3.711   5.713
 8916TIP3    H126712   3.465   3.636   5.711
 8916TIP3    H226713   3.599   3.684   5.659
 8917TIP3   OH226714   4.622   0.774   5.662
 8917TIP3    H126715   4.692   0.790   5.725
 8917TIP3    H226716   4.597   0.683   5.677
 8918TIP3   OH226717   1.500   2.115   5.307
 8918TIP3    H126718   1.438   2.088   5.239
 8918TIP3    H226719   1.566   2.166   5.259
 8919TIP3   OH226720   3.053   6.196   0.045
 8919TIP3    H126721   3.004   6.259   0.098
 8919TIP3    H226722   3.123   6.165   0.102
 8920TIP3   OH226723   2.460   1.267   2.701
 8920TIP3    H126724   2.397   1.201   2.673
 8920TIP3    H226725   2.467   1.255   2.796
 8921TIP3   OH226726   4.997   2.186   3.063
 8921TIP3    H126727   5.042   2.269   3.078
 8921TIP3    H226728   4.965   2.192   2.973
 8922TIP3   OH226729   2.381   4.072   4.468
 8922TIP3    H126730   2.461   4.087   4.519
 8922TIP3    H226731   2.411   4.068   4.377
 8923TIP3   OH226732   5.947   4.077   3.463
 8923TIP3    H126733   6.013   4.110   3.524
 8923TIP3    H226734   5.984   4.092   3.376
 8924TIP3   OH226735   3.920   5.227   5.563
 8924TIP3    H126736   3.912   5.133   5.546
 8924TIP3    H226737   3.856   5.245   5.632
 8925TIP3   OH226738   5.746   2.995   2.726
 8925TIP3    H126739   5.706   3.022   2.808
 8925TIP3    H226740   5.831   2.958   2.751
 8926TIP3   OH226741   3.934   0.458   1.125
 8926TIP3    H126742   3.846   0.422   1.124
 8926TIP3    H226743   3.990   0.384   1.148
 8927TIP3   OH226744   5.422   4.117   3.470
 8927TIP3    H126745   5.392   4.149   3.555
 8927TIP3    H226746   5.362   4.159   3.407
 8928TIP3   OH226747   2.217   1.756   4.968
 8928TIP3    H126748   2.230   1.846   4.938
 8928TIP3    H226749   2.237   1.760   5.062
 8929TIP3   OH226750   5.758   2.533   0.500
 8929TIP3    H126751   5.847   2.562   0.477
 8929TIP3    H226752   5.763   2.512   0.593
 8930TIP3   OH226753   4.616   5.512   4.967
 8930TIP3    H126754   4.654   5.524   5.054
 8930TIP3    H226755   4.526   5.545   4.975
 8931TIP3   OH226756   4.907   0.057   5.197
 8931TIP3    H126757   4.956   0.022   5.123
 8931TIP3    H226758   4.929  -0.003   5.269
 8932TIP3   OH226759   2.238   4.615   1.432
 8932TIP3    H126760   2.224   4.521   1.446
 8932TIP3    H226761   2.158   4.645   1.389
 8933TIP3   OH226762   5.094   5.918   0.724
 8933TIP3    H126763   5.174   5.886   0.680
 8933TIP3    H226764   5.029   5.850   0.706
 8934TIP3   OH226765   6.212   1.149   5.204
 8934TIP3    H126766   6.181   1.153   5.114
 8934TIP3    H226767   6.301   1.184   5.201
 8935TIP3   OH226768   5.401   1.760   4.264
 8935TIP3    H126769   5.373   1.668   4.269
 8935TIP3    H226770   5.321   1.810   4.279
 8936TIP3   OH226771   6.173   0.057   0.154
 8936TIP3    H126772   6.134   0.140   0.126
 8936TIP3    H226773   6.126  -0.010   0.104
 8937TIP3   OH226774   0.495   4.357   1.237
 8937TIP3    H126775   0.572   4.374   1.182
 8937TIP3    H226776   0.502   4.264   1.260
 8938TIP3   OH226777   4.945   3.140   5.491
 8938TIP3    H126778   5.020   3.088   5.522
 8938TIP3    H226779   4.897   3.162   5.571
 8939TIP3   OH226780   1.516   0.753   2.470
 8939TIP3    H126781   1.477   0.713   2.547
 8939TIP3    H226782   1.524   0.682   2.407
 8940TIP3   OH226783   6.347   3.421   0.817
 8940TIP3    H126784   6.256   3.445   0.837
 8940TIP3    H226785   6.359   3.448   0.726
 8941TIP3   OH226786   2.706   2.273   0.843
 8941TIP3    H126787   2.689   2.314   0.928
 8941TIP3    H226788   2.707   2.179   0.862
 8942TIP3   OH226789   6.737   0.278   2.686
 8942TIP3    H126790   6.661   0.240   2.643
 8942TIP3    H226791   6.737   0.240   2.773
 8943TIP3   OH226792   0.965   5.114   3.655
 8943TIP3    H126793   1.042   5.094   3.602
 8943TIP3    H226794   0.918   5.180   3.604
 8944TIP3   OH226795   0.232   2.221   5.147
 8944TIP3    H126796   0.186   2.239   5.065
 8944TIP3    H226797   0.308   2.169   5.120
 8945TIP3   OH226798   1.750   6.023   4.030
 8945TIP3    H126799   1.828   6.067   4.064
 8945TIP3    H226800   1.748   5.939   4.077
 8946TIP3   OH226801   6.763   6.519   5.351
 8946TIP3    H126802   6.717   6.526   5.268
 8946TIP3    H226803   6.840   6.465   5.332
 8947TIP3   OH226804   2.105   2.555   3.030
 8947TIP3    H126805   2.194   2.584   3.052
 8947TIP3    H226806   2.053   2.581   3.106
 8948TIP3   OH226807   7.016   3.246   3.087
 8948TIP3    H126808   7.106   3.248   3.055
 8948TIP3    H226809   6.975   3.324   3.050
 8949TIP3   OH226810   3.711   3.048   0.131
 8949TIP3    H126811   3.762   3.010   0.202
 8949TIP3    H226812   3.637   3.090   0.175
 8950TIP3   OH226813   5.863   2.636   1.326
 8950TIP3    H126814   5.908   2.634   1.242
 8950TIP3    H226815   5.777   2.673   1.306
 8951TIP3   OH226816   5.272   5.708   1.966
 8951TIP3    H126817   5.366   5.715   1.981
 8951TIP3    H226818   5.243   5.641   2.029
 8952TIP3   OH226819   5.589   1.298   4.428
 8952TIP3    H126820   5.521   1.237   4.401
 8952TIP3    H226821   5.664   1.242   4.450
 8953TIP3   OH226822   0.016   4.739   1.209
 8953TIP3    H126823   0.110   4.740   1.191
 8953TIP3    H226824   0.001   4.820   1.258
 8954TIP3   OH226825   6.953   3.062   0.579
 8954TIP3    H126826   6.892   2.999   0.617
 8954TIP3    H226827   6.906   3.101   0.505
 8955TIP3   OH226828   4.141   4.321   0.693
 8955TIP3    H126829   4.073   4.382   0.668
 8955TIP3    H226830   4.109   4.236   0.664
 8956TIP3   OH226831   3.544   2.877   3.222
 8956TIP3    H126832   3.482   2.804   3.216
 8956TIP3    H226833   3.491   2.951   3.251
 8957TIP3   OH226834   5.807   3.010   3.923
 8957TIP3    H126835   5.817   3.101   3.894
 8957TIP3    H226836   5.713   2.999   3.933
 8958TIP3   OH226837   4.532   0.761   4.957
 8958TIP3    H126838   4.453   0.714   4.931
 8958TIP3    H226839   4.504   0.816   5.030
 8959TIP3   OH226840   2.804   3.007   4.088
 8959TIP3    H126841   2.864   3.016   4.014
 8959TIP3    H226842   2.783   2.914   4.091
 8960TIP3   OH226843   3.087   4.657   4.854
 8960TIP3    H126844   3.139   4.580   4.876
 8960TIP3    H226845   3.040   4.632   4.774
 8961TIP3   OH226846  -0.027   3.763   0.216
 8961TIP3    H126847   0.019   3.837   0.256
 8961TIP3    H226848   0.004   3.687   0.265
 8962TIP3   OH226849   6.541   0.902   5.354
 8962TIP3    H126850   6.619   0.929   5.403
 8962TIP3    H226851   6.469   0.909   5.417
 8963TIP3   OH226852   4.136   4.425   0.317
 8963TIP3    H126853   4.158   4.460   0.231
 8963TIP3    H226854   4.215   4.380   0.346
 8964TIP3   OH226855   3.021   3.215   2.448
 8964TIP3    H126856   2.966   3.290   2.473
 8964TIP3    H226857   2.983   3.184   2.366
 8965TIP3   OH226858   2.659   1.315   3.617
 8965TIP3    H126859   2.685   1.317   3.525
 8965TIP3    H226860   2.564   1.303   3.616
 8966TIP3   OH226861   3.174   5.704   1.377
 8966TIP3    H126862   3.215   5.623   1.346
 8966TIP3    H226863   3.246   5.764   1.393
 8967TIP3   OH226864   1.177   6.528   1.419
 8967TIP3    H126865   1.223   6.584   1.482
 8967TIP3    H226866   1.084   6.543   1.437
 8968TIP3   OH226867   5.835   2.336   5.249
 8968TIP3    H126868   5.922   2.356   5.215
 8968TIP3    H226869   5.822   2.243   5.229
 8969TIP3   OH226870   2.832   1.681   5.754
 8969TIP3    H126871   2.755   1.643   5.712
 8969TIP3    H226872   2.851   1.759   5.702
 8970TIP3   OH226873   1.336   4.976   2.229
 8970TIP3    H126874   1.276   5.027   2.284
 8970TIP3    H226875   1.384   4.922   2.291
 8971TIP3   OH226876   5.731   3.786   0.915
 8971TIP3    H126877   5.757   3.755   0.828
 8971TIP3    H226878   5.705   3.877   0.900
 8972TIP3   OH226879   6.848   5.052   4.172
 8972TIP3    H126880   6.759   5.016   4.175
 8972TIP3    H226881   6.904   4.980   4.201
 8973TIP3   OH226882   6.376   3.149   2.150
 8973TIP3    H126883   6.354   3.070   2.199
 8973TIP3    H226884   6.470   3.140   2.132
 8974TIP3   OH226885   0.793   3.211   1.030
 8974TIP3    H126886   0.754   3.298   1.031
 8974TIP3    H226887   0.878   3.222   1.073
 8975TIP3   OH226888   6.806   1.533   2.131
 8975TIP3    H126889   6.882   1.527   2.072
 8975TIP3    H226890   6.798   1.626   2.151
 8976TIP3   OH226891   0.970   3.059   5.807
 8976TIP3    H126892   1.000   3.030   5.721
 8976TIP3    H226893   1.008   2.997   5.869
 8977TIP3   OH226894   2.983   0.963   1.487
 8977TIP3    H126895   2.979   0.894   1.421
 8977TIP3    H226896   2.909   1.020   1.467
 8978TIP3   OH226897   7.131   6.392   2.289
 8978TIP3    H126898   7.070   6.344   2.345
 8978TIP3    H226899   7.209   6.403   2.343
 8979TIP3   OH226900   5.211   5.892   3.074
 8979TIP3    H126901   5.273   5.921   3.141
 8979TIP3    H226902   5.126   5.922   3.106
 8980TIP3   OH226903   6.887   6.622   1.255
 8980TIP3    H126904   6.851   6.656   1.173
 8980TIP3    H226905   6.977   6.654   1.257
 8981TIP3   OH226906   1.823   0.439   1.414
 8981TIP3    H126907   1.766   0.470   1.484
 8981TIP3    H226908   1.907   0.424   1.457
 8982TIP3   OH226909   2.054   2.094   2.989
 8982TIP3    H126910   2.051   2.148   2.910
 8982TIP3    H226911   1.963   2.076   3.010
 8983TIP3   OH226912   6.738   0.143   4.307
 8983TIP3    H126913   6.738   0.059   4.260
 8983TIP3    H226914   6.789   0.201   4.251
 8984TIP3   OH226915   5.769   0.633   3.194
 8984TIP3    H126916   5.809   0.681   3.122
 8984TIP3    H226917   5.755   0.544   3.159
 8985TIP3   OH226918   1.935   6.200   3.245
 8985TIP3    H126919   1.983   6.214   3.326
 8985TIP3    H226920   1.882   6.279   3.234
 8986TIP3   OH226921   1.499   5.065   0.169
 8986TIP3    H126922   1.496   5.153   0.207
 8986TIP3    H226923   1.451   5.011   0.231
 8987TIP3   OH226924   2.099   6.681   3.011
 8987TIP3    H126925   2.093   6.681   3.106
 8987TIP3    H226926   2.178   6.733   2.992
 8988TIP3   OH226927   5.923   3.984   1.976
 8988TIP3    H126928   5.883   4.062   1.937
 8988TIP3    H226929   5.874   3.911   1.937
 8989TIP3   OH226930   6.520   5.962   4.374
 8989TIP3    H126931   6.551   5.874   4.352
 8989TIP3    H226932   6.450   5.979   4.311
 8990TIP3   OH226933   2.930   0.219   3.588
 8990TIP3    H126934   2.837   0.224   3.567
 8990TIP3    H226935   2.956   0.309   3.607
 8991TIP3   OH226936   6.637   1.449   1.278
 8991TIP3    H126937   6.651   1.482   1.367
 8991TIP3    H226938   6.629   1.354   1.288
 8992TIP3   OH226939   4.132   2.990   4.206
 8992TIP3    H126940   4.052   3.015   4.160
 8992TIP3    H226941   4.117   3.020   4.296
 8993TIP3   OH226942   2.295   2.982   2.533
 8993TIP3    H126943   2.206   3.011   2.553
 8993TIP3    H226944   2.340   2.982   2.618
 8994TIP3   OH226945   3.493   3.215   5.135
 8994TIP3    H126946   3.428   3.234   5.068
 8994TIP3    H226947   3.553   3.290   5.132
 8995TIP3   OH226948   5.396   2.076   4.624
 8995TIP3    H126949   5.393   2.109   4.535
 8995TIP3    H226950   5.358   2.145   4.677
 8996TIP3   OH226951   1.654   4.036   0.372
 8996TIP3    H126952   1.674   3.951   0.333
 8996TIP3    H226953   1.577   4.067   0.325
 8997TIP3   OH226954   4.073   5.593   2.377
 8997TIP3    H126955   3.992   5.621   2.419
 8997TIP3    H226956   4.045   5.548   2.297
 8998TIP3   OH226957   5.801   1.027   5.808
 8998TIP3    H126958   5.717   1.064   5.837
 8998TIP3    H226959   5.824   0.965   5.877
 8999TIP3   OH226960   5.412   1.318   1.975
 8999TIP3    H126961   5.374   1.309   1.888
 8999TIP3    H226962   5.350   1.275   2.033
 9000TIP3   OH226963   5.212   5.894   0.353
 9000TIP3    H126964   5.118   5.895   0.338
 9000TIP3    H226965   5.223   5.929   0.442
 9001TIP3   OH226966   1.186   2.209   1.655
 9001TIP3    H126967   1.212   2.298   1.635
 9001TIP3    H226968   1.093   2.205   1.632
 9002TIP3   OH226969   1.244   5.336   1.810
 9002TIP3    H126970   1.218   5.426   1.829
 9002TIP3    H226971   1.340   5.338   1.807
 9003TIP3   OH226972   6.888   1.644   5.827
 9003TIP3    H126973   6.897   1.697   5.748
 9003TIP3    H226974   6.929   1.696   5.896
 9004TIP3   OH226975   4.295   3.092   5.429
 9004TIP3    H126976   4.288   3.182   5.395
 9004TIP3    H226977   4.205   3.060   5.429
 9005TIP3   OH226978   5.128   4.973   4.875
 9005TIP3    H126979   5.041   4.989   4.838
 9005TIP3    H226980   5.117   4.894   4.929
 9006TIP3   OH226981   2.906   4.659   1.343
 9006TIP3    H126982   3.001   4.667   1.351
 9006TIP3    H226983   2.892   4.585   1.285
 9007TIP3   OH226984   5.401   2.350   1.501
 9007TIP3    H126985   5.306   2.344   1.491
 9007TIP3    H226986   5.414   2.361   1.595
 9008TIP3   OH226987   1.208   3.216   1.101
 9008TIP3    H126988   1.289   3.176   1.132
 9008TIP3    H226989   1.169   3.149   1.044
 9009TIP3   OH226990   6.373   4.192   3.136
 9009TIP3    H126991   6.365   4.123   3.202
 9009TIP3    H226992   6.359   4.273   3.184
 9010TIP3   OH226993   1.396   0.071   5.512
 9010TIP3    H126994   1.390   0.140   5.578
 9010TIP3    H226995   1.329   0.007   5.537
 9011TIP3   OH226996   4.215   4.188   0.077
 9011TIP3    H126997   4.295   4.155   0.035
 9011TIP3    H226998   4.162   4.220   0.004
 9012TIP3   OH226999   6.247   4.241   1.091
 9012TIP3    H127000   6.214   4.241   1.001
 9012TIP3    H227001   6.253   4.333   1.115
 9013TIP3   OH227002   6.947   0.422   4.572
 9013TIP3    H127003   6.913   0.462   4.492
 9013TIP3    H227004   6.914   0.332   4.569
 9014TIP3   OH227005   3.934   6.359   1.340
 9014TIP3    H127006   3.937   6.265   1.322
 9014TIP3    H227007   3.850   6.388   1.306
 9015TIP3   OH227008   6.578   6.772   3.596
 9015TIP3    H127009   6.629   6.852   3.609
 9015TIP3    H227010   6.583   6.727   3.681
 9016TIP3   OH227011   2.131   3.373   5.426
 9016TIP3    H127012   2.115   3.379   5.520
 9016TIP3    H227013   2.044   3.366   5.386
 9017TIP3   OH227014   1.556   4.242   1.092
 9017TIP3    H127015   1.619   4.286   1.149
 9017TIP3    H227016   1.488   4.307   1.075
 9018TIP3   OH227017   2.875   0.436   3.963
 9018TIP3    H127018   2.936   0.377   3.918
 9018TIP3    H227019   2.918   0.521   3.962
 9019TIP3   OH227020   4.544   2.155   5.039
 9019TIP3    H127021   4.524   2.248   5.028
 9019TIP3    H227022   4.493   2.127   5.115
 9020TIP3   OH227023   2.036   0.418   4.965
 9020TIP3    H127024   1.963   0.371   5.006
 9020TIP3    H227025   2.038   0.503   5.010
 9021TIP3   OH227026   6.276   5.465   2.967
 9021TIP3    H127027   6.288   5.410   2.889
 9021TIP3    H227028   6.182   5.461   2.985
 9022TIP3   OH227029   6.507   2.352   0.421
 9022TIP3    H127030   6.425   2.385   0.458
 9022TIP3    H227031   6.482   2.314   0.337
 9023TIP3   OH227032   4.019   0.405   0.229
 9023TIP3    H127033   3.958   0.334   0.212
 9023TIP3    H227034   4.105   0.368   0.213
 9024TIP3   OH227035   5.884   3.515   0.665
 9024TIP3    H127036   5.850   3.582   0.605
 9024TIP3    H227037   5.939   3.460   0.610
 9025TIP3   OH227038   1.418   3.160   2.291
 9025TIP3    H127039   1.350   3.097   2.316
 9025TIP3    H227040   1.391   3.242   2.332
 9026TIP3   OH227041   5.419   4.856   4.242
 9026TIP3    H127042   5.504   4.898   4.234
 9026TIP3    H227043   5.395   4.866   4.334
 9027TIP3   OH227044   1.112   2.060   4.888
 9027TIP3    H127045   1.129   2.035   4.797
 9027TIP3    H227046   1.069   2.145   4.882
 9028TIP3   OH227047   0.383   0.638   5.353
 9028TIP3    H127048   0.405   0.566   5.294
 9028TIP3    H227049   0.365   0.596   5.437
 9029TIP3   OH227050   0.015   3.755   5.732
 9029TIP3    H127051   0.006   3.831   5.790
 9029TIP3    H227052   0.002   3.791   5.644
 9030TIP3   OH227053   6.433   6.429   1.161
 9030TIP3    H127054   6.480   6.408   1.080
 9030TIP3    H227055   6.447   6.353   1.217
 9031TIP3   OH227056   3.166   6.647   3.590
 9031TIP3    H127057   3.133   6.603   3.512
 9031TIP3    H227058   3.210   6.578   3.640
 9032TIP3   OH227059   4.148   4.954   5.568
 9032TIP3    H127060   4.233   4.952   5.524
 9032TIP3    H227061   4.083   4.956   5.498
 9033TIP3   OH227062   2.666   1.476   4.354
 9033TIP3    H127063   2.633   1.461   4.442
 9033TIP3    H227064   2.703   1.564   4.355
 9034TIP3   OH227065   1.199   5.397   4.833
 9034TIP3    H127066   1.216   5.398   4.927
 9034TIP3    H227067   1.275   5.352   4.795
 9035TIP3   OH227068   3.169   5.047   1.180
 9035TIP3    H127069   3.189   5.045   1.274
 9035TIP3    H227070   3.231   5.110   1.144
 9036TIP3   OH227071   0.345   5.036   4.603
 9036TIP3    H127072   0.353   5.127   4.633
 9036TIP3    H227073   0.415   4.990   4.649
 9037TIP3   OH227074   5.422   6.195   0.493
 9037TIP3    H127075   5.452   6.284   0.478
 9037TIP3    H227076   5.464   6.143   0.423
 9038TIP3   OH227077   6.702   4.176   0.051
 9038TIP3    H127078   6.686   4.084   0.070
 9038TIP3    H227079   6.798   4.185   0.052
 9039TIP3   OH227080   2.251   2.173   1.620
 9039TIP3    H127081   2.226   2.145   1.532
 9039TIP3    H227082   2.347   2.179   1.616
 9040TIP3   OH227083   4.555   3.021   5.512
 9040TIP3    H127084   4.474   3.054   5.473
 9040TIP3    H227085   4.600   3.099   5.545
 9041TIP3   OH227086   4.073   3.149   4.419
 9041TIP3    H127087   4.031   3.114   4.497
 9041TIP3    H227088   4.013   3.216   4.386
 9042TIP3   OH227089   4.504   4.334   2.137
 9042TIP3    H127090   4.571   4.271   2.166
 9042TIP3    H227091   4.545   4.379   2.063
 9043TIP3   OH227092   0.643   4.019   5.756
 9043TIP3    H127093   0.632   3.955   5.826
 9043TIP3    H227094   0.723   4.067   5.779
 9044TIP3   OH227095   2.063   1.420   1.554
 9044TIP3    H127096   2.038   1.338   1.511
 9044TIP3    H227097   2.077   1.481   1.481
 9045TIP3   OH227098   6.029   6.736   4.536
 9045TIP3    H127099   5.954   6.792   4.521
 9045TIP3    H227100   6.089   6.756   4.464
 9046TIP3   OH227101   1.434   3.499   0.855
 9046TIP3    H127102   1.461   3.407   0.847
 9046TIP3    H227103   1.495   3.547   0.799
 9047TIP3   OH227104   4.185   1.640   4.409
 9047TIP3    H127105   4.182   1.711   4.345
 9047TIP3    H227106   4.248   1.669   4.475
 9048TIP3   OH227107   0.022   3.598   4.755
 9048TIP3    H127108   0.012   3.670   4.816
 9048TIP3    H227109  -0.054   3.542   4.770
 9049TIP3   OH227110   0.618   6.777   5.344
 9049TIP3    H127111   0.610   6.693   5.298
 9049TIP3    H227112   0.696   6.818   5.306
 9050TIP3   OH227113   3.706   5.536   2.179
 9050TIP3    H127114   3.681   5.475   2.110
 9050TIP3    H227115   3.781   5.495   2.222
 9051TIP3   OH227116   0.027   5.066   4.651
 9051TIP3    H127117  -0.063   5.084   4.679
 9051TIP3    H227118   0.077   5.064   4.733
 9052TIP3   OH227119   4.219   2.459   0.628
 9052TIP3    H127120   4.312   2.477   0.618
 9052TIP3    H227121   4.180   2.544   0.650
 9053TIP3   OH227122   2.829   3.705   1.675
 9053TIP3    H127123   2.842   3.612   1.658
 9053TIP3    H227124   2.755   3.708   1.735
 9054TIP3   OH227125   3.937   2.783   5.140
 9054TIP3    H127126   4.031   2.796   5.144
 9054TIP3    H227127   3.918   2.767   5.047
 9055TIP3   OH227128   4.099   1.331   0.820
 9055TIP3    H127129   4.061   1.289   0.742
 9055TIP3    H227130   4.193   1.337   0.800
 9056TIP3   OH227131   4.989   4.932   2.647
 9056TIP3    H127132   4.914   4.877   2.671
 9056TIP3    H227133   4.981   4.943   2.552
 9057TIP3   OH227134   3.598   0.823   0.683
 9057TIP3    H127135   3.535   0.886   0.717
 9057TIP3    H227136   3.544   0.748   0.657
 9058TIP3   OH227137   3.373   0.912   5.618
 9058TIP3    H127138   3.304   0.934   5.554
 9058TIP3    H227139   3.376   0.817   5.618
 9059TIP3   OH227140   1.522   2.594   1.563
 9059TIP3    H127141   1.519   2.680   1.521
 9059TIP3    H227142   1.516   2.613   1.657
 9060TIP3   OH227143   3.999   4.142   0.526
 9060TIP3    H127144   3.928   4.196   0.492
 9060TIP3    H227145   4.042   4.106   0.448
 9061TIP3   OH227146   6.236   6.503   4.395
 9061TIP3    H127147   6.326   6.501   4.363
 9061TIP3    H227148   6.195   6.576   4.348
 9062TIP3   OH227149   7.025   0.971   1.598
 9062TIP3    H127150   7.052   0.886   1.565
 9062TIP3    H227151   6.937   0.984   1.563
 9063TIP3   OH227152   6.772   3.905   5.910
 9063TIP3    H127153   6.761   3.837   5.977
 9063TIP3    H227154   6.685   3.913   5.869
 9064TIP3   OH227155   6.345   1.357   2.032
 9064TIP3    H127156   6.292   1.278   2.046
 9064TIP3    H227157   6.368   1.386   2.121
 9065TIP3   OH227158   4.407   0.570   3.646
 9065TIP3    H127159   4.458   0.633   3.697
 9065TIP3    H227160   4.418   0.487   3.692
 9066TIP3   OH227161   6.310   4.546   4.893
 9066TIP3    H127162   6.319   4.526   4.800
 9066TIP3    H227163   6.376   4.614   4.910
 9067TIP3   OH227164   2.987   3.944   2.015
 9067TIP3    H127165   3.040   4.000   2.073
 9067TIP3    H227166   2.958   4.003   1.945
 9068TIP3   OH227167   2.653   6.194   3.555
 9068TIP3    H127168   2.565   6.232   3.549
 9068TIP3    H227169   2.671   6.192   3.649
 9069TIP3   OH227170   7.046   2.208   4.377
 9069TIP3    H127171   7.121   2.187   4.433
 9069TIP3    H227172   7.052   2.303   4.363
 9070TIP3   OH227173   0.947   2.527   4.574
 9070TIP3    H127174   1.005   2.454   4.552
 9070TIP3    H227175   0.976   2.556   4.661
 9071TIP3   OH227176   6.730   4.996   5.334
 9071TIP3    H127177   6.696   5.019   5.420
 9071TIP3    H227178   6.820   4.967   5.351
 9072TIP3   OH227179   0.282   5.514   4.787
 9072TIP3    H127180   0.195   5.474   4.791
 9072TIP3    H227181   0.265   5.608   4.788
 9073TIP3   OH227182   3.737   4.188   3.201
 9073TIP3    H127183   3.684   4.112   3.224
 9073TIP3    H227184   3.807   4.188   3.267
 9074TIP3   OH227185   3.594   5.369   0.433
 9074TIP3    H127186   3.569   5.461   0.430
 9074TIP3    H227187   3.527   5.325   0.380
 9075TIP3   OH227188   5.218   5.113   4.311
 9075TIP3    H127189   5.269   5.043   4.270
 9075TIP3    H227190   5.153   5.066   4.364
 9076TIP3   OH227191   4.127   4.479   4.678
 9076TIP3    H127192   4.071   4.520   4.612
 9076TIP3    H227193   4.207   4.532   4.676
 9077TIP3   OH227194   6.202   3.582   3.280
 9077TIP3    H127195   6.222   3.660   3.332
 9077TIP3    H227196   6.249   3.595   3.198
 9078TIP3   OH227197   3.009   3.479   0.119
 9078TIP3    H127198   3.058   3.403   0.088
 9078TIP3    H227199   2.918   3.451   0.119
 9079TIP3   OH227200   4.077   0.852   5.677
 9079TIP3    H127201   4.018   0.861   5.752
 9079TIP3    H227202   4.161   0.886   5.709
 9080TIP3   OH227203   2.128   2.587   2.069
 9080TIP3    H127204   2.039   2.620   2.072
 9080TIP3    H227205   2.122   2.497   2.102
 9081TIP3   OH227206   6.405   3.247   3.823
 9081TIP3    H127207   6.388   3.186   3.895
 9081TIP3    H227208   6.438   3.193   3.752
 9082TIP3   OH227209   2.070   1.809   4.247
 9082TIP3    H127210   2.128   1.876   4.283
 9082TIP3    H227211   2.127   1.755   4.191
 9083TIP3   OH227212   0.037   0.685   3.687
 9083TIP3    H127213   0.120   0.734   3.686
 9083TIP3    H227214   0.060   0.601   3.727
 9084TIP3   OH227215   3.821   5.708   3.999
 9084TIP3    H127216   3.750   5.661   4.042
 9084TIP3    H227217   3.890   5.643   3.987
 9085TIP3   OH227218   0.086   4.163   1.547
 9085TIP3    H127219   0.076   4.220   1.623
 9085TIP3    H227220   0.096   4.223   1.473
 9086TIP3   OH227221   2.377   3.405   4.143
 9086TIP3    H127222   2.288   3.427   4.168
 9086TIP3    H227223   2.378   3.310   4.135
 9087TIP3   OH227224   5.140   4.527   5.179
 9087TIP3    H127225   5.137   4.595   5.246
 9087TIP3    H227226   5.106   4.569   5.101
 9088TIP3   OH227227   2.311   1.561   1.592
 9088TIP3    H127228   2.227   1.530   1.626
 9088TIP3    H227229   2.342   1.490   1.536
 9089TIP3   OH227230   1.467   4.783   1.433
 9089TIP3    H127231   1.396   4.786   1.369
 9089TIP3    H227232   1.427   4.741   1.510
 9090TIP3   OH227233   2.399   3.383   0.274
 9090TIP3    H127234   2.455   3.434   0.333
 9090TIP3    H227235   2.453   3.307   0.250
 9091TIP3   OH227236   1.633   3.025   5.526
 9091TIP3    H127237   1.616   3.113   5.560
 9091TIP3    H227238   1.546   2.985   5.520
 9092TIP3   OH227239   2.172   1.570   3.364
 9092TIP3    H127240   2.233   1.595   3.432
 9092TIP3    H227241   2.086   1.593   3.398
 9093TIP3   OH227242   6.533   2.358   1.593
 9093TIP3    H127243   6.467   2.349   1.525
 9093TIP3    H227244   6.540   2.271   1.632
 9094TIP3   OH227245   3.008   0.507   0.867
 9094TIP3    H127246   3.092   0.461   0.867
 9094TIP3    H227247   2.989   0.524   0.775
 9095TIP3   OH227248   0.046   0.384   2.976
 9095TIP3    H127249   0.135   0.370   3.010
 9095TIP3    H227250   0.018   0.466   3.016
 9096TIP3   OH227251   7.174   5.733   3.094
 9096TIP3    H127252   7.261   5.692   3.101
 9096TIP3    H227253   7.114   5.665   3.122
 9097TIP3   OH227254   0.201   0.621   2.321
 9097TIP3    H127255   0.154   0.679   2.380
 9097TIP3    H227256   0.157   0.631   2.237
 9098TIP3   OH227257   6.769   0.123   4.584
 9098TIP3    H127258   6.732   0.139   4.497
 9098TIP3    H227259   6.828   0.049   4.571
 9099TIP3   OH227260   2.336   2.265   0.321
 9099TIP3    H127261   2.378   2.339   0.365
 9099TIP3    H227262   2.383   2.188   0.353
 9100TIP3   OH227263   0.449   0.306   1.229
 9100TIP3    H127264   0.418   0.356   1.305
 9100TIP3    H227265   0.481   0.224   1.266
 9101TIP3   OH227266   3.512   0.480   5.300
 9101TIP3    H127267   3.448   0.459   5.368
 9101TIP3    H227268   3.596   0.455   5.337
 9102TIP3   OH227269   6.741   3.505   0.576
 9102TIP3    H127270   6.715   3.413   0.581
 9102TIP3    H227271   6.812   3.506   0.511
 9103TIP3   OH227272   0.647   1.637   4.055
 9103TIP3    H127273   0.590   1.651   3.980
 9103TIP3    H227274   0.657   1.723   4.095
 9104TIP3   OH227275   0.555   0.150   2.724
 9104TIP3    H127276   0.571   0.212   2.652
 9104TIP3    H227277   0.512   0.203   2.791
 9105TIP3   OH227278   2.864   0.829   2.106
 9105TIP3    H127279   2.959   0.837   2.093
 9105TIP3    H227280   2.842   0.743   2.071
 9106TIP3   OH227281   1.365   0.030   2.873
 9106TIP3    H127282   1.309   0.053   2.947
 9106TIP3    H227283   1.412   0.111   2.852
 9107TIP3   OH227284   6.495   4.799   5.480
 9107TIP3    H127285   6.578   4.751   5.491
 9107TIP3    H227286   6.431   4.746   5.527
 9108TIP3   OH227287   3.666   0.686   2.323
 9108TIP3    H127288   3.710   0.752   2.376
 9108TIP3    H227289   3.736   0.648   2.270
 9109TIP3   OH227290   4.862   4.136   4.844
 9109TIP3    H127291   4.841   4.055   4.890
 9109TIP3    H227292   4.802   4.201   4.880
 9110TIP3   OH227293   3.639   6.452   0.198
 9110TIP3    H127294   3.550   6.464   0.229
 9110TIP3    H227295   3.649   6.515   0.126
 9111TIP3   OH227296   6.134   4.632   0.087
 9111TIP3    H127297   6.184   4.568   0.138
 9111TIP3    H227298   6.180   4.636   0.003
 9112TIP3   OH227299   0.788   0.442   4.923
 9112TIP3    H127300   0.825   0.355   4.938
 9112TIP3    H227301   0.778   0.479   5.011
 9113TIP3   OH227302   1.353   3.176   4.662
 9113TIP3    H127303   1.263   3.206   4.663
 9113TIP3    H227304   1.405   3.257   4.659
 9114TIP3   OH227305   5.208   4.958   3.604
 9114TIP3    H127306   5.264   5.014   3.550
 9114TIP3    H227307   5.223   4.988   3.694
 9115TIP3   OH227308   3.880   5.905   3.266
 9115TIP3    H127309   3.817   5.834   3.254
 9115TIP3    H227310   3.946   5.869   3.326
 9116TIP3   OH227311   2.474   6.751   5.640
 9116TIP3    H127312   2.441   6.698   5.568
 9116TIP3    H227313   2.569   6.746   5.632
 9117TIP3   OH227314   6.431   5.354   5.796
 9117TIP3    H127315   6.510   5.391   5.757
 9117TIP3    H227316   6.408   5.416   5.865
 9118TIP3   OH227317   6.203   2.051   5.737
 9118TIP3    H127318   6.112   2.022   5.741
 9118TIP3    H227319   6.254   1.977   5.769
 9119TIP3   OH227320   6.107   2.751   1.429
 9119TIP3    H127321   6.020   2.715   1.411
 9119TIP3    H227322   6.107   2.837   1.385
 9120TIP3   OH227323   6.576   0.084   3.089
 9120TIP3    H127324   6.658   0.042   3.117
 9120TIP3    H227325   6.587   0.098   2.995
 9121TIP3   OH227326   2.925   6.092   3.414
 9121TIP3    H127327   3.009   6.064   3.449
 9121TIP3    H227328   2.863   6.026   3.445
 9122TIP3   OH227329   4.626   5.827   1.645
 9122TIP3    H127330   4.655   5.914   1.673
 9122TIP3    H227331   4.696   5.795   1.589
 9123TIP3   OH227332   3.457   1.558   5.759
 9123TIP3    H127333   3.434   1.469   5.731
 9123TIP3    H227334   3.552   1.563   5.746
 9124TIP3   OH227335   4.506   5.750   3.027
 9124TIP3    H127336   4.562   5.723   2.955
 9124TIP3    H227337   4.435   5.799   2.986
 9125TIP3   OH227338   3.971   3.772   5.445
 9125TIP3    H127339   3.935   3.814   5.366
 9125TIP3    H227340   4.065   3.773   5.431
 9126TIP3   OH227341   4.295   4.154   1.305
 9126TIP3    H127342   4.309   4.132   1.397
 9126TIP3    H227343   4.355   4.097   1.257
 9127TIP3   OH227344   6.207   4.941   0.456
 9127TIP3    H127345   6.197   4.921   0.362
 9127TIP3    H227346   6.269   5.014   0.459
 9128TIP3   OH227347   3.537   0.783   0.239
 9128TIP3    H127348   3.477   0.717   0.203
 9128TIP3    H227349   3.548   0.846   0.168
 9129TIP3   OH227350   0.814   4.739   0.232
 9129TIP3    H127351   0.847   4.769   0.148
 9129TIP3    H227352   0.821   4.643   0.228
 9130TIP3   OH227353   5.367   3.034   0.637
 9130TIP3    H127354   5.445   3.082   0.665
 9130TIP3    H227355   5.306   3.044   0.710
 9131TIP3   OH227356   1.381   5.761   5.112
 9131TIP3    H127357   1.432   5.839   5.090
 9131TIP3    H227358   1.382   5.759   5.208
 9132TIP3   OH227359   6.030   5.312   0.892
 9132TIP3    H127360   5.984   5.251   0.949
 9132TIP3    H227361   6.116   5.272   0.878
 9133TIP3   OH227362   2.205   4.998   5.018
 9133TIP3    H127363   2.266   5.053   4.970
 9133TIP3    H227364   2.236   4.908   5.004
 9134TIP3   OH227365   7.138   3.884   4.601
 9134TIP3    H127366   7.192   3.884   4.680
 9134TIP3    H227367   7.201   3.889   4.529
 9135TIP3   OH227368   1.816   6.593   4.865
 9135TIP3    H127369   1.883   6.647   4.823
 9135TIP3    H227370   1.863   6.542   4.930
 9136TIP3   OH227371   0.267   5.104   1.244
 9136TIP3    H127372   0.263   5.089   1.150
 9136TIP3    H227373   0.344   5.056   1.273
 9137TIP3   OH227374   1.968   6.041   1.058
 9137TIP3    H127375   1.951   6.042   1.152
 9137TIP3    H227376   2.008   6.126   1.041
 9138TIP3   OH227377   3.163   2.822   0.872
 9138TIP3    H127378   3.108   2.823   0.794
 9138TIP3    H227379   3.200   2.910   0.877
 9139TIP3   OH227380   2.069   5.064   5.235
 9139TIP3    H127381   2.082   4.986   5.289
 9139TIP3    H227382   2.098   5.039   5.148
 9140TIP3   OH227383   5.748   4.145   4.368
 9140TIP3    H127384   5.776   4.136   4.277
 9140TIP3    H227385   5.654   4.128   4.366
 9141TIP3   OH227386   4.099   4.203   2.376
 9141TIP3    H127387   4.041   4.142   2.422
 9141TIP3    H227388   4.039   4.270   2.340
 9142TIP3   OH227389   1.813   3.725   0.397
 9142TIP3    H127390   1.794   3.656   0.461
 9142TIP3    H227391   1.844   3.799   0.449
 9143TIP3   OH227392   0.372   0.357   3.090
 9143TIP3    H127393   0.420   0.365   3.008
 9143TIP3    H227394   0.427   0.401   3.155
 9144TIP3   OH227395   1.140   0.127   2.688
 9144TIP3    H127396   1.233   0.122   2.665
 9144TIP3    H227397   1.134   0.202   2.747
 9145TIP3   OH227398   2.780   5.768   4.003
 9145TIP3    H127399   2.846   5.707   4.038
 9145TIP3    H227400   2.825   5.852   3.999
 9146TIP3   OH227401   3.689   2.178   3.346
 9146TIP3    H127402   3.656   2.088   3.347
 9146TIP3    H227403   3.778   2.172   3.382
 9147TIP3   OH227404   1.089   3.170   0.576
 9147TIP3    H127405   1.107   3.110   0.504
 9147TIP3    H227406   0.994   3.178   0.578
 9148TIP3   OH227407   0.505   5.969   1.871
 9148TIP3    H127408   0.561   6.039   1.840
 9148TIP3    H227409   0.463   6.005   1.949
 9149TIP3   OH227410   6.194   6.037   5.131
 9149TIP3    H127411   6.105   6.021   5.161
 9149TIP3    H227412   6.214   6.126   5.161
 9150TIP3   OH227413   6.391   5.411   0.330
 9150TIP3    H127414   6.330   5.390   0.401
 9150TIP3    H227415   6.476   5.381   0.361
 9151TIP3   OH227416   4.704   6.128   1.511
 9151TIP3    H127417   4.615   6.150   1.486
 9151TIP3    H227418   4.720   6.044   1.469
 9152TIP3   OH227419   5.100   0.141   2.782
 9152TIP3    H127420   5.021   0.172   2.827
 9152TIP3    H227421   5.067   0.084   2.713
 9153TIP3   OH227422   6.288   2.837   0.701
 9153TIP3    H127423   6.339   2.791   0.768
 9153TIP3    H227424   6.205   2.857   0.744
 9154TIP3   OH227425   3.801   4.947   4.465
 9154TIP3    H127426   3.716   4.923   4.428
 9154TIP3    H227427   3.790   4.937   4.559
 9155TIP3   OH227428   0.580   3.592   3.309
 9155TIP3    H127429   0.605   3.500   3.317
 9155TIP3    H227430   0.566   3.621   3.400
 9156TIP3   OH227431   3.284   4.939   5.367
 9156TIP3    H127432   3.222   5.004   5.334
 9156TIP3    H227433   3.359   4.945   5.307
 9157TIP3   OH227434   7.091   6.455   1.726
 9157TIP3    H127435   7.079   6.446   1.820
 9157TIP3    H227436   7.040   6.532   1.703
 9158TIP3   OH227437   4.947   2.781   0.881
 9158TIP3    H127438   4.929   2.870   0.852
 9158TIP3    H227439   5.039   2.782   0.909
 9159TIP3   OH227440   1.972   0.341   0.494
 9159TIP3    H127441   1.993   0.427   0.530
 9159TIP3    H227442   1.967   0.355   0.400
 9160TIP3   OH227443   3.258   1.444   0.579
 9160TIP3    H127444   3.214   1.525   0.604
 9160TIP3    H227445   3.205   1.408   0.508
 9161TIP3   OH227446   1.514   3.707   1.006
 9161TIP3    H127447   1.496   3.614   0.994
 9161TIP3    H227448   1.466   3.750   0.935
 9162TIP3   OH227449   1.625   1.749   3.474
 9162TIP3    H127450   1.668   1.747   3.560
 9162TIP3    H227451   1.681   1.805   3.421
 9163TIP3   OH227452   2.770   3.832   4.817
 9163TIP3    H127453   2.752   3.796   4.904
 9163TIP3    H227454   2.865   3.837   4.812
 9164TIP3   OH227455   3.567   4.245   5.637
 9164TIP3    H127456   3.613   4.167   5.669
 9164TIP3    H227457   3.493   4.255   5.697
 9165TIP3   OH227458   0.493   3.778   2.653
 9165TIP3    H127459   0.514   3.698   2.701
 9165TIP3    H227460   0.490   3.751   2.561
 9166TIP3   OH227461   1.753   6.482   3.009
 9166TIP3    H127462   1.691   6.442   2.948
 9166TIP3    H227463   1.734   6.440   3.093
 9167TIP3   OH227464   5.824   3.189   2.218
 9167TIP3    H127465   5.772   3.268   2.231
 9167TIP3    H227466   5.912   3.221   2.196
 9168TIP3   OH227467   0.841   4.648   1.128
 9168TIP3    H127468   0.813   4.702   1.054
 9168TIP3    H227469   0.919   4.692   1.162
 9169TIP3   OH227470   3.212   2.494   1.108
 9169TIP3    H127471   3.292   2.520   1.062
 9169TIP3    H227472   3.212   2.399   1.104
 9170TIP3   OH227473   2.383   2.059   2.852
 9170TIP3    H127474   2.327   2.106   2.790
 9170TIP3    H227475   2.404   2.123   2.920
 9171TIP3   OH227476   4.717   2.826   1.358
 9171TIP3    H127477   4.752   2.791   1.277
 9171TIP3    H227478   4.778   2.796   1.426
 9172TIP3   OH227479   0.667   4.778   0.767
 9172TIP3    H127480   0.691   4.694   0.729
 9172TIP3    H227481   0.733   4.839   0.735
 9173TIP3   OH227482   3.724   4.450   3.771
 9173TIP3    H127483   3.729   4.532   3.723
 9173TIP3    H227484   3.724   4.383   3.703
 9174TIP3   OH227485   2.501   1.989   4.971
 9174TIP3    H127486   2.461   2.040   5.041
 9174TIP3    H227487   2.536   2.054   4.911
 9175TIP3   OH227488   0.186   3.075   3.397
 9175TIP3    H127489   0.110   3.133   3.395
 9175TIP3    H227490   0.166   3.012   3.467
 9176TIP3   OH227491   4.354   5.411   4.240
 9176TIP3    H127492   4.300   5.386   4.164
 9176TIP3    H227493   4.293   5.408   4.314
 9177TIP3   OH227494   6.744   4.775   3.605
 9177TIP3    H127495   6.659   4.742   3.576
 9177TIP3    H227496   6.732   4.795   3.697
 9178TIP3   OH227497   0.752   3.670   2.077
 9178TIP3    H127498   0.748   3.574   2.074
 9178TIP3    H227499   0.663   3.698   2.058
 9179TIP3   OH227500   2.076   2.988   0.472
 9179TIP3    H127501   2.101   2.942   0.553
 9179TIP3    H227502   1.986   3.016   0.488
 9180TIP3   OH227503   5.276   1.992   2.403
 9180TIP3    H127504   5.267   1.994   2.307
 9180TIP3    H227505   5.370   1.982   2.418
 9181TIP3   OH227506   6.143   1.305   2.420
 9181TIP3    H127507   6.079   1.233   2.427
 9181TIP3    H227508   6.109   1.360   2.349
 9182TIP3   OH227509   7.114   5.612   4.732
 9182TIP3    H127510   7.111   5.639   4.640
 9182TIP3    H227511   7.084   5.689   4.781
 9183TIP3   OH227512   4.470   6.288   2.274
 9183TIP3    H127513   4.378   6.272   2.253
 9183TIP3    H227514   4.494   6.216   2.333
 9184TIP3   OH227515   5.501   1.457   5.217
 9184TIP3    H127516   5.405   1.465   5.216
 9184TIP3    H227517   5.531   1.523   5.154
 9185TIP3   OH227518   3.157   1.892   0.435
 9185TIP3    H127519   3.108   1.825   0.483
 9185TIP3    H227520   3.133   1.879   0.344
 9186TIP3   OH227521   3.272   2.875   3.058
 9186TIP3    H127522   3.297   2.927   2.981
 9186TIP3    H227523   3.307   2.924   3.132
 9187TIP3   OH227524   3.199   3.220   3.800
 9187TIP3    H127525   3.178   3.297   3.747
 9187TIP3    H227526   3.271   3.248   3.856
 9188TIP3   OH227527   5.570   0.085   5.781
 9188TIP3    H127528   5.500   0.095   5.716
 9188TIP3    H227529   5.614   0.004   5.755
 9189TIP3   OH227530   6.596   5.289   2.855
 9189TIP3    H127531   6.594   5.231   2.931
 9189TIP3    H227532   6.623   5.374   2.890
 9190TIP3   OH227533   2.981   0.152   2.953
 9190TIP3    H127534   3.075   0.165   2.954
 9190TIP3    H227535   2.944   0.238   2.970
 9191TIP3   OH227536   5.361   6.788   1.402
 9191TIP3    H127537   5.367   6.693   1.392
 9191TIP3    H227538   5.273   6.810   1.373
 9192TIP3   OH227539   6.023   4.964   3.574
 9192TIP3    H127540   5.976   4.965   3.491
 9192TIP3    H227541   6.087   4.893   3.565
 9193TIP3   OH227542   2.031   5.587   4.032
 9193TIP3    H127543   2.053   5.494   4.028
 9193TIP3    H227544   1.965   5.594   4.100
 9194TIP3   OH227545   0.576   4.559   5.776
 9194TIP3    H127546   0.611   4.472   5.758
 9194TIP3    H227547   0.622   4.587   5.855
 9195TIP3   OH227548   1.504   6.559   3.260
 9195TIP3    H127549   1.484   6.470   3.230
 9195TIP3    H227550   1.595   6.573   3.232
 9196TIP3   OH227551   5.343   6.382   3.919
 9196TIP3    H127552   5.258   6.416   3.946
 9196TIP3    H227553   5.353   6.412   3.829
 9197TIP3   OH227554   2.571   2.942   3.814
 9197TIP3    H127555   2.623   2.965   3.736
 9197TIP3    H227556   2.569   3.023   3.865
 9198TIP3   OH227557   2.712   3.267   3.026
 9198TIP3    H127558   2.797   3.234   3.056
 9198TIP3    H227559   2.681   3.323   3.097
 9199TIP3   OH227560   7.051   4.049   1.491
 9199TIP3    H127561   7.143   4.073   1.502
 9199TIP3    H227562   7.020   4.108   1.423
 9200TIP3   OH227563   6.748   3.065   5.603
 9200TIP3    H127564   6.799   2.989   5.630
 9200TIP3    H227565   6.737   3.117   5.683
 9201TIP3   OH227566   1.351   6.778   5.416
 9201TIP3    H127567   1.332   6.819   5.500
 9201TIP3    H227568   1.389   6.693   5.439
 9202TIP3   OH227569   5.287   4.520   4.155
 9202TIP3    H127570   5.345   4.502   4.229
 9202TIP3    H227571   5.316   4.605   4.122
 9203TIP3   OH227572   5.508   3.232   2.451
 9203TIP3    H127573   5.563   3.266   2.522
 9203TIP3    H227574   5.511   3.137   2.463
 9204TIP3   OH227575   6.169   2.696   4.791
 9204TIP3    H127576   6.107   2.749   4.840
 9204TIP3    H227577   6.192   2.625   4.851
 9205TIP3   OH227578   4.477   6.133   3.081
 9205TIP3    H127579   4.522   6.183   3.149
 9205TIP3    H227580   4.525   6.050   3.076
 9206TIP3   OH227581   7.000   4.162   4.947
 9206TIP3    H127582   6.961   4.219   4.881
 9206TIP3    H227583   6.991   4.211   5.029
 9207TIP3   OH227584   5.481   4.841   5.084
 9207TIP3    H127585   5.454   4.765   5.033
 9207TIP3    H227586   5.400   4.887   5.103
 9208TIP3   OH227587   0.452   1.831   3.113
 9208TIP3    H127588   0.512   1.901   3.142
 9208TIP3    H227589   0.456   1.766   3.183
 9209TIP3   OH227590   1.696   2.228   5.133
 9209TIP3    H127591   1.738   2.187   5.058
 9209TIP3    H227592   1.660   2.310   5.100
 9210TIP3   OH227593   0.369   4.039   2.121
 9210TIP3    H127594   0.427   4.112   2.142
 9210TIP3    H227595   0.423   3.961   2.135
 9211TIP3   OH227596   3.413   1.038   1.981
 9211TIP3    H127597   3.496   1.032   2.027
 9211TIP3    H227598   3.399   1.132   1.968
 9212TIP3   OH227599   4.101   6.535   5.583
 9212TIP3    H127600   4.043   6.525   5.507
 9212TIP3    H227601   4.079   6.620   5.619
 9213TIP3   OH227602   4.834   6.645   4.578
 9213TIP3    H127603   4.815   6.739   4.575
 9213TIP3    H227604   4.874   6.626   4.493
 9214TIP3   OH227605   2.417   2.802   1.163
 9214TIP3    H127606   2.363   2.810   1.242
 9214TIP3    H227607   2.501   2.770   1.194
 9215TIP3   OH227608   1.422   6.247   2.216
 9215TIP3    H127609   1.349   6.307   2.231
 9215TIP3    H227610   1.463   6.279   2.136
 9216TIP3   OH227611   4.979   6.028   1.267
 9216TIP3    H127612   5.044   5.958   1.269
 9216TIP3    H227613   4.902   5.990   1.311
 9217TIP3   OH227614   6.376   1.393   3.805
 9217TIP3    H127615   6.310   1.332   3.772
 9217TIP3    H227616   6.375   1.466   3.743
 9218TIP3   OH227617   4.508   5.270   2.913
 9218TIP3    H127618   4.588   5.289   2.962
 9218TIP3    H227619   4.442   5.327   2.952
 9219TIP3   OH227620   3.904   5.208   4.369
 9219TIP3    H127621   3.886   5.117   4.393
 9219TIP3    H227622   3.919   5.252   4.453
 9220TIP3   OH227623   4.528   5.778   2.614
 9220TIP3    H127624   4.442   5.755   2.648
 9220TIP3    H227625   4.574   5.695   2.604
 9221TIP3   OH227626   3.717   0.978   1.808
 9221TIP3    H127627   3.656   1.032   1.758
 9221TIP3    H227628   3.803   0.999   1.770
 9222TIP3   OH227629   4.041   3.463   5.423
 9222TIP3    H127630   4.040   3.517   5.502
 9222TIP3    H227631   3.960   3.411   5.429
 9223TIP3   OH227632   4.909   5.665   2.986
 9223TIP3    H127633   4.948   5.581   3.011
 9223TIP3    H227634   4.819   5.643   2.963
 9224TIP3   OH227635   2.183   6.651   2.693
 9224TIP3    H127636   2.178   6.744   2.715
 9224TIP3    H227637   2.116   6.610   2.746
 9225TIP3   OH227638   7.095   1.137   4.906
 9225TIP3    H127639   7.062   1.056   4.944
 9225TIP3    H227640   7.061   1.137   4.816
 9226TIP3   OH227641   4.090   2.559   0.269
 9226TIP3    H127642   4.145   2.507   0.210
 9226TIP3    H227643   4.143   2.636   0.288
 9227TIP3   OH227644   5.570   6.607   2.768
 9227TIP3    H127645   5.609   6.528   2.729
 9227TIP3    H227646   5.645   6.660   2.795
 9228TIP3   OH227647   1.218   3.784   4.947
 9228TIP3    H127648   1.212   3.763   4.854
 9228TIP3    H227649   1.136   3.830   4.966
 9229TIP3   OH227650   1.424   2.725   1.073
 9229TIP3    H127651   1.453   2.634   1.076
 9229TIP3    H227652   1.399   2.739   0.981
 9230TIP3   OH227653   5.538   1.188   5.269
 9230TIP3    H127654   5.615   1.180   5.325
 9230TIP3    H227655   5.539   1.280   5.242
 9231TIP3   OH227656   5.540   0.102   0.328
 9231TIP3    H127657   5.494   0.151   0.395
 9231TIP3    H227658   5.493   0.018   0.323
 9232TIP3   OH227659   3.449   1.377   0.824
 9232TIP3    H127660   3.411   1.340   0.744
 9232TIP3    H227661   3.509   1.445   0.793
 9233TIP3   OH227662   1.890   3.328   4.172
 9233TIP3    H127663   1.811   3.377   4.194
 9233TIP3    H227664   1.861   3.238   4.163
 9234TIP3   OH227665   5.680   6.624   4.370
 9234TIP3    H127666   5.694   6.707   4.416
 9234TIP3    H227667   5.698   6.557   4.437
 9235TIP3   OH227668   1.658   6.674   0.056
 9235TIP3    H127669   1.644   6.659  -0.037
 9235TIP3    H227670   1.573   6.657   0.097
 9236TIP3   OH227671   2.028   0.804   0.971
 9236TIP3    H127672   1.949   0.804   0.917
 9236TIP3    H227673   1.999   0.772   1.057
 9237TIP3   OH227674   2.689   6.155   5.375
 9237TIP3    H127675   2.701   6.114   5.461
 9237TIP3    H227676   2.736   6.098   5.315
 9238TIP3   OH227677   6.998   2.338   0.497
 9238TIP3    H127678   6.992   2.415   0.553
 9238TIP3    H227679   6.909   2.302   0.497
 9239TIP3   OH227680   0.527   6.517   1.681
 9239TIP3    H127681   0.543   6.506   1.774
 9239TIP3    H227682   0.595   6.464   1.639
 9240TIP3   OH227683   4.954   1.957   3.198
 9240TIP3    H127684   5.007   1.940   3.276
 9240TIP3    H227685   4.983   2.042   3.167
 9241TIP3   OH227686   4.170   1.626   0.696
 9241TIP3    H127687   4.105   1.563   0.664
 9241TIP3    H227688   4.139   1.650   0.784
 9242TIP3   OH227689   6.958   4.009   5.720
 9242TIP3    H127690   6.897   3.966   5.780
 9242TIP3    H227691   7.044   3.999   5.762
 9243TIP3   OH227692   2.500   3.005   2.744
 9243TIP3    H127693   2.557   3.056   2.801
 9243TIP3    H227694   2.434   2.968   2.804
 9244TIP3   OH227695   2.281   4.428   0.301
 9244TIP3    H127696   2.191   4.420   0.335
 9244TIP3    H227697   2.314   4.339   0.299
 9245TIP3   OH227698   0.285   2.074   0.214
 9245TIP3    H127699   0.334   2.150   0.181
 9245TIP3    H227700   0.236   2.043   0.138
 9246TIP3   OH227701   6.234   3.908   0.496
 9246TIP3    H127702   6.174   3.957   0.440
 9246TIP3    H227703   6.198   3.819   0.498
 9247TIP3   OH227704   0.096   1.714   4.438
 9247TIP3    H127705   0.161   1.648   4.463
 9247TIP3    H227706   0.015   1.664   4.425
 9248TIP3   OH227707   6.342   2.930   2.627
 9248TIP3    H127708   6.270   2.872   2.605
 9248TIP3    H227709   6.405   2.873   2.671
 9249TIP3   OH227710   1.855   4.164   5.374
 9249TIP3    H127711   1.912   4.196   5.304
 9249TIP3    H227712   1.772   4.208   5.359
 9250TIP3   OH227713   6.145   5.045   3.968
 9250TIP3    H127714   6.241   5.045   3.967
 9250TIP3    H227715   6.122   4.966   4.016
 9251TIP3   OH227716   1.973   0.363   4.397
 9251TIP3    H127717   2.053   0.311   4.381
 9251TIP3    H227718   1.990   0.446   4.353
 9252TIP3   OH227719   3.018   3.977   4.779
 9252TIP3    H127720   2.974   4.026   4.710
 9252TIP3    H227721   3.005   4.031   4.858
 9253TIP3   OH227722   1.732   2.888   3.094
 9253TIP3    H127723   1.781   2.825   3.041
 9253TIP3    H227724   1.756   2.867   3.185
 9254TIP3   OH227725   6.545   3.744   4.198
 9254TIP3    H127726   6.465   3.793   4.180
 9254TIP3    H227727   6.534   3.661   4.152
 9255TIP3   OH227728   1.983   5.900   2.836
 9255TIP3    H127729   1.939   5.827   2.879
 9255TIP3    H227730   1.991   5.966   2.906
 9256TIP3   OH227731   7.169   6.361   4.229
 9256TIP3    H127732   7.160   6.414   4.308
 9256TIP3    H227733   7.253   6.316   4.239
 9257TIP3   OH227734   0.484   3.006   2.948
 9257TIP3    H127735   0.499   2.914   2.926
 9257TIP3    H227736   0.407   3.004   3.005
 9258TIP3   OH227737   4.703   4.038   1.329
 9258TIP3    H127738   4.764   3.971   1.298
 9258TIP3    H227739   4.717   4.042   1.424
 9259TIP3   OH227740   0.803   2.908   0.228
 9259TIP3    H127741   0.789   3.002   0.214
 9259TIP3    H227742   0.811   2.899   0.323
 9260TIP3   OH227743   3.360   3.380   2.150
 9260TIP3    H127744   3.308   3.438   2.094
 9260TIP3    H227745   3.443   3.426   2.161
 9261TIP3   OH227746   5.041   5.177   3.421
 9261TIP3    H127747   5.007   5.096   3.461
 9261TIP3    H227748   4.969   5.239   3.430
 9262TIP3   OH227749   3.730   0.279   1.170
 9262TIP3    H127750   3.683   0.230   1.102
 9262TIP3    H227751   3.723   0.225   1.248
 9263TIP3   OH227752   1.756   3.926   0.746
 9263TIP3    H127753   1.721   4.002   0.701
 9263TIP3    H227754   1.704   3.852   0.714
 9264TIP3   OH227755   1.043   1.721   1.002
 9264TIP3    H127756   0.974   1.730   0.936
 9264TIP3    H227757   1.121   1.755   0.959
 9265TIP3   OH227758   3.241   5.580   3.795
 9265TIP3    H127759   3.332   5.578   3.764
 9265TIP3    H227760   3.228   5.493   3.834
 9266TIP3   OH227761   6.520   1.743   0.648
 9266TIP3    H127762   6.567   1.663   0.626
 9266TIP3    H227763   6.427   1.718   0.644
 9267TIP3   OH227764   6.555   3.001   1.010
 9267TIP3    H127765   6.543   3.072   0.947
 9267TIP3    H227766   6.648   2.981   1.006
 9268TIP3   OH227767   3.495   0.262   2.519
 9268TIP3    H127768   3.567   0.221   2.471
 9268TIP3    H227769   3.416   0.220   2.485
 9269TIP3   OH227770   0.054   2.927   2.936
 9269TIP3    H127771   0.099   3.011   2.940
 9269TIP3    H227772   0.031   2.908   3.027
 9270TIP3   OH227773   3.613   1.797   5.087
 9270TIP3    H127774   3.535   1.747   5.063
 9270TIP3    H227775   3.617   1.791   5.183
 9271TIP3   OH227776   6.947   4.005   2.474
 9271TIP3    H127777   6.970   3.933   2.533
 9271TIP3    H227778   7.025   4.018   2.420
 9272TIP3   OH227779   6.661   2.574   1.728
 9272TIP3    H127780   6.617   2.491   1.707
 9272TIP3    H227781   6.754   2.552   1.731
 9273TIP3   OH227782   1.794   2.837   4.474
 9273TIP3    H127783   1.812   2.908   4.412
 9273TIP3    H227784   1.839   2.761   4.437
 9274TIP3   OH227785   0.428   3.407   0.356
 9274TIP3    H127786   0.401   3.486   0.309
 9274TIP3    H227787   0.425   3.338   0.290
 9275TIP3   OH227788   4.597   5.311   0.640
 9275TIP3    H127789   4.693   5.315   0.642
 9275TIP3    H227790   4.577   5.239   0.580
 9276TIP3   OH227791   5.283   0.236   1.868
 9276TIP3    H127792   5.375   0.213   1.855
 9276TIP3    H227793   5.246   0.239   1.780
 9277TIP3   OH227794   6.450   1.079   4.942
 9277TIP3    H127795   6.501   1.010   4.985
 9277TIP3    H227796   6.437   1.048   4.853
 9278TIP3   OH227797   0.453   2.254   3.124
 9278TIP3    H127798   0.476   2.270   3.032
 9278TIP3    H227799   0.391   2.323   3.146
 9279TIP3   OH227800   0.170   5.315   3.050
 9279TIP3    H127801   0.131   5.272   3.126
 9279TIP3    H227802   0.110   5.297   2.978
 9280TIP3   OH227803   0.708   3.549   5.489
 9280TIP3    H127804   0.726   3.586   5.576
 9280TIP3    H227805   0.657   3.617   5.445
 9281TIP3   OH227806   3.049   4.126   3.976
 9281TIP3    H127807   3.003   4.176   3.909
 9281TIP3    H227808   3.100   4.191   4.024
 9282TIP3   OH227809   3.857   3.332   1.622
 9282TIP3    H127810   3.823   3.276   1.692
 9282TIP3    H227811   3.951   3.340   1.641
 9283TIP3   OH227812   1.667   5.896   1.703
 9283TIP3    H127813   1.643   5.811   1.666
 9283TIP3    H227814   1.707   5.875   1.787
 9284TIP3   OH227815   6.846   5.291   3.196
 9284TIP3    H127816   6.924   5.341   3.220
 9284TIP3    H227817   6.778   5.357   3.184
 9285TIP3   OH227818   0.781   6.114   3.225
 9285TIP3    H127819   0.706   6.165   3.196
 9285TIP3    H227820   0.781   6.124   3.321
 9286TIP3   OH227821   4.320   0.062   3.688
 9286TIP3    H127822   4.329   0.076   3.594
 9286TIP3    H227823   4.309  -0.033   3.697
 9287TIP3   OH227824   6.273   4.300   4.083
 9287TIP3    H127825   6.225   4.266   4.008
 9287TIP3    H227826   6.360   4.262   4.076
 9288TIP3   OH227827   0.651   2.883   1.945
 9288TIP3    H127828   0.675   2.828   1.872
 9288TIP3    H227829   0.698   2.846   2.020
 9289TIP3   OH227830   3.625   2.699   4.090
 9289TIP3    H127831   3.537   2.729   4.113
 9289TIP3    H227832   3.613   2.610   4.055
 9290TIP3   OH227833   1.229   5.668   2.448
 9290TIP3    H127834   1.293   5.623   2.502
 9290TIP3    H227835   1.268   5.753   2.428
 9291TIP3   OH227836   1.981   1.042   5.185
 9291TIP3    H127837   1.918   1.039   5.113
 9291TIP3    H227838   1.960   0.965   5.239
 9292TIP3   OH227839   5.359   3.567   1.938
 9292TIP3    H127840   5.267   3.562   1.965
 9292TIP3    H227841   5.378   3.660   1.933
 9293TIP3   OH227842   5.740   3.594   0.150
 9293TIP3    H127843   5.741   3.616   0.243
 9293TIP3    H227844   5.648   3.576   0.130
 9294TIP3   OH227845   1.882   5.238   0.183
 9294TIP3    H127846   1.935   5.285   0.119
 9294TIP3    H227847   1.891   5.289   0.264
 9295TIP3   OH227848   0.738   5.768   5.285
 9295TIP3    H127849   0.763   5.856   5.313
 9295TIP3    H227850   0.643   5.772   5.275
 9296TIP3   OH227851   3.073   1.234   5.629
 9296TIP3    H127852   2.999   1.179   5.656
 9296TIP3    H227853   3.088   1.211   5.537
 9297TIP3   OH227854   1.623   3.373   3.333
 9297TIP3    H127855   1.705   3.385   3.287
 9297TIP3    H227856   1.588   3.290   3.299
 9298TIP3   OH227857   0.737   2.824   5.691
 9298TIP3    H127858   0.741   2.802   5.784
 9298TIP3    H227859   0.669   2.891   5.685
 9299TIP3   OH227860   4.493   6.466   2.788
 9299TIP3    H127861   4.550   6.534   2.823
 9299TIP3    H227862   4.522   6.454   2.698
 9300TIP3   OH227863   1.375   3.495   0.217
 9300TIP3    H127864   1.397   3.404   0.239
 9300TIP3    H227865   1.417   3.547   0.286
 9301TIP3   OH227866   1.427   1.027   3.023
 9301TIP3    H127867   1.417   1.080   3.102
 9301TIP3    H227868   1.476   1.082   2.963
 9302TIP3   OH227869   4.582   5.720   2.024
 9302TIP3    H127870   4.570   5.809   1.991
 9302TIP3    H227871   4.677   5.708   2.025
 9303TIP3   OH227872   1.410   4.101   3.612
 9303TIP3    H127873   1.342   4.067   3.671
 9303TIP3    H227874   1.410   4.041   3.538
 9304TIP3   OH227875   6.693   4.241   1.159
 9304TIP3    H127876   6.685   4.271   1.068
 9304TIP3    H227877   6.604   4.223   1.187
 9305TIP3   OH227878   0.681   5.716   4.110
 9305TIP3    H127879   0.759   5.747   4.155
 9305TIP3    H227880   0.715   5.665   4.036
 9306TIP3   OH227881   4.965   4.035   4.588
 9306TIP3    H127882   4.970   3.953   4.636
 9306TIP3    H227883   4.938   4.099   4.654
 9307TIP3   OH227884   0.474   0.754   0.534
 9307TIP3    H127885   0.403   0.757   0.598
 9307TIP3    H227886   0.510   0.666   0.541
 9308TIP3   OH227887   3.947   1.523   3.770
 9308TIP3    H127888   3.968   1.452   3.830
 9308TIP3    H227889   4.028   1.575   3.765
 9309TIP3   OH227890   3.668   6.176   2.812
 9309TIP3    H127891   3.698   6.118   2.741
 9309TIP3    H227892   3.733   6.164   2.881
 9310TIP3   OH227893   0.298   4.229   0.290
 9310TIP3    H127894   0.365   4.283   0.248
 9310TIP3    H227895   0.264   4.285   0.360
 9311TIP3   OH227896   2.932   6.449   1.088
 9311TIP3    H127897   2.882   6.530   1.092
 9311TIP3    H227898   2.906   6.401   1.167
 9312TIP3   OH227899   0.926   4.453   2.034
 9312TIP3    H127900   0.918   4.364   2.066
 9312TIP3    H227901   0.844   4.470   1.989
 9313TIP3   OH227902   2.891   6.703   3.277
 9313TIP3    H127903   2.852   6.782   3.315
 9313TIP3    H227904   2.906   6.725   3.185
 9314TIP3   OH227905   3.081   6.168   2.757
 9314TIP3    H127906   3.102   6.148   2.848
 9314TIP3    H227907   2.994   6.131   2.743
 9315TIP3   OH227908   3.483   1.711   0.153
 9315TIP3    H127909   3.577   1.726   0.165
 9315TIP3    H227910   3.450   1.695   0.242
 9316TIP3   OH227911   2.286   5.185   3.120
 9316TIP3    H127912   2.225   5.170   3.048
 9316TIP3    H227913   2.307   5.278   3.114
 9317TIP3   OH227914   0.820   4.424   1.680
 9317TIP3    H127915   0.811   4.468   1.595
 9317TIP3    H227916   0.907   4.383   1.676
 9318TIP3   OH227917   3.119   6.287   0.299
 9318TIP3    H127918   3.134   6.198   0.332
 9318TIP3    H227919   3.040   6.316   0.345
 9319TIP3   OH227920   7.045   2.678   4.004
 9319TIP3    H127921   7.029   2.741   4.075
 9319TIP3    H227922   7.002   2.716   3.928
 9320TIP3   OH227923   1.388   0.309   3.605
 9320TIP3    H127924   1.381   0.238   3.541
 9320TIP3    H227925   1.475   0.298   3.644
 9321TIP3   OH227926   0.506   5.318   1.279
 9321TIP3    H127927   0.485   5.283   1.192
 9321TIP3    H227928   0.587   5.274   1.304
 9322TIP3   OH227929   2.862   5.043   1.713
 9322TIP3    H127930   2.873   4.969   1.654
 9322TIP3    H227931   2.927   5.028   1.782
 9323TIP3   OH227932   2.069   3.049   5.611
 9323TIP3    H127933   2.046   3.113   5.678
 9323TIP3    H227934   2.003   2.979   5.621
 9324TIP3   OH227935   5.746   5.223   5.829
 9324TIP3    H127936   5.804   5.196   5.758
 9324TIP3    H227937   5.784   5.184   5.907
 9325TIP3   OH227938   5.367   1.042   0.572
 9325TIP3    H127939   5.417   1.037   0.490
 9325TIP3    H227940   5.284   0.999   0.552
 9326TIP3   OH227941   2.803   2.923   4.937
 9326TIP3    H127942   2.843   2.959   5.016
 9326TIP3    H227943   2.712   2.908   4.961
 9327TIP3   OH227944   1.410   0.510   2.671
 9327TIP3    H127945   1.359   0.522   2.751
 9327TIP3    H227946   1.501   0.520   2.699
 9328TIP3   OH227947   2.598   5.858   3.723
 9328TIP3    H127948   2.546   5.875   3.645
 9328TIP3    H227949   2.538   5.814   3.784
 9329TIP3   OH227950   1.838   5.971   3.777
 9329TIP3    H127951   1.809   5.974   3.869
 9329TIP3    H227952   1.760   5.946   3.728
 9330TIP3   OH227953   3.284   6.443   1.822
 9330TIP3    H127954   3.363   6.494   1.810
 9330TIP3    H227955   3.217   6.507   1.845
 9331TIP3   OH227956   5.294   6.421   0.043
 9331TIP3    H127957   5.289   6.327   0.063
 9331TIP3    H227958   5.230   6.461   0.102
 9332TIP3   OH227959   6.702   3.935   2.852
 9332TIP3    H127960   6.795   3.929   2.832
 9332TIP3    H227961   6.663   3.974   2.774
 9333TIP3   OH227962   4.775   0.287   4.538
 9333TIP3    H127963   4.708   0.354   4.550
 9333TIP3    H227964   4.816   0.308   4.454
 9334TIP3   OH227965   0.113   2.981   0.674
 9334TIP3    H127966   0.047   2.921   0.707
 9334TIP3    H227967   0.063   3.058   0.646
 9335TIP3   OH227968   1.452   4.667   4.635
 9335TIP3    H127969   1.417   4.678   4.547
 9335TIP3    H227970   1.540   4.704   4.630
 9336TIP3   OH227971   6.693   0.904   5.605
 9336TIP3    H127972   6.646   0.848   5.666
 9336TIP3    H227973   6.785   0.876   5.612
 9337TIP3   OH227974   2.106   3.458   5.678
 9337TIP3    H127975   2.047   3.440   5.751
 9337TIP3    H227976   2.190   3.420   5.705
 9338TIP3   OH227977   6.018   6.238   0.767
 9338TIP3    H127978   6.053   6.248   0.856
 9338TIP3    H227979   6.042   6.148   0.742
 9339TIP3   OH227980   2.954   4.680   4.582
 9339TIP3    H127981   2.946   4.769   4.618
 9339TIP3    H227982   2.864   4.650   4.571
 9340TIP3   OH227983   2.059   4.665   0.574
 9340TIP3    H127984   2.101   4.648   0.658
 9340TIP3    H227985   2.128   4.698   0.517
 9341TIP3   OH227986   3.482   0.570   3.951
 9341TIP3    H127987   3.533   0.625   3.892
 9341TIP3    H227988   3.437   0.631   4.010
 9342TIP3   OH227989   2.895   6.337   3.291
 9342TIP3    H127990   2.917   6.423   3.255
 9342TIP3    H227991   2.975   6.286   3.281
 9343TIP3   OH227992   6.074   1.823   4.399
 9343TIP3    H127993   6.051   1.897   4.455
 9343TIP3    H227994   6.054   1.746   4.452
 9344TIP3   OH227995   1.566   0.724   3.559
 9344TIP3    H127996   1.545   0.808   3.599
 9344TIP3    H227997   1.562   0.661   3.631
 9345TIP3   OH227998   6.362   4.953   3.722
 9345TIP3    H127999   6.450   4.967   3.757
 9345TIP3    H228000   6.337   4.867   3.757
 9346TIP3   OH228001   3.470   3.227   1.046
 9346TIP3    H128002   3.538   3.203   0.984
 9346TIP3    H228003   3.518   3.249   1.126
 9347TIP3   OH228004   3.460   1.754   1.290
 9347TIP3    H128005   3.485   1.761   1.197
 9347TIP3    H228006   3.388   1.816   1.300
 9348TIP3   OH228007   7.032   2.523   0.110
 9348TIP3    H128008   7.017   2.571   0.192
 9348TIP3    H228009   7.073   2.587   0.052
 9349TIP3   OH228010   1.014   4.768   2.572
 9349TIP3    H128011   0.952   4.819   2.520
 9349TIP3    H228012   0.974   4.763   2.658
 9350TIP3   OH228013   5.656   5.772   3.202
 9350TIP3    H128014   5.644   5.799   3.293
 9350TIP3    H228015   5.602   5.694   3.192
 9351TIP3   OH228016   0.999   2.791   5.593
 9351TIP3    H128017   0.922   2.800   5.649
 9351TIP3    H228018   1.048   2.718   5.632
 9352TIP3   OH228019   7.139   6.324   2.782
 9352TIP3    H128020   7.100   6.387   2.723
 9352TIP3    H228021   7.150   6.371   2.865
 9353TIP3   OH228022   6.761   5.609   0.284
 9353TIP3    H128023   6.819   5.581   0.214
 9353TIP3    H228024   6.805   5.685   0.323
 9354TIP3   OH228025   6.842   5.883   0.349
 9354TIP3    H128026   6.841   5.920   0.261
 9354TIP3    H228027   6.935   5.886   0.375
 9355TIP3   OH228028   2.332   5.215   2.589
 9355TIP3    H128029   2.337   5.124   2.562
 9355TIP3    H228030   2.250   5.247   2.550
 9356TIP3   OH228031   4.807   6.499   3.853
 9356TIP3    H128032   4.745   6.433   3.822
 9356TIP3    H228033   4.856   6.524   3.775
 9357TIP3   OH228034   6.772   5.911   4.854
 9357TIP3    H128035   6.744   6.002   4.850
 9357TIP3    H228036   6.761   5.878   4.765
 9358TIP3   OH228037   7.052   6.426   5.723
 9358TIP3    H128038   7.120   6.451   5.785
 9358TIP3    H228039   7.088   6.352   5.675
 9359TIP3   OH228040   6.742   4.311   3.696
 9359TIP3    H128041   6.732   4.337   3.605
 9359TIP3    H228042   6.764   4.217   3.693
 9360TIP3   OH228043   0.977   1.790   4.315
 9360TIP3    H128044   0.991   1.696   4.321
 9360TIP3    H228045   0.962   1.818   4.405
 9361TIP3   OH228046   2.726   0.837   2.727
 9361TIP3    H128047   2.676   0.779   2.785
 9361TIP3    H228048   2.715   0.799   2.640
 9362TIP3   OH228049   6.552   4.276   1.875
 9362TIP3    H128050   6.596   4.195   1.851
 9362TIP3    H228051   6.465   4.249   1.903
 9363TIP3   OH228052   7.124   1.870   1.747
 9363TIP3    H128053   7.158   1.933   1.683
 9363TIP3    H228054   7.190   1.866   1.815
 9364TIP3   OH228055   5.281   3.263   5.716
 9364TIP3    H128056   5.320   3.247   5.630
 9364TIP3    H228057   5.339   3.328   5.756
 9365TIP3   OH228058   0.133   4.134   3.514
 9365TIP3    H128059   0.095   4.202   3.458
 9365TIP3    H228060   0.062   4.110   3.573
 9366TIP3   OH228061   0.240   5.419   1.133
 9366TIP3    H128062   0.219   5.368   1.054
 9366TIP3    H228063   0.264   5.353   1.198
 9367TIP3   OH228064   5.691   2.098   5.171
 9367TIP3    H128065   5.677   2.051   5.089
 9367TIP3    H228066   5.604   2.134   5.193
 9368TIP3   OH228067   0.692   6.520   3.724
 9368TIP3    H128068   0.599   6.503   3.710
 9368TIP3    H228069   0.698   6.615   3.734
 9369TIP3   OH228070   0.763   0.163   1.118
 9369TIP3    H128071   0.781   0.257   1.119
 9369TIP3    H228072   0.846   0.123   1.094
 9370TIP3   OH228073   1.891   0.509   2.545
 9370TIP3    H128074   1.938   0.571   2.490
 9370TIP3    H228075   1.884   0.553   2.630
 9371TIP3   OH228076   0.791   1.507   3.347
 9371TIP3    H128077   0.885   1.494   3.336
 9371TIP3    H228078   0.751   1.436   3.297
 9372TIP3   OH228079   4.840   6.564   0.988
 9372TIP3    H128080   4.929   6.556   0.953
 9372TIP3    H228081   4.821   6.478   1.024
 9373TIP3   OH228082   6.750   4.922   0.621
 9373TIP3    H128083   6.715   5.008   0.596
 9373TIP3    H228084   6.793   4.938   0.706
 9374TIP3   OH228085   6.629   0.565   3.382
 9374TIP3    H128086   6.688   0.491   3.400
 9374TIP3    H228087   6.687   0.634   3.350
 9375TIP3   OH228088   3.758   1.425   1.080
 9375TIP3    H128089   3.828   1.444   1.142
 9375TIP3    H228090   3.743   1.508   1.035
 9376TIP3   OH228091   6.749   2.147   5.698
 9376TIP3    H128092   6.723   2.229   5.740
 9376TIP3    H228093   6.819   2.173   5.638
 9377TIP3   OH228094   5.710   6.248   5.109
 9377TIP3    H128095   5.770   6.211   5.174
 9377TIP3    H228096   5.704   6.341   5.132
 9378TIP3   OH228097   4.384   2.776   5.741
 9378TIP3    H128098   4.432   2.785   5.659
 9378TIP3    H228099   4.326   2.852   5.744
 9379TIP3   OH228100   1.504   6.536   3.899
 9379TIP3    H128101   1.484   6.492   3.816
 9379TIP3    H228102   1.513   6.628   3.875
 9380TIP3   OH228103   1.930   5.885   5.338
 9380TIP3    H128104   1.895   5.915   5.422
 9380TIP3    H228105   1.859   5.898   5.276
 9381TIP3   OH228106   1.574   3.018   4.615
 9381TIP3    H128107   1.596   2.992   4.705
 9381TIP3    H228108   1.487   3.056   4.622
 9382TIP3   OH228109   2.404   2.768   1.626
 9382TIP3    H128110   2.358   2.708   1.685
 9382TIP3    H228111   2.474   2.714   1.588
 9383TIP3   OH228112   5.055   1.547   3.525
 9383TIP3    H128113   5.140   1.508   3.546
 9383TIP3    H228114   5.007   1.478   3.479
 9384TIP3   OH228115   3.114   5.469   3.454
 9384TIP3    H128116   3.103   5.504   3.542
 9384TIP3    H228117   3.072   5.383   3.457
 9385TIP3   OH228118   4.594   4.991   3.504
 9385TIP3    H128119   4.672   5.016   3.554
 9385TIP3    H228120   4.619   5.007   3.413
 9386TIP3   OH228121   2.283   1.968   4.327
 9386TIP3    H128122   2.319   1.957   4.239
 9386TIP3    H228123   2.351   1.936   4.386
 9387TIP3   OH228124   5.976   0.749   1.377
 9387TIP3    H128125   5.898   0.790   1.339
 9387TIP3    H228126   5.946   0.713   1.460
 9388TIP3   OH228127   3.162   1.295   5.363
 9388TIP3    H128128   3.236   1.353   5.377
 9388TIP3    H228129   3.192   1.233   5.296
 9389TIP3   OH228130   2.740   2.988   3.599
 9389TIP3    H128131   2.692   2.953   3.524
 9389TIP3    H228132   2.770   3.074   3.570
 9390TIP3   OH228133   5.713   1.567   3.049
 9390TIP3    H128134   5.719   1.662   3.060
 9390TIP3    H228135   5.631   1.554   3.001
 9391TIP3   OH228136   3.687   1.881   3.009
 9391TIP3    H128137   3.673   1.912   2.919
 9391TIP3    H228138   3.710   1.960   3.058
 9392TIP3   OH228139   6.150   4.461   3.528
 9392TIP3    H128140   6.213   4.404   3.572
 9392TIP3    H228141   6.108   4.510   3.598
 9393TIP3   OH228142   7.046   4.994   1.618
 9393TIP3    H128143   6.996   5.037   1.548
 9393TIP3    H228144   6.980   4.950   1.671
 9394TIP3   OH228145   2.258   1.220   3.480
 9394TIP3    H128146   2.186   1.229   3.417
 9394TIP3    H228147   2.277   1.126   3.482
 9395TIP3   OH228148   4.232   0.772   4.162
 9395TIP3    H128149   4.151   0.751   4.115
 9395TIP3    H228150   4.239   0.868   4.156
 9396TIP3   OH228151   7.137   5.273   2.889
 9396TIP3    H128152   7.129   5.227   2.805
 9396TIP3    H228153   7.076   5.226   2.947
 9397TIP3   OH228154   7.078   0.433   3.513
 9397TIP3    H128155   7.032   0.380   3.578
 9397TIP3    H228156   7.033   0.518   3.514
 9398TIP3   OH228157   4.728   0.030   4.856
 9398TIP3    H128158   4.656   0.081   4.820
 9398TIP3    H228159   4.717  -0.058   4.818
 9399TIP3   OH228160   6.286   5.123   3.510
 9399TIP3    H128161   6.317   5.202   3.554
 9399TIP3    H228162   6.298   5.054   3.575
 9400TIP3   OH228163   4.119   3.886   3.042
 9400TIP3    H128164   4.088   3.971   3.073
 9400TIP3    H228165   4.040   3.837   3.022
 9401TIP3   OH228166   5.625   0.908   1.857
 9401TIP3    H128167   5.626   0.950   1.771
 9401TIP3    H228168   5.682   0.962   1.911
 9402TIP3   OH228169   6.239   5.219   0.164
 9402TIP3    H128170   6.273   5.131   0.148
 9402TIP3    H228171   6.313   5.267   0.202
 9403TIP3   OH228172   3.627   0.604   0.410
 9403TIP3    H128173   3.574   0.623   0.487
 9403TIP3    H228174   3.610   0.678   0.351
 9404TIP3   OH228175   7.104   5.091   3.673
 9404TIP3    H128176   7.155   5.010   3.677
 9404TIP3    H228177   7.043   5.077   3.602
 9405TIP3   OH228178   4.572   1.641   1.855
 9405TIP3    H128179   4.577   1.608   1.765
 9405TIP3    H228180   4.484   1.616   1.884
 9406TIP3   OH228181   3.373   0.372   2.807
 9406TIP3    H128182   3.314   0.440   2.838
 9406TIP3    H228183   3.400   0.401   2.720
 9407TIP3   OH228184   1.019   6.585   5.232
 9407TIP3    H128185   0.998   6.524   5.161
 9407TIP3    H228186   0.968   6.553   5.307
 9408TIP3   OH228187   4.973   4.458   1.146
 9408TIP3    H128188   5.006   4.495   1.228
 9408TIP3    H228189   4.961   4.534   1.089
 9409TIP3   OH228190   2.528   0.130   1.484
 9409TIP3    H128191   2.606   0.102   1.533
 9409TIP3    H228192   2.460   0.140   1.550
 9410TIP3   OH228193   2.749   5.259   2.876
 9410TIP3    H128194   2.703   5.231   2.797
 9410TIP3    H228195   2.716   5.347   2.894
 9411TIP3   OH228196   4.782   0.791   1.588
 9411TIP3    H128197   4.698   0.837   1.591
 9411TIP3    H228198   4.848   0.859   1.601
 9412TIP3   OH228199   1.446   2.812   5.759
 9412TIP3    H128200   1.518   2.750   5.766
 9412TIP3    H228201   1.478   2.892   5.801
 9413TIP3   OH228202   1.662   2.536   4.459
 9413TIP3    H128203   1.632   2.447   4.440
 9413TIP3    H228204   1.669   2.578   4.373
 9414TIP3   OH228205   4.774   3.993   1.609
 9414TIP3    H128206   4.770   4.041   1.691
 9414TIP3    H228207   4.867   3.985   1.589
 9415TIP3   OH228208   4.859   0.560   0.999
 9415TIP3    H128209   4.834   0.609   1.077
 9415TIP3    H228210   4.927   0.500   1.030
 9416TIP3   OH228211   3.390   0.521   2.567
 9416TIP3    H128212   3.448   0.456   2.529
 9416TIP3    H228213   3.361   0.574   2.493
 9417TIP3   OH228214   0.751   6.194   2.200
 9417TIP3    H128215   0.784   6.170   2.286
 9417TIP3    H228216   0.792   6.131   2.140
 9418TIP3   OH228217   6.797   0.337   0.149
 9418TIP3    H128218   6.890   0.331   0.129
 9418TIP3    H228219   6.795   0.361   0.242
 9419TIP3   OH228220   1.673   4.677   3.229
 9419TIP3    H128221   1.612   4.721   3.289
 9419TIP3    H228222   1.759   4.691   3.268
 9420TIP3   OH228223   3.380   1.458   4.151
 9420TIP3    H128224   3.286   1.452   4.166
 9420TIP3    H228225   3.404   1.544   4.186
 9421TIP3   OH228226   2.827   0.466   2.388
 9421TIP3    H128227   2.782   0.403   2.331
 9421TIP3    H228228   2.911   0.480   2.346
 9422TIP3   OH228229   3.195   2.099   3.498
 9422TIP3    H128230   3.243   2.181   3.497
 9422TIP3    H228231   3.262   2.032   3.482
 9423TIP3   OH228232   3.645   4.729   2.275
 9423TIP3    H128233   3.614   4.643   2.249
 9423TIP3    H228234   3.660   4.722   2.369
 9424TIP3   OH228235   4.566   4.519   0.638
 9424TIP3    H128236   4.633   4.484   0.696
 9424TIP3    H228237   4.489   4.464   0.654
 9425TIP3   OH228238   1.684   2.638   5.796
 9425TIP3    H128239   1.771   2.664   5.828
 9425TIP3    H228240   1.673   2.549   5.828
 9426TIP3   OH228241   2.147   3.328   0.434
 9426TIP3    H128242   2.095   3.407   0.417
 9426TIP3    H228243   2.084   3.256   0.426
 9427TIP3   OH228244   2.653  -0.007   2.832
 9427TIP3    H128245   2.714   0.025   2.766
 9427TIP3    H228246   2.669   0.048   2.909
 9428TIP3   OH228247   2.163   3.422   5.070
 9428TIP3    H128248   2.143   3.449   5.159
 9428TIP3    H228249   2.184   3.329   5.077
 9429TIP3   OH228250   5.945   3.821   1.538
 9429TIP3    H128251   5.965   3.835   1.445
 9429TIP3    H228252   5.857   3.784   1.538
 9430TIP3   OH228253   6.250   1.020   2.563
 9430TIP3    H128254   6.234   1.100   2.512
 9430TIP3    H228255   6.301   0.964   2.504
 9431TIP3   OH228256   6.864   5.447   3.701
 9431TIP3    H128257   6.859   5.371   3.759
 9431TIP3    H228258   6.782   5.495   3.716
 9432TIP3   OH228259   5.424   2.922   1.794
 9432TIP3    H128260   5.372   3.001   1.808
 9432TIP3    H228261   5.493   2.927   1.861
 9433TIP3   OH228262   2.270   6.350   5.259
 9433TIP3    H128263   2.327   6.328   5.185
 9433TIP3    H228264   2.228   6.267   5.282
 9434TIP3   OH228265   5.211   3.725   2.321
 9434TIP3    H128266   5.214   3.789   2.250
 9434TIP3    H228267   5.205   3.777   2.401
 9435TIP3   OH228268   0.989   0.063   4.480
 9435TIP3    H128269   0.940   0.095   4.556
 9435TIP3    H228270   1.007   0.141   4.428
 9436TIP3   OH228271   4.244   2.802   0.220
 9436TIP3    H128272   4.299   2.872   0.254
 9436TIP3    H228273   4.294   2.766   0.147
 9437TIP3   OH228274   3.235   5.155   3.768
 9437TIP3    H128275   3.286   5.229   3.736
 9437TIP3    H228276   3.248   5.086   3.702
 9438TIP3   OH228277   4.429   2.576   2.483
 9438TIP3    H128278   4.374   2.501   2.507
 9438TIP3    H228279   4.433   2.572   2.387
 9439TIP3   OH228280  -0.033   2.259   1.308
 9439TIP3    H128281   0.046   2.256   1.255
 9439TIP3    H228282  -0.035   2.174   1.353
 9440TIP3   OH228283   4.218   1.474   4.856
 9440TIP3    H128284   4.127   1.467   4.827
 9440TIP3    H228285   4.243   1.563   4.832
 9441TIP3   OH228286   5.452   4.195   1.757
 9441TIP3    H128287   5.425   4.256   1.826
 9441TIP3    H228288   5.377   4.191   1.698
 9442TIP3   OH228289   2.467   4.451   5.073
 9442TIP3    H128290   2.467   4.547   5.082
 9442TIP3    H228291   2.541   4.423   5.128
 9443TIP3   OH228292   4.683   5.034   1.347
 9443TIP3    H128293   4.710   5.053   1.257
 9443TIP3    H228294   4.590   5.012   1.341
 9444TIP3   OH228295   4.496   3.563   3.457
 9444TIP3    H128296   4.482   3.557   3.363
 9444TIP3    H228297   4.520   3.654   3.472
 9445TIP3   OH228298   0.981   4.343   4.494
 9445TIP3    H128299   1.016   4.420   4.540
 9445TIP3    H228300   1.059   4.296   4.463
 9446TIP3   OH228301   6.178   0.682   1.972
 9446TIP3    H128302   6.247   0.619   1.990
 9446TIP3    H228303   6.189   0.750   2.038
 9447TIP3   OH228304   5.992   5.760   4.006
 9447TIP3    H128305   6.011   5.852   4.023
 9447TIP3    H228306   5.936   5.733   4.078
 9448TIP3   OH228307   6.779   2.768   3.076
 9448TIP3    H128308   6.735   2.830   3.018
 9448TIP3    H228309   6.845   2.821   3.122
 9449TIP3   OH228310   5.495   2.128   3.495
 9449TIP3    H128311   5.446   2.089   3.567
 9449TIP3    H228312   5.427   2.164   3.437
 9450TIP3   OH228313   4.833   3.349   1.072
 9450TIP3    H128314   4.757   3.334   1.128
 9450TIP3    H228315   4.822   3.438   1.039
 9451TIP3   OH228316   6.310   5.653   2.291
 9451TIP3    H128317   6.374   5.700   2.236
 9451TIP3    H228318   6.243   5.625   2.229
 9452TIP3   OH228319   4.330   4.021   3.270
 9452TIP3    H128320   4.350   4.074   3.347
 9452TIP3    H228321   4.345   4.081   3.196
 9453TIP3   OH228322   5.679   3.773   4.050
 9453TIP3    H128323   5.758   3.806   4.092
 9453TIP3    H228324   5.694   3.679   4.042
 9454TIP3   OH228325   0.814   3.272   3.634
 9454TIP3    H128326   0.785   3.184   3.657
 9454TIP3    H228327   0.865   3.261   3.554
 9455TIP3   OH228328   4.624   1.932   5.470
 9455TIP3    H128329   4.571   1.865   5.514
 9455TIP3    H228330   4.563   1.977   5.412
 9456TIP3   OH228331   0.082   0.337   4.077
 9456TIP3    H128332   0.061   0.342   3.984
 9456TIP3    H228333   0.044   0.416   4.115
 9457TIP3   OH228334   1.735   2.893   4.117
 9457TIP3    H128335   1.796   2.893   4.190
 9457TIP3    H228336   1.756   2.972   4.068
 9458TIP3   OH228337   1.020   4.121   5.575
 9458TIP3    H128338   1.096   4.158   5.531
 9458TIP3    H228339   0.945   4.160   5.530
 9459TIP3   OH228340   4.601   5.033   2.829
 9459TIP3    H128341   4.577   5.119   2.863
 9459TIP3    H228342   4.567   4.972   2.895
 9460TIP3   OH228343   4.419   3.077   3.200
 9460TIP3    H128344   4.449   3.168   3.191
 9460TIP3    H228345   4.431   3.039   3.113
 9461TIP3   OH228346   0.597   2.549   0.711
 9461TIP3    H128347   0.586   2.518   0.801
 9461TIP3    H228348   0.579   2.643   0.717
 9462TIP3   OH228349   2.462   4.059   1.337
 9462TIP3    H128350   2.495   3.978   1.374
 9462TIP3    H228351   2.503   4.128   1.389
 9463TIP3   OH228352   5.698   3.496   4.097
 9463TIP3    H128353   5.710   3.415   4.048
 9463TIP3    H228354   5.657   3.468   4.179
 9464TIP3   OH228355   2.001   1.235   4.821
 9464TIP3    H128356   2.035   1.324   4.817
 9464TIP3    H228357   2.049   1.188   4.752
 9465TIP3   OH228358   6.622   2.489   1.367
 9465TIP3    H128359   6.578   2.477   1.451
 9465TIP3    H228360   6.684   2.416   1.362
 9466TIP3   OH228361   2.841   4.765   3.843
 9466TIP3    H128362   2.934   4.782   3.826
 9466TIP3    H228363   2.814   4.707   3.771
 9467TIP3   OH228364   4.311   3.499   3.243
 9467TIP3    H128365   4.303   3.592   3.224
 9467TIP3    H228366   4.229   3.461   3.211
 9468TIP3   OH228367   2.483   1.724   5.226
 9468TIP3    H128368   2.472   1.644   5.174
 9468TIP3    H228369   2.528   1.785   5.167
 9469TIP3   OH228370   1.821   2.538   3.938
 9469TIP3    H128371   1.807   2.623   3.896
 9469TIP3    H228372   1.898   2.502   3.893
 9470TIP3   OH228373   5.597   3.982   0.374
 9470TIP3    H128374   5.624   3.998   0.284
 9470TIP3    H228375   5.667   3.930   0.412
 9471TIP3   OH228376   0.699   3.189   5.822
 9471TIP3    H128377   0.718   3.267   5.874
 9471TIP3    H228378   0.783   3.143   5.815
 9472TIP3   OH228379   5.497   6.312   1.970
 9472TIP3    H128380   5.476   6.219   1.973
 9472TIP3    H228381   5.469   6.340   1.883
 9473TIP3   OH228382   1.579   3.101   1.943
 9473TIP3    H128383   1.672   3.121   1.932
 9473TIP3    H228384   1.539   3.185   1.965
 9474TIP3   OH228385   0.465   4.409   0.095
 9474TIP3    H128386   0.521   4.416   0.018
 9474TIP3    H228387   0.386   4.457   0.071
 9475TIP3   OH228388   0.365   1.291   3.068
 9475TIP3    H128389   0.321   1.361   3.117
 9475TIP3    H228390   0.342   1.211   3.116
 9476TIP3   OH228391   0.737   0.216   1.389
 9476TIP3    H128392   0.741   0.216   1.294
 9476TIP3    H228393   0.697   0.132   1.412
 9477TIP3   OH228394   3.665   2.492   2.670
 9477TIP3    H128395   3.669   2.408   2.624
 9477TIP3    H228396   3.573   2.517   2.668
 9478TIP3   OH228397   3.423   5.240   4.923
 9478TIP3    H128398   3.332   5.249   4.897
 9478TIP3    H228399   3.429   5.285   5.007
 9479TIP3   OH228400   2.547   5.777   0.465
 9479TIP3    H128401   2.613   5.709   0.479
 9479TIP3    H228402   2.464   5.729   0.457
 9480TIP3   OH228403   0.946   4.909   1.152
 9480TIP3    H128404   0.860   4.938   1.122
 9480TIP3    H228405   0.944   4.925   1.247
 9481TIP3   OH228406   6.969   4.180   0.060
 9481TIP3    H128407   6.990   4.087   0.054
 9481TIP3    H228408   7.050   4.225   0.036
 9482TIP3   OH228409   5.632   1.893   3.329
 9482TIP3    H128410   5.631   1.982   3.365
 9482TIP3    H228411   5.610   1.904   3.237
 9483TIP3   OH228412   2.842   0.276   2.122
 9483TIP3    H128413   2.860   0.232   2.038
 9483TIP3    H228414   2.873   0.365   2.109
 9484TIP3   OH228415   5.997   3.909   0.835
 9484TIP3    H128416   5.965   3.819   0.821
 9484TIP3    H228417   6.091   3.903   0.821
 9485TIP3   OH228418   1.565   1.200   2.856
 9485TIP3    H128419   1.635   1.260   2.881
 9485TIP3    H228420   1.504   1.254   2.806
 9486TIP3   OH228421   6.754   4.680   5.481
 9486TIP3    H128422   6.822   4.614   5.470
 9486TIP3    H228423   6.801   4.759   5.508
 9487TIP3   OH228424   2.166   6.138   4.602
 9487TIP3    H128425   2.089   6.125   4.546
 9487TIP3    H228426   2.226   6.067   4.577
 9488TIP3   OH228427   3.052   1.212   1.640
 9488TIP3    H128428   2.991   1.151   1.597
 9488TIP3    H228429   3.098   1.159   1.705
 9489TIP3   OH228430   1.160   3.820   0.622
 9489TIP3    H128431   1.151   3.750   0.558
 9489TIP3    H228432   1.128   3.782   0.704
 9490TIP3   OH228433   5.518   2.907   2.955
 9490TIP3    H128434   5.448   2.971   2.960
 9490TIP3    H228435   5.598   2.957   2.970
 9491TIP3   OH228436   2.772   1.591   3.269
 9491TIP3    H128437   2.770   1.681   3.237
 9491TIP3    H228438   2.864   1.567   3.267
 9492TIP3   OH228439   5.252   6.633   3.229
 9492TIP3    H128440   5.214   6.721   3.224
 9492TIP3    H228441   5.324   6.634   3.166
 9493TIP3   OH228442   0.762   1.726   1.178
 9493TIP3    H128443   0.715   1.718   1.095
 9493TIP3    H228444   0.783   1.820   1.184
 9494TIP3   OH228445   2.319   0.940   3.469
 9494TIP3    H128446   2.399   0.952   3.521
 9494TIP3    H228447   2.345   0.960   3.379
 9495TIP3   OH228448   3.707   0.789   2.715
 9495TIP3    H128449   3.773   0.783   2.784
 9495TIP3    H228450   3.677   0.699   2.701
 9496TIP3   OH228451   5.825   2.162   1.235
 9496TIP3    H128452   5.830   2.236   1.295
 9496TIP3    H228453   5.770   2.098   1.281
 9497TIP3   OH228454   0.322   0.199   4.264
 9497TIP3    H128455   0.266   0.266   4.305
 9497TIP3    H228456   0.265   0.158   4.199
 9498TIP3   OH228457   1.774   2.131   4.673
 9498TIP3    H128458   1.756   2.081   4.594
 9498TIP3    H228459   1.689   2.170   4.697
 9499TIP3   OH228460   0.522   6.686   3.092
 9499TIP3    H128461   0.518   6.778   3.064
 9499TIP3    H228462   0.567   6.641   3.021
 9500TIP3   OH228463   1.119   6.596   5.618
 9500TIP3    H128464   1.081   6.643   5.692
 9500TIP3    H228465   1.213   6.602   5.631
 9501TIP3   OH228466   4.787   4.585   0.845
 9501TIP3    H128467   4.814   4.649   0.911
 9501TIP3    H228468   4.707   4.546   0.880
 9502TIP3   OH228469   5.937   1.829   1.321
 9502TIP3    H128470   5.960   1.857   1.409
 9502TIP3    H228471   5.846   1.801   1.327
 9503TIP3   OH228472   1.970   1.741   5.207
 9503TIP3    H128473   1.938   1.714   5.293
 9503TIP3    H228474   1.999   1.831   5.219
 9504TIP3   OH228475   3.683   6.264   3.855
 9504TIP3    H128476   3.758   6.219   3.896
 9504TIP3    H228477   3.622   6.278   3.927
 9505TIP3   OH228478   1.983   4.041   1.483
 9505TIP3    H128479   1.968   4.035   1.389
 9505TIP3    H228480   2.070   4.002   1.496
 9506TIP3   OH228481   4.216   5.835   2.382
 9506TIP3    H128482   4.153   5.771   2.414
 9506TIP3    H228483   4.270   5.786   2.319
 9507TIP3   OH228484   0.628   3.216   4.639
 9507TIP3    H128485   0.653   3.140   4.691
 9507TIP3    H228486   0.710   3.265   4.628
 9508TIP3   OH228487   6.192   4.175   1.396
 9508TIP3    H128488   6.223   4.087   1.419
 9508TIP3    H228489   6.258   4.208   1.335
 9509TIP3   OH228490   5.709   4.674   4.173
 9509TIP3    H128491   5.719   4.723   4.254
 9509TIP3    H228492   5.799   4.656   4.145
 9510TIP3   OH228493   6.121   5.132   5.437
 9510TIP3    H128494   6.153   5.176   5.516
 9510TIP3    H228495   6.198   5.086   5.403
 9511TIP3   OH228496   2.834   5.924   2.275
 9511TIP3    H128497   2.771   5.878   2.329
 9511TIP3    H228498   2.913   5.870   2.278
 9512TIP3   OH228499   0.642   2.093   5.496
 9512TIP3    H128500   0.727   2.137   5.489
 9512TIP3    H228501   0.655   2.028   5.566
 9513TIP3   OH228502   4.059   3.097   0.226
 9513TIP3    H128503   4.076   3.186   0.195
 9513TIP3    H228504   4.146   3.060   0.242
 9514TIP3   OH228505   0.570   3.440   3.033
 9514TIP3    H128506   0.612   3.379   2.973
 9514TIP3    H228507   0.611   3.423   3.118
 9515TIP3   OH228508   4.088   3.894   1.412
 9515TIP3    H128509   4.134   3.957   1.467
 9515TIP3    H228510   4.069   3.821   1.470
 9516TIP3   OH228511   3.285   1.941   2.253
 9516TIP3    H128512   3.225   2.012   2.278
 9516TIP3    H228513   3.371   1.972   2.280
 9517TIP3   OH228514   2.894   2.079   4.839
 9517TIP3    H128515   2.868   2.101   4.928
 9517TIP3    H228516   2.875   2.158   4.788
 9518TIP3   OH228517   6.908   6.481   3.048
 9518TIP3    H128518   6.994   6.506   3.081
 9518TIP3    H228519   6.862   6.565   3.036
 9519TIP3   OH228520   2.274   0.614   0.321
 9519TIP3    H128521   2.203   0.618   0.257
 9519TIP3    H228522   2.349   0.580   0.272
 9520TIP3   OH228523   0.501   0.394   2.858
 9520TIP3    H128524   0.471   0.413   2.769
 9520TIP3    H228525   0.574   0.454   2.873
 9521TIP3   OH228526   0.325   5.104   5.048
 9521TIP3    H128527   0.300   5.185   5.004
 9521TIP3    H228528   0.420   5.100   5.038
 9522TIP3   OH228529   1.532   2.658   4.843
 9522TIP3    H128530   1.440   2.635   4.829
 9522TIP3    H228531   1.559   2.698   4.761
 9523TIP3   OH228532   6.794   6.509   1.837
 9523TIP3    H128533   6.805   6.533   1.745
 9523TIP3    H228534   6.848   6.432   1.849
 9524TIP3   OH228535   1.574   4.170   1.413
 9524TIP3    H128536   1.660   4.204   1.437
 9524TIP3    H228537   1.511   4.232   1.450
 9525TIP3   OH228538   1.803   0.230   2.820
 9525TIP3    H128539   1.734   0.167   2.797
 9525TIP3    H228540   1.866   0.224   2.749
 9526TIP3   OH228541   3.012   4.314   2.723
 9526TIP3    H128542   3.032   4.407   2.735
 9526TIP3    H228543   2.931   4.314   2.672
 9527TIP3   OH228544   6.163   5.445   3.832
 9527TIP3    H128545   6.138   5.362   3.791
 9527TIP3    H228546   6.162   5.427   3.926
 9528TIP3   OH228547   5.639   2.453   5.071
 9528TIP3    H128548   5.693   2.419   5.143
 9528TIP3    H228549   5.695   2.516   5.027
 9529TIP3   OH228550   7.020   0.116   2.264
 9529TIP3    H128551   7.105   0.080   2.240
 9529TIP3    H228552   7.033   0.211   2.260
 9530TIP3   OH228553   4.904   3.945   4.150
 9530TIP3    H128554   4.985   3.916   4.107
 9530TIP3    H228555   4.914   3.917   4.241
 9531TIP3   OH228556   2.372   5.525   3.360
 9531TIP3    H128557   2.301   5.476   3.402
 9531TIP3    H228558   2.372   5.494   3.270
 9532TIP3   OH228559   3.294   4.798   2.270
 9532TIP3    H128560   3.376   4.823   2.229
 9532TIP3    H228561   3.228   4.808   2.202
 9533TIP3   OH228562   3.467   1.969   0.387
 9533TIP3    H128563   3.439   1.877   0.380
 9533TIP3    H228564   3.555   1.964   0.423
 9534TIP3   OH228565   6.184   5.435   1.323
 9534TIP3    H128566   6.235   5.515   1.311
 9534TIP3    H228567   6.140   5.421   1.239
 9535TIP3   OH228568   2.279   5.427   4.154
 9535TIP3    H128569   2.313   5.488   4.089
 9535TIP3    H228570   2.354   5.406   4.209
 9536TIP3   OH228571   2.008   2.378   4.647
 9536TIP3    H128572   1.986   2.463   4.684
 9536TIP3    H228573   1.928   2.349   4.603
 9537TIP3   OH228574   4.695   0.948   1.312
 9537TIP3    H128575   4.669   1.014   1.249
 9537TIP3    H228576   4.739   0.996   1.382
 9538TIP3   OH228577   4.317   5.655   2.118
 9538TIP3    H128578   4.390   5.681   2.061
 9538TIP3    H228579   4.358   5.639   2.203
 9539TIP3   OH228580   0.517   3.092   5.640
 9539TIP3    H128581   0.445   3.058   5.693
 9539TIP3    H228582   0.563   3.153   5.697
 9540TIP3   OH228583   2.456   2.476   2.792
 9540TIP3    H128584   2.404   2.517   2.723
 9540TIP3    H228585   2.479   2.390   2.757
 9541TIP3   OH228586   5.382   5.509   4.812
 9541TIP3    H128587   5.397   5.594   4.771
 9541TIP3    H228588   5.289   5.492   4.799
 9542TIP3   OH228589   4.359   4.227   4.335
 9542TIP3    H128590   4.366   4.224   4.431
 9542TIP3    H228591   4.333   4.317   4.316
 9543TIP3   OH228592   1.750   3.919   5.255
 9543TIP3    H128593   1.805   3.982   5.301
 9543TIP3    H228594   1.661   3.945   5.276
 9544TIP3   OH228595   6.118   6.318   0.503
 9544TIP3    H128596   6.118   6.404   0.546
 9544TIP3    H228597   6.098   6.257   0.573
 9545TIP3   OH228598   1.603   3.053   4.910
 9545TIP3    H128599   1.595   3.148   4.900
 9545TIP3    H228600   1.581   3.037   5.002
 9546TIP3   OH228601   3.245   6.020   0.838
 9546TIP3    H128602   3.215   6.111   0.836
 9546TIP3    H228603   3.305   6.016   0.913
 9547TIP3   OH228604   6.541   1.943   2.324
 9547TIP3    H128605   6.485   1.915   2.396
 9547TIP3    H228606   6.610   1.995   2.366
 9548TIP3   OH228607   3.124   1.853   0.117
 9548TIP3    H128608   3.216   1.859   0.092
 9548TIP3    H228609   3.093   1.774   0.073
 9549TIP3   OH228610   0.335   5.869   1.367
 9549TIP3    H128611   0.339   5.859   1.462
 9549TIP3    H228612   0.282   5.795   1.337
 9550TIP3   OH228613   0.739   5.806   2.630
 9550TIP3    H128614   0.776   5.872   2.689
 9550TIP3    H228615   0.675   5.853   2.578
 9551TIP3   OH228616   5.792   0.180   0.800
 9551TIP3    H128617   5.701   0.208   0.786
 9551TIP3    H228618   5.834   0.191   0.714
 9552TIP3   OH228619   2.785   0.256   5.385
 9552TIP3    H128620   2.805   0.213   5.468
 9552TIP3    H228621   2.861   0.310   5.366
 9553TIP3   OH228622   0.246   1.555   2.510
 9553TIP3    H128623   0.181   1.505   2.462
 9553TIP3    H228624   0.304   1.489   2.548
 9554TIP3   OH228625   7.201   4.354   5.235
 9554TIP3    H128626   7.247   4.352   5.151
 9554TIP3    H228627   7.139   4.426   5.226
 9555TIP3   OH228628   5.874   6.802   0.167
 9555TIP3    H128629   5.884   6.887   0.208
 9555TIP3    H228630   5.898   6.739   0.235
 9556TIP3   OH228631   4.849   3.585   5.606
 9556TIP3    H128632   4.937   3.583   5.644
 9556TIP3    H228633   4.860   3.545   5.520
 9557TIP3   OH228634   6.382   5.537   4.525
 9557TIP3    H128635   6.331   5.524   4.445
 9557TIP3    H228636   6.351   5.619   4.561
 9558TIP3   OH228637   0.472   3.541   2.786
 9558TIP3    H128638   0.499   3.503   2.870
 9558TIP3    H228639   0.443   3.466   2.734
 9559TIP3   OH228640   4.317   6.694   4.196
 9559TIP3    H128641   4.315   6.737   4.110
 9559TIP3    H228642   4.226   6.698   4.226
 9560TIP3   OH228643   4.284   5.398   1.496
 9560TIP3    H128644   4.290   5.489   1.467
 9560TIP3    H228645   4.374   5.365   1.491
 9561TIP3   OH228646   1.966   5.539   2.114
 9561TIP3    H128647   2.035   5.473   2.107
 9561TIP3    H228648   2.013   5.620   2.136
 9562TIP3   OH228649   3.382   2.610   3.483
 9562TIP3    H128650   3.338   2.690   3.454
 9562TIP3    H228651   3.471   2.637   3.505
 9563TIP3   OH228652   1.120   5.426   2.102
 9563TIP3    H128653   1.088   5.360   2.040
 9563TIP3    H228654   1.043   5.448   2.155
 9564TIP3   OH228655   4.706   4.927   4.920
 9564TIP3    H128656   4.685   4.839   4.889
 9564TIP3    H228657   4.761   4.964   4.852
 9565TIP3   OH228658   5.133   2.673   5.557
 9565TIP3    H128659   5.106   2.626   5.636
 9565TIP3    H228660   5.183   2.610   5.507
 9566TIP3   OH228661   2.010   4.059   4.885
 9566TIP3    H128662   2.069   4.002   4.836
 9566TIP3    H228663   1.954   3.998   4.933
 9567TIP3   OH228664   4.057   6.509   4.450
 9567TIP3    H128665   4.052   6.424   4.407
 9567TIP3    H228666   4.111   6.495   4.528
 9568TIP3   OH228667   0.566   1.588   5.617
 9568TIP3    H128668   0.566   1.582   5.521
 9568TIP3    H228669   0.503   1.521   5.645
 9569TIP3   OH228670   3.244   6.540   4.061
 9569TIP3    H128671   3.322   6.578   4.021
 9569TIP3    H228672   3.171   6.572   4.007
 9570TIP3   OH228673   6.297   2.038   2.489
 9570TIP3    H128674   6.287   2.130   2.510
 9570TIP3    H228675   6.346   2.001   2.563
 9571TIP3   OH228676   5.079   4.471   3.030
 9571TIP3    H128677   5.025   4.406   3.075
 9571TIP3    H228678   5.169   4.444   3.047
 9572TIP3   OH228679   1.465   3.518   1.410
 9572TIP3    H128680   1.411   3.509   1.489
 9572TIP3    H228681   1.549   3.478   1.433
 9573TIP3   OH228682   1.572   0.439   0.760
 9573TIP3    H128683   1.488   0.440   0.714
 9573TIP3    H228684   1.628   0.498   0.709
 9574TIP3   OH228685   4.608   4.848   3.970
 9574TIP3    H128686   4.537   4.856   4.033
 9574TIP3    H228687   4.566   4.859   3.885
 9575TIP3   OH228688   6.490   1.367   2.623
 9575TIP3    H128689   6.521   1.286   2.582
 9575TIP3    H228690   6.539   1.372   2.705
 9576TIP3   OH228691   1.110   2.316   4.516
 9576TIP3    H128692   1.090   2.268   4.596
 9576TIP3    H228693   1.133   2.248   4.452
 9577TIP3   OH228694   2.438   4.762   2.895
 9577TIP3    H128695   2.510   4.700   2.882
 9577TIP3    H228696   2.468   4.817   2.968
 9578TIP3   OH228697   2.287   6.456   1.544
 9578TIP3    H128698   2.349   6.522   1.576
 9578TIP3    H228699   2.343   6.382   1.519
 9579TIP3   OH228700   0.961   4.433   3.933
 9579TIP3    H128701   1.043   4.400   3.971
 9579TIP3    H228702   0.910   4.355   3.914
 9580TIP3   OH228703   1.692   3.883   2.919
 9580TIP3    H128704   1.751   3.930   2.977
 9580TIP3    H228705   1.608   3.927   2.930
 9581TIP3   OH228706   0.901   1.970   4.023
 9581TIP3    H128707   0.928   1.987   3.933
 9581TIP3    H228708   0.860   2.052   4.052
 9582TIP3   OH228709   4.795   0.380   5.067
 9582TIP3    H128710   4.870   0.438   5.062
 9582TIP3    H228711   4.832   0.292   5.071
 9583TIP3   OH228712   3.758   6.200   1.599
 9583TIP3    H128713   3.850   6.191   1.621
 9583TIP3    H228714   3.743   6.294   1.590
 9584TIP3   OH228715   3.250   3.621   0.023
 9584TIP3    H128716   3.181   3.605   0.087
 9584TIP3    H228717   3.207   3.609  -0.062
 9585TIP3   OH228718   2.930   0.674   1.577
 9585TIP3    H128719   2.874   0.701   1.505
 9585TIP3    H228720   2.899   0.586   1.600
 9586TIP3   OH228721   6.775   2.498   4.898
 9586TIP3    H128722   6.799   2.547   4.819
 9586TIP3    H228723   6.821   2.415   4.889
 9587TIP3   OH228724   4.128   2.335   0.850
 9587TIP3    H128725   4.115   2.398   0.921
 9587TIP3    H228726   4.170   2.386   0.781
 9588TIP3   OH228727   5.883   4.648   2.787
 9588TIP3    H128728   5.939   4.706   2.838
 9588TIP3    H228729   5.835   4.596   2.852
 9589TIP3   OH228730   2.147   1.665   3.926
 9589TIP3    H128731   2.170   1.753   3.894
 9589TIP3    H228732   2.198   1.606   3.872
 9590TIP3   OH228733   4.767   6.095   3.199
 9590TIP3    H128734   4.793   6.003   3.212
 9590TIP3    H228735   4.822   6.144   3.261
 9591TIP3   OH228736   0.150   5.606   2.225
 9591TIP3    H128737   0.194   5.578   2.305
 9591TIP3    H228738   0.061   5.627   2.254
 9592TIP3   OH228739   4.266   2.800   3.155
 9592TIP3    H128740   4.265   2.818   3.249
 9592TIP3    H228741   4.199   2.858   3.118
 9593TIP3   OH228742   4.666   1.397   3.310
 9593TIP3    H128743   4.589   1.389   3.367
 9593TIP3    H228744   4.737   1.358   3.360
 9594TIP3   OH228745   2.239   2.731   5.246
 9594TIP3    H128746   2.257   2.738   5.152
 9594TIP3    H228747   2.205   2.643   5.257
 9595TIP3   OH228748   3.515   3.809   2.369
 9595TIP3    H128749   3.442   3.829   2.428
 9595TIP3    H228750   3.593   3.833   2.419
 9596TIP3   OH228751   3.973   4.617   2.030
 9596TIP3    H128752   3.918   4.541   2.011
 9596TIP3    H228753   4.008   4.642   1.944
 9597TIP3   OH228754   4.261   6.733   3.934
 9597TIP3    H128755   4.197   6.691   3.877
 9597TIP3    H228756   4.325   6.771   3.874
 9598TIP3   OH228757   4.325   5.934   2.908
 9598TIP3    H128758   4.259   5.994   2.943
 9598TIP3    H228759   4.340   5.964   2.819
 9599TIP3   OH228760   0.127   4.694   5.001
 9599TIP3    H128761   0.065   4.650   4.943
 9599TIP3    H228762   0.081   4.701   5.084
 9600TIP3   OH228763   6.264   2.982   5.888
 9600TIP3    H128764   6.351   2.998   5.852
 9600TIP3    H228765   6.238   3.066   5.925
 9601TIP3   OH228766   4.810   4.869   3.275
 9601TIP3    H128767   4.903   4.880   3.293
 9601TIP3    H228768   4.806   4.813   3.198
 9602TIP3   OH228769   3.719   4.729   1.789
 9602TIP3    H128770   3.658   4.656   1.773
 9602TIP3    H228771   3.782   4.724   1.718
 9603TIP3   OH228772   7.169   5.973   4.479
 9603TIP3    H128773   7.130   5.994   4.394
 9603TIP3    H228774   7.100   5.994   4.542
 9604TIP3   OH228775   6.700   1.586   2.458
 9604TIP3    H128776   6.753   1.507   2.446
 9604TIP3    H228777   6.613   1.561   2.428
 9605TIP3   OH228778   1.105   5.636   3.573
 9605TIP3    H128779   1.100   5.719   3.621
 9605TIP3    H228780   1.072   5.656   3.486
 9606TIP3   OH228781   6.078   4.880   5.644
 9606TIP3    H128782   6.068   4.792   5.679
 9606TIP3    H228783   6.071   4.869   5.549
 9607TIP3   OH228784   3.430   5.410   2.105
 9607TIP3    H128785   3.505   5.360   2.075
 9607TIP3    H228786   3.465   5.496   2.127
 9608TIP3   OH228787   2.874   4.253   3.805
 9608TIP3    H128788   2.848   4.247   3.712
 9608TIP3    H228789   2.905   4.343   3.815
 9609TIP3   OH228790   6.083   0.867   0.296
 9609TIP3    H128791   6.126   0.782   0.292
 9609TIP3    H228792   6.153   0.930   0.314
 9610TIP3   OH228793   0.783   5.205   1.309
 9610TIP3    H128794   0.846   5.266   1.348
 9610TIP3    H228795   0.812   5.195   1.219
 9611TIP3   OH228796   6.921   4.901   5.530
 9611TIP3    H128797   7.013   4.896   5.503
 9611TIP3    H228798   6.912   4.987   5.570
 9612TIP3   OH228799   2.319   2.448   5.079
 9612TIP3    H128800   2.257   2.520   5.084
 9612TIP3    H228801   2.266   2.369   5.091
 9613TIP3   OH228802   6.808   4.915   5.845
 9613TIP3    H128803   6.856   4.949   5.920
 9613TIP3    H228804   6.874   4.900   5.778
 9614TIP3   OH228805   4.864   5.268   0.574
 9614TIP3    H128806   4.947   5.313   0.587
 9614TIP3    H228807   4.848   5.273   0.480
 9615TIP3   OH228808   7.050   4.588   3.703
 9615TIP3    H128809   7.041   4.528   3.629
 9615TIP3    H228810   6.961   4.605   3.732
 9616TIP3   OH228811   2.819   1.454   1.915
 9616TIP3    H128812   2.811   1.420   2.004
 9616TIP3    H228813   2.765   1.396   1.862
 9617TIP3   OH228814   3.578   0.074   2.312
 9617TIP3    H128815   3.626   0.133   2.254
 9617TIP3    H228816   3.498   0.053   2.265
 9618TIP3   OH228817   6.038   2.416   0.125
 9618TIP3    H128818   6.023   2.499   0.170
 9618TIP3    H228819   5.952   2.391   0.092
 9619TIP3   OH228820   1.490   4.355   3.635
 9619TIP3    H128821   1.489   4.266   3.601
 9619TIP3    H228822   1.479   4.411   3.559
 9620TIP3   OH228823   1.839   0.274   5.104
 9620TIP3    H128824   1.805   0.211   5.041
 9620TIP3    H228825   1.788   0.258   5.184
 9621TIP3   OH228826   6.182   4.050   3.951
 9621TIP3    H128827   6.136   4.110   3.893
 9621TIP3    H228828   6.133   4.053   4.033
 9622TIP3   OH228829   0.420   1.857   4.248
 9622TIP3    H128830   0.410   1.865   4.153
 9622TIP3    H228831   0.514   1.871   4.263
 9623TIP3   OH228832   6.191   3.999   2.052
 9623TIP3    H128833   6.193   3.948   2.132
 9623TIP3    H228834   6.099   4.003   2.027
 9624TIP3   OH228835   6.551   5.200   1.944
 9624TIP3    H128836   6.526   5.185   2.035
 9624TIP3    H228837   6.469   5.202   1.895
 9625TIP3   OH228838   4.984   4.418   0.264
 9625TIP3    H128839   4.984   4.441   0.357
 9625TIP3    H228840   4.919   4.348   0.256
 9626TIP3   OH228841   6.082   2.606   3.846
 9626TIP3    H128842   6.029   2.683   3.864
 9626TIP3    H228843   6.080   2.596   3.751
 9627TIP3   OH228844   0.625   5.963   3.532
 9627TIP3    H128845   0.690   5.946   3.463
 9627TIP3    H228846   0.638   6.055   3.554
 9628TIP3   OH228847   0.178   3.953   5.385
 9628TIP3    H128848   0.242   3.938   5.455
 9628TIP3    H228849   0.094   3.961   5.430
 9629TIP3   OH228850   1.046   0.771   2.372
 9629TIP3    H128851   1.096   0.708   2.424
 9629TIP3    H228852   0.955   0.756   2.397
 9630TIP3   OH228853   3.070   5.749   2.311
 9630TIP3    H128854   3.155   5.736   2.352
 9630TIP3    H228855   3.056   5.670   2.258
 9631TIP3   OH228856   5.699   2.373   5.496
 9631TIP3    H128857   5.737   2.344   5.413
 9631TIP3    H228858   5.723   2.466   5.503
 9632TIP3   OH228859   4.321   0.226   0.688
 9632TIP3    H128860   4.273   0.281   0.626
 9632TIP3    H228861   4.279   0.244   0.773
 9633TIP3   OH228862   4.050   3.580   0.206
 9633TIP3    H128863   4.103   3.614   0.279
 9633TIP3    H228864   3.960   3.585   0.238
 9634TIP3   OH228865   4.296   2.595   2.775
 9634TIP3    H128866   4.268   2.526   2.715
 9634TIP3    H228867   4.335   2.661   2.719
 9635TIP3   OH228868   4.304   1.478   5.124
 9635TIP3    H128869   4.261   1.483   5.038
 9635TIP3    H228870   4.337   1.566   5.139
 9636TIP3   OH228871   4.484   4.926   3.067
 9636TIP3    H128872   4.399   4.954   3.034
 9636TIP3    H228873   4.467   4.897   3.156
 9637TIP3   OH228874   2.813   2.589   4.625
 9637TIP3    H128875   2.794   2.620   4.714
 9637TIP3    H228876   2.730   2.599   4.579
 9638TIP3   OH228877   1.864   1.313   1.378
 9638TIP3    H128878   1.821   1.399   1.377
 9638TIP3    H228879   1.829   1.270   1.456
 9639TIP3   OH228880   0.182   6.448   2.456
 9639TIP3    H128881   0.261   6.481   2.498
 9639TIP3    H228882   0.196   6.465   2.363
 9640TIP3   OH228883   0.321   1.053   5.207
 9640TIP3    H128884   0.397   0.998   5.226
 9640TIP3    H228885   0.300   1.035   5.116
 9641TIP3   OH228886   6.572   1.011   3.942
 9641TIP3    H128887   6.563   0.956   3.865
 9641TIP3    H228888   6.579   1.100   3.908
 9642TIP3   OH228889   2.555   3.876   0.259
 9642TIP3    H128890   2.504   3.819   0.202
 9642TIP3    H228891   2.562   3.958   0.211
 9643TIP3   OH228892   4.897   3.121   0.252
 9643TIP3    H128893   4.922   3.185   0.319
 9643TIP3    H228894   4.972   3.062   0.248
 9644TIP3   OH228895   3.077   0.903   0.923
 9644TIP3    H128896   3.107   0.992   0.939
 9644TIP3    H228897   2.988   0.913   0.889
 9645TIP3   OH228898   4.824   6.623   5.497
 9645TIP3    H128899   4.759   6.639   5.565
 9645TIP3    H228900   4.897   6.680   5.519
 9646TIP3   OH228901   3.319   4.315   3.697
 9646TIP3    H128902   3.281   4.353   3.617
 9646TIP3    H228903   3.332   4.223   3.675
 9647TIP3   OH228904   3.303   3.637   5.454
 9647TIP3    H128905   3.310   3.725   5.419
 9647TIP3    H228906   3.326   3.645   5.547
 9648TIP3   OH228907   6.602   2.507   2.818
 9648TIP3    H128908   6.697   2.521   2.815
 9648TIP3    H228909   6.581   2.507   2.912
 9649TIP3   OH228910   5.705   3.675   3.197
 9649TIP3    H128911   5.773   3.615   3.227
 9649TIP3    H228912   5.753   3.751   3.164
 9650TIP3   OH228913   0.847   5.278   1.995
 9650TIP3    H128914   0.798   5.359   1.987
 9650TIP3    H228915   0.812   5.222   1.925
 9651TIP3   OH228916   4.568   6.344   0.037
 9651TIP3    H128917   4.633   6.319  -0.029
 9651TIP3    H228918   4.546   6.261   0.080
 9652TIP3   OH228919   4.602   2.593   0.073
 9652TIP3    H128920   4.682   2.543   0.056
 9652TIP3    H228921   4.580   2.574   0.164
 9653TIP3   OH228922   0.634   3.963   2.339
 9653TIP3    H128923   0.712   3.943   2.287
 9653TIP3    H228924   0.576   3.889   2.325
 9654TIP3   OH228925   6.542   5.866   1.502
 9654TIP3    H128926   6.615   5.889   1.445
 9654TIP3    H228927   6.545   5.932   1.571
 9655TIP3   OH228928   3.122   1.540   3.824
 9655TIP3    H128929   3.111   1.445   3.829
 9655TIP3    H228930   3.094   1.572   3.910
 9656TIP3   OH228931   1.763   0.352   2.351
 9656TIP3    H128932   1.804   0.389   2.272
 9656TIP3    H228933   1.806   0.397   2.424
 9657TIP3   OH228934   2.618   5.825   2.401
 9657TIP3    H128935   2.602   5.785   2.487
 9657TIP3    H228936   2.602   5.753   2.339
 9658TIP3   OH228937   0.092   5.477   4.375
 9658TIP3    H128938   0.111   5.423   4.452
 9658TIP3    H228939   0.026   5.427   4.327
 9659TIP3   OH228940   1.336   6.726   4.792
 9659TIP3    H128941   1.261   6.669   4.808
 9659TIP3    H228942   1.391   6.678   4.730
 9660TIP3   OH228943   5.577   3.308   0.624
 9660TIP3    H128944   5.545   3.309   0.714
 9660TIP3    H228945   5.510   3.356   0.575
 9661TIP3   OH228946   6.779   1.088   4.105
 9661TIP3    H128947   6.851   1.049   4.056
 9661TIP3    H228948   6.702   1.074   4.050
 9662TIP3   OH228949   2.684   0.721   0.910
 9662TIP3    H128950   2.620   0.787   0.884
 9662TIP3    H228951   2.665   0.647   0.852
 9663TIP3   OH228952   4.697   6.589   0.206
 9663TIP3    H128953   4.633   6.634   0.261
 9663TIP3    H228954   4.780   6.635   0.223
 9664TIP3   OH228955   0.416   5.539   5.803
 9664TIP3    H128956   0.451   5.626   5.821
 9664TIP3    H228957   0.492   5.481   5.813
 9665TIP3   OH228958   3.538   3.166   2.094
 9665TIP3    H128959   3.464   3.228   2.094
 9665TIP3    H228960   3.598   3.201   2.159
 9666TIP3   OH228961   4.525   5.580   3.916
 9666TIP3    H128962   4.567   5.546   3.994
 9666TIP3    H228963   4.447   5.526   3.905
 9667TIP3   OH228964   6.291   6.071   3.214
 9667TIP3    H128965   6.209   6.031   3.241
 9667TIP3    H228966   6.346   5.998   3.187
 9668TIP3   OH228967   1.475   6.101   1.710
 9668TIP3    H128968   1.540   6.037   1.737
 9668TIP3    H228969   1.435   6.064   1.631
 9669TIP3   OH228970   1.267   5.488   3.142
 9669TIP3    H128971   1.324   5.517   3.070
 9669TIP3    H228972   1.263   5.563   3.201
 9670TIP3   OH228973   2.744   1.002   4.844
 9670TIP3    H128974   2.829   0.982   4.883
 9670TIP3    H228975   2.756   0.982   4.751
 9671TIP3   OH228976   6.334   6.464   3.945
 9671TIP3    H128977   6.398   6.452   4.015
 9671TIP3    H228978   6.379   6.438   3.865
 9672TIP3   OH228979   5.488   3.889   5.023
 9672TIP3    H128980   5.429   3.931   5.086
 9672TIP3    H228981   5.465   3.796   5.027
 9673TIP3   OH228982   2.401   2.392   1.858
 9673TIP3    H128983   2.429   2.310   1.817
 9673TIP3    H228984   2.436   2.388   1.947
 9674TIP3   OH228985   4.850   3.963   0.446
 9674TIP3    H128986   4.820   3.955   0.536
 9674TIP3    H228987   4.926   4.021   0.451
 9675TIP3   OH228988   4.829   1.726   2.610
 9675TIP3    H128989   4.849   1.805   2.661
 9675TIP3    H228990   4.843   1.752   2.519
 9676TIP3   OH228991   2.894   4.111   0.514
 9676TIP3    H128992   2.854   4.037   0.468
 9676TIP3    H228993   2.885   4.185   0.453
 9677TIP3   OH228994   1.856   2.910   4.741
 9677TIP3    H128995   1.821   2.913   4.652
 9677TIP3    H228996   1.858   3.001   4.769
 9678TIP3   OH228997   6.249   2.892   1.902
 9678TIP3    H128998   6.261   2.824   1.836
 9678TIP3    H228999   6.189   2.852   1.965
 9679TIP3   OH229000   2.480   1.010   0.588
 9679TIP3    H129001   2.415   1.076   0.613
 9679TIP3    H229002   2.478   1.010   0.492
 9680TIP3   OH229003   7.030   3.145   4.211
 9680TIP3    H129004   7.035   3.173   4.303
 9680TIP3    H229005   6.983   3.216   4.167
 9681TIP3   OH229006   3.304   3.108   1.906
 9681TIP3    H129007   3.397   3.131   1.896
 9681TIP3    H229008   3.304   3.016   1.932
 9682TIP3   OH229009   4.516   3.719   5.079
 9682TIP3    H129010   4.607   3.696   5.059
 9682TIP3    H229011   4.478   3.638   5.114
 9683TIP3   OH229012   5.623   2.727   4.836
 9683TIP3    H129013   5.587   2.731   4.747
 9683TIP3    H229014   5.565   2.783   4.888
 9684TIP3   OH229015   1.125   3.083   1.978
 9684TIP3    H129016   1.078   3.130   2.047
 9684TIP3    H229017   1.171   3.153   1.930
 9685TIP3   OH229018   4.684   4.979   0.655
 9685TIP3    H129019   4.630   4.907   0.689
 9685TIP3    H229020   4.650   4.995   0.567
 9686TIP3   OH229021   4.350   0.451   1.172
 9686TIP3    H129022   4.309   0.399   1.241
 9686TIP3    H229023   4.405   0.389   1.124
 9687TIP3   OH229024   6.997   2.871   4.196
 9687TIP3    H129025   6.905   2.872   4.170
 9687TIP3    H229026   7.024   2.963   4.195
 9688TIP3   OH229027   3.206   6.330   2.302
 9688TIP3    H129028   3.118   6.320   2.339
 9688TIP3    H229029   3.261   6.273   2.357
 9689TIP3   OH229030   1.364   4.017   1.218
 9689TIP3    H129031   1.424   3.964   1.269
 9689TIP3    H229032   1.420   4.076   1.168
 9690TIP3   OH229033   5.286   6.749   0.230
 9690TIP3    H129034   5.381   6.741   0.226
 9690TIP3    H229035   5.261   6.709   0.313
 9691TIP3   OH229036   6.846   1.605   4.886
 9691TIP3    H129037   6.881   1.530   4.839
 9691TIP3    H229038   6.806   1.567   4.965
 9692TIP3   OH229039   3.970   1.586   4.804
 9692TIP3    H129040   4.036   1.644   4.766
 9692TIP3    H229041   3.886   1.630   4.787
 9693TIP3   OH229042   6.114   0.248   3.266
 9693TIP3    H129043   6.182   0.202   3.216
 9693TIP3    H229044   6.159   0.279   3.345
 9694TIP3   OH229045   3.664   3.941   3.405
 9694TIP3    H129046   3.617   4.022   3.424
 9694TIP3    H229047   3.748   3.951   3.450
 9695TIP3   OH229048   3.937   1.574   5.911
 9695TIP3    H129049   3.974   1.487   5.929
 9695TIP3    H229050   3.881   1.560   5.835
 9696TIP3   OH229051   5.497   6.058   5.262
 9696TIP3    H129052   5.502   6.069   5.167
 9696TIP3    H229053   5.431   6.122   5.289
 9697TIP3   OH229054   1.940   5.844   0.194
 9697TIP3    H129055   1.869   5.788   0.164
 9697TIP3    H229056   1.970   5.889   0.115
 9698TIP3   OH229057   1.660   6.486   3.513
 9698TIP3    H129058   1.604   6.564   3.504
 9698TIP3    H229059   1.603   6.420   3.553
 9699TIP3   OH229060   1.898   2.558   2.489
 9699TIP3    H129061   1.930   2.632   2.438
 9699TIP3    H229062   1.806   2.576   2.503
 9700TIP3   OH229063   2.466   3.743   4.537
 9700TIP3    H129064   2.480   3.685   4.612
 9700TIP3    H229065   2.498   3.694   4.462
 9701TIP3   OH229066   0.390   1.611   4.413
 9701TIP3    H129067   0.425   1.693   4.380
 9701TIP3    H229068   0.374   1.558   4.334
 9702TIP3   OH229069   3.098   0.604   4.568
 9702TIP3    H129070   3.169   0.632   4.510
 9702TIP3    H229071   3.034   0.675   4.564
 9703TIP3   OH229072   1.776   1.236   5.462
 9703TIP3    H129073   1.838   1.305   5.435
 9703TIP3    H229074   1.730   1.273   5.537
 9704TIP3   OH229075   5.975   3.422   5.382
 9704TIP3    H129076   5.940   3.502   5.420
 9704TIP3    H229077   6.065   3.444   5.358
 9705TIP3   OH229078   1.323   1.840   2.204
 9705TIP3    H129079   1.343   1.907   2.269
 9705TIP3    H229080   1.409   1.804   2.179
 9706TIP3   OH229081   6.260   1.291   4.965
 9706TIP3    H129082   6.236   1.329   4.880
 9706TIP3    H229083   6.337   1.237   4.946
 9707TIP3   OH229084   3.290   2.848   3.405
 9707TIP3    H129085   3.313   2.907   3.477
 9707TIP3    H229086   3.203   2.878   3.377
 9708TIP3   OH229087   1.621   6.650   2.805
 9708TIP3    H129088   1.596   6.703   2.881
 9708TIP3    H229089   1.717   6.656   2.803
 9709TIP3   OH229090   0.907   5.624   4.528
 9709TIP3    H129091   0.923   5.540   4.484
 9709TIP3    H229092   0.954   5.616   4.611
 9710TIP3   OH229093   1.423   5.800   2.760
 9710TIP3    H129094   1.419   5.869   2.693
 9710TIP3    H229095   1.488   5.739   2.726
 9711TIP3   OH229096   2.607   5.216   5.846
 9711TIP3    H129097   2.568   5.303   5.853
 9711TIP3    H229098   2.540   5.156   5.878
 9712TIP3   OH229099   0.168   2.013   5.316
 9712TIP3    H129100   0.160   2.088   5.256
 9712TIP3    H229101   0.263   1.999   5.324
 9713TIP3   OH229102   6.385   1.329   1.291
 9713TIP3    H129103   6.402   1.383   1.214
 9713TIP3    H229104   6.419   1.381   1.364
 9714TIP3   OH229105   6.901   0.269   3.691
 9714TIP3    H129106   6.814   0.307   3.703
 9714TIP3    H229107   6.888   0.175   3.705
 9715TIP3   OH229108   6.913   1.950   1.313
 9715TIP3    H129109   6.916   2.026   1.255
 9715TIP3    H229110   6.908   1.875   1.253
 9716TIP3   OH229111   2.204   2.482   5.839
 9716TIP3    H129112   2.116   2.445   5.831
 9716TIP3    H229113   2.192   2.576   5.824
 9717TIP3   OH229114   5.168   5.187   3.171
 9717TIP3    H129115   5.204   5.099   3.169
 9717TIP3    H229116   5.119   5.192   3.253
 9718TIP3   OH229117   2.767   3.221   3.855
 9718TIP3    H129118   2.819   3.256   3.926
 9718TIP3    H229119   2.828   3.214   3.781
 9719TIP3   OH229120   6.846   2.009   5.918
 9719TIP3    H129121   6.821   2.058   5.839
 9719TIP3    H229122   6.830   2.070   5.990
 9720TIP3   OH229123   6.496   5.326   4.662
 9720TIP3    H129124   6.440   5.392   4.622
 9720TIP3    H229125   6.585   5.360   4.651
 9721TIP3   OH229126   2.066   0.784   5.752
 9721TIP3    H129127   2.042   0.827   5.670
 9721TIP3    H229128   2.137   0.724   5.728
 9722TIP3   OH229129   4.756   2.069   0.048
 9722TIP3    H129130   4.773   2.007   0.119
 9722TIP3    H229131   4.825   2.052  -0.016
 9723TIP3   OH229132   1.131   4.103   4.411
 9723TIP3    H129133   1.227   4.110   4.412
 9723TIP3    H229134   1.110   4.055   4.491
 9724TIP3   OH229135   0.467   2.160   4.320
 9724TIP3    H129136   0.374   2.179   4.316
 9724TIP3    H229137   0.504   2.204   4.243
 9725TIP3   OH229138   5.418   6.323   0.807
 9725TIP3    H129139   5.340   6.298   0.857
 9725TIP3    H229140   5.408   6.278   0.723
 9726TIP3   OH229141   4.560   0.600   1.930
 9726TIP3    H129142   4.651   0.592   1.902
 9726TIP3    H229143   4.514   0.529   1.886
 9727TIP3   OH229144   2.507   4.404   3.819
 9727TIP3    H129145   2.562   4.459   3.875
 9727TIP3    H229146   2.508   4.448   3.734
 9728TIP3   OH229147   0.255   6.038   0.337
 9728TIP3    H129148   0.305   6.117   0.319
 9728TIP3    H229149   0.198   6.062   0.410
 9729TIP3   OH229150   5.021   4.668   5.541
 9729TIP3    H129151   5.083   4.738   5.522
 9729TIP3    H229152   4.988   4.641   5.455
 9730TIP3   OH229153   2.599   3.914   2.323
 9730TIP3    H129154   2.632   3.938   2.410
 9730TIP3    H229155   2.560   3.828   2.335
 9731TIP3   OH229156   1.932   1.396   3.888
 9731TIP3    H129157   2.003   1.393   3.825
 9731TIP3    H229158   1.883   1.315   3.873
 9732TIP3   OH229159   3.689   0.139   3.967
 9732TIP3    H129160   3.622   0.196   4.004
 9732TIP3    H229161   3.717   0.184   3.887
 9733TIP3   OH229162   4.566   6.596   2.433
 9733TIP3    H129163   4.494   6.606   2.370
 9733TIP3    H229164   4.559   6.674   2.488
 9734TIP3   OH229165   0.066   2.830   3.777
 9734TIP3    H129166   0.073   2.909   3.830
 9734TIP3    H229167  -0.026   2.804   3.784
 9735TIP3   OH229168   6.853   6.752   3.251
 9735TIP3    H129169   6.823   6.725   3.165
 9735TIP3    H229170   6.791   6.713   3.312
 9736TIP3   OH229171   5.133   3.587   5.649
 9736TIP3    H129172   5.187   3.634   5.712
 9736TIP3    H229173   5.196   3.551   5.586
 9737TIP3   OH229174   6.499   1.233   5.857
 9737TIP3    H129175   6.471   1.292   5.927
 9737TIP3    H229176   6.521   1.291   5.784
 9738TIP3   OH229177   1.378   5.619   0.874
 9738TIP3    H129178   1.389   5.528   0.902
 9738TIP3    H229179   1.369   5.615   0.779
 9739TIP3   OH229180   2.271   6.562   5.476
 9739TIP3    H129181   2.285   6.476   5.435
 9739TIP3    H229182   2.253   6.541   5.568
 9740TIP3   OH229183   5.747   4.942   5.179
 9740TIP3    H129184   5.839   4.954   5.158
 9740TIP3    H229185   5.705   5.023   5.151
 9741TIP3   OH229186   1.070   3.116   4.122
 9741TIP3    H129187   1.030   3.101   4.037
 9741TIP3    H229188   1.051   3.036   4.172
 9742TIP3   OH229189   2.022   2.960   3.697
 9742TIP3    H129190   2.059   3.044   3.669
 9742TIP3    H229191   2.043   2.900   3.626
 9743TIP3   OH229192   2.789   0.700   3.060
 9743TIP3    H129193   2.709   0.699   3.008
 9743TIP3    H229194   2.820   0.609   3.059
 9744TIP3   OH229195   4.313   1.384   2.646
 9744TIP3    H129196   4.299   1.474   2.674
 9744TIP3    H229197   4.407   1.371   2.653
 9745TIP3   OH229198   5.467   0.239   5.369
 9745TIP3    H129199   5.562   0.253   5.370
 9745TIP3    H229200   5.431   0.310   5.422
 9746TIP3   OH229201   6.072   4.550   1.882
 9746TIP3    H129202   6.057   4.473   1.827
 9746TIP3    H229203   6.041   4.523   1.969
 9747TIP3   OH229204   0.541   5.293   2.643
 9747TIP3    H129205   0.498   5.251   2.568
 9747TIP3    H229206   0.478   5.359   2.672
 9748TIP3   OH229207   2.675   2.898   0.898
 9748TIP3    H129208   2.741   2.901   0.830
 9748TIP3    H229209   2.720   2.859   0.974
 9749TIP3   OH229210   4.486   0.206   2.492
 9749TIP3    H129211   4.474   0.291   2.450
 9749TIP3    H229212   4.425   0.148   2.446
   7.21786   6.80507   5.89335   0.00000   0.00000  -2.40596   0.00000  -2.40596  -3.40253
