* GENERATED BY CHARMM-GUI (HTTP://WWW.CHARMM-GUI.ORG) V3.7 ON JUN, 13. 2026. JOB
* GENERATES IONS
*  DATE:     6/13/26      6:21: 7      CREATED BY USER: charmm-gui
*
       135  EXT
         1         1  SER       N              17.8297249020        2.2078056355        1.1012832510  PROA      1              94.4600000000
         2         1  SER       HT1            18.2322967517        1.2788148751        1.3390059317  PROA      1               0.0000000000
         3         1  SER       HT2            18.3389943133        2.9499221147        1.6223470034  PROA      1               0.0000000000
         4         1  SER       HT3            17.9243362000        2.3753616946        0.0792395605  PROA      1               0.0000000000
         5         1  SER       CA             16.4179691174        2.2358210151        1.4702137908  PROA      1              95.1200000000
         6         1  SER       HA             16.3505823244        2.0598276032        2.5335180823  PROA      1               0.0000000000
         7         1  SER       CB             15.7969140137        3.5856441605        1.1112276706  PROA      1              91.9400000000
         8         1  SER       HB1            16.4611735714        4.4056832710        1.4583900411  PROA      1               0.0000000000
         9         1  SER       HB2            14.8043346929        3.6812935939        1.6009868889  PROA      1               0.0000000000
        10         1  SER       OG             15.6247545157        3.7034519079       -0.2906394564  PROA      1              63.5900000000
        11         1  SER       HG1            14.8247557478        3.2162076589       -0.5008655566  PROA      1               0.0000000000
        12         1  SER       C              15.6463130786        1.1129287005        0.7844515817  PROA      1              96.3300000000
        13         1  SER       O              15.9812045144        0.7137237818       -0.3325695278  PROA      1              94.9300000000
        14         2  GLY       N              14.9119300630        0.1842976656        1.5148939048  PROA      2              94.0900000000
        15         2  GLY       HN             14.9165557301        0.2261988244        2.5092528494  PROA      2               0.0000000000
        16         2  GLY       CA             14.0963473545       -0.8955504574        0.9811206599  PROA      2              94.7100000000
        17         2  GLY       HA1            13.5994436186       -1.3751588310        1.8113921493  PROA      2               0.0000000000
        18         2  GLY       HA2            14.7557177253       -1.5941533866        0.4876909058  PROA      2               0.0000000000
        19         2  GLY       C              13.0512816033       -0.4200111310       -0.0104346460  PROA      2              95.7500000000
        20         2  GLY       O              12.8089062435        0.7822268353       -0.1359378622  PROA      2              95.0100000000
        21         3  ASP       N              12.6743282458       -1.1705599872       -0.7835074633  PROA      3              96.1900000000
        22         3  ASP       HN             13.0812480413       -2.0743927411       -0.8900113951  PROA      3               0.0000000000
        23         3  ASP       CA             11.5627318008       -0.8540726450       -1.6743397177  PROA      3              96.2600000000
        24         3  ASP       HA             11.8918693736       -0.0886916091       -2.3613781461  PROA      3               0.0000000000
        25         3  ASP       CB             11.1156272001       -2.1002879606       -2.4413657038  PROA      3              95.1100000000
        26         3  ASP       HB1            10.2523344814       -1.8342827979       -3.0876195981  PROA      3               0.0000000000
        27         3  ASP       HB2            10.8003487123       -2.8770922302       -1.7127699569  PROA      3               0.0000000000
        28         3  ASP       CG             12.2109979232       -2.6813190552       -3.3186859680  PROA      3              90.1500000000
        29         3  ASP       OD1            13.1101483295       -1.9272337283       -3.7505943687  PROA      3              87.6100000000
        30         3  ASP       OD2            12.1726030621       -3.9016983767       -3.5835428090  PROA      3              87.9400000000
        31         3  ASP       C              10.3875077398       -0.2655732386       -0.8980673073  PROA      3              96.4900000000
        32         3  ASP       O              10.1961576104       -0.5771895228        0.2797083163  PROA      3              95.7200000000
        33         4  SER       N               9.6778998373        0.4821754833       -1.6253763707  PROA      4              95.4900000000
        34         4  SER       HN              9.9133695595        0.7719889129       -2.5491343262  PROA      4               0.0000000000
        35         4  SER       CA              8.4224432947        0.9397576249       -1.0379144967  PROA      4              95.3900000000
        36         4  SER       HA              8.6532896801        1.4748928970       -0.1287901109  PROA      4               0.0000000000
        37         4  SER       CB              7.6736224258        1.8477138976       -2.0136725165  PROA      4              94.2900000000
        38         4  SER       HB1             6.7449348205        2.2243411553       -1.5341789983  PROA      4               0.0000000000
        39         4  SER       HB2             7.4113108637        1.2751102492       -2.9288449047  PROA      4               0.0000000000
        40         4  SER       OG              8.4734802413        2.9559628909       -2.3857889550  PROA      4              88.5000000000
        41         4  SER       HG1             8.6702990909        3.4254151018       -1.5718620774  PROA      4               0.0000000000
        42         4  SER       C               7.5364214785       -0.2366372388       -0.6416753444  PROA      4              95.8800000000
        43         4  SER       O               7.6070474826       -1.3062520185       -1.2493769081  PROA      4              95.1800000000
        44         5  GLY       N               6.8913795635       -0.1735139393        0.6002330165  PROA      5              95.2100000000
        45         5  GLY       HN              7.0714751740        0.5528080210        1.2589527248  PROA      5               0.0000000000
        46         5  GLY       CA              5.9145675466       -1.1769775836        0.9955063375  PROA      5              94.9500000000
        47         5  GLY       HA1             5.5028601987       -0.8795569586        1.9485698828  PROA      5               0.0000000000
        48         5  GLY       HA2             6.4308450210       -2.1207135149        1.0909639248  PROA      5               0.0000000000
        49         5  GLY       C               4.7829673618       -1.3328543063       -0.0033677632  PROA      5              95.6400000000
        50         5  GLY       O               4.6896009958       -0.5721070145       -0.9686419624  PROA      5              94.9500000000
        51         6  PRO       N               3.9722515177       -2.2884255980        0.1870851879  PROA      6              97.2800000000
        52         6  PRO       CD              4.0260183504       -3.1206262514        1.2659740608  PROA      6              94.3800000000
        53         6  PRO       HD1             4.0059044075       -2.5198862459        2.1998380150  PROA      6               0.0000000000
        54         6  PRO       HD2             4.9576859064       -3.7236352526        1.2238941409  PROA      6               0.0000000000
        55         6  PRO       CA              2.7576950991       -2.3987519057       -0.6246942230  PROA      6              97.3100000000
        56         6  PRO       HA              3.0046243625       -2.3878404611       -1.6741895960  PROA      6               0.0000000000
        57         6  PRO       CB              2.1210778759       -3.7004743486       -0.1306575918  PROA      6              96.8100000000
        58         6  PRO       HB1             2.2835942351       -4.5211253731       -0.8615413748  PROA      6               0.0000000000
        59         6  PRO       HB2             1.0290255200       -3.5706179407        0.0262810607  PROA      6               0.0000000000
        60         6  PRO       CG              2.8113972810       -3.9965255159        1.1617764782  PROA      6              94.7700000000
        61         6  PRO       HG1             2.1252148757       -3.7929575660        2.0114859023  PROA      6               0.0000000000
        62         6  PRO       HG2             3.1130344384       -5.0653421222        1.1924097340  PROA      6               0.0000000000
        63         6  PRO       C               1.8081023531       -1.2200181286       -0.4294372145  PROA      6              97.7500000000
        64         6  PRO       O               1.8936184032       -0.5130731263        0.5788567748  PROA      6              97.5800000000
        65         7  GLY       N               0.9854568207       -0.9971826703       -1.4209555887  PROA      7              96.4800000000
        66         7  GLY       HN              0.9799923515       -1.5313620316       -2.2627071002  PROA      7               0.0000000000
        67         7  GLY       CA              0.0207765418        0.0842209697       -1.3050283398  PROA      7              96.4600000000
        68         7  GLY       HA1            -0.4533311228        0.2080429707       -2.2674099682  PROA      7               0.0000000000
        69         7  GLY       HA2             0.5604834354        0.9805917327       -1.0375880873  PROA      7               0.0000000000
        70         7  GLY       C              -1.0469286217       -0.1781716199       -0.2600265156  PROA      7              97.2600000000
        71         7  GLY       O              -1.2112569762       -1.3109998844        0.1966071614  PROA      7              97.0600000000
        72         8  ASP       N              -1.7287493705        0.8888179424        0.2032517382  PROA      8              96.6900000000
        73         8  ASP       HN             -1.4696873680        1.8138492678       -0.0608693313  PROA      8               0.0000000000
        74         8  ASP       CA             -2.8738048758        0.8072909732        1.1053355719  PROA      8              96.8500000000
        75         8  ASP       HA             -2.5535901932        0.3103036945        2.0090122188  PROA      8               0.0000000000
        76         8  ASP       CB             -3.4047982797        2.2058220426        1.4270075365  PROA      8              96.1500000000
        77         8  ASP       HB1            -4.3629797971        2.1081835827        1.9802094538  PROA      8               0.0000000000
        78         8  ASP       HB2            -3.5865447204        2.7490904492        0.4754272086  PROA      8               0.0000000000
        79         8  ASP       CG             -2.4442817557        3.0249170754        2.2714767984  PROA      8              93.1700000000
        80         8  ASP       OD1            -1.4909250396        2.4509482455        2.8413721872  PROA      8              92.9900000000
        81         8  ASP       OD2            -2.6437923331        4.2553311391        2.3683982166  PROA      8              92.4000000000
        82         8  ASP       C              -3.9850193747       -0.0518795422        0.5058338099  PROA      8              97.5700000000
        83         8  ASP       O              -4.1344914049       -0.1173938458       -0.7157798722  PROA      8              97.4600000000
        84         9  PRO       N              -4.7988441135       -0.6690122884        1.2976832073  PROA      9              96.7400000000
        85         9  PRO       CD             -4.6272019724       -0.7965297725        2.6828334759  PROA      9              92.8800000000
        86         9  PRO       HD1            -4.8647829458        0.1631524037        3.1877496712  PROA      9               0.0000000000
        87         9  PRO       HD2            -3.5839529656       -1.0983150590        2.9129032767  PROA      9               0.0000000000
        88         9  PRO       CA             -5.9828088900       -1.3285674254        0.7445074402  PROA      9              96.7200000000
        89         9  PRO       HA             -5.6979525190       -2.0305839670       -0.0226579766  PROA      9               0.0000000000
        90         9  PRO       CB             -6.6432389543       -1.9579031854        1.9743056477  PROA      9              96.0100000000
        91         9  PRO       HB1            -6.9192067353       -3.0155269338        1.7759585375  PROA      9               0.0000000000
        92         9  PRO       HB2            -7.5575299002       -1.3962316937        2.2618208423  PROA      9               0.0000000000
        93         9  PRO       CG             -5.6081277044       -1.8722125796        3.0486369841  PROA      9              92.7600000000
        94         9  PRO       HG1            -6.0908510767       -1.6285171285        4.0191426871  PROA      9               0.0000000000
        95         9  PRO       HG2            -5.0819909663       -2.8460369375        3.1442241141  PROA      9               0.0000000000
        96         9  PRO       C              -6.9343761800       -0.3530392694        0.0552139545  PROA      9              97.3600000000
        97         9  PRO       O              -6.9333935653        0.8408052627        0.3687044131  PROA      9              97.2300000000
        98        10  GLY       N              -7.6361035752       -0.7364146435       -1.1112422107  PROA      10             95.6900000000
        99        10  GLY       HN             -7.4765636152       -1.6227286893       -1.5375728983  PROA      10              0.0000000000
       100        10  GLY       CA             -8.6239502470        0.0966802353       -1.7781176683  PROA      10             95.7800000000
       101        10  GLY       HA1            -9.0062012270       -0.4567947637       -2.6230078945  PROA      10              0.0000000000
       102        10  GLY       HA2            -8.1258548337        0.9937324663       -2.1149976683  PROA      10              0.0000000000
       103        10  GLY       C              -9.7820593064        0.4844359118       -0.8783582883  PROA      10             96.8000000000
       104        10  GLY       O              -9.9777267803       -0.1122832254        0.1822007675  PROA      10             96.7000000000
       105        11  ASP       N             -10.6386584314        1.4927355519       -1.1441472552  PROA      11             96.5400000000
       106        11  ASP       HN            -10.4575175697        2.0527474445       -1.9435143564  PROA      11              0.0000000000
       107        11  ASP       CA            -11.8392525248        1.9320823597       -0.4390988843  PROA      11             96.8000000000
       108        11  ASP       HA            -11.5714851628        2.1288517018        0.5883985738  PROA      11              0.0000000000
       109        11  ASP       CB            -12.4120722782        3.1924241604       -1.0904912971  PROA      11             95.8800000000
       110        11  ASP       HB1           -13.3815645712        3.4380277446       -0.6073329333  PROA      11              0.0000000000
       111        11  ASP       HB2           -12.5823083053        2.9936746602       -2.1699340989  PROA      11              0.0000000000
       112        11  ASP       CG            -11.4933646858        4.3958677873       -0.9628010606  PROA      11             91.1900000000
       113        11  ASP       OD1           -10.6100039726        4.3973593237       -0.0791718252  PROA      11             90.9800000000
       114        11  ASP       OD2           -11.6580649273        5.3525971860       -1.7511897263  PROA      11             90.4600000000
       115        11  ASP       C             -12.8949304685        0.8295463557       -0.4118511509  PROA      11             97.2800000000
       116        11  ASP       O             -13.0490707034        0.0864600349       -1.3834500948  PROA      11             97.0900000000
       117        12  SER       N             -13.4603946455        0.4775376923        0.6093609551  PROA      12             96.3700000000
       118        12  SER       HN            -13.1909118869        0.8705553972        1.4832463805  PROA      12              0.0000000000
       119        12  SER       CA            -14.5398130160       -0.5000280617        0.7128702696  PROA      12             96.2500000000
       120        12  SER       HA            -14.1689353541       -1.4482389575        0.3529897003  PROA      12              0.0000000000
       121        12  SER       CB            -15.0092001841       -0.6281292296        2.1624649637  PROA      12             94.5500000000
       122        12  SER       HB1           -14.1514203976       -0.9132984813        2.8083143584  PROA      12              0.0000000000
       123        12  SER       HB2           -15.7988081200       -1.4065968531        2.2312877187  PROA      12              0.0000000000
       124        12  SER       OG            -15.5403123529        0.5998778670        2.6289490845  PROA      12             85.6400000000
       125        12  SER       HG1           -16.1710941746        0.8850480663        1.9638233438  PROA      12              0.0000000000
       126        12  SER       C             -15.7158243242       -0.1213425149       -0.1808095722  PROA      12             96.7700000000
       127        12  SER       O             -15.9730035909        1.0630663623       -0.4089771342  PROA      12             96.3800000000
       128        13  GLY       N             -16.2327481970       -0.8707148097       -1.3168698141  PROA      13             95.2300000000
       129        13  GLY       HN            -15.7592707271       -1.7113043740       -1.5396500673  PROA      13              0.0000000000
       130        13  GLY       CA            -17.3360754231       -0.6540158765       -2.2390691442  PROA      13             94.2000000000
       131        13  GLY       HA1           -17.5304782701       -1.5875056078       -2.7461118185  PROA      13              0.0000000000
       132        13  GLY       HA2           -17.0290606905        0.0989810706       -2.9497205145  PROA      13              0.0000000000
       133        13  GLY       C             -18.6077944110       -0.1928262532       -1.5508475613  PROA      13             94.9100000000
       134        13  GLY       OT1           -18.5842356631       -0.0487361635       -0.2993352636  PROA      13              0.0000000000
       135        13  GLY       OT2           -19.6226326771        0.0225717452       -2.2659048988  PROA      13              0.0000000000
