Title t= 250.00000 step= 125000
29212
    1ASP      N    1   2.211   2.230   4.835
    1ASP    HT1    2   2.184   2.130   4.842
    1ASP    HT2    3   2.201   2.245   4.732
    1ASP    HT3    4   2.141   2.290   4.883
    1ASP     CA    5   2.347   2.268   4.886
    1ASP     HA    6   2.340   2.250   4.992
    1ASP     CB    7   2.451   2.169   4.813
    1ASP    HB1    8   2.556   2.206   4.815
    1ASP    HB2    9   2.426   2.146   4.707
    1ASP     CG   10   2.447   2.041   4.892
    1ASP    OD1   11   2.376   2.036   4.992
    1ASP    OD2   12   2.512   1.945   4.859
    1ASP      C   13   2.386   2.414   4.859
    1ASP      O   14   2.353   2.511   4.927
    2GLY      N   15   2.474   2.436   4.760
    2GLY     HN   16   2.515   2.355   4.720
    2GLY     CA   17   2.533   2.561   4.716
    2GLY    HA1   18   2.610   2.533   4.646
    2GLY    HA2   19   2.573   2.610   4.803
    2GLY      C   20   2.438   2.661   4.654
    2GLY      O   21   2.317   2.633   4.653
    3ASP      N   22   2.495   2.774   4.611
    3ASP     HN   23   2.595   2.776   4.617
    3ASP     CA   24   2.426   2.881   4.538
    3ASP     HA   25   2.357   2.931   4.604
    3ASP     CB   26   2.540   2.986   4.507
    3ASP    HB1   27   2.486   3.074   4.465
    3ASP    HB2   28   2.613   2.939   4.437
    3ASP     CG   29   2.603   3.031   4.641
    3ASP    OD1   30   2.532   3.034   4.743
    3ASP    OD2   31   2.704   3.102   4.620
    3ASP      C   32   2.338   2.842   4.416
    3ASP      O   33   2.325   2.726   4.376
    4GLY      N   34   2.263   2.939   4.361
    4GLY     HN   35   2.260   3.032   4.395
    4GLY     CA   36   2.190   2.931   4.236
    4GLY    HA1   37   2.116   3.010   4.239
    4GLY    HA2   38   2.143   2.834   4.231
    4GLY      C   39   2.279   2.939   4.111
    4GLY      O   40   2.399   2.932   4.136
    5PRO      N   41   2.243   2.948   3.986
    5PRO     CD   42   2.102   2.950   3.941
    5PRO    HD1   43   2.041   3.005   4.016
    5PRO    HD2   44   2.063   2.847   3.928
    5PRO     CA   45   2.341   2.970   3.876
    5PRO     HA   46   2.403   2.881   3.876
    5PRO     CB   47   2.247   2.974   3.755
    5PRO    HB1   48   2.227   2.870   3.720
    5PRO    HB2   49   2.285   3.022   3.662
    5PRO     CG   50   2.115   3.022   3.807
    5PRO    HG1   51   2.113   3.131   3.828
    5PRO    HG2   52   2.030   2.991   3.742
    5PRO      C   53   2.430   3.089   3.889
    5PRO      O   54   2.393   3.188   3.956
    6GLY      N   55   2.550   3.078   3.832
    6GLY     HN   56   2.579   3.008   3.767
    6GLY     CA   57   2.639   3.191   3.850
    6GLY    HA1   58   2.741   3.165   3.826
    6GLY    HA2   59   2.632   3.237   3.947
    6GLY      C   60   2.606   3.299   3.749
    6GLY      O   61   2.500   3.299   3.696
    7ASP      N   62   2.699   3.392   3.724
    7ASP     HN   63   2.790   3.372   3.761
    7ASP     CA   64   2.679   3.506   3.644
    7ASP     HA   65   2.603   3.564   3.695
    7ASP     CB   66   2.804   3.599   3.660
    7ASP    HB1   67   2.796   3.687   3.593
    7ASP    HB2   68   2.894   3.542   3.625
    7ASP     CG   69   2.818   3.653   3.806
    7ASP    OD1   70   2.714   3.688   3.866
    7ASP    OD2   71   2.935   3.669   3.846
    7ASP      C   72   2.653   3.481   3.495
    7ASP      O   73   2.719   3.388   3.440
    8PRO      N   74   2.560   3.562   3.428
    8PRO     CD   75   2.491   3.681   3.480
    8PRO    HD1   76   2.547   3.741   3.554
    8PRO    HD2   77   2.398   3.638   3.523
    8PRO     CA   78   2.523   3.541   3.285
    8PRO     HA   79   2.486   3.441   3.270
    8PRO     CB   80   2.429   3.658   3.247
    8PRO    HB1   81   2.326   3.617   3.247
    8PRO    HB2   82   2.447   3.699   3.146
    8PRO     CG   83   2.452   3.760   3.357
    8PRO    HG1   84   2.541   3.821   3.331
    8PRO    HG2   85   2.365   3.829   3.369
    8PRO      C   86   2.648   3.529   3.193
    8PRO      O   87   2.736   3.606   3.212
    9GLY      N   88   2.651   3.432   3.101
    9GLY     HN   89   2.573   3.371   3.089
    9GLY     CA   90   2.761   3.416   3.007
    9GLY    HA1   91   2.749   3.327   2.947
    9GLY    HA2   92   2.842   3.402   3.077
    9GLY      C   93   2.780   3.534   2.911
    9GLY      O   94   2.721   3.644   2.925
   10ASP      N   95   2.843   3.504   2.801
   10ASP     HN   96   2.885   3.413   2.795
   10ASP     CA   97   2.865   3.593   2.688
   10ASP     HA   98   2.917   3.682   2.720
   10ASP     CB   99   2.964   3.538   2.582
   10ASP    HB1  100   2.972   3.609   2.497
   10ASP    HB2  101   2.919   3.453   2.528
   10ASP     CG  102   3.113   3.511   2.633
   10ASP    OD1  103   3.140   3.502   2.754
   10ASP    OD2  104   3.196   3.488   2.544
   10ASP      C  105   2.744   3.636   2.622
   10ASP      O  106   2.644   3.562   2.611
   11GLY      N  107   2.740   3.768   2.584
   11GLY     HN  108   2.816   3.826   2.612
   11GLY     CA  109   2.631   3.835   2.512
   11GLY    HA1  110   2.651   3.941   2.513
   11GLY    HA2  111   2.535   3.815   2.556
   11GLY      C  112   2.621   3.797   2.360
   11GLY    OT1  113   2.726   3.804   2.291
   11GLY    OT2  114   2.517   3.733   2.324
   12SOD    SOD  115   4.615   0.763   1.955
   13SOD    SOD  116   0.124   1.368   1.124
   14SOD    SOD  117   3.206   0.203   2.699
   15SOD    SOD  118   0.726   1.135   3.768
   16SOD    SOD  119   3.895   1.311   4.147
   17SOD    SOD  120   1.900   3.390   4.776
   18SOD    SOD  121   6.839   1.792   1.199
   19SOD    SOD  122   4.912   0.137   4.644
   20SOD    SOD  123   5.771   2.025   4.244
   21SOD    SOD  124   0.186   2.113   0.094
   22SOD    SOD  125   6.406   0.864   4.979
   23SOD    SOD  126   3.768   1.208   2.026
   24SOD    SOD  127   2.061   1.077   5.534
   25SOD    SOD  128   1.782   4.024   1.432
   26SOD    SOD  129   4.059   5.961   3.324
   27SOD    SOD  130   3.675   3.495   3.045
   28SOD    SOD  131   5.814   2.272   3.039
   29SOD    SOD  132   0.416   2.211   2.711
   30SOD    SOD  133   1.541   6.677   4.877
   31SOD    SOD  134   1.826   6.297   3.817
   32SOD    SOD  135   2.936   3.802   1.808
   33SOD    SOD  136   0.475   3.504   1.941
   34SOD    SOD  137   5.061   6.765   3.612
   35SOD    SOD  138   2.987   3.087   1.442
   36SOD    SOD  139   6.158   3.162   3.903
   37SOD    SOD  140   3.787   4.216   0.883
   38SOD    SOD  141   1.702   4.745   5.083
   39SOD    SOD  142   6.961   4.264   2.753
   40SOD    SOD  143   4.112   0.904   1.311
   41SOD    SOD  144   0.113   4.599   2.094
   42SOD    SOD  145   5.752   4.993   5.362
   43CLA    CLA  146   1.677   4.260   5.195
   44CLA    CLA  147   2.919   1.455   5.238
   45CLA    CLA  148   1.669   3.429   1.220
   46CLA    CLA  149   5.497   3.552   4.285
   47CLA    CLA  150   2.144   0.515   1.668
   48CLA    CLA  151   4.091   0.673   3.070
   49CLA    CLA  152   0.864   2.918   4.311
   50CLA    CLA  153   2.300   6.547   3.932
   51CLA    CLA  154   6.592   5.511   4.050
   52CLA    CLA  155   1.891   1.826   3.469
   53CLA    CLA  156   0.013   3.749   1.452
   54CLA    CLA  157   4.305   3.937   2.119
   55CLA    CLA  158   0.802   0.227   3.531
   56CLA    CLA  159   6.139   1.877   0.616
   57CLA    CLA  160   2.258   4.608   1.646
   58CLA    CLA  161   3.301   2.428   2.996
   59CLA    CLA  162   6.660   3.465   2.537
   60CLA    CLA  163   2.266   1.425   5.422
   61CLA    CLA  164   5.846   2.919   1.558
   62CLA    CLA  165   6.075   2.767   2.250
   63CLA    CLA  166   0.752   2.906   3.056
   64CLA    CLA  167   4.388   5.677   1.238
   65CLA    CLA  168   1.850   6.745   3.704
   66CLA    CLA  169   1.217   6.326   3.142
   67CLA    CLA  170   0.664   1.134   2.311
   68CLA    CLA  171   5.614   0.410   1.087
   69CLA    CLA  172   5.383   0.454   2.497
   70TIP3   OH2  173   3.586   3.699   5.524
   70TIP3    H1  174   3.608   3.744   5.442
   70TIP3    H2  175   3.495   3.671   5.511
   71TIP3   OH2  176   7.169   3.375   5.795
   71TIP3    H1  177   7.162   3.470   5.803
   71TIP3    H2  178   7.105   3.341   5.858
   72TIP3   OH2  179   4.285   3.810   5.778
   72TIP3    H1  180   4.199   3.786   5.811
   72TIP3    H2  181   4.329   3.850   5.853
   73TIP3   OH2  182   7.079   0.057   5.084
   73TIP3    H1  183   7.105  -0.030   5.056
   73TIP3    H2  184   7.137   0.116   5.037
   74TIP3   OH2  185   3.169   4.777   3.579
   74TIP3    H1  186   3.229   4.719   3.533
   74TIP3    H2  187   3.166   4.856   3.526
   75TIP3   OH2  188   1.467   4.804   0.616
   75TIP3    H1  189   1.447   4.728   0.670
   75TIP3    H2  190   1.541   4.846   0.661
   76TIP3   OH2  191   3.839   1.998   5.670
   76TIP3    H1  192   3.769   1.979   5.609
   76TIP3    H2  193   3.899   1.923   5.663
   77TIP3   OH2  194   1.987   4.681   0.035
   77TIP3    H1  195   2.018   4.628   0.109
   77TIP3    H2  196   2.021   4.768   0.053
   78TIP3   OH2  197   6.665   3.509   5.798
   78TIP3    H1  198   6.612   3.572   5.845
   78TIP3    H2  199   6.750   3.511   5.842
   79TIP3   OH2  200   2.189   0.259  -0.021
   79TIP3    H1  201   2.101   0.230   0.005
   79TIP3    H2  202   2.242   0.179  -0.018
   80TIP3   OH2  203   3.462   1.680   2.604
   80TIP3    H1  204   3.457   1.585   2.603
   80TIP3    H2  205   3.472   1.703   2.697
   81TIP3   OH2  206   0.236   5.879   0.771
   81TIP3    H1  207   0.187   5.923   0.840
   81TIP3    H2  208   0.320   5.857   0.812
   82TIP3   OH2  209   1.861   1.148   4.463
   82TIP3    H1  210   1.892   1.233   4.495
   82TIP3    H2  211   1.838   1.100   4.543
   83TIP3   OH2  212   3.804   6.509   2.582
   83TIP3    H1  213   3.728   6.492   2.638
   83TIP3    H2  214   3.830   6.599   2.602
   84TIP3   OH2  215   2.078   3.866   3.174
   84TIP3    H1  216   2.168   3.885   3.144
   84TIP3    H2  217   2.058   3.780   3.135
   85TIP3   OH2  218   5.866   6.696   1.546
   85TIP3    H1  219   5.802   6.698   1.616
   85TIP3    H2  220   5.951   6.706   1.590
   86TIP3   OH2  221   1.918   2.359   5.690
   86TIP3    H1  222   1.868   2.436   5.717
   86TIP3    H2  223   1.902   2.294   5.759
   87TIP3   OH2  224   4.178   1.568   5.309
   87TIP3    H1  225   4.123   1.625   5.256
   87TIP3    H2  226   4.220   1.510   5.246
   88TIP3   OH2  227   5.049   1.397   0.454
   88TIP3    H1  228   4.968   1.346   0.457
   88TIP3    H2  229   5.072   1.401   0.361
   89TIP3   OH2  230   5.263   4.574   3.947
   89TIP3    H1  231   5.210   4.516   4.002
   89TIP3    H2  232   5.236   4.662   3.973
   90TIP3   OH2  233   6.485   1.054   2.036
   90TIP3    H1  234   6.567   1.092   2.004
   90TIP3    H2  235   6.419   1.082   1.972
   91TIP3   OH2  236   6.992   1.995   1.535
   91TIP3    H1  237   6.983   1.902   1.556
   91TIP3    H2  238   7.044   2.030   1.607
   92TIP3   OH2  239   5.191   6.027   5.440
   92TIP3    H1  240   5.163   5.944   5.402
   92TIP3    H2  241   5.219   6.004   5.529
   93TIP3   OH2  242   2.559   5.368   5.793
   93TIP3    H1  243   2.538   5.422   5.716
   93TIP3    H2  244   2.594   5.287   5.757
   94TIP3   OH2  245   4.986   0.751   2.933
   94TIP3    H1  246   5.021   0.749   3.022
   94TIP3    H2  247   5.036   0.820   2.889
   95TIP3   OH2  248   2.546   1.455   3.343
   95TIP3    H1  249   2.530   1.449   3.249
   95TIP3    H2  250   2.553   1.549   3.360
   96TIP3   OH2  251   7.156   3.578   0.710
   96TIP3    H1  252   7.185   3.652   0.656
   96TIP3    H2  253   7.230   3.559   0.767
   97TIP3   OH2  254   0.751   2.174   1.225
   97TIP3    H1  255   0.707   2.257   1.208
   97TIP3    H2  256   0.829   2.199   1.275
   98TIP3   OH2  257   3.315   3.084   2.522
   98TIP3    H1  258   3.390   3.117   2.571
   98TIP3    H2  259   3.346   3.079   2.431
   99TIP3   OH2  260   4.206   0.161   1.581
   99TIP3    H1  261   4.271   0.231   1.587
   99TIP3    H2  262   4.167   0.171   1.494
  100TIP3   OH2  263   5.068   2.665   5.765
  100TIP3    H1  264   5.152   2.636   5.730
  100TIP3    H2  265   5.075   2.760   5.771
  101TIP3   OH2  266   2.750   1.680   0.445
  101TIP3    H1  267   2.710   1.622   0.510
  101TIP3    H2  268   2.684   1.689   0.376
  102TIP3   OH2  269   2.586   1.042   0.450
  102TIP3    H1  270   2.502   1.022   0.492
  102TIP3    H2  271   2.651   1.025   0.518
  103TIP3   OH2  272   2.407   1.115   0.984
  103TIP3    H1  273   2.341   1.164   1.033
  103TIP3    H2  274   2.440   1.051   1.048
  104TIP3   OH2  275   4.662   4.229   2.082
  104TIP3    H1  276   4.661   4.168   2.155
  104TIP3    H2  277   4.586   4.205   2.029
  105TIP3   OH2  278   4.414   2.560   0.047
  105TIP3    H1  279   4.497   2.522   0.073
  105TIP3    H2  280   4.388   2.512  -0.032
  106TIP3   OH2  281   4.474   5.290   1.923
  106TIP3    H1  282   4.481   5.380   1.890
  106TIP3    H2  283   4.433   5.299   2.009
  107TIP3   OH2  284   1.824   5.067   4.694
  107TIP3    H1  285   1.771   5.025   4.627
  107TIP3    H2  286   1.910   5.024   4.687
  108TIP3   OH2  287   1.400   6.778   3.141
  108TIP3    H1  288   1.380   6.709   3.205
  108TIP3    H2  289   1.496   6.775   3.133
  109TIP3   OH2  290   1.845   3.383   1.675
  109TIP3    H1  291   1.849   3.472   1.710
  109TIP3    H2  292   1.840   3.327   1.752
  110TIP3   OH2  293   4.526   2.425   0.694
  110TIP3    H1  294   4.585   2.355   0.667
  110TIP3    H2  295   4.450   2.417   0.636
  111TIP3   OH2  296   2.784   0.948   2.888
  111TIP3    H1  297   2.849   0.900   2.939
  111TIP3    H2  298   2.776   0.898   2.807
  112TIP3   OH2  299   0.512   1.904   1.703
  112TIP3    H1  300   0.565   1.969   1.657
  112TIP3    H2  301   0.460   1.955   1.765
  113TIP3   OH2  302   2.849   1.035   5.440
  113TIP3    H1  303   2.801   1.117   5.452
  113TIP3    H2  304   2.900   1.049   5.361
  114TIP3   OH2  305   5.350   2.544   4.976
  114TIP3    H1  306   5.430   2.585   4.942
  114TIP3    H2  307   5.285   2.558   4.907
  115TIP3   OH2  308   3.482   1.392   2.619
  115TIP3    H1  309   3.555   1.390   2.681
  115TIP3    H2  310   3.408   1.357   2.668
  116TIP3   OH2  311   4.368   2.377   4.217
  116TIP3    H1  312   4.379   2.471   4.231
  116TIP3    H2  313   4.319   2.347   4.293
  117TIP3   OH2  314   1.392   3.471   4.270
  117TIP3    H1  315   1.428   3.423   4.196
  117TIP3    H2  316   1.469   3.497   4.321
  118TIP3   OH2  317   6.246   2.110   0.166
  118TIP3    H1  318   6.258   2.099   0.260
  118TIP3    H2  319   6.261   2.022   0.129
  119TIP3   OH2  320   4.845   2.235   3.404
  119TIP3    H1  321   4.913   2.205   3.465
  119TIP3    H2  322   4.772   2.259   3.461
  120TIP3   OH2  323   3.346   0.257   5.859
  120TIP3    H1  324   3.381   0.278   5.946
  120TIP3    H2  325   3.412   0.291   5.798
  121TIP3   OH2  326   4.439   4.711   1.418
  121TIP3    H1  327   4.473   4.685   1.332
  121TIP3    H2  328   4.513   4.699   1.478
  122TIP3   OH2  329   5.008   2.867   1.433
  122TIP3    H1  330   4.926   2.895   1.392
  122TIP3    H2  331   5.015   2.774   1.413
  123TIP3   OH2  332   6.523   6.165   0.876
  123TIP3    H1  333   6.464   6.090   0.867
  123TIP3    H2  334   6.531   6.201   0.788
  124TIP3   OH2  335   4.557   3.032   1.978
  124TIP3    H1  336   4.602   3.115   1.993
  124TIP3    H2  337   4.626   2.966   1.984
  125TIP3   OH2  338   3.637   3.921   4.163
  125TIP3    H1  339   3.630   3.836   4.206
  125TIP3    H2  340   3.547   3.941   4.135
  126TIP3   OH2  341   6.542   3.610   3.906
  126TIP3    H1  342   6.486   3.669   3.856
  126TIP3    H2  343   6.585   3.556   3.840
  127TIP3   OH2  344   2.502   3.394   2.762
  127TIP3    H1  345   2.562   3.323   2.786
  127TIP3    H2  346   2.558   3.457   2.715
  128TIP3   OH2  347   0.648   6.149   3.577
  128TIP3    H1  348   0.721   6.190   3.532
  128TIP3    H2  349   0.588   6.221   3.596
  129TIP3   OH2  350   1.521   3.149   0.910
  129TIP3    H1  351   1.560   3.106   0.986
  129TIP3    H2  352   1.435   3.107   0.900
  130TIP3   OH2  353   0.490   1.623   1.721
  130TIP3    H1  354   0.523   1.710   1.700
  130TIP3    H2  355   0.422   1.638   1.786
  131TIP3   OH2  356   4.461   3.407   4.621
  131TIP3    H1  357   4.530   3.393   4.686
  131TIP3    H2  358   4.472   3.498   4.594
  132TIP3   OH2  359   4.589   3.624   0.217
  132TIP3    H1  360   4.610   3.573   0.138
  132TIP3    H2  361   4.494   3.619   0.224
  133TIP3   OH2  362   6.324   4.298   0.772
  133TIP3    H1  363   6.322   4.203   0.768
  133TIP3    H2  364   6.396   4.319   0.832
  134TIP3   OH2  365   4.083   4.995   3.314
  134TIP3    H1  366   4.175   4.988   3.339
  134TIP3    H2  367   4.077   5.080   3.270
  135TIP3   OH2  368   5.505   0.360   0.339
  135TIP3    H1  369   5.427   0.415   0.349
  135TIP3    H2  370   5.493   0.290   0.403
  136TIP3   OH2  371   0.934   3.511   1.998
  136TIP3    H1  372   0.988   3.495   2.076
  136TIP3    H2  373   0.907   3.424   1.969
  137TIP3   OH2  374   1.349   6.050   1.424
  137TIP3    H1  375   1.329   5.956   1.433
  137TIP3    H2  376   1.323   6.071   1.334
  138TIP3   OH2  377   6.436   4.677   4.564
  138TIP3    H1  378   6.529   4.654   4.562
  138TIP3    H2  379   6.393   4.597   4.594
  139TIP3   OH2  380   2.694   0.386   5.445
  139TIP3    H1  381   2.638   0.313   5.473
  139TIP3    H2  382   2.639   0.438   5.386
  140TIP3   OH2  383   5.165   0.946   2.834
  140TIP3    H1  384   5.149   0.988   2.749
  140TIP3    H2  385   5.258   0.927   2.834
  141TIP3   OH2  386   1.612   4.183   3.601
  141TIP3    H1  387   1.703   4.159   3.581
  141TIP3    H2  388   1.607   4.180   3.696
  142TIP3   OH2  389   6.496   2.427   4.065
  142TIP3    H1  390   6.591   2.428   4.057
  142TIP3    H2  391   6.478   2.472   4.148
  143TIP3   OH2  392   2.725   6.499   2.351
  143TIP3    H1  393   2.795   6.493   2.287
  143TIP3    H2  394   2.766   6.537   2.429
  144TIP3   OH2  395   6.236   5.719   1.092
  144TIP3    H1  396   6.290   5.642   1.111
  144TIP3    H2  397   6.259   5.781   1.161
  145TIP3   OH2  398   5.615   2.347   2.235
  145TIP3    H1  399   5.685   2.400   2.273
  145TIP3    H2  400   5.623   2.360   2.141
  146TIP3   OH2  401   1.445   2.961   2.359
  146TIP3    H1  402   1.522   2.966   2.415
  146TIP3    H2  403   1.374   2.934   2.417
  147TIP3   OH2  404   1.871   0.619   1.819
  147TIP3    H1  405   1.953   0.579   1.791
  147TIP3    H2  406   1.858   0.589   1.909
  148TIP3   OH2  407   7.021   6.159   1.038
  148TIP3    H1  408   6.990   6.176   0.950
  148TIP3    H2  409   7.000   6.066   1.053
  149TIP3   OH2  410   6.779   2.716   2.604
  149TIP3    H1  411   6.686   2.695   2.613
  149TIP3    H2  412   6.801   2.692   2.514
  150TIP3   OH2  413   6.242   1.045   0.377
  150TIP3    H1  414   6.258   1.087   0.462
  150TIP3    H2  415   6.271   0.954   0.389
  151TIP3   OH2  416   3.914   0.993   1.194
  151TIP3    H1  417   3.874   1.080   1.202
  151TIP3    H2  418   3.842   0.937   1.167
  152TIP3   OH2  419   6.785   0.349   1.886
  152TIP3    H1  420   6.800   0.324   1.978
  152TIP3    H2  421   6.704   0.305   1.862
  153TIP3   OH2  422   7.016   5.987   2.503
  153TIP3    H1  423   7.022   5.891   2.504
  153TIP3    H2  424   7.072   6.015   2.575
  154TIP3   OH2  425   4.528   4.360   5.223
  154TIP3    H1  426   4.545   4.303   5.297
  154TIP3    H2  427   4.462   4.422   5.255
  155TIP3   OH2  428   2.107   0.715   2.761
  155TIP3    H1  429   2.070   0.679   2.680
  155TIP3    H2  430   2.037   0.706   2.825
  156TIP3   OH2  431   1.521   6.017   0.709
  156TIP3    H1  432   1.591   6.038   0.771
  156TIP3    H2  433   1.440   6.032   0.758
  157TIP3   OH2  434   3.740   1.416   5.688
  157TIP3    H1  435   3.718   1.508   5.674
  157TIP3    H2  436   3.699   1.394   5.771
  158TIP3   OH2  437   0.227   0.075   0.491
  158TIP3    H1  438   0.308   0.125   0.499
  158TIP3    H2  439   0.190   0.102   0.407
  159TIP3   OH2  440   6.944   2.696   0.408
  159TIP3    H1  441   6.876   2.658   0.465
  159TIP3    H2  442   7.003   2.623   0.390
  160TIP3   OH2  443   1.712   5.824   5.415
  160TIP3    H1  444   1.648   5.853   5.479
  160TIP3    H2  445   1.796   5.854   5.449
  161TIP3   OH2  446   5.321   1.922   5.359
  161TIP3    H1  447   5.251   1.983   5.338
  161TIP3    H2  448   5.375   1.968   5.424
  162TIP3   OH2  449   1.426   6.140   1.932
  162TIP3    H1  450   1.497   6.202   1.919
  162TIP3    H2  451   1.365   6.185   1.991
  163TIP3   OH2  452   5.864   1.208   3.290
  163TIP3    H1  453   5.878   1.233   3.199
  163TIP3    H2  454   5.912   1.273   3.341
  164TIP3   OH2  455   1.117   6.272   2.112
  164TIP3    H1  456   1.109   6.186   2.072
  164TIP3    H2  457   1.208   6.277   2.142
  165TIP3   OH2  458   3.609   5.682   0.773
  165TIP3    H1  459   3.692   5.644   0.745
  165TIP3    H2  460   3.624   5.705   0.865
  166TIP3   OH2  461   5.785   3.231   4.907
  166TIP3    H1  462   5.880   3.220   4.897
  166TIP3    H2  463   5.772   3.326   4.914
  167TIP3   OH2  464   0.353   0.598   3.108
  167TIP3    H1  465   0.356   0.502   3.100
  167TIP3    H2  466   0.380   0.630   3.023
  168TIP3   OH2  467   5.830   4.701   0.597
  168TIP3    H1  468   5.925   4.695   0.603
  168TIP3    H2  469   5.800   4.611   0.594
  169TIP3   OH2  470   6.950   4.683   3.371
  169TIP3    H1  471   6.913   4.759   3.416
  169TIP3    H2  472   6.940   4.703   3.278
  170TIP3   OH2  473   2.774   5.823   4.315
  170TIP3    H1  474   2.797   5.767   4.389
  170TIP3    H2  475   2.818   5.782   4.240
  171TIP3   OH2  476   4.827   3.771   5.780
  171TIP3    H1  477   4.854   3.697   5.835
  171TIP3    H2  478   4.731   3.765   5.779
  172TIP3   OH2  479   4.264   6.722   1.561
  172TIP3    H1  480   4.338   6.662   1.546
  172TIP3    H2  481   4.196   6.666   1.597
  173TIP3   OH2  482   4.241   1.646   5.558
  173TIP3    H1  483   4.234   1.605   5.472
  173TIP3    H2  484   4.319   1.701   5.552
  174TIP3   OH2  485   5.021   4.838   1.103
  174TIP3    H1  486   5.032   4.764   1.043
  174TIP3    H2  487   5.104   4.841   1.152
  175TIP3   OH2  488   5.287   3.196   4.890
  175TIP3    H1  489   5.367   3.198   4.837
  175TIP3    H2  490   5.216   3.192   4.827
  176TIP3   OH2  491   5.930   6.620   0.954
  176TIP3    H1  492   5.904   6.712   0.951
  176TIP3    H2  493   5.847   6.572   0.943
  177TIP3   OH2  494   5.965   1.529   2.221
  177TIP3    H1  495   5.928   1.595   2.162
  177TIP3    H2  496   5.986   1.578   2.301
  178TIP3   OH2  497   5.621   3.883   5.555
  178TIP3    H1  498   5.600   3.849   5.468
  178TIP3    H2  499   5.715   3.898   5.553
  179TIP3   OH2  500   6.866   1.610   1.408
  179TIP3    H1  501   6.818   1.569   1.480
  179TIP3    H2  502   6.928   1.669   1.451
  180TIP3   OH2  503   4.237   4.706   4.805
  180TIP3    H1  504   4.252   4.770   4.736
  180TIP3    H2  505   4.270   4.624   4.769
  181TIP3   OH2  506   3.210   4.191   5.769
  181TIP3    H1  507   3.143   4.252   5.801
  181TIP3    H2  508   3.265   4.245   5.711
  182TIP3   OH2  509   6.060   6.460   1.522
  182TIP3    H1  510   6.085   6.542   1.478
  182TIP3    H2  511   6.116   6.458   1.600
  183TIP3   OH2  512   4.532   1.644   2.052
  183TIP3    H1  513   4.544   1.600   2.136
  183TIP3    H2  514   4.485   1.725   2.073
  184TIP3   OH2  515   3.598   6.323   0.336
  184TIP3    H1  516   3.551   6.242   0.354
  184TIP3    H2  517   3.549   6.364   0.264
  185TIP3   OH2  518   0.320   2.445   3.928
  185TIP3    H1  519   0.382   2.489   3.871
  185TIP3    H2  520   0.348   2.354   3.929
  186TIP3   OH2  521   2.527   1.991   1.185
  186TIP3    H1  522   2.612   2.029   1.208
  186TIP3    H2  523   2.544   1.898   1.176
  187TIP3   OH2  524   3.774   2.119   2.356
  187TIP3    H1  525   3.833   2.191   2.381
  187TIP3    H2  526   3.768   2.066   2.435
  188TIP3   OH2  527   4.710   0.008   5.062
  188TIP3    H1  528   4.709  -0.012   4.968
  188TIP3    H2  529   4.799  -0.012   5.089
  189TIP3   OH2  530   2.474   1.929   1.603
  189TIP3    H1  531   2.563   1.955   1.581
  189TIP3    H2  532   2.460   1.848   1.555
  190TIP3   OH2  533   0.880   0.114   3.939
  190TIP3    H1  534   0.825   0.178   3.983
  190TIP3    H2  535   0.951   0.166   3.900
  191TIP3   OH2  536   1.886   6.549   0.170
  191TIP3    H1  537   1.909   6.457   0.162
  191TIP3    H2  538   1.869   6.562   0.264
  192TIP3   OH2  539   3.458   1.319   0.177
  192TIP3    H1  540   3.379   1.266   0.181
  192TIP3    H2  541   3.509   1.281   0.106
  193TIP3   OH2  542   1.022   2.087   3.594
  193TIP3    H1  543   1.029   2.139   3.674
  193TIP3    H2  544   0.937   2.112   3.557
  194TIP3   OH2  545   3.811   4.853   3.706
  194TIP3    H1  546   3.829   4.940   3.741
  194TIP3    H2  547   3.883   4.836   3.645
  195TIP3   OH2  548   0.422   3.717   5.602
  195TIP3    H1  549   0.426   3.807   5.634
  195TIP3    H2  550   0.437   3.663   5.680
  196TIP3   OH2  551   5.639   5.591   0.136
  196TIP3    H1  552   5.720   5.619   0.094
  196TIP3    H2  553   5.664   5.574   0.227
  197TIP3   OH2  554   6.923   6.589   1.556
  197TIP3    H1  555   6.982   6.603   1.630
  197TIP3    H2  556   6.842   6.633   1.582
  198TIP3   OH2  557   6.001   2.697   5.461
  198TIP3    H1  558   6.005   2.608   5.495
  198TIP3    H2  559   5.957   2.747   5.530
  199TIP3   OH2  560   2.589   2.196   2.911
  199TIP3    H1  561   2.642   2.210   2.990
  199TIP3    H2  562   2.640   2.134   2.859
  200TIP3   OH2  563   6.174   5.849   3.166
  200TIP3    H1  564   6.096   5.900   3.143
  200TIP3    H2  565   6.219   5.836   3.083
  201TIP3   OH2  566   6.816   2.641   2.355
  201TIP3    H1  567   6.874   2.680   2.290
  201TIP3    H2  568   6.757   2.585   2.304
  202TIP3   OH2  569   2.848   6.568   3.540
  202TIP3    H1  570   2.776   6.627   3.564
  202TIP3    H2  571   2.823   6.532   3.455
  203TIP3   OH2  572   1.677   5.811   4.019
  203TIP3    H1  573   1.726   5.808   3.937
  203TIP3    H2  574   1.696   5.898   4.055
  204TIP3   OH2  575   1.467   3.016   3.203
  204TIP3    H1  576   1.449   2.981   3.291
  204TIP3    H2  577   1.436   2.948   3.143
  205TIP3   OH2  578   3.787   6.474   0.209
  205TIP3    H1  579   3.764   6.402   0.268
  205TIP3    H2  580   3.703   6.511   0.182
  206TIP3   OH2  581   0.855   3.033   4.992
  206TIP3    H1  582   0.768   3.001   4.970
  206TIP3    H2  583   0.889   2.970   5.055
  207TIP3   OH2  584   0.065   3.006   2.939
  207TIP3    H1  585   0.080   2.959   2.856
  207TIP3    H2  586  -0.021   3.046   2.929
  208TIP3   OH2  587   1.722   1.950   2.830
  208TIP3    H1  588   1.737   1.961   2.924
  208TIP3    H2  589   1.632   1.919   2.824
  209TIP3   OH2  590   3.593   3.090   1.112
  209TIP3    H1  591   3.646   3.016   1.142
  209TIP3    H2  592   3.583   3.076   1.018
  210TIP3   OH2  593   5.196   0.757   5.202
  210TIP3    H1  594   5.266   0.763   5.267
  210TIP3    H2  595   5.120   0.729   5.252
  211TIP3   OH2  596   6.378   3.956   0.983
  211TIP3    H1  597   6.430   3.876   0.989
  211TIP3    H2  598   6.371   3.974   0.890
  212TIP3   OH2  599   4.338   3.881   4.024
  212TIP3    H1  600   4.314   3.921   4.107
  212TIP3    H2  601   4.433   3.890   4.019
  213TIP3   OH2  602   3.325   6.114   2.381
  213TIP3    H1  603   3.259   6.081   2.320
  213TIP3    H2  604   3.398   6.141   2.326
  214TIP3   OH2  605   4.223   0.769   1.761
  214TIP3    H1  606   4.188   0.682   1.743
  214TIP3    H2  607   4.186   0.793   1.846
  215TIP3   OH2  608   6.262   3.057   1.487
  215TIP3    H1  609   6.221   2.996   1.548
  215TIP3    H2  610   6.325   3.105   1.540
  216TIP3   OH2  611   5.828   0.717   5.592
  216TIP3    H1  612   5.910   0.673   5.570
  216TIP3    H2  613   5.856   0.802   5.628
  217TIP3   OH2  614   0.287   6.462   0.389
  217TIP3    H1  615   0.245   6.529   0.443
  217TIP3    H2  616   0.215   6.415   0.348
  218TIP3   OH2  617   3.529   5.919   0.625
  218TIP3    H1  618   3.581   5.950   0.700
  218TIP3    H2  619   3.498   5.833   0.651
  219TIP3   OH2  620   7.055   3.339   4.632
  219TIP3    H1  621   7.083   3.350   4.541
  219TIP3    H2  622   7.129   3.370   4.684
  220TIP3   OH2  623   6.904   6.357   2.120
  220TIP3    H1  624   6.828   6.320   2.075
  220TIP3    H2  625   6.938   6.286   2.173
  221TIP3   OH2  626   3.273   0.644   0.686
  221TIP3    H1  627   3.320   0.590   0.749
  221TIP3    H2  628   3.187   0.602   0.677
  222TIP3   OH2  629   5.838   1.515   2.854
  222TIP3    H1  630   5.901   1.458   2.810
  222TIP3    H2  631   5.768   1.526   2.790
  223TIP3   OH2  632   1.045   1.642   0.495
  223TIP3    H1  633   1.025   1.731   0.524
  223TIP3    H2  634   0.960   1.599   0.488
  224TIP3   OH2  635   6.990   3.979   2.441
  224TIP3    H1  636   6.943   4.011   2.364
  224TIP3    H2  637   7.043   3.906   2.409
  225TIP3   OH2  638   1.048   0.456   1.800
  225TIP3    H1  639   1.097   0.502   1.731
  225TIP3    H2  640   1.115   0.425   1.861
  226TIP3   OH2  641   3.768   2.900   2.068
  226TIP3    H1  642   3.828   2.917   1.996
  226TIP3    H2  643   3.695   2.959   2.054
  227TIP3   OH2  644   6.428   6.780   5.264
  227TIP3    H1  645   6.504   6.746   5.312
  227TIP3    H2  646   6.401   6.708   5.208
  228TIP3   OH2  647   4.308   5.316   4.339
  228TIP3    H1  648   4.342   5.262   4.410
  228TIP3    H2  649   4.345   5.278   4.259
  229TIP3   OH2  650   2.912   4.464   0.837
  229TIP3    H1  651   2.911   4.549   0.883
  229TIP3    H2  652   2.824   4.456   0.801
  230TIP3   OH2  653   6.291   2.358   2.899
  230TIP3    H1  654   6.274   2.268   2.925
  230TIP3    H2  655   6.386   2.364   2.894
  231TIP3   OH2  656   4.318   2.213   2.921
  231TIP3    H1  657   4.265   2.235   2.844
  231TIP3    H2  658   4.379   2.286   2.930
  232TIP3   OH2  659   3.686   2.686   5.276
  232TIP3    H1  660   3.735   2.608   5.249
  232TIP3    H2  661   3.700   2.692   5.370
  233TIP3   OH2  662   0.691   6.510   4.925
  233TIP3    H1  663   0.657   6.428   4.890
  233TIP3    H2  664   0.660   6.512   5.016
  234TIP3   OH2  665   4.913   2.961   0.324
  234TIP3    H1  666   4.904   2.918   0.409
  234TIP3    H2  667   4.900   2.891   0.260
  235TIP3   OH2  668   3.669   4.156   0.446
  235TIP3    H1  669   3.642   4.230   0.391
  235TIP3    H2  670   3.697   4.089   0.384
  236TIP3   OH2  671   4.275   4.653   3.735
  236TIP3    H1  672   4.257   4.658   3.641
  236TIP3    H2  673   4.199   4.608   3.771
  237TIP3   OH2  674   7.185   3.423   2.308
  237TIP3    H1  675   7.145   3.458   2.387
  237TIP3    H2  676   7.163   3.329   2.309
  238TIP3   OH2  677   1.372   3.326   3.257
  238TIP3    H1  678   1.408   3.248   3.216
  238TIP3    H2  679   1.430   3.342   3.332
  239TIP3   OH2  680   6.168   5.680   5.810
  239TIP3    H1  681   6.208   5.617   5.751
  239TIP3    H2  682   6.241   5.734   5.841
  240TIP3   OH2  683   6.230   5.851   0.550
  240TIP3    H1  684   6.244   5.832   0.643
  240TIP3    H2  685   6.140   5.883   0.546
  241TIP3   OH2  686   4.694   1.592   2.770
  241TIP3    H1  687   4.625   1.555   2.826
  241TIP3    H2  688   4.702   1.683   2.799
  242TIP3   OH2  689   4.462   3.707   2.659
  242TIP3    H1  690   4.492   3.622   2.690
  242TIP3    H2  691   4.440   3.693   2.567
  243TIP3   OH2  692   2.699   6.718   0.915
  243TIP3    H1  693   2.678   6.806   0.887
  243TIP3    H2  694   2.795   6.713   0.910
  244TIP3   OH2  695   0.150   0.320   5.629
  244TIP3    H1  696   0.149   0.232   5.590
  244TIP3    H2  697   0.086   0.314   5.701
  245TIP3   OH2  698   5.066   5.911   3.625
  245TIP3    H1  699   5.150   5.886   3.663
  245TIP3    H2  700   5.017   5.947   3.699
  246TIP3   OH2  701   2.186   0.780   5.865
  246TIP3    H1  702   2.127   0.740   5.802
  246TIP3    H2  703   2.203   0.711   5.930
  247TIP3   OH2  704   1.121   5.176   4.411
  247TIP3    H1  705   1.208   5.143   4.432
  247TIP3    H2  706   1.093   5.122   4.337
  248TIP3   OH2  707   3.747   3.183   0.348
  248TIP3    H1  708   3.761   3.088   0.349
  248TIP3    H2  709   3.654   3.193   0.369
  249TIP3   OH2  710   1.204   4.188   4.974
  249TIP3    H1  711   1.284   4.156   5.016
  249TIP3    H2  712   1.151   4.110   4.959
  250TIP3   OH2  713   4.950   0.221   2.203
  250TIP3    H1  714   4.998   0.196   2.123
  250TIP3    H2  715   4.917   0.138   2.237
  251TIP3   OH2  716   6.143   2.569   4.011
  251TIP3    H1  717   6.077   2.502   3.995
  251TIP3    H2  718   6.223   2.521   4.034
  252TIP3   OH2  719   0.134   4.326   2.043
  252TIP3    H1  720   0.094   4.263   1.984
  252TIP3    H2  721   0.226   4.300   2.048
  253TIP3   OH2  722   6.616   1.542   0.715
  253TIP3    H1  723   6.554   1.613   0.697
  253TIP3    H2  724   6.584   1.501   0.795
  254TIP3   OH2  725   3.728   1.025   1.886
  254TIP3    H1  726   3.670   0.955   1.916
  254TIP3    H2  727   3.763   0.993   1.803
  255TIP3   OH2  728   6.866   1.476   0.829
  255TIP3    H1  729   6.795   1.532   0.798
  255TIP3    H2  730   6.877   1.410   0.761
  256TIP3   OH2  731   4.356   2.525   4.589
  256TIP3    H1  732   4.384   2.433   4.587
  256TIP3    H2  733   4.267   2.523   4.554
  257TIP3   OH2  734   2.610   4.138   5.647
  257TIP3    H1  735   2.515   4.140   5.657
  257TIP3    H2  736   2.624   4.151   5.553
  258TIP3   OH2  737   0.851   4.181   5.512
  258TIP3    H1  738   0.769   4.224   5.536
  258TIP3    H2  739   0.824   4.100   5.468
  259TIP3   OH2  740   3.875   2.391   3.294
  259TIP3    H1  741   3.883   2.472   3.242
  259TIP3    H2  742   3.789   2.397   3.334
  260TIP3   OH2  743   4.906  -0.003   0.354
  260TIP3    H1  744   4.840   0.013   0.421
  260TIP3    H2  745   4.861   0.015   0.271
  261TIP3   OH2  746   4.847   5.521   5.080
  261TIP3    H1  747   4.835   5.614   5.058
  261TIP3    H2  748   4.805   5.474   5.008
  262TIP3   OH2  749   0.273   3.517   1.440
  262TIP3    H1  750   0.236   3.583   1.381
  262TIP3    H2  751   0.359   3.552   1.463
  263TIP3   OH2  752   2.025   0.494   3.368
  263TIP3    H1  753   2.053   0.483   3.277
  263TIP3    H2  754   2.098   0.460   3.419
  264TIP3   OH2  755   3.158   4.040   0.085
  264TIP3    H1  756   3.107   4.066   0.009
  264TIP3    H2  757   3.122   4.091   0.157
  265TIP3   OH2  758   1.279   1.000   5.126
  265TIP3    H1  759   1.300   1.034   5.213
  265TIP3    H2  760   1.244   0.913   5.142
  266TIP3   OH2  761   4.789   2.830   4.483
  266TIP3    H1  762   4.737   2.749   4.484
  266TIP3    H2  763   4.815   2.840   4.391
  267TIP3   OH2  764   2.654   4.826   1.705
  267TIP3    H1  765   2.610   4.856   1.625
  267TIP3    H2  766   2.603   4.864   1.776
  268TIP3   OH2  767   7.162   0.365   3.764
  268TIP3    H1  768   7.078   0.380   3.808
  268TIP3    H2  769   7.227   0.404   3.822
  269TIP3   OH2  770   1.960   4.996   4.448
  269TIP3    H1  771   1.895   5.000   4.378
  269TIP3    H2  772   1.951   4.907   4.483
  270TIP3   OH2  773   4.083   3.477   2.127
  270TIP3    H1  774   3.990   3.461   2.108
  270TIP3    H2  775   4.095   3.570   2.110
  271TIP3   OH2  776   4.081   2.168   4.690
  271TIP3    H1  777   4.003   2.134   4.733
  271TIP3    H2  778   4.050   2.198   4.604
  272TIP3   OH2  779   1.568   1.846   0.717
  272TIP3    H1  780   1.525   1.872   0.799
  272TIP3    H2  781   1.603   1.927   0.682
  273TIP3   OH2  782   2.094   0.507   1.222
  273TIP3    H1  783   2.164   0.489   1.284
  273TIP3    H2  784   2.121   0.588   1.178
  274TIP3   OH2  785   3.383   5.068   2.891
  274TIP3    H1  786   3.421   5.028   2.813
  274TIP3    H2  787   3.360   5.157   2.864
  275TIP3   OH2  788   5.149   5.469   4.328
  275TIP3    H1  789   5.084   5.448   4.261
  275TIP3    H2  790   5.233   5.458   4.283
  276TIP3   OH2  791   2.319   0.902   0.645
  276TIP3    H1  792   2.224   0.907   0.659
  276TIP3    H2  793   2.345   0.820   0.687
  277TIP3   OH2  794   2.294   1.131   3.659
  277TIP3    H1  795   2.289   1.039   3.682
  277TIP3    H2  796   2.240   1.176   3.724
  278TIP3   OH2  797   4.014   5.183   5.426
  278TIP3    H1  798   4.047   5.269   5.399
  278TIP3    H2  799   4.075   5.154   5.494
  279TIP3   OH2  800   0.503   2.605   3.796
  279TIP3    H1  801   0.539   2.554   3.725
  279TIP3    H2  802   0.479   2.689   3.756
  280TIP3   OH2  803   1.649   1.963   1.392
  280TIP3    H1  804   1.595   1.969   1.470
  280TIP3    H2  805   1.696   2.046   1.388
  281TIP3   OH2  806   6.173   0.197   3.332
  281TIP3    H1  807   6.083   0.229   3.337
  281TIP3    H2  808   6.196   0.175   3.422
  282TIP3   OH2  809   6.277   4.035   4.494
  282TIP3    H1  810   6.183   4.017   4.490
  282TIP3    H2  811   6.318   3.950   4.478
  283TIP3   OH2  812   3.049   0.026   5.428
  283TIP3    H1  813   3.050   0.047   5.335
  283TIP3    H2  814   2.984  -0.044   5.436
  284TIP3   OH2  815   4.225   1.759   2.968
  284TIP3    H1  816   4.227   1.849   3.001
  284TIP3    H2  817   4.163   1.714   3.026
  285TIP3   OH2  818   0.483   0.838   4.902
  285TIP3    H1  819   0.514   0.896   4.833
  285TIP3    H2  820   0.538   0.859   4.977
  286TIP3   OH2  821   7.218   2.935   4.555
  286TIP3    H1  822   7.150   2.870   4.541
  286TIP3    H2  823   7.211   2.993   4.479
  287TIP3   OH2  824   2.298   4.294   1.705
  287TIP3    H1  825   2.329   4.250   1.626
  287TIP3    H2  826   2.285   4.385   1.679
  288TIP3   OH2  827   0.283   4.251   5.480
  288TIP3    H1  828   0.333   4.330   5.504
  288TIP3    H2  829   0.305   4.188   5.548
  289TIP3   OH2  830   0.848   6.135   2.978
  289TIP3    H1  831   0.883   6.153   3.065
  289TIP3    H2  832   0.775   6.196   2.968
  290TIP3   OH2  833   6.311   5.737   5.307
  290TIP3    H1  834   6.397   5.724   5.346
  290TIP3    H2  835   6.257   5.769   5.379
  291TIP3   OH2  836   6.301   3.368   3.492
  291TIP3    H1  837   6.292   3.455   3.530
  291TIP3    H2  838   6.378   3.330   3.534
  292TIP3   OH2  839   5.279   5.931   3.440
  292TIP3    H1  840   5.292   5.940   3.345
  292TIP3    H2  841   5.193   5.892   3.448
  293TIP3   OH2  842   0.683   3.049   3.357
  293TIP3    H1  843   0.758   3.023   3.411
  293TIP3    H2  844   0.692   2.996   3.277
  294TIP3   OH2  845   4.372   1.443   4.676
  294TIP3    H1  846   4.440   1.475   4.617
  294TIP3    H2  847   4.413   1.370   4.722
  295TIP3   OH2  848   4.050   5.358   2.845
  295TIP3    H1  849   3.994   5.371   2.922
  295TIP3    H2  850   4.037   5.436   2.792
  296TIP3   OH2  851   3.142   2.889   4.621
  296TIP3    H1  852   3.120   2.798   4.640
  296TIP3    H2  853   3.099   2.939   4.691
  297TIP3   OH2  854   4.287   4.993   0.711
  297TIP3    H1  855   4.327   5.080   0.717
  297TIP3    H2  856   4.205   5.007   0.664
  298TIP3   OH2  857   1.849   2.903   2.000
  298TIP3    H1  858   1.934   2.870   2.031
  298TIP3    H2  859   1.813   2.950   2.076
  299TIP3   OH2  860   5.162   0.404   5.174
  299TIP3    H1  861   5.222   0.467   5.134
  299TIP3    H2  862   5.076   0.444   5.167
  300TIP3   OH2  863   2.416   6.444   4.690
  300TIP3    H1  864   2.408   6.351   4.711
  300TIP3    H2  865   2.465   6.446   4.607
  301TIP3   OH2  866   3.530   1.420   3.254
  301TIP3    H1  867   3.548   1.351   3.189
  301TIP3    H2  868   3.585   1.398   3.329
  302TIP3   OH2  869   3.118   3.946   4.903
  302TIP3    H1  870   3.076   3.889   4.840
  302TIP3    H2  871   3.188   3.892   4.942
  303TIP3   OH2  872   4.595   2.532   2.696
  303TIP3    H1  873   4.543   2.606   2.665
  303TIP3    H2  874   4.536   2.484   2.754
  304TIP3   OH2  875   2.091   3.329   3.618
  304TIP3    H1  876   2.084   3.243   3.576
  304TIP3    H2  877   2.010   3.374   3.593
  305TIP3   OH2  878   4.063   2.677   4.674
  305TIP3    H1  879   4.109   2.720   4.601
  305TIP3    H2  880   4.120   2.604   4.699
  306TIP3   OH2  881   0.843   6.213   1.892
  306TIP3    H1  882   0.801   6.182   1.811
  306TIP3    H2  883   0.778   6.199   1.960
  307TIP3   OH2  884   0.779   0.366   0.482
  307TIP3    H1  885   0.790   0.377   0.577
  307TIP3    H2  886   0.832   0.289   0.461
  308TIP3   OH2  887   5.374   0.814   1.436
  308TIP3    H1  888   5.336   0.878   1.376
  308TIP3    H2  889   5.410   0.866   1.507
  309TIP3   OH2  890   6.194   2.681   4.464
  309TIP3    H1  891   6.121   2.729   4.425
  309TIP3    H2  892   6.152   2.620   4.525
  310TIP3   OH2  893   0.477   3.679   1.559
  310TIP3    H1  894   0.474   3.772   1.539
  310TIP3    H2  895   0.569   3.662   1.580
  311TIP3   OH2  896   0.169   6.643   5.787
  311TIP3    H1  897   0.120   6.722   5.764
  311TIP3    H2  898   0.120   6.571   5.748
  312TIP3   OH2  899   6.943   1.980   0.897
  312TIP3    H1  900   6.936   1.922   0.821
  312TIP3    H2  901   6.917   2.066   0.864
  313TIP3   OH2  902   1.170   1.322   4.180
  313TIP3    H1  903   1.081   1.344   4.206
  313TIP3    H2  904   1.182   1.232   4.208
  314TIP3   OH2  905   2.601   1.410   1.673
  314TIP3    H1  906   2.678   1.464   1.654
  314TIP3    H2  907   2.625   1.361   1.751
  315TIP3   OH2  908   5.776   1.722   3.214
  315TIP3    H1  909   5.786   1.799   3.157
  315TIP3    H2  910   5.723   1.661   3.163
  316TIP3   OH2  911   5.623   2.668   2.378
  316TIP3    H1  912   5.562   2.715   2.434
  316TIP3    H2  913   5.634   2.583   2.421
  317TIP3   OH2  914   1.958   1.468   3.367
  317TIP3    H1  915   1.866   1.457   3.343
  317TIP3    H2  916   1.977   1.393   3.423
  318TIP3   OH2  917   3.883   4.973   0.927
  318TIP3    H1  918   3.870   5.066   0.950
  318TIP3    H2  919   3.975   4.956   0.945
  319TIP3   OH2  920   2.497   4.005   1.956
  319TIP3    H1  921   2.584   4.042   1.964
  319TIP3    H2  922   2.503   3.920   1.998
  320TIP3   OH2  923   1.355   6.032   3.987
  320TIP3    H1  924   1.376   5.959   3.929
  320TIP3    H2  925   1.324   5.990   4.068
  321TIP3   OH2  926   2.828   2.155   2.724
  321TIP3    H1  927   2.793   2.100   2.654
  321TIP3    H2  928   2.832   2.242   2.686
  322TIP3   OH2  929   3.887   2.919   4.852
  322TIP3    H1  930   3.913   2.939   4.942
  322TIP3    H2  931   3.941   2.976   4.798
  323TIP3   OH2  932   2.857   4.711   4.450
  323TIP3    H1  933   2.951   4.728   4.455
  323TIP3    H2  934   2.827   4.760   4.374
  324TIP3   OH2  935   4.352   1.145   3.790
  324TIP3    H1  936   4.286   1.082   3.760
  324TIP3    H2  937   4.376   1.194   3.712
  325TIP3   OH2  938   1.293   1.155   1.040
  325TIP3    H1  939   1.280   1.243   1.005
  325TIP3    H2  940   1.311   1.101   0.963
  326TIP3   OH2  941   2.908   0.092   4.595
  326TIP3    H1  942   2.930  -0.002   4.594
  326TIP3    H2  943   2.993   0.136   4.600
  327TIP3   OH2  944   4.671   6.739   2.684
  327TIP3    H1  945   4.631   6.655   2.659
  327TIP3    H2  946   4.722   6.765   2.608
  328TIP3   OH2  947   2.851   5.705   5.191
  328TIP3    H1  948   2.934   5.723   5.147
  328TIP3    H2  949   2.795   5.779   5.169
  329TIP3   OH2  950   5.897   2.793   4.550
  329TIP3    H1  951   5.928   2.841   4.627
  329TIP3    H2  952   5.854   2.716   4.585
  330TIP3   OH2  953   4.863   6.129   0.964
  330TIP3    H1  954   4.855   6.183   1.043
  330TIP3    H2  955   4.915   6.183   0.904
  331TIP3   OH2  956   1.272   4.265   0.479
  331TIP3    H1  957   1.296   4.326   0.409
  331TIP3    H2  958   1.191   4.224   0.449
  332TIP3   OH2  959   2.462   1.860   3.853
  332TIP3    H1  960   2.417   1.785   3.813
  332TIP3    H2  961   2.538   1.874   3.796
  333TIP3   OH2  962   5.028   5.323   5.552
  333TIP3    H1  963   4.947   5.279   5.580
  333TIP3    H2  964   5.077   5.337   5.633
  334TIP3   OH2  965   6.404   3.355   2.150
  334TIP3    H1  966   6.473   3.321   2.207
  334TIP3    H2  967   6.416   3.449   2.150
  335TIP3   OH2  968   1.563   5.368   3.433
  335TIP3    H1  969   1.524   5.434   3.375
  335TIP3    H2  970   1.548   5.402   3.522
  336TIP3   OH2  971   0.078   2.496   3.398
  336TIP3    H1  972   0.144   2.434   3.429
  336TIP3    H2  973  -0.002   2.470   3.444
  337TIP3   OH2  974   2.852   0.687   3.985
  337TIP3    H1  975   2.835   0.781   3.979
  337TIP3    H2  976   2.892   0.665   3.901
  338TIP3   OH2  977   6.601   4.933   5.097
  338TIP3    H1  978   6.514   4.966   5.077
  338TIP3    H2  979   6.660   5.001   5.065
  339TIP3   OH2  980   0.763   0.860   4.543
  339TIP3    H1  981   0.723   0.811   4.470
  339TIP3    H2  982   0.831   0.912   4.501
  340TIP3   OH2  983   2.543   4.173   4.609
  340TIP3    H1  984   2.453   4.140   4.613
  340TIP3    H2  985   2.590   4.107   4.558
  341TIP3   OH2  986   3.449   4.617   2.698
  341TIP3    H1  987   3.521   4.578   2.649
  341TIP3    H2  988   3.408   4.543   2.743
  342TIP3   OH2  989   5.514   1.496   5.749
  342TIP3    H1  990   5.554   1.578   5.780
  342TIP3    H2  991   5.420   1.510   5.759
  343TIP3   OH2  992   5.054   1.376   0.157
  343TIP3    H1  993   4.985   1.311   0.145
  343TIP3    H2  994   5.068   1.414   0.070
  344TIP3   OH2  995   6.578   4.351   3.524
  344TIP3    H1  996   6.541   4.293   3.457
  344TIP3    H2  997   6.613   4.425   3.474
  345TIP3   OH2  998   5.884   3.455   3.509
  345TIP3    H1  999   5.804   3.428   3.463
  345TIP3    H2 1000   5.954   3.438   3.445
  346TIP3   OH2 1001   2.887   3.864   2.913
  346TIP3    H1 1002   2.849   3.949   2.891
  346TIP3    H2 1003   2.814   3.814   2.949
  347TIP3   OH2 1004   5.550   5.203   2.712
  347TIP3    H1 1005   5.590   5.144   2.776
  347TIP3    H2 1006   5.478   5.152   2.674
  348TIP3   OH2 1007   2.891   5.850   5.539
  348TIP3    H1 1008   2.922   5.868   5.451
  348TIP3    H2 1009   2.817   5.910   5.551
  349TIP3   OH2 1010   4.994   2.127   3.850
  349TIP3    H1 1011   5.038   2.104   3.932
  349TIP3    H2 1012   4.901   2.111   3.868
  350TIP3   OH2 1013   5.833   2.455   2.399
  350TIP3    H1 1014   5.897   2.483   2.334
  350TIP3    H2 1015   5.870   2.374   2.435
  351TIP3   OH2 1016   5.198   5.323   2.628
  351TIP3    H1 1017   5.224   5.372   2.550
  351TIP3    H2 1018   5.239   5.237   2.616
  352TIP3   OH2 1019   3.861   0.697   2.116
  352TIP3    H1 1020   3.809   0.669   2.041
  352TIP3    H2 1021   3.952   0.680   2.091
  353TIP3   OH2 1022   5.017   5.252   5.112
  353TIP3    H1 1023   4.944   5.312   5.099
  353TIP3    H2 1024   5.048   5.232   5.024
  354TIP3   OH2 1025   6.881   3.358   0.123
  354TIP3    H1 1026   6.794   3.358   0.163
  354TIP3    H2 1027   6.931   3.421   0.174
  355TIP3   OH2 1028   4.144   2.005   3.070
  355TIP3    H1 1029   4.052   2.028   3.063
  355TIP3    H2 1030   4.190   2.076   3.025
  356TIP3   OH2 1031   4.464   1.158   2.816
  356TIP3    H1 1032   4.375   1.125   2.827
  356TIP3    H2 1033   4.506   1.093   2.759
  357TIP3   OH2 1034   3.916   0.400   5.210
  357TIP3    H1 1035   3.913   0.431   5.119
  357TIP3    H2 1036   3.831   0.359   5.224
  358TIP3   OH2 1037   2.671   1.820   3.110
  358TIP3    H1 1038   2.730   1.875   3.058
  358TIP3    H2 1039   2.586   1.863   3.103
  359TIP3   OH2 1040   3.150   5.334   2.960
  359TIP3    H1 1041   3.188   5.354   2.874
  359TIP3    H2 1042   3.100   5.253   2.946
  360TIP3   OH2 1043   1.486   4.879   3.122
  360TIP3    H1 1044   1.394   4.873   3.148
  360TIP3    H2 1045   1.512   4.968   3.146
  361TIP3   OH2 1046   0.407   4.866   2.133
  361TIP3    H1 1047   0.463   4.799   2.172
  361TIP3    H2 1048   0.356   4.819   2.067
  362TIP3   OH2 1049   0.246   3.416   2.305
  362TIP3    H1 1050   0.289   3.499   2.285
  362TIP3    H2 1051   0.154   3.432   2.287
  363TIP3   OH2 1052   6.733   2.769   3.139
  363TIP3    H1 1053   6.750   2.751   3.046
  363TIP3    H2 1054   6.641   2.747   3.151
  364TIP3   OH2 1055   5.936   5.080   0.564
  364TIP3    H1 1056   5.907   5.172   0.560
  364TIP3    H2 1057   5.957   5.066   0.656
  365TIP3   OH2 1058   5.733   1.329   4.185
  365TIP3    H1 1059   5.737   1.421   4.159
  365TIP3    H2 1060   5.641   1.315   4.206
  366TIP3   OH2 1061   4.745   3.196   2.912
  366TIP3    H1 1062   4.656   3.208   2.946
  366TIP3    H2 1063   4.735   3.133   2.840
  367TIP3   OH2 1064   6.536   4.728   1.359
  367TIP3    H1 1065   6.477   4.773   1.419
  367TIP3    H2 1066   6.617   4.718   1.409
  368TIP3   OH2 1067   1.558   1.773   1.988
  368TIP3    H1 1068   1.606   1.695   2.017
  368TIP3    H2 1069   1.542   1.757   1.895
  369TIP3   OH2 1070   5.300   3.389   0.035
  369TIP3    H1 1071   5.388   3.428   0.037
  369TIP3    H2 1072   5.246   3.450   0.084
  370TIP3   OH2 1073   0.404   6.114   1.820
  370TIP3    H1 1074   0.438   6.149   1.738
  370TIP3    H2 1075   0.342   6.180   1.850
  371TIP3   OH2 1076   1.416   5.509   1.702
  371TIP3    H1 1077   1.469   5.559   1.764
  371TIP3    H2 1078   1.480   5.463   1.647
  372TIP3   OH2 1079   5.703   6.472   0.868
  372TIP3    H1 1080   5.769   6.403   0.864
  372TIP3    H2 1081   5.663   6.463   0.954
  373TIP3   OH2 1082   5.704   1.655   4.046
  373TIP3    H1 1083   5.763   1.628   3.976
  373TIP3    H2 1084   5.616   1.631   4.015
  374TIP3   OH2 1085   2.319   0.568   1.375
  374TIP3    H1 1086   2.254   0.547   1.442
  374TIP3    H2 1087   2.362   0.485   1.356
  375TIP3   OH2 1088   2.262   5.121   4.717
  375TIP3    H1 1089   2.325   5.057   4.751
  375TIP3    H2 1090   2.298   5.148   4.633
  376TIP3   OH2 1091   3.785   5.494   4.146
  376TIP3    H1 1092   3.802   5.569   4.203
  376TIP3    H2 1093   3.847   5.427   4.175
  377TIP3   OH2 1094   3.053   0.078   4.324
  377TIP3    H1 1095   3.018  -0.010   4.306
  377TIP3    H2 1096   2.977   0.136   4.316
  378TIP3   OH2 1097   5.741   6.219   3.677
  378TIP3    H1 1098   5.690   6.151   3.721
  378TIP3    H2 1099   5.783   6.268   3.748
  379TIP3   OH2 1100   5.255   4.016   0.513
  379TIP3    H1 1101   5.308   3.967   0.576
  379TIP3    H2 1102   5.308   4.018   0.433
  380TIP3   OH2 1103   4.764   4.504   5.128
  380TIP3    H1 1104   4.789   4.519   5.219
  380TIP3    H2 1105   4.682   4.456   5.133
  381TIP3   OH2 1106   6.975   3.534   0.488
  381TIP3    H1 1107   7.036   3.484   0.434
  381TIP3    H2 1108   7.031   3.589   0.543
  382TIP3   OH2 1109   0.979   0.182   4.310
  382TIP3    H1 1110   1.067   0.145   4.316
  382TIP3    H2 1111   0.932   0.144   4.385
  383TIP3   OH2 1112   0.153   3.103   5.488
  383TIP3    H1 1113   0.214   3.176   5.494
  383TIP3    H2 1114   0.205   3.026   5.512
  384TIP3   OH2 1115   2.117   4.553   4.812
  384TIP3    H1 1116   2.147   4.640   4.839
  384TIP3    H2 1117   2.196   4.499   4.813
  385TIP3   OH2 1118   5.721   3.705   0.890
  385TIP3    H1 1119   5.752   3.615   0.898
  385TIP3    H2 1120   5.746   3.746   0.973
  386TIP3   OH2 1121   1.742   4.732   3.874
  386TIP3    H1 1122   1.692   4.728   3.792
  386TIP3    H2 1123   1.833   4.717   3.846
  387TIP3   OH2 1124   3.211   0.898   3.056
  387TIP3    H1 1125   3.133   0.845   3.038
  387TIP3    H2 1126   3.265   0.842   3.112
  388TIP3   OH2 1127   2.859   1.187   1.535
  388TIP3    H1 1128   2.824   1.237   1.461
  388TIP3    H2 1129   2.797   1.115   1.548
  389TIP3   OH2 1130   6.929   2.505   4.426
  389TIP3    H1 1131   6.936   2.539   4.337
  389TIP3    H2 1132   6.952   2.413   4.418
  390TIP3   OH2 1133   0.749   5.376   4.833
  390TIP3    H1 1134   0.817   5.420   4.781
  390TIP3    H2 1135   0.667   5.409   4.797
  391TIP3   OH2 1136   0.233   2.856   2.110
  391TIP3    H1 1137   0.262   2.913   2.039
  391TIP3    H2 1138   0.148   2.823   2.081
  392TIP3   OH2 1139   5.814   6.104   5.626
  392TIP3    H1 1140   5.811   6.096   5.721
  392TIP3    H2 1141   5.749   6.041   5.595
  393TIP3   OH2 1142   6.886   4.487   2.836
  393TIP3    H1 1143   6.828   4.467   2.909
  393TIP3    H2 1144   6.868   4.579   2.815
  394TIP3   OH2 1145   0.769   3.512   4.324
  394TIP3    H1 1146   0.828   3.441   4.349
  394TIP3    H2 1147   0.787   3.527   4.231
  395TIP3   OH2 1148   1.865   6.253   0.061
  395TIP3    H1 1149   1.944   6.201   0.045
  395TIP3    H2 1150   1.809   6.196   0.114
  396TIP3   OH2 1151   0.341   6.813   4.053
  396TIP3    H1 1152   0.253   6.847   4.074
  396TIP3    H2 1153   0.327   6.759   3.975
  397TIP3   OH2 1154   5.715   1.592   1.521
  397TIP3    H1 1155   5.624   1.590   1.551
  397TIP3    H2 1156   5.741   1.683   1.531
  398TIP3   OH2 1157   5.325   3.258   4.405
  398TIP3    H1 1158   5.415   3.223   4.403
  398TIP3    H2 1159   5.271   3.182   4.428
  399TIP3   OH2 1160   3.172   5.711   4.202
  399TIP3    H1 1161   3.263   5.698   4.176
  399TIP3    H2 1162   3.174   5.786   4.261
  400TIP3   OH2 1163   2.232   2.670   5.853
  400TIP3    H1 1164   2.263   2.761   5.853
  400TIP3    H2 1165   2.137   2.678   5.866
  401TIP3   OH2 1166   6.471   3.487   4.410
  401TIP3    H1 1167   6.506   3.470   4.323
  401TIP3    H2 1168   6.382   3.451   4.408
  402TIP3   OH2 1169   2.050   6.405   4.413
  402TIP3    H1 1170   2.023   6.315   4.430
  402TIP3    H2 1171   2.073   6.407   4.321
  403TIP3   OH2 1172   6.410   4.460   5.111
  403TIP3    H1 1173   6.470   4.387   5.098
  403TIP3    H2 1174   6.372   4.476   5.024
  404TIP3   OH2 1175   6.744   4.461   3.065
  404TIP3    H1 1176   6.683   4.530   3.093
  404TIP3    H2 1177   6.763   4.412   3.146
  405TIP3   OH2 1178   1.944   1.118   0.573
  405TIP3    H1 1179   1.965   1.133   0.480
  405TIP3    H2 1180   1.969   1.199   0.616
  406TIP3   OH2 1181   0.813   2.199   3.455
  406TIP3    H1 1182   0.720   2.178   3.441
  406TIP3    H2 1183   0.824   2.286   3.419
  407TIP3   OH2 1184   5.851   3.552   2.370
  407TIP3    H1 1185   5.825   3.484   2.431
  407TIP3    H2 1186   5.857   3.631   2.424
  408TIP3   OH2 1187   3.348   4.951   1.277
  408TIP3    H1 1188   3.403   4.917   1.347
  408TIP3    H2 1189   3.403   5.015   1.232
  409TIP3   OH2 1190   1.337   1.330   0.251
  409TIP3    H1 1191   1.284   1.318   0.172
  409TIP3    H2 1192   1.422   1.358   0.219
  410TIP3   OH2 1193   2.690   4.338   1.736
  410TIP3    H1 1194   2.627   4.404   1.765
  410TIP3    H2 1195   2.758   4.388   1.691
  411TIP3   OH2 1196   6.866   1.933   5.815
  411TIP3    H1 1197   6.852   1.845   5.779
  411TIP3    H2 1198   6.959   1.934   5.839
  412TIP3   OH2 1199   4.537  -0.018   4.230
  412TIP3    H1 1200   4.480   0.051   4.262
  412TIP3    H2 1201   4.553   0.003   4.138
  413TIP3   OH2 1202   2.692   5.834   0.366
  413TIP3    H1 1203   2.774   5.843   0.318
  413TIP3    H2 1204   2.716   5.789   0.447
  414TIP3   OH2 1205   5.261   5.018   1.124
  414TIP3    H1 1206   5.267   4.938   1.176
  414TIP3    H2 1207   5.286   5.088   1.184
  415TIP3   OH2 1208   1.260   3.573   3.317
  415TIP3    H1 1209   1.296   3.490   3.284
  415TIP3    H2 1210   1.268   3.633   3.243
  416TIP3   OH2 1211   2.676   3.458   1.150
  416TIP3    H1 1212   2.611   3.438   1.083
  416TIP3    H2 1213   2.638   3.530   1.200
  417TIP3   OH2 1214   6.988   2.614   4.188
  417TIP3    H1 1215   6.941   2.656   4.116
  417TIP3    H2 1216   7.060   2.674   4.209
  418TIP3   OH2 1217   0.694   4.614   1.261
  418TIP3    H1 1218   0.694   4.704   1.291
  418TIP3    H2 1219   0.696   4.620   1.165
  419TIP3   OH2 1220   6.132   5.099   3.230
  419TIP3    H1 1221   6.072   5.162   3.192
  419TIP3    H2 1222   6.196   5.152   3.277
  420TIP3   OH2 1223   4.341   2.852   3.481
  420TIP3    H1 1224   4.305   2.769   3.450
  420TIP3    H2 1225   4.272   2.916   3.466
  421TIP3   OH2 1226   3.526   0.527   0.237
  421TIP3    H1 1227   3.586   0.589   0.279
  421TIP3    H2 1228   3.463   0.582   0.191
  422TIP3   OH2 1229   0.397   0.712   2.502
  422TIP3    H1 1230   0.458   0.732   2.573
  422TIP3    H2 1231   0.371   0.798   2.467
  423TIP3   OH2 1232   4.766   2.656   0.452
  423TIP3    H1 1233   4.709   2.579   0.447
  423TIP3    H2 1234   4.802   2.665   0.364
  424TIP3   OH2 1235   2.078   4.199   3.980
  424TIP3    H1 1236   2.081   4.105   4.000
  424TIP3    H2 1237   2.017   4.236   4.043
  425TIP3   OH2 1238   0.144   4.750   4.173
  425TIP3    H1 1239   0.235   4.721   4.159
  425TIP3    H2 1240   0.091   4.673   4.150
  426TIP3   OH2 1241   6.124   6.607   0.732
  426TIP3    H1 1242   6.066   6.592   0.807
  426TIP3    H2 1243   6.129   6.703   0.725
  427TIP3   OH2 1244   3.798   0.216   1.809
  427TIP3    H1 1245   3.802   0.129   1.851
  427TIP3    H2 1246   3.781   0.276   1.882
  428TIP3   OH2 1247   5.373  -0.013   5.134
  428TIP3    H1 1248   5.450   0.003   5.188
  428TIP3    H2 1249   5.311   0.056   5.157
  429TIP3   OH2 1250   1.830   2.373   5.043
  429TIP3    H1 1251   1.775   2.387   5.119
  429TIP3    H2 1252   1.881   2.294   5.064
  430TIP3   OH2 1253   0.876   4.973   4.705
  430TIP3    H1 1254   0.836   5.052   4.668
  430TIP3    H2 1255   0.900   4.997   4.794
  431TIP3   OH2 1256   6.693   5.577   3.357
  431TIP3    H1 1257   6.695   5.511   3.288
  431TIP3    H2 1258   6.613   5.627   3.340
  432TIP3   OH2 1259   4.808   6.595   5.100
  432TIP3    H1 1260   4.765   6.540   5.165
  432TIP3    H2 1261   4.850   6.533   5.040
  433TIP3   OH2 1262   6.244   3.119   4.119
  433TIP3    H1 1263   6.218   3.200   4.162
  433TIP3    H2 1264   6.340   3.124   4.115
  434TIP3   OH2 1265   1.614   0.353   3.158
  434TIP3    H1 1266   1.668   0.346   3.237
  434TIP3    H2 1267   1.525   0.367   3.190
  435TIP3   OH2 1268   0.938   4.167   4.660
  435TIP3    H1 1269   0.875   4.096   4.671
  435TIP3    H2 1270   0.894   4.244   4.693
  436TIP3   OH2 1271   3.017   0.085   4.004
  436TIP3    H1 1272   3.052   0.018   3.945
  436TIP3    H2 1273   2.926   0.060   4.017
  437TIP3   OH2 1274   6.147   3.449   0.124
  437TIP3    H1 1275   6.238   3.443   0.096
  437TIP3    H2 1276   6.114   3.359   0.118
  438TIP3   OH2 1277   3.108   1.340   1.598
  438TIP3    H1 1278   3.063   1.260   1.570
  438TIP3    H2 1279   3.181   1.349   1.537
  439TIP3   OH2 1280   3.739   6.691   1.204
  439TIP3    H1 1281   3.729   6.781   1.173
  439TIP3    H2 1282   3.823   6.663   1.169
  440TIP3   OH2 1283   2.073   0.745   0.425
  440TIP3    H1 1284   1.992   0.745   0.374
  440TIP3    H2 1285   2.048   0.779   0.510
  441TIP3   OH2 1286   1.177   6.374   4.261
  441TIP3    H1 1287   1.086   6.347   4.249
  441TIP3    H2 1288   1.189   6.446   4.200
  442TIP3   OH2 1289   5.822   1.679   3.710
  442TIP3    H1 1290   5.728   1.692   3.715
  442TIP3    H2 1291   5.837   1.640   3.624
  443TIP3   OH2 1292   4.483   1.390   4.290
  443TIP3    H1 1293   4.501   1.458   4.356
  443TIP3    H2 1294   4.563   1.385   4.239
  444TIP3   OH2 1295   1.973   2.111   3.220
  444TIP3    H1 1296   2.033   2.074   3.285
  444TIP3    H2 1297   2.020   2.100   3.136
  445TIP3   OH2 1298   1.893   1.067   2.609
  445TIP3    H1 1299   1.802   1.094   2.594
  445TIP3    H2 1300   1.901   1.064   2.705
  446TIP3   OH2 1301   6.062   2.449   3.755
  446TIP3    H1 1302   6.087   2.408   3.672
  446TIP3    H2 1303   6.146   2.465   3.799
  447TIP3   OH2 1304   6.537   5.855   3.458
  447TIP3    H1 1305   6.455   5.820   3.423
  447TIP3    H2 1306   6.518   5.947   3.476
  448TIP3   OH2 1307   0.725   4.694   3.742
  448TIP3    H1 1308   0.806   4.686   3.691
  448TIP3    H2 1309   0.658   4.715   3.677
  449TIP3   OH2 1310   3.166   6.292   3.167
  449TIP3    H1 1311   3.217   6.336   3.099
  449TIP3    H2 1312   3.134   6.363   3.222
  450TIP3   OH2 1313   4.772   5.070   4.046
  450TIP3    H1 1314   4.751   5.107   4.132
  450TIP3    H2 1315   4.688   5.038   4.013
  451TIP3   OH2 1316   7.130   5.501   0.144
  451TIP3    H1 1317   7.094   5.472   0.228
  451TIP3    H2 1318   7.187   5.575   0.167
  452TIP3   OH2 1319   3.230   6.130   3.854
  452TIP3    H1 1320   3.225   6.198   3.787
  452TIP3    H2 1321   3.147   6.136   3.901
  453TIP3   OH2 1322   3.003   1.426   2.322
  453TIP3    H1 1323   3.057   1.432   2.243
  453TIP3    H2 1324   3.049   1.480   2.386
  454TIP3   OH2 1325   7.073   0.570   5.633
  454TIP3    H1 1326   7.099   0.519   5.710
  454TIP3    H2 1327   6.994   0.526   5.601
  455TIP3   OH2 1328   6.321   5.114   3.000
  455TIP3    H1 1329   6.391   5.158   3.049
  455TIP3    H2 1330   6.283   5.053   3.062
  456TIP3   OH2 1331   4.123   3.245   3.901
  456TIP3    H1 1332   4.036   3.209   3.918
  456TIP3    H2 1333   4.109   3.315   3.837
  457TIP3   OH2 1334   4.856   3.444   2.848
  457TIP3    H1 1335   4.838   3.361   2.892
  457TIP3    H2 1336   4.922   3.486   2.904
  458TIP3   OH2 1337   4.417   6.025   4.253
  458TIP3    H1 1338   4.375   6.078   4.184
  458TIP3    H2 1339   4.345   5.973   4.289
  459TIP3   OH2 1340   1.369   2.495   0.502
  459TIP3    H1 1341   1.353   2.562   0.436
  459TIP3    H2 1342   1.461   2.471   0.490
  460TIP3   OH2 1343   6.475   2.888   2.474
  460TIP3    H1 1344   6.413   2.956   2.448
  460TIP3    H2 1345   6.426   2.834   2.536
  461TIP3   OH2 1346   3.427   0.992   2.315
  461TIP3    H1 1347   3.353   1.003   2.256
  461TIP3    H2 1348   3.435   1.076   2.360
  462TIP3   OH2 1349   0.197   1.392   2.605
  462TIP3    H1 1350   0.165   1.312   2.564
  462TIP3    H2 1351   0.270   1.420   2.549
  463TIP3   OH2 1352   2.530   3.826   2.924
  463TIP3    H1 1353   2.455   3.802   2.869
  463TIP3    H2 1354   2.589   3.751   2.918
  464TIP3   OH2 1355   2.439   4.984   3.819
  464TIP3    H1 1356   2.426   5.061   3.762
  464TIP3    H2 1357   2.445   5.021   3.907
  465TIP3   OH2 1358   6.641   0.918   4.979
  465TIP3    H1 1359   6.658   0.961   4.895
  465TIP3    H2 1360   6.701   0.960   5.040
  466TIP3   OH2 1361   2.288   1.198   0.393
  466TIP3    H1 1362   2.274   1.292   0.405
  466TIP3    H2 1363   2.301   1.164   0.481
  467TIP3   OH2 1364   1.950   6.478   4.986
  467TIP3    H1 1365   1.923   6.516   5.069
  467TIP3    H2 1366   1.907   6.392   4.984
  468TIP3   OH2 1367   4.513   6.180   0.588
  468TIP3    H1 1368   4.422   6.186   0.617
  468TIP3    H2 1369   4.510   6.204   0.495
  469TIP3   OH2 1370   1.035   2.125   3.112
  469TIP3    H1 1371   0.952   2.173   3.110
  469TIP3    H2 1372   1.088   2.170   3.178
  470TIP3   OH2 1373   0.043   5.202   5.247
  470TIP3    H1 1374  -0.029   5.201   5.184
  470TIP3    H2 1375   0.121   5.221   5.194
  471TIP3   OH2 1376   4.605   4.991   4.764
  471TIP3    H1 1377   4.516   5.020   4.783
  471TIP3    H2 1378   4.643   4.971   4.850
  472TIP3   OH2 1379   4.989   4.079   2.423
  472TIP3    H1 1380   5.064   4.070   2.364
  472TIP3    H2 1381   4.997   4.006   2.484
  473TIP3   OH2 1382   2.000   3.767   5.753
  473TIP3    H1 1383   1.992   3.835   5.820
  473TIP3    H2 1384   1.962   3.806   5.674
  474TIP3   OH2 1385   1.910   0.055   3.186
  474TIP3    H1 1386   1.887  -0.026   3.141
  474TIP3    H2 1387   1.970   0.099   3.126
  475TIP3   OH2 1388   5.204   2.567   3.667
  475TIP3    H1 1389   5.166   2.654   3.682
  475TIP3    H2 1390   5.139   2.506   3.702
  476TIP3   OH2 1391   6.730   0.131   4.006
  476TIP3    H1 1392   6.661   0.137   3.939
  476TIP3    H2 1393   6.683   0.112   4.087
  477TIP3   OH2 1394   3.644   4.449   4.367
  477TIP3    H1 1395   3.736   4.451   4.391
  477TIP3    H2 1396   3.612   4.364   4.400
  478TIP3   OH2 1397   1.537   0.764   0.397
  478TIP3    H1 1398   1.611   0.808   0.355
  478TIP3    H2 1399   1.552   0.671   0.380
  479TIP3   OH2 1400   6.857   4.923   1.761
  479TIP3    H1 1401   6.841   4.927   1.667
  479TIP3    H2 1402   6.937   4.872   1.770
  480TIP3   OH2 1403   6.319   4.996   5.462
  480TIP3    H1 1404   6.353   4.991   5.551
  480TIP3    H2 1405   6.250   5.062   5.466
  481TIP3   OH2 1406   3.050   6.637   5.422
  481TIP3    H1 1407   2.980   6.580   5.389
  481TIP3    H2 1408   3.100   6.581   5.482
  482TIP3   OH2 1409   1.944   1.372   4.592
  482TIP3    H1 1410   1.922   1.359   4.684
  482TIP3    H2 1411   1.960   1.466   4.584
  483TIP3   OH2 1412   6.245   5.900  -0.010
  483TIP3    H1 1413   6.327   5.936   0.023
  483TIP3    H2 1414   6.271   5.826  -0.065
  484TIP3   OH2 1415   3.686   6.101   0.794
  484TIP3    H1 1416   3.675   6.196   0.791
  484TIP3    H2 1417   3.733   6.085   0.876
  485TIP3   OH2 1418   3.538   6.542   2.649
  485TIP3    H1 1419   3.478   6.614   2.626
  485TIP3    H2 1420   3.490   6.463   2.625
  486TIP3   OH2 1421   6.445   2.612   1.492
  486TIP3    H1 1422   6.462   2.705   1.503
  486TIP3    H2 1423   6.354   2.601   1.523
  487TIP3   OH2 1424   4.785   4.415   3.146
  487TIP3    H1 1425   4.791   4.348   3.214
  487TIP3    H2 1426   4.725   4.378   3.081
  488TIP3   OH2 1427   2.434   2.150   5.544
  488TIP3    H1 1428   2.387   2.077   5.502
  488TIP3    H2 1429   2.492   2.108   5.608
  489TIP3   OH2 1430   7.205   2.037   0.180
  489TIP3    H1 1431   7.147   2.023   0.106
  489TIP3    H2 1432   7.199   1.957   0.232
  490TIP3   OH2 1433   4.451   6.669   1.212
  490TIP3    H1 1434   4.479   6.698   1.299
  490TIP3    H2 1435   4.453   6.749   1.159
  491TIP3   OH2 1436   4.439   0.924   1.876
  491TIP3    H1 1437   4.382   0.864   1.827
  491TIP3    H2 1438   4.428   1.008   1.832
  492TIP3   OH2 1439   7.098   2.437   0.277
  492TIP3    H1 1440   7.158   2.413   0.347
  492TIP3    H2 1441   7.030   2.369   0.279
  493TIP3   OH2 1442   1.762   3.603   3.554
  493TIP3    H1 1443   1.776   3.513   3.581
  493TIP3    H2 1444   1.780   3.603   3.460
  494TIP3   OH2 1445   5.975   6.383   0.518
  494TIP3    H1 1446   5.931   6.339   0.445
  494TIP3    H2 1447   5.915   6.453   0.544
  495TIP3   OH2 1448   6.629   4.887   2.117
  495TIP3    H1 1449   6.720   4.867   2.137
  495TIP3    H2 1450   6.579   4.821   2.166
  496TIP3   OH2 1451   5.206   3.233   4.011
  496TIP3    H1 1452   5.191   3.302   4.076
  496TIP3    H2 1453   5.296   3.249   3.981
  497TIP3   OH2 1454   1.570   1.103   1.734
  497TIP3    H1 1455   1.571   1.194   1.706
  497TIP3    H2 1456   1.581   1.052   1.654
  498TIP3   OH2 1457   1.583   4.293   4.462
  498TIP3    H1 1458   1.548   4.328   4.380
  498TIP3    H2 1459   1.520   4.225   4.488
  499TIP3   OH2 1460   6.613   5.559   1.975
  499TIP3    H1 1461   6.705   5.560   2.001
  499TIP3    H2 1462   6.565   5.571   2.057
  500TIP3   OH2 1463   4.403   3.699   4.589
  500TIP3    H1 1464   4.430   3.701   4.497
  500TIP3    H2 1465   4.437   3.781   4.625
  501TIP3   OH2 1466   6.254   2.306   4.592
  501TIP3    H1 1467   6.300   2.275   4.514
  501TIP3    H2 1468   6.184   2.362   4.559
  502TIP3   OH2 1469   3.751   3.430   0.797
  502TIP3    H1 1470   3.704   3.512   0.781
  502TIP3    H2 1471   3.714   3.396   0.878
  503TIP3   OH2 1472   2.259   3.081   5.550
  503TIP3    H1 1473   2.222   3.011   5.496
  503TIP3    H2 1474   2.279   3.151   5.489
  504TIP3   OH2 1475   4.584   2.364   1.812
  504TIP3    H1 1476   4.500   2.408   1.819
  504TIP3    H2 1477   4.646   2.434   1.791
  505TIP3   OH2 1478   4.704   5.177   4.302
  505TIP3    H1 1479   4.702   5.265   4.263
  505TIP3    H2 1480   4.710   5.192   4.396
  506TIP3   OH2 1481   6.229   1.246   2.660
  506TIP3    H1 1482   6.208   1.302   2.585
  506TIP3    H2 1483   6.276   1.172   2.623
  507TIP3   OH2 1484   1.448   1.798   1.286
  507TIP3    H1 1485   1.377   1.856   1.314
  507TIP3    H2 1486   1.521   1.822   1.342
  508TIP3   OH2 1487   6.519   4.911   4.215
  508TIP3    H1 1488   6.592   4.972   4.220
  508TIP3    H2 1489   6.549   4.842   4.156
  509TIP3   OH2 1490   4.624   3.948   1.361
  509TIP3    H1 1491   4.650   3.914   1.446
  509TIP3    H2 1492   4.658   4.037   1.358
  510TIP3   OH2 1493   4.479   1.955   1.010
  510TIP3    H1 1494   4.479   1.874   0.958
  510TIP3    H2 1495   4.546   2.009   0.970
  511TIP3   OH2 1496   3.296   6.611   3.273
  511TIP3    H1 1497   3.291   6.707   3.265
  511TIP3    H2 1498   3.215   6.587   3.319
  512TIP3   OH2 1499   0.408   6.013   3.340
  512TIP3    H1 1500   0.359   5.944   3.295
  512TIP3    H2 1501   0.360   6.025   3.422
  513TIP3   OH2 1502   5.664   1.107   0.304
  513TIP3    H1 1503   5.626   1.106   0.216
  513TIP3    H2 1504   5.604   1.162   0.355
  514TIP3   OH2 1505   4.476   2.615   4.246
  514TIP3    H1 1506   4.499   2.680   4.179
  514TIP3    H2 1507   4.498   2.658   4.329
  515TIP3   OH2 1508   3.061   4.524   5.294
  515TIP3    H1 1509   3.012   4.584   5.352
  515TIP3    H2 1510   3.079   4.448   5.349
  516TIP3   OH2 1511   2.258   5.342   2.102
  516TIP3    H1 1512   2.166   5.317   2.115
  516TIP3    H2 1513   2.272   5.338   2.008
  517TIP3   OH2 1514   6.788   5.513   0.930
  517TIP3    H1 1515   6.814   5.559   0.850
  517TIP3    H2 1516   6.839   5.433   0.929
  518TIP3   OH2 1517   4.744   0.533   4.815
  518TIP3    H1 1518   4.796   0.546   4.895
  518TIP3    H2 1519   4.671   0.595   4.824
  519TIP3   OH2 1520   0.593   1.022   4.719
  519TIP3    H1 1521   0.649   1.093   4.748
  519TIP3    H2 1522   0.638   0.984   4.644
  520TIP3   OH2 1523   3.438   2.567   2.044
  520TIP3    H1 1524   3.366   2.598   1.990
  520TIP3    H2 1525   3.515   2.573   1.987
  521TIP3   OH2 1526   6.989   2.716   1.428
  521TIP3    H1 1527   6.949   2.793   1.468
  521TIP3    H2 1528   7.083   2.735   1.426
  522TIP3   OH2 1529   3.859   2.618   3.115
  522TIP3    H1 1530   3.892   2.582   3.032
  522TIP3    H2 1531   3.915   2.693   3.133
  523TIP3   OH2 1532   0.718   6.496   1.055
  523TIP3    H1 1533   0.739   6.403   1.047
  523TIP3    H2 1534   0.623   6.498   1.068
  524TIP3   OH2 1535   6.957   4.913   3.743
  524TIP3    H1 1536   7.051   4.924   3.759
  524TIP3    H2 1537   6.915   4.950   3.821
  525TIP3   OH2 1538   4.335   1.708   2.511
  525TIP3    H1 1539   4.311   1.798   2.488
  525TIP3    H2 1540   4.367   1.714   2.601
  526TIP3   OH2 1541   0.103   4.870   4.675
  526TIP3    H1 1542   0.183   4.912   4.645
  526TIP3    H2 1543   0.077   4.813   4.603
  527TIP3   OH2 1544   2.695   3.500   5.602
  527TIP3    H1 1545   2.715   3.591   5.577
  527TIP3    H2 1546   2.772   3.471   5.651
  528TIP3   OH2 1547   0.911   2.668   1.750
  528TIP3    H1 1548   0.836   2.670   1.809
  528TIP3    H2 1549   0.958   2.749   1.768
  529TIP3   OH2 1550   4.435   6.363   1.710
  529TIP3    H1 1551   4.410   6.416   1.786
  529TIP3    H2 1552   4.353   6.325   1.679
  530TIP3   OH2 1553   3.315   0.958   5.751
  530TIP3    H1 1554   3.267   0.931   5.829
  530TIP3    H2 1555   3.247   0.977   5.686
  531TIP3   OH2 1556   5.354   1.387   0.951
  531TIP3    H1 1557   5.449   1.390   0.949
  531TIP3    H2 1558   5.327   1.399   0.860
  532TIP3   OH2 1559   3.941   1.947   3.467
  532TIP3    H1 1560   3.917   2.007   3.537
  532TIP3    H2 1561   4.005   1.888   3.506
  533TIP3   OH2 1562   6.106   2.116   3.771
  533TIP3    H1 1563   6.149   2.153   3.847
  533TIP3    H2 1564   6.105   2.187   3.706
  534TIP3   OH2 1565   1.209   3.066   4.317
  534TIP3    H1 1566   1.182   3.062   4.226
  534TIP3    H2 1567   1.301   3.092   4.314
  535TIP3   OH2 1568   4.067   4.461   4.592
  535TIP3    H1 1569   4.019   4.417   4.521
  535TIP3    H2 1570   4.065   4.554   4.569
  536TIP3   OH2 1571   4.996   4.450   2.314
  536TIP3    H1 1572   4.932   4.470   2.245
  536TIP3    H2 1573   5.053   4.383   2.276
  537TIP3   OH2 1574   0.438   3.758   4.907
  537TIP3    H1 1575   0.428   3.666   4.932
  537TIP3    H2 1576   0.394   3.765   4.822
  538TIP3   OH2 1577   0.966   1.063   4.538
  538TIP3    H1 1578   1.030   1.119   4.495
  538TIP3    H2 1579   1.017   1.012   4.601
  539TIP3   OH2 1580   2.498   5.817   1.045
  539TIP3    H1 1581   2.409   5.844   1.067
  539TIP3    H2 1582   2.551   5.894   1.060
  540TIP3   OH2 1583   6.793   6.680   2.655
  540TIP3    H1 1584   6.703   6.687   2.687
  540TIP3    H2 1585   6.831   6.767   2.670
  541TIP3   OH2 1586   6.106   2.066   4.942
  541TIP3    H1 1587   6.138   2.059   4.853
  541TIP3    H2 1588   6.142   2.148   4.974
  542TIP3   OH2 1589   1.637   6.722   1.168
  542TIP3    H1 1590   1.566   6.766   1.216
  542TIP3    H2 1591   1.717   6.751   1.210
  543TIP3   OH2 1592   4.115   3.375   0.387
  543TIP3    H1 1593   4.075   3.428   0.457
  543TIP3    H2 1594   4.188   3.331   0.430
  544TIP3   OH2 1595   3.871   6.520   3.316
  544TIP3    H1 1596   3.818   6.594   3.288
  544TIP3    H2 1597   3.823   6.443   3.288
  545TIP3   OH2 1598   0.357   2.953   4.003
  545TIP3    H1 1599   0.403   3.024   3.959
  545TIP3    H2 1600   0.405   2.941   4.085
  546TIP3   OH2 1601   0.375   6.622   4.802
  546TIP3    H1 1602   0.395   6.573   4.722
  546TIP3    H2 1603   0.456   6.668   4.823
  547TIP3   OH2 1604   4.374   6.479   2.130
  547TIP3    H1 1605   4.372   6.567   2.167
  547TIP3    H2 1606   4.428   6.429   2.192
  548TIP3   OH2 1607   3.967   1.929   5.008
  548TIP3    H1 1608   3.938   1.987   4.938
  548TIP3    H2 1609   3.953   1.979   5.089
  549TIP3   OH2 1610   6.390   3.293   0.521
  549TIP3    H1 1611   6.415   3.268   0.610
  549TIP3    H2 1612   6.342   3.375   0.532
  550TIP3   OH2 1613   5.462   4.864   3.361
  550TIP3    H1 1614   5.534   4.814   3.399
  550TIP3    H2 1615   5.398   4.798   3.333
  551TIP3   OH2 1616   4.679   1.583   1.090
  551TIP3    H1 1617   4.597   1.577   1.041
  551TIP3    H2 1618   4.652   1.590   1.182
  552TIP3   OH2 1619   1.102   5.623   2.882
  552TIP3    H1 1620   1.037   5.553   2.870
  552TIP3    H2 1621   1.049   5.703   2.887
  553TIP3   OH2 1622   7.093   2.389   3.587
  553TIP3    H1 1623   6.999   2.390   3.602
  553TIP3    H2 1624   7.130   2.427   3.667
  554TIP3   OH2 1625   4.071   1.970   0.308
  554TIP3    H1 1626   4.083   1.929   0.394
  554TIP3    H2 1627   4.145   1.937   0.256
  555TIP3   OH2 1628   3.675   4.962   0.733
  555TIP3    H1 1629   3.738   4.986   0.801
  555TIP3    H2 1630   3.729   4.927   0.662
  556TIP3   OH2 1631   6.346   3.907   2.650
  556TIP3    H1 1632   6.277   3.865   2.599
  556TIP3    H2 1633   6.427   3.877   2.609
  557TIP3   OH2 1634   0.814   5.731   3.803
  557TIP3    H1 1635   0.884   5.697   3.858
  557TIP3    H2 1636   0.822   5.681   3.721
  558TIP3   OH2 1637   4.954   0.508   4.422
  558TIP3    H1 1638   4.887   0.458   4.376
  558TIP3    H2 1639   5.026   0.445   4.435
  559TIP3   OH2 1640   3.698   2.278   5.067
  559TIP3    H1 1641   3.793   2.283   5.061
  559TIP3    H2 1642   3.674   2.345   5.131
  560TIP3   OH2 1643   6.271   0.725   5.635
  560TIP3    H1 1644   6.329   0.660   5.675
  560TIP3    H2 1645   6.207   0.745   5.702
  561TIP3   OH2 1646   1.145   3.287   2.992
  561TIP3    H1 1647   1.100   3.209   3.024
  561TIP3    H2 1648   1.081   3.357   3.001
  562TIP3   OH2 1649   1.523   5.535   0.797
  562TIP3    H1 1650   1.446   5.589   0.816
  562TIP3    H2 1651   1.596   5.584   0.835
  563TIP3   OH2 1652   1.085   3.263   2.493
  563TIP3    H1 1653   1.181   3.261   2.485
  563TIP3    H2 1654   1.064   3.185   2.544
  564TIP3   OH2 1655   6.770   2.904   4.641
  564TIP3    H1 1656   6.727   2.850   4.707
  564TIP3    H2 1657   6.829   2.844   4.596
  565TIP3   OH2 1658   0.228   3.512   0.568
  565TIP3    H1 1659   0.220   3.541   0.659
  565TIP3    H2 1660   0.186   3.581   0.517
  566TIP3   OH2 1661   0.726   1.887   3.080
  566TIP3    H1 1662   0.798   1.832   3.111
  566TIP3    H2 1663   0.748   1.905   2.988
  567TIP3   OH2 1664   2.978   1.156   5.195
  567TIP3    H1 1665   2.970   1.251   5.202
  567TIP3    H2 1666   2.906   1.130   5.138
  568TIP3   OH2 1667   0.241   2.839   0.680
  568TIP3    H1 1668   0.189   2.809   0.606
  568TIP3    H2 1669   0.314   2.778   0.685
  569TIP3   OH2 1670   0.652   0.879   2.104
  569TIP3    H1 1671   0.688   0.890   2.016
  569TIP3    H2 1672   0.703   0.939   2.158
  570TIP3   OH2 1673   3.281   5.577   2.678
  570TIP3    H1 1674   3.313   5.605   2.592
  570TIP3    H2 1675   3.352   5.600   2.738
  571TIP3   OH2 1676   1.567   0.861   3.992
  571TIP3    H1 1677   1.565   0.957   3.984
  571TIP3    H2 1678   1.633   0.834   3.928
  572TIP3   OH2 1679   0.150   5.978   1.042
  572TIP3    H1 1680   0.186   6.066   1.026
  572TIP3    H2 1681   0.096   5.989   1.120
  573TIP3   OH2 1682   4.099   4.577   2.358
  573TIP3    H1 1683   4.155   4.637   2.409
  573TIP3    H2 1684   4.113   4.603   2.267
  574TIP3   OH2 1685   2.829   1.716   1.749
  574TIP3    H1 1686   2.843   1.758   1.833
  574TIP3    H2 1687   2.827   1.622   1.769
  575TIP3   OH2 1688   0.614   6.390   2.374
  575TIP3    H1 1689   0.564   6.316   2.340
  575TIP3    H2 1690   0.574   6.409   2.459
  576TIP3   OH2 1691   6.513   0.872   2.705
  576TIP3    H1 1692   6.482   0.905   2.790
  576TIP3    H2 1693   6.570   0.799   2.727
  577TIP3   OH2 1694   0.784   3.244   3.028
  577TIP3    H1 1695   0.786   3.149   3.038
  577TIP3    H2 1696   0.718   3.260   2.961
  578TIP3   OH2 1697   4.051   4.014   2.801
  578TIP3    H1 1698   4.140   3.980   2.797
  578TIP3    H2 1699   4.057   4.090   2.858
  579TIP3   OH2 1700   1.649   0.482   4.882
  579TIP3    H1 1701   1.582   0.547   4.902
  579TIP3    H2 1702   1.627   0.450   4.795
  580TIP3   OH2 1703   0.530   6.305   0.323
  580TIP3    H1 1704   0.484   6.223   0.304
  580TIP3    H2 1705   0.460   6.366   0.348
  581TIP3   OH2 1706   1.896   1.021   2.896
  581TIP3    H1 1707   1.906   0.928   2.918
  581TIP3    H2 1708   1.869   1.062   2.978
  582TIP3   OH2 1709   4.491   2.598   3.463
  582TIP3    H1 1710   4.490   2.620   3.556
  582TIP3    H2 1711   4.564   2.648   3.427
  583TIP3   OH2 1712   3.166   0.161   2.963
  583TIP3    H1 1713   3.146   0.246   3.003
  583TIP3    H2 1714   3.260   0.163   2.950
  584TIP3   OH2 1715   6.453   1.103   3.745
  584TIP3    H1 1716   6.444   1.096   3.840
  584TIP3    H2 1717   6.545   1.127   3.731
  585TIP3   OH2 1718   0.678   0.578   1.299
  585TIP3    H1 1719   0.713   0.628   1.373
  585TIP3    H2 1720   0.602   0.629   1.270
  586TIP3   OH2 1721   2.042   0.108   1.096
  586TIP3    H1 1722   2.068   0.121   1.187
  586TIP3    H2 1723   1.956   0.066   1.101
  587TIP3   OH2 1724   1.107   6.065   1.688
  587TIP3    H1 1725   1.175   6.130   1.672
  587TIP3    H2 1726   1.049   6.107   1.753
  588TIP3   OH2 1727   1.166   2.029   2.878
  588TIP3    H1 1728   1.137   2.027   2.969
  588TIP3    H2 1729   1.129   2.109   2.842
  589TIP3   OH2 1730   1.966   3.322   3.004
  589TIP3    H1 1731   1.998   3.231   3.003
  589TIP3    H2 1732   1.888   3.319   3.059
  590TIP3   OH2 1733   5.450   6.588   3.899
  590TIP3    H1 1734   5.531   6.614   3.943
  590TIP3    H2 1735   5.445   6.645   3.822
  591TIP3   OH2 1736   6.259   3.052   3.032
  591TIP3    H1 1737   6.196   3.004   3.088
  591TIP3    H2 1738   6.314   2.983   2.995
  592TIP3   OH2 1739   5.154   0.084   4.643
  592TIP3    H1 1740   5.190   0.016   4.585
  592TIP3    H2 1741   5.180   0.056   4.731
  593TIP3   OH2 1742   6.284   1.567   1.664
  593TIP3    H1 1743   6.215   1.573   1.731
  593TIP3    H2 1744   6.289   1.474   1.643
  594TIP3   OH2 1745   1.587   3.968   5.108
  594TIP3    H1 1746   1.498   3.966   5.142
  594TIP3    H2 1747   1.627   4.044   5.151
  595TIP3   OH2 1748   3.120   0.288   4.522
  595TIP3    H1 1749   3.061   0.361   4.504
  595TIP3    H2 1750   3.106   0.228   4.449
  596TIP3   OH2 1751   4.638   5.079   5.059
  596TIP3    H1 1752   4.689   5.072   5.140
  596TIP3    H2 1753   4.646   5.171   5.034
  597TIP3   OH2 1754   2.416   0.322   2.557
  597TIP3    H1 1755   2.463   0.248   2.596
  597TIP3    H2 1756   2.382   0.287   2.474
  598TIP3   OH2 1757   0.748   2.779   3.598
  598TIP3    H1 1758   0.673   2.839   3.601
  598TIP3    H2 1759   0.824   2.835   3.615
  599TIP3   OH2 1760   1.665   1.692   1.721
  599TIP3    H1 1761   1.730   1.662   1.785
  599TIP3    H2 1762   1.694   1.654   1.638
  600TIP3   OH2 1763   4.053   2.879   3.165
  600TIP3    H1 1764   4.082   2.959   3.121
  600TIP3    H2 1765   4.133   2.828   3.178
  601TIP3   OH2 1766   1.426   0.857   1.496
  601TIP3    H1 1767   1.353   0.872   1.556
  601TIP3    H2 1768   1.421   0.930   1.433
  602TIP3   OH2 1769   6.742   0.818   0.995
  602TIP3    H1 1770   6.750   0.745   1.057
  602TIP3    H2 1771   6.719   0.893   1.050
  603TIP3   OH2 1772   4.824   2.304   2.798
  603TIP3    H1 1773   4.848   2.338   2.712
  603TIP3    H2 1774   4.779   2.377   2.841
  604TIP3   OH2 1775   6.453   4.429   2.934
  604TIP3    H1 1776   6.430   4.433   3.026
  604TIP3    H2 1777   6.481   4.518   2.912
  605TIP3   OH2 1778   0.847   5.917   2.307
  605TIP3    H1 1779   0.885   6.005   2.314
  605TIP3    H2 1780   0.759   5.927   2.344
  606TIP3   OH2 1781   4.403   2.115   1.868
  606TIP3    H1 1782   4.402   2.164   1.950
  606TIP3    H2 1783   4.496   2.107   1.846
  607TIP3   OH2 1784   5.707   4.297   5.769
  607TIP3    H1 1785   5.657   4.253   5.700
  607TIP3    H2 1786   5.645   4.359   5.807
  608TIP3   OH2 1787   1.090   1.293   2.499
  608TIP3    H1 1788   1.070   1.384   2.518
  608TIP3    H2 1789   1.060   1.245   2.576
  609TIP3   OH2 1790   0.082   4.016   4.258
  609TIP3    H1 1791   0.127   3.963   4.192
  609TIP3    H2 1792  -0.009   3.988   4.254
  610TIP3   OH2 1793   0.942   0.427   2.543
  610TIP3    H1 1794   0.921   0.416   2.635
  610TIP3    H2 1795   1.012   0.493   2.542
  611TIP3   OH2 1796   6.072   3.212   4.823
  611TIP3    H1 1797   6.136   3.199   4.753
  611TIP3    H2 1798   6.117   3.265   4.888
  612TIP3   OH2 1799   2.066   4.213   0.341
  612TIP3    H1 1800   2.113   4.229   0.423
  612TIP3    H2 1801   2.009   4.289   0.330
  613TIP3   OH2 1802   0.745   6.675   0.173
  613TIP3    H1 1803   0.742   6.589   0.132
  613TIP3    H2 1804   0.693   6.731   0.116
  614TIP3   OH2 1805   1.037   2.664   4.635
  614TIP3    H1 1806   1.107   2.642   4.696
  614TIP3    H2 1807   1.004   2.749   4.666
  615TIP3   OH2 1808   3.152   3.815   5.355
  615TIP3    H1 1809   3.214   3.763   5.406
  615TIP3    H2 1810   3.135   3.762   5.277
  616TIP3   OH2 1811   5.891   6.651   4.875
  616TIP3    H1 1812   5.910   6.575   4.931
  616TIP3    H2 1813   5.797   6.664   4.884
  617TIP3   OH2 1814   3.668   0.906   2.186
  617TIP3    H1 1815   3.735   0.841   2.164
  617TIP3    H2 1816   3.635   0.879   2.272
  618TIP3   OH2 1817   1.544   4.158   2.161
  618TIP3    H1 1818   1.539   4.210   2.241
  618TIP3    H2 1819   1.559   4.222   2.091
  619TIP3   OH2 1820   4.172   5.272   1.783
  619TIP3    H1 1821   4.259   5.252   1.819
  619TIP3    H2 1822   4.187   5.287   1.690
  620TIP3   OH2 1823   2.659   4.361   0.649
  620TIP3    H1 1824   2.625   4.426   0.588
  620TIP3    H2 1825   2.715   4.304   0.595
  621TIP3   OH2 1826   5.353   2.460   3.243
  621TIP3    H1 1827   5.425   2.471   3.306
  621TIP3    H2 1828   5.275   2.448   3.298
  622TIP3   OH2 1829   3.316   1.879   3.162
  622TIP3    H1 1830   3.392   1.933   3.137
  622TIP3    H2 1831   3.325   1.867   3.256
  623TIP3   OH2 1832   4.017   3.978   0.323
  623TIP3    H1 1833   4.018   4.055   0.380
  623TIP3    H2 1834   3.971   4.008   0.244
  624TIP3   OH2 1835   0.574   3.334   1.798
  624TIP3    H1 1836   0.627   3.374   1.728
  624TIP3    H2 1837   0.577   3.240   1.779
  625TIP3   OH2 1838   6.510   2.408   4.619
  625TIP3    H1 1839   6.420   2.436   4.633
  625TIP3    H2 1840   6.508   2.313   4.628
  626TIP3   OH2 1841   0.323   1.148   4.119
  626TIP3    H1 1842   0.390   1.206   4.154
  626TIP3    H2 1843   0.267   1.204   4.065
  627TIP3   OH2 1844   0.872   3.704   1.769
  627TIP3    H1 1845   0.887   3.627   1.824
  627TIP3    H2 1846   0.927   3.772   1.808
  628TIP3   OH2 1847   4.881   3.823   2.141
  628TIP3    H1 1848   4.853   3.908   2.176
  628TIP3    H2 1849   4.854   3.760   2.208
  629TIP3   OH2 1850   5.990   1.278   4.252
  629TIP3    H1 1851   5.896   1.280   4.232
  629TIP3    H2 1852   6.029   1.334   4.185
  630TIP3   OH2 1853   4.078   4.348   0.196
  630TIP3    H1 1854   4.169   4.327   0.175
  630TIP3    H2 1855   4.048   4.401   0.122
  631TIP3   OH2 1856   1.401   1.564   2.865
  631TIP3    H1 1857   1.412   1.577   2.771
  631TIP3    H2 1858   1.334   1.628   2.890
  632TIP3   OH2 1859   4.317   2.241   1.630
  632TIP3    H1 1860   4.341   2.235   1.723
  632TIP3    H2 1861   4.384   2.191   1.584
  633TIP3   OH2 1862   5.571   5.237   3.119
  633TIP3    H1 1863   5.491   5.235   3.066
  633TIP3    H2 1864   5.630   5.297   3.071
  634TIP3   OH2 1865   0.724   5.153   2.721
  634TIP3    H1 1866   0.680   5.095   2.783
  634TIP3    H2 1867   0.697   5.241   2.747
  635TIP3   OH2 1868   0.652   1.281   1.149
  635TIP3    H1 1869   0.604   1.198   1.141
  635TIP3    H2 1870   0.651   1.318   1.061
  636TIP3   OH2 1871   6.874   2.501   5.681
  636TIP3    H1 1872   6.925   2.578   5.658
  636TIP3    H2 1873   6.794   2.509   5.629
  637TIP3   OH2 1874   4.527   3.964   0.587
  637TIP3    H1 1875   4.451   3.974   0.530
  637TIP3    H2 1876   4.581   3.897   0.544
  638TIP3   OH2 1877   1.216   4.438   4.471
  638TIP3    H1 1878   1.129   4.409   4.496
  638TIP3    H2 1879   1.266   4.439   4.553
  639TIP3   OH2 1880   6.197   1.248   0.137
  639TIP3    H1 1881   6.107   1.230   0.111
  639TIP3    H2 1882   6.234   1.162   0.157
  640TIP3   OH2 1883   1.370   3.320   1.165
  640TIP3    H1 1884   1.380   3.272   1.248
  640TIP3    H2 1885   1.459   3.349   1.144
  641TIP3   OH2 1886   6.614   3.366   3.742
  641TIP3    H1 1887   6.609   3.298   3.676
  641TIP3    H2 1888   6.668   3.329   3.811
  642TIP3   OH2 1889   2.354   5.384   2.772
  642TIP3    H1 1890   2.267   5.417   2.747
  642TIP3    H2 1891   2.336   5.312   2.833
  643TIP3   OH2 1892   2.889   3.347   4.223
  643TIP3    H1 1893   2.819   3.398   4.183
  643TIP3    H2 1894   2.858   3.257   4.219
  644TIP3   OH2 1895   5.404   2.554   0.121
  644TIP3    H1 1896   5.489   2.516   0.142
  644TIP3    H2 1897   5.385   2.613   0.194
  645TIP3   OH2 1898   0.167   2.200   2.777
  645TIP3    H1 1899   0.117   2.273   2.740
  645TIP3    H2 1900   0.145   2.125   2.723
  646TIP3   OH2 1901   0.871   2.731   0.521
  646TIP3    H1 1902   0.806   2.751   0.454
  646TIP3    H2 1903   0.955   2.743   0.477
  647TIP3   OH2 1904   1.541   4.697   0.361
  647TIP3    H1 1905   1.544   4.772   0.303
  647TIP3    H2 1906   1.516   4.733   0.446
  648TIP3   OH2 1907   1.468   3.314   0.454
  648TIP3    H1 1908   1.511   3.396   0.480
  648TIP3    H2 1909   1.464   3.318   0.359
  649TIP3   OH2 1910   1.936   5.830   0.987
  649TIP3    H1 1911   2.031   5.822   0.996
  649TIP3    H2 1912   1.917   5.918   1.020
  650TIP3   OH2 1913   0.691   3.297   0.924
  650TIP3    H1 1914   0.604   3.262   0.903
  650TIP3    H2 1915   0.752   3.226   0.901
  651TIP3   OH2 1916   3.095   1.440   4.478
  651TIP3    H1 1917   3.174   1.388   4.482
  651TIP3    H2 1918   3.105   1.504   4.549
  652TIP3   OH2 1919   4.983   3.964   5.128
  652TIP3    H1 1920   4.936   4.029   5.075
  652TIP3    H2 1921   5.036   3.916   5.064
  653TIP3   OH2 1922   4.017   2.810   0.570
  653TIP3    H1 1923   4.034   2.896   0.609
  653TIP3    H2 1924   3.948   2.772   0.624
  654TIP3   OH2 1925   3.755   2.371   3.586
  654TIP3    H1 1926   3.673   2.322   3.584
  654TIP3    H2 1927   3.824   2.305   3.575
  655TIP3   OH2 1928   5.553   1.600   1.186
  655TIP3    H1 1929   5.513   1.574   1.103
  655TIP3    H2 1930   5.555   1.696   1.183
  656TIP3   OH2 1931   0.855   4.161   2.152
  656TIP3    H1 1932   0.868   4.152   2.246
  656TIP3    H2 1933   0.782   4.222   2.143
  657TIP3   OH2 1934   5.051   4.377   5.599
  657TIP3    H1 1935   5.033   4.300   5.546
  657TIP3    H2 1936   5.144   4.370   5.621
  658TIP3   OH2 1937   4.839   0.335   3.494
  658TIP3    H1 1938   4.835   0.369   3.405
  658TIP3    H2 1939   4.749   0.336   3.525
  659TIP3   OH2 1940   2.610   1.896   4.427
  659TIP3    H1 1941   2.569   1.862   4.506
  659TIP3    H2 1942   2.547   1.959   4.393
  660TIP3   OH2 1943   1.263   1.926   0.086
  660TIP3    H1 1944   1.245   1.850   0.141
  660TIP3    H2 1945   1.358   1.937   0.090
  661TIP3   OH2 1946   2.011   6.043   4.169
  661TIP3    H1 1947   2.059   5.963   4.150
  661TIP3    H2 1948   2.031   6.063   4.260
  662TIP3   OH2 1949   2.144   5.561   1.202
  662TIP3    H1 1950   2.068   5.573   1.259
  662TIP3    H2 1951   2.191   5.644   1.206
  663TIP3   OH2 1952   0.447   4.007   3.705
  663TIP3    H1 1953   0.487   3.972   3.785
  663TIP3    H2 1954   0.471   4.100   3.705
  664TIP3   OH2 1955   1.237   2.822   5.219
  664TIP3    H1 1956   1.294   2.884   5.265
  664TIP3    H2 1957   1.285   2.799   5.139
  665TIP3   OH2 1958   4.132   5.699   5.538
  665TIP3    H1 1959   4.185   5.700   5.618
  665TIP3    H2 1960   4.173   5.764   5.481
  666TIP3   OH2 1961   6.020   1.399   4.031
  666TIP3    H1 1962   6.100   1.384   3.981
  666TIP3    H2 1963   5.959   1.436   3.967
  667TIP3   OH2 1964   4.114   4.561   0.373
  667TIP3    H1 1965   4.202   4.594   0.390
  667TIP3    H2 1966   4.127   4.487   0.314
  668TIP3   OH2 1967   4.537   4.165   4.018
  668TIP3    H1 1968   4.530   4.084   4.069
  668TIP3    H2 1969   4.538   4.136   3.927
  669TIP3   OH2 1970   6.466   2.258   2.172
  669TIP3    H1 1971   6.455   2.284   2.080
  669TIP3    H2 1972   6.534   2.316   2.205
  670TIP3   OH2 1973   2.384   2.382   1.187
  670TIP3    H1 1974   2.363   2.458   1.242
  670TIP3    H2 1975   2.303   2.362   1.141
  671TIP3   OH2 1976   2.778   0.191   0.194
  671TIP3    H1 1977   2.787   0.137   0.272
  671TIP3    H2 1978   2.866   0.222   0.175
  672TIP3   OH2 1979   1.602   2.686   3.873
  672TIP3    H1 1980   1.523   2.727   3.838
  672TIP3    H2 1981   1.605   2.600   3.832
  673TIP3   OH2 1982   7.031   5.108   5.508
  673TIP3    H1 1983   7.072   5.192   5.489
  673TIP3    H2 1984   7.091   5.043   5.472
  674TIP3   OH2 1985   2.166   1.651   0.219
  674TIP3    H1 1986   2.076   1.622   0.231
  674TIP3    H2 1987   2.167   1.742   0.247
  675TIP3   OH2 1988   0.808   1.829   0.820
  675TIP3    H1 1989   0.762   1.750   0.846
  675TIP3    H2 1990   0.776   1.897   0.879
  676TIP3   OH2 1991   5.562   6.198   5.797
  676TIP3    H1 1992   5.645   6.177   5.840
  676TIP3    H2 1993   5.579   6.280   5.751
  677TIP3   OH2 1994   5.492   1.135   0.095
  677TIP3    H1 1995   5.434   1.203   0.129
  677TIP3    H2 1996   5.466   1.127   0.003
  678TIP3   OH2 1997   3.379   5.042   2.019
  678TIP3    H1 1998   3.467   5.006   2.016
  678TIP3    H2 1999   3.324   4.970   2.050
  679TIP3   OH2 2000   7.019   1.534   2.354
  679TIP3    H1 2001   6.999   1.449   2.395
  679TIP3    H2 2002   7.075   1.511   2.280
  680TIP3   OH2 2003   1.233   5.453   4.747
  680TIP3    H1 2004   1.195   5.451   4.835
  680TIP3    H2 2005   1.317   5.409   4.756
  681TIP3   OH2 2006   4.872   5.297   0.625
  681TIP3    H1 2007   4.882   5.203   0.610
  681TIP3    H2 2008   4.890   5.309   0.718
  682TIP3   OH2 2009   6.891   6.182   3.885
  682TIP3    H1 2010   6.941   6.161   3.807
  682TIP3    H2 2011   6.914   6.113   3.947
  683TIP3   OH2 2012   1.426   2.627   2.236
  683TIP3    H1 2013   1.491   2.689   2.271
  683TIP3    H2 2014   1.411   2.565   2.308
  684TIP3   OH2 2015   3.489   2.093   5.032
  684TIP3    H1 2016   3.564   2.151   5.045
  684TIP3    H2 2017   3.525   2.014   4.992
  685TIP3   OH2 2018   5.665   0.101   1.757
  685TIP3    H1 2019   5.731   0.123   1.823
  685TIP3    H2 2020   5.710   0.114   1.674
  686TIP3   OH2 2021   3.438   1.558   0.344
  686TIP3    H1 2022   3.360   1.609   0.365
  686TIP3    H2 2023   3.405   1.487   0.288
  687TIP3   OH2 2024   0.987   5.816   3.543
  687TIP3    H1 2025   1.004   5.797   3.636
  687TIP3    H2 2026   1.019   5.905   3.531
  688TIP3   OH2 2027   4.998   4.078   0.445
  688TIP3    H1 2028   4.950   3.995   0.439
  688TIP3    H2 2029   5.085   4.052   0.475
  689TIP3   OH2 2030   6.166   5.129   3.584
  689TIP3    H1 2031   6.182   5.138   3.678
  689TIP3    H2 2032   6.075   5.100   3.578
  690TIP3   OH2 2033   5.510   6.658   1.538
  690TIP3    H1 2034   5.591   6.642   1.489
  690TIP3    H2 2035   5.526   6.741   1.584
  691TIP3   OH2 2036   0.663   6.571   2.193
  691TIP3    H1 2037   0.724   6.509   2.154
  691TIP3    H2 2038   0.630   6.526   2.270
  692TIP3   OH2 2039   2.844   2.882   2.098
  692TIP3    H1 2040   2.813   2.808   2.151
  692TIP3    H2 2041   2.895   2.935   2.159
  693TIP3   OH2 2042   0.274   5.404   0.715
  693TIP3    H1 2043   0.280   5.347   0.638
  693TIP3    H2 2044   0.248   5.489   0.679
  694TIP3   OH2 2045   1.450   3.847   4.654
  694TIP3    H1 2046   1.384   3.789   4.692
  694TIP3    H2 2047   1.509   3.867   4.727
  695TIP3   OH2 2048   5.107   2.492   0.666
  695TIP3    H1 2049   5.188   2.526   0.705
  695TIP3    H2 2050   5.046   2.566   0.670
  696TIP3   OH2 2051   3.117   4.746   5.704
  696TIP3    H1 2052   3.157   4.831   5.723
  696TIP3    H2 2053   3.186   4.682   5.723
  697TIP3   OH2 2054   3.229   1.169   4.271
  697TIP3    H1 2055   3.225   1.077   4.298
  697TIP3    H2 2056   3.138   1.191   4.249
  698TIP3   OH2 2057   5.379   5.997   1.252
  698TIP3    H1 2058   5.379   6.073   1.193
  698TIP3    H2 2059   5.456   6.009   1.307
  699TIP3   OH2 2060   4.370   3.320   0.569
  699TIP3    H1 2061   4.378   3.225   0.577
  699TIP3    H2 2062   4.453   3.348   0.529
  700TIP3   OH2 2063   2.722   2.094   5.738
  700TIP3    H1 2064   2.654   2.077   5.804
  700TIP3    H2 2065   2.755   2.008   5.714
  701TIP3   OH2 2066   5.093   0.202   3.905
  701TIP3    H1 2067   5.043   0.128   3.939
  701TIP3    H2 2068   5.028   0.259   3.865
  702TIP3   OH2 2069   2.512   2.825   2.519
  702TIP3    H1 2070   2.487   2.778   2.440
  702TIP3    H2 2071   2.567   2.763   2.567
  703TIP3   OH2 2072   4.947   6.750   0.159
  703TIP3    H1 2073   4.976   6.659   0.167
  703TIP3    H2 2074   4.896   6.752   0.078
  704TIP3   OH2 2075   5.673   2.146   1.526
  704TIP3    H1 2076   5.626   2.217   1.481
  704TIP3    H2 2077   5.618   2.126   1.602
  705TIP3   OH2 2078   0.512   5.183   4.761
  705TIP3    H1 2079   0.496   5.089   4.750
  705TIP3    H2 2080   0.605   5.194   4.741
  706TIP3   OH2 2081   4.734   3.491   4.478
  706TIP3    H1 2082   4.765   3.436   4.406
  706TIP3    H2 2083   4.745   3.580   4.447
  707TIP3   OH2 2084   3.866   5.270   1.642
  707TIP3    H1 2085   3.917   5.329   1.697
  707TIP3    H2 2086   3.811   5.221   1.704
  708TIP3   OH2 2087   0.202   1.597   4.809
  708TIP3    H1 2088   0.235   1.687   4.803
  708TIP3    H2 2089   0.265   1.552   4.865
  709TIP3   OH2 2090   4.861   1.333   1.831
  709TIP3    H1 2091   4.891   1.370   1.748
  709TIP3    H2 2092   4.773   1.299   1.811
  710TIP3   OH2 2093   6.930   5.619   2.246
  710TIP3    H1 2094   7.000   5.636   2.308
  710TIP3    H2 2095   6.852   5.605   2.300
  711TIP3   OH2 2096   5.689   3.960   1.052
  711TIP3    H1 2097   5.762   4.014   1.083
  711TIP3    H2 2098   5.677   3.986   0.961
  712TIP3   OH2 2099   2.271   4.206   3.229
  712TIP3    H1 2100   2.258   4.280   3.170
  712TIP3    H2 2101   2.273   4.130   3.171
  713TIP3   OH2 2102   1.258   3.717   4.824
  713TIP3    H1 2103   1.208   3.793   4.793
  713TIP3    H2 2104   1.208   3.641   4.795
  714TIP3   OH2 2105   5.337   5.994   0.294
  714TIP3    H1 2106   5.291   6.050   0.231
  714TIP3    H2 2107   5.426   5.988   0.261
  715TIP3   OH2 2108   5.424   1.974   0.663
  715TIP3    H1 2109   5.509   2.018   0.653
  715TIP3    H2 2110   5.364   2.044   0.686
  716TIP3   OH2 2111   0.497   4.169   5.153
  716TIP3    H1 2112   0.540   4.218   5.083
  716TIP3    H2 2113   0.536   4.082   5.150
  717TIP3   OH2 2114   0.701   5.216   5.395
  717TIP3    H1 2115   0.794   5.229   5.417
  717TIP3    H2 2116   0.691   5.254   5.308
  718TIP3   OH2 2117   0.665   5.670   5.294
  718TIP3    H1 2118   0.649   5.761   5.269
  718TIP3    H2 2119   0.631   5.663   5.383
  719TIP3   OH2 2120   0.649   3.862   3.878
  719TIP3    H1 2121   0.717   3.876   3.943
  719TIP3    H2 2122   0.695   3.861   3.794
  720TIP3   OH2 2123   4.952   2.665   2.994
  720TIP3    H1 2124   5.004   2.744   3.009
  720TIP3    H2 2125   4.943   2.626   3.081
  721TIP3   OH2 2126   7.115   4.091   4.722
  721TIP3    H1 2127   7.192   4.129   4.764
  721TIP3    H2 2128   7.067   4.166   4.687
  722TIP3   OH2 2129   2.716   5.218   5.014
  722TIP3    H1 2130   2.719   5.144   4.954
  722TIP3    H2 2131   2.658   5.189   5.085
  723TIP3   OH2 2132   1.719   3.178   0.253
  723TIP3    H1 2133   1.680   3.105   0.301
  723TIP3    H2 2134   1.643   3.226   0.218
  724TIP3   OH2 2135   4.774   1.600   3.902
  724TIP3    H1 2136   4.701   1.634   3.954
  724TIP3    H2 2137   4.772   1.651   3.821
  725TIP3   OH2 2138   1.635   2.924   5.287
  725TIP3    H1 2139   1.622   2.996   5.225
  725TIP3    H2 2140   1.559   2.929   5.346
  726TIP3   OH2 2141   6.545   6.118   1.326
  726TIP3    H1 2142   6.617   6.065   1.359
  726TIP3    H2 2143   6.583   6.172   1.257
  727TIP3   OH2 2144   0.922   2.264   5.546
  727TIP3    H1 2145   0.959   2.176   5.532
  727TIP3    H2 2146   0.969   2.319   5.483
  728TIP3   OH2 2147   7.069   5.135   3.386
  728TIP3    H1 2148   7.026   5.173   3.463
  728TIP3    H2 2149   7.163   5.143   3.405
  729TIP3   OH2 2150   1.630   2.434   0.449
  729TIP3    H1 2151   1.656   2.362   0.392
  729TIP3    H2 2152   1.695   2.503   0.434
  730TIP3   OH2 2153   1.135   5.462   4.378
  730TIP3    H1 2154   1.198   5.486   4.446
  730TIP3    H2 2155   1.115   5.370   4.394
  731TIP3   OH2 2156   3.575   3.684   4.292
  731TIP3    H1 2157   3.510   3.613   4.289
  731TIP3    H2 2158   3.598   3.691   4.385
  732TIP3   OH2 2159   3.922   5.293   0.090
  732TIP3    H1 2160   3.827   5.289   0.098
  732TIP3    H2 2161   3.947   5.371   0.141
  733TIP3   OH2 2162   1.766   2.760   1.321
  733TIP3    H1 2163   1.739   2.828   1.259
  733TIP3    H2 2164   1.711   2.774   1.398
  734TIP3   OH2 2165   0.227   3.110   0.045
  734TIP3    H1 2166   0.218   3.096  -0.049
  734TIP3    H2 2167   0.295   3.047   0.071
  735TIP3   OH2 2168   5.739   6.474   5.225
  735TIP3    H1 2169   5.743   6.552   5.281
  735TIP3    H2 2170   5.748   6.401   5.285
  736TIP3   OH2 2171   6.606   6.746   1.409
  736TIP3    H1 2172   6.586   6.793   1.328
  736TIP3    H2 2173   6.597   6.654   1.386
  737TIP3   OH2 2174   3.357   5.150   3.626
  737TIP3    H1 2175   3.442   5.133   3.666
  737TIP3    H2 2176   3.303   5.185   3.697
  738TIP3   OH2 2177   1.387   6.289   2.175
  738TIP3    H1 2178   1.377   6.298   2.270
  738TIP3    H2 2179   1.475   6.323   2.157
  739TIP3   OH2 2180   2.946   5.173   2.830
  739TIP3    H1 2181   3.000   5.096   2.815
  739TIP3    H2 2182   2.982   5.240   2.771
  740TIP3   OH2 2183   4.963   3.064   3.027
  740TIP3    H1 2184   4.889   3.092   2.973
  740TIP3    H2 2185   4.984   3.140   3.081
  741TIP3   OH2 2186   1.778   6.647   4.844
  741TIP3    H1 2187   1.808   6.738   4.846
  741TIP3    H2 2188   1.853   6.596   4.873
  742TIP3   OH2 2189   4.391   2.979   5.865
  742TIP3    H1 2190   4.439   3.062   5.859
  742TIP3    H2 2191   4.457   2.914   5.887
  743TIP3   OH2 2192   6.173   2.719   1.927
  743TIP3    H1 2193   6.118   2.782   1.881
  743TIP3    H2 2194   6.160   2.740   2.020
  744TIP3   OH2 2195   0.284   0.448   1.135
  744TIP3    H1 2196   0.367   0.401   1.147
  744TIP3    H2 2197   0.226   0.415   1.203
  745TIP3   OH2 2198   0.630   0.614   3.449
  745TIP3    H1 2199   0.664   0.678   3.387
  745TIP3    H2 2200   0.634   0.657   3.534
  746TIP3   OH2 2201   6.920   3.761   1.829
  746TIP3    H1 2202   6.916   3.696   1.759
  746TIP3    H2 2203   6.934   3.844   1.784
  747TIP3   OH2 2204   4.028  -0.021   0.877
  747TIP3    H1 2205   3.956  -0.077   0.847
  747TIP3    H2 2206   4.036  -0.041   0.970
  748TIP3   OH2 2207   0.423   0.075   4.172
  748TIP3    H1 2208   0.407   0.059   4.265
  748TIP3    H2 2209   0.461   0.163   4.169
  749TIP3   OH2 2210   5.772   2.438   3.806
  749TIP3    H1 2211   5.752   2.375   3.737
  749TIP3    H2 2212   5.866   2.430   3.819
  750TIP3   OH2 2213   6.836   6.045   1.364
  750TIP3    H1 2214   6.816   6.090   1.283
  750TIP3    H2 2215   6.835   6.114   1.431
  751TIP3   OH2 2216   4.038   6.432   1.880
  751TIP3    H1 2217   4.021   6.502   1.943
  751TIP3    H2 2218   4.056   6.478   1.798
  752TIP3   OH2 2219   1.542   1.775   2.996
  752TIP3    H1 2220   1.605   1.768   3.067
  752TIP3    H2 2221   1.534   1.686   2.961
  753TIP3   OH2 2222   0.750   4.958   5.129
  753TIP3    H1 2223   0.668   4.912   5.107
  753TIP3    H2 2224   0.730   5.051   5.114
  754TIP3   OH2 2225   2.318   0.883   3.468
  754TIP3    H1 2226   2.365   0.953   3.514
  754TIP3    H2 2227   2.228   0.915   3.463
  755TIP3   OH2 2228   2.274   1.684   2.775
  755TIP3    H1 2229   2.194   1.639   2.748
  755TIP3    H2 2230   2.345   1.631   2.738
  756TIP3   OH2 2231   5.095   0.983   4.086
  756TIP3    H1 2232   5.043   0.948   4.159
  756TIP3    H2 2233   5.184   0.989   4.121
  757TIP3   OH2 2234   4.408   5.464   0.663
  757TIP3    H1 2235   4.467   5.390   0.677
  757TIP3    H2 2236   4.466   5.541   0.661
  758TIP3   OH2 2237   3.394   3.284   0.038
  758TIP3    H1 2238   3.477   3.316   0.072
  758TIP3    H2 2239   3.375   3.206   0.090
  759TIP3   OH2 2240   6.347   2.012   2.102
  759TIP3    H1 2241   6.263   1.997   2.146
  759TIP3    H2 2242   6.365   2.105   2.115
  760TIP3   OH2 2243   6.913   1.114   4.851
  760TIP3    H1 2244   6.960   1.193   4.826
  760TIP3    H2 2245   6.825   1.126   4.817
  761TIP3   OH2 2246   2.658   0.905   4.466
  761TIP3    H1 2247   2.712   0.884   4.390
  761TIP3    H2 2248   2.680   0.996   4.486
  762TIP3   OH2 2249   4.147   5.529   0.740
  762TIP3    H1 2250   4.142   5.549   0.833
  762TIP3    H2 2251   4.241   5.517   0.724
  763TIP3   OH2 2252   2.654   2.618   5.111
  763TIP3    H1 2253   2.664   2.697   5.058
  763TIP3    H2 2254   2.606   2.558   5.054
  764TIP3   OH2 2255   5.053   3.361   1.284
  764TIP3    H1 2256   4.993   3.293   1.253
  764TIP3    H2 2257   5.068   3.340   1.376
  765TIP3   OH2 2258   5.056   5.683   4.504
  765TIP3    H1 2259   5.107   5.683   4.585
  765TIP3    H2 2260   5.083   5.603   4.458
  766TIP3   OH2 2261   2.522   3.248   4.230
  766TIP3    H1 2262   2.434   3.210   4.221
  766TIP3    H2 2263   2.581   3.176   4.207
  767TIP3   OH2 2264   1.321   6.101   5.603
  767TIP3    H1 2265   1.227   6.089   5.594
  767TIP3    H2 2266   1.350   6.131   5.517
  768TIP3   OH2 2267   5.418   5.923   4.450
  768TIP3    H1 2268   5.507   5.925   4.417
  768TIP3    H2 2269   5.367   5.881   4.381
  769TIP3   OH2 2270   0.485   3.893   1.047
  769TIP3    H1 2271   0.477   3.987   1.063
  769TIP3    H2 2272   0.426   3.875   0.974
  770TIP3   OH2 2273   1.768   3.258   5.346
  770TIP3    H1 2274   1.693   3.227   5.294
  770TIP3    H2 2275   1.770   3.199   5.422
  771TIP3   OH2 2276   2.622   0.882   3.188
  771TIP3    H1 2277   2.587   0.899   3.100
  771TIP3    H2 2278   2.581   0.948   3.243
  772TIP3   OH2 2279   6.858   3.733   2.955
  772TIP3    H1 2280   6.886   3.682   2.879
  772TIP3    H2 2281   6.766   3.751   2.940
  773TIP3   OH2 2282   5.801   4.458   4.421
  773TIP3    H1 2283   5.746   4.451   4.343
  773TIP3    H2 2284   5.889   4.441   4.390
  774TIP3   OH2 2285   5.425   2.799   0.780
  774TIP3    H1 2286   5.509   2.822   0.820
  774TIP3    H2 2287   5.447   2.768   0.693
  775TIP3   OH2 2288   6.562   5.429   5.423
  775TIP3    H1 2289   6.470   5.427   5.396
  775TIP3    H2 2290   6.611   5.414   5.342
  776TIP3   OH2 2291   4.304   1.261   1.505
  776TIP3    H1 2292   4.260   1.219   1.432
  776TIP3    H2 2293   4.379   1.205   1.523
  777TIP3   OH2 2294   3.318   3.139   1.183
  777TIP3    H1 2295   3.317   3.223   1.137
  777TIP3    H2 2296   3.410   3.126   1.206
  778TIP3   OH2 2297   1.688   1.787   3.244
  778TIP3    H1 2298   1.711   1.835   3.324
  778TIP3    H2 2299   1.737   1.705   3.250
  779TIP3   OH2 2300   0.532   0.357   3.503
  779TIP3    H1 2301   0.566   0.447   3.504
  779TIP3    H2 2302   0.607   0.304   3.477
  780TIP3   OH2 2303   3.344   2.645   3.972
  780TIP3    H1 2304   3.275   2.685   3.919
  780TIP3    H2 2305   3.384   2.718   4.018
  781TIP3   OH2 2306   1.948   1.193   2.351
  781TIP3    H1 2307   1.909   1.184   2.438
  781TIP3    H2 2308   1.891   1.141   2.294
  782TIP3   OH2 2309   1.754   2.806   3.112
  782TIP3    H1 2310   1.745   2.736   3.047
  782TIP3    H2 2311   1.808   2.872   3.069
  783TIP3   OH2 2312   5.390   4.031   5.265
  783TIP3    H1 2313   5.350   4.009   5.349
  783TIP3    H2 2314   5.462   4.090   5.287
  784TIP3   OH2 2315   6.677   0.602   2.119
  784TIP3    H1 2316   6.658   0.680   2.066
  784TIP3    H2 2317   6.685   0.531   2.055
  785TIP3   OH2 2318   3.050   1.218   4.701
  785TIP3    H1 2319   3.109   1.267   4.644
  785TIP3    H2 2320   3.018   1.283   4.764
  786TIP3   OH2 2321   1.958   4.934   4.056
  786TIP3    H1 2322   2.026   4.906   4.116
  786TIP3    H2 2323   1.886   4.872   4.071
  787TIP3   OH2 2324   0.072   5.000   3.030
  787TIP3    H1 2325   0.113   5.085   3.011
  787TIP3    H2 2326  -0.016   5.021   3.060
  788TIP3   OH2 2327   3.478   0.587   5.619
  788TIP3    H1 2328   3.496   0.674   5.583
  788TIP3    H2 2329   3.391   0.564   5.587
  789TIP3   OH2 2330   4.867   3.234   3.606
  789TIP3    H1 2331   4.935   3.208   3.668
  789TIP3    H2 2332   4.908   3.223   3.520
  790TIP3   OH2 2333   3.794   3.891   0.568
  790TIP3    H1 2334   3.738   3.962   0.534
  790TIP3    H2 2335   3.819   3.842   0.490
  791TIP3   OH2 2336   6.188   6.607   4.390
  791TIP3    H1 2337   6.210   6.672   4.323
  791TIP3    H2 2338   6.219   6.524   4.354
  792TIP3   OH2 2339   2.851   1.596   4.877
  792TIP3    H1 2340   2.822   1.602   4.785
  792TIP3    H2 2341   2.789   1.652   4.924
  793TIP3   OH2 2342   4.574   5.138   0.612
  793TIP3    H1 2343   4.655   5.159   0.565
  793TIP3    H2 2344   4.569   5.204   0.681
  794TIP3   OH2 2345   5.863   3.666   4.857
  794TIP3    H1 2346   5.917   3.680   4.935
  794TIP3    H2 2347   5.891   3.735   4.796
  795TIP3   OH2 2348   4.771   6.169   4.824
  795TIP3    H1 2349   4.800   6.180   4.734
  795TIP3    H2 2350   4.711   6.095   4.822
  796TIP3   OH2 2351   7.027   1.426   3.605
  796TIP3    H1 2352   7.053   1.518   3.612
  796TIP3    H2 2353   6.977   1.409   3.684
  797TIP3   OH2 2354   1.701   6.049   4.162
  797TIP3    H1 2355   1.645   6.054   4.240
  797TIP3    H2 2356   1.789   6.038   4.197
  798TIP3   OH2 2357   0.736   4.035   1.754
  798TIP3    H1 2358   0.641   4.026   1.744
  798TIP3    H2 2359   0.749   4.044   1.849
  799TIP3   OH2 2360   2.872   0.806   4.248
  799TIP3    H1 2361   2.907   0.762   4.170
  799TIP3    H2 2362   2.844   0.892   4.216
  800TIP3   OH2 2363   6.482   0.435   0.998
  800TIP3    H1 2364   6.502   0.382   1.076
  800TIP3    H2 2365   6.419   0.382   0.949
  801TIP3   OH2 2366   5.827   3.758   4.536
  801TIP3    H1 2367   5.812   3.683   4.479
  801TIP3    H2 2368   5.911   3.794   4.506
  802TIP3   OH2 2369   6.091   5.635   4.807
  802TIP3    H1 2370   6.114   5.549   4.770
  802TIP3    H2 2371   6.127   5.634   4.895
  803TIP3   OH2 2372   2.580   4.444   4.550
  803TIP3    H1 2373   2.575   4.351   4.572
  803TIP3    H2 2374   2.656   4.476   4.597
  804TIP3   OH2 2375   6.676   6.260   1.985
  804TIP3    H1 2376   6.690   6.178   2.032
  804TIP3    H2 2377   6.701   6.241   1.895
  805TIP3   OH2 2378   4.899   4.158   1.928
  805TIP3    H1 2379   4.812   4.163   1.966
  805TIP3    H2 2380   4.904   4.071   1.888
  806TIP3   OH2 2381   0.443   5.324   4.190
  806TIP3    H1 2382   0.387   5.325   4.267
  806TIP3    H2 2383   0.496   5.245   4.201
  807TIP3   OH2 2384   0.110   1.539   1.495
  807TIP3    H1 2385   0.100   1.539   1.400
  807TIP3    H2 2386   0.024   1.515   1.529
  808TIP3   OH2 2387   5.907   4.620   2.201
  808TIP3    H1 2388   5.888   4.572   2.120
  808TIP3    H2 2389   5.824   4.663   2.224
  809TIP3   OH2 2390   2.905   3.019   4.785
  809TIP3    H1 2391   2.835   3.037   4.722
  809TIP3    H2 2392   2.887   3.078   4.858
  810TIP3   OH2 2393   5.700   4.621   4.119
  810TIP3    H1 2394   5.659   4.648   4.037
  810TIP3    H2 2395   5.648   4.545   4.147
  811TIP3   OH2 2396   0.343   2.168   5.428
  811TIP3    H1 2397   0.316   2.103   5.493
  811TIP3    H2 2398   0.438   2.164   5.429
  812TIP3   OH2 2399   1.770   1.404   0.404
  812TIP3    H1 2400   1.788   1.454   0.324
  812TIP3    H2 2401   1.748   1.470   0.469
  813TIP3   OH2 2402   5.543   6.178  -0.005
  813TIP3    H1 2403   5.481   6.108   0.012
  813TIP3    H2 2404   5.525   6.243   0.063
  814TIP3   OH2 2405   2.712   4.349   1.121
  814TIP3    H1 2406   2.725   4.338   1.215
  814TIP3    H2 2407   2.800   4.339   1.083
  815TIP3   OH2 2408   3.923   4.092   0.112
  815TIP3    H1 2409   3.992   4.159   0.118
  815TIP3    H2 2410   3.930   4.058   0.023
  816TIP3   OH2 2411   6.396   0.560   5.846
  816TIP3    H1 2412   6.474   0.533   5.894
  816TIP3    H2 2413   6.323   0.538   5.905
  817TIP3   OH2 2414   6.705   3.282   1.016
  817TIP3    H1 2415   6.776   3.219   1.026
  817TIP3    H2 2416   6.630   3.241   1.057
  818TIP3   OH2 2417   0.148   2.413   4.459
  818TIP3    H1 2418   0.139   2.425   4.364
  818TIP3    H2 2419   0.196   2.491   4.488
  819TIP3   OH2 2420   5.142   6.425   4.812
  819TIP3    H1 2421   5.102   6.419   4.898
  819TIP3    H2 2422   5.236   6.429   4.829
  820TIP3   OH2 2423   4.104   6.507   2.626
  820TIP3    H1 2424   4.017   6.467   2.616
  820TIP3    H2 2425   4.118   6.511   2.720
  821TIP3   OH2 2426   7.108   3.683   4.250
  821TIP3    H1 2427   7.073   3.762   4.291
  821TIP3    H2 2428   7.176   3.715   4.191
  822TIP3   OH2 2429   4.335   2.346   2.638
  822TIP3    H1 2430   4.332   2.362   2.544
  822TIP3    H2 2431   4.389   2.267   2.647
  823TIP3   OH2 2432   1.217   3.916   5.764
  823TIP3    H1 2433   1.222   4.010   5.745
  823TIP3    H2 2434   1.165   3.879   5.692
  824TIP3   OH2 2435   3.666   6.535   5.860
  824TIP3    H1 2436   3.616   6.517   5.940
  824TIP3    H2 2437   3.642   6.625   5.837
  825TIP3   OH2 2438   5.678   4.757   3.524
  825TIP3    H1 2439   5.678   4.666   3.494
  825TIP3    H2 2440   5.752   4.763   3.584
  826TIP3   OH2 2441   0.841   1.378   0.677
  826TIP3    H1 2442   0.924   1.331   0.671
  826TIP3    H2 2443   0.774   1.310   0.673
  827TIP3   OH2 2444   0.518   5.401   2.976
  827TIP3    H1 2445   0.466   5.352   2.912
  827TIP3    H2 2446   0.585   5.445   2.924
  828TIP3   OH2 2447   6.478   5.388   2.803
  828TIP3    H1 2448   6.561   5.432   2.821
  828TIP3    H2 2449   6.445   5.362   2.889
  829TIP3   OH2 2450   5.529   1.995   5.559
  829TIP3    H1 2451   5.615   1.983   5.602
  829TIP3    H2 2452   5.468   1.946   5.615
  830TIP3   OH2 2453   5.637   1.235   1.654
  830TIP3    H1 2454   5.688   1.273   1.726
  830TIP3    H2 2455   5.695   1.241   1.578
  831TIP3   OH2 2456   1.037   1.137   1.693
  831TIP3    H1 2457   0.947   1.167   1.677
  831TIP3    H2 2458   1.037   1.110   1.785
  832TIP3   OH2 2459   6.199   4.907   4.648
  832TIP3    H1 2460   6.208   4.827   4.700
  832TIP3    H2 2461   6.285   4.950   4.655
  833TIP3   OH2 2462   6.535   4.337   0.136
  833TIP3    H1 2463   6.467   4.386   0.090
  833TIP3    H2 2464   6.587   4.404   0.181
  834TIP3   OH2 2465   6.261   5.205   0.078
  834TIP3    H1 2466   6.259   5.219  -0.016
  834TIP3    H2 2467   6.318   5.129   0.090
  835TIP3   OH2 2468   3.022   5.164   0.093
  835TIP3    H1 2469   2.935   5.138   0.065
  835TIP3    H2 2470   3.015   5.258   0.110
  836TIP3   OH2 2471   4.319   0.914   3.570
  836TIP3    H1 2472   4.375   0.987   3.543
  836TIP3    H2 2473   4.237   0.927   3.522
  837TIP3   OH2 2474   4.671   5.360   5.574
  837TIP3    H1 2475   4.589   5.404   5.597
  837TIP3    H2 2476   4.665   5.343   5.480
  838TIP3   OH2 2477   0.514   3.020   0.355
  838TIP3    H1 2478   0.530   3.099   0.304
  838TIP3    H2 2479   0.540   3.043   0.444
  839TIP3   OH2 2480   0.182   2.044   1.468
  839TIP3    H1 2481   0.132   1.995   1.533
  839TIP3    H2 2482   0.205   2.125   1.512
  840TIP3   OH2 2483   3.466   4.016   5.037
  840TIP3    H1 2484   3.403   4.059   5.095
  840TIP3    H2 2485   3.549   4.059   5.057
  841TIP3   OH2 2486   7.075   4.063   2.695
  841TIP3    H1 2487   7.043   4.018   2.617
  841TIP3    H2 2488   7.130   3.999   2.739
  842TIP3   OH2 2489   5.321   0.696   5.696
  842TIP3    H1 2490   5.391   0.632   5.708
  842TIP3    H2 2491   5.241   0.650   5.721
  843TIP3   OH2 2492   2.772   1.942   4.709
  843TIP3    H1 2493   2.778   2.037   4.713
  843TIP3    H2 2494   2.687   1.921   4.748
  844TIP3   OH2 2495   5.844   4.071   2.228
  844TIP3    H1 2496   5.771   4.112   2.274
  844TIP3    H2 2497   5.847   4.114   2.143
  845TIP3   OH2 2498   5.416   2.039   1.343
  845TIP3    H1 2499   5.488   1.977   1.328
  845TIP3    H2 2500   5.459   2.124   1.353
  846TIP3   OH2 2501   2.127   5.935   2.033
  846TIP3    H1 2502   2.045   5.913   2.077
  846TIP3    H2 2503   2.106   5.930   1.940
  847TIP3   OH2 2504   6.087   0.969   0.052
  847TIP3    H1 2505   6.025   0.896   0.049
  847TIP3    H2 2506   6.034   1.047   0.036
  848TIP3   OH2 2507   0.972   3.780   5.666
  848TIP3    H1 2508   0.919   3.798   5.588
  848TIP3    H2 2509   1.032   3.711   5.639
  849TIP3   OH2 2510   4.180   0.483   4.411
  849TIP3    H1 2511   4.111   0.506   4.472
  849TIP3    H2 2512   4.148   0.405   4.366
  850TIP3   OH2 2513   6.145   2.782   1.535
  850TIP3    H1 2514   6.155   2.808   1.443
  850TIP3    H2 2515   6.050   2.777   1.548
  851TIP3   OH2 2516   1.939   6.755   5.541
  851TIP3    H1 2517   1.953   6.789   5.452
  851TIP3    H2 2518   1.987   6.815   5.598
  852TIP3   OH2 2519   2.568   1.198   5.445
  852TIP3    H1 2520   2.518   1.265   5.399
  852TIP3    H2 2521   2.607   1.244   5.519
  853TIP3   OH2 2522   2.850   3.794   4.803
  853TIP3    H1 2523   2.907   3.717   4.791
  853TIP3    H2 2524   2.871   3.850   4.728
  854TIP3   OH2 2525   6.332   1.906   5.813
  854TIP3    H1 2526   6.358   1.960   5.738
  854TIP3    H2 2527   6.301   1.969   5.879
  855TIP3   OH2 2528   6.754   1.717   2.720
  855TIP3    H1 2529   6.676   1.662   2.710
  855TIP3    H2 2530   6.809   1.693   2.645
  856TIP3   OH2 2531   5.896   6.098   1.108
  856TIP3    H1 2532   5.881   6.113   1.201
  856TIP3    H2 2533   5.929   6.009   1.103
  857TIP3   OH2 2534   6.698   5.767   5.733
  857TIP3    H1 2535   6.720   5.684   5.692
  857TIP3    H2 2536   6.639   5.744   5.805
  858TIP3   OH2 2537   3.396   1.043   5.372
  858TIP3    H1 2538   3.418   1.128   5.333
  858TIP3    H2 2539   3.324   1.009   5.319
  859TIP3   OH2 2540   1.575   5.563   3.668
  859TIP3    H1 2541   1.649   5.561   3.729
  859TIP3    H2 2542   1.552   5.655   3.661
  860TIP3   OH2 2543   3.690   0.523   4.638
  860TIP3    H1 2544   3.697   0.557   4.728
  860TIP3    H2 2545   3.695   0.601   4.583
  861TIP3   OH2 2546   2.186   3.962   4.309
  861TIP3    H1 2547   2.134   3.976   4.388
  861TIP3    H2 2548   2.252   3.898   4.334
  862TIP3   OH2 2549   2.554   0.734   3.686
  862TIP3    H1 2550   2.580   0.807   3.630
  862TIP3    H2 2551   2.593   0.754   3.771
  863TIP3   OH2 2552   2.208   5.865   5.538
  863TIP3    H1 2553   2.166   5.798   5.592
  863TIP3    H2 2554   2.135   5.920   5.508
  864TIP3   OH2 2555   3.672   0.436   0.995
  864TIP3    H1 2556   3.731   0.362   0.992
  864TIP3    H2 2557   3.615   0.425   0.918
  865TIP3   OH2 2558   3.707   4.698   1.518
  865TIP3    H1 2559   3.759   4.753   1.577
  865TIP3    H2 2560   3.752   4.704   1.434
  866TIP3   OH2 2561   5.303   2.324   5.579
  866TIP3    H1 2562   5.226   2.335   5.522
  866TIP3    H2 2563   5.279   2.252   5.637
  867TIP3   OH2 2564   3.128   2.450   3.673
  867TIP3    H1 2565   3.092   2.388   3.736
  867TIP3    H2 2566   3.123   2.535   3.717
  868TIP3   OH2 2567   1.791   3.348   3.251
  868TIP3    H1 2568   1.741   3.354   3.333
  868TIP3    H2 2569   1.747   3.278   3.202
  869TIP3   OH2 2570   2.875   2.384   1.256
  869TIP3    H1 2571   2.889   2.416   1.168
  869TIP3    H2 2572   2.816   2.309   1.246
  870TIP3   OH2 2573   5.132   2.346   2.795
  870TIP3    H1 2574   5.041   2.334   2.765
  870TIP3    H2 2575   5.145   2.276   2.859
  871TIP3   OH2 2576   3.943   0.704   1.040
  871TIP3    H1 2577   3.909   0.709   0.950
  871TIP3    H2 2578   3.864   0.699   1.095
  872TIP3   OH2 2579   3.584   6.438   2.078
  872TIP3    H1 2580   3.578   6.523   2.034
  872TIP3    H2 2581   3.603   6.460   2.169
  873TIP3   OH2 2582   4.768   6.026   5.483
  873TIP3    H1 2583   4.831   6.052   5.551
  873TIP3    H2 2584   4.799   5.942   5.452
  874TIP3   OH2 2585   5.425   5.168   4.588
  874TIP3    H1 2586   5.441   5.107   4.516
  874TIP3    H2 2587   5.431   5.255   4.548
  875TIP3   OH2 2588   1.586   3.535   2.800
  875TIP3    H1 2589   1.652   3.585   2.848
  875TIP3    H2 2590   1.523   3.508   2.866
  876TIP3   OH2 2591   4.473   1.259   3.212
  876TIP3    H1 2592   4.566   1.243   3.227
  876TIP3    H2 2593   4.458   1.348   3.243
  877TIP3   OH2 2594   7.008   4.339   1.394
  877TIP3    H1 2595   6.923   4.305   1.422
  877TIP3    H2 2596   7.053   4.262   1.359
  878TIP3   OH2 2597   0.358   5.587   0.941
  878TIP3    H1 2598   0.343   5.522   0.872
  878TIP3    H2 2599   0.453   5.594   0.946
  879TIP3   OH2 2600  -0.029   0.482   3.517
  879TIP3    H1 2601  -0.050   0.449   3.604
  879TIP3    H2 2602   0.039   0.547   3.532
  880TIP3   OH2 2603   5.587   0.630   2.056
  880TIP3    H1 2604   5.605   0.575   1.979
  880TIP3    H2 2605   5.581   0.568   2.128
  881TIP3   OH2 2606   1.549   1.459   4.859
  881TIP3    H1 2607   1.589   1.372   4.859
  881TIP3    H2 2608   1.534   1.478   4.952
  882TIP3   OH2 2609   2.263   6.520   0.161
  882TIP3    H1 2610   2.233   6.491   0.075
  882TIP3    H2 2611   2.273   6.439   0.212
  883TIP3   OH2 2612   1.216   5.791   5.305
  883TIP3    H1 2613   1.273   5.864   5.330
  883TIP3    H2 2614   1.143   5.796   5.366
  884TIP3   OH2 2615   3.357   2.315   2.485
  884TIP3    H1 2616   3.281   2.270   2.448
  884TIP3    H2 2617   3.377   2.384   2.422
  885TIP3   OH2 2618   4.673   6.520   1.590
  885TIP3    H1 2619   4.710   6.533   1.677
  885TIP3    H2 2620   4.597   6.464   1.604
  886TIP3   OH2 2621   6.599   2.585   2.160
  886TIP3    H1 2622   6.557   2.604   2.076
  886TIP3    H2 2623   6.536   2.613   2.226
  887TIP3   OH2 2624   6.087   3.723   3.423
  887TIP3    H1 2625   6.100   3.628   3.426
  887TIP3    H2 2626   6.041   3.738   3.341
  888TIP3   OH2 2627   7.006   3.461   5.071
  888TIP3    H1 2628   7.017   3.459   5.166
  888TIP3    H2 2629   6.921   3.504   5.058
  889TIP3   OH2 2630   2.453   0.205   2.092
  889TIP3    H1 2631   2.439   0.218   1.998
  889TIP3    H2 2632   2.543   0.174   2.099
  890TIP3   OH2 2633   1.795   5.364   4.479
  890TIP3    H1 2634   1.857   5.291   4.483
  890TIP3    H2 2635   1.844   5.435   4.440
  891TIP3   OH2 2636   2.155   1.105   5.048
  891TIP3    H1 2637   2.227   1.149   5.004
  891TIP3    H2 2638   2.113   1.053   4.979
  892TIP3   OH2 2639   6.586   5.139   4.457
  892TIP3    H1 2640   6.652   5.074   4.478
  892TIP3    H2 2641   6.635   5.213   4.420
  893TIP3   OH2 2642   1.307   3.398   5.008
  893TIP3    H1 2643   1.229   3.359   4.968
  893TIP3    H2 2644   1.353   3.324   5.047
  894TIP3   OH2 2645   6.401   3.278   1.631
  894TIP3    H1 2646   6.394   3.279   1.726
  894TIP3    H2 2647   6.318   3.312   1.600
  895TIP3   OH2 2648   3.733   5.005   4.823
  895TIP3    H1 2649   3.720   4.911   4.834
  895TIP3    H2 2650   3.648   5.044   4.841
  896TIP3   OH2 2651   4.253   6.158   2.288
  896TIP3    H1 2652   4.303   6.145   2.208
  896TIP3    H2 2653   4.172   6.107   2.275
  897TIP3   OH2 2654   3.243   4.633   3.061
  897TIP3    H1 2655   3.280   4.601   2.979
  897TIP3    H2 2656   3.262   4.727   3.062
  898TIP3   OH2 2657   3.488   0.666   3.801
  898TIP3    H1 2658   3.413   0.713   3.766
  898TIP3    H2 2659   3.451   0.604   3.863
  899TIP3   OH2 2660   6.851   3.038   1.041
  899TIP3    H1 2661   6.836   2.997   1.126
  899TIP3    H2 2662   6.839   2.968   0.978
  900TIP3   OH2 2663   6.904   5.764   2.912
  900TIP3    H1 2664   6.865   5.829   2.971
  900TIP3    H2 2665   6.904   5.683   2.963
  901TIP3   OH2 2666   6.923   2.918   5.454
  901TIP3    H1 2667   6.914   2.945   5.545
  901TIP3    H2 2668   6.889   2.992   5.404
  902TIP3   OH2 2669   5.500   4.695   0.449
  902TIP3    H1 2670   5.510   4.654   0.535
  902TIP3    H2 2671   5.581   4.744   0.437
  903TIP3   OH2 2672   5.830   3.002   0.227
  903TIP3    H1 2673   5.810   3.027   0.317
  903TIP3    H2 2674   5.747   2.965   0.194
  904TIP3   OH2 2675   7.031   4.966   0.816
  904TIP3    H1 2676   6.948   4.999   0.850
  904TIP3    H2 2677   7.014   4.949   0.723
  905TIP3   OH2 2678   2.819   2.388   2.199
  905TIP3    H1 2679   2.833   2.310   2.144
  905TIP3    H2 2680   2.737   2.372   2.244
  906TIP3   OH2 2681   0.755   1.108   3.174
  906TIP3    H1 2682   0.671   1.153   3.163
  906TIP3    H2 2683   0.803   1.162   3.236
  907TIP3   OH2 2684   4.101   2.394   1.532
  907TIP3    H1 2685   4.137   2.482   1.534
  907TIP3    H2 2686   4.168   2.340   1.574
  908TIP3   OH2 2687   5.985   4.089   2.716
  908TIP3    H1 2688   5.929   4.079   2.640
  908TIP3    H2 2689   5.973   4.180   2.743
  909TIP3   OH2 2690   5.158   3.625   3.452
  909TIP3    H1 2691   5.097   3.611   3.524
  909TIP3    H2 2692   5.238   3.656   3.494
  910TIP3   OH2 2693   1.803   5.385   3.162
  910TIP3    H1 2694   1.715   5.406   3.130
  910TIP3    H2 2695   1.789   5.332   3.240
  911TIP3   OH2 2696   6.114   6.288   3.949
  911TIP3    H1 2697   6.073   6.203   3.960
  911TIP3    H2 2698   6.072   6.343   4.016
  912TIP3   OH2 2699   3.345   0.387   2.759
  912TIP3    H1 2700   3.428   0.349   2.788
  912TIP3    H2 2701   3.370   0.472   2.723
  913TIP3   OH2 2702   6.677   5.409   5.186
  913TIP3    H1 2703   6.651   5.380   5.098
  913TIP3    H2 2704   6.732   5.486   5.170
  914TIP3   OH2 2705   4.743   4.414   2.737
  914TIP3    H1 2706   4.802   4.475   2.781
  914TIP3    H2 2707   4.751   4.435   2.644
  915TIP3   OH2 2708   0.909   0.735   5.649
  915TIP3    H1 2709   0.869   0.792   5.715
  915TIP3    H2 2710   0.856   0.748   5.571
  916TIP3   OH2 2711   3.996   5.932   1.857
  916TIP3    H1 2712   3.903   5.957   1.855
  916TIP3    H2 2713   4.034   5.986   1.926
  917TIP3   OH2 2714   4.153   4.315   2.419
  917TIP3    H1 2715   4.125   4.258   2.347
  917TIP3    H2 2716   4.129   4.403   2.391
  918TIP3   OH2 2717   5.858   2.159   4.647
  918TIP3    H1 2718   5.781   2.216   4.646
  918TIP3    H2 2719   5.870   2.136   4.739
  919TIP3   OH2 2720   3.944   6.112   3.868
  919TIP3    H1 2721   4.019   6.171   3.879
  919TIP3    H2 2722   3.882   6.140   3.935
  920TIP3   OH2 2723   0.576   1.943   3.625
  920TIP3    H1 2724   0.629   1.865   3.612
  920TIP3    H2 2725   0.551   1.970   3.537
  921TIP3   OH2 2726   5.059   4.706   3.252
  921TIP3    H1 2727   5.042   4.646   3.179
  921TIP3    H2 2728   5.081   4.648   3.325
  922TIP3   OH2 2729   3.066   3.212   2.489
  922TIP3    H1 2730   3.073   3.307   2.493
  922TIP3    H2 2731   3.148   3.180   2.527
  923TIP3   OH2 2732   2.516   3.086   1.208
  923TIP3    H1 2733   2.526   3.129   1.123
  923TIP3    H2 2734   2.487   3.157   1.267
  924TIP3   OH2 2735   2.731   3.905   1.700
  924TIP3    H1 2736   2.656   3.927   1.755
  924TIP3    H2 2737   2.725   3.965   1.626
  925TIP3   OH2 2738   0.680   2.315   5.223
  925TIP3    H1 2739   0.624   2.303   5.146
  925TIP3    H2 2740   0.762   2.270   5.200
  926TIP3   OH2 2741   0.466   6.375   2.883
  926TIP3    H1 2742   0.508   6.345   2.803
  926TIP3    H2 2743   0.391   6.426   2.852
  927TIP3   OH2 2744   2.936   5.646   4.090
  927TIP3    H1 2745   3.022   5.658   4.132
  927TIP3    H2 2746   2.922   5.727   4.041
  928TIP3   OH2 2747   5.594   3.647   1.436
  928TIP3    H1 2748   5.614   3.655   1.529
  928TIP3    H2 2749   5.582   3.737   1.406
  929TIP3   OH2 2750   6.768   5.250   5.792
  929TIP3    H1 2751   6.765   5.196   5.714
  929TIP3    H2 2752   6.745   5.338   5.763
  930TIP3   OH2 2753   4.856   4.600   0.962
  930TIP3    H1 2754   4.875   4.638   0.877
  930TIP3    H2 2755   4.818   4.671   1.014
  931TIP3   OH2 2756   4.767   0.181   0.201
  931TIP3    H1 2757   4.689   0.125   0.196
  931TIP3    H2 2758   4.740   0.253   0.258
  932TIP3   OH2 2759   6.676   4.785   4.878
  932TIP3    H1 2760   6.768   4.811   4.884
  932TIP3    H2 2761   6.645   4.787   4.968
  933TIP3   OH2 2762   0.980   1.154   5.010
  933TIP3    H1 2763   1.057   1.154   5.068
  933TIP3    H2 2764   0.966   1.246   4.989
  934TIP3   OH2 2765   3.499   6.557   4.827
  934TIP3    H1 2766   3.577   6.545   4.774
  934TIP3    H2 2767   3.470   6.468   4.848
  935TIP3   OH2 2768   4.168   5.314   2.353
  935TIP3    H1 2769   4.089   5.263   2.340
  935TIP3    H2 2770   4.228   5.256   2.399
  936TIP3   OH2 2771   3.618   2.973   2.571
  936TIP3    H1 2772   3.668   3.054   2.578
  936TIP3    H2 2773   3.678   2.905   2.600
  937TIP3   OH2 2774   2.505   2.408   2.574
  937TIP3    H1 2775   2.484   2.316   2.559
  937TIP3    H2 2776   2.593   2.419   2.539
  938TIP3   OH2 2777   0.327   0.676   0.557
  938TIP3    H1 2778   0.234   0.652   0.554
  938TIP3    H2 2779   0.372   0.602   0.515
  939TIP3   OH2 2780   5.211   6.438   0.192
  939TIP3    H1 2781   5.274   6.487   0.139
  939TIP3    H2 2782   5.246   6.443   0.281
  940TIP3   OH2 2783   5.106   0.884   3.818
  940TIP3    H1 2784   5.123   0.906   3.909
  940TIP3    H2 2785   5.016   0.852   3.817
  941TIP3   OH2 2786   1.492   5.162   5.109
  941TIP3    H1 2787   1.493   5.258   5.117
  941TIP3    H2 2788   1.436   5.145   5.033
  942TIP3   OH2 2789   4.024   0.924   5.689
  942TIP3    H1 2790   3.958   0.915   5.621
  942TIP3    H2 2791   3.975   0.940   5.769
  943TIP3   OH2 2792   0.746   2.959   3.872
  943TIP3    H1 2793   0.688   2.993   3.804
  943TIP3    H2 2794   0.691   2.955   3.951
  944TIP3   OH2 2795   0.602   2.010   5.322
  944TIP3    H1 2796   0.627   1.944   5.386
  944TIP3    H2 2797   0.614   2.093   5.367
  945TIP3   OH2 2798   4.493   4.966   2.496
  945TIP3    H1 2799   4.548   5.000   2.426
  945TIP3    H2 2800   4.554   4.944   2.566
  946TIP3   OH2 2801   4.534   5.166   2.215
  946TIP3    H1 2802   4.606   5.214   2.255
  946TIP3    H2 2803   4.468   5.233   2.197
  947TIP3   OH2 2804   2.149   3.647   2.171
  947TIP3    H1 2805   2.068   3.615   2.132
  947TIP3    H2 2806   2.128   3.660   2.264
  948TIP3   OH2 2807   1.734   3.538   2.530
  948TIP3    H1 2808   1.752   3.512   2.620
  948TIP3    H2 2809   1.658   3.596   2.536
  949TIP3   OH2 2810   7.155   6.337   2.647
  949TIP3    H1 2811   7.154   6.357   2.554
  949TIP3    H2 2812   7.065   6.352   2.676
  950TIP3   OH2 2813   3.835   1.218   1.617
  950TIP3    H1 2814   3.885   1.272   1.679
  950TIP3    H2 2815   3.760   1.187   1.667
  951TIP3   OH2 2816   1.378   3.839   1.263
  951TIP3    H1 2817   1.360   3.763   1.206
  951TIP3    H2 2818   1.297   3.890   1.260
  952TIP3   OH2 2819   0.443   5.119   1.588
  952TIP3    H1 2820   0.352   5.098   1.565
  952TIP3    H2 2821   0.449   5.213   1.574
  953TIP3   OH2 2822   1.902   1.319   5.176
  953TIP3    H1 2823   1.966   1.294   5.108
  953TIP3    H2 2824   1.891   1.413   5.166
  954TIP3   OH2 2825   1.547   0.138   4.847
  954TIP3    H1 2826   1.518   0.217   4.892
  954TIP3    H2 2827   1.509   0.066   4.897
  955TIP3   OH2 2828   2.320   1.705   0.647
  955TIP3    H1 2829   2.228   1.678   0.645
  955TIP3    H2 2830   2.322   1.781   0.706
  956TIP3   OH2 2831   0.000   1.763   2.329
  956TIP3    H1 2832   0.048   1.755   2.412
  956TIP3    H2 2833  -0.010   1.673   2.298
  957TIP3   OH2 2834   3.765   1.366   3.747
  957TIP3    H1 2835   3.820   1.328   3.816
  957TIP3    H2 2836   3.696   1.412   3.795
  958TIP3   OH2 2837   6.615   3.881   0.281
  958TIP3    H1 2838   6.612   3.940   0.205
  958TIP3    H2 2839   6.695   3.830   0.267
  959TIP3   OH2 2840   6.983   2.007   0.458
  959TIP3    H1 2841   6.939   2.075   0.406
  959TIP3    H2 2842   7.030   1.955   0.392
  960TIP3   OH2 2843   0.377   2.277   3.379
  960TIP3    H1 2844   0.408   2.367   3.374
  960TIP3    H2 2845   0.291   2.284   3.422
  961TIP3   OH2 2846   4.332   4.561   4.185
  961TIP3    H1 2847   4.240   4.540   4.196
  961TIP3    H2 2848   4.335   4.617   4.107
  962TIP3   OH2 2849   0.307   2.097   4.279
  962TIP3    H1 2850   0.318   2.113   4.373
  962TIP3    H2 2851   0.232   2.038   4.274
  963TIP3   OH2 2852   0.742   6.414   0.094
  963TIP3    H1 2853   0.690   6.342   0.058
  963TIP3    H2 2854   0.817   6.422   0.035
  964TIP3   OH2 2855   0.773   4.734   2.097
  964TIP3    H1 2856   0.737   4.754   2.011
  964TIP3    H2 2857   0.702   4.690   2.144
  965TIP3   OH2 2858   3.659   2.124   0.375
  965TIP3    H1 2859   3.718   2.188   0.417
  965TIP3    H2 2860   3.593   2.178   0.332
  966TIP3   OH2 2861   3.723   0.779   1.209
  966TIP3    H1 2862   3.628   0.777   1.222
  966TIP3    H2 2863   3.759   0.770   1.298
  967TIP3   OH2 2864   3.487   5.799   4.798
  967TIP3    H1 2865   3.512   5.834   4.883
  967TIP3    H2 2866   3.543   5.845   4.735
  968TIP3   OH2 2867   5.560   1.479   0.492
  968TIP3    H1 2868   5.553   1.557   0.548
  968TIP3    H2 2869   5.629   1.426   0.533
  969TIP3   OH2 2870   1.501   4.993   1.190
  969TIP3    H1 2871   1.523   4.964   1.278
  969TIP3    H2 2872   1.566   5.059   1.168
  970TIP3   OH2 2873   0.470   1.879   4.513
  970TIP3    H1 2874   0.538   1.946   4.509
  970TIP3    H2 2875   0.425   1.896   4.596
  971TIP3   OH2 2876   1.726   0.819   3.782
  971TIP3    H1 2877   1.701   0.776   3.700
  971TIP3    H2 2878   1.817   0.847   3.767
  972TIP3   OH2 2879   1.858   2.584   2.928
  972TIP3    H1 2880   1.908   2.546   2.999
  972TIP3    H2 2881   1.921   2.591   2.856
  973TIP3   OH2 2882   6.988   6.137   3.612
  973TIP3    H1 2883   6.962   6.048   3.588
  973TIP3    H2 2884   6.913   6.192   3.588
  974TIP3   OH2 2885   2.703   1.792   5.064
  974TIP3    H1 2886   2.655   1.863   5.022
  974TIP3    H2 2887   2.766   1.837   5.122
  975TIP3   OH2 2888   0.048   4.098   1.910
  975TIP3    H1 2889   0.044   4.036   1.837
  975TIP3    H2 2890   0.072   4.045   1.986
  976TIP3   OH2 2891   4.727   5.043   5.868
  976TIP3    H1 2892   4.759   4.954   5.853
  976TIP3    H2 2893   4.712   5.047   5.963
  977TIP3   OH2 2894   2.812   6.563   1.937
  977TIP3    H1 2895   2.873   6.637   1.949
  977TIP3    H2 2896   2.828   6.507   2.012
  978TIP3   OH2 2897   3.219   5.787   3.147
  978TIP3    H1 2898   3.149   5.820   3.089
  978TIP3    H2 2899   3.210   5.692   3.144
  979TIP3   OH2 2900   3.184   2.993   1.376
  979TIP3    H1 2901   3.233   2.912   1.361
  979TIP3    H2 2902   3.239   3.061   1.338
  980TIP3   OH2 2903   5.961   0.304   5.230
  980TIP3    H1 2904   5.909   0.384   5.219
  980TIP3    H2 2905   5.948   0.255   5.149
  981TIP3   OH2 2906   1.998   4.514   4.022
  981TIP3    H1 2907   2.078   4.516   4.073
  981TIP3    H2 2908   1.942   4.449   4.065
  982TIP3   OH2 2909   6.095   1.768   3.061
  982TIP3    H1 2910   6.061   1.757   2.972
  982TIP3    H2 2911   6.035   1.829   3.102
  983TIP3   OH2 2912   2.141   5.093   2.681
  983TIP3    H1 2913   2.184   5.170   2.643
  983TIP3    H2 2914   2.100   5.050   2.606
  984TIP3   OH2 2915   4.970   0.799   4.275
  984TIP3    H1 2916   5.051   0.799   4.325
  984TIP3    H2 2917   4.974   0.718   4.223
  985TIP3   OH2 2918   6.007  -0.013   4.437
  985TIP3    H1 2919   6.047   0.052   4.380
  985TIP3    H2 2920   6.043   0.007   4.524
  986TIP3   OH2 2921   2.798   6.043   0.766
  986TIP3    H1 2922   2.844   6.081   0.691
  986TIP3    H2 2923   2.838   6.084   0.842
  987TIP3   OH2 2924   3.520   5.711   0.205
  987TIP3    H1 2925   3.451   5.647   0.220
  987TIP3    H2 2926   3.599   5.670   0.239
  988TIP3   OH2 2927   0.702   4.151   3.701
  988TIP3    H1 2928   0.671   4.082   3.642
  988TIP3    H2 2929   0.795   4.134   3.712
  989TIP3   OH2 2930   4.837   4.278   0.568
  989TIP3    H1 2931   4.761   4.254   0.621
  989TIP3    H2 2932   4.906   4.217   0.596
  990TIP3   OH2 2933   4.241   4.277   4.674
  990TIP3    H1 2934   4.176   4.340   4.643
  990TIP3    H2 2935   4.320   4.297   4.624
  991TIP3   OH2 2936   3.615   4.605   3.868
  991TIP3    H1 2937   3.694   4.577   3.821
  991TIP3    H2 2938   3.644   4.681   3.919
  992TIP3   OH2 2939   2.336   3.531   2.010
  992TIP3    H1 2940   2.267   3.489   1.959
  992TIP3    H2 2941   2.292   3.565   2.088
  993TIP3   OH2 2942   3.333   6.624   3.606
  993TIP3    H1 2943   3.359   6.686   3.675
  993TIP3    H2 2944   3.414   6.605   3.559
  994TIP3   OH2 2945   2.073   5.291   2.440
  994TIP3    H1 2946   2.048   5.200   2.455
  994TIP3    H2 2947   2.015   5.320   2.369
  995TIP3   OH2 2948   5.489   4.114   5.643
  995TIP3    H1 2949   5.480   4.089   5.735
  995TIP3    H2 2950   5.518   4.035   5.599
  996TIP3   OH2 2951   1.767   5.191   3.359
  996TIP3    H1 2952   1.800   5.134   3.428
  996TIP3    H2 2953   1.694   5.238   3.399
  997TIP3   OH2 2954   6.446   1.706   4.458
  997TIP3    H1 2955   6.382   1.737   4.394
  997TIP3    H2 2956   6.490   1.786   4.488
  998TIP3   OH2 2957   1.652   4.751   1.042
  998TIP3    H1 2958   1.711   4.790   1.108
  998TIP3    H2 2959   1.585   4.818   1.029
  999TIP3   OH2 2960   1.225   6.481   1.636
  999TIP3    H1 2961   1.254   6.390   1.628
  999TIP3    H2 2962   1.228   6.499   1.730
 1000TIP3   OH2 2963   4.506   3.422   5.418
 1000TIP3    H1 2964   4.478   3.479   5.490
 1000TIP3    H2 2965   4.500   3.476   5.340
 1001TIP3   OH2 2966   0.234   3.372   5.839
 1001TIP3    H1 2967   0.139   3.364   5.835
 1001TIP3    H2 2968   0.263   3.290   5.879
 1002TIP3   OH2 2969   0.840   3.315   4.930
 1002TIP3    H1 2970   0.911   3.252   4.919
 1002TIP3    H2 2971   0.767   3.278   4.879
 1003TIP3   OH2 2972   3.782   3.502   5.241
 1003TIP3    H1 2973   3.790   3.559   5.318
 1003TIP3    H2 2974   3.712   3.541   5.189
 1004TIP3   OH2 2975   4.161   3.328   1.177
 1004TIP3    H1 2976   4.071   3.312   1.203
 1004TIP3    H2 2977   4.178   3.418   1.203
 1005TIP3   OH2 2978   2.995   2.328   4.245
 1005TIP3    H1 2979   2.956   2.309   4.159
 1005TIP3    H2 2980   3.082   2.288   4.241
 1006TIP3   OH2 2981   7.199   2.498   4.936
 1006TIP3    H1 2982   7.123   2.491   4.879
 1006TIP3    H2 2983   7.270   2.524   4.878
 1007TIP3   OH2 2984   2.113   0.750   3.956
 1007TIP3    H1 2985   2.086   0.720   3.869
 1007TIP3    H2 2986   2.032   0.774   4.000
 1008TIP3   OH2 2987   1.122   3.266   1.062
 1008TIP3    H1 2988   1.081   3.245   1.146
 1008TIP3    H2 2989   1.209   3.298   1.085
 1009TIP3   OH2 2990   6.878   4.142   0.909
 1009TIP3    H1 2991   6.914   4.230   0.918
 1009TIP3    H2 2992   6.911   4.095   0.985
 1010TIP3   OH2 2993   7.126   0.379   2.473
 1010TIP3    H1 2994   7.214   0.341   2.465
 1010TIP3    H2 2995   7.136   0.452   2.534
 1011TIP3   OH2 2996   2.977   0.520   2.483
 1011TIP3    H1 2997   2.957   0.589   2.546
 1011TIP3    H2 2998   3.003   0.567   2.403
 1012TIP3   OH2 2999   6.187   0.502   3.839
 1012TIP3    H1 3000   6.262   0.472   3.890
 1012TIP3    H2 3001   6.223   0.522   3.753
 1013TIP3   OH2 3002   5.945   0.418   3.743
 1013TIP3    H1 3003   6.023   0.433   3.797
 1013TIP3    H2 3004   5.882   0.484   3.773
 1014TIP3   OH2 3005   2.108   6.712   0.948
 1014TIP3    H1 3006   2.187   6.749   0.908
 1014TIP3    H2 3007   2.141   6.664   1.024
 1015TIP3   OH2 3008   4.515   0.814   5.774
 1015TIP3    H1 3009   4.436   0.867   5.765
 1015TIP3    H2 3010   4.553   0.812   5.686
 1016TIP3   OH2 3011   1.765   4.989   2.509
 1016TIP3    H1 3012   1.757   5.083   2.525
 1016TIP3    H2 3013   1.755   4.949   2.595
 1017TIP3   OH2 3014   2.789   6.304   4.331
 1017TIP3    H1 3015   2.838   6.241   4.383
 1017TIP3    H2 3016   2.753   6.253   4.259
 1018TIP3   OH2 3017   2.359   2.742   0.689
 1018TIP3    H1 3018   2.431   2.799   0.714
 1018TIP3    H2 3019   2.369   2.664   0.745
 1019TIP3   OH2 3020   1.779   6.827   0.645
 1019TIP3    H1 3021   1.713   6.887   0.610
 1019TIP3    H2 3022   1.742   6.795   0.727
 1020TIP3   OH2 3023   4.392   5.926   1.787
 1020TIP3    H1 3024   4.412   5.893   1.699
 1020TIP3    H2 3025   4.347   5.854   1.831
 1021TIP3   OH2 3026   3.234   6.339   3.642
 1021TIP3    H1 3027   3.281   6.420   3.623
 1021TIP3    H2 3028   3.268   6.276   3.579
 1022TIP3   OH2 3029   4.376   2.212   3.385
 1022TIP3    H1 3030   4.430   2.134   3.371
 1022TIP3    H2 3031   4.334   2.228   3.300
 1023TIP3   OH2 3032   1.203   3.896   2.182
 1023TIP3    H1 3033   1.295   3.888   2.208
 1023TIP3    H2 3034   1.155   3.899   2.264
 1024TIP3   OH2 3035   2.449   0.143   0.686
 1024TIP3    H1 3036   2.404   0.149   0.770
 1024TIP3    H2 3037   2.519   0.079   0.702
 1025TIP3   OH2 3038   3.581   2.664   1.716
 1025TIP3    H1 3039   3.565   2.741   1.661
 1025TIP3    H2 3040   3.531   2.594   1.675
 1026TIP3   OH2 3041   6.459   3.896   0.517
 1026TIP3    H1 3042   6.487   3.873   0.428
 1026TIP3    H2 3043   6.403   3.824   0.544
 1027TIP3   OH2 3044   5.000   3.065   2.414
 1027TIP3    H1 3045   5.022   3.158   2.422
 1027TIP3    H2 3046   5.000   3.033   2.505
 1028TIP3   OH2 3047   2.683   2.923   1.361
 1028TIP3    H1 3048   2.609   2.965   1.316
 1028TIP3    H2 3049   2.671   2.948   1.453
 1029TIP3   OH2 3050   2.674   3.928   4.017
 1029TIP3    H1 3051   2.580   3.937   4.003
 1029TIP3    H2 3052   2.698   3.845   3.976
 1030TIP3   OH2 3053   2.250   5.067   3.179
 1030TIP3    H1 3054   2.232   4.973   3.177
 1030TIP3    H2 3055   2.200   5.103   3.106
 1031TIP3   OH2 3056   7.095   6.625   2.247
 1031TIP3    H1 3057   7.007   6.593   2.267
 1031TIP3    H2 3058   7.127   6.661   2.329
 1032TIP3   OH2 3059   6.306   1.415   0.355
 1032TIP3    H1 3060   6.270   1.382   0.273
 1032TIP3    H2 3061   6.352   1.496   0.330
 1033TIP3   OH2 3062   5.852   5.279   2.997
 1033TIP3    H1 3063   5.828   5.343   2.930
 1033TIP3    H2 3064   5.946   5.294   3.011
 1034TIP3   OH2 3065   4.904   2.632   5.468
 1034TIP3    H1 3066   4.889   2.716   5.511
 1034TIP3    H2 3067   4.862   2.567   5.525
 1035TIP3   OH2 3068   4.502   3.133   1.461
 1035TIP3    H1 3069   4.435   3.125   1.529
 1035TIP3    H2 3070   4.483   3.062   1.399
 1036TIP3   OH2 3071   1.768   5.632   0.651
 1036TIP3    H1 3072   1.820   5.669   0.722
 1036TIP3    H2 3073   1.681   5.670   0.661
 1037TIP3   OH2 3074   4.572   2.920   0.371
 1037TIP3    H1 3075   4.652   2.883   0.334
 1037TIP3    H2 3076   4.513   2.845   0.379
 1038TIP3   OH2 3077   4.362   4.678   0.453
 1038TIP3    H1 3078   4.437   4.719   0.410
 1038TIP3    H2 3079   4.371   4.703   0.545
 1039TIP3   OH2 3080   1.757   2.367   1.961
 1039TIP3    H1 3081   1.666   2.349   1.984
 1039TIP3    H2 3082   1.769   2.460   1.980
 1040TIP3   OH2 3083   2.317   3.964   3.074
 1040TIP3    H1 3084   2.392   3.913   3.042
 1040TIP3    H2 3085   2.309   4.037   3.013
 1041TIP3   OH2 3086   6.206   5.576   0.130
 1041TIP3    H1 3087   6.112   5.560   0.134
 1041TIP3    H2 3088   6.235   5.571   0.221
 1042TIP3   OH2 3089   6.425   5.339   2.074
 1042TIP3    H1 3090   6.469   5.270   2.123
 1042TIP3    H2 3091   6.421   5.413   2.134
 1043TIP3   OH2 3092   2.838   4.158   0.052
 1043TIP3    H1 3093   2.887   4.225   0.004
 1043TIP3    H2 3094   2.790   4.111  -0.016
 1044TIP3   OH2 3095   0.467   1.045   1.644
 1044TIP3    H1 3096   0.493   0.966   1.597
 1044TIP3    H2 3097   0.510   1.117   1.598
 1045TIP3   OH2 3098   6.128   0.916   0.681
 1045TIP3    H1 3099   6.212   0.937   0.721
 1045TIP3    H2 3100   6.149   0.851   0.613
 1046TIP3   OH2 3101   3.298   4.580   3.473
 1046TIP3    H1 3102   3.258   4.515   3.415
 1046TIP3    H2 3103   3.286   4.545   3.561
 1047TIP3   OH2 3104   3.074   0.808   5.419
 1047TIP3    H1 3105   2.978   0.809   5.413
 1047TIP3    H2 3106   3.093   0.848   5.504
 1048TIP3   OH2 3107   6.213   3.465   1.492
 1048TIP3    H1 3108   6.189   3.540   1.437
 1048TIP3    H2 3109   6.129   3.432   1.524
 1049TIP3   OH2 3110   4.189   4.301   5.068
 1049TIP3    H1 3111   4.150   4.236   5.126
 1049TIP3    H2 3112   4.116   4.332   5.014
 1050TIP3   OH2 3113   2.698   4.230   3.437
 1050TIP3    H1 3114   2.777   4.204   3.484
 1050TIP3    H2 3115   2.707   4.190   3.350
 1051TIP3   OH2 3116   5.884   0.629   4.144
 1051TIP3    H1 3117   5.793   0.620   4.115
 1051TIP3    H2 3118   5.933   0.648   4.065
 1052TIP3   OH2 3119   5.516   4.767   4.444
 1052TIP3    H1 3120   5.479   4.790   4.358
 1052TIP3    H2 3121   5.462   4.815   4.507
 1053TIP3   OH2 3122   5.865   5.376   0.610
 1053TIP3    H1 3123   5.789   5.390   0.554
 1053TIP3    H2 3124   5.910   5.460   0.612
 1054TIP3   OH2 3125   2.945   1.539   4.095
 1054TIP3    H1 3126   3.033   1.569   4.071
 1054TIP3    H2 3127   2.896   1.620   4.108
 1055TIP3   OH2 3128   6.691   0.855   0.244
 1055TIP3    H1 3129   6.750   0.814   0.181
 1055TIP3    H2 3130   6.604   0.840   0.208
 1056TIP3   OH2 3131   2.122   5.745   5.217
 1056TIP3    H1 3132   2.050   5.757   5.155
 1056TIP3    H2 3133   2.161   5.832   5.225
 1057TIP3   OH2 3134   4.098   6.471   4.714
 1057TIP3    H1 3135   4.145   6.406   4.661
 1057TIP3    H2 3136   4.167   6.517   4.762
 1058TIP3   OH2 3137   4.313   3.616   2.044
 1058TIP3    H1 3138   4.337   3.705   2.070
 1058TIP3    H2 3139   4.362   3.560   2.103
 1059TIP3   OH2 3140   5.341   1.364   0.155
 1059TIP3    H1 3141   5.357   1.401   0.068
 1059TIP3    H2 3142   5.247   1.375   0.169
 1060TIP3   OH2 3143   5.693   3.973   3.824
 1060TIP3    H1 3144   5.722   4.029   3.752
 1060TIP3    H2 3145   5.598   3.965   3.811
 1061TIP3   OH2 3146   6.298   1.256   4.704
 1061TIP3    H1 3147   6.341   1.304   4.775
 1061TIP3    H2 3148   6.215   1.303   4.691
 1062TIP3   OH2 3149   2.796   6.232   2.382
 1062TIP3    H1 3150   2.749   6.315   2.378
 1062TIP3    H2 3151   2.727   6.166   2.375
 1063TIP3   OH2 3152   5.836   3.087   3.695
 1063TIP3    H1 3153   5.779   3.071   3.771
 1063TIP3    H2 3154   5.875   3.173   3.712
 1064TIP3   OH2 3155   0.857   3.084   0.885
 1064TIP3    H1 3156   0.804   3.031   0.944
 1064TIP3    H2 3157   0.934   3.030   0.867
 1065TIP3   OH2 3158   1.704   5.282   2.908
 1065TIP3    H1 3159   1.710   5.334   2.828
 1065TIP3    H2 3160   1.787   5.235   2.913
 1066TIP3   OH2 3161   7.216   4.698   3.406
 1066TIP3    H1 3162   7.252   4.621   3.361
 1066TIP3    H2 3163   7.122   4.692   3.391
 1067TIP3   OH2 3164   2.138   0.235   3.021
 1067TIP3    H1 3165   2.165   0.318   3.061
 1067TIP3    H2 3166   2.194   0.227   2.944
 1068TIP3   OH2 3167   2.124   1.472   4.942
 1068TIP3    H1 3168   2.139   1.559   4.907
 1068TIP3    H2 3169   2.145   1.479   5.035
 1069TIP3   OH2 3170   2.428   3.839   5.400
 1069TIP3    H1 3171   2.478   3.913   5.367
 1069TIP3    H2 3172   2.372   3.877   5.468
 1070TIP3   OH2 3173   5.863   3.260   0.121
 1070TIP3    H1 3174   5.849   3.171   0.154
 1070TIP3    H2 3175   5.865   3.250   0.026
 1071TIP3   OH2 3176   0.583   5.009   3.123
 1071TIP3    H1 3177   0.632   5.090   3.135
 1071TIP3    H2 3178   0.538   5.020   3.039
 1072TIP3   OH2 3179   5.585   4.946   3.125
 1072TIP3    H1 3180   5.546   4.931   3.211
 1072TIP3    H2 3181   5.576   5.041   3.111
 1073TIP3   OH2 3182   6.125   5.367   4.749
 1073TIP3    H1 3183   6.162   5.365   4.660
 1073TIP3    H2 3184   6.033   5.340   4.737
 1074TIP3   OH2 3185   4.273   0.119   4.908
 1074TIP3    H1 3186   4.288   0.134   5.001
 1074TIP3    H2 3187   4.299   0.201   4.866
 1075TIP3   OH2 3188   2.386   4.804   0.535
 1075TIP3    H1 3189   2.444   4.830   0.463
 1075TIP3    H2 3190   2.433   4.733   0.579
 1076TIP3   OH2 3191   5.952   1.727   1.233
 1076TIP3    H1 3192   5.905   1.766   1.307
 1076TIP3    H2 3193   5.992   1.801   1.188
 1077TIP3   OH2 3194   4.605   0.227   2.047
 1077TIP3    H1 3195   4.667   0.157   2.070
 1077TIP3    H2 3196   4.584   0.211   1.955
 1078TIP3   OH2 3197   0.855   0.982   5.203
 1078TIP3    H1 3198   0.892   1.043   5.139
 1078TIP3    H2 3199   0.900   0.900   5.187
 1079TIP3   OH2 3200   0.726   5.812   3.492
 1079TIP3    H1 3201   0.817   5.802   3.522
 1079TIP3    H2 3202   0.734   5.845   3.403
 1080TIP3   OH2 3203   5.993   2.912   1.832
 1080TIP3    H1 3204   5.924   2.924   1.897
 1080TIP3    H2 3205   5.947   2.910   1.748
 1081TIP3   OH2 3206   1.281   3.539   2.880
 1081TIP3    H1 3207   1.289   3.553   2.974
 1081TIP3    H2 3208   1.249   3.450   2.872
 1082TIP3   OH2 3209   1.849   1.306   1.299
 1082TIP3    H1 3210   1.784   1.300   1.229
 1082TIP3    H2 3211   1.826   1.235   1.359
 1083TIP3   OH2 3212   5.870   2.956   0.535
 1083TIP3    H1 3213   5.954   2.912   0.546
 1083TIP3    H2 3214   5.891   3.050   0.539
 1084TIP3   OH2 3215   6.683   4.570   3.398
 1084TIP3    H1 3216   6.773   4.599   3.384
 1084TIP3    H2 3217   6.630   4.627   3.342
 1085TIP3   OH2 3218   0.276   4.041   3.281
 1085TIP3    H1 3219   0.305   4.126   3.314
 1085TIP3    H2 3220   0.183   4.052   3.265
 1086TIP3   OH2 3221   3.568   2.099   3.141
 1086TIP3    H1 3222   3.593   2.149   3.064
 1086TIP3    H2 3223   3.525   2.162   3.198
 1087TIP3   OH2 3224   6.190   5.841   1.487
 1087TIP3    H1 3225   6.168   5.905   1.419
 1087TIP3    H2 3226   6.149   5.760   1.457
 1088TIP3   OH2 3227   6.439   6.176   4.353
 1088TIP3    H1 3228   6.480   6.134   4.429
 1088TIP3    H2 3229   6.453   6.114   4.281
 1089TIP3   OH2 3230   2.101   5.613   0.096
 1089TIP3    H1 3231   2.107   5.560   0.016
 1089TIP3    H2 3232   2.121   5.702   0.067
 1090TIP3   OH2 3233   4.636   1.085   3.753
 1090TIP3    H1 3234   4.671   1.170   3.725
 1090TIP3    H2 3235   4.541   1.099   3.756
 1091TIP3   OH2 3236   6.644   5.403   4.846
 1091TIP3    H1 3237   6.589   5.479   4.866
 1091TIP3    H2 3238   6.642   5.396   4.751
 1092TIP3   OH2 3239   3.662   4.550   2.538
 1092TIP3    H1 3240   3.733   4.605   2.570
 1092TIP3    H2 3241   3.705   4.469   2.511
 1093TIP3   OH2 3242   2.313   3.480   4.537
 1093TIP3    H1 3243   2.239   3.509   4.483
 1093TIP3    H2 3244   2.324   3.548   4.603
 1094TIP3   OH2 3245   5.612   3.020   3.457
 1094TIP3    H1 3246   5.701   3.039   3.486
 1094TIP3    H2 3247   5.603   3.068   3.374
 1095TIP3   OH2 3248   5.803   5.875   2.581
 1095TIP3    H1 3249   5.738   5.927   2.533
 1095TIP3    H2 3250   5.805   5.791   2.536
 1096TIP3   OH2 3251   1.343   4.951   2.002
 1096TIP3    H1 3252   1.435   4.923   2.000
 1096TIP3    H2 3253   1.297   4.882   1.954
 1097TIP3   OH2 3254   2.099   0.100   1.366
 1097TIP3    H1 3255   2.039   0.027   1.383
 1097TIP3    H2 3256   2.159   0.100   1.441
 1098TIP3   OH2 3257   6.036   3.682   5.070
 1098TIP3    H1 3258   6.010   3.590   5.060
 1098TIP3    H2 3259   5.990   3.711   5.149
 1099TIP3   OH2 3260   3.755   1.157   4.489
 1099TIP3    H1 3261   3.846   1.187   4.489
 1099TIP3    H2 3262   3.735   1.138   4.581
 1100TIP3   OH2 3263   5.268   4.212   1.216
 1100TIP3    H1 3264   5.221   4.196   1.134
 1100TIP3    H2 3265   5.224   4.287   1.255
 1101TIP3   OH2 3266   3.416   1.523   2.984
 1101TIP3    H1 3267   3.492   1.581   2.991
 1101TIP3    H2 3268   3.453   1.435   2.995
 1102TIP3   OH2 3269   2.961   0.177   2.715
 1102TIP3    H1 3270   2.885   0.225   2.683
 1102TIP3    H2 3271   2.931   0.086   2.720
 1103TIP3   OH2 3272   5.097   4.590   4.856
 1103TIP3    H1 3273   5.045   4.625   4.929
 1103TIP3    H2 3274   5.032   4.570   4.788
 1104TIP3   OH2 3275   0.609   6.157   3.198
 1104TIP3    H1 3276   0.537   6.115   3.246
 1104TIP3    H2 3277   0.657   6.205   3.266
 1105TIP3   OH2 3278   4.535   0.510   5.624
 1105TIP3    H1 3279   4.449   0.517   5.666
 1105TIP3    H2 3280   4.535   0.579   5.558
 1106TIP3   OH2 3281   4.062   4.227   2.974
 1106TIP3    H1 3282   3.968   4.223   2.991
 1106TIP3    H2 3283   4.072   4.291   2.904
 1107TIP3   OH2 3284   2.769   2.379   4.942
 1107TIP3    H1 3285   2.852   2.406   4.982
 1107TIP3    H2 3286   2.796   2.329   4.864
 1108TIP3   OH2 3287   2.061   4.212   4.506
 1108TIP3    H1 3288   2.141   4.254   4.473
 1108TIP3    H2 3289   2.005   4.286   4.530
 1109TIP3   OH2 3290   0.890   5.495   3.091
 1109TIP3    H1 3291   0.870   5.422   3.150
 1109TIP3    H2 3292   0.924   5.563   3.149
 1110TIP3   OH2 3293   4.308   6.100   3.946
 1110TIP3    H1 3294   4.257   6.090   3.866
 1110TIP3    H2 3295   4.367   6.025   3.946
 1111TIP3   OH2 3296   1.567   0.870   5.184
 1111TIP3    H1 3297   1.511   0.928   5.236
 1111TIP3    H2 3298   1.539   0.781   5.208
 1112TIP3   OH2 3299   2.936   0.241   1.943
 1112TIP3    H1 3300   2.926   0.151   1.973
 1112TIP3    H2 3301   2.904   0.241   1.853
 1113TIP3   OH2 3302   4.945   2.232   1.320
 1113TIP3    H1 3303   5.021   2.279   1.354
 1113TIP3    H2 3304   4.910   2.289   1.251
 1114TIP3   OH2 3305   5.145   1.642   2.719
 1114TIP3    H1 3306   5.099   1.726   2.729
 1114TIP3    H2 3307   5.094   1.581   2.774
 1115TIP3   OH2 3308   2.456   4.534   4.341
 1115TIP3    H1 3309   2.510   4.602   4.300
 1115TIP3    H2 3310   2.500   4.516   4.424
 1116TIP3   OH2 3311   2.295   3.435   2.895
 1116TIP3    H1 3312   2.300   3.376   2.970
 1116TIP3    H2 3313   2.378   3.423   2.849
 1117TIP3   OH2 3314   1.312   2.167   5.701
 1117TIP3    H1 3315   1.242   2.139   5.643
 1117TIP3    H2 3316   1.271   2.230   5.761
 1118TIP3   OH2 3317   1.155   2.527   1.748
 1118TIP3    H1 3318   1.138   2.465   1.678
 1118TIP3    H2 3319   1.075   2.579   1.755
 1119TIP3   OH2 3320   0.556   3.209   2.851
 1119TIP3    H1 3321   0.548   3.142   2.919
 1119TIP3    H2 3322   0.467   3.224   2.820
 1120TIP3   OH2 3323   6.187   2.551   5.244
 1120TIP3    H1 3324   6.143   2.467   5.259
 1120TIP3    H2 3325   6.280   2.528   5.232
 1121TIP3   OH2 3326   6.018   6.714   1.767
 1121TIP3    H1 3327   6.113   6.710   1.756
 1121TIP3    H2 3328   6.005   6.774   1.841
 1122TIP3   OH2 3329   5.582   5.550   4.705
 1122TIP3    H1 3330   5.610   5.465   4.737
 1122TIP3    H2 3331   5.659   5.606   4.714
 1123TIP3   OH2 3332   1.947   0.130   2.457
 1123TIP3    H1 3333   1.938   0.115   2.363
 1123TIP3    H2 3334   2.021   0.076   2.484
 1124TIP3   OH2 3335   3.539   3.221   5.054
 1124TIP3    H1 3336   3.449   3.237   5.027
 1124TIP3    H2 3337   3.593   3.256   4.983
 1125TIP3   OH2 3338   2.520   1.498   4.856
 1125TIP3    H1 3339   2.577   1.435   4.811
 1125TIP3    H2 3340   2.564   1.514   4.940
 1126TIP3   OH2 3341   2.379   0.680   4.448
 1126TIP3    H1 3342   2.287   0.659   4.469
 1126TIP3    H2 3343   2.373   0.754   4.388
 1127TIP3   OH2 3344   5.506   0.253   0.623
 1127TIP3    H1 3345   5.519   0.338   0.664
 1127TIP3    H2 3346   5.589   0.206   0.639
 1128TIP3   OH2 3347   1.327   0.131   0.631
 1128TIP3    H1 3348   1.263   0.156   0.564
 1128TIP3    H2 3349   1.307   0.188   0.705
 1129TIP3   OH2 3350   4.364   1.513   3.234
 1129TIP3    H1 3351   4.335   1.555   3.315
 1129TIP3    H2 3352   4.284   1.496   3.186
 1130TIP3   OH2 3353   0.462   0.694   4.021
 1130TIP3    H1 3354   0.415   0.657   4.095
 1130TIP3    H2 3355   0.553   0.696   4.048
 1131TIP3   OH2 3356   4.690   2.830   0.018
 1131TIP3    H1 3357   4.703   2.736   0.015
 1131TIP3    H2 3358   4.602   2.841   0.055
 1132TIP3   OH2 3359   3.495   1.845   2.820
 1132TIP3    H1 3360   3.513   1.915   2.884
 1132TIP3    H2 3361   3.422   1.878   2.768
 1133TIP3   OH2 3362   5.514   0.503   5.266
 1133TIP3    H1 3363   5.539   0.467   5.351
 1133TIP3    H2 3364   5.516   0.598   5.278
 1134TIP3   OH2 3365   4.135   5.985   0.786
 1134TIP3    H1 3366   4.159   5.949   0.700
 1134TIP3    H2 3367   4.210   5.963   0.842
 1135TIP3   OH2 3368   4.529   3.012   3.336
 1135TIP3    H1 3369   4.483   2.980   3.414
 1135TIP3    H2 3370   4.557   3.100   3.360
 1136TIP3   OH2 3371   1.879   4.738   5.207
 1136TIP3    H1 3372   1.922   4.654   5.219
 1136TIP3    H2 3373   1.949   4.797   5.180
 1137TIP3   OH2 3374   2.001   4.620   3.788
 1137TIP3    H1 3375   2.010   4.588   3.878
 1137TIP3    H2 3376   2.082   4.670   3.772
 1138TIP3   OH2 3377   5.849   1.731   2.085
 1138TIP3    H1 3378   5.850   1.826   2.080
 1138TIP3    H2 3379   5.756   1.709   2.094
 1139TIP3   OH2 3380   2.814   2.343   5.693
 1139TIP3    H1 3381   2.773   2.257   5.703
 1139TIP3    H2 3382   2.879   2.330   5.623
 1140TIP3   OH2 3383   7.252   0.330   1.311
 1140TIP3    H1 3384   7.205   0.297   1.235
 1140TIP3    H2 3385   7.202   0.406   1.340
 1141TIP3   OH2 3386   0.515   5.814   4.786
 1141TIP3    H1 3387   0.543   5.883   4.726
 1141TIP3    H2 3388   0.583   5.811   4.853
 1142TIP3   OH2 3389   4.947   3.492   0.789
 1142TIP3    H1 3390   4.961   3.405   0.827
 1142TIP3    H2 3391   5.019   3.503   0.728
 1143TIP3   OH2 3392   1.247   3.892   0.533
 1143TIP3    H1 3393   1.300   3.813   0.524
 1143TIP3    H2 3394   1.301   3.961   0.494
 1144TIP3   OH2 3395   0.702   1.447   2.306
 1144TIP3    H1 3396   0.696   1.353   2.324
 1144TIP3    H2 3397   0.701   1.453   2.211
 1145TIP3   OH2 3398   1.374   2.754   5.635
 1145TIP3    H1 3399   1.356   2.801   5.716
 1145TIP3    H2 3400   1.292   2.712   5.612
 1146TIP3   OH2 3401   0.075   3.866   4.960
 1146TIP3    H1 3402   0.102   3.786   4.916
 1146TIP3    H2 3403  -0.009   3.845   5.001
 1147TIP3   OH2 3404   7.141   2.650   0.118
 1147TIP3    H1 3405   7.138   2.586   0.189
 1147TIP3    H2 3406   7.231   2.647   0.086
 1148TIP3   OH2 3407   2.284   3.149   4.682
 1148TIP3    H1 3408   2.378   3.138   4.692
 1148TIP3    H2 3409   2.274   3.195   4.598
 1149TIP3   OH2 3410   2.714   5.773   3.341
 1149TIP3    H1 3411   2.786   5.719   3.373
 1149TIP3    H2 3412   2.652   5.776   3.414
 1150TIP3   OH2 3413   3.190   3.462   5.288
 1150TIP3    H1 3414   3.119   3.454   5.351
 1150TIP3    H2 3415   3.160   3.530   5.227
 1151TIP3   OH2 3416   2.491   3.385   0.916
 1151TIP3    H1 3417   2.424   3.336   0.964
 1151TIP3    H2 3418   2.513   3.330   0.841
 1152TIP3   OH2 3419   0.364   3.452   3.391
 1152TIP3    H1 3420   0.278   3.409   3.397
 1152TIP3    H2 3421   0.426   3.380   3.381
 1153TIP3   OH2 3422   6.675   1.630   3.582
 1153TIP3    H1 3423   6.707   1.721   3.585
 1153TIP3    H2 3424   6.580   1.639   3.580
 1154TIP3   OH2 3425   4.427   5.526   1.801
 1154TIP3    H1 3426   4.515   5.564   1.811
 1154TIP3    H2 3427   4.381   5.588   1.745
 1155TIP3   OH2 3428   3.640   3.348   1.043
 1155TIP3    H1 3429   3.638   3.255   1.065
 1155TIP3    H2 3430   3.551   3.368   1.014
 1156TIP3   OH2 3431   6.830   1.840   0.606
 1156TIP3    H1 3432   6.861   1.898   0.536
 1156TIP3    H2 3433   6.906   1.787   0.629
 1157TIP3   OH2 3434   1.895   1.235   4.077
 1157TIP3    H1 3435   1.903   1.331   4.076
 1157TIP3    H2 3436   1.946   1.208   4.154
 1158TIP3   OH2 3437   5.094   4.983   3.996
 1158TIP3    H1 3438   5.151   5.035   4.052
 1158TIP3    H2 3439   5.006   4.993   4.033
 1159TIP3   OH2 3440   0.519   6.168   2.273
 1159TIP3    H1 3441   0.454   6.106   2.307
 1159TIP3    H2 3442   0.529   6.144   2.181
 1160TIP3   OH2 3443   1.810   2.059   4.930
 1160TIP3    H1 3444   1.824   2.091   4.841
 1160TIP3    H2 3445   1.869   1.984   4.939
 1161TIP3   OH2 3446   3.797   2.311   0.519
 1161TIP3    H1 3447   3.839   2.330   0.602
 1161TIP3    H2 3448   3.808   2.392   0.468
 1162TIP3   OH2 3449   4.339   4.653   0.153
 1162TIP3    H1 3450   4.264   4.606   0.117
 1162TIP3    H2 3451   4.303   4.736   0.183
 1163TIP3   OH2 3452   6.234   0.150   1.116
 1163TIP3    H1 3453   6.269   0.234   1.089
 1163TIP3    H2 3454   6.305   0.088   1.101
 1164TIP3   OH2 3455   4.515   4.925   4.449
 1164TIP3    H1 3456   4.559   4.992   4.396
 1164TIP3    H2 3457   4.453   4.884   4.388
 1165TIP3   OH2 3458   2.165   2.996   0.154
 1165TIP3    H1 3459   2.142   3.080   0.194
 1165TIP3    H2 3460   2.090   2.976   0.098
 1166TIP3   OH2 3461   0.381   1.671   5.655
 1166TIP3    H1 3462   0.384   1.659   5.750
 1166TIP3    H2 3463   0.415   1.589   5.619
 1167TIP3   OH2 3464   0.575   2.673   1.311
 1167TIP3    H1 3465   0.605   2.638   1.395
 1167TIP3    H2 3466   0.517   2.745   1.334
 1168TIP3   OH2 3467   0.922   2.980   3.468
 1168TIP3    H1 3468   0.978   3.054   3.444
 1168TIP3    H2 3469   0.984   2.910   3.489
 1169TIP3   OH2 3470   2.783   0.764   5.393
 1169TIP3    H1 3471   2.798   0.851   5.430
 1169TIP3    H2 3472   2.694   0.767   5.359
 1170TIP3   OH2 3473   5.921   6.470   1.224
 1170TIP3    H1 3474   5.963   6.447   1.142
 1170TIP3    H2 3475   5.989   6.514   1.275
 1171TIP3   OH2 3476   5.595   0.638   2.629
 1171TIP3    H1 3477   5.577   0.632   2.723
 1171TIP3    H2 3478   5.528   0.583   2.589
 1172TIP3   OH2 3479   3.568   4.054   1.607
 1172TIP3    H1 3480   3.587   4.144   1.581
 1172TIP3    H2 3481   3.508   4.062   1.681
 1173TIP3   OH2 3482   4.966   2.237   5.809
 1173TIP3    H1 3483   5.006   2.310   5.855
 1173TIP3    H2 3484   4.888   2.275   5.767
 1174TIP3   OH2 3485   3.106   0.673   1.963
 1174TIP3    H1 3486   3.063   0.654   1.880
 1174TIP3    H2 3487   3.071   0.759   1.989
 1175TIP3   OH2 3488   6.069   5.152   4.056
 1175TIP3    H1 3489   6.097   5.243   4.045
 1175TIP3    H2 3490   6.100   5.127   4.143
 1176TIP3   OH2 3491   1.762   5.199   5.470
 1176TIP3    H1 3492   1.748   5.193   5.564
 1176TIP3    H2 3493   1.750   5.109   5.439
 1177TIP3   OH2 3494   2.189   0.908   4.597
 1177TIP3    H1 3495   2.250   0.936   4.528
 1177TIP3    H2 3496   2.141   0.834   4.558
 1178TIP3   OH2 3497   3.914   4.128   2.572
 1178TIP3    H1 3498   3.980   4.096   2.634
 1178TIP3    H2 3499   3.930   4.077   2.492
 1179TIP3   OH2 3500   5.134   3.536   2.945
 1179TIP3    H1 3501   5.167   3.567   3.030
 1179TIP3    H2 3502   5.201   3.474   2.915
 1180TIP3   OH2 3503   2.872   4.983   3.824
 1180TIP3    H1 3504   2.851   5.039   3.898
 1180TIP3    H2 3505   2.896   5.044   3.754
 1181TIP3   OH2 3506   6.886   0.614   0.409
 1181TIP3    H1 3507   6.955   0.615   0.343
 1181TIP3    H2 3508   6.813   0.569   0.367
 1182TIP3   OH2 3509   2.553   3.901   0.838
 1182TIP3    H1 3510   2.534   3.810   0.813
 1182TIP3    H2 3511   2.534   3.904   0.932
 1183TIP3   OH2 3512   4.002   6.469   3.545
 1183TIP3    H1 3513   3.943   6.451   3.472
 1183TIP3    H2 3514   3.946   6.470   3.622
 1184TIP3   OH2 3515   7.073   0.834   2.217
 1184TIP3    H1 3516   7.017   0.907   2.241
 1184TIP3    H2 3517   7.041   0.806   2.131
 1185TIP3   OH2 3518   4.955   4.548   1.645
 1185TIP3    H1 3519   4.912   4.462   1.648
 1185TIP3    H2 3520   4.929   4.590   1.728
 1186TIP3   OH2 3521   3.970   0.770   4.841
 1186TIP3    H1 3522   4.066   0.768   4.843
 1186TIP3    H2 3523   3.944   0.687   4.881
 1187TIP3   OH2 3524   4.071   5.927   2.324
 1187TIP3    H1 3525   3.997   5.868   2.307
 1187TIP3    H2 3526   4.032   6.004   2.365
 1188TIP3   OH2 3527   5.719   2.726   0.562
 1188TIP3    H1 3528   5.629   2.747   0.537
 1188TIP3    H2 3529   5.769   2.805   0.541
 1189TIP3   OH2 3530   3.097   2.230   0.465
 1189TIP3    H1 3531   3.184   2.210   0.431
 1189TIP3    H2 3532   3.060   2.292   0.402
 1190TIP3   OH2 3533   2.341   1.511   0.963
 1190TIP3    H1 3534   2.276   1.577   0.988
 1190TIP3    H2 3535   2.357   1.461   1.044
 1191TIP3   OH2 3536   3.174   2.759   2.346
 1191TIP3    H1 3537   3.239   2.744   2.414
 1191TIP3    H2 3538   3.215   2.822   2.287
 1192TIP3   OH2 3539   6.598   5.795   1.830
 1192TIP3    H1 3540   6.504   5.799   1.845
 1192TIP3    H2 3541   6.625   5.712   1.868
 1193TIP3   OH2 3542   5.233   1.777   0.590
 1193TIP3    H1 3543   5.265   1.865   0.567
 1193TIP3    H2 3544   5.252   1.769   0.683
 1194TIP3   OH2 3545   4.589   2.157   0.663
 1194TIP3    H1 3546   4.632   2.196   0.738
 1194TIP3    H2 3547   4.659   2.147   0.598
 1195TIP3   OH2 3548   5.404   0.666   3.794
 1195TIP3    H1 3549   5.344   0.654   3.868
 1195TIP3    H2 3550   5.346   0.689   3.721
 1196TIP3   OH2 3551   5.480   1.899   4.645
 1196TIP3    H1 3552   5.525   1.863   4.722
 1196TIP3    H2 3553   5.455   1.987   4.672
 1197TIP3   OH2 3554   5.754   5.677   5.604
 1197TIP3    H1 3555   5.701   5.606   5.567
 1197TIP3    H2 3556   5.729   5.755   5.554
 1198TIP3   OH2 3557   1.069   0.713   4.832
 1198TIP3    H1 3558   1.106   0.626   4.820
 1198TIP3    H2 3559   1.123   0.770   4.779
 1199TIP3   OH2 3560   0.278   5.611   1.330
 1199TIP3    H1 3561   0.258   5.675   1.399
 1199TIP3    H2 3562   0.223   5.637   1.257
 1200TIP3   OH2 3563   7.133   5.602   3.780
 1200TIP3    H1 3564   7.045   5.602   3.817
 1200TIP3    H2 3565   7.167   5.690   3.797
 1201TIP3   OH2 3566   4.371   1.229   2.389
 1201TIP3    H1 3567   4.321   1.157   2.429
 1201TIP3    H2 3568   4.358   1.217   2.295
 1202TIP3   OH2 3569   5.973   2.536   1.215
 1202TIP3    H1 3570   5.974   2.536   1.119
 1202TIP3    H2 3571   5.935   2.620   1.238
 1203TIP3   OH2 3572   5.908   4.948   0.811
 1203TIP3    H1 3573   5.953   4.874   0.770
 1203TIP3    H2 3574   5.833   4.908   0.855
 1204TIP3   OH2 3575   3.995   2.946   1.891
 1204TIP3    H1 3576   4.049   2.883   1.844
 1204TIP3    H2 3577   4.052   3.022   1.905
 1205TIP3   OH2 3578   1.117   3.508   5.294
 1205TIP3    H1 3579   1.076   3.503   5.380
 1205TIP3    H2 3580   1.044   3.502   5.232
 1206TIP3   OH2 3581   1.644   4.233   0.417
 1206TIP3    H1 3582   1.706   4.160   0.421
 1206TIP3    H2 3583   1.666   4.288   0.493
 1207TIP3   OH2 3584   3.528   2.923   5.595
 1207TIP3    H1 3585   3.552   2.833   5.618
 1207TIP3    H2 3586   3.559   2.934   5.505
 1208TIP3   OH2 3587   3.972   1.864   2.355
 1208TIP3    H1 3588   3.890   1.864   2.404
 1208TIP3    H2 3589   3.961   1.795   2.289
 1209TIP3   OH2 3590   6.174   4.531   0.261
 1209TIP3    H1 3591   6.229   4.539   0.339
 1209TIP3    H2 3592   6.138   4.443   0.266
 1210TIP3   OH2 3593   4.709   4.956   1.341
 1210TIP3    H1 3594   4.775   4.993   1.282
 1210TIP3    H2 3595   4.672   5.031   1.386
 1211TIP3   OH2 3596   2.680   1.768   2.530
 1211TIP3    H1 3597   2.662   1.723   2.613
 1211TIP3    H2 3598   2.701   1.698   2.468
 1212TIP3   OH2 3599   6.785   0.397   3.622
 1212TIP3    H1 3600   6.808   0.489   3.612
 1212TIP3    H2 3601   6.778   0.364   3.533
 1213TIP3   OH2 3602   6.665   6.024   5.660
 1213TIP3    H1 3603   6.750   6.066   5.650
 1213TIP3    H2 3604   6.681   5.932   5.639
 1214TIP3   OH2 3605   0.970   5.491   3.621
 1214TIP3    H1 3606   0.980   5.484   3.716
 1214TIP3    H2 3607   1.054   5.526   3.590
 1215TIP3   OH2 3608   5.558   3.542   1.155
 1215TIP3    H1 3609   5.528   3.453   1.172
 1215TIP3    H2 3610   5.601   3.569   1.237
 1216TIP3   OH2 3611   1.097   1.192   5.261
 1216TIP3    H1 3612   1.138   1.111   5.290
 1216TIP3    H2 3613   1.161   1.260   5.283
 1217TIP3   OH2 3614   6.411   1.708   1.113
 1217TIP3    H1 3615   6.373   1.761   1.182
 1217TIP3    H2 3616   6.362   1.731   1.034
 1218TIP3   OH2 3617   3.843   3.792   3.798
 1218TIP3    H1 3618   3.909   3.767   3.733
 1218TIP3    H2 3619   3.858   3.886   3.813
 1219TIP3   OH2 3620   4.240   0.871   4.898
 1219TIP3    H1 3621   4.165   0.930   4.907
 1219TIP3    H2 3622   4.294   0.911   4.830
 1220TIP3   OH2 3623   6.582   0.157   0.794
 1220TIP3    H1 3624   6.509   0.210   0.764
 1220TIP3    H2 3625   6.550   0.067   0.791
 1221TIP3   OH2 3626   5.244   1.898   3.858
 1221TIP3    H1 3627   5.193   1.847   3.921
 1221TIP3    H2 3628   5.206   1.875   3.773
 1222TIP3   OH2 3629   1.266   0.162   4.073
 1222TIP3    H1 3630   1.175   0.144   4.050
 1222TIP3    H2 3631   1.260   0.220   4.149
 1223TIP3   OH2 3632   4.597   0.519   3.861
 1223TIP3    H1 3633   4.600   0.604   3.904
 1223TIP3    H2 3634   4.602   0.540   3.767
 1224TIP3   OH2 3635   4.548   0.776   3.264
 1224TIP3    H1 3636   4.482   0.708   3.281
 1224TIP3    H2 3637   4.539   0.796   3.171
 1225TIP3   OH2 3638   6.051   6.628   3.617
 1225TIP3    H1 3639   6.010   6.569   3.554
 1225TIP3    H2 3640   6.042   6.715   3.578
 1226TIP3   OH2 3641   3.903   5.388   5.654
 1226TIP3    H1 3642   3.966   5.439   5.704
 1226TIP3    H2 3643   3.940   5.300   5.650
 1227TIP3   OH2 3644   0.079   1.565   5.058
 1227TIP3    H1 3645   0.088   1.552   4.963
 1227TIP3    H2 3646   0.040   1.652   5.065
 1228TIP3   OH2 3647   4.804   4.678   2.840
 1228TIP3    H1 3648   4.756   4.717   2.913
 1228TIP3    H2 3649   4.773   4.726   2.763
 1229TIP3   OH2 3650   2.029   1.947   4.493
 1229TIP3    H1 3651   2.113   1.905   4.475
 1229TIP3    H2 3652   2.008   1.995   4.413
 1230TIP3   OH2 3653   5.697   1.036   5.114
 1230TIP3    H1 3654   5.744   1.099   5.168
 1230TIP3    H2 3655   5.649   1.089   5.051
 1231TIP3   OH2 3656   1.881   2.210   0.871
 1231TIP3    H1 3657   1.848   2.284   0.922
 1231TIP3    H2 3658   1.850   2.133   0.919
 1232TIP3   OH2 3659   0.200   2.991   4.750
 1232TIP3    H1 3660   0.150   3.040   4.815
 1232TIP3    H2 3661   0.136   2.969   4.682
 1233TIP3   OH2 3662   7.059   4.963   0.130
 1233TIP3    H1 3663   6.966   4.975   0.150
 1233TIP3    H2 3664   7.104   4.972   0.214
 1234TIP3   OH2 3665   5.745   6.422   4.552
 1234TIP3    H1 3666   5.747   6.404   4.646
 1234TIP3    H2 3667   5.833   6.453   4.532
 1235TIP3   OH2 3668   1.473   0.971   4.244
 1235TIP3    H1 3669   1.523   0.960   4.325
 1235TIP3    H2 3670   1.520   0.918   4.180
 1236TIP3   OH2 3671   3.089   1.067   0.715
 1236TIP3    H1 3672   3.152   1.011   0.669
 1236TIP3    H2 3673   3.056   1.126   0.648
 1237TIP3   OH2 3674   1.767   3.699   5.042
 1237TIP3    H1 3675   1.711   3.775   5.055
 1237TIP3    H2 3676   1.807   3.684   5.127
 1238TIP3   OH2 3677   4.960   4.499   0.467
 1238TIP3    H1 3678   4.887   4.552   0.499
 1238TIP3    H2 3679   4.951   4.416   0.514
 1239TIP3   OH2 3680   5.620   5.215   0.576
 1239TIP3    H1 3681   5.592   5.144   0.634
 1239TIP3    H2 3682   5.551   5.281   0.584
 1240TIP3   OH2 3683   3.074   4.139   4.097
 1240TIP3    H1 3684   3.039   4.061   4.054
 1240TIP3    H2 3685   2.996   4.183   4.133
 1241TIP3   OH2 3686   2.486   1.880   2.805
 1241TIP3    H1 3687   2.559   1.837   2.761
 1241TIP3    H2 3688   2.413   1.818   2.795
 1242TIP3   OH2 3689   4.321   1.216   5.542
 1242TIP3    H1 3690   4.240   1.180   5.505
 1242TIP3    H2 3691   4.304   1.221   5.636
 1243TIP3   OH2 3692   4.814   2.060   2.900
 1243TIP3    H1 3693   4.784   2.094   2.985
 1243TIP3    H2 3694   4.847   2.138   2.854
 1244TIP3   OH2 3695   6.738   0.185   0.530
 1244TIP3    H1 3696   6.665   0.187   0.468
 1244TIP3    H2 3697   6.699   0.163   0.614
 1245TIP3   OH2 3698   6.157   3.190   3.659
 1245TIP3    H1 3699   6.193   3.269   3.619
 1245TIP3    H2 3700   6.156   3.126   3.587
 1246TIP3   OH2 3701   3.148   0.442   4.973
 1246TIP3    H1 3702   3.090   0.517   4.982
 1246TIP3    H2 3703   3.091   0.366   4.976
 1247TIP3   OH2 3704   2.848   4.208   3.905
 1247TIP3    H1 3705   2.845   4.123   3.862
 1247TIP3    H2 3706   2.780   4.203   3.972
 1248TIP3   OH2 3707   6.610   2.139   1.800
 1248TIP3    H1 3708   6.610   2.081   1.876
 1248TIP3    H2 3709   6.548   2.209   1.823
 1249TIP3   OH2 3710   0.049   5.818   5.083
 1249TIP3    H1 3711  -0.040   5.846   5.063
 1249TIP3    H2 3712   0.042   5.724   5.098
 1250TIP3   OH2 3713   4.756   1.243   3.177
 1250TIP3    H1 3714   4.786   1.153   3.186
 1250TIP3    H2 3715   4.752   1.257   3.082
 1251TIP3   OH2 3716   4.620   3.498   0.735
 1251TIP3    H1 3717   4.618   3.469   0.644
 1251TIP3    H2 3718   4.705   3.467   0.768
 1252TIP3   OH2 3719   4.516   5.019   3.926
 1252TIP3    H1 3720   4.452   4.956   3.892
 1252TIP3    H2 3721   4.540   5.072   3.850
 1253TIP3   OH2 3722   3.575   1.122   1.641
 1253TIP3    H1 3723   3.581   1.032   1.608
 1253TIP3    H2 3724   3.489   1.126   1.683
 1254TIP3   OH2 3725   0.939   5.376   3.378
 1254TIP3    H1 3726   0.866   5.430   3.348
 1254TIP3    H2 3727   0.966   5.416   3.460
 1255TIP3   OH2 3728   5.449   3.839   2.756
 1255TIP3    H1 3729   5.463   3.925   2.715
 1255TIP3    H2 3730   5.355   3.838   2.777
 1256TIP3   OH2 3731   1.816   6.529   2.279
 1256TIP3    H1 3732   1.874   6.603   2.298
 1256TIP3    H2 3733   1.855   6.456   2.327
 1257TIP3   OH2 3734   6.664   1.918   1.103
 1257TIP3    H1 3735   6.643   2.011   1.113
 1257TIP3    H2 3736   6.628   1.894   1.018
 1258TIP3   OH2 3737   5.489   3.528   5.134
 1258TIP3    H1 3738   5.524   3.493   5.052
 1258TIP3    H2 3739   5.463   3.618   5.112
 1259TIP3   OH2 3740   3.686   0.219   3.943
 1259TIP3    H1 3741   3.645   0.140   3.909
 1259TIP3    H2 3742   3.618   0.260   3.997
 1260TIP3   OH2 3743   3.566   3.669   3.198
 1260TIP3    H1 3744   3.492   3.652   3.257
 1260TIP3    H2 3745   3.593   3.759   3.217
 1261TIP3   OH2 3746   3.671   5.877   1.592
 1261TIP3    H1 3747   3.664   5.965   1.629
 1261TIP3    H2 3748   3.622   5.882   1.510
 1262TIP3   OH2 3749   1.938   1.674   2.550
 1262TIP3    H1 3750   2.019   1.625   2.539
 1262TIP3    H2 3751   1.944   1.713   2.637
 1263TIP3   OH2 3752   0.788   1.281   5.750
 1263TIP3    H1 3753   0.868   1.256   5.704
 1263TIP3    H2 3754   0.805   1.259   5.841
 1264TIP3   OH2 3755   5.748   5.287   3.834
 1264TIP3    H1 3756   5.817   5.353   3.835
 1264TIP3    H2 3757   5.687   5.315   3.902
 1265TIP3   OH2 3758   2.251   0.745   0.217
 1265TIP3    H1 3759   2.226   0.772   0.306
 1265TIP3    H2 3760   2.346   0.732   0.222
 1266TIP3   OH2 3761   3.749   3.569   1.888
 1266TIP3    H1 3762   3.712   3.653   1.859
 1266TIP3    H2 3763   3.814   3.547   1.823
 1267TIP3   OH2 3764   4.762   2.153   4.545
 1267TIP3    H1 3765   4.795   2.124   4.630
 1267TIP3    H2 3766   4.833   2.133   4.484
 1268TIP3   OH2 3767   6.890   5.959   5.264
 1268TIP3    H1 3768   6.814   5.984   5.317
 1268TIP3    H2 3769   6.909   5.869   5.290
 1269TIP3   OH2 3770   3.850   1.535   3.553
 1269TIP3    H1 3771   3.936   1.533   3.511
 1269TIP3    H2 3772   3.842   1.450   3.596
 1270TIP3   OH2 3773   0.798   5.564   2.851
 1270TIP3    H1 3774   0.820   5.541   2.942
 1270TIP3    H2 3775   0.798   5.659   2.850
 1271TIP3   OH2 3776   5.826   5.624   2.455
 1271TIP3    H1 3777   5.763   5.561   2.492
 1271TIP3    H2 3778   5.896   5.629   2.520
 1272TIP3   OH2 3779   5.336   0.050   0.553
 1272TIP3    H1 3780   5.407   0.113   0.554
 1272TIP3    H2 3781   5.266   0.092   0.503
 1273TIP3   OH2 3782   1.062   2.111   0.145
 1273TIP3    H1 3783   0.992   2.137   0.086
 1273TIP3    H2 3784   1.120   2.057   0.091
 1274TIP3   OH2 3785   6.336   2.013   1.476
 1274TIP3    H1 3786   6.425   2.050   1.473
 1274TIP3    H2 3787   6.344   1.929   1.431
 1275TIP3   OH2 3788   5.660   3.661   3.775
 1275TIP3    H1 3789   5.713   3.739   3.755
 1275TIP3    H2 3790   5.693   3.632   3.860
 1276TIP3   OH2 3791   2.870   5.182   1.592
 1276TIP3    H1 3792   2.890   5.239   1.518
 1276TIP3    H2 3793   2.954   5.171   1.637
 1277TIP3   OH2 3794   5.677   0.423   4.004
 1277TIP3    H1 3795   5.632   0.442   3.922
 1277TIP3    H2 3796   5.614   0.372   4.054
 1278TIP3   OH2 3797   5.835   6.291   2.872
 1278TIP3    H1 3798   5.782   6.247   2.806
 1278TIP3    H2 3799   5.925   6.275   2.845
 1279TIP3   OH2 3800   4.748   1.887   3.427
 1279TIP3    H1 3801   4.765   1.793   3.434
 1279TIP3    H2 3802   4.836   1.926   3.421
 1280TIP3   OH2 3803   4.715   5.395   4.116
 1280TIP3    H1 3804   4.659   5.452   4.169
 1280TIP3    H2 3805   4.740   5.449   4.041
 1281TIP3   OH2 3806   2.935   6.094   3.305
 1281TIP3    H1 3807   2.959   6.002   3.298
 1281TIP3    H2 3808   3.017   6.138   3.329
 1282TIP3   OH2 3809   7.217   3.831   3.618
 1282TIP3    H1 3810   7.216   3.773   3.542
 1282TIP3    H2 3811   7.183   3.914   3.585
 1283TIP3   OH2 3812   3.454   1.152   3.590
 1283TIP3    H1 3813   3.435   1.121   3.678
 1283TIP3    H2 3814   3.396   1.100   3.533
 1284TIP3   OH2 3815   2.653   2.922   2.900
 1284TIP3    H1 3816   2.721   2.987   2.921
 1284TIP3    H2 3817   2.669   2.851   2.962
 1285TIP3   OH2 3818   6.656   1.919   2.463
 1285TIP3    H1 3819   6.612   1.986   2.412
 1285TIP3    H2 3820   6.670   1.959   2.549
 1286TIP3   OH2 3821   5.001   0.947   5.062
 1286TIP3    H1 3822   5.072   0.903   5.109
 1286TIP3    H2 3823   4.923   0.895   5.083
 1287TIP3   OH2 3824   0.301   6.171   5.275
 1287TIP3    H1 3825   0.255   6.112   5.216
 1287TIP3    H2 3826   0.380   6.197   5.227
 1288TIP3   OH2 3827   1.206   2.710   3.178
 1288TIP3    H1 3828   1.301   2.711   3.166
 1288TIP3    H2 3829   1.188   2.626   3.221
 1289TIP3   OH2 3830   4.952   6.358   2.614
 1289TIP3    H1 3831   5.001   6.389   2.691
 1289TIP3    H2 3832   5.020   6.343   2.548
 1290TIP3   OH2 3833   6.799   2.411   1.979
 1290TIP3    H1 3834   6.815   2.406   2.074
 1290TIP3    H2 3835   6.711   2.448   1.971
 1291TIP3   OH2 3836   2.139   4.295   3.739
 1291TIP3    H1 3837   2.231   4.268   3.741
 1291TIP3    H2 3838   2.101   4.255   3.817
 1292TIP3   OH2 3839   0.623   3.897   1.406
 1292TIP3    H1 3840   0.670   3.944   1.336
 1292TIP3    H2 3841   0.686   3.832   1.436
 1293TIP3   OH2 3842   4.195   2.672   3.335
 1293TIP3    H1 3843   4.275   2.633   3.298
 1293TIP3    H2 3844   4.148   2.599   3.375
 1294TIP3   OH2 3845   3.219   0.180   0.398
 1294TIP3    H1 3846   3.175   0.241   0.457
 1294TIP3    H2 3847   3.214   0.095   0.442
 1295TIP3   OH2 3848   3.153   6.359   2.368
 1295TIP3    H1 3849   3.229   6.408   2.398
 1295TIP3    H2 3850   3.168   6.270   2.400
 1296TIP3   OH2 3851   4.632   4.723   3.800
 1296TIP3    H1 3852   4.680   4.640   3.794
 1296TIP3    H2 3853   4.568   4.719   3.729
 1297TIP3   OH2 3854   5.181   1.458   4.100
 1297TIP3    H1 3855   5.111   1.408   4.142
 1297TIP3    H2 3856   5.214   1.400   4.032
 1298TIP3   OH2 3857   4.163   3.349   3.222
 1298TIP3    H1 3858   4.165   3.420   3.158
 1298TIP3    H2 3859   4.084   3.366   3.274
 1299TIP3   OH2 3860   0.753   0.519   3.932
 1299TIP3    H1 3861   0.784   0.573   4.005
 1299TIP3    H2 3862   0.803   0.438   3.939
 1300TIP3   OH2 3863   3.677   3.244   4.133
 1300TIP3    H1 3864   3.708   3.211   4.048
 1300TIP3    H2 3865   3.692   3.338   4.128
 1301TIP3   OH2 3866   5.446   0.268   4.042
 1301TIP3    H1 3867   5.442   0.211   3.965
 1301TIP3    H2 3868   5.450   0.209   4.117
 1302TIP3   OH2 3869   6.709   5.741   4.708
 1302TIP3    H1 3870   6.752   5.827   4.703
 1302TIP3    H2 3871   6.634   5.749   4.648
 1303TIP3   OH2 3872   4.937   2.682   3.355
 1303TIP3    H1 3873   5.001   2.744   3.391
 1303TIP3    H2 3874   4.852   2.723   3.369
 1304TIP3   OH2 3875   3.740   0.859   2.464
 1304TIP3    H1 3876   3.706   0.823   2.547
 1304TIP3    H2 3877   3.786   0.786   2.423
 1305TIP3   OH2 3878   4.997   0.585   5.715
 1305TIP3    H1 3879   5.001   0.554   5.625
 1305TIP3    H2 3880   4.909   0.561   5.745
 1306TIP3   OH2 3881   2.108   4.987   2.399
 1306TIP3    H1 3882   2.094   5.002   2.305
 1306TIP3    H2 3883   2.144   4.899   2.404
 1307TIP3   OH2 3884   4.486   2.291   5.728
 1307TIP3    H1 3885   4.534   2.212   5.704
 1307TIP3    H2 3886   4.396   2.262   5.740
 1308TIP3   OH2 3887   1.237   2.192   1.820
 1308TIP3    H1 3888   1.177   2.241   1.876
 1308TIP3    H2 3889   1.219   2.224   1.732
 1309TIP3   OH2 3890   5.808   3.443   0.947
 1309TIP3    H1 3891   5.857   3.374   0.904
 1309TIP3    H2 3892   5.765   3.400   1.021
 1310TIP3   OH2 3893   4.389   3.751   2.385
 1310TIP3    H1 3894   4.391   3.658   2.364
 1310TIP3    H2 3895   4.372   3.794   2.301
 1311TIP3   OH2 3896   7.212   1.276   3.228
 1311TIP3    H1 3897   7.284   1.339   3.227
 1311TIP3    H2 3898   7.163   1.295   3.148
 1312TIP3   OH2 3899   6.821   1.841   5.447
 1312TIP3    H1 3900   6.779   1.811   5.527
 1312TIP3    H2 3901   6.898   1.889   5.477
 1313TIP3   OH2 3902   6.604   2.131   1.401
 1313TIP3    H1 3903   6.579   2.194   1.333
 1313TIP3    H2 3904   6.585   2.175   1.483
 1314TIP3   OH2 3905   3.616   6.561   3.794
 1314TIP3    H1 3906   3.642   6.596   3.709
 1314TIP3    H2 3907   3.538   6.610   3.818
 1315TIP3   OH2 3908   5.758   6.236   5.367
 1315TIP3    H1 3909   5.663   6.229   5.379
 1315TIP3    H2 3910   5.795   6.212   5.452
 1316TIP3   OH2 3911   0.456   4.586   3.411
 1316TIP3    H1 3912   0.366   4.614   3.421
 1316TIP3    H2 3913   0.506   4.640   3.472
 1317TIP3   OH2 3914   6.629   0.817   1.935
 1317TIP3    H1 3915   6.554   0.866   1.968
 1317TIP3    H2 3916   6.616   0.815   1.840
 1318TIP3   OH2 3917   6.832   1.747   2.278
 1318TIP3    H1 3918   6.893   1.683   2.315
 1318TIP3    H2 3919   6.869   1.832   2.300
 1319TIP3   OH2 3920   4.210   1.852   5.822
 1319TIP3    H1 3921   4.155   1.878   5.897
 1319TIP3    H2 3922   4.265   1.781   5.856
 1320TIP3   OH2 3923   3.119   5.619   5.137
 1320TIP3    H1 3924   3.199   5.601   5.089
 1320TIP3    H2 3925   3.083   5.533   5.158
 1321TIP3   OH2 3926   6.404   5.035   3.414
 1321TIP3    H1 3927   6.330   5.095   3.428
 1321TIP3    H2 3928   6.411   4.987   3.497
 1322TIP3   OH2 3929   6.125   5.579   1.993
 1322TIP3    H1 3930   6.048   5.618   1.951
 1322TIP3    H2 3931   6.091   5.541   2.074
 1323TIP3   OH2 3932   1.191   5.947   1.087
 1323TIP3    H1 3933   1.145   5.946   1.003
 1323TIP3    H2 3934   1.150   5.876   1.137
 1324TIP3   OH2 3935   0.662   4.515   5.145
 1324TIP3    H1 3936   0.712   4.435   5.128
 1324TIP3    H2 3937   0.602   4.521   5.070
 1325TIP3   OH2 3938   1.596   4.609   2.452
 1325TIP3    H1 3939   1.533   4.680   2.465
 1325TIP3    H2 3940   1.674   4.636   2.500
 1326TIP3   OH2 3941   2.417   3.937   5.092
 1326TIP3    H1 3942   2.505   3.959   5.122
 1326TIP3    H2 3943   2.391   4.009   5.035
 1327TIP3   OH2 3944   6.333   0.440   3.585
 1327TIP3    H1 3945   6.420   0.429   3.546
 1327TIP3    H2 3946   6.309   0.352   3.614
 1328TIP3   OH2 3947   2.410   2.838   1.393
 1328TIP3    H1 3948   2.321   2.822   1.423
 1328TIP3    H2 3949   2.460   2.850   1.474
 1329TIP3   OH2 3950   5.539   0.632   3.401
 1329TIP3    H1 3951   5.493   0.649   3.483
 1329TIP3    H2 3952   5.547   0.536   3.397
 1330TIP3   OH2 3953   0.749   6.462   5.475
 1330TIP3    H1 3954   0.778   6.513   5.400
 1330TIP3    H2 3955   0.823   6.407   5.497
 1331TIP3   OH2 3956   1.632   3.268   1.514
 1331TIP3    H1 3957   1.622   3.325   1.438
 1331TIP3    H2 3958   1.684   3.318   1.576
 1332TIP3   OH2 3959   4.104   5.496   4.856
 1332TIP3    H1 3960   4.037   5.436   4.823
 1332TIP3    H2 3961   4.143   5.450   4.930
 1333TIP3   OH2 3962   0.847   5.281   4.298
 1333TIP3    H1 3963   0.888   5.269   4.213
 1333TIP3    H2 3964   0.918   5.270   4.361
 1334TIP3   OH2 3965   0.575   0.582   4.391
 1334TIP3    H1 3966   0.548   0.568   4.482
 1334TIP3    H2 3967   0.503   0.630   4.352
 1335TIP3   OH2 3968   4.389   0.757   5.115
 1335TIP3    H1 3969   4.328   0.733   5.185
 1335TIP3    H2 3970   4.338   0.813   5.057
 1336TIP3   OH2 3971   5.544   6.032   3.898
 1336TIP3    H1 3972   5.588   6.099   3.950
 1336TIP3    H2 3973   5.456   6.066   3.886
 1337TIP3   OH2 3974   2.514   3.500   1.762
 1337TIP3    H1 3975   2.575   3.454   1.821
 1337TIP3    H2 3976   2.442   3.527   1.819
 1338TIP3   OH2 3977   0.932   1.454   3.643
 1338TIP3    H1 3978   0.993   1.386   3.615
 1338TIP3    H2 3979   0.937   1.521   3.575
 1339TIP3   OH2 3980   4.113   0.881   0.117
 1339TIP3    H1 3981   4.058   0.945   0.163
 1339TIP3    H2 3982   4.126   0.918   0.030
 1340TIP3   OH2 3983   0.832   6.736   3.468
 1340TIP3    H1 3984   0.751   6.698   3.502
 1340TIP3    H2 3985   0.827   6.722   3.373
 1341TIP3   OH2 3986   1.133   1.411   2.142
 1341TIP3    H1 3987   1.064   1.462   2.184
 1341TIP3    H2 3988   1.086   1.343   2.093
 1342TIP3   OH2 3989   4.832   2.529   1.850
 1342TIP3    H1 3990   4.842   2.450   1.797
 1342TIP3    H2 3991   4.893   2.592   1.810
 1343TIP3   OH2 3992   0.695   5.293   5.103
 1343TIP3    H1 3993   0.668   5.326   5.017
 1343TIP3    H2 3994   0.790   5.302   5.104
 1344TIP3   OH2 3995   0.211   2.581   1.765
 1344TIP3    H1 3996   0.234   2.662   1.720
 1344TIP3    H2 3997   0.115   2.584   1.771
 1345TIP3   OH2 3998   5.813   1.818   0.319
 1345TIP3    H1 3999   5.820   1.758   0.393
 1345TIP3    H2 4000   5.720   1.839   0.314
 1346TIP3   OH2 4001   3.704   5.552   5.779
 1346TIP3    H1 4002   3.713   5.464   5.817
 1346TIP3    H2 4003   3.776   5.559   5.716
 1347TIP3   OH2 4004   0.403   2.439   0.274
 1347TIP3    H1 4005   0.459   2.386   0.218
 1347TIP3    H2 4006   0.462   2.482   0.336
 1348TIP3   OH2 4007   2.163   0.234   0.589
 1348TIP3    H1 4008   2.177   0.328   0.588
 1348TIP3    H2 4009   2.251   0.196   0.583
 1349TIP3   OH2 4010   4.826   4.654   1.890
 1349TIP3    H1 4011   4.751   4.610   1.850
 1349TIP3    H2 4012   4.787   4.725   1.941
 1350TIP3   OH2 4013   6.362   2.564   3.411
 1350TIP3    H1 4014   6.375   2.502   3.483
 1350TIP3    H2 4015   6.418   2.638   3.433
 1351TIP3   OH2 4016   5.124   0.476   1.835
 1351TIP3    H1 4017   5.209   0.476   1.791
 1351TIP3    H2 4018   5.143   0.509   1.923
 1352TIP3   OH2 4019   5.069   3.338   1.579
 1352TIP3    H1 4020   5.036   3.407   1.636
 1352TIP3    H2 4021   5.116   3.278   1.638
 1353TIP3   OH2 4022   4.206   5.601   4.614
 1353TIP3    H1 4023   4.147   5.580   4.686
 1353TIP3    H2 4024   4.294   5.592   4.651
 1354TIP3   OH2 4025   1.701   2.701   5.544
 1354TIP3    H1 4026   1.608   2.698   5.525
 1354TIP3    H2 4027   1.743   2.661   5.467
 1355TIP3   OH2 4028   4.121   5.992   5.034
 1355TIP3    H1 4029   4.157   6.038   5.110
 1355TIP3    H2 4030   4.178   6.017   4.962
 1356TIP3   OH2 4031   2.350   0.866   4.863
 1356TIP3    H1 4032   2.399   0.809   4.803
 1356TIP3    H2 4033   2.289   0.807   4.907
 1357TIP3   OH2 4034   3.540   2.012   2.553
 1357TIP3    H1 4035   3.603   1.942   2.571
 1357TIP3    H2 4036   3.467   1.968   2.509
 1358TIP3   OH2 4037   2.092   5.916   0.220
 1358TIP3    H1 4038   2.018   5.906   0.160
 1358TIP3    H2 4039   2.166   5.937   0.163
 1359TIP3   OH2 4040   3.408   3.777   0.869
 1359TIP3    H1 4041   3.367   3.849   0.821
 1359TIP3    H2 4042   3.343   3.706   0.866
 1360TIP3   OH2 4043   1.433   3.314   1.750
 1360TIP3    H1 4044   1.339   3.320   1.737
 1360TIP3    H2 4045   1.467   3.397   1.717
 1361TIP3   OH2 4046   1.665   4.649   1.390
 1361TIP3    H1 4047   1.692   4.558   1.375
 1361TIP3    H2 4048   1.724   4.681   1.458
 1362TIP3   OH2 4049   5.985   1.264   2.766
 1362TIP3    H1 4050   6.081   1.254   2.762
 1362TIP3    H2 4051   5.952   1.196   2.707
 1363TIP3   OH2 4052   1.522   3.658   3.350
 1363TIP3    H1 4053   1.545   3.709   3.427
 1363TIP3    H2 4054   1.433   3.626   3.368
 1364TIP3   OH2 4055   5.986   1.665   1.629
 1364TIP3    H1 4056   5.929   1.731   1.590
 1364TIP3    H2 4057   6.018   1.705   1.710
 1365TIP3   OH2 4058   3.969   5.098   4.980
 1365TIP3    H1 4059   3.893   5.079   4.924
 1365TIP3    H2 4060   3.948   5.058   5.064
 1366TIP3   OH2 4061   6.514   6.391   2.981
 1366TIP3    H1 4062   6.510   6.322   3.048
 1366TIP3    H2 4063   6.513   6.344   2.898
 1367TIP3   OH2 4064   1.918   6.563   1.428
 1367TIP3    H1 4065   1.943   6.477   1.394
 1367TIP3    H2 4066   1.828   6.552   1.457
 1368TIP3   OH2 4067   0.765   3.948   2.548
 1368TIP3    H1 4068   0.783   4.009   2.476
 1368TIP3    H2 4069   0.781   3.998   2.627
 1369TIP3   OH2 4070   3.322   1.324   1.447
 1369TIP3    H1 4071   3.314   1.392   1.380
 1369TIP3    H2 4072   3.415   1.306   1.454
 1370TIP3   OH2 4073   3.541   4.359   5.392
 1370TIP3    H1 4074   3.608   4.305   5.349
 1370TIP3    H2 4075   3.463   4.346   5.338
 1371TIP3   OH2 4076   2.742   4.010   3.694
 1371TIP3    H1 4077   2.721   3.957   3.771
 1371TIP3    H2 4078   2.669   4.071   3.686
 1372TIP3   OH2 4079   0.384   0.944   2.965
 1372TIP3    H1 4080   0.369   1.013   2.901
 1372TIP3    H2 4081   0.399   0.991   3.048
 1373TIP3   OH2 4082   1.906   0.348   0.323
 1373TIP3    H1 4083   1.870   0.262   0.300
 1373TIP3    H2 4084   1.844   0.384   0.385
 1374TIP3   OH2 4085   3.325   6.150   2.852
 1374TIP3    H1 4086   3.230   6.162   2.862
 1374TIP3    H2 4087   3.346   6.197   2.771
 1375TIP3   OH2 4088   4.455   6.561   4.517
 1375TIP3    H1 4089   4.443   6.603   4.602
 1375TIP3    H2 4090   4.388   6.493   4.515
 1376TIP3   OH2 4091   6.141   2.674   3.289
 1376TIP3    H1 4092   6.070   2.654   3.351
 1376TIP3    H2 4093   6.220   2.641   3.332
 1377TIP3   OH2 4094   3.296   1.761   5.007
 1377TIP3    H1 4095   3.319   1.745   5.099
 1377TIP3    H2 4096   3.206   1.730   4.999
 1378TIP3   OH2 4097   0.112   6.337   1.732
 1378TIP3    H1 4098   0.045   6.270   1.719
 1378TIP3    H2 4099   0.074   6.417   1.696
 1379TIP3   OH2 4100   1.240   4.295   4.720
 1379TIP3    H1 4101   1.173   4.362   4.728
 1379TIP3    H2 4102   1.260   4.270   4.810
 1380TIP3   OH2 4103   3.990   1.458   4.324
 1380TIP3    H1 4104   3.942   1.455   4.407
 1380TIP3    H2 4105   4.066   1.514   4.342
 1381TIP3   OH2 4106   2.232   6.486   2.585
 1381TIP3    H1 4107   2.195   6.413   2.535
 1381TIP3    H2 4108   2.242   6.452   2.674
 1382TIP3   OH2 4109   4.628   3.944   2.482
 1382TIP3    H1 4110   4.643   4.005   2.554
 1382TIP3    H2 4111   4.536   3.919   2.490
 1383TIP3   OH2 4112   7.120   3.930   0.142
 1383TIP3    H1 4113   7.208   3.893   0.128
 1383TIP3    H2 4114   7.135   4.024   0.150
 1384TIP3   OH2 4115   0.929   0.984   2.182
 1384TIP3    H1 4116   0.994   0.995   2.251
 1384TIP3    H2 4117   0.878   1.065   2.183
 1385TIP3   OH2 4118   3.518  -0.005   5.521
 1385TIP3    H1 4119   3.464   0.068   5.552
 1385TIP3    H2 4120   3.604   0.011   5.558
 1386TIP3   OH2 4121   0.764   3.560   2.435
 1386TIP3    H1 4122   0.830   3.583   2.369
 1386TIP3    H2 4123   0.816   3.537   2.512
 1387TIP3   OH2 4124   0.256   5.831   3.237
 1387TIP3    H1 4125   0.187   5.841   3.171
 1387TIP3    H2 4126   0.221   5.767   3.298
 1388TIP3   OH2 4127   1.839   0.195   4.779
 1388TIP3    H1 4128   1.866   0.186   4.870
 1388TIP3    H2 4129   1.755   0.149   4.774
 1389TIP3   OH2 4130   0.492   1.634   5.222
 1389TIP3    H1 4131   0.515   1.602   5.309
 1389TIP3    H2 4132   0.417   1.579   5.196
 1390TIP3   OH2 4133   2.992   1.818   0.771
 1390TIP3    H1 4134   2.908   1.783   0.802
 1390TIP3    H2 4135   3.056   1.751   0.796
 1391TIP3   OH2 4136   6.626   4.458   0.570
 1391TIP3    H1 4137   6.671   4.391   0.518
 1391TIP3    H2 4138   6.667   4.454   0.656
 1392TIP3   OH2 4139   1.067   0.260   4.658
 1392TIP3    H1 4140   1.136   0.197   4.681
 1392TIP3    H2 4141   1.001   0.207   4.612
 1393TIP3   OH2 4142   4.521   3.497   1.461
 1393TIP3    H1 4143   4.549   3.442   1.388
 1393TIP3    H2 4144   4.512   3.436   1.535
 1394TIP3   OH2 4145   3.433   6.492   5.338
 1394TIP3    H1 4146   3.452   6.534   5.254
 1394TIP3    H2 4147   3.364   6.429   5.318
 1395TIP3   OH2 4148   6.913   0.375   1.427
 1395TIP3    H1 4149   6.955   0.364   1.513
 1395TIP3    H2 4150   6.959   0.449   1.387
 1396TIP3   OH2 4151   1.085   0.992   2.398
 1396TIP3    H1 4152   1.045   1.045   2.467
 1396TIP3    H2 4153   1.179   1.000   2.414
 1397TIP3   OH2 4154   3.938   1.082   0.135
 1397TIP3    H1 4155   3.981   1.161   0.166
 1397TIP3    H2 4156   3.847   1.109   0.119
 1398TIP3   OH2 4157   4.379   1.232   1.003
 1398TIP3    H1 4158   4.320   1.307   1.001
 1398TIP3    H2 4159   4.460   1.266   1.042
 1399TIP3   OH2 4160   2.462   0.038   4.134
 1399TIP3    H1 4161   2.478  -0.056   4.124
 1399TIP3    H2 4162   2.519   0.064   4.206
 1400TIP3   OH2 4163   6.517   5.611   3.156
 1400TIP3    H1 4164   6.526   5.537   3.096
 1400TIP3    H2 4165   6.423   5.624   3.165
 1401TIP3   OH2 4166   4.142   6.363   3.888
 1401TIP3    H1 4167   4.225   6.383   3.844
 1401TIP3    H2 4168   4.086   6.438   3.870
 1402TIP3   OH2 4169   5.488   4.418   5.880
 1402TIP3    H1 4170   5.499   4.356   5.952
 1402TIP3    H2 4171   5.400   4.399   5.846
 1403TIP3   OH2 4172   6.698   1.890   4.422
 1403TIP3    H1 4173   6.731   1.968   4.378
 1403TIP3    H2 4174   6.767   1.824   4.410
 1404TIP3   OH2 4175   2.369   3.360   4.890
 1404TIP3    H1 4176   2.390   3.443   4.933
 1404TIP3    H2 4177   2.451   3.334   4.846
 1405TIP3   OH2 4178   0.169   4.511   3.294
 1405TIP3    H1 4179   0.239   4.511   3.229
 1405TIP3    H2 4180   0.189   4.435   3.349
 1406TIP3   OH2 4181   6.795   0.119   5.301
 1406TIP3    H1 4182   6.776   0.213   5.297
 1406TIP3    H2 4183   6.760   0.091   5.385
 1407TIP3   OH2 4184   5.448   6.151   4.687
 1407TIP3    H1 4185   5.413   6.066   4.713
 1407TIP3    H2 4186   5.375   6.193   4.640
 1408TIP3   OH2 4187   3.860   3.889   4.434
 1408TIP3    H1 4188   3.821   3.951   4.496
 1408TIP3    H2 4189   3.882   3.813   4.488
 1409TIP3   OH2 4190   6.746   5.917   0.890
 1409TIP3    H1 4191   6.673   5.906   0.952
 1409TIP3    H2 4192   6.822   5.881   0.936
 1410TIP3   OH2 4193   0.435   3.561   5.812
 1410TIP3    H1 4194   0.487   3.567   5.892
 1410TIP3    H2 4195   0.368   3.496   5.831
 1411TIP3   OH2 4196   6.476   0.100   3.525
 1411TIP3    H1 4197   6.397   0.109   3.578
 1411TIP3    H2 4198   6.539   0.056   3.581
 1412TIP3   OH2 4199   2.957   3.537   4.952
 1412TIP3    H1 4200   2.974   3.464   4.893
 1412TIP3    H2 4201   2.863   3.553   4.944
 1413TIP3   OH2 4202   0.586   2.868   0.743
 1413TIP3    H1 4203   0.677   2.848   0.765
 1413TIP3    H2 4204   0.592   2.951   0.694
 1414TIP3   OH2 4205   0.384   1.116   0.492
 1414TIP3    H1 4206   0.351   1.145   0.406
 1414TIP3    H2 4207   0.312   1.066   0.529
 1415TIP3   OH2 4208   6.310   0.451   4.988
 1415TIP3    H1 4209   6.357   0.515   4.934
 1415TIP3    H2 4210   6.371   0.379   4.999
 1416TIP3   OH2 4211   0.446   4.053   5.672
 1416TIP3    H1 4212   0.496   4.063   5.591
 1416TIP3    H2 4213   0.513   4.054   5.741
 1417TIP3   OH2 4214   7.084   0.057   0.780
 1417TIP3    H1 4215   7.056   0.093   0.696
 1417TIP3    H2 4216   7.003   0.046   0.830
 1418TIP3   OH2 4217   2.827   1.389   0.690
 1418TIP3    H1 4218   2.795   1.381   0.600
 1418TIP3    H2 4219   2.922   1.378   0.683
 1419TIP3   OH2 4220   1.080   1.283   3.445
 1419TIP3    H1 4221   1.153   1.337   3.413
 1419TIP3    H2 4222   1.096   1.196   3.408
 1420TIP3   OH2 4223   0.798   5.870   2.890
 1420TIP3    H1 4224   0.800   5.873   2.794
 1420TIP3    H2 4225   0.806   5.961   2.917
 1421TIP3   OH2 4226   1.876   5.577   1.779
 1421TIP3    H1 4227   1.971   5.572   1.794
 1421TIP3    H2 4228   1.854   5.495   1.736
 1422TIP3   OH2 4229   7.086   1.307   1.054
 1422TIP3    H1 4230   7.091   1.220   1.094
 1422TIP3    H2 4231   7.016   1.351   1.103
 1423TIP3   OH2 4232   6.527   6.579   0.608
 1423TIP3    H1 4233   6.491   6.619   0.687
 1423TIP3    H2 4234   6.495   6.633   0.536
 1424TIP3   OH2 4235   4.814   6.438   1.832
 1424TIP3    H1 4236   4.793   6.481   1.915
 1424TIP3    H2 4237   4.747   6.371   1.822
 1425TIP3   OH2 4238   0.057   6.284   4.580
 1425TIP3    H1 4239   0.101   6.302   4.497
 1425TIP3    H2 4240   0.116   6.321   4.646
 1426TIP3   OH2 4241   3.388   5.625   5.061
 1426TIP3    H1 4242   3.439   5.701   5.033
 1426TIP3    H2 4243   3.404   5.619   5.155
 1427TIP3   OH2 4244   1.803   3.566   5.748
 1427TIP3    H1 4245   1.850   3.484   5.731
 1427TIP3    H2 4246   1.872   3.632   5.757
 1428TIP3   OH2 4247   5.254   4.375   5.295
 1428TIP3    H1 4248   5.229   4.297   5.245
 1428TIP3    H2 4249   5.171   4.422   5.308
 1429TIP3   OH2 4250   2.235   5.337   5.869
 1429TIP3    H1 4251   2.285   5.263   5.833
 1429TIP3    H2 4252   2.145   5.305   5.873
 1430TIP3   OH2 4253   0.081   1.355   3.577
 1430TIP3    H1 4254   0.086   1.441   3.620
 1430TIP3    H2 4255  -0.010   1.349   3.547
 1431TIP3   OH2 4256   3.587   1.647   1.812
 1431TIP3    H1 4257   3.671   1.689   1.795
 1431TIP3    H2 4258   3.532   1.716   1.848
 1432TIP3   OH2 4259   1.504   5.710   4.226
 1432TIP3    H1 4260   1.576   5.694   4.165
 1432TIP3    H2 4261   1.530   5.790   4.273
 1433TIP3   OH2 4262   0.224   3.867   0.905
 1433TIP3    H1 4263   0.175   3.817   0.971
 1433TIP3    H2 4264   0.173   3.947   0.893
 1434TIP3   OH2 4265   4.581   4.495   5.817
 1434TIP3    H1 4266   4.533   4.419   5.848
 1434TIP3    H2 4267   4.662   4.495   5.868
 1435TIP3   OH2 4268   5.614   2.378   0.118
 1435TIP3    H1 4269   5.570   2.297   0.094
 1435TIP3    H2 4270   5.702   2.352   0.143
 1436TIP3   OH2 4271   2.118   6.362   1.317
 1436TIP3    H1 4272   2.083   6.274   1.325
 1436TIP3    H2 4273   2.153   6.366   1.228
 1437TIP3   OH2 4274   1.967   0.361   1.033
 1437TIP3    H1 4275   2.014   0.279   1.053
 1437TIP3    H2 4276   2.008   0.426   1.091
 1438TIP3   OH2 4277   3.595   5.695   1.037
 1438TIP3    H1 4278   3.513   5.725   1.078
 1438TIP3    H2 4279   3.663   5.748   1.079
 1439TIP3   OH2 4280   3.846   2.132   4.817
 1439TIP3    H1 4281   3.842   2.223   4.844
 1439TIP3    H2 4282   3.762   2.116   4.774
 1440TIP3   OH2 4283   5.791   6.420   2.254
 1440TIP3    H1 4284   5.783   6.356   2.324
 1440TIP3    H2 4285   5.817   6.369   2.177
 1441TIP3   OH2 4286   4.446   6.206   3.444
 1441TIP3    H1 4287   4.402   6.283   3.409
 1441TIP3    H2 4288   4.390   6.175   3.514
 1442TIP3   OH2 4289   1.780   0.675   1.543
 1442TIP3    H1 4290   1.803   0.627   1.623
 1442TIP3    H2 4291   1.810   0.764   1.560
 1443TIP3   OH2 4292   5.832   4.693   2.534
 1443TIP3    H1 4293   5.852   4.774   2.581
 1443TIP3    H2 4294   5.739   4.677   2.551
 1444TIP3   OH2 4295   2.032   6.364   5.370
 1444TIP3    H1 4296   2.126   6.379   5.380
 1444TIP3    H2 4297   2.025   6.281   5.322
 1445TIP3   OH2 4298   4.762   0.376   2.379
 1445TIP3    H1 4299   4.791   0.324   2.454
 1445TIP3    H2 4300   4.811   0.341   2.305
 1446TIP3   OH2 4301   6.053   2.502   4.594
 1446TIP3    H1 4302   5.980   2.496   4.532
 1446TIP3    H2 4303   6.013   2.529   4.676
 1447TIP3   OH2 4304   3.792   6.305   3.103
 1447TIP3    H1 4305   3.717   6.341   3.057
 1447TIP3    H2 4306   3.838   6.253   3.036
 1448TIP3   OH2 4307   2.842   1.043   4.710
 1448TIP3    H1 4308   2.915   1.105   4.702
 1448TIP3    H2 4309   2.787   1.060   4.634
 1449TIP3   OH2 4310   4.369   3.429   3.972
 1449TIP3    H1 4311   4.442   3.431   4.034
 1449TIP3    H2 4312   4.296   3.391   4.022
 1450TIP3   OH2 4313   6.047   4.555   2.496
 1450TIP3    H1 4314   6.053   4.528   2.587
 1450TIP3    H2 4315   5.970   4.611   2.492
 1451TIP3   OH2 4316   3.285   3.266   4.946
 1451TIP3    H1 4317   3.214   3.303   4.893
 1451TIP3    H2 4318   3.340   3.219   4.883
 1452TIP3   OH2 4319   3.990   1.436   1.837
 1452TIP3    H1 4320   4.007   1.500   1.768
 1452TIP3    H2 4321   4.077   1.415   1.871
 1453TIP3   OH2 4322   2.833   4.551   3.709
 1453TIP3    H1 4323   2.896   4.479   3.707
 1453TIP3    H2 4324   2.885   4.628   3.732
 1454TIP3   OH2 4325   0.577   5.866   2.403
 1454TIP3    H1 4326   0.536   5.827   2.326
 1454TIP3    H2 4327   0.504   5.884   2.463
 1455TIP3   OH2 4328   5.094   6.489   5.096
 1455TIP3    H1 4329   5.172   6.521   5.140
 1455TIP3    H2 4330   5.050   6.434   5.160
 1456TIP3   OH2 4331  -0.022   5.329   5.478
 1456TIP3    H1 4332   0.053   5.385   5.498
 1456TIP3    H2 4333  -0.003   5.294   5.391
 1457TIP3   OH2 4334   4.551   1.461   0.756
 1457TIP3    H1 4335   4.458   1.447   0.775
 1457TIP3    H2 4336   4.551   1.522   0.682
 1458TIP3   OH2 4337   0.625   0.305   1.153
 1458TIP3    H1 4338   0.642   0.378   1.213
 1458TIP3    H2 4339   0.553   0.258   1.194
 1459TIP3   OH2 4340   3.625   1.741   3.982
 1459TIP3    H1 4341   3.551   1.774   4.033
 1459TIP3    H2 4342   3.699   1.795   4.011
 1460TIP3   OH2 4343   3.802   0.581   5.401
 1460TIP3    H1 4344   3.865   0.552   5.336
 1460TIP3    H2 4345   3.738   0.510   5.406
 1461TIP3   OH2 4346   2.089   3.825   3.589
 1461TIP3    H1 4347   2.089   3.903   3.534
 1461TIP3    H2 4348   2.102   3.752   3.528
 1462TIP3   OH2 4349   2.546   5.499   5.540
 1462TIP3    H1 4350   2.619   5.521   5.482
 1462TIP3    H2 4351   2.484   5.452   5.484
 1463TIP3   OH2 4352   1.319   3.748   4.174
 1463TIP3    H1 4353   1.335   3.756   4.080
 1463TIP3    H2 4354   1.352   3.662   4.198
 1464TIP3   OH2 4355   2.290   2.597   3.825
 1464TIP3    H1 4356   2.210   2.650   3.821
 1464TIP3    H2 4357   2.343   2.628   3.752
 1465TIP3   OH2 4358   5.931   4.135   4.583
 1465TIP3    H1 4359   5.975   4.220   4.584
 1465TIP3    H2 4360   5.841   4.155   4.608
 1466TIP3   OH2 4361   1.804   6.591   4.136
 1466TIP3    H1 4362   1.824   6.676   4.096
 1466TIP3    H2 4363   1.761   6.613   4.218
 1467TIP3   OH2 4364   3.426   1.309   2.350
 1467TIP3    H1 4365   3.483   1.343   2.282
 1467TIP3    H2 4366   3.461   1.346   2.431
 1468TIP3   OH2 4367   5.211   0.765   4.356
 1468TIP3    H1 4368   5.239   0.838   4.411
 1468TIP3    H2 4369   5.292   0.729   4.320
 1469TIP3   OH2 4370   5.333   6.497   4.387
 1469TIP3    H1 4371   5.328   6.416   4.335
 1469TIP3    H2 4372   5.312   6.566   4.324
 1470TIP3   OH2 4373   4.055   4.232   3.639
 1470TIP3    H1 4374   4.019   4.280   3.714
 1470TIP3    H2 4375   4.104   4.160   3.679
 1471TIP3   OH2 4376   5.405   4.991   1.719
 1471TIP3    H1 4377   5.450   4.906   1.721
 1471TIP3    H2 4378   5.456   5.043   1.657
 1472TIP3   OH2 4379   5.641   0.751   0.683
 1472TIP3    H1 4380   5.557   0.738   0.639
 1472TIP3    H2 4381   5.704   0.756   0.612
 1473TIP3   OH2 4382   4.998   2.717   1.687
 1473TIP3    H1 4383   4.988   2.812   1.687
 1473TIP3    H2 4384   4.975   2.691   1.598
 1474TIP3   OH2 4385   6.249   0.721   2.888
 1474TIP3    H1 4386   6.311   0.658   2.849
 1474TIP3    H2 4387   6.241   0.693   2.979
 1475TIP3   OH2 4388   4.775  -0.008   0.857
 1475TIP3    H1 4389   4.762   0.081   0.826
 1475TIP3    H2 4390   4.799   0.002   0.949
 1476TIP3   OH2 4391   6.184   6.767   4.990
 1476TIP3    H1 4392   6.216   6.685   5.028
 1476TIP3    H2 4393   6.093   6.773   5.018
 1477TIP3   OH2 4394   4.966   0.795   0.664
 1477TIP3    H1 4395   5.028   0.726   0.686
 1477TIP3    H2 4396   5.019   0.875   0.662
 1478TIP3   OH2 4397   4.294   0.990   5.772
 1478TIP3    H1 4398   4.202   0.968   5.761
 1478TIP3    H2 4399   4.294   1.071   5.823
 1479TIP3   OH2 4400   6.538   1.840   4.070
 1479TIP3    H1 4401   6.600   1.882   4.130
 1479TIP3    H2 4402   6.497   1.913   4.023
 1480TIP3   OH2 4403   1.818   1.849   2.385
 1480TIP3    H1 4404   1.879   1.783   2.417
 1480TIP3    H2 4405   1.816   1.916   2.452
 1481TIP3   OH2 4406   2.918   3.976   4.609
 1481TIP3    H1 4407   2.852   3.995   4.542
 1481TIP3    H2 4408   2.959   4.061   4.628
 1482TIP3   OH2 4409   1.585   0.454   1.943
 1482TIP3    H1 4410   1.584   0.484   1.852
 1482TIP3    H2 4411   1.527   0.514   1.989
 1483TIP3   OH2 4412   6.918   0.898   0.493
 1483TIP3    H1 4413   6.892   0.857   0.575
 1483TIP3    H2 4414   6.884   0.839   0.425
 1484TIP3   OH2 4415   3.481   3.846   1.128
 1484TIP3    H1 4416   3.577   3.852   1.135
 1484TIP3    H2 4417   3.465   3.837   1.035
 1485TIP3   OH2 4418   3.129   1.604   0.874
 1485TIP3    H1 4419   3.045   1.572   0.908
 1485TIP3    H2 4420   3.179   1.525   0.855
 1486TIP3   OH2 4421   6.597   1.895   1.666
 1486TIP3    H1 4422   6.624   1.964   1.728
 1486TIP3    H2 4423   6.514   1.863   1.700
 1487TIP3   OH2 4424   4.784   2.224   2.048
 1487TIP3    H1 4425   4.878   2.239   2.055
 1487TIP3    H2 4426   4.755   2.282   1.978
 1488TIP3   OH2 4427   6.097   1.719   2.775
 1488TIP3    H1 4428   6.006   1.694   2.766
 1488TIP3    H2 4429   6.146   1.639   2.756
 1489TIP3   OH2 4430   0.292   1.936   2.363
 1489TIP3    H1 4431   0.217   1.925   2.421
 1489TIP3    H2 4432   0.272   2.016   2.314
 1490TIP3   OH2 4433   4.258   1.001   2.497
 1490TIP3    H1 4434   4.228   1.012   2.588
 1490TIP3    H2 4435   4.316   0.925   2.500
 1491TIP3   OH2 4436   2.850   2.449   2.582
 1491TIP3    H1 4437   2.919   2.472   2.644
 1491TIP3    H2 4438   2.892   2.392   2.518
 1492TIP3   OH2 4439   2.256   3.413   5.659
 1492TIP3    H1 4440   2.329   3.406   5.720
 1492TIP3    H2 4441   2.288   3.370   5.579
 1493TIP3   OH2 4442   1.040   0.394   5.747
 1493TIP3    H1 4443   0.971   0.335   5.714
 1493TIP3    H2 4444   1.003   0.430   5.828
 1494TIP3   OH2 4445   3.851   1.105   2.414
 1494TIP3    H1 4446   3.942   1.077   2.411
 1494TIP3    H2 4447   3.802   1.028   2.440
 1495TIP3   OH2 4448   4.418   4.512   4.717
 1495TIP3    H1 4449   4.475   4.454   4.666
 1495TIP3    H2 4450   4.400   4.462   4.797
 1496TIP3   OH2 4451   3.202   5.887   2.562
 1496TIP3    H1 4452   3.222   5.980   2.547
 1496TIP3    H2 4453   3.277   5.840   2.526
 1497TIP3   OH2 4454   0.104   5.822   5.808
 1497TIP3    H1 4455   0.183   5.824   5.863
 1497TIP3    H2 4456   0.134   5.786   5.725
 1498TIP3   OH2 4457   6.106   1.870   3.588
 1498TIP3    H1 4458   6.126   1.958   3.620
 1498TIP3    H2 4459   6.062   1.884   3.505
 1499TIP3   OH2 4460   6.331   1.205   2.971
 1499TIP3    H1 4461   6.391   1.140   2.936
 1499TIP3    H2 4462   6.246   1.161   2.971
 1500TIP3   OH2 4463   1.188   0.674   5.459
 1500TIP3    H1 4464   1.135   0.736   5.410
 1500TIP3    H2 4465   1.273   0.717   5.469
 1501TIP3   OH2 4466   6.459   4.931   0.776
 1501TIP3    H1 4467   6.514   4.910   0.851
 1501TIP3    H2 4468   6.459   5.026   0.772
 1502TIP3   OH2 4469   6.695   3.902   0.720
 1502TIP3    H1 4470   6.643   3.865   0.649
 1502TIP3    H2 4471   6.651   3.984   0.741
 1503TIP3   OH2 4472   6.639   5.570   3.759
 1503TIP3    H1 4473   6.550   5.603   3.746
 1503TIP3    H2 4474   6.643   5.547   3.852
 1504TIP3   OH2 4475   2.264   3.113   2.720
 1504TIP3    H1 4476   2.311   3.164   2.654
 1504TIP3    H2 4477   2.324   3.041   2.741
 1505TIP3   OH2 4478   5.892   0.618   2.104
 1505TIP3    H1 4479   5.857   0.684   2.043
 1505TIP3    H2 4480   5.828   0.548   2.103
 1506TIP3   OH2 4481   4.145   2.014   2.686
 1506TIP3    H1 4482   4.184   2.026   2.599
 1506TIP3    H2 4483   4.129   2.103   2.718
 1507TIP3   OH2 4484   2.511   5.194   5.457
 1507TIP3    H1 4485   2.424   5.197   5.416
 1507TIP3    H2 4486   2.564   5.252   5.402
 1508TIP3   OH2 4487   3.254   4.088   2.654
 1508TIP3    H1 4488   3.227   4.179   2.668
 1508TIP3    H2 4489   3.321   4.072   2.720
 1509TIP3   OH2 4490   4.743   4.292   4.688
 1509TIP3    H1 4491   4.651   4.300   4.663
 1509TIP3    H2 4492   4.772   4.383   4.703
 1510TIP3   OH2 4493   3.373   2.606   5.840
 1510TIP3    H1 4494   3.423   2.602   5.922
 1510TIP3    H2 4495   3.296   2.660   5.862
 1511TIP3   OH2 4496   3.267   5.278   1.933
 1511TIP3    H1 4497   3.328   5.204   1.935
 1511TIP3    H2 4498   3.315   5.350   1.974
 1512TIP3   OH2 4499   1.847   6.184   0.515
 1512TIP3    H1 4500   1.870   6.171   0.607
 1512TIP3    H2 4501   1.772   6.125   0.501
 1513TIP3   OH2 4502   0.484   5.065   5.398
 1513TIP3    H1 4503   0.547   5.134   5.420
 1513TIP3    H2 4504   0.538   4.987   5.385
 1514TIP3   OH2 4505   3.539   3.262   3.523
 1514TIP3    H1 4506   3.490   3.342   3.543
 1514TIP3    H2 4507   3.599   3.252   3.597
 1515TIP3   OH2 4508   5.534   3.187   4.737
 1515TIP3    H1 4509   5.621   3.185   4.777
 1515TIP3    H2 4510   5.505   3.278   4.747
 1516TIP3   OH2 4511   4.057   4.124   5.899
 1516TIP3    H1 4512   4.045   4.054   5.964
 1516TIP3    H2 4513   3.980   4.115   5.842
 1517TIP3   OH2 4514   7.025   6.386   4.818
 1517TIP3    H1 4515   7.086   6.451   4.852
 1517TIP3    H2 4516   7.035   6.391   4.723
 1518TIP3   OH2 4517   3.026   5.156   3.633
 1518TIP3    H1 4518   3.069   5.094   3.574
 1518TIP3    H2 4519   3.027   5.239   3.585
 1519TIP3   OH2 4520   2.491   4.842   2.758
 1519TIP3    H1 4521   2.575   4.839   2.712
 1519TIP3    H2 4522   2.500   4.914   2.820
 1520TIP3   OH2 4523   3.828   6.022   5.299
 1520TIP3    H1 4524   3.807   6.115   5.298
 1520TIP3    H2 4525   3.909   6.016   5.349
 1521TIP3   OH2 4526   5.820   5.755   1.508
 1521TIP3    H1 4527   5.820   5.680   1.450
 1521TIP3    H2 4528   5.815   5.718   1.596
 1522TIP3   OH2 4529   2.355   0.633   2.918
 1522TIP3    H1 4530   2.300   0.682   2.857
 1522TIP3    H2 4531   2.409   0.577   2.863
 1523TIP3   OH2 4532   3.715   1.324   4.287
 1523TIP3    H1 4533   3.624   1.299   4.268
 1523TIP3    H2 4534   3.734   1.279   4.369
 1524TIP3   OH2 4535   4.156   3.422   2.976
 1524TIP3    H1 4536   4.135   3.334   2.944
 1524TIP3    H2 4537   4.179   3.470   2.897
 1525TIP3   OH2 4538   6.291   2.082   0.810
 1525TIP3    H1 4539   6.220   2.127   0.855
 1525TIP3    H2 4540   6.247   2.029   0.744
 1526TIP3   OH2 4541   3.915   2.557   2.292
 1526TIP3    H1 4542   3.827   2.540   2.325
 1526TIP3    H2 4543   3.921   2.652   2.285
 1527TIP3   OH2 4544   5.264   3.965   3.323
 1527TIP3    H1 4545   5.260   3.906   3.247
 1527TIP3    H2 4546   5.357   3.986   3.332
 1528TIP3   OH2 4547   1.626   1.136   2.552
 1528TIP3    H1 4548   1.593   1.111   2.466
 1528TIP3    H2 4549   1.580   1.218   2.571
 1529TIP3   OH2 4550   4.904   5.512   4.736
 1529TIP3    H1 4551   4.974   5.475   4.682
 1529TIP3    H2 4552   4.836   5.536   4.674
 1530TIP3   OH2 4553   6.261   2.117   5.634
 1530TIP3    H1 4554   6.266   2.147   5.543
 1530TIP3    H2 4555   6.168   2.106   5.651
 1531TIP3   OH2 4556   6.019   3.270   2.791
 1531TIP3    H1 4557   6.017   3.176   2.771
 1531TIP3    H2 4558   6.089   3.305   2.737
 1532TIP3   OH2 4559   1.514   5.081   2.381
 1532TIP3    H1 4560   1.482   5.169   2.360
 1532TIP3    H2 4561   1.609   5.091   2.385
 1533TIP3   OH2 4562   0.233   4.093   4.613
 1533TIP3    H1 4563   0.253   4.142   4.534
 1533TIP3    H2 4564   0.235   4.001   4.586
 1534TIP3   OH2 4565   3.405   6.006   4.037
 1534TIP3    H1 4566   3.331   6.053   4.000
 1534TIP3    H2 4567   3.396   5.917   4.005
 1535TIP3   OH2 4568   2.253   6.226   5.774
 1535TIP3    H1 4569   2.261   6.176   5.855
 1535TIP3    H2 4570   2.160   6.246   5.768
 1536TIP3   OH2 4571   6.283   3.636   0.779
 1536TIP3    H1 4572   6.302   3.658   0.688
 1536TIP3    H2 4573   6.257   3.718   0.820
 1537TIP3   OH2 4574   7.008   6.713   3.451
 1537TIP3    H1 4575   6.919   6.747   3.457
 1537TIP3    H2 4576   7.031   6.720   3.359
 1538TIP3   OH2 4577   6.832   0.952   2.064
 1538TIP3    H1 4578   6.806   0.937   2.155
 1538TIP3    H2 4579   6.766   0.905   2.012
 1539TIP3   OH2 4580   5.540   3.510   0.006
 1539TIP3    H1 4581   5.625   3.552   0.014
 1539TIP3    H2 4582   5.498   3.555  -0.068
 1540TIP3   OH2 4583   3.017   1.781   2.396
 1540TIP3    H1 4584   2.945   1.729   2.361
 1540TIP3    H2 4585   3.084   1.716   2.418
 1541TIP3   OH2 4586   0.142   1.031   2.244
 1541TIP3    H1 4587   0.231   1.064   2.237
 1541TIP3    H2 4588   0.152   0.935   2.241
 1542TIP3   OH2 4589   2.822   0.918   1.351
 1542TIP3    H1 4590   2.757   0.912   1.420
 1542TIP3    H2 4591   2.797   0.996   1.301
 1543TIP3   OH2 4592   6.762   0.625   2.520
 1543TIP3    H1 4593   6.857   0.636   2.514
 1543TIP3    H2 4594   6.743   0.629   2.614
 1544TIP3   OH2 4595   2.979   6.411   3.736
 1544TIP3    H1 4596   2.926   6.467   3.679
 1544TIP3    H2 4597   3.058   6.394   3.685
 1545TIP3   OH2 4598   1.585   2.896   2.802
 1545TIP3    H1 4599   1.649   2.945   2.854
 1545TIP3    H2 4600   1.586   2.939   2.716
 1546TIP3   OH2 4601   1.206   5.989   3.461
 1546TIP3    H1 4602   1.276   6.040   3.420
 1546TIP3    H2 4603   1.234   5.898   3.452
 1547TIP3   OH2 4604   5.211   3.874   3.044
 1547TIP3    H1 4605   5.204   3.840   2.955
 1547TIP3    H2 4606   5.154   3.951   3.045
 1548TIP3   OH2 4607   1.201   5.487   0.224
 1548TIP3    H1 4608   1.144   5.438   0.283
 1548TIP3    H2 4609   1.146   5.507   0.148
 1549TIP3   OH2 4610   1.322   4.539   5.276
 1549TIP3    H1 4611   1.379   4.555   5.201
 1549TIP3    H2 4612   1.330   4.445   5.292
 1550TIP3   OH2 4613   4.495   6.053   5.041
 1550TIP3    H1 4614   4.414   6.102   5.023
 1550TIP3    H2 4615   4.508   6.064   5.135
 1551TIP3   OH2 4616   0.564   1.725   0.621
 1551TIP3    H1 4617   0.544   1.815   0.598
 1551TIP3    H2 4618   0.630   1.698   0.557
 1552TIP3   OH2 4619   0.319   1.001   4.672
 1552TIP3    H1 4620   0.303   0.923   4.724
 1552TIP3    H2 4621   0.414   1.012   4.674
 1553TIP3   OH2 4622   1.222   1.622   5.459
 1553TIP3    H1 4623   1.163   1.595   5.529
 1553TIP3    H2 4624   1.214   1.554   5.392
 1554TIP3   OH2 4625   4.859   2.430   5.289
 1554TIP3    H1 4626   4.845   2.512   5.337
 1554TIP3    H2 4627   4.878   2.458   5.199
 1555TIP3   OH2 4628   5.864   0.098   1.984
 1555TIP3    H1 4629   5.903   0.020   1.945
 1555TIP3    H2 4630   5.922   0.170   1.958
 1556TIP3   OH2 4631   5.269   4.304   1.718
 1556TIP3    H1 4632   5.280   4.339   1.806
 1556TIP3    H2 4633   5.174   4.300   1.705
 1557TIP3   OH2 4634   3.284   1.893   0.213
 1557TIP3    H1 4635   3.288   1.797   0.210
 1557TIP3    H2 4636   3.369   1.922   0.181
 1558TIP3   OH2 4637   4.182   3.063   1.623
 1558TIP3    H1 4638   4.177   3.157   1.606
 1558TIP3    H2 4639   4.237   3.056   1.701
 1559TIP3   OH2 4640   1.870   4.621   2.591
 1559TIP3    H1 4641   1.932   4.553   2.615
 1559TIP3    H2 4642   1.856   4.672   2.671
 1560TIP3   OH2 4643   6.463   5.447   4.522
 1560TIP3    H1 4644   6.533   5.382   4.513
 1560TIP3    H2 4645   6.383   5.396   4.513
 1561TIP3   OH2 4646   6.977   2.156   2.498
 1561TIP3    H1 4647   6.992   2.076   2.447
 1561TIP3    H2 4648   6.981   2.127   2.590
 1562TIP3   OH2 4649   0.983   4.755   1.206
 1562TIP3    H1 4650   1.035   4.807   1.144
 1562TIP3    H2 4651   0.892   4.779   1.186
 1563TIP3   OH2 4652   3.286   2.982   2.189
 1563TIP3    H1 4653   3.285   2.974   2.093
 1563TIP3    H2 4654   3.343   3.057   2.206
 1564TIP3   OH2 4655   0.116   0.212   2.412
 1564TIP3    H1 4656   0.112   0.162   2.330
 1564TIP3    H2 4657   0.208   0.236   2.421
 1565TIP3   OH2 4658   2.541   2.332   4.470
 1565TIP3    H1 4659   2.515   2.351   4.380
 1565TIP3    H2 4660   2.633   2.307   4.464
 1566TIP3   OH2 4661   6.654   4.526   4.790
 1566TIP3    H1 4662   6.583   4.489   4.843
 1566TIP3    H2 4663   6.672   4.611   4.832
 1567TIP3   OH2 4664   4.360   1.389   2.666
 1567TIP3    H1 4665   4.400   1.313   2.707
 1567TIP3    H2 4666   4.355   1.366   2.573
 1568TIP3   OH2 4667   6.078   4.293   0.340
 1568TIP3    H1 4668   5.984   4.280   0.354
 1568TIP3    H2 4669   6.118   4.209   0.365
 1569TIP3   OH2 4670   3.128   1.340   2.949
 1569TIP3    H1 4671   3.161   1.427   2.970
 1569TIP3    H2 4672   3.167   1.283   3.015
 1570TIP3   OH2 4673   0.585   0.447   2.193
 1570TIP3    H1 4674   0.617   0.435   2.103
 1570TIP3    H2 4675   0.603   0.539   2.213
 1571TIP3   OH2 4676   2.527   6.291   1.515
 1571TIP3    H1 4677   2.578   6.339   1.450
 1571TIP3    H2 4678   2.590   6.267   1.583
 1572TIP3   OH2 4679   2.652   2.174   3.741
 1572TIP3    H1 4680   2.696   2.217   3.667
 1572TIP3    H2 4681   2.652   2.081   3.718
 1573TIP3   OH2 4682   5.686   5.201   0.314
 1573TIP3    H1 4683   5.682   5.194   0.409
 1573TIP3    H2 4684   5.601   5.236   0.289
 1574TIP3   OH2 4685   3.256   4.237   3.905
 1574TIP3    H1 4686   3.304   4.163   3.869
 1574TIP3    H2 4687   3.196   4.199   3.968
 1575TIP3   OH2 4688   6.952   0.447   5.324
 1575TIP3    H1 4689   6.901   0.451   5.406
 1575TIP3    H2 4690   7.018   0.380   5.340
 1576TIP3   OH2 4691   6.449   3.763   5.183
 1576TIP3    H1 4692   6.463   3.671   5.164
 1576TIP3    H2 4693   6.374   3.788   5.129
 1577TIP3   OH2 4694   1.662   2.570   0.092
 1577TIP3    H1 4695   1.710   2.576   0.174
 1577TIP3    H2 4696   1.729   2.559   0.025
 1578TIP3   OH2 4697   4.081   0.776   0.699
 1578TIP3    H1 4698   3.989   0.767   0.675
 1578TIP3    H2 4699   4.123   0.814   0.622
 1579TIP3   OH2 4700   4.644   3.030   1.107
 1579TIP3    H1 4701   4.618   3.090   1.036
 1579TIP3    H2 4702   4.570   3.033   1.168
 1580TIP3   OH2 4703   0.682   1.784   5.486
 1580TIP3    H1 4704   0.746   1.746   5.427
 1580TIP3    H2 4705   0.675   1.721   5.558
 1581TIP3   OH2 4706   3.043   4.228   0.777
 1581TIP3    H1 4707   3.133   4.261   0.781
 1581TIP3    H2 4708   2.990   4.303   0.804
 1582TIP3   OH2 4709   7.003   3.313   3.077
 1582TIP3    H1 4710   7.021   3.280   2.989
 1582TIP3    H2 4711   6.910   3.335   3.077
 1583TIP3   OH2 4712   0.531   0.239   4.888
 1583TIP3    H1 4713   0.551   0.238   4.982
 1583TIP3    H2 4714   0.615   0.258   4.846
 1584TIP3   OH2 4715   6.122   0.694   2.214
 1584TIP3    H1 4716   6.156   0.771   2.169
 1584TIP3    H2 4717   6.040   0.674   2.169
 1585TIP3   OH2 4718   2.461   2.345   5.355
 1585TIP3    H1 4719   2.457   2.308   5.443
 1585TIP3    H2 4720   2.539   2.307   5.316
 1586TIP3   OH2 4721   1.415   2.460   5.034
 1586TIP3    H1 4722   1.448   2.519   5.103
 1586TIP3    H2 4723   1.333   2.426   5.069
 1587TIP3   OH2 4724   1.797   2.860   3.412
 1587TIP3    H1 4725   1.766   2.861   3.321
 1587TIP3    H2 4726   1.875   2.804   3.410
 1588TIP3   OH2 4727   6.288   0.966   1.746
 1588TIP3    H1 4728   6.342   1.022   1.801
 1588TIP3    H2 4729   6.318   0.986   1.656
 1589TIP3   OH2 4730   2.942   4.164   2.694
 1589TIP3    H1 4731   2.942   4.246   2.644
 1589TIP3    H2 4732   2.922   4.191   2.784
 1590TIP3   OH2 4733   3.836   6.388   2.355
 1590TIP3    H1 4734   3.826   6.460   2.417
 1590TIP3    H2 4735   3.921   6.403   2.314
 1591TIP3   OH2 4736   0.764   5.498   1.479
 1591TIP3    H1 4737   0.755   5.419   1.425
 1591TIP3    H2 4738   0.802   5.467   1.561
 1592TIP3   OH2 4739   0.577   3.013   2.389
 1592TIP3    H1 4740   0.662   3.037   2.426
 1592TIP3    H2 4741   0.541   3.096   2.356
 1593TIP3   OH2 4742   4.183   1.638   4.416
 1593TIP3    H1 4743   4.118   1.707   4.425
 1593TIP3    H2 4744   4.267   1.683   4.419
 1594TIP3   OH2 4745   3.740   1.756   3.437
 1594TIP3    H1 4746   3.781   1.675   3.469
 1594TIP3    H2 4747   3.814   1.810   3.407
 1595TIP3   OH2 4748   1.322   1.140   5.879
 1595TIP3    H1 4749   1.262   1.125   5.953
 1595TIP3    H2 4750   1.298   1.226   5.845
 1596TIP3   OH2 4751   4.108   2.980   5.877
 1596TIP3    H1 4752   4.082   3.072   5.865
 1596TIP3    H2 4753   4.204   2.982   5.872
 1597TIP3   OH2 4754   5.756   0.109   0.673
 1597TIP3    H1 4755   5.846   0.079   0.672
 1597TIP3    H2 4756   5.740   0.136   0.763
 1598TIP3   OH2 4757   4.158   3.820   5.006
 1598TIP3    H1 4758   4.154   3.806   4.912
 1598TIP3    H2 4759   4.251   3.833   5.025
 1599TIP3   OH2 4760   2.279   5.991   0.036
 1599TIP3    H1 4761   2.369   5.970   0.012
 1599TIP3    H2 4762   2.232   6.000  -0.047
 1600TIP3   OH2 4763   4.790   0.848   5.540
 1600TIP3    H1 4764   4.706   0.813   5.511
 1600TIP3    H2 4765   4.855   0.806   5.484
 1601TIP3   OH2 4766   1.036   0.780   0.322
 1601TIP3    H1 4767   1.099   0.834   0.275
 1601TIP3    H2 4768   0.984   0.843   0.372
 1602TIP3   OH2 4769   5.207   2.600   2.734
 1602TIP3    H1 4770   5.249   2.628   2.816
 1602TIP3    H2 4771   5.168   2.515   2.755
 1603TIP3   OH2 4772   1.099   5.275   3.984
 1603TIP3    H1 4773   1.171   5.228   4.026
 1603TIP3    H2 4774   1.089   5.232   3.899
 1604TIP3   OH2 4775   7.018   1.936   1.153
 1604TIP3    H1 4776   7.037   1.955   1.061
 1604TIP3    H2 4777   7.085   1.985   1.201
 1605TIP3   OH2 4778   4.464   6.320   3.970
 1605TIP3    H1 4779   4.420   6.387   3.918
 1605TIP3    H2 4780   4.420   6.239   3.947
 1606TIP3   OH2 4781   2.155   3.519   4.337
 1606TIP3    H1 4782   2.099   3.588   4.301
 1606TIP3    H2 4783   2.112   3.437   4.309
 1607TIP3   OH2 4784   2.447   5.486   4.078
 1607TIP3    H1 4785   2.362   5.512   4.112
 1607TIP3    H2 4786   2.494   5.569   4.065
 1608TIP3   OH2 4787   5.373   5.048   0.249
 1608TIP3    H1 4788   5.422   4.977   0.208
 1608TIP3    H2 4789   5.375   5.119   0.185
 1609TIP3   OH2 4790   5.844   3.802   2.483
 1609TIP3    H1 4791   5.797   3.823   2.563
 1609TIP3    H2 4792   5.907   3.873   2.472
 1610TIP3   OH2 4793   4.414   4.424   2.463
 1610TIP3    H1 4794   4.497   4.417   2.416
 1610TIP3    H2 4795   4.350   4.381   2.407
 1611TIP3   OH2 4796   1.762   0.607   5.101
 1611TIP3    H1 4797   1.822   0.682   5.095
 1611TIP3    H2 4798   1.734   0.592   5.011
 1612TIP3   OH2 4799   4.404   1.687   2.771
 1612TIP3    H1 4800   4.449   1.603   2.780
 1612TIP3    H2 4801   4.336   1.685   2.838
 1613TIP3   OH2 4802   0.237   4.713   2.906
 1613TIP3    H1 4803   0.290   4.657   2.962
 1613TIP3    H2 4804   0.222   4.792   2.958
 1614TIP3   OH2 4805   6.692   0.347   3.351
 1614TIP3    H1 4806   6.642   0.270   3.323
 1614TIP3    H2 4807   6.766   0.350   3.290
 1615TIP3   OH2 4808   4.136   4.106   1.880
 1615TIP3    H1 4809   4.061   4.047   1.879
 1615TIP3    H2 4810   4.206   4.054   1.921
 1616TIP3   OH2 4811   3.615   2.625   1.349
 1616TIP3    H1 4812   3.575   2.570   1.282
 1616TIP3    H2 4813   3.605   2.714   1.316
 1617TIP3   OH2 4814   6.074   5.302   0.777
 1617TIP3    H1 4815   6.120   5.385   0.791
 1617TIP3    H2 4816   5.995   5.326   0.728
 1618TIP3   OH2 4817   0.994   1.854   4.114
 1618TIP3    H1 4818   0.928   1.915   4.080
 1618TIP3    H2 4819   1.038   1.821   4.036
 1619TIP3   OH2 4820   2.238   3.880   5.583
 1619TIP3    H1 4821   2.191   3.892   5.666
 1619TIP3    H2 4822   2.211   3.794   5.553
 1620TIP3   OH2 4823   3.375   6.129   1.218
 1620TIP3    H1 4824   3.438   6.201   1.226
 1620TIP3    H2 4825   3.414   6.069   1.155
 1621TIP3   OH2 4826   2.946   4.626   1.340
 1621TIP3    H1 4827   2.964   4.564   1.270
 1621TIP3    H2 4828   3.031   4.665   1.361
 1622TIP3   OH2 4829   6.939   2.651   5.072
 1622TIP3    H1 4830   7.020   2.698   5.054
 1622TIP3    H2 4831   6.923   2.665   5.165
 1623TIP3   OH2 4832   5.317   3.234   5.168
 1623TIP3    H1 4833   5.280   3.322   5.169
 1623TIP3    H2 4834   5.335   3.217   5.075
 1624TIP3   OH2 4835   4.321   4.664   1.663
 1624TIP3    H1 4836   4.278   4.749   1.656
 1624TIP3    H2 4837   4.380   4.661   1.588
 1625TIP3   OH2 4838   6.334   1.521   3.729
 1625TIP3    H1 4839   6.299   1.470   3.802
 1625TIP3    H2 4840   6.260   1.532   3.669
 1626TIP3   OH2 4841   0.381   0.061   0.011
 1626TIP3    H1 4842   0.313   0.055   0.077
 1626TIP3    H2 4843   0.372  -0.020  -0.040
 1627TIP3   OH2 4844   2.905   1.971   0.521
 1627TIP3    H1 4845   2.961   1.934   0.588
 1627TIP3    H2 4846   2.942   1.938   0.438
 1628TIP3   OH2 4847   5.805   6.588   3.163
 1628TIP3    H1 4848   5.770   6.660   3.216
 1628TIP3    H2 4849   5.729   6.552   3.118
 1629TIP3   OH2 4850   2.885   5.650   4.506
 1629TIP3    H1 4851   2.911   5.559   4.491
 1629TIP3    H2 4852   2.833   5.648   4.586
 1630TIP3   OH2 4853   6.250   5.788   4.464
 1630TIP3    H1 4854   6.190   5.714   4.469
 1630TIP3    H2 4855   6.233   5.839   4.544
 1631TIP3   OH2 4856   1.122   4.494   0.861
 1631TIP3    H1 4857   1.047   4.518   0.807
 1631TIP3    H2 4858   1.084   4.453   0.939
 1632TIP3   OH2 4859   6.960   0.564   5.058
 1632TIP3    H1 4860   6.989   0.484   5.014
 1632TIP3    H2 4861   6.936   0.537   5.146
 1633TIP3   OH2 4862   5.770   5.583   0.385
 1633TIP3    H1 4863   5.717   5.641   0.441
 1633TIP3    H2 4864   5.860   5.597   0.415
 1634TIP3   OH2 4865   6.426   0.213   0.100
 1634TIP3    H1 4866   6.498   0.181   0.046
 1634TIP3    H2 4867   6.432   0.308   0.095
 1635TIP3   OH2 4868   1.681   2.726   2.322
 1635TIP3    H1 4869   1.681   2.683   2.407
 1635TIP3    H2 4870   1.734   2.805   2.334
 1636TIP3   OH2 4871   1.722   2.911   4.867
 1636TIP3    H1 4872   1.789   2.936   4.931
 1636TIP3    H2 4873   1.733   2.817   4.856
 1637TIP3   OH2 4874   3.354   4.032   5.336
 1637TIP3    H1 4875   3.445   4.010   5.357
 1637TIP3    H2 4876   3.315   3.948   5.310
 1638TIP3   OH2 4877   6.333   2.669   0.998
 1638TIP3    H1 4878   6.423   2.642   0.981
 1638TIP3    H2 4879   6.280   2.607   0.948
 1639TIP3   OH2 4880   5.434   1.701   1.585
 1639TIP3    H1 4881   5.422   1.649   1.506
 1639TIP3    H2 4882   5.364   1.766   1.581
 1640TIP3   OH2 4883   1.208   1.137   0.413
 1640TIP3    H1 4884   1.275   1.070   0.426
 1640TIP3    H2 4885   1.255   1.212   0.377
 1641TIP3   OH2 4886   3.504   4.557   3.215
 1641TIP3    H1 4887   3.423   4.606   3.203
 1641TIP3    H2 4888   3.560   4.616   3.265
 1642TIP3   OH2 4889   2.983   2.338   1.508
 1642TIP3    H1 4890   2.966   2.432   1.507
 1642TIP3    H2 4891   2.967   2.309   1.418
 1643TIP3   OH2 4892   1.365   2.511   3.545
 1643TIP3    H1 4893   1.386   2.418   3.556
 1643TIP3    H2 4894   1.451   2.553   3.535
 1644TIP3   OH2 4895   2.692   1.186   4.432
 1644TIP3    H1 4896   2.620   1.219   4.379
 1644TIP3    H2 4897   2.760   1.253   4.424
 1645TIP3   OH2 4898   6.138   4.978   4.265
 1645TIP3    H1 4899   6.221   5.015   4.293
 1645TIP3    H2 4900   6.162   4.901   4.214
 1646TIP3   OH2 4901   1.687   2.922   4.087
 1646TIP3    H1 4902   1.605   2.917   4.136
 1646TIP3    H2 4903   1.708   2.832   4.066
 1647TIP3   OH2 4904   2.712   0.611   1.613
 1647TIP3    H1 4905   2.768   0.560   1.554
 1647TIP3    H2 4906   2.623   0.590   1.585
 1648TIP3   OH2 4907   3.442   3.850   2.010
 1648TIP3    H1 4908   3.454   3.865   2.104
 1648TIP3    H2 4909   3.432   3.755   2.002
 1649TIP3   OH2 4910   0.088   6.649   3.464
 1649TIP3    H1 4911  -0.007   6.661   3.467
 1649TIP3    H2 4912   0.104   6.574   3.521
 1650TIP3   OH2 4913   4.203   6.056   2.724
 1650TIP3    H1 4914   4.110   6.062   2.700
 1650TIP3    H2 4915   4.250   6.071   2.642
 1651TIP3   OH2 4916   6.053   1.359   4.635
 1651TIP3    H1 4917   6.005   1.276   4.634
 1651TIP3    H2 4918   5.999   1.418   4.583
 1652TIP3   OH2 4919   4.125   0.039   2.882
 1652TIP3    H1 4920   4.145   0.120   2.835
 1652TIP3    H2 4921   4.125   0.064   2.974
 1653TIP3   OH2 4922   1.594   1.255   4.326
 1653TIP3    H1 4923   1.655   1.181   4.318
 1653TIP3    H2 4924   1.515   1.226   4.281
 1654TIP3   OH2 4925   5.583   3.502   4.880
 1654TIP3    H1 4926   5.543   3.555   4.812
 1654TIP3    H2 4927   5.673   3.534   4.887
 1655TIP3   OH2 4928   0.894   6.199   1.450
 1655TIP3    H1 4929   0.986   6.182   1.467
 1655TIP3    H2 4930   0.890   6.293   1.431
 1656TIP3   OH2 4931   5.348   6.343   0.634
 1656TIP3    H1 4932   5.307   6.267   0.594
 1656TIP3    H2 4933   5.441   6.323   0.636
 1657TIP3   OH2 4934   0.561   4.650   2.510
 1657TIP3    H1 4935   0.579   4.691   2.595
 1657TIP3    H2 4936   0.523   4.565   2.532
 1658TIP3   OH2 4937   6.362   5.621   2.472
 1658TIP3    H1 4938   6.290   5.583   2.522
 1658TIP3    H2 4939   6.363   5.713   2.498
 1659TIP3   OH2 4940   2.707   5.320   0.682
 1659TIP3    H1 4941   2.628   5.372   0.666
 1659TIP3    H2 4942   2.697   5.243   0.625
 1660TIP3   OH2 4943   4.723   3.325   4.264
 1660TIP3    H1 4944   4.726   3.241   4.310
 1660TIP3    H2 4945   4.712   3.301   4.172
 1661TIP3   OH2 4946   2.559   4.716   2.386
 1661TIP3    H1 4947   2.604   4.664   2.452
 1661TIP3    H2 4948   2.597   4.688   2.303
 1662TIP3   OH2 4949   0.521   6.183   1.547
 1662TIP3    H1 4950   0.470   6.252   1.505
 1662TIP3    H2 4951   0.502   6.104   1.495
 1663TIP3   OH2 4952   1.110   6.202   3.658
 1663TIP3    H1 4953   1.179   6.249   3.705
 1663TIP3    H2 4954   1.155   6.133   3.610
 1664TIP3   OH2 4955   0.209   6.537   0.961
 1664TIP3    H1 4956   0.148   6.466   0.941
 1664TIP3    H2 4957   0.188   6.562   1.051
 1665TIP3   OH2 4958   1.920   6.257   4.033
 1665TIP3    H1 4959   1.965   6.331   4.074
 1665TIP3    H2 4960   1.925   6.187   4.099
 1666TIP3   OH2 4961   2.214   3.437   0.780
 1666TIP3    H1 4962   2.291   3.492   0.799
 1666TIP3    H2 4963   2.155   3.495   0.731
 1667TIP3   OH2 4964   0.562   0.744   0.158
 1667TIP3    H1 4965   0.613   0.796   0.096
 1667TIP3    H2 4966   0.625   0.680   0.192
 1668TIP3   OH2 4967   3.912   6.174   2.111
 1668TIP3    H1 4968   3.940   6.260   2.079
 1668TIP3    H2 4969   3.937   6.174   2.204
 1669TIP3   OH2 4970   1.680   4.355   1.981
 1669TIP3    H1 4971   1.774   4.335   1.988
 1669TIP3    H2 4972   1.669   4.437   2.028
 1670TIP3   OH2 4973   5.337   0.464   1.650
 1670TIP3    H1 4974   5.412   0.420   1.609
 1670TIP3    H2 4975   5.282   0.492   1.576
 1671TIP3   OH2 4976   5.969   0.288   2.407
 1671TIP3    H1 4977   6.031   0.330   2.347
 1671TIP3    H2 4978   5.959   0.350   2.478
 1672TIP3   OH2 4979   2.745   1.138   3.095
 1672TIP3    H1 4980   2.784   1.195   3.028
 1672TIP3    H2 4981   2.739   1.053   3.052
 1673TIP3   OH2 4982   4.050   6.798   3.870
 1673TIP3    H1 4983   4.038   6.730   3.936
 1673TIP3    H2 4984   4.103   6.756   3.802
 1674TIP3   OH2 4985   4.741   0.905   3.568
 1674TIP3    H1 4986   4.717   0.968   3.637
 1674TIP3    H2 4987   4.822   0.940   3.531
 1675TIP3   OH2 4988   0.738   6.726   0.706
 1675TIP3    H1 4989   0.798   6.713   0.632
 1675TIP3    H2 4990   0.794   6.722   0.783
 1676TIP3   OH2 4991   0.168   5.050   5.734
 1676TIP3    H1 4992   0.217   4.969   5.720
 1676TIP3    H2 4993   0.173   5.096   5.651
 1677TIP3   OH2 4994   1.552   3.594   5.612
 1677TIP3    H1 4995   1.506   3.657   5.667
 1677TIP3    H2 4996   1.638   3.583   5.653
 1678TIP3   OH2 4997   3.840   3.089   2.347
 1678TIP3    H1 4998   3.824   3.111   2.255
 1678TIP3    H2 4999   3.799   3.161   2.396
 1679TIP3   OH2 5000   4.326   5.153   4.087
 1679TIP3    H1 5001   4.405   5.118   4.046
 1679TIP3    H2 5002   4.268   5.176   4.014
 1680TIP3   OH2 5003   4.469   1.518   1.827
 1680TIP3    H1 5004   4.546   1.550   1.780
 1680TIP3    H2 5005   4.481   1.549   1.917
 1681TIP3   OH2 5006   1.483   6.364   0.822
 1681TIP3    H1 5007   1.534   6.405   0.892
 1681TIP3    H2 5008   1.502   6.270   0.830
 1682TIP3   OH2 5009   2.183   3.123   2.166
 1682TIP3    H1 5010   2.215   3.080   2.245
 1682TIP3    H2 5011   2.110   3.177   2.196
 1683TIP3   OH2 5012   0.550   6.026   2.042
 1683TIP3    H1 5013   0.562   5.932   2.033
 1683TIP3    H2 5014   0.498   6.052   1.965
 1684TIP3   OH2 5015   0.915   4.137   2.430
 1684TIP3    H1 5016   0.905   4.222   2.473
 1684TIP3    H2 5017   1.010   4.124   2.426
 1685TIP3   OH2 5018   0.558   4.408   4.166
 1685TIP3    H1 5019   0.547   4.499   4.194
 1685TIP3    H2 5020   0.621   4.371   4.229
 1686TIP3   OH2 5021   1.323   6.100   2.665
 1686TIP3    H1 5022   1.266   6.129   2.594
 1686TIP3    H2 5023   1.366   6.180   2.695
 1687TIP3   OH2 5024   2.122   4.293   1.100
 1687TIP3    H1 5025   2.127   4.205   1.063
 1687TIP3    H2 5026   2.175   4.347   1.042
 1688TIP3   OH2 5027   1.697   1.531   1.190
 1688TIP3    H1 5028   1.653   1.550   1.107
 1688TIP3    H2 5029   1.676   1.605   1.246
 1689TIP3   OH2 5030   1.674   2.066   0.579
 1689TIP3    H1 5031   1.675   2.149   0.626
 1689TIP3    H2 5032   1.599   2.072   0.520
 1690TIP3   OH2 5033   5.474   4.659   1.394
 1690TIP3    H1 5034   5.502   4.645   1.304
 1690TIP3    H2 5035   5.486   4.574   1.436
 1691TIP3   OH2 5036   2.333   3.790   1.593
 1691TIP3    H1 5037   2.307   3.767   1.682
 1691TIP3    H2 5038   2.336   3.707   1.547
 1692TIP3   OH2 5039   5.444   6.289   3.027
 1692TIP3    H1 5040   5.395   6.215   3.062
 1692TIP3    H2 5041   5.535   6.273   3.053
 1693TIP3   OH2 5042   1.421   6.413   4.430
 1693TIP3    H1 5043   1.395   6.468   4.504
 1693TIP3    H2 5044   1.346   6.415   4.371
 1694TIP3   OH2 5045   2.536   6.424   3.043
 1694TIP3    H1 5046   2.562   6.513   3.020
 1694TIP3    H2 5047   2.616   6.382   3.074
 1695TIP3   OH2 5048   7.023   5.783   4.574
 1695TIP3    H1 5049   6.931   5.804   4.591
 1695TIP3    H2 5050   7.025   5.756   4.483
 1696TIP3   OH2 5051   6.733   5.243   3.984
 1696TIP3    H1 5052   6.760   5.210   4.070
 1696TIP3    H2 5053   6.681   5.321   4.004
 1697TIP3   OH2 5054   4.401   1.517   1.513
 1697TIP3    H1 5055   4.360   1.431   1.502
 1697TIP3    H2 5056   4.401   1.555   1.425
 1698TIP3   OH2 5057   5.599   5.941   2.118
 1698TIP3    H1 5058   5.546   5.920   2.042
 1698TIP3    H2 5059   5.660   5.867   2.126
 1699TIP3   OH2 5060   5.748   2.358   5.112
 1699TIP3    H1 5061   5.742   2.447   5.076
 1699TIP3    H2 5062   5.663   2.343   5.154
 1700TIP3   OH2 5063   3.880   2.730   3.936
 1700TIP3    H1 5064   3.796   2.715   3.894
 1700TIP3    H2 5065   3.943   2.683   3.880
 1701TIP3   OH2 5066   1.036   6.237   1.108
 1701TIP3    H1 5067   0.983   6.162   1.138
 1701TIP3    H2 5068   1.054   6.219   1.016
 1702TIP3   OH2 5069   5.559   1.520   3.366
 1702TIP3    H1 5070   5.571   1.429   3.394
 1702TIP3    H2 5071   5.466   1.536   3.377
 1703TIP3   OH2 5072   2.005   4.158   2.300
 1703TIP3    H1 5073   2.085   4.157   2.247
 1703TIP3    H2 5074   1.951   4.089   2.262
 1704TIP3   OH2 5075   4.396   4.938   5.055
 1704TIP3    H1 5076   4.480   4.981   5.070
 1704TIP3    H2 5077   4.414   4.845   5.072
 1705TIP3   OH2 5078   2.633   2.244   1.280
 1705TIP3    H1 5079   2.663   2.308   1.345
 1705TIP3    H2 5080   2.556   2.285   1.241
 1706TIP3   OH2 5081   3.876   2.597   1.740
 1706TIP3    H1 5082   3.786   2.624   1.752
 1706TIP3    H2 5083   3.873   2.501   1.742
 1707TIP3   OH2 5084   3.938   6.164   0.525
 1707TIP3    H1 5085   3.866   6.120   0.570
 1707TIP3    H2 5086   3.921   6.148   0.432
 1708TIP3   OH2 5087   4.591   3.976   5.728
 1708TIP3    H1 5088   4.555   3.907   5.784
 1708TIP3    H2 5089   4.668   4.007   5.776
 1709TIP3   OH2 5090   6.937   4.510   0.155
 1709TIP3    H1 5091   6.848   4.518   0.119
 1709TIP3    H2 5092   6.990   4.569   0.101
 1710TIP3   OH2 5093   3.504   5.041   4.968
 1710TIP3    H1 5094   3.414   5.027   5.000
 1710TIP3    H2 5095   3.505   5.132   4.939
 1711TIP3   OH2 5096   6.048   0.598   5.471
 1711TIP3    H1 5097   6.131   0.611   5.517
 1711TIP3    H2 5098   6.074   0.580   5.380
 1712TIP3   OH2 5099   1.705   4.906   0.726
 1712TIP3    H1 5100   1.790   4.867   0.704
 1712TIP3    H2 5101   1.704   4.989   0.679
 1713TIP3   OH2 5102   3.153   0.940   2.504
 1713TIP3    H1 5103   3.101   0.929   2.424
 1713TIP3    H2 5104   3.183   1.031   2.500
 1714TIP3   OH2 5105   1.997   1.343   0.189
 1714TIP3    H1 5106   1.962   1.423   0.228
 1714TIP3    H2 5107   2.040   1.372   0.109
 1715TIP3   OH2 5108   7.066   2.262   3.119
 1715TIP3    H1 5109   7.064   2.272   3.214
 1715TIP3    H2 5110   7.035   2.172   3.104
 1716TIP3   OH2 5111   6.956   0.892   5.294
 1716TIP3    H1 5112   7.006   0.879   5.213
 1716TIP3    H2 5113   7.012   0.857   5.363
 1717TIP3   OH2 5114   5.077   0.451   5.478
 1717TIP3    H1 5115   5.149   0.459   5.416
 1717TIP3    H2 5116   5.063   0.356   5.487
 1718TIP3   OH2 5117   2.308   6.392   3.309
 1718TIP3    H1 5118   2.320   6.487   3.312
 1718TIP3    H2 5119   2.238   6.378   3.245
 1719TIP3   OH2 5120   6.469   6.517   0.295
 1719TIP3    H1 5121   6.555   6.489   0.325
 1719TIP3    H2 5122   6.458   6.604   0.332
 1720TIP3   OH2 5123   3.287   3.105   3.753
 1720TIP3    H1 5124   3.317   3.192   3.777
 1720TIP3    H2 5125   3.283   3.057   3.836
 1721TIP3   OH2 5126   2.976   0.773   3.030
 1721TIP3    H1 5127   2.942   0.744   3.115
 1721TIP3    H2 5128   2.979   0.693   2.978
 1722TIP3   OH2 5129   3.612   3.332   2.459
 1722TIP3    H1 5130   3.590   3.354   2.549
 1722TIP3    H2 5131   3.648   3.413   2.422
 1723TIP3   OH2 5132   3.005   0.759   2.649
 1723TIP3    H1 5133   2.916   0.785   2.627
 1723TIP3    H2 5134   3.060   0.830   2.616
 1724TIP3   OH2 5135   3.370   3.074   3.050
 1724TIP3    H1 5136   3.406   3.158   3.023
 1724TIP3    H2 5137   3.280   3.095   3.078
 1725TIP3   OH2 5138   6.213   5.111   1.427
 1725TIP3    H1 5139   6.219   5.079   1.517
 1725TIP3    H2 5140   6.279   5.061   1.379
 1726TIP3   OH2 5141   6.000   0.008   5.827
 1726TIP3    H1 5142   6.008   0.103   5.838
 1726TIP3    H2 5143   5.915  -0.013   5.866
 1727TIP3   OH2 5144   5.107   2.036   4.886
 1727TIP3    H1 5145   5.058   1.980   4.946
 1727TIP3    H2 5146   5.199   2.025   4.913
 1728TIP3   OH2 5147   0.989   6.596   2.037
 1728TIP3    H1 5148   1.080   6.604   2.064
 1728TIP3    H2 5149   0.947   6.548   2.109
 1729TIP3   OH2 5150   3.453   5.448   4.437
 1729TIP3    H1 5151   3.463   5.403   4.521
 1729TIP3    H2 5152   3.532   5.501   4.429
 1730TIP3   OH2 5153   1.319   1.176   2.042
 1730TIP3    H1 5154   1.360   1.243   1.986
 1730TIP3    H2 5155   1.243   1.220   2.080
 1731TIP3   OH2 5156   1.190   2.452   1.428
 1731TIP3    H1 5157   1.268   2.499   1.459
 1731TIP3    H2 5158   1.187   2.470   1.334
 1732TIP3   OH2 5159   2.832   0.216   5.283
 1732TIP3    H1 5160   2.764   0.278   5.312
 1732TIP3    H2 5161   2.798   0.130   5.307
 1733TIP3   OH2 5162   5.909   6.014   4.770
 1733TIP3    H1 5163   5.831   5.982   4.725
 1733TIP3    H2 5164   5.982   5.968   4.726
 1734TIP3   OH2 5165   5.162   5.381   5.320
 1734TIP3    H1 5166   5.128   5.354   5.405
 1734TIP3    H2 5167   5.104   5.338   5.256
 1735TIP3   OH2 5168   7.197   0.701   3.082
 1735TIP3    H1 5169   7.250   0.765   3.034
 1735TIP3    H2 5170   7.244   0.618   3.070
 1736TIP3   OH2 5171   1.262   0.876   0.202
 1736TIP3    H1 5172   1.276   0.781   0.202
 1736TIP3    H2 5173   1.338   0.912   0.248
 1737TIP3   OH2 5174   5.245   4.799   0.680
 1737TIP3    H1 5175   5.271   4.856   0.608
 1737TIP3    H2 5176   5.276   4.712   0.654
 1738TIP3   OH2 5177   5.827   4.014   1.924
 1738TIP3    H1 5178   5.868   3.989   1.841
 1738TIP3    H2 5179   5.737   3.982   1.917
 1739TIP3   OH2 5180   6.555   4.515   4.319
 1739TIP3    H1 5181   6.465   4.546   4.312
 1739TIP3    H2 5182   6.548   4.420   4.325
 1740TIP3   OH2 5183   2.549   4.765   5.169
 1740TIP3    H1 5184   2.636   4.726   5.179
 1740TIP3    H2 5185   2.493   4.691   5.146
 1741TIP3   OH2 5186   2.474   4.429   0.189
 1741TIP3    H1 5187   2.428   4.346   0.198
 1741TIP3    H2 5188   2.440   4.466   0.107
 1742TIP3   OH2 5189   5.554   2.482   3.465
 1742TIP3    H1 5190   5.605   2.518   3.393
 1742TIP3    H2 5191   5.562   2.546   3.535
 1743TIP3   OH2 5192   4.419   3.429   2.532
 1743TIP3    H1 5193   4.503   3.423   2.577
 1743TIP3    H2 5194   4.388   3.339   2.527
 1744TIP3   OH2 5195   3.124   4.795   1.583
 1744TIP3    H1 5196   3.198   4.781   1.523
 1744TIP3    H2 5197   3.065   4.852   1.535
 1745TIP3   OH2 5198   1.846   4.538   3.566
 1745TIP3    H1 5199   1.906   4.579   3.628
 1745TIP3    H2 5200   1.823   4.454   3.607
 1746TIP3   OH2 5201   1.812   2.305   0.023
 1746TIP3    H1 5202   1.853   2.236   0.076
 1746TIP3    H2 5203   1.849   2.386   0.058
 1747TIP3   OH2 5204   2.406   5.742   1.741
 1747TIP3    H1 5205   2.388   5.835   1.752
 1747TIP3    H2 5206   2.402   5.706   1.829
 1748TIP3   OH2 5207   5.336   3.352   1.212
 1748TIP3    H1 5208   5.373   3.357   1.300
 1748TIP3    H2 5209   5.244   3.329   1.226
 1749TIP3   OH2 5210   0.319   6.498   3.131
 1749TIP3    H1 5211   0.314   6.448   3.212
 1749TIP3    H2 5212   0.383   6.452   3.077
 1750TIP3   OH2 5213   3.937   1.319   4.638
 1750TIP3    H1 5214   3.858   1.348   4.683
 1750TIP3    H2 5215   3.990   1.398   4.630
 1751TIP3   OH2 5216   5.855   2.233   5.884
 1751TIP3    H1 5217   5.920   2.254   5.817
 1751TIP3    H2 5218   5.779   2.201   5.836
 1752TIP3   OH2 5219   0.747   1.233   4.493
 1752TIP3    H1 5220   0.721   1.271   4.577
 1752TIP3    H2 5221   0.808   1.163   4.515
 1753TIP3   OH2 5222   2.745   5.684   3.668
 1753TIP3    H1 5223   2.757   5.604   3.616
 1753TIP3    H2 5224   2.659   5.717   3.641
 1754TIP3   OH2 5225   2.641   5.541   4.932
 1754TIP3    H1 5226   2.622   5.448   4.926
 1754TIP3    H2 5227   2.604   5.569   5.015
 1755TIP3   OH2 5228   7.002   5.326   0.788
 1755TIP3    H1 5229   7.046   5.374   0.718
 1755TIP3    H2 5230   6.953   5.257   0.743
 1756TIP3   OH2 5231   1.923   2.585   5.412
 1756TIP3    H1 5232   1.980   2.579   5.488
 1756TIP3    H2 5233   1.947   2.509   5.359
 1757TIP3   OH2 5234   2.729   2.872   1.843
 1757TIP3    H1 5235   2.698   2.783   1.858
 1757TIP3    H2 5236   2.777   2.895   1.923
 1758TIP3   OH2 5237   3.733   6.033   1.961
 1758TIP3    H1 5238   3.691   5.972   2.022
 1758TIP3    H2 5239   3.771   6.101   2.016
 1759TIP3   OH2 5240   3.730   3.881   3.275
 1759TIP3    H1 5241   3.806   3.849   3.323
 1759TIP3    H2 5242   3.694   3.950   3.330
 1760TIP3   OH2 5243   3.591   2.279   2.672
 1760TIP3    H1 5244   3.556   2.191   2.655
 1760TIP3    H2 5245   3.526   2.338   2.635
 1761TIP3   OH2 5246   0.910   1.879   0.569
 1761TIP3    H1 5247   0.886   1.856   0.659
 1761TIP3    H2 5248   0.887   1.972   0.562
 1762TIP3   OH2 5249   5.973   2.068   0.429
 1762TIP3    H1 5250   6.018   2.001   0.481
 1762TIP3    H2 5251   5.925   2.018   0.363
 1763TIP3   OH2 5252   5.927   5.396   4.509
 1763TIP3    H1 5253   5.885   5.377   4.593
 1763TIP3    H2 5254   5.924   5.313   4.461
 1764TIP3   OH2 5255   6.382   2.868   2.879
 1764TIP3    H1 5256   6.448   2.898   2.817
 1764TIP3    H2 5257   6.430   2.811   2.940
 1765TIP3   OH2 5258   3.148   0.676   0.989
 1765TIP3    H1 5259   3.209   0.608   1.016
 1765TIP3    H2 5260   3.149   0.673   0.893
 1766TIP3   OH2 5261   0.670   6.365   3.369
 1766TIP3    H1 5262   0.669   6.458   3.347
 1766TIP3    H2 5263   0.761   6.346   3.391
 1767TIP3   OH2 5264   2.675   2.242   1.553
 1767TIP3    H1 5265   2.696   2.156   1.516
 1767TIP3    H2 5266   2.682   2.230   1.648
 1768TIP3   OH2 5267   1.405   6.240   0.030
 1768TIP3    H1 5268   1.493   6.232  -0.007
 1768TIP3    H2 5269   1.419   6.242   0.124
 1769TIP3   OH2 5270   2.293   3.203   1.020
 1769TIP3    H1 5271   2.265   3.155   1.098
 1769TIP3    H2 5272   2.307   3.136   0.953
 1770TIP3   OH2 5273   4.668   2.243   3.840
 1770TIP3    H1 5274   4.608   2.265   3.768
 1770TIP3    H2 5275   4.627   2.280   3.918
 1771TIP3   OH2 5276   6.417   4.771   1.637
 1771TIP3    H1 5277   6.347   4.832   1.660
 1771TIP3    H2 5278   6.495   4.807   1.679
 1772TIP3   OH2 5279   6.574   4.103   5.603
 1772TIP3    H1 5280   6.637   4.062   5.544
 1772TIP3    H2 5281   6.502   4.131   5.547
 1773TIP3   OH2 5282   2.538   2.992   0.485
 1773TIP3    H1 5283   2.468   2.993   0.550
 1773TIP3    H2 5284   2.504   3.045   0.412
 1774TIP3   OH2 5285   2.155   0.310   4.844
 1774TIP3    H1 5286   2.086   0.245   4.831
 1774TIP3    H2 5287   2.197   0.319   4.759
 1775TIP3   OH2 5288   6.225   4.311   3.455
 1775TIP3    H1 5289   6.314   4.274   3.452
 1775TIP3    H2 5290   6.175   4.249   3.508
 1776TIP3   OH2 5291   2.220   2.291   4.563
 1776TIP3    H1 5292   2.152   2.345   4.523
 1776TIP3    H2 5293   2.300   2.312   4.515
 1777TIP3   OH2 5294   6.598   6.666   2.300
 1777TIP3    H1 5295   6.545   6.733   2.343
 1777TIP3    H2 5296   6.537   6.593   2.286
 1778TIP3   OH2 5297   5.005   1.646   3.204
 1778TIP3    H1 5298   4.980   1.554   3.194
 1778TIP3    H2 5299   4.933   1.684   3.256
 1779TIP3   OH2 5300   3.330   5.029   2.618
 1779TIP3    H1 5301   3.239   5.058   2.618
 1779TIP3    H2 5302   3.326   4.938   2.587
 1780TIP3   OH2 5303   4.034   6.446   5.620
 1780TIP3    H1 5304   3.989   6.386   5.680
 1780TIP3    H2 5305   3.964   6.483   5.566
 1781TIP3   OH2 5306   1.752   1.223   0.195
 1781TIP3    H1 5307   1.834   1.227   0.145
 1781TIP3    H2 5308   1.768   1.279   0.271
 1782TIP3   OH2 5309   0.876   5.613   1.975
 1782TIP3    H1 5310   0.828   5.573   2.048
 1782TIP3    H2 5311   0.825   5.589   1.897
 1783TIP3   OH2 5312   1.500   4.663   1.872
 1783TIP3    H1 5313   1.577   4.653   1.817
 1783TIP3    H2 5314   1.528   4.629   1.958
 1784TIP3   OH2 5315   4.792   6.616   4.046
 1784TIP3    H1 5316   4.700   6.632   4.066
 1784TIP3    H2 5317   4.822   6.558   4.116
 1785TIP3   OH2 5318   5.950   0.151   1.119
 1785TIP3    H1 5319   5.947   0.105   1.203
 1785TIP3    H2 5320   6.041   0.181   1.113
 1786TIP3   OH2 5321   4.368   5.716   3.296
 1786TIP3    H1 5322   4.387   5.713   3.202
 1786TIP3    H2 5323   4.365   5.809   3.317
 1787TIP3   OH2 5324   2.095   1.791   5.444
 1787TIP3    H1 5325   2.098   1.757   5.533
 1787TIP3    H2 5326   2.072   1.715   5.390
 1788TIP3   OH2 5327   6.633   3.955   3.403
 1788TIP3    H1 5328   6.614   3.896   3.330
 1788TIP3    H2 5329   6.638   3.898   3.480
 1789TIP3   OH2 5330   0.577   5.610   4.391
 1789TIP3    H1 5331   0.610   5.669   4.323
 1789TIP3    H2 5332   0.589   5.522   4.355
 1790TIP3   OH2 5333   3.467   3.066   2.789
 1790TIP3    H1 5334   3.480   3.016   2.869
 1790TIP3    H2 5335   3.522   3.022   2.724
 1791TIP3   OH2 5336   3.245   5.416   2.231
 1791TIP3    H1 5337   3.278   5.332   2.263
 1791TIP3    H2 5338   3.150   5.403   2.223
 1792TIP3   OH2 5339   1.429   1.206   5.034
 1792TIP3    H1 5340   1.376   1.133   5.068
 1792TIP3    H2 5341   1.510   1.164   5.004
 1793TIP3   OH2 5342   5.342   0.585   2.899
 1793TIP3    H1 5343   5.421   0.640   2.901
 1793TIP3    H2 5344   5.288   0.622   2.830
 1794TIP3   OH2 5345   3.680   5.604   2.475
 1794TIP3    H1 5346   3.720   5.533   2.525
 1794TIP3    H2 5347   3.631   5.559   2.406
 1795TIP3   OH2 5348   1.071   4.579   4.273
 1795TIP3    H1 5349   1.072   4.516   4.201
 1795TIP3    H2 5350   1.132   4.542   4.337
 1796TIP3   OH2 5351   6.143   5.540   1.545
 1796TIP3    H1 5352   6.172   5.501   1.463
 1796TIP3    H2 5353   6.216   5.529   1.604
 1797TIP3   OH2 5354   6.335   1.777   5.515
 1797TIP3    H1 5355   6.247   1.784   5.554
 1797TIP3    H2 5356   6.377   1.706   5.563
 1798TIP3   OH2 5357   5.191   4.538   0.680
 1798TIP3    H1 5358   5.217   4.446   0.684
 1798TIP3    H2 5359   5.123   4.540   0.612
 1799TIP3   OH2 5360   6.460   5.409   0.142
 1799TIP3    H1 5361   6.485   5.492   0.184
 1799TIP3    H2 5362   6.368   5.421   0.120
 1800TIP3   OH2 5363   2.443   3.615   0.785
 1800TIP3    H1 5364   2.489   3.560   0.848
 1800TIP3    H2 5365   2.509   3.638   0.720
 1801TIP3   OH2 5366   3.493   3.331   5.578
 1801TIP3    H1 5367   3.505   3.305   5.487
 1801TIP3    H2 5368   3.405   3.301   5.600
 1802TIP3   OH2 5369   0.766   3.934   2.018
 1802TIP3    H1 5370   0.691   3.899   2.066
 1802TIP3    H2 5371   0.809   3.993   2.081
 1803TIP3   OH2 5372   1.047   2.284   1.641
 1803TIP3    H1 5373   0.982   2.278   1.711
 1803TIP3    H2 5374   1.020   2.360   1.589
 1804TIP3   OH2 5375   6.881   3.603   4.106
 1804TIP3    H1 5376   6.948   3.641   4.162
 1804TIP3    H2 5377   6.861   3.518   4.146
 1805TIP3   OH2 5378   1.819   0.065   0.803
 1805TIP3    H1 5379   1.741   0.013   0.784
 1805TIP3    H2 5380   1.852   0.093   0.718
 1806TIP3   OH2 5381   6.648   5.646   0.637
 1806TIP3    H1 5382   6.689   5.733   0.640
 1806TIP3    H2 5383   6.598   5.641   0.718
 1807TIP3   OH2 5384   2.917   2.605   4.389
 1807TIP3    H1 5385   2.964   2.661   4.327
 1807TIP3    H2 5386   2.943   2.516   4.364
 1808TIP3   OH2 5387   1.902   3.700   5.276
 1808TIP3    H1 5388   1.858   3.699   5.362
 1808TIP3    H2 5389   1.995   3.703   5.297
 1809TIP3   OH2 5390   1.984   2.669   2.663
 1809TIP3    H1 5391   1.974   2.578   2.634
 1809TIP3    H2 5392   1.961   2.721   2.586
 1810TIP3   OH2 5393   4.302   5.261   2.763
 1810TIP3    H1 5394   4.215   5.294   2.784
 1810TIP3    H2 5395   4.329   5.215   2.843
 1811TIP3   OH2 5396   0.730   3.481   0.674
 1811TIP3    H1 5397   0.719   3.496   0.768
 1811TIP3    H2 5398   0.652   3.431   0.649
 1812TIP3   OH2 5399   3.104   4.671   4.567
 1812TIP3    H1 5400   3.162   4.653   4.640
 1812TIP3    H2 5401   3.162   4.697   4.496
 1813TIP3   OH2 5402   3.983   3.334   5.183
 1813TIP3    H1 5403   3.900   3.373   5.210
 1813TIP3    H2 5404   4.016   3.392   5.115
 1814TIP3   OH2 5405   5.551   0.453   5.551
 1814TIP3    H1 5406   5.549   0.476   5.644
 1814TIP3    H2 5407   5.633   0.406   5.539
 1815TIP3   OH2 5408   4.431   3.583   3.673
 1815TIP3    H1 5409   4.373   3.545   3.607
 1815TIP3    H2 5410   4.371   3.623   3.737
 1816TIP3   OH2 5411   6.569   2.836   1.362
 1816TIP3    H1 5412   6.490   2.868   1.318
 1816TIP3    H2 5413   6.591   2.756   1.315
 1817TIP3   OH2 5414   7.070   4.735   2.703
 1817TIP3    H1 5415   7.153   4.691   2.682
 1817TIP3    H2 5416   7.059   4.719   2.797
 1818TIP3   OH2 5417   6.604   5.151   0.220
 1818TIP3    H1 5418   6.563   5.237   0.211
 1818TIP3    H2 5419   6.627   5.145   0.312
 1819TIP3   OH2 5420   6.243   2.811   4.159
 1819TIP3    H1 5421   6.331   2.848   4.156
 1819TIP3    H2 5422   6.254   2.720   4.133
 1820TIP3   OH2 5423   0.136   2.273   5.590
 1820TIP3    H1 5424   0.189   2.233   5.521
 1820TIP3    H2 5425   0.157   2.367   5.584
 1821TIP3   OH2 5426   1.931   5.842   0.679
 1821TIP3    H1 5427   2.026   5.843   0.679
 1821TIP3    H2 5428   1.906   5.908   0.744
 1822TIP3   OH2 5429   4.884   5.086   1.137
 1822TIP3    H1 5430   4.840   5.138   1.070
 1822TIP3    H2 5431   4.944   5.029   1.087
 1823TIP3   OH2 5432   3.650   4.725   4.729
 1823TIP3    H1 5433   3.574   4.695   4.778
 1823TIP3    H2 5434   3.617   4.796   4.674
 1824TIP3   OH2 5435   4.608   3.888   4.005
 1824TIP3    H1 5436   4.680   3.902   4.066
 1824TIP3    H2 5437   4.642   3.823   3.943
 1825TIP3   OH2 5438   1.001   0.723   2.504
 1825TIP3    H1 5439   1.012   0.808   2.461
 1825TIP3    H2 5440   0.914   0.728   2.543
 1826TIP3   OH2 5441   2.799   2.180   4.447
 1826TIP3    H1 5442   2.789   2.085   4.458
 1826TIP3    H2 5443   2.865   2.189   4.378
 1827TIP3   OH2 5444   0.145   5.523   3.085
 1827TIP3    H1 5445   0.229   5.540   3.126
 1827TIP3    H2 5446   0.085   5.505   3.158
 1828TIP3   OH2 5447   2.345   2.154   1.759
 1828TIP3    H1 5448   2.264   2.125   1.800
 1828TIP3    H2 5449   2.386   2.074   1.727
 1829TIP3   OH2 5450   3.605   4.373   0.284
 1829TIP3    H1 5451   3.548   4.405   0.354
 1829TIP3    H2 5452   3.689   4.414   0.301
 1830TIP3   OH2 5453   0.282   1.269   4.745
 1830TIP3    H1 5454   0.278   1.252   4.839
 1830TIP3    H2 5455   0.299   1.184   4.706
 1831TIP3   OH2 5456   0.793   5.949   0.557
 1831TIP3    H1 5457   0.710   5.993   0.575
 1831TIP3    H2 5458   0.860   6.007   0.594
 1832TIP3   OH2 5459   6.557   6.198   2.767
 1832TIP3    H1 5460   6.555   6.245   2.684
 1832TIP3    H2 5461   6.598   6.114   2.746
 1833TIP3   OH2 5462   6.071   0.049   2.589
 1833TIP3    H1 5463   6.092   0.094   2.671
 1833TIP3    H2 5464   6.146   0.066   2.532
 1834TIP3   OH2 5465   1.239   4.418   3.239
 1834TIP3    H1 5466   1.164   4.365   3.214
 1834TIP3    H2 5467   1.207   4.474   3.309
 1835TIP3   OH2 5468   3.171   2.025   4.922
 1835TIP3    H1 5469   3.177   2.118   4.943
 1835TIP3    H2 5470   3.223   1.981   4.989
 1836TIP3   OH2 5471   5.267   1.692   0.960
 1836TIP3    H1 5472   5.246   1.602   0.984
 1836TIP3    H2 5473   5.362   1.693   0.949
 1837TIP3   OH2 5474   1.374   2.193   0.816
 1837TIP3    H1 5475   1.442   2.244   0.771
 1837TIP3    H2 5476   1.325   2.257   0.866
 1838TIP3   OH2 5477   1.825   0.558   3.958
 1838TIP3    H1 5478   1.822   0.653   3.947
 1838TIP3    H2 5479   1.906   0.532   3.914
 1839TIP3   OH2 5480   6.607   6.065   4.558
 1839TIP3    H1 5481   6.539   6.007   4.595
 1839TIP3    H2 5482   6.687   6.042   4.606
 1840TIP3   OH2 5483   1.947   5.794   5.011
 1840TIP3    H1 5484   1.993   5.733   4.953
 1840TIP3    H2 5485   1.872   5.744   5.044
 1841TIP3   OH2 5486   1.983   6.743   1.227
 1841TIP3    H1 5487   1.989   6.709   1.316
 1841TIP3    H2 5488   2.047   6.694   1.177
 1842TIP3   OH2 5489   5.891   0.534   0.457
 1842TIP3    H1 5490   5.796   0.545   0.452
 1842TIP3    H2 5491   5.903   0.439   0.462
 1843TIP3   OH2 5492   2.231   3.466   5.179
 1843TIP3    H1 5493   2.315   3.511   5.173
 1843TIP3    H2 5494   2.193   3.474   5.091
 1844TIP3   OH2 5495   2.067   4.049   4.777
 1844TIP3    H1 5496   2.089   4.074   4.688
 1844TIP3    H2 5497   1.993   4.106   4.801
 1845TIP3   OH2 5498   4.544   5.733   0.246
 1845TIP3    H1 5499   4.484   5.794   0.203
 1845TIP3    H2 5500   4.542   5.757   0.339
 1846TIP3   OH2 5501   6.492   1.644   0.281
 1846TIP3    H1 5502   6.436   1.699   0.226
 1846TIP3    H2 5503   6.525   1.703   0.348
 1847TIP3   OH2 5504   0.308   3.667   2.037
 1847TIP3    H1 5505   0.349   3.679   2.122
 1847TIP3    H2 5506   0.216   3.652   2.057
 1848TIP3   OH2 5507   3.657   5.976   4.671
 1848TIP3    H1 5508   3.710   5.923   4.612
 1848TIP3    H2 5509   3.652   6.062   4.629
 1849TIP3   OH2 5510   2.686   6.602   0.292
 1849TIP3    H1 5511   2.608   6.656   0.306
 1849TIP3    H2 5512   2.653   6.519   0.258
 1850TIP3   OH2 5513   1.756   2.326   2.318
 1850TIP3    H1 5514   1.673   2.285   2.341
 1850TIP3    H2 5515   1.799   2.261   2.261
 1851TIP3   OH2 5516   6.428   3.913   4.742
 1851TIP3    H1 5517   6.375   3.985   4.776
 1851TIP3    H2 5518   6.518   3.935   4.767
 1852TIP3   OH2 5519   3.225   4.361   0.279
 1852TIP3    H1 5520   3.267   4.398   0.202
 1852TIP3    H2 5521   3.296   4.321   0.329
 1853TIP3   OH2 5522   0.699   4.415   3.617
 1853TIP3    H1 5523   0.791   4.387   3.625
 1853TIP3    H2 5524   0.688   4.480   3.686
 1854TIP3   OH2 5525   4.510   0.846   0.657
 1854TIP3    H1 5526   4.484   0.789   0.584
 1854TIP3    H2 5527   4.444   0.830   0.724
 1855TIP3   OH2 5528   2.896   1.033   5.777
 1855TIP3    H1 5529   2.803   1.027   5.800
 1855TIP3    H2 5530   2.899   1.010   5.684
 1856TIP3   OH2 5531   5.938   4.939   5.199
 1856TIP3    H1 5532   6.003   4.886   5.245
 1856TIP3    H2 5533   5.988   5.005   5.152
 1857TIP3   OH2 5534   4.984   0.529   2.153
 1857TIP3    H1 5535   5.041   0.586   2.205
 1857TIP3    H2 5536   5.018   0.441   2.168
 1858TIP3   OH2 5537   2.722   4.514   2.013
 1858TIP3    H1 5538   2.640   4.540   2.055
 1858TIP3    H2 5539   2.711   4.543   1.922
 1859TIP3   OH2 5540   5.663   1.525   3.065
 1859TIP3    H1 5541   5.725   1.503   2.995
 1859TIP3    H2 5542   5.642   1.441   3.106
 1860TIP3   OH2 5543   2.283   3.162   1.594
 1860TIP3    H1 5544   2.237   3.096   1.648
 1860TIP3    H2 5545   2.214   3.222   1.566
 1861TIP3   OH2 5546   2.267   4.730   2.332
 1861TIP3    H1 5547   2.252   4.698   2.243
 1861TIP3    H2 5548   2.361   4.719   2.347
 1862TIP3   OH2 5549   3.135   0.237   3.347
 1862TIP3    H1 5550   3.172   0.227   3.435
 1862TIP3    H2 5551   3.211   0.244   3.289
 1863TIP3   OH2 5552   0.149   4.178   0.214
 1863TIP3    H1 5553   0.154   4.130   0.297
 1863TIP3    H2 5554   0.055   4.196   0.203
 1864TIP3   OH2 5555   2.062   4.207   5.865
 1864TIP3    H1 5556   2.156   4.198   5.880
 1864TIP3    H2 5557   2.029   4.118   5.872
 1865TIP3   OH2 5558   6.360   0.467   0.071
 1865TIP3    H1 5559   6.313   0.550   0.062
 1865TIP3    H2 5560   6.317   0.422   0.143
 1866TIP3   OH2 5561   5.944   3.372   2.138
 1866TIP3    H1 5562   5.860   3.371   2.092
 1866TIP3    H2 5563   5.943   3.453   2.189
 1867TIP3   OH2 5564   5.752   1.739   0.748
 1867TIP3    H1 5565   5.785   1.671   0.806
 1867TIP3    H2 5566   5.809   1.735   0.672
 1868TIP3   OH2 5567   2.677   4.052   2.905
 1868TIP3    H1 5568   2.687   4.112   2.831
 1868TIP3    H2 5569   2.608   3.992   2.877
 1869TIP3   OH2 5570   0.109   6.629   2.075
 1869TIP3    H1 5571   0.081   6.550   2.029
 1869TIP3    H2 5572   0.035   6.651   2.132
 1870TIP3   OH2 5573   2.577   4.404   1.436
 1870TIP3    H1 5574   2.654   4.440   1.479
 1870TIP3    H2 5575   2.548   4.334   1.493
 1871TIP3   OH2 5576   4.202   4.835   2.821
 1871TIP3    H1 5577   4.262   4.763   2.843
 1871TIP3    H2 5578   4.239   4.911   2.866
 1872TIP3   OH2 5579   4.300   6.325   2.519
 1872TIP3    H1 5580   4.230   6.379   2.555
 1872TIP3    H2 5581   4.257   6.272   2.451
 1873TIP3   OH2 5582   0.841   5.373   0.934
 1873TIP3    H1 5583   0.932   5.377   0.906
 1873TIP3    H2 5584   0.816   5.282   0.921
 1874TIP3   OH2 5585   2.051   4.538   1.204
 1874TIP3    H1 5586   2.017   4.577   1.285
 1874TIP3    H2 5587   2.045   4.443   1.219
 1875TIP3   OH2 5588   0.565   6.203   3.922
 1875TIP3    H1 5589   0.622   6.215   3.846
 1875TIP3    H2 5590   0.528   6.289   3.938
 1876TIP3   OH2 5591   2.061   6.809   0.479
 1876TIP3    H1 5592   2.028   6.887   0.522
 1876TIP3    H2 5593   1.983   6.768   0.441
 1877TIP3   OH2 5594   5.840   0.428   3.144
 1877TIP3    H1 5595   5.842   0.385   3.230
 1877TIP3    H2 5596   5.876   0.515   3.161
 1878TIP3   OH2 5597   1.656   6.472   5.694
 1878TIP3    H1 5598   1.709   6.475   5.773
 1878TIP3    H2 5599   1.719   6.470   5.622
 1879TIP3   OH2 5600   6.396   3.433   0.010
 1879TIP3    H1 5601   6.473   3.445  -0.045
 1879TIP3    H2 5602   6.382   3.338   0.013
 1880TIP3   OH2 5603   2.035   2.666   3.736
 1880TIP3    H1 5604   2.008   2.669   3.644
 1880TIP3    H2 5605   2.046   2.572   3.755
 1881TIP3   OH2 5606   6.899   6.216   2.817
 1881TIP3    H1 5607   6.880   6.255   2.731
 1881TIP3    H2 5608   6.816   6.221   2.864
 1882TIP3   OH2 5609   5.568   5.060   0.784
 1882TIP3    H1 5610   5.591   4.987   0.727
 1882TIP3    H2 5611   5.499   5.026   0.840
 1883TIP3   OH2 5612   4.439   4.332   3.489
 1883TIP3    H1 5613   4.352   4.302   3.462
 1883TIP3    H2 5614   4.448   4.304   3.580
 1884TIP3   OH2 5615   5.343   3.434   0.947
 1884TIP3    H1 5616   5.351   3.483   1.029
 1884TIP3    H2 5617   5.253   3.402   0.948
 1885TIP3   OH2 5618   2.833   2.205   1.002
 1885TIP3    H1 5619   2.891   2.281   1.001
 1885TIP3    H2 5620   2.883   2.136   0.958
 1886TIP3   OH2 5621   2.191   4.676   5.628
 1886TIP3    H1 5622   2.101   4.666   5.598
 1886TIP3    H2 5623   2.195   4.623   5.708
 1887TIP3   OH2 5624   1.483   3.869   5.666
 1887TIP3    H1 5625   1.405   3.851   5.613
 1887TIP3    H2 5626   1.451   3.871   5.756
 1888TIP3   OH2 5627   4.457   0.004   5.232
 1888TIP3    H1 5628   4.543   0.002   5.190
 1888TIP3    H2 5629   4.422   0.091   5.211
 1889TIP3   OH2 5630   0.787   3.247   3.680
 1889TIP3    H1 5631   0.764   3.166   3.634
 1889TIP3    H2 5632   0.706   3.274   3.724
 1890TIP3   OH2 5633   3.601   2.392   3.057
 1890TIP3    H1 5634   3.511   2.421   3.041
 1890TIP3    H2 5635   3.629   2.443   3.134
 1891TIP3   OH2 5636   1.923   6.120   1.119
 1891TIP3    H1 5637   1.989   6.173   1.073
 1891TIP3    H2 5638   1.938   6.138   1.212
 1892TIP3   OH2 5639   2.742   0.837   2.638
 1892TIP3    H1 5640   2.674   0.775   2.663
 1892TIP3    H2 5641   2.698   0.899   2.580
 1893TIP3   OH2 5642   4.805   5.293   3.387
 1893TIP3    H1 5643   4.729   5.331   3.431
 1893TIP3    H2 5644   4.836   5.225   3.446
 1894TIP3   OH2 5645   5.642   1.720   5.862
 1894TIP3    H1 5646   5.721   1.695   5.814
 1894TIP3    H2 5647   5.657   1.811   5.888
 1895TIP3   OH2 5648   0.702   2.818   0.328
 1895TIP3    H1 5649   0.657   2.902   0.336
 1895TIP3    H2 5650   0.634   2.757   0.300
 1896TIP3   OH2 5651   0.433   5.203   0.889
 1896TIP3    H1 5652   0.356   5.237   0.935
 1896TIP3    H2 5653   0.427   5.108   0.901
 1897TIP3   OH2 5654   5.591   5.098   4.343
 1897TIP3    H1 5655   5.650   5.036   4.385
 1897TIP3    H2 5656   5.649   5.165   4.306
 1898TIP3   OH2 5657   5.243   1.470   0.698
 1898TIP3    H1 5658   5.292   1.552   0.685
 1898TIP3    H2 5659   5.189   1.463   0.619
 1899TIP3   OH2 5660   4.298   2.937   2.473
 1899TIP3    H1 5661   4.213   2.971   2.500
 1899TIP3    H2 5662   4.296   2.940   2.377
 1900TIP3   OH2 5663   1.658   1.806   3.725
 1900TIP3    H1 5664   1.678   1.896   3.749
 1900TIP3    H2 5665   1.732   1.777   3.672
 1901TIP3   OH2 5666   4.309   2.333   3.631
 1901TIP3    H1 5667   4.354   2.323   3.547
 1901TIP3    H2 5668   4.355   2.405   3.674
 1902TIP3   OH2 5669   3.833   0.198   0.985
 1902TIP3    H1 5670   3.915   0.168   0.947
 1902TIP3    H2 5671   3.766   0.143   0.944
 1903TIP3   OH2 5672   3.034   0.175   3.656
 1903TIP3    H1 5673   2.978   0.235   3.608
 1903TIP3    H2 5674   3.118   0.221   3.664
 1904TIP3   OH2 5675   2.558   1.686   1.107
 1904TIP3    H1 5676   2.490   1.652   1.049
 1904TIP3    H2 5677   2.566   1.620   1.176
 1905TIP3   OH2 5678   0.238   4.747   3.560
 1905TIP3    H1 5679   0.169   4.742   3.495
 1905TIP3    H2 5680   0.274   4.835   3.550
 1906TIP3   OH2 5681   5.649   2.700   1.007
 1906TIP3    H1 5682   5.717   2.713   1.073
 1906TIP3    H2 5683   5.567   2.702   1.056
 1907TIP3   OH2 5684   4.300   0.296   2.253
 1907TIP3    H1 5685   4.209   0.279   2.277
 1907TIP3    H2 5686   4.321   0.378   2.297
 1908TIP3   OH2 5687   3.978   1.824   0.536
 1908TIP3    H1 5688   3.962   1.829   0.631
 1908TIP3    H2 5689   3.893   1.848   0.497
 1909TIP3   OH2 5690   3.297   2.587   0.567
 1909TIP3    H1 5691   3.321   2.579   0.475
 1909TIP3    H2 5692   3.261   2.675   0.576
 1910TIP3   OH2 5693   3.025   3.130   1.692
 1910TIP3    H1 5694   3.088   3.173   1.750
 1910TIP3    H2 5695   2.940   3.148   1.732
 1911TIP3   OH2 5696   4.895   0.516   5.194
 1911TIP3    H1 5697   4.816   0.562   5.166
 1911TIP3    H2 5698   4.865   0.427   5.216
 1912TIP3   OH2 5699   1.515   5.897   5.199
 1912TIP3    H1 5700   1.555   5.812   5.220
 1912TIP3    H2 5701   1.581   5.941   5.145
 1913TIP3   OH2 5702   0.372   5.996   5.459
 1913TIP3    H1 5703   0.361   6.069   5.397
 1913TIP3    H2 5704   0.317   6.020   5.533
 1914TIP3   OH2 5705   2.561   4.333   5.016
 1914TIP3    H1 5706   2.656   4.345   5.019
 1914TIP3    H2 5707   2.549   4.238   5.016
 1915TIP3   OH2 5708   5.062   1.705   1.419
 1915TIP3    H1 5709   4.985   1.761   1.433
 1915TIP3    H2 5710   5.122   1.760   1.368
 1916TIP3   OH2 5711   0.519   0.511   0.739
 1916TIP3    H1 5712   0.465   0.590   0.747
 1916TIP3    H2 5713   0.590   0.523   0.802
 1917TIP3   OH2 5714   7.000   0.342   1.682
 1917TIP3    H1 5715   7.074   0.297   1.724
 1917TIP3    H2 5716   6.936   0.354   1.752
 1918TIP3   OH2 5717   1.259   3.008   0.925
 1918TIP3    H1 5718   1.253   3.030   1.018
 1918TIP3    H2 5719   1.232   2.917   0.920
 1919TIP3   OH2 5720   6.762   5.469   4.608
 1919TIP3    H1 5721   6.814   5.548   4.618
 1919TIP3    H2 5722   6.686   5.497   4.557
 1920TIP3   OH2 5723   3.625   5.496   4.791
 1920TIP3    H1 5724   3.623   5.427   4.724
 1920TIP3    H2 5725   3.646   5.576   4.742
 1921TIP3   OH2 5726   2.013   3.042   4.584
 1921TIP3    H1 5727   2.103   3.011   4.573
 1921TIP3    H2 5728   2.013   3.090   4.667
 1922TIP3   OH2 5729   0.612   0.671   3.734
 1922TIP3    H1 5730   0.644   0.608   3.799
 1922TIP3    H2 5731   0.518   0.656   3.729
 1923TIP3   OH2 5732   5.677   5.418   2.542
 1923TIP3    H1 5733   5.721   5.372   2.470
 1923TIP3    H2 5734   5.634   5.348   2.591
 1924TIP3   OH2 5735   1.362   2.451   4.721
 1924TIP3    H1 5736   1.398   2.444   4.809
 1924TIP3    H2 5737   1.384   2.540   4.693
 1925TIP3   OH2 5738   2.971   2.758   5.395
 1925TIP3    H1 5739   2.875   2.755   5.390
 1925TIP3    H2 5740   2.992   2.711   5.476
 1926TIP3   OH2 5741   4.406   4.610   2.881
 1926TIP3    H1 5742   4.368   4.543   2.824
 1926TIP3    H2 5743   4.399   4.572   2.969
 1927TIP3   OH2 5744   4.684   6.403   0.153
 1927TIP3    H1 5745   4.766   6.419   0.199
 1927TIP3    H2 5746   4.710   6.376   0.065
 1928TIP3   OH2 5747   2.029   3.411   5.370
 1928TIP3    H1 5748   2.086   3.433   5.297
 1928TIP3    H2 5749   1.944   3.395   5.330
 1929TIP3   OH2 5750   5.610   5.791   2.912
 1929TIP3    H1 5751   5.620   5.862   2.848
 1929TIP3    H2 5752   5.597   5.713   2.859
 1930TIP3   OH2 5753   1.120   1.274   0.665
 1930TIP3    H1 5754   1.151   1.275   0.574
 1930TIP3    H2 5755   1.175   1.338   0.710
 1931TIP3   OH2 5756   1.411   1.636   3.676
 1931TIP3    H1 5757   1.350   1.705   3.649
 1931TIP3    H2 5758   1.437   1.660   3.764
 1932TIP3   OH2 5759   4.898   3.807   5.523
 1932TIP3    H1 5760   4.840   3.768   5.458
 1932TIP3    H2 5761   4.863   3.779   5.607
 1933TIP3   OH2 5762   4.426   6.807   2.818
 1933TIP3    H1 5763   4.514   6.791   2.784
 1933TIP3    H2 5764   4.440   6.841   2.906
 1934TIP3   OH2 5765   1.710   6.519   3.885
 1934TIP3    H1 5766   1.743   6.546   3.971
 1934TIP3    H2 5767   1.752   6.579   3.823
 1935TIP3   OH2 5768   4.725   1.789   5.335
 1935TIP3    H1 5769   4.810   1.766   5.298
 1935TIP3    H2 5770   4.685   1.704   5.357
 1936TIP3   OH2 5771   4.846   0.863   0.009
 1936TIP3    H1 5772   4.904   0.790  -0.014
 1936TIP3    H2 5773   4.797   0.832   0.085
 1937TIP3   OH2 5774   4.042   4.040   3.228
 1937TIP3    H1 5775   4.011   3.976   3.292
 1937TIP3    H2 5776   3.964   4.090   3.204
 1938TIP3   OH2 5777   2.158   2.585   0.177
 1938TIP3    H1 5778   2.145   2.666   0.226
 1938TIP3    H2 5779   2.206   2.528   0.237
 1939TIP3   OH2 5780   1.442   3.055   4.606
 1939TIP3    H1 5781   1.490   3.042   4.688
 1939TIP3    H2 5782   1.351   3.034   4.628
 1940TIP3   OH2 5783   7.118   3.396   4.372
 1940TIP3    H1 5784   7.046   3.352   4.326
 1940TIP3    H2 5785   7.109   3.488   4.347
 1941TIP3   OH2 5786   0.948   0.427   2.099
 1941TIP3    H1 5787   0.933   0.520   2.080
 1941TIP3    H2 5788   0.874   0.382   2.058
 1942TIP3   OH2 5789   6.365   1.703   4.990
 1942TIP3    H1 5790   6.284   1.755   4.993
 1942TIP3    H2 5791   6.388   1.688   5.081
 1943TIP3   OH2 5792   5.243   5.723   0.269
 1943TIP3    H1 5793   5.247   5.819   0.274
 1943TIP3    H2 5794   5.156   5.701   0.300
 1944TIP3   OH2 5795   2.814   0.276   2.236
 1944TIP3    H1 5796   2.834   0.358   2.191
 1944TIP3    H2 5797   2.760   0.227   2.174
 1945TIP3   OH2 5798   3.334   3.603   5.511
 1945TIP3    H1 5799   3.305   3.533   5.453
 1945TIP3    H2 5800   3.313   3.572   5.599
 1946TIP3   OH2 5801   3.382   2.184   0.756
 1946TIP3    H1 5802   3.429   2.268   0.757
 1946TIP3    H2 5803   3.431   2.130   0.693
 1947TIP3   OH2 5804   2.575   0.347   0.850
 1947TIP3    H1 5805   2.604   0.318   0.764
 1947TIP3    H2 5806   2.592   0.441   0.850
 1948TIP3   OH2 5807   3.372   5.659   5.366
 1948TIP3    H1 5808   3.340   5.733   5.418
 1948TIP3    H2 5809   3.462   5.646   5.396
 1949TIP3   OH2 5810   6.826   1.067   1.169
 1949TIP3    H1 5811   6.793   1.154   1.149
 1949TIP3    H2 5812   6.894   1.051   1.104
 1950TIP3   OH2 5813   1.246   1.494   3.972
 1950TIP3    H1 5814   1.198   1.470   4.052
 1950TIP3    H2 5815   1.323   1.542   4.003
 1951TIP3   OH2 5816   0.326   0.973   3.567
 1951TIP3    H1 5817   0.400   1.004   3.515
 1951TIP3    H2 5818   0.294   0.896   3.519
 1952TIP3   OH2 5819   5.252   1.595   3.395
 1952TIP3    H1 5820   5.220   1.600   3.305
 1952TIP3    H2 5821   5.217   1.512   3.429
 1953TIP3   OH2 5822   3.106   5.007   4.151
 1953TIP3    H1 5823   3.094   4.924   4.198
 1953TIP3    H2 5824   3.021   5.025   4.112
 1954TIP3   OH2 5825   0.540   2.250   4.209
 1954TIP3    H1 5826   0.619   2.212   4.171
 1954TIP3    H2 5827   0.486   2.175   4.232
 1955TIP3   OH2 5828   2.285   3.921   2.232
 1955TIP3    H1 5829   2.326   3.834   2.227
 1955TIP3    H2 5830   2.358   3.980   2.252
 1956TIP3   OH2 5831   6.053   3.791   2.007
 1956TIP3    H1 5832   5.977   3.783   2.064
 1956TIP3    H2 5833   6.093   3.874   2.033
 1957TIP3   OH2 5834   2.075   6.225   4.975
 1957TIP3    H1 5835   2.141   6.182   4.921
 1957TIP3    H2 5836   2.087   6.319   4.957
 1958TIP3   OH2 5837   5.229   2.987   5.294
 1958TIP3    H1 5838   5.269   3.073   5.279
 1958TIP3    H2 5839   5.180   2.970   5.214
 1959TIP3   OH2 5840   3.398   0.107   2.817
 1959TIP3    H1 5841   3.371   0.016   2.812
 1959TIP3    H2 5842   3.455   0.120   2.741
 1960TIP3   OH2 5843   6.742   4.162   2.756
 1960TIP3    H1 5844   6.671   4.156   2.819
 1960TIP3    H2 5845   6.732   4.084   2.701
 1961TIP3   OH2 5846   2.194   3.845   2.497
 1961TIP3    H1 5847   2.194   3.873   2.405
 1961TIP3    H2 5848   2.144   3.764   2.497
 1962TIP3   OH2 5849   6.664   0.659   3.810
 1962TIP3    H1 5850   6.714   0.651   3.729
 1962TIP3    H2 5851   6.727   0.636   3.879
 1963TIP3   OH2 5852   5.154   3.552   1.755
 1963TIP3    H1 5853   5.249   3.541   1.762
 1963TIP3    H2 5854   5.139   3.644   1.778
 1964TIP3   OH2 5855   6.127   3.383   2.428
 1964TIP3    H1 5856   6.111   3.294   2.398
 1964TIP3    H2 5857   6.042   3.427   2.417
 1965TIP3   OH2 5858   5.170   0.207   1.992
 1965TIP3    H1 5859   5.163   0.156   1.911
 1965TIP3    H2 5860   5.221   0.151   2.051
 1966TIP3   OH2 5861   5.275   0.686   1.988
 1966TIP3    H1 5862   5.293   0.755   2.051
 1966TIP3    H2 5863   5.282   0.605   2.038
 1967TIP3   OH2 5864   4.067   0.248   2.459
 1967TIP3    H1 5865   3.998   0.263   2.523
 1967TIP3    H2 5866   4.142   0.219   2.511
 1968TIP3   OH2 5867   2.876   6.023   1.448
 1968TIP3    H1 5868   2.813   6.046   1.517
 1968TIP3    H2 5869   2.915   6.106   1.422
 1969TIP3   OH2 5870   3.723   6.744   3.259
 1969TIP3    H1 5871   3.725   6.836   3.286
 1969TIP3    H2 5872   3.668   6.743   3.181
 1970TIP3   OH2 5873   0.723   0.609   0.975
 1970TIP3    H1 5874   0.690   0.628   1.063
 1970TIP3    H2 5875   0.807   0.566   0.990
 1971TIP3   OH2 5876   5.049   0.177   3.402
 1971TIP3    H1 5877   4.965   0.213   3.431
 1971TIP3    H2 5878   5.074   0.116   3.471
 1972TIP3   OH2 5879   1.670   2.692   2.017
 1972TIP3    H1 5880   1.596   2.702   2.078
 1972TIP3    H2 5881   1.714   2.777   2.018
 1973TIP3   OH2 5882   7.117   6.450   1.948
 1973TIP3    H1 5883   7.143   6.363   1.978
 1973TIP3    H2 5884   7.025   6.456   1.973
 1974TIP3   OH2 5885   5.492   5.348   3.341
 1974TIP3    H1 5886   5.530   5.312   3.260
 1974TIP3    H2 5887   5.445   5.274   3.380
 1975TIP3   OH2 5888   2.907   4.096   1.297
 1975TIP3    H1 5889   2.894   4.114   1.203
 1975TIP3    H2 5890   2.986   4.145   1.319
 1976TIP3   OH2 5891   3.546   1.972   3.384
 1976TIP3    H1 5892   3.554   2.001   3.293
 1976TIP3    H2 5893   3.614   1.906   3.394
 1977TIP3   OH2 5894   2.030   3.673   0.800
 1977TIP3    H1 5895   2.091   3.717   0.741
 1977TIP3    H2 5896   1.983   3.611   0.744
 1978TIP3   OH2 5897   5.323   5.795   2.830
 1978TIP3    H1 5898   5.408   5.826   2.799
 1978TIP3    H2 5899   5.344   5.737   2.904
 1979TIP3   OH2 5900   1.871   5.464   3.699
 1979TIP3    H1 5901   1.866   5.377   3.659
 1979TIP3    H2 5902   1.878   5.524   3.624
 1980TIP3   OH2 5903   6.775   1.232   0.630
 1980TIP3    H1 5904   6.712   1.167   0.659
 1980TIP3    H2 5905   6.745   1.258   0.543
 1981TIP3   OH2 5906   2.750   1.829   2.171
 1981TIP3    H1 5907   2.820   1.869   2.118
 1981TIP3    H2 5908   2.698   1.903   2.202
 1982TIP3   OH2 5909   2.719   1.748   0.885
 1982TIP3    H1 5910   2.651   1.772   0.948
 1982TIP3    H2 5911   2.696   1.796   0.806
 1983TIP3   OH2 5912   4.416   2.844   0.109
 1983TIP3    H1 5913   4.402   2.753   0.085
 1983TIP3    H2 5914   4.413   2.846   0.204
 1984TIP3   OH2 5915   3.651   4.323   1.591
 1984TIP3    H1 5916   3.735   4.366   1.575
 1984TIP3    H2 5917   3.589   4.370   1.536
 1985TIP3   OH2 5918   7.017   4.560   2.499
 1985TIP3    H1 5919   6.986   4.626   2.560
 1985TIP3    H2 5920   6.979   4.478   2.530
 1986TIP3   OH2 5921   6.754   6.303   5.099
 1986TIP3    H1 5922   6.700   6.256   5.035
 1986TIP3    H2 5923   6.697   6.317   5.174
 1987TIP3   OH2 5924   6.826   1.900   4.104
 1987TIP3    H1 5925   6.917   1.923   4.120
 1987TIP3    H2 5926   6.830   1.808   4.077
 1988TIP3   OH2 5927   7.173   5.743   2.801
 1988TIP3    H1 5928   7.150   5.660   2.844
 1988TIP3    H2 5929   7.093   5.795   2.805
 1989TIP3   OH2 5930   4.621   5.773   2.407
 1989TIP3    H1 5931   4.596   5.861   2.434
 1989TIP3    H2 5932   4.551   5.746   2.347
 1990TIP3   OH2 5933   3.628   4.206   2.222
 1990TIP3    H1 5934   3.691   4.248   2.280
 1990TIP3    H2 5935   3.674   4.194   2.140
 1991TIP3   OH2 5936   5.413   3.933   0.285
 1991TIP3    H1 5937   5.473   3.872   0.327
 1991TIP3    H2 5938   5.467   4.009   0.261
 1992TIP3   OH2 5939   1.112   5.831   1.562
 1992TIP3    H1 5940   1.026   5.830   1.521
 1992TIP3    H2 5941   1.109   5.903   1.625
 1993TIP3   OH2 5942   1.582   3.181   1.934
 1993TIP3    H1 5943   1.542   3.230   1.863
 1993TIP3    H2 5944   1.676   3.199   1.926
 1994TIP3   OH2 5945   0.197   0.621   3.562
 1994TIP3    H1 5946   0.271   0.633   3.503
 1994TIP3    H2 5947   0.231   0.647   3.648
 1995TIP3   OH2 5948   6.608   6.381   4.049
 1995TIP3    H1 5949   6.660   6.396   3.969
 1995TIP3    H2 5950   6.528   6.339   4.018
 1996TIP3   OH2 5951   1.933   4.284   5.616
 1996TIP3    H1 5952   1.880   4.206   5.600
 1996TIP3    H2 5953   1.986   4.262   5.693
 1997TIP3   OH2 5954   6.607   1.319   2.389
 1997TIP3    H1 5955   6.546   1.391   2.373
 1997TIP3    H2 5956   6.556   1.240   2.372
 1998TIP3   OH2 5957   2.270   5.582   4.247
 1998TIP3    H1 5958   2.253   5.656   4.305
 1998TIP3    H2 5959   2.184   5.558   4.213
 1999TIP3   OH2 5960   4.705   1.437   0.272
 1999TIP3    H1 5961   4.611   1.441   0.252
 1999TIP3    H2 5962   4.748   1.465   0.191
 2000TIP3   OH2 5963   6.622   4.162   0.802
 2000TIP3    H1 5964   6.590   4.226   0.866
 2000TIP3    H2 5965   6.712   4.145   0.830
 2001TIP3   OH2 5966   2.348   2.202   2.804
 2001TIP3    H1 5967   2.376   2.176   2.717
 2001TIP3    H2 5968   2.425   2.192   2.859
 2002TIP3   OH2 5969   4.128   0.614   2.127
 2002TIP3    H1 5970   4.208   0.653   2.162
 2002TIP3    H2 5971   4.155   0.527   2.096
 2003TIP3   OH2 5972   3.930   0.921   5.071
 2003TIP3    H1 5973   3.958   0.864   5.000
 2003TIP3    H2 5974   3.834   0.921   5.065
 2004TIP3   OH2 5975   4.688   2.643   2.047
 2004TIP3    H1 5976   4.609   2.646   1.994
 2004TIP3    H2 5977   4.753   2.601   1.991
 2005TIP3   OH2 5978   1.119   0.326   2.990
 2005TIP3    H1 5979   1.114   0.410   2.943
 2005TIP3    H2 5980   1.032   0.316   3.029
 2006TIP3   OH2 5981   0.196   5.045   1.420
 2006TIP3    H1 5982   0.210   5.086   1.335
 2006TIP3    H2 5983   0.149   5.110   1.471
 2007TIP3   OH2 5984   6.900   3.076   3.213
 2007TIP3    H1 5985   6.913   3.020   3.137
 2007TIP3    H2 5986   6.939   3.160   3.188
 2008TIP3   OH2 5987   0.367   5.756   5.322
 2008TIP3    H1 5988   0.362   5.832   5.380
 2008TIP3    H2 5989   0.354   5.791   5.234
 2009TIP3   OH2 5990   5.636   6.569   3.522
 2009TIP3    H1 5991   5.565   6.509   3.546
 2009TIP3    H2 5992   5.635   6.635   3.592
 2010TIP3   OH2 5993   0.144   6.616   2.963
 2010TIP3    H1 5994   0.210   6.570   3.015
 2010TIP3    H2 5995   0.103   6.677   3.024
 2011TIP3   OH2 5996   3.657   5.289   4.607
 2011TIP3    H1 5997   3.653   5.227   4.535
 2011TIP3    H2 5998   3.595   5.254   4.672
 2012TIP3   OH2 5999   6.573   5.855   5.119
 2012TIP3    H1 6000   6.582   5.828   5.210
 2012TIP3    H2 6001   6.519   5.934   5.123
 2013TIP3   OH2 6002   1.172   5.036   1.325
 2013TIP3    H1 6003   1.267   5.030   1.318
 2013TIP3    H2 6004   1.156   5.095   1.399
 2014TIP3   OH2 6005   1.417   6.759   1.933
 2014TIP3    H1 6006   1.364   6.687   1.898
 2014TIP3    H2 6007   1.489   6.716   1.979
 2015TIP3   OH2 6008   5.968   6.182   1.545
 2015TIP3    H1 6009   5.989   6.177   1.638
 2015TIP3    H2 6010   5.975   6.275   1.524
 2016TIP3   OH2 6011   5.048   2.151   0.945
 2016TIP3    H1 6012   5.123   2.174   0.999
 2016TIP3    H2 6013   5.049   2.056   0.940
 2017TIP3   OH2 6014   6.116   1.590   3.608
 2017TIP3    H1 6015   6.092   1.652   3.677
 2017TIP3    H2 6016   6.123   1.644   3.529
 2018TIP3   OH2 6017   1.465   5.209   2.633
 2018TIP3    H1 6018   1.388   5.196   2.689
 2018TIP3    H2 6019   1.461   5.139   2.569
 2019TIP3   OH2 6020   7.118   0.229   5.309
 2019TIP3    H1 6021   7.111   0.194   5.398
 2019TIP3    H2 6022   7.077   0.161   5.255
 2020TIP3   OH2 6023   2.093   3.138   1.896
 2020TIP3    H1 6024   2.122   3.060   1.849
 2020TIP3    H2 6025   2.139   3.133   1.980
 2021TIP3   OH2 6026   6.433   5.201   0.773
 2021TIP3    H1 6027   6.380   5.207   0.693
 2021TIP3    H2 6028   6.447   5.292   0.798
 2022TIP3   OH2 6029   2.849   1.989   1.278
 2022TIP3    H1 6030   2.921   2.049   1.259
 2022TIP3    H2 6031   2.870   1.910   1.227
 2023TIP3   OH2 6032   1.584   6.296   0.227
 2023TIP3    H1 6033   1.624   6.233   0.288
 2023TIP3    H2 6034   1.528   6.350   0.282
 2024TIP3   OH2 6035   2.588   6.163   1.945
 2024TIP3    H1 6036   2.594   6.258   1.948
 2024TIP3    H2 6037   2.523   6.141   2.012
 2025TIP3   OH2 6038   2.055   2.438   4.892
 2025TIP3    H1 6039   1.968   2.413   4.923
 2025TIP3    H2 6040   2.043   2.526   4.856
 2026TIP3   OH2 6041   5.981   5.913   1.789
 2026TIP3    H1 6042   6.043   5.916   1.716
 2026TIP3    H2 6043   6.032   5.941   1.865
 2027TIP3   OH2 6044   2.707   2.897   1.071
 2027TIP3    H1 6045   2.656   2.839   1.127
 2027TIP3    H2 6046   2.664   2.982   1.077
 2028TIP3   OH2 6047   5.878   6.627   4.272
 2028TIP3    H1 6048   5.822   6.648   4.197
 2028TIP3    H2 6049   5.817   6.610   4.344
 2029TIP3   OH2 6050   3.148   1.340   5.430
 2029TIP3    H1 6051   3.193   1.416   5.468
 2029TIP3    H2 6052   3.070   1.377   5.389
 2030TIP3   OH2 6053   6.687   4.861   5.880
 2030TIP3    H1 6054   6.638   4.913   5.943
 2030TIP3    H2 6055   6.640   4.872   5.797
 2031TIP3   OH2 6056   0.507   2.727   3.112
 2031TIP3    H1 6057   0.434   2.767   3.065
 2031TIP3    H2 6058   0.585   2.770   3.078
 2032TIP3   OH2 6059   3.477   4.686   1.022
 2032TIP3    H1 6060   3.436   4.770   1.002
 2032TIP3    H2 6061   3.571   4.704   1.017
 2033TIP3   OH2 6062   1.331   3.889   2.572
 2033TIP3    H1 6063   1.372   3.807   2.544
 2033TIP3    H2 6064   1.312   3.876   2.665
 2034TIP3   OH2 6065   1.873   3.164   4.813
 2034TIP3    H1 6066   1.822   3.084   4.799
 2034TIP3    H2 6067   1.896   3.162   4.906
 2035TIP3   OH2 6068   2.470   4.259   0.827
 2035TIP3    H1 6069   2.444   4.179   0.782
 2035TIP3    H2 6070   2.518   4.309   0.762
 2036TIP3   OH2 6071   0.933   0.854   3.841
 2036TIP3    H1 6072   0.904   0.855   3.932
 2036TIP3    H2 6073   1.022   0.890   3.844
 2037TIP3   OH2 6074   2.388   5.511   0.291
 2037TIP3    H1 6075   2.338   5.443   0.247
 2037TIP3    H2 6076   2.326   5.581   0.307
 2038TIP3   OH2 6077   2.090   6.466   4.154
 2038TIP3    H1 6078   2.170   6.501   4.115
 2038TIP3    H2 6079   2.032   6.542   4.162
 2039TIP3   OH2 6080   4.267   6.581   5.649
 2039TIP3    H1 6081   4.284   6.582   5.744
 2039TIP3    H2 6082   4.192   6.522   5.639
 2040TIP3   OH2 6083   5.765   3.563   3.172
 2040TIP3    H1 6084   5.850   3.607   3.178
 2040TIP3    H2 6085   5.709   3.625   3.126
 2041TIP3   OH2 6086   6.362   3.296   5.764
 2041TIP3    H1 6087   6.397   3.217   5.723
 2041TIP3    H2 6088   6.297   3.263   5.826
 2042TIP3   OH2 6089   1.907   5.593   1.327
 2042TIP3    H1 6090   1.884   5.600   1.420
 2042TIP3    H2 6091   1.822   5.586   1.283
 2043TIP3   OH2 6092   1.991   4.947   3.776
 2043TIP3    H1 6093   2.068   4.894   3.752
 2043TIP3    H2 6094   1.987   4.940   3.872
 2044TIP3   OH2 6095   2.794   0.730   1.148
 2044TIP3    H1 6096   2.788   0.795   1.078
 2044TIP3    H2 6097   2.816   0.781   1.226
 2045TIP3   OH2 6098   5.230   1.535   5.819
 2045TIP3    H1 6099   5.218   1.629   5.809
 2045TIP3    H2 6100   5.151   1.497   5.780
 2046TIP3   OH2 6101   5.282   5.906   2.245
 2046TIP3    H1 6102   5.219   5.935   2.180
 2046TIP3    H2 6103   5.302   5.816   2.220
 2047TIP3   OH2 6104   1.529   5.915   4.394
 2047TIP3    H1 6105   1.545   6.006   4.418
 2047TIP3    H2 6106   1.437   5.900   4.416
 2048TIP3   OH2 6107   3.749   1.279   2.734
 2048TIP3    H1 6108   3.813   1.240   2.793
 2048TIP3    H2 6109   3.704   1.204   2.695
 2049TIP3   OH2 6110   0.478   4.846   5.074
 2049TIP3    H1 6111   0.470   4.750   5.077
 2049TIP3    H2 6112   0.400   4.878   5.119
 2050TIP3   OH2 6113   4.934   0.789   1.641
 2050TIP3    H1 6114   4.964   0.767   1.553
 2050TIP3    H2 6115   5.014   0.793   1.694
 2051TIP3   OH2 6116   1.166   1.714   2.892
 2051TIP3    H1 6117   1.122   1.781   2.839
 2051TIP3    H2 6118   1.131   1.727   2.981
 2052TIP3   OH2 6119   6.944   0.314   3.955
 2052TIP3    H1 6120   7.005   0.251   3.995
 2052TIP3    H2 6121   6.861   0.268   3.952
 2053TIP3   OH2 6122   1.060   0.583   2.938
 2053TIP3    H1 6123   0.968   0.609   2.944
 2053TIP3    H2 6124   1.082   0.595   2.846
 2054TIP3   OH2 6125   2.619   6.656   2.887
 2054TIP3    H1 6126   2.629   6.747   2.857
 2054TIP3    H2 6127   2.595   6.608   2.808
 2055TIP3   OH2 6128   6.917   2.631   1.790
 2055TIP3    H1 6129   6.837   2.595   1.752
 2055TIP3    H2 6130   6.889   2.709   1.838
 2056TIP3   OH2 6131   1.556   5.248   4.543
 2056TIP3    H1 6132   1.637   5.286   4.508
 2056TIP3    H2 6133   1.496   5.322   4.547
 2057TIP3   OH2 6134   0.335   0.013   1.479
 2057TIP3    H1 6135   0.291  -0.072   1.480
 2057TIP3    H2 6136   0.341   0.038   1.571
 2058TIP3   OH2 6137   3.872   2.575   0.406
 2058TIP3    H1 6138   3.882   2.546   0.315
 2058TIP3    H2 6139   3.913   2.661   0.408
 2059TIP3   OH2 6140   2.329   2.274   3.136
 2059TIP3    H1 6141   2.377   2.256   3.217
 2059TIP3    H2 6142   2.346   2.199   3.080
 2060TIP3   OH2 6143   4.514   5.367   4.742
 2060TIP3    H1 6144   4.430   5.344   4.704
 2060TIP3    H2 6145   4.518   5.462   4.736
 2061TIP3   OH2 6146   5.785   4.018   5.903
 2061TIP3    H1 6147   5.758   4.107   5.880
 2061TIP3    H2 6148   5.703   3.968   5.906
 2062TIP3   OH2 6149   3.375   4.185   0.435
 2062TIP3    H1 6150   3.317   4.109   0.434
 2062TIP3    H2 6151   3.435   4.168   0.508
 2063TIP3   OH2 6152   1.081   3.516   4.728
 2063TIP3    H1 6153   1.042   3.444   4.777
 2063TIP3    H2 6154   1.105   3.477   4.644
 2064TIP3   OH2 6155   5.339   2.745   3.348
 2064TIP3    H1 6156   5.283   2.785   3.281
 2064TIP3    H2 6157   5.297   2.661   3.367
 2065TIP3   OH2 6158   5.208   0.485   4.280
 2065TIP3    H1 6159   5.131   0.540   4.295
 2065TIP3    H2 6160   5.210   0.471   4.185
 2066TIP3   OH2 6161   4.198   3.538   4.434
 2066TIP3    H1 6162   4.242   3.575   4.510
 2066TIP3    H2 6163   4.210   3.443   4.442
 2067TIP3   OH2 6164   6.572   0.806   3.218
 2067TIP3    H1 6165   6.609   0.732   3.265
 2067TIP3    H2 6166   6.530   0.859   3.286
 2068TIP3   OH2 6167   6.517   5.436   0.832
 2068TIP3    H1 6168   6.490   5.524   0.860
 2068TIP3    H2 6169   6.602   5.423   0.874
 2069TIP3   OH2 6170   0.658   2.136   3.152
 2069TIP3    H1 6171   0.734   2.191   3.131
 2069TIP3    H2 6172   0.687   2.047   3.130
 2070TIP3   OH2 6173   3.790   5.041   5.593
 2070TIP3    H1 6174   3.880   5.072   5.585
 2070TIP3    H2 6175   3.777   5.026   5.686
 2071TIP3   OH2 6176   1.417   5.828   5.609
 2071TIP3    H1 6177   1.461   5.783   5.681
 2071TIP3    H2 6178   1.359   5.891   5.652
 2072TIP3   OH2 6179   4.941   4.005   0.963
 2072TIP3    H1 6180   5.000   3.979   0.892
 2072TIP3    H2 6181   4.990   3.984   1.043
 2073TIP3   OH2 6182   5.290   2.198   2.606
 2073TIP3    H1 6183   5.313   2.231   2.520
 2073TIP3    H2 6184   5.281   2.276   2.661
 2074TIP3   OH2 6185   0.246   6.597   2.344
 2074TIP3    H1 6186   0.230   6.583   2.251
 2074TIP3    H2 6187   0.164   6.632   2.378
 2075TIP3   OH2 6188   1.191   4.137   2.378
 2075TIP3    H1 6189   1.236   4.218   2.355
 2075TIP3    H2 6190   1.250   4.093   2.438
 2076TIP3   OH2 6191   1.044   2.452   5.383
 2076TIP3    H1 6192   1.121   2.412   5.341
 2076TIP3    H2 6193   1.081   2.518   5.441
 2077TIP3   OH2 6194   5.425   3.143   2.604
 2077TIP3    H1 6195   5.464   3.062   2.571
 2077TIP3    H2 6196   5.437   3.206   2.532
 2078TIP3   OH2 6197   5.748   4.285   4.019
 2078TIP3    H1 6198   5.660   4.301   3.985
 2078TIP3    H2 6199   5.741   4.202   4.066
 2079TIP3   OH2 6200   4.534   1.005   1.184
 2079TIP3    H1 6201   4.608   0.964   1.140
 2079TIP3    H2 6202   4.496   0.936   1.238
 2080TIP3   OH2 6203   4.318   3.649   0.208
 2080TIP3    H1 6204   4.295   3.706   0.282
 2080TIP3    H2 6205   4.288   3.698   0.131
 2081TIP3   OH2 6206   4.500   0.599   0.516
 2081TIP3    H1 6207   4.595   0.608   0.509
 2081TIP3    H2 6208   4.486   0.518   0.565
 2082TIP3   OH2 6209   0.545   5.682   5.533
 2082TIP3    H1 6210   0.467   5.719   5.493
 2082TIP3    H2 6211   0.562   5.738   5.609
 2083TIP3   OH2 6212   2.204   5.845   4.083
 2083TIP3    H1 6213   2.176   5.768   4.134
 2083TIP3    H2 6214   2.253   5.808   4.009
 2084TIP3   OH2 6215   4.248   2.723   2.048
 2084TIP3    H1 6216   4.188   2.693   1.980
 2084TIP3    H2 6217   4.228   2.815   2.059
 2085TIP3   OH2 6218   4.337   2.020   0.730
 2085TIP3    H1 6219   4.325   1.952   0.797
 2085TIP3    H2 6220   4.431   2.038   0.732
 2086TIP3   OH2 6221   3.873   2.411   4.803
 2086TIP3    H1 6222   3.824   2.479   4.850
 2086TIP3    H2 6223   3.856   2.429   4.710
 2087TIP3   OH2 6224   2.909   0.868   2.307
 2087TIP3    H1 6225   2.815   0.883   2.318
 2087TIP3    H2 6226   2.917   0.772   2.306
 2088TIP3   OH2 6227   5.120   5.795   0.858
 2088TIP3    H1 6228   5.154   5.710   0.829
 2088TIP3    H2 6229   5.135   5.796   0.952
 2089TIP3   OH2 6230   1.894   1.938   5.588
 2089TIP3    H1 6231   1.971   1.885   5.608
 2089TIP3    H2 6232   1.900   1.955   5.494
 2090TIP3   OH2 6233   6.360   0.305   4.587
 2090TIP3    H1 6234   6.413   0.320   4.665
 2090TIP3    H2 6235   6.273   0.336   4.610
 2091TIP3   OH2 6236   5.059   3.913   0.743
 2091TIP3    H1 6237   5.093   3.834   0.784
 2091TIP3    H2 6238   5.107   3.920   0.660
 2092TIP3   OH2 6239   6.042   1.452   1.498
 2092TIP3    H1 6240   6.027   1.530   1.550
 2092TIP3    H2 6241   6.058   1.485   1.409
 2093TIP3   OH2 6242   6.763   4.968   3.016
 2093TIP3    H1 6243   6.680   4.955   3.063
 2093TIP3    H2 6244   6.827   4.984   3.086
 2094TIP3   OH2 6245   4.255   5.615   2.094
 2094TIP3    H1 6246   4.170   5.655   2.115
 2094TIP3    H2 6247   4.270   5.638   2.002
 2095TIP3   OH2 6248   1.756   0.963   5.011
 2095TIP3    H1 6249   1.707   0.932   5.088
 2095TIP3    H2 6250   1.827   0.900   5.001
 2096TIP3   OH2 6251   3.343   5.911   3.384
 2096TIP3    H1 6252   3.395   5.850   3.436
 2096TIP3    H2 6253   3.321   5.862   3.305
 2097TIP3   OH2 6254   4.706   5.673   3.146
 2097TIP3    H1 6255   4.654   5.594   3.163
 2097TIP3    H2 6256   4.690   5.693   3.054
 2098TIP3   OH2 6257   0.529   5.516   4.631
 2098TIP3    H1 6258   0.527   5.586   4.697
 2098TIP3    H2 6259   0.556   5.561   4.551
 2099TIP3   OH2 6260   4.781   1.698   2.046
 2099TIP3    H1 6261   4.704   1.649   2.018
 2099TIP3    H2 6262   4.749   1.787   2.061
 2100TIP3   OH2 6263   2.733   2.515   0.371
 2100TIP3    H1 6264   2.651   2.558   0.393
 2100TIP3    H2 6265   2.762   2.476   0.454
 2101TIP3   OH2 6266   4.086   4.110   2.259
 2101TIP3    H1 6267   4.036   4.030   2.273
 2101TIP3    H2 6268   4.169   4.080   2.221
 2102TIP3   OH2 6269   3.325   3.621   4.430
 2102TIP3    H1 6270   3.343   3.553   4.495
 2102TIP3    H2 6271   3.351   3.582   4.347
 2103TIP3   OH2 6272   4.802   3.194   0.792
 2103TIP3    H1 6273   4.774   3.115   0.744
 2103TIP3    H2 6274   4.724   3.222   0.840
 2104TIP3   OH2 6275   0.990   1.505   5.553
 2104TIP3    H1 6276   0.964   1.413   5.542
 2104TIP3    H2 6277   0.992   1.518   5.648
 2105TIP3   OH2 6278   5.410   3.691   3.558
 2105TIP3    H1 6279   5.490   3.683   3.507
 2105TIP3    H2 6280   5.434   3.659   3.645
 2106TIP3   OH2 6281   1.326   6.203   1.661
 2106TIP3    H1 6282   1.363   6.156   1.735
 2106TIP3    H2 6283   1.367   6.163   1.584
 2107TIP3   OH2 6284   4.903   0.238   1.462
 2107TIP3    H1 6285   4.918   0.201   1.549
 2107TIP3    H2 6286   4.972   0.201   1.407
 2108TIP3   OH2 6287   0.068   2.026   2.559
 2108TIP3    H1 6288  -0.025   2.020   2.580
 2108TIP3    H2 6289   0.103   1.939   2.581
 2109TIP3   OH2 6290   5.363   3.091   0.163
 2109TIP3    H1 6291   5.272   3.121   0.167
 2109TIP3    H2 6292   5.413   3.170   0.143
 2110TIP3   OH2 6293   2.633   5.106   4.393
 2110TIP3    H1 6294   2.673   5.189   4.367
 2110TIP3    H2 6295   2.688   5.039   4.353
 2111TIP3   OH2 6296   5.395   3.788   5.106
 2111TIP3    H1 6297   5.307   3.805   5.073
 2111TIP3    H2 6298   5.409   3.855   5.173
 2112TIP3   OH2 6299   1.012   5.849   4.089
 2112TIP3    H1 6300   1.087   5.865   4.146
 2112TIP3    H2 6301   0.944   5.816   4.147
 2113TIP3   OH2 6302   2.585   2.033   2.250
 2113TIP3    H1 6303   2.626   2.061   2.332
 2113TIP3    H2 6304   2.508   2.090   2.242
 2114TIP3   OH2 6305   2.111   6.501   2.951
 2114TIP3    H1 6306   2.077   6.470   3.035
 2114TIP3    H2 6307   2.035   6.540   2.907
 2115TIP3   OH2 6308   5.679   5.613   5.331
 2115TIP3    H1 6309   5.759   5.563   5.316
 2115TIP3    H2 6310   5.611   5.546   5.340
 2116TIP3   OH2 6311   2.714   4.555   2.627
 2116TIP3    H1 6312   2.631   4.561   2.674
 2116TIP3    H2 6313   2.780   4.576   2.694
 2117TIP3   OH2 6314   2.989   6.390   0.622
 2117TIP3    H1 6315   2.995   6.442   0.703
 2117TIP3    H2 6316   2.920   6.433   0.571
 2118TIP3   OH2 6317   3.380   0.095   4.888
 2118TIP3    H1 6318   3.352   0.133   4.971
 2118TIP3    H2 6319   3.454   0.150   4.860
 2119TIP3   OH2 6320   6.958   6.634   2.954
 2119TIP3    H1 6321   6.906   6.563   2.993
 2119TIP3    H2 6322   6.969   6.697   3.025
 2120TIP3   OH2 6323   2.621   5.983   3.936
 2120TIP3    H1 6324   2.648   6.020   3.852
 2120TIP3    H2 6325   2.534   6.020   3.952
 2121TIP3   OH2 6326   6.998   3.539   0.926
 2121TIP3    H1 6327   6.971   3.448   0.942
 2121TIP3    H2 6328   7.045   3.535   0.843
 2122TIP3   OH2 6329   4.050   3.772   2.097
 2122TIP3    H1 6330   4.017   3.777   2.007
 2122TIP3    H2 6331   4.139   3.807   2.091
 2123TIP3   OH2 6332   6.793   3.702   0.013
 2123TIP3    H1 6333   6.840   3.678   0.093
 2123TIP3    H2 6334   6.805   3.797   0.006
 2124TIP3   OH2 6335   1.346   5.103   5.397
 2124TIP3    H1 6336   1.321   5.087   5.306
 2124TIP3    H2 6337   1.319   5.024   5.444
 2125TIP3   OH2 6338   5.112   2.493   3.420
 2125TIP3    H1 6339   5.036   2.548   3.404
 2125TIP3    H2 6340   5.129   2.501   3.514
 2126TIP3   OH2 6341   5.702   5.877   3.705
 2126TIP3    H1 6342   5.783   5.925   3.721
 2126TIP3    H2 6343   5.637   5.919   3.762
 2127TIP3   OH2 6344   3.334   5.745   1.192
 2127TIP3    H1 6345   3.259   5.688   1.176
 2127TIP3    H2 6346   3.298   5.821   1.237
 2128TIP3   OH2 6347   4.027   0.901   3.664
 2128TIP3    H1 6348   3.975   0.821   3.656
 2128TIP3    H2 6349   4.012   0.948   3.582
 2129TIP3   OH2 6350   4.946   5.012   0.797
 2129TIP3    H1 6351   4.976   5.065   0.871
 2129TIP3    H2 6352   5.008   5.032   0.727
 2130TIP3   OH2 6353   0.144   2.126   5.221
 2130TIP3    H1 6354   0.210   2.144   5.288
 2130TIP3    H2 6355   0.089   2.205   5.220
 2131TIP3   OH2 6356   5.598   1.564   2.724
 2131TIP3    H1 6357   5.550   1.626   2.779
 2131TIP3    H2 6358   5.533   1.499   2.698
 2132TIP3   OH2 6359   0.386   0.858   2.004
 2132TIP3    H1 6360   0.334   0.895   2.076
 2132TIP3    H2 6361   0.477   0.877   2.028
 2133TIP3   OH2 6362   3.861   3.161   5.825
 2133TIP3    H1 6363   3.914   3.217   5.882
 2133TIP3    H2 6364   3.771   3.177   5.854
 2134TIP3   OH2 6365   2.140   3.838   0.318
 2134TIP3    H1 6366   2.221   3.788   0.313
 2134TIP3    H2 6367   2.136   3.869   0.408
 2135TIP3   OH2 6368   3.110   0.244   2.234
 2135TIP3    H1 6369   3.137   0.231   2.143
 2135TIP3    H2 6370   3.020   0.276   2.229
 2136TIP3   OH2 6371   1.390   6.462   2.511
 2136TIP3    H1 6372   1.443   6.510   2.447
 2136TIP3    H2 6373   1.395   6.514   2.591
 2137TIP3   OH2 6374   3.752   3.597   2.833
 2137TIP3    H1 6375   3.776   3.685   2.808
 2137TIP3    H2 6376   3.770   3.543   2.756
 2138TIP3   OH2 6377   5.485   0.210   1.296
 2138TIP3    H1 6378   5.530   0.275   1.241
 2138TIP3    H2 6379   5.415   0.176   1.240
 2139TIP3   OH2 6380   4.485   5.051   1.066
 2139TIP3    H1 6381   4.436   5.076   0.988
 2139TIP3    H2 6382   4.522   5.133   1.099
 2140TIP3   OH2 6383   5.143   4.893   1.757
 2140TIP3    H1 6384   5.158   4.830   1.828
 2140TIP3    H2 6385   5.219   4.952   1.761
 2141TIP3   OH2 6386   3.931   1.874   2.031
 2141TIP3    H1 6387   3.835   1.867   2.031
 2141TIP3    H2 6388   3.961   1.786   2.010
 2142TIP3   OH2 6389   2.162   4.919   1.633
 2142TIP3    H1 6390   2.206   4.966   1.562
 2142TIP3    H2 6391   2.197   4.830   1.628
 2143TIP3   OH2 6392   5.402   3.789   3.845
 2143TIP3    H1 6393   5.320   3.740   3.839
 2143TIP3    H2 6394   5.467   3.724   3.873
 2144TIP3   OH2 6395   6.562   3.699   2.923
 2144TIP3    H1 6396   6.567   3.604   2.913
 2144TIP3    H2 6397   6.472   3.721   2.898
 2145TIP3   OH2 6398   5.939   5.986   3.111
 2145TIP3    H1 6399   5.897   5.979   3.025
 2145TIP3    H2 6400   5.932   6.078   3.134
 2146TIP3   OH2 6401   3.210   2.559   0.848
 2146TIP3    H1 6402   3.268   2.606   0.907
 2146TIP3    H2 6403   3.256   2.559   0.763
 2147TIP3   OH2 6404   6.002   5.411   5.718
 2147TIP3    H1 6405   6.011   5.464   5.639
 2147TIP3    H2 6406   5.913   5.427   5.748
 2148TIP3   OH2 6407   6.920   1.582   4.060
 2148TIP3    H1 6408   6.840   1.608   4.015
 2148TIP3    H2 6409   6.907   1.490   4.081
 2149TIP3   OH2 6410   5.819   1.451   3.859
 2149TIP3    H1 6411   5.844   1.374   3.809
 2149TIP3    H2 6412   5.830   1.524   3.798
 2150TIP3   OH2 6413   7.044   4.075   3.999
 2150TIP3    H1 6414   7.129   4.114   3.977
 2150TIP3    H2 6415   6.985   4.105   3.930
 2151TIP3   OH2 6416   4.013   4.565   1.703
 2151TIP3    H1 6417   3.930   4.606   1.728
 2151TIP3    H2 6418   4.079   4.632   1.719
 2152TIP3   OH2 6419   6.901   6.567   1.178
 2152TIP3    H1 6420   6.940   6.616   1.106
 2152TIP3    H2 6421   6.917   6.622   1.256
 2153TIP3   OH2 6422   4.244   4.465   5.319
 2153TIP3    H1 6423   4.251   4.431   5.230
 2153TIP3    H2 6424   4.183   4.407   5.363
 2154TIP3   OH2 6425   4.747   3.102   4.423
 2154TIP3    H1 6426   4.745   3.013   4.459
 2154TIP3    H2 6427   4.834   3.135   4.446
 2155TIP3   OH2 6428   4.285   4.142   3.347
 2155TIP3    H1 6429   4.201   4.108   3.318
 2155TIP3    H2 6430   4.346   4.117   3.278
 2156TIP3   OH2 6431   5.574   3.151   0.441
 2156TIP3    H1 6432   5.577   3.199   0.358
 2156TIP3    H2 6433   5.634   3.199   0.498
 2157TIP3   OH2 6434   4.125   4.260   5.662
 2157TIP3    H1 6435   4.209   4.233   5.626
 2157TIP3    H2 6436   4.129   4.236   5.755
 2158TIP3   OH2 6437   1.717   2.091   3.397
 2158TIP3    H1 6438   1.799   2.111   3.353
 2158TIP3    H2 6439   1.733   2.009   3.442
 2159TIP3   OH2 6440   3.418   0.469   3.214
 2159TIP3    H1 6441   3.401   0.507   3.128
 2159TIP3    H2 6442   3.422   0.375   3.198
 2160TIP3   OH2 6443   0.009   2.924   5.167
 2160TIP3    H1 6444  -0.056   2.977   5.214
 2160TIP3    H2 6445   0.004   2.838   5.207
 2161TIP3   OH2 6446   1.002   1.215   1.996
 2161TIP3    H1 6447   0.907   1.216   2.009
 2161TIP3    H2 6448   1.025   1.122   1.990
 2162TIP3   OH2 6449   5.054   5.934   0.552
 2162TIP3    H1 6450   5.007   5.942   0.635
 2162TIP3    H2 6451   5.002   5.986   0.490
 2163TIP3   OH2 6452   4.484   4.372   0.523
 2163TIP3    H1 6453   4.487   4.457   0.568
 2163TIP3    H2 6454   4.524   4.311   0.584
 2164TIP3   OH2 6455   2.799   0.191   0.614
 2164TIP3    H1 6456   2.866   0.173   0.680
 2164TIP3    H2 6457   2.801   0.114   0.556
 2165TIP3   OH2 6458   4.150   3.759   4.734
 2165TIP3    H1 6459   4.236   3.745   4.696
 2165TIP3    H2 6460   4.114   3.834   4.687
 2166TIP3   OH2 6461   2.775   2.668   2.245
 2166TIP3    H1 6462   2.812   2.582   2.226
 2166TIP3    H2 6463   2.801   2.685   2.336
 2167TIP3   OH2 6464   3.297   1.990   5.197
 2167TIP3    H1 6465   3.316   1.908   5.242
 2167TIP3    H2 6466   3.382   2.032   5.187
 2168TIP3   OH2 6467   4.871   1.097   1.264
 2168TIP3    H1 6468   4.922   1.020   1.240
 2168TIP3    H2 6469   4.842   1.133   1.180
 2169TIP3   OH2 6470   1.659   3.274   2.646
 2169TIP3    H1 6471   1.753   3.276   2.665
 2169TIP3    H2 6472   1.619   3.318   2.721
 2170TIP3   OH2 6473   0.345   3.562   1.770
 2170TIP3    H1 6474   0.280   3.632   1.779
 2170TIP3    H2 6475   0.402   3.590   1.698
 2171TIP3   OH2 6476   1.204   2.350   5.853
 2171TIP3    H1 6477   1.204   2.446   5.849
 2171TIP3    H2 6478   1.183   2.330   5.944
 2172TIP3   OH2 6479   3.480   1.622   3.551
 2172TIP3    H1 6480   3.550   1.671   3.508
 2172TIP3    H2 6481   3.489   1.533   3.518
 2173TIP3   OH2 6482   6.858   6.660   4.065
 2173TIP3    H1 6483   6.908   6.583   4.038
 2173TIP3    H2 6484   6.921   6.714   4.113
 2174TIP3   OH2 6485   1.500   5.804   1.617
 2174TIP3    H1 6486   1.439   5.761   1.557
 2174TIP3    H2 6487   1.485   5.760   1.701
 2175TIP3   OH2 6488   1.155   3.310   4.099
 2175TIP3    H1 6489   1.241   3.288   4.062
 2175TIP3    H2 6490   1.106   3.227   4.096
 2176TIP3   OH2 6491   5.515   3.502   0.761
 2176TIP3    H1 6492   5.463   3.473   0.836
 2176TIP3    H2 6493   5.575   3.568   0.796
 2177TIP3   OH2 6494   0.983   2.461   2.216
 2177TIP3    H1 6495   1.049   2.419   2.161
 2177TIP3    H2 6496   0.941   2.389   2.263
 2178TIP3   OH2 6497   2.712   5.536   4.180
 2178TIP3    H1 6498   2.804   5.551   4.160
 2178TIP3    H2 6499   2.665   5.584   4.112
 2179TIP3   OH2 6500   7.120   6.701   0.970
 2179TIP3    H1 6501   7.070   6.782   0.957
 2179TIP3    H2 6502   7.145   6.674   0.881
 2180TIP3   OH2 6503   3.535   0.138   2.580
 2180TIP3    H1 6504   3.521   0.219   2.531
 2180TIP3    H2 6505   3.629   0.137   2.597
 2181TIP3   OH2 6506   6.284   0.751   3.697
 2181TIP3    H1 6507   6.343   0.813   3.740
 2181TIP3    H2 6508   6.341   0.694   3.646
 2182TIP3   OH2 6509   4.539   1.577   4.482
 2182TIP3    H1 6510   4.501   1.655   4.521
 2182TIP3    H2 6511   4.633   1.595   4.479
 2183TIP3   OH2 6512   2.805   0.643   4.693
 2183TIP3    H1 6513   2.713   0.642   4.669
 2183TIP3    H2 6514   2.832   0.551   4.690
 2184TIP3   OH2 6515   2.109   2.068   1.866
 2184TIP3    H1 6516   2.070   2.135   1.922
 2184TIP3    H2 6517   2.060   1.989   1.885
 2185TIP3   OH2 6518   0.538   1.134   5.660
 2185TIP3    H1 6519   0.549   1.211   5.716
 2185TIP3    H2 6520   0.610   1.139   5.598
 2186TIP3   OH2 6521   6.265   4.317   3.930
 2186TIP3    H1 6522   6.250   4.263   4.007
 2186TIP3    H2 6523   6.202   4.286   3.866
 2187TIP3   OH2 6524   2.286   0.448   3.500
 2187TIP3    H1 6525   2.298   0.400   3.418
 2187TIP3    H2 6526   2.339   0.526   3.491
 2188TIP3   OH2 6527   4.964   0.308   5.845
 2188TIP3    H1 6528   5.010   0.333   5.765
 2188TIP3    H2 6529   4.872   0.327   5.826
 2189TIP3   OH2 6530   0.662   0.749   4.192
 2189TIP3    H1 6531   0.611   0.807   4.248
 2189TIP3    H2 6532   0.659   0.664   4.237
 2190TIP3   OH2 6533   5.893   4.947   2.655
 2190TIP3    H1 6534   5.976   4.930   2.699
 2190TIP3    H2 6535   5.836   4.981   2.724
 2191TIP3   OH2 6536   2.309   6.553   3.632
 2191TIP3    H1 6537   2.271   6.638   3.609
 2191TIP3    H2 6538   2.306   6.550   3.728
 2192TIP3   OH2 6539   6.703   0.621   3.362
 2192TIP3    H1 6540   6.682   0.529   3.347
 2192TIP3    H2 6541   6.797   0.627   3.348
 2193TIP3   OH2 6542   7.178   2.676   1.712
 2193TIP3    H1 6543   7.085   2.656   1.723
 2193TIP3    H2 6544   7.184   2.771   1.722
 2194TIP3   OH2 6545   4.742   0.456   5.768
 2194TIP3    H1 6546   4.709   0.492   5.850
 2194TIP3    H2 6547   4.674   0.475   5.703
 2195TIP3   OH2 6548   6.277   5.300   0.552
 2195TIP3    H1 6549   6.231   5.316   0.470
 2195TIP3    H2 6550   6.209   5.307   0.619
 2196TIP3   OH2 6551   1.658   4.152   3.071
 2196TIP3    H1 6552   1.705   4.117   3.146
 2196TIP3    H2 6553   1.597   4.216   3.108
 2197TIP3   OH2 6554   4.746   2.577   3.876
 2197TIP3    H1 6555   4.794   2.498   3.849
 2197TIP3    H2 6556   4.802   2.617   3.942
 2198TIP3   OH2 6557   6.127   3.761   1.509
 2198TIP3    H1 6558   6.103   3.737   1.599
 2198TIP3    H2 6559   6.065   3.711   1.455
 2199TIP3   OH2 6560   0.776   1.102   2.901
 2199TIP3    H1 6561   0.784   1.093   2.996
 2199TIP3    H2 6562   0.745   1.192   2.887
 2200TIP3   OH2 6563   1.303   3.646   5.152
 2200TIP3    H1 6564   1.264   3.593   5.222
 2200TIP3    H2 6565   1.319   3.584   5.081
 2201TIP3   OH2 6566   5.735   5.044   2.866
 2201TIP3    H1 6567   5.769   5.122   2.908
 2201TIP3    H2 6568   5.728   4.980   2.937
 2202TIP3   OH2 6569   1.331   6.084   5.310
 2202TIP3    H1 6570   1.407   6.049   5.265
 2202TIP3    H2 6571   1.271   6.110   5.240
 2203TIP3   OH2 6572   4.374   6.495   3.777
 2203TIP3    H1 6573   4.443   6.476   3.713
 2203TIP3    H2 6574   4.329   6.571   3.741
 2204TIP3   OH2 6575   3.794   1.868   2.574
 2204TIP3    H1 6576   3.862   1.874   2.641
 2204TIP3    H2 6577   3.757   1.780   2.586
 2205TIP3   OH2 6578   3.075   2.044   0.895
 2205TIP3    H1 6579   3.023   1.983   0.843
 2205TIP3    H2 6580   3.076   2.124   0.844
 2206TIP3   OH2 6581   5.458   2.718   2.127
 2206TIP3    H1 6582   5.528   2.688   2.068
 2206TIP3    H2 6583   5.497   2.711   2.215
 2207TIP3   OH2 6584   0.344   1.332   3.669
 2207TIP3    H1 6585   0.255   1.315   3.639
 2207TIP3    H2 6586   0.385   1.245   3.675
 2208TIP3   OH2 6587   5.689   5.829   1.091
 2208TIP3    H1 6588   5.690   5.734   1.104
 2208TIP3    H2 6589   5.604   5.847   1.051
 2209TIP3   OH2 6590   5.840   1.628   5.680
 2209TIP3    H1 6591   5.887   1.545   5.670
 2209TIP3    H2 6592   5.769   1.624   5.617
 2210TIP3   OH2 6593   0.236   5.405   5.594
 2210TIP3    H1 6594   0.254   5.429   5.504
 2210TIP3    H2 6595   0.252   5.310   5.597
 2211TIP3   OH2 6596   4.441   3.926   4.753
 2211TIP3    H1 6597   4.407   3.986   4.819
 2211TIP3    H2 6598   4.520   3.889   4.793
 2212TIP3   OH2 6599   6.492   2.237   5.069
 2212TIP3    H1 6600   6.415   2.186   5.093
 2212TIP3    H2 6601   6.458   2.312   5.022
 2213TIP3   OH2 6602   5.579   1.178   2.940
 2213TIP3    H1 6603   5.506   1.228   2.979
 2213TIP3    H2 6604   5.582   1.208   2.849
 2214TIP3   OH2 6605   2.386   1.877   2.473
 2214TIP3    H1 6606   2.454   1.896   2.408
 2214TIP3    H2 6607   2.376   1.782   2.471
 2215TIP3   OH2 6608   1.298   2.775   4.445
 2215TIP3    H1 6609   1.313   2.768   4.539
 2215TIP3    H2 6610   1.208   2.806   4.437
 2216TIP3   OH2 6611   6.815   2.345   3.625
 2216TIP3    H1 6612   6.760   2.290   3.681
 2216TIP3    H2 6613   6.772   2.343   3.540
 2217TIP3   OH2 6614   5.270   1.662   4.886
 2217TIP3    H1 6615   5.224   1.580   4.902
 2217TIP3    H2 6616   5.232   1.696   4.805
 2218TIP3   OH2 6617   4.469   1.900   4.277
 2218TIP3    H1 6618   4.385   1.909   4.232
 2218TIP3    H2 6619   4.454   1.942   4.362
 2219TIP3   OH2 6620   2.468   1.295   3.822
 2219TIP3    H1 6621   2.424   1.237   3.760
 2219TIP3    H2 6622   2.553   1.313   3.783
 2220TIP3   OH2 6623   4.911   1.748   0.103
 2220TIP3    H1 6624   4.947   1.731   0.015
 2220TIP3    H2 6625   4.961   1.690   0.160
 2221TIP3   OH2 6626   4.832   4.470   2.082
 2221TIP3    H1 6627   4.784   4.396   2.046
 2221TIP3    H2 6628   4.840   4.532   2.009
 2222TIP3   OH2 6629   2.998   0.532   4.453
 2222TIP3    H1 6630   2.931   0.599   4.437
 2222TIP3    H2 6631   3.061   0.573   4.511
 2223TIP3   OH2 6632   5.382   5.726   3.669
 2223TIP3    H1 6633   5.440   5.661   3.708
 2223TIP3    H2 6634   5.410   5.730   3.577
 2224TIP3   OH2 6635   3.437   1.974   1.735
 2224TIP3    H1 6636   3.392   1.899   1.775
 2224TIP3    H2 6637   3.448   1.949   1.644
 2225TIP3   OH2 6638   7.037   4.600   4.369
 2225TIP3    H1 6639   7.091   4.668   4.409
 2225TIP3    H2 6640   7.032   4.531   4.436
 2226TIP3   OH2 6641   5.578   5.361   0.942
 2226TIP3    H1 6642   5.572   5.412   0.862
 2226TIP3    H2 6643   5.647   5.297   0.926
 2227TIP3   OH2 6644   3.760   6.658   4.695
 2227TIP3    H1 6645   3.838   6.662   4.640
 2227TIP3    H2 6646   3.781   6.594   4.763
 2228TIP3   OH2 6647   5.925   6.351   3.138
 2228TIP3    H1 6648   5.892   6.440   3.125
 2228TIP3    H2 6649   5.860   6.295   3.096
 2229TIP3   OH2 6650   4.419   6.506   2.992
 2229TIP3    H1 6651   4.510   6.478   2.994
 2229TIP3    H2 6652   4.413   6.564   2.916
 2230TIP3   OH2 6653   2.122   5.395   3.385
 2230TIP3    H1 6654   2.109   5.489   3.398
 2230TIP3    H2 6655   2.066   5.353   3.451
 2231TIP3   OH2 6656   3.684   4.710   2.794
 2231TIP3    H1 6657   3.711   4.621   2.817
 2231TIP3    H2 6658   3.589   4.702   2.778
 2232TIP3   OH2 6659   1.771   0.398   3.384
 2232TIP3    H1 6660   1.866   0.412   3.388
 2232TIP3    H2 6661   1.754   0.327   3.446
 2233TIP3   OH2 6662   3.274   6.294   5.225
 2233TIP3    H1 6663   3.349   6.251   5.182
 2233TIP3    H2 6664   3.225   6.333   5.152
 2234TIP3   OH2 6665   6.171   1.604   1.235
 2234TIP3    H1 6666   6.079   1.625   1.221
 2234TIP3    H2 6667   6.196   1.656   1.312
 2235TIP3   OH2 6668   1.978   2.154   2.276
 2235TIP3    H1 6669   2.023   2.201   2.346
 2235TIP3    H2 6670   2.012   2.064   2.283
 2236TIP3   OH2 6671   5.287   1.195   3.976
 2236TIP3    H1 6672   5.375   1.189   3.936
 2236TIP3    H2 6673   5.300   1.165   4.066
 2237TIP3   OH2 6674   2.119   2.186   3.600
 2237TIP3    H1 6675   2.157   2.181   3.688
 2237TIP3    H2 6676   2.029   2.217   3.615
 2238TIP3   OH2 6677   4.904   0.454   0.861
 2238TIP3    H1 6678   4.895   0.478   0.953
 2238TIP3    H2 6679   4.987   0.493   0.834
 2239TIP3   OH2 6680   1.022   1.527   5.825
 2239TIP3    H1 6681   0.961   1.600   5.842
 2239TIP3    H2 6682   1.106   1.558   5.859
 2240TIP3   OH2 6683   6.285   4.692   3.077
 2240TIP3    H1 6684   6.234   4.614   3.060
 2240TIP3    H2 6685   6.278   4.705   3.172
 2241TIP3   OH2 6686   5.661   1.588   5.495
 2241TIP3    H1 6687   5.609   1.508   5.496
 2241TIP3    H2 6688   5.700   1.590   5.408
 2242TIP3   OH2 6689   2.022   3.029   0.656
 2242TIP3    H1 6690   2.051   2.944   0.691
 2242TIP3    H2 6691   2.025   3.088   0.731
 2243TIP3   OH2 6692   5.819   5.300   4.148
 2243TIP3    H1 6693   5.849   5.223   4.195
 2243TIP3    H2 6694   5.899   5.338   4.111
 2244TIP3   OH2 6695   3.909   3.589   3.167
 2244TIP3    H1 6696   3.945   3.664   3.120
 2244TIP3    H2 6697   3.921   3.515   3.107
 2245TIP3   OH2 6698   3.580   6.561   1.385
 2245TIP3    H1 6699   3.603   6.623   1.316
 2245TIP3    H2 6700   3.495   6.591   1.418
 2246TIP3   OH2 6701   4.529   0.186   1.785
 2246TIP3    H1 6702   4.616   0.151   1.767
 2246TIP3    H2 6703   4.483   0.179   1.702
 2247TIP3   OH2 6704   2.337   3.043   3.177
 2247TIP3    H1 6705   2.267   2.996   3.222
 2247TIP3    H2 6706   2.393   2.974   3.141
 2248TIP3   OH2 6707   5.244   2.906   5.848
 2248TIP3    H1 6708   5.232   2.950   5.764
 2248TIP3    H2 6709   5.315   2.844   5.833
 2249TIP3   OH2 6710   2.367   4.739   0.227
 2249TIP3    H1 6711   2.363   4.687   0.146
 2249TIP3    H2 6712   2.317   4.689   0.291
 2250TIP3   OH2 6713   4.442   2.091   2.724
 2250TIP3    H1 6714   4.433   1.997   2.738
 2250TIP3    H2 6715   4.395   2.131   2.797
 2251TIP3   OH2 6716   0.375   6.641   3.380
 2251TIP3    H1 6717   0.306   6.614   3.441
 2251TIP3    H2 6718   0.371   6.577   3.310
 2252TIP3   OH2 6719   5.874   1.175   4.870
 2252TIP3    H1 6720   5.943   1.215   4.923
 2252TIP3    H2 6721   5.793   1.210   4.907
 2253TIP3   OH2 6722   3.682   1.668   2.330
 2253TIP3    H1 6723   3.701   1.615   2.407
 2253TIP3    H2 6724   3.745   1.640   2.264
 2254TIP3   OH2 6725   2.114   1.441   3.127
 2254TIP3    H1 6726   2.208   1.460   3.135
 2254TIP3    H2 6727   2.080   1.449   3.216
 2255TIP3   OH2 6728   5.897   0.560   3.430
 2255TIP3    H1 6729   5.910   0.638   3.375
 2255TIP3    H2 6730   5.985   0.523   3.441
 2256TIP3   OH2 6731   3.970   3.854   3.426
 2256TIP3    H1 6732   3.952   3.760   3.420
 2256TIP3    H2 6733   3.979   3.871   3.519
 2257TIP3   OH2 6734   0.170   4.402   1.338
 2257TIP3    H1 6735   0.097   4.464   1.338
 2257TIP3    H2 6736   0.160   4.354   1.420
 2258TIP3   OH2 6737   6.894   4.017   1.675
 2258TIP3    H1 6738   6.843   4.079   1.727
 2258TIP3    H2 6739   6.879   4.043   1.585
 2259TIP3   OH2 6740   3.330   3.709   1.538
 2259TIP3    H1 6741   3.380   3.679   1.462
 2259TIP3    H2 6742   3.324   3.632   1.595
 2260TIP3   OH2 6743   5.072   2.393   4.926
 2260TIP3    H1 6744   5.107   2.482   4.937
 2260TIP3    H2 6745   5.141   2.336   4.959
 2261TIP3   OH2 6746   0.674   5.388   2.153
 2261TIP3    H1 6747   0.714   5.316   2.202
 2261TIP3    H2 6748   0.601   5.416   2.208
 2262TIP3   OH2 6749   6.605   4.309   4.991
 2262TIP3    H1 6750   6.582   4.224   5.028
 2262TIP3    H2 6751   6.679   4.338   5.044
 2263TIP3   OH2 6752   1.533   3.568   1.642
 2263TIP3    H1 6753   1.484   3.569   1.560
 2263TIP3    H2 6754   1.531   3.659   1.672
 2264TIP3   OH2 6755   0.512   3.798   0.012
 2264TIP3    H1 6756   0.430   3.826   0.053
 2264TIP3    H2 6757   0.545   3.728   0.069
 2265TIP3   OH2 6758   5.722   2.054   3.780
 2265TIP3    H1 6759   5.746   2.097   3.697
 2265TIP3    H2 6760   5.645   2.002   3.759
 2266TIP3   OH2 6761   2.859   4.369   2.901
 2266TIP3    H1 6762   2.873   4.378   2.995
 2266TIP3    H2 6763   2.858   4.459   2.868
 2267TIP3   OH2 6764   5.720   3.023   1.142
 2267TIP3    H1 6765   5.729   3.118   1.138
 2267TIP3    H2 6766   5.626   3.008   1.143
 2268TIP3   OH2 6767   2.336   5.743   2.784
 2268TIP3    H1 6768   2.389   5.670   2.751
 2268TIP3    H2 6769   2.263   5.701   2.830
 2269TIP3   OH2 6770   2.652   0.390   4.448
 2269TIP3    H1 6771   2.560   0.406   4.426
 2269TIP3    H2 6772   2.698   0.469   4.417
 2270TIP3   OH2 6773   2.821   3.754   5.245
 2270TIP3    H1 6774   2.748   3.787   5.194
 2270TIP3    H2 6775   2.898   3.797   5.209
 2271TIP3   OH2 6776   4.848   5.069   5.247
 2271TIP3    H1 6777   4.882   4.980   5.237
 2271TIP3    H2 6778   4.915   5.125   5.208
 2272TIP3   OH2 6779   2.390   3.204   0.683
 2272TIP3    H1 6780   2.441   3.230   0.607
 2272TIP3    H2 6781   2.349   3.284   0.714
 2273TIP3   OH2 6782   5.698   5.873   0.527
 2273TIP3    H1 6783   5.645   5.867   0.606
 2273TIP3    H2 6784   5.635   5.870   0.455
 2274TIP3   OH2 6785   0.359   3.012   1.825
 2274TIP3    H1 6786   0.304   3.081   1.860
 2274TIP3    H2 6787   0.323   2.994   1.738
 2275TIP3   OH2 6788   3.598   4.815   5.523
 2275TIP3    H1 6789   3.654   4.789   5.450
 2275TIP3    H2 6790   3.642   4.892   5.561
 2276TIP3   OH2 6791   4.604   5.976   3.123
 2276TIP3    H1 6792   4.531   6.036   3.136
 2276TIP3    H2 6793   4.595   5.946   3.033
 2277TIP3   OH2 6794   0.408   2.853   0.174
 2277TIP3    H1 6795   0.450   2.913   0.236
 2277TIP3    H2 6796   0.358   2.793   0.230
 2278TIP3   OH2 6797   6.406   1.760   3.444
 2278TIP3    H1 6798   6.314   1.758   3.420
 2278TIP3    H2 6799   6.447   1.691   3.392
 2279TIP3   OH2 6800   1.596   5.779   2.508
 2279TIP3    H1 6801   1.689   5.779   2.530
 2279TIP3    H2 6802   1.593   5.769   2.413
 2280TIP3   OH2 6803   3.729   5.561   0.294
 2280TIP3    H1 6804   3.824   5.552   0.301
 2280TIP3    H2 6805   3.698   5.552   0.384
 2281TIP3   OH2 6806   1.698   0.895   1.235
 2281TIP3    H1 6807   1.757   0.889   1.310
 2281TIP3    H2 6808   1.755   0.892   1.159
 2282TIP3   OH2 6809   0.162   0.399   3.933
 2282TIP3    H1 6810   0.097   0.433   3.995
 2282TIP3    H2 6811   0.177   0.309   3.961
 2283TIP3   OH2 6812   2.808   2.892   0.533
 2283TIP3    H1 6813   2.714   2.910   0.545
 2283TIP3    H2 6814   2.844   2.892   0.622
 2284TIP3   OH2 6815   2.028   5.279   0.560
 2284TIP3    H1 6816   2.089   5.315   0.496
 2284TIP3    H2 6817   2.009   5.352   0.619
 2285TIP3   OH2 6818   5.947   0.430   0.134
 2285TIP3    H1 6819   5.851   0.426   0.137
 2285TIP3    H2 6820   5.966   0.487   0.059
 2286TIP3   OH2 6821   6.643   4.452   1.709
 2286TIP3    H1 6822   6.690   4.526   1.670
 2286TIP3    H2 6823   6.553   4.463   1.678
 2287TIP3   OH2 6824   4.967   5.605   2.253
 2287TIP3    H1 6825   4.970   5.701   2.248
 2287TIP3    H2 6826   4.933   5.587   2.341
 2288TIP3   OH2 6827   2.475   6.720   4.514
 2288TIP3    H1 6828   2.387   6.682   4.503
 2288TIP3    H2 6829   2.534   6.657   4.473
 2289TIP3   OH2 6830   0.515   4.802   0.907
 2289TIP3    H1 6831   0.544   4.871   0.848
 2289TIP3    H2 6832   0.499   4.846   0.990
 2290TIP3   OH2 6833   0.083   1.011   0.489
 2290TIP3    H1 6834   0.041   0.946   0.545
 2290TIP3    H2 6835   0.017   1.033   0.423
 2291TIP3   OH2 6836   2.899   2.239   3.010
 2291TIP3    H1 6837   2.913   2.232   2.915
 2291TIP3    H2 6838   2.951   2.167   3.047
 2292TIP3   OH2 6839   2.677   1.558   3.025
 2292TIP3    H1 6840   2.662   1.649   3.052
 2292TIP3    H2 6841   2.765   1.539   3.056
 2293TIP3   OH2 6842   0.950   4.016   1.025
 2293TIP3    H1 6843   0.996   4.002   0.943
 2293TIP3    H2 6844   0.877   4.073   1.003
 2294TIP3   OH2 6845   4.984   2.030   0.053
 2294TIP3    H1 6846   4.913   1.968   0.068
 2294TIP3    H2 6847   5.000   2.028  -0.041
 2295TIP3   OH2 6848   7.118   0.566   1.412
 2295TIP3    H1 6849   7.116   0.637   1.348
 2295TIP3    H2 6850   7.154   0.606   1.491
 2296TIP3   OH2 6851   6.387   6.590   1.234
 2296TIP3    H1 6852   6.312   6.615   1.180
 2296TIP3    H2 6853   6.350   6.578   1.322
 2297TIP3   OH2 6854   0.153   1.107   0.727
 2297TIP3    H1 6855   0.134   1.075   0.639
 2297TIP3    H2 6856   0.086   1.175   0.742
 2298TIP3   OH2 6857   5.726   0.780   3.566
 2298TIP3    H1 6858   5.773   0.699   3.551
 2298TIP3    H2 6859   5.751   0.837   3.493
 2299TIP3   OH2 6860   6.738   5.789   4.368
 2299TIP3    H1 6861   6.821   5.748   4.346
 2299TIP3    H2 6862   6.672   5.727   4.338
 2300TIP3   OH2 6863   1.556   1.378   5.453
 2300TIP3    H1 6864   1.485   1.328   5.412
 2300TIP3    H2 6865   1.596   1.427   5.382
 2301TIP3   OH2 6866   1.142   2.229   3.357
 2301TIP3    H1 6867   1.081   2.179   3.411
 2301TIP3    H2 6868   1.228   2.194   3.379
 2302TIP3   OH2 6869   3.432   0.465   3.490
 2302TIP3    H1 6870   3.514   0.433   3.528
 2302TIP3    H2 6871   3.447   0.459   3.395
 2303TIP3   OH2 6872   5.177   3.316   2.517
 2303TIP3    H1 6873   5.247   3.278   2.570
 2303TIP3    H2 6874   5.149   3.393   2.566
 2304TIP3   OH2 6875   5.964   2.469   4.895
 2304TIP3    H1 6876   5.902   2.496   4.827
 2304TIP3    H2 6877   6.032   2.421   4.848
 2305TIP3   OH2 6878   3.412   4.606   4.339
 2305TIP3    H1 6879   3.477   4.538   4.323
 2305TIP3    H2 6880   3.401   4.649   4.254
 2306TIP3   OH2 6881   5.804   4.298   1.550
 2306TIP3    H1 6882   5.887   4.310   1.504
 2306TIP3    H2 6883   5.739   4.285   1.481
 2307TIP3   OH2 6884   6.988   4.451   5.496
 2307TIP3    H1 6885   7.020   4.421   5.581
 2307TIP3    H2 6886   6.928   4.382   5.468
 2308TIP3   OH2 6887   4.063   0.021   5.557
 2308TIP3    H1 6888   4.154   0.000   5.578
 2308TIP3    H2 6889   4.059   0.116   5.562
 2309TIP3   OH2 6890   4.676   4.988   2.763
 2309TIP3    H1 6891   4.667   4.903   2.806
 2309TIP3    H2 6892   4.597   5.036   2.789
 2310TIP3   OH2 6893   1.699   2.023   2.051
 2310TIP3    H1 6894   1.645   1.945   2.042
 2310TIP3    H2 6895   1.654   2.077   2.116
 2311TIP3   OH2 6896   4.322   0.618   0.765
 2311TIP3    H1 6897   4.308   0.523   0.762
 2311TIP3    H2 6898   4.246   0.655   0.718
 2312TIP3   OH2 6899   7.230   6.357   0.865
 2312TIP3    H1 6900   7.147   6.374   0.910
 2312TIP3    H2 6901   7.204   6.316   0.782
 2313TIP3   OH2 6902   0.425   1.793   2.090
 2313TIP3    H1 6903   0.407   1.731   2.160
 2313TIP3    H2 6904   0.371   1.763   2.016
 2314TIP3   OH2 6905   4.926   0.247   4.190
 2314TIP3    H1 6906   4.850   0.287   4.148
 2314TIP3    H2 6907   4.900   0.238   4.282
 2315TIP3   OH2 6908   5.819   1.276   2.998
 2315TIP3    H1 6909   5.880   1.254   2.928
 2315TIP3    H2 6910   5.735   1.244   2.968
 2316TIP3   OH2 6911   0.968   3.409   0.891
 2316TIP3    H1 6912   0.915   3.333   0.869
 2316TIP3    H2 6913   1.041   3.374   0.942
 2317TIP3   OH2 6914   4.997   5.606   5.622
 2317TIP3    H1 6915   5.084   5.567   5.613
 2317TIP3    H2 6916   4.949   5.574   5.546
 2318TIP3   OH2 6917   3.817   3.855   2.793
 2318TIP3    H1 6918   3.896   3.906   2.776
 2318TIP3    H2 6919   3.783   3.890   2.875
 2319TIP3   OH2 6920   3.030   1.081   0.381
 2319TIP3    H1 6921   3.026   0.985   0.380
 2319TIP3    H2 6922   2.954   1.109   0.329
 2320TIP3   OH2 6923   2.320   5.706   3.855
 2320TIP3    H1 6924   2.308   5.611   3.852
 2320TIP3    H2 6925   2.267   5.738   3.782
 2321TIP3   OH2 6926   1.852   4.283   1.077
 2321TIP3    H1 6927   1.943   4.282   1.107
 2321TIP3    H2 6928   1.854   4.334   0.996
 2322TIP3   OH2 6929   2.468   5.980   2.814
 2322TIP3    H1 6930   2.437   6.042   2.748
 2322TIP3    H2 6931   2.425   5.898   2.791
 2323TIP3   OH2 6932   5.447   4.452   5.463
 2323TIP3    H1 6933   5.364   4.438   5.416
 2323TIP3    H2 6934   5.502   4.378   5.436
 2324TIP3   OH2 6935   2.504   3.887   1.120
 2324TIP3    H1 6936   2.489   3.976   1.153
 2324TIP3    H2 6937   2.445   3.832   1.172
 2325TIP3   OH2 6938   3.700   2.639   1.991
 2325TIP3    H1 6939   3.726   2.720   2.034
 2325TIP3    H2 6940   3.667   2.666   1.906
 2326TIP3   OH2 6941   1.866   3.002   4.357
 2326TIP3    H1 6942   1.909   3.020   4.441
 2326TIP3    H2 6943   1.845   2.909   4.361
 2327TIP3   OH2 6944   0.928   5.116   4.933
 2327TIP3    H1 6945   0.951   5.145   5.021
 2327TIP3    H2 6946   0.879   5.189   4.895
 2328TIP3   OH2 6947   4.570   6.729   1.445
 2328TIP3    H1 6948   4.620   6.654   1.479
 2328TIP3    H2 6949   4.630   6.803   1.455
 2329TIP3   OH2 6950   6.759   1.704   5.681
 2329TIP3    H1 6951   6.693   1.736   5.743
 2329TIP3    H2 6952   6.708   1.652   5.618
 2330TIP3   OH2 6953   0.717   4.678   4.579
 2330TIP3    H1 6954   0.719   4.735   4.655
 2330TIP3    H2 6955   0.745   4.734   4.506
 2331TIP3   OH2 6956   5.777   1.928   5.648
 2331TIP3    H1 6957   5.817   1.941   5.734
 2331TIP3    H2 6958   5.790   1.835   5.629
 2332TIP3   OH2 6959   1.854   6.373   2.543
 2332TIP3    H1 6960   1.783   6.365   2.607
 2332TIP3    H2 6961   1.932   6.348   2.592
 2333TIP3   OH2 6962   1.310   6.512   1.881
 2333TIP3    H1 6963   1.395   6.469   1.892
 2333TIP3    H2 6964   1.263   6.494   1.962
 2334TIP3   OH2 6965   5.068   6.026   1.700
 2334TIP3    H1 6966   5.033   6.049   1.786
 2334TIP3    H2 6967   5.125   6.100   1.677
 2335TIP3   OH2 6968   4.745   2.961   0.614
 2335TIP3    H1 6969   4.662   2.930   0.578
 2335TIP3    H2 6970   4.784   2.883   0.656
 2336TIP3   OH2 6971   0.437   2.169   2.939
 2336TIP3    H1 6972   0.371   2.190   3.005
 2336TIP3    H2 6973   0.487   2.097   2.978
 2337TIP3   OH2 6974   2.325   0.015   0.004
 2337TIP3    H1 6975   2.361   0.021   0.093
 2337TIP3    H2 6976   2.400   0.031  -0.053
 2338TIP3   OH2 6977   3.428   1.738   1.021
 2338TIP3    H1 6978   3.423   1.671   0.953
 2338TIP3    H2 6979   3.450   1.690   1.101
 2339TIP3   OH2 6980   7.095   1.814   0.322
 2339TIP3    H1 6981   7.083   1.736   0.268
 2339TIP3    H2 6982   7.171   1.794   0.376
 2340TIP3   OH2 6983   3.093   5.129   2.511
 2340TIP3    H1 6984   3.009   5.120   2.468
 2340TIP3    H2 6985   3.089   5.215   2.554
 2341TIP3   OH2 6986   0.042   6.175   4.146
 2341TIP3    H1 6987   0.091   6.188   4.227
 2341TIP3    H2 6988  -0.046   6.206   4.167
 2342TIP3   OH2 6989   3.477   4.242   2.459
 2342TIP3    H1 6990   3.412   4.307   2.434
 2342TIP3    H2 6991   3.525   4.224   2.378
 2343TIP3   OH2 6992   4.377   5.004   1.347
 2343TIP3    H1 6993   4.415   5.033   1.265
 2343TIP3    H2 6994   4.432   4.931   1.375
 2344TIP3   OH2 6995   0.457   2.624   0.829
 2344TIP3    H1 6996   0.495   2.709   0.807
 2344TIP3    H2 6997   0.501   2.599   0.911
 2345TIP3   OH2 6998   5.723   5.224   5.730
 2345TIP3    H1 6999   5.745   5.249   5.640
 2345TIP3    H2 7000   5.741   5.304   5.781
 2346TIP3   OH2 7001   0.425   3.416   5.317
 2346TIP3    H1 7002   0.442   3.509   5.301
 2346TIP3    H2 7003   0.414   3.410   5.412
 2347TIP3   OH2 7004   1.066   2.723   4.195
 2347TIP3    H1 7005   1.002   2.786   4.229
 2347TIP3    H2 7006   1.065   2.651   4.258
 2348TIP3   OH2 7007   5.659   5.592   3.670
 2348TIP3    H1 7008   5.722   5.545   3.724
 2348TIP3    H2 7009   5.679   5.684   3.685
 2349TIP3   OH2 7010   0.315   5.643   4.856
 2349TIP3    H1 7011   0.220   5.655   4.856
 2349TIP3    H2 7012   0.349   5.719   4.808
 2350TIP3   OH2 7013   4.871   3.121   5.394
 2350TIP3    H1 7014   4.827   3.056   5.339
 2350TIP3    H2 7015   4.833   3.205   5.367
 2351TIP3   OH2 7016   3.429   1.548   4.874
 2351TIP3    H1 7017   3.356   1.492   4.847
 2351TIP3    H2 7018   3.394   1.598   4.948
 2352TIP3   OH2 7019   7.140   5.988   4.409
 2352TIP3    H1 7020   7.133   5.960   4.500
 2352TIP3    H2 7021   7.050   6.009   4.383
 2353TIP3   OH2 7022   1.839   4.003   3.228
 2353TIP3    H1 7023   1.779   3.928   3.221
 2353TIP3    H2 7024   1.922   3.971   3.193
 2354TIP3   OH2 7025   6.495   4.174   2.893
 2354TIP3    H1 7026   6.472   4.267   2.897
 2354TIP3    H2 7027   6.412   4.130   2.877
 2355TIP3   OH2 7028   2.567   0.876   3.925
 2355TIP3    H1 7029   2.485   0.886   3.876
 2355TIP3    H2 7030   2.626   0.938   3.884
 2356TIP3   OH2 7031   5.467   1.604   3.920
 2356TIP3    H1 7032   5.407   1.544   3.875
 2356TIP3    H2 7033   5.504   1.658   3.850
 2357TIP3   OH2 7034   4.441   2.718   1.068
 2357TIP3    H1 7035   4.366   2.775   1.055
 2357TIP3    H2 7036   4.482   2.710   0.982
 2358TIP3   OH2 7037   5.109   4.976   0.284
 2358TIP3    H1 7038   5.057   4.899   0.259
 2358TIP3    H2 7039   5.199   4.944   0.289
 2359TIP3   OH2 7040   3.931   0.175   4.060
 2359TIP3    H1 7041   3.962   0.102   4.007
 2359TIP3    H2 7042   3.858   0.211   4.011
 2360TIP3   OH2 7043   0.577   3.548   1.229
 2360TIP3    H1 7044   0.662   3.578   1.260
 2360TIP3    H2 7045   0.573   3.456   1.256
 2361TIP3   OH2 7046   3.468   1.736   2.104
 2361TIP3    H1 7047   3.545   1.786   2.076
 2361TIP3    H2 7048   3.459   1.757   2.197
 2362TIP3   OH2 7049   2.611   1.048   0.773
 2362TIP3    H1 7050   2.555   1.053   0.850
 2362TIP3    H2 7051   2.676   1.117   0.786
 2363TIP3   OH2 7052   6.896   3.570   2.364
 2363TIP3    H1 7053   6.827   3.526   2.413
 2363TIP3    H2 7054   6.867   3.566   2.273
 2364TIP3   OH2 7055   1.866   6.087   5.839
 2364TIP3    H1 7056   1.853   6.068   5.932
 2364TIP3    H2 7057   1.780   6.113   5.807
 2365TIP3   OH2 7058   3.296   2.348   1.836
 2365TIP3    H1 7059   3.253   2.304   1.763
 2365TIP3    H2 7060   3.381   2.304   1.843
 2366TIP3   OH2 7061   5.967   2.650   2.996
 2366TIP3    H1 7062   5.911   2.678   2.924
 2366TIP3    H2 7063   5.961   2.720   3.060
 2367TIP3   OH2 7064   4.960   6.557   0.532
 2367TIP3    H1 7065   5.022   6.545   0.604
 2367TIP3    H2 7066   4.957   6.652   0.519
 2368TIP3   OH2 7067   1.616   4.643   2.144
 2368TIP3    H1 7068   1.584   4.650   2.234
 2368TIP3    H2 7069   1.709   4.623   2.153
 2369TIP3   OH2 7070   0.106   5.520   4.644
 2369TIP3    H1 7071   0.090   5.599   4.695
 2369TIP3    H2 7072   0.053   5.452   4.685
 2370TIP3   OH2 7073   1.048   1.894   0.327
 2370TIP3    H1 7074   0.979   1.914   0.389
 2370TIP3    H2 7075   1.061   1.975   0.278
 2371TIP3   OH2 7076   3.676   3.528   1.497
 2371TIP3    H1 7077   3.686   3.522   1.402
 2371TIP3    H2 7078   3.701   3.618   1.518
 2372TIP3   OH2 7079   1.081   4.622   2.499
 2372TIP3    H1 7080   1.176   4.636   2.505
 2372TIP3    H2 7081   1.043   4.706   2.525
 2373TIP3   OH2 7082   6.785   0.184   4.961
 2373TIP3    H1 7083   6.836   0.108   4.989
 2373TIP3    H2 7084   6.848   0.256   4.962
 2374TIP3   OH2 7085   1.531   3.119   0.634
 2374TIP3    H1 7086   1.561   3.160   0.716
 2374TIP3    H2 7087   1.526   3.191   0.571
 2375TIP3   OH2 7088   1.143   3.213   0.736
 2375TIP3    H1 7089   1.190   3.138   0.773
 2375TIP3    H2 7090   1.180   3.288   0.781
 2376TIP3   OH2 7091   4.212   3.515   2.731
 2376TIP3    H1 7092   4.268   3.483   2.660
 2376TIP3    H2 7093   4.245   3.603   2.749
 2377TIP3   OH2 7094   5.542   0.336   3.229
 2377TIP3    H1 7095   5.530   0.244   3.208
 2377TIP3    H2 7096   5.583   0.336   3.316
 2378TIP3   OH2 7097   4.945   6.675   3.829
 2378TIP3    H1 7098   4.874   6.669   3.765
 2378TIP3    H2 7099   4.906   6.644   3.911
 2379TIP3   OH2 7100   2.427   5.089   2.063
 2379TIP3    H1 7101   2.399   5.180   2.051
 2379TIP3    H2 7102   2.395   5.065   2.150
 2380TIP3   OH2 7103   3.986   0.879   0.417
 2380TIP3    H1 7104   4.080   0.881   0.436
 2380TIP3    H2 7105   3.963   0.970   0.400
 2381TIP3   OH2 7106   1.657   6.367   2.745
 2381TIP3    H1 7107   1.585   6.306   2.765
 2381TIP3    H2 7108   1.699   6.383   2.829
 2382TIP3   OH2 7109   6.099   3.738   0.246
 2382TIP3    H1 7110   6.110   3.647   0.218
 2382TIP3    H2 7111   6.005   3.754   0.236
 2383TIP3   OH2 7112   6.451   0.804   3.969
 2383TIP3    H1 7113   6.532   0.772   3.930
 2383TIP3    H2 7114   6.463   0.793   4.063
 2384TIP3   OH2 7115   7.023   0.995   3.304
 2384TIP3    H1 7116   6.928   0.990   3.298
 2384TIP3    H2 7117   7.041   1.082   3.339
 2385TIP3   OH2 7118   6.249   4.498   5.330
 2385TIP3    H1 7119   6.291   4.563   5.385
 2385TIP3    H2 7120   6.313   4.479   5.262
 2386TIP3   OH2 7121   2.088   5.287   1.047
 2386TIP3    H1 7122   2.128   5.253   0.967
 2386TIP3    H2 7123   2.162   5.319   1.099
 2387TIP3   OH2 7124   0.477   4.652   0.435
 2387TIP3    H1 7125   0.392   4.658   0.478
 2387TIP3    H2 7126   0.462   4.688   0.347
 2388TIP3   OH2 7127   4.036   1.582   0.426
 2388TIP3    H1 7128   4.029   1.674   0.453
 2388TIP3    H2 7129   4.110   1.548   0.477
 2389TIP3   OH2 7130   1.456   1.873   3.490
 2389TIP3    H1 7131   1.431   1.807   3.425
 2389TIP3    H2 7132   1.498   1.823   3.560
 2390TIP3   OH2 7133   5.848   4.360   2.393
 2390TIP3    H1 7134   5.900   4.436   2.420
 2390TIP3    H2 7135   5.902   4.317   2.326
 2391TIP3   OH2 7136   2.060   5.186   5.123
 2391TIP3    H1 7137   2.051   5.268   5.073
 2391TIP3    H2 7138   1.969   5.159   5.139
 2392TIP3   OH2 7139   6.905   4.175   5.489
 2392TIP3    H1 7140   6.980   4.118   5.469
 2392TIP3    H2 7141   6.908   4.187   5.584
 2393TIP3   OH2 7142   2.119   2.887   3.257
 2393TIP3    H1 7143   2.066   2.869   3.179
 2393TIP3    H2 7144   2.146   2.800   3.288
 2394TIP3   OH2 7145   2.927   6.679   4.038
 2394TIP3    H1 7146   2.892   6.620   4.104
 2394TIP3    H2 7147   2.970   6.749   4.088
 2395TIP3   OH2 7148   2.286   2.074   5.244
 2395TIP3    H1 7149   2.350   2.135   5.281
 2395TIP3    H2 7150   2.302   2.077   5.150
 2396TIP3   OH2 7151   2.462   0.510   3.846
 2396TIP3    H1 7152   2.482   0.560   3.768
 2396TIP3    H2 7153   2.450   0.576   3.915
 2397TIP3   OH2 7154   3.501   1.556   4.534
 2397TIP3    H1 7155   3.538   1.599   4.457
 2397TIP3    H2 7156   3.421   1.606   4.553
 2398TIP3   OH2 7157   0.611   0.043   0.749
 2398TIP3    H1 7158   0.681   0.003   0.698
 2398TIP3    H2 7159   0.592  -0.021   0.817
 2399TIP3   OH2 7160   1.778   4.403   1.371
 2399TIP3    H1 7161   1.763   4.336   1.438
 2399TIP3    H2 7162   1.811   4.354   1.295
 2400TIP3   OH2 7163   1.302   4.739   1.585
 2400TIP3    H1 7164   1.358   4.677   1.632
 2400TIP3    H2 7165   1.360   4.780   1.520
 2401TIP3   OH2 7166   6.916   6.446   5.806
 2401TIP3    H1 7167   6.968   6.500   5.865
 2401TIP3    H2 7168   6.865   6.390   5.864
 2402TIP3   OH2 7169   2.377   5.104   1.697
 2402TIP3    H1 7170   2.426   5.098   1.615
 2402TIP3    H2 7171   2.418   5.040   1.754
 2403TIP3   OH2 7172   4.003   4.444   4.852
 2403TIP3    H1 7173   4.040   4.422   4.767
 2403TIP3    H2 7174   3.908   4.436   4.840
 2404TIP3   OH2 7175   3.660   1.890   1.951
 2404TIP3    H1 7176   3.707   1.904   1.868
 2404TIP3    H2 7177   3.627   1.976   1.975
 2405TIP3   OH2 7178   5.109   2.757   0.784
 2405TIP3    H1 7179   5.162   2.810   0.725
 2405TIP3    H2 7180   5.098   2.812   0.863
 2406TIP3   OH2 7181   4.848   0.095   3.627
 2406TIP3    H1 7182   4.843   0.182   3.588
 2406TIP3    H2 7183   4.759   0.076   3.655
 2407TIP3   OH2 7184   3.771   2.373   2.026
 2407TIP3    H1 7185   3.802   2.368   2.116
 2407TIP3    H2 7186   3.748   2.465   2.013
 2408TIP3   OH2 7187   1.350   0.685   0.636
 2408TIP3    H1 7188   1.355   0.732   0.553
 2408TIP3    H2 7189   1.257   0.683   0.658
 2409TIP3   OH2 7190   4.105   1.107   4.427
 2409TIP3    H1 7191   4.191   1.133   4.460
 2409TIP3    H2 7192   4.105   1.135   4.336
 2410TIP3   OH2 7193   1.855   2.535   0.284
 2410TIP3    H1 7194   1.907   2.471   0.333
 2410TIP3    H2 7195   1.881   2.620   0.321
 2411TIP3   OH2 7196   0.465   2.453  -0.007
 2411TIP3    H1 7197   0.506   2.529   0.034
 2411TIP3    H2 7198   0.534   2.386  -0.007
 2412TIP3   OH2 7199   2.249   5.999   4.844
 2412TIP3    H1 7200   2.167   5.967   4.806
 2412TIP3    H2 7201   2.248   5.966   4.934
 2413TIP3   OH2 7202   0.203   4.421   4.350
 2413TIP3    H1 7203   0.294   4.451   4.347
 2413TIP3    H2 7204   0.182   4.398   4.260
 2414TIP3   OH2 7205   3.163   2.748   4.984
 2414TIP3    H1 7206   3.074   2.746   5.019
 2414TIP3    H2 7207   3.210   2.809   5.042
 2415TIP3   OH2 7208   6.042   1.477   2.582
 2415TIP3    H1 7209   6.076   1.436   2.503
 2415TIP3    H2 7210   5.950   1.453   2.585
 2416TIP3   OH2 7211   2.203   6.561   1.781
 2416TIP3    H1 7212   2.208   6.596   1.692
 2416TIP3    H2 7213   2.110   6.560   1.802
 2417TIP3   OH2 7214   0.608   5.295   3.396
 2417TIP3    H1 7215   0.613   5.242   3.475
 2417TIP3    H2 7216   0.563   5.375   3.423
 2418TIP3   OH2 7217   6.517   0.544   5.284
 2418TIP3    H1 7218   6.542   0.475   5.222
 2418TIP3    H2 7219   6.592   0.603   5.285
 2419TIP3   OH2 7220   1.503   6.163   2.439
 2419TIP3    H1 7221   1.590   6.183   2.404
 2419TIP3    H2 7222   1.508   6.187   2.532
 2420TIP3   OH2 7223   5.909   4.154   1.070
 2420TIP3    H1 7224   5.990   4.197   1.041
 2420TIP3    H2 7225   5.940   4.078   1.120
 2421TIP3   OH2 7226   3.313   3.195   4.098
 2421TIP3    H1 7227   3.301   3.155   4.184
 2421TIP3    H2 7228   3.308   3.122   4.036
 2422TIP3   OH2 7229   2.783   5.602   5.450
 2422TIP3    H1 7230   2.804   5.683   5.496
 2422TIP3    H2 7231   2.796   5.623   5.357
 2423TIP3   OH2 7232   4.229   1.085   1.221
 2423TIP3    H1 7233   4.194   1.172   1.200
 2423TIP3    H2 7234   4.314   1.082   1.177
 2424TIP3   OH2 7235   1.200   3.001   2.868
 2424TIP3    H1 7236   1.273   2.943   2.890
 2424TIP3    H2 7237   1.143   2.998   2.944
 2425TIP3   OH2 7238   3.991   1.807   4.519
 2425TIP3    H1 7239   3.928   1.803   4.592
 2425TIP3    H2 7240   3.977   1.894   4.482
 2426TIP3   OH2 7241   1.573   3.572   0.452
 2426TIP3    H1 7242   1.534   3.618   0.526
 2426TIP3    H2 7243   1.567   3.634   0.379
 2427TIP3   OH2 7244   3.814   6.823   1.476
 2427TIP3    H1 7245   3.782   6.741   1.512
 2427TIP3    H2 7246   3.896   6.800   1.432
 2428TIP3   OH2 7247   4.836   5.981   1.555
 2428TIP3    H1 7248   4.889   5.931   1.493
 2428TIP3    H2 7249   4.899   6.011   1.621
 2429TIP3   OH2 7250   6.959   0.469   3.366
 2429TIP3    H1 7251   6.987   0.520   3.290
 2429TIP3    H2 7252   7.030   0.477   3.429
 2430TIP3   OH2 7253   5.879   0.850   5.011
 2430TIP3    H1 7254   5.818   0.923   5.023
 2430TIP3    H2 7255   5.846   0.783   5.071
 2431TIP3   OH2 7256   3.837   5.548   5.002
 2431TIP3    H1 7257   3.773   5.523   4.935
 2431TIP3    H2 7258   3.856   5.466   5.048
 2432TIP3   OH2 7259   2.964   5.548   2.192
 2432TIP3    H1 7260   2.947   5.526   2.283
 2432TIP3    H2 7261   2.890   5.510   2.144
 2433TIP3   OH2 7262   6.763   4.354   1.126
 2433TIP3    H1 7263   6.851   4.339   1.092
 2433TIP3    H2 7264   6.776   4.410   1.202
 2434TIP3   OH2 7265   3.741   2.574   2.633
 2434TIP3    H1 7266   3.743   2.511   2.561
 2434TIP3    H2 7267   3.652   2.569   2.667
 2435TIP3   OH2 7268   1.520   0.128   4.564
 2435TIP3    H1 7269   1.538   0.118   4.658
 2435TIP3    H2 7270   1.504   0.039   4.533
 2436TIP3   OH2 7271   2.830   5.135   5.897
 2436TIP3    H1 7272   2.777   5.145   5.818
 2436TIP3    H2 7273   2.865   5.046   5.891
 2437TIP3   OH2 7274   2.271   4.422   2.783
 2437TIP3    H1 7275   2.353   4.470   2.773
 2437TIP3    H2 7276   2.217   4.451   2.709
 2438TIP3   OH2 7277   6.393   0.789   5.195
 2438TIP3    H1 7278   6.420   0.709   5.241
 2438TIP3    H2 7279   6.420   0.860   5.254
 2439TIP3   OH2 7280   0.327   4.593   0.981
 2439TIP3    H1 7281   0.383   4.664   0.949
 2439TIP3    H2 7282   0.340   4.593   1.076
 2440TIP3   OH2 7283   1.749   4.942   4.278
 2440TIP3    H1 7284   1.755   4.865   4.220
 2440TIP3    H2 7285   1.674   4.991   4.246
 2441TIP3   OH2 7286   3.497   5.990   3.703
 2441TIP3    H1 7287   3.542   6.070   3.675
 2441TIP3    H2 7288   3.455   6.013   3.786
 2442TIP3   OH2 7289   4.504   5.177   0.302
 2442TIP3    H1 7290   4.588   5.159   0.261
 2442TIP3    H2 7291   4.500   5.272   0.309
 2443TIP3   OH2 7292   2.766   4.945   4.909
 2443TIP3    H1 7293   2.853   4.986   4.913
 2443TIP3    H2 7294   2.781   4.854   4.934
 2444TIP3   OH2 7295   5.109   5.239   0.228
 2444TIP3    H1 7296   5.174   5.232   0.158
 2444TIP3    H2 7297   5.100   5.150   0.262
 2445TIP3   OH2 7298   2.108   4.273   5.075
 2445TIP3    H1 7299   2.087   4.244   5.163
 2445TIP3    H2 7300   2.050   4.222   5.018
 2446TIP3   OH2 7301   3.931   1.503   4.884
 2446TIP3    H1 7302   3.863   1.565   4.859
 2446TIP3    H2 7303   4.001   1.517   4.819
 2447TIP3   OH2 7304   7.067   6.587   0.319
 2447TIP3    H1 7305   7.015   6.610   0.395
 2447TIP3    H2 7306   7.050   6.658   0.256
 2448TIP3   OH2 7307   4.746   3.475   3.152
 2448TIP3    H1 7308   4.773   3.480   3.243
 2448TIP3    H2 7309   4.819   3.434   3.106
 2449TIP3   OH2 7310   4.348   0.250   2.955
 2449TIP3    H1 7311   4.382   0.300   3.030
 2449TIP3    H2 7312   4.406   0.174   2.949
 2450TIP3   OH2 7313   6.497   1.896   3.052
 2450TIP3    H1 7314   6.579   1.871   3.096
 2450TIP3    H2 7315   6.441   1.819   3.063
 2451TIP3   OH2 7316   3.672   5.145   2.169
 2451TIP3    H1 7317   3.618   5.189   2.104
 2451TIP3    H2 7318   3.625   5.156   2.251
 2452TIP3   OH2 7319   2.591   6.324   2.680
 2452TIP3    H1 7320   2.567   6.265   2.608
 2452TIP3    H2 7321   2.564   6.277   2.759
 2453TIP3   OH2 7322   4.995   4.514   3.018
 2453TIP3    H1 7323   4.915   4.479   3.058
 2453TIP3    H2 7324   4.964   4.571   2.948
 2454TIP3   OH2 7325   1.811   3.093   3.554
 2454TIP3    H1 7326   1.789   3.020   3.496
 2454TIP3    H2 7327   1.818   3.053   3.641
 2455TIP3   OH2 7328   4.247   6.142   5.226
 2455TIP3    H1 7329   4.320   6.120   5.283
 2455TIP3    H2 7330   4.191   6.198   5.279
 2456TIP3   OH2 7331   6.988   6.185   5.018
 2456TIP3    H1 7332   7.004   6.244   4.945
 2456TIP3    H2 7333   6.908   6.218   5.059
 2457TIP3   OH2 7334   3.092   0.665   0.033
 2457TIP3    H1 7335   3.067   0.597   0.095
 2457TIP3    H2 7336   3.134   0.732   0.086
 2458TIP3   OH2 7337   0.967   2.799   5.780
 2458TIP3    H1 7338   0.941   2.709   5.757
 2458TIP3    H2 7339   0.970   2.845   5.696
 2459TIP3   OH2 7340   2.712   3.786   0.377
 2459TIP3    H1 7341   2.700   3.829   0.462
 2459TIP3    H2 7342   2.687   3.852   0.313
 2460TIP3   OH2 7343   7.068   5.031   2.266
 2460TIP3    H1 7344   7.085   5.026   2.360
 2460TIP3    H2 7345   7.008   5.104   2.256
 2461TIP3   OH2 7346   1.710   1.130   1.461
 2461TIP3    H1 7347   1.642   1.127   1.394
 2461TIP3    H2 7348   1.692   1.210   1.510
 2462TIP3   OH2 7349   2.084   1.163   4.279
 2462TIP3    H1 7350   2.143   1.229   4.316
 2462TIP3    H2 7351   2.033   1.132   4.353
 2463TIP3   OH2 7352   5.046   3.220   0.699
 2463TIP3    H1 7353   5.083   3.160   0.763
 2463TIP3    H2 7354   4.951   3.214   0.713
 2464TIP3   OH2 7355   0.604   2.884   5.708
 2464TIP3    H1 7356   0.530   2.824   5.719
 2464TIP3    H2 7357   0.648   2.854   5.628
 2465TIP3   OH2 7358   6.024   3.671   2.737
 2465TIP3    H1 7359   6.032   3.736   2.668
 2465TIP3    H2 7360   5.971   3.714   2.804
 2466TIP3   OH2 7361   2.442   0.893   4.195
 2466TIP3    H1 7362   2.424   0.963   4.258
 2466TIP3    H2 7363   2.533   0.908   4.168
 2467TIP3   OH2 7364   5.325   6.109   4.045
 2467TIP3    H1 7365   5.232   6.106   4.021
 2467TIP3    H2 7366   5.352   6.198   4.023
 2468TIP3   OH2 7367   5.925   5.018   3.626
 2468TIP3    H1 7368   5.851   5.076   3.605
 2468TIP3    H2 7369   5.908   4.990   3.716
 2469TIP3   OH2 7370   6.890   5.974   4.069
 2469TIP3    H1 7371   6.825   5.905   4.066
 2469TIP3    H2 7372   6.893   6.000   4.161
 2470TIP3   OH2 7373   3.457   4.737   4.957
 2470TIP3    H1 7374   3.445   4.703   5.045
 2470TIP3    H2 7375   3.453   4.832   4.966
 2471TIP3   OH2 7376   6.354   5.054   5.051
 2471TIP3    H1 7377   6.324   4.996   5.121
 2471TIP3    H2 7378   6.275   5.098   5.020
 2472TIP3   OH2 7379   0.548   1.571   4.068
 2472TIP3    H1 7380   0.497   1.597   4.146
 2472TIP3    H2 7381   0.609   1.505   4.101
 2473TIP3   OH2 7382   5.747   4.097   2.540
 2473TIP3    H1 7383   5.669   4.099   2.595
 2473TIP3    H2 7384   5.744   4.180   2.491
 2474TIP3   OH2 7385   5.927   0.515   0.955
 2474TIP3    H1 7386   5.850   0.473   0.993
 2474TIP3    H2 7387   5.948   0.462   0.878
 2475TIP3   OH2 7388   1.252   6.024  -0.005
 2475TIP3    H1 7389   1.324   6.086   0.008
 2475TIP3    H2 7390   1.294   5.942  -0.029
 2476TIP3   OH2 7391   0.838   4.435   2.214
 2476TIP3    H1 7392   0.920   4.470   2.182
 2476TIP3    H2 7393   0.775   4.451   2.144
 2477TIP3   OH2 7394   6.347   5.420   1.110
 2477TIP3    H1 7395   6.399   5.341   1.090
 2477TIP3    H2 7396   6.291   5.394   1.183
 2478TIP3   OH2 7397   1.860   0.432   4.676
 2478TIP3    H1 7398   1.855   0.492   4.750
 2478TIP3    H2 7399   1.838   0.346   4.712
 2479TIP3   OH2 7400   6.563   1.872   4.676
 2479TIP3    H1 7401   6.634   1.886   4.613
 2479TIP3    H2 7402   6.573   1.781   4.703
 2480TIP3   OH2 7403   5.440   2.660   1.153
 2480TIP3    H1 7404   5.455   2.653   1.247
 2480TIP3    H2 7405   5.413   2.573   1.126
 2481TIP3   OH2 7406   0.711   0.916   3.705
 2481TIP3    H1 7407   0.664   0.833   3.708
 2481TIP3    H2 7408   0.797   0.897   3.743
 2482TIP3   OH2 7409   1.549   1.375   0.070
 2482TIP3    H1 7410   1.616   1.328   0.119
 2482TIP3    H2 7411   1.540   1.325  -0.011
 2483TIP3   OH2 7412   4.664   2.643   1.254
 2483TIP3    H1 7413   4.587   2.675   1.208
 2483TIP3    H2 7414   4.736   2.698   1.221
 2484TIP3   OH2 7415   0.619   1.391   2.613
 2484TIP3    H1 7416   0.690   1.379   2.676
 2484TIP3    H2 7417   0.662   1.401   2.528
 2485TIP3   OH2 7418   4.140   2.356   4.898
 2485TIP3    H1 7419   4.067   2.319   4.848
 2485TIP3    H2 7420   4.122   2.450   4.900
 2486TIP3   OH2 7421   4.735   4.036   4.752
 2486TIP3    H1 7422   4.744   4.131   4.753
 2486TIP3    H2 7423   4.710   4.015   4.662
 2487TIP3   OH2 7424   6.492   2.614   2.681
 2487TIP3    H1 7425   6.412   2.648   2.720
 2487TIP3    H2 7426   6.500   2.526   2.716
 2488TIP3   OH2 7427   0.430   0.049   5.305
 2488TIP3    H1 7428   0.375   0.043   5.384
 2488TIP3    H2 7429   0.368   0.039   5.232
 2489TIP3   OH2 7430   3.186   2.871   1.936
 2489TIP3    H1 7431   3.212   2.780   1.924
 2489TIP3    H2 7432   3.104   2.867   1.986
 2490TIP3   OH2 7433   4.341   0.229   1.179
 2490TIP3    H1 7434   4.251   0.210   1.205
 2490TIP3    H2 7435   4.391   0.152   1.207
 2491TIP3   OH2 7436   1.921   5.108   2.844
 2491TIP3    H1 7437   1.983   5.103   2.772
 2491TIP3    H2 7438   1.876   5.023   2.844
 2492TIP3   OH2 7439   0.910   2.309   0.983
 2492TIP3    H1 7440   0.837   2.364   1.012
 2492TIP3    H2 7441   0.869   2.246   0.923
 2493TIP3   OH2 7442   3.289   4.920   4.734
 2493TIP3    H1 7443   3.283   4.825   4.731
 2493TIP3    H2 7444   3.381   4.939   4.716
 2494TIP3   OH2 7445   5.924   3.251   0.804
 2494TIP3    H1 7446   5.944   3.239   0.711
 2494TIP3    H2 7447   5.985   3.192   0.849
 2495TIP3   OH2 7448   3.023   0.353   4.020
 2495TIP3    H1 7449   3.012   0.259   4.004
 2495TIP3    H2 7450   2.934   0.387   4.021
 2496TIP3   OH2 7451   2.625   2.868   3.611
 2496TIP3    H1 7452   2.583   2.783   3.623
 2496TIP3    H2 7453   2.612   2.888   3.518
 2497TIP3   OH2 7454   5.452   0.593   4.379
 2497TIP3    H1 7455   5.495   0.599   4.294
 2497TIP3    H2 7456   5.361   0.572   4.359
 2498TIP3   OH2 7457   4.225   3.565   1.764
 2498TIP3    H1 7458   4.221   3.593   1.856
 2498TIP3    H2 7459   4.310   3.597   1.733
 2499TIP3   OH2 7460   5.300   5.463   2.370
 2499TIP3    H1 7461   5.317   5.389   2.312
 2499TIP3    H2 7462   5.255   5.528   2.316
 2500TIP3   OH2 7463   1.495   0.631   5.714
 2500TIP3    H1 7464   1.409   0.596   5.735
 2500TIP3    H2 7465   1.480   0.724   5.699
 2501TIP3   OH2 7466   3.175   0.953   5.203
 2501TIP3    H1 7467   3.130   1.038   5.204
 2501TIP3    H2 7468   3.120   0.896   5.256
 2502TIP3   OH2 7469   6.196   0.460   2.301
 2502TIP3    H1 7470   6.283   0.473   2.264
 2502TIP3    H2 7471   6.163   0.549   2.316
 2503TIP3   OH2 7472   5.856   2.176   2.068
 2503TIP3    H1 7473   5.814   2.154   1.985
 2503TIP3    H2 7474   5.890   2.264   2.056
 2504TIP3   OH2 7475   3.233   4.967   5.811
 2504TIP3    H1 7476   3.233   4.953   5.906
 2504TIP3    H2 7477   3.293   5.041   5.798
 2505TIP3   OH2 7478   6.596   1.384   3.695
 2505TIP3    H1 7479   6.641   1.462   3.664
 2505TIP3    H2 7480   6.518   1.416   3.740
 2506TIP3   OH2 7481   0.676   5.645   1.784
 2506TIP3    H1 7482   0.699   5.729   1.744
 2506TIP3    H2 7483   0.593   5.661   1.829
 2507TIP3   OH2 7484   2.973   4.340   5.793
 2507TIP3    H1 7485   2.887   4.341   5.835
 2507TIP3    H2 7486   2.959   4.380   5.707
 2508TIP3   OH2 7487   2.640   3.506   2.254
 2508TIP3    H1 7488   2.597   3.586   2.284
 2508TIP3    H2 7489   2.586   3.435   2.290
 2509TIP3   OH2 7490   7.028   0.660   2.487
 2509TIP3    H1 7491   7.059   0.692   2.402
 2509TIP3    H2 7492   7.039   0.735   2.546
 2510TIP3   OH2 7493   7.090   4.234   0.109
 2510TIP3    H1 7494   7.013   4.290   0.120
 2510TIP3    H2 7495   7.149   4.285   0.053
 2511TIP3   OH2 7496   6.818   5.763   2.633
 2511TIP3    H1 7497   6.902   5.768   2.586
 2511TIP3    H2 7498   6.840   5.725   2.718
 2512TIP3   OH2 7499   5.174   6.707   2.310
 2512TIP3    H1 7500   5.085   6.708   2.277
 2512TIP3    H2 7501   5.183   6.621   2.353
 2513TIP3   OH2 7502   4.776   3.203   4.915
 2513TIP3    H1 7503   4.805   3.259   4.842
 2513TIP3    H2 7504   4.856   3.185   4.964
 2514TIP3   OH2 7505   0.206   0.458   4.305
 2514TIP3    H1 7506   0.202   0.374   4.349
 2514TIP3    H2 7507   0.162   0.444   4.221
 2515TIP3   OH2 7508   2.757   0.111   4.879
 2515TIP3    H1 7509   2.785   0.197   4.911
 2515TIP3    H2 7510   2.834   0.055   4.888
 2516TIP3   OH2 7511   4.607   2.341   3.483
 2516TIP3    H1 7512   4.582   2.423   3.442
 2516TIP3    H2 7513   4.538   2.279   3.460
 2517TIP3   OH2 7514   5.497   5.975   2.709
 2517TIP3    H1 7515   5.451   6.059   2.718
 2517TIP3    H2 7516   5.506   5.962   2.615
 2518TIP3   OH2 7517   5.198   6.247   1.648
 2518TIP3    H1 7518   5.268   6.311   1.635
 2518TIP3    H2 7519   5.125   6.280   1.595
 2519TIP3   OH2 7520   4.802   2.831   4.030
 2519TIP3    H1 7521   4.847   2.871   3.956
 2519TIP3    H2 7522   4.869   2.821   4.097
 2520TIP3   OH2 7523   1.444   1.980   2.838
 2520TIP3    H1 7524   1.352   2.009   2.840
 2520TIP3    H2 7525   1.442   1.893   2.876
 2521TIP3   OH2 7526   5.973   1.545   5.295
 2521TIP3    H1 7527   5.971   1.636   5.326
 2521TIP3    H2 7528   6.056   1.511   5.328
 2522TIP3   OH2 7529   2.767   4.583   5.186
 2522TIP3    H1 7530   2.786   4.516   5.120
 2522TIP3    H2 7531   2.758   4.534   5.268
 2523TIP3   OH2 7532   3.556   5.880   1.349
 2523TIP3    H1 7533   3.521   5.949   1.292
 2523TIP3    H2 7534   3.609   5.826   1.290
 2524TIP3   OH2 7535   0.290   5.977   4.535
 2524TIP3    H1 7536   0.253   5.889   4.548
 2524TIP3    H2 7537   0.384   5.961   4.526
 2525TIP3   OH2 7538   4.451   1.768   1.617
 2525TIP3    H1 7539   4.519   1.729   1.672
 2525TIP3    H2 7540   4.410   1.694   1.572
 2526TIP3   OH2 7541   2.501   6.695   1.397
 2526TIP3    H1 7542   2.550   6.750   1.336
 2526TIP3    H2 7543   2.518   6.733   1.483
 2527TIP3   OH2 7544   7.108   1.793   5.130
 2527TIP3    H1 7545   7.017   1.765   5.140
 2527TIP3    H2 7546   7.105   1.889   5.136
 2528TIP3   OH2 7547   2.328   5.096   0.123
 2528TIP3    H1 7548   2.423   5.084   0.130
 2528TIP3    H2 7549   2.295   5.069   0.208
 2529TIP3   OH2 7550  -0.009   3.210   0.190
 2529TIP3    H1 7551  -0.063   3.159   0.131
 2529TIP3    H2 7552   0.079   3.205   0.152
 2530TIP3   OH2 7553   4.552   3.595   2.999
 2530TIP3    H1 7554   4.595   3.677   2.975
 2530TIP3    H2 7555   4.621   3.541   3.036
 2531TIP3   OH2 7556   1.601   4.538   4.573
 2531TIP3    H1 7557   1.569   4.569   4.488
 2531TIP3    H2 7558   1.614   4.444   4.561
 2532TIP3   OH2 7559   4.880   3.137   3.345
 2532TIP3    H1 7560   4.895   3.215   3.292
 2532TIP3    H2 7561   4.785   3.130   3.353
 2533TIP3   OH2 7562   4.441   5.579   5.552
 2533TIP3    H1 7563   4.457   5.631   5.473
 2533TIP3    H2 7564   4.508   5.608   5.613
 2534TIP3   OH2 7565   7.014   2.732   1.166
 2534TIP3    H1 7566   6.973   2.726   1.252
 2534TIP3    H2 7567   7.103   2.763   1.184
 2535TIP3   OH2 7568   4.826   4.557   4.762
 2535TIP3    H1 7569   4.795   4.530   4.848
 2535TIP3    H2 7570   4.773   4.634   4.740
 2536TIP3   OH2 7571   4.052   0.244   0.259
 2536TIP3    H1 7572   4.045   0.190   0.180
 2536TIP3    H2 7573   3.986   0.312   0.248
 2537TIP3   OH2 7574   6.364   4.859   2.876
 2537TIP3    H1 7575   6.331   4.945   2.901
 2537TIP3    H2 7576   6.331   4.799   2.943
 2538TIP3   OH2 7577   5.889   4.837   1.490
 2538TIP3    H1 7578   5.914   4.898   1.559
 2538TIP3    H2 7579   5.870   4.891   1.414
 2539TIP3   OH2 7580   3.890   3.811   5.078
 2539TIP3    H1 7581   3.965   3.841   5.027
 2539TIP3    H2 7582   3.825   3.881   5.070
 2540TIP3   OH2 7583   0.342   0.077   4.426
 2540TIP3    H1 7584   0.322  -0.015   4.440
 2540TIP3    H2 7585   0.257   0.119   4.415
 2541TIP3   OH2 7586   5.785   1.082   4.025
 2541TIP3    H1 7587   5.861   1.034   4.058
 2541TIP3    H2 7588   5.804   1.174   4.046
 2542TIP3   OH2 7589   0.630   2.513   3.533
 2542TIP3    H1 7590   0.571   2.535   3.461
 2542TIP3    H2 7591   0.674   2.595   3.553
 2543TIP3   OH2 7592   2.332   1.570   4.532
 2543TIP3    H1 7593   2.321   1.646   4.475
 2543TIP3    H2 7594   2.313   1.602   4.620
 2544TIP3   OH2 7595   5.773   4.215   5.153
 2544TIP3    H1 7596   5.820   4.134   5.131
 2544TIP3    H2 7597   5.839   4.284   5.146
 2545TIP3   OH2 7598   7.190   2.073   5.722
 2545TIP3    H1 7599   7.271   2.120   5.706
 2545TIP3    H2 7600   7.121   2.138   5.709
 2546TIP3   OH2 7601   0.071   3.157   4.988
 2546TIP3    H1 7602   0.119   3.202   5.058
 2546TIP3    H2 7603   0.034   3.079   5.030
 2547TIP3   OH2 7604   1.242   6.590   5.403
 2547TIP3    H1 7605   1.234   6.515   5.461
 2547TIP3    H2 7606   1.189   6.659   5.444
 2548TIP3   OH2 7607   4.032   4.513   1.138
 2548TIP3    H1 7608   4.062   4.423   1.123
 2548TIP3    H2 7609   4.084   4.566   1.077
 2549TIP3   OH2 7610   6.477   6.752   5.722
 2549TIP3    H1 7611   6.517   6.671   5.690
 2549TIP3    H2 7612   6.519   6.769   5.806
 2550TIP3   OH2 7613   6.922   1.662   2.938
 2550TIP3    H1 7614   6.841   1.677   2.890
 2550TIP3    H2 7615   6.981   1.732   2.910
 2551TIP3   OH2 7616   6.481   1.127   0.241
 2551TIP3    H1 7617   6.398   1.123   0.289
 2551TIP3    H2 7618   6.481   1.049   0.187
 2552TIP3   OH2 7619   0.105   4.875   1.779
 2552TIP3    H1 7620   0.071   4.806   1.722
 2552TIP3    H2 7621   0.199   4.876   1.763
 2553TIP3   OH2 7622   5.416   4.407   1.483
 2553TIP3    H1 7623   5.377   4.379   1.565
 2553TIP3    H2 7624   5.344   4.407   1.420
 2554TIP3   OH2 7625   6.036   6.394   4.190
 2554TIP3    H1 7626   6.129   6.397   4.213
 2554TIP3    H2 7627   5.996   6.460   4.247
 2555TIP3   OH2 7628   5.981   2.598   0.920
 2555TIP3    H1 7629   6.047   2.578   0.854
 2555TIP3    H2 7630   5.950   2.686   0.896
 2556TIP3   OH2 7631   1.740   2.391   2.648
 2556TIP3    H1 7632   1.768   2.343   2.725
 2556TIP3    H2 7633   1.773   2.339   2.574
 2557TIP3   OH2 7634   4.766   0.807   5.164
 2557TIP3    H1 7635   4.740   0.894   5.192
 2557TIP3    H2 7636   4.684   0.761   5.149
 2558TIP3   OH2 7637   0.398   1.336   2.955
 2558TIP3    H1 7638   0.330   1.377   3.008
 2558TIP3    H2 7639   0.425   1.259   3.006
 2559TIP3   OH2 7640   2.764   3.199   1.738
 2559TIP3    H1 7641   2.774   3.285   1.779
 2559TIP3    H2 7642   2.675   3.171   1.761
 2560TIP3   OH2 7643   4.053   2.463   2.057
 2560TIP3    H1 7644   3.987   2.460   1.988
 2560TIP3    H2 7645   4.013   2.514   2.127
 2561TIP3   OH2 7646   0.191   2.944   5.809
 2561TIP3    H1 7647   0.180   2.932   5.903
 2561TIP3    H2 7648   0.254   3.016   5.801
 2562TIP3   OH2 7649   5.637   0.324   4.349
 2562TIP3    H1 7650   5.550   0.319   4.388
 2562TIP3    H2 7651   5.690   0.370   4.415
 2563TIP3   OH2 7652   0.275   0.708   0.842
 2563TIP3    H1 7653   0.202   0.768   0.856
 2563TIP3    H2 7654   0.278   0.697   0.746
 2564TIP3   OH2 7655   1.117   1.004   3.344
 2564TIP3    H1 7656   1.111   0.944   3.419
 2564TIP3    H2 7657   1.049   0.975   3.284
 2565TIP3   OH2 7658   2.694   0.643   4.369
 2565TIP3    H1 7659   2.635   0.716   4.386
 2565TIP3    H2 7660   2.761   0.679   4.311
 2566TIP3   OH2 7661   5.728   0.148   0.944
 2566TIP3    H1 7662   5.816   0.145   0.983
 2566TIP3    H2 7663   5.679   0.209   0.999
 2567TIP3   OH2 7664   4.032   6.072   5.486
 2567TIP3    H1 7665   4.026   6.158   5.443
 2567TIP3    H2 7666   3.958   6.070   5.546
 2568TIP3   OH2 7667   1.230   5.533   0.660
 2568TIP3    H1 7668   1.260   5.471   0.593
 2568TIP3    H2 7669   1.281   5.612   0.643
 2569TIP3   OH2 7670   0.942   0.433   1.055
 2569TIP3    H1 7671   0.859   0.389   1.037
 2569TIP3    H2 7672   0.964   0.406   1.144
 2570TIP3   OH2 7673   4.614   2.140   5.539
 2570TIP3    H1 7674   4.602   2.188   5.457
 2570TIP3    H2 7675   4.709   2.127   5.545
 2571TIP3   OH2 7676   3.052   0.581   2.836
 2571TIP3    H1 7677   3.050   0.635   2.757
 2571TIP3    H2 7678   2.964   0.542   2.841
 2572TIP3   OH2 7679   4.549   4.959   5.379
 2572TIP3    H1 7680   4.478   5.013   5.345
 2572TIP3    H2 7681   4.509   4.909   5.451
 2573TIP3   OH2 7682   5.223   6.202   1.909
 2573TIP3    H1 7683   5.224   6.194   1.814
 2573TIP3    H2 7684   5.315   6.215   1.933
 2574TIP3   OH2 7685   4.968   4.053   5.384
 2574TIP3    H1 7686   4.968   3.971   5.433
 2574TIP3    H2 7687   4.979   4.026   5.293
 2575TIP3   OH2 7688   3.315   2.729   3.437
 2575TIP3    H1 7689   3.374   2.782   3.384
 2575TIP3    H2 7690   3.243   2.706   3.377
 2576TIP3   OH2 7691   5.300   0.142   2.498
 2576TIP3    H1 7692   5.370   0.076   2.500
 2576TIP3    H2 7693   5.345   0.225   2.512
 2577TIP3   OH2 7694   6.008   3.651   1.042
 2577TIP3    H1 7695   6.099   3.674   1.061
 2577TIP3    H2 7696   6.002   3.557   1.062
 2578TIP3   OH2 7697   5.596   6.249   0.708
 2578TIP3    H1 7698   5.586   6.176   0.768
 2578TIP3    H2 7699   5.650   6.312   0.756
 2579TIP3   OH2 7700   6.970   4.394   3.913
 2579TIP3    H1 7701   7.054   4.438   3.921
 2579TIP3    H2 7702   6.950   4.397   3.819
 2580TIP3   OH2 7703   1.129   4.174   2.103
 2580TIP3    H1 7704   1.041   4.188   2.138
 2580TIP3    H2 7705   1.167   4.106   2.159
 2581TIP3   OH2 7706   4.660   6.427   3.571
 2581TIP3    H1 7707   4.709   6.362   3.622
 2581TIP3    H2 7708   4.624   6.376   3.498
 2582TIP3   OH2 7709   4.563   2.287   4.808
 2582TIP3    H1 7710   4.509   2.295   4.887
 2582TIP3    H2 7711   4.635   2.349   4.822
 2583TIP3   OH2 7712   4.761   1.830   4.272
 2583TIP3    H1 7713   4.814   1.815   4.350
 2583TIP3    H2 7714   4.671   1.834   4.304
 2584TIP3   OH2 7715   5.876   4.427   3.808
 2584TIP3    H1 7716   5.800   4.437   3.750
 2584TIP3    H2 7717   5.849   4.361   3.871
 2585TIP3   OH2 7718   3.234   0.539   5.437
 2585TIP3    H1 7719   3.206   0.629   5.455
 2585TIP3    H2 7720   3.153   0.490   5.426
 2586TIP3   OH2 7721   3.595   6.671   3.521
 2586TIP3    H1 7722   3.650   6.706   3.450
 2586TIP3    H2 7723   3.567   6.585   3.490
 2587TIP3   OH2 7724   0.079   4.446   2.492
 2587TIP3    H1 7725  -0.010   4.449   2.455
 2587TIP3    H2 7726   0.081   4.520   2.553
 2588TIP3   OH2 7727   6.495   2.128   4.668
 2588TIP3    H1 7728   6.400   2.124   4.675
 2588TIP3    H2 7729   6.524   2.037   4.674
 2589TIP3   OH2 7730   2.611   2.403   5.939
 2589TIP3    H1 7731   2.546   2.433   5.876
 2589TIP3    H2 7732   2.687   2.379   5.885
 2590TIP3   OH2 7733  -0.005   6.022   0.024
 2590TIP3    H1 7734   0.018   5.972   0.102
 2590TIP3    H2 7735   0.073   6.073   0.003
 2591TIP3   OH2 7736   0.358   6.383   3.376
 2591TIP3    H1 7737   0.312   6.325   3.437
 2591TIP3    H2 7738   0.444   6.397   3.415
 2592TIP3   OH2 7739   7.179   0.437   4.127
 2592TIP3    H1 7740   7.123   0.515   4.130
 2592TIP3    H2 7741   7.123   0.365   4.156
 2593TIP3   OH2 7742   3.156   3.543   2.284
 2593TIP3    H1 7743   3.178   3.519   2.374
 2593TIP3    H2 7744   3.082   3.602   2.292
 2594TIP3   OH2 7745   4.171   3.967   1.568
 2594TIP3    H1 7746   4.202   3.955   1.657
 2594TIP3    H2 7747   4.082   4.003   1.579
 2595TIP3   OH2 7748   1.693   0.307   0.803
 2595TIP3    H1 7749   1.682   0.346   0.889
 2595TIP3    H2 7750   1.721   0.217   0.820
 2596TIP3   OH2 7751   6.831   4.767   2.827
 2596TIP3    H1 7752   6.812   4.847   2.877
 2596TIP3    H2 7753   6.855   4.798   2.740
 2597TIP3   OH2 7754   0.131   5.351   3.658
 2597TIP3    H1 7755   0.062   5.400   3.702
 2597TIP3    H2 7756   0.206   5.356   3.717
 2598TIP3   OH2 7757   3.719   4.152   4.604
 2598TIP3    H1 7758   3.666   4.113   4.674
 2598TIP3    H2 7759   3.658   4.162   4.531
 2599TIP3   OH2 7760   3.365   3.611   1.226
 2599TIP3    H1 7761   3.281   3.626   1.183
 2599TIP3    H2 7762   3.418   3.687   1.200
 2600TIP3   OH2 7763   3.032   6.155   2.966
 2600TIP3    H1 7764   3.006   6.067   2.995
 2600TIP3    H2 7765   3.066   6.197   3.045
 2601TIP3   OH2 7766   1.896   0.366   5.298
 2601TIP3    H1 7767   1.822   0.339   5.245
 2601TIP3    H2 7768   1.877   0.332   5.385
 2602TIP3   OH2 7769   5.430   1.075   2.599
 2602TIP3    H1 7770   5.347   1.042   2.635
 2602TIP3    H2 7771   5.458   1.006   2.539
 2603TIP3   OH2 7772   5.255   6.807   3.118
 2603TIP3    H1 7773   5.160   6.801   3.133
 2603TIP3    H2 7774   5.277   6.726   3.072
 2604TIP3   OH2 7775   0.674   1.680   2.461
 2604TIP3    H1 7776   0.682   1.605   2.402
 2604TIP3    H2 7777   0.754   1.679   2.513
 2605TIP3   OH2 7778   0.631   0.880   2.857
 2605TIP3    H1 7779   0.667   0.968   2.861
 2605TIP3    H2 7780   0.539   0.891   2.879
 2606TIP3   OH2 7781   3.975   4.931   0.312
 2606TIP3    H1 7782   4.012   4.934   0.224
 2606TIP3    H2 7783   4.012   5.007   0.356
 2607TIP3   OH2 7784   1.508   1.484   0.697
 2607TIP3    H1 7785   1.428   1.459   0.649
 2607TIP3    H2 7786   1.550   1.548   0.640
 2608TIP3   OH2 7787   5.798   4.086   3.587
 2608TIP3    H1 7788   5.733   4.156   3.597
 2608TIP3    H2 7789   5.816   4.083   3.493
 2609TIP3   OH2 7790   1.255   2.772   1.593
 2609TIP3    H1 7791   1.321   2.708   1.567
 2609TIP3    H2 7792   1.218   2.736   1.674
 2610TIP3   OH2 7793   4.832   3.693   5.254
 2610TIP3    H1 7794   4.834   3.642   5.173
 2610TIP3    H2 7795   4.825   3.784   5.224
 2611TIP3   OH2 7796   0.521   5.562   2.339
 2611TIP3    H1 7797   0.532   5.617   2.416
 2611TIP3    H2 7798   0.503   5.623   2.267
 2612TIP3   OH2 7799   2.934   6.709   2.818
 2612TIP3    H1 7800   2.853   6.751   2.848
 2612TIP3    H2 7801   2.918   6.690   2.726
 2613TIP3   OH2 7802   5.554   3.501   2.873
 2613TIP3    H1 7803   5.492   3.443   2.917
 2613TIP3    H2 7804   5.640   3.465   2.895
 2614TIP3   OH2 7805   4.881   0.521   1.456
 2614TIP3    H1 7806   4.885   0.426   1.464
 2614TIP3    H2 7807   4.955   0.553   1.507
 2615TIP3   OH2 7808   5.771   3.908   0.698
 2615TIP3    H1 7809   5.849   3.868   0.735
 2615TIP3    H2 7810   5.700   3.848   0.719
 2616TIP3   OH2 7811   2.370   6.481   0.829
 2616TIP3    H1 7812   2.370   6.577   0.826
 2616TIP3    H2 7813   2.450   6.456   0.781
 2617TIP3   OH2 7814   0.880   6.759   4.209
 2617TIP3    H1 7815   0.869   6.740   4.116
 2617TIP3    H2 7816   0.800   6.805   4.234
 2618TIP3   OH2 7817   4.159   3.141   5.589
 2618TIP3    H1 7818   4.233   3.086   5.564
 2618TIP3    H2 7819   4.158   3.211   5.524
 2619TIP3   OH2 7820   5.022   3.223   5.043
 2619TIP3    H1 7821   5.028   3.315   5.071
 2619TIP3    H2 7822   5.113   3.197   5.028
 2620TIP3   OH2 7823   2.212   5.213   0.775
 2620TIP3    H1 7824   2.190   5.122   0.756
 2620TIP3    H2 7825   2.146   5.264   0.726
 2621TIP3   OH2 7826   4.274   5.820   0.208
 2621TIP3    H1 7827   4.281   5.737   0.256
 2621TIP3    H2 7828   4.246   5.794   0.120
 2622TIP3   OH2 7829   0.257   4.463   4.756
 2622TIP3    H1 7830   0.262   4.376   4.796
 2622TIP3    H2 7831   0.192   4.453   4.686
 2623TIP3   OH2 7832   6.164   4.246   2.541
 2623TIP3    H1 7833   6.108   4.175   2.572
 2623TIP3    H2 7834   6.201   4.214   2.459
 2624TIP3   OH2 7835   1.387   0.090   5.331
 2624TIP3    H1 7836   1.475   0.058   5.313
 2624TIP3    H2 7837   1.384   0.104   5.425
 2625TIP3   OH2 7838   6.934   3.495   5.316
 2625TIP3    H1 7839   6.853   3.493   5.367
 2625TIP3    H2 7840   6.997   3.540   5.373
 2626TIP3   OH2 7841   1.186   5.030   5.174
 2626TIP3    H1 7842   1.140   4.947   5.193
 2626TIP3    H2 7843   1.246   5.008   5.103
 2627TIP3   OH2 7844   1.253   6.518   3.770
 2627TIP3    H1 7845   1.281   6.430   3.797
 2627TIP3    H2 7846   1.251   6.515   3.674
 2628TIP3   OH2 7847   3.128   3.672   4.735
 2628TIP3    H1 7848   3.147   3.585   4.769
 2628TIP3    H2 7849   3.205   3.694   4.681
 2629TIP3   OH2 7850   1.405   4.465   5.529
 2629TIP3    H1 7851   1.499   4.465   5.511
 2629TIP3    H2 7852   1.366   4.510   5.454
 2630TIP3   OH2 7853   4.598   1.265   1.745
 2630TIP3    H1 7854   4.627   1.273   1.654
 2630TIP3    H2 7855   4.536   1.337   1.757
 2631TIP3   OH2 7856   4.528   1.348   5.467
 2631TIP3    H1 7857   4.441   1.308   5.474
 2631TIP3    H2 7858   4.589   1.273   5.473
 2632TIP3   OH2 7859   6.464   4.640   0.429
 2632TIP3    H1 7860   6.410   4.698   0.483
 2632TIP3    H2 7861   6.464   4.557   0.476
 2633TIP3   OH2 7862   5.132   0.949   5.468
 2633TIP3    H1 7863   5.190   0.906   5.405
 2633TIP3    H2 7864   5.061   0.887   5.482
 2634TIP3   OH2 7865   5.415   0.248   4.804
 2634TIP3    H1 7866   5.326   0.221   4.827
 2634TIP3    H2 7867   5.404   0.335   4.765
 2635TIP3   OH2 7868   4.220   1.374   2.920
 2635TIP3    H1 7869   4.171   1.364   2.839
 2635TIP3    H2 7870   4.233   1.285   2.953
 2636TIP3   OH2 7871   3.809   3.107   4.605
 2636TIP3    H1 7872   3.883   3.120   4.665
 2636TIP3    H2 7873   3.775   3.195   4.589
 2637TIP3   OH2 7874   3.605   1.776   4.352
 2637TIP3    H1 7875   3.519   1.777   4.310
 2637TIP3    H2 7876   3.590   1.812   4.439
 2638TIP3   OH2 7877   0.288   4.362   0.036
 2638TIP3    H1 7878   0.207   4.373  -0.014
 2638TIP3    H2 7879   0.265   4.301   0.106
 2639TIP3   OH2 7880   6.125   2.867   2.738
 2639TIP3    H1 7881   6.121   2.812   2.660
 2639TIP3    H2 7882   6.194   2.827   2.792
 2640TIP3   OH2 7883   6.912   2.307   5.222
 2640TIP3    H1 7884   6.951   2.241   5.165
 2640TIP3    H2 7885   6.935   2.279   5.310
 2641TIP3   OH2 7886   7.006   1.939   2.284
 2641TIP3    H1 7887   7.030   1.985   2.203
 2641TIP3    H2 7888   7.076   1.875   2.297
 2642TIP3   OH2 7889   4.834   5.146   5.631
 2642TIP3    H1 7890   4.796   5.103   5.708
 2642TIP3    H2 7891   4.764   5.202   5.598
 2643TIP3   OH2 7892   6.521   2.105   0.089
 2643TIP3    H1 7893   6.497   2.057   0.010
 2643TIP3    H2 7894   6.440   2.148   0.117
 2644TIP3   OH2 7895   3.690   2.817   4.221
 2644TIP3    H1 7896   3.690   2.855   4.309
 2644TIP3    H2 7897   3.762   2.861   4.176
 2645TIP3   OH2 7898   6.846   2.246   1.775
 2645TIP3    H1 7899   6.767   2.193   1.777
 2645TIP3    H2 7900   6.844   2.296   1.857
 2646TIP3   OH2 7901   6.518   0.131   0.354
 2646TIP3    H1 7902   6.608   0.099   0.343
 2646TIP3    H2 7903   6.484   0.139   0.265
 2647TIP3   OH2 7904   0.768   4.132   0.383
 2647TIP3    H1 7905   0.678   4.121   0.352
 2647TIP3    H2 7906   0.767   4.214   0.433
 2648TIP3   OH2 7907   2.139   1.946   2.710
 2648TIP3    H1 7908   2.091   1.879   2.758
 2648TIP3    H2 7909   2.208   1.899   2.664
 2649TIP3   OH2 7910   3.613   3.105   3.267
 2649TIP3    H1 7911   3.580   3.093   3.356
 2649TIP3    H2 7912   3.706   3.123   3.277
 2650TIP3   OH2 7913   5.302   3.838   5.474
 2650TIP3    H1 7914   5.330   3.748   5.489
 2650TIP3    H2 7915   5.263   3.865   5.557
 2651TIP3   OH2 7916   1.817   2.719   4.611
 2651TIP3    H1 7917   1.901   2.677   4.632
 2651TIP3    H2 7918   1.839   2.811   4.596
 2652TIP3   OH2 7919   5.663   2.764   1.909
 2652TIP3    H1 7920   5.686   2.844   1.862
 2652TIP3    H2 7921   5.712   2.769   1.991
 2653TIP3   OH2 7922   3.394   0.760   3.218
 2653TIP3    H1 7923   3.385   0.666   3.235
 2653TIP3    H2 7924   3.439   0.794   3.295
 2654TIP3   OH2 7925   1.800   0.938   1.609
 2654TIP3    H1 7926   1.779   0.998   1.538
 2654TIP3    H2 7927   1.853   0.989   1.670
 2655TIP3   OH2 7928   6.964   5.815   1.039
 2655TIP3    H1 7929   6.982   5.738   0.985
 2655TIP3    H2 7930   6.987   5.788   1.128
 2656TIP3   OH2 7931   4.884   1.613   5.856
 2656TIP3    H1 7932   4.803   1.609   5.908
 2656TIP3    H2 7933   4.863   1.567   5.775
 2657TIP3   OH2 7934   4.184   0.092   4.503
 2657TIP3    H1 7935   4.124   0.077   4.577
 2657TIP3    H2 7936   4.132   0.142   4.440
 2658TIP3   OH2 7937   2.924   4.695   1.764
 2658TIP3    H1 7938   2.988   4.752   1.720
 2658TIP3    H2 7939   2.846   4.749   1.772
 2659TIP3   OH2 7940   0.382   3.698   5.331
 2659TIP3    H1 7941   0.385   3.690   5.426
 2659TIP3    H2 7942   0.294   3.732   5.313
 2660TIP3   OH2 7943   7.036   0.332   4.875
 2660TIP3    H1 7944   7.049   0.358   4.784
 2660TIP3    H2 7945   7.121   0.298   4.903
 2661TIP3   OH2 7946   1.966   0.102   0.050
 2661TIP3    H1 7947   1.932   0.065  -0.031
 2661TIP3    H2 7948   1.889   0.139   0.094
 2662TIP3   OH2 7949   2.577   2.907   3.301
 2662TIP3    H1 7950   2.573   2.862   3.217
 2662TIP3    H2 7951   2.497   2.959   3.305
 2663TIP3   OH2 7952   3.165   4.374   2.607
 2663TIP3    H1 7953   3.072   4.363   2.588
 2663TIP3    H2 7954   3.205   4.397   2.522
 2664TIP3   OH2 7955   1.842   4.862   1.245
 2664TIP3    H1 7956   1.895   4.925   1.294
 2664TIP3    H2 7957   1.834   4.786   1.304
 2665TIP3   OH2 7958   5.714   4.789   0.238
 2665TIP3    H1 7959   5.794   4.736   0.243
 2665TIP3    H2 7960   5.737   4.871   0.283
 2666TIP3   OH2 7961   5.820   2.091   4.945
 2666TIP3    H1 7962   5.794   2.147   5.018
 2666TIP3    H2 7963   5.915   2.084   4.953
 2667TIP3   OH2 7964   1.783   6.198   3.406
 2667TIP3    H1 7965   1.865   6.219   3.361
 2667TIP3    H2 7966   1.796   6.109   3.439
 2668TIP3   OH2 7967   2.093   1.194   3.333
 2668TIP3    H1 7968   2.066   1.145   3.411
 2668TIP3    H2 7969   2.151   1.262   3.366
 2669TIP3   OH2 7970   6.983   3.991   2.139
 2669TIP3    H1 7971   6.912   3.931   2.116
 2669TIP3    H2 7972   7.060   3.957   2.093
 2670TIP3   OH2 7973   1.584   0.919   2.770
 2670TIP3    H1 7974   1.652   0.863   2.733
 2670TIP3    H2 7975   1.590   1.000   2.720
 2671TIP3   OH2 7976   6.993   3.271   0.929
 2671TIP3    H1 7977   7.040   3.255   0.847
 2671TIP3    H2 7978   6.969   3.184   0.961
 2672TIP3   OH2 7979   0.422   1.643   4.368
 2672TIP3    H1 7980   0.404   1.578   4.436
 2672TIP3    H2 7981   0.449   1.722   4.416
 2673TIP3   OH2 7982   4.869   0.974   5.781
 2673TIP3    H1 7983   4.842   0.904   5.722
 2673TIP3    H2 7984   4.841   1.054   5.737
 2674TIP3   OH2 7985   5.707   4.464   1.745
 2674TIP3    H1 7986   5.784   4.521   1.744
 2674TIP3    H2 7987   5.723   4.401   1.675
 2675TIP3   OH2 7988   6.764   3.444   1.583
 2675TIP3    H1 7989   6.855   3.473   1.573
 2675TIP3    H2 7990   6.771   3.366   1.639
 2676TIP3   OH2 7991   6.389   5.160   1.026
 2676TIP3    H1 7992   6.452   5.100   1.067
 2676TIP3    H2 7993   6.414   5.162   0.934
 2677TIP3   OH2 7994   4.369   6.082  -0.013
 2677TIP3    H1 7995   4.356   6.167   0.029
 2677TIP3    H2 7996   4.284   6.062  -0.054
 2678TIP3   OH2 7997   0.403   0.156   2.475
 2678TIP3    H1 7998   0.463   0.208   2.530
 2678TIP3    H2 7999   0.421   0.065   2.499
 2679TIP3   OH2 8000   2.272   4.501   1.032
 2679TIP3    H1 8001   2.202   4.528   1.091
 2679TIP3    H2 8002   2.342   4.472   1.090
 2680TIP3   OH2 8003   0.080   5.341   2.473
 2680TIP3    H1 8004   0.128   5.259   2.484
 2680TIP3    H2 8005   0.124   5.403   2.530
 2681TIP3   OH2 8006   3.344   3.393   1.049
 2681TIP3    H1 8007   3.337   3.458   0.979
 2681TIP3    H2 8008   3.369   3.443   1.126
 2682TIP3   OH2 8009   0.336   1.790   1.140
 2682TIP3    H1 8010   0.429   1.781   1.118
 2682TIP3    H2 8011   0.335   1.803   1.234
 2683TIP3   OH2 8012   3.648   4.440   1.204
 2683TIP3    H1 8013   3.730   4.490   1.196
 2683TIP3    H2 8014   3.595   4.468   1.130
 2684TIP3   OH2 8015   6.684   1.961   2.820
 2684TIP3    H1 8016   6.739   1.886   2.797
 2684TIP3    H2 8017   6.623   1.926   2.885
 2685TIP3   OH2 8018   5.418   5.899   0.993
 2685TIP3    H1 8019   5.370   5.974   0.959
 2685TIP3    H2 8020   5.380   5.882   1.079
 2686TIP3   OH2 8021   6.502   2.878   4.134
 2686TIP3    H1 8022   6.558   2.923   4.071
 2686TIP3    H2 8023   6.556   2.869   4.212
 2687TIP3   OH2 8024   4.765   2.446   4.564
 2687TIP3    H1 8025   4.758   2.354   4.537
 2687TIP3    H2 8026   4.794   2.443   4.655
 2688TIP3   OH2 8027   5.453   6.246   1.499
 2688TIP3    H1 8028   5.425   6.311   1.435
 2688TIP3    H2 8029   5.511   6.187   1.450
 2689TIP3   OH2 8030   6.915   5.372   4.888
 2689TIP3    H1 8031   6.882   5.454   4.924
 2689TIP3    H2 8032   6.838   5.325   4.858
 2690TIP3   OH2 8033   3.269   4.142   3.537
 2690TIP3    H1 8034   3.325   4.207   3.580
 2690TIP3    H2 8035   3.292   4.149   3.445
 2691TIP3   OH2 8036   4.856   5.061   4.675
 2691TIP3    H1 8037   4.762   5.077   4.675
 2691TIP3    H2 8038   4.873   5.015   4.593
 2692TIP3   OH2 8039   4.383   6.169   2.054
 2692TIP3    H1 8040   4.390   6.264   2.064
 2692TIP3    H2 8041   4.474   6.138   2.046
 2693TIP3   OH2 8042   6.884   3.109   0.517
 2693TIP3    H1 8043   6.829   3.099   0.594
 2693TIP3    H2 8044   6.825   3.096   0.443
 2694TIP3   OH2 8045   4.681   3.967   1.824
 2694TIP3    H1 8046   4.606   4.023   1.842
 2694TIP3    H2 8047   4.705   3.987   1.733
 2695TIP3   OH2 8048   0.092   4.371   3.725
 2695TIP3    H1 8049   0.069   4.312   3.796
 2695TIP3    H2 8050   0.176   4.338   3.693
 2696TIP3   OH2 8051   4.843   2.210   0.767
 2696TIP3    H1 8052   4.923   2.208   0.820
 2696TIP3    H2 8053   4.868   2.259   0.689
 2697TIP3   OH2 8054   4.882   1.785   3.680
 2697TIP3    H1 8055   4.868   1.850   3.749
 2697TIP3    H2 8056   4.965   1.811   3.640
 2698TIP3   OH2 8057   2.813   4.494   1.547
 2698TIP3    H1 8058   2.829   4.565   1.610
 2698TIP3    H2 8059   2.878   4.510   1.477
 2699TIP3   OH2 8060   1.956   3.304   1.265
 2699TIP3    H1 8061   1.922   3.218   1.289
 2699TIP3    H2 8062   1.882   3.350   1.226
 2700TIP3   OH2 8063   3.516   2.251   5.642
 2700TIP3    H1 8064   3.580   2.249   5.571
 2700TIP3    H2 8065   3.444   2.196   5.610
 2701TIP3   OH2 8066   7.089   3.254   4.018
 2701TIP3    H1 8067   7.160   3.280   3.959
 2701TIP3    H2 8068   7.015   3.308   3.991
 2702TIP3   OH2 8069   0.245   3.076   3.333
 2702TIP3    H1 8070   0.213   3.103   3.419
 2702TIP3    H2 8071   0.165   3.053   3.284
 2703TIP3   OH2 8072   3.172   6.098   3.510
 2703TIP3    H1 8073   3.092   6.072   3.556
 2703TIP3    H2 8074   3.217   6.016   3.491
 2704TIP3   OH2 8075   1.427  -0.015   5.586
 2704TIP3    H1 8076   1.378   0.014   5.663
 2704TIP3    H2 8077   1.514  -0.035   5.620
 2705TIP3   OH2 8078   3.494   0.891   4.085
 2705TIP3    H1 8079   3.572   0.867   4.037
 2705TIP3    H2 8080   3.455   0.808   4.113
 2706TIP3   OH2 8081   1.896   1.069   5.741
 2706TIP3    H1 8082   1.802   1.091   5.737
 2706TIP3    H2 8083   1.909   1.032   5.828
 2707TIP3   OH2 8084   5.155   4.481   3.395
 2707TIP3    H1 8085   5.151   4.513   3.486
 2707TIP3    H2 8086   5.140   4.387   3.403
 2708TIP3   OH2 8087   1.555   4.046   3.867
 2708TIP3    H1 8088   1.615   3.983   3.828
 2708TIP3    H2 8089   1.581   4.050   3.959
 2709TIP3   OH2 8090   5.522   5.311   1.741
 2709TIP3    H1 8091   5.432   5.314   1.708
 2709TIP3    H2 8092   5.565   5.244   1.688
 2710TIP3   OH2 8093   6.707   3.785   4.199
 2710TIP3    H1 8094   6.775   3.851   4.215
 2710TIP3    H2 8095   6.749   3.720   4.143
 2711TIP3   OH2 8096   3.412   0.557   5.200
 2711TIP3    H1 8097   3.356   0.600   5.136
 2711TIP3    H2 8098   3.358   0.550   5.279
 2712TIP3   OH2 8099   3.723   0.378   3.249
 2712TIP3    H1 8100   3.679   0.430   3.181
 2712TIP3    H2 8101   3.733   0.439   3.322
 2713TIP3   OH2 8102   3.283   6.001   5.827
 2713TIP3    H1 8103   3.336   5.962   5.897
 2713TIP3    H2 8104   3.243   6.079   5.867
 2714TIP3   OH2 8105   4.876   1.891   4.038
 2714TIP3    H1 8106   4.822   1.943   3.978
 2714TIP3    H2 8107   4.813   1.854   4.101
 2715TIP3   OH2 8108   3.287   2.156   1.372
 2715TIP3    H1 8109   3.228   2.148   1.297
 2715TIP3    H2 8110   3.375   2.152   1.334
 2716TIP3   OH2 8111   5.028   3.262   4.439
 2716TIP3    H1 8112   5.025   3.350   4.404
 2716TIP3    H2 8113   5.055   3.207   4.366
 2717TIP3   OH2 8114   1.867   5.403   5.312
 2717TIP3    H1 8115   1.856   5.346   5.388
 2717TIP3    H2 8116   1.853   5.345   5.237
 2718TIP3   OH2 8117  -0.041   0.106   1.471
 2718TIP3    H1 8118   0.016   0.166   1.423
 2718TIP3    H2 8119  -0.018   0.120   1.563
 2719TIP3   OH2 8120   3.870   5.370   2.500
 2719TIP3    H1 8121   3.819   5.333   2.572
 2719TIP3    H2 8122   3.877   5.299   2.436
 2720TIP3   OH2 8123   7.054   0.254   1.042
 2720TIP3    H1 8124   7.021   0.166   1.056
 2720TIP3    H2 8125   7.025   0.278   0.954
 2721TIP3   OH2 8126   4.525   5.636   2.636
 2721TIP3    H1 8127   4.433   5.642   2.613
 2721TIP3    H2 8128   4.571   5.661   2.556
 2722TIP3   OH2 8129   1.805   4.114   4.363
 2722TIP3    H1 8130   1.803   4.032   4.413
 2722TIP3    H2 8131   1.714   4.145   4.364
 2723TIP3   OH2 8132   3.869   4.527   0.775
 2723TIP3    H1 8133   3.915   4.593   0.723
 2723TIP3    H2 8134   3.870   4.449   0.721
 2724TIP3   OH2 8135   0.794   2.860   0.074
 2724TIP3    H1 8136   0.799   2.944   0.029
 2724TIP3    H2 8137   0.790   2.883   0.167
 2725TIP3   OH2 8138   0.740   1.368   4.086
 2725TIP3    H1 8139   0.813   1.426   4.067
 2725TIP3    H2 8140   0.755   1.292   4.029
 2726TIP3   OH2 8141   2.350   1.881   5.476
 2726TIP3    H1 8142   2.256   1.863   5.463
 2726TIP3    H2 8143   2.372   1.837   5.558
 2727TIP3   OH2 8144   1.619   6.658   2.066
 2727TIP3    H1 8145   1.627   6.740   2.115
 2727TIP3    H2 8146   1.685   6.600   2.105
 2728TIP3   OH2 8147   1.151   5.556   2.042
 2728TIP3    H1 8148   1.059   5.578   2.033
 2728TIP3    H2 8149   1.152   5.478   2.097
 2729TIP3   OH2 8150   1.115   3.947   3.330
 2729TIP3    H1 8151   1.125   4.035   3.294
 2729TIP3    H2 8152   1.073   3.897   3.260
 2730TIP3   OH2 8153   6.056   1.338   3.502
 2730TIP3    H1 8154   6.123   1.297   3.556
 2730TIP3    H2 8155   6.051   1.428   3.533
 2731TIP3   OH2 8156   3.241   3.741   0.321
 2731TIP3    H1 8157   3.248   3.652   0.356
 2731TIP3    H2 8158   3.148   3.754   0.308
 2732TIP3   OH2 8159   5.692   1.661   5.225
 2732TIP3    H1 8160   5.620   1.657   5.162
 2732TIP3    H2 8161   5.765   1.617   5.181
 2733TIP3   OH2 8162   5.323   1.886   3.321
 2733TIP3    H1 8163   5.396   1.842   3.277
 2733TIP3    H2 8164   5.343   1.879   3.414
 2734TIP3   OH2 8165   3.648   1.395   1.486
 2734TIP3    H1 8166   3.697   1.322   1.525
 2734TIP3    H2 8167   3.577   1.412   1.547
 2735TIP3   OH2 8168   3.127   0.541   3.331
 2735TIP3    H1 8169   3.169   0.510   3.250
 2735TIP3    H2 8170   3.161   0.483   3.399
 2736TIP3   OH2 8171   3.151   4.913   0.160
 2736TIP3    H1 8172   3.167   4.938   0.251
 2736TIP3    H2 8173   3.108   4.989   0.122
 2737TIP3   OH2 8174   2.672   0.224   2.894
 2737TIP3    H1 8175   2.745   0.180   2.938
 2737TIP3    H2 8176   2.669   0.185   2.807
 2738TIP3   OH2 8177   2.026   4.999   5.449
 2738TIP3    H1 8178   2.057   5.090   5.455
 2738TIP3    H2 8179   2.021   4.982   5.355
 2739TIP3   OH2 8180   2.077   0.815   1.525
 2739TIP3    H1 8181   2.067   0.889   1.585
 2739TIP3    H2 8182   2.122   0.748   1.576
 2740TIP3   OH2 8183   3.139   0.505   4.203
 2740TIP3    H1 8184   3.102   0.443   4.140
 2740TIP3    H2 8185   3.077   0.505   4.276
 2741TIP3   OH2 8186   2.305   3.278   2.475
 2741TIP3    H1 8187   2.350   3.363   2.481
 2741TIP3    H2 8188   2.232   3.294   2.416
 2742TIP3   OH2 8189   3.082   3.677   1.957
 2742TIP3    H1 8190   3.143   3.731   2.008
 2742TIP3    H2 8191   3.031   3.630   2.023
 2743TIP3   OH2 8192   6.150   3.198   2.211
 2743TIP3    H1 8193   6.224   3.252   2.185
 2743TIP3    H2 8194   6.073   3.249   2.186
 2744TIP3   OH2 8195   4.951   5.393   0.064
 2744TIP3    H1 8196   4.977   5.304   0.088
 2744TIP3    H2 8197   4.969   5.445   0.142
 2745TIP3   OH2 8198   5.157   0.206   3.156
 2745TIP3    H1 8199   5.114   0.215   3.241
 2745TIP3    H2 8200   5.205   0.287   3.145
 2746TIP3   OH2 8201   6.097   4.080   1.782
 2746TIP3    H1 8202   6.160   4.031   1.731
 2746TIP3    H2 8203   6.123   4.066   1.873
 2747TIP3   OH2 8204   1.660   3.599   4.171
 2747TIP3    H1 8205   1.674   3.590   4.077
 2747TIP3    H2 8206   1.654   3.693   4.186
 2748TIP3   OH2 8207   4.338   4.706   5.421
 2748TIP3    H1 8208   4.301   4.769   5.360
 2748TIP3    H2 8209   4.321   4.621   5.380
 2749TIP3   OH2 8210   0.087   2.845   3.576
 2749TIP3    H1 8211   0.050   2.900   3.646
 2749TIP3    H2 8212   0.020   2.847   3.508
 2750TIP3   OH2 8213   7.028   5.333   1.060
 2750TIP3    H1 8214   7.015   5.328   0.965
 2750TIP3    H2 8215   7.053   5.425   1.075
 2751TIP3   OH2 8216   2.089   5.949   2.434
 2751TIP3    H1 8217   2.139   5.873   2.404
 2751TIP3    H2 8218   2.120   5.964   2.524
 2752TIP3   OH2 8219   5.709   6.307   1.347
 2752TIP3    H1 8220   5.798   6.340   1.345
 2752TIP3    H2 8221   5.658   6.373   1.299
 2753TIP3   OH2 8222   4.737   2.472   1.520
 2753TIP3    H1 8223   4.681   2.419   1.464
 2753TIP3    H2 8224   4.784   2.408   1.574
 2754TIP3   OH2 8225   6.380   6.503   5.486
 2754TIP3    H1 8226   6.465   6.515   5.528
 2754TIP3    H2 8227   6.350   6.592   5.467
 2755TIP3   OH2 8228   3.044   0.146   0.809
 2755TIP3    H1 8229   3.078   0.090   0.740
 2755TIP3    H2 8230   3.029   0.088   0.883
 2756TIP3   OH2 8231   5.528   3.751   4.541
 2756TIP3    H1 8232   5.521   3.697   4.462
 2756TIP3    H2 8233   5.621   3.746   4.565
 2757TIP3   OH2 8234   0.218   2.230   0.303
 2757TIP3    H1 8235   0.234   2.146   0.347
 2757TIP3    H2 8236   0.305   2.268   0.292
 2758TIP3   OH2 8237   2.262   1.471   3.912
 2758TIP3    H1 8238   2.190   1.415   3.883
 2758TIP3    H2 8239   2.341   1.418   3.897
 2759TIP3   OH2 8240   2.407   2.435   1.924
 2759TIP3    H1 8241   2.492   2.400   1.950
 2759TIP3    H2 8242   2.360   2.360   1.887
 2760TIP3   OH2 8243   4.239   2.625   1.218
 2760TIP3    H1 8244   4.325   2.640   1.178
 2760TIP3    H2 8245   4.253   2.555   1.281
 2761TIP3   OH2 8246   2.426   1.230   1.950
 2761TIP3    H1 8247   2.418   1.281   2.031
 2761TIP3    H2 8248   2.501   1.172   1.965
 2762TIP3   OH2 8249   5.386   5.007   0.513
 2762TIP3    H1 8250   5.363   5.053   0.432
 2762TIP3    H2 8251   5.457   4.948   0.488
 2763TIP3   OH2 8252   2.705   5.137   2.115
 2763TIP3    H1 8253   2.612   5.134   2.094
 2763TIP3    H2 8254   2.749   5.143   2.030
 2764TIP3   OH2 8255   5.056   5.172   4.843
 2764TIP3    H1 8256   5.077   5.232   4.771
 2764TIP3    H2 8257   4.986   5.117   4.809
 2765TIP3   OH2 8258   1.675   5.651   0.189
 2765TIP3    H1 8259   1.683   5.656   0.094
 2765TIP3    H2 8260   1.764   5.631   0.219
 2766TIP3   OH2 8261   3.778   0.162   5.441
 2766TIP3    H1 8262   3.732   0.215   5.375
 2766TIP3    H2 8263   3.826   0.096   5.389
 2767TIP3   OH2 8264   1.306   1.379   5.216
 2767TIP3    H1 8265   1.346   1.463   5.197
 2767TIP3    H2 8266   1.308   1.331   5.133
 2768TIP3   OH2 8267   2.640   1.614   2.761
 2768TIP3    H1 8268   2.664   1.604   2.853
 2768TIP3    H2 8269   2.599   1.530   2.738
 2769TIP3   OH2 8270   2.017   0.374   3.814
 2769TIP3    H1 8271   1.999   0.310   3.882
 2769TIP3    H2 8272   2.091   0.338   3.765
 2770TIP3   OH2 8273   0.606   3.324   1.360
 2770TIP3    H1 8274   0.615   3.351   1.452
 2770TIP3    H2 8275   0.647   3.237   1.358
 2771TIP3   OH2 8276   1.282   0.004   2.708
 2771TIP3    H1 8277   1.292   0.022   2.801
 2771TIP3    H2 8278   1.318  -0.084   2.696
 2772TIP3   OH2 8279   0.237   3.242   1.403
 2772TIP3    H1 8280   0.277   3.222   1.319
 2772TIP3    H2 8281   0.272   3.328   1.426
 2773TIP3   OH2 8282   2.464   3.740   3.815
 2773TIP3    H1 8283   2.548   3.705   3.844
 2773TIP3    H2 8284   2.409   3.663   3.802
 2774TIP3   OH2 8285   4.658   1.965   2.047
 2774TIP3    H1 8286   4.690   2.056   2.051
 2774TIP3    H2 8287   4.595   1.959   2.118
 2775TIP3   OH2 8288   2.486   2.172   3.418
 2775TIP3    H1 8289   2.563   2.126   3.450
 2775TIP3    H2 8290   2.420   2.103   3.405
 2776TIP3   OH2 8291   5.853   0.983   3.421
 2776TIP3    H1 8292   5.843   1.066   3.374
 2776TIP3    H2 8293   5.932   0.995   3.474
 2777TIP3   OH2 8294   1.743   0.555   5.625
 2777TIP3    H1 8295   1.720   0.475   5.578
 2777TIP3    H2 8296   1.659   0.588   5.658
 2778TIP3   OH2 8297   6.346   1.685   3.072
 2778TIP3    H1 8298   6.339   1.612   3.010
 2778TIP3    H2 8299   6.257   1.719   3.079
 2779TIP3   OH2 8300   1.478   5.575   3.242
 2779TIP3    H1 8301   1.411   5.529   3.192
 2779TIP3    H2 8302   1.546   5.594   3.177
 2780TIP3   OH2 8303   5.317   6.028   3.008
 2780TIP3    H1 8304   5.354   5.954   3.055
 2780TIP3    H2 8305   5.299   5.994   2.920
 2781TIP3   OH2 8306   2.773   4.842   2.116
 2781TIP3    H1 8307   2.774   4.910   2.183
 2781TIP3    H2 8308   2.795   4.888   2.035
 2782TIP3   OH2 8309   3.291   1.511   3.718
 2782TIP3    H1 8310   3.324   1.444   3.778
 2782TIP3    H2 8311   3.368   1.538   3.668
 2783TIP3   OH2 8312   6.688   4.997   0.453
 2783TIP3    H1 8313   6.725   4.983   0.366
 2783TIP3    H2 8314   6.675   4.909   0.487
 2784TIP3   OH2 8315   2.397   3.106   4.978
 2784TIP3    H1 8316   2.465   3.088   4.913
 2784TIP3    H2 8317   2.346   3.178   4.941
 2785TIP3   OH2 8318   3.311   6.171   4.332
 2785TIP3    H1 8319   3.346   6.237   4.273
 2785TIP3    H2 8320   3.384   6.147   4.389
 2786TIP3   OH2 8321   0.468   4.091   1.538
 2786TIP3    H1 8322   0.397   4.028   1.527
 2786TIP3    H2 8323   0.548   4.039   1.534
 2787TIP3   OH2 8324   1.746   1.107   3.676
 2787TIP3    H1 8325   1.837   1.123   3.650
 2787TIP3    H2 8326   1.751   1.084   3.768
 2788TIP3   OH2 8327   1.359   4.616   4.045
 2788TIP3    H1 8328   1.368   4.522   4.031
 2788TIP3    H2 8329   1.273   4.637   4.009
 2789TIP3   OH2 8330   3.521   4.689   0.146
 2789TIP3    H1 8331   3.509   4.731   0.061
 2789TIP3    H2 8332   3.607   4.720   0.176
 2790TIP3   OH2 8333   4.185   5.903   3.126
 2790TIP3    H1 8334   4.153   5.961   3.057
 2790TIP3    H2 8335   4.252   5.849   3.083
 2791TIP3   OH2 8336   4.415   4.868   5.608
 2791TIP3    H1 8337   4.454   4.847   5.693
 2791TIP3    H2 8338   4.374   4.786   5.580
 2792TIP3   OH2 8339   7.073   5.009   4.074
 2792TIP3    H1 8340   7.030   4.927   4.096
 2792TIP3    H2 8341   7.167   4.990   4.084
 2793TIP3   OH2 8342   5.769   0.105   3.176
 2793TIP3    H1 8343   5.696   0.143   3.127
 2793TIP3    H2 8344   5.841   0.099   3.112
 2794TIP3   OH2 8345   5.925   3.615   1.388
 2794TIP3    H1 8346   5.934   3.585   1.297
 2794TIP3    H2 8347   5.903   3.536   1.437
 2795TIP3   OH2 8348   1.832   1.983   5.321
 2795TIP3    H1 8349   1.923   1.979   5.293
 2795TIP3    H2 8350   1.789   2.037   5.255
 2796TIP3   OH2 8351   3.880   4.664   1.306
 2796TIP3    H1 8352   3.971   4.646   1.280
 2796TIP3    H2 8353   3.837   4.692   1.226
 2797TIP3   OH2 8354   4.016   0.071   2.251
 2797TIP3    H1 8355   4.029   0.120   2.332
 2797TIP3    H2 8356   3.927   0.094   2.224
 2798TIP3   OH2 8357   7.040   3.570   3.160
 2798TIP3    H1 8358   7.048   3.479   3.131
 2798TIP3    H2 8359   6.952   3.596   3.133
 2799TIP3   OH2 8360   2.659   1.312   4.722
 2799TIP3    H1 8361   2.744   1.273   4.742
 2799TIP3    H2 8362   2.612   1.244   4.674
 2800TIP3   OH2 8363   4.317   2.019   5.114
 2800TIP3    H1 8364   4.380   1.949   5.131
 2800TIP3    H2 8365   4.255   2.015   5.187
 2801TIP3   OH2 8366   0.573   0.445   0.014
 2801TIP3    H1 8367   0.551   0.379   0.080
 2801TIP3    H2 8368   0.494   0.498   0.006
 2802TIP3   OH2 8369   3.935   5.750   3.363
 2802TIP3    H1 8370   3.997   5.692   3.320
 2802TIP3    H2 8371   3.923   5.712   3.450
 2803TIP3   OH2 8372   2.840   1.302   2.876
 2803TIP3    H1 8373   2.901   1.322   2.947
 2803TIP3    H2 8374   2.831   1.384   2.828
 2804TIP3   OH2 8375   0.416   1.582   3.399
 2804TIP3    H1 8376   0.498   1.620   3.368
 2804TIP3    H2 8377   0.401   1.622   3.485
 2805TIP3   OH2 8378   6.279   1.359   3.957
 2805TIP3    H1 8379   6.342   1.296   3.992
 2805TIP3    H2 8380   6.315   1.444   3.980
 2806TIP3   OH2 8381   2.867   5.895   1.845
 2806TIP3    H1 8382   2.823   5.860   1.767
 2806TIP3    H2 8383   2.956   5.860   1.841
 2807TIP3   OH2 8384   6.095   4.818   2.764
 2807TIP3    H1 8385   6.136   4.868   2.834
 2807TIP3    H2 8386   6.164   4.759   2.732
 2808TIP3   OH2 8387   3.949   0.796   4.158
 2808TIP3    H1 8388   4.044   0.811   4.152
 2808TIP3    H2 8389   3.941   0.715   4.208
 2809TIP3   OH2 8390   5.397   2.041   4.937
 2809TIP3    H1 8391   5.435   1.982   5.001
 2809TIP3    H2 8392   5.354   2.109   4.989
 2810TIP3   OH2 8393   5.958   4.007   5.045
 2810TIP3    H1 8394   6.037   3.986   4.996
 2810TIP3    H2 8395   5.978   3.982   5.135
 2811TIP3   OH2 8396   5.034   0.202   0.855
 2811TIP3    H1 8397   4.954   0.244   0.825
 2811TIP3    H2 8398   5.100   0.229   0.791
 2812TIP3   OH2 8399   4.424   4.229   5.732
 2812TIP3    H1 8400   4.469   4.145   5.732
 2812TIP3    H2 8401   4.425   4.258   5.823
 2813TIP3   OH2 8402   3.255   0.950   1.065
 2813TIP3    H1 8403   3.212   0.981   1.145
 2813TIP3    H2 8404   3.183   0.933   1.004
 2814TIP3   OH2 8405   0.723   0.542   0.300
 2814TIP3    H1 8406   0.755   0.467   0.351
 2814TIP3    H2 8407   0.786   0.550   0.228
 2815TIP3   OH2 8408   1.762   1.655   2.190
 2815TIP3    H1 8409   1.706   1.577   2.189
 2815TIP3    H2 8410   1.726   1.711   2.258
 2816TIP3   OH2 8411   3.191   3.666   3.742
 2816TIP3    H1 8412   3.199   3.755   3.708
 2816TIP3    H2 8413   3.100   3.659   3.772
 2817TIP3   OH2 8414   1.508   3.672   2.179
 2817TIP3    H1 8415   1.498   3.764   2.203
 2817TIP3    H2 8416   1.438   3.627   2.226
 2818TIP3   OH2 8417   2.929   5.402   5.709
 2818TIP3    H1 8418   2.850   5.354   5.685
 2818TIP3    H2 8419   3.000   5.351   5.669
 2819TIP3   OH2 8420   6.893   4.619   4.690
 2819TIP3    H1 8421   6.806   4.585   4.710
 2819TIP3    H2 8422   6.953   4.551   4.719
 2820TIP3   OH2 8423   1.635   0.536   2.869
 2820TIP3    H1 8424   1.577   0.597   2.914
 2820TIP3    H2 8425   1.664   0.475   2.937
 2821TIP3   OH2 8426   1.454   4.758   5.758
 2821TIP3    H1 8427   1.417   4.740   5.845
 2821TIP3    H2 8428   1.502   4.679   5.736
 2822TIP3   OH2 8429   3.859   5.375   3.072
 2822TIP3    H1 8430   3.850   5.280   3.082
 2822TIP3    H2 8431   3.795   5.412   3.133
 2823TIP3   OH2 8432   2.893   6.061   4.405
 2823TIP3    H1 8433   2.974   6.014   4.383
 2823TIP3    H2 8434   2.823   6.002   4.376
 2824TIP3   OH2 8435   2.444   5.032   2.948
 2824TIP3    H1 8436   2.456   5.111   3.001
 2824TIP3    H2 8437   2.371   4.986   2.991
 2825TIP3   OH2 8438   4.882   5.341   2.131
 2825TIP3    H1 8439   4.813   5.321   2.195
 2825TIP3    H2 8440   4.927   5.417   2.167
 2826TIP3   OH2 8441   4.817   0.211   4.441
 2826TIP3    H1 8442   4.780   0.289   4.483
 2826TIP3    H2 8443   4.740   0.157   4.422
 2827TIP3   OH2 8444   3.272   3.528   0.839
 2827TIP3    H1 8445   3.271   3.484   0.754
 2827TIP3    H2 8446   3.180   3.528   0.866
 2828TIP3   OH2 8447   0.770   3.515   2.884
 2828TIP3    H1 8448   0.812   3.480   2.806
 2828TIP3    H2 8449   0.842   3.541   2.941
 2829TIP3   OH2 8450   3.121   6.016   0.226
 2829TIP3    H1 8451   3.209   6.011   0.264
 2829TIP3    H2 8452   3.130   6.080   0.156
 2830TIP3   OH2 8453   2.383   0.522   4.864
 2830TIP3    H1 8454   2.388   0.480   4.778
 2830TIP3    H2 8455   2.341   0.457   4.920
 2831TIP3   OH2 8456   6.231   0.926   5.447
 2831TIP3    H1 8457   6.305   0.982   5.467
 2831TIP3    H2 8458   6.241   0.851   5.506
 2832TIP3   OH2 8459   1.372   3.488   3.875
 2832TIP3    H1 8460   1.289   3.443   3.888
 2832TIP3    H2 8461   1.349   3.581   3.879
 2833TIP3   OH2 8462   0.414   0.868   1.328
 2833TIP3    H1 8463   0.323   0.878   1.358
 2833TIP3    H2 8464   0.409   0.797   1.263
 2834TIP3   OH2 8465   1.719   5.234   2.581
 2834TIP3    H1 8466   1.725   5.315   2.530
 2834TIP3    H2 8467   1.633   5.238   2.623
 2835TIP3   OH2 8468   7.143   1.543   1.815
 2835TIP3    H1 8469   7.101   1.467   1.775
 2835TIP3    H2 8470   7.236   1.522   1.815
 2836TIP3   OH2 8471   0.699   1.563   4.729
 2836TIP3    H1 8472   0.782   1.606   4.706
 2836TIP3    H2 8473   0.644   1.634   4.763
 2837TIP3   OH2 8474   3.311   5.161   2.308
 2837TIP3    H1 8475   3.307   5.094   2.240
 2837TIP3    H2 8476   3.242   5.138   2.370
 2838TIP3   OH2 8477   0.103   4.950   4.991
 2838TIP3    H1 8478   0.164   4.973   4.921
 2838TIP3    H2 8479   0.153   4.967   5.072
 2839TIP3   OH2 8480   3.960   5.054   1.880
 2839TIP3    H1 8481   3.919   5.064   1.966
 2839TIP3    H2 8482   4.048   5.089   1.892
 2840TIP3   OH2 8483   5.388   2.232   3.568
 2840TIP3    H1 8484   5.428   2.296   3.627
 2840TIP3    H2 8485   5.389   2.275   3.482
 2841TIP3   OH2 8486   4.577   2.169   4.201
 2841TIP3    H1 8487   4.538   2.093   4.158
 2841TIP3    H2 8488   4.503   2.228   4.216
 2842TIP3   OH2 8489   5.541   3.112   4.418
 2842TIP3    H1 8490   5.622   3.098   4.368
 2842TIP3    H2 8491   5.570   3.155   4.498
 2843TIP3   OH2 8492   2.207   2.475   1.506
 2843TIP3    H1 8493   2.134   2.451   1.563
 2843TIP3    H2 8494   2.245   2.392   1.478
 2844TIP3   OH2 8495   1.040   4.832   5.747
 2844TIP3    H1 8496   1.071   4.778   5.674
 2844TIP3    H2 8497   0.980   4.894   5.707
 2845TIP3   OH2 8498   4.384   4.945   3.287
 2845TIP3    H1 8499   4.474   4.959   3.260
 2845TIP3    H2 8500   4.364   4.855   3.261
 2846TIP3   OH2 8501   2.002   2.611   3.483
 2846TIP3    H1 8502   1.974   2.528   3.443
 2846TIP3    H2 8503   2.081   2.635   3.436
 2847TIP3   OH2 8504   3.074   2.682   3.846
 2847TIP3    H1 8505   3.048   2.774   3.836
 2847TIP3    H2 8506   3.003   2.643   3.897
 2848TIP3   OH2 8507   0.739   2.655   4.836
 2848TIP3    H1 8508   0.653   2.622   4.811
 2848TIP3    H2 8509   0.799   2.618   4.771
 2849TIP3   OH2 8510   2.132   3.356   4.769
 2849TIP3    H1 8511   2.170   3.278   4.730
 2849TIP3    H2 8512   2.205   3.401   4.810
 2850TIP3   OH2 8513   1.215   3.110   3.657
 2850TIP3    H1 8514   1.190   3.051   3.728
 2850TIP3    H2 8515   1.309   3.124   3.670
 2851TIP3   OH2 8516   5.161   0.957   0.160
 2851TIP3    H1 8517   5.134   0.995   0.243
 2851TIP3    H2 8518   5.194   0.870   0.182
 2852TIP3   OH2 8519   2.126   4.371   0.803
 2852TIP3    H1 8520   2.044   4.417   0.786
 2852TIP3    H2 8521   2.165   4.418   0.877
 2853TIP3   OH2 8522   1.545   0.020   0.773
 2853TIP3    H1 8523   1.472   0.051   0.719
 2853TIP3    H2 8524   1.544   0.077   0.850
 2854TIP3   OH2 8525   5.871   0.740   5.284
 2854TIP3    H1 8526   5.917   0.824   5.289
 2854TIP3    H2 8527   5.885   0.700   5.370
 2855TIP3   OH2 8528   5.245   5.542   3.401
 2855TIP3    H1 8529   5.337   5.522   3.387
 2855TIP3    H2 8530   5.197   5.482   3.343
 2856TIP3   OH2 8531   0.611   0.665   5.288
 2856TIP3    H1 8532   0.692   0.621   5.263
 2856TIP3    H2 8533   0.568   0.604   5.348
 2857TIP3   OH2 8534   1.485   0.648   3.067
 2857TIP3    H1 8535   1.470   0.680   3.156
 2857TIP3    H2 8536   1.452   0.559   3.067
 2858TIP3   OH2 8537   1.985   3.928   4.477
 2858TIP3    H1 8538   1.993   4.023   4.491
 2858TIP3    H2 8539   1.968   3.893   4.564
 2859TIP3   OH2 8540   0.691   2.143   1.887
 2859TIP3    H1 8541   0.734   2.066   1.923
 2859TIP3    H2 8542   0.762   2.197   1.853
 2860TIP3   OH2 8543   4.941   0.529   1.135
 2860TIP3    H1 8544   4.876   0.459   1.129
 2860TIP3    H2 8545   4.912   0.583   1.209
 2861TIP3   OH2 8546   2.474   6.211   2.339
 2861TIP3    H1 8547   2.463   6.304   2.319
 2861TIP3    H2 8548   2.442   6.166   2.261
 2862TIP3   OH2 8549   2.826   2.896   4.022
 2862TIP3    H1 8550   2.852   2.893   3.929
 2862TIP3    H2 8551   2.762   2.826   4.030
 2863TIP3   OH2 8552   2.343   1.239   4.899
 2863TIP3    H1 8553   2.310   1.323   4.865
 2863TIP3    H2 8554   2.384   1.262   4.982
 2864TIP3   OH2 8555   1.795   3.345   3.675
 2864TIP3    H1 8556   1.820   3.319   3.764
 2864TIP3    H2 8557   1.801   3.263   3.624
 2865TIP3   OH2 8558   2.452   6.450   1.778
 2865TIP3    H1 8559   2.443   6.426   1.685
 2865TIP3    H2 8560   2.368   6.489   1.800
 2866TIP3   OH2 8561   0.660   5.997   0.196
 2866TIP3    H1 8562   0.575   6.038   0.211
 2866TIP3    H2 8563   0.657   5.917   0.248
 2867TIP3   OH2 8564   1.980   4.418   2.758
 2867TIP3    H1 8565   1.893   4.398   2.792
 2867TIP3    H2 8566   2.027   4.457   2.832
 2868TIP3   OH2 8567   5.315   5.276   2.089
 2868TIP3    H1 8568   5.266   5.206   2.046
 2868TIP3    H2 8569   5.283   5.356   2.047
 2869TIP3   OH2 8570   3.968   6.642   2.058
 2869TIP3    H1 8571   4.035   6.702   2.024
 2869TIP3    H2 8572   3.894   6.699   2.078
 2870TIP3   OH2 8573   0.262   2.531   1.198
 2870TIP3    H1 8574   0.336   2.473   1.217
 2870TIP3    H2 8575   0.185   2.476   1.210
 2871TIP3   OH2 8576   5.947   3.778   3.208
 2871TIP3    H1 8577   5.876   3.839   3.229
 2871TIP3    H2 8578   5.978   3.806   3.122
 2872TIP3   OH2 8579   1.150   2.694   5.463
 2872TIP3    H1 8580   1.178   2.718   5.374
 2872TIP3    H2 8581   1.079   2.755   5.483
 2873TIP3   OH2 8582   3.626   6.231   3.755
 2873TIP3    H1 8583   3.614   6.325   3.767
 2873TIP3    H2 8584   3.697   6.207   3.815
 2874TIP3   OH2 8585   1.957   1.277   3.609
 2874TIP3    H1 8586   2.013   1.264   3.685
 2874TIP3    H2 8587   1.887   1.334   3.640
 2875TIP3   OH2 8588   1.328   0.601   0.195
 2875TIP3    H1 8589   1.413   0.558   0.187
 2875TIP3    H2 8590   1.307   0.594   0.288
 2876TIP3   OH2 8591   3.424   5.164   0.326
 2876TIP3    H1 8592   3.398   5.089   0.273
 2876TIP3    H2 8593   3.434   5.128   0.414
 2877TIP3   OH2 8594   0.858   0.044   2.708
 2877TIP3    H1 8595   0.935   0.025   2.654
 2877TIP3    H2 8596   0.889   0.034   2.798
 2878TIP3   OH2 8597   3.218   4.417   3.262
 2878TIP3    H1 8598   3.129   4.392   3.237
 2878TIP3    H2 8599   3.246   4.476   3.193
 2879TIP3   OH2 8600   0.086   6.780   4.890
 2879TIP3    H1 8601   0.171   6.823   4.888
 2879TIP3    H2 8602   0.037   6.825   4.959
 2880TIP3   OH2 8603   4.573   4.168   4.961
 2880TIP3    H1 8604   4.572   4.113   5.039
 2880TIP3    H2 8605   4.657   4.150   4.919
 2881TIP3   OH2 8606   4.087   5.148   4.475
 2881TIP3    H1 8607   4.112   5.107   4.392
 2881TIP3    H2 8608   4.032   5.082   4.519
 2882TIP3   OH2 8609   6.719   2.883   5.018
 2882TIP3    H1 8610   6.669   2.875   4.936
 2882TIP3    H2 8611   6.717   2.795   5.056
 2883TIP3   OH2 8612   1.906   3.472   4.548
 2883TIP3    H1 8613   1.971   3.519   4.496
 2883TIP3    H2 8614   1.839   3.538   4.568
 2884TIP3   OH2 8615   2.157   4.381   1.464
 2884TIP3    H1 8616   2.180   4.398   1.373
 2884TIP3    H2 8617   2.200   4.451   1.513
 2885TIP3   OH2 8618   2.754   3.277   0.264
 2885TIP3    H1 8619   2.793   3.233   0.189
 2885TIP3    H2 8620   2.666   3.242   0.271
 2886TIP3   OH2 8621   5.730   0.053   4.585
 2886TIP3    H1 8622   5.637   0.073   4.596
 2886TIP3    H2 8623   5.746   0.065   4.491
 2887TIP3   OH2 8624   3.752   2.339   5.526
 2887TIP3    H1 8625   3.756   2.435   5.522
 2887TIP3    H2 8626   3.814   2.316   5.595
 2888TIP3   OH2 8627   3.540   0.905   4.664
 2888TIP3    H1 8628   3.497   0.978   4.708
 2888TIP3    H2 8629   3.468   0.853   4.628
 2889TIP3   OH2 8630   4.355   4.209   4.363
 2889TIP3    H1 8631   4.354   4.113   4.363
 2889TIP3    H2 8632   4.315   4.234   4.280
 2890TIP3   OH2 8633   7.108   6.127   2.979
 2890TIP3    H1 8634   7.120   6.202   3.037
 2890TIP3    H2 8635   7.016   6.132   2.953
 2891TIP3   OH2 8636   6.137   4.310   5.017
 2891TIP3    H1 8637   6.048   4.307   5.052
 2891TIP3    H2 8638   6.153   4.403   4.999
 2892TIP3   OH2 8639   3.973   1.573   1.138
 2892TIP3    H1 8640   3.916   1.537   1.069
 2892TIP3    H2 8641   3.931   1.654   1.165
 2893TIP3   OH2 8642   3.543   1.277   2.964
 2893TIP3    H1 8643   3.529   1.215   3.035
 2893TIP3    H2 8644   3.556   1.222   2.886
 2894TIP3   OH2 8645   6.095   3.295   3.048
 2894TIP3    H1 8646   6.144   3.213   3.056
 2894TIP3    H2 8647   6.065   3.296   2.957
 2895TIP3   OH2 8648   3.435   6.433   2.360
 2895TIP3    H1 8649   3.481   6.358   2.322
 2895TIP3    H2 8650   3.498   6.505   2.354
 2896TIP3   OH2 8651   0.604   6.580   0.397
 2896TIP3    H1 8652   0.672   6.610   0.336
 2896TIP3    H2 8653   0.593   6.488   0.377
 2897TIP3   OH2 8654   6.401   5.941   5.741
 2897TIP3    H1 8655   6.401   5.957   5.835
 2897TIP3    H2 8656   6.482   5.981   5.710
 2898TIP3   OH2 8657   6.208   3.042   3.415
 2898TIP3    H1 8658   6.301   3.056   3.398
 2898TIP3    H2 8659   6.179   2.984   3.345
 2899TIP3   OH2 8660   3.110   3.266   1.392
 2899TIP3    H1 8661   3.058   3.341   1.362
 2899TIP3    H2 8662   3.185   3.263   1.332
 2900TIP3   OH2 8663   1.842   4.614   4.908
 2900TIP3    H1 8664   1.826   4.524   4.880
 2900TIP3    H2 8665   1.935   4.629   4.889
 2901TIP3   OH2 8666   5.131   6.069   2.582
 2901TIP3    H1 8667   5.044   6.059   2.543
 2901TIP3    H2 8668   5.115   6.109   2.668
 2902TIP3   OH2 8669   3.381   2.736   0.044
 2902TIP3    H1 8670   3.472   2.729   0.074
 2902TIP3    H2 8671   3.329   2.715   0.122
 2903TIP3   OH2 8672   6.212   3.974   3.820
 2903TIP3    H1 8673   6.305   3.957   3.812
 2903TIP3    H2 8674   6.196   4.050   3.764
 2904TIP3   OH2 8675   4.008   1.169   2.106
 2904TIP3    H1 8676   4.027   1.243   2.165
 2904TIP3    H2 8677   4.029   1.091   2.157
 2905TIP3   OH2 8678   4.702   0.896   4.228
 2905TIP3    H1 8679   4.785   0.855   4.251
 2905TIP3    H2 8680   4.668   0.929   4.311
 2906TIP3   OH2 8681   1.675   0.190   2.954
 2906TIP3    H1 8682   1.691   0.238   2.873
 2906TIP3    H2 8683   1.652   0.257   3.018
 2907TIP3   OH2 8684   7.116   4.043   1.381
 2907TIP3    H1 8685   7.097   4.032   1.288
 2907TIP3    H2 8686   7.132   3.955   1.413
 2908TIP3   OH2 8687   2.168   5.004   3.541
 2908TIP3    H1 8688   2.125   4.941   3.483
 2908TIP3    H2 8689   2.153   4.969   3.629
 2909TIP3   OH2 8690   0.022   3.702   3.010
 2909TIP3    H1 8691  -0.044   3.688   3.078
 2909TIP3    H2 8692   0.105   3.710   3.057
 2910TIP3   OH2 8693   5.680   4.586   5.301
 2910TIP3    H1 8694   5.706   4.631   5.381
 2910TIP3    H2 8695   5.607   4.531   5.327
 2911TIP3   OH2 8696   2.402   1.512   3.102
 2911TIP3    H1 8697   2.466   1.549   3.042
 2911TIP3    H2 8698   2.409   1.418   3.090
 2912TIP3   OH2 8699   0.865   4.697   5.141
 2912TIP3    H1 8700   0.789   4.639   5.141
 2912TIP3    H2 8701   0.829   4.785   5.135
 2913TIP3   OH2 8702   3.708   6.404   5.145
 2913TIP3    H1 8703   3.715   6.495   5.174
 2913TIP3    H2 8704   3.797   6.381   5.117
 2914TIP3   OH2 8705   2.095   6.206   2.835
 2914TIP3    H1 8706   2.134   6.122   2.814
 2914TIP3    H2 8707   2.167   6.269   2.830
 2915TIP3   OH2 8708   0.438   3.149   4.282
 2915TIP3    H1 8709   0.479   3.186   4.360
 2915TIP3    H2 8710   0.494   3.177   4.210
 2916TIP3   OH2 8711   0.445   2.439   2.778
 2916TIP3    H1 8712   0.508   2.491   2.729
 2916TIP3    H2 8713   0.367   2.495   2.784
 2917TIP3   OH2 8714   5.131   5.340   4.613
 2917TIP3    H1 8715   5.116   5.376   4.525
 2917TIP3    H2 8716   5.226   5.330   4.620
 2918TIP3   OH2 8717   5.372   0.671   0.627
 2918TIP3    H1 8718   5.311   0.623   0.572
 2918TIP3    H2 8719   5.431   0.604   0.662
 2919TIP3   OH2 8720   3.322   3.988   1.297
 2919TIP3    H1 8721   3.387   3.938   1.249
 2919TIP3    H2 8722   3.247   3.929   1.306
 2920TIP3   OH2 8723   2.269   1.105   3.093
 2920TIP3    H1 8724   2.231   1.161   3.160
 2920TIP3    H2 8725   2.295   1.025   3.139
 2921TIP3   OH2 8726   1.312   0.537   4.766
 2921TIP3    H1 8727   1.303   0.447   4.798
 2921TIP3    H2 8728   1.347   0.526   4.677
 2922TIP3   OH2 8729   5.001   1.657   0.522
 2922TIP3    H1 8730   5.010   1.565   0.497
 2922TIP3    H2 8731   5.086   1.681   0.558
 2923TIP3   OH2 8732   2.841   2.140   2.082
 2923TIP3    H1 8733   2.879   2.106   2.163
 2923TIP3    H2 8734   2.884   2.090   2.012
 2924TIP3   OH2 8735   1.809   2.175   1.231
 2924TIP3    H1 8736   1.904   2.166   1.244
 2924TIP3    H2 8737   1.788   2.111   1.164
 2925TIP3   OH2 8738   3.203   2.223   3.495
 2925TIP3    H1 8739   3.170   2.307   3.527
 2925TIP3    H2 8740   3.257   2.245   3.419
 2926TIP3   OH2 8741   0.296   6.613   3.852
 2926TIP3    H1 8742   0.326   6.679   3.790
 2926TIP3    H2 8743   0.229   6.564   3.805
 2927TIP3   OH2 8744   7.104   2.247   1.690
 2927TIP3    H1 8745   7.010   2.250   1.710
 2927TIP3    H2 8746   7.135   2.169   1.737
 2928TIP3   OH2 8747   5.382   1.553   2.194
 2928TIP3    H1 8748   5.358   1.493   2.123
 2928TIP3    H2 8749   5.403   1.496   2.268
 2929TIP3   OH2 8750   5.700   1.396   1.309
 2929TIP3    H1 8751   5.647   1.455   1.255
 2929TIP3    H2 8752   5.701   1.438   1.395
 2930TIP3   OH2 8753   2.505   0.776   0.301
 2930TIP3    H1 8754   2.543   0.847   0.249
 2930TIP3    H2 8755   2.577   0.745   0.355
 2931TIP3   OH2 8756   4.551   1.472   2.956
 2931TIP3    H1 8757   4.459   1.447   2.953
 2931TIP3    H2 8758   4.583   1.435   3.039
 2932TIP3   OH2 8759   3.676   2.431   2.405
 2932TIP3    H1 8760   3.606   2.476   2.359
 2932TIP3    H2 8761   3.641   2.345   2.426
 2933TIP3   OH2 8762   4.138   1.722   3.301
 2933TIP3    H1 8763   4.102   1.796   3.252
 2933TIP3    H2 8764   4.089   1.646   3.269
 2934TIP3   OH2 8765   6.364   4.454   2.568
 2934TIP3    H1 8766   6.313   4.372   2.570
 2934TIP3    H2 8767   6.454   4.426   2.583
 2935TIP3   OH2 8768   5.632   5.908   5.528
 2935TIP3    H1 8769   5.652   5.913   5.435
 2935TIP3    H2 8770   5.545   5.948   5.537
 2936TIP3   OH2 8771   0.564   1.809   0.228
 2936TIP3    H1 8772   0.645   1.760   0.216
 2936TIP3    H2 8773   0.516   1.797   0.146
 2937TIP3   OH2 8774   7.111   2.670   2.986
 2937TIP3    H1 8775   7.201   2.638   2.977
 2937TIP3    H2 8776   7.090   2.707   2.900
 2938TIP3   OH2 8777   7.057   3.277   0.659
 2938TIP3    H1 8778   7.077   3.366   0.632
 2938TIP3    H2 8779   6.980   3.252   0.609
 2939TIP3   OH2 8780   3.449   5.456   1.245
 2939TIP3    H1 8781   3.395   5.529   1.216
 2939TIP3    H2 8782   3.448   5.463   1.341
 2940TIP3   OH2 8783   1.836   6.183   4.502
 2940TIP3    H1 8784   1.911   6.177   4.561
 2940TIP3    H2 8785   1.829   6.096   4.463
 2941TIP3   OH2 8786   1.460   2.344   5.513
 2941TIP3    H1 8787   1.539   2.292   5.498
 2941TIP3    H2 8788   1.410   2.293   5.577
 2942TIP3   OH2 8789   6.389   4.557   4.861
 2942TIP3    H1 8790   6.362   4.511   4.781
 2942TIP3    H2 8791   6.403   4.647   4.832
 2943TIP3   OH2 8792   1.353   3.114   5.035
 2943TIP3    H1 8793   1.311   3.095   4.951
 2943TIP3    H2 8794   1.283   3.153   5.088
 2944TIP3   OH2 8795   3.878   5.620   5.464
 2944TIP3    H1 8796   3.933   5.638   5.540
 2944TIP3    H2 8797   3.797   5.669   5.479
 2945TIP3   OH2 8798   6.706   5.132   3.399
 2945TIP3    H1 8799   6.672   5.161   3.483
 2945TIP3    H2 8800   6.718   5.214   3.349
 2946TIP3   OH2 8801   2.315   4.357   2.247
 2946TIP3    H1 8802   2.367   4.284   2.215
 2946TIP3    H2 8803   2.270   4.323   2.324
 2947TIP3   OH2 8804   1.519   6.501   5.024
 2947TIP3    H1 8805   1.448   6.480   5.085
 2947TIP3    H2 8806   1.591   6.443   5.049
 2948TIP3   OH2 8807   1.353   1.483   1.467
 2948TIP3    H1 8808   1.335   1.525   1.383
 2948TIP3    H2 8809   1.281   1.421   1.479
 2949TIP3   OH2 8810   5.507   1.067   3.204
 2949TIP3    H1 8811   5.575   1.093   3.141
 2949TIP3    H2 8812   5.498   1.142   3.263
 2950TIP3   OH2 8813   2.522   6.791   4.839
 2950TIP3    H1 8814   2.602   6.797   4.891
 2950TIP3    H2 8815   2.496   6.699   4.844
 2951TIP3   OH2 8816   3.230   4.135   1.632
 2951TIP3    H1 8817   3.170   4.103   1.699
 2951TIP3    H2 8818   3.312   4.152   1.678
 2952TIP3   OH2 8819   6.046   1.964   3.302
 2952TIP3    H1 8820   6.129   2.010   3.288
 2952TIP3    H2 8821   5.979   2.033   3.295
 2953TIP3   OH2 8822   2.498   0.681   5.584
 2953TIP3    H1 8823   2.480   0.775   5.586
 2953TIP3    H2 8824   2.509   0.661   5.491
 2954TIP3   OH2 8825   4.366   5.373   2.158
 2954TIP3    H1 8826   4.299   5.340   2.218
 2954TIP3    H2 8827   4.331   5.457   2.128
 2955TIP3   OH2 8828   0.771   0.087   2.987
 2955TIP3    H1 8829   0.862   0.060   2.980
 2955TIP3    H2 8830   0.755   0.097   3.080
 2956TIP3   OH2 8831   2.343   6.098   5.529
 2956TIP3    H1 8832   2.283   6.150   5.583
 2956TIP3    H2 8833   2.304   6.011   5.528
 2957TIP3   OH2 8834   1.142   4.115   1.833
 2957TIP3    H1 8835   1.132   4.133   1.926
 2957TIP3    H2 8836   1.196   4.187   1.800
 2958TIP3   OH2 8837   2.451   1.023   5.103
 2958TIP3    H1 8838   2.409   1.013   5.017
 2958TIP3    H2 8839   2.401   1.092   5.146
 2959TIP3   OH2 8840   5.544   1.090   5.533
 2959TIP3    H1 8841   5.636   1.087   5.561
 2959TIP3    H2 8842   5.504   1.015   5.578
 2960TIP3   OH2 8843   5.604   1.246   3.397
 2960TIP3    H1 8844   5.603   1.240   3.492
 2960TIP3    H2 8845   5.694   1.228   3.373
 2961TIP3   OH2 8846   5.435   1.829   5.113
 2961TIP3    H1 8847   5.394   1.748   5.083
 2961TIP3    H2 8848   5.399   1.844   5.200
 2962TIP3   OH2 8849   0.919   4.419   2.501
 2962TIP3    H1 8850   0.875   4.424   2.416
 2962TIP3    H2 8851   0.979   4.493   2.502
 2963TIP3   OH2 8852   3.461   2.869   3.244
 2963TIP3    H1 8853   3.406   2.875   3.166
 2963TIP3    H2 8854   3.498   2.957   3.253
 2964TIP3   OH2 8855   6.076   4.099   0.029
 2964TIP3    H1 8856   6.149   4.061   0.076
 2964TIP3    H2 8857   6.084   4.063  -0.060
 2965TIP3   OH2 8858   4.623   4.614   5.560
 2965TIP3    H1 8859   4.624   4.596   5.654
 2965TIP3    H2 8860   4.531   4.635   5.540
 2966TIP3   OH2 8861   3.362   0.727   4.549
 2966TIP3    H1 8862   3.372   0.638   4.584
 2966TIP3    H2 8863   3.346   0.714   4.456
 2967TIP3   OH2 8864   1.866   6.598   2.860
 2967TIP3    H1 8865   1.900   6.617   2.773
 2967TIP3    H2 8866   1.821   6.678   2.887
 2968TIP3   OH2 8867   6.400   1.160   3.343
 2968TIP3    H1 8868   6.328   1.212   3.380
 2968TIP3    H2 8869   6.425   1.207   3.263
 2969TIP3   OH2 8870   0.751   3.434   3.429
 2969TIP3    H1 8871   0.839   3.415   3.397
 2969TIP3    H2 8872   0.693   3.400   3.361
 2970TIP3   OH2 8873   0.811   0.313   4.127
 2970TIP3    H1 8874   0.873   0.272   4.188
 2970TIP3    H2 8875   0.832   0.406   4.132
 2971TIP3   OH2 8876   2.155   5.536   1.808
 2971TIP3    H1 8877   2.200   5.455   1.830
 2971TIP3    H2 8878   2.159   5.541   1.712
 2972TIP3   OH2 8879   6.172   3.790   0.533
 2972TIP3    H1 8880   6.137   3.816   0.449
 2972TIP3    H2 8881   6.187   3.872   0.580
 2973TIP3   OH2 8882   5.962   2.116   5.555
 2973TIP3    H1 8883   5.919   2.033   5.577
 2973TIP3    H2 8884   5.903   2.157   5.492
 2974TIP3   OH2 8885   6.958   1.840   3.267
 2974TIP3    H1 8886   7.047   1.813   3.241
 2974TIP3    H2 8887   6.942   1.795   3.349
 2975TIP3   OH2 8888   0.399   2.731   0.440
 2975TIP3    H1 8889   0.416   2.820   0.471
 2975TIP3    H2 8890   0.305   2.719   0.452
 2976TIP3   OH2 8891   1.894   3.733   3.335
 2976TIP3    H1 8892   1.958   3.797   3.302
 2976TIP3    H2 8893   1.931   3.648   3.312
 2977TIP3   OH2 8894   4.114   2.539   0.141
 2977TIP3    H1 8895   4.145   2.469   0.198
 2977TIP3    H2 8896   4.192   2.590   0.120
 2978TIP3   OH2 8897   1.682   3.593   0.110
 2978TIP3    H1 8898   1.755   3.605   0.171
 2978TIP3    H2 8899   1.628   3.671   0.123
 2979TIP3   OH2 8900   0.217   0.112   3.996
 2979TIP3    H1 8901   0.217   0.031   3.945
 2979TIP3    H2 8902   0.277   0.094   4.068
 2980TIP3   OH2 8903   4.126   1.419   3.594
 2980TIP3    H1 8904   4.194   1.484   3.613
 2980TIP3    H2 8905   4.100   1.386   3.680
 2981TIP3   OH2 8906   2.930   2.973   1.237
 2981TIP3    H1 8907   2.843   2.939   1.217
 2981TIP3    H2 8908   2.984   2.948   1.162
 2982TIP3   OH2 8909   5.575   2.393   1.961
 2982TIP3    H1 8910   5.529   2.447   1.896
 2982TIP3    H2 8911   5.611   2.320   1.910
 2983TIP3   OH2 8912   1.516   2.381   3.190
 2983TIP3    H1 8913   1.546   2.330   3.114
 2983TIP3    H2 8914   1.515   2.471   3.159
 2984TIP3   OH2 8915   0.470   5.616   0.620
 2984TIP3    H1 8916   0.397   5.617   0.682
 2984TIP3    H2 8917   0.546   5.596   0.674
 2985TIP3   OH2 8918   3.696   3.808   1.562
 2985TIP3    H1 8919   3.634   3.874   1.593
 2985TIP3    H2 8920   3.756   3.856   1.505
 2986TIP3   OH2 8921   3.374   0.572   1.939
 2986TIP3    H1 8922   3.305   0.638   1.932
 2986TIP3    H2 8923   3.347   0.502   1.879
 2987TIP3   OH2 8924   2.862   5.112   3.188
 2987TIP3    H1 8925   2.787   5.166   3.166
 2987TIP3    H2 8926   2.825   5.026   3.208
 2988TIP3   OH2 8927   7.074   4.031   0.722
 2988TIP3    H1 8928   7.008   4.043   0.790
 2988TIP3    H2 8929   7.157   4.042   0.768
 2989TIP3   OH2 8930   0.473   1.080   1.154
 2989TIP3    H1 8931   0.437   1.018   1.217
 2989TIP3    H2 8932   0.486   1.029   1.075
 2990TIP3   OH2 8933   3.524   5.272   5.233
 2990TIP3    H1 8934   3.568   5.352   5.261
 2990TIP3    H2 8935   3.431   5.291   5.242
 2991TIP3   OH2 8936   1.513   2.857   0.828
 2991TIP3    H1 8937   1.454   2.929   0.806
 2991TIP3    H2 8938   1.594   2.877   0.781
 2992TIP3   OH2 8939   3.297   4.008   0.739
 2992TIP3    H1 8940   3.269   4.003   0.648
 2992TIP3    H2 8941   3.304   4.102   0.757
 2993TIP3   OH2 8942   3.987   6.554   1.127
 2993TIP3    H1 8943   3.943   6.471   1.111
 2993TIP3    H2 8944   4.079   6.537   1.108
 2994TIP3   OH2 8945   1.406   3.980   3.075
 2994TIP3    H1 8946   1.381   4.035   3.150
 2994TIP3    H2 8947   1.422   4.042   3.004
 2995TIP3   OH2 8948   3.959   2.087   4.002
 2995TIP3    H1 8949   3.979   1.994   4.013
 2995TIP3    H2 8950   4.019   2.115   3.932
 2996TIP3   OH2 8951   6.858   1.317   2.485
 2996TIP3    H1 8952   6.767   1.308   2.456
 2996TIP3    H2 8953   6.862   1.268   2.567
 2997TIP3   OH2 8954   1.973   1.780   1.768
 2997TIP3    H1 8955   1.959   1.861   1.719
 2997TIP3    H2 8956   1.951   1.802   1.859
 2998TIP3   OH2 8957   4.188   4.626   2.057
 2998TIP3    H1 8958   4.143   4.559   2.004
 2998TIP3    H2 8959   4.203   4.698   1.996
 2999TIP3   OH2 8960   2.429   4.664   3.649
 2999TIP3    H1 8961   2.477   4.743   3.625
 2999TIP3    H2 8962   2.384   4.637   3.569
 3000TIP3   OH2 8963   5.308   0.988   4.510
 3000TIP3    H1 8964   5.318   1.076   4.474
 3000TIP3    H2 8965   5.392   0.971   4.553
 3001TIP3   OH2 8966   3.845   2.436   3.840
 3001TIP3    H1 8967   3.793   2.360   3.866
 3001TIP3    H2 8968   3.816   2.456   3.751
 3002TIP3   OH2 8969   6.559   2.394   2.877
 3002TIP3    H1 8970   6.588   2.355   2.960
 3002TIP3    H2 8971   6.630   2.453   2.853
 3003TIP3   OH2 8972   7.005   5.203   2.787
 3003TIP3    H1 8973   7.034   5.178   2.700
 3003TIP3    H2 8974   7.083   5.196   2.842
 3004TIP3   OH2 8975   1.093   1.850   0.838
 3004TIP3    H1 8976   0.999   1.832   0.831
 3004TIP3    H2 8977   1.117   1.886   0.752
 3005TIP3   OH2 8978   5.712   6.788   3.360
 3005TIP3    H1 8979   5.681   6.865   3.408
 3005TIP3    H2 8980   5.698   6.715   3.420
 3006TIP3   OH2 8981   3.769   5.341   5.393
 3006TIP3    H1 8982   3.846   5.371   5.442
 3006TIP3    H2 8983   3.704   5.321   5.461
 3007TIP3   OH2 8984   2.968   6.638   4.771
 3007TIP3    H1 8985   3.050   6.669   4.808
 3007TIP3    H2 8986   2.900   6.692   4.812
 3008TIP3   OH2 8987   0.249   1.145   5.651
 3008TIP3    H1 8988   0.334   1.143   5.695
 3008TIP3    H2 8989   0.237   1.056   5.617
 3009TIP3   OH2 8990   3.285   2.522   5.120
 3009TIP3    H1 8991   3.296   2.602   5.068
 3009TIP3    H2 8992   3.300   2.551   5.211
 3010TIP3   OH2 8993   4.508   5.871   0.538
 3010TIP3    H1 8994   4.484   5.963   0.523
 3010TIP3    H2 8995   4.521   5.865   0.633
 3011TIP3   OH2 8996   4.533   6.115   5.330
 3011TIP3    H1 8997   4.613   6.084   5.373
 3011TIP3    H2 8998   4.481   6.154   5.400
 3012TIP3   OH2 8999   1.129   0.541   0.396
 3012TIP3    H1 9000   1.133   0.544   0.492
 3012TIP3    H2 9001   1.084   0.621   0.371
 3013TIP3   OH2 9002   2.064   4.436   2.371
 3013TIP3    H1 9003   2.115   4.485   2.435
 3013TIP3    H2 9004   2.073   4.345   2.398
 3014TIP3   OH2 9005   1.843   5.574   2.620
 3014TIP3    H1 9006   1.847   5.628   2.699
 3014TIP3    H2 9007   1.772   5.512   2.637
 3015TIP3   OH2 9008   2.364   4.893   1.025
 3015TIP3    H1 9009   2.326   4.826   0.970
 3015TIP3    H2 9010   2.297   4.912   1.091
 3016TIP3   OH2 9011   5.739   6.758   5.505
 3016TIP3    H1 9012   5.783   6.827   5.454
 3016TIP3    H2 9013   5.799   6.684   5.501
 3017TIP3   OH2 9014   2.179   5.949   2.693
 3017TIP3    H1 9015   2.224   5.865   2.690
 3017TIP3    H2 9016   2.094   5.930   2.732
 3018TIP3   OH2 9017   6.844   1.355   4.366
 3018TIP3    H1 9018   6.903   1.395   4.431
 3018TIP3    H2 9019   6.901   1.333   4.293
 3019TIP3   OH2 9020   6.194   0.187   4.853
 3019TIP3    H1 9021   6.115   0.162   4.806
 3019TIP3    H2 9022   6.213   0.276   4.822
 3020TIP3   OH2 9023   3.890   6.584   2.996
 3020TIP3    H1 9024   3.856   6.656   3.049
 3020TIP3    H2 9025   3.822   6.517   3.000
 3021TIP3   OH2 9026   2.199   5.914   0.793
 3021TIP3    H1 9027   2.208   5.830   0.748
 3021TIP3    H2 9028   2.272   5.967   0.761
 3022TIP3   OH2 9029   6.853   3.449   1.249
 3022TIP3    H1 9030   6.865   3.418   1.159
 3022TIP3    H2 9031   6.758   3.443   1.264
 3023TIP3   OH2 9032   3.821   5.305   5.134
 3023TIP3    H1 9033   3.801   5.310   5.227
 3023TIP3    H2 9034   3.805   5.214   5.110
 3024TIP3   OH2 9035   1.209   5.734   0.381
 3024TIP3    H1 9036   1.165   5.658   0.345
 3024TIP3    H2 9037   1.251   5.776   0.306
 3025TIP3   OH2 9038   6.015   0.327   1.850
 3025TIP3    H1 9039   6.068   0.263   1.802
 3025TIP3    H2 9040   6.026   0.408   1.800
 3026TIP3   OH2 9041   3.575   0.697   0.965
 3026TIP3    H1 9042   3.535   0.721   1.048
 3026TIP3    H2 9043   3.604   0.606   0.977
 3027TIP3   OH2 9044   3.318   3.795   4.985
 3027TIP3    H1 9045   3.381   3.731   4.954
 3027TIP3    H2 9046   3.370   3.874   5.002
 3028TIP3   OH2 9047   6.281   4.137   4.849
 3028TIP3    H1 9048   6.360   4.177   4.814
 3028TIP3    H2 9049   6.251   4.198   4.916
 3029TIP3   OH2 9050   7.183   3.392   4.877
 3029TIP3    H1 9051   7.107   3.421   4.927
 3029TIP3    H2 9052   7.209   3.309   4.918
 3030TIP3   OH2 9053   2.612   3.188   5.140
 3030TIP3    H1 9054   2.567   3.179   5.224
 3030TIP3    H2 9055   2.542   3.184   5.075
 3031TIP3   OH2 9056   2.050   3.077   5.719
 3031TIP3    H1 9057   2.118   3.102   5.656
 3031TIP3    H2 9058   1.993   3.017   5.670
 3032TIP3   OH2 9059   4.217   0.623   0.123
 3032TIP3    H1 9060   4.208   0.718   0.114
 3032TIP3    H2 9061   4.240   0.609   0.214
 3033TIP3   OH2 9062   1.212   4.089   1.071
 3033TIP3    H1 9063   1.147   4.105   1.002
 3033TIP3    H2 9064   1.274   4.162   1.062
 3034TIP3   OH2 9065   0.794   2.428   2.720
 3034TIP3    H1 9066   0.844   2.467   2.648
 3034TIP3    H2 9067   0.774   2.502   2.777
 3035TIP3   OH2 9068   0.972   6.490   3.300
 3035TIP3    H1 9069   1.011   6.425   3.241
 3035TIP3    H2 9070   0.924   6.549   3.242
 3036TIP3   OH2 9071   0.140   2.527   3.030
 3036TIP3    H1 9072   0.191   2.527   2.948
 3036TIP3    H2 9073   0.145   2.436   3.060
 3037TIP3   OH2 9074   3.990   0.626   5.746
 3037TIP3    H1 9075   3.989   0.714   5.710
 3037TIP3    H2 9076   3.898   0.598   5.744
 3038TIP3   OH2 9077   0.183   6.449   2.743
 3038TIP3    H1 9078   0.100   6.413   2.713
 3038TIP3    H2 9079   0.160   6.502   2.820
 3039TIP3   OH2 9080   2.652   1.886   0.674
 3039TIP3    H1 9081   2.575   1.871   0.620
 3039TIP3    H2 9082   2.721   1.911   0.613
 3040TIP3   OH2 9083   4.823   4.887   5.496
 3040TIP3    H1 9084   4.760   4.901   5.425
 3040TIP3    H2 9085   4.834   4.973   5.535
 3041TIP3   OH2 9086   4.815   6.316   1.202
 3041TIP3    H1 9087   4.742   6.374   1.180
 3041TIP3    H2 9088   4.800   6.291   1.293
 3042TIP3   OH2 9089   5.058   0.508   3.685
 3042TIP3    H1 9090   5.010   0.458   3.620
 3042TIP3    H2 9091   5.019   0.482   3.769
 3043TIP3   OH2 9092   2.081   5.880   4.647
 3043TIP3    H1 9093   2.022   5.955   4.647
 3043TIP3    H2 9094   2.023   5.804   4.655
 3044TIP3   OH2 9095   4.545   5.434   3.781
 3044TIP3    H1 9096   4.464   5.470   3.817
 3044TIP3    H2 9097   4.615   5.476   3.831
 3045TIP3   OH2 9098   1.815   2.495   0.716
 3045TIP3    H1 9099   1.791   2.410   0.752
 3045TIP3    H2 9100   1.789   2.558   0.783
 3046TIP3   OH2 9101   0.379   3.912   2.740
 3046TIP3    H1 9102   0.369   3.824   2.777
 3046TIP3    H2 9103   0.325   3.968   2.795
 3047TIP3   OH2 9104   4.605   3.457   0.453
 3047TIP3    H1 9105   4.611   3.373   0.407
 3047TIP3    H2 9106   4.581   3.520   0.385
 3048TIP3   OH2 9107   5.623   3.618   5.612
 3048TIP3    H1 9108   5.632   3.593   5.520
 3048TIP3    H2 9109   5.633   3.713   5.613
 3049TIP3   OH2 9110   0.231   6.299   5.841
 3049TIP3    H1 9111   0.264   6.389   5.843
 3049TIP3    H2 9112   0.159   6.302   5.778
 3050TIP3   OH2 9113   3.423   6.129   0.408
 3050TIP3    H1 9114   3.341   6.178   0.409
 3050TIP3    H2 9115   3.438   6.105   0.499
 3051TIP3   OH2 9116   4.291   3.056   0.582
 3051TIP3    H1 9117   4.209   3.056   0.632
 3051TIP3    H2 9118   4.323   2.966   0.591
 3052TIP3   OH2 9119   0.369   4.636   4.073
 3052TIP3    H1 9120   0.340   4.687   3.998
 3052TIP3    H2 9121   0.443   4.685   4.109
 3053TIP3   OH2 9122   2.834   2.262   0.017
 3053TIP3    H1 9123   2.761   2.323   0.027
 3053TIP3    H2 9124   2.792   2.178  -0.004
 3054TIP3   OH2 9125  -0.021   6.022   5.657
 3054TIP3    H1 9126   0.030   6.060   5.586
 3054TIP3    H2 9127   0.040   5.965   5.704
 3055TIP3   OH2 9128   2.512   5.884   4.400
 3055TIP3    H1 9129   2.536   5.977   4.404
 3055TIP3    H2 9130   2.593   5.839   4.378
 3056TIP3   OH2 9131   5.973   0.721   3.900
 3056TIP3    H1 9132   5.971   0.777   3.822
 3056TIP3    H2 9133   6.066   0.702   3.913
 3057TIP3   OH2 9134   3.151   4.313   5.477
 3057TIP3    H1 9135   3.237   4.338   5.510
 3057TIP3    H2 9136   3.137   4.224   5.511
 3058TIP3   OH2 9137   1.160   0.469   3.975
 3058TIP3    H1 9138   1.116   0.438   3.895
 3058TIP3    H2 9139   1.115   0.551   3.996
 3059TIP3   OH2 9140   2.723   1.905   3.734
 3059TIP3    H1 9141   2.814   1.908   3.763
 3059TIP3    H2 9142   2.729   1.888   3.640
 3060TIP3   OH2 9143   0.171   1.621   2.809
 3060TIP3    H1 9144   0.180   1.612   2.904
 3060TIP3    H2 9145   0.253   1.587   2.773
 3061TIP3   OH2 9146   1.418   5.620   2.155
 3061TIP3    H1 9147   1.390   5.711   2.162
 3061TIP3    H2 9148   1.370   5.586   2.080
 3062TIP3   OH2 9149   3.162   6.365   5.472
 3062TIP3    H1 9150   3.201   6.315   5.400
 3062TIP3    H2 9151   3.159   6.303   5.545
 3063TIP3   OH2 9152   2.566   1.392   2.485
 3063TIP3    H1 9153   2.536   1.379   2.575
 3063TIP3    H2 9154   2.495   1.358   2.431
 3064TIP3   OH2 9155   6.025   1.705   0.204
 3064TIP3    H1 9156   6.044   1.649   0.279
 3064TIP3    H2 9157   5.955   1.762   0.234
 3065TIP3   OH2 9158   0.777   2.427   0.387
 3065TIP3    H1 9159   0.711   2.451   0.452
 3065TIP3    H2 9160   0.845   2.494   0.396
 3066TIP3   OH2 9161   5.379   4.681   5.282
 3066TIP3    H1 9162   5.423   4.607   5.326
 3066TIP3    H2 9163   5.390   4.663   5.189
 3067TIP3   OH2 9164   1.048   2.256   2.715
 3067TIP3    H1 9165   1.093   2.280   2.633
 3067TIP3    H2 9166   0.981   2.324   2.726
 3068TIP3   OH2 9167   2.528   5.841   2.232
 3068TIP3    H1 9168   2.615   5.844   2.191
 3068TIP3    H2 9169   2.523   5.752   2.268
 3069TIP3   OH2 9170   0.567   6.775   2.026
 3069TIP3    H1 9171   0.589   6.721   2.102
 3069TIP3    H2 9172   0.649   6.780   1.976
 3070TIP3   OH2 9173   0.593   1.527   3.152
 3070TIP3    H1 9174   0.665   1.566   3.202
 3070TIP3    H2 9175   0.547   1.602   3.114
 3071TIP3   OH2 9176   0.910   1.664   5.349
 3071TIP3    H1 9177   0.887   1.602   5.281
 3071TIP3    H2 9178   0.945   1.610   5.421
 3072TIP3   OH2 9179   3.560   6.280   4.071
 3072TIP3    H1 9180   3.490   6.330   4.114
 3072TIP3    H2 9181   3.520   6.195   4.052
 3073TIP3   OH2 9182   5.303   4.310   5.670
 3073TIP3    H1 9183   5.349   4.382   5.626
 3073TIP3    H2 9184   5.363   4.236   5.663
 3074TIP3   OH2 9185   2.167   3.270   4.126
 3074TIP3    H1 9186   2.142   3.358   4.097
 3074TIP3    H2 9187   2.220   3.235   4.055
 3075TIP3   OH2 9188   5.837   1.578   0.994
 3075TIP3    H1 9189   5.873   1.643   1.054
 3075TIP3    H2 9190   5.884   1.497   1.016
 3076TIP3   OH2 9191   2.440   5.216   3.671
 3076TIP3    H1 9192   2.401   5.222   3.584
 3076TIP3    H2 9193   2.496   5.293   3.677
 3077TIP3   OH2 9194   6.226   1.447   5.377
 3077TIP3    H1 9195   6.217   1.408   5.464
 3077TIP3    H2 9196   6.259   1.376   5.322
 3078TIP3   OH2 9197   0.571   5.893   4.486
 3078TIP3    H1 9198   0.568   5.814   4.432
 3078TIP3    H2 9199   0.610   5.959   4.429
 3079TIP3   OH2 9200   1.409   5.522   3.931
 3079TIP3    H1 9201   1.418   5.486   4.019
 3079TIP3    H2 9202   1.497   5.520   3.895
 3080TIP3   OH2 9203   5.036   5.602   0.467
 3080TIP3    H1 9204   4.954   5.557   0.446
 3080TIP3    H2 9205   5.010   5.693   0.482
 3081TIP3   OH2 9206   4.626   5.629   4.282
 3081TIP3    H1 9207   4.537   5.600   4.304
 3081TIP3    H2 9208   4.630   5.719   4.315
 3082TIP3   OH2 9209   5.862   2.192   3.268
 3082TIP3    H1 9210   5.790   2.147   3.311
 3082TIP3    H2 9211   5.892   2.257   3.332
 3083TIP3   OH2 9212   3.289   5.214   0.063
 3083TIP3    H1 9213   3.199   5.185   0.049
 3083TIP3    H2 9214   3.287   5.259   0.148
 3084TIP3   OH2 9215   2.347   6.058   2.099
 3084TIP3    H1 9216   2.398   5.983   2.130
 3084TIP3    H2 9217   2.259   6.022   2.083
 3085TIP3   OH2 9218   2.439   4.076   1.573
 3085TIP3    H1 9219   2.404   3.987   1.578
 3085TIP3    H2 9220   2.513   4.070   1.513
 3086TIP3   OH2 9221   4.043   2.485   5.598
 3086TIP3    H1 9222   4.084   2.412   5.644
 3086TIP3    H2 9223   4.085   2.563   5.633
 3087TIP3   OH2 9224   0.243   5.728   5.581
 3087TIP3    H1 9225   0.240   5.634   5.599
 3087TIP3    H2 9226   0.178   5.741   5.511
 3088TIP3   OH2 9227   0.410   3.612   3.182
 3088TIP3    H1 9228   0.460   3.555   3.124
 3088TIP3    H2 9229   0.406   3.563   3.265
 3089TIP3   OH2 9230   0.610   3.125   0.604
 3089TIP3    H1 9231   0.570   3.212   0.596
 3089TIP3    H2 9232   0.704   3.141   0.593
 3090TIP3   OH2 9233   3.585   1.041   0.396
 3090TIP3    H1 9234   3.648   1.020   0.327
 3090TIP3    H2 9235   3.603   1.132   0.418
 3091TIP3   OH2 9236   6.310   1.714   4.716
 3091TIP3    H1 9237   6.350   1.768   4.784
 3091TIP3    H2 9238   6.383   1.682   4.664
 3092TIP3   OH2 9239   6.057   6.347   2.537
 3092TIP3    H1 9240   5.977   6.301   2.512
 3092TIP3    H2 9241   6.107   6.353   2.455
 3093TIP3   OH2 9242   4.676   1.255   5.873
 3093TIP3    H1 9243   4.753   1.292   5.916
 3093TIP3    H2 9244   4.633   1.330   5.831
 3094TIP3   OH2 9245   3.084   5.831   3.912
 3094TIP3    H1 9246   3.173   5.867   3.906
 3094TIP3    H2 9247   3.046   5.847   3.826
 3095TIP3   OH2 9248   6.115   0.346   1.303
 3095TIP3    H1 9249   6.167   0.277   1.261
 3095TIP3    H2 9250   6.177   0.416   1.318
 3096TIP3   OH2 9251   4.193   1.986   5.579
 3096TIP3    H1 9252   4.266   1.960   5.523
 3096TIP3    H2 9253   4.205   1.934   5.659
 3097TIP3   OH2 9254   6.042   4.651   5.486
 3097TIP3    H1 9255   6.083   4.566   5.504
 3097TIP3    H2 9256   6.089   4.685   5.410
 3098TIP3   OH2 9257   4.948   3.488   5.732
 3098TIP3    H1 9258   5.029   3.537   5.741
 3098TIP3    H2 9259   4.972   3.409   5.684
 3099TIP3   OH2 9260   6.753   3.258   4.044
 3099TIP3    H1 9261   6.760   3.169   4.010
 3099TIP3    H2 9262   6.806   3.258   4.123
 3100TIP3   OH2 9263   1.833   5.936   4.411
 3100TIP3    H1 9264   1.768   5.875   4.376
 3100TIP3    H2 9265   1.863   5.895   4.492
 3101TIP3   OH2 9266   3.505   1.146   1.053
 3101TIP3    H1 9267   3.473   1.060   1.080
 3101TIP3    H2 9268   3.529   1.189   1.135
 3102TIP3   OH2 9269   4.016   1.972   0.026
 3102TIP3    H1 9270   4.095   2.025   0.020
 3102TIP3    H2 9271   3.990   1.978   0.118
 3103TIP3   OH2 9272   2.154   3.267   0.516
 3103TIP3    H1 9273   2.207   3.210   0.571
 3103TIP3    H2 9274   2.086   3.300   0.574
 3104TIP3   OH2 9275   3.161   5.332   0.291
 3104TIP3    H1 9276   3.088   5.390   0.270
 3104TIP3    H2 9277   3.159   5.323   0.386
 3105TIP3   OH2 9278   6.989   3.117   0.030
 3105TIP3    H1 9279   6.927   3.044   0.031
 3105TIP3    H2 9280   6.940   3.189   0.070
 3106TIP3   OH2 9281   6.710   6.216   3.189
 3106TIP3    H1 9282   6.661   6.269   3.253
 3106TIP3    H2 9283   6.642   6.165   3.144
 3107TIP3   OH2 9284   4.938   1.073   1.664
 3107TIP3    H1 9285   4.944   0.980   1.643
 3107TIP3    H2 9286   4.858   1.102   1.621
 3108TIP3   OH2 9287   5.210   5.151   4.163
 3108TIP3    H1 9288   5.224   5.160   4.257
 3108TIP3    H2 9289   5.157   5.227   4.138
 3109TIP3   OH2 9290   2.800   5.686   0.567
 3109TIP3    H1 9291   2.754   5.713   0.647
 3109TIP3    H2 9292   2.889   5.718   0.578
 3110TIP3   OH2 9293   2.320   4.225   1.972
 3110TIP3    H1 9294   2.381   4.152   1.963
 3110TIP3    H2 9295   2.311   4.259   1.883
 3111TIP3   OH2 9296   5.466   0.052   3.223
 3111TIP3    H1 9297   5.453   0.013   3.309
 3111TIP3    H2 9298   5.382   0.043   3.179
 3112TIP3   OH2 9299   3.115   2.401   2.727
 3112TIP3    H1 9300   3.184   2.402   2.793
 3112TIP3    H2 9301   3.161   2.388   2.644
 3113TIP3   OH2 9302   2.569   5.522   2.878
 3113TIP3    H1 9303   2.504   5.458   2.850
 3113TIP3    H2 9304   2.567   5.590   2.812
 3114TIP3   OH2 9305   2.780   1.202   0.326
 3114TIP3    H1 9306   2.714   1.147   0.369
 3114TIP3    H2 9307   2.749   1.291   0.338
 3115TIP3   OH2 9308   3.277   3.336   3.351
 3115TIP3    H1 9309   3.335   3.389   3.297
 3115TIP3    H2 9310   3.309   3.246   3.341
 3116TIP3   OH2 9311   1.229   5.410   3.324
 3116TIP3    H1 9312   1.261   5.423   3.234
 3116TIP3    H2 9313   1.134   5.404   3.315
 3117TIP3   OH2 9314   3.678   5.833   5.466
 3117TIP3    H1 9315   3.747   5.872   5.413
 3117TIP3    H2 9316   3.628   5.908   5.499
 3118TIP3   OH2 9317   3.779   5.863   1.145
 3118TIP3    H1 9318   3.852   5.906   1.189
 3118TIP3    H2 9319   3.817   5.825   1.066
 3119TIP3   OH2 9320   5.844   3.494   1.851
 3119TIP3    H1 9321   5.885   3.409   1.836
 3119TIP3    H2 9322   5.784   3.478   1.924
 3120TIP3   OH2 9323   1.667   6.671   4.369
 3120TIP3    H1 9324   1.720   6.748   4.390
 3120TIP3    H2 9325   1.577   6.699   4.383
 3121TIP3   OH2 9326   5.187   4.971   2.818
 3121TIP3    H1 9327   5.115   5.013   2.772
 3121TIP3    H2 9328   5.162   4.878   2.821
 3122TIP3   OH2 9329   4.035   6.456   0.103
 3122TIP3    H1 9330   4.016   6.488   0.015
 3122TIP3    H2 9331   3.949   6.441   0.142
 3123TIP3   OH2 9332   4.494   2.295   1.374
 3123TIP3    H1 9333   4.506   2.310   1.280
 3123TIP3    H2 9334   4.476   2.202   1.382
 3124TIP3   OH2 9335   2.747   0.390   4.078
 3124TIP3    H1 9336   2.738   0.483   4.060
 3124TIP3    H2 9337   2.669   0.350   4.040
 3125TIP3   OH2 9338   1.239   0.319   3.429
 3125TIP3    H1 9339   1.242   0.390   3.494
 3125TIP3    H2 9340   1.285   0.355   3.353
 3126TIP3   OH2 9341   0.501   0.349   3.048
 3126TIP3    H1 9342   0.463   0.266   3.016
 3126TIP3    H2 9343   0.562   0.322   3.117
 3127TIP3   OH2 9344   6.201   1.161   3.693
 3127TIP3    H1 9345   6.191   1.189   3.784
 3127TIP3    H2 9346   6.295   1.145   3.682
 3128TIP3   OH2 9347   0.837   3.259   2.004
 3128TIP3    H1 9348   0.869   3.210   1.928
 3128TIP3    H2 9349   0.744   3.236   2.010
 3129TIP3   OH2 9350   0.623   0.009   0.136
 3129TIP3    H1 9351   0.627   0.025   0.230
 3129TIP3    H2 9352   0.533   0.030   0.112
 3130TIP3   OH2 9353   3.137   2.452   5.852
 3130TIP3    H1 9354   3.120   2.366   5.812
 3130TIP3    H2 9355   3.215   2.485   5.808
 3131TIP3   OH2 9356   1.712   3.054   5.557
 3131TIP3    H1 9357   1.682   3.005   5.481
 3131TIP3    H2 9358   1.777   2.997   5.599
 3132TIP3   OH2 9359   5.092   3.334   0.970
 3132TIP3    H1 9360   5.032   3.313   1.041
 3132TIP3    H2 9361   5.119   3.249   0.935
 3133TIP3   OH2 9362   3.361   6.632   4.308
 3133TIP3    H1 9363   3.383   6.615   4.399
 3133TIP3    H2 9364   3.381   6.725   4.295
 3134TIP3   OH2 9365   6.704   4.607   0.031
 3134TIP3    H1 9366   6.717   4.674  -0.036
 3134TIP3    H2 9367   6.641   4.645   0.092
 3135TIP3   OH2 9368   5.663   3.316   3.907
 3135TIP3    H1 9369   5.682   3.302   4.000
 3135TIP3    H2 9370   5.748   3.310   3.864
 3136TIP3   OH2 9371   2.872   4.064   5.295
 3136TIP3    H1 9372   2.932   4.078   5.368
 3136TIP3    H2 9373   2.929   4.062   5.218
 3137TIP3   OH2 9374   0.961   0.746   5.094
 3137TIP3    H1 9375   0.988   0.753   5.002
 3137TIP3    H2 9376   0.920   0.660   5.100
 3138TIP3   OH2 9377   4.816   4.478   5.407
 3138TIP3    H1 9378   4.745   4.532   5.441
 3138TIP3    H2 9379   4.807   4.394   5.452
 3139TIP3   OH2 9380   1.854   1.591   0.190
 3139TIP3    H1 9381   1.836   1.571   0.098
 3139TIP3    H2 9382   1.805   1.671   0.208
 3140TIP3   OH2 9383   4.967   6.178   2.318
 3140TIP3    H1 9384   5.046   6.202   2.367
 3140TIP3    H2 9385   4.975   6.226   2.235
 3141TIP3   OH2 9386   6.197   0.261   5.343
 3141TIP3    H1 9387   6.108   0.294   5.336
 3141TIP3    H2 9388   6.216   0.223   5.258
 3142TIP3   OH2 9389   3.351   4.277   0.798
 3142TIP3    H1 9390   3.330   4.322   0.880
 3142TIP3    H2 9391   3.343   4.344   0.731
 3143TIP3   OH2 9392   6.230   5.281   4.515
 3143TIP3    H1 9393   6.294   5.232   4.566
 3143TIP3    H2 9394   6.220   5.230   4.435
 3144TIP3   OH2 9395   5.081   5.380   3.241
 3144TIP3    H1 9396   5.008   5.334   3.281
 3144TIP3    H2 9397   5.041   5.454   3.196
 3145TIP3   OH2 9398   4.643   3.821   4.891
 3145TIP3    H1 9399   4.683   3.896   4.846
 3145TIP3    H2 9400   4.710   3.752   4.887
 3146TIP3   OH2 9401   3.804   4.314   5.045
 3146TIP3    H1 9402   3.798   4.368   4.966
 3146TIP3    H2 9403   3.805   4.377   5.117
 3147TIP3   OH2 9404   5.979   3.638   4.179
 3147TIP3    H1 9405   5.934   3.609   4.258
 3147TIP3    H2 9406   6.072   3.638   4.203
 3148TIP3   OH2 9407   3.056   1.135   3.471
 3148TIP3    H1 9408   3.050   1.226   3.503
 3148TIP3    H2 9409   2.993   1.131   3.400
 3149TIP3   OH2 9410   3.860   3.199   2.108
 3149TIP3    H1 9411   3.825   3.288   2.109
 3149TIP3    H2 9412   3.869   3.178   2.015
 3150TIP3   OH2 9413   5.485   1.475   4.884
 3150TIP3    H1 9414   5.449   1.564   4.889
 3150TIP3    H2 9415   5.465   1.446   4.795
 3151TIP3   OH2 9416   5.338   1.893   5.718
 3151TIP3    H1 9417   5.269   1.958   5.729
 3151TIP3    H2 9418   5.350   1.856   5.805
 3152TIP3   OH2 9419   7.189   3.724   3.370
 3152TIP3    H1 9420   7.132   3.667   3.319
 3152TIP3    H2 9421   7.247   3.764   3.305
 3153TIP3   OH2 9422   0.154   0.321   2.708
 3153TIP3    H1 9423   0.180   0.390   2.647
 3153TIP3    H2 9424   0.229   0.261   2.710
 3154TIP3   OH2 9425   3.530   6.350   5.681
 3154TIP3    H1 9426   3.513   6.371   5.773
 3154TIP3    H2 9427   3.582   6.424   5.649
 3155TIP3   OH2 9428   5.763   2.044   0.123
 3155TIP3    H1 9429   5.701   2.064   0.193
 3155TIP3    H2 9430   5.805   1.963   0.151
 3156TIP3   OH2 9431   5.063   5.887   3.155
 3156TIP3    H1 9432   5.045   5.955   3.220
 3156TIP3    H2 9433   5.078   5.808   3.206
 3157TIP3   OH2 9434   4.517   0.172   2.392
 3157TIP3    H1 9435   4.442   0.220   2.358
 3157TIP3    H2 9436   4.531   0.208   2.480
 3158TIP3   OH2 9437   0.446   3.204   3.577
 3158TIP3    H1 9438   0.501   3.214   3.499
 3158TIP3    H2 9439   0.359   3.184   3.543
 3159TIP3   OH2 9440   6.083   1.976   1.609
 3159TIP3    H1 9441   6.079   2.050   1.670
 3159TIP3    H2 9442   6.175   1.973   1.581
 3160TIP3   OH2 9443   6.962   6.468   5.158
 3160TIP3    H1 9444   6.886   6.413   5.141
 3160TIP3    H2 9445   7.028   6.438   5.097
 3161TIP3   OH2 9446   3.850   2.818   2.602
 3161TIP3    H1 9447   3.833   2.726   2.623
 3161TIP3    H2 9448   3.928   2.815   2.546
 3162TIP3   OH2 9449   1.321   1.423   0.926
 3162TIP3    H1 9450   1.248   1.478   0.954
 3162TIP3    H2 9451   1.398   1.462   0.966
 3163TIP3   OH2 9452   7.011   5.658   5.276
 3163TIP3    H1 9453   7.071   5.598   5.232
 3163TIP3    H2 9454   7.067   5.708   5.336
 3164TIP3   OH2 9455   2.023   1.394   5.770
 3164TIP3    H1 9456   1.979   1.379   5.854
 3164TIP3    H2 9457   1.988   1.327   5.712
 3165TIP3   OH2 9458   5.653   3.234   0.765
 3165TIP3    H1 9459   5.642   3.322   0.731
 3165TIP3    H2 9460   5.748   3.222   0.769
 3166TIP3   OH2 9461   0.057   4.633   0.344
 3166TIP3    H1 9462   0.007   4.560   0.308
 3166TIP3    H2 9463   0.084   4.685   0.268
 3167TIP3   OH2 9464   4.475   0.639   4.868
 3167TIP3    H1 9465   4.436   0.711   4.918
 3167TIP3    H2 9466   4.477   0.671   4.777
 3168TIP3   OH2 9467   2.312   6.417   5.432
 3168TIP3    H1 9468   2.307   6.480   5.505
 3168TIP3    H2 9469   2.406   6.412   5.412
 3169TIP3   OH2 9470   0.775   4.162   1.280
 3169TIP3    H1 9471   0.733   4.199   1.203
 3169TIP3    H2 9472   0.846   4.223   1.300
 3170TIP3   OH2 9473   6.333   1.000   1.489
 3170TIP3    H1 9474   6.266   0.964   1.430
 3170TIP3    H2 9475   6.413   1.000   1.437
 3171TIP3   OH2 9476   0.034   2.755   4.212
 3171TIP3    H1 9477   0.127   2.766   4.232
 3171TIP3    H2 9478   0.011   2.831   4.158
 3172TIP3   OH2 9479   0.862   2.150   2.122
 3172TIP3    H1 9480   0.912   2.168   2.201
 3172TIP3    H2 9481   0.806   2.076   2.145
 3173TIP3   OH2 9482   2.167   1.753   1.402
 3173TIP3    H1 9483   2.191   1.718   1.488
 3173TIP3    H2 9484   2.220   1.833   1.393
 3174TIP3   OH2 9485   4.481   5.773   5.322
 3174TIP3    H1 9486   4.406   5.736   5.276
 3174TIP3    H2 9487   4.444   5.845   5.373
 3175TIP3   OH2 9488   2.383   3.776   4.395
 3175TIP3    H1 9489   2.380   3.761   4.300
 3175TIP3    H2 9490   2.395   3.688   4.433
 3176TIP3   OH2 9491   6.195   0.959   4.608
 3176TIP3    H1 9492   6.171   1.027   4.546
 3176TIP3    H2 9493   6.188   1.000   4.694
 3177TIP3   OH2 9494   4.197   3.913   5.461
 3177TIP3    H1 9495   4.284   3.952   5.449
 3177TIP3    H2 9496   4.210   3.850   5.532
 3178TIP3   OH2 9497   5.366   1.310   3.044
 3178TIP3    H1 9498   5.302   1.278   3.107
 3178TIP3    H2 9499   5.330   1.394   3.013
 3179TIP3   OH2 9500   0.488   2.079   5.800
 3179TIP3    H1 9501   0.464   2.064   5.891
 3179TIP3    H2 9502   0.565   2.136   5.805
 3180TIP3   OH2 9503   1.220   3.628   5.561
 3180TIP3    H1 9504   1.189   3.557   5.616
 3180TIP3    H2 9505   1.294   3.590   5.513
 3181TIP3   OH2 9506   6.093   4.546   3.536
 3181TIP3    H1 9507   6.161   4.545   3.603
 3181TIP3    H2 9508   6.102   4.461   3.492
 3182TIP3   OH2 9509   0.424   5.326   4.460
 3182TIP3    H1 9510   0.454   5.382   4.532
 3182TIP3    H2 9511   0.402   5.243   4.503
 3183TIP3   OH2 9512   2.551   3.298   0.459
 3183TIP3    H1 9513   2.624   3.360   0.460
 3183TIP3    H2 9514   2.587   3.218   0.498
 3184TIP3   OH2 9515   0.796   5.866   1.720
 3184TIP3    H1 9516   0.849   5.863   1.799
 3184TIP3    H2 9517   0.793   5.958   1.696
 3185TIP3   OH2 9518   6.209   4.120   0.462
 3185TIP3    H1 9519   6.297   4.116   0.426
 3185TIP3    H2 9520   6.216   4.079   0.548
 3186TIP3   OH2 9521   5.149   5.597   3.707
 3186TIP3    H1 9522   5.219   5.659   3.685
 3186TIP3    H2 9523   5.096   5.643   3.773
 3187TIP3   OH2 9524   0.958   5.691   4.318
 3187TIP3    H1 9525   0.950   5.739   4.401
 3187TIP3    H2 9526   1.029   5.629   4.333
 3188TIP3   OH2 9527   6.879   2.950   1.528
 3188TIP3    H1 9528   6.816   2.979   1.593
 3188TIP3    H2 9529   6.836   2.965   1.444
 3189TIP3   OH2 9530   5.906   2.526   0.525
 3189TIP3    H1 9531   5.835   2.590   0.533
 3189TIP3    H2 9532   5.913   2.509   0.431
 3190TIP3   OH2 9533   5.355   4.957   5.209
 3190TIP3    H1 9534   5.296   4.881   5.217
 3190TIP3    H2 9535   5.442   4.922   5.229
 3191TIP3   OH2 9536   4.917   1.386   3.388
 3191TIP3    H1 9537   4.895   1.360   3.477
 3191TIP3    H2 9538   4.852   1.342   3.333
 3192TIP3   OH2 9539  -0.066   1.307   4.784
 3192TIP3    H1 9540  -0.012   1.352   4.718
 3192TIP3    H2 9541  -0.005   1.247   4.828
 3193TIP3   OH2 9542   6.762   4.243   1.458
 3193TIP3    H1 9543   6.733   4.159   1.423
 3193TIP3    H2 9544   6.690   4.303   1.438
 3194TIP3   OH2 9545   2.756   3.711   4.346
 3194TIP3    H1 9546   2.721   3.642   4.289
 3194TIP3    H2 9547   2.812   3.665   4.407
 3195TIP3   OH2 9548   0.849   2.832   1.393
 3195TIP3    H1 9549   0.864   2.921   1.361
 3195TIP3    H2 9550   0.765   2.837   1.440
 3196TIP3   OH2 9551   3.354   4.427   4.546
 3196TIP3    H1 9552   3.315   4.361   4.488
 3196TIP3    H2 9553   3.389   4.493   4.487
 3197TIP3   OH2 9554   0.157   1.749   2.573
 3197TIP3    H1 9555   0.242   1.710   2.552
 3197TIP3    H2 9556   0.139   1.721   2.663
 3198TIP3   OH2 9557   3.922   3.243   1.838
 3198TIP3    H1 9558   3.925   3.287   1.753
 3198TIP3    H2 9559   3.998   3.277   1.885
 3199TIP3   OH2 9560   2.421   5.924   0.609
 3199TIP3    H1 9561   2.470   5.855   0.653
 3199TIP3    H2 9562   2.452   5.921   0.519
 3200TIP3   OH2 9563   1.048   0.092   1.007
 3200TIP3    H1 9564   0.962   0.073   1.044
 3200TIP3    H2 9565   1.109   0.071   1.077
 3201TIP3   OH2 9566   4.966   4.980   4.338
 3201TIP3    H1 9567   4.881   4.994   4.297
 3201TIP3    H2 9568   4.951   4.909   4.400
 3202TIP3   OH2 9569   6.918   5.412   5.448
 3202TIP3    H1 9570   6.917   5.484   5.385
 3202TIP3    H2 9571   7.011   5.390   5.458
 3203TIP3   OH2 9572   3.700   4.815   3.036
 3203TIP3    H1 9573   3.676   4.791   2.947
 3203TIP3    H2 9574   3.793   4.798   3.042
 3204TIP3   OH2 9575   1.400   3.818   1.581
 3204TIP3    H1 9576   1.401   3.805   1.486
 3204TIP3    H2 9577   1.315   3.856   1.600
 3205TIP3   OH2 9578   2.569   5.587   2.418
 3205TIP3    H1 9579   2.644   5.533   2.392
 3205TIP3    H2 9580   2.494   5.545   2.377
 3206TIP3   OH2 9581   3.038   3.089   2.219
 3206TIP3    H1 9582   3.110   3.025   2.219
 3206TIP3    H2 9583   3.048   3.135   2.302
 3207TIP3   OH2 9584   6.103   6.685   0.394
 3207TIP3    H1 9585   6.084   6.764   0.344
 3207TIP3    H2 9586   6.070   6.613   0.340
 3208TIP3   OH2 9587   5.020   3.855   3.761
 3208TIP3    H1 9588   4.972   3.938   3.770
 3208TIP3    H2 9589   5.074   3.867   3.683
 3209TIP3   OH2 9590   1.931   6.255   3.060
 3209TIP3    H1 9591   1.838   6.248   3.037
 3209TIP3    H2 9592   1.975   6.272   2.977
 3210TIP3   OH2 9593   2.129   0.043   0.256
 3210TIP3    H1 9594   2.053   0.056   0.199
 3210TIP3    H2 9595   2.198   0.097   0.217
 3211TIP3   OH2 9596   7.184   3.036   3.760
 3211TIP3    H1 9597   7.188   2.975   3.834
 3211TIP3    H2 9598   7.202   3.121   3.799
 3212TIP3   OH2 9599   1.570   6.648   0.241
 3212TIP3    H1 9600   1.520   6.609   0.313
 3212TIP3    H2 9601   1.639   6.585   0.223
 3213TIP3   OH2 9602   0.022   4.215   2.276
 3213TIP3    H1 9603   0.038   4.281   2.209
 3213TIP3    H2 9604  -0.062   4.241   2.315
 3214TIP3   OH2 9605   2.389   1.550   5.686
 3214TIP3    H1 9606   2.349   1.532   5.601
 3214TIP3    H2 9607   2.404   1.464   5.724
 3215TIP3   OH2 9608   0.113   1.903   5.445
 3215TIP3    H1 9609   0.178   1.933   5.509
 3215TIP3    H2 9610   0.156   1.914   5.361
 3216TIP3   OH2 9611   2.033   0.872   0.644
 3216TIP3    H1 9612   1.956   0.822   0.671
 3216TIP3    H2 9613   1.999   0.959   0.621
 3217TIP3   OH2 9614   5.075   4.370   1.945
 3217TIP3    H1 9615   5.037   4.282   1.942
 3217TIP3    H2 9616   5.021   4.418   2.008
 3218TIP3   OH2 9617   2.076   2.218   5.121
 3218TIP3    H1 9618   2.107   2.145   5.174
 3218TIP3    H2 9619   2.101   2.296   5.171
 3219TIP3   OH2 9620   3.036   2.696   1.195
 3219TIP3    H1 9621   2.954   2.676   1.240
 3219TIP3    H2 9622   3.091   2.737   1.262
 3220TIP3   OH2 9623   4.660   1.065   5.196
 3220TIP3    H1 9624   4.566   1.080   5.190
 3220TIP3    H2 9625   4.685   1.099   5.282
 3221TIP3   OH2 9626   2.124   2.848   2.188
 3221TIP3    H1 9627   2.141   2.898   2.108
 3221TIP3    H2 9628   2.178   2.769   2.179
 3222TIP3   OH2 9629   5.369   6.761   1.789
 3222TIP3    H1 9630   5.427   6.804   1.726
 3222TIP3    H2 9631   5.428   6.722   1.853
 3223TIP3   OH2 9632   5.439   2.561   1.782
 3223TIP3    H1 9633   5.426   2.656   1.773
 3223TIP3    H2 9634   5.368   2.522   1.731
 3224TIP3   OH2 9635   5.719   5.554   1.083
 3224TIP3    H1 9636   5.672   5.492   1.028
 3224TIP3    H2 9637   5.812   5.532   1.072
 3225TIP3   OH2 9638   7.023   5.645   0.458
 3225TIP3    H1 9639   7.077   5.568   0.439
 3225TIP3    H2 9640   6.944   5.632   0.406
 3226TIP3   OH2 9641   5.223   3.750   2.286
 3226TIP3    H1 9642   5.180   3.682   2.233
 3226TIP3    H2 9643   5.297   3.705   2.327
 3227TIP3   OH2 9644   0.659   3.185   4.753
 3227TIP3    H1 9645   0.565   3.199   4.738
 3227TIP3    H2 9646   0.693   3.153   4.670
 3228TIP3   OH2 9647   6.424   0.939   3.008
 3228TIP3    H1 9648   6.333   0.918   3.030
 3228TIP3    H2 9649   6.475   0.894   3.075
 3229TIP3   OH2 9650   5.541   0.586   5.790
 3229TIP3    H1 9651   5.500   0.511   5.834
 3229TIP3    H2 9652   5.545   0.654   5.857
 3230TIP3   OH2 9653   0.176   1.533   0.962
 3230TIP3    H1 9654   0.117   1.603   0.991
 3230TIP3    H2 9655   0.216   1.568   0.883
 3231TIP3   OH2 9656   1.017   2.104   4.236
 3231TIP3    H1 9657   1.033   2.012   4.214
 3231TIP3    H2 9658   0.934   2.125   4.193
 3232TIP3   OH2 9659   5.949   1.797   5.386
 3232TIP3    H1 9660   5.860   1.831   5.394
 3232TIP3    H2 9661   5.987   1.809   5.473
 3233TIP3   OH2 9662   0.826   2.142   0.478
 3233TIP3    H1 9663   0.850   2.232   0.454
 3233TIP3    H2 9664   0.740   2.130   0.438
 3234TIP3   OH2 9665   5.903   1.485   4.450
 3234TIP3    H1 9666   5.841   1.510   4.381
 3234TIP3    H2 9667   5.965   1.427   4.406
 3235TIP3   OH2 9668   4.030   6.599   4.074
 3235TIP3    H1 9669   4.102   6.587   4.135
 3235TIP3    H2 9670   3.967   6.655   4.120
 3236TIP3   OH2 9671   3.751   6.226   3.390
 3236TIP3    H1 9672   3.662   6.193   3.392
 3236TIP3    H2 9673   3.768   6.246   3.298
 3237TIP3   OH2 9674   0.225   2.539   0.727
 3237TIP3    H1 9675   0.147   2.583   0.759
 3237TIP3    H2 9676   0.294   2.563   0.789
 3238TIP3   OH2 9677   0.521   4.928   1.407
 3238TIP3    H1 9678   0.516   5.003   1.467
 3238TIP3    H2 9679   0.612   4.901   1.411
 3239TIP3   OH2 9680   6.708   4.445   2.349
 3239TIP3    H1 9681   6.669   4.457   2.262
 3239TIP3    H2 9682   6.659   4.505   2.406
 3240TIP3   OH2 9683   6.933   2.645   4.771
 3240TIP3    H1 9684   6.855   2.613   4.815
 3240TIP3    H2 9685   6.986   2.685   4.840
 3241TIP3   OH2 9686   6.601   2.346   5.304
 3241TIP3    H1 9687   6.566   2.289   5.235
 3241TIP3    H2 9688   6.676   2.390   5.264
 3242TIP3   OH2 9689   3.134   6.249   1.331
 3242TIP3    H1 9690   3.184   6.186   1.280
 3242TIP3    H2 9691   3.045   6.242   1.297
 3243TIP3   OH2 9692   6.345   3.674   5.477
 3243TIP3    H1 9693   6.311   3.759   5.449
 3243TIP3    H2 9694   6.440   3.685   5.478
 3244TIP3   OH2 9695   3.515   0.789   1.895
 3244TIP3    H1 9696   3.551   0.806   1.808
 3244TIP3    H2 9697   3.499   0.695   1.896
 3245TIP3   OH2 9698   1.435   1.651   3.299
 3245TIP3    H1 9699   1.504   1.683   3.241
 3245TIP3    H2 9700   1.474   1.576   3.344
 3246TIP3   OH2 9701   3.480   6.449   3.398
 3246TIP3    H1 9702   3.423   6.513   3.355
 3246TIP3    H2 9703   3.469   6.369   3.348
 3247TIP3   OH2 9704   3.818   0.252   4.598
 3247TIP3    H1 9705   3.794   0.338   4.633
 3247TIP3    H2 9706   3.780   0.250   4.510
 3248TIP3   OH2 9707   5.474   2.943   5.615
 3248TIP3    H1 9708   5.564   2.961   5.586
 3248TIP3    H2 9709   5.486   2.895   5.697
 3249TIP3   OH2 9710   7.110   3.369   1.359
 3249TIP3    H1 9711   7.127   3.393   1.268
 3249TIP3    H2 9712   7.017   3.389   1.372
 3250TIP3   OH2 9713   1.367   4.593   2.675
 3250TIP3    H1 9714   1.416   4.563   2.599
 3250TIP3    H2 9715   1.412   4.554   2.750
 3251TIP3   OH2 9716   1.144   3.910   1.608
 3251TIP3    H1 9717   1.144   3.929   1.702
 3251TIP3    H2 9718   1.063   3.951   1.575
 3252TIP3   OH2 9719   3.735   6.185   4.291
 3252TIP3    H1 9720   3.669   6.224   4.233
 3252TIP3    H2 9721   3.732   6.239   4.370
 3253TIP3   OH2 9722   4.530   5.860   1.556
 3253TIP3    H1 9723   4.506   5.801   1.484
 3253TIP3    H2 9724   4.604   5.818   1.599
 3254TIP3   OH2 9725   3.666   1.054   0.104
 3254TIP3    H1 9726   3.632   1.021   0.021
 3254TIP3    H2 9727   3.711   0.979   0.143
 3255TIP3   OH2 9728   5.505   0.355   1.905
 3255TIP3    H1 9729   5.469   0.319   1.824
 3255TIP3    H2 9730   5.581   0.406   1.877
 3256TIP3   OH2 9731   6.088   2.196   1.761
 3256TIP3    H1 9732   5.996   2.184   1.785
 3256TIP3    H2 9733   6.110   2.283   1.795
 3257TIP3   OH2 9734   1.181   3.126   2.084
 3257TIP3    H1 9735   1.246   3.056   2.081
 3257TIP3    H2 9736   1.110   3.090   2.137
 3258TIP3   OH2 9737   3.609   3.604   5.051
 3258TIP3    H1 9738   3.523   3.564   5.061
 3258TIP3    H2 9739   3.649   3.558   4.977
 3259TIP3   OH2 9740   0.661   6.222   4.860
 3259TIP3    H1 9741   0.567   6.232   4.848
 3259TIP3    H2 9742   0.683   6.140   4.815
 3260TIP3   OH2 9743   0.364   0.510   1.471
 3260TIP3    H1 9744   0.299   0.579   1.485
 3260TIP3    H2 9745   0.448   0.553   1.485
 3261TIP3   OH2 9746   5.361   3.356   3.000
 3261TIP3    H1 9747   5.364   3.313   3.086
 3261TIP3    H2 9748   5.319   3.293   2.943
 3262TIP3   OH2 9749   3.971   3.702   1.005
 3262TIP3    H1 9750   4.002   3.690   0.915
 3262TIP3    H2 9751   4.047   3.682   1.059
 3263TIP3   OH2 9752   2.520   0.255   3.963
 3263TIP3    H1 9753   2.470   0.331   3.932
 3263TIP3    H2 9754   2.467   0.219   4.035
 3264TIP3   OH2 9755   5.838   1.319   2.116
 3264TIP3    H1 9756   5.875   1.391   2.167
 3264TIP3    H2 9757   5.776   1.361   2.056
 3265TIP3   OH2 9758   2.094   6.386   0.758
 3265TIP3    H1 9759   2.059   6.392   0.669
 3265TIP3    H2 9760   2.188   6.400   0.748
 3266TIP3   OH2 9761   1.038   3.337   3.655
 3266TIP3    H1 9762   1.086   3.256   3.670
 3266TIP3    H2 9763   0.946   3.311   3.655
 3267TIP3   OH2 9764   5.414   3.010   1.195
 3267TIP3    H1 9765   5.321   3.020   1.215
 3267TIP3    H2 9766   5.437   3.087   1.144
 3268TIP3   OH2 9767   1.473   1.449   3.483
 3268TIP3    H1 9768   1.458   1.512   3.553
 3268TIP3    H2 9769   1.489   1.366   3.528
 3269TIP3   OH2 9770   5.758   3.069   5.794
 3269TIP3    H1 9771   5.710   3.082   5.712
 3269TIP3    H2 9772   5.832   3.013   5.769
 3270TIP3   OH2 9773   3.526   4.183   4.417
 3270TIP3    H1 9774   3.585   4.131   4.362
 3270TIP3    H2 9775   3.446   4.131   4.422
 3271TIP3   OH2 9776   0.065   3.403   1.600
 3271TIP3    H1 9777   0.132   3.458   1.559
 3271TIP3    H2 9778   0.020   3.362   1.526
 3272TIP3   OH2 9779   4.418   4.403   4.972
 3272TIP3    H1 9780   4.337   4.364   5.004
 3272TIP3    H2 9781   4.485   4.336   4.988
 3273TIP3   OH2 9782   1.202   2.167   0.379
 3273TIP3    H1 9783   1.150   2.136   0.305
 3273TIP3    H2 9784   1.248   2.244   0.345
 3274TIP3   OH2 9785   4.503   6.112   4.516
 3274TIP3    H1 9786   4.476   6.094   4.426
 3274TIP3    H2 9787   4.482   6.032   4.564
 3275TIP3   OH2 9788   6.140   5.876   4.699
 3275TIP3    H1 9789   6.142   5.792   4.745
 3275TIP3    H2 9790   6.172   5.939   4.764
 3276TIP3   OH2 9791   3.642   3.057   0.797
 3276TIP3    H1 9792   3.562   3.062   0.745
 3276TIP3    H2 9793   3.696   3.129   0.766
 3277TIP3   OH2 9794   0.447   1.974   0.606
 3277TIP3    H1 9795   0.395   2.054   0.604
 3277TIP3    H2 9796   0.455   1.953   0.699
 3278TIP3   OH2 9797   1.024   2.737   2.984
 3278TIP3    H1 9798   1.079   2.728   3.062
 3278TIP3    H2 9799   0.953   2.796   3.011
 3279TIP3   OH2 9800   6.314   3.134   5.368
 3279TIP3    H1 9801   6.371   3.210   5.380
 3279TIP3    H2 9802   6.362   3.075   5.310
 3280TIP3   OH2 9803   0.350   5.269   2.792
 3280TIP3    H1 9804   0.285   5.259   2.861
 3280TIP3    H2 9805   0.303   5.244   2.712
 3281TIP3   OH2 9806   4.820   3.608   4.986
 3281TIP3    H1 9807   4.887   3.599   4.918
 3281TIP3    H2 9808   4.752   3.547   4.960
 3282TIP3   OH2 9809   2.552   6.443   0.620
 3282TIP3    H1 9810   2.596   6.505   0.562
 3282TIP3    H2 9811   2.472   6.419   0.574
 3283TIP3   OH2 9812   5.794   5.305   5.453
 3283TIP3    H1 9813   5.862   5.239   5.460
 3283TIP3    H2 9814   5.752   5.288   5.368
 3284TIP3   OH2 9815   4.552   0.263   5.406
 3284TIP3    H1 9816   4.583   0.240   5.493
 3284TIP3    H2 9817   4.631   0.264   5.352
 3285TIP3   OH2 9818   0.143   6.079   5.054
 3285TIP3    H1 9819   0.155   6.079   4.959
 3285TIP3    H2 9820   0.112   5.991   5.074
 3286TIP3   OH2 9821   1.513   0.112   1.032
 3286TIP3    H1 9822   1.540   0.203   1.045
 3286TIP3    H2 9823   1.422   0.109   1.061
 3287TIP3   OH2 9824   3.986   4.245   0.450
 3287TIP3    H1 9825   4.079   4.242   0.473
 3287TIP3    H2 9826   3.984   4.287   0.364
 3288TIP3   OH2 9827   4.090   3.811   3.686
 3288TIP3    H1 9828   4.158   3.871   3.654
 3288TIP3    H2 9829   4.138   3.746   3.737
 3289TIP3   OH2 9830   3.746   6.176   2.846
 3289TIP3    H1 9831   3.666   6.211   2.885
 3289TIP3    H2 9832   3.720   6.092   2.808
 3290TIP3   OH2 9833   5.412   1.962   2.510
 3290TIP3    H1 9834   5.499   2.002   2.510
 3290TIP3    H2 9835   5.353   2.033   2.535
 3291TIP3   OH2 9836   0.515   5.826   3.691
 3291TIP3    H1 9837   0.594   5.815   3.639
 3291TIP3    H2 9838   0.491   5.918   3.680
 3292TIP3   OH2 9839   4.697   5.285   4.550
 3292TIP3    H1 9840   4.736   5.373   4.547
 3292TIP3    H2 9841   4.633   5.289   4.621
 3293TIP3   OH2 9842   6.391   5.688   3.661
 3293TIP3    H1 9843   6.383   5.654   3.572
 3293TIP3    H2 9844   6.359   5.778   3.655
 3294TIP3   OH2 9845   2.026   2.006   0.753
 3294TIP3    H1 9846   1.993   2.094   0.766
 3294TIP3    H2 9847   2.070   1.984   0.836
 3295TIP3   OH2 9848   3.052   2.026   0.146
 3295TIP3    H1 9849   3.137   1.987   0.169
 3295TIP3    H2 9850   3.007   1.957   0.096
 3296TIP3   OH2 9851   4.516   3.202   0.352
 3296TIP3    H1 9852   4.570   3.130   0.386
 3296TIP3    H2 9853   4.429   3.184   0.387
 3297TIP3   OH2 9854   2.315   1.170   0.677
 3297TIP3    H1 9855   2.323   1.078   0.651
 3297TIP3    H2 9856   2.371   1.178   0.754
 3298TIP3   OH2 9857   1.862   4.746   2.351
 3298TIP3    H1 9858   1.834   4.831   2.384
 3298TIP3    H2 9859   1.899   4.702   2.427
 3299TIP3   OH2 9860   1.123   6.095   0.504
 3299TIP3    H1 9861   1.106   6.030   0.572
 3299TIP3    H2 9862   1.182   6.158   0.545
 3300TIP3   OH2 9863   4.593   0.041   3.616
 3300TIP3    H1 9864   4.597   0.056   3.522
 3300TIP3    H2 9865   4.501   0.054   3.639
 3301TIP3   OH2 9866   2.936   3.239   3.416
 3301TIP3    H1 9867   2.854   3.283   3.438
 3301TIP3    H2 9868   2.959   3.190   3.494
 3302TIP3   OH2 9869   2.607   0.132   2.616
 3302TIP3    H1 9870   2.661   0.053   2.627
 3302TIP3    H2 9871   2.653   0.184   2.550
 3303TIP3   OH2 9872   1.716   3.657   4.563
 3303TIP3    H1 9873   1.704   3.746   4.528
 3303TIP3    H2 9874   1.759   3.670   4.647
 3304TIP3   OH2 9875   2.154   2.003   3.413
 3304TIP3    H1 9876   2.158   2.089   3.455
 3304TIP3    H2 9877   2.080   1.960   3.454
 3305TIP3   OH2 9878   6.749   6.498   3.345
 3305TIP3    H1 9879   6.657   6.506   3.372
 3305TIP3    H2 9880   6.768   6.580   3.300
 3306TIP3   OH2 9881   4.480   2.565   3.762
 3306TIP3    H1 9882   4.563   2.550   3.809
 3306TIP3    H2 9883   4.414   2.526   3.819
 3307TIP3   OH2 9884   6.019   5.018   2.306
 3307TIP3    H1 9885   6.062   5.047   2.225
 3307TIP3    H2 9886   6.071   4.944   2.336
 3308TIP3   OH2 9887   6.497   0.141   5.306
 3308TIP3    H1 9888   6.552   0.114   5.379
 3308TIP3    H2 9889   6.410   0.108   5.326
 3309TIP3   OH2 9890   3.656   3.663   0.697
 3309TIP3    H1 9891   3.615   3.698   0.776
 3309TIP3    H2 9892   3.683   3.740   0.647
 3310TIP3   OH2 9893   7.051   5.187   5.060
 3310TIP3    H1 9894   7.026   5.249   4.992
 3310TIP3    H2 9895   6.989   5.203   5.131
 3311TIP3   OH2 9896   3.498   0.113   4.489
 3311TIP3    H1 9897   3.501   0.208   4.488
 3311TIP3    H2 9898   3.499   0.087   4.397
 3312TIP3   OH2 9899   2.335   4.169   2.914
 3312TIP3    H1 9900   2.422   4.200   2.940
 3312TIP3    H2 9901   2.301   4.236   2.855
 3313TIP3   OH2 9902   0.515   5.243   0.102
 3313TIP3    H1 9903   0.526   5.186   0.178
 3313TIP3    H2 9904   0.423   5.269   0.104
 3314TIP3   OH2 9905   6.643   4.188   3.136
 3314TIP3    H1 9906   6.640   4.184   3.040
 3314TIP3    H2 9907   6.570   4.246   3.159
 3315TIP3   OH2 9908   7.095   5.479   1.396
 3315TIP3    H1 9909   7.003   5.487   1.420
 3315TIP3    H2 9910   7.115   5.386   1.407
 3316TIP3   OH2 9911   7.044   2.020   2.729
 3316TIP3    H1 9912   7.001   2.032   2.813
 3316TIP3    H2 9913   7.070   1.928   2.728
 3317TIP3   OH2 9914   2.757   0.079   5.678
 3317TIP3    H1 9915   2.836   0.131   5.695
 3317TIP3    H2 9916   2.756   0.013   5.747
 3318TIP3   OH2 9917   2.956   5.788   2.521
 3318TIP3    H1 9918   2.903   5.855   2.566
 3318TIP3    H2 9919   3.046   5.816   2.536
 3319TIP3   OH2 9920   4.476   5.971   2.763
 3319TIP3    H1 9921   4.382   5.963   2.750
 3319TIP3    H2 9922   4.490   6.063   2.786
 3320TIP3   OH2 9923   4.443   3.282   2.867
 3320TIP3    H1 9924   4.414   3.248   2.782
 3320TIP3    H2 9925   4.444   3.206   2.924
 3321TIP3   OH2 9926   2.796   5.154   0.484
 3321TIP3    H1 9927   2.877   5.195   0.515
 3321TIP3    H2 9928   2.823   5.066   0.455
 3322TIP3   OH2 9929   3.526   0.807   5.387
 3322TIP3    H1 9930   3.570   0.781   5.306
 3322TIP3    H2 9931   3.474   0.883   5.363
 3323TIP3   OH2 9932   4.350   3.096   1.210
 3323TIP3    H1 9933   4.302   3.171   1.246
 3323TIP3    H2 9934   4.286   3.047   1.160
 3324TIP3   OH2 9935   7.085   2.272   4.401
 3324TIP3    H1 9936   7.138   2.330   4.456
 3324TIP3    H2 9937   7.132   2.268   4.318
 3325TIP3   OH2 9938   4.681   1.897   5.810
 3325TIP3    H1 9939   4.767   1.893   5.768
 3325TIP3    H2 9940   4.688   1.968   5.873
 3326TIP3   OH2 9941   6.207   0.463   4.181
 3326TIP3    H1 9942   6.118   0.459   4.149
 3326TIP3    H2 9943   6.257   0.405   4.124
 3327TIP3   OH2 9944   1.725   0.304   1.121
 3327TIP3    H1 9945   1.732   0.288   1.215
 3327TIP3    H2 9946   1.814   0.293   1.088
 3328TIP3   OH2 9947   1.650   1.617   5.852
 3328TIP3    H1 9948   1.555   1.622   5.844
 3328TIP3    H2 9949   1.682   1.626   5.763
 3329TIP3   OH2 9950   6.604   3.418   2.843
 3329TIP3    H1 9951   6.616   3.427   2.748
 3329TIP3    H2 9952   6.535   3.352   2.852
 3330TIP3   OH2 9953   3.730   5.414   3.568
 3330TIP3    H1 9954   3.665   5.437   3.635
 3330TIP3    H2 9955   3.758   5.326   3.593
 3331TIP3   OH2 9956   4.216   1.969   4.193
 3331TIP3    H1 9957   4.181   2.053   4.222
 3331TIP3    H2 9958   4.158   1.942   4.122
 3332TIP3   OH2 9959   0.724   2.037   4.825
 3332TIP3    H1 9960   0.818   2.054   4.836
 3332TIP3    H2 9961   0.681   2.096   4.886
 3333TIP3   OH2 9962   4.547   0.316   5.027
 3333TIP3    H1 9963   4.600   0.386   5.065
 3333TIP3    H2 9964   4.598   0.287   4.951
 3334TIP3   OH2 9965   2.132   0.523   3.105
 3334TIP3    H1 9966   2.206   0.550   3.051
 3334TIP3    H2 9967   2.064   0.499   3.043
 3335TIP3   OH2 9968   1.896   0.032   3.463
 3335TIP3    H1 9969   1.844   0.105   3.496
 3335TIP3    H2 9970   1.892   0.040   3.368
 3336TIP3   OH2 9971   1.428   3.966   1.988
 3336TIP3    H1 9972   1.338   3.955   2.017
 3336TIP3    H2 9973   1.462   4.039   2.040
 3337TIP3   OH2 9974   6.962   4.937   5.232
 3337TIP3    H1 9975   7.037   4.988   5.263
 3337TIP3    H2 9976   6.887   4.994   5.246
 3338TIP3   OH2 9977   3.083   1.293   0.540
 3338TIP3    H1 9978   3.061   1.212   0.493
 3338TIP3    H2 9979   3.040   1.362   0.490
 3339TIP3   OH2 9980   5.032   1.432   4.408
 3339TIP3    H1 9981   4.953   1.476   4.375
 3339TIP3    H2 9982   5.005   1.395   4.492
 3340TIP3   OH2 9983   6.695   4.715   4.435
 3340TIP3    H1 9984   6.780   4.677   4.458
 3340TIP3    H2 9985   6.647   4.645   4.392
 3341TIP3   OH2 9986   3.235   6.680   0.824
 3341TIP3    H1 9987   3.317   6.648   0.785
 3341TIP3    H2 9988   3.252   6.773   0.841
 3342TIP3   OH2 9989   1.433   5.791   3.838
 3342TIP3    H1 9990   1.464   5.774   3.926
 3342TIP3    H2 9991   1.388   5.711   3.811
 3343TIP3   OH2 9992   3.207   2.232   1.623
 3343TIP3    H1 9993   3.161   2.304   1.580
 3343TIP3    H2 9994   3.251   2.185   1.552
 3344TIP3   OH2 9995   5.999   1.189   1.488
 3344TIP3    H1 9996   5.974   1.139   1.566
 3344TIP3    H2 9997   6.024   1.275   1.521
 3345TIP3   OH2 9998   2.822   1.856   5.673
 3345TIP3    H1 9999   2.831   1.761   5.673
 3345TIP3    H210000   2.872   1.885   5.596
 3346TIP3   OH210001   2.999   4.240   3.523
 3346TIP3    H110002   3.067   4.177   3.501
 3346TIP3    H210003   3.036   4.291   3.595
 3347TIP3   OH210004   4.688   2.392   1.146
 3347TIP3    H110005   4.623   2.406   1.078
 3347TIP3    H210006   4.692   2.476   1.192
 3348TIP3   OH210007   2.560   5.326   2.622
 3348TIP3    H110008   2.498   5.341   2.693
 3348TIP3    H210009   2.505   5.290   2.551
 3349TIP3   OH210010   3.217   2.039   2.731
 3349TIP3    H110011   3.172   1.958   2.755
 3349TIP3    H210012   3.163   2.076   2.661
 3350TIP3   OH210013   7.014   1.049   2.785
 3350TIP3    H110014   7.066   1.082   2.859
 3350TIP3    H210015   7.071   0.986   2.742
 3351TIP3   OH210016   3.365   5.845   4.523
 3351TIP3    H110017   3.379   5.845   4.617
 3351TIP3    H210018   3.447   5.812   4.486
 3352TIP3   OH210019   6.501   0.117   3.261
 3352TIP3    H110020   6.454   0.163   3.191
 3352TIP3    H210021   6.451   0.137   3.340
 3353TIP3   OH210022   0.482   4.246   2.783
 3353TIP3    H110023   0.506   4.169   2.836
 3353TIP3    H210024   0.554   4.307   2.796
 3354TIP3   OH210025   3.581   2.444   3.334
 3354TIP3    H110026   3.529   2.441   3.414
 3354TIP3    H210027   3.619   2.532   3.333
 3355TIP3   OH210028   3.231   2.522   1.514
 3355TIP3    H110029   3.314   2.501   1.556
 3355TIP3    H210030   3.175   2.552   1.586
 3356TIP3   OH210031   1.374   0.465   5.421
 3356TIP3    H110032   1.341   0.384   5.459
 3356TIP3    H210033   1.329   0.534   5.469
 3357TIP3   OH210034   4.335   0.230   5.143
 3357TIP3    H110035   4.279   0.304   5.167
 3357TIP3    H210036   4.412   0.271   5.103
 3358TIP3   OH210037   5.809   3.291   1.193
 3358TIP3    H110038   5.743   3.338   1.244
 3358TIP3    H210039   5.852   3.233   1.256
 3359TIP3   OH210040   7.067   2.439   1.946
 3359TIP3    H110041   6.976   2.427   1.973
 3359TIP3    H210042   7.061   2.476   1.858
 3360TIP3   OH210043   3.097   3.773   3.333
 3360TIP3    H110044   3.013   3.816   3.353
 3360TIP3    H210045   3.078   3.680   3.341
 3361TIP3   OH210046   1.899   3.307   2.723
 3361TIP3    H110047   1.951   3.380   2.688
 3361TIP3    H210048   1.892   3.326   2.816
 3362TIP3   OH210049   1.528   2.252   5.876
 3362TIP3    H110050   1.456   2.190   5.884
 3362TIP3    H210051   1.487   2.334   5.849
 3363TIP3   OH210052   0.771   1.663   3.293
 3363TIP3    H110053   0.864   1.641   3.298
 3363TIP3    H210054   0.746   1.682   3.384
 3364TIP3   OH210055   0.074   4.823   2.049
 3364TIP3    H110056   0.120   4.903   2.075
 3364TIP3    H210057   0.073   4.826   1.953
 3365TIP3   OH210058   6.432   0.878   0.153
 3365TIP3    H110059   6.366   0.854   0.217
 3365TIP3    H210060   6.397   0.847   0.069
 3366TIP3   OH210061   1.277   2.334   5.255
 3366TIP3    H110062   1.366   2.343   5.289
 3366TIP3    H210063   1.261   2.240   5.254
 3367TIP3   OH210064   0.419   3.804   4.626
 3367TIP3    H110065   0.351   3.817   4.560
 3367TIP3    H210066   0.499   3.836   4.586
 3368TIP3   OH210067   2.640   3.167   2.711
 3368TIP3    H110068   2.687   3.094   2.752
 3368TIP3    H210069   2.670   3.166   2.620
 3369TIP3   OH210070   2.520   5.750   3.527
 3369TIP3    H110071   2.488   5.660   3.529
 3369TIP3    H210072   2.458   5.800   3.580
 3370TIP3   OH210073   6.311   1.809   0.150
 3370TIP3    H110074   6.330   1.818   0.057
 3370TIP3    H210075   6.222   1.773   0.153
 3371TIP3   OH210076   6.722   2.708   0.689
 3371TIP3    H110077   6.749   2.635   0.632
 3371TIP3    H210078   6.796   2.721   0.748
 3372TIP3   OH210079   3.448   2.495   2.301
 3372TIP3    H110080   3.443   2.589   2.318
 3372TIP3    H210081   3.434   2.488   2.206
 3373TIP3   OH210082   5.653   3.077   2.756
 3373TIP3    H110083   5.575   3.116   2.717
 3373TIP3    H210084   5.696   3.149   2.802
 3374TIP3   OH210085   6.295   4.368   4.307
 3374TIP3    H110086   6.237   4.294   4.289
 3374TIP3    H210087   6.236   4.443   4.319
 3375TIP3   OH210088   2.247   5.788   4.423
 3375TIP3    H110089   2.336   5.823   4.425
 3375TIP3    H210090   2.215   5.799   4.513
 3376TIP3   OH210091   5.427   5.882   1.551
 3376TIP3    H110092   5.434   5.920   1.463
 3376TIP3    H210093   5.411   5.957   1.608
 3377TIP3   OH210094   3.739   5.790   2.132
 3377TIP3    H110095   3.760   5.796   2.225
 3377TIP3    H210096   3.652   5.829   2.125
 3378TIP3   OH210097   6.891   2.194   1.091
 3378TIP3    H110098   6.874   2.100   1.095
 3378TIP3    H210099   6.921   2.216   1.179
 3379TIP3   OH210100   5.364   4.513   1.135
 3379TIP3    H110101   5.308   4.504   1.212
 3379TIP3    H210102   5.303   4.526   1.062
 3380TIP3   OH210103   0.920   4.667   3.570
 3380TIP3    H110104   0.971   4.589   3.548
 3380TIP3    H210105   0.968   4.739   3.530
 3381TIP3   OH210106   0.047   1.236   2.045
 3381TIP3    H110107   0.079   1.146   2.055
 3381TIP3    H210108  -0.048   1.226   2.040
 3382TIP3   OH210109   5.446   0.968   0.467
 3382TIP3    H110110   5.453   1.062   0.482
 3382TIP3    H210111   5.392   0.937   0.540
 3383TIP3   OH210112   7.154   4.597   4.006
 3383TIP3    H110113   7.095   4.646   4.063
 3383TIP3    H210114   7.198   4.663   3.953
 3384TIP3   OH210115   3.995   5.374   4.371
 3384TIP3    H110116   4.000   5.286   4.409
 3384TIP3    H210117   4.086   5.404   4.369
 3385TIP3   OH210118   5.168   6.504   0.782
 3385TIP3    H110119   5.216   6.549   0.852
 3385TIP3    H210120   5.236   6.467   0.726
 3386TIP3   OH210121   2.437   2.577   2.842
 3386TIP3    H110122   2.532   2.579   2.857
 3386TIP3    H210123   2.427   2.553   2.750
 3387TIP3   OH210124   0.938   2.219   2.387
 3387TIP3    H110125   0.998   2.151   2.416
 3387TIP3    H210126   0.864   2.214   2.449
 3388TIP3   OH210127   0.921   5.498   4.660
 3388TIP3    H110128   0.900   5.569   4.600
 3388TIP3    H210129   1.013   5.511   4.682
 3389TIP3   OH210130   1.676   4.234   0.001
 3389TIP3    H110131   1.660   4.151  -0.042
 3389TIP3    H210132   1.592   4.258   0.041
 3390TIP3   OH210133   5.839  -0.015   2.489
 3390TIP3    H110134   5.777   0.055   2.509
 3390TIP3    H210135   5.923   0.017   2.522
 3391TIP3   OH210136   5.968   4.602   4.080
 3391TIP3    H110137   5.879   4.626   4.105
 3391TIP3    H210138   5.956   4.534   4.013
 3392TIP3   OH210139   4.694   1.098   0.315
 3392TIP3    H110140   4.727   1.013   0.286
 3392TIP3    H210141   4.599   1.089   0.312
 3393TIP3   OH210142   2.996   1.904   3.816
 3393TIP3    H110143   2.996   1.971   3.747
 3393TIP3    H210144   3.084   1.866   3.812
 3394TIP3   OH210145   3.870   3.753   5.354
 3394TIP3    H110146   3.938   3.751   5.287
 3394TIP3    H210147   3.788   3.755   5.304
 3395TIP3   OH210148   2.082   4.817   1.072
 3395TIP3    H110149   1.998   4.854   1.099
 3395TIP3    H210150   2.091   4.737   1.122
 3396TIP3   OH210151   6.828   0.152   1.321
 3396TIP3    H110152   6.877   0.221   1.366
 3396TIP3    H210153   6.883   0.074   1.332
 3397TIP3   OH210154   6.560   2.764   3.471
 3397TIP3    H110155   6.620   2.717   3.530
 3397TIP3    H210156   6.605   2.846   3.452
 3398TIP3   OH210157   1.989   1.511   5.526
 3398TIP3    H110158   2.069   1.482   5.482
 3398TIP3    H210159   2.009   1.503   5.620
 3399TIP3   OH210160   3.221   2.308   5.307
 3399TIP3    H110161   3.200   2.291   5.216
 3399TIP3    H210162   3.317   2.318   5.308
 3400TIP3   OH210163   1.053   4.426   3.997
 3400TIP3    H110164   1.084   4.509   3.960
 3400TIP3    H210165   0.958   4.434   3.998
 3401TIP3   OH210166   7.112   2.368   4.113
 3401TIP3    H110167   7.072   2.454   4.130
 3401TIP3    H210168   7.204   2.387   4.097
 3402TIP3   OH210169   4.550   2.655   0.821
 3402TIP3    H110170   4.547   2.566   0.783
 3402TIP3    H210171   4.628   2.694   0.782
 3403TIP3   OH210172   2.710   4.187   4.153
 3403TIP3    H110173   2.718   4.092   4.152
 3403TIP3    H210174   2.644   4.205   4.219
 3404TIP3   OH210175   1.235   3.628   1.810
 3404TIP3    H110176   1.312   3.679   1.788
 3404TIP3    H210177   1.183   3.685   1.867
 3405TIP3   OH210178   0.490   3.545   0.283
 3405TIP3    H110179   0.569   3.535   0.230
 3405TIP3    H210180   0.500   3.630   0.326
 3406TIP3   OH210181   2.797   0.301   2.503
 3406TIP3    H110182   2.823   0.393   2.511
 3406TIP3    H210183   2.798   0.284   2.409
 3407TIP3   OH210184   5.742   0.169   3.861
 3407TIP3    H110185   5.736   0.224   3.939
 3407TIP3    H210186   5.725   0.228   3.788
 3408TIP3   OH210187   2.234   6.640   4.440
 3408TIP3    H110188   2.176   6.565   4.448
 3408TIP3    H210189   2.186   6.703   4.387
 3409TIP3   OH210190   4.154   2.557   2.742
 3409TIP3    H110191   4.233   2.505   2.729
 3409TIP3    H210192   4.102   2.539   2.663
 3410TIP3   OH210193   0.364   3.357   2.068
 3410TIP3    H110194   0.300   3.311   2.013
 3410TIP3    H210195   0.324   3.361   2.154
 3411TIP3   OH210196   4.679   6.683   3.718
 3411TIP3    H110197   4.668   6.633   3.638
 3411TIP3    H210198   4.660   6.621   3.788
 3412TIP3   OH210199   5.467   2.347   3.020
 3412TIP3    H110200   5.446   2.388   3.103
 3412TIP3    H210201   5.522   2.411   2.974
 3413TIP3   OH210202   5.636   5.530   3.148
 3413TIP3    H110203   5.649   5.621   3.174
 3413TIP3    H210204   5.578   5.534   3.072
 3414TIP3   OH210205   2.681   0.571   1.327
 3414TIP3    H110206   2.716   0.620   1.252
 3414TIP3    H210207   2.602   0.619   1.352
 3415TIP3   OH210208   0.332   3.676   3.569
 3415TIP3    H110209   0.399   3.738   3.541
 3415TIP3    H210210   0.342   3.602   3.508
 3416TIP3   OH210211   0.247   4.776   5.747
 3416TIP3    H110212   0.315   4.719   5.712
 3416TIP3    H210213   0.166   4.726   5.738
 3417TIP3   OH210214   3.412   0.263   1.430
 3417TIP3    H110215   3.464   0.210   1.490
 3417TIP3    H210216   3.464   0.267   1.350
 3418TIP3   OH210217   4.661   5.689   5.674
 3418TIP3    H110218   4.647   5.694   5.768
 3418TIP3    H210219   4.751   5.658   5.664
 3419TIP3   OH210220   3.765   0.836   0.247
 3419TIP3    H110221   3.835   0.840   0.311
 3419TIP3    H210222   3.768   0.747   0.213
 3420TIP3   OH210223   0.670   5.562   5.924
 3420TIP3    H110224   0.652   5.568   5.830
 3420TIP3    H210225   0.621   5.485   5.953
 3421TIP3   OH210226   5.702   3.083   5.531
 3421TIP3    H110227   5.754   3.163   5.536
 3421TIP3    H210228   5.655   3.091   5.447
 3422TIP3   OH210229   2.096   5.390   0.314
 3422TIP3    H110230   2.089   5.460   0.249
 3422TIP3    H210231   2.157   5.327   0.275
 3423TIP3   OH210232   2.939   6.666   1.362
 3423TIP3    H110233   3.013   6.638   1.417
 3423TIP3    H210234   2.967   6.644   1.273
 3424TIP3   OH210235   3.222   5.192   4.369
 3424TIP3    H110236   3.172   5.179   4.289
 3424TIP3    H210237   3.220   5.286   4.384
 3425TIP3   OH210238   2.371   0.329   4.672
 3425TIP3    H110239   2.369   0.340   4.577
 3425TIP3    H210240   2.432   0.256   4.686
 3426TIP3   OH210241   5.215   3.539   3.196
 3426TIP3    H110242   5.186   3.558   3.285
 3426TIP3    H210243   5.301   3.499   3.208
 3427TIP3   OH210244   6.312   1.208   1.887
 3427TIP3    H110245   6.216   1.209   1.885
 3427TIP3    H210246   6.338   1.239   1.801
 3428TIP3   OH210247   7.054   1.050   0.314
 3428TIP3    H110248   6.990   1.010   0.374
 3428TIP3    H210249   7.064   0.985   0.245
 3429TIP3   OH210250   0.836   3.670   0.519
 3429TIP3    H110251   0.931   3.682   0.511
 3429TIP3    H210252   0.825   3.611   0.594
 3430TIP3   OH210253   3.678   0.744   4.821
 3430TIP3    H110254   3.709   0.793   4.897
 3430TIP3    H210255   3.629   0.808   4.769
 3431TIP3   OH210256   0.122   0.953   0.944
 3431TIP3    H110257   0.190   0.974   1.008
 3431TIP3    H210258   0.144   1.006   0.867
 3432TIP3   OH210259   6.864   6.305   1.448
 3432TIP3    H110260   6.920   6.373   1.486
 3432TIP3    H210261   6.801   6.353   1.393
 3433TIP3   OH210262   4.260   1.902   1.768
 3433TIP3    H110263   4.326   1.849   1.722
 3433TIP3    H210264   4.310   1.976   1.803
 3434TIP3   OH210265   2.125   3.062   2.975
 3434TIP3    H110266   2.155   3.090   2.889
 3434TIP3    H210267   2.205   3.045   3.025
 3435TIP3   OH210268   1.252   6.577   2.169
 3435TIP3    H110269   1.222   6.534   2.249
 3435TIP3    H210270   1.254   6.670   2.192
 3436TIP3   OH210271   4.612   1.079   4.414
 3436TIP3    H110272   4.521   1.102   4.397
 3436TIP3    H210273   4.644   1.148   4.472
 3437TIP3   OH210274   2.165   5.350   1.486
 3437TIP3    H110275   2.075   5.319   1.502
 3437TIP3    H210276   2.220   5.284   1.527
 3438TIP3   OH210277   4.543   3.223   0.929
 3438TIP3    H110278   4.545   3.313   0.961
 3438TIP3    H210279   4.450   3.207   0.909
 3439TIP3   OH210280   2.345   5.696   4.878
 3439TIP3    H110281   2.423   5.688   4.932
 3439TIP3    H210282   2.374   5.746   4.801
 3440TIP3   OH210283   5.160   3.839   4.940
 3440TIP3    H110284   5.114   3.880   4.867
 3440TIP3    H210285   5.121   3.752   4.948
 3441TIP3   OH210286   6.162   4.346   1.799
 3441TIP3    H110287   6.159   4.251   1.793
 3441TIP3    H210288   6.084   4.375   1.751
 3442TIP3   OH210289   6.849   3.218   5.460
 3442TIP3    H110290   6.822   3.309   5.454
 3442TIP3    H210291   6.938   3.221   5.495
 3443TIP3   OH210292   2.481   4.126   2.303
 3443TIP3    H110293   2.532   4.190   2.255
 3443TIP3    H210294   2.545   4.073   2.350
 3444TIP3   OH210295   6.218   1.918   5.307
 3444TIP3    H110296   6.257   1.913   5.394
 3444TIP3    H210297   6.148   1.852   5.307
 3445TIP3   OH210298   6.153   1.655   3.345
 3445TIP3    H110299   6.122   1.714   3.277
 3445TIP3    H210300   6.127   1.567   3.315
 3446TIP3   OH210301   2.082   1.578   0.598
 3446TIP3    H110302   2.054   1.491   0.628
 3446TIP3    H210303   2.005   1.634   0.612
 3447TIP3   OH210304   3.180   1.203   2.379
 3447TIP3    H110305   3.269   1.237   2.383
 3447TIP3    H210306   3.127   1.270   2.422
 3448TIP3   OH210307   3.367   2.124   4.736
 3448TIP3    H110308   3.338   2.203   4.782
 3448TIP3    H210309   3.348   2.053   4.796
 3449TIP3   OH210310   5.566   3.731   3.056
 3449TIP3    H110311   5.552   3.663   2.991
 3449TIP3    H210312   5.478   3.758   3.082
 3450TIP3   OH210313   5.817   0.484   4.548
 3450TIP3    H110314   5.868   0.564   4.554
 3450TIP3    H210315   5.792   0.465   4.639
 3451TIP3   OH210316   3.472   2.439   1.627
 3451TIP3    H110317   3.514   2.381   1.563
 3451TIP3    H210318   3.477   2.390   1.710
 3452TIP3   OH210319   5.969   0.354   4.069
 3452TIP3    H110320   5.973   0.349   4.165
 3452TIP3    H210321   5.883   0.392   4.050
 3453TIP3   OH210322   6.238   3.655   4.283
 3453TIP3    H110323   6.301   3.683   4.217
 3453TIP3    H210324   6.252   3.714   4.357
 3454TIP3   OH210325   7.123   6.140   5.275
 3454TIP3    H110326   7.032   6.117   5.253
 3454TIP3    H210327   7.165   6.156   5.190
 3455TIP3   OH210328   1.669   1.131   3.968
 3455TIP3    H110329   1.601   1.189   4.001
 3455TIP3    H210330   1.747   1.153   4.019
 3456TIP3   OH210331   6.705   3.935   4.870
 3456TIP3    H110332   6.744   3.854   4.903
 3456TIP3    H210333   6.762   4.005   4.904
 3457TIP3   OH210334   4.241   4.922   1.612
 3457TIP3    H110335   4.282   4.933   1.526
 3457TIP3    H210336   4.299   4.971   1.671
 3458TIP3   OH210337   2.444   1.984   3.049
 3458TIP3    H110338   2.376   1.924   3.078
 3458TIP3    H210339   2.453   1.968   2.955
 3459TIP3   OH210340   3.046   4.039   3.150
 3459TIP3    H110341   2.971   3.994   3.189
 3459TIP3    H210342   3.109   3.970   3.131
 3460TIP3   OH210343   3.782   4.654   4.165
 3460TIP3    H110344   3.737   4.723   4.117
 3460TIP3    H210345   3.713   4.605   4.208
 3461TIP3   OH210346   5.014   1.452   4.869
 3461TIP3    H110347   5.009   1.403   4.950
 3461TIP3    H210348   5.047   1.389   4.805
 3462TIP3   OH210349   6.587   4.673   3.160
 3462TIP3    H110350   6.581   4.767   3.174
 3462TIP3    H210351   6.504   4.649   3.120
 3463TIP3   OH210352   4.090   6.814   1.054
 3463TIP3    H110353   4.111   6.721   1.061
 3463TIP3    H210354   4.127   6.840   0.969
 3464TIP3   OH210355   5.204   2.071   4.200
 3464TIP3    H110356   5.232   2.015   4.273
 3464TIP3    H210357   5.286   2.092   4.154
 3465TIP3   OH210358   6.170   1.852   2.474
 3465TIP3    H110359   6.258   1.815   2.480
 3465TIP3    H210360   6.114   1.790   2.520
 3466TIP3   OH210361   0.957   3.754   4.754
 3466TIP3    H110362   0.910   3.737   4.672
 3466TIP3    H210363   0.997   3.671   4.777
 3467TIP3   OH210364   1.607   0.636   1.119
 3467TIP3    H110365   1.601   0.591   1.202
 3467TIP3    H210366   1.590   0.728   1.140
 3468TIP3   OH210367   3.912   4.528   3.004
 3468TIP3    H110368   3.817   4.517   2.997
 3468TIP3    H210369   3.945   4.503   2.918
 3469TIP3   OH210370   0.655   4.839   5.490
 3469TIP3    H110371   0.709   4.918   5.484
 3469TIP3    H210372   0.713   4.768   5.465
 3470TIP3   OH210373   0.753   2.097   4.127
 3470TIP3    H110374   0.677   2.051   4.164
 3470TIP3    H210375   0.776   2.046   4.049
 3471TIP3   OH210376   6.765   1.684   1.851
 3471TIP3    H110377   6.672   1.676   1.871
 3471TIP3    H210378   6.809   1.645   1.927
 3472TIP3   OH210379   5.156   5.393   5.779
 3472TIP3    H110380   5.098   5.345   5.838
 3472TIP3    H210381   5.240   5.349   5.787
 3473TIP3   OH210382   6.374   1.554   2.434
 3473TIP3    H110383   6.432   1.605   2.378
 3473TIP3    H210384   6.429   1.528   2.509
 3474TIP3   OH210385   6.216   0.125   5.102
 3474TIP3    H110386   6.140   0.182   5.097
 3474TIP3    H210387   6.260   0.134   5.017
 3475TIP3   OH210388   3.975   6.165   4.781
 3475TIP3    H110389   3.948   6.176   4.872
 3475TIP3    H210390   4.070   6.155   4.786
 3476TIP3   OH210391   6.899   2.249   0.309
 3476TIP3    H110392   6.811   2.282   0.325
 3476TIP3    H210393   6.901   2.231   0.215
 3477TIP3   OH210394   6.535   4.945   5.670
 3477TIP3    H110395   6.483   5.017   5.706
 3477TIP3    H210396   6.566   4.977   5.586
 3478TIP3   OH210397   6.247   5.531   2.741
 3478TIP3    H110398   6.185   5.461   2.723
 3478TIP3    H210399   6.332   5.488   2.746
 3479TIP3   OH210400   6.176   0.630   3.427
 3479TIP3    H110401   6.193   0.714   3.468
 3479TIP3    H210402   6.236   0.569   3.470
 3480TIP3   OH210403   6.236   2.304   4.870
 3480TIP3    H110404   6.229   2.290   4.776
 3480TIP3    H210405   6.310   2.365   4.880
 3481TIP3   OH210406   6.623   6.200   0.395
 3481TIP3    H110407   6.654   6.125   0.446
 3481TIP3    H210408   6.643   6.276   0.449
 3482TIP3   OH210409   2.373   6.020   1.750
 3482TIP3    H110410   2.302   6.083   1.739
 3482TIP3    H210411   2.441   6.068   1.797
 3483TIP3   OH210412   2.404   4.007   3.913
 3483TIP3    H110413   2.393   4.066   3.839
 3483TIP3    H210414   2.408   3.920   3.873
 3484TIP3   OH210415   3.899   2.515   2.881
 3484TIP3    H110416   3.827   2.493   2.822
 3484TIP3    H210417   3.946   2.585   2.837
 3485TIP3   OH210418   3.692   0.416   2.029
 3485TIP3    H110419   3.617   0.434   2.085
 3485TIP3    H210420   3.699   0.493   1.973
 3486TIP3   OH210421   2.679   3.430   1.986
 3486TIP3    H110422   2.773   3.421   1.997
 3486TIP3    H210423   2.646   3.450   2.074
 3487TIP3   OH210424   0.124   3.747   1.167
 3487TIP3    H110425   0.217   3.735   1.184
 3487TIP3    H210426   0.084   3.751   1.254
 3488TIP3   OH210427   3.789   1.432   2.496
 3488TIP3    H110428   3.794   1.349   2.543
 3488TIP3    H210429   3.806   1.498   2.562
 3489TIP3   OH210430   0.196   4.041   5.809
 3489TIP3    H110431   0.191   3.965   5.867
 3489TIP3    H210432   0.275   4.027   5.757
 3490TIP3   OH210433   2.059   6.184   0.334
 3490TIP3    H110434   2.063   6.096   0.296
 3490TIP3    H210435   1.982   6.182   0.391
 3491TIP3   OH210436   1.527   3.367   2.163
 3491TIP3    H110437   1.531   3.455   2.126
 3491TIP3    H210438   1.530   3.309   2.087
 3492TIP3   OH210439   4.448   0.571   5.897
 3492TIP3    H110440   4.473   0.648   5.846
 3492TIP3    H210441   4.354   0.582   5.913
 3493TIP3   OH210442   4.083   0.222   1.338
 3493TIP3    H110443   4.010   0.173   1.301
 3493TIP3    H210444   4.067   0.313   1.312
 3494TIP3   OH210445   3.608   1.973   3.825
 3494TIP3    H110446   3.573   1.886   3.845
 3494TIP3    H210447   3.558   2.001   3.748
 3495TIP3   OH210448   5.637   6.525   4.965
 3495TIP3    H110449   5.699   6.466   4.922
 3495TIP3    H210450   5.656   6.515   5.058
 3496TIP3   OH210451   2.510   3.140   1.807
 3496TIP3    H110452   2.454   3.204   1.764
 3496TIP3    H210453   2.491   3.151   1.901
 3497TIP3   OH210454   6.775   2.331   2.533
 3497TIP3    H110455   6.854   2.278   2.545
 3497TIP3    H210456   6.715   2.301   2.601
 3498TIP3   OH210457   2.909   3.144   0.085
 3498TIP3    H110458   2.927   3.050   0.087
 3498TIP3    H210459   2.925   3.170  -0.006
 3499TIP3   OH210460   0.072   1.975   3.530
 3499TIP3    H110461   0.097   1.968   3.438
 3499TIP3    H210462   0.131   1.915   3.576
 3500TIP3   OH210463   2.073   3.819   4.927
 3500TIP3    H110464   2.037   3.853   5.010
 3500TIP3    H210465   2.074   3.895   4.869
 3501TIP3   OH210466   4.549   6.302   2.775
 3501TIP3    H110467   4.490   6.332   2.707
 3501TIP3    H210468   4.609   6.375   2.789
 3502TIP3   OH210469   2.562   1.806   0.032
 3502TIP3    H110470   2.473   1.772   0.017
 3502TIP3    H210471   2.617   1.728   0.032
 3503TIP3   OH210472   7.103   0.515   0.282
 3503TIP3    H110473   7.196   0.523   0.262
 3503TIP3    H210474   7.100   0.482   0.372
 3504TIP3   OH210475   1.776   1.046   5.315
 3504TIP3    H110476   1.787   0.982   5.244
 3504TIP3    H210477   1.836   1.117   5.294
 3505TIP3   OH210478   3.602   5.792   4.338
 3505TIP3    H110479   3.604   5.859   4.270
 3505TIP3    H210480   3.554   5.719   4.298
 3506TIP3   OH210481   5.187   1.577   5.245
 3506TIP3    H110482   5.185   1.597   5.151
 3506TIP3    H210483   5.272   1.533   5.257
 3507TIP3   OH210484   5.282   2.466   0.433
 3507TIP3    H110485   5.309   2.387   0.387
 3507TIP3    H210486   5.214   2.437   0.493
 3508TIP3   OH210487   4.422   6.152   3.009
 3508TIP3    H110488   4.332   6.128   2.989
 3508TIP3    H210489   4.420   6.247   3.020
 3509TIP3   OH210490   0.635   2.213   2.634
 3509TIP3    H110491   0.697   2.285   2.648
 3509TIP3    H210492   0.689   2.134   2.640
 3510TIP3   OH210493   5.381   2.951   4.717
 3510TIP3    H110494   5.459   3.007   4.712
 3510TIP3    H210495   5.338   2.964   4.632
 3511TIP3   OH210496   5.001   5.851   4.785
 3511TIP3    H110497   4.928   5.790   4.794
 3511TIP3    H210498   4.960   5.934   4.759
 3512TIP3   OH210499   7.010   4.872   2.050
 3512TIP3    H110500   7.028   4.945   2.109
 3512TIP3    H210501   7.097   4.842   2.023
 3513TIP3   OH210502   5.954   2.513   0.235
 3513TIP3    H110503   6.040   2.471   0.222
 3513TIP3    H210504   5.897   2.469   0.172
 3514TIP3   OH210505   0.786   0.666   4.781
 3514TIP3    H110506   0.880   0.679   4.772
 3514TIP3    H210507   0.747   0.734   4.728
 3515TIP3   OH210508   4.413   0.278   3.950
 3515TIP3    H110509   4.473   0.309   3.882
 3515TIP3    H210510   4.390   0.357   3.999
 3516TIP3   OH210511   4.379   4.746   3.958
 3516TIP3    H110512   4.464   4.736   3.915
 3516TIP3    H210513   4.315   4.722   3.891
 3517TIP3   OH210514   0.053   5.558   5.177
 3517TIP3    H110515   0.056   5.488   5.111
 3517TIP3    H210516   0.133   5.546   5.228
 3518TIP3   OH210517   1.751   1.992   1.003
 3518TIP3    H110518   1.816   1.921   1.010
 3518TIP3    H210519   1.682   1.955   0.948
 3519TIP3   OH210520   1.569   4.631   3.222
 3519TIP3    H110521   1.554   4.726   3.220
 3519TIP3    H210522   1.649   4.621   3.274
 3520TIP3   OH210523   7.033   5.743   3.259
 3520TIP3    H110524   7.000   5.830   3.281
 3520TIP3    H210525   7.000   5.687   3.330
 3521TIP3   OH210526   0.188   0.749   2.232
 3521TIP3    H110527   0.233   0.666   2.215
 3521TIP3    H210528   0.095   0.727   2.224
 3522TIP3   OH210529   0.930   0.556   4.184
 3522TIP3    H110530   0.967   0.644   4.196
 3522TIP3    H210531   0.988   0.499   4.234
 3523TIP3   OH210532   1.848   2.695   4.002
 3523TIP3    H110533   1.911   2.675   3.934
 3523TIP3    H210534   1.763   2.668   3.966
 3524TIP3   OH210535   4.051   3.116   4.760
 3524TIP3    H110536   4.099   3.058   4.700
 3524TIP3    H210537   4.112   3.187   4.778
 3525TIP3   OH210538   4.301   5.384   0.428
 3525TIP3    H110539   4.354   5.424   0.359
 3525TIP3    H210540   4.336   5.420   0.510
 3526TIP3   OH210541   4.390   1.021   4.703
 3526TIP3    H110542   4.358   1.088   4.763
 3526TIP3    H210543   4.409   1.068   4.622
 3527TIP3   OH210544   5.010   3.611   3.656
 3527TIP3    H110545   5.033   3.557   3.731
 3527TIP3    H210546   4.975   3.692   3.694
 3528TIP3   OH210547   1.098   6.022   2.023
 3528TIP3    H110548   1.141   5.960   1.964
 3528TIP3    H210549   1.013   6.038   1.982
 3529TIP3   OH210550   4.935   6.585   2.152
 3529TIP3    H110551   4.965   6.495   2.159
 3529TIP3    H210552   4.995   6.626   2.089
 3530TIP3   OH210553   5.125   1.707   4.659
 3530TIP3    H110554   5.076   1.716   4.577
 3530TIP3    H210555   5.080   1.764   4.721
 3531TIP3   OH210556   6.475   1.417   5.176
 3531TIP3    H110557   6.561   1.381   5.197
 3531TIP3    H210558   6.481   1.510   5.199
 3532TIP3   OH210559   4.500   0.758   1.300
 3532TIP3    H110560   4.581   0.774   1.251
 3532TIP3    H210561   4.525   0.696   1.368
 3533TIP3   OH210562   5.316   3.763   1.611
 3533TIP3    H110563   5.240   3.789   1.559
 3533TIP3    H210564   5.355   3.846   1.639
 3534TIP3   OH210565   5.055   5.810   5.384
 3534TIP3    H110566   4.971   5.810   5.340
 3534TIP3    H210567   5.102   5.735   5.346
 3535TIP3   OH210568   4.330   5.104   5.276
 3535TIP3    H110569   4.318   5.044   5.202
 3535TIP3    H210570   4.260   5.168   5.266
 3536TIP3   OH210571   4.333   4.139   2.967
 3536TIP3    H110572   4.366   4.071   3.025
 3536TIP3    H210573   4.243   4.155   2.997
 3537TIP3   OH210574   4.909   2.314   1.712
 3537TIP3    H110575   4.941   2.261   1.785
 3537TIP3    H210576   4.988   2.337   1.662
 3538TIP3   OH210577   0.420   4.132   0.925
 3538TIP3    H110578   0.434   4.153   1.017
 3538TIP3    H210579   0.449   4.210   0.878
 3539TIP3   OH210580   2.852   3.844   3.195
 3539TIP3    H110581   2.879   3.833   3.104
 3539TIP3    H210582   2.818   3.758   3.221
 3540TIP3   OH210583   2.851   4.499   0.300
 3540TIP3    H110584   2.896   4.445   0.365
 3540TIP3    H210585   2.853   4.446   0.220
 3541TIP3   OH210586   5.305   5.136   2.984
 3541TIP3    H110587   5.294   5.075   2.911
 3541TIP3    H210588   5.225   5.187   2.985
 3542TIP3   OH210589   3.762   5.064   2.750
 3542TIP3    H110590   3.771   4.969   2.745
 3542TIP3    H210591   3.852   5.097   2.754
 3543TIP3   OH210592   5.121   2.475   0.112
 3543TIP3    H110593   5.107   2.394   0.161
 3543TIP3    H210594   5.203   2.510   0.146
 3544TIP3   OH210595   0.195   3.772   3.209
 3544TIP3    H110596   0.227   3.858   3.236
 3544TIP3    H210597   0.273   3.715   3.212
 3545TIP3   OH210598   3.047   0.607   1.703
 3545TIP3    H110599   3.072   0.690   1.663
 3545TIP3    H210600   3.001   0.560   1.633
 3546TIP3   OH210601   3.299   4.893   3.113
 3546TIP3    H110602   3.298   4.978   3.070
 3546TIP3    H210603   3.351   4.908   3.193
 3547TIP3   OH210604   6.315   3.458   2.600
 3547TIP3    H110605   6.402   3.455   2.559
 3547TIP3    H210606   6.257   3.420   2.534
 3548TIP3   OH210607   5.454   1.598   4.604
 3548TIP3    H110608   5.485   1.687   4.589
 3548TIP3    H210609   5.393   1.581   4.532
 3549TIP3   OH210610   5.524   2.830   1.371
 3549TIP3    H110611   5.608   2.878   1.370
 3549TIP3    H210612   5.473   2.870   1.301
 3550TIP3   OH210613   2.419   0.080   3.033
 3550TIP3    H110614   2.491   0.085   3.096
 3550TIP3    H210615   2.393   0.172   3.020
 3551TIP3   OH210616   6.344   5.540   5.658
 3551TIP3    H110617   6.369   5.485   5.732
 3551TIP3    H210618   6.427   5.566   5.617
 3552TIP3   OH210619   5.254   2.835   1.931
 3552TIP3    H110620   5.315   2.790   1.989
 3552TIP3    H210621   5.302   2.842   1.848
 3553TIP3   OH210622   5.712   3.760   2.757
 3553TIP3    H110623   5.624   3.796   2.768
 3553TIP3    H210624   5.705   3.669   2.786
 3554TIP3   OH210625   6.174   3.446   0.422
 3554TIP3    H110626   6.204   3.361   0.390
 3554TIP3    H210627   6.146   3.493   0.343
 3555TIP3   OH210628   3.960   3.475   5.745
 3555TIP3    H110629   3.898   3.421   5.696
 3555TIP3    H210630   3.964   3.557   5.695
 3556TIP3   OH210631   0.506   1.263   5.280
 3556TIP3    H110632   0.454   1.183   5.284
 3556TIP3    H210633   0.453   1.323   5.227
 3557TIP3   OH210634   5.189   0.151   4.217
 3557TIP3    H110635   5.162   0.066   4.184
 3557TIP3    H210636   5.113   0.207   4.205
 3558TIP3   OH210637   5.691   3.584   4.050
 3558TIP3    H110638   5.633   3.557   4.121
 3558TIP3    H210639   5.779   3.571   4.085
 3559TIP3   OH210640   0.196   3.541   0.860
 3559TIP3    H110641   0.145   3.486   0.920
 3559TIP3    H210642   0.280   3.553   0.904
 3560TIP3   OH210643   0.785   0.106   1.625
 3560TIP3    H110644   0.876   0.121   1.648
 3560TIP3    H210645   0.747   0.193   1.620
 3561TIP3   OH210646   2.302   0.582   0.648
 3561TIP3    H110647   2.281   0.582   0.554
 3561TIP3    H210648   2.227   0.539   0.689
 3562TIP3   OH210649   4.326   6.792   0.208
 3562TIP3    H110650   4.370   6.851   0.146
 3562TIP3    H210651   4.279   6.731   0.152
 3563TIP3   OH210652   0.982   4.826   4.516
 3563TIP3    H110653   1.077   4.833   4.519
 3563TIP3    H210654   0.951   4.880   4.589
 3564TIP3   OH210655   1.501   1.197   3.554
 3564TIP3    H110656   1.582   1.154   3.581
 3564TIP3    H210657   1.464   1.141   3.487
 3565TIP3   OH210658   4.328   2.604   2.294
 3565TIP3    H110659   4.391   2.538   2.266
 3565TIP3    H210660   4.291   2.638   2.213
 3566TIP3   OH210661   4.595   3.806   2.035
 3566TIP3    H110662   4.509   3.844   2.051
 3566TIP3    H210663   4.629   3.856   1.961
 3567TIP3   OH210664   1.024   2.270   0.658
 3567TIP3    H110665   0.998   2.346   0.711
 3567TIP3    H210666   0.973   2.197   0.693
 3568TIP3   OH210667   5.113   2.785   3.939
 3568TIP3    H110668   5.077   2.786   3.851
 3568TIP3    H210669   5.088   2.700   3.975
 3569TIP3   OH210670   0.609   3.295   4.435
 3569TIP3    H110671   0.682   3.322   4.380
 3569TIP3    H210672   0.593   3.369   4.493
 3570TIP3   OH210673   0.348   0.731   5.604
 3570TIP3    H110674   0.305   0.650   5.576
 3570TIP3    H210675   0.295   0.801   5.564
 3571TIP3   OH210676   3.407   3.984   3.873
 3571TIP3    H110677   3.393   4.001   3.966
 3571TIP3    H210678   3.490   3.936   3.870
 3572TIP3   OH210679   1.768   4.848   1.850
 3572TIP3    H110680   1.860   4.871   1.862
 3572TIP3    H210681   1.721   4.903   1.912
 3573TIP3   OH210682   5.518   4.134   4.763
 3573TIP3    H110683   5.551   4.163   4.678
 3573TIP3    H210684   5.559   4.048   4.777
 3574TIP3   OH210685   1.142   3.975   4.729
 3574TIP3    H110686   1.125   4.067   4.710
 3574TIP3    H210687   1.060   3.931   4.707
 3575TIP3   OH210688   1.913   6.529   0.890
 3575TIP3    H110689   1.979   6.599   0.899
 3575TIP3    H210690   1.964   6.453   0.861
 3576TIP3   OH210691   4.255   0.873   1.519
 3576TIP3    H110692   4.333   0.927   1.532
 3576TIP3    H210693   4.239   0.835   1.605
 3577TIP3   OH210694   2.003   2.246   2.027
 3577TIP3    H110695   1.994   2.222   2.119
 3577TIP3    H210696   1.915   2.273   2.001
 3578TIP3   OH210697   6.665   5.158   4.985
 3578TIP3    H110698   6.617   5.236   4.959
 3578TIP3    H210699   6.720   5.137   4.909
 3579TIP3   OH210700   3.670   6.519   5.511
 3579TIP3    H110701   3.606   6.498   5.443
 3579TIP3    H210702   3.660   6.613   5.526
 3580TIP3   OH210703   2.688   2.665   2.641
 3580TIP3    H110704   2.741   2.586   2.625
 3580TIP3    H210705   2.695   2.681   2.735
 3581TIP3   OH210706   1.128   4.816   0.560
 3581TIP3    H110707   1.189   4.826   0.633
 3581TIP3    H210708   1.138   4.896   0.509
 3582TIP3   OH210709   6.110   5.272   1.036
 3582TIP3    H110710   6.082   5.274   0.944
 3582TIP3    H210711   6.188   5.217   1.036
 3583TIP3   OH210712   4.665   3.731   3.390
 3583TIP3    H110713   4.603   3.700   3.324
 3583TIP3    H210714   4.732   3.778   3.341
 3584TIP3   OH210715   1.497   4.351   3.178
 3584TIP3    H110716   1.529   4.426   3.229
 3584TIP3    H210717   1.402   4.357   3.185
 3585TIP3   OH210718   0.902   4.443   4.544
 3585TIP3    H110719   0.889   4.535   4.521
 3585TIP3    H210720   0.863   4.435   4.631
 3586TIP3   OH210721   5.004   3.126   3.804
 3586TIP3    H110722   5.091   3.106   3.838
 3586TIP3    H210723   4.943   3.088   3.868
 3587TIP3   OH210724   4.953   1.340   2.091
 3587TIP3    H110725   4.929   1.331   1.999
 3587TIP3    H210726   5.048   1.339   2.092
 3588TIP3   OH210727   1.580   5.821   3.593
 3588TIP3    H110728   1.533   5.841   3.674
 3588TIP3    H210729   1.570   5.899   3.539
 3589TIP3   OH210730   2.636   1.141   2.759
 3589TIP3    H110731   2.660   1.062   2.807
 3589TIP3    H210732   2.719   1.187   2.747
 3590TIP3   OH210733   4.927   6.431   0.288
 3590TIP3    H110734   4.981   6.431   0.209
 3590TIP3    H210735   4.981   6.475   0.354
 3591TIP3   OH210736   1.584   2.657   5.165
 3591TIP3    H110737   1.599   2.748   5.190
 3591TIP3    H210738   1.541   2.617   5.241
 3592TIP3   OH210739   1.290   2.238   4.246
 3592TIP3    H110740   1.276   2.330   4.225
 3592TIP3    H210741   1.206   2.196   4.228
 3593TIP3   OH210742   2.595   5.229   4.637
 3593TIP3    H110743   2.526   5.295   4.629
 3593TIP3    H210744   2.611   5.200   4.548
 3594TIP3   OH210745   3.957   0.233   0.637
 3594TIP3    H110746   3.882   0.278   0.678
 3594TIP3    H210747   4.033   0.287   0.661
 3595TIP3   OH210748   3.362   1.302   4.506
 3595TIP3    H110749   3.322   1.255   4.433
 3595TIP3    H210750   3.429   1.357   4.467
 3596TIP3   OH210751   3.860   4.083   3.868
 3596TIP3    H110752   3.793   4.090   3.801
 3596TIP3    H210753   3.829   4.139   3.939
 3597TIP3   OH210754   4.405   1.778   4.626
 3597TIP3    H110755   4.401   1.873   4.612
 3597TIP3    H210756   4.333   1.760   4.686
 3598TIP3   OH210757   7.155   6.728   5.601
 3598TIP3    H110758   7.093   6.656   5.610
 3598TIP3    H210759   7.198   6.712   5.516
 3599TIP3   OH210760   0.764   1.227   1.649
 3599TIP3    H110761   0.699   1.282   1.692
 3599TIP3    H210762   0.732   1.216   1.560
 3600TIP3   OH210763   3.477   2.234   0.189
 3600TIP3    H110764   3.548   2.188   0.145
 3600TIP3    H210765   3.439   2.291   0.122
 3601TIP3   OH210766   0.972   2.244   1.361
 3601TIP3    H110767   1.048   2.256   1.305
 3601TIP3    H210768   1.001   2.274   1.447
 3602TIP3   OH210769   0.352   5.035   3.301
 3602TIP3    H110770   0.426   5.028   3.241
 3602TIP3    H210771   0.392   5.032   3.388
 3603TIP3   OH210772   3.904   2.675   1.465
 3603TIP3    H110773   3.812   2.656   1.449
 3603TIP3    H210774   3.920   2.642   1.553
 3604TIP3   OH210775   2.673   0.982   2.418
 3604TIP3    H110776   2.723   1.055   2.383
 3604TIP3    H210777   2.582   1.006   2.403
 3605TIP3   OH210778   0.262   3.528   2.598
 3605TIP3    H110779   0.272   3.623   2.597
 3605TIP3    H210780   0.262   3.503   2.506
 3606TIP3   OH210781   3.975   2.280   5.119
 3606TIP3    H110782   3.984   2.350   5.184
 3606TIP3    H210783   4.057   2.282   5.069
 3607TIP3   OH210784   1.921   6.483   5.591
 3607TIP3    H110785   1.954   6.444   5.510
 3607TIP3    H210786   1.941   6.576   5.582
 3608TIP3   OH210787   4.091   5.885   3.772
 3608TIP3    H110788   4.047   5.801   3.781
 3608TIP3    H210789   4.039   5.945   3.826
 3609TIP3   OH210790   2.744   1.360   1.359
 3609TIP3    H110791   2.782   1.443   1.388
 3609TIP3    H210792   2.655   1.361   1.394
 3610TIP3   OH210793   0.227   2.699   3.302
 3610TIP3    H110794   0.302   2.681   3.358
 3610TIP3    H210795   0.167   2.626   3.319
 3611TIP3   OH210796   0.761   4.885   2.404
 3611TIP3    H110797   0.725   4.871   2.316
 3611TIP3    H210798   0.708   4.829   2.460
 3612TIP3   OH210799   3.430   2.864   4.147
 3612TIP3    H110800   3.524   2.848   4.156
 3612TIP3    H210801   3.398   2.870   4.237
 3613TIP3   OH210802   1.100   0.121   5.060
 3613TIP3    H110803   1.070   0.201   5.018
 3613TIP3    H210804   1.032   0.056   5.038
 3614TIP3   OH210805   4.782   0.972   3.219
 3614TIP3    H110806   4.708   0.921   3.252
 3614TIP3    H210807   4.845   0.906   3.188
 3615TIP3   OH210808   5.827   3.882   1.413
 3615TIP3    H110809   5.863   3.799   1.444
 3615TIP3    H210810   5.815   3.934   1.493
 3616TIP3   OH210811   4.482   3.704   1.685
 3616TIP3    H110812   4.491   3.650   1.606
 3616TIP3    H210813   4.571   3.710   1.720
 3617TIP3   OH210814   1.753   6.346   4.806
 3617TIP3    H110815   1.766   6.367   4.714
 3617TIP3    H210816   1.739   6.430   4.848
 3618TIP3   OH210817   1.094   1.015   0.771
 3618TIP3    H110818   1.186   1.012   0.746
 3618TIP3    H210819   1.068   1.106   0.758
 3619TIP3   OH210820   6.986   3.950   3.077
 3619TIP3    H110821   6.919   3.971   3.141
 3619TIP3    H210822   6.951   3.875   3.029
 3620TIP3   OH210823   2.263   4.781   3.127
 3620TIP3    H110824   2.307   4.697   3.111
 3620TIP3    H210825   2.182   4.776   3.077
 3621TIP3   OH210826   6.286   0.774   0.413
 3621TIP3    H110827   6.301   0.691   0.459
 3621TIP3    H210828   6.204   0.761   0.365
 3622TIP3   OH210829   5.225   5.549   3.984
 3622TIP3    H110830   5.223   5.545   3.889
 3622TIP3    H210831   5.270   5.632   4.003
 3623TIP3   OH210832   3.424   4.068   1.852
 3623TIP3    H110833   3.384   4.128   1.916
 3623TIP3    H210834   3.442   3.988   1.901
 3624TIP3   OH210835   2.539   0.000   1.805
 3624TIP3    H110836   2.575  -0.041   1.884
 3624TIP3    H210837   2.613   0.045   1.765
 3625TIP3   OH210838   4.095   0.956   2.278
 3625TIP3    H110839   4.180   0.973   2.320
 3625TIP3    H210840   4.088   0.861   2.277
 3626TIP3   OH210841   4.545   4.531   0.288
 3626TIP3    H110842   4.543   4.488   0.373
 3626TIP3    H210843   4.455   4.563   0.275
 3627TIP3   OH210844   4.188   2.279   5.707
 3627TIP3    H110845   4.185   2.188   5.737
 3627TIP3    H210846   4.174   2.331   5.786
 3628TIP3   OH210847   4.744   0.343   1.106
 3628TIP3    H110848   4.662   0.393   1.110
 3628TIP3    H210849   4.716   0.251   1.103
 3629TIP3   OH210850   5.669   3.375   1.402
 3629TIP3    H110851   5.604   3.440   1.429
 3629TIP3    H210852   5.670   3.311   1.473
 3630TIP3   OH210853   6.733   6.605   3.662
 3630TIP3    H110854   6.667   6.608   3.731
 3630TIP3    H210855   6.721   6.687   3.613
 3631TIP3   OH210856   4.749   4.326   4.369
 3631TIP3    H110857   4.688   4.321   4.296
 3631TIP3    H210858   4.807   4.399   4.346
 3632TIP3   OH210859   6.405   4.524   4.015
 3632TIP3    H110860   6.336   4.482   3.964
 3632TIP3    H210861   6.365   4.539   4.101
 3633TIP3   OH210862   5.619   6.124   4.925
 3633TIP3    H110863   5.545   6.124   4.986
 3633TIP3    H210864   5.580   6.139   4.839
 3634TIP3   OH210865   2.765   5.835   2.090
 3634TIP3    H110866   2.804   5.875   2.013
 3634TIP3    H210867   2.826   5.857   2.161
 3635TIP3   OH210868   3.424   1.316   5.355
 3635TIP3    H110869   3.333   1.287   5.359
 3635TIP3    H210870   3.442   1.352   5.443
 3636TIP3   OH210871   5.829   1.584   3.453
 3636TIP3    H110872   5.737   1.571   3.430
 3636TIP3    H210873   5.870   1.613   3.371
 3637TIP3   OH210874   5.606   1.445   0.891
 3637TIP3    H110875   5.659   1.452   0.812
 3637TIP3    H210876   5.659   1.485   0.960
 3638TIP3   OH210877   5.552   3.140   5.300
 3638TIP3    H110878   5.469   3.182   5.276
 3638TIP3    H210879   5.598   3.128   5.217
 3639TIP3   OH210880   4.291   5.104   5.546
 3639TIP3    H110881   4.301   5.099   5.451
 3639TIP3    H210882   4.328   5.022   5.579
 3640TIP3   OH210883   3.553   5.255   5.562
 3640TIP3    H110884   3.517   5.199   5.493
 3640TIP3    H210885   3.603   5.196   5.618
 3641TIP3   OH210886   1.245   2.862   2.508
 3641TIP3    H110887   1.258   2.810   2.588
 3641TIP3    H210888   1.173   2.921   2.530
 3642TIP3   OH210889   6.541   1.711   5.829
 3642TIP3    H110890   6.468   1.770   5.843
 3642TIP3    H210891   6.502   1.632   5.790
 3643TIP3   OH210892   3.746   2.950   1.328
 3643TIP3    H110893   3.835   2.959   1.361
 3643TIP3    H210894   3.690   2.986   1.397
 3644TIP3   OH210895   2.105   3.529   3.985
 3644TIP3    H110896   2.063   3.608   3.950
 3644TIP3    H210897   2.169   3.504   3.918
 3645TIP3   OH210898   0.979   5.989   0.310
 3645TIP3    H110899   0.901   5.988   0.365
 3645TIP3    H210900   1.048   6.025   0.366
 3646TIP3   OH210901   1.380   5.446   4.215
 3646TIP3    H110902   1.286   5.444   4.231
 3646TIP3    H210903   1.406   5.535   4.241
 3647TIP3   OH210904   3.116   6.514   1.887
 3647TIP3    H110905   3.092   6.606   1.893
 3647TIP3    H210906   3.118   6.484   1.978
 3648TIP3   OH210907   6.999   0.400   2.918
 3648TIP3    H110908   7.084   0.428   2.953
 3648TIP3    H210909   7.019   0.321   2.868
 3649TIP3   OH210910   1.673   5.767   2.878
 3649TIP3    H110911   1.688   5.839   2.940
 3649TIP3    H210912   1.605   5.799   2.819
 3650TIP3   OH210913   5.586   0.948   4.268
 3650TIP3    H110914   5.658   0.967   4.208
 3650TIP3    H210915   5.545   0.869   4.232
 3651TIP3   OH210916   0.430   1.912   0.891
 3651TIP3    H110917   0.359   1.934   0.952
 3651TIP3    H210918   0.473   1.836   0.930
 3652TIP3   OH210919   3.427   5.345   4.161
 3652TIP3    H110920   3.405   5.253   4.152
 3652TIP3    H210921   3.419   5.363   4.254
 3653TIP3   OH210922   6.576   1.250   1.326
 3653TIP3    H110923   6.553   1.158   1.318
 3653TIP3    H210924   6.495   1.297   1.305
 3654TIP3   OH210925   0.212   5.882   1.459
 3654TIP3    H110926   0.169   5.929   1.388
 3654TIP3    H210927   0.173   5.917   1.539
 3655TIP3   OH210928   2.989   6.757   1.950
 3655TIP3    H110929   3.040   6.814   2.008
 3655TIP3    H210930   2.979   6.809   1.870
 3656TIP3   OH210931   6.298   4.847   0.183
 3656TIP3    H110932   6.242   4.912   0.225
 3656TIP3    H210933   6.250   4.764   0.191
 3657TIP3   OH210934   0.178   3.163   1.946
 3657TIP3    H110935   0.113   3.094   1.959
 3657TIP3    H210936   0.134   3.227   1.891
 3658TIP3   OH210937   0.628   5.440   5.615
 3658TIP3    H110938   0.648   5.366   5.559
 3658TIP3    H210939   0.581   5.501   5.558
 3659TIP3   OH210940   3.895   3.180   3.264
 3659TIP3    H110941   3.925   3.208   3.350
 3659TIP3    H210942   3.947   3.102   3.245
 3660TIP3   OH210943   1.354   5.769   3.428
 3660TIP3    H110944   1.381   5.703   3.365
 3660TIP3    H210945   1.430   5.782   3.484
 3661TIP3   OH210946   3.734   3.976   3.011
 3661TIP3    H110947   3.727   3.917   3.087
 3661TIP3    H210948   3.756   4.061   3.049
 3662TIP3   OH210949   0.692   2.266   5.790
 3662TIP3    H110950   0.780   2.229   5.796
 3662TIP3    H210951   0.704   2.350   5.745
 3663TIP3   OH210952   1.352   6.076   0.308
 3663TIP3    H110953   1.362   5.987   0.273
 3663TIP3    H210954   1.266   6.076   0.350
 3664TIP3   OH210955   1.529   1.956   0.156
 3664TIP3    H110956   1.607   1.931   0.207
 3664TIP3    H210957   1.564   1.999   0.078
 3665TIP3   OH210958   3.860   5.394   1.212
 3665TIP3    H110959   3.898   5.318   1.257
 3665TIP3    H210960   3.900   5.469   1.255
 3666TIP3   OH210961   5.194   0.746   3.592
 3666TIP3    H110962   5.179   0.805   3.666
 3666TIP3    H210963   5.150   0.664   3.617
 3667TIP3   OH210964   0.491   3.055   3.083
 3667TIP3    H110965   0.585   3.033   3.084
 3667TIP3    H210966   0.447   2.970   3.076
 3668TIP3   OH210967   3.421   5.432   0.254
 3668TIP3    H110968   3.336   5.459   0.288
 3668TIP3    H210969   3.437   5.346   0.292
 3669TIP3   OH210970   5.417   2.426   0.709
 3669TIP3    H110971   5.399   2.465   0.623
 3669TIP3    H210972   5.512   2.437   0.720
 3670TIP3   OH210973   7.137   2.134   4.871
 3670TIP3    H110974   7.074   2.112   4.940
 3670TIP3    H210975   7.088   2.193   4.813
 3671TIP3   OH210976   6.430   4.657   1.098
 3671TIP3    H110977   6.384   4.731   1.059
 3671TIP3    H210978   6.470   4.692   1.178
 3672TIP3   OH210979   6.871   1.549   3.389
 3672TIP3    H110980   6.803   1.564   3.454
 3672TIP3    H210981   6.951   1.535   3.440
 3673TIP3   OH210982   6.494   3.525   5.041
 3673TIP3    H110983   6.453   3.514   4.955
 3673TIP3    H210984   6.538   3.442   5.058
 3674TIP3   OH210985   5.543   5.833   1.873
 3674TIP3    H110986   5.612   5.808   1.812
 3674TIP3    H210987   5.492   5.898   1.826
 3675TIP3   OH210988   5.687   6.264   0.390
 3675TIP3    H110989   5.636   6.344   0.377
 3675TIP3    H210990   5.647   6.222   0.467
 3676TIP3   OH210991   2.662   4.804   3.834
 3676TIP3    H110992   2.582   4.848   3.806
 3676TIP3    H210993   2.731   4.870   3.827
 3677TIP3   OH210994   3.189   6.585   2.829
 3677TIP3    H110995   3.115   6.644   2.818
 3677TIP3    H210996   3.155   6.499   2.807
 3678TIP3   OH210997   5.071   6.737   2.609
 3678TIP3    H110998   4.991   6.721   2.559
 3678TIP3    H210999   5.069   6.831   2.629
 3679TIP3   OH211000   6.657   1.633   1.189
 3679TIP3    H111001   6.641   1.596   1.276
 3679TIP3    H211002   6.572   1.670   1.163
 3680TIP3   OH211003   0.495   4.152   0.264
 3680TIP3    H111004   0.470   4.087   0.198
 3680TIP3    H211005   0.451   4.123   0.344
 3681TIP3   OH211006   2.655   0.480   3.343
 3681TIP3    H111007   2.570   0.524   3.353
 3681TIP3    H211008   2.633   0.395   3.304
 3682TIP3   OH211009   4.647   4.760   5.188
 3682TIP3    H111010   4.611   4.776   5.275
 3682TIP3    H211011   4.575   4.720   5.139
 3683TIP3   OH211012   5.175   4.665   2.127
 3683TIP3    H111013   5.162   4.759   2.140
 3683TIP3    H211014   5.158   4.652   2.034
 3684TIP3   OH211015   4.281   0.267   5.476
 3684TIP3    H111016   4.248   0.244   5.562
 3684TIP3    H211017   4.376   0.262   5.484
 3685TIP3   OH211018   6.618   4.117   0.532
 3685TIP3    H111019   6.583   4.028   0.542
 3685TIP3    H211020   6.637   4.145   0.622
 3686TIP3   OH211021   0.496   4.521   4.497
 3686TIP3    H111022   0.508   4.428   4.513
 3686TIP3    H211023   0.584   4.554   4.476
 3687TIP3   OH211024   6.435   0.896   4.725
 3687TIP3    H111025   6.358   0.947   4.698
 3687TIP3    H211026   6.419   0.808   4.691
 3688TIP3   OH211027   0.492   5.894   0.901
 3688TIP3    H111028   0.517   5.806   0.930
 3688TIP3    H211029   0.514   5.951   0.974
 3689TIP3   OH211030   0.124   2.490   5.838
 3689TIP3    H111031   0.119   2.406   5.882
 3689TIP3    H211032   0.218   2.512   5.838
 3690TIP3   OH211033   2.553   0.173   5.548
 3690TIP3    H111034   2.479   0.124   5.582
 3690TIP3    H211035   2.626   0.151   5.606
 3691TIP3   OH211036   6.773   0.609   4.456
 3691TIP3    H111037   6.790   0.699   4.484
 3691TIP3    H211038   6.827   0.556   4.514
 3692TIP3   OH211039   1.553   2.007   5.692
 3692TIP3    H111040   1.491   1.944   5.727
 3692TIP3    H211041   1.515   2.092   5.712
 3693TIP3   OH211042   5.810   1.833   2.904
 3693TIP3    H111043   5.784   1.869   2.819
 3693TIP3    H211044   5.754   1.756   2.916
 3694TIP3   OH211045   5.999   2.769   0.109
 3694TIP3    H111046   5.975   2.830   0.179
 3694TIP3    H211047   5.948   2.690   0.127
 3695TIP3   OH211048   4.507   1.827   3.859
 3695TIP3    H111049   4.495   1.749   3.805
 3695TIP3    H211050   4.431   1.882   3.838
 3696TIP3   OH211051   1.737   6.438   4.550
 3696TIP3    H111052   1.766   6.359   4.505
 3696TIP3    H211053   1.734   6.505   4.482
 3697TIP3   OH211054   4.051   4.274   0.849
 3697TIP3    H111055   4.103   4.204   0.888
 3697TIP3    H211056   4.097   4.354   0.874
 3698TIP3   OH211057   6.616   2.067   5.876
 3698TIP3    H111058   6.689   2.019   5.836
 3698TIP3    H211059   6.596   2.018   5.956
 3699TIP3   OH211060   3.386   3.887   0.117
 3699TIP3    H111061   3.344   3.823   0.175
 3699TIP3    H211062   3.323   3.958   0.111
 3700TIP3   OH211063   1.643   0.253   2.111
 3700TIP3    H111064   1.641   0.321   2.043
 3700TIP3    H211065   1.575   0.191   2.085
 3701TIP3   OH211066   7.120   6.611   1.735
 3701TIP3    H111067   7.185   6.681   1.736
 3701TIP3    H211068   7.143   6.555   1.809
 3702TIP3   OH211069   1.372   0.618   2.109
 3702TIP3    H111070   1.287   0.641   2.146
 3702TIP3    H211071   1.420   0.701   2.104
 3703TIP3   OH211072   5.400   1.372   2.651
 3703TIP3    H111073   5.313   1.397   2.620
 3703TIP3    H211074   5.408   1.280   2.627
 3704TIP3   OH211075   5.796   5.578   1.995
 3704TIP3    H111076   5.703   5.561   1.981
 3704TIP3    H211077   5.830   5.498   2.035
 3705TIP3   OH211078   1.574   4.560   5.101
 3705TIP3    H111079   1.536   4.566   5.013
 3705TIP3    H211080   1.600   4.469   5.109
 3706TIP3   OH211081   7.157   6.171   1.459
 3706TIP3    H111082   7.122   6.231   1.393
 3706TIP3    H211083   7.105   6.189   1.537
 3707TIP3   OH211084   2.377   1.374   1.184
 3707TIP3    H111085   2.397   1.374   1.278
 3707TIP3    H211086   2.300   1.318   1.176
 3708TIP3   OH211087   6.159   0.806   4.951
 3708TIP3    H111088   6.134   0.721   4.916
 3708TIP3    H211089   6.081   0.837   4.996
 3709TIP3   OH211090   5.140   3.873   5.688
 3709TIP3    H111091   5.063   3.838   5.644
 3709TIP3    H211092   5.156   3.814   5.761
 3710TIP3   OH211093   1.631   2.747   1.545
 3710TIP3    H111094   1.716   2.756   1.590
 3710TIP3    H211095   1.573   2.807   1.592
 3711TIP3   OH211096   6.929   0.840   4.829
 3711TIP3    H111097   6.934   0.936   4.832
 3711TIP3    H211098   6.946   0.819   4.737
 3712TIP3   OH211099   6.078   5.563   3.685
 3712TIP3    H111100   6.072   5.516   3.602
 3712TIP3    H211101   6.172   5.567   3.703
 3713TIP3   OH211102   6.860   3.995   4.186
 3713TIP3    H111103   6.925   4.005   4.117
 3713TIP3    H211104   6.779   4.028   4.148
 3714TIP3   OH211105   3.189   1.563   2.469
 3714TIP3    H111106   3.264   1.567   2.410
 3714TIP3    H211107   3.219   1.604   2.550
 3715TIP3   OH211108   5.070   2.997   1.683
 3715TIP3    H111109   5.159   3.011   1.715
 3715TIP3    H211110   5.081   2.983   1.589
 3716TIP3   OH211111   3.573   2.584   0.400
 3716TIP3    H111112   3.666   2.595   0.418
 3716TIP3    H211113   3.568   2.565   0.307
 3717TIP3   OH211114   2.778   2.755   4.572
 3717TIP3    H111115   2.831   2.686   4.532
 3717TIP3    H211116   2.807   2.758   4.663
 3718TIP3   OH211117   3.595   1.374   3.526
 3718TIP3    H111118   3.649   1.405   3.599
 3718TIP3    H211119   3.567   1.286   3.553
 3719TIP3   OH211120   6.859   3.558   4.503
 3719TIP3    H111121   6.791   3.621   4.480
 3719TIP3    H211122   6.900   3.594   4.582
 3720TIP3   OH211123   3.639   5.331   0.122
 3720TIP3    H111124   3.544   5.318   0.125
 3720TIP3    H211125   3.652   5.420   0.154
 3721TIP3   OH211126   5.700   1.953   1.969
 3721TIP3    H111127   5.674   1.863   1.989
 3721TIP3    H211128   5.647   2.007   2.028
 3722TIP3   OH211129   1.066   5.901   3.808
 3722TIP3    H111130   0.988   5.957   3.804
 3722TIP3    H211131   1.060   5.859   3.894
 3723TIP3   OH211132   6.847   6.611   0.523
 3723TIP3    H111133   6.787   6.594   0.595
 3723TIP3    H211134   6.823   6.547   0.456
 3724TIP3   OH211135   5.917   6.006   3.788
 3724TIP3    H111136   5.981   6.072   3.762
 3724TIP3    H211137   5.938   5.985   3.879
 3725TIP3   OH211138   6.866   4.436   0.776
 3725TIP3    H111139   6.852   4.358   0.723
 3725TIP3    H211140   6.908   4.498   0.716
 3726TIP3   OH211141   1.242   3.828   2.827
 3726TIP3    H111142   1.164   3.778   2.805
 3726TIP3    H211143   1.296   3.768   2.879
 3727TIP3   OH211144   0.223   2.579   2.755
 3727TIP3    H111145   0.229   2.673   2.776
 3727TIP3    H211146   0.135   2.568   2.721
 3728TIP3   OH211147   2.843   2.240   4.706
 3728TIP3    H111148   2.918   2.298   4.694
 3728TIP3    H211149   2.809   2.228   4.617
 3729TIP3   OH211150   4.012   1.104   1.446
 3729TIP3    H111151   3.958   1.137   1.517
 3729TIP3    H211152   4.016   1.175   1.383
 3730TIP3   OH211153   0.823   3.676   3.252
 3730TIP3    H111154   0.831   3.613   3.323
 3730TIP3    H211155   0.738   3.717   3.264
 3731TIP3   OH211156   4.874   5.585   2.510
 3731TIP3    H111157   4.911   5.575   2.598
 3731TIP3    H211158   4.826   5.668   2.514
 3732TIP3   OH211159   4.173   5.702   5.006
 3732TIP3    H111160   4.129   5.787   5.013
 3732TIP3    H211161   4.138   5.664   4.926
 3733TIP3   OH211162   3.296   2.525   4.441
 3733TIP3    H111163   3.211   2.520   4.486
 3733TIP3    H211164   3.278   2.578   4.364
 3734TIP3   OH211165   7.108   3.525   0.196
 3734TIP3    H111166   7.128   3.594   0.260
 3734TIP3    H211167   7.130   3.443   0.241
 3735TIP3   OH211168   1.938   2.897   2.399
 3735TIP3    H111169   1.993   2.945   2.461
 3735TIP3    H211170   2.000   2.862   2.335
 3736TIP3   OH211171   6.926   2.254   0.044
 3736TIP3    H111172   6.977   2.224  -0.031
 3736TIP3    H211173   6.945   2.348   0.050
 3737TIP3   OH211174   3.304   4.356  -0.009
 3737TIP3    H111175   3.340   4.432  -0.055
 3737TIP3    H211176   3.380   4.306   0.018
 3738TIP3   OH211177   1.554   2.242   4.373
 3738TIP3    H111178   1.557   2.286   4.458
 3738TIP3    H211179   1.466   2.260   4.339
 3739TIP3   OH211180   0.004   4.202   5.476
 3739TIP3    H111181  -0.046   4.282   5.458
 3739TIP3    H211182   0.096   4.230   5.475
 3740TIP3   OH211183   5.901   4.544   0.210
 3740TIP3    H111184   5.916   4.455   0.178
 3740TIP3    H211185   5.986   4.587   0.204
 3741TIP3   OH211186   3.992   1.448   5.792
 3741TIP3    H111187   3.962   1.456   5.882
 3741TIP3    H211188   3.916   1.473   5.739
 3742TIP3   OH211189   4.275   4.001   1.311
 3742TIP3    H111190   4.342   3.933   1.303
 3742TIP3    H211191   4.234   3.984   1.395
 3743TIP3   OH211192   4.637   1.539   5.041
 3743TIP3    H111193   4.606   1.576   4.959
 3743TIP3    H211194   4.557   1.517   5.089
 3744TIP3   OH211195   2.982   3.586   5.760
 3744TIP3    H111196   3.010   3.673   5.788
 3744TIP3    H211197   2.904   3.568   5.812
 3745TIP3   OH211198   1.171   5.456   2.646
 3745TIP3    H111199   1.194   5.548   2.659
 3745TIP3    H211200   1.215   5.431   2.565
 3746TIP3   OH211201   3.175   5.888   5.077
 3746TIP3    H111202   3.139   5.800   5.068
 3746TIP3    H211203   3.267   5.873   5.100
 3747TIP3   OH211204   2.378   1.948   0.784
 3747TIP3    H111205   2.452   1.985   0.833
 3747TIP3    H211206   2.349   2.019   0.727
 3748TIP3   OH211207   1.179   5.725   2.589
 3748TIP3    H111208   1.262   5.683   2.567
 3748TIP3    H211209   1.134   5.734   2.506
 3749TIP3   OH211210   3.234   4.659   1.302
 3749TIP3    H111211   3.229   4.603   1.224
 3749TIP3    H211212   3.284   4.736   1.273
 3750TIP3   OH211213   4.509   2.405   2.218
 3750TIP3    H111214   4.568   2.417   2.144
 3750TIP3    H211215   4.564   2.420   2.295
 3751TIP3   OH211216   7.099   0.779   0.115
 3751TIP3    H111217   7.127   0.848   0.055
 3751TIP3    H211218   7.176   0.763   0.171
 3752TIP3   OH211219   0.459   2.742   1.774
 3752TIP3    H111220   0.444   2.694   1.855
 3752TIP3    H211221   0.444   2.834   1.797
 3753TIP3   OH211222   7.179   4.886   5.907
 3753TIP3    H111223   7.098   4.864   5.861
 3753TIP3    H211224   7.227   4.941   5.846
 3754TIP3   OH211225   6.626   0.036   5.522
 3754TIP3    H111226   6.655  -0.046   5.563
 3754TIP3    H211227   6.601   0.092   5.595
 3755TIP3   OH211228   4.161   1.350   3.859
 3755TIP3    H111229   4.180   1.411   3.930
 3755TIP3    H211230   4.224   1.279   3.871
 3756TIP3   OH211231   3.830   3.468   0.308
 3756TIP3    H111232   3.924   3.473   0.324
 3756TIP3    H211233   3.804   3.382   0.339
 3757TIP3   OH211234   4.854   0.253   0.516
 3757TIP3    H111235   4.918   0.187   0.544
 3757TIP3    H211236   4.799   0.267   0.594
 3758TIP3   OH211237   3.081   6.611   0.301
 3758TIP3    H111238   3.001   6.577   0.343
 3758TIP3    H211239   3.125   6.661   0.370
 3759TIP3   OH211240   4.786   5.343   2.748
 3759TIP3    H111241   4.716   5.330   2.685
 3759TIP3    H211242   4.745   5.390   2.821
 3760TIP3   OH211243   4.537   2.042   3.599
 3760TIP3    H111244   4.625   2.014   3.623
 3760TIP3    H211245   4.521   2.001   3.514
 3761TIP3   OH211246   0.700   5.749   0.325
 3761TIP3    H111247   0.703   5.740   0.420
 3761TIP3    H211248   0.782   5.709   0.295
 3762TIP3   OH211249   1.228   4.121   3.538
 3762TIP3    H111250   1.259   4.067   3.610
 3762TIP3    H211251   1.199   4.058   3.472
 3763TIP3   OH211252   1.889   3.299   3.905
 3763TIP3    H111253   1.919   3.387   3.928
 3763TIP3    H211254   1.859   3.260   3.987
 3764TIP3   OH211255   0.485   4.106   0.529
 3764TIP3    H111256   0.491   4.015   0.558
 3764TIP3    H211257   0.446   4.152   0.604
 3765TIP3   OH211258   0.687   1.441   5.391
 3765TIP3    H111259   0.626   1.388   5.340
 3765TIP3    H211260   0.767   1.442   5.338
 3766TIP3   OH211261   4.315   0.005   1.831
 3766TIP3    H111262   4.387   0.066   1.813
 3766TIP3    H211263   4.294  -0.033   1.746
 3767TIP3   OH211264   7.090   0.835   5.060
 3767TIP3    H111265   7.099   0.739   5.058
 3767TIP3    H211266   7.036   0.855   4.983
 3768TIP3   OH211267   2.673   4.691   3.435
 3768TIP3    H111268   2.645   4.604   3.408
 3768TIP3    H211269   2.709   4.679   3.523
 3769TIP3   OH211270   3.129   3.168   3.159
 3769TIP3    H111271   3.123   3.172   3.255
 3769TIP3    H211272   3.125   3.259   3.131
 3770TIP3   OH211273   2.721   1.425   5.861
 3770TIP3    H111274   2.632   1.390   5.855
 3770TIP3    H211275   2.755   1.416   5.772
 3771TIP3   OH211276   2.365   1.832   1.829
 3771TIP3    H111277   2.438   1.850   1.769
 3771TIP3    H211278   2.299   1.788   1.775
 3772TIP3   OH211279   7.209   2.371   5.188
 3772TIP3    H111280   7.116   2.373   5.209
 3772TIP3    H211281   7.215   2.402   5.098
 3773TIP3   OH211282   2.474   3.546   0.158
 3773TIP3    H111283   2.476   3.473   0.220
 3773TIP3    H211284   2.506   3.509   0.076
 3774TIP3   OH211285   1.920   4.426   0.516
 3774TIP3    H111286   1.834   4.384   0.523
 3774TIP3    H211287   1.938   4.459   0.604
 3775TIP3   OH211288   3.540   5.359   2.002
 3775TIP3    H111289   3.570   5.305   1.928
 3775TIP3    H211290   3.559   5.449   1.975
 3776TIP3   OH211291   5.717   1.185   5.343
 3776TIP3    H111292   5.743   1.272   5.372
 3776TIP3    H211293   5.769   1.125   5.395
 3777TIP3   OH211294   2.191   3.447   0.010
 3777TIP3    H111295   2.239   3.396   0.076
 3777TIP3    H211296   2.160   3.381  -0.052
 3778TIP3   OH211297   3.627   3.345   3.818
 3778TIP3    H111298   3.548   3.346   3.872
 3778TIP3    H211299   3.665   3.432   3.829
 3779TIP3   OH211300   3.535   2.941   5.295
 3779TIP3    H111301   3.579   2.969   5.215
 3779TIP3    H211302   3.545   2.846   5.296
 3780TIP3   OH211303   6.017   0.990   5.288
 3780TIP3    H111304   6.037   1.050   5.216
 3780TIP3    H211305   6.094   0.992   5.344
 3781TIP3   OH211306   6.705   2.490   1.704
 3781TIP3    H111307   6.761   2.414   1.719
 3781TIP3    H211308   6.617   2.455   1.700
 3782TIP3   OH211309   3.717   0.248   5.814
 3782TIP3    H111310   3.717   0.198   5.733
 3782TIP3    H211311   3.706   0.183   5.884
 3783TIP3   OH211312   0.182   1.235   4.983
 3783TIP3    H111313   0.134   1.158   5.013
 3783TIP3    H211314   0.199   1.285   5.063
 3784TIP3   OH211315   6.259   6.279   1.580
 3784TIP3    H111316   6.228   6.246   1.496
 3784TIP3    H211317   6.331   6.338   1.557
 3785TIP3   OH211318   6.840   5.435   1.481
 3785TIP3    H111319   6.840   5.346   1.516
 3785TIP3    H211320   6.802   5.488   1.551
 3786TIP3   OH211321   4.529   4.563   1.096
 3786TIP3    H111322   4.603   4.602   1.049
 3786TIP3    H211323   4.506   4.486   1.044
 3787TIP3   OH211324   2.494   2.646   0.403
 3787TIP3    H111325   2.456   2.674   0.487
 3787TIP3    H211326   2.452   2.702   0.338
 3788TIP3   OH211327   5.340   0.734   5.415
 3788TIP3    H111328   5.433   0.755   5.413
 3788TIP3    H211329   5.321   0.715   5.507
 3789TIP3   OH211330   0.897   3.844   5.019
 3789TIP3    H111331   0.861   3.771   5.070
 3789TIP3    H211332   0.865   3.829   4.930
 3790TIP3   OH211333   7.180   5.512   5.745
 3790TIP3    H111334   7.185   5.439   5.683
 3790TIP3    H211335   7.129   5.578   5.699
 3791TIP3   OH211336   4.791   5.832   3.358
 3791TIP3    H111337   4.871   5.782   3.372
 3791TIP3    H211338   4.753   5.796   3.278
 3792TIP3   OH211339   4.140   1.798   3.676
 3792TIP3    H111340   4.227   1.792   3.636
 3792TIP3    H211341   4.154   1.847   3.757
 3793TIP3   OH211342   0.593   2.300   0.737
 3793TIP3    H111343   0.676   2.252   0.734
 3793TIP3    H211344   0.558   2.283   0.825
 3794TIP3   OH211345   6.593   1.834   0.455
 3794TIP3    H111346   6.617   1.897   0.387
 3794TIP3    H211347   6.672   1.826   0.509
 3795TIP3   OH211348   3.726   0.530   5.723
 3795TIP3    H111349   3.713   0.450   5.773
 3795TIP3    H211350   3.645   0.541   5.673
 3796TIP3   OH211351   3.268   1.771   3.811
 3796TIP3    H111352   3.271   1.685   3.769
 3796TIP3    H211353   3.314   1.830   3.750
 3797TIP3   OH211354   6.841   2.542   3.268
 3797TIP3    H111355   6.783   2.614   3.243
 3797TIP3    H211356   6.928   2.581   3.272
 3798TIP3   OH211357   6.641   2.999   3.859
 3798TIP3    H111358   6.727   3.013   3.821
 3798TIP3    H211359   6.633   2.904   3.868
 3799TIP3   OH211360   1.173   1.699   2.419
 3799TIP3    H111361   1.094   1.658   2.383
 3799TIP3    H211362   1.245   1.657   2.371
 3800TIP3   OH211363   2.699   6.163   0.374
 3800TIP3    H111364   2.734   6.185   0.461
 3800TIP3    H211365   2.749   6.086   0.347
 3801TIP3   OH211366   0.425   6.574   5.752
 3801TIP3    H111367   0.330   6.586   5.751
 3801TIP3    H211368   0.457   6.647   5.804
 3802TIP3   OH211369   5.093   3.354   3.422
 3802TIP3    H111370   5.172   3.330   3.471
 3802TIP3    H211371   5.065   3.437   3.461
 3803TIP3   OH211372   0.470   2.416   5.406
 3803TIP3    H111373   0.424   2.388   5.327
 3803TIP3    H211374   0.546   2.358   5.411
 3804TIP3   OH211375   6.449   4.180   5.342
 3804TIP3    H111376   6.367   4.142   5.375
 3804TIP3    H211377   6.454   4.149   5.251
 3805TIP3   OH211378   3.091   2.049   1.181
 3805TIP3    H111379   3.149   1.979   1.209
 3805TIP3    H211380   3.085   2.039   1.086
 3806TIP3   OH211381   6.543   3.585   2.246
 3806TIP3    H111382   6.617   3.544   2.201
 3806TIP3    H211383   6.558   3.567   2.339
 3807TIP3   OH211384   1.341   1.326   3.267
 3807TIP3    H111385   1.354   1.232   3.280
 3807TIP3    H211386   1.364   1.365   3.351
 3808TIP3   OH211387   6.858   4.739   5.639
 3808TIP3    H111388   6.796   4.707   5.704
 3808TIP3    H211389   6.915   4.799   5.689
 3809TIP3   OH211390   1.832   0.522   1.298
 3809TIP3    H111391   1.821   0.597   1.356
 3809TIP3    H211392   1.913   0.541   1.250
 3810TIP3   OH211393   3.319   0.093   5.171
 3810TIP3    H111394   3.345   0.133   5.254
 3810TIP3    H211395   3.223   0.088   5.176
 3811TIP3   OH211396   1.425   5.169   4.315
 3811TIP3    H111397   1.425   5.257   4.277
 3811TIP3    H211398   1.473   5.179   4.397
 3812TIP3   OH211399   1.520   0.045   2.431
 3812TIP3    H111400   1.473  -0.038   2.434
 3812TIP3    H211401   1.478   0.093   2.359
 3813TIP3   OH211402   6.451   4.159   3.405
 3813TIP3    H111403   6.469   4.179   3.313
 3813TIP3    H211404   6.500   4.078   3.421
 3814TIP3   OH211405   4.765   3.653   1.572
 3814TIP3    H111406   4.847   3.643   1.523
 3814TIP3    H211407   4.710   3.581   1.542
 3815TIP3   OH211408   3.858   1.533   4.049
 3815TIP3    H111409   3.825   1.572   4.130
 3815TIP3    H211410   3.813   1.582   3.979
 3816TIP3   OH211411   1.890   4.167   4.983
 3816TIP3    H111412   1.917   4.087   5.029
 3816TIP3    H211413   1.817   4.201   5.035
 3817TIP3   OH211414   3.070   2.391   4.729
 3817TIP3    H111415   3.068   2.379   4.824
 3817TIP3    H211416   3.124   2.468   4.716
 3818TIP3   OH211417   2.071   4.520   5.196
 3818TIP3    H111418   2.053   4.428   5.177
 3818TIP3    H211419   2.160   4.535   5.163
 3819TIP3   OH211420   5.358   0.322   0.951
 3819TIP3    H111421   5.443   0.330   0.994
 3819TIP3    H211422   5.294   0.345   1.020
 3820TIP3   OH211423   0.384   6.739   0.006
 3820TIP3    H111424   0.402   6.822   0.051
 3820TIP3    H211425   0.419   6.752  -0.082
 3821TIP3   OH211426   5.884   5.695   4.483
 3821TIP3    H111427   5.857   5.697   4.575
 3821TIP3    H211428   5.969   5.652   4.484
 3822TIP3   OH211429   7.146   6.180   2.037
 3822TIP3    H111430   7.090   6.103   2.036
 3822TIP3    H211431   7.235   6.145   2.032
 3823TIP3   OH211432   4.463   5.218   5.858
 3823TIP3    H111433   4.526   5.259   5.799
 3823TIP3    H211434   4.491   5.126   5.864
 3824TIP3   OH211435   3.275   4.729   2.519
 3824TIP3    H111436   3.341   4.692   2.579
 3824TIP3    H211437   3.303   4.700   2.432
 3825TIP3   OH211438   4.241   1.949   4.816
 3825TIP3    H111439   4.187   2.006   4.761
 3825TIP3    H211440   4.195   1.945   4.900
 3826TIP3   OH211441   4.856   4.083   1.245
 3826TIP3    H111442   4.867   4.177   1.236
 3826TIP3    H211443   4.785   4.061   1.185
 3827TIP3   OH211444   4.898   5.239   1.388
 3827TIP3    H111445   4.909   5.171   1.321
 3827TIP3    H211446   4.834   5.299   1.350
 3828TIP3   OH211447   5.750   1.976   1.051
 3828TIP3    H111448   5.817   1.990   0.984
 3828TIP3    H211449   5.783   2.021   1.129
 3829TIP3   OH211450   1.731   4.700   4.136
 3829TIP3    H111451   1.760   4.709   4.045
 3829TIP3    H211452   1.711   4.607   4.145
 3830TIP3   OH211453   6.518   2.642   5.171
 3830TIP3    H111454   6.579   2.568   5.170
 3830TIP3    H211455   6.553   2.700   5.239
 3831TIP3   OH211456   5.044   6.308   5.340
 3831TIP3    H111457   4.976   6.246   5.314
 3831TIP3    H211458   5.017   6.338   5.426
 3832TIP3   OH211459   1.903   2.814   5.280
 3832TIP3    H111460   1.824   2.828   5.332
 3832TIP3    H211461   1.939   2.732   5.314
 3833TIP3   OH211462   3.973   5.714   4.268
 3833TIP3    H111463   3.917   5.790   4.251
 3833TIP3    H211464   3.970   5.704   4.363
 3834TIP3   OH211465   6.446   1.245   4.452
 3834TIP3    H111466   6.391   1.197   4.390
 3834TIP3    H211467   6.395   1.247   4.533
 3835TIP3   OH211468   4.121   6.690   0.769
 3835TIP3    H111469   4.189   6.701   0.702
 3835TIP3    H211470   4.075   6.611   0.744
 3836TIP3   OH211471   4.897   4.127   4.506
 3836TIP3    H111472   4.828   4.186   4.477
 3836TIP3    H211473   4.933   4.169   4.585
 3837TIP3   OH211474   5.495   4.284   3.884
 3837TIP3    H111475   5.459   4.205   3.845
 3837TIP3    H211476   5.437   4.304   3.957
 3838TIP3   OH211477   1.769   1.521   1.499
 3838TIP3    H111478   1.785   1.605   1.455
 3838TIP3    H211479   1.839   1.464   1.468
 3839TIP3   OH211480   1.155   0.921   3.582
 3839TIP3    H111481   1.238   0.899   3.624
 3839TIP3    H211482   1.108   0.974   3.646
 3840TIP3   OH211483   2.694   2.704   5.377
 3840TIP3    H111484   2.669   2.633   5.437
 3840TIP3    H211485   2.678   2.667   5.290
 3841TIP3   OH211486   2.823   0.567   5.600
 3841TIP3    H111487   2.773   0.502   5.550
 3841TIP3    H211488   2.810   0.649   5.552
 3842TIP3   OH211489   4.555   0.840   2.174
 3842TIP3    H111490   4.547   0.914   2.234
 3842TIP3    H211491   4.470   0.796   2.179
 3843TIP3   OH211492   3.318   0.971   1.512
 3843TIP3    H111493   3.341   0.989   1.603
 3843TIP3    H211494   3.279   0.884   1.514
 3844TIP3   OH211495   0.458   5.520   3.445
 3844TIP3    H111496   0.423   5.542   3.358
 3844TIP3    H211497   0.401   5.567   3.506
 3845TIP3   OH211498   5.636   2.061   3.384
 3845TIP3    H111499   5.552   2.099   3.356
 3845TIP3    H211500   5.612   1.978   3.423
 3846TIP3   OH211501   4.803   2.460   3.241
 3846TIP3    H111502   4.825   2.394   3.306
 3846TIP3    H211503   4.814   2.543   3.286
 3847TIP3   OH211504   3.229   0.874   4.850
 3847TIP3    H111505   3.255   0.954   4.805
 3847TIP3    H211506   3.144   0.895   4.890
 3848TIP3   OH211507   4.152   3.101   5.119
 3848TIP3    H111508   4.070   3.140   5.149
 3848TIP3    H211509   4.130   3.009   5.103
 3849TIP3   OH211510   0.661   0.208   3.243
 3849TIP3    H111511   0.613   0.128   3.223
 3849TIP3    H211512   0.697   0.193   3.330
 3850TIP3   OH211513   2.902   6.241   0.943
 3850TIP3    H111514   2.854   6.313   0.901
 3850TIP3    H211515   2.994   6.266   0.936
 3851TIP3   OH211516   6.461   2.358   3.606
 3851TIP3    H111517   6.539   2.370   3.552
 3851TIP3    H211518   6.489   2.300   3.676
 3852TIP3   OH211519   6.521   5.879   2.884
 3852TIP3    H111520   6.539   5.858   2.792
 3852TIP3    H211521   6.591   5.837   2.933
 3853TIP3   OH211522   7.075   4.239   1.755
 3853TIP3    H111523   7.139   4.197   1.813
 3853TIP3    H211524   6.992   4.196   1.778
 3854TIP3   OH211525   0.512   2.638   2.543
 3854TIP3    H111526   0.602   2.644   2.576
 3854TIP3    H211527   0.483   2.729   2.537
 3855TIP3   OH211528   1.898   0.316   2.672
 3855TIP3    H111529   1.805   0.293   2.668
 3855TIP3    H211530   1.934   0.284   2.589
 3856TIP3   OH211531   0.943   2.192   5.876
 3856TIP3    H111532   1.029   2.222   5.906
 3856TIP3    H211533   0.960   2.106   5.839
 3857TIP3   OH211534   4.597   3.315   1.273
 3857TIP3    H111535   4.545   3.264   1.336
 3857TIP3    H211536   4.576   3.276   1.188
 3858TIP3   OH211537   1.369   2.293   2.181
 3858TIP3    H111538   1.428   2.301   2.256
 3858TIP3    H211539   1.426   2.300   2.104
 3859TIP3   OH211540   4.320   1.633   4.910
 3859TIP3    H111541   4.260   1.706   4.920
 3859TIP3    H211542   4.287   1.584   4.835
 3860TIP3   OH211543   5.855   5.565   3.850
 3860TIP3    H111544   5.872   5.621   3.926
 3860TIP3    H211545   5.928   5.583   3.790
 3861TIP3   OH211546   1.049   0.487   4.483
 3861TIP3    H111547   1.079   0.407   4.525
 3861TIP3    H211548   0.956   0.493   4.506
 3862TIP3   OH211549   1.115   3.179   5.193
 3862TIP3    H111550   1.040   3.124   5.169
 3862TIP3    H211551   1.077   3.265   5.211
 3863TIP3   OH211552   0.025   5.611   3.502
 3863TIP3    H111553   0.115   5.589   3.526
 3863TIP3    H211554  -0.024   5.605   3.584
 3864TIP3   OH211555   5.028   4.381   4.292
 3864TIP3    H111556   5.028   4.413   4.382
 3864TIP3    H211557   4.966   4.308   4.292
 3865TIP3   OH211558   5.496   0.160   2.843
 3865TIP3    H111559   5.442   0.239   2.839
 3865TIP3    H211560   5.433   0.089   2.855
 3866TIP3   OH211561   1.535   3.262   2.903
 3866TIP3    H111562   1.511   3.337   2.958
 3866TIP3    H211563   1.454   3.237   2.859
 3867TIP3   OH211564   6.845   0.415   5.571
 3867TIP3    H111565   6.850   0.359   5.648
 3867TIP3    H211566   6.755   0.447   5.570
 3868TIP3   OH211567   5.273   4.018   2.250
 3868TIP3    H111568   5.249   4.040   2.160
 3868TIP3    H211569   5.234   3.933   2.266
 3869TIP3   OH211570   6.009   5.858   0.164
 3869TIP3    H111571   6.094   5.826   0.135
 3869TIP3    H211572   6.030   5.927   0.228
 3870TIP3   OH211573   2.353   6.054   1.425
 3870TIP3    H111574   2.414   6.114   1.383
 3870TIP3    H211575   2.396   6.031   1.508
 3871TIP3   OH211576   4.717   2.495   2.987
 3871TIP3    H111577   4.732   2.587   2.967
 3871TIP3    H211578   4.739   2.486   3.079
 3872TIP3   OH211579   6.801   0.202   2.212
 3872TIP3    H111580   6.783   0.255   2.290
 3872TIP3    H211581   6.886   0.235   2.180
 3873TIP3   OH211582   6.448   2.436   3.161
 3873TIP3    H111583   6.471   2.343   3.169
 3873TIP3    H211584   6.450   2.469   3.251
 3874TIP3   OH211585   1.598   0.807   2.058
 3874TIP3    H111586   1.689   0.811   2.086
 3874TIP3    H211587   1.602   0.820   1.963
 3875TIP3   OH211588   0.124   4.664   2.645
 3875TIP3    H111589   0.151   4.658   2.737
 3875TIP3    H211590   0.161   4.748   2.615
 3876TIP3   OH211591   5.949   3.929   0.382
 3876TIP3    H111592   5.934   4.000   0.445
 3876TIP3    H211593   6.023   3.959   0.329
 3877TIP3   OH211594   0.966   4.395   1.062
 3877TIP3    H111595   0.936   4.406   1.152
 3877TIP3    H211596   0.917   4.320   1.028
 3878TIP3   OH211597   2.492   1.354   2.739
 3878TIP3    H111598   2.409   1.342   2.786
 3878TIP3    H211599   2.543   1.276   2.761
 3879TIP3   OH211600   5.878   0.771   0.075
 3879TIP3    H111601   5.796   0.723   0.069
 3879TIP3    H211602   5.907   0.758   0.166
 3880TIP3   OH211603   6.534   5.655   0.263
 3880TIP3    H111604   6.515   5.580   0.319
 3880TIP3    H211605   6.530   5.730   0.322
 3881TIP3   OH211606   1.015   3.561   4.101
 3881TIP3    H111607   1.059   3.477   4.110
 3881TIP3    H211608   0.974   3.557   4.014
 3882TIP3   OH211609   2.427   0.659   1.093
 3882TIP3    H111610   2.335   0.660   1.068
 3882TIP3    H211611   2.448   0.566   1.103
 3883TIP3   OH211612   0.728   1.115   4.002
 3883TIP3    H111613   0.788   1.068   4.061
 3883TIP3    H211614   0.643   1.074   4.017
 3884TIP3   OH211615   5.175   1.893   3.074
 3884TIP3    H111616   5.248   1.879   3.134
 3884TIP3    H211617   5.110   1.828   3.101
 3885TIP3   OH211618   1.099   1.596   1.928
 3885TIP3    H111619   1.143   1.553   2.001
 3885TIP3    H211620   1.165   1.601   1.859
 3886TIP3   OH211621   6.183   1.185   0.595
 3886TIP3    H111622   6.137   1.119   0.647
 3886TIP3    H211623   6.132   1.194   0.515
 3887TIP3   OH211624   3.639   3.579   2.318
 3887TIP3    H111625   3.566   3.634   2.291
 3887TIP3    H211626   3.677   3.624   2.393
 3888TIP3   OH211627   3.411   5.225   0.817
 3888TIP3    H111628   3.326   5.260   0.842
 3888TIP3    H211629   3.474   5.288   0.851
 3889TIP3   OH211630   2.974   5.894   3.020
 3889TIP3    H111631   2.920   5.815   3.032
 3889TIP3    H211632   3.025   5.875   2.941
 3890TIP3   OH211633   3.782   6.072   5.653
 3890TIP3    H111634   3.717   6.077   5.583
 3890TIP3    H211635   3.749   6.004   5.712
 3891TIP3   OH211636   5.908   0.268   3.356
 3891TIP3    H111637   5.903   0.238   3.447
 3891TIP3    H211638   5.865   0.198   3.306
 3892TIP3   OH211639   3.896   0.567   2.837
 3892TIP3    H111640   3.920   0.480   2.806
 3892TIP3    H211641   3.969   0.594   2.891
 3893TIP3   OH211642   0.699   5.428   3.664
 3893TIP3    H111643   0.642   5.504   3.650
 3893TIP3    H211644   0.786   5.457   3.637
 3894TIP3   OH211645   1.682   3.731   0.790
 3894TIP3    H111646   1.762   3.776   0.764
 3894TIP3    H211647   1.653   3.777   0.869
 3895TIP3   OH211648   1.906   6.583   5.236
 3895TIP3    H111649   1.971   6.653   5.241
 3895TIP3    H211650   1.933   6.520   5.302
 3896TIP3   OH211651   1.944   0.392   4.173
 3896TIP3    H111652   1.952   0.389   4.268
 3896TIP3    H211653   1.883   0.464   4.156
 3897TIP3   OH211654   6.384   4.711   5.448
 3897TIP3    H111655   6.471   4.684   5.420
 3897TIP3    H211656   6.392   4.805   5.465
 3898TIP3   OH211657   3.165   5.464   4.321
 3898TIP3    H111658   3.149   5.552   4.288
 3898TIP3    H211659   3.247   5.471   4.370
 3899TIP3   OH211660   6.758   0.509   0.641
 3899TIP3    H111661   6.683   0.555   0.678
 3899TIP3    H211662   6.811   0.577   0.600
 3900TIP3   OH211663   6.624   1.447   4.589
 3900TIP3    H111664   6.571   1.526   4.599
 3900TIP3    H211665   6.563   1.381   4.556
 3901TIP3   OH211666   1.298   2.991   1.200
 3901TIP3    H111667   1.217   2.965   1.244
 3901TIP3    H211668   1.340   3.053   1.260
 3902TIP3   OH211669   1.203   4.298   2.673
 3902TIP3    H111670   1.290   4.329   2.645
 3902TIP3    H211671   1.152   4.294   2.592
 3903TIP3   OH211672   6.676   5.356   4.318
 3903TIP3    H111673   6.648   5.395   4.235
 3903TIP3    H211674   6.748   5.297   4.294
 3904TIP3   OH211675   2.276   1.642   4.123
 3904TIP3    H111676   2.205   1.615   4.181
 3904TIP3    H211677   2.278   1.575   4.055
 3905TIP3   OH211678  -0.014   6.535   4.974
 3905TIP3    H111679   0.000   6.506   5.064
 3905TIP3    H211680   0.034   6.618   4.968
 3906TIP3   OH211681   0.892   0.200   5.644
 3906TIP3    H111682   0.905   0.108   5.620
 3906TIP3    H211683   0.798   0.215   5.635
 3907TIP3   OH211684   0.528   1.448   5.851
 3907TIP3    H111685   0.607   1.434   5.902
 3907TIP3    H211686   0.558   1.486   5.768
 3908TIP3   OH211687   2.231   4.200   2.475
 3908TIP3    H111688   2.182   4.119   2.472
 3908TIP3    H211689   2.317   4.175   2.510
 3909TIP3   OH211690   4.000   5.459   1.821
 3909TIP3    H111691   3.952   5.456   1.904
 3909TIP3    H211692   4.076   5.403   1.835
 3910TIP3   OH211693   1.475   5.327   5.522
 3910TIP3    H111694   1.486   5.402   5.464
 3910TIP3    H211695   1.527   5.258   5.482
 3911TIP3   OH211696   0.790   5.391   0.146
 3911TIP3    H111697   0.812   5.441   0.067
 3911TIP3    H211698   0.715   5.338   0.121
 3912TIP3   OH211699   2.516   0.532   2.292
 3912TIP3    H111700   2.504   0.440   2.270
 3912TIP3    H211701   2.454   0.548   2.363
 3913TIP3   OH211702   3.025   5.900   1.026
 3913TIP3    H111703   2.934   5.929   1.031
 3913TIP3    H211704   3.064   5.928   1.109
 3914TIP3   OH211705   1.149   6.424   0.226
 3914TIP3    H111706   1.103   6.486   0.169
 3914TIP3    H211707   1.138   6.339   0.182
 3915TIP3   OH211708   6.778   0.569   1.128
 3915TIP3    H111709   6.802   0.491   1.077
 3915TIP3    H211710   6.736   0.534   1.207
 3916TIP3   OH211711   2.855   0.970   3.908
 3916TIP3    H111712   2.849   0.928   3.822
 3916TIP3    H211713   2.912   1.046   3.894
 3917TIP3   OH211714   0.595   0.199   4.543
 3917TIP3    H111715   0.583   0.136   4.613
 3917TIP3    H211716   0.526   0.178   4.480
 3918TIP3   OH211717   6.222   2.447   0.147
 3918TIP3    H111718   6.260   2.390   0.214
 3918TIP3    H211719   6.163   2.390   0.098
 3919TIP3   OH211720   0.445   6.743   1.610
 3919TIP3    H111721   0.399   6.712   1.532
 3919TIP3    H211722   0.535   6.757   1.580
 3920TIP3   OH211723   0.490   0.251   0.243
 3920TIP3    H111724   0.511   0.247   0.336
 3920TIP3    H211725   0.398   0.278   0.241
 3921TIP3   OH211726   2.536   2.385   2.269
 3921TIP3    H111727   2.512   2.477   2.266
 3921TIP3    H211728   2.459   2.341   2.306
 3922TIP3   OH211729   0.190   5.414   1.764
 3922TIP3    H111730   0.199   5.434   1.857
 3922TIP3    H211731   0.279   5.424   1.729
 3923TIP3   OH211732   1.349   2.210   1.488
 3923TIP3    H111733   1.436   2.224   1.450
 3923TIP3    H211734   1.305   2.295   1.481
 3924TIP3   OH211735   2.080   0.460   0.772
 3924TIP3    H111736   1.995   0.493   0.742
 3924TIP3    H211737   2.069   0.448   0.866
 3925TIP3   OH211738   6.756   5.340   0.439
 3925TIP3    H111739   6.672   5.378   0.464
 3925TIP3    H211740   6.817   5.370   0.506
 3926TIP3   OH211741   3.122   6.052   4.876
 3926TIP3    H111742   3.146   6.009   4.958
 3926TIP3    H211743   3.083   5.983   4.823
 3927TIP3   OH211744   2.877   4.581   3.133
 3927TIP3    H111745   2.892   4.506   3.191
 3927TIP3    H211746   2.962   4.625   3.129
 3928TIP3   OH211747   0.755   4.352   2.744
 3928TIP3    H111748   0.789   4.352   2.654
 3928TIP3    H211749   0.776   4.265   2.777
 3929TIP3   OH211750   4.010   3.533   0.567
 3929TIP3    H111751   3.921   3.550   0.596
 3929TIP3    H211752   4.052   3.490   0.641
 3930TIP3   OH211753   5.183   1.200   1.667
 3930TIP3    H111754   5.172   1.293   1.688
 3930TIP3    H211755   5.097   1.161   1.684
 3931TIP3   OH211756   2.302   6.719   1.976
 3931TIP3    H111757   2.394   6.697   1.985
 3931TIP3    H211758   2.276   6.682   1.891
 3932TIP3   OH211759   4.690   6.479   3.279
 3932TIP3    H111760   4.697   6.454   3.186
 3932TIP3    H211761   4.607   6.527   3.284
 3933TIP3   OH211762   5.887   0.776   3.235
 3933TIP3    H111763   5.851   0.853   3.280
 3933TIP3    H211764   5.814   0.745   3.181
 3934TIP3   OH211765   2.744   4.502   5.598
 3934TIP3    H111766   2.674   4.560   5.568
 3934TIP3    H211767   2.767   4.450   5.520
 3935TIP3   OH211768   1.205   0.295   0.380
 3935TIP3    H111769   1.119   0.256   0.364
 3935TIP3    H211770   1.196   0.386   0.352
 3936TIP3   OH211771   3.811   3.150   3.861
 3936TIP3    H111772   3.789   3.071   3.811
 3936TIP3    H211773   3.735   3.207   3.851
 3937TIP3   OH211774   4.662   2.171   0.974
 3937TIP3    H111775   4.672   2.228   1.051
 3937TIP3    H211776   4.747   2.174   0.931
 3938TIP3   OH211777   3.537   2.118   4.141
 3938TIP3    H111778   3.600   2.157   4.080
 3938TIP3    H211779   3.483   2.191   4.170
 3939TIP3   OH211780   2.927   0.040   3.232
 3939TIP3    H111781   2.968   0.108   3.285
 3939TIP3    H211782   2.903  -0.028   3.295
 3940TIP3   OH211783   0.988   4.080   3.703
 3940TIP3    H111784   1.043   4.121   3.636
 3940TIP3    H211785   1.033   4.097   3.785
 3941TIP3   OH211786   6.049   6.295   1.020
 3941TIP3    H111787   5.988   6.235   1.064
 3941TIP3    H211788   6.042   6.272   0.927
 3942TIP3   OH211789   0.323   0.635   3.797
 3942TIP3    H111790   0.362   0.679   3.872
 3942TIP3    H211791   0.261   0.573   3.835
 3943TIP3   OH211792   4.162   5.446   3.817
 3943TIP3    H111793   4.101   5.512   3.850
 3943TIP3    H211794   4.248   5.473   3.850
 3944TIP3   OH211795   3.615   4.393   5.831
 3944TIP3    H111796   3.695   4.374   5.782
 3944TIP3    H211797   3.626   4.347   5.914
 3945TIP3   OH211798   0.619   5.554   0.908
 3945TIP3    H111799   0.628   5.461   0.928
 3945TIP3    H211800   0.709   5.586   0.904
 3946TIP3   OH211801   4.512   1.761   3.085
 3946TIP3    H111802   4.542   1.675   3.056
 3946TIP3    H211803   4.417   1.760   3.070
 3947TIP3   OH211804   3.425   2.531   2.746
 3947TIP3    H111805   3.407   2.492   2.832
 3947TIP3    H211806   3.349   2.587   2.729
 3948TIP3   OH211807   1.440   1.718   3.945
 3948TIP3    H111808   1.459   1.804   3.981
 3948TIP3    H211809   1.496   1.658   3.994
 3949TIP3   OH211810   2.983   0.378   0.472
 3949TIP3    H111811   2.903   0.328   0.486
 3949TIP3    H211812   3.006   0.411   0.559
 3950TIP3   OH211813   6.948   6.181   2.327
 3950TIP3    H111814   7.024   6.234   2.352
 3950TIP3    H211815   6.962   6.097   2.370
 3951TIP3   OH211816   5.597   4.629   4.855
 3951TIP3    H111817   5.564   4.545   4.887
 3951TIP3    H211818   5.618   4.613   4.763
 3952TIP3   OH211819   2.506   5.454   4.347
 3952TIP3    H111820   2.582   5.464   4.290
 3952TIP3    H211821   2.441   5.514   4.311
 3953TIP3   OH211822   7.073   1.430   1.499
 3953TIP3    H111823   6.999   1.465   1.449
 3953TIP3    H211824   7.033   1.380   1.570
 3954TIP3   OH211825   6.337   2.767   3.861
 3954TIP3    H111826   6.427   2.739   3.882
 3954TIP3    H211827   6.284   2.729   3.931
 3955TIP3   OH211828   2.049   1.017   4.802
 3955TIP3    H111829   1.987   0.958   4.757
 3955TIP3    H211830   2.134   0.998   4.762
 3956TIP3   OH211831   1.622   1.856   5.444
 3956TIP3    H111832   1.602   1.910   5.520
 3956TIP3    H211833   1.690   1.904   5.397
 3957TIP3   OH211834   0.000   1.267   1.315
 3957TIP3    H111835  -0.035   1.332   1.377
 3957TIP3    H211836  -0.041   1.184   1.342
 3958TIP3   OH211837   2.099   1.371   2.200
 3958TIP3    H111838   2.048   1.322   2.264
 3958TIP3    H211839   2.055   1.354   2.117
 3959TIP3   OH211840   1.098   6.200   5.727
 3959TIP3    H111841   1.167   6.200   5.793
 3959TIP3    H211842   1.023   6.159   5.771
 3960TIP3   OH211843   3.554   1.032   5.604
 3960TIP3    H111844   3.496   1.047   5.530
 3960TIP3    H211845   3.497   1.000   5.674
 3961TIP3   OH211846   1.179   4.831   2.959
 3961TIP3    H111847   1.198   4.907   3.015
 3961TIP3    H211848   1.196   4.756   3.015
 3962TIP3   OH211849   0.166   5.549   2.666
 3962TIP3    H111850   0.096   5.508   2.717
 3962TIP3    H211851   0.232   5.572   2.732
 3963TIP3   OH211852   0.098   3.235   1.114
 3963TIP3    H111853   0.084   3.211   1.022
 3963TIP3    H211854   0.071   3.327   1.119
 3964TIP3   OH211855   4.098   2.222   4.204
 3964TIP3    H111856   4.062   2.207   4.116
 3964TIP3    H211857   4.093   2.316   4.216
 3965TIP3   OH211858   0.409   0.236   2.754
 3965TIP3    H111859   0.475   0.168   2.756
 3965TIP3    H211860   0.458   0.318   2.761
 3966TIP3   OH211861   6.760   5.099   5.569
 3966TIP3    H111862   6.691   5.099   5.503
 3966TIP3    H211863   6.841   5.085   5.519
 3967TIP3   OH211864   3.503   0.366   2.446
 3967TIP3    H111865   3.506   0.446   2.498
 3967TIP3    H211866   3.450   0.388   2.370
 3968TIP3   OH211867   4.047   4.279   5.382
 3968TIP3    H111868   4.040   4.235   5.467
 3968TIP3    H211869   4.003   4.220   5.321
 3969TIP3   OH211870   4.207   5.374   5.605
 3969TIP3    H111871   4.234   5.283   5.596
 3969TIP3    H211872   4.284   5.424   5.579
 3970TIP3   OH211873   0.539   5.146   0.370
 3970TIP3    H111874   0.624   5.112   0.397
 3970TIP3    H211875   0.549   5.242   0.374
 3971TIP3   OH211876   5.530   4.988   3.832
 3971TIP3    H111877   5.489   5.009   3.916
 3971TIP3    H211878   5.594   5.057   3.818
 3972TIP3   OH211879   0.286   6.591   5.081
 3972TIP3    H111880   0.288   6.639   4.998
 3972TIP3    H211881   0.376   6.593   5.113
 3973TIP3   OH211882   4.091   5.531   1.285
 3973TIP3    H111883   4.078   5.520   1.379
 3973TIP3    H211884   4.169   5.586   1.279
 3974TIP3   OH211885   4.369   5.219   3.364
 3974TIP3    H111886   4.410   5.137   3.336
 3974TIP3    H211887   4.288   5.223   3.313
 3975TIP3   OH211888   5.594   1.203   3.664
 3975TIP3    H111889   5.567   1.242   3.748
 3975TIP3    H211890   5.582   1.109   3.676
 3976TIP3   OH211891   4.115   1.830   0.985
 3976TIP3    H111892   4.148   1.819   1.074
 3976TIP3    H211893   4.147   1.752   0.938
 3977TIP3   OH211894   2.933   6.146   4.660
 3977TIP3    H111895   2.989   6.081   4.703
 3977TIP3    H211896   2.914   6.108   4.574
 3978TIP3   OH211897   0.343   0.677   4.261
 3978TIP3    H111898   0.295   0.611   4.311
 3978TIP3    H211899   0.277   0.744   4.241
 3979TIP3   OH211900   2.231   5.720   0.395
 3979TIP3    H111901   2.280   5.794   0.358
 3979TIP3    H211902   2.145   5.726   0.353
 3980TIP3   OH211903   4.942   4.074   0.026
 3980TIP3    H111904   4.875   4.120   0.076
 3980TIP3    H211905   4.921   4.095  -0.065
 3981TIP3   OH211906   5.063   4.774   5.621
 3981TIP3    H111907   4.980   4.810   5.589
 3981TIP3    H211908   5.042   4.682   5.640
 3982TIP3   OH211909   6.527   5.940   4.195
 3982TIP3    H111910   6.601   5.916   4.252
 3982TIP3    H211911   6.555   5.912   4.108
 3983TIP3   OH211912   4.291   6.664   0.550
 3983TIP3    H111913   4.238   6.612   0.490
 3983TIP3    H211914   4.379   6.661   0.512
 3984TIP3   OH211915   2.769   3.120   2.474
 3984TIP3    H111916   2.860   3.144   2.489
 3984TIP3    H211917   2.773   3.027   2.449
 3985TIP3   OH211918   3.916   3.561   4.505
 3985TIP3    H111919   3.873   3.478   4.485
 3985TIP3    H211920   4.000   3.557   4.460
 3986TIP3   OH211921   0.635   6.556   2.654
 3986TIP3    H111922   0.539   6.549   2.657
 3986TIP3    H211923   0.658   6.604   2.733
 3987TIP3   OH211924   5.311   1.898   4.411
 3987TIP3    H111925   5.283   1.807   4.401
 3987TIP3    H211926   5.359   1.899   4.494
 3988TIP3   OH211927   6.248   3.601   3.139
 3988TIP3    H111928   6.278   3.588   3.049
 3988TIP3    H211929   6.178   3.537   3.151
 3989TIP3   OH211930   4.296   1.534   0.566
 3989TIP3    H111931   4.328   1.473   0.499
 3989TIP3    H211932   4.369   1.596   0.578
 3990TIP3   OH211933   2.173   1.552   2.556
 3990TIP3    H111934   2.186   1.457   2.552
 3990TIP3    H211935   2.228   1.586   2.485
 3991TIP3   OH211936   0.799   6.509   3.966
 3991TIP3    H111937   0.794   6.427   3.918
 3991TIP3    H211938   0.772   6.576   3.902
 3992TIP3   OH211939   5.808   4.226   0.382
 3992TIP3    H111940   5.724   4.195   0.347
 3992TIP3    H211941   5.785   4.298   0.440
 3993TIP3   OH211942   6.259   3.656   3.914
 3993TIP3    H111943   6.301   3.697   3.989
 3993TIP3    H211944   6.184   3.713   3.895
 3994TIP3   OH211945   0.955   4.629   0.118
 3994TIP3    H111946   0.870   4.649   0.078
 3994TIP3    H211947   0.935   4.564   0.185
 3995TIP3   OH211948   2.552   6.742   5.156
 3995TIP3    H111949   2.607   6.816   5.181
 3995TIP3    H211950   2.609   6.686   5.103
 3996TIP3   OH211951   0.554   4.079   2.990
 3996TIP3    H111952   0.564   4.161   3.039
 3996TIP3    H211953   0.608   4.016   3.039
 3997TIP3   OH211954   6.328   2.298   1.144
 3997TIP3    H111955   6.372   2.356   1.206
 3997TIP3    H211956   6.399   2.244   1.107
 3998TIP3   OH211957   0.705   6.212   0.988
 3998TIP3    H111958   0.743   6.124   0.984
 3998TIP3    H211959   0.664   6.216   1.075
 3999TIP3   OH211960   3.641   3.222   1.861
 3999TIP3    H111961   3.733   3.229   1.834
 3999TIP3    H211962   3.595   3.287   1.809
 4000TIP3   OH211963   2.115   2.515   1.060
 4000TIP3    H111964   2.054   2.442   1.068
 4000TIP3    H211965   2.152   2.506   0.972
 4001TIP3   OH211966   6.838   4.268   4.768
 4001TIP3    H111967   6.839   4.210   4.845
 4001TIP3    H211968   6.817   4.354   4.804
 4002TIP3   OH211969   0.812   6.235   0.669
 4002TIP3    H111970   0.795   6.271   0.582
 4002TIP3    H211971   0.740   6.267   0.723
 4003TIP3   OH211972   3.695   3.346   4.570
 4003TIP3    H111973   3.645   3.319   4.493
 4003TIP3    H211974   3.680   3.441   4.575
 4004TIP3   OH211975   6.157   5.209   5.312
 4004TIP3    H111976   6.172   5.180   5.222
 4004TIP3    H211977   6.220   5.279   5.325
 4005TIP3   OH211978   1.551   1.053   3.043
 4005TIP3    H111979   1.551   1.149   3.041
 4005TIP3    H211980   1.565   1.027   2.952
 4006TIP3   OH211981   5.142   3.720   5.256
 4006TIP3    H111982   5.057   3.763   5.263
 4006TIP3    H211983   5.202   3.776   5.305
 4007TIP3   OH211984   5.209   1.280   4.701
 4007TIP3    H111985   5.259   1.263   4.621
 4007TIP3    H211986   5.252   1.228   4.768
 4008TIP3   OH211987   6.574   0.112   4.523
 4008TIP3    H111988   6.502   0.171   4.542
 4008TIP3    H211989   6.652   0.167   4.520
 4009TIP3   OH211990   4.337   5.246   0.852
 4009TIP3    H111991   4.245   5.236   0.876
 4009TIP3    H211992   4.350   5.341   0.846
 4010TIP3   OH211993   0.087   4.670   5.435
 4010TIP3    H111994   0.087   4.627   5.520
 4010TIP3    H211995   0.003   4.647   5.396
 4011TIP3   OH211996   1.970   3.925   1.519
 4011TIP3    H111997   2.032   3.965   1.580
 4011TIP3    H211998   2.021   3.856   1.477
 4012TIP3   OH211999   1.861   6.751   3.353
 4012TIP3    H112000   1.878   6.672   3.404
 4012TIP3    H212001   1.948   6.790   3.339
 4013TIP3   OH212002   0.483   4.748   3.064
 4013TIP3    H112003   0.484   4.823   3.123
 4013TIP3    H212004   0.567   4.752   3.018
 4014TIP3   OH212005   6.818   1.271   2.193
 4014TIP3    H112006   6.798   1.296   2.284
 4014TIP3    H212007   6.852   1.182   2.201
 4015TIP3   OH212008   3.223   1.648   4.053
 4015TIP3    H112009   3.219   1.685   3.965
 4015TIP3    H212010   3.284   1.705   4.100
 4016TIP3   OH212011   7.045   2.177   3.397
 4016TIP3    H112012   7.069   2.247   3.457
 4016TIP3    H212013   7.070   2.096   3.442
 4017TIP3   OH212014   4.851   4.934   1.698
 4017TIP3    H112015   4.839   5.029   1.699
 4017TIP3    H212016   4.933   4.920   1.745
 4018TIP3   OH212017   6.640   4.787   0.914
 4018TIP3    H112018   6.670   4.710   0.961
 4018TIP3    H212019   6.667   4.772   0.823
 4019TIP3   OH212020   5.884   1.371   5.492
 4019TIP3    H112021   5.898   1.447   5.435
 4019TIP3    H212022   5.945   1.384   5.565
 4020TIP3   OH212023   2.841   0.289   1.183
 4020TIP3    H112024   2.755   0.253   1.162
 4020TIP3    H212025   2.854   0.360   1.120
 4021TIP3   OH212026   4.718   2.730   2.436
 4021TIP3    H112027   4.741   2.809   2.387
 4021TIP3    H212028   4.775   2.731   2.512
 4022TIP3   OH212029   5.694   4.637   4.590
 4022TIP3    H112030   5.620   4.662   4.534
 4022TIP3    H212031   5.753   4.589   4.533
 4023TIP3   OH212032   4.046   3.227   3.472
 4023TIP3    H112033   4.042   3.274   3.556
 4023TIP3    H212034   4.134   3.189   3.470
 4024TIP3   OH212035   6.839   5.620   5.053
 4024TIP3    H112036   6.887   5.658   5.127
 4024TIP3    H212037   6.821   5.694   4.995
 4025TIP3   OH212038   5.587   0.807   5.353
 4025TIP3    H112039   5.641   0.753   5.411
 4025TIP3    H212040   5.650   0.867   5.311
 4026TIP3   OH212041   4.708   4.056   3.154
 4026TIP3    H112042   4.773   4.101   3.208
 4026TIP3    H212043   4.728   4.085   3.064
 4027TIP3   OH212044   2.208   3.075   1.253
 4027TIP3    H112045   2.155   3.074   1.332
 4027TIP3    H212046   2.293   3.039   1.280
 4028TIP3   OH212047   3.722   2.203   2.919
 4028TIP3    H112048   3.648   2.186   2.861
 4028TIP3    H212049   3.694   2.278   2.971
 4029TIP3   OH212050   7.176   3.106   2.576
 4029TIP3    H112051   7.135   3.038   2.523
 4029TIP3    H212052   7.249   3.137   2.523
 4030TIP3   OH212053   0.180   6.684   4.566
 4030TIP3    H112054   0.205   6.734   4.644
 4030TIP3    H212055   0.132   6.608   4.601
 4031TIP3   OH212056   5.667   1.031   2.132
 4031TIP3    H112057   5.754   1.042   2.094
 4031TIP3    H212058   5.681   1.036   2.226
 4032TIP3   OH212059   4.642   2.525   5.495
 4032TIP3    H112060   4.548   2.519   5.511
 4032TIP3    H212061   4.658   2.463   5.424
 4033TIP3   OH212062   0.108   1.003   5.127
 4033TIP3    H112063   0.065   1.040   5.204
 4033TIP3    H212064   0.041   0.949   5.086
 4034TIP3   OH212065   5.287   2.213   1.105
 4034TIP3    H112066   5.327   2.207   1.192
 4034TIP3    H212067   5.354   2.180   1.046
 4035TIP3   OH212068   5.581   3.933   2.346
 4035TIP3    H112069   5.656   3.953   2.402
 4035TIP3    H212070   5.512   3.992   2.378
 4036TIP3   OH212071   0.264   5.063   4.561
 4036TIP3    H112072   0.175   5.053   4.527
 4036TIP3    H212073   0.319   5.017   4.497
 4037TIP3   OH212074   2.680   5.964   4.756
 4037TIP3    H112075   2.680   5.979   4.851
 4037TIP3    H212076   2.766   5.995   4.727
 4038TIP3   OH212077   6.070   3.724   5.661
 4038TIP3    H112078   6.117   3.642   5.649
 4038TIP3    H212079   6.018   3.711   5.740
 4039TIP3   OH212080   6.518   5.907   2.215
 4039TIP3    H112081   6.603   5.863   2.216
 4039TIP3    H212082   6.519   5.959   2.135
 4040TIP3   OH212083   2.645   1.924   3.467
 4040TIP3    H112084   2.670   1.875   3.389
 4040TIP3    H212085   2.570   1.877   3.504
 4041TIP3   OH212086   0.284   3.306   2.761
 4041TIP3    H112087   0.255   3.299   2.852
 4041TIP3    H212088   0.257   3.393   2.734
 4042TIP3   OH212089   7.040   1.768   1.976
 4042TIP3    H112090   6.975   1.813   1.922
 4042TIP3    H212091   7.029   1.675   1.954
 4043TIP3   OH212092   6.960   1.305   1.739
 4043TIP3    H112093   6.991   1.260   1.817
 4043TIP3    H212094   6.894   1.246   1.702
 4044TIP3   OH212095   5.964   2.894   5.726
 4044TIP3    H112096   6.004   2.816   5.765
 4044TIP3    H212097   6.034   2.934   5.674
 4045TIP3   OH212098   7.003   3.364   3.413
 4045TIP3    H112099   6.931   3.426   3.422
 4045TIP3    H212100   7.008   3.345   3.319
 4046TIP3   OH212101   1.416   5.102   0.475
 4046TIP3    H112102   1.437   5.182   0.523
 4046TIP3    H212103   1.430   5.032   0.538
 4047TIP3   OH212104   0.445   4.300   3.656
 4047TIP3    H112105   0.439   4.292   3.751
 4047TIP3    H212106   0.523   4.354   3.641
 4048TIP3   OH212107   3.653   2.954   3.009
 4048TIP3    H112108   3.586   2.885   3.005
 4048TIP3    H212109   3.616   3.019   3.069
 4049TIP3   OH212110   4.879   3.816   2.922
 4049TIP3    H112111   4.791   3.855   2.919
 4049TIP3    H212112   4.933   3.882   2.964
 4050TIP3   OH212113   5.133   5.361   3.590
 4050TIP3    H112114   5.189   5.375   3.514
 4050TIP3    H212115   5.135   5.444   3.637
 4051TIP3   OH212116   7.110   0.176   2.795
 4051TIP3    H112117   7.145   0.089   2.777
 4051TIP3    H212118   7.185   0.235   2.786
 4052TIP3   OH212119   2.130   6.239   2.462
 4052TIP3    H112120   2.109   6.273   2.375
 4052TIP3    H212121   2.109   6.146   2.458
 4053TIP3   OH212122   6.734   3.206   1.731
 4053TIP3    H112123   6.701   3.206   1.821
 4053TIP3    H212124   6.672   3.152   1.683
 4054TIP3   OH212125   1.418   2.955   5.438
 4054TIP3    H112126   1.429   3.043   5.472
 4054TIP3    H212127   1.405   2.900   5.515
 4055TIP3   OH212128   4.065   1.307   2.686
 4055TIP3    H112129   4.088   1.378   2.626
 4055TIP3    H212130   3.970   1.313   2.696
 4056TIP3   OH212131   6.280   3.597   1.898
 4056TIP3    H112132   6.267   3.629   1.987
 4056TIP3    H212133   6.240   3.665   1.842
 4057TIP3   OH212134   6.844   1.540   4.749
 4057TIP3    H112135   6.786   1.504   4.682
 4057TIP3    H212136   6.876   1.622   4.710
 4058TIP3   OH212137   1.753   5.931   3.077
 4058TIP3    H112138   1.721   6.021   3.075
 4058TIP3    H212139   1.849   5.939   3.082
 4059TIP3   OH212140   3.168   2.828   0.508
 4059TIP3    H112141   3.113   2.816   0.430
 4059TIP3    H212142   3.113   2.875   0.570
 4060TIP3   OH212143   0.138   6.160   0.278
 4060TIP3    H112144   0.095   6.245   0.273
 4060TIP3    H212145   0.085   6.108   0.338
 4061TIP3   OH212146   6.935   5.559   3.093
 4061TIP3    H112147   6.979   5.609   3.162
 4061TIP3    H212148   6.977   5.473   3.096
 4062TIP3   OH212149   6.459   2.316   1.566
 4062TIP3    H112150   6.500   2.373   1.501
 4062TIP3    H212151   6.384   2.367   1.599
 4063TIP3   OH212152   1.827   3.645   1.790
 4063TIP3    H112153   1.823   3.729   1.836
 4063TIP3    H212154   1.738   3.632   1.757
 4064TIP3   OH212155   2.379   0.404   4.399
 4064TIP3    H112156   2.373   0.499   4.391
 4064TIP3    H212157   2.356   0.371   4.312
 4065TIP3   OH212158   2.458   4.804   4.656
 4065TIP3    H112159   2.464   4.799   4.561
 4065TIP3    H212160   2.548   4.791   4.687
 4066TIP3   OH212161   5.821   6.789   2.928
 4066TIP3    H112162   5.890   6.845   2.961
 4066TIP3    H212163   5.865   6.705   2.910
 4067TIP3   OH212164   0.848   5.020   5.640
 4067TIP3    H112165   0.831   5.114   5.630
 4067TIP3    H212166   0.901   4.998   5.564
 4068TIP3   OH212167   2.679   5.386   0.115
 4068TIP3    H112168   2.686   5.408   0.208
 4068TIP3    H212169   2.663   5.469   0.071
 4069TIP3   OH212170   2.394   6.478   5.728
 4069TIP3    H112171   2.356   6.390   5.721
 4069TIP3    H212172   2.346   6.518   5.801
 4070TIP3   OH212173   6.950   6.387   3.171
 4070TIP3    H112174   6.875   6.334   3.143
 4070TIP3    H212175   6.922   6.426   3.254
 4071TIP3   OH212176   0.073   4.227   1.554
 4071TIP3    H112177  -0.011   4.248   1.596
 4071TIP3    H212178   0.056   4.145   1.507
 4072TIP3   OH212179   4.730   3.327   2.289
 4072TIP3    H112180   4.674   3.256   2.318
 4072TIP3    H212181   4.776   3.355   2.368
 4073TIP3   OH212182   4.296   5.899   1.006
 4073TIP3    H112183   4.322   5.832   1.069
 4073TIP3    H212184   4.356   5.971   1.021
 4074TIP3   OH212185   4.221   5.242   1.287
 4074TIP3    H112186   4.216   5.147   1.298
 4074TIP3    H212187   4.149   5.276   1.341
 4075TIP3   OH212188   6.333   1.001   2.549
 4075TIP3    H112189   6.263   0.945   2.582
 4075TIP3    H212190   6.407   0.982   2.606
 4076TIP3   OH212191   5.233   2.068   1.565
 4076TIP3    H112192   5.271   2.050   1.479
 4076TIP3    H212193   5.244   1.987   1.614
 4077TIP3   OH212194   0.478   2.481   1.655
 4077TIP3    H112195   0.486   2.572   1.683
 4077TIP3    H212196   0.457   2.433   1.735
 4078TIP3   OH212197   5.413   2.162   3.250
 4078TIP3    H112198   5.358   2.083   3.251
 4078TIP3    H212199   5.375   2.216   3.181
 4079TIP3   OH212200   7.042   4.321   5.060
 4079TIP3    H112201   7.072   4.351   4.975
 4079TIP3    H212202   7.118   4.277   5.098
 4080TIP3   OH212203   3.683   0.609   2.308
 4080TIP3    H112204   3.722   0.552   2.374
 4080TIP3    H212205   3.757   0.634   2.252
 4081TIP3   OH212206   5.193   3.087   0.893
 4081TIP3    H112207   5.275   3.121   0.858
 4081TIP3    H212208   5.214   2.999   0.924
 4082TIP3   OH212209   0.159   0.935   1.399
 4082TIP3    H112210   0.140   1.014   1.450
 4082TIP3    H212211   0.079   0.919   1.349
 4083TIP3   OH212212   2.729   4.167   2.390
 4083TIP3    H112213   2.808   4.119   2.368
 4083TIP3    H212214   2.707   4.215   2.310
 4084TIP3   OH212215   5.317   3.316   0.436
 4084TIP3    H112216   5.333   3.407   0.458
 4084TIP3    H212217   5.403   3.280   0.415
 4085TIP3   OH212218   3.408   3.053   0.182
 4085TIP3    H112219   3.324   3.085   0.216
 4085TIP3    H212220   3.428   2.977   0.237
 4086TIP3   OH212221   6.709   3.452   0.610
 4086TIP3    H112222   6.794   3.488   0.587
 4086TIP3    H212223   6.682   3.402   0.533
 4087TIP3   OH212224   5.552   1.747   2.386
 4087TIP3    H112225   5.515   1.800   2.457
 4087TIP3    H212226   5.504   1.664   2.391
 4088TIP3   OH212227   2.469   4.532   2.130
 4088TIP3    H112228   2.411   4.463   2.163
 4088TIP3    H212229   2.411   4.590   2.080
 4089TIP3   OH212230   7.052   5.864   0.275
 4089TIP3    H112231   6.991   5.848   0.203
 4089TIP3    H212232   7.031   5.795   0.339
 4090TIP3   OH212233   1.039   6.714   0.172
 4090TIP3    H112234   0.944   6.724   0.178
 4090TIP3    H212235   1.071   6.730   0.260
 4091TIP3   OH212236   1.090   4.401   5.137
 4091TIP3    H112237   1.155   4.468   5.161
 4091TIP3    H212238   1.129   4.358   5.061
 4092TIP3   OH212239   2.413   2.898   2.794
 4092TIP3    H112240   2.416   2.872   2.702
 4092TIP3    H212241   2.505   2.901   2.822
 4093TIP3   OH212242   7.180   6.060   2.696
 4093TIP3    H112243   7.213   6.149   2.684
 4093TIP3    H212244   7.154   6.056   2.788
 4094TIP3   OH212245   2.092   3.370   3.305
 4094TIP3    H112246   2.102   3.294   3.362
 4094TIP3    H212247   2.013   3.351   3.254
 4095TIP3   OH212248   2.320   4.727   1.357
 4095TIP3    H112249   2.343   4.686   1.440
 4095TIP3    H212250   2.346   4.664   1.290
 4096TIP3   OH212251   1.940   5.558   0.981
 4096TIP3    H112252   2.023   5.531   1.022
 4096TIP3    H212253   1.935   5.652   0.997
 4097TIP3   OH212254   3.195   3.062   2.791
 4097TIP3    H112255   3.288   3.054   2.811
 4097TIP3    H212256   3.187   3.030   2.701
 4098TIP3   OH212257   3.673   5.897   2.773
 4098TIP3    H112258   3.602   5.861   2.827
 4098TIP3    H212259   3.753   5.861   2.812
 4099TIP3   OH212260   0.603   2.047   0.344
 4099TIP3    H112261   0.587   1.976   0.282
 4099TIP3    H212262   0.530   2.043   0.405
 4100TIP3   OH212263   5.084   1.656   2.095
 4100TIP3    H112264   4.991   1.631   2.090
 4100TIP3    H212265   5.103   1.657   2.189
 4101TIP3   OH212266   4.149   6.172   3.253
 4101TIP3    H112267   4.183   6.255   3.289
 4101TIP3    H212268   4.144   6.187   3.159
 4102TIP3   OH212269   5.824   5.300   4.740
 4102TIP3    H112270   5.852   5.218   4.782
 4102TIP3    H212271   5.729   5.292   4.734
 4103TIP3   OH212272   6.023   4.319   2.190
 4103TIP3    H112273   6.101   4.364   2.160
 4103TIP3    H212274   5.954   4.348   2.130
 4104TIP3   OH212275   3.822   2.759   4.618
 4104TIP3    H112276   3.796   2.796   4.702
 4104TIP3    H212277   3.916   2.740   4.628
 4105TIP3   OH212278   3.904   3.888   2.303
 4105TIP3    H112279   3.968   3.849   2.243
 4105TIP3    H212280   3.820   3.876   2.259
 4106TIP3   OH212281   2.015   2.089   4.255
 4106TIP3    H112282   2.017   2.182   4.277
 4106TIP3    H212283   2.014   2.086   4.159
 4107TIP3   OH212284   3.960   4.875   2.681
 4107TIP3    H112285   4.039   4.864   2.733
 4107TIP3    H212286   3.984   4.936   2.612
 4108TIP3   OH212287   0.642   3.209   5.213
 4108TIP3    H112288   0.614   3.177   5.127
 4108TIP3    H212289   0.581   3.280   5.233
 4109TIP3   OH212290   5.812   6.123   3.447
 4109TIP3    H112291   5.775   6.036   3.432
 4109TIP3    H212292   5.780   6.149   3.533
 4110TIP3   OH212293   1.364   1.581  -0.032
 4110TIP3    H112294   1.407   1.633   0.036
 4110TIP3    H212295   1.366   1.491   0.003
 4111TIP3   OH212296   1.788   5.204   5.128
 4111TIP3    H112297   1.770   5.111   5.141
 4111TIP3    H212298   1.746   5.226   5.045
 4112TIP3   OH212299   5.029   6.469   4.193
 4112TIP3    H112300   5.121   6.485   4.171
 4112TIP3    H212301   5.001   6.400   4.133
 4113TIP3   OH212302   2.671   3.184   1.011
 4113TIP3    H112303   2.752   3.223   1.044
 4113TIP3    H212304   2.679   3.190   0.916
 4114TIP3   OH212305   6.183   2.946   4.764
 4114TIP3    H112306   6.249   3.000   4.808
 4114TIP3    H212307   6.160   2.996   4.686
 4115TIP3   OH212308   1.551   2.428   3.794
 4115TIP3    H112309   1.621   2.364   3.808
 4115TIP3    H212310   1.473   2.374   3.777
 4116TIP3   OH212311   5.817   6.396   3.919
 4116TIP3    H112312   5.804   6.488   3.940
 4116TIP3    H212313   5.911   6.386   3.909
 4117TIP3   OH212314   3.643   4.059   5.456
 4117TIP3    H112315   3.735   4.034   5.464
 4117TIP3    H212316   3.605   4.038   5.542
 4118TIP3   OH212317   6.999   3.014   3.460
 4118TIP3    H112318   6.980   3.018   3.367
 4118TIP3    H212319   7.067   3.079   3.474
 4119TIP3   OH212320   7.151   0.112   4.065
 4119TIP3    H112321   7.218   0.112   3.998
 4119TIP3    H212322   7.137   0.019   4.086
 4120TIP3   OH212323   2.876   6.451   4.584
 4120TIP3    H112324   2.803   6.415   4.634
 4120TIP3    H212325   2.933   6.491   4.650
 4121TIP3   OH212326   3.067   6.613   4.439
 4121TIP3    H112327   3.075   6.668   4.516
 4121TIP3    H212328   3.038   6.528   4.473
 4122TIP3   OH212329   2.476   0.821   5.303
 4122TIP3    H112330   2.497   0.874   5.226
 4122TIP3    H212331   2.461   0.884   5.373
 4123TIP3   OH212332   4.670   6.408   5.258
 4123TIP3    H112333   4.728   6.365   5.195
 4123TIP3    H212334   4.587   6.361   5.252
 4124TIP3   OH212335   6.314   4.709   2.518
 4124TIP3    H112336   6.225   4.742   2.508
 4124TIP3    H212337   6.303   4.616   2.538
 4125TIP3   OH212338   5.592   5.925   0.246
 4125TIP3    H112339   5.583   5.884   0.160
 4125TIP3    H212340   5.675   5.973   0.240
 4126TIP3   OH212341   0.871   5.886   1.983
 4126TIP3    H112342   0.910   5.800   1.972
 4126TIP3    H212343   0.886   5.908   2.075
 4127TIP3   OH212344   2.226   1.293   2.882
 4127TIP3    H112345   2.187   1.336   2.958
 4127TIP3    H212346   2.272   1.217   2.919
 4128TIP3   OH212347   2.505   5.515   3.144
 4128TIP3    H112348   2.452   5.594   3.150
 4128TIP3    H212349   2.530   5.509   3.052
 4129TIP3   OH212350   5.436   5.273   5.789
 4129TIP3    H112351   5.532   5.272   5.781
 4129TIP3    H212352   5.404   5.243   5.704
 4130TIP3   OH212353   1.858   5.988   3.569
 4130TIP3    H112354   1.921   5.952   3.507
 4130TIP3    H212355   1.789   5.921   3.576
 4131TIP3   OH212356   2.911   1.341   4.903
 4131TIP3    H112357   2.882   1.431   4.914
 4131TIP3    H212358   2.903   1.302   4.990
 4132TIP3   OH212359   4.862   4.216   4.994
 4132TIP3    H112360   4.937   4.271   5.016
 4132TIP3    H212361   4.796   4.238   5.059
 4133TIP3   OH212362   3.373   4.353   5.633
 4133TIP3    H112363   3.403   4.409   5.705
 4133TIP3    H212364   3.446   4.354   5.571
 4134TIP3   OH212365   0.544   1.260   0.170
 4134TIP3    H112366   0.457   1.219   0.169
 4134TIP3    H212367   0.605   1.188   0.157
 4135TIP3   OH212368   5.989   5.945   2.369
 4135TIP3    H112369   5.930   5.934   2.444
 4135TIP3    H212370   5.940   6.002   2.309
 4136TIP3   OH212371   0.734   1.708   3.860
 4136TIP3    H112372   0.810   1.656   3.885
 4136TIP3    H212373   0.659   1.658   3.892
 4137TIP3   OH212374   6.837   4.091   3.294
 4137TIP3    H112375   6.770   4.043   3.343
 4137TIP3    H212376   6.787   4.142   3.230
 4138TIP3   OH212377   3.260   2.469   0.058
 4138TIP3    H112378   3.209   2.391   0.039
 4138TIP3    H212379   3.343   2.456   0.011
 4139TIP3   OH212380   4.657   1.390   3.675
 4139TIP3    H112381   4.751   1.375   3.687
 4139TIP3    H212382   4.644   1.388   3.580
 4140TIP3   OH212383   3.704   3.358   4.851
 4140TIP3    H112384   3.695   3.347   4.757
 4140TIP3    H212385   3.795   3.385   4.864
 4141TIP3   OH212386   1.136   1.829   3.575
 4141TIP3    H112387   1.186   1.850   3.497
 4141TIP3    H212388   1.084   1.908   3.592
 4142TIP3   OH212389   4.526   6.346   2.342
 4142TIP3    H112390   4.443   6.353   2.390
 4142TIP3    H212391   4.590   6.322   2.410
 4143TIP3   OH212392   5.624   1.853   1.305
 4143TIP3    H112393   5.663   1.809   1.381
 4143TIP3    H212394   5.698   1.895   1.261
 4144TIP3   OH212395   1.184   2.359   1.010
 4144TIP3    H112396   1.196   2.441   1.059
 4144TIP3    H212397   1.090   2.355   0.994
 4145TIP3   OH212398   6.984   3.860   0.496
 4145TIP3    H112399   6.977   3.895   0.585
 4145TIP3    H212400   6.955   3.932   0.440
 4146TIP3   OH212401   0.427   4.637   5.615
 4146TIP3    H112402   0.395   4.584   5.541
 4146TIP3    H212403   0.485   4.701   5.574
 4147TIP3   OH212404   5.967   3.378   1.573
 4147TIP3    H112405   5.908   3.368   1.647
 4147TIP3    H212406   5.966   3.293   1.529
 4148TIP3   OH212407   1.716   4.585   1.733
 4148TIP3    H112408   1.790   4.528   1.713
 4148TIP3    H212409   1.757   4.665   1.768
 4149TIP3   OH212410   6.270   4.865   1.025
 4149TIP3    H112411   6.337   4.929   1.003
 4149TIP3    H212412   6.188   4.903   0.993
 4150TIP3   OH212413   6.244   5.037   1.677
 4150TIP3    H112414   6.331   5.077   1.690
 4150TIP3    H212415   6.186   5.086   1.735
 4151TIP3   OH212416   6.296   5.402   1.848
 4151TIP3    H112417   6.242   5.472   1.886
 4151TIP3    H212418   6.352   5.373   1.919
 4152TIP3   OH212419   0.222   1.239   1.640
 4152TIP3    H112420   0.237   1.229   1.546
 4152TIP3    H212421   0.160   1.170   1.662
 4153TIP3   OH212422   2.954   3.366   2.078
 4153TIP3    H112423   2.976   3.442   2.131
 4153TIP3    H212424   2.951   3.293   2.140
 4154TIP3   OH212425   3.080   2.569   2.162
 4154TIP3    H112426   3.125   2.631   2.220
 4154TIP3    H212427   3.001   2.544   2.210
 4155TIP3   OH212428   3.547   0.920   3.421
 4155TIP3    H112429   3.538   1.002   3.470
 4155TIP3    H212430   3.572   0.855   3.486
 4156TIP3   OH212431   0.382   2.184   2.156
 4156TIP3    H112432   0.308   2.235   2.189
 4156TIP3    H212433   0.424   2.242   2.092
 4157TIP3   OH212434   0.960   3.333   3.239
 4157TIP3    H112435   0.882   3.301   3.194
 4157TIP3    H212436   1.020   3.258   3.240
 4158TIP3   OH212437   5.046   0.039   1.604
 4158TIP3    H112438   5.114   0.079   1.550
 4158TIP3    H212439   5.091  -0.031   1.652
 4159TIP3   OH212440   2.486   1.260   3.057
 4159TIP3    H112441   2.433   1.181   3.062
 4159TIP3    H212442   2.576   1.229   3.071
 4160TIP3   OH212443   6.816   1.736   0.023
 4160TIP3    H112444   6.858   1.681  -0.043
 4160TIP3    H212445   6.817   1.683   0.103
 4161TIP3   OH212446   5.609   5.124   1.543
 4161TIP3    H112447   5.641   5.183   1.475
 4161TIP3    H212448   5.676   5.056   1.549
 4162TIP3   OH212449   1.649   5.434   0.460
 4162TIP3    H112450   1.599   5.405   0.535
 4162TIP3    H212451   1.722   5.484   0.497
 4163TIP3   OH212452   5.497   2.394   5.422
 4163TIP3    H112453   5.454   2.478   5.402
 4163TIP3    H212454   5.443   2.355   5.490
 4164TIP3   OH212455   6.930   3.012   2.470
 4164TIP3    H112456   6.846   3.004   2.426
 4164TIP3    H212457   6.909   3.042   2.559
 4165TIP3   OH212458   0.830   4.177   0.096
 4165TIP3    H112459   0.814   4.163   0.190
 4165TIP3    H212460   0.770   4.247   0.072
 4166TIP3   OH212461   0.498   6.008   2.715
 4166TIP3    H112462   0.577   6.063   2.713
 4166TIP3    H212463   0.503   5.963   2.799
 4167TIP3   OH212464   1.835   5.746   3.792
 4167TIP3    H112465   1.846   5.663   3.745
 4167TIP3    H212466   1.903   5.803   3.755
 4168TIP3   OH212467   5.620   0.943   3.754
 4168TIP3    H112468   5.558   0.876   3.783
 4168TIP3    H212469   5.669   0.900   3.683
 4169TIP3   OH212470   1.909   2.396   3.296
 4169TIP3    H112471   1.925   2.302   3.299
 4169TIP3    H212472   1.956   2.426   3.219
 4170TIP3   OH212473   4.837   3.080   5.779
 4170TIP3    H112474   4.907   3.068   5.843
 4170TIP3    H212475   4.792   3.159   5.807
 4171TIP3   OH212476   4.056   5.539   2.596
 4171TIP3    H112477   3.994   5.468   2.577
 4171TIP3    H212478   4.103   5.553   2.514
 4172TIP3   OH212479   0.094   1.592   1.243
 4172TIP3    H112480   0.045   1.653   1.188
 4172TIP3    H212481   0.185   1.619   1.233
 4173TIP3   OH212482   2.203   1.992   2.321
 4173TIP3    H112483   2.250   1.943   2.389
 4173TIP3    H212484   2.253   1.976   2.241
 4174TIP3   OH212485   0.821   5.278   5.782
 4174TIP3    H112486   0.765   5.334   5.727
 4174TIP3    H212487   0.852   5.335   5.851
 4175TIP3   OH212488   6.043   1.436   0.429
 4175TIP3    H112489   6.134   1.413   0.411
 4175TIP3    H212490   5.995   1.353   0.422
 4176TIP3   OH212491   0.725   3.821   2.839
 4176TIP3    H112492   0.631   3.835   2.823
 4176TIP3    H212493   0.731   3.727   2.859
 4177TIP3   OH212494   2.635   0.924   0.083
 4177TIP3    H112495   2.694   0.998   0.093
 4177TIP3    H212496   2.667   0.878   0.006
 4178TIP3   OH212497   5.465   6.729   0.434
 4178TIP3    H112498   5.523   6.697   0.502
 4178TIP3    H212499   5.432   6.812   0.467
 4179TIP3   OH212500   5.951   0.884   4.248
 4179TIP3    H112501   5.907   0.806   4.214
 4179TIP3    H212502   5.940   0.879   4.343
 4180TIP3   OH212503   2.184   5.681   0.667
 4180TIP3    H112504   2.139   5.606   0.705
 4180TIP3    H212505   2.178   5.668   0.572
 4181TIP3   OH212506   1.954   5.560   4.401
 4181TIP3    H112507   1.979   5.586   4.312
 4181TIP3    H212508   2.016   5.606   4.458
 4182TIP3   OH212509   6.829   4.064   3.821
 4182TIP3    H112510   6.831   4.138   3.761
 4182TIP3    H212511   6.739   4.064   3.856
 4183TIP3   OH212512   6.116   1.916   1.107
 4183TIP3    H112513   6.098   2.010   1.103
 4183TIP3    H212514   6.178   1.900   1.036
 4184TIP3   OH212515   3.813   4.344   2.400
 4184TIP3    H112516   3.874   4.345   2.326
 4184TIP3    H212517   3.846   4.273   2.456
 4185TIP3   OH212518   6.159   5.364   1.289
 4185TIP3    H112519   6.133   5.324   1.206
 4185TIP3    H212520   6.175   5.289   1.347
 4186TIP3   OH212521   1.232   0.735   5.155
 4186TIP3    H112522   1.223   0.679   5.232
 4186TIP3    H212523   1.149   0.727   5.109
 4187TIP3   OH212524   6.571   6.248   5.757
 4187TIP3    H112525   6.596   6.263   5.848
 4187TIP3    H212526   6.607   6.162   5.736
 4188TIP3   OH212527   6.600   6.076   3.866
 4188TIP3    H112528   6.673   6.130   3.896
 4188TIP3    H212529   6.635   6.025   3.793
 4189TIP3   OH212530   5.998   3.545   0.619
 4189TIP3    H112531   5.976   3.469   0.673
 4189TIP3    H212532   6.079   3.519   0.575
 4190TIP3   OH212533   4.555   0.293   0.370
 4190TIP3    H112534   4.482   0.234   0.350
 4190TIP3    H212535   4.600   0.252   0.443
 4191TIP3   OH212536   2.915   3.280   1.182
 4191TIP3    H112537   2.835   3.332   1.196
 4191TIP3    H212538   2.899   3.198   1.228
 4192TIP3   OH212539   1.123   4.930   1.046
 4192TIP3    H112540   1.134   4.995   1.116
 4192TIP3    H212541   1.207   4.885   1.040
 4193TIP3   OH212542   3.606   2.652   3.786
 4193TIP3    H112543   3.553   2.729   3.763
 4193TIP3    H212544   3.547   2.597   3.837
 4194TIP3   OH212545   3.355   2.974   4.445
 4194TIP3    H112546   3.441   2.948   4.479
 4194TIP3    H212547   3.293   2.936   4.506
 4195TIP3   OH212548   2.072   3.129   3.431
 4195TIP3    H112549   2.110   3.060   3.376
 4195TIP3    H212550   1.983   3.098   3.450
 4196TIP3   OH212551   3.375   0.147   1.064
 4196TIP3    H112552   3.306   0.171   1.126
 4196TIP3    H212553   3.338   0.074   1.014
 4197TIP3   OH212554   0.386   4.489   3.106
 4197TIP3    H112555   0.465   4.435   3.101
 4197TIP3    H212556   0.419   4.579   3.099
 4198TIP3   OH212557   2.131   0.545   5.322
 4198TIP3    H112558   2.038   0.552   5.299
 4198TIP3    H212559   2.131   0.509   5.410
 4199TIP3   OH212560   5.953   1.039   2.118
 4199TIP3    H112561   5.985   1.129   2.117
 4199TIP3    H212562   6.017   0.991   2.065
 4200TIP3   OH212563   6.447   0.387   0.711
 4200TIP3    H112564   6.500   0.455   0.672
 4200TIP3    H212565   6.372   0.433   0.749
 4201TIP3   OH212566   4.724   6.232   2.476
 4201TIP3    H112567   4.794   6.227   2.411
 4201TIP3    H212568   4.766   6.272   2.553
 4202TIP3   OH212569   6.015   3.916   4.442
 4202TIP3    H112570   5.973   3.993   4.479
 4202TIP3    H212571   6.034   3.940   4.351
 4203TIP3   OH212572   5.305   4.089   1.985
 4203TIP3    H112573   5.398   4.088   1.963
 4203TIP3    H212574   5.287   4.180   2.009
 4204TIP3   OH212575   0.631   0.916   5.810
 4204TIP3    H112576   0.617   0.997   5.761
 4204TIP3    H212577   0.706   0.934   5.866
 4205TIP3   OH212578   4.454   2.420   1.003
 4205TIP3    H112579   4.461   2.516   1.008
 4205TIP3    H212580   4.438   2.403   0.910
 4206TIP3   OH212581   1.417   6.190   3.374
 4206TIP3    H112582   1.478   6.133   3.328
 4206TIP3    H212583   1.390   6.254   3.308
 4207TIP3   OH212584   0.226   5.121   5.490
 4207TIP3    H112585   0.153   5.103   5.432
 4207TIP3    H212586   0.303   5.088   5.443
 4208TIP3   OH212587   5.340   4.145   0.854
 4208TIP3    H112588   5.260   4.175   0.896
 4208TIP3    H212589   5.342   4.190   0.770
 4209TIP3   OH212590   2.052   1.452   1.176
 4209TIP3    H112591   1.965   1.438   1.212
 4209TIP3    H212592   2.100   1.371   1.197
 4210TIP3   OH212593   1.631   2.081   5.147
 4210TIP3    H112594   1.541   2.067   5.117
 4210TIP3    H212595   1.686   2.053   5.073
 4211TIP3   OH212596   6.208   6.809   3.227
 4211TIP3    H112597   6.286   6.829   3.278
 4211TIP3    H212598   6.154   6.756   3.286
 4212TIP3   OH212599   6.983   4.750   3.086
 4212TIP3    H112600   6.923   4.760   3.013
 4212TIP3    H212601   7.048   4.687   3.056
 4213TIP3   OH212602   3.534   3.880   2.493
 4213TIP3    H112603   3.622   3.849   2.514
 4213TIP3    H212604   3.476   3.810   2.524
 4214TIP3   OH212605   6.749   2.627   2.876
 4214TIP3    H112606   6.812   2.555   2.875
 4214TIP3    H212607   6.772   2.680   2.800
 4215TIP3   OH212608   4.145   6.631   5.268
 4215TIP3    H112609   4.161   6.721   5.295
 4215TIP3    H212610   4.069   6.604   5.319
 4216TIP3   OH212611   1.632   0.198   2.630
 4216TIP3    H112612   1.557   0.256   2.644
 4216TIP3    H212613   1.598   0.126   2.576
 4217TIP3   OH212614   1.564   0.629   0.807
 4217TIP3    H112615   1.488   0.647   0.753
 4217TIP3    H212616   1.538   0.554   0.861
 4218TIP3   OH212617   6.052   4.359   5.487
 4218TIP3    H112618   6.113   4.327   5.554
 4218TIP3    H212619   6.108   4.388   5.415
 4219TIP3   OH212620   5.864   5.661   3.383
 4219TIP3    H112621   5.870   5.570   3.355
 4219TIP3    H212622   5.792   5.697   3.331
 4220TIP3   OH212623   0.086   6.210   5.474
 4220TIP3    H112624   0.022   6.218   5.404
 4220TIP3    H212625   0.171   6.210   5.430
 4221TIP3   OH212626   5.065   5.860   4.147
 4221TIP3    H112627   5.158   5.844   4.159
 4221TIP3    H212628   5.029   5.868   4.235
 4222TIP3   OH212629   5.372   4.580   3.264
 4222TIP3    H112630   5.291   4.549   3.305
 4222TIP3    H212631   5.359   4.564   3.170
 4223TIP3   OH212632   7.028   6.421   3.932
 4223TIP3    H112633   7.041   6.449   3.841
 4223TIP3    H212634   6.993   6.332   3.924
 4224TIP3   OH212635   0.811   0.715   3.013
 4224TIP3    H112636   0.751   0.658   3.061
 4224TIP3    H212637   0.755   0.769   2.958
 4225TIP3   OH212638   1.476   2.597   5.424
 4225TIP3    H112639   1.418   2.646   5.482
 4225TIP3    H212640   1.469   2.507   5.455
 4226TIP3   OH212641   3.138   6.222   0.052
 4226TIP3    H112642   3.086   6.251  -0.023
 4226TIP3    H212643   3.220   6.190   0.014
 4227TIP3   OH212644   1.691   1.625   0.530
 4227TIP3    H112645   1.687   1.688   0.459
 4227TIP3    H212646   1.709   1.678   0.608
 4228TIP3   OH212647   5.847   4.036   3.323
 4228TIP3    H112648   5.805   4.033   3.237
 4228TIP3    H212649   5.910   4.108   3.316
 4229TIP3   OH212650   3.659   0.764   3.629
 4229TIP3    H112651   3.609   0.747   3.709
 4229TIP3    H212652   3.750   0.745   3.653
 4230TIP3   OH212653   2.066   0.630   3.703
 4230TIP3    H112654   2.034   0.622   3.614
 4230TIP3    H212655   2.053   0.544   3.742
 4231TIP3   OH212656   3.548   2.228   1.776
 4231TIP3    H112657   3.593   2.207   1.858
 4231TIP3    H212658   3.517   2.143   1.743
 4232TIP3   OH212659   3.573   0.332   0.024
 4232TIP3    H112660   3.547   0.384   0.100
 4232TIP3    H212661   3.619   0.256   0.061
 4233TIP3   OH212662   1.825   4.277   3.807
 4233TIP3    H112663   1.916   4.293   3.831
 4233TIP3    H212664   1.830   4.212   3.737
 4234TIP3   OH212665   6.259   6.373   0.774
 4234TIP3    H112666   6.209   6.450   0.747
 4234TIP3    H212667   6.335   6.372   0.716
 4235TIP3   OH212668   0.617   0.659   5.693
 4235TIP3    H112669   0.523   0.665   5.675
 4235TIP3    H212670   0.644   0.749   5.712
 4236TIP3   OH212671   5.822   0.525   5.141
 4236TIP3    H112672   5.743   0.545   5.091
 4236TIP3    H212673   5.837   0.604   5.194
 4237TIP3   OH212674   1.434   0.994   0.543
 4237TIP3    H112675   1.463   0.905   0.522
 4237TIP3    H212676   1.515   1.045   0.546
 4238TIP3   OH212677   3.007   5.168   4.574
 4238TIP3    H112678   3.021   5.105   4.645
 4238TIP3    H212679   3.093   5.179   4.534
 4239TIP3   OH212680   0.338   6.779   5.406
 4239TIP3    H112681   0.323   6.811   5.494
 4239TIP3    H212682   0.386   6.697   5.417
 4240TIP3   OH212683   0.084   4.168   3.927
 4240TIP3    H112684   0.144   4.223   3.979
 4240TIP3    H212685   0.136   4.091   3.904
 4241TIP3   OH212686   6.239   5.859   4.176
 4241TIP3    H112687   6.330   5.888   4.164
 4241TIP3    H212688   6.236   5.828   4.266
 4242TIP3   OH212689   3.323   4.787   2.074
 4242TIP3    H112690   3.304   4.720   2.008
 4242TIP3    H212691   3.261   4.767   2.145
 4243TIP3   OH212692   0.592   6.355   5.760
 4243TIP3    H112693   0.658   6.421   5.781
 4243TIP3    H212694   0.509   6.402   5.768
 4244TIP3   OH212695   1.247   3.526   0.818
 4244TIP3    H112696   1.340   3.509   0.804
 4244TIP3    H212697   1.242   3.621   0.834
 4245TIP3   OH212698   5.951   3.230   0.541
 4245TIP3    H112699   6.035   3.243   0.498
 4245TIP3    H212700   5.895   3.299   0.505
 4246TIP3   OH212701   6.186   0.765   3.178
 4246TIP3    H112702   6.224   0.711   3.247
 4246TIP3    H212703   6.095   0.779   3.205
 4247TIP3   OH212704   0.928   1.969   4.608
 4247TIP3    H112705   0.838   2.002   4.601
 4247TIP3    H212706   0.919   1.874   4.606
 4248TIP3   OH212707   5.819   0.940   2.367
 4248TIP3    H112708   5.796   0.859   2.412
 4248TIP3    H212709   5.897   0.919   2.316
 4249TIP3   OH212710   5.596   3.322   0.213
 4249TIP3    H112711   5.570   3.392   0.154
 4249TIP3    H212712   5.691   3.315   0.202
 4250TIP3   OH212713   4.653   4.462   1.736
 4250TIP3    H112714   4.678   4.370   1.725
 4250TIP3    H212715   4.561   4.459   1.763
 4251TIP3   OH212716   2.735   1.610   4.637
 4251TIP3    H112717   2.753   1.626   4.545
 4251TIP3    H212718   2.680   1.532   4.638
 4252TIP3   OH212719   1.224   0.778   1.066
 4252TIP3    H112720   1.151   0.836   1.088
 4252TIP3    H212721   1.297   0.837   1.049
 4253TIP3   OH212722   6.844   2.100   3.252
 4253TIP3    H112723   6.920   2.125   3.304
 4253TIP3    H212724   6.829   2.008   3.276
 4254TIP3   OH212725   4.136   2.251   0.046
 4254TIP3    H112726   4.203   2.239   0.114
 4254TIP3    H212727   4.053   2.253   0.094
 4255TIP3   OH212728   4.309   6.320   4.987
 4255TIP3    H112729   4.285   6.413   4.989
 4255TIP3    H212730   4.337   6.301   5.077
 4256TIP3   OH212731   2.167   4.951   0.719
 4256TIP3    H112732   2.225   4.926   0.647
 4256TIP3    H212733   2.188   4.890   0.789
 4257TIP3   OH212734   5.051   3.447   5.182
 4257TIP3    H112735   4.981   3.451   5.247
 4257TIP3    H212736   5.092   3.533   5.187
 4258TIP3   OH212737   2.959   5.275   4.275
 4258TIP3    H112738   3.039   5.322   4.297
 4258TIP3    H212739   2.896   5.299   4.343
 4259TIP3   OH212740   2.219   2.247   0.607
 4259TIP3    H112741   2.148   2.297   0.648
 4259TIP3    H212742   2.299   2.284   0.643
 4260TIP3   OH212743   0.957   3.688   0.856
 4260TIP3    H112744   1.031   3.744   0.879
 4260TIP3    H212745   0.991   3.599   0.863
 4261TIP3   OH212746   4.703   2.669   4.880
 4261TIP3    H112747   4.743   2.756   4.871
 4261TIP3    H212748   4.633   2.668   4.816
 4262TIP3   OH212749   0.327   3.309   5.561
 4262TIP3    H112750   0.369   3.258   5.631
 4262TIP3    H212751   0.274   3.373   5.608
 4263TIP3   OH212752   5.837   5.390   3.337
 4263TIP3    H112753   5.778   5.405   3.263
 4263TIP3    H212754   5.784   5.340   3.400
 4264TIP3   OH212755   5.280   3.007   4.470
 4264TIP3    H112756   5.364   3.037   4.436
 4264TIP3    H212757   5.239   2.961   4.396
 4265TIP3   OH212758   7.174   5.868   2.250
 4265TIP3    H112759   7.220   5.936   2.299
 4265TIP3    H212760   7.143   5.807   2.316
 4266TIP3   OH212761   4.950   2.548   4.391
 4266TIP3    H112762   4.857   2.543   4.412
 4266TIP3    H212763   4.971   2.461   4.357
 4267TIP3   OH212764   5.813   4.831   4.803
 4267TIP3    H112765   5.769   4.769   4.745
 4267TIP3    H212766   5.857   4.777   4.868
 4268TIP3   OH212767   2.632   1.390   0.897
 4268TIP3    H112768   2.543   1.423   0.885
 4268TIP3    H212769   2.673   1.396   0.811
 4269TIP3   OH212770   6.994   2.459   2.870
 4269TIP3    H112771   7.045   2.525   2.918
 4269TIP3    H212772   6.969   2.395   2.937
 4270TIP3   OH212773   5.427   2.425   0.990
 4270TIP3    H112774   5.456   2.335   1.005
 4270TIP3    H212775   5.451   2.444   0.899
 4271TIP3   OH212776   0.874   5.612   5.031
 4271TIP3    H112777   0.920   5.529   5.016
 4271TIP3    H212778   0.781   5.590   5.021
 4272TIP3   OH212779   6.932   3.019   5.719
 4272TIP3    H112780   7.009   3.070   5.693
 4272TIP3    H212781   6.861   3.083   5.722
 4273TIP3   OH212782   6.507   2.176   3.237
 4273TIP3    H112783   6.516   2.120   3.313
 4273TIP3    H212784   6.509   2.116   3.162
 4274TIP3   OH212785   1.177   2.669   4.895
 4274TIP3    H112786   1.257   2.683   4.945
 4274TIP3    H212787   1.122   2.615   4.952
 4275TIP3   OH212788   2.516   3.734   2.048
 4275TIP3    H112789   2.539   3.733   2.141
 4275TIP3    H212790   2.470   3.652   2.034
 4276TIP3   OH212791   6.861   4.471   4.193
 4276TIP3    H112792   6.941   4.500   4.238
 4276TIP3    H212793   6.892   4.421   4.118
 4277TIP3   OH212794   0.845   6.016   1.197
 4277TIP3    H112795   0.855   5.921   1.209
 4277TIP3    H212796   0.830   6.050   1.285
 4278TIP3   OH212797   1.804   4.015   0.441
 4278TIP3    H112798   1.884   4.060   0.469
 4278TIP3    H212799   1.761   3.990   0.523
 4279TIP3   OH212800   2.157   5.490   4.599
 4279TIP3    H112801   2.250   5.492   4.576
 4279TIP3    H212802   2.125   5.408   4.562
 4280TIP3   OH212803   1.505   4.480   2.889
 4280TIP3    H112804   1.452   4.491   2.968
 4280TIP3    H212805   1.594   4.468   2.921
 4281TIP3   OH212806   2.073   1.898   5.178
 4281TIP3    H112807   2.147   1.946   5.217
 4281TIP3    H212808   2.087   1.807   5.204
 4282TIP3   OH212809   6.661   3.163   4.827
 4282TIP3    H112810   6.656   3.096   4.758
 4282TIP3    H212811   6.755   3.181   4.834
 4283TIP3   OH212812   1.784   0.945   4.291
 4283TIP3    H112813   1.833   1.011   4.340
 4283TIP3    H212814   1.740   0.893   4.359
 4284TIP3   OH212815   1.132   5.219   1.512
 4284TIP3    H112816   1.111   5.235   1.605
 4284TIP3    H212817   1.111   5.302   1.469
 4285TIP3   OH212818   4.084   1.124   5.476
 4285TIP3    H112819   3.989   1.118   5.468
 4285TIP3    H212820   4.117   1.054   5.420
 4286TIP3   OH212821   5.784   5.740   1.771
 4286TIP3    H112822   5.789   5.701   1.858
 4286TIP3    H212823   5.861   5.797   1.767
 4287TIP3   OH212824   3.892   4.610   2.088
 4287TIP3    H112825   3.852   4.632   2.005
 4287TIP3    H212826   3.873   4.517   2.101
 4288TIP3   OH212827   6.564   1.031   4.264
 4288TIP3    H112828   6.571   0.941   4.230
 4288TIP3    H212829   6.472   1.039   4.290
 4289TIP3   OH212830   4.230   3.741   0.471
 4289TIP3    H112831   4.159   3.680   0.490
 4289TIP3    H212832   4.293   3.727   0.543
 4290TIP3   OH212833   1.355   4.868   2.764
 4290TIP3    H112834   1.362   4.776   2.740
 4290TIP3    H212835   1.312   4.868   2.850
 4291TIP3   OH212836   4.419   0.306   1.561
 4291TIP3    H112837   4.485   0.271   1.500
 4291TIP3    H212838   4.466   0.370   1.614
 4292TIP3   OH212839   4.862   2.893   5.559
 4292TIP3    H112840   4.875   2.948   5.482
 4292TIP3    H212841   4.858   2.954   5.632
 4293TIP3   OH212842   5.487   5.951   5.168
 4293TIP3    H112843   5.580   5.939   5.190
 4293TIP3    H212844   5.458   6.024   5.223
 4294TIP3   OH212845   4.548   1.289   1.232
 4294TIP3    H112846   4.630   1.314   1.275
 4294TIP3    H212847   4.547   1.193   1.236
 4295TIP3   OH212848   1.881   0.839   4.050
 4295TIP3    H112849   1.848   0.875   4.133
 4295TIP3    H212850   1.857   0.905   3.985
 4296TIP3   OH212851   3.577   5.150   3.767
 4296TIP3    H112852   3.665   5.125   3.740
 4296TIP3    H212853   3.591   5.210   3.841
 4297TIP3   OH212854   4.610   2.790   5.543
 4297TIP3    H112855   4.635   2.699   5.526
 4297TIP3    H212856   4.693   2.838   5.545
 4298TIP3   OH212857   4.352   4.315   0.122
 4298TIP3    H112858   4.411   4.259   0.072
 4298TIP3    H212859   4.410   4.364   0.180
 4299TIP3   OH212860   6.273   5.715   3.374
 4299TIP3    H112861   6.201   5.739   3.432
 4299TIP3    H212862   6.270   5.779   3.304
 4300TIP3   OH212863   3.617   2.543   0.091
 4300TIP3    H112864   3.712   2.535   0.089
 4300TIP3    H212865   3.586   2.485   0.022
 4301TIP3   OH212866   6.182   2.244   2.093
 4301TIP3    H112867   6.165   2.296   2.014
 4301TIP3    H212868   6.145   2.297   2.164
 4302TIP3   OH212869   3.590   0.240   4.824
 4302TIP3    H112870   3.611   0.258   4.732
 4302TIP3    H212871   3.628   0.313   4.872
 4303TIP3   OH212872   3.774   4.047   5.808
 4303TIP3    H112873   3.715   4.002   5.747
 4303TIP3    H212874   3.735   4.032   5.894
 4304TIP3   OH212875   2.864   1.175   2.332
 4304TIP3    H112876   2.935   1.234   2.359
 4304TIP3    H212877   2.834   1.211   2.249
 4305TIP3   OH212878   6.966   5.807   1.373
 4305TIP3    H112879   6.919   5.879   1.330
 4305TIP3    H212880   6.916   5.790   1.452
 4306TIP3   OH212881   4.461   1.034   1.598
 4306TIP3    H112882   4.491   0.962   1.652
 4306TIP3    H212883   4.541   1.083   1.577
 4307TIP3   OH212884   0.720   4.525   5.708
 4307TIP3    H112885   0.798   4.472   5.728
 4307TIP3    H212886   0.750   4.588   5.642
 4308TIP3   OH212887   2.434   6.723   3.114
 4308TIP3    H112888   2.455   6.660   3.183
 4308TIP3    H212889   2.509   6.719   3.055
 4309TIP3   OH212890   3.432   4.326   3.647
 4309TIP3    H112891   3.385   4.360   3.724
 4309TIP3    H212892   3.504   4.388   3.634
 4310TIP3   OH212893   1.523   3.443   3.658
 4310TIP3    H112894   1.541   3.517   3.600
 4310TIP3    H212895   1.470   3.481   3.728
 4311TIP3   OH212896   1.204   1.690   4.187
 4311TIP3    H112897   1.267   1.754   4.220
 4311TIP3    H212898   1.122   1.739   4.180
 4312TIP3   OH212899   4.589   4.052   0.243
 4312TIP3    H112900   4.512   4.052   0.301
 4312TIP3    H212901   4.648   3.988   0.284
 4313TIP3   OH212902   1.585   1.989   4.473
 4313TIP3    H112903   1.611   2.068   4.425
 4313TIP3    H212904   1.540   2.022   4.550
 4314TIP3   OH212905   2.495   3.661   5.762
 4314TIP3    H112906   2.481   3.736   5.704
 4314TIP3    H212907   2.542   3.598   5.707
 4315TIP3   OH212908   1.593   1.427   2.313
 4315TIP3    H112909   1.650   1.442   2.388
 4315TIP3    H212910   1.539   1.351   2.338
 4316TIP3   OH212911   1.911   5.633   3.490
 4316TIP3    H112912   1.855   5.660   3.417
 4316TIP3    H212913   1.990   5.687   3.481
 4317TIP3   OH212914   6.678   4.550   2.033
 4317TIP3    H112915   6.606   4.599   2.072
 4317TIP3    H212916   6.672   4.567   1.939
 4318TIP3   OH212917   1.034   1.701   4.843
 4318TIP3    H112918   1.128   1.713   4.852
 4318TIP3    H212919   0.995   1.772   4.893
 4319TIP3   OH212920   1.521   6.180   5.054
 4319TIP3    H112921   1.598   6.127   5.076
 4319TIP3    H212922   1.482   6.135   4.979
 4320TIP3   OH212923   4.968   6.334   1.493
 4320TIP3    H112924   4.949   6.420   1.458
 4320TIP3    H212925   4.884   6.289   1.493
 4321TIP3   OH212926   2.995   2.302   2.398
 4321TIP3    H112927   2.991   2.208   2.380
 4321TIP3    H212928   2.968   2.343   2.316
 4322TIP3   OH212929   3.796   4.695   1.824
 4322TIP3    H112930   3.714   4.647   1.810
 4322TIP3    H212931   3.790   4.771   1.765
 4323TIP3   OH212932   1.419   0.494   4.123
 4323TIP3    H112933   1.338   0.495   4.073
 4323TIP3    H212934   1.419   0.409   4.168
 4324TIP3   OH212935   5.381   5.646   2.115
 4324TIP3    H112936   5.444   5.654   2.186
 4324TIP3    H212937   5.431   5.668   2.036
 4325TIP3   OH212938   5.185   5.418   2.883
 4325TIP3    H112939   5.174   5.418   2.788
 4325TIP3    H212940   5.122   5.353   2.914
 4326TIP3   OH212941   0.892   0.882   4.104
 4326TIP3    H112942   0.922   0.890   4.195
 4326TIP3    H212943   0.813   0.829   4.110
 4327TIP3   OH212944   2.537   5.448   3.777
 4327TIP3    H112945   2.509   5.400   3.855
 4327TIP3    H212946   2.619   5.491   3.802
 4328TIP3   OH212947   6.439   5.343   3.075
 4328TIP3    H112948   6.531   5.346   3.104
 4328TIP3    H212949   6.390   5.377   3.150
 4329TIP3   OH212950   0.795   1.613   4.365
 4329TIP3    H112951   0.722   1.554   4.343
 4329TIP3    H212952   0.801   1.608   4.461
 4330TIP3   OH212953   0.701   4.313   1.672
 4330TIP3    H112954   0.693   4.221   1.697
 4330TIP3    H212955   0.645   4.322   1.596
 4331TIP3   OH212956   2.852   0.246   4.300
 4331TIP3    H112957   2.801   0.290   4.369
 4331TIP3    H212958   2.802   0.263   4.220
 4332TIP3   OH212959   3.899   2.970   2.860
 4332TIP3    H112960   3.888   2.891   2.808
 4332TIP3    H212961   3.836   2.961   2.931
 4333TIP3   OH212962   3.603   2.141   4.593
 4333TIP3    H112963   3.531   2.156   4.655
 4333TIP3    H212964   3.609   2.046   4.586
 4334TIP3   OH212965   2.277   4.322   4.356
 4334TIP3    H112966   2.323   4.405   4.352
 4334TIP3    H212967   2.346   4.256   4.344
 4335TIP3   OH212968   0.938   3.523   3.834
 4335TIP3    H112969   0.979   3.463   3.771
 4335TIP3    H212970   0.859   3.553   3.789
 4336TIP3   OH212971   0.245   6.754   0.789
 4336TIP3    H112972   0.211   6.675   0.831
 4336TIP3    H212973   0.282   6.805   0.862
 4337TIP3   OH212974   3.623   1.750   5.059
 4337TIP3    H112975   3.592   1.660   5.050
 4337TIP3    H212976   3.631   1.764   5.153
 4338TIP3   OH212977   3.599   0.095   0.881
 4338TIP3    H112978   3.526   0.102   0.943
 4338TIP3    H212979   3.575   0.153   0.809
 4339TIP3   OH212980   5.657   4.365   2.574
 4339TIP3    H112981   5.719   4.369   2.502
 4339TIP3    H212982   5.574   4.342   2.533
 4340TIP3   OH212983   1.677   4.437   5.473
 4340TIP3    H112984   1.670   4.423   5.379
 4340TIP3    H212985   1.698   4.351   5.509
 4341TIP3   OH212986   3.964   0.609   2.415
 4341TIP3    H112987   3.910   0.532   2.435
 4341TIP3    H212988   4.014   0.583   2.338
 4342TIP3   OH212989   6.319   6.645   3.914
 4342TIP3    H112990   6.414   6.640   3.919
 4342TIP3    H212991   6.292   6.679   4.000
 4343TIP3   OH212992   2.327   4.168   5.620
 4343TIP3    H112993   2.266   4.235   5.590
 4343TIP3    H212994   2.285   4.085   5.598
 4344TIP3   OH212995   4.927   1.506   5.581
 4344TIP3    H112996   4.982   1.446   5.531
 4344TIP3    H212997   4.950   1.593   5.550
 4345TIP3   OH212998   5.842   4.838   1.940
 4345TIP3    H112999   5.922   4.788   1.956
 4345TIP3    H213000   5.872   4.929   1.936
 4346TIP3   OH213001   1.938   1.273   4.857
 4346TIP3    H113002   2.003   1.344   4.862
 4346TIP3    H213003   1.989   1.196   4.833
 4347TIP3   OH213004   5.669   1.636   4.343
 4347TIP3    H113005   5.673   1.668   4.253
 4347TIP3    H213006   5.653   1.714   4.396
 4348TIP3   OH213007   6.224   6.080   2.438
 4348TIP3    H113008   6.152   6.017   2.440
 4348TIP3    H213009   6.227   6.115   2.527
 4349TIP3   OH213010   5.513   0.163   2.105
 4349TIP3    H113011   5.497   0.230   2.038
 4349TIP3    H213012   5.577   0.203   2.164
 4350TIP3   OH213013   0.901   5.898   4.504
 4350TIP3    H113014   0.955   5.976   4.515
 4350TIP3    H213015   0.838   5.922   4.436
 4351TIP3   OH213016   3.420   2.119   2.884
 4351TIP3    H113017   3.361   2.107   2.809
 4351TIP3    H213018   3.389   2.200   2.925
 4352TIP3   OH213019   4.574   6.411   0.909
 4352TIP3    H113020   4.597   6.456   0.827
 4352TIP3    H213021   4.619   6.461   0.977
 4353TIP3   OH213022   4.417   0.496   4.566
 4353TIP3    H113023   4.440   0.589   4.578
 4353TIP3    H213024   4.339   0.498   4.510
 4354TIP3   OH213025   4.817   0.122   2.597
 4354TIP3    H113026   4.909   0.113   2.571
 4354TIP3    H213027   4.821   0.149   2.689
 4355TIP3   OH213028   0.731   4.786   0.320
 4355TIP3    H113029   0.688   4.716   0.370
 4355TIP3    H213030   0.730   4.755   0.229
 4356TIP3   OH213031   5.278   3.377   2.257
 4356TIP3    H113032   5.200   3.415   2.217
 4356TIP3    H213033   5.258   3.373   2.350
 4357TIP3   OH213034   5.091   1.713   4.019
 4357TIP3    H113035   5.092   1.617   4.024
 4357TIP3    H213036   5.000   1.737   4.036
 4358TIP3   OH213037   3.371   4.934   0.888
 4358TIP3    H113038   3.428   5.009   0.873
 4358TIP3    H213039   3.287   4.972   0.914
 4359TIP3   OH213040   0.803   3.845   5.434
 4359TIP3    H113041   0.723   3.889   5.404
 4359TIP3    H213042   0.825   3.785   5.363
 4360TIP3   OH213043   1.512   3.869   0.973
 4360TIP3    H113044   1.494   3.958   1.005
 4360TIP3    H213045   1.557   3.827   1.046
 4361TIP3   OH213046   6.633   4.362   5.403
 4361TIP3    H113047   6.577   4.287   5.386
 4361TIP3    H213048   6.694   4.363   5.329
 4362TIP3   OH213049   3.471   1.469   0.936
 4362TIP3    H113050   3.560   1.435   0.938
 4362TIP3    H213051   3.420   1.399   0.896
 4363TIP3   OH213052   2.239   1.258   1.572
 4363TIP3    H113053   2.184   1.193   1.615
 4363TIP3    H213054   2.199   1.342   1.594
 4364TIP3   OH213055   5.348   4.370   4.530
 4364TIP3    H113056   5.314   4.442   4.582
 4364TIP3    H213057   5.441   4.366   4.551
 4365TIP3   OH213058   6.833   6.013   4.691
 4365TIP3    H113059   6.914   6.057   4.665
 4365TIP3    H213060   6.813   6.048   4.778
 4366TIP3   OH213061   0.274   1.431   5.198
 4366TIP3    H113062   0.204   1.471   5.146
 4366TIP3    H213063   0.238   1.427   5.286
 4367TIP3   OH213064   1.779   3.643   2.196
 4367TIP3    H113065   1.804   3.735   2.191
 4367TIP3    H213066   1.684   3.645   2.201
 4368TIP3   OH213067   4.596   0.560   1.446
 4368TIP3    H113068   4.691   0.555   1.439
 4368TIP3    H213069   4.564   0.519   1.365
 4369TIP3   OH213070   1.832   5.064   0.934
 4369TIP3    H113071   1.790   5.093   0.853
 4369TIP3    H213072   1.880   4.985   0.909
 4370TIP3   OH213073   4.912   5.856   5.726
 4370TIP3    H113074   4.934   5.791   5.792
 4370TIP3    H213075   4.908   5.807   5.644
 4371TIP3   OH213076   5.971   3.958   5.340
 4371TIP3    H113077   5.954   3.864   5.331
 4371TIP3    H213078   5.906   3.989   5.403
 4372TIP3   OH213079   0.222   0.025   2.884
 4372TIP3    H113080   0.227   0.120   2.888
 4372TIP3    H213081   0.299  -0.001   2.832
 4373TIP3   OH213082   1.852   0.131   5.048
 4373TIP3    H113083   1.820   0.047   5.014
 4373TIP3    H213084   1.781   0.161   5.106
 4374TIP3   OH213085   5.203   1.535   3.030
 4374TIP3    H113086   5.236   1.614   2.987
 4374TIP3    H213087   5.108   1.539   3.019
 4375TIP3   OH213088   0.999   3.756   2.760
 4375TIP3    H113089   0.908   3.777   2.741
 4375TIP3    H213090   1.015   3.674   2.712
 4376TIP3   OH213091   4.948   1.564   2.912
 4376TIP3    H113092   4.879   1.528   2.856
 4376TIP3    H213093   4.906   1.639   2.956
 4377TIP3   OH213094   3.281   3.186   5.640
 4377TIP3    H113095   3.281   3.111   5.581
 4377TIP3    H213096   3.197   3.228   5.625
 4378TIP3   OH213097   5.029   3.332   3.166
 4378TIP3    H113098   5.075   3.406   3.126
 4378TIP3    H213099   5.060   3.331   3.257
 4379TIP3   OH213100   4.396   2.259   5.016
 4379TIP3    H113101   4.388   2.173   5.057
 4379TIP3    H213102   4.307   2.282   4.990
 4380TIP3   OH213103   6.889   3.636   2.704
 4380TIP3    H113104   6.967   3.634   2.649
 4380TIP3    H213105   6.817   3.615   2.644
 4381TIP3   OH213106   3.472   2.704   2.958
 4381TIP3    H113107   3.458   2.694   2.864
 4381TIP3    H213108   3.413   2.641   2.998
 4382TIP3   OH213109   5.447   5.763   4.975
 4382TIP3    H113110   5.455   5.819   5.052
 4382TIP3    H213111   5.391   5.813   4.915
 4383TIP3   OH213112   3.103   3.439   0.271
 4383TIP3    H113113   3.008   3.450   0.279
 4383TIP3    H213114   3.121   3.450   0.178
 4384TIP3   OH213115   3.581   1.585   1.207
 4384TIP3    H113116   3.663   1.623   1.173
 4384TIP3    H213117   3.576   1.499   1.166
 4385TIP3   OH213118   1.693   4.128   4.698
 4385TIP3    H113119   1.620   4.143   4.757
 4385TIP3    H213120   1.653   4.094   4.618
 4386TIP3   OH213121   6.440   1.354   4.912
 4386TIP3    H113122   6.533   1.343   4.891
 4386TIP3    H213123   6.439   1.390   5.001
 4387TIP3   OH213124   1.136   4.875   2.608
 4387TIP3    H113125   1.202   4.910   2.668
 4387TIP3    H213126   1.068   4.942   2.607
 4388TIP3   OH213127   0.638   5.318   3.929
 4388TIP3    H113128   0.703   5.355   3.869
 4388TIP3    H213129   0.570   5.385   3.936
 4389TIP3   OH213130   5.545   1.785   0.967
 4389TIP3    H113131   5.549   1.780   0.871
 4389TIP3    H213132   5.612   1.849   0.991
 4390TIP3   OH213133   4.380   2.681   0.338
 4390TIP3    H113134   4.438   2.605   0.326
 4390TIP3    H213135   4.332   2.662   0.418
 4391TIP3   OH213136   3.460   6.293   4.851
 4391TIP3    H113137   3.510   6.235   4.909
 4391TIP3    H213138   3.450   6.243   4.770
 4392TIP3   OH213139   3.611   2.971   4.969
 4392TIP3    H113140   3.702   2.969   4.999
 4392TIP3    H213141   3.577   3.054   5.003
 4393TIP3   OH213142   4.702   3.742   1.218
 4393TIP3    H113143   4.692   3.814   1.281
 4393TIP3    H213144   4.707   3.785   1.133
 4394TIP3   OH213145   6.324   4.699   4.300
 4394TIP3    H113146   6.387   4.766   4.274
 4394TIP3    H213147   6.332   4.694   4.395
 4395TIP3   OH213148   1.122   4.792   5.272
 4395TIP3    H113149   1.187   4.736   5.315
 4395TIP3    H213150   1.048   4.734   5.255
 4396TIP3   OH213151   1.610   5.092   1.459
 4396TIP3    H113152   1.684   5.084   1.520
 4396TIP3    H213153   1.546   5.146   1.505
 4397TIP3   OH213154   5.850   0.529   5.771
 4397TIP3    H113155   5.764   0.489   5.783
 4397TIP3    H213156   5.835   0.601   5.710
 4398TIP3   OH213157   0.976   5.857   5.474
 4398TIP3    H113158   0.921   5.826   5.546
 4398TIP3    H213159   0.962   5.951   5.471
 4399TIP3   OH213160   0.691   3.109   4.115
 4399TIP3    H113161   0.748   3.179   4.149
 4399TIP3    H213162   0.713   3.033   4.169
 4400TIP3   OH213163   3.059   3.215   5.171
 4400TIP3    H113164   3.153   3.215   5.153
 4400TIP3    H213165   3.053   3.215   5.267
 4401TIP3   OH213166   4.879   4.159   2.803
 4401TIP3    H113167   4.958   4.177   2.752
 4401TIP3    H213168   4.816   4.225   2.774
 4402TIP3   OH213169   1.703   6.441   3.300
 4402TIP3    H113170   1.711   6.348   3.320
 4402TIP3    H213171   1.755   6.485   3.368
 4403TIP3   OH213172   1.933   5.911   5.623
 4403TIP3    H113173   1.936   5.846   5.694
 4403TIP3    H213174   1.908   5.992   5.667
 4404TIP3   OH213175   5.605   0.705   4.605
 4404TIP3    H113176   5.606   0.800   4.613
 4404TIP3    H213177   5.542   0.687   4.535
 4405TIP3   OH213178   1.868   3.981   1.860
 4405TIP3    H113179   1.791   3.961   1.806
 4405TIP3    H213180   1.938   3.997   1.797
 4406TIP3   OH213181   6.705   6.444   0.947
 4406TIP3    H113182   6.623   6.488   0.926
 4406TIP3    H213183   6.769   6.515   0.953
 4407TIP3   OH213184   6.227   2.170   3.256
 4407TIP3    H113185   6.323   2.177   3.257
 4407TIP3    H213186   6.203   2.191   3.165
 4408TIP3   OH213187   5.191   5.921   5.728
 4408TIP3    H113188   5.097   5.920   5.747
 4408TIP3    H213189   5.226   5.849   5.780
 4409TIP3   OH213190   5.418   6.041   5.641
 4409TIP3    H113191   5.475   6.057   5.717
 4409TIP3    H213192   5.337   6.006   5.679
 4410TIP3   OH213193   6.416   1.792   3.720
 4410TIP3    H113194   6.363   1.713   3.731
 4410TIP3    H213195   6.415   1.808   3.625
 4411TIP3   OH213196   2.300   0.137   1.548
 4411TIP3    H113197   2.380   0.178   1.517
 4411TIP3    H213198   2.281   0.179   1.632
 4412TIP3   OH213199   7.056   4.396   5.747
 4412TIP3    H113200   7.114   4.343   5.801
 4412TIP3    H213201   6.968   4.367   5.771
 4413TIP3   OH213202   5.528   3.404   3.674
 4413TIP3    H113203   5.552   3.355   3.752
 4413TIP3    H213204   5.580   3.484   3.679
 4414TIP3   OH213205   3.999   1.690   5.163
 4414TIP3    H113206   4.014   1.781   5.138
 4414TIP3    H213207   3.942   1.655   5.094
 4415TIP3   OH213208   2.783   2.803   3.143
 4415TIP3    H113209   2.875   2.787   3.164
 4415TIP3    H213210   2.750   2.855   3.216
 4416TIP3   OH213211   0.729   4.326   4.356
 4416TIP3    H113212   0.753   4.239   4.324
 4416TIP3    H213213   0.778   4.335   4.438
 4417TIP3   OH213214   6.579   3.740   2.623
 4417TIP3    H113215   6.585   3.724   2.717
 4417TIP3    H213216   6.609   3.659   2.583
 4418TIP3   OH213217   1.437   3.625   2.573
 4418TIP3    H113218   1.485   3.591   2.648
 4418TIP3    H213219   1.418   3.547   2.519
 4419TIP3   OH213220   1.203   3.786   3.535
 4419TIP3    H113221   1.156   3.703   3.527
 4419TIP3    H213222   1.189   3.830   3.451
 4420TIP3   OH213223   3.504   1.893   4.876
 4420TIP3    H113224   3.421   1.849   4.895
 4420TIP3    H213225   3.569   1.848   4.930
 4421TIP3   OH213226   1.485   3.440   5.388
 4421TIP3    H113227   1.516   3.496   5.460
 4421TIP3    H213228   1.539   3.464   5.314
 4422TIP3   OH213229   1.898   3.162   0.017
 4422TIP3    H113230   1.951   3.186   0.093
 4422TIP3    H213231   1.828   3.108   0.052
 4423TIP3   OH213232   0.971   3.153   2.251
 4423TIP3    H113233   0.976   3.233   2.303
 4423TIP3    H213234   0.923   3.178   2.172
 4424TIP3   OH213235   0.586   0.832   0.633
 4424TIP3    H113236   0.507   0.784   0.608
 4424TIP3    H213237   0.650   0.764   0.653
 4425TIP3   OH213238   4.360   3.145   2.651
 4425TIP3    H113239   4.267   3.124   2.645
 4425TIP3    H213240   4.400   3.097   2.578
 4426TIP3   OH213241   1.153   3.591   2.539
 4426TIP3    H113242   1.199   3.607   2.456
 4426TIP3    H213243   1.219   3.550   2.595
 4427TIP3   OH213244   1.653   0.779   1.792
 4427TIP3    H113245   1.684   0.829   1.717
 4427TIP3    H213246   1.720   0.712   1.805
 4428TIP3   OH213247   3.309   2.070   5.560
 4428TIP3    H113248   3.283   2.027   5.478
 4428TIP3    H213249   3.229   2.072   5.613
 4429TIP3   OH213250   1.213   2.336   0.126
 4429TIP3    H113251   1.173   2.250   0.141
 4429TIP3    H213252   1.272   2.323   0.051
 4430TIP3   OH213253   6.550   1.693   2.271
 4430TIP3    H113254   6.528   1.768   2.216
 4430TIP3    H213255   6.629   1.719   2.319
 4431TIP3   OH213256   5.523   4.904   4.883
 4431TIP3    H113257   5.452   4.885   4.821
 4431TIP3    H213258   5.570   4.822   4.892
 4432TIP3   OH213259   7.013   0.709   2.848
 4432TIP3    H113260   7.008   0.614   2.846
 4432TIP3    H213261   7.045   0.730   2.936
 4433TIP3   OH213262   1.273   5.868   4.184
 4433TIP3    H113263   1.352   5.815   4.172
 4433TIP3    H213264   1.264   5.877   4.279
 4434TIP3   OH213265   0.428   1.433   5.539
 4434TIP3    H113266   0.504   1.396   5.493
 4434TIP3    H213267   0.354   1.380   5.509
 4435TIP3   OH213268   2.930   3.758   0.074
 4435TIP3    H113269   2.903   3.685   0.131
 4435TIP3    H213270   3.001   3.800   0.122
 4436TIP3   OH213271   4.197   0.345   0.481
 4436TIP3    H113272   4.199   0.439   0.464
 4436TIP3    H213273   4.144   0.309   0.409
 4437TIP3   OH213274   3.038   1.947   5.209
 4437TIP3    H113275   3.018   1.891   5.134
 4437TIP3    H213276   3.134   1.955   5.208
 4438TIP3   OH213277   6.166   2.101   4.275
 4438TIP3    H113278   6.083   2.143   4.293
 4438TIP3    H213279   6.232   2.166   4.300
 4439TIP3   OH213280   0.403   2.341   1.320
 4439TIP3    H113281   0.331   2.297   1.365
 4439TIP3    H213282   0.474   2.342   1.384
 4440TIP3   OH213283   4.068   4.735   4.511
 4440TIP3    H113284   4.145   4.777   4.473
 4440TIP3    H213285   4.010   4.809   4.534
 4441TIP3   OH213286   4.934   2.555   1.142
 4441TIP3    H113287   4.872   2.513   1.081
 4441TIP3    H213288   5.020   2.531   1.108
 4442TIP3   OH213289   6.078   5.368   3.470
 4442TIP3    H113290   5.989   5.375   3.436
 4442TIP3    H213291   6.090   5.275   3.489
 4443TIP3   OH213292   3.347   5.713   3.675
 4443TIP3    H113293   3.359   5.807   3.663
 4443TIP3    H213294   3.387   5.673   3.598
 4444TIP3   OH213295   6.501   4.288   2.233
 4444TIP3    H113296   6.493   4.239   2.315
 4444TIP3    H213297   6.557   4.233   2.178
 4445TIP3   OH213298   4.147   6.172   2.973
 4445TIP3    H113299   4.135   6.254   2.926
 4445TIP3    H213300   4.141   6.104   2.906
 4446TIP3   OH213301   4.400   4.422   2.060
 4446TIP3    H113302   4.394   4.517   2.050
 4446TIP3    H213303   4.394   4.388   1.970
 4447TIP3   OH213304   0.655   3.067   1.716
 4447TIP3    H113305   0.640   2.990   1.660
 4447TIP3    H213306   0.653   3.032   1.805
 4448TIP3   OH213307   3.091   3.973   1.913
 4448TIP3    H113308   3.082   4.066   1.890
 4448TIP3    H213309   3.155   3.972   1.984
 4449TIP3   OH213310   0.251   1.809   3.694
 4449TIP3    H113311   0.307   1.844   3.764
 4449TIP3    H213312   0.302   1.822   3.614
 4450TIP3   OH213313   1.611   5.307   1.915
 4450TIP3    H113314   1.642   5.334   1.829
 4450TIP3    H213315   1.517   5.290   1.903
 4451TIP3   OH213316   4.382   2.177   2.127
 4451TIP3    H113317   4.297   2.186   2.170
 4451TIP3    H213318   4.437   2.243   2.169
 4452TIP3   OH213319   6.982   2.528   2.564
 4452TIP3    H113320   6.934   2.603   2.600
 4452TIP3    H213321   6.914   2.468   2.534
 4453TIP3   OH213322   5.165   2.968   2.241
 4453TIP3    H113323   5.134   3.016   2.164
 4453TIP3    H213324   5.118   3.006   2.314
 4454TIP3   OH213325   6.194   4.082   1.138
 4454TIP3    H113326   6.259   4.034   1.087
 4454TIP3    H213327   6.131   4.016   1.165
 4455TIP3   OH213328   6.113   5.559   4.409
 4455TIP3    H113329   6.063   5.488   4.450
 4455TIP3    H213330   6.136   5.524   4.322
 4456TIP3   OH213331   6.316   0.061   5.496
 4456TIP3    H113332   6.373   0.091   5.566
 4456TIP3    H213333   6.260   0.136   5.476
 4457TIP3   OH213334   5.139   6.349   3.421
 4457TIP3    H113335   5.178   6.286   3.360
 4457TIP3    H213336   5.053   6.367   3.384
 4458TIP3   OH213337   6.754   1.067   2.690
 4458TIP3    H113338   6.719   0.978   2.695
 4458TIP3    H213339   6.847   1.057   2.711
 4459TIP3   OH213340   0.356   0.076   0.986
 4459TIP3    H113341   0.431   0.059   0.929
 4459TIP3    H213342   0.282   0.082   0.927
 4460TIP3   OH213343   2.418   5.945   0.308
 4460TIP3    H113344   2.513   5.936   0.314
 4460TIP3    H213345   2.404   6.029   0.265
 4461TIP3   OH213346   0.324   2.353   1.833
 4461TIP3    H113347   0.256   2.313   1.888
 4461TIP3    H213348   0.289   2.440   1.812
 4462TIP3   OH213349   0.286   5.492   5.336
 4462TIP3    H113350   0.343   5.428   5.293
 4462TIP3    H213351   0.333   5.575   5.326
 4463TIP3   OH213352   0.401   3.716   0.696
 4463TIP3    H113353   0.343   3.748   0.766
 4463TIP3    H213354   0.479   3.684   0.742
 4464TIP3   OH213355   6.787   2.327   2.241
 4464TIP3    H113356   6.801   2.372   2.324
 4464TIP3    H213357   6.766   2.237   2.265
 4465TIP3   OH213358   4.880   4.711   5.004
 4465TIP3    H113359   4.871   4.644   5.072
 4465TIP3    H213360   4.820   4.781   5.031
 4466TIP3   OH213361   0.410   4.112   1.241
 4466TIP3    H113362   0.481   4.156   1.288
 4466TIP3    H213363   0.366   4.060   1.307
 4467TIP3   OH213364   0.953   1.164   3.753
 4467TIP3    H113365   1.001   1.194   3.675
 4467TIP3    H213366   1.017   1.166   3.823
 4468TIP3   OH213367   3.732   4.239   4.096
 4468TIP3    H113368   3.687   4.164   4.136
 4468TIP3    H213369   3.661   4.292   4.059
 4469TIP3   OH213370   6.902   0.145   0.058
 4469TIP3    H113371   6.844   0.163  -0.015
 4469TIP3    H213372   6.961   0.220   0.062
 4470TIP3   OH213373   3.026   2.450   5.023
 4470TIP3    H113374   3.112   2.464   5.063
 4470TIP3    H213375   2.986   2.537   5.021
 4471TIP3   OH213376   0.735   1.188   3.509
 4471TIP3    H113377   0.824   1.222   3.505
 4471TIP3    H213378   0.692   1.226   3.432
 4472TIP3   OH213379   4.752   2.092   3.179
 4472TIP3    H113380   4.799   2.175   3.187
 4472TIP3    H213381   4.747   2.059   3.268
 4473TIP3   OH213382   2.896   0.885   0.921
 4473TIP3    H113383   2.929   0.962   0.874
 4473TIP3    H213384   2.969   0.824   0.922
 4474TIP3   OH213385   2.827   2.286   4.031
 4474TIP3    H113386   2.786   2.199   4.026
 4474TIP3    H213387   2.855   2.304   3.941
 4475TIP3   OH213388   2.716   0.698   1.865
 4475TIP3    H113389   2.628   0.734   1.876
 4475TIP3    H213390   2.713   0.655   1.779
 4476TIP3   OH213391   3.818   6.641   0.806
 4476TIP3    H113392   3.847   6.652   0.897
 4476TIP3    H213393   3.867   6.565   0.775
 4477TIP3   OH213394   4.795   4.783   5.773
 4477TIP3    H113395   4.849   4.704   5.785
 4477TIP3    H213396   4.792   4.796   5.679
 4478TIP3   OH213397   6.515   3.186   3.560
 4478TIP3    H113398   6.454   3.119   3.592
 4478TIP3    H213399   6.589   3.136   3.525
 4479TIP3   OH213400   6.963   4.862   4.610
 4479TIP3    H113401   6.919   4.784   4.645
 4479TIP3    H213402   7.044   4.868   4.660
 4480TIP3   OH213403   0.651   4.381   0.052
 4480TIP3    H113404   0.629   4.373  -0.041
 4480TIP3    H213405   0.569   4.363   0.098
 4481TIP3   OH213406   1.341   5.760   4.868
 4481TIP3    H113407   1.391   5.702   4.926
 4481TIP3    H213408   1.250   5.748   4.895
 4482TIP3   OH213409   0.102   2.534   2.355
 4482TIP3    H113410   0.047   2.457   2.337
 4482TIP3    H213411   0.175   2.526   2.294
 4483TIP3   OH213412   6.350   0.449   5.468
 4483TIP3    H113413   6.278   0.416   5.415
 4483TIP3    H213414   6.412   0.485   5.404
 4484TIP3   OH213415   0.858   4.568   0.661
 4484TIP3    H113416   0.764   4.551   0.656
 4484TIP3    H213417   0.865   4.656   0.698
 4485TIP3   OH213418   4.114   2.800   5.291
 4485TIP3    H113419   4.081   2.867   5.351
 4485TIP3    H213420   4.184   2.758   5.339
 4486TIP3   OH213421   1.195   0.957   2.768
 4486TIP3    H113422   1.173   0.865   2.754
 4486TIP3    H213423   1.253   0.957   2.843
 4487TIP3   OH213424   6.070   6.573   3.322
 4487TIP3    H113425   6.002   6.576   3.254
 4487TIP3    H213426   6.046   6.498   3.376
 4488TIP3   OH213427   6.913   0.753   0.732
 4488TIP3    H113428   6.838   0.775   0.787
 4488TIP3    H213429   6.965   0.692   0.785
 4489TIP3   OH213430   3.145   3.060   0.773
 4489TIP3    H113431   3.168   3.007   0.848
 4489TIP3    H213432   3.221   3.056   0.716
 4490TIP3   OH213433   0.083   2.303   1.944
 4490TIP3    H113434   0.126   2.365   2.002
 4490TIP3    H213435  -0.003   2.342   1.927
 4491TIP3   OH213436   3.084   3.528   3.994
 4491TIP3    H113437   3.084   3.560   4.084
 4491TIP3    H213438   3.040   3.596   3.944
 4492TIP3   OH213439   3.687   1.245   5.273
 4492TIP3    H113440   3.720   1.230   5.362
 4492TIP3    H213441   3.593   1.257   5.285
 4493TIP3   OH213442   3.504   4.374   3.982
 4493TIP3    H113443   3.534   4.462   3.956
 4493TIP3    H213444   3.411   4.374   3.962
 4494TIP3   OH213445   2.181   3.922   4.020
 4494TIP3    H113446   2.260   3.963   3.988
 4494TIP3    H213447   2.193   3.917   4.115
 4495TIP3   OH213448   3.977   0.262   3.251
 4495TIP3    H113449   3.896   0.313   3.254
 4495TIP3    H213450   3.994   0.239   3.342
 4496TIP3   OH213451   2.938   6.345   1.702
 4496TIP3    H113452   2.973   6.408   1.765
 4496TIP3    H213453   2.927   6.396   1.621
 4497TIP3   OH213454   5.602   4.144   4.313
 4497TIP3    H113455   5.656   4.117   4.239
 4497TIP3    H213456   5.542   4.071   4.327
 4498TIP3   OH213457   7.056   2.410   0.621
 4498TIP3    H113458   7.100   2.480   0.669
 4498TIP3    H213459   7.120   2.381   0.556
 4499TIP3   OH213460   1.799   0.704   0.289
 4499TIP3    H113461   1.763   0.686   0.203
 4499TIP3    H213462   1.772   0.794   0.308
 4500TIP3   OH213463   6.845   5.113   4.209
 4500TIP3    H113464   6.822   5.080   4.296
 4500TIP3    H213465   6.908   5.048   4.175
 4501TIP3   OH213466   3.500   5.609   2.911
 4501TIP3    H113467   3.496   5.547   2.984
 4501TIP3    H213468   3.460   5.689   2.945
 4502TIP3   OH213469   3.393   3.698   2.311
 4502TIP3    H113470   3.333   3.631   2.278
 4502TIP3    H213471   3.366   3.712   2.402
 4503TIP3   OH213472   0.808   2.672   2.049
 4503TIP3    H113473   0.769   2.706   2.130
 4503TIP3    H213474   0.839   2.584   2.073
 4504TIP3   OH213475   6.715   5.485   2.842
 4504TIP3    H113476   6.743   5.406   2.888
 4504TIP3    H213477   6.777   5.494   2.769
 4505TIP3   OH213478   6.571   3.425   4.152
 4505TIP3    H113479   6.580   3.482   4.076
 4505TIP3    H213480   6.625   3.349   4.131
 4506TIP3   OH213481   3.029   3.448   0.990
 4506TIP3    H113482   3.110   3.397   0.986
 4506TIP3    H213483   2.981   3.410   1.065
 4507TIP3   OH213484   3.119   6.042   2.184
 4507TIP3    H113485   3.060   5.967   2.193
 4507TIP3    H213486   3.075   6.100   2.121
 4508TIP3   OH213487   6.225   2.155   4.012
 4508TIP3    H113488   6.212   2.112   4.096
 4508TIP3    H213489   6.249   2.245   4.033
 4509TIP3   OH213490   4.259   6.307   0.106
 4509TIP3    H113491   4.329   6.373   0.097
 4509TIP3    H213492   4.180   6.359   0.119
 4510TIP3   OH213493   0.979   1.135   2.718
 4510TIP3    H113494   0.912   1.138   2.786
 4510TIP3    H213495   1.027   1.054   2.735
 4511TIP3   OH213496   2.921   2.685   3.544
 4511TIP3    H113497   2.975   2.718   3.616
 4511TIP3    H213498   2.975   2.698   3.466
 4512TIP3   OH213499   6.298   4.459   2.221
 4512TIP3    H113500   6.375   4.406   2.237
 4512TIP3    H213501   6.259   4.473   2.307
 4513TIP3   OH213502   4.611   6.677   1.865
 4513TIP3    H113503   4.651   6.609   1.919
 4513TIP3    H213504   4.518   6.656   1.864
 4514TIP3   OH213505   0.214   6.102   2.074
 4514TIP3    H113506   0.264   6.181   2.052
 4514TIP3    H213507   0.274   6.050   2.127
 4515TIP3   OH213508   2.825   5.352   4.503
 4515TIP3    H113509   2.754   5.358   4.567
 4515TIP3    H213510   2.885   5.287   4.540
 4516TIP3   OH213511   1.515   3.361   0.178
 4516TIP3    H113512   1.497   3.316   0.095
 4516TIP3    H213513   1.506   3.454   0.157
 4517TIP3   OH213514   2.116   4.953   5.709
 4517TIP3    H113515   2.198   4.904   5.716
 4517TIP3    H213516   2.074   4.918   5.630
 4518TIP3   OH213517   1.968   3.641   2.402
 4518TIP3    H113518   1.903   3.631   2.333
 4518TIP3    H213519   1.933   3.592   2.476
 4519TIP3   OH213520   3.370   3.483   3.573
 4519TIP3    H113521   3.317   3.544   3.625
 4519TIP3    H213522   3.306   3.438   3.517
 4520TIP3   OH213523   1.865   0.661   5.358
 4520TIP3    H113524   1.806   0.645   5.431
 4520TIP3    H213525   1.826   0.614   5.285
 4521TIP3   OH213526   0.315   1.124   2.787
 4521TIP3    H113527   0.261   1.195   2.751
 4521TIP3    H213528   0.359   1.086   2.711
 4522TIP3   OH213529   4.899   6.438   4.668
 4522TIP3    H113530   4.990   6.429   4.696
 4522TIP3    H213531   4.849   6.444   4.749
 4523TIP3   OH213532   0.453   4.373   3.918
 4523TIP3    H113533   0.470   4.381   4.012
 4523TIP3    H213534   0.449   4.463   3.886
 4524TIP3   OH213535   0.289   2.627   4.550
 4524TIP3    H113536   0.312   2.683   4.476
 4524TIP3    H213537   0.374   2.600   4.586
 4525TIP3   OH213538   1.779   6.163   2.396
 4525TIP3    H113539   1.844   6.210   2.448
 4525TIP3    H213540   1.774   6.076   2.436
 4526TIP3   OH213541   1.013   4.790   2.241
 4526TIP3    H113542   0.928   4.786   2.197
 4526TIP3    H213543   1.033   4.699   2.262
 4527TIP3   OH213544   5.982   2.081   2.961
 4527TIP3    H113545   5.915   2.020   2.928
 4527TIP3    H213546   6.046   2.086   2.890
 4528TIP3   OH213547   4.349   0.462   4.128
 4528TIP3    H113548   4.257   0.478   4.107
 4528TIP3    H213549   4.386   0.549   4.142
 4529TIP3   OH213550   0.689   5.607   4.043
 4529TIP3    H113551   0.768   5.654   4.015
 4529TIP3    H213552   0.722   5.522   4.073
 4530TIP3   OH213553   5.298   6.582   5.256
 4530TIP3    H113554   5.298   6.672   5.289
 4530TIP3    H213555   5.339   6.531   5.326
 4531TIP3   OH213556   0.298   1.871   5.245
 4531TIP3    H113557   0.273   1.816   5.171
 4531TIP3    H213558   0.392   1.861   5.252
 4532TIP3   OH213559   4.885   0.402   0.084
 4532TIP3    H113560   4.857   0.311   0.071
 4532TIP3    H213561   4.804   0.449   0.103
 4533TIP3   OH213562   5.423   2.642   5.371
 4533TIP3    H113563   5.460   2.644   5.283
 4533TIP3    H213564   5.354   2.708   5.369
 4534TIP3   OH213565   1.378   1.980   3.151
 4534TIP3    H113566   1.398   1.993   3.058
 4534TIP3    H213567   1.422   2.052   3.196
 4535TIP3   OH213568   0.511   3.886   5.184
 4535TIP3    H113569   0.460   3.822   5.234
 4535TIP3    H213570   0.538   3.838   5.106
 4536TIP3   OH213571   1.151   0.706   2.245
 4536TIP3    H113572   1.082   0.689   2.309
 4536TIP3    H213573   1.163   0.801   2.248
 4537TIP3   OH213574   1.717   5.302   0.858
 4537TIP3    H113575   1.713   5.394   0.883
 4537TIP3    H213576   1.694   5.254   0.937
 4538TIP3   OH213577   3.811   4.939   1.688
 4538TIP3    H113578   3.844   4.980   1.767
 4538TIP3    H213579   3.889   4.925   1.634
 4539TIP3   OH213580   0.391   4.860   3.880
 4539TIP3    H113581   0.399   4.955   3.873
 4539TIP3    H213582   0.474   4.826   3.848
 4540TIP3   OH213583   6.822   5.444   0.026
 4540TIP3    H113584   6.896   5.387   0.049
 4540TIP3    H213585   6.760   5.386  -0.018
 4541TIP3   OH213586   4.203   3.375   4.740
 4541TIP3    H113587   4.238   3.358   4.828
 4541TIP3    H213588   4.280   3.391   4.686
 4542TIP3   OH213589   4.687   4.932   0.737
 4542TIP3    H113590   4.643   5.006   0.694
 4542TIP3    H213591   4.775   4.965   0.756
 4543TIP3   OH213592   1.014   4.711   1.470
 4543TIP3    H113593   1.036   4.689   1.380
 4543TIP3    H213594   1.086   4.674   1.522
 4544TIP3   OH213595   0.328   1.650   0.305
 4544TIP3    H113596   0.294   1.625   0.219
 4544TIP3    H213597   0.421   1.662   0.291
 4545TIP3   OH213598   0.954   0.326   1.348
 4545TIP3    H113599   0.993   0.410   1.369
 4545TIP3    H213600   0.861   0.338   1.363
 4546TIP3   OH213601   1.268   2.898   5.841
 4546TIP3    H113602   1.226   2.984   5.838
 4546TIP3    H213603   1.323   2.901   5.919
 4547TIP3   OH213604   2.486   0.909   1.160
 4547TIP3    H113605   2.452   0.823   1.135
 4547TIP3    H213606   2.475   0.913   1.255
 4548TIP3   OH213607   2.263   0.383   4.129
 4548TIP3    H113608   2.295   0.471   4.112
 4548TIP3    H213609   2.181   0.377   4.081
 4549TIP3   OH213610   2.569   5.271   1.480
 4549TIP3    H113611   2.644   5.264   1.421
 4549TIP3    H213612   2.496   5.299   1.424
 4550TIP3   OH213613   4.880   4.290   1.662
 4550TIP3    H113614   4.916   4.222   1.606
 4550TIP3    H213615   4.886   4.255   1.751
 4551TIP3   OH213616   1.081   6.547   2.918
 4551TIP3    H113617   1.171   6.575   2.900
 4551TIP3    H213618   1.088   6.496   2.999
 4552TIP3   OH213619   7.193   6.727   2.471
 4552TIP3    H113620   7.202   6.822   2.465
 4552TIP3    H213621   7.176   6.710   2.564
 4553TIP3   OH213622   5.567   1.251   3.924
 4553TIP3    H113623   5.615   1.334   3.913
 4553TIP3    H213624   5.622   1.200   3.985
 4554TIP3   OH213625   0.410   1.794   3.089
 4554TIP3    H113626   0.380   1.857   3.025
 4554TIP3    H213627   0.485   1.836   3.132
 4555TIP3   OH213628   3.583   3.460   5.869
 4555TIP3    H113629   3.606   3.376   5.828
 4555TIP3    H213630   3.533   3.506   5.802
 4556TIP3   OH213631   6.960   4.780   0.329
 4556TIP3    H113632   6.919   4.817   0.251
 4556TIP3    H213633   7.009   4.705   0.297
 4557TIP3   OH213634   3.111   1.092   5.615
 4557TIP3    H113635   3.067   1.147   5.680
 4557TIP3    H213636   3.140   1.153   5.547
 4558TIP3   OH213637   6.958   4.391   3.413
 4558TIP3    H113638   6.927   4.481   3.421
 4558TIP3    H213639   6.981   4.382   3.320
 4559TIP3   OH213640   5.273   6.572   4.123
 4559TIP3    H113641   5.283   6.667   4.119
 4559TIP3    H213642   5.325   6.539   4.049
 4560TIP3   OH213643   2.380   2.848   0.205
 4560TIP3    H113644   2.309   2.908   0.182
 4560TIP3    H213645   2.378   2.782   0.136
 4561TIP3   OH213646   7.194   5.125   0.993
 4561TIP3    H113647   7.128   5.064   0.962
 4561TIP3    H213648   7.144   5.203   1.019
 4562TIP3   OH213649   4.992   0.804   2.509
 4562TIP3    H113650   5.007   0.768   2.422
 4562TIP3    H213651   4.922   0.869   2.496
 4563TIP3   OH213652   2.674   6.068   3.403
 4563TIP3    H113653   2.643   5.978   3.417
 4563TIP3    H213654   2.766   6.058   3.378
 4564TIP3   OH213655   1.137   6.840   1.547
 4564TIP3    H113656   1.220   6.824   1.593
 4564TIP3    H213657   1.081   6.767   1.573
 4565TIP3   OH213658   3.992   3.853   1.791
 4565TIP3    H113659   3.912   3.894   1.760
 4565TIP3    H213660   3.999   3.772   1.741
 4566TIP3   OH213661   4.450   5.896   4.674
 4566TIP3    H113662   4.538   5.857   4.675
 4566TIP3    H213663   4.403   5.848   4.742
 4567TIP3   OH213664   2.893   3.589   2.245
 4567TIP3    H113665   2.815   3.535   2.252
 4567TIP3    H213666   2.859   3.679   2.236
 4568TIP3   OH213667   0.946   0.182   0.320
 4568TIP3    H113668   0.960   0.092   0.290
 4568TIP3    H213669   0.949   0.234   0.239
 4569TIP3   OH213670   0.145   2.593   5.513
 4569TIP3    H113671   0.224   2.634   5.479
 4569TIP3    H213672   0.128   2.638   5.595
 4570TIP3   OH213673   3.929   3.379   2.690
 4570TIP3    H113674   4.003   3.422   2.733
 4570TIP3    H213675   3.945   3.391   2.597
 4571TIP3   OH213676   0.523   1.357   1.687
 4571TIP3    H113677   0.540   1.452   1.687
 4571TIP3    H213678   0.428   1.350   1.699
 4572TIP3   OH213679   0.291   2.746   1.382
 4572TIP3    H113680   0.298   2.671   1.323
 4572TIP3    H213681   0.198   2.765   1.387
 4573TIP3   OH213682   5.908   0.278   2.919
 4573TIP3    H113683   5.901   0.323   3.003
 4573TIP3    H213684   5.863   0.335   2.857
 4574TIP3   OH213685   4.153   5.183   3.581
 4574TIP3    H113686   4.152   5.258   3.523
 4574TIP3    H213687   4.241   5.145   3.570
 4575TIP3   OH213688   4.428   5.877   3.848
 4575TIP3    H113689   4.363   5.809   3.867
 4575TIP3    H213690   4.488   5.836   3.785
 4576TIP3   OH213691   0.376   1.659   2.451
 4576TIP3    H113692   0.467   1.659   2.479
 4576TIP3    H213693   0.371   1.729   2.385
 4577TIP3   OH213694   2.763   0.526   0.732
 4577TIP3    H113695   2.771   0.530   0.637
 4577TIP3    H213696   2.684   0.577   0.751
 4578TIP3   OH213697   5.386   6.155   4.309
 4578TIP3    H113698   5.368   6.125   4.220
 4578TIP3    H213699   5.400   6.075   4.359
 4579TIP3   OH213700   1.878   4.117   3.585
 4579TIP3    H113701   1.847   4.035   3.547
 4579TIP3    H213702   1.972   4.118   3.567
 4580TIP3   OH213703   7.234   3.711   0.479
 4580TIP3    H113704   7.149   3.755   0.478
 4580TIP3    H213705   7.274   3.733   0.395
 4581TIP3   OH213706   2.365   0.335   3.272
 4581TIP3    H113707   2.414   0.350   3.190
 4581TIP3    H213708   2.412   0.263   3.315
 4582TIP3   OH213709   3.835   3.499   1.201
 4582TIP3    H113710   3.746   3.470   1.182
 4582TIP3    H213711   3.862   3.546   1.121
 4583TIP3   OH213712   1.301   0.092   0.223
 4583TIP3    H113713   1.252   0.090   0.141
 4583TIP3    H213714   1.278   0.176   0.263
 4584TIP3   OH213715   4.887   2.364   0.535
 4584TIP3    H113716   4.957   2.396   0.591
 4584TIP3    H213717   4.912   2.389   0.447
 4585TIP3   OH213718   1.166   1.922   1.731
 4585TIP3    H113719   1.188   2.014   1.747
 4585TIP3    H213720   1.078   1.926   1.692
 4586TIP3   OH213721   1.592   0.972   4.496
 4586TIP3    H113722   1.616   0.928   4.577
 4586TIP3    H213723   1.550   1.053   4.525
 4587TIP3   OH213724   4.509   1.820   5.123
 4587TIP3    H113725   4.511   1.747   5.185
 4587TIP3    H213726   4.555   1.787   5.045
 4588TIP3   OH213727   0.250   6.509   0.054
 4588TIP3    H113728   0.279   6.585   0.003
 4588TIP3    H213729   0.331   6.464   0.078
 4589TIP3   OH213730   7.170   2.378   2.682
 4589TIP3    H113731   7.116   2.391   2.760
 4589TIP3    H213732   7.125   2.426   2.613
 4590TIP3   OH213733   4.793   3.205   0.446
 4590TIP3    H113734   4.885   3.231   0.437
 4590TIP3    H213735   4.795   3.110   0.446
 4591TIP3   OH213736   2.323   6.446   0.488
 4591TIP3    H113737   2.229   6.428   0.492
 4591TIP3    H213738   2.328   6.539   0.466
 4592TIP3   OH213739   2.636   5.634   1.415
 4592TIP3    H113740   2.709   5.674   1.368
 4592TIP3    H213741   2.620   5.551   1.370
 4593TIP3   OH213742   0.264   3.466   4.633
 4593TIP3    H113743   0.259   3.507   4.547
 4593TIP3    H213744   0.176   3.477   4.670
 4594TIP3   OH213745   1.591   6.122   5.734
 4594TIP3    H113746   1.528   6.098   5.665
 4594TIP3    H213747   1.543   6.108   5.815
 4595TIP3   OH213748   0.630   2.772   5.465
 4595TIP3    H113749   0.705   2.725   5.427
 4595TIP3    H213750   0.555   2.718   5.442
 4596TIP3   OH213751   6.262   1.056   4.306
 4596TIP3    H113752   6.196   1.097   4.248
 4596TIP3    H213753   6.259   0.963   4.283
 4597TIP3   OH213754   2.120   0.468   0.435
 4597TIP3    H113755   2.088   0.557   0.420
 4597TIP3    H213756   2.051   0.412   0.400
 4598TIP3   OH213757   2.403   1.894   5.748
 4598TIP3    H113758   2.453   1.814   5.761
 4598TIP3    H213759   2.447   1.959   5.803
 4599TIP3   OH213760   0.609   4.810   5.762
 4599TIP3    H113761   0.558   4.738   5.726
 4599TIP3    H213762   0.666   4.838   5.690
 4600TIP3   OH213763   1.468   5.444   5.107
 4600TIP3    H113764   1.457   5.498   5.184
 4600TIP3    H213765   1.496   5.504   5.038
 4601TIP3   OH213766   0.866   3.901   0.168
 4601TIP3    H113767   0.944   3.852   0.195
 4601TIP3    H213768   0.894   3.952   0.092
 4602TIP3   OH213769   1.214   1.391   3.732
 4602TIP3    H113770   1.234   1.471   3.684
 4602TIP3    H213771   1.221   1.416   3.824
 4603TIP3   OH213772   0.262   1.582   3.070
 4603TIP3    H113773   0.317   1.659   3.060
 4603TIP3    H213774   0.286   1.546   3.156
 4604TIP3   OH213775   2.728   4.712   4.711
 4604TIP3    H113776   2.760   4.695   4.623
 4604TIP3    H213777   2.795   4.676   4.769
 4605TIP3   OH213778   5.038   3.328   0.456
 4605TIP3    H113779   5.033   3.311   0.550
 4605TIP3    H213780   5.130   3.312   0.434
 4606TIP3   OH213781   5.263   1.872   1.739
 4606TIP3    H113782   5.181   1.823   1.735
 4606TIP3    H213783   5.292   1.864   1.830
 4607TIP3   OH213784   0.258   1.202   1.029
 4607TIP3    H113785   0.296   1.219   0.943
 4607TIP3    H213786   0.334   1.190   1.086
 4608TIP3   OH213787   0.012   2.874   5.623
 4608TIP3    H113788   0.078   2.880   5.692
 4608TIP3    H213789   0.036   2.944   5.562
 4609TIP3   OH213790   3.896   0.632   0.025
 4609TIP3    H113791   3.963   0.687   0.066
 4609TIP3    H213792   3.903   0.548   0.070
 4610TIP3   OH213793   4.081   2.626   5.014
 4610TIP3    H113794   4.022   2.692   4.978
 4610TIP3    H213795   4.168   2.665   5.010
 4611TIP3   OH213796   3.572   1.878   1.516
 4611TIP3    H113797   3.606   1.790   1.500
 4611TIP3    H213798   3.641   1.922   1.564
 4612TIP3   OH213799   3.794   6.429   4.822
 4612TIP3    H113800   3.731   6.358   4.814
 4612TIP3    H213801   3.861   6.409   4.757
 4613TIP3   OH213802   1.604   0.241   5.812
 4613TIP3    H113803   1.521   0.202   5.839
 4613TIP3    H213804   1.618   0.208   5.723
 4614TIP3   OH213805   5.830   5.696   4.768
 4614TIP3    H113806   5.797   5.704   4.858
 4614TIP3    H213807   5.924   5.683   4.778
 4615TIP3   OH213808   4.831   1.624   3.448
 4615TIP3    H113809   4.873   1.541   3.427
 4615TIP3    H213810   4.859   1.643   3.538
 4616TIP3   OH213811   6.630   1.268   2.812
 4616TIP3    H113812   6.697   1.278   2.879
 4616TIP3    H213813   6.648   1.182   2.773
 4617TIP3   OH213814   1.469   5.146   5.772
 4617TIP3    H113815   1.385   5.100   5.775
 4617TIP3    H213816   1.473   5.183   5.684
 4618TIP3   OH213817   2.141   1.971   5.889
 4618TIP3    H113818   2.220   1.917   5.894
 4618TIP3    H213819   2.102   1.949   5.805
 4619TIP3   OH213820   0.005   3.087   4.324
 4619TIP3    H113821   0.056   3.154   4.279
 4619TIP3    H213822  -0.085   3.103   4.295
 4620TIP3   OH213823   2.573   6.351   0.223
 4620TIP3    H113824   2.485   6.316   0.239
 4620TIP3    H213825   2.631   6.283   0.256
 4621TIP3   OH213826   5.901   5.451   1.634
 4621TIP3    H113827   5.839   5.432   1.564
 4621TIP3    H213828   5.968   5.506   1.593
 4622TIP3   OH213829   0.947   6.186   4.722
 4622TIP3    H113830   1.037   6.187   4.756
 4622TIP3    H213831   0.913   6.274   4.741
 4623TIP3   OH213832   5.964   4.305   3.300
 4623TIP3    H113833   6.053   4.331   3.324
 4623TIP3    H213834   5.969   4.286   3.207
 4624TIP3   OH213835   0.733   3.947   0.582
 4624TIP3    H113836   0.750   4.006   0.509
 4624TIP3    H213837   0.760   3.860   0.550
 4625TIP3   OH213838   6.037  -0.008   5.560
 4625TIP3    H113839   6.124   0.025   5.539
 4625TIP3    H213840   6.024   0.013   5.652
 4626TIP3   OH213841   1.442   1.535   5.642
 4626TIP3    H113842   1.499   1.519   5.566
 4626TIP3    H213843   1.410   1.624   5.629
 4627TIP3   OH213844   0.828   5.092   4.005
 4627TIP3    H113845   0.808   5.011   3.959
 4627TIP3    H213846   0.760   5.153   3.976
 4628TIP3   OH213847   2.700   5.489   0.385
 4628TIP3    H113848   2.711   5.562   0.447
 4628TIP3    H213849   2.709   5.411   0.439
 4629TIP3   OH213850   3.227   2.108   2.267
 4629TIP3    H113851   3.200   2.159   2.190
 4629TIP3    H213852   3.321   2.095   2.255
 4630TIP3   OH213853   1.089   2.565   1.185
 4630TIP3    H113854   1.011   2.597   1.139
 4630TIP3    H213855   1.113   2.637   1.244
 4631TIP3   OH213856   4.680   2.752   1.518
 4631TIP3    H113857   4.702   2.791   1.433
 4631TIP3    H213858   4.698   2.658   1.506
 4632TIP3   OH213859   3.911   3.370   4.310
 4632TIP3    H113860   3.820   3.374   4.280
 4632TIP3    H213861   3.928   3.277   4.323
 4633TIP3   OH213862   1.318   0.313   4.913
 4633TIP3    H113863   1.313   0.333   5.007
 4633TIP3    H213864   1.285   0.224   4.906
 4634TIP3   OH213865   1.663   3.125   1.163
 4634TIP3    H113866   1.691   3.215   1.180
 4634TIP3    H213867   1.625   3.095   1.246
 4635TIP3   OH213868   4.698   1.395   4.120
 4635TIP3    H113869   4.715   1.302   4.107
 4635TIP3    H213870   4.735   1.438   4.043
 4636TIP3   OH213871   4.486   6.737   5.680
 4636TIP3    H113872   4.566   6.708   5.636
 4636TIP3    H213873   4.419   6.676   5.649
 4637TIP3   OH213874   6.737   1.810   3.132
 4637TIP3    H113875   6.713   1.719   3.152
 4637TIP3    H213876   6.821   1.822   3.177
 4638TIP3   OH213877   0.377   1.005   5.252
 4638TIP3    H113878   0.441   0.952   5.205
 4638TIP3    H213879   0.296   0.995   5.202
 4639TIP3   OH213880   4.531   4.752   5.832
 4639TIP3    H113881   4.528   4.659   5.811
 4639TIP3    H213882   4.621   4.779   5.813
 4640TIP3   OH213883   4.987   4.043   3.038
 4640TIP3    H113884   4.917   4.085   2.988
 4640TIP3    H213885   5.039   4.115   3.073
 4641TIP3   OH213886   3.690   0.754   2.772
 4641TIP3    H113887   3.676   0.760   2.867
 4641TIP3    H213888   3.767   0.698   2.762
 4642TIP3   OH213889   5.044   2.646   5.095
 4642TIP3    H113890   5.000   2.731   5.098
 4642TIP3    H213891   5.081   2.636   5.183
 4643TIP3   OH213892   0.790   6.158   4.101
 4643TIP3    H113893   0.864   6.200   4.056
 4643TIP3    H213894   0.727   6.140   4.032
 4644TIP3   OH213895   6.621   1.401   0.250
 4644TIP3    H113896   6.580   1.487   0.263
 4644TIP3    H213897   6.556   1.339   0.282
 4645TIP3   OH213898   1.936   5.427   4.973
 4645TIP3    H113899   1.897   5.468   5.050
 4645TIP3    H213900   1.989   5.496   4.934
 4646TIP3   OH213901   6.778   2.847   1.879
 4646TIP3    H113902   6.733   2.893   1.809
 4646TIP3    H213903   6.714   2.841   1.950
 4647TIP3   OH213904   3.352   0.570   1.341
 4647TIP3    H113905   3.353   0.562   1.437
 4647TIP3    H213906   3.274   0.523   1.314
 4648TIP3   OH213907   0.773   3.899   3.584
 4648TIP3    H113908   0.854   3.927   3.627
 4648TIP3    H213909   0.755   3.969   3.521
 4649TIP3   OH213910   3.154   5.953   4.363
 4649TIP3    H113911   3.185   6.035   4.323
 4649TIP3    H213912   3.227   5.925   4.418
 4650TIP3   OH213913   6.544   4.403   1.402
 4650TIP3    H113914   6.545   4.473   1.337
 4650TIP3    H213915   6.484   4.433   1.470
 4651TIP3   OH213916   4.311   6.741   2.186
 4651TIP3    H113917   4.337   6.833   2.193
 4651TIP3    H213918   4.268   6.722   2.270
 4652TIP3   OH213919   1.823   5.070   1.690
 4652TIP3    H113920   1.805   4.987   1.732
 4652TIP3    H213921   1.893   5.051   1.627
 4653TIP3   OH213922   1.132   4.681   3.916
 4653TIP3    H113923   1.123   4.732   3.835
 4653TIP3    H213924   1.091   4.736   3.983
 4654TIP3   OH213925   5.803   1.132   5.632
 4654TIP3    H113926   5.880   1.075   5.634
 4654TIP3    H213927   5.839   1.221   5.625
 4655TIP3   OH213928   1.810   4.458   2.282
 4655TIP3    H113929   1.794   4.525   2.348
 4655TIP3    H213930   1.892   4.416   2.309
 4656TIP3   OH213931   2.643   2.002   0.360
 4656TIP3    H113932   2.715   2.008   0.422
 4656TIP3    H213933   2.595   1.924   0.386
 4657TIP3   OH213934   0.677   4.307   3.121
 4657TIP3    H113935   0.704   4.350   3.201
 4657TIP3    H213936   0.750   4.321   3.060
 4658TIP3   OH213937   1.953   4.734   4.491
 4658TIP3    H113938   1.910   4.653   4.518
 4658TIP3    H213939   2.043   4.709   4.474
 4659TIP3   OH213940   3.222   0.393   1.760
 4659TIP3    H113941   3.183   0.325   1.704
 4659TIP3    H213942   3.151   0.454   1.777
 4660TIP3   OH213943   3.031   5.034   4.840
 4660TIP3    H113944   3.104   4.979   4.812
 4660TIP3    H213945   3.068   5.122   4.843
 4661TIP3   OH213946   2.858   6.653   2.555
 4661TIP3    H113947   2.849   6.568   2.599
 4661TIP3    H213948   2.943   6.649   2.513
 4662TIP3   OH213949   6.092   5.382   2.450
 4662TIP3    H113950   6.052   5.315   2.505
 4662TIP3    H213951   6.038   5.460   2.464
 4663TIP3   OH213952   0.318   1.634   0.743
 4663TIP3    H113953   0.409   1.661   0.729
 4663TIP3    H213954   0.290   1.597   0.660
 4664TIP3   OH213955   3.889   3.995   0.817
 4664TIP3    H113956   3.841   3.943   0.753
 4664TIP3    H213957   3.954   4.043   0.766
 4665TIP3   OH213958   5.323   5.783   3.915
 4665TIP3    H113959   5.324   5.776   3.820
 4665TIP3    H213960   5.295   5.873   3.933
 4666TIP3   OH213961   5.036   3.706   4.486
 4666TIP3    H113962   5.111   3.684   4.540
 4666TIP3    H213963   5.056   3.670   4.400
 4667TIP3   OH213964   6.317   1.908   1.825
 4667TIP3    H113965   6.335   1.966   1.899
 4667TIP3    H213966   6.259   1.959   1.768
 4668TIP3   OH213967   4.964   1.599   2.432
 4668TIP3    H113968   5.041   1.655   2.434
 4668TIP3    H213969   4.891   1.657   2.452
 4669TIP3   OH213970   6.615   0.604   0.354
 4669TIP3    H113971   6.591   0.551   0.430
 4669TIP3    H213972   6.632   0.691   0.390
 4670TIP3   OH213973   6.673   3.144   0.761
 4670TIP3    H113974   6.596   3.199   0.768
 4670TIP3    H213975   6.732   3.176   0.830
 4671TIP3   OH213976   0.881   3.542   1.237
 4671TIP3    H113977   0.867   3.629   1.199
 4671TIP3    H213978   0.967   3.515   1.205
 4672TIP3   OH213979   1.380   2.466   2.810
 4672TIP3    H113980   1.389   2.382   2.767
 4672TIP3    H213981   1.358   2.445   2.901
 4673TIP3   OH213982   7.015   1.312   4.159
 4673TIP3    H113983   7.098   1.359   4.151
 4673TIP3    H213984   7.039   1.220   4.145
 4674TIP3   OH213985   1.898   2.897   2.897
 4674TIP3    H113986   1.946   2.832   2.845
 4674TIP3    H213987   1.958   2.971   2.906
 4675TIP3   OH213988   3.984   4.854   1.501
 4675TIP3    H113989   4.017   4.792   1.436
 4675TIP3    H213990   4.062   4.896   1.537
 4676TIP3   OH213991   4.376   6.472   5.308
 4676TIP3    H113992   4.304   6.533   5.295
 4676TIP3    H213993   4.454   6.528   5.313
 4677TIP3   OH213994   5.335   1.069   4.217
 4677TIP3    H113995   5.420   1.036   4.248
 4677TIP3    H213996   5.311   1.135   4.282
 4678TIP3   OH213997   6.852   4.204   5.755
 4678TIP3    H113998   6.862   4.125   5.808
 4678TIP3    H213999   6.760   4.229   5.767
 4679TIP3   OH214000   5.195   3.632   5.806
 4679TIP3    H114001   5.271   3.575   5.794
 4679TIP3    H214002   5.173   3.624   5.898
 4680TIP3   OH214003   0.250   6.238   4.388
 4680TIP3    H114004   0.337   6.234   4.351
 4680TIP3    H214005   0.245   6.163   4.448
 4681TIP3   OH214006   2.302   4.794   5.400
 4681TIP3    H114007   2.257   4.752   5.473
 4681TIP3    H214008   2.231   4.822   5.341
 4682TIP3   OH214009   1.658   3.407   4.721
 4682TIP3    H114010   1.599   3.469   4.763
 4682TIP3    H214011   1.627   3.401   4.631
 4683TIP3   OH214012   6.006   0.757   1.311
 4683TIP3    H114013   5.956   0.718   1.383
 4683TIP3    H214014   5.941   0.806   1.261
 4684TIP3   OH214015   6.701   1.337   4.934
 4684TIP3    H114016   6.729   1.267   4.993
 4684TIP3    H214017   6.783   1.373   4.900
 4685TIP3   OH214018   2.927   1.557   0.172
 4685TIP3    H114019   2.832   1.564   0.163
 4685TIP3    H214020   2.953   1.498   0.102
 4686TIP3   OH214021   4.250   4.425   2.679
 4686TIP3    H114022   4.331   4.461   2.644
 4686TIP3    H214023   4.210   4.379   2.605
 4687TIP3   OH214024   5.484   3.419   4.565
 4687TIP3    H114025   5.524   3.454   4.486
 4687TIP3    H214026   5.404   3.376   4.535
 4688TIP3   OH214027   0.669   0.996   1.841
 4688TIP3    H114028   0.704   1.083   1.857
 4688TIP3    H214029   0.594   1.010   1.783
 4689TIP3   OH214030   0.373   6.055   0.256
 4689TIP3    H114031   0.387   5.992   0.327
 4689TIP3    H214032   0.283   6.087   0.269
 4690TIP3   OH214033   5.705   3.403   0.542
 4690TIP3    H114034   5.765   3.477   0.527
 4690TIP3    H214035   5.618   3.441   0.533
 4691TIP3   OH214036   2.479   0.142   3.709
 4691TIP3    H114037   2.449   0.052   3.726
 4691TIP3    H214038   2.505   0.174   3.796
 4692TIP3   OH214039   2.090   4.505   5.838
 4692TIP3    H114040   2.028   4.578   5.832
 4692TIP3    H214041   2.045   4.440   5.893
 4693TIP3   OH214042   5.965   5.917   0.502
 4693TIP3    H114043   5.874   5.892   0.518
 4693TIP3    H214044   5.979   5.994   0.556
 4694TIP3   OH214045   3.443   4.789   1.496
 4694TIP3    H114046   3.536   4.774   1.515
 4694TIP3    H214047   3.398   4.765   1.577
 4695TIP3   OH214048   3.554   5.503   3.767
 4695TIP3    H114049   3.549   5.455   3.850
 4695TIP3    H214050   3.507   5.584   3.783
 4696TIP3   OH214051   1.756   2.118   1.787
 4696TIP3    H114052   1.717   2.091   1.870
 4696TIP3    H214053   1.730   2.210   1.778
 4697TIP3   OH214054   3.402   3.442   4.220
 4697TIP3    H114055   3.392   3.354   4.185
 4697TIP3    H214056   3.407   3.498   4.143
 4698TIP3   OH214057   6.308   5.450   5.350
 4698TIP3    H114058   6.274   5.437   5.439
 4698TIP3    H214059   6.308   5.544   5.337
 4699TIP3   OH214060   6.829   0.273   5.798
 4699TIP3    H114061   6.885   0.209   5.841
 4699TIP3    H214062   6.763   0.296   5.864
 4700TIP3   OH214063   6.361   1.544   5.690
 4700TIP3    H114064   6.349   1.449   5.693
 4700TIP3    H214065   6.294   1.579   5.748
 4701TIP3   OH214066   0.828   4.313   5.106
 4701TIP3    H114067   0.818   4.221   5.081
 4701TIP3    H214068   0.922   4.324   5.119
 4702TIP3   OH214069   5.280   4.498   4.259
 4702TIP3    H114070   5.218   4.425   4.253
 4702TIP3    H214071   5.270   4.532   4.348
 4703TIP3   OH214072   1.234   0.366   2.026
 4703TIP3    H114073   1.185   0.375   2.108
 4703TIP3    H214074   1.294   0.440   2.027
 4704TIP3   OH214075   3.996   5.665   2.109
 4704TIP3    H114076   3.967   5.574   2.108
 4704TIP3    H214077   3.914   5.715   2.112
 4705TIP3   OH214078   6.341   6.556   5.140
 4705TIP3    H114079   6.315   6.465   5.155
 4705TIP3    H214080   6.384   6.555   5.055
 4706TIP3   OH214081   6.991   4.633   0.585
 4706TIP3    H114082   6.987   4.700   0.517
 4706TIP3    H214083   7.046   4.564   0.547
 4707TIP3   OH214084   3.970   0.060   0.077
 4707TIP3    H114085   3.956  -0.013   0.137
 4707TIP3    H214086   3.980   0.020  -0.009
 4708TIP3   OH214087   1.076   3.213   4.834
 4708TIP3    H114088   1.077   3.121   4.860
 4708TIP3    H214089   1.066   3.210   4.739
 4709TIP3   OH214090   1.222   2.073   5.273
 4709TIP3    H114091   1.244   1.991   5.318
 4709TIP3    H214092   1.211   2.047   5.181
 4710TIP3   OH214093   3.999   6.681   4.558
 4710TIP3    H114094   4.057   6.633   4.617
 4710TIP3    H214095   4.054   6.752   4.524
 4711TIP3   OH214096   1.986   6.342   5.820
 4711TIP3    H114097   1.933   6.263   5.833
 4711TIP3    H214098   1.947   6.384   5.742
 4712TIP3   OH214099   3.364   1.974   3.609
 4712TIP3    H114100   3.405   1.968   3.523
 4712TIP3    H214101   3.308   2.051   3.603
 4713TIP3   OH214102   1.953   6.262   1.974
 4713TIP3    H114103   2.048   6.258   1.961
 4713TIP3    H214104   1.930   6.352   1.951
 4714TIP3   OH214105   4.283   3.159   4.113
 4714TIP3    H114106   4.336   3.106   4.054
 4714TIP3    H214107   4.228   3.211   4.055
 4715TIP3   OH214108   4.706   6.445   2.984
 4715TIP3    H114109   4.739   6.532   3.002
 4715TIP3    H214110   4.784   6.393   2.965
 4716TIP3   OH214111   0.150   5.625   0.595
 4716TIP3    H114112   0.056   5.615   0.578
 4716TIP3    H214113   0.164   5.719   0.600
 4717TIP3   OH214114   2.903   4.695   4.074
 4717TIP3    H114115   2.818   4.699   4.030
 4717TIP3    H214116   2.965   4.675   4.003
 4718TIP3   OH214117   1.742   0.111   0.233
 4718TIP3    H114118   1.718   0.092   0.324
 4718TIP3    H214119   1.703   0.040   0.182
 4719TIP3   OH214120   3.345   6.429   4.136
 4719TIP3    H114121   3.343   6.494   4.207
 4719TIP3    H214122   3.275   6.456   4.077
 4720TIP3   OH214123   1.834   0.664   0.686
 4720TIP3    H114124   1.809   0.657   0.778
 4720TIP3    H214125   1.751   0.669   0.639
 4721TIP3   OH214126   3.662   5.634   4.555
 4721TIP3    H114127   3.635   5.699   4.491
 4721TIP3    H214128   3.757   5.632   4.548
 4722TIP3   OH214129   1.054   6.286   0.828
 4722TIP3    H114130   0.971   6.269   0.783
 4722TIP3    H214131   1.057   6.382   0.838
 4723TIP3   OH214132   0.210   4.652   0.554
 4723TIP3    H114133   0.149   4.625   0.485
 4723TIP3    H214134   0.173   4.733   0.588
 4724TIP3   OH214135   5.662   3.528   5.347
 4724TIP3    H114136   5.615   3.542   5.264
 4724TIP3    H214137   5.700   3.441   5.340
 4725TIP3   OH214138   3.004   4.210   2.305
 4725TIP3    H114139   3.086   4.210   2.355
 4725TIP3    H214140   2.970   4.121   2.317
 4726TIP3   OH214141   1.557   5.447   1.493
 4726TIP3    H114142   1.465   5.458   1.468
 4726TIP3    H214143   1.597   5.405   1.417
 4727TIP3   OH214144   2.964   6.173   1.943
 4727TIP3    H114145   2.980   6.081   1.918
 4727TIP3    H214146   2.958   6.219   1.859
 4728TIP3   OH214147   5.834   5.494   2.807
 4728TIP3    H114148   5.897   5.557   2.773
 4728TIP3    H214149   5.749   5.535   2.792
 4729TIP3   OH214150   3.748   1.410   1.932
 4729TIP3    H114151   3.831   1.417   1.884
 4729TIP3    H214152   3.688   1.467   1.884
 4730TIP3   OH214153   1.071   5.181   1.783
 4730TIP3    H114154   1.136   5.111   1.791
 4730TIP3    H214155   1.070   5.222   1.869
 4731TIP3   OH214156   0.231   2.299   1.541
 4731TIP3    H114157   0.260   2.340   1.622
 4731TIP3    H214158   0.151   2.347   1.517
 4732TIP3   OH214159   2.890   3.155   5.465
 4732TIP3    H114160   2.795   3.168   5.466
 4732TIP3    H214161   2.901   3.062   5.487
 4733TIP3   OH214162   5.643   6.242   4.371
 4733TIP3    H114163   5.651   6.314   4.433
 4733TIP3    H214164   5.549   6.223   4.369
 4734TIP3   OH214165   0.823   2.130   0.784
 4734TIP3    H114166   0.839   2.083   0.866
 4734TIP3    H214167   0.773   2.069   0.731
 4735TIP3   OH214168   6.935   3.839   0.910
 4735TIP3    H114169   6.957   3.748   0.892
 4735TIP3    H214170   6.853   3.854   0.862
 4736TIP3   OH214171   0.939   1.239   5.509
 4736TIP3    H114172   0.995   1.221   5.434
 4736TIP3    H214173   0.852   1.210   5.481
 4737TIP3   OH214174   1.178   2.631   5.806
 4737TIP3    H114175   1.182   2.726   5.821
 4737TIP3    H214176   1.128   2.621   5.726
 4738TIP3   OH214177   7.168   5.562   1.779
 4738TIP3    H114178   7.178   5.615   1.700
 4738TIP3    H214179   7.231   5.491   1.768
 4739TIP3   OH214180   5.777   5.758   2.209
 4739TIP3    H114181   5.786   5.700   2.285
 4739TIP3    H214182   5.796   5.702   2.134
 4740TIP3   OH214183   0.423   5.639   1.904
 4740TIP3    H114184   0.403   5.709   1.841
 4740TIP3    H214185   0.337   5.614   1.938
 4741TIP3   OH214186   5.255   0.039   2.216
 4741TIP3    H114187   5.339   0.084   2.206
 4741TIP3    H214188   5.228   0.057   2.306
 4742TIP3   OH214189   0.915   0.346   0.100
 4742TIP3    H114190   0.876   0.380   0.020
 4742TIP3    H214191   0.954   0.423   0.141
 4743TIP3   OH214192   5.478   1.749   3.122
 4743TIP3    H114193   5.506   1.658   3.135
 4743TIP3    H214194   5.466   1.757   3.028
 4744TIP3   OH214195   2.775   5.325   2.972
 4744TIP3    H114196   2.755   5.387   2.901
 4744TIP3    H214197   2.836   5.263   2.933
 4745TIP3   OH214198   4.591   4.683   2.609
 4745TIP3    H114199   4.647   4.638   2.545
 4745TIP3    H214200   4.610   4.638   2.691
 4746TIP3   OH214201   5.404   3.351   3.288
 4746TIP3    H114202   5.498   3.343   3.303
 4746TIP3    H214203   5.366   3.356   3.376
 4747TIP3   OH214204   6.377   1.604   4.062
 4747TIP3    H114205   6.397   1.543   4.134
 4747TIP3    H214206   6.443   1.673   4.070
 4748TIP3   OH214207   2.529   0.536   2.697
 4748TIP3    H114208   2.503   0.460   2.646
 4748TIP3    H214209   2.480   0.609   2.658
 4749TIP3   OH214210   6.987   4.462   1.631
 4749TIP3    H114211   7.017   4.426   1.548
 4749TIP3    H214212   7.000   4.391   1.694
 4750TIP3   OH214213   0.066   0.113   3.607
 4750TIP3    H114214   0.059   0.191   3.661
 4750TIP3    H214215   0.016   0.135   3.528
 4751TIP3   OH214216   4.805   0.735   4.557
 4751TIP3    H114217   4.834   0.703   4.472
 4751TIP3    H214218   4.887   0.759   4.602
 4752TIP3   OH214219   6.180   5.236   2.023
 4752TIP3    H114220   6.210   5.146   2.037
 4752TIP3    H214221   6.257   5.290   2.041
 4753TIP3   OH214222   1.679   5.418   5.727
 4753TIP3    H114223   1.594   5.393   5.690
 4753TIP3    H214224   1.731   5.338   5.723
 4754TIP3   OH214225   2.957   1.988   5.476
 4754TIP3    H114226   2.873   2.031   5.460
 4754TIP3    H214227   2.987   1.961   5.389
 4755TIP3   OH214228   1.396   4.272   1.359
 4755TIP3    H114229   1.426   4.338   1.421
 4755TIP3    H214230   1.314   4.239   1.396
 4756TIP3   OH214231   2.021   5.556   4.103
 4756TIP3    H114232   1.958   5.484   4.113
 4756TIP3    H214233   2.052   5.548   4.013
 4757TIP3   OH214234   1.428   0.128   1.997
 4757TIP3    H114235   1.434   0.151   1.905
 4757TIP3    H214236   1.342   0.087   2.007
 4758TIP3   OH214237   0.606   1.713   1.043
 4758TIP3    H114238   0.692   1.728   1.082
 4758TIP3    H214239   0.619   1.640   0.982
 4759TIP3   OH214240   3.264   1.393   1.859
 4759TIP3    H114241   3.337   1.422   1.804
 4759TIP3    H214242   3.217   1.330   1.806
 4760TIP3   OH214243   4.405   4.435   0.872
 4760TIP3    H114244   4.469   4.365   0.877
 4760TIP3    H214245   4.428   4.483   0.793
 4761TIP3   OH214246   6.110   1.808   5.022
 4761TIP3    H114247   6.118   1.903   5.014
 4761TIP3    H214248   6.015   1.791   5.019
 4762TIP3   OH214249   6.250   2.466   1.648
 4762TIP3    H114250   6.179   2.459   1.712
 4762TIP3    H214251   6.209   2.446   1.564
 4763TIP3   OH214252   4.647   5.532   0.545
 4763TIP3    H114253   4.692   5.611   0.576
 4763TIP3    H214254   4.695   5.460   0.585
 4764TIP3   OH214255   6.413   6.501   2.174
 4764TIP3    H114256   6.406   6.424   2.230
 4764TIP3    H214257   6.322   6.533   2.165
 4765TIP3   OH214258   5.884   2.087   4.006
 4765TIP3    H114259   5.820   2.090   3.935
 4765TIP3    H214260   5.934   2.006   3.991
 4766TIP3   OH214261   4.612   4.190   0.685
 4766TIP3    H114262   4.587   4.099   0.670
 4766TIP3    H214263   4.624   4.197   0.779
 4767TIP3   OH214264   4.132   4.808   5.260
 4767TIP3    H114265   4.060   4.869   5.270
 4767TIP3    H214266   4.103   4.748   5.191
 4768TIP3   OH214267   6.577   0.024   1.963
 4768TIP3    H114268   6.648   0.019   2.026
 4768TIP3    H214269   6.517   0.089   1.999
 4769TIP3   OH214270   3.483   0.367   4.548
 4769TIP3    H114271   3.414   0.394   4.609
 4769TIP3    H214272   3.551   0.433   4.559
 4770TIP3   OH214273   1.026   6.465   0.481
 4770TIP3    H114274   0.950   6.414   0.456
 4770TIP3    H214275   1.091   6.446   0.413
 4771TIP3   OH214276   5.891   2.210   4.361
 4771TIP3    H114277   5.892   2.306   4.361
 4771TIP3    H214278   5.878   2.186   4.453
 4772TIP3   OH214279   3.537   6.357   4.428
 4772TIP3    H114280   3.444   6.373   4.444
 4772TIP3    H214281   3.566   6.435   4.381
 4773TIP3   OH214282   3.773   1.685   0.906
 4773TIP3    H114283   3.814   1.760   0.864
 4773TIP3    H214284   3.687   1.677   0.864
 4774TIP3   OH214285   6.548   4.978   1.138
 4774TIP3    H114286   6.531   4.940   1.224
 4774TIP3    H214287   6.618   4.924   1.102
 4775TIP3   OH214288   2.968   4.667   5.501
 4775TIP3    H114289   2.897   4.635   5.556
 4775TIP3    H214290   3.023   4.718   5.560
 4776TIP3   OH214291   5.138   2.320   1.499
 4776TIP3    H114292   5.200   2.247   1.505
 4776TIP3    H214293   5.188   2.396   1.529
 4777TIP3   OH214294   2.450   2.648   1.725
 4777TIP3    H114295   2.457   2.578   1.789
 4777TIP3    H214296   2.357   2.650   1.701
 4778TIP3   OH214297   5.040   0.904   1.141
 4778TIP3    H114298   5.130   0.936   1.138
 4778TIP3    H214299   5.008   0.917   1.051
 4779TIP3   OH214300   4.330   6.726   4.301
 4779TIP3    H114301   4.387   6.681   4.363
 4779TIP3    H214302   4.282   6.789   4.355
 4780TIP3   OH214303   4.172   6.651   3.667
 4780TIP3    H114304   4.114   6.581   3.636
 4780TIP3    H214305   4.240   6.656   3.600
 4781TIP3   OH214306   6.234   0.890   1.251
 4781TIP3    H114307   6.158   0.836   1.272
 4781TIP3    H214308   6.297   0.830   1.212
 4782TIP3   OH214309   6.735   5.372   3.160
 4782TIP3    H114310   6.775   5.455   3.133
 4782TIP3    H214311   6.751   5.313   3.086
 4783TIP3   OH214312   4.421   3.712   1.305
 4783TIP3    H114313   4.491   3.720   1.240
 4783TIP3    H214314   4.437   3.628   1.348
 4784TIP3   OH214315   0.679   5.782   1.151
 4784TIP3    H114316   0.638   5.698   1.173
 4784TIP3    H214317   0.659   5.839   1.225
 4785TIP3   OH214318   5.634   0.980   1.843
 4785TIP3    H114319   5.617   0.909   1.905
 4785TIP3    H214320   5.547   1.014   1.821
 4786TIP3   OH214321   2.311   4.476   5.484
 4786TIP3    H114322   2.401   4.503   5.503
 4786TIP3    H214323   2.258   4.554   5.502
 4787TIP3   OH214324   4.676   3.973   1.027
 4787TIP3    H114325   4.767   3.991   1.006
 4787TIP3    H214326   4.628   4.050   0.997
 4788TIP3   OH214327   0.603   4.942   0.647
 4788TIP3    H114328   0.647   4.972   0.568
 4788TIP3    H214329   0.512   4.928   0.620
 4789TIP3   OH214330   1.503   6.717   3.924
 4789TIP3    H114331   1.459   6.674   3.997
 4789TIP3    H214332   1.569   6.654   3.895
 4790TIP3   OH214333   5.155   2.716   5.359
 4790TIP3    H114334   5.133   2.809   5.352
 4790TIP3    H214335   5.079   2.676   5.401
 4791TIP3   OH214336   5.745   2.225   3.577
 4791TIP3    H114337   5.791   2.292   3.527
 4791TIP3    H214338   5.691   2.180   3.512
 4792TIP3   OH214339   3.919   2.174   1.865
 4792TIP3    H114340   3.871   2.236   1.919
 4792TIP3    H214341   3.951   2.107   1.926
 4793TIP3   OH214342   4.637   1.809   0.804
 4793TIP3    H114343   4.723   1.814   0.762
 4793TIP3    H214344   4.652   1.762   0.885
 4794TIP3   OH214345   1.737   5.527   4.696
 4794TIP3    H114346   1.771   5.459   4.638
 4794TIP3    H214347   1.747   5.491   4.784
 4795TIP3   OH214348   0.344   0.862   0.285
 4795TIP3    H114349   0.408   0.823   0.225
 4795TIP3    H214350   0.390   0.866   0.369
 4796TIP3   OH214351   3.318   6.643   1.420
 4796TIP3    H114352   3.257   6.593   1.473
 4796TIP3    H214353   3.296   6.735   1.438
 4797TIP3   OH214354   4.281   0.796   2.859
 4797TIP3    H114355   4.232   0.769   2.937
 4797TIP3    H214356   4.236   0.875   2.829
 4798TIP3   OH214357   0.061   3.200   0.841
 4798TIP3    H114358   0.124   3.137   0.807
 4798TIP3    H214359   0.020   3.238   0.763
 4799TIP3   OH214360   5.829   0.818   2.743
 4799TIP3    H114361   5.737   0.806   2.763
 4799TIP3    H214362   5.870   0.839   2.826
 4800TIP3   OH214363   1.727   3.709   1.096
 4800TIP3    H114364   1.693   3.632   1.140
 4800TIP3    H214365   1.823   3.698   1.098
 4801TIP3   OH214366   2.582   4.309   2.890
 4801TIP3    H114367   2.568   4.302   2.795
 4801TIP3    H214368   2.676   4.327   2.898
 4802TIP3   OH214369   4.595   2.019   4.855
 4802TIP3    H114370   4.647   2.098   4.842
 4802TIP3    H214371   4.510   2.040   4.816
 4803TIP3   OH214372   6.959   5.498   2.691
 4803TIP3    H114373   6.957   5.432   2.621
 4803TIP3    H214374   7.025   5.465   2.752
 4804TIP3   OH214375   6.485   0.668   3.523
 4804TIP3    H114376   6.480   0.760   3.498
 4804TIP3    H214377   6.562   0.634   3.478
 4805TIP3   OH214378   3.590   6.159   5.479
 4805TIP3    H114379   3.591   6.237   5.534
 4805TIP3    H214380   3.507   6.117   5.497
 4806TIP3   OH214381   6.469   5.138   2.687
 4806TIP3    H114382   6.469   5.204   2.756
 4806TIP3    H214383   6.382   5.098   2.692
 4807TIP3   OH214384   5.564   2.695   3.669
 4807TIP3    H114385   5.655   2.725   3.667
 4807TIP3    H214386   5.513   2.775   3.685
 4808TIP3   OH214387   1.453   5.814   0.228
 4808TIP3    H114388   1.522   5.763   0.270
 4808TIP3    H214389   1.482   5.824   0.137
 4809TIP3   OH214390   3.824   2.380   1.183
 4809TIP3    H114391   3.911   2.354   1.216
 4809TIP3    H214392   3.841   2.455   1.127
 4810TIP3   OH214393   5.784   0.389   4.799
 4810TIP3    H114394   5.725   0.325   4.839
 4810TIP3    H214395   5.851   0.404   4.866
 4811TIP3   OH214396   3.777   1.562   0.310
 4811TIP3    H114397   3.864   1.569   0.350
 4811TIP3    H214398   3.742   1.651   0.313
 4812TIP3   OH214399   0.949   1.391   4.348
 4812TIP3    H114400   0.925   1.483   4.340
 4812TIP3    H214401   0.874   1.350   4.390
 4813TIP3   OH214402   4.447   4.302   1.525
 4813TIP3    H114403   4.381   4.349   1.473
 4813TIP3    H214404   4.529   4.314   1.477
 4814TIP3   OH214405   1.395   0.080   3.754
 4814TIP3    H114406   1.302   0.062   3.767
 4814TIP3    H214407   1.440   0.011   3.803
 4815TIP3   OH214408   3.613   6.731   4.049
 4815TIP3    H114409   3.632   6.669   3.978
 4815TIP3    H214410   3.518   6.735   4.053
 4816TIP3   OH214411   5.201   0.312   0.648
 4816TIP3    H114412   5.200   0.345   0.559
 4816TIP3    H214413   5.282   0.260   0.653
 4817TIP3   OH214414   5.250   3.533   3.847
 4817TIP3    H114415   5.301   3.509   3.925
 4817TIP3    H214416   5.252   3.454   3.792
 4818TIP3   OH214417   1.136   6.495   2.403
 4818TIP3    H114418   1.067   6.524   2.463
 4818TIP3    H214419   1.210   6.475   2.461
 4819TIP3   OH214420   0.505   6.189   4.287
 4819TIP3    H114421   0.559   6.135   4.229
 4819TIP3    H214422   0.554   6.270   4.297
 4820TIP3   OH214423   6.296   2.100   2.978
 4820TIP3    H114424   6.231   2.052   2.926
 4820TIP3    H214425   6.360   2.034   3.004
 4821TIP3   OH214426   1.871   2.549   2.185
 4821TIP3    H114427   1.799   2.611   2.199
 4821TIP3    H214428   1.835   2.464   2.212
 4822TIP3   OH214429   0.928   5.077   2.564
 4822TIP3    H114430   0.853   5.088   2.623
 4822TIP3    H214431   0.891   5.033   2.487
 4823TIP3   OH214432   4.631   5.338   4.981
 4823TIP3    H114433   4.560   5.383   5.027
 4823TIP3    H214434   4.600   5.329   4.891
 4824TIP3   OH214435   0.270   0.986   1.802
 4824TIP3    H114436   0.331   0.948   1.865
 4824TIP3    H214437   0.327   1.026   1.736
 4825TIP3   OH214438   4.085   0.213   1.866
 4825TIP3    H114439   4.144   0.141   1.844
 4825TIP3    H214440   4.000   0.188   1.830
 4826TIP3   OH214441   1.742   3.337   2.361
 4826TIP3    H114442   1.712   3.402   2.424
 4826TIP3    H214443   1.670   3.328   2.299
 4827TIP3   OH214444   1.092   5.095   0.457
 4827TIP3    H114445   1.067   5.167   0.400
 4827TIP3    H214446   1.188   5.090   0.449
 4828TIP3   OH214447   4.620   5.788   2.888
 4828TIP3    H114448   4.571   5.827   2.816
 4828TIP3    H214449   4.712   5.806   2.868
 4829TIP3   OH214450   6.270   3.384   4.168
 4829TIP3    H114451   6.238   3.380   4.077
 4829TIP3    H214452   6.351   3.434   4.162
 4830TIP3   OH214453   2.365   1.063   4.403
 4830TIP3    H114454   2.422   1.064   4.479
 4830TIP3    H214455   2.315   1.145   4.408
 4831TIP3   OH214456   0.296   4.859   2.480
 4831TIP3    H114457   0.377   4.815   2.507
 4831TIP3    H214458   0.307   4.873   2.386
 4832TIP3   OH214459   7.189   0.487   1.073
 4832TIP3    H114460   7.159   0.401   1.044
 4832TIP3    H214461   7.283   0.477   1.089
 4833TIP3   OH214462   3.207   2.639   4.225
 4833TIP3    H114463   3.246   2.601   4.146
 4833TIP3    H214464   3.165   2.720   4.194
 4834TIP3   OH214465   6.317   1.221   5.261
 4834TIP3    H114466   6.381   1.283   5.225
 4834TIP3    H214467   6.367   1.142   5.278
 4835TIP3   OH214468   2.935   4.355   4.433
 4835TIP3    H114469   2.903   4.404   4.357
 4835TIP3    H214470   2.894   4.397   4.508
 4836TIP3   OH214471   0.842   2.637   5.331
 4836TIP3    H114472   0.903   2.569   5.360
 4836TIP3    H214473   0.824   2.616   5.240
 4837TIP3   OH214474   2.262   5.568   5.376
 4837TIP3    H114475   2.272   5.606   5.464
 4837TIP3    H214476   2.201   5.627   5.331
 4838TIP3   OH214477   0.473   6.640   4.268
 4838TIP3    H114478   0.414   6.694   4.215
 4838TIP3    H214479   0.433   6.553   4.268
 4839TIP3   OH214480   6.434   3.774   4.125
 4839TIP3    H114481   6.499   3.823   4.176
 4839TIP3    H214482   6.484   3.731   4.056
 4840TIP3   OH214483   2.432   1.078   4.672
 4840TIP3    H114484   2.389   0.999   4.704
 4840TIP3    H214485   2.439   1.134   4.749
 4841TIP3   OH214486   4.566   0.636   0.049
 4841TIP3    H114487   4.581   0.552   0.093
 4841TIP3    H214488   4.614   0.630  -0.033
 4842TIP3   OH214489   6.336   4.401   4.624
 4842TIP3    H114490   6.279   4.336   4.581
 4842TIP3    H214491   6.407   4.349   4.661
 4843TIP3   OH214492   0.706   3.304   5.578
 4843TIP3    H114493   0.646   3.239   5.542
 4843TIP3    H214494   0.678   3.387   5.539
 4844TIP3   OH214495   1.673   3.559   3.903
 4844TIP3    H114496   1.701   3.554   3.811
 4844TIP3    H214497   1.587   3.518   3.904
 4845TIP3   OH214498   1.158   2.105   2.245
 4845TIP3    H114499   1.238   2.157   2.256
 4845TIP3    H214500   1.161   2.078   2.153
 4846TIP3   OH214501   4.074   2.329   1.245
 4846TIP3    H114502   4.080   2.373   1.330
 4846TIP3    H214503   4.165   2.322   1.215
 4847TIP3   OH214504   4.402   1.518   2.315
 4847TIP3    H114505   4.430   1.438   2.359
 4847TIP3    H214506   4.397   1.583   2.385
 4848TIP3   OH214507   3.365   4.663   1.748
 4848TIP3    H114508   3.283   4.614   1.739
 4848TIP3    H214509   3.431   4.596   1.765
 4849TIP3   OH214510   2.403   2.463   5.764
 4849TIP3    H114511   2.353   2.531   5.809
 4849TIP3    H214512   2.352   2.443   5.686
 4850TIP3   OH214513   0.508   0.910   4.363
 4850TIP3    H114514   0.428   0.888   4.412
 4850TIP3    H214515   0.508   1.005   4.358
 4851TIP3   OH214516   6.138   0.850   2.677
 4851TIP3    H114517   6.172   0.818   2.760
 4851TIP3    H214518   6.053   0.888   2.699
 4852TIP3   OH214519   0.599   4.631   1.542
 4852TIP3    H114520   0.633   4.623   1.453
 4852TIP3    H214521   0.652   4.700   1.582
 4853TIP3   OH214522   6.798   0.925   2.331
 4853TIP3    H114523   6.712   0.962   2.349
 4853TIP3    H214524   6.798   0.840   2.375
 4854TIP3   OH214525   0.001   4.810   4.426
 4854TIP3    H114526   0.048   4.798   4.343
 4854TIP3    H214527  -0.012   4.905   4.432
 4855TIP3   OH214528   5.388   6.626   0.947
 4855TIP3    H114529   5.454   6.558   0.960
 4855TIP3    H214530   5.335   6.623   1.027
 4856TIP3   OH214531   3.002   4.747   2.608
 4856TIP3    H114532   3.096   4.731   2.594
 4856TIP3    H214533   2.962   4.721   2.525
 4857TIP3   OH214534   2.399   3.540   2.478
 4857TIP3    H114535   2.426   3.613   2.421
 4857TIP3    H214536   2.468   3.535   2.544
 4858TIP3   OH214537   5.027   6.235   0.720
 4858TIP3    H114538   4.941   6.241   0.678
 4858TIP3    H214539   5.064   6.322   0.712
 4859TIP3   OH214540   5.888   3.274   5.253
 4859TIP3    H114541   5.922   3.328   5.324
 4859TIP3    H214542   5.943   3.196   5.253
 4860TIP3   OH214543   2.302   2.683   2.025
 4860TIP3    H114544   2.374   2.743   2.042
 4860TIP3    H214545   2.343   2.608   1.982
 4861TIP3   OH214546   4.857   3.522   3.394
 4861TIP3    H114547   4.824   3.598   3.442
 4861TIP3    H214548   4.824   3.446   3.442
 4862TIP3   OH214549   4.559   0.376   3.592
 4862TIP3    H114550   4.482   0.320   3.598
 4862TIP3    H214551   4.524   0.464   3.582
 4863TIP3   OH214552   1.293   1.929   1.467
 4863TIP3    H114553   1.264   2.020   1.454
 4863TIP3    H214554   1.346   1.932   1.547
 4864TIP3   OH214555   6.358   3.755   4.529
 4864TIP3    H114556   6.406   3.672   4.520
 4864TIP3    H214557   6.382   3.787   4.616
 4865TIP3   OH214558   4.851   2.663   0.805
 4865TIP3    H114559   4.861   2.576   0.844
 4865TIP3    H214560   4.940   2.695   0.794
 4866TIP3   OH214561   0.249   3.407   3.931
 4866TIP3    H114562   0.229   3.491   3.890
 4866TIP3    H214563   0.280   3.352   3.859
 4867TIP3   OH214564   1.526   3.486   3.053
 4867TIP3    H114565   1.488   3.489   3.141
 4867TIP3    H214566   1.618   3.511   3.065
 4868TIP3   OH214567   3.349   4.736   4.095
 4868TIP3    H114568   3.378   4.784   4.018
 4868TIP3    H214569   3.302   4.661   4.061
 4869TIP3   OH214570   2.835   4.628   2.243
 4869TIP3    H114571   2.830   4.578   2.162
 4869TIP3    H214572   2.797   4.713   2.221
 4870TIP3   OH214573   1.146   4.637   0.361
 4870TIP3    H114574   1.146   4.697   0.435
 4870TIP3    H214575   1.060   4.594   0.365
 4871TIP3   OH214576   2.523   0.749   4.663
 4871TIP3    H114577   2.475   0.737   4.581
 4871TIP3    H214578   2.594   0.810   4.640
 4872TIP3   OH214579   1.700   1.659   4.259
 4872TIP3    H114580   1.751   1.725   4.306
 4872TIP3    H214581   1.644   1.709   4.200
 4873TIP3   OH214582   5.255   4.165   4.343
 4873TIP3    H114583   5.264   4.240   4.403
 4873TIP3    H214584   5.284   4.090   4.395
 4874TIP3   OH214585   4.494   6.561   2.567
 4874TIP3    H114586   4.421   6.507   2.538
 4874TIP3    H214587   4.517   6.614   2.491
 4875TIP3   OH214588   5.245   3.756   0.887
 4875TIP3    H114589   5.181   3.701   0.932
 4875TIP3    H214590   5.312   3.774   0.953
 4876TIP3   OH214591   3.472   2.482   1.164
 4876TIP3    H114592   3.380   2.463   1.184
 4876TIP3    H214593   3.509   2.397   1.139
 4877TIP3   OH214594   3.156   5.168   3.177
 4877TIP3    H114595   3.061   5.161   3.189
 4877TIP3    H214596   3.167   5.242   3.118
 4878TIP3   OH214597   0.973   2.537   2.552
 4878TIP3    H114598   1.041   2.580   2.604
 4878TIP3    H214599   1.022   2.489   2.485
 4879TIP3   OH214600   6.971   5.014   3.177
 4879TIP3    H114601   7.007   4.925   3.182
 4879TIP3    H214602   6.990   5.052   3.263
 4880TIP3   OH214603   0.878   3.301   5.779
 4880TIP3    H114604   0.847   3.292   5.688
 4880TIP3    H214605   0.837   3.229   5.826
 4881TIP3   OH214606   4.232   0.814   4.118
 4881TIP3    H114607   4.301   0.774   4.170
 4881TIP3    H214608   4.262   0.805   4.027
 4882TIP3   OH214609   7.063   6.183   1.725
 4882TIP3    H114610   7.008   6.230   1.788
 4882TIP3    H214611   7.069   6.094   1.760
 4883TIP3   OH214612   0.456   6.500   1.066
 4883TIP3    H114613   0.431   6.437   1.134
 4883TIP3    H214614   0.377   6.515   1.016
 4884TIP3   OH214615   2.508   1.626   5.270
 4884TIP3    H114616   2.464   1.682   5.206
 4884TIP3    H214617   2.438   1.597   5.328
 4885TIP3   OH214618   6.538   5.846   0.058
 4885TIP3    H114619   6.535   5.937   0.088
 4885TIP3    H214620   6.526   5.794   0.137
 4886TIP3   OH214621   1.919   1.842   2.023
 4886TIP3    H114622   1.914   1.797   2.107
 4886TIP3    H214623   1.856   1.914   2.031
 4887TIP3   OH214624   3.088   2.673   3.288
 4887TIP3    H114625   3.079   2.598   3.230
 4887TIP3    H214626   3.122   2.743   3.232
 4888TIP3   OH214627   1.963   3.704   4.283
 4888TIP3    H114628   1.987   3.777   4.340
 4888TIP3    H214629   1.891   3.739   4.230
 4889TIP3   OH214630   1.881   5.687   5.765
 4889TIP3    H114631   1.928   5.696   5.848
 4889TIP3    H214632   1.819   5.615   5.781
 4890TIP3   OH214633   1.392   6.015   4.812
 4890TIP3    H114634   1.381   5.925   4.843
 4890TIP3    H214635   1.467   6.012   4.753
 4891TIP3   OH214636   4.400   3.027   5.313
 4891TIP3    H114637   4.318   3.066   5.282
 4891TIP3    H214638   4.398   3.038   5.408
 4892TIP3   OH214639   1.204   4.167   5.582
 4892TIP3    H114640   1.184   4.260   5.567
 4892TIP3    H214641   1.161   4.122   5.510
 4893TIP3   OH214642   2.896   5.004   5.291
 4893TIP3    H114643   2.801   5.004   5.292
 4893TIP3    H214644   2.920   5.072   5.228
 4894TIP3   OH214645   5.102   1.744   5.451
 4894TIP3    H114646   5.130   1.695   5.374
 4894TIP3    H214647   5.180   1.794   5.477
 4895TIP3   OH214648   5.101   6.334   1.200
 4895TIP3    H114649   5.012   6.363   1.219
 4895TIP3    H214650   5.101   6.241   1.224
 4896TIP3   OH214651   5.177   5.505   2.000
 4896TIP3    H114652   5.099   5.559   1.989
 4896TIP3    H214653   5.232   5.555   2.061
 4897TIP3   OH214654   5.061   1.095   0.766
 4897TIP3    H114655   5.023   1.089   0.854
 4897TIP3    H214656   5.011   1.165   0.724
 4898TIP3   OH214657   3.559   5.045   3.099
 4898TIP3    H114658   3.622   4.975   3.081
 4898TIP3    H214659   3.506   5.051   3.020
 4899TIP3   OH214660   2.307   6.233   0.211
 4899TIP3    H114661   2.283   6.185   0.132
 4899TIP3    H214662   2.236   6.214   0.273
 4900TIP3   OH214663   0.273   4.219   4.850
 4900TIP3    H114664   0.253   4.180   4.765
 4900TIP3    H214665   0.218   4.170   4.912
 4901TIP3   OH214666   4.969   2.563   4.074
 4901TIP3    H114667   4.903   2.523   4.130
 4901TIP3    H214668   5.049   2.512   4.090
 4902TIP3   OH214669   3.017   3.626   4.235
 4902TIP3    H114670   2.958   3.581   4.296
 4902TIP3    H214671   3.002   3.719   4.252
 4903TIP3   OH214672   2.908   2.717   5.092
 4903TIP3    H114673   2.910   2.710   5.187
 4903TIP3    H214674   2.860   2.798   5.074
 4904TIP3   OH214675   5.653   5.017   2.130
 4904TIP3    H114676   5.683   4.963   2.203
 4904TIP3    H214677   5.733   5.042   2.084
 4905TIP3   OH214678   5.905   5.355   0.271
 4905TIP3    H114679   5.824   5.307   0.290
 4905TIP3    H214680   5.879   5.447   0.274
 4906TIP3   OH214681   2.892   1.808   4.123
 4906TIP3    H114682   2.918   1.872   4.189
 4906TIP3    H214683   2.958   1.817   4.053
 4907TIP3   OH214684   0.357   1.881   3.440
 4907TIP3    H114685   0.427   1.942   3.415
 4907TIP3    H214686   0.294   1.885   3.368
 4908TIP3   OH214687   2.724   3.534   4.110
 4908TIP3    H114688   2.635   3.521   4.078
 4908TIP3    H214689   2.765   3.591   4.044
 4909TIP3   OH214690   4.125   5.230   3.194
 4909TIP3    H114691   4.189   5.287   3.152
 4909TIP3    H214692   4.059   5.212   3.127
 4910TIP3   OH214693   1.272   1.468   0.510
 4910TIP3    H114694   1.295   1.463   0.418
 4910TIP3    H214695   1.196   1.526   0.513
 4911TIP3   OH214696   5.416   1.550   1.832
 4911TIP3    H114697   5.464   1.618   1.785
 4911TIP3    H214698   5.361   1.508   1.766
 4912TIP3   OH214699   1.484   3.991   3.360
 4912TIP3    H114700   1.557   3.943   3.399
 4912TIP3    H214701   1.462   4.058   3.425
 4913TIP3   OH214702   1.968   5.536   5.565
 4913TIP3    H114703   1.949   5.572   5.651
 4913TIP3    H214704   1.887   5.549   5.515
 4914TIP3   OH214705   3.057   5.840   1.563
 4914TIP3    H114706   2.973   5.873   1.532
 4914TIP3    H214707   3.065   5.753   1.524
 4915TIP3   OH214708   0.694   2.392   4.526
 4915TIP3    H114709   0.770   2.373   4.471
 4915TIP3    H214710   0.673   2.483   4.508
 4916TIP3   OH214711   5.297   6.034   3.687
 4916TIP3    H114712   5.299   5.993   3.601
 4916TIP3    H214713   5.332   6.122   3.673
 4917TIP3   OH214714   4.187   6.132   1.599
 4917TIP3    H114715   4.177   6.055   1.544
 4917TIP3    H214716   4.139   6.112   1.679
 4918TIP3   OH214717   5.892   2.813   0.791
 4918TIP3    H114718   5.803   2.823   0.826
 4918TIP3    H214719   5.889   2.852   0.704
 4919TIP3   OH214720   1.769   3.805   5.534
 4919TIP3    H114721   1.690   3.753   5.549
 4919TIP3    H214722   1.739   3.896   5.539
 4920TIP3   OH214723   4.329   6.722   4.694
 4920TIP3    H114724   4.286   6.792   4.645
 4920TIP3    H214725   4.331   6.753   4.784
 4921TIP3   OH214726   1.048   6.668   5.073
 4921TIP3    H114727   1.005   6.750   5.097
 4921TIP3    H214728   1.056   6.672   4.978
 4922TIP3   OH214729   1.239   5.297   2.392
 4922TIP3    H114730   1.194   5.218   2.362
 4922TIP3    H214731   1.331   5.282   2.371
 4923TIP3   OH214732   6.542   0.664   0.680
 4923TIP3    H114733   6.558   0.736   0.619
 4923TIP3    H214734   6.473   0.696   0.738
 4924TIP3   OH214735   5.417   4.994   2.012
 4924TIP3    H114736   5.427   4.995   1.917
 4924TIP3    H214737   5.507   4.985   2.045
 4925TIP3   OH214738   4.421   1.329   0.444
 4925TIP3    H114739   4.436   1.309   0.352
 4925TIP3    H214740   4.485   1.277   0.492
 4926TIP3   OH214741   1.867   0.833   4.638
 4926TIP3    H114742   1.776   0.821   4.667
 4926TIP3    H214743   1.871   0.787   4.554
 4927TIP3   OH214744   4.931   5.175   3.618
 4927TIP3    H114745   4.990   5.102   3.638
 4927TIP3    H214746   4.988   5.245   3.586
 4928TIP3   OH214747   0.203   2.024   4.980
 4928TIP3    H114748   0.113   2.052   4.962
 4928TIP3    H214749   0.206   2.017   5.076
 4929TIP3   OH214750   2.640   4.011   0.218
 4929TIP3    H114751   2.613   3.962   0.140
 4929TIP3    H214752   2.711   4.067   0.187
 4930TIP3   OH214753   1.097   4.308   2.946
 4930TIP3    H114754   1.142   4.325   2.863
 4930TIP3    H214755   1.055   4.391   2.969
 4931TIP3   OH214756   3.086   4.948   2.786
 4931TIP3    H114757   3.150   4.894   2.831
 4931TIP3    H214758   3.060   4.896   2.710
 4932TIP3   OH214759   3.304   0.128   5.607
 4932TIP3    H114760   3.274   0.127   5.698
 4932TIP3    H214761   3.237   0.078   5.560
 4933TIP3   OH214762   4.217   5.600   0.021
 4933TIP3    H114763   4.124   5.612   0.001
 4933TIP3    H214764   4.230   5.506   0.017
 4934TIP3   OH214765   0.912   4.148   3.431
 4934TIP3    H114766   0.817   4.134   3.428
 4934TIP3    H214767   0.942   4.126   3.343
 4935TIP3   OH214768   6.609   3.761   1.675
 4935TIP3    H114769   6.658   3.841   1.658
 4935TIP3    H214770   6.606   3.716   1.591
 4936TIP3   OH214771   5.144   4.484   0.265
 4936TIP3    H114772   5.166   4.398   0.230
 4936TIP3    H214773   5.085   4.466   0.338
 4937TIP3   OH214774   3.619   2.148   2.054
 4937TIP3    H114775   3.590   2.152   2.145
 4937TIP3    H214776   3.685   2.217   2.047
 4938TIP3   OH214777   3.982   3.582   3.916
 4938TIP3    H114778   4.029   3.559   3.996
 4938TIP3    H214779   3.974   3.677   3.919
 4939TIP3   OH214780   5.766   2.976   3.960
 4939TIP3    H114781   5.794   2.886   3.944
 4939TIP3    H214782   5.680   2.967   4.002
 4940TIP3   OH214783   0.079   0.606   4.922
 4940TIP3    H114784   0.053   0.568   5.006
 4940TIP3    H214785   0.173   0.618   4.929
 4941TIP3   OH214786   0.171   5.888   0.516
 4941TIP3    H114787   0.190   5.885   0.609
 4941TIP3    H214788   0.247   5.847   0.474
 4942TIP3   OH214789   1.017   5.047   4.194
 4942TIP3    H114790   0.953   5.073   4.127
 4942TIP3    H214791   1.021   4.952   4.187
 4943TIP3   OH214792   2.272   4.658   4.126
 4943TIP3    H114793   2.333   4.653   4.053
 4943TIP3    H214794   2.316   4.611   4.198
 4944TIP3   OH214795   0.548   3.275   3.324
 4944TIP3    H114796   0.542   3.300   3.231
 4944TIP3    H214797   0.577   3.184   3.322
 4945TIP3   OH214798   0.728   4.778   2.910
 4945TIP3    H114799   0.776   4.697   2.929
 4945TIP3    H214800   0.780   4.846   2.953
 4946TIP3   OH214801   2.820   4.417   4.669
 4946TIP3    H114802   2.882   4.488   4.687
 4946TIP3    H214803   2.816   4.368   4.751
 4947TIP3   OH214804   5.244   5.637   4.743
 4947TIP3    H114805   5.207   5.623   4.830
 4947TIP3    H214806   5.335   5.608   4.751
 4948TIP3   OH214807   0.752   5.216   1.445
 4948TIP3    H114808   0.815   5.185   1.380
 4948TIP3    H214809   0.763   5.157   1.519
 4949TIP3   OH214810   1.543   0.608   1.436
 4949TIP3    H114811   1.499   0.685   1.471
 4949TIP3    H214812   1.636   0.623   1.455
 4950TIP3   OH214813   3.923   3.219   1.216
 4950TIP3    H114814   3.928   3.141   1.270
 4950TIP3    H214815   3.853   3.271   1.255
 4951TIP3   OH214816   5.296   1.029   1.273
 4951TIP3    H114817   5.239   1.090   1.225
 4951TIP3    H214818   5.349   1.085   1.330
 4952TIP3   OH214819   4.814   3.159   1.507
 4952TIP3    H114820   4.855   3.239   1.541
 4952TIP3    H214821   4.721   3.181   1.501
 4953TIP3   OH214822   6.514   4.243   4.387
 4953TIP3    H114823   6.469   4.212   4.466
 4953TIP3    H214824   6.445   4.284   4.335
 4954TIP3   OH214825   3.655   5.825   3.353
 4954TIP3    H114826   3.749   5.827   3.368
 4954TIP3    H214827   3.643   5.863   3.266
 4955TIP3   OH214828   1.054   1.033   1.147
 4955TIP3    H114829   1.008   1.113   1.173
 4955TIP3    H214830   1.130   1.064   1.098
 4956TIP3   OH214831   0.060   6.757   5.321
 4956TIP3    H114832   0.052   6.794   5.234
 4956TIP3    H214833   0.151   6.728   5.326
 4957TIP3   OH214834   1.836   0.410   2.332
 4957TIP3    H114835   1.755   0.459   2.321
 4957TIP3    H214836   1.810   0.326   2.368
 4958TIP3   OH214837   4.364   4.404   1.796
 4958TIP3    H114838   4.321   4.486   1.773
 4958TIP3    H214839   4.357   4.350   1.717
 4959TIP3   OH214840   1.798   2.417   1.030
 4959TIP3    H114841   1.786   2.399   1.123
 4959TIP3    H214842   1.805   2.512   1.025
 4960TIP3   OH214843   1.853   1.050   0.841
 4960TIP3    H114844   1.760   1.029   0.843
 4960TIP3    H214845   1.870   1.079   0.751
 4961TIP3   OH214846   0.802   4.617   5.433
 4961TIP3    H114847   0.738   4.590   5.367
 4961TIP3    H214848   0.859   4.542   5.444
 4962TIP3   OH214849   4.214   4.169   4.134
 4962TIP3    H114850   4.168   4.253   4.124
 4962TIP3    H214851   4.269   4.163   4.056
 4963TIP3   OH214852   6.464   3.172   3.949
 4963TIP3    H114853   6.517   3.107   3.902
 4963TIP3    H214854   6.497   3.256   3.918
 4964TIP3   OH214855   1.654   1.048   5.545
 4964TIP3    H114856   1.708   1.043   5.466
 4964TIP3    H214857   1.641   1.142   5.558
 4965TIP3   OH214858   3.296   0.900   0.615
 4965TIP3    H114859   3.290   0.811   0.650
 4965TIP3    H214860   3.376   0.935   0.654
 4966TIP3   OH214861   1.263   2.046   3.864
 4966TIP3    H114862   1.175   2.083   3.873
 4966TIP3    H214863   1.249   1.953   3.849
 4967TIP3   OH214864   4.422   3.686   0.682
 4967TIP3    H114865   4.456   3.776   0.680
 4967TIP3    H214866   4.496   3.632   0.709
 4968TIP3   OH214867   5.448   2.872   5.055
 4968TIP3    H114868   5.417   2.879   5.146
 4968TIP3    H214869   5.505   2.947   5.044
 4969TIP3   OH214870   3.769   4.715   0.991
 4969TIP3    H114871   3.794   4.654   0.922
 4969TIP3    H214872   3.815   4.796   0.969
 4970TIP3   OH214873   0.455   5.405   1.642
 4970TIP3    H114874   0.488   5.388   1.730
 4970TIP3    H214875   0.531   5.438   1.594
 4971TIP3   OH214876   0.492   5.936   1.382
 4971TIP3    H114877   0.410   5.886   1.388
 4971TIP3    H214878   0.555   5.884   1.432
 4972TIP3   OH214879   2.629   2.629   4.306
 4972TIP3    H114880   2.572   2.674   4.368
 4972TIP3    H214881   2.712   2.617   4.353
 4973TIP3   OH214882   3.925   5.616   3.602
 4973TIP3    H114883   3.986   5.574   3.542
 4973TIP3    H214884   3.848   5.560   3.601
 4974TIP3   OH214885   4.682   0.428   1.727
 4974TIP3    H114886   4.744   0.388   1.667
 4974TIP3    H214887   4.637   0.354   1.767
 4975TIP3   OH214888   4.900   1.950   1.365
 4975TIP3    H114889   4.893   1.926   1.272
 4975TIP3    H214890   4.894   2.046   1.365
 4976TIP3   OH214891   5.666   2.294   2.841
 4976TIP3    H114892   5.642   2.299   2.748
 4976TIP3    H214893   5.600   2.236   2.879
 4977TIP3   OH214894   5.132   2.879   3.124
 4977TIP3    H114895   5.161   2.939   3.193
 4977TIP3    H214896   5.051   2.917   3.091
 4978TIP3   OH214897   3.289   2.735   1.332
 4978TIP3    H114898   3.309   2.663   1.271
 4978TIP3    H214899   3.265   2.692   1.414
 4979TIP3   OH214900   6.501   1.595   3.268
 4979TIP3    H114901   6.440   1.620   3.198
 4979TIP3    H214902   6.574   1.554   3.221
 4980TIP3   OH214903   1.375   4.280   5.274
 4980TIP3    H114904   1.339   4.197   5.241
 4980TIP3    H214905   1.470   4.270   5.264
 4981TIP3   OH214906   2.514   4.149   1.077
 4981TIP3    H114907   2.587   4.207   1.099
 4981TIP3    H214908   2.470   4.193   1.004
 4982TIP3   OH214909   5.150   0.532   3.349
 4982TIP3    H114910   5.185   0.557   3.435
 4982TIP3    H214911   5.228   0.516   3.295
 4983TIP3   OH214912   3.816   4.753   5.038
 4983TIP3    H114913   3.794   4.727   4.948
 4983TIP3    H214914   3.904   4.720   5.052
 4984TIP3   OH214915   7.124   3.743   2.367
 4984TIP3    H114916   7.055   3.681   2.344
 4984TIP3    H214917   7.153   3.779   2.284
 4985TIP3   OH214918   0.943   0.904   1.350
 4985TIP3    H114919   0.972   0.957   1.276
 4985TIP3    H214920   0.851   0.928   1.361
 4986TIP3   OH214921   0.546   3.368   3.792
 4986TIP3    H114922   0.542   3.462   3.805
 4986TIP3    H214923   0.483   3.350   3.722
 4987TIP3   OH214924   6.387   2.536   4.337
 4987TIP3    H114925   6.321   2.586   4.385
 4987TIP3    H214926   6.467   2.546   4.389
 4988TIP3   OH214927   0.540   2.078   3.391
 4988TIP3    H114928   0.577   2.095   3.304
 4988TIP3    H214929   0.496   2.160   3.414
 4989TIP3   OH214930   7.088   6.334   1.257
 4989TIP3    H114931   7.065   6.425   1.238
 4989TIP3    H214932   7.067   6.286   1.176
 4990TIP3   OH214933   5.268   0.440   2.116
 4990TIP3    H114934   5.257   0.361   2.062
 4990TIP3    H214935   5.300   0.407   2.200
 4991TIP3   OH214936   6.231   2.809   5.336
 4991TIP3    H114937   6.223   2.824   5.431
 4991TIP3    H214938   6.198   2.720   5.323
 4992TIP3   OH214939   0.109   5.181   0.718
 4992TIP3    H114940   0.069   5.150   0.800
 4992TIP3    H214941   0.167   5.252   0.746
 4993TIP3   OH214942   3.172   1.723   2.126
 4993TIP3    H114943   3.180   1.627   2.129
 4993TIP3    H214944   3.260   1.754   2.148
 4994TIP3   OH214945   5.057   5.371   4.102
 4994TIP3    H114946   5.126   5.420   4.057
 4994TIP3    H214947   5.001   5.338   4.032
 4995TIP3   OH214948   0.604   1.784   4.861
 4995TIP3    H114949   0.616   1.799   4.955
 4995TIP3    H214950   0.654   1.854   4.819
 4996TIP3   OH214951   6.984   0.470   4.624
 4996TIP3    H114952   7.041   0.526   4.677
 4996TIP3    H214953   7.035   0.453   4.544
 4997TIP3   OH214954   2.128   3.591   3.458
 4997TIP3    H114955   2.144   3.538   3.536
 4997TIP3    H214956   2.104   3.528   3.391
 4998TIP3   OH214957   6.501   2.666   3.001
 4998TIP3    H114958   6.477   2.574   3.015
 4998TIP3    H214959   6.581   2.662   2.950
 4999TIP3   OH214960   0.555   0.905   0.934
 4999TIP3    H114961   0.550   0.866   0.847
 4999TIP3    H214962   0.638   0.952   0.934
 5000TIP3   OH214963   1.128   2.018   5.006
 5000TIP3    H114964   1.108   2.047   4.917
 5000TIP3    H214965   1.058   1.956   5.027
 5001TIP3   OH214966   6.001   1.398   5.734
 5001TIP3    H114967   6.087   1.400   5.776
 5001TIP3    H214968   5.942   1.364   5.801
 5002TIP3   OH214969   0.171   5.911   4.291
 5002TIP3    H114970   0.244   5.933   4.349
 5002TIP3    H214971   0.096   5.955   4.330
 5003TIP3   OH214972   5.771   3.344   2.515
 5003TIP3    H114973   5.680   3.344   2.487
 5003TIP3    H214974   5.791   3.252   2.532
 5004TIP3   OH214975   1.868   4.950   5.007
 5004TIP3    H114976   1.951   4.949   4.959
 5004TIP3    H214977   1.801   4.954   4.938
 5005TIP3   OH214978   0.710   1.951   2.760
 5005TIP3    H114979   0.799   1.935   2.729
 5005TIP3    H214980   0.657   1.886   2.715
 5006TIP3   OH214981   2.783   5.249   1.870
 5006TIP3    H114982   2.698   5.292   1.864
 5006TIP3    H214983   2.830   5.277   1.791
 5007TIP3   OH214984   2.226   0.179   0.883
 5007TIP3    H114985   2.156   0.206   0.943
 5007TIP3    H214986   2.182   0.171   0.798
 5008TIP3   OH214987   4.379   3.926   4.355
 5008TIP3    H114988   4.297   3.878   4.342
 5008TIP3    H214989   4.446   3.859   4.360
 5009TIP3   OH214990   0.788  -0.023   3.720
 5009TIP3    H114991   0.822   0.025   3.795
 5009TIP3    H214992   0.797   0.037   3.646
 5010TIP3   OH214993   6.069   3.032   0.906
 5010TIP3    H114994   6.034   2.943   0.906
 5010TIP3    H214995   6.164   3.020   0.909
 5011TIP3   OH214996   1.252   6.302   1.259
 5011TIP3    H114997   1.180   6.295   1.196
 5011TIP3    H214998   1.223   6.371   1.320
 5012TIP3   OH214999   3.661   5.271   1.423
 5012TIP3    H115000   3.589   5.330   1.396
 5012TIP3    H215001   3.717   5.325   1.477
 5013TIP3   OH215002   0.240   4.351   2.915
 5013TIP3    H115003   0.288   4.281   2.870
 5013TIP3    H215004   0.299   4.380   2.984
 5014TIP3   OH215005   7.035   1.332   0.413
 5014TIP3    H115006   6.992   1.251   0.439
 5014TIP3    H215007   6.972   1.375   0.355
 5015TIP3   OH215008   0.921   3.026   1.196
 5015TIP3    H115009   0.901   3.119   1.193
 5015TIP3    H215010   0.985   3.017   1.267
 5016TIP3   OH215011   5.975   0.092   4.714
 5016TIP3    H115012   6.008   0.003   4.725
 5016TIP3    H215013   5.899   0.083   4.657
 5017TIP3   OH215014   1.416   4.813   2.459
 5017TIP3    H115015   1.338   4.827   2.513
 5017TIP3    H215016   1.450   4.900   2.442
 5018TIP3   OH215017   7.231   4.248   3.436
 5018TIP3    H115018   7.192   4.304   3.504
 5018TIP3    H215019   7.175   4.170   3.435
 5019TIP3   OH215020   2.839   1.215   0.998
 5019TIP3    H115021   2.817   1.167   1.078
 5019TIP3    H215022   2.766   1.276   0.986
 5020TIP3   OH215023   6.675   3.574   3.250
 5020TIP3    H115024   6.591   3.535   3.275
 5020TIP3    H215025   6.691   3.542   3.162
 5021TIP3   OH215026   1.200   3.415   5.723
 5021TIP3    H115027   1.198   3.458   5.808
 5021TIP3    H215028   1.226   3.325   5.741
 5022TIP3   OH215029   4.644   3.868  -0.013
 5022TIP3    H115030   4.722   3.847  -0.064
 5022TIP3    H215031   4.653   3.818   0.068
 5023TIP3   OH215032   2.577   4.498   0.931
 5023TIP3    H115033   2.618   4.463   1.010
 5023TIP3    H215034   2.510   4.433   0.908
 5024TIP3   OH215035   1.962   1.766   2.798
 5024TIP3    H115036   1.963   1.705   2.872
 5024TIP3    H215037   1.884   1.820   2.813
 5025TIP3   OH215038   5.915   1.674   0.540
 5025TIP3    H115039   5.951   1.593   0.504
 5025TIP3    H215040   5.992   1.728   0.557
 5026TIP3   OH215041   0.179   0.085   3.229
 5026TIP3    H115042   0.087   0.109   3.239
 5026TIP3    H215043   0.185  -0.005   3.261
 5027TIP3   OH215044   0.346   0.595   4.963
 5027TIP3    H115045   0.353   0.589   5.058
 5027TIP3    H215046   0.402   0.669   4.939
 5028TIP3   OH215047   3.369   1.107   4.723
 5028TIP3    H115048   3.371   1.166   4.798
 5028TIP3    H215049   3.335   1.160   4.651
 5029TIP3   OH215050   2.424   2.802   3.066
 5029TIP3    H115051   2.418   2.707   3.080
 5029TIP3    H215052   2.417   2.812   2.971
 5030TIP3   OH215053   5.253   6.509   2.599
 5030TIP3    H115054   5.341   6.530   2.630
 5030TIP3    H215055   5.198   6.577   2.638
 5031TIP3   OH215056   2.963   4.286   3.215
 5031TIP3    H115057   3.005   4.203   3.194
 5031TIP3    H215058   2.932   4.275   3.305
 5032TIP3   OH215059   6.002   0.864   1.027
 5032TIP3    H115060   5.984   0.774   0.999
 5032TIP3    H215061   5.930   0.885   1.086
 5033TIP3   OH215062   3.310   5.580   4.796
 5033TIP3    H115063   3.342   5.530   4.871
 5033TIP3    H215064   3.368   5.656   4.792
 5034TIP3   OH215065   2.001   2.408   4.090
 5034TIP3    H115066   1.957   2.440   4.168
 5034TIP3    H215067   2.091   2.440   4.098
 5035TIP3   OH215068   2.705   6.093   2.877
 5035TIP3    H115069   2.710   6.053   2.964
 5035TIP3    H215070   2.632   6.049   2.835
 5036TIP3   OH215071   3.211   1.662   4.342
 5036TIP3    H115072   3.168   1.585   4.379
 5036TIP3    H215073   3.189   1.659   4.248
 5037TIP3   OH215074   3.479   6.663   1.840
 5037TIP3    H115075   3.430   6.581   1.833
 5037TIP3    H215076   3.457   6.711   1.760
 5038TIP3   OH215077   1.986   5.463   0.729
 5038TIP3    H115078   1.905   5.489   0.685
 5038TIP3    H215079   1.980   5.502   0.816
 5039TIP3   OH215080   6.277   6.197   1.313
 5039TIP3    H115081   6.363   6.166   1.341
 5039TIP3    H215082   6.292   6.232   1.226
 5040TIP3   OH215083   2.293   1.657   4.820
 5040TIP3    H115084   2.365   1.596   4.835
 5040TIP3    H215085   2.326   1.717   4.753
 5041TIP3   OH215086   6.704   1.145   4.509
 5041TIP3    H115087   6.727   1.237   4.503
 5041TIP3    H215088   6.633   1.133   4.445
 5042TIP3   OH215089   3.007   5.879   4.701
 5042TIP3    H115090   3.005   5.805   4.762
 5042TIP3    H215091   3.016   5.839   4.615
 5043TIP3   OH215092   5.056   6.346   2.105
 5043TIP3    H115093   5.027   6.351   2.013
 5043TIP3    H215094   5.139   6.299   2.101
 5044TIP3   OH215095   3.299   1.231   5.862
 5044TIP3    H115096   3.313   1.223   5.956
 5044TIP3    H215097   3.329   1.147   5.826
 5045TIP3   OH215098   6.015   6.476   5.089
 5045TIP3    H115099   5.975   6.390   5.104
 5045TIP3    H215100   6.040   6.506   5.177
 5046TIP3   OH215101   4.540   5.188   2.921
 5046TIP3    H115102   4.625   5.185   2.965
 5046TIP3    H215103   4.531   5.279   2.892
 5047TIP3   OH215104   0.908   4.956   5.361
 5047TIP3    H115105   0.977   4.891   5.351
 5047TIP3    H215106   0.869   4.963   5.274
 5048TIP3   OH215107   5.630   4.792   1.558
 5048TIP3    H115108   5.570   4.758   1.492
 5048TIP3    H215109   5.716   4.788   1.516
 5049TIP3   OH215110   6.569   5.884   1.101
 5049TIP3    H115111   6.539   5.937   1.175
 5049TIP3    H215112   6.574   5.795   1.135
 5050TIP3   OH215113   1.215   1.173   3.054
 5050TIP3    H115114   1.242   1.196   3.143
 5050TIP3    H215115   1.234   1.079   3.047
 5051TIP3   OH215116   3.391   3.087   0.633
 5051TIP3    H115117   3.385   3.021   0.564
 5051TIP3    H215118   3.423   3.165   0.589
 5052TIP3   OH215119   1.187   2.617   3.751
 5052TIP3    H115120   1.230   2.575   3.677
 5052TIP3    H215121   1.193   2.552   3.822
 5053TIP3   OH215122   5.854   3.163   4.369
 5053TIP3    H115123   5.924   3.103   4.341
 5053TIP3    H215124   5.872   3.180   4.461
 5054TIP3   OH215125   1.376   4.652   0.835
 5054TIP3    H115126   1.296   4.601   0.832
 5054TIP3    H215127   1.373   4.697   0.920
 5055TIP3   OH215128   6.551   0.327   4.772
 5055TIP3    H115129   6.570   0.353   4.862
 5055TIP3    H215130   6.637   0.311   4.733
 5056TIP3   OH215131   3.729   0.450   0.654
 5056TIP3    H115132   3.758   0.465   0.564
 5056TIP3    H215133   3.768   0.521   0.704
 5057TIP3   OH215134   3.599   3.049   1.534
 5057TIP3    H115135   3.520   3.008   1.567
 5057TIP3    H215136   3.656   3.057   1.611
 5058TIP3   OH215137   1.142   5.788   1.898
 5058TIP3    H115138   1.166   5.774   1.806
 5058TIP3    H215139   1.167   5.707   1.942
 5059TIP3   OH215140   1.074   0.711   0.653
 5059TIP3    H115141   1.056   0.795   0.611
 5059TIP3    H215142   0.989   0.685   0.690
 5060TIP3   OH215143   0.781   4.584   4.004
 5060TIP3    H115144   0.694   4.559   4.035
 5060TIP3    H215145   0.770   4.596   3.909
 5061TIP3   OH215146   5.079   5.332   1.801
 5061TIP3    H115147   5.133   5.353   1.724
 5061TIP3    H215148   5.104   5.397   1.866
 5062TIP3   OH215149   0.405   3.241   0.925
 5062TIP3    H115150   0.370   3.210   0.842
 5062TIP3    H215151   0.394   3.336   0.921
 5063TIP3   OH215152   1.527   2.980   0.306
 5063TIP3    H115153   1.528   2.884   0.303
 5063TIP3    H215154   1.445   3.001   0.351
 5064TIP3   OH215155   2.419   5.259   5.127
 5064TIP3    H115156   2.418   5.284   5.035
 5064TIP3    H215157   2.327   5.253   5.151
 5065TIP3   OH215158   4.503   2.880   4.804
 5065TIP3    H115159   4.560   2.946   4.844
 5065TIP3    H215160   4.497   2.906   4.712
 5066TIP3   OH215161   2.607   5.977   2.498
 5066TIP3    H115162   2.517   6.002   2.519
 5066TIP3    H215163   2.600   5.922   2.420
 5067TIP3   OH215164   2.333   0.177   1.844
 5067TIP3    H115165   2.390   0.103   1.825
 5067TIP3    H215166   2.246   0.138   1.853
 5068TIP3   OH215167   5.135   5.067   5.397
 5068TIP3    H115168   5.049   5.039   5.430
 5068TIP3    H215169   5.158   5.001   5.332
 5069TIP3   OH215170   4.948   2.019   4.332
 5069TIP3    H115171   4.876   1.968   4.293
 5069TIP3    H215172   5.009   2.033   4.259
 5070TIP3   OH215173   2.740   4.009   5.861
 5070TIP3    H115174   2.788   4.073   5.914
 5070TIP3    H215175   2.689   4.063   5.800
 5071TIP3   OH215176   4.310   6.060   0.317
 5071TIP3    H115177   4.309   5.968   0.291
 5071TIP3    H215178   4.300   6.108   0.235
 5072TIP3   OH215179   2.688   2.344   1.931
 5072TIP3    H115180   2.752   2.336   1.860
 5072TIP3    H215181   2.716   2.279   1.996
 5073TIP3   OH215182   0.692   0.742   2.589
 5073TIP3    H115183   0.733   0.825   2.561
 5073TIP3    H215184   0.710   0.738   2.683
 5074TIP3   OH215185   6.100   6.270   2.162
 5074TIP3    H115186   6.034   6.201   2.164
 5074TIP3    H215187   6.183   6.224   2.173
 5075TIP3   OH215188   5.288   2.204   0.778
 5075TIP3    H115189   5.260   2.232   0.865
 5075TIP3    H215190   5.339   2.278   0.745
 5076TIP3   OH215191   4.494   3.445   4.248
 5076TIP3    H115192   4.449   3.438   4.333
 5076TIP3    H215193   4.586   3.426   4.269
 5077TIP3   OH215194   2.258   5.105   4.043
 5077TIP3    H115195   2.328   5.134   4.102
 5077TIP3    H215196   2.217   5.031   4.088
 5078TIP3   OH215197   6.935   2.003   2.994
 5078TIP3    H115198   7.004   1.962   3.047
 5078TIP3    H215199   6.856   1.995   3.047
 5079TIP3   OH215200   0.469   4.397   2.529
 5079TIP3    H115201   0.490   4.377   2.437
 5079TIP3    H215202   0.482   4.314   2.575
 5080TIP3   OH215203   5.359   4.723   5.824
 5080TIP3    H115204   5.453   4.742   5.830
 5080TIP3    H215205   5.337   4.739   5.732
 5081TIP3   OH215206   5.334   5.664   1.703
 5081TIP3    H115207   5.351   5.734   1.640
 5081TIP3    H215208   5.415   5.656   1.752
 5082TIP3   OH215209   2.729   2.020   3.996
 5082TIP3    H115210   2.692   1.990   3.912
 5082TIP3    H215211   2.759   1.940   4.039
 5083TIP3   OH215212   5.744   5.898   5.273
 5083TIP3    H115213   5.742   5.803   5.260
 5083TIP3    H215214   5.807   5.929   5.207
 5084TIP3   OH215215   5.600   6.341   1.715
 5084TIP3    H115216   5.530   6.340   1.650
 5084TIP3    H215217   5.660   6.409   1.685
 5085TIP3   OH215218   0.064   3.338   5.346
 5085TIP3    H115219   0.144   3.329   5.294
 5085TIP3    H215220   0.060   3.258   5.398
 5086TIP3   OH215221   3.470   4.309   4.746
 5086TIP3    H115222   3.444   4.345   4.662
 5086TIP3    H215223   3.390   4.271   4.782
 5087TIP3   OH215224   1.283   6.124   0.862
 5087TIP3    H115225   1.208   6.167   0.823
 5087TIP3    H215226   1.248   6.075   0.937
 5088TIP3   OH215227   0.554   5.581   0.115
 5088TIP3    H115228   0.555   5.667   0.156
 5088TIP3    H215229   0.616   5.529   0.167
 5089TIP3   OH215230   1.772   5.089   3.653
 5089TIP3    H115231   1.844   5.034   3.683
 5089TIP3    H215232   1.705   5.081   3.721
 5090TIP3   OH215233   7.093   3.161   2.291
 5090TIP3    H115234   7.180   3.120   2.291
 5090TIP3    H215235   7.043   3.111   2.354
 5091TIP3   OH215236   2.444   4.116   4.237
 5091TIP3    H115237   2.459   4.118   4.143
 5091TIP3    H215238   2.379   4.047   4.251
 5092TIP3   OH215239   0.581   4.592   0.692
 5092TIP3    H115240   0.540   4.658   0.748
 5092TIP3    H215241   0.566   4.623   0.603
 5093TIP3   OH215242   3.921   2.151   3.082
 5093TIP3    H115243   3.930   2.239   3.120
 5093TIP3    H215244   3.858   2.161   3.011
 5094TIP3   OH215245   2.791   2.676   1.349
 5094TIP3    H115246   2.770   2.625   1.427
 5094TIP3    H215247   2.783   2.768   1.377
 5095TIP3   OH215248   5.309   3.409   5.629
 5095TIP3    H115249   5.340   3.468   5.561
 5095TIP3    H215250   5.222   3.381   5.600
 5096TIP3   OH215251   5.370   6.604   2.874
 5096TIP3    H115252   5.446   6.551   2.852
 5096TIP3    H215253   5.388   6.689   2.834
 5097TIP3   OH215254   1.159   2.495   3.371
 5097TIP3    H115255   1.165   2.403   3.347
 5097TIP3    H215256   1.221   2.506   3.443
 5098TIP3   OH215257   0.370   3.678   2.301
 5098TIP3    H115258   0.322   3.737   2.360
 5098TIP3    H215259   0.460   3.681   2.333
 5099TIP3   OH215260   1.533   2.080   4.725
 5099TIP3    H115261   1.524   2.175   4.735
 5099TIP3    H215262   1.550   2.049   4.814
 5100TIP3   OH215263   3.828   1.442   3.075
 5100TIP3    H115264   3.761   1.507   3.055
 5100TIP3    H215265   3.781   1.359   3.081
 5101TIP3   OH215266   6.273   6.493   2.746
 5101TIP3    H115267   6.237   6.435   2.813
 5101TIP3    H215268   6.324   6.557   2.796
 5102TIP3   OH215269   5.031   2.379   3.824
 5102TIP3    H115270   5.013   2.285   3.823
 5102TIP3    H215271   5.047   2.400   3.916
 5103TIP3   OH215272   0.051   6.408   0.251
 5103TIP3    H115273   0.102   6.449   0.181
 5103TIP3    H215274  -0.008   6.477   0.281
 5104TIP3   OH215275   2.023   0.331   4.447
 5104TIP3    H115276   2.042   0.244   4.483
 5104TIP3    H215277   1.954   0.366   4.503
 5105TIP3   OH215278   1.899   1.775   1.050
 5105TIP3    H115279   1.992   1.753   1.047
 5105TIP3    H215280   1.866   1.733   1.130
 5106TIP3   OH215281   5.058   2.227   0.262
 5106TIP3    H115282   5.040   2.177   0.342
 5106TIP3    H215283   5.020   2.174   0.192
 5107TIP3   OH215284   4.671   1.969   2.547
 5107TIP3    H115285   4.758   2.009   2.549
 5107TIP3    H215286   4.623   2.013   2.617
 5108TIP3   OH215287   6.156   4.005   0.704
 5108TIP3    H115288   6.125   3.927   0.749
 5108TIP3    H215289   6.079   4.062   0.699
 5109TIP3   OH215290   0.515   0.770   1.564
 5109TIP3    H115291   0.438   0.749   1.618
 5109TIP3    H215292   0.479   0.817   1.489
 5110TIP3   OH215293   3.855   1.233   0.736
 5110TIP3    H115294   3.762   1.220   0.754
 5110TIP3    H215295   3.858   1.311   0.680
 5111TIP3   OH215296   3.878   4.041   4.902
 5111TIP3    H115297   3.821   4.115   4.882
 5111TIP3    H215298   3.939   4.036   4.829
 5112TIP3   OH215299   7.062   4.373   1.091
 5112TIP3    H115300   7.113   4.453   1.103
 5112TIP3    H215301   7.126   4.307   1.065
 5113TIP3   OH215302   2.878   2.886   3.754
 5113TIP3    H115303   2.905   2.964   3.705
 5113TIP3    H215304   2.797   2.857   3.712
 5114TIP3   OH215305   5.939   1.121   4.498
 5114TIP3    H115306   5.967   1.143   4.409
 5114TIP3    H215307   5.934   1.025   4.498
 5115TIP3   OH215308   5.792   2.498   5.709
 5115TIP3    H115309   5.866   2.508   5.768
 5115TIP3    H215310   5.715   2.493   5.766
 5116TIP3   OH215311   6.236   2.161   5.205
 5116TIP3    H115312   6.232   2.066   5.220
 5116TIP3    H215313   6.145   2.188   5.199
 5117TIP3   OH215314   2.168   5.629   1.545
 5117TIP3    H115315   2.263   5.642   1.552
 5117TIP3    H215316   2.158   5.546   1.501
 5118TIP3   OH215317   0.808   6.602   2.936
 5118TIP3    H115318   0.897   6.590   2.901
 5118TIP3    H215319   0.776   6.513   2.953
 5119TIP3   OH215320   7.082   0.254   2.098
 5119TIP3    H115321   7.112   0.273   2.009
 5119TIP3    H215322   7.154   0.206   2.139
 5120TIP3   OH215323   4.165   4.595   3.476
 5120TIP3    H115324   4.236   4.595   3.411
 5120TIP3    H215325   4.117   4.513   3.459
 5121TIP3   OH215326   2.928   4.147   1.028
 5121TIP3    H115327   2.983   4.171   0.954
 5121TIP3    H215328   2.880   4.070   0.998
 5122TIP3   OH215329   1.027   3.052   3.084
 5122TIP3    H115330   1.070   3.017   3.162
 5122TIP3    H215331   0.946   3.001   3.076
 5123TIP3   OH215332   1.250   5.896   4.452
 5123TIP3    H115333   1.182   5.964   4.454
 5123TIP3    H215334   1.208   5.819   4.490
 5124TIP3   OH215335   5.619   4.273   4.559
 5124TIP3    H115336   5.684   4.336   4.525
 5124TIP3    H215337   5.599   4.217   4.484
 5125TIP3   OH215338   0.175   6.262   3.876
 5125TIP3    H115339   0.143   6.277   3.965
 5125TIP3    H215340   0.218   6.177   3.880
 5126TIP3   OH215341   5.787   0.120   4.210
 5126TIP3    H115342   5.853   0.174   4.167
 5126TIP3    H215343   5.748   0.178   4.276
 5127TIP3   OH215344   5.281   0.982   0.713
 5127TIP3    H115345   5.202   1.037   0.720
 5127TIP3    H215346   5.332   1.005   0.790
 5128TIP3   OH215347   6.126   2.871   0.559
 5128TIP3    H115348   6.204   2.924   0.579
 5128TIP3    H215349   6.161   2.793   0.516
 5129TIP3   OH215350   3.208   1.095   1.292
 5129TIP3    H115351   3.200   1.183   1.328
 5129TIP3    H215352   3.251   1.045   1.361
 5130TIP3   OH215353   7.222   6.421   5.683
 5130TIP3    H115354   7.150   6.378   5.729
 5130TIP3    H215355   7.206   6.401   5.591
 5131TIP3   OH215356   5.542   6.430   1.080
 5131TIP3    H115357   5.486   6.357   1.107
 5131TIP3    H215358   5.543   6.489   1.156
 5132TIP3   OH215359   4.221   3.316   1.556
 5132TIP3    H115360   4.243   3.377   1.625
 5132TIP3    H215361   4.147   3.357   1.510
 5133TIP3   OH215362   0.973   5.339   2.788
 5133TIP3    H115363   0.886   5.363   2.755
 5133TIP3    H215364   1.035   5.385   2.732
 5134TIP3   OH215365   3.959   0.741   1.393
 5134TIP3    H115366   3.948   0.760   1.486
 5134TIP3    H215367   3.970   0.646   1.389
 5135TIP3   OH215368   5.590   4.242   1.921
 5135TIP3    H115369   5.677   4.257   1.959
 5135TIP3    H215370   5.562   4.328   1.890
 5136TIP3   OH215371   2.013   6.462   3.768
 5136TIP3    H115372   1.993   6.556   3.776
 5136TIP3    H215373   2.098   6.452   3.811
 5137TIP3   OH215374   2.691   3.506   4.903
 5137TIP3    H115375   2.700   3.436   4.966
 5137TIP3    H215376   2.651   3.465   4.826
 5138TIP3   OH215377   1.446   0.941   1.100
 5138TIP3    H115378   1.394   1.021   1.107
 5138TIP3    H215379   1.490   0.934   1.184
 5139TIP3   OH215380   2.967   0.931   4.909
 5139TIP3    H115381   2.931   0.976   4.833
 5139TIP3    H215382   2.914   0.962   4.983
 5140TIP3   OH215383   4.202   5.903   4.417
 5140TIP3    H115384   4.122   5.951   4.439
 5140TIP3    H215385   4.243   5.886   4.502
 5141TIP3   OH215386   2.174   0.461   5.608
 5141TIP3    H115387   2.194   0.370   5.587
 5141TIP3    H215388   2.200   0.471   5.699
 5142TIP3   OH215389   0.806   6.548   4.501
 5142TIP3    H115390   0.807   6.477   4.437
 5142TIP3    H215391   0.830   6.626   4.450
 5143TIP3   OH215392   4.160   2.767   4.376
 5143TIP3    H115393   4.139   2.847   4.424
 5143TIP3    H215394   4.169   2.796   4.285
 5144TIP3   OH215395   3.325   5.594   1.778
 5144TIP3    H115396   3.368   5.679   1.781
 5144TIP3    H215397   3.247   5.604   1.831
 5145TIP3   OH215398   1.792   6.204   1.539
 5145TIP3    H115399   1.848   6.159   1.602
 5145TIP3    H215400   1.733   6.136   1.507
 5146TIP3   OH215401   3.767   2.431   5.272
 5146TIP3    H115402   3.854   2.453   5.304
 5146TIP3    H215403   3.733   2.368   5.336
 5147TIP3   OH215404   1.412   3.162   1.405
 5147TIP3    H115405   1.346   3.155   1.474
 5147TIP3    H215406   1.483   3.213   1.445
 5148TIP3   OH215407   1.010   4.134   3.149
 5148TIP3    H115408   1.028   4.073   3.078
 5148TIP3    H215409   1.032   4.220   3.114
 5149TIP3   OH215410   4.995   5.285   0.865
 5149TIP3    H115411   5.079   5.242   0.848
 5149TIP3    H215412   5.014   5.346   0.936
 5150TIP3   OH215413   6.810   3.792   2.092
 5150TIP3    H115414   6.752   3.722   2.122
 5150TIP3    H215415   6.851   3.756   2.013
 5151TIP3   OH215416   6.788   4.924   0.150
 5151TIP3    H115417   6.803   4.968   0.066
 5151TIP3    H215418   6.696   4.896   0.145
 5152TIP3   OH215419   0.365   5.385   4.916
 5152TIP3    H115420   0.344   5.474   4.888
 5152TIP3    H215421   0.403   5.344   4.838
 5153TIP3   OH215422   3.180   4.898   0.429
 5153TIP3    H115423   3.145   4.960   0.494
 5153TIP3    H215424   3.141   4.814   0.453
 5154TIP3   OH215425   3.013   4.339   0.455
 5154TIP3    H115426   3.074   4.335   0.529
 5154TIP3    H215427   3.067   4.366   0.381
 5155TIP3   OH215428   0.897   6.497   4.749
 5155TIP3    H115429   0.830   6.515   4.814
 5155TIP3    H215430   0.852   6.504   4.665
 5156TIP3   OH215431   5.476   2.754   5.842
 5156TIP3    H115432   5.481   2.726   5.933
 5156TIP3    H215433   5.436   2.681   5.797
 5157TIP3   OH215434   1.912   2.976   5.046
 5157TIP3    H115435   1.905   2.919   5.123
 5157TIP3    H215436   2.002   2.967   5.017
 5158TIP3   OH215437   0.315   0.751   3.338
 5158TIP3    H115438   0.295   0.681   3.276
 5158TIP3    H215439   0.391   0.796   3.302
 5159TIP3   OH215440   4.266   3.287   2.159
 5159TIP3    H115441   4.325   3.349   2.202
 5159TIP3    H215442   4.180   3.329   2.161
 5160TIP3   OH215443   4.158   2.223   2.303
 5160TIP3    H115444   4.089   2.196   2.243
 5160TIP3    H215445   4.162   2.318   2.294
 5161TIP3   OH215446   3.210   1.960   0.557
 5161TIP3    H115447   3.150   2.033   0.546
 5161TIP3    H215448   3.249   1.947   0.471
 5162TIP3   OH215449   4.636   6.141   2.174
 5162TIP3    H115450   4.625   6.199   2.250
 5162TIP3    H215451   4.659   6.056   2.212
 5163TIP3   OH215452   1.591   4.856   2.864
 5163TIP3    H115453   1.516   4.860   2.804
 5163TIP3    H215454   1.552   4.870   2.951
 5164TIP3   OH215455   4.212   1.151   0.422
 5164TIP3    H115456   4.162   1.201   0.358
 5164TIP3    H215457   4.276   1.213   0.456
 5165TIP3   OH215458   1.242   0.574   5.764
 5165TIP3    H115459   1.190   0.496   5.780
 5165TIP3    H215460   1.179   0.641   5.738
 5166TIP3   OH215461   2.872   6.144   5.633
 5166TIP3    H115462   2.880   6.082   5.705
 5166TIP3    H215463   2.778   6.159   5.623
 5167TIP3   OH215464   2.555   2.722   1.200
 5167TIP3    H115465   2.480   2.753   1.252
 5167TIP3    H215466   2.624   2.707   1.265
 5168TIP3   OH215467   6.215   4.142   4.137
 5168TIP3    H115468   6.137   4.087   4.135
 5168TIP3    H215469   6.281   4.087   4.180
 5169TIP3   OH215470   2.933   0.477   1.476
 5169TIP3    H115471   2.908   0.493   1.385
 5169TIP3    H215472   2.971   0.389   1.475
 5170TIP3   OH215473   5.097   2.329   4.306
 5170TIP3    H115474   5.127   2.270   4.237
 5170TIP3    H215475   5.088   2.273   4.383
 5171TIP3   OH215476   3.615   0.465   4.981
 5171TIP3    H115477   3.582   0.466   5.071
 5171TIP3    H215478   3.571   0.539   4.939
 5172TIP3   OH215479   3.256   1.778   5.747
 5172TIP3    H115480   3.320   1.747   5.811
 5172TIP3    H215481   3.260   1.873   5.754
 5173TIP3   OH215482   3.036   1.677   5.049
 5173TIP3    H115483   3.001   1.620   5.118
 5173TIP3    H215484   2.995   1.644   4.969
 5174TIP3   OH215485   5.506   1.352   5.497
 5174TIP3    H115486   5.528   1.259   5.503
 5174TIP3    H215487   5.523   1.387   5.584
 5175TIP3   OH215488   3.621   0.201   1.266
 5175TIP3    H115489   3.579   0.193   1.180
 5175TIP3    H215490   3.654   0.291   1.267
 5176TIP3   OH215491   4.697   1.256   4.597
 5176TIP3    H115492   4.746   1.338   4.598
 5176TIP3    H215493   4.634   1.265   4.668
 5177TIP3   OH215494   4.834   4.773   4.462
 5177TIP3    H115495   4.795   4.723   4.391
 5177TIP3    H215496   4.781   4.750   4.539
 5178TIP3   OH215497   0.907   6.127   5.516
 5178TIP3    H115498   0.981   6.161   5.567
 5178TIP3    H215499   0.832   6.131   5.576
 5179TIP3   OH215500   0.230   3.219   2.502
 5179TIP3    H115501   0.238   3.298   2.449
 5179TIP3    H215502   0.240   3.249   2.592
 5180TIP3   OH215503   0.294   5.217   3.986
 5180TIP3    H115504   0.312   5.290   3.926
 5180TIP3    H215505   0.338   5.243   4.067
 5181TIP3   OH215506   5.452   5.532   4.245
 5181TIP3    H115507   5.485   5.523   4.156
 5181TIP3    H215508   5.530   5.524   4.300
 5182TIP3   OH215509   4.086   1.357   2.304
 5182TIP3    H115510   4.180   1.373   2.294
 5182TIP3    H215511   4.058   1.418   2.372
 5183TIP3   OH215512   3.013   5.970   5.324
 5183TIP3    H115513   3.055   6.002   5.244
 5183TIP3    H215514   3.086   5.952   5.384
 5184TIP3   OH215515   0.576   3.507   4.625
 5184TIP3    H115516   0.502   3.559   4.655
 5184TIP3    H215517   0.647   3.570   4.613
 5185TIP3   OH215518   6.510   1.660   1.915
 5185TIP3    H115519   6.510   1.569   1.945
 5185TIP3    H215520   6.424   1.673   1.876
 5186TIP3   OH215521   2.989   2.053   3.590
 5186TIP3    H115522   3.056   2.115   3.561
 5186TIP3    H215523   2.954   2.017   3.509
 5187TIP3   OH215524   4.991   1.462   0.907
 5187TIP3    H115525   5.054   1.488   0.840
 5187TIP3    H215526   4.923   1.414   0.860
 5188TIP3   OH215527   0.551   4.625   2.231
 5188TIP3    H115528   0.538   4.653   2.322
 5188TIP3    H215529   0.560   4.530   2.236
 5189TIP3   OH215530   3.903   5.408   4.657
 5189TIP3    H115531   3.908   5.464   4.579
 5189TIP3    H215532   3.822   5.358   4.645
 5190TIP3   OH215533   2.844   5.997   2.656
 5190TIP3    H115534   2.769   6.019   2.600
 5190TIP3    H215535   2.819   6.029   2.742
 5191TIP3   OH215536   3.552   1.963   0.129
 5191TIP3    H115537   3.628   1.940   0.183
 5191TIP3    H215538   3.588   1.982   0.043
 5192TIP3   OH215539   6.369   0.323   4.019
 5192TIP3    H115540   6.408   0.272   4.090
 5192TIP3    H215541   6.436   0.324   3.951
 5193TIP3   OH215542   0.698   6.657   1.278
 5193TIP3    H115543   0.623   6.705   1.242
 5193TIP3    H215544   0.722   6.595   1.209
 5194TIP3   OH215545   0.499   5.765   2.132
 5194TIP3    H115546   0.406   5.778   2.148
 5194TIP3    H215547   0.503   5.696   2.065
 5195TIP3   OH215548   4.684   0.509   0.268
 5195TIP3    H115549   4.687   0.567   0.344
 5195TIP3    H215550   4.626   0.438   0.295
 5196TIP3   OH215551   0.044   5.214   1.605
 5196TIP3    H115552   0.060   5.200   1.698
 5196TIP3    H215553   0.100   5.288   1.581
 5197TIP3   OH215554   4.846   4.360   1.056
 5197TIP3    H115555   4.861   4.438   1.004
 5197TIP3    H215556   4.849   4.390   1.147
 5198TIP3   OH215557   2.767   6.465   1.467
 5198TIP3    H115558   2.745   6.496   1.555
 5198TIP3    H215559   2.808   6.541   1.425
 5199TIP3   OH215560   6.734   1.151   3.808
 5199TIP3    H115561   6.723   1.221   3.744
 5199TIP3    H215562   6.714   1.191   3.892
 5200TIP3   OH215563   0.841   3.708   4.510
 5200TIP3    H115564   0.910   3.745   4.455
 5200TIP3    H215565   0.796   3.645   4.454
 5201TIP3   OH215566   1.055   6.185   3.977
 5201TIP3    H115567   1.072   6.090   3.975
 5201TIP3    H215568   1.142   6.224   3.968
 5202TIP3   OH215569   0.120   6.430   5.226
 5202TIP3    H115570   0.183   6.381   5.278
 5202TIP3    H215571   0.173   6.492   5.175
 5203TIP3   OH215572   6.344   2.659   4.708
 5203TIP3    H115573   6.329   2.697   4.622
 5203TIP3    H215574   6.279   2.702   4.765
 5204TIP3   OH215575   2.173   2.645   2.873
 5204TIP3    H115576   2.144   2.677   2.788
 5204TIP3    H215577   2.268   2.641   2.867
 5205TIP3   OH215578   2.303   1.994   1.350
 5205TIP3    H115579   2.374   1.979   1.287
 5205TIP3    H215580   2.337   2.061   1.408
 5206TIP3   OH215581   1.202   3.367   0.489
 5206TIP3    H115582   1.185   3.306   0.560
 5206TIP3    H215583   1.295   3.359   0.472
 5207TIP3   OH215584   6.483   1.471   4.303
 5207TIP3    H115585   6.496   1.394   4.359
 5207TIP3    H215586   6.489   1.545   4.364
 5208TIP3   OH215587   2.774   1.274   3.869
 5208TIP3    H115588   2.777   1.370   3.864
 5208TIP3    H215589   2.865   1.248   3.872
 5209TIP3   OH215590   0.487   4.465   5.351
 5209TIP3    H115591   0.412   4.523   5.335
 5209TIP3    H215592   0.534   4.464   5.267
 5210TIP3   OH215593   6.646   4.640   5.439
 5210TIP3    H115594   6.726   4.647   5.491
 5210TIP3    H215595   6.631   4.546   5.431
 5211TIP3   OH215596   2.727   2.186   0.557
 5211TIP3    H115597   2.771   2.266   0.585
 5211TIP3    H215598   2.798   2.122   0.549
 5212TIP3   OH215599   4.386   0.482   2.470
 5212TIP3    H115600   4.467   0.532   2.463
 5212TIP3    H215601   4.357   0.495   2.560
 5213TIP3   OH215602   3.658   3.645   4.554
 5213TIP3    H115603   3.746   3.627   4.522
 5213TIP3    H215604   3.671   3.683   4.640
 5214TIP3   OH215605   1.724   1.407   2.799
 5214TIP3    H115606   1.660   1.399   2.728
 5214TIP3    H215607   1.800   1.359   2.768
 5215TIP3   OH215608   2.744   1.045   4.160
 5215TIP3    H115609   2.675   1.112   4.163
 5215TIP3    H215610   2.761   1.032   4.067
 5216TIP3   OH215611   3.817   6.290   4.016
 5216TIP3    H115612   3.725   6.306   4.037
 5216TIP3    H215613   3.865   6.331   4.088
 5217TIP3   OH215614   2.828   1.970   2.931
 5217TIP3    H115615   2.835   2.043   2.870
 5217TIP3    H215616   2.898   1.985   2.994
 5218TIP3   OH215617   2.250   6.645   4.787
 5218TIP3    H115618   2.307   6.589   4.734
 5218TIP3    H215619   2.162   6.625   4.755
 5219TIP3   OH215620   0.132   3.598   3.766
 5219TIP3    H115621   0.074   3.670   3.791
 5219TIP3    H215622   0.176   3.629   3.687
 5220TIP3   OH215623   4.668   1.424   1.496
 5220TIP3    H115624   4.692   1.480   1.422
 5220TIP3    H215625   4.586   1.461   1.528
 5221TIP3   OH215626   2.668   4.086   5.059
 5221TIP3    H115627   2.690   3.993   5.057
 5221TIP3    H215628   2.723   4.125   4.991
 5222TIP3   OH215629   3.250   3.569   3.175
 5222TIP3    H115630   3.225   3.659   3.154
 5222TIP3    H215631   3.195   3.546   3.250
 5223TIP3   OH215632   0.627   3.502   2.110
 5223TIP3    H115633   0.662   3.480   2.196
 5223TIP3    H215634   0.702   3.497   2.051
 5224TIP3   OH215635   6.306   6.406   4.263
 5224TIP3    H115636   6.348   6.323   4.288
 5224TIP3    H215637   6.373   6.453   4.216
 5225TIP3   OH215638   4.729   5.164   1.890
 5225TIP3    H115639   4.665   5.227   1.922
 5225TIP3    H215640   4.778   5.211   1.822
 5226TIP3   OH215641   3.556   3.324   2.947
 5226TIP3    H115642   3.475   3.369   2.971
 5226TIP3    H215643   3.531   3.267   2.874
 5227TIP3   OH215644   6.491   5.714   4.539
 5227TIP3    H115645   6.483   5.619   4.536
 5227TIP3    H215646   6.407   5.746   4.506
 5228TIP3   OH215647   2.887   3.927   4.224
 5228TIP3    H115648   2.850   3.921   4.136
 5228TIP3    H215649   2.842   3.859   4.273
 5229TIP3   OH215650   0.715   1.142   5.387
 5229TIP3    H115651   0.768   1.115   5.311
 5229TIP3    H215652   0.632   1.169   5.349
 5230TIP3   OH215653   6.584   4.693   3.646
 5230TIP3    H115654   6.598   4.653   3.560
 5230TIP3    H215655   6.666   4.678   3.693
 5231TIP3   OH215656   3.512   0.242   0.674
 5231TIP3    H115657   3.541   0.332   0.667
 5231TIP3    H215658   3.521   0.206   0.586
 5232TIP3   OH215659   1.491   2.719   0.260
 5232TIP3    H115660   1.559   2.675   0.209
 5232TIP3    H215661   1.409   2.676   0.234
 5233TIP3   OH215662   5.936   5.153   4.356
 5233TIP3    H115663   5.997   5.083   4.334
 5233TIP3    H215664   5.869   5.110   4.410
 5234TIP3   OH215665   7.169   0.846   2.657
 5234TIP3    H115666   7.257   0.843   2.695
 5234TIP3    H215667   7.112   0.812   2.725
 5235TIP3   OH215668   0.101   2.721   1.023
 5235TIP3    H115669   0.141   2.808   1.030
 5235TIP3    H215670   0.163   2.662   1.066
 5236TIP3   OH215671   2.649   0.426   0.221
 5236TIP3    H115672   2.569   0.447   0.269
 5236TIP3    H215673   2.632   0.340   0.182
 5237TIP3   OH215674   5.641   2.319   4.641
 5237TIP3    H115675   5.644   2.318   4.546
 5237TIP3    H215676   5.559   2.274   4.663
 5238TIP3   OH215677   6.633   6.123   4.904
 5238TIP3    H115678   6.578   6.049   4.879
 5238TIP3    H215679   6.617   6.189   4.836
 5239TIP3   OH215680   5.756   4.279   4.812
 5239TIP3    H115681   5.660   4.281   4.818
 5239TIP3    H215682   5.784   4.237   4.893
 5240TIP3   OH215683   4.900   1.274   3.626
 5240TIP3    H115684   4.926   1.211   3.559
 5240TIP3    H215685   4.980   1.288   3.678
 5241TIP3   OH215686   0.525   3.459   3.005
 5241TIP3    H115687   0.496   3.379   2.962
 5241TIP3    H215688   0.610   3.479   2.966
 5242TIP3   OH215689   5.483   3.363   2.450
 5242TIP3    H115690   5.480   3.446   2.496
 5242TIP3    H215691   5.422   3.373   2.377
 5243TIP3   OH215692   3.056   5.686   5.698
 5243TIP3    H115693   3.060   5.607   5.643
 5243TIP3    H215694   2.988   5.740   5.657
 5244TIP3   OH215695   3.855   6.326   5.787
 5244TIP3    H115696   3.833   6.257   5.724
 5244TIP3    H215697   3.775   6.377   5.797
 5245TIP3   OH215698   4.491   1.969   3.318
 5245TIP3    H115699   4.480   1.982   3.224
 5245TIP3    H215700   4.586   1.978   3.332
 5246TIP3   OH215701   1.490   4.611   4.333
 5246TIP3    H115702   1.408   4.563   4.321
 5246TIP3    H215703   1.478   4.692   4.283
 5247TIP3   OH215704   4.869   1.067   4.737
 5247TIP3    H115705   4.819   1.127   4.682
 5247TIP3    H215706   4.945   1.042   4.683
 5248TIP3   OH215707   7.071   1.375   5.256
 5248TIP3    H115708   7.043   1.434   5.186
 5248TIP3    H215709   7.078   1.432   5.333
 5249TIP3   OH215710   6.581   0.314   5.126
 5249TIP3    H115711   6.531   0.252   5.180
 5249TIP3    H215712   6.652   0.262   5.089
 5250TIP3   OH215713   0.146   1.774   4.553
 5250TIP3    H115714   0.067   1.826   4.570
 5250TIP3    H215715   0.210   1.806   4.617
 5251TIP3   OH215716   3.152   4.207   1.368
 5251TIP3    H115717   3.170   4.227   1.459
 5251TIP3    H215718   3.210   4.134   1.347
 5252TIP3   OH215719   3.510   4.541   0.710
 5252TIP3    H115720   3.450   4.614   0.730
 5252TIP3    H215721   3.529   4.551   0.617
 5253TIP3   OH215722   3.492   1.217   4.200
 5253TIP3    H115723   3.534   1.135   4.176
 5253TIP3    H215724   3.401   1.193   4.218
 5254TIP3   OH215725   1.859   4.345   0.185
 5254TIP3    H115726   1.792   4.299   0.135
 5254TIP3    H215727   1.809   4.409   0.236
 5255TIP3   OH215728   7.045   2.482   1.036
 5255TIP3    H115729   7.091   2.461   1.117
 5255TIP3    H215730   7.007   2.569   1.052
 5256TIP3   OH215731   1.277   0.062   2.996
 5256TIP3    H115732   1.265   0.157   2.996
 5256TIP3    H215733   1.319   0.043   3.081
 5257TIP3   OH215734   4.316   5.572   2.461
 5257TIP3    H115735   4.322   5.620   2.379
 5257TIP3    H215736   4.284   5.485   2.436
 5258TIP3   OH215737   2.609   6.178   5.585
 5258TIP3    H115738   2.632   6.092   5.620
 5258TIP3    H215739   2.515   6.173   5.568
 5259TIP3   OH215740   3.753   5.908   3.625
 5259TIP3    H115741   3.701   5.864   3.558
 5259TIP3    H215742   3.691   5.966   3.669
 5260TIP3   OH215743   0.379   2.596   4.905
 5260TIP3    H115744   0.435   2.538   4.853
 5260TIP3    H215745   0.355   2.666   4.844
 5261TIP3   OH215746   0.302   4.782   1.377
 5261TIP3    H115747   0.231   4.843   1.396
 5261TIP3    H215748   0.379   4.822   1.418
 5262TIP3   OH215749   4.785   5.636   4.512
 5262TIP3    H115750   4.747   5.592   4.436
 5262TIP3    H215751   4.872   5.664   4.483
 5263TIP3   OH215752   5.899   2.913   5.065
 5263TIP3    H115753   5.968   2.970   5.097
 5263TIP3    H215754   5.903   2.836   5.121
 5264TIP3   OH215755   2.852   5.676   0.970
 5264TIP3    H115756   2.782   5.717   0.918
 5264TIP3    H215757   2.908   5.748   0.996
 5265TIP3   OH215758   5.693   3.318   4.196
 5265TIP3    H115759   5.642   3.386   4.238
 5265TIP3    H215760   5.736   3.271   4.268
 5266TIP3   OH215761   1.166   2.693   2.743
 5266TIP3    H115762   1.095   2.717   2.803
 5266TIP3    H215763   1.229   2.647   2.798
 5267TIP3   OH215764   4.647   1.476   5.681
 5267TIP3    H115765   4.734   1.483   5.641
 5267TIP3    H215766   4.588   1.460   5.607
 5268TIP3   OH215767   5.669   0.717   1.491
 5268TIP3    H115768   5.626   0.722   1.405
 5268TIP3    H215769   5.609   0.761   1.551
 5269TIP3   OH215770   4.871   0.125   5.436
 5269TIP3    H115771   4.851   0.049   5.491
 5269TIP3    H215772   4.957   0.154   5.465
 5270TIP3   OH215773   3.758   3.866   1.044
 5270TIP3    H115774   3.826   3.799   1.041
 5270TIP3    H215775   3.794   3.939   0.993
 5271TIP3   OH215776   5.988   4.545   1.720
 5271TIP3    H115777   6.005   4.605   1.792
 5271TIP3    H215778   6.023   4.589   1.642
 5272TIP3   OH215779   4.257   3.677   3.854
 5272TIP3    H115780   4.253   3.587   3.887
 5272TIP3    H215781   4.296   3.727   3.925
 5273TIP3   OH215782   2.952   4.604   4.819
 5273TIP3    H115783   3.005   4.638   4.747
 5273TIP3    H215784   2.988   4.646   4.898
 5274TIP3   OH215785   4.456   2.809   1.655
 5274TIP3    H115786   4.403   2.798   1.577
 5274TIP3    H215787   4.546   2.795   1.626
 5275TIP3   OH215788   0.767   5.868   2.620
 5275TIP3    H115789   0.837   5.932   2.607
 5275TIP3    H215790   0.703   5.889   2.552
 5276TIP3   OH215791   1.724   1.871   4.721
 5276TIP3    H115792   1.655   1.814   4.688
 5276TIP3    H215793   1.728   1.943   4.658
 5277TIP3   OH215794   2.447   4.892   4.369
 5277TIP3    H115795   2.528   4.944   4.362
 5277TIP3    H215796   2.377   4.954   4.348
 5278TIP3   OH215797   2.792   3.230   5.759
 5278TIP3    H115798   2.874   3.191   5.727
 5278TIP3    H215799   2.723   3.183   5.711
 5279TIP3   OH215800   0.908   1.956   1.607
 5279TIP3    H115801   0.874   1.916   1.526
 5279TIP3    H215802   0.919   2.048   1.585
 5280TIP3   OH215803   6.887   2.186   0.656
 5280TIP3    H115804   6.954   2.255   0.655
 5280TIP3    H215805   6.923   2.117   0.600
 5281TIP3   OH215806   5.752   0.465   1.878
 5281TIP3    H115807   5.738   0.545   1.827
 5281TIP3    H215808   5.847   0.458   1.887
 5282TIP3   OH215809   1.311   3.507   2.312
 5282TIP3    H115810   1.355   3.439   2.363
 5282TIP3    H215811   1.297   3.467   2.226
 5283TIP3   OH215812   3.848   5.138   3.603
 5283TIP3    H115813   3.940   5.140   3.629
 5283TIP3    H215814   3.848   5.085   3.522
 5284TIP3   OH215815   2.446   1.294   5.809
 5284TIP3    H115816   2.386   1.280   5.881
 5284TIP3    H215817   2.517   1.231   5.824
 5285TIP3   OH215818   4.077   0.937   1.904
 5285TIP3    H115819   4.030   0.992   1.966
 5285TIP3    H215820   4.138   0.997   1.860
 5286TIP3   OH215821   6.293   3.585   3.647
 5286TIP3    H115822   6.293   3.668   3.599
 5286TIP3    H215823   6.245   3.604   3.727
 5287TIP3   OH215824   3.023   1.617   5.712
 5287TIP3    H115825   3.028   1.542   5.771
 5287TIP3    H215826   3.085   1.681   5.748
 5288TIP3   OH215827   0.923   2.541   5.706
 5288TIP3    H115828   0.954   2.451   5.695
 5288TIP3    H215829   0.828   2.533   5.707
 5289TIP3   OH215830   2.567   4.927   0.207
 5289TIP3    H115831   2.495   4.868   0.227
 5289TIP3    H215832   2.629   4.873   0.158
 5290TIP3   OH215833   1.913   1.778   4.933
 5290TIP3    H115834   1.868   1.777   4.848
 5290TIP3    H215835   1.998   1.819   4.914
 5291TIP3   OH215836   6.631   3.771   3.594
 5291TIP3    H115837   6.614   3.827   3.669
 5291TIP3    H215838   6.721   3.740   3.606
 5292TIP3   OH215839   6.073   4.931   3.022
 5292TIP3    H115840   6.086   4.970   3.108
 5292TIP3    H215841   5.991   4.881   3.030
 5293TIP3   OH215842   3.370   3.681   2.589
 5293TIP3    H115843   3.302   3.616   2.570
 5293TIP3    H215844   3.385   3.673   2.683
 5294TIP3   OH215845   5.647   1.289   5.000
 5294TIP3    H115846   5.590   1.351   4.955
 5294TIP3    H215847   5.695   1.342   5.064
 5295TIP3   OH215848   4.692   1.518   2.281
 5295TIP3    H115849   4.643   1.580   2.336
 5295TIP3    H215850   4.773   1.564   2.260
 5296TIP3   OH215851   3.046   0.860   1.571
 5296TIP3    H115852   2.995   0.888   1.647
 5296TIP3    H215853   2.987   0.870   1.497
 5297TIP3   OH215854   3.228   1.149   3.154
 5297TIP3    H115855   3.207   1.075   3.096
 5297TIP3    H215856   3.253   1.107   3.237
 5298TIP3   OH215857   0.089   0.182   4.324
 5298TIP3    H115858   0.024   0.143   4.383
 5298TIP3    H215859   0.053   0.168   4.236
 5299TIP3   OH215860   3.937   1.523   5.470
 5299TIP3    H115861   3.931   1.442   5.520
 5299TIP3    H215862   4.024   1.520   5.430
 5300TIP3   OH215863   5.946   4.337   0.065
 5300TIP3    H115864   6.005   4.265   0.044
 5300TIP3    H215865   5.865   4.317   0.017
 5301TIP3   OH215866   6.607   1.972   4.975
 5301TIP3    H115867   6.578   2.062   4.989
 5301TIP3    H215868   6.561   1.944   4.896
 5302TIP3   OH215869   1.316   2.155   4.505
 5302TIP3    H115870   1.319   2.242   4.546
 5302TIP3    H215871   1.299   2.173   4.412
 5303TIP3   OH215872   5.300   3.566   5.415
 5303TIP3    H115873   5.231   3.613   5.368
 5303TIP3    H215874   5.362   3.540   5.347
 5304TIP3   OH215875   5.174   3.837   0.174
 5304TIP3    H115876   5.246   3.846   0.236
 5304TIP3    H215877   5.182   3.914   0.117
 5305TIP3   OH215878   0.067   2.930   0.271
 5305TIP3    H115879   0.085   2.894   0.185
 5305TIP3    H215880   0.072   3.025   0.259
 5306TIP3   OH215881   7.013   2.810   2.750
 5306TIP3    H115882   6.932   2.806   2.698
 5306TIP3    H215883   7.081   2.777   2.691
 5307TIP3   OH215884   1.399   6.634   0.862
 5307TIP3    H115885   1.413   6.552   0.814
 5307TIP3    H215886   1.316   6.668   0.827
 5308TIP3   OH215887   2.179   6.692   1.528
 5308TIP3    H115888   2.090   6.686   1.492
 5308TIP3    H215889   2.226   6.618   1.490
 5309TIP3   OH215890   1.145   6.711   4.221
 5309TIP3    H115891   1.149   6.633   4.166
 5309TIP3    H215892   1.051   6.725   4.237
 5310TIP3   OH215893   6.049   1.421   3.169
 5310TIP3    H115894   6.008   1.452   3.089
 5310TIP3    H215895   6.066   1.328   3.153
 5311TIP3   OH215896   5.860   2.689   3.385
 5311TIP3    H115897   5.781   2.705   3.332
 5311TIP3    H215898   5.841   2.731   3.469
 5312TIP3   OH215899   0.835   6.325   2.507
 5312TIP3    H115900   0.787   6.374   2.440
 5312TIP3    H215901   0.889   6.264   2.457
 5313TIP3   OH215902   5.658   5.162   5.252
 5313TIP3    H115903   5.571   5.200   5.251
 5313TIP3    H215904   5.680   5.149   5.159
 5314TIP3   OH215905   2.058   5.090   0.315
 5314TIP3    H115906   2.118   5.118   0.383
 5314TIP3    H215907   1.975   5.133   0.336
 5315TIP3   OH215908   5.511   2.432   5.879
 5315TIP3    H115909   5.551   2.506   5.925
 5315TIP3    H215910   5.418   2.455   5.874
 5316TIP3   OH215911   5.469   6.234   1.995
 5316TIP3    H115912   5.548   6.214   2.046
 5316TIP3    H215913   5.502   6.252   1.907
 5317TIP3   OH215914   0.338   4.121   2.284
 5317TIP3    H115915   0.246   4.130   2.309
 5317TIP3    H215916   0.380   4.081   2.360
 5318TIP3   OH215917   3.138   0.797   3.390
 5318TIP3    H115918   3.049   0.821   3.365
 5318TIP3    H215919   3.146   0.705   3.366
 5319TIP3   OH215920   2.091   2.464   3.080
 5319TIP3    H115921   2.143   2.533   3.038
 5319TIP3    H215922   2.123   2.383   3.041
 5320TIP3   OH215923   0.353   3.487   4.942
 5320TIP3    H115924   0.276   3.540   4.922
 5320TIP3    H215925   0.361   3.427   4.868
 5321TIP3   OH215926   0.451   1.410   4.566
 5321TIP3    H115927   0.404   1.371   4.640
 5321TIP3    H215928   0.531   1.445   4.605
 5322TIP3   OH215929   0.822   2.428   3.705
 5322TIP3    H115930   0.778   2.457   3.626
 5322TIP3    H215931   0.838   2.509   3.755
 5323TIP3   OH215932   4.765   5.230   3.111
 5323TIP3    H115933   4.777   5.241   3.205
 5323TIP3    H215934   4.854   5.239   3.075
 5324TIP3   OH215935   3.832   1.800   1.215
 5324TIP3    H115936   3.794   1.845   1.139
 5324TIP3    H215937   3.869   1.871   1.268
 5325TIP3   OH215938   1.017   5.700   2.377
 5325TIP3    H115939   0.973   5.617   2.360
 5325TIP3    H215940   0.947   5.765   2.379
 5326TIP3   OH215941   5.603   6.651   0.642
 5326TIP3    H115942   5.690   6.660   0.603
 5326TIP3    H215943   5.620   6.617   0.729
 5327TIP3   OH215944   6.795   0.442   4.240
 5327TIP3    H115945   6.774   0.510   4.304
 5327TIP3    H215946   6.857   0.385   4.284
 5328TIP3   OH215947   0.588   5.604   5.034
 5328TIP3    H115948   0.618   5.613   5.124
 5328TIP3    H215949   0.493   5.619   5.039
 5329TIP3   OH215950   2.120   0.803   1.809
 5329TIP3    H115951   2.096   0.715   1.780
 5329TIP3    H215952   2.140   0.794   1.902
 5330TIP3   OH215953   3.584   3.617   0.176
 5330TIP3    H115954   3.516   3.671   0.215
 5330TIP3    H215955   3.615   3.562   0.247
 5331TIP3   OH215956   5.250   6.549   0.454
 5331TIP3    H115957   5.328   6.598   0.429
 5331TIP3    H215958   5.277   6.496   0.528
 5332TIP3   OH215959   5.280   1.584   4.381
 5332TIP3    H115960   5.272   1.601   4.287
 5332TIP3    H215961   5.197   1.544   4.406
 5333TIP3   OH215962   5.101   1.966   2.339
 5333TIP3    H115963   5.158   2.002   2.272
 5333TIP3    H215964   5.119   1.872   2.338
 5334TIP3   OH215965   2.017   0.935   3.447
 5334TIP3    H115966   1.979   0.851   3.474
 5334TIP3    H215967   2.027   0.928   3.352
 5335TIP3   OH215968   6.795   1.132   5.115
 5335TIP3    H115969   6.870   1.123   5.056
 5335TIP3    H215970   6.831   1.118   5.202
 5336TIP3   OH215971   5.897   2.120   0.692
 5336TIP3    H115972   5.956   2.059   0.736
 5336TIP3    H215973   5.904   2.097   0.599
 5337TIP3   OH215974   2.194   3.377   1.813
 5337TIP3    H115975   2.146   3.298   1.838
 5337TIP3    H215976   2.141   3.416   1.744
 5338TIP3   OH215977   4.401   5.376   5.158
 5338TIP3    H115978   4.377   5.459   5.198
 5338TIP3    H215979   4.321   5.346   5.114
 5339TIP3   OH215980   0.133   5.515   4.377
 5339TIP3    H115981   0.108   5.486   4.465
 5339TIP3    H215982   0.097   5.449   4.318
 5340TIP3   OH215983   1.457   3.742   0.644
 5340TIP3    H115984   1.402   3.748   0.722
 5340TIP3    H215985   1.546   3.739   0.678
 5341TIP3   OH215986   5.353   3.431   1.535
 5341TIP3    H115987   5.258   3.426   1.546
 5341TIP3    H215988   5.373   3.524   1.546
 5342TIP3   OH215989   3.021   2.666   2.762
 5342TIP3    H115990   3.055   2.577   2.777
 5342TIP3    H215991   3.019   2.705   2.849
 5343TIP3   OH215992   3.099   1.397   3.558
 5343TIP3    H115993   3.151   1.447   3.620
 5343TIP3    H215994   3.156   1.389   3.481
 5344TIP3   OH215995   5.459   1.976   3.735
 5344TIP3    H115996   5.445   2.070   3.721
 5344TIP3    H215997   5.371   1.940   3.749
 5345TIP3   OH215998   5.320   6.207   5.101
 5345TIP3    H115999   5.329   6.278   5.037
 5345TIP3    H216000   5.233   6.219   5.138
 5346TIP3   OH216001   3.686   5.548   3.302
 5346TIP3    H116002   3.696   5.498   3.382
 5346TIP3    H216003   3.714   5.637   3.325
 5347TIP3   OH216004   5.570   4.618   0.724
 5347TIP3    H116005   5.624   4.697   0.722
 5347TIP3    H216006   5.590   4.577   0.808
 5348TIP3   OH216007   4.329   4.912   4.640
 5348TIP3    H116008   4.415   4.924   4.599
 5348TIP3    H216009   4.283   4.994   4.624
 5349TIP3   OH216010   2.447   5.459   4.612
 5349TIP3    H116011   2.467   5.476   4.520
 5349TIP3    H216012   2.499   5.523   4.660
 5350TIP3   OH216013   0.058   0.452   5.169
 5350TIP3    H116014  -0.006   0.405   5.223
 5350TIP3    H216015   0.116   0.495   5.233
 5351TIP3   OH216016   5.182   1.212   5.540
 5351TIP3    H116017   5.205   1.259   5.460
 5351TIP3    H216018   5.140   1.131   5.509
 5352TIP3   OH216019   1.455   0.677   4.459
 5352TIP3    H116020   1.512   0.689   4.383
 5352TIP3    H216021   1.399   0.603   4.436
 5353TIP3   OH216022   6.063   4.198   3.691
 5353TIP3    H116023   6.032   4.282   3.724
 5353TIP3    H216024   5.983   4.150   3.668
 5354TIP3   OH216025   5.467   2.249   4.425
 5354TIP3    H116026   5.420   2.218   4.502
 5354TIP3    H216027   5.484   2.341   4.442
 5355TIP3   OH216028   4.747   1.185   4.955
 5355TIP3    H116029   4.775   1.137   4.877
 5355TIP3    H216030   4.737   1.118   5.022
 5356TIP3   OH216031   5.264   4.438   3.044
 5356TIP3    H116032   5.174   4.458   3.018
 5356TIP3    H216033   5.266   4.343   3.053
 5357TIP3   OH216034   3.846   1.925   3.204
 5357TIP3    H116035   3.883   1.948   3.289
 5357TIP3    H216036   3.828   2.009   3.162
 5358TIP3   OH216037   5.521   1.452   2.420
 5358TIP3    H116038   5.572   1.373   2.406
 5358TIP3    H216039   5.479   1.439   2.505
 5359TIP3   OH216040   5.249   1.988   0.403
 5359TIP3    H116041   5.311   1.998   0.331
 5359TIP3    H216042   5.196   1.912   0.379
 5360TIP3   OH216043   5.867   1.072   1.742
 5360TIP3    H116044   5.919   0.995   1.720
 5360TIP3    H216045   5.781   1.038   1.765
 5361TIP3   OH216046   1.736   0.584   2.616
 5361TIP3    H116047   1.727   0.498   2.574
 5361TIP3    H216048   1.703   0.570   2.705
 5362TIP3   OH216049   4.019   3.491   1.404
 5362TIP3    H116050   3.955   3.505   1.334
 5362TIP3    H216051   4.066   3.575   1.410
 5363TIP3   OH216052   3.754   3.522   4.116
 5363TIP3    H116053   3.814   3.573   4.062
 5363TIP3    H216054   3.706   3.588   4.166
 5364TIP3   OH216055   3.426   5.633   3.433
 5364TIP3    H116056   3.387   5.548   3.413
 5364TIP3    H216057   3.513   5.630   3.393
 5365TIP3   OH216058   4.884   5.302   3.854
 5365TIP3    H116059   4.882   5.246   3.777
 5365TIP3    H216060   4.845   5.249   3.924
 5366TIP3   OH216061   2.368   6.120   2.596
 5366TIP3    H116062   2.273   6.108   2.592
 5366TIP3    H216063   2.389   6.173   2.520
 5367TIP3   OH216064   6.789   4.617   1.538
 5367TIP3    H116065   6.856   4.556   1.567
 5367TIP3    H216066   6.819   4.649   1.453
 5368TIP3   OH216067   6.668   6.318   4.654
 5368TIP3    H116068   6.649   6.392   4.596
 5368TIP3    H216069   6.690   6.246   4.595
 5369TIP3   OH216070   4.234   1.985   2.399
 5369TIP3    H116071   4.160   1.935   2.365
 5369TIP3    H216072   4.219   2.074   2.367
 5370TIP3   OH216073   5.172   6.310   2.429
 5370TIP3    H116074   5.219   6.340   2.507
 5370TIP3    H216075   5.241   6.288   2.366
 5371TIP3   OH216076   4.051   5.193   5.762
 5371TIP3    H116077   4.109   5.260   5.799
 5371TIP3    H216078   4.075   5.112   5.807
 5372TIP3   OH216079   3.939   5.810   2.629
 5372TIP3    H116080   3.889   5.830   2.550
 5372TIP3    H216081   3.986   5.730   2.608
 5373TIP3   OH216082   3.140   1.771   2.652
 5373TIP3    H116083   3.067   1.782   2.590
 5373TIP3    H216084   3.097   1.759   2.737
 5374TIP3   OH216085   3.072   4.243   1.842
 5374TIP3    H116086   3.077   4.310   1.909
 5374TIP3    H216087   3.114   4.282   1.765
 5375TIP3   OH216088   6.188   2.340   3.528
 5375TIP3    H116089   6.197   2.305   3.439
 5375TIP3    H216090   6.278   2.355   3.558
 5376TIP3   OH216091   1.496   5.278   0.686
 5376TIP3    H116092   1.484   5.365   0.723
 5376TIP3    H216093   1.548   5.231   0.750
 5377TIP3   OH216094   1.755   5.690   1.541
 5377TIP3    H116095   1.778   5.727   1.626
 5377TIP3    H216096   1.669   5.650   1.555
 5378TIP3   OH216097   5.401   2.843   2.961
 5378TIP3    H116098   5.348   2.907   2.913
 5378TIP3    H216099   5.347   2.764   2.961
 5379TIP3   OH216100   4.059   1.757   2.751
 5379TIP3    H116101   4.094   1.845   2.745
 5379TIP3    H216102   4.108   1.717   2.823
 5380TIP3   OH216103   2.473   0.875   2.974
 5380TIP3    H116104   2.445   0.931   2.902
 5380TIP3    H216105   2.427   0.792   2.960
 5381TIP3   OH216106   5.479   6.208   5.395
 5381TIP3    H116107   5.410   6.158   5.438
 5381TIP3    H216108   5.441   6.235   5.312
 5382TIP3   OH216109   1.342   4.618   3.081
 5382TIP3    H116110   1.422   4.615   3.134
 5382TIP3    H216111   1.284   4.552   3.120
 5383TIP3   OH216112  -0.003   2.425   1.271
 5383TIP3    H116113  -0.053   2.345   1.255
 5383TIP3    H216114  -0.018   2.445   1.363
 5384TIP3   OH216115   6.141   2.188   1.313
 5384TIP3    H116116   6.203   2.220   1.247
 5384TIP3    H216117   6.196   2.144   1.378
 5385TIP3   OH216118   1.851   2.229   3.614
 5385TIP3    H116119   1.792   2.155   3.630
 5385TIP3    H216120   1.814   2.273   3.537
 5386TIP3   OH216121   5.240   4.365   2.211
 5386TIP3    H116122   5.243   4.444   2.156
 5386TIP3    H216123   5.308   4.379   2.277
 5387TIP3   OH216124   6.757   2.657   3.635
 5387TIP3    H116125   6.779   2.564   3.637
 5387TIP3    H216126   6.839   2.701   3.616
 5388TIP3   OH216127   7.162   1.380   2.696
 5388TIP3    H116128   7.157   1.285   2.689
 5388TIP3    H216129   7.248   1.403   2.662
 5389TIP3   OH216130   3.545   5.775   3.890
 5389TIP3    H116131   3.618   5.833   3.913
 5389TIP3    H216132   3.537   5.783   3.795
 5390TIP3   OH216133   6.472   1.288   0.668
 5390TIP3    H116134   6.398   1.291   0.606
 5390TIP3    H216135   6.483   1.379   0.695
 5391TIP3   OH216136   6.493   6.121   3.028
 5391TIP3    H116137   6.495   6.163   2.941
 5391TIP3    H216138   6.498   6.028   3.009
 5392TIP3   OH216139   3.282   1.469   1.193
 5392TIP3    H116140   3.204   1.435   1.149
 5392TIP3    H216141   3.344   1.487   1.121
 5393TIP3   OH216142   4.151   5.004   4.248
 5393TIP3    H116143   4.205   4.925   4.244
 5393TIP3    H216144   4.200   5.068   4.196
 5394TIP3   OH216145   6.351   2.279   5.416
 5394TIP3    H116146   6.307   2.249   5.336
 5394TIP3    H216147   6.442   2.290   5.391
 5395TIP3   OH216148   2.942   6.149   0.499
 5395TIP3    H116149   3.009   6.134   0.431
 5395TIP3    H216150   2.966   6.233   0.538
 5396TIP3   OH216151   3.638   3.903   2.242
 5396TIP3    H116152   3.580   3.908   2.318
 5396TIP3    H216153   3.619   3.983   2.192
 5397TIP3   OH216154   5.889   1.836   4.187
 5397TIP3    H116155   5.833   1.771   4.144
 5397TIP3    H216156   5.978   1.807   4.167
 5398TIP3   OH216157   4.254   3.182   0.944
 5398TIP3    H116158   4.233   3.216   1.031
 5398TIP3    H216159   4.199   3.233   0.885
 5399TIP3   OH216160   3.918   1.891   0.803
 5399TIP3    H116161   3.899   1.981   0.775
 5399TIP3    H216162   3.992   1.900   0.863
 5400TIP3   OH216163   3.071   3.864   1.360
 5400TIP3    H116164   2.995   3.919   1.341
 5400TIP3    H216165   3.090   3.879   1.453
 5401TIP3   OH216166   1.670   4.363   0.653
 5401TIP3    H116167   1.629   4.303   0.715
 5401TIP3    H216168   1.669   4.448   0.697
 5402TIP3   OH216169   4.158   2.236   5.417
 5402TIP3    H116170   4.100   2.311   5.428
 5402TIP3    H216171   4.164   2.197   5.505
 5403TIP3   OH216172   2.642   0.637   3.045
 5403TIP3    H116173   2.615   0.719   3.085
 5403TIP3    H216174   2.718   0.610   3.096
 5404TIP3   OH216175   5.888   1.186   0.431
 5404TIP3    H116176   5.897   1.116   0.496
 5404TIP3    H216177   5.807   1.167   0.385
 5405TIP3   OH216178   6.885   4.671   1.240
 5405TIP3    H116179   6.915   4.641   1.154
 5405TIP3    H216180   6.876   4.766   1.230
 5406TIP3   OH216181   3.433   1.768   2.364
 5406TIP3    H116182   3.409   1.742   2.453
 5406TIP3    H216183   3.524   1.741   2.356
 5407TIP3   OH216184   1.036   5.585   3.877
 5407TIP3    H116185   1.014   5.542   3.960
 5407TIP3    H216186   1.130   5.575   3.869
 5408TIP3   OH216187   3.428   3.394   2.659
 5408TIP3    H116188   3.428   3.436   2.745
 5408TIP3    H216189   3.342   3.412   2.622
 5409TIP3   OH216190   3.204   5.317   1.188
 5409TIP3    H116191   3.282   5.352   1.232
 5409TIP3    H216192   3.225   5.319   1.095
 5410TIP3   OH216193   0.583   4.779   3.549
 5410TIP3    H116194   0.635   4.815   3.477
 5410TIP3    H216195   0.529   4.852   3.579
 5411TIP3   OH216196   4.758   4.517   2.476
 5411TIP3    H116197   4.703   4.506   2.398
 5411TIP3    H216198   4.848   4.516   2.443
 5412TIP3   OH216199   1.555   1.510   4.078
 5412TIP3    H116200   1.502   1.441   4.116
 5412TIP3    H216201   1.644   1.494   4.111
 5413TIP3   OH216202   3.425   0.470   2.191
 5413TIP3    H116203   3.376   0.499   2.114
 5413TIP3    H216204   3.475   0.548   2.218
 5414TIP3   OH216205   5.721   1.260   2.352
 5414TIP3    H116206   5.782   1.312   2.404
 5414TIP3    H216207   5.769   1.241   2.271
 5415TIP3   OH216208   6.945   1.725   4.449
 5415TIP3    H116209   6.982   1.647   4.490
 5415TIP3    H216210   7.008   1.749   4.381
 5416TIP3   OH216211   3.799   1.622   2.685
 5416TIP3    H116212   3.753   1.598   2.765
 5416TIP3    H216213   3.885   1.653   2.714
 5417TIP3   OH216214   4.003   4.217   1.324
 5417TIP3    H116215   4.027   4.168   1.402
 5417TIP3    H216216   3.972   4.301   1.357
 5418TIP3   OH216217   3.893   6.485   4.363
 5418TIP3    H116218   3.811   6.506   4.317
 5418TIP3    H216219   3.914   6.564   4.412
 5419TIP3   OH216220   6.546   6.746   2.736
 5419TIP3    H116221   6.522   6.835   2.709
 5419TIP3    H216222   6.474   6.718   2.792
 5420TIP3   OH216223   5.030   4.421   3.984
 5420TIP3    H116224   5.038   4.428   4.079
 5420TIP3    H216225   4.938   4.396   3.970
 5421TIP3   OH216226   0.626   2.131   1.610
 5421TIP3    H116227   0.621   2.154   1.703
 5421TIP3    H216228   0.634   2.214   1.564
 5422TIP3   OH216229   5.531   3.665   2.288
 5422TIP3    H116230   5.548   3.759   2.297
 5422TIP3    H216231   5.602   3.623   2.335
 5423TIP3   OH216232   1.843   1.789   3.966
 5423TIP3    H116233   1.763   1.791   3.913
 5423TIP3    H216234   1.914   1.800   3.903
 5424TIP3   OH216235   2.076   1.665   2.185
 5424TIP3    H116236   1.984   1.660   2.210
 5424TIP3    H216237   2.099   1.575   2.161
 5425TIP3   OH216238   0.802   6.209   5.267
 5425TIP3    H116239   0.837   6.149   5.334
 5425TIP3    H216240   0.880   6.242   5.222
 5426TIP3   OH216241   6.054   3.059   5.303
 5426TIP3    H116242   6.143   3.096   5.304
 5426TIP3    H216243   6.063   2.976   5.349
 5427TIP3   OH216244   7.091   2.494   5.466
 5427TIP3    H116245   7.071   2.417   5.519
 5427TIP3    H216246   7.182   2.514   5.486
 5428TIP3   OH216247   5.463   4.429   2.831
 5428TIP3    H116248   5.474   4.513   2.787
 5428TIP3    H216249   5.409   4.448   2.907
 5429TIP3   OH216250   6.261   3.012   2.386
 5429TIP3    H116251   6.223   3.082   2.333
 5429TIP3    H216252   6.232   2.931   2.344
 5430TIP3   OH216253   3.691   1.295   0.338
 5430TIP3    H116254   3.624   1.284   0.271
 5430TIP3    H216255   3.695   1.389   0.354
 5431TIP3   OH216256   3.405   0.217   2.073
 5431TIP3    H116257   3.452   0.172   2.143
 5431TIP3    H216258   3.413   0.310   2.094
 5432TIP3   OH216259   5.780   0.252   5.496
 5432TIP3    H116260   5.873   0.239   5.475
 5432TIP3    H216261   5.734   0.191   5.438
 5433TIP3   OH216262   5.560   0.501   0.757
 5433TIP3    H116263   5.612   0.581   0.766
 5433TIP3    H216264   5.547   0.471   0.847
 5434TIP3   OH216265   4.517   4.330   4.532
 5434TIP3    H116266   4.595   4.346   4.479
 5434TIP3    H216267   4.459   4.280   4.475
 5435TIP3   OH216268   4.167   4.568   0.885
 5435TIP3    H116269   4.129   4.621   0.815
 5435TIP3    H216270   4.244   4.527   0.845
 5436TIP3   OH216271   5.818   6.091   0.219
 5436TIP3    H116272   5.911   6.113   0.227
 5436TIP3    H216273   5.773   6.158   0.271
 5437TIP3   OH216274   3.483   2.708   5.049
 5437TIP3    H116275   3.528   2.790   5.026
 5437TIP3    H216276   3.536   2.672   5.120
 5438TIP3   OH216277   4.508   0.082   3.334
 5438TIP3    H116278   4.532   0.037   3.253
 5438TIP3    H216279   4.495   0.173   3.308
 5439TIP3   OH216280   4.157   0.964   5.237
 5439TIP3    H116281   4.071   0.973   5.195
 5439TIP3    H216282   4.148   0.887   5.293
 5440TIP3   OH216283   3.561   4.866   1.897
 5440TIP3    H116284   3.482   4.838   1.852
 5440TIP3    H216285   3.582   4.795   1.957
 5441TIP3   OH216286   1.439  -0.029   4.143
 5441TIP3    H116287   1.510   0.035   4.149
 5441TIP3    H216288   1.361   0.022   4.124
 5442TIP3   OH216289   5.967   3.977   4.176
 5442TIP3    H116290   5.872   3.986   4.174
 5442TIP3    H216291   5.983   3.884   4.160
 5443TIP3   OH216292   3.257   0.031   1.938
 5443TIP3    H116293   3.295  -0.050   1.972
 5443TIP3    H216294   3.302   0.101   1.985
 5444TIP3   OH216295   4.042   4.083   5.144
 5444TIP3    H116296   3.989   4.071   5.065
 5444TIP3    H216297   4.097   4.005   5.148
 5445TIP3   OH216298   4.927   5.648   1.500
 5445TIP3    H116299   4.962   5.696   1.575
 5445TIP3    H216300   4.936   5.709   1.426
 5446TIP3   OH216301   0.163   6.645   0.545
 5446TIP3    H116302   0.215   6.690   0.612
 5446TIP3    H216303   0.073   6.664   0.569
 5447TIP3   OH216304   4.795   2.424   4.854
 5447TIP3    H116305   4.770   2.517   4.855
 5447TIP3    H216306   4.886   2.424   4.885
 5448TIP3   OH216307   4.061   4.386   1.919
 5448TIP3    H116308   4.101   4.300   1.906
 5448TIP3    H216309   4.040   4.417   1.831
 5449TIP3   OH216310   1.790   3.162   4.154
 5449TIP3    H116311   1.752   3.085   4.112
 5449TIP3    H216312   1.818   3.131   4.240
 5450TIP3   OH216313   4.975   0.501   0.389
 5450TIP3    H116314   4.918   0.507   0.312
 5450TIP3    H216315   4.938   0.430   0.442
 5451TIP3   OH216316   6.440   2.626   1.929
 5451TIP3    H116317   6.416   2.671   1.848
 5451TIP3    H216318   6.361   2.627   1.982
 5452TIP3   OH216319   2.535   1.680   5.895
 5452TIP3    H116320   2.627   1.660   5.909
 5452TIP3    H216321   2.504   1.613   5.834
 5453TIP3   OH216322   0.833   5.165   2.248
 5453TIP3    H116323   0.892   5.101   2.289
 5453TIP3    H216324   0.757   5.114   2.221
 5454TIP3   OH216325   4.507   0.995   5.515
 5454TIP3    H116326   4.585   1.052   5.516
 5454TIP3    H216327   4.436   1.053   5.543
 5455TIP3   OH216328   3.347   4.753   0.683
 5455TIP3    H116329   3.308   4.810   0.617
 5455TIP3    H216330   3.364   4.811   0.757
 5456TIP3   OH216331   3.750   4.350   3.382
 5456TIP3    H116332   3.844   4.365   3.392
 5456TIP3    H216333   3.709   4.420   3.433
 5457TIP3   OH216334   3.255   3.501   5.782
 5457TIP3    H116335   3.165   3.532   5.784
 5457TIP3    H216336   3.284   3.503   5.874
 5458TIP3   OH216337   1.508   2.983   3.493
 5458TIP3    H116338   1.598   2.954   3.509
 5458TIP3    H216339   1.460   2.956   3.572
 5459TIP3   OH216340   1.699   2.205   5.550
 5459TIP3    H116341   1.765   2.262   5.589
 5459TIP3    H216342   1.713   2.120   5.591
 5460TIP3   OH216343   5.336   2.586   5.683
 5460TIP3    H116344   5.353   2.639   5.605
 5460TIP3    H216345   5.348   2.496   5.653
 5461TIP3   OH216346   7.105   5.030   4.814
 5461TIP3    H116347   7.176   4.981   4.773
 5461TIP3    H216348   7.144   5.068   4.893
 5462TIP3   OH216349   7.218   2.458   1.540
 5462TIP3    H116350   7.199   2.545   1.575
 5462TIP3    H216351   7.174   2.398   1.600
 5463TIP3   OH216352   7.022   1.761   3.542
 5463TIP3    H116353   6.995   1.743   3.632
 5463TIP3    H216354   7.084   1.833   3.549
 5464TIP3   OH216355   6.721   6.288   4.287
 5464TIP3    H116356   6.683   6.307   4.202
 5464TIP3    H216357   6.669   6.339   4.349
 5465TIP3   OH216358   1.202   6.435   5.615
 5465TIP3    H116359   1.285   6.440   5.661
 5465TIP3    H216360   1.172   6.345   5.628
 5466TIP3   OH216361   0.037   1.559   4.004
 5466TIP3    H116362   0.079   1.576   4.088
 5466TIP3    H216363  -0.055   1.583   4.017
 5467TIP3   OH216364   1.421   0.862   3.666
 5467TIP3    H116365   1.472   0.861   3.747
 5467TIP3    H216366   1.482   0.831   3.599
 5468TIP3   OH216367   0.004   0.607   1.711
 5468TIP3    H116368  -0.039   0.522   1.700
 5468TIP3    H216369   0.002   0.622   1.806
 5469TIP3   OH216370   3.857   3.349   3.054
 5469TIP3    H116371   3.898   3.323   2.972
 5469TIP3    H216372   3.874   3.277   3.114
 5470TIP3   OH216373   5.722   1.922   5.321
 5470TIP3    H116374   5.715   1.848   5.261
 5470TIP3    H216375   5.646   1.914   5.378
 5471TIP3   OH216376   1.684   4.132   5.508
 5471TIP3    H116377   1.668   4.143   5.414
 5471TIP3    H216378   1.596   4.124   5.546
 5472TIP3   OH216379   6.962   5.838   2.086
 5472TIP3    H116380   7.029   5.878   2.141
 5472TIP3    H216381   6.938   5.758   2.133
 5473TIP3   OH216382   2.515   5.040   4.835
 5473TIP3    H116383   2.591   4.984   4.852
 5473TIP3    H216384   2.541   5.095   4.761
 5474TIP3   OH216385   0.932   0.883   3.207
 5474TIP3    H116386   0.916   0.800   3.163
 5474TIP3    H216387   0.850   0.932   3.196
 5475TIP3   OH216388   2.312   1.359   3.456
 5475TIP3    H116389   2.407   1.367   3.445
 5475TIP3    H216390   2.301   1.304   3.534
 5476TIP3   OH216391   3.403   2.699   0.986
 5476TIP3    H116392   3.421   2.631   1.052
 5476TIP3    H216393   3.473   2.688   0.922
 5477TIP3   OH216394   7.188   0.722   4.706
 5477TIP3    H116395   7.279   0.741   4.683
 5477TIP3    H216396   7.194   0.670   4.786
 5478TIP3   OH216397   3.106   4.624   2.291
 5478TIP3    H116398   3.016   4.634   2.322
 5478TIP3    H216399   3.106   4.660   2.202
 5479TIP3   OH216400   5.057   0.044   5.848
 5479TIP3    H116401   5.014   0.129   5.839
 5479TIP3    H216402   5.027   0.011   5.933
 5480TIP3   OH216403   4.558   3.114   2.444
 5480TIP3    H116404   4.479   3.084   2.400
 5480TIP3    H216405   4.630   3.084   2.388
 5481TIP3   OH216406   1.132   0.375   2.295
 5481TIP3    H116407   1.104   0.368   2.386
 5481TIP3    H216408   1.058   0.416   2.249
 5482TIP3   OH216409   6.247   0.087   3.674
 5482TIP3    H116410   6.298   0.034   3.735
 5482TIP3    H216411   6.174   0.119   3.725
 5483TIP3   OH216412   3.286   3.899   3.061
 5483TIP3    H116413   3.238   3.836   3.007
 5483TIP3    H216414   3.373   3.903   3.020
 5484TIP3   OH216415   5.658   1.443   1.944
 5484TIP3    H116416   5.579   1.495   1.934
 5484TIP3    H216417   5.701   1.446   1.859
 5485TIP3   OH216418   5.611   5.005   5.552
 5485TIP3    H116419   5.604   5.069   5.623
 5485TIP3    H216420   5.545   4.938   5.573
 5486TIP3   OH216421   6.450   1.663   5.270
 5486TIP3    H116422   6.535   1.696   5.299
 5486TIP3    H216423   6.388   1.699   5.334
 5487TIP3   OH216424   0.202   0.527   5.468
 5487TIP3    H116425   0.127   0.586   5.463
 5487TIP3    H216426   0.181   0.468   5.540
 5488TIP3   OH216427   0.824   6.298   3.809
 5488TIP3    H116428   0.837   6.341   3.724
 5488TIP3    H216429   0.903   6.247   3.823
 5489TIP3   OH216430   6.268   1.766   0.898
 5489TIP3    H116431   6.233   1.813   0.823
 5489TIP3    H216432   6.252   1.674   0.879
 5490TIP3   OH216433   6.102   2.946   3.832
 5490TIP3    H116434   6.132   2.932   3.742
 5490TIP3    H216435   6.138   2.872   3.881
 5491TIP3   OH216436   3.137   0.864   0.197
 5491TIP3    H116437   3.076   0.843   0.268
 5491TIP3    H216438   3.213   0.903   0.241
 5492TIP3   OH216439   1.525   3.497   0.801
 5492TIP3    H116440   1.564   3.427   0.853
 5492TIP3    H216441   1.597   3.557   0.784
 5493TIP3   OH216442   1.787   2.249   4.016
 5493TIP3    H116443   1.838   2.315   4.062
 5493TIP3    H216444   1.707   2.239   4.068
 5494TIP3   OH216445   3.057   1.943   4.680
 5494TIP3    H116446   2.966   1.951   4.708
 5494TIP3    H216447   3.109   1.962   4.758
 5495TIP3   OH216448   6.949   0.733   3.255
 5495TIP3    H116449   6.967   0.815   3.301
 5495TIP3    H216450   7.015   0.728   3.186
 5496TIP3   OH216451   6.709   3.961   2.537
 5496TIP3    H116452   6.798   3.956   2.502
 5496TIP3    H216453   6.692   3.873   2.571
 5497TIP3   OH216454   0.031   4.414   4.567
 5497TIP3    H116455  -0.060   4.386   4.561
 5497TIP3    H216456   0.064   4.408   4.477
 5498TIP3   OH216457   7.150   0.651   1.983
 5498TIP3    H116458   7.160   0.607   2.067
 5498TIP3    H216459   7.060   0.632   1.956
 5499TIP3   OH216460   5.011   6.557   3.223
 5499TIP3    H116461   4.972   6.473   3.249
 5499TIP3    H216462   5.100   6.535   3.197
 5500TIP3   OH216463   5.991   6.511   4.544
 5500TIP3    H116464   6.050   6.548   4.479
 5500TIP3    H216465   6.045   6.504   4.623
 5501TIP3   OH216466   1.553   5.069   3.832
 5501TIP3    H116467   1.583   5.134   3.894
 5501TIP3    H216468   1.520   4.997   3.886
 5502TIP3   OH216469   6.379   3.085   4.927
 5502TIP3    H116470   6.395   3.053   5.016
 5502TIP3    H216471   6.442   3.156   4.915
 5503TIP3   OH216472   4.502   3.589   5.194
 5503TIP3    H116473   4.409   3.575   5.176
 5503TIP3    H216474   4.519   3.679   5.167
 5504TIP3   OH216475   2.829   2.433   0.613
 5504TIP3    H116476   2.782   2.459   0.692
 5504TIP3    H216477   2.922   2.442   0.637
 5505TIP3   OH216478   5.891   3.699   5.426
 5505TIP3    H116479   5.973   3.665   5.463
 5505TIP3    H216480   5.852   3.623   5.381
 5506TIP3   OH216481   3.523   0.585   2.632
 5506TIP3    H116482   3.586   0.638   2.682
 5506TIP3    H216483   3.493   0.643   2.563
 5507TIP3   OH216484   5.382   6.022   2.465
 5507TIP3    H116485   5.345   5.963   2.399
 5507TIP3    H216486   5.307   6.051   2.516
 5508TIP3   OH216487   0.554   2.968   4.528
 5508TIP3    H116488   0.612   3.044   4.531
 5508TIP3    H216489   0.531   2.959   4.436
 5509TIP3   OH216490   6.244   2.476   0.832
 5509TIP3    H116491   6.198   2.451   0.752
 5509TIP3    H216492   6.323   2.422   0.831
 5510TIP3   OH216493   2.383   1.755   5.060
 5510TIP3    H116494   2.402   1.849   5.056
 5510TIP3    H216495   2.370   1.730   4.968
 5511TIP3   OH216496   3.024   5.822   3.361
 5511TIP3    H116497   3.028   5.767   3.439
 5511TIP3    H216498   3.090   5.785   3.302
 5512TIP3   OH216499   6.890   1.051   1.446
 5512TIP3    H116500   6.850   1.053   1.359
 5512TIP3    H216501   6.848   1.124   1.493
 5513TIP3   OH216502   1.679   5.672   2.255
 5513TIP3    H116503   1.754   5.722   2.222
 5513TIP3    H216504   1.630   5.648   2.177
 5514TIP3   OH216505   3.781   5.900   3.975
 5514TIP3    H116506   3.827   5.913   4.058
 5514TIP3    H216507   3.830   5.953   3.912
 5515TIP3   OH216508   1.029   3.729   4.335
 5515TIP3    H116509   1.019   3.700   4.244
 5515TIP3    H216510   1.115   3.771   4.337
 5516TIP3   OH216511   6.769   1.042   3.188
 5516TIP3    H116512   6.704   0.974   3.207
 5516TIP3    H216513   6.735   1.120   3.232
 5517TIP3   OH216514   1.722   2.666   0.907
 5517TIP3    H116515   1.636   2.707   0.915
 5517TIP3    H216516   1.780   2.722   0.960
 5518TIP3   OH216517   3.198   3.930   5.752
 5518TIP3    H116518   3.217   4.022   5.770
 5518TIP3    H216519   3.118   3.911   5.801
 5519TIP3   OH216520   1.177   5.045   2.288
 5519TIP3    H116521   1.119   4.972   2.308
 5519TIP3    H216522   1.258   5.004   2.257
 5520TIP3   OH216523   0.682   1.647   3.581
 5520TIP3    H116524   0.762   1.601   3.606
 5520TIP3    H216525   0.620   1.629   3.651
 5521TIP3   OH216526   4.699   1.684   2.499
 5521TIP3    H116527   4.664   1.769   2.524
 5521TIP3    H216528   4.697   1.632   2.579
 5522TIP3   OH216529   5.346   4.892   4.656
 5522TIP3    H116530   5.285   4.908   4.585
 5522TIP3    H216531   5.330   4.963   4.718
 5523TIP3   OH216532   3.276   2.263   5.039
 5523TIP3    H116533   3.356   2.210   5.035
 5523TIP3    H216534   3.307   2.353   5.045
 5524TIP3   OH216535   2.114   3.488   2.648
 5524TIP3    H116536   2.175   3.506   2.576
 5524TIP3    H216537   2.167   3.444   2.714
 5525TIP3   OH216538   2.535   0.384   3.084
 5525TIP3    H116539   2.595   0.334   3.028
 5525TIP3    H216540   2.557   0.476   3.066
 5526TIP3   OH216541   0.364   4.567   1.234
 5526TIP3    H116542   0.284   4.520   1.259
 5526TIP3    H216543   0.358   4.650   1.281
 5527TIP3   OH216544   2.397   0.178   0.242
 5527TIP3    H116545   2.368   0.267   0.225
 5527TIP3    H216546   2.435   0.181   0.330
 5528TIP3   OH216547   1.425   1.105   1.357
 5528TIP3    H116548   1.340   1.147   1.371
 5528TIP3    H216549   1.479   1.173   1.318
 5529TIP3   OH216550   0.712   3.434   1.585
 5529TIP3    H116551   0.731   3.513   1.534
 5529TIP3    H216552   0.795   3.386   1.586
 5530TIP3   OH216553   6.156   5.350   0.324
 5530TIP3    H116554   6.201   5.301   0.255
 5530TIP3    H216555   6.066   5.356   0.294
 5531TIP3   OH216556   1.217   5.364   5.372
 5531TIP3    H116557   1.282   5.295   5.379
 5531TIP3    H216558   1.241   5.427   5.441
 5532TIP3   OH216559   3.059   6.141   2.553
 5532TIP3    H116560   2.985   6.196   2.528
 5532TIP3    H216561   3.020   6.057   2.576
 5533TIP3   OH216562   0.077   2.962   4.015
 5533TIP3    H116563   0.083   3.056   4.035
 5533TIP3    H216564   0.167   2.931   4.016
 5534TIP3   OH216565   3.671   2.306   1.414
 5534TIP3    H116566   3.708   2.329   1.330
 5534TIP3    H216567   3.740   2.323   1.477
 5535TIP3   OH216568   5.347   0.929   0.983
 5535TIP3    H116569   5.329   0.835   0.970
 5535TIP3    H216570   5.356   0.938   1.078
 5536TIP3   OH216571   6.889   4.333   2.536
 5536TIP3    H116572   6.825   4.387   2.489
 5536TIP3    H216573   6.908   4.261   2.476
 5537TIP3   OH216574   5.184   1.163   3.727
 5537TIP3    H116575   5.210   1.182   3.817
 5537TIP3    H216576   5.180   1.067   3.723
 5538TIP3   OH216577   6.163   5.953   1.234
 5538TIP3    H116578   6.072   5.976   1.251
 5538TIP3    H216579   6.206   6.037   1.214
 5539TIP3   OH216580   3.660   2.645   5.716
 5539TIP3    H116581   3.712   2.597   5.781
 5539TIP3    H216582   3.569   2.619   5.735
 5540TIP3   OH216583   4.174   0.203   5.757
 5540TIP3    H116584   4.242   0.262   5.788
 5540TIP3    H216585   4.096   0.229   5.806
 5541TIP3   OH216586   3.432   5.331   2.813
 5541TIP3    H116587   3.447   5.334   2.719
 5541TIP3    H216588   3.507   5.377   2.851
 5542TIP3   OH216589   1.527   4.873   5.197
 5542TIP3    H116590   1.518   4.967   5.182
 5542TIP3    H216591   1.455   4.851   5.256
 5543TIP3   OH216592   6.500   5.038   3.910
 5543TIP3    H116593   6.408   5.010   3.909
 5543TIP3    H216594   6.507   5.098   3.984
 5544TIP3   OH216595   1.625   2.680   3.549
 5544TIP3    H116596   1.630   2.593   3.508
 5544TIP3    H216597   1.691   2.732   3.503
 5545TIP3   OH216598   6.602   1.566   5.504
 5545TIP3    H116599   6.666   1.500   5.479
 5545TIP3    H216600   6.518   1.520   5.499
 5546TIP3   OH216601   6.872   6.432   5.539
 5546TIP3    H116602   6.939   6.455   5.474
 5546TIP3    H216603   6.913   6.452   5.623
 5547TIP3   OH216604   0.164   5.785   3.824
 5547TIP3    H116605   0.164   5.868   3.778
 5547TIP3    H216606   0.132   5.806   3.912
 5548TIP3   OH216607   1.753   6.457   1.673
 5548TIP3    H116608   1.783   6.382   1.623
 5548TIP3    H216609   1.680   6.492   1.622
 5549TIP3   OH216610   3.976   4.826   3.055
 5549TIP3    H116611   4.008   4.736   3.046
 5549TIP3    H216612   4.005   4.869   2.975
 5550TIP3   OH216613   6.103   0.194   3.864
 5550TIP3    H116614   6.045   0.243   3.922
 5550TIP3    H216615   6.191   0.218   3.892
 5551TIP3   OH216616   3.403   0.644   5.894
 5551TIP3    H116617   3.426   0.610   5.808
 5551TIP3    H216618   3.486   0.678   5.929
 5552TIP3   OH216619   2.841   6.577   4.269
 5552TIP3    H116620   2.897   6.612   4.339
 5552TIP3    H216621   2.830   6.485   4.291
 5553TIP3   OH216622   7.079   5.039   1.511
 5553TIP3    H116623   7.077   5.081   1.425
 5553TIP3    H216624   7.154   5.078   1.555
 5554TIP3   OH216625   5.312   0.433   3.127
 5554TIP3    H116626   5.399   0.413   3.162
 5554TIP3    H216627   5.329   0.495   3.056
 5555TIP3   OH216628   6.994   5.702   4.275
 5555TIP3    H116629   7.051   5.750   4.215
 5555TIP3    H216630   6.994   5.612   4.242
 5556TIP3   OH216631   1.412   6.776   1.623
 5556TIP3    H116632   1.441   6.685   1.621
 5556TIP3    H216633   1.453   6.812   1.702
 5557TIP3   OH216634   4.477   2.704   1.902
 5557TIP3    H116635   4.457   2.729   1.812
 5557TIP3    H216636   4.414   2.752   1.955
 5558TIP3   OH216637   1.977   3.395   5.640
 5558TIP3    H116638   2.067   3.421   5.658
 5558TIP3    H216639   1.979   3.362   5.550
 5559TIP3   OH216640   5.368   5.527   0.067
 5559TIP3    H116641   5.338   5.615   0.092
 5559TIP3    H216642   5.463   5.530   0.081
 5560TIP3   OH216643   2.259   6.478   5.021
 5560TIP3    H116644   2.296   6.546   4.965
 5560TIP3    H216645   2.170   6.508   5.040
 5561TIP3   OH216646   4.412   0.533   5.322
 5561TIP3    H116647   4.444   0.466   5.382
 5561TIP3    H216648   4.318   0.516   5.315
 5562TIP3   OH216649   3.534   2.432   0.684
 5562TIP3    H116650   3.480   2.480   0.621
 5562TIP3    H216651   3.584   2.371   0.631
 5563TIP3   OH216652   4.379   2.389   5.486
 5563TIP3    H116653   4.304   2.335   5.461
 5563TIP3    H216654   4.399   2.362   5.576
 5564TIP3   OH216655   6.164   0.195   1.676
 5564TIP3    H116656   6.228   0.265   1.661
 5564TIP3    H216657   6.187   0.127   1.613
 5565TIP3   OH216658   4.919   0.468   3.192
 5565TIP3    H116659   5.002   0.496   3.232
 5565TIP3    H216660   4.942   0.448   3.101
 5566TIP3   OH216661   5.867   2.464   4.393
 5566TIP3    H116662   5.779   2.495   4.415
 5566TIP3    H216663   5.901   2.529   4.332
 5567TIP3   OH216664   0.191   4.223   1.114
 5567TIP3    H116665   0.257   4.166   1.155
 5567TIP3    H216666   0.180   4.295   1.177
 5568TIP3   OH216667   0.413   1.355   2.068
 5568TIP3    H116668   0.453   1.386   1.987
 5568TIP3    H216669   0.379   1.434   2.111
 5569TIP3   OH216670   0.706   5.557   3.288
 5569TIP3    H116671   0.622   5.566   3.334
 5569TIP3    H216672   0.740   5.646   3.283
 5570TIP3   OH216673   1.199   1.255   1.455
 5570TIP3    H116674   1.127   1.305   1.417
 5570TIP3    H216675   1.157   1.190   1.510
 5571TIP3   OH216676   2.020   5.851   1.462
 5571TIP3    H116677   1.954   5.784   1.443
 5571TIP3    H216678   2.099   5.802   1.484
 5572TIP3   OH216679   2.762   4.364   5.376
 5572TIP3    H116680   2.672   4.333   5.393
 5572TIP3    H216681   2.807   4.288   5.340
 5573TIP3   OH216682   5.664   1.863   1.703
 5573TIP3    H116683   5.667   1.917   1.782
 5573TIP3    H216684   5.571   1.851   1.685
 5574TIP3   OH216685   5.034   3.873   1.435
 5574TIP3    H116686   5.115   3.880   1.384
 5574TIP3    H216687   5.009   3.781   1.426
 5575TIP3   OH216688   3.896   6.503   3.837
 5575TIP3    H116689   3.882   6.436   3.904
 5575TIP3    H216690   3.812   6.548   3.830
 5576TIP3   OH216691   3.669   3.775   4.787
 5576TIP3    H116692   3.617   3.851   4.760
 5576TIP3    H216693   3.714   3.804   4.867
 5577TIP3   OH216694   6.307   5.542   4.186
 5577TIP3    H116695   6.373   5.554   4.118
 5577TIP3    H216696   6.344   5.586   4.263
 5578TIP3   OH216697   7.117   0.792   5.500
 5578TIP3    H116698   7.102   0.700   5.523
 5578TIP3    H216699   7.174   0.825   5.569
 5579TIP3   OH216700   2.125   0.908   1.227
 5579TIP3    H116701   2.124   0.858   1.309
 5579TIP3    H216702   2.043   0.885   1.183
 5580TIP3   OH216703   2.777   0.592   3.580
 5580TIP3    H116704   2.736   0.579   3.494
 5580TIP3    H216705   2.730   0.667   3.617
 5581TIP3   OH216706   1.296   5.472   3.067
 5581TIP3    H116707   1.228   5.529   3.030
 5581TIP3    H216708   1.329   5.423   2.992
 5582TIP3   OH216709   3.135   2.430   5.517
 5582TIP3    H116710   3.175   2.399   5.436
 5582TIP3    H216711   3.067   2.365   5.537
 5583TIP3   OH216712   0.516   1.525   1.430
 5583TIP3    H116713   0.520   1.552   1.521
 5583TIP3    H216714   0.582   1.579   1.386
 5584TIP3   OH216715   4.635   0.626   2.419
 5584TIP3    H116716   4.692   0.675   2.360
 5584TIP3    H216717   4.679   0.542   2.430
 5585TIP3   OH216718   7.079   2.016   5.312
 5585TIP3    H116719   7.168   2.019   5.346
 5585TIP3    H216720   7.026   1.989   5.387
 5586TIP3   OH216721   5.161   0.370   0.134
 5586TIP3    H116722   5.207   0.348   0.053
 5586TIP3    H216723   5.068   0.372   0.108
 5587TIP3   OH216724   1.337   0.427   3.165
 5587TIP3    H116725   1.282   0.500   3.193
 5587TIP3    H216726   1.278   0.372   3.113
 5588TIP3   OH216727   6.036   3.777   0.793
 5588TIP3    H116728   6.020   3.721   0.869
 5588TIP3    H216729   6.051   3.716   0.721
 5589TIP3   OH216730   3.162   4.476   4.160
 5589TIP3    H116731   3.071   4.449   4.149
 5589TIP3    H216732   3.200   4.411   4.219
 5590TIP3   OH216733   5.185   0.992   3.321
 5590TIP3    H116734   5.266   0.949   3.294
 5590TIP3    H216735   5.202   1.086   3.308
 5591TIP3   OH216736   1.162   3.901   5.046
 5591TIP3    H116737   1.072   3.900   5.014
 5591TIP3    H216738   1.194   3.812   5.033
 5592TIP3   OH216739   5.681   6.163   3.196
 5592TIP3    H116740   5.735   6.163   3.275
 5592TIP3    H216741   5.593   6.180   3.227
 5593TIP3   OH216742   4.356   1.453   5.106
 5593TIP3    H116743   4.333   1.520   5.041
 5593TIP3    H216744   4.317   1.372   5.073
 5594TIP3   OH216745   6.801   0.273   4.575
 5594TIP3    H116746   6.855   0.347   4.602
 5594TIP3    H216747   6.848   0.235   4.501
 5595TIP3   OH216748   1.595   0.757   4.692
 5595TIP3    H116749   1.518   0.765   4.749
 5595TIP3    H216750   1.575   0.681   4.638
 5596TIP3   OH216751   5.166   0.568   0.773
 5596TIP3    H116752   5.200   0.485   0.740
 5596TIP3    H216753   5.234   0.632   0.752
 5597TIP3   OH216754   5.263   3.906   4.037
 5597TIP3    H116755   5.269   4.001   4.034
 5597TIP3    H216756   5.318   3.876   3.965
 5598TIP3   OH216757   1.149   1.652   4.474
 5598TIP3    H116758   1.160   1.680   4.383
 5598TIP3    H216759   1.190   1.722   4.525
 5599TIP3   OH216760   2.525   6.728   2.253
 5599TIP3    H116761   2.566   6.662   2.309
 5599TIP3    H216762   2.442   6.748   2.297
 5600TIP3   OH216763   2.276   1.895   0.258
 5600TIP3    H116764   2.237   1.945   0.329
 5600TIP3    H216765   2.322   1.961   0.205
 5601TIP3   OH216766   1.593   6.597   3.562
 5601TIP3    H116767   1.677   6.641   3.571
 5601TIP3    H216768   1.543   6.624   3.638
 5602TIP3   OH216769   3.601   1.154   0.790
 5602TIP3    H116770   3.548   1.174   0.867
 5602TIP3    H216771   3.588   1.060   0.776
 5603TIP3   OH216772   5.067   6.096   3.990
 5603TIP3    H116773   4.993   6.147   4.023
 5603TIP3    H216774   5.057   6.010   4.030
 5604TIP3   OH216775   2.601   5.404   1.721
 5604TIP3    H116776   2.596   5.375   1.630
 5604TIP3    H216777   2.662   5.478   1.719
 5605TIP3   OH216778   2.463   0.523   5.329
 5605TIP3    H116779   2.431   0.609   5.301
 5605TIP3    H216780   2.384   0.471   5.342
 5606TIP3   OH216781   4.540   5.979   5.634
 5606TIP3    H116782   4.584   5.900   5.602
 5606TIP3    H216783   4.605   6.048   5.621
 5607TIP3   OH216784   6.430   5.483   1.600
 5607TIP3    H116785   6.386   5.444   1.675
 5607TIP3    H216786   6.522   5.459   1.611
 5608TIP3   OH216787   0.100   2.924   2.347
 5608TIP3    H116788   0.118   2.895   2.258
 5608TIP3    H216789   0.186   2.952   2.381
 5609TIP3   OH216790   6.940   4.575   1.973
 5609TIP3    H116791   6.857   4.531   1.992
 5609TIP3    H216792   6.926   4.666   2.001
 5610TIP3   OH216793   2.588   3.185   5.542
 5610TIP3    H116794   2.543   3.261   5.505
 5610TIP3    H216795   2.558   3.111   5.490
 5611TIP3   OH216796   5.001   6.154   5.615
 5611TIP3    H116797   5.049   6.136   5.696
 5611TIP3    H216798   5.065   6.138   5.546
 5612TIP3   OH216799   2.877   0.677   5.851
 5612TIP3    H116800   2.854   0.648   5.763
 5612TIP3    H216801   2.951   0.738   5.838
 5613TIP3   OH216802   5.922   4.445   5.156
 5613TIP3    H116803   5.977   4.502   5.103
 5613TIP3    H216804   5.917   4.490   5.241
 5614TIP3   OH216805   2.112   4.910   5.176
 5614TIP3    H116806   2.204   4.898   5.152
 5614TIP3    H216807   2.096   5.004   5.166
 5615TIP3   OH216808   4.024   2.028   1.616
 5615TIP3    H116809   4.113   2.001   1.638
 5615TIP3    H216810   3.985   2.053   1.699
 5616TIP3   OH216811   2.735   1.006   5.083
 5616TIP3    H116812   2.707   0.936   5.024
 5616TIP3    H216813   2.654   1.041   5.120
 5617TIP3   OH216814   0.297   1.135   0.245
 5617TIP3    H116815   0.263   1.156   0.158
 5617TIP3    H216816   0.321   1.042   0.239
 5618TIP3   OH216817   7.074   5.680   5.574
 5618TIP3    H116818   7.136   5.710   5.508
 5618TIP3    H216819   7.012   5.752   5.584
 5619TIP3   OH216820   1.133   6.540   1.368
 5619TIP3    H116821   1.162   6.539   1.459
 5619TIP3    H216822   1.174   6.619   1.331
 5620TIP3   OH216823   5.356   4.776   4.193
 5620TIP3    H116824   5.354   4.684   4.168
 5620TIP3    H216825   5.391   4.822   4.116
 5621TIP3   OH216826   2.725   5.955   5.031
 5621TIP3    H116827   2.651   6.010   5.058
 5621TIP3    H216828   2.799   6.016   5.025
 5622TIP3   OH216829   6.720   3.048   1.318
 5622TIP3    H116830   6.640   2.997   1.310
 5622TIP3    H216831   6.692   3.134   1.347
 5623TIP3   OH216832   6.878   5.220   1.643
 5623TIP3    H116833   6.881   5.129   1.670
 5623TIP3    H216834   6.880   5.270   1.724
 5624TIP3   OH216835   0.281   0.203   2.068
 5624TIP3    H116836   0.356   0.216   2.126
 5624TIP3    H216837   0.315   0.222   1.981
 5625TIP3   OH216838   1.299   5.356   3.750
 5625TIP3    H116839   1.341   5.414   3.814
 5625TIP3    H216840   1.291   5.409   3.671
 5626TIP3   OH216841   6.624   5.398   1.759
 5626TIP3    H116842   6.717   5.399   1.784
 5626TIP3    H216843   6.580   5.449   1.827
 5627TIP3   OH216844   0.065   5.133   1.880
 5627TIP3    H116845   0.108   5.049   1.859
 5627TIP3    H216846   0.126   5.176   1.941
 5628TIP3   OH216847   5.758   6.233   1.998
 5628TIP3    H116848   5.810   6.295   1.946
 5628TIP3    H216849   5.741   6.160   1.938
 5629TIP3   OH216850   4.216   1.165   1.761
 5629TIP3    H116851   4.229   1.175   1.667
 5629TIP3    H216852   4.219   1.255   1.796
 5630TIP3   OH216853   5.509   4.328   0.048
 5630TIP3    H116854   5.506   4.376   0.131
 5630TIP3    H216855   5.441   4.368  -0.006
 5631TIP3   OH216856   3.022   3.114   3.669
 5631TIP3    H116857   3.118   3.116   3.669
 5631TIP3    H216858   2.997   3.185   3.727
 5632TIP3   OH216859   6.323   4.594   3.678
 5632TIP3    H116860   6.409   4.635   3.666
 5632TIP3    H216861   6.331   4.544   3.759
 5633TIP3   OH216862   3.605   3.397   3.265
 5633TIP3    H116863   3.606   3.316   3.316
 5633TIP3    H216864   3.614   3.467   3.330
 5634TIP3   OH216865   3.030   0.464   5.730
 5634TIP3    H116866   2.986   0.465   5.815
 5634TIP3    H216867   2.964   0.495   5.668
 5635TIP3   OH216868   6.526   0.491   1.906
 5635TIP3    H116869   6.555   0.484   1.815
 5635TIP3    H216870   6.446   0.542   1.902
 5636TIP3   OH216871   2.983   4.366   2.081
 5636TIP3    H116872   2.975   4.313   2.160
 5636TIP3    H216873   2.895   4.371   2.045
 5637TIP3   OH216874   3.820   0.727   0.786
 5637TIP3    H116875   3.741   0.709   0.837
 5637TIP3    H216876   3.790   0.779   0.712
 5638TIP3   OH216877   5.414   3.569   0.505
 5638TIP3    H116878   5.425   3.564   0.600
 5638TIP3    H216879   5.463   3.647   0.479
 5639TIP3   OH216880   3.403   0.747   2.415
 5639TIP3    H116881   3.404   0.807   2.341
 5639TIP3    H216882   3.399   0.804   2.492
 5640TIP3   OH216883   6.424   3.740   0.051
 5640TIP3    H116884   6.424   3.830   0.083
 5640TIP3    H216885   6.332   3.720   0.036
 5641TIP3   OH216886   6.867   0.694   3.646
 5641TIP3    H116887   6.827   0.775   3.616
 5641TIP3    H216888   6.932   0.722   3.710
 5642TIP3   OH216889   0.627   0.223   5.165
 5642TIP3    H116890   0.668   0.270   5.237
 5642TIP3    H216891   0.555   0.174   5.206
 5643TIP3   OH216892   6.751   1.634   5.267
 5643TIP3    H116893   6.766   1.556   5.320
 5643TIP3    H216894   6.796   1.704   5.314
 5644TIP3   OH216895   1.769   2.437   1.565
 5644TIP3    H116896   1.862   2.427   1.584
 5644TIP3    H216897   1.735   2.489   1.638
 5645TIP3   OH216898   0.589   5.717   3.038
 5645TIP3    H116899   0.599   5.798   2.987
 5645TIP3    H216900   0.674   5.675   3.034
 5646TIP3   OH216901   7.046   5.210   1.295
 5646TIP3    H116902   7.044   5.198   1.200
 5646TIP3    H216903   6.965   5.257   1.315
 5647TIP3   OH216904   3.205   4.201   5.159
 5647TIP3    H116905   3.231   4.292   5.149
 5647TIP3    H216906   3.229   4.178   5.249
 5648TIP3   OH216907   2.544   6.592   3.314
 5648TIP3    H116908   2.561   6.622   3.404
 5648TIP3    H216909   2.558   6.497   3.319
 5649TIP3   OH216910   3.514   6.494   0.158
 5649TIP3    H116911   3.427   6.517   0.190
 5649TIP3    H216912   3.509   6.505   0.064
 5650TIP3   OH216913   4.670   2.040   5.134
 5650TIP3    H116914   4.608   1.973   5.160
 5650TIP3    H216915   4.660   2.046   5.039
 5651TIP3   OH216916   4.147   4.748   1.309
 5651TIP3    H116917   4.158   4.748   1.214
 5651TIP3    H216918   4.233   4.772   1.344
 5652TIP3   OH216919   3.709   0.749   4.483
 5652TIP3    H116920   3.639   0.808   4.511
 5652TIP3    H216921   3.789   0.796   4.503
 5653TIP3   OH216922   6.572   3.751   1.024
 5653TIP3    H116923   6.627   3.749   0.946
 5653TIP3    H216924   6.580   3.663   1.061
 5654TIP3   OH216925   3.164   1.950   4.063
 5654TIP3    H116926   3.143   1.967   3.971
 5654TIP3    H216927   3.180   2.037   4.100
 5655TIP3   OH216928   5.715   0.817   4.004
 5655TIP3    H116929   5.778   0.758   3.960
 5655TIP3    H216930   5.716   0.897   3.951
 5656TIP3   OH216931   2.461   3.620   5.220
 5656TIP3    H116932   2.522   3.558   5.260
 5656TIP3    H216933   2.461   3.695   5.278
 5657TIP3   OH216934   0.240   0.050   5.532
 5657TIP3    H116935   0.225   0.022   5.622
 5657TIP3    H216936   0.182  -0.005   5.480
 5658TIP3   OH216937   5.241   2.559   1.594
 5658TIP3    H116938   5.218   2.613   1.669
 5658TIP3    H216939   5.215   2.612   1.518
 5659TIP3   OH216940   0.444   1.587   3.729
 5659TIP3    H116941   0.386   1.511   3.724
 5659TIP3    H216942   0.386   1.662   3.744
 5660TIP3   OH216943   0.902   4.015   1.524
 5660TIP3    H116944   0.823   4.035   1.474
 5660TIP3    H216945   0.874   4.021   1.616
 5661TIP3   OH216946   5.049   2.790   3.677
 5661TIP3    H116947   5.072   2.860   3.617
 5661TIP3    H216948   4.963   2.814   3.710
 5662TIP3   OH216949   3.021   3.534   1.312
 5662TIP3    H116950   3.068   3.584   1.245
 5662TIP3    H216951   2.929   3.540   1.287
 5663TIP3   OH216952   0.236   5.349   1.447
 5663TIP3    H116953   0.306   5.369   1.510
 5663TIP3    H216954   0.228   5.427   1.394
 5664TIP3   OH216955   0.101   3.788   4.074
 5664TIP3    H116956   0.104   3.842   3.995
 5664TIP3    H216957   0.182   3.737   4.071
 5665TIP3   OH216958   5.835   3.197   1.753
 5665TIP3    H116959   5.839   3.126   1.690
 5665TIP3    H216960   5.810   3.154   1.835
 5666TIP3   OH216961   0.131   3.622   4.864
 5666TIP3    H116962   0.092   3.670   4.791
 5666TIP3    H216963   0.083   3.539   4.867
 5667TIP3   OH216964   2.199   2.902   5.084
 5667TIP3    H116965   2.249   2.899   5.165
 5667TIP3    H216966   2.250   2.960   5.027
 5668TIP3   OH216967   4.149   1.183   4.164
 5668TIP3    H116968   4.151   1.095   4.126
 5668TIP3    H216969   4.212   1.233   4.111
 5669TIP3   OH216970   1.371   1.054   3.352
 5669TIP3    H116971   1.439   0.991   3.331
 5669TIP3    H216972   1.296   1.000   3.378
 5670TIP3   OH216973   5.371   2.241   2.335
 5670TIP3    H116974   5.446   2.292   2.302
 5670TIP3    H216975   5.295   2.287   2.300
 5671TIP3   OH216976   3.370   2.287   3.277
 5671TIP3    H116977   3.440   2.352   3.279
 5671TIP3    H216978   3.323   2.305   3.196
 5672TIP3   OH216979   0.818   3.271   1.165
 5672TIP3    H116980   0.795   3.289   1.074
 5672TIP3    H216981   0.787   3.347   1.214
 5673TIP3   OH216982   4.224   3.105   3.094
 5673TIP3    H116983   4.319   3.111   3.086
 5673TIP3    H216984   4.195   3.196   3.103
 5674TIP3   OH216985   6.690   5.617   2.417
 5674TIP3    H116986   6.671   5.686   2.480
 5674TIP3    H216987   6.682   5.536   2.467
 5675TIP3   OH216988   6.570   4.946   3.221
 5675TIP3    H116989   6.499   4.986   3.271
 5675TIP3    H216990   6.650   4.979   3.262
 5676TIP3   OH216991   4.735   0.578   4.219
 5676TIP3    H116992   4.812   0.601   4.167
 5676TIP3    H216993   4.729   0.482   4.211
 5677TIP3   OH216994   6.363   5.234   2.405
 5677TIP3    H116995   6.282   5.285   2.408
 5677TIP3    H216996   6.388   5.224   2.497
 5678TIP3   OH216997   2.036   6.439   0.482
 5678TIP3    H116998   2.050   6.402   0.395
 5678TIP3    H216999   1.952   6.484   0.476
 5679TIP3   OH217000   5.737   4.937   1.263
 5679TIP3    H117001   5.689   4.986   1.196
 5679TIP3    H217002   5.768   4.859   1.217
 5680TIP3   OH217003   3.941   2.120   2.143
 5680TIP3    H117004   3.971   2.031   2.127
 5680TIP3    H217005   3.868   2.111   2.204
 5681TIP3   OH217006   1.805   3.386   4.979
 5681TIP3    H117007   1.713   3.392   5.004
 5681TIP3    H217008   1.852   3.406   5.060
 5682TIP3   OH217009   5.131   0.175   5.553
 5682TIP3    H117010   5.130   0.114   5.626
 5682TIP3    H217011   5.224   0.194   5.538
 5683TIP3   OH217012   2.877   0.515   0.996
 5683TIP3    H117013   2.887   0.600   1.038
 5683TIP3    H217014   2.822   0.532   0.919
 5684TIP3   OH217015   2.299   2.579   2.611
 5684TIP3    H117016   2.238   2.604   2.542
 5684TIP3    H217017   2.364   2.525   2.567
 5685TIP3   OH217018   4.374   5.805   2.259
 5685TIP3    H117019   4.370   5.724   2.208
 5685TIP3    H217020   4.321   5.867   2.209
 5686TIP3   OH217021   1.363   6.545   0.006
 5686TIP3    H117022   1.354   6.555   0.101
 5686TIP3    H217023   1.307   6.470  -0.016
 5687TIP3   OH217024   2.464   6.103   4.202
 5687TIP3    H117025   2.420   6.169   4.149
 5687TIP3    H217026   2.402   6.030   4.206
 5688TIP3   OH217027   4.721   0.478   2.681
 5688TIP3    H117028   4.813   0.503   2.670
 5688TIP3    H217029   4.676   0.561   2.699
 5689TIP3   OH217030   5.786   1.443   2.541
 5689TIP3    H117031   5.728   1.511   2.508
 5689TIP3    H217032   5.730   1.387   2.595
 5690TIP3   OH217033   1.246   0.844   4.548
 5690TIP3    H117034   1.293   0.912   4.595
 5690TIP3    H217035   1.314   0.782   4.522
 5691TIP3   OH217036   1.013   3.531   3.029
 5691TIP3    H117037   1.081   3.597   3.024
 5691TIP3    H217038   0.984   3.532   3.120
 5692TIP3   OH217039   1.665   0.346   5.134
 5692TIP3    H117040   1.573   0.320   5.128
 5692TIP3    H217041   1.678   0.409   5.064
 5693TIP3   OH217042   6.991   2.215   1.357
 5693TIP3    H117043   7.005   2.144   1.420
 5693TIP3    H217044   6.926   2.272   1.398
 5694TIP3   OH217045   0.629   4.377   0.378
 5694TIP3    H117046   0.566   4.446   0.357
 5694TIP3    H217047   0.599   4.301   0.329
 5695TIP3   OH217048   2.111   4.438   0.133
 5695TIP3    H117049   2.157   4.383   0.070
 5695TIP3    H217050   2.024   4.399   0.140
 5696TIP3   OH217051   1.765   6.000   5.055
 5696TIP3    H117052   1.817   5.925   5.026
 5696TIP3    H217053   1.819   6.042   5.122
 5697TIP3   OH217054  -0.014   3.114   1.423
 5697TIP3    H117055   0.074   3.142   1.398
 5697TIP3    H217056  -0.073   3.169   1.372
 5698TIP3   OH217057   2.097   5.299   5.487
 5698TIP3    H117058   2.091   5.375   5.429
 5698TIP3    H217059   2.095   5.336   5.576
 5699TIP3   OH217060   5.000   0.511   2.639
 5699TIP3    H117061   5.045   0.450   2.580
 5699TIP3    H217062   5.047   0.594   2.627
 5700TIP3   OH217063   5.506   3.447   5.816
 5700TIP3    H117064   5.576   3.490   5.768
 5700TIP3    H217065   5.448   3.413   5.747
 5701TIP3   OH217066   4.624   0.167   1.465
 5701TIP3    H117067   4.630   0.084   1.514
 5701TIP3    H217068   4.715   0.190   1.448
 5702TIP3   OH217069   3.459   0.928   0.837
 5702TIP3    H117070   3.402   0.943   0.912
 5702TIP3    H217071   3.513   0.853   0.864
 5703TIP3   OH217072   4.328   4.685   2.503
 5703TIP3    H117073   4.369   4.608   2.464
 5703TIP3    H217074   4.380   4.701   2.582
 5704TIP3   OH217075   3.254   1.588   5.530
 5704TIP3    H117076   3.324   1.556   5.588
 5704TIP3    H217077   3.181   1.607   5.589
 5705TIP3   OH217078   6.980   5.184   3.900
 5705TIP3    H117079   6.893   5.220   3.915
 5705TIP3    H217080   6.995   5.124   3.973
 5706TIP3   OH217081   3.207   4.521   0.598
 5706TIP3    H117082   3.246   4.593   0.648
 5706TIP3    H217083   3.127   4.559   0.560
 5707TIP3   OH217084   7.042   5.983   0.712
 5707TIP3    H117085   7.020   6.007   0.622
 5707TIP3    H217086   7.125   6.028   0.729
 5708TIP3   OH217087   5.713   6.203   4.089
 5708TIP3    H117088   5.728   6.280   4.034
 5708TIP3    H217089   5.705   6.237   4.178
 5709TIP3   OH217090   0.891   2.194   5.099
 5709TIP3    H117091   0.940   2.208   5.018
 5709TIP3    H217092   0.957   2.169   5.163
 5710TIP3   OH217093   5.789   5.288   1.813
 5710TIP3    H117094   5.700   5.322   1.816
 5710TIP3    H217095   5.833   5.341   1.747
 5711TIP3   OH217096   1.903   5.277   1.955
 5711TIP3    H117097   1.810   5.288   1.937
 5711TIP3    H217098   1.943   5.262   1.869
 5712TIP3   OH217099   4.775   5.133   0.249
 5712TIP3    H117100   4.830   5.209   0.265
 5712TIP3    H217101   4.824   5.081   0.186
 5713TIP3   OH217102   6.954   5.588   3.458
 5713TIP3    H117103   6.987   5.503   3.489
 5713TIP3    H217104   6.866   5.568   3.424
 5714TIP3   OH217105   3.080   0.450   0.213
 5714TIP3    H117106   3.028   0.448   0.293
 5714TIP3    H217107   3.092   0.358   0.189
 5715TIP3   OH217108   5.884   5.704   0.880
 5715TIP3    H117109   5.910   5.629   0.934
 5715TIP3    H217110   5.805   5.738   0.922
 5716TIP3   OH217111   3.541   2.055   1.307
 5716TIP3    H117112   3.548   1.997   1.382
 5716TIP3    H217113   3.579   2.138   1.336
 5717TIP3   OH217114   3.994   5.577   5.849
 5717TIP3    H117115   3.933   5.648   5.829
 5717TIP3    H217116   4.075   5.621   5.873
 5718TIP3   OH217117   0.367   2.731   5.737
 5718TIP3    H117118   0.306   2.784   5.789
 5718TIP3    H217119   0.376   2.650   5.786
 5719TIP3   OH217120   2.104   0.157   5.368
 5719TIP3    H117121   2.079   0.232   5.314
 5719TIP3    H217122   2.128   0.089   5.304
 5720TIP3   OH217123   5.558   3.884   1.858
 5720TIP3    H117124   5.500   3.822   1.901
 5720TIP3    H217125   5.500   3.936   1.802
 5721TIP3   OH217126   0.901   0.688   2.082
 5721TIP3    H117127   0.842   0.678   2.157
 5721TIP3    H217128   0.959   0.760   2.106
 5722TIP3   OH217129   3.761   1.299   2.248
 5722TIP3    H117130   3.783   1.220   2.298
 5722TIP3    H217131   3.759   1.369   2.313
 5723TIP3   OH217132   3.651   1.950   1.038
 5723TIP3    H117133   3.604   1.971   1.119
 5723TIP3    H217134   3.585   1.907   0.983
 5724TIP3   OH217135   0.246   5.116   2.575
 5724TIP3    H117136   0.326   5.120   2.522
 5724TIP3    H217137   0.227   5.022   2.583
 5725TIP3   OH217138   4.048   4.669   0.620
 5725TIP3    H117139   3.982   4.732   0.593
 5725TIP3    H217140   4.074   4.625   0.540
 5726TIP3   OH217141   2.320   3.759   2.764
 5726TIP3    H117142   2.255   3.791   2.701
 5726TIP3    H217143   2.360   3.684   2.721
 5727TIP3   OH217144   2.977   5.780   0.187
 5727TIP3    H117145   3.037   5.854   0.200
 5727TIP3    H217146   3.003   5.743   0.102
 5728TIP3   OH217147   6.000   4.816   3.450
 5728TIP3    H117148   5.949   4.887   3.491
 5728TIP3    H217149   6.047   4.775   3.523
 5729TIP3   OH217150   1.540   1.600   0.968
 5729TIP3    H117151   1.566   1.590   0.876
 5729TIP3    H217152   1.500   1.687   0.972
 5730TIP3   OH217153   3.343   5.583   0.787
 5730TIP3    H117154   3.297   5.667   0.791
 5730TIP3    H217155   3.436   5.606   0.786
 5731TIP3   OH217156   6.823   0.878   4.557
 5731TIP3    H117157   6.905   0.887   4.509
 5731TIP3    H217158   6.770   0.953   4.528
 5732TIP3   OH217159   5.671   1.218   2.674
 5732TIP3    H117160   5.633   1.171   2.600
 5732TIP3    H217161   5.759   1.181   2.683
 5733TIP3   OH217162   6.652   4.200   4.049
 5733TIP3    H117163   6.581   4.253   4.012
 5733TIP3    H217164   6.731   4.254   4.036
 5734TIP3   OH217165   0.973   1.929   2.699
 5734TIP3    H117166   0.980   1.988   2.775
 5734TIP3    H217167   1.039   1.961   2.638
 5735TIP3   OH217168   0.752   0.447   1.594
 5735TIP3    H117169   0.787   0.499   1.522
 5735TIP3    H217170   0.780   0.492   1.673
 5736TIP3   OH217171   1.015   4.058   4.425
 5736TIP3    H117172   1.083   3.997   4.452
 5736TIP3    H217173   1.024   4.132   4.485
 5737TIP3   OH217174   2.294   6.413   1.513
 5737TIP3    H117175   2.213   6.385   1.470
 5737TIP3    H217176   2.356   6.342   1.496
 5738TIP3   OH217177   2.085   1.320   0.708
 5738TIP3    H117178   2.164   1.266   0.700
 5738TIP3    H217179   2.071   1.327   0.803
 5739TIP3   OH217180   3.960   6.083   3.518
 5739TIP3    H117181   3.909   6.016   3.563
 5739TIP3    H217182   3.900   6.156   3.506
 5740TIP3   OH217183   4.663   1.291   2.083
 5740TIP3    H117184   4.673   1.376   2.125
 5740TIP3    H217185   4.743   1.280   2.032
 5741TIP3   OH217186   4.376   2.665   2.574
 5741TIP3    H117187   4.379   2.618   2.490
 5741TIP3    H217188   4.328   2.745   2.555
 5742TIP3   OH217189   1.963   0.751   5.007
 5742TIP3    H117190   2.004   0.718   4.927
 5742TIP3    H217191   2.036   0.777   5.062
 5743TIP3   OH217192   4.233   2.632   2.992
 5743TIP3    H117193   4.189   2.716   2.981
 5743TIP3    H217194   4.182   2.571   2.938
 5744TIP3   OH217195   5.439   3.488   1.819
 5744TIP3    H117196   5.507   3.536   1.772
 5744TIP3    H217197   5.434   3.530   1.905
 5745TIP3   OH217198   5.420   0.628   0.031
 5745TIP3    H117199   5.512   0.635   0.008
 5745TIP3    H217200   5.410   0.685   0.108
 5746TIP3   OH217201   2.202   6.594   1.164
 5746TIP3    H117202   2.276   6.545   1.129
 5746TIP3    H217203   2.160   6.535   1.226
 5747TIP3   OH217204   6.725   3.364   3.090
 5747TIP3    H117205   6.657   3.308   3.126
 5747TIP3    H217206   6.689   3.395   3.007
 5748TIP3   OH217207   5.622   0.661   0.402
 5748TIP3    H117208   5.535   0.687   0.372
 5748TIP3    H217209   5.679   0.734   0.377
 5749TIP3   OH217210   4.629   4.458   1.355
 5749TIP3    H117211   4.690   4.531   1.351
 5749TIP3    H217212   4.588   4.456   1.268
 5750TIP3   OH217213   7.076   1.591   0.155
 5750TIP3    H117214   7.005   1.551   0.205
 5750TIP3    H217215   7.059   1.564   0.064
 5751TIP3   OH217216   3.478   5.098   0.598
 5751TIP3    H117217   3.540   5.035   0.633
 5751TIP3    H217218   3.442   5.143   0.675
 5752TIP3   OH217219   4.702   6.030   0.754
 5752TIP3    H117220   4.642   6.087   0.706
 5752TIP3    H217221   4.727   6.081   0.831
 5753TIP3   OH217222   6.491   5.577   2.217
 5753TIP3    H117223   6.415   5.594   2.273
 5753TIP3    H217224   6.567   5.589   2.273
 5754TIP3   OH217225   3.117   1.286   1.067
 5754TIP3    H117226   3.030   1.251   1.048
 5754TIP3    H217227   3.168   1.211   1.098
 5755TIP3   OH217228   2.151   4.054   1.706
 5755TIP3    H117229   2.201   4.003   1.769
 5755TIP3    H217230   2.203   4.133   1.691
 5756TIP3   OH217231   1.554  -0.044   0.097
 5756TIP3    H117232   1.484  -0.026   0.160
 5756TIP3    H217233   1.530   0.007   0.019
 5757TIP3   OH217234   0.889   6.663   0.930
 5757TIP3    H117235   0.977   6.629   0.949
 5757TIP3    H217236   0.832   6.618   0.992
 5758TIP3   OH217237   5.378   1.007   4.979
 5758TIP3    H117238   5.382   1.006   5.075
 5758TIP3    H217239   5.464   0.976   4.951
 5759TIP3   OH217240   5.206   0.949   2.097
 5759TIP3    H117241   5.232   0.969   2.007
 5759TIP3    H217242   5.112   0.931   2.092
 5760TIP3   OH217243   2.893   2.304   5.426
 5760TIP3    H117244   2.962   2.293   5.360
 5760TIP3    H217245   2.812   2.286   5.379
 5761TIP3   OH217246   6.944   3.170   4.837
 5761TIP3    H117247   6.998   3.249   4.834
 5761TIP3    H217248   7.005   3.099   4.819
 5762TIP3   OH217249   3.029   3.023   5.771
 5762TIP3    H117250   3.098   3.090   5.775
 5762TIP3    H217251   3.077   2.941   5.756
 5763TIP3   OH217252   5.727   6.769   2.081
 5763TIP3    H117253   5.664   6.812   2.023
 5763TIP3    H217254   5.718   6.676   2.061
 5764TIP3   OH217255   4.491   3.368   1.726
 5764TIP3    H117256   4.486   3.388   1.819
 5764TIP3    H217257   4.480   3.273   1.722
 5765TIP3   OH217258   4.372   1.125   5.223
 5765TIP3    H117259   4.341   1.158   5.308
 5765TIP3    H217260   4.309   1.057   5.200
 5766TIP3   OH217261   4.222   5.831   0.572
 5766TIP3    H117262   4.262   5.892   0.510
 5766TIP3    H217263   4.296   5.797   0.622
 5767TIP3   OH217264   3.799   1.040   4.749
 5767TIP3    H117265   3.728   1.049   4.812
 5767TIP3    H217266   3.858   0.976   4.788
 5768TIP3   OH217267   1.841   0.606   4.448
 5768TIP3    H117268   1.848   0.556   4.529
 5768TIP3    H217269   1.777   0.558   4.396
 5769TIP3   OH217270   2.269   3.429   3.802
 5769TIP3    H117271   2.211   3.385   3.739
 5769TIP3    H217272   2.351   3.381   3.796
 5770TIP3   OH217273   4.596   4.529   2.247
 5770TIP3    H117274   4.511   4.518   2.206
 5770TIP3    H217275   4.659   4.508   2.178
 5771TIP3   OH217276   1.324   4.204  -0.012
 5771TIP3    H117277   1.390   4.195   0.057
 5771TIP3    H217278   1.242   4.174   0.028
 5772TIP3   OH217279   1.966   2.474   2.456
 5772TIP3    H117280   1.892   2.466   2.397
 5772TIP3    H217281   1.994   2.384   2.473
 5773TIP3   OH217282   3.032   5.785   0.651
 5773TIP3    H117283   3.099   5.846   0.682
 5773TIP3    H217284   3.003   5.739   0.729
 5774TIP3   OH217285   1.372   0.198   1.727
 5774TIP3    H117286   1.453   0.161   1.694
 5774TIP3    H217287   1.382   0.293   1.717
 5775TIP3   OH217288   0.295   4.362   5.758
 5775TIP3    H117289   0.347   4.415   5.817
 5775TIP3    H217290   0.269   4.285   5.810
 5776TIP3   OH217291   1.908   0.892   1.043
 5776TIP3    H117292   1.888   0.946   0.966
 5776TIP3    H217293   1.874   0.805   1.021
 5777TIP3   OH217294   0.076   2.403   3.813
 5777TIP3    H117295   0.041   2.482   3.854
 5777TIP3    H217296   0.162   2.391   3.853
 5778TIP3   OH217297   1.533   3.632   4.867
 5778TIP3    H117298   1.570   3.718   4.883
 5778TIP3    H217299   1.441   3.649   4.845
 5779TIP3   OH217300   3.899   5.978   3.138
 5779TIP3    H117301   3.806   6.003   3.141
 5779TIP3    H217302   3.905   5.919   3.062
 5780TIP3   OH217303   2.418   1.105   1.708
 5780TIP3    H117304   2.441   1.161   1.782
 5780TIP3    H217305   2.354   1.156   1.658
 5781TIP3   OH217306   1.561   4.043   1.344
 5781TIP3    H117307   1.497   4.113   1.332
 5781TIP3    H217308   1.509   3.964   1.355
 5782TIP3   OH217309   1.701   5.978   1.171
 5782TIP3    H117310   1.785   6.023   1.166
 5782TIP3    H217311   1.669   5.997   1.260
 5783TIP3   OH217312   1.793   0.001   1.132
 5783TIP3    H117313   1.745  -0.079   1.155
 5783TIP3    H217314   1.728   0.056   1.089
 5784TIP3   OH217315   5.854   6.706   0.534
 5784TIP3    H117316   5.948   6.725   0.536
 5784TIP3    H217317   5.836   6.688   0.442
 5785TIP3   OH217318   0.444   2.066   1.241
 5785TIP3    H117319   0.421   2.000   1.306
 5785TIP3    H217320   0.481   2.138   1.292
 5786TIP3   OH217321   7.083   3.669   5.783
 5786TIP3    H117322   7.006   3.690   5.836
 5786TIP3    H217323   7.079   3.731   5.710
 5787TIP3   OH217324   5.897   3.328   3.749
 5787TIP3    H117325   5.904   3.363   3.661
 5787TIP3    H217326   5.927   3.399   3.806
 5788TIP3   OH217327   1.183   0.677   1.703
 5788TIP3    H117328   1.172   0.716   1.617
 5788TIP3    H217329   1.239   0.738   1.751
 5789TIP3   OH217330   6.635   1.159   0.884
 5789TIP3    H117331   6.672   1.235   0.927
 5789TIP3    H217332   6.572   1.195   0.821
 5790TIP3   OH217333   6.235   6.288   5.217
 5790TIP3    H117334   6.219   6.278   5.311
 5790TIP3    H217335   6.151   6.269   5.176
 5791TIP3   OH217336   1.519   6.481   1.543
 5791TIP3    H117337   1.438   6.445   1.580
 5791TIP3    H217338   1.520   6.449   1.453
 5792TIP3   OH217339   2.096   4.474   2.094
 5792TIP3    H117340   2.047   4.471   2.176
 5792TIP3    H217341   2.181   4.436   2.115
 5793TIP3   OH217342   3.734  -0.025   4.831
 5793TIP3    H117343   3.670  -0.062   4.769
 5793TIP3    H217344   3.728   0.069   4.818
 5794TIP3   OH217345   4.724   0.037   5.815
 5794TIP3    H117346   4.647  -0.019   5.820
 5794TIP3    H217347   4.736   0.069   5.904
 5795TIP3   OH217348   2.217   4.829   2.736
 5795TIP3    H117349   2.193   4.920   2.757
 5795TIP3    H217350   2.312   4.826   2.746
 5796TIP3   OH217351   0.499   5.055   2.862
 5796TIP3    H117352   0.450   4.987   2.814
 5796TIP3    H217353   0.473   5.137   2.820
 5797TIP3   OH217354   3.052   3.351   5.621
 5797TIP3    H117355   2.986   3.323   5.558
 5797TIP3    H217356   3.037   3.446   5.631
 5798TIP3   OH217357   3.950   5.156   1.391
 5798TIP3    H117358   3.921   5.069   1.364
 5798TIP3    H217359   3.925   5.163   1.483
 5799TIP3   OH217360   1.891   5.894   0.030
 5799TIP3    H117361   1.815   5.843   0.002
 5799TIP3    H217362   1.939   5.912  -0.051
 5800TIP3   OH217363   2.606   1.941   5.405
 5800TIP3    H117364   2.512   1.926   5.410
 5800TIP3    H217365   2.644   1.853   5.402
 5801TIP3   OH217366   6.513   4.160   1.260
 5801TIP3    H117367   6.503   4.253   1.283
 5801TIP3    H217368   6.572   4.161   1.185
 5802TIP3   OH217369   3.159   3.160   0.266
 5802TIP3    H117370   3.082   3.139   0.213
 5802TIP3    H217371   3.157   3.256   0.274
 5803TIP3   OH217372   3.559   3.166   5.785
 5803TIP3    H117373   3.506   3.219   5.726
 5803TIP3    H217374   3.571   3.083   5.738
 5804TIP3   OH217375   4.702   5.862   4.635
 5804TIP3    H117376   4.725   5.785   4.583
 5804TIP3    H217377   4.741   5.936   4.588
 5805TIP3   OH217378   4.432   1.038   0.262
 5805TIP3    H117379   4.398   1.094   0.192
 5805TIP3    H217380   4.357   1.020   0.318
 5806TIP3   OH217381   3.868   2.907   3.401
 5806TIP3    H117382   3.905   2.894   3.314
 5806TIP3    H217383   3.793   2.847   3.405
 5807TIP3   OH217384   5.851   4.726   5.055
 5807TIP3    H117385   5.775   4.689   5.099
 5807TIP3    H217386   5.898   4.774   5.124
 5808TIP3   OH217387   2.192   2.595   2.323
 5808TIP3    H117388   2.188   2.524   2.259
 5808TIP3    H217389   2.101   2.609   2.350
 5809TIP3   OH217390   2.578   0.335   0.519
 5809TIP3    H117391   2.660   0.289   0.536
 5809TIP3    H217392   2.511   0.278   0.556
 5810TIP3   OH217393   0.460   2.967   1.018
 5810TIP3    H117394   0.446   3.061   1.003
 5810TIP3    H217395   0.513   2.938   0.944
 5811TIP3   OH217396   7.192   4.607   2.946
 5811TIP3    H117397   7.210   4.517   2.916
 5811TIP3    H217398   7.277   4.651   2.941
 5812TIP3   OH217399   1.461   0.367   3.726
 5812TIP3    H117400   1.535   0.387   3.783
 5812TIP3    H217401   1.434   0.279   3.753
 5813TIP3   OH217402   0.478   2.940   1.320
 5813TIP3    H117403   0.468   3.003   1.249
 5813TIP3    H217404   0.396   2.890   1.320
 5814TIP3   OH217405   2.704   6.622   1.180
 5814TIP3    H117406   2.707   6.639   1.086
 5814TIP3    H217407   2.752   6.696   1.219
 5815TIP3   OH217408   7.167   3.959   1.685
 5815TIP3    H117409   7.182   3.890   1.621
 5815TIP3    H217410   7.076   3.984   1.672
 5816TIP3   OH217411   3.187   5.938   1.306
 5816TIP3    H117412   3.141   5.937   1.390
 5816TIP3    H217413   3.249   6.010   1.313
 5817TIP3   OH217414   7.128   1.921   4.642
 5817TIP3    H117415   7.039   1.889   4.653
 5817TIP3    H217416   7.145   1.972   4.721
 5818TIP3   OH217417   4.066   1.956   5.299
 5818TIP3    H117418   4.074   2.039   5.346
 5818TIP3    H217419   4.050   1.891   5.368
 5819TIP3   OH217420   2.891   0.343   5.001
 5819TIP3    H117421   2.810   0.388   4.975
 5819TIP3    H217422   2.910   0.376   5.088
 5820TIP3   OH217423   3.975   6.368   5.043
 5820TIP3    H117424   3.943   6.407   4.962
 5820TIP3    H217425   4.070   6.373   5.036
 5821TIP3   OH217426   6.790   4.334   0.379
 5821TIP3    H117427   6.861   4.380   0.335
 5821TIP3    H217428   6.769   4.261   0.321
 5822TIP3   OH217429   2.858   6.277   1.296
 5822TIP3    H117430   2.820   6.288   1.209
 5822TIP3    H217431   2.816   6.345   1.349
 5823TIP3   OH217432   4.550   1.307   4.820
 5823TIP3    H117433   4.633   1.278   4.858
 5823TIP3    H217434   4.483   1.266   4.874
 5824TIP3   OH217435   6.688   3.774   4.467
 5824TIP3    H117436   6.685   3.870   4.464
 5824TIP3    H217437   6.676   3.748   4.375
 5825TIP3   OH217438   2.370   5.358   1.852
 5825TIP3    H117439   2.352   5.280   1.799
 5825TIP3    H217440   2.455   5.389   1.821
 5826TIP3   OH217441   6.382   5.276   3.731
 5826TIP3    H117442   6.337   5.344   3.782
 5826TIP3    H217443   6.351   5.194   3.769
 5827TIP3   OH217444   4.800   5.761   0.733
 5827TIP3    H117445   4.894   5.764   0.716
 5827TIP3    H217446   4.776   5.851   0.751
 5828TIP3   OH217447   1.074   5.425   1.235
 5828TIP3    H117448   0.985   5.434   1.202
 5828TIP3    H217449   1.110   5.351   1.187
 5829TIP3   OH217450   6.347   3.024   4.429
 5829TIP3    H117451   6.320   2.958   4.365
 5829TIP3    H217452   6.429   2.989   4.466
 5830TIP3   OH217453   1.655   6.491   1.019
 5830TIP3    H117454   1.741   6.504   0.979
 5830TIP3    H217455   1.648   6.561   1.084
 5831TIP3   OH217456   6.367   6.110   0.569
 5831TIP3    H117457   6.321   6.193   0.561
 5831TIP3    H217458   6.415   6.101   0.487
 5832TIP3   OH217459   4.641   4.735   0.129
 5832TIP3    H117460   4.576   4.794   0.089
 5832TIP3    H217461   4.589   4.663   0.165
 5833TIP3   OH217462   3.343   1.225   4.972
 5833TIP3    H117463   3.262   1.187   5.006
 5833TIP3    H217464   3.339   1.317   5.000
 5834TIP3   OH217465   0.833   0.042   1.193
 5834TIP3    H117466   0.831  -0.046   1.231
 5834TIP3    H217467   0.851   0.100   1.267
 5835TIP3   OH217468   5.397   5.216   5.247
 5835TIP3    H117469   5.373   5.133   5.206
 5835TIP3    H217470   5.313   5.260   5.261
 5836TIP3   OH217471   6.049   0.542   4.934
 5836TIP3    H117472   5.986   0.539   5.006
 5836TIP3    H217473   6.128   0.502   4.970
 5837TIP3   OH217474   5.654   5.183   1.186
 5837TIP3    H117475   5.583   5.246   1.176
 5837TIP3    H217476   5.683   5.165   1.097
 5838TIP3   OH217477   5.380   5.801   3.175
 5838TIP3    H117478   5.385   5.712   3.141
 5838TIP3    H217479   5.458   5.811   3.229
 5839TIP3   OH217480   0.138   3.780   0.226
 5839TIP3    H117481   0.220   3.795   0.273
 5839TIP3    H217482   0.162   3.722   0.154
 5840TIP3   OH217483   5.355   0.967   5.683
 5840TIP3    H117484   5.313   0.882   5.696
 5840TIP3    H217485   5.301   1.012   5.619
 5841TIP3   OH217486   2.611   2.854   4.933
 5841TIP3    H117487   2.569   2.894   4.857
 5841TIP3    H217488   2.645   2.928   4.984
 5842TIP3   OH217489   4.299   0.778   3.853
 5842TIP3    H117490   4.377   0.723   3.856
 5842TIP3    H217491   4.306   0.824   3.769
 5843TIP3   OH217492   0.906   6.463   1.807
 5843TIP3    H117493   0.955   6.499   1.882
 5843TIP3    H217494   0.890   6.372   1.831
 5844TIP3   OH217495   5.051   3.265   5.578
 5844TIP3    H117496   5.119   3.202   5.602
 5844TIP3    H217497   4.988   3.214   5.528
 5845TIP3   OH217498   5.918   0.158   3.606
 5845TIP3    H117499   5.907   0.077   3.655
 5845TIP3    H217500   5.935   0.225   3.673
 5846TIP3   OH217501   5.651   4.195   2.943
 5846TIP3    H117502   5.575   4.253   2.949
 5846TIP3    H217503   5.686   4.210   2.855
 5847TIP3   OH217504   5.572   1.757   2.123
 5847TIP3    H117505   5.509   1.685   2.109
 5847TIP3    H217506   5.581   1.763   2.218
 5848TIP3   OH217507   6.226   2.726   2.500
 5848TIP3    H117508   6.184   2.741   2.415
 5848TIP3    H217509   6.256   2.636   2.496
 5849TIP3   OH217510   0.534   1.296   3.329
 5849TIP3    H117511   0.575   1.360   3.272
 5849TIP3    H217512   0.445   1.328   3.343
 5850TIP3   OH217513   0.843   4.967   3.671
 5850TIP3    H117514   0.918   5.000   3.719
 5850TIP3    H217515   0.879   4.899   3.614
 5851TIP3   OH217516   2.034   3.758   3.840
 5851TIP3    H117517   2.062   3.758   3.748
 5851TIP3    H217518   2.076   3.835   3.878
 5852TIP3   OH217519   1.426   2.118   3.394
 5852TIP3    H117520   1.434   2.028   3.427
 5852TIP3    H217521   1.515   2.142   3.369
 5853TIP3   OH217522   5.276   6.093   0.552
 5853TIP3    H117523   5.194   6.043   0.555
 5853TIP3    H217524   5.317   6.067   0.469
 5854TIP3   OH217525   1.629   2.246   1.413
 5854TIP3    H117526   1.648   2.323   1.467
 5854TIP3    H217527   1.710   2.230   1.365
 5855TIP3   OH217528   2.966   1.255   4.160
 5855TIP3    H117529   2.949   1.348   4.144
 5855TIP3    H217530   2.883   1.221   4.194
 5856TIP3   OH217531   4.690   0.321   4.089
 5856TIP3    H117532   4.605   0.365   4.086
 5856TIP3    H217533   4.671   0.231   4.060
 5857TIP3   OH217534   6.784   2.352   3.074
 5857TIP3    H117535   6.796   2.261   3.103
 5857TIP3    H217536   6.791   2.404   3.154
 5858TIP3   OH217537   3.341   3.504   2.920
 5858TIP3    H117538   3.307   3.518   3.008
 5858TIP3    H217539   3.264   3.510   2.863
 5859TIP3   OH217540   2.332   3.696   4.704
 5859TIP3    H117541   2.321   3.689   4.798
 5859TIP3    H217542   2.426   3.707   4.691
 5860TIP3   OH217543   5.253   5.747   0.593
 5860TIP3    H117544   5.195   5.822   0.580
 5860TIP3    H217545   5.217   5.678   0.537
 5861TIP3   OH217546   3.196   2.608   1.905
 5861TIP3    H117547   3.207   2.523   1.861
 5861TIP3    H217548   3.142   2.589   1.981
 5862TIP3   OH217549   3.347   1.748   5.311
 5862TIP3    H117550   3.310   1.711   5.391
 5862TIP3    H217551   3.401   1.678   5.274
 5863TIP3   OH217552   0.298   5.458   3.843
 5863TIP3    H117553   0.269   5.512   3.916
 5863TIP3    H217554   0.386   5.490   3.822
 5864TIP3   OH217555   0.952   6.558   2.627
 5864TIP3    H117556   0.998   6.554   2.711
 5864TIP3    H217557   0.894   6.482   2.628
 5865TIP3   OH217558   0.956   2.506   0.176
 5865TIP3    H117559   1.036   2.481   0.224
 5865TIP3    H217560   0.896   2.434   0.190
 5866TIP3   OH217561   6.247   1.815   4.315
 5866TIP3    H117562   6.224   1.908   4.322
 5866TIP3    H217563   6.197   1.784   4.239
 5867TIP3   OH217564   4.047   3.795   3.063
 5867TIP3    H117565   4.076   3.877   3.102
 5867TIP3    H217566   4.078   3.799   2.972
 5868TIP3   OH217567   3.814   0.224   3.003
 5868TIP3    H117568   3.858   0.265   3.077
 5868TIP3    H217569   3.804   0.132   3.028
 5869TIP3   OH217570   4.407   4.653   5.097
 5869TIP3    H117571   4.316   4.670   5.071
 5869TIP3    H217572   4.437   4.585   5.037
 5870TIP3   OH217573   5.670   3.324   3.288
 5870TIP3    H117574   5.746   3.266   3.288
 5870TIP3    H217575   5.697   3.399   3.236
 5871TIP3   OH217576   6.039   4.808   4.461
 5871TIP3    H117577   6.088   4.868   4.517
 5871TIP3    H217578   6.048   4.844   4.373
 5872TIP3   OH217579   0.070   4.838   0.712
 5872TIP3    H117580  -0.015   4.863   0.676
 5872TIP3    H217581   0.054   4.828   0.806
 5873TIP3   OH217582   0.383   4.192   1.939
 5873TIP3    H117583   0.338   4.118   1.979
 5873TIP3    H217584   0.355   4.190   1.847
 5874TIP3   OH217585   3.730   2.111   5.336
 5874TIP3    H117586   3.785   2.137   5.261
 5874TIP3    H217587   3.740   2.182   5.399
 5875TIP3   OH217588   1.513   1.917   4.121
 5875TIP3    H117589   1.443   1.917   4.187
 5875TIP3    H217590   1.561   1.998   4.137
 5876TIP3   OH217591   1.461   6.588   5.844
 5876TIP3    H117592   1.464   6.539   5.926
 5876TIP3    H217593   1.534   6.552   5.792
 5877TIP3   OH217594   0.758   4.875   1.084
 5877TIP3    H117595   0.739   4.788   1.050
 5877TIP3    H217596   0.768   4.930   1.006
 5878TIP3   OH217597   2.481   6.561   2.646
 5878TIP3    H117598   2.506   6.469   2.647
 5878TIP3    H217599   2.388   6.561   2.624
 5879TIP3   OH217600   3.239   5.694   0.463
 5879TIP3    H117601   3.274   5.773   0.421
 5879TIP3    H217602   3.172   5.726   0.524
 5880TIP3   OH217603   4.669   2.144   1.654
 5880TIP3    H117604   4.754   2.188   1.657
 5880TIP3    H217605   4.614   2.195   1.713
 5881TIP3   OH217606   7.156   0.270   5.821
 5881TIP3    H117607   7.201   0.249   5.903
 5881TIP3    H217608   7.068   0.234   5.832
 5882TIP3   OH217609   6.578   3.535   1.194
 5882TIP3    H117610   6.488   3.504   1.197
 5882TIP3    H217611   6.590   3.582   1.276
 5883TIP3   OH217612   4.687   5.936   4.238
 5883TIP3    H117613   4.731   5.961   4.319
 5883TIP3    H217614   4.612   5.995   4.232
 5884TIP3   OH217615   4.698   1.653   1.361
 5884TIP3    H117616   4.628   1.709   1.327
 5884TIP3    H217617   4.726   1.696   1.442
 5885TIP3   OH217618   6.980   0.561  -0.012
 5885TIP3    H117619   7.027   0.628   0.037
 5885TIP3    H217620   7.002   0.479   0.031
 5886TIP3   OH217621   1.291   1.235   2.774
 5886TIP3    H117622   1.260   1.231   2.864
 5886TIP3    H217623   1.296   1.143   2.746
 5887TIP3   OH217624   0.661   5.952   5.385
 5887TIP3    H117625   0.690   6.043   5.383
 5887TIP3    H217626   0.572   5.955   5.420
 5888TIP3   OH217627   0.813   0.986   0.893
 5888TIP3    H117628   0.865   0.967   0.815
 5888TIP3    H217629   0.876   1.024   0.954
 5889TIP3   OH217630   5.608   3.010   2.422
 5889TIP3    H117631   5.680   2.984   2.365
 5889TIP3    H217632   5.530   3.001   2.367
 5890TIP3   OH217633   2.655   3.661   1.539
 5890TIP3    H117634   2.608   3.608   1.605
 5890TIP3    H217635   2.696   3.731   1.590
 5891TIP3   OH217636  -0.003   3.394   0.440
 5891TIP3    H117637   0.081   3.413   0.481
 5891TIP3    H217638   0.014   3.319   0.384
 5892TIP3   OH217639   0.887   0.403   0.746
 5892TIP3    H117640   0.982   0.389   0.754
 5892TIP3    H217641   0.850   0.362   0.824
 5893TIP3   OH217642   0.107   1.419   4.311
 5893TIP3    H117643   0.129   1.512   4.313
 5893TIP3    H217644   0.181   1.378   4.264
 5894TIP3   OH217645   5.050   2.320   5.428
 5894TIP3    H117646   5.021   2.382   5.360
 5894TIP3    H217647   4.971   2.302   5.479
 5895TIP3   OH217648   6.590   4.920   1.855
 5895TIP3    H117649   6.592   4.912   1.950
 5895TIP3    H217650   6.682   4.924   1.828
 5896TIP3   OH217651   6.766   0.083   3.136
 5896TIP3    H117652   6.676   0.081   3.167
 5896TIP3    H217653   6.784   0.176   3.121
 5897TIP3   OH217654   6.194   3.725   2.517
 5897TIP3    H117655   6.210   3.640   2.557
 5897TIP3    H217656   6.168   3.705   2.427
 5898TIP3   OH217657   6.116   5.316   3.015
 5898TIP3    H117658   6.175   5.243   3.035
 5898TIP3    H217659   6.167   5.394   3.036
 5899TIP3   OH217660   6.648   2.647   1.199
 5899TIP3    H117661   6.720   2.584   1.196
 5899TIP3    H217662   6.600   2.633   1.118
 5900TIP3   OH217663   0.054   1.590   3.700
 5900TIP3    H117664   0.103   1.668   3.674
 5900TIP3    H217665   0.037   1.601   3.794
 5901TIP3   OH217666   3.579   3.276   5.321
 5901TIP3    H117667   3.672   3.253   5.317
 5901TIP3    H217668   3.549   3.271   5.230
 5902TIP3   OH217669   2.706   5.180   5.643
 5902TIP3    H117670   2.672   5.193   5.554
 5902TIP3    H217671   2.785   5.128   5.630
 5903TIP3   OH217672   1.307   0.907   3.008
 5903TIP3    H117673   1.383   0.957   3.039
 5903TIP3    H217674   1.339   0.817   3.002
 5904TIP3   OH217675   5.958   3.436   5.840
 5904TIP3    H117676   5.931   3.398   5.923
 5904TIP3    H217677   6.013   3.368   5.799
 5905TIP3   OH217678   1.018   0.569   1.395
 5905TIP3    H117679   0.974   0.651   1.375
 5905TIP3    H217680   1.111   0.589   1.392
 5906TIP3   OH217681   5.777   5.178   0.918
 5906TIP3    H117682   5.851   5.117   0.917
 5906TIP3    H217683   5.713   5.138   0.859
 5907TIP3   OH217684   5.654   3.637   1.700
 5907TIP3    H117685   5.734   3.644   1.752
 5907TIP3    H217686   5.615   3.724   1.703
 5908TIP3   OH217687   1.946   6.540   1.859
 5908TIP3    H117688   1.875   6.498   1.811
 5908TIP3    H217689   1.917   6.630   1.871
 5909TIP3   OH217690   2.333   5.688   2.001
 5909TIP3    H117691   2.286   5.616   1.959
 5909TIP3    H217692   2.266   5.754   2.016
 5910TIP3   OH217693   5.022   6.056   5.198
 5910TIP3    H117694   5.087   6.001   5.155
 5910TIP3    H217695   5.051   6.062   5.289
 5911TIP3   OH217696   5.557   2.702   4.880
 5911TIP3    H117697   5.509   2.776   4.917
 5911TIP3    H217698   5.627   2.684   4.943
 5912TIP3   OH217699   0.733   5.115   0.902
 5912TIP3    H117700   0.791   5.074   0.838
 5912TIP3    H217701   0.656   5.140   0.851
 5913TIP3   OH217702   4.501   2.483   5.167
 5913TIP3    H117703   4.495   2.460   5.260
 5913TIP3    H217704   4.463   2.408   5.121
 5914TIP3   OH217705   6.376   0.164   2.078
 5914TIP3    H117706   6.299   0.179   2.023
 5914TIP3    H217707   6.377   0.239   2.138
 5915TIP3   OH217708   0.163   1.404   1.857
 5915TIP3    H117709   0.132   1.341   1.922
 5915TIP3    H217710   0.165   1.355   1.775
 5916TIP3   OH217711   6.941   5.244   3.612
 5916TIP3    H117712   6.848   5.223   3.620
 5916TIP3    H217713   6.977   5.225   3.698
 5917TIP3   OH217714   5.774   2.745   2.168
 5917TIP3    H117715   5.733   2.715   2.249
 5917TIP3    H217716   5.863   2.771   2.195
 5918TIP3   OH217717   4.611   1.443   3.403
 5918TIP3    H117718   4.695   1.489   3.401
 5918TIP3    H217719   4.549   1.502   3.361
 5919TIP3   OH217720   5.085   5.675   2.822
 5919TIP3    H117721   5.094   5.580   2.827
 5919TIP3    H217722   5.170   5.705   2.790
 5920TIP3   OH217723   0.250   3.266   5.173
 5920TIP3    H117724   0.284   3.217   5.097
 5920TIP3    H217725   0.315   3.333   5.189
 5921TIP3   OH217726   2.046   6.446   3.204
 5921TIP3    H117727   2.003   6.497   3.273
 5921TIP3    H217728   2.000   6.362   3.204
 5922TIP3   OH217729   4.014   1.191   0.964
 5922TIP3    H117730   3.984   1.205   0.874
 5922TIP3    H217731   4.029   1.097   0.970
 5923TIP3   OH217732   7.132   4.513   2.218
 5923TIP3    H117733   7.071   4.539   2.287
 5923TIP3    H217734   7.080   4.459   2.158
 5924TIP3   OH217735   1.525   2.140   1.143
 5924TIP3    H117736   1.552   2.207   1.205
 5924TIP3    H217737   1.601   2.126   1.087
 5925TIP3   OH217738   6.123   3.673   2.269
 5925TIP3    H117739   6.102   3.581   2.253
 5925TIP3    H217740   6.070   3.720   2.205
 5926TIP3   OH217741   3.099   3.689   5.115
 5926TIP3    H117742   3.174   3.705   5.058
 5926TIP3    H217743   3.039   3.637   5.061
 5927TIP3   OH217744   6.100   2.441   1.904
 5927TIP3    H117745   6.006   2.456   1.917
 5927TIP3    H217746   6.140   2.525   1.923
 5928TIP3   OH217747   0.432   3.892   3.458
 5928TIP3    H117748   0.450   3.924   3.546
 5928TIP3    H217749   0.402   3.969   3.410
 5929TIP3   OH217750   3.494   3.055   2.010
 5929TIP3    H117751   3.505   3.126   2.073
 5929TIP3    H217752   3.534   3.088   1.930
 5930TIP3   OH217753   3.195   1.089   2.121
 5930TIP3    H117754   3.278   1.123   2.088
 5930TIP3    H217755   3.175   1.144   2.197
 5931TIP3   OH217756   6.997   4.928   1.180
 5931TIP3    H117757   7.024   4.979   1.256
 5931TIP3    H217758   6.925   4.978   1.143
 5932TIP3   OH217759   3.897   5.755   4.844
 5932TIP3    H117760   3.887   5.666   4.878
 5932TIP3    H217761   3.838   5.808   4.899
 5933TIP3   OH217762   5.709   4.189   0.881
 5933TIP3    H117763   5.797   4.158   0.901
 5933TIP3    H217764   5.681   4.235   0.960
 5934TIP3   OH217765   0.802   0.710   1.511
 5934TIP3    H117766   0.854   0.785   1.482
 5934TIP3    H217767   0.733   0.748   1.565
 5935TIP3   OH217768   6.857   0.562   4.003
 5935TIP3    H117769   6.904   0.482   3.981
 5935TIP3    H217770   6.802   0.538   4.078
 5936TIP3   OH217771   2.316   2.392   3.462
 5936TIP3    H117772   2.387   2.331   3.446
 5936TIP3    H217773   2.244   2.338   3.496
 5937TIP3   OH217774   5.623   2.615   2.746
 5937TIP3    H117775   5.715   2.624   2.722
 5937TIP3    H217776   5.595   2.533   2.704
 5938TIP3   OH217777   6.954   3.006   2.937
 5938TIP3    H117778   6.988   2.927   2.896
 5938TIP3    H217779   6.967   3.075   2.871
 5939TIP3   OH217780   0.406   4.519   1.727
 5939TIP3    H117781   0.466   4.533   1.654
 5939TIP3    H217782   0.359   4.438   1.704
 5940TIP3   OH217783   3.684   4.455   2.868
 5940TIP3    H117784   3.674   4.396   2.942
 5940TIP3    H217785   3.679   4.399   2.791
 5941TIP3   OH217786   6.916   2.745   3.953
 5941TIP3    H117787   6.950   2.830   3.980
 5941TIP3    H217788   6.954   2.729   3.867
 5942TIP3   OH217789   1.987   0.682   2.529
 5942TIP3    H117790   1.904   0.638   2.544
 5942TIP3    H217791   1.983   0.711   2.437
 5943TIP3   OH217792   6.988   3.575   3.859
 5943TIP3    H117793   6.937   3.598   3.936
 5943TIP3    H217794   6.965   3.642   3.794
 5944TIP3   OH217795   1.621   0.919   0.903
 5944TIP3    H117796   1.619   0.824   0.890
 5944TIP3    H217797   1.558   0.935   0.973
 5945TIP3   OH217798   4.752   3.378   3.818
 5945TIP3    H117799   4.802   3.382   3.899
 5945TIP3    H217800   4.802   3.320   3.761
 5946TIP3   OH217801   2.686   4.914   0.854
 5946TIP3    H117802   2.624   4.985   0.868
 5946TIP3    H217803   2.641   4.852   0.798
 5947TIP3   OH217804   1.400   1.209   2.386
 5947TIP3    H117805   1.402   1.115   2.366
 5947TIP3    H217806   1.309   1.226   2.412
 5948TIP3   OH217807   4.223   4.894   0.148
 5948TIP3    H117808   4.287   4.965   0.144
 5948TIP3    H217809   4.152   4.922   0.090
 5949TIP3   OH217810   5.164   0.145   5.239
 5949TIP3    H117811   5.152   0.137   5.334
 5949TIP3    H217812   5.189   0.236   5.225
 5950TIP3   OH217813   1.652   2.642   4.905
 5950TIP3    H117814   1.645   2.618   4.998
 5950TIP3    H217815   1.721   2.585   4.871
 5951TIP3   OH217816  -0.052   6.340   2.368
 5951TIP3    H117817   0.029   6.293   2.347
 5951TIP3    H217818  -0.070   6.393   2.291
 5952TIP3   OH217819   2.753   2.031   2.505
 5952TIP3    H117820   2.720   1.942   2.504
 5952TIP3    H217821   2.818   2.034   2.435
 5953TIP3   OH217822   3.364   4.184   3.272
 5953TIP3    H117823   3.303   4.123   3.231
 5953TIP3    H217824   3.326   4.270   3.259
 5954TIP3   OH217825   3.696   4.752   2.221
 5954TIP3    H117826   3.718   4.833   2.266
 5954TIP3    H217827   3.778   4.725   2.179
 5955TIP3   OH217828   6.629   2.935   1.629
 5955TIP3    H117829   6.629   2.904   1.538
 5955TIP3    H217830   6.546   2.904   1.665
 5956TIP3   OH217831   1.671   5.618   1.212
 5956TIP3    H117832   1.669   5.705   1.252
 5956TIP3    H217833   1.587   5.611   1.165
 5957TIP3   OH217834   5.056   0.293   2.445
 5957TIP3    H117835   5.112   0.226   2.484
 5957TIP3    H217836   5.025   0.255   2.363
 5958TIP3   OH217837   4.219   5.111   0.418
 5958TIP3    H117838   4.287   5.044   0.413
 5958TIP3    H217839   4.267   5.194   0.413
 5959TIP3   OH217840   6.490   0.412   2.551
 5959TIP3    H117841   6.560   0.348   2.537
 5959TIP3    H217842   6.520   0.490   2.505
 5960TIP3   OH217843   1.941   4.428   1.659
 5960TIP3    H117844   1.972   4.386   1.740
 5960TIP3    H217845   2.003   4.399   1.593
 5961TIP3   OH217846   5.623   0.930   0.916
 5961TIP3    H117847   5.529   0.920   0.933
 5961TIP3    H217848   5.635   0.894   0.828
 5962TIP3   OH217849   3.371   3.845   3.348
 5962TIP3    H117850   3.281   3.815   3.360
 5962TIP3    H217851   3.376   3.869   3.255
 5963TIP3   OH217852   5.362   3.146   0.658
 5963TIP3    H117853   5.349   3.219   0.597
 5963TIP3    H217854   5.457   3.132   0.658
 5964TIP3   OH217855   4.554   4.917   0.427
 5964TIP3    H117856   4.526   4.955   0.510
 5964TIP3    H217857   4.568   4.992   0.369
 5965TIP3   OH217858   3.282   4.468   2.861
 5965TIP3    H117859   3.292   4.380   2.898
 5965TIP3    H217860   3.236   4.453   2.778
 5966TIP3   OH217861   0.385   5.028   3.591
 5966TIP3    H117862   0.453   5.062   3.649
 5966TIP3    H217863   0.303   5.056   3.630
 5967TIP3   OH217864   2.265   0.944   2.790
 5967TIP3    H117865   2.217   1.026   2.801
 5967TIP3    H217866   2.197   0.877   2.783
 5968TIP3   OH217867   0.889   3.879   4.002
 5968TIP3    H117868   0.919   3.959   4.045
 5968TIP3    H217869   0.957   3.861   3.937
 5969TIP3   OH217870   3.606   6.437   2.946
 5969TIP3    H117871   3.522   6.450   2.989
 5969TIP3    H217872   3.599   6.487   2.865
 5970TIP3   OH217873   5.630   2.163   0.723
 5970TIP3    H117874   5.624   2.241   0.667
 5970TIP3    H217875   5.723   2.144   0.727
 5971TIP3   OH217876   2.407   2.506   0.810
 5971TIP3    H117877   2.433   2.497   0.902
 5971TIP3    H217878   2.461   2.442   0.764
 5972TIP3   OH217879   7.110   2.330   2.321
 5972TIP3    H117880   7.075   2.287   2.399
 5972TIP3    H217881   7.035   2.337   2.262
 5973TIP3   OH217882   6.101   5.724   3.981
 5973TIP3    H117883   6.172   5.770   4.025
 5973TIP3    H217884   6.023   5.747   4.030
 5974TIP3   OH217885   4.278   2.825   1.407
 5974TIP3    H117886   4.206   2.883   1.383
 5974TIP3    H217887   4.265   2.747   1.354
 5975TIP3   OH217888   7.058   1.551   5.446
 5975TIP3    H117889   7.084   1.638   5.417
 5975TIP3    H217890   7.047   1.560   5.541
 5976TIP3   OH217891   3.427   5.034   5.463
 5976TIP3    H117892   3.371   4.957   5.472
 5976TIP3    H217893   3.514   4.999   5.445
 5977TIP3   OH217894   2.062   5.413   3.111
 5977TIP3    H117895   1.968   5.399   3.113
 5977TIP3    H217896   2.089   5.407   3.203
 5978TIP3   OH217897   1.784   5.160   5.755
 5978TIP3    H117898   1.758   5.073   5.784
 5978TIP3    H217899   1.867   5.177   5.800
 5979TIP3   OH217900   4.842   6.101   3.158
 5979TIP3    H117901   4.755   6.074   3.186
 5979TIP3    H217902   4.883   6.021   3.124
 5980TIP3   OH217903   5.844   3.810   0.171
 5980TIP3    H117904   5.844   3.853   0.257
 5980TIP3    H217905   5.808   3.875   0.111
 5981TIP3   OH217906   0.094   1.991   1.225
 5981TIP3    H117907   0.127   2.061   1.169
 5981TIP3    H217908   0.125   2.012   1.313
 5982TIP3   OH217909   3.651   4.109   3.692
 5982TIP3    H117910   3.688   4.095   3.605
 5982TIP3    H217911   3.588   4.180   3.680
 5983TIP3   OH217912   0.972   5.710   0.248
 5983TIP3    H117913   0.988   5.803   0.266
 5983TIP3    H217914   0.984   5.702   0.153
 5984TIP3   OH217915   2.416   4.225   3.723
 5984TIP3    H117916   2.405   4.237   3.629
 5984TIP3    H217917   2.449   4.309   3.755
 5985TIP3   OH217918   2.342   0.664   4.057
 5985TIP3    H117919   2.387   0.738   4.098
 5985TIP3    H217920   2.263   0.702   4.019
 5986TIP3   OH217921   1.560   4.141   4.169
 5986TIP3    H117922   1.475   4.184   4.180
 5986TIP3    H217923   1.617   4.210   4.135
 5987TIP3   OH217924   2.699   6.423   0.841
 5987TIP3    H117925   2.665   6.404   0.754
 5987TIP3    H217926   2.732   6.513   0.835
 5988TIP3   OH217927   3.791   3.770   0.348
 5988TIP3    H117928   3.777   3.700   0.284
 5988TIP3    H217929   3.831   3.841   0.298
 5989TIP3   OH217930   0.931   4.457   1.609
 5989TIP3    H117931   0.896   4.539   1.643
 5989TIP3    H217932   0.862   4.393   1.626
 5990TIP3   OH217933   4.852   5.985   4.460
 5990TIP3    H117934   4.948   5.982   4.454
 5990TIP3    H217935   4.833   6.071   4.495
 5991TIP3   OH217936   4.398   2.112   0.215
 5991TIP3    H117937   4.356   2.027   0.202
 5991TIP3    H217938   4.489   2.098   0.186
 5992TIP3   OH217939   4.212   5.076   4.846
 5992TIP3    H117940   4.124   5.070   4.882
 5992TIP3    H217941   4.259   5.002   4.887
 5993TIP3   OH217942   6.724   1.227   1.559
 5993TIP3    H117943   6.694   1.313   1.589
 5993TIP3    H217944   6.670   1.209   1.481
 5994TIP3   OH217945   4.784   0.258   5.213
 5994TIP3    H117946   4.833   0.216   5.283
 5994TIP3    H217947   4.759   0.185   5.155
 5995TIP3   OH217948   4.751   1.132   5.452
 5995TIP3    H117949   4.833   1.177   5.434
 5995TIP3    H217950   4.777   1.053   5.500
 5996TIP3   OH217951   6.252   4.086   2.828
 5996TIP3    H117952   6.174   4.117   2.782
 5996TIP3    H217953   6.295   4.027   2.766
 5997TIP3   OH217954   6.509   4.095   1.576
 5997TIP3    H117955   6.583   4.149   1.603
 5997TIP3    H217956   6.513   4.094   1.481
 5998TIP3   OH217957   4.231   3.649   0.867
 5998TIP3    H117958   4.301   3.644   0.802
 5998TIP3    H217959   4.246   3.733   0.911
 5999TIP3   OH217960   2.211   2.368   5.579
 5999TIP3    H117961   2.258   2.285   5.579
 5999TIP3    H217962   2.126   2.348   5.618
 6000TIP3   OH217963   3.356   5.387   3.466
 6000TIP3    H117964   3.392   5.315   3.415
 6000TIP3    H217965   3.394   5.376   3.553
 6001TIP3   OH217966   5.275   0.344   2.782
 6001TIP3    H117967   5.275   0.368   2.689
 6001TIP3    H217968   5.300   0.424   2.828
 6002TIP3   OH217969   7.029   1.111   1.916
 6002TIP3    H117970   7.078   1.042   1.872
 6002TIP3    H217971   6.955   1.066   1.957
 6003TIP3   OH217972   1.384   1.591   5.082
 6003TIP3    H117973   1.466   1.640   5.094
 6003TIP3    H217974   1.361   1.604   4.990
 6004TIP3   OH217975   4.201   0.386   2.030
 6004TIP3    H117976   4.247   0.328   2.091
 6004TIP3    H217977   4.147   0.327   1.977
 6005TIP3   OH217978   1.317   1.033   5.420
 6005TIP3    H117979   1.356   0.946   5.433
 6005TIP3    H217980   1.268   1.050   5.500
 6006TIP3   OH217981   4.879   3.526   0.385
 6006TIP3    H117982   4.923   3.446   0.414
 6006TIP3    H217983   4.787   3.513   0.409
 6007TIP3   OH217984   0.325   2.302   0.646
 6007TIP3    H117985   0.297   2.390   0.669
 6007TIP3    H217986   0.419   2.302   0.663
 6008TIP3   OH217987   2.484   2.039   0.138
 6008TIP3    H117988   2.557   2.027   0.200
 6008TIP3    H217989   2.501   1.976   0.068
 6009TIP3   OH217990   0.714   3.193   2.622
 6009TIP3    H117991   0.661   3.221   2.696
 6009TIP3    H217992   0.777   3.132   2.659
 6010TIP3   OH217993   4.792   4.681   1.252
 6010TIP3    H117994   4.885   4.704   1.256
 6010TIP3    H217995   4.747   4.758   1.288
 6011TIP3   OH217996   6.936   4.212   2.973
 6011TIP3    H117997   6.998   4.263   3.025
 6011TIP3    H217998   6.933   4.127   3.016
 6012TIP3   OH217999   5.982   5.719   5.197
 6012TIP3    H118000   5.920   5.659   5.156
 6012TIP3    H218001   5.988   5.690   5.288
 6013TIP3   OH218002   6.050   1.621   4.753
 6013TIP3    H118003   6.089   1.534   4.754
 6013TIP3    H218004   6.124   1.680   4.737
 6014TIP3   OH218005   6.300   1.082   4.942
 6014TIP3    H118006   6.217   1.108   4.981
 6014TIP3    H218007   6.323   1.154   4.884
 6015TIP3   OH218008   6.298   3.898   3.238
 6015TIP3    H118009   6.265   3.810   3.220
 6015TIP3    H218010   6.391   3.894   3.218
 6016TIP3   OH218011   4.098   0.922   0.945
 6016TIP3    H118012   4.074   0.868   0.870
 6016TIP3    H218013   4.047   0.887   1.018
 6017TIP3   OH218014   4.642   3.442   3.575
 6017TIP3    H118015   4.692   3.396   3.643
 6017TIP3    H218016   4.574   3.488   3.623
 6018TIP3   OH218017   3.626   6.729   2.998
 6018TIP3    H118018   3.668   6.798   2.948
 6018TIP3    H218019   3.547   6.708   2.948
 6019TIP3   OH218020   2.304   4.202   0.193
 6019TIP3    H118021   2.217   4.204   0.234
 6019TIP3    H218022   2.286   4.213   0.099
 6020TIP3   OH218023   5.890   6.050   2.148
 6020TIP3    H118024   5.848   5.964   2.149
 6020TIP3    H218025   5.821   6.111   2.123
 6021TIP3   OH218026   1.931   1.091   1.949
 6021TIP3    H118027   1.855   1.077   2.006
 6021TIP3    H218028   2.002   1.043   1.990
 6022TIP3   OH218029   3.725   6.241   4.595
 6022TIP3    H118030   3.674   6.305   4.546
 6022TIP3    H218031   3.814   6.276   4.597
 6023TIP3   OH218032   4.521   0.838   2.991
 6023TIP3    H118033   4.445   0.873   2.944
 6023TIP3    H218034   4.597   0.874   2.945
 6024TIP3   OH218035   7.050   1.870   3.915
 6024TIP3    H118036   7.079   1.838   4.000
 6024TIP3    H218037   7.109   1.942   3.895
 6025TIP3   OH218038   3.154   1.460   4.784
 6025TIP3    H118039   3.109   1.535   4.746
 6025TIP3    H218040   3.105   1.441   4.864
 6026TIP3   OH218041   0.109   1.824   0.798
 6026TIP3    H118042   0.133   1.898   0.742
 6026TIP3    H218043   0.171   1.755   0.776
 6027TIP3   OH218044   2.801   5.676   3.080
 6027TIP3    H118045   2.742   5.618   3.031
 6027TIP3    H218046   2.746   5.719   3.144
 6028TIP3   OH218047   4.622   0.958   2.699
 6028TIP3    H118048   4.679   0.964   2.622
 6028TIP3    H218049   4.681   0.931   2.770
 6029TIP3   OH218050   2.376   3.306   5.381
 6029TIP3    H118051   2.303   3.338   5.328
 6029TIP3    H218052   2.447   3.367   5.362
 6030TIP3   OH218053   0.655   3.551   5.485
 6030TIP3    H118054   0.590   3.609   5.524
 6030TIP3    H218055   0.696   3.604   5.416
 6031TIP3   OH218056   4.059   2.135   1.047
 6031TIP3    H118057   4.069   2.191   1.123
 6031TIP3    H218058   4.119   2.062   1.062
 6032TIP3   OH218059   4.986   3.968   3.418
 6032TIP3    H118060   5.061   3.909   3.432
 6032TIP3    H218061   4.936   3.927   3.347
 6033TIP3   OH218062   4.569   0.742   5.429
 6033TIP3    H118063   4.512   0.814   5.455
 6033TIP3    H218064   4.538   0.716   5.343
 6034TIP3   OH218065   1.057   2.749   3.526
 6034TIP3    H118066   1.055   2.720   3.617
 6034TIP3    H218067   1.098   2.676   3.479
 6035TIP3   OH218068   6.566   1.248   5.788
 6035TIP3    H118069   6.645   1.247   5.841
 6035TIP3    H218070   6.495   1.262   5.850
 6036TIP3   OH218071   4.150   4.949   5.841
 6036TIP3    H118072   4.145   4.896   5.761
 6036TIP3    H218073   4.079   4.916   5.895
 6037TIP3   OH218074   6.394   2.823   1.693
 6037TIP3    H118075   6.351   2.893   1.742
 6037TIP3    H218076   6.327   2.757   1.681
 6038TIP3   OH218077   4.362   1.706   3.445
 6038TIP3    H118078   4.436   1.750   3.402
 6038TIP3    H218079   4.285   1.735   3.396
 6039TIP3   OH218080   2.097   2.621   4.313
 6039TIP3    H118081   2.143   2.576   4.242
 6039TIP3    H218082   2.165   2.667   4.361
 6040TIP3   OH218083   4.660   5.467   1.457
 6040TIP3    H118084   4.729   5.532   1.457
 6040TIP3    H218085   4.583   5.514   1.490
 6041TIP3   OH218086   2.663   4.487   5.857
 6041TIP3    H118087   2.584   4.437   5.837
 6041TIP3    H218088   2.688   4.528   5.774
 6042TIP3   OH218089   6.472   3.357   5.434
 6042TIP3    H118090   6.534   3.363   5.508
 6042TIP3    H218091   6.434   3.445   5.428
 6043TIP3   OH218092   5.974   4.772   0.005
 6043TIP3    H118093   5.975   4.865   0.028
 6043TIP3    H218094   5.884   4.745   0.020
 6044TIP3   OH218095   5.363   4.071   1.436
 6044TIP3    H118096   5.316   4.093   1.356
 6044TIP3    H218097   5.426   4.004   1.409
 6045TIP3   OH218098   3.497   0.044   3.544
 6045TIP3    H118099   3.421   0.005   3.500
 6045TIP3    H218100   3.559   0.062   3.474
 6046TIP3   OH218101   2.762   0.852   0.629
 6046TIP3    H118102   2.731   0.903   0.704
 6046TIP3    H218103   2.695   0.785   0.616
 6047TIP3   OH218104   2.325   0.189   2.335
 6047TIP3    H118105   2.390   0.185   2.265
 6047TIP3    H218106   2.242   0.206   2.290
 6048TIP3   OH218107   3.328   3.111   5.364
 6048TIP3    H118108   3.404   3.052   5.362
 6048TIP3    H218109   3.348   3.179   5.300
 6049TIP3   OH218110   3.529   2.219   3.516
 6049TIP3    H118111   3.441   2.250   3.494
 6049TIP3    H218112   3.544   2.144   3.459
 6050TIP3   OH218113   0.222   3.819   4.443
 6050TIP3    H118114   0.185   3.868   4.369
 6050TIP3    H218115   0.222   3.728   4.414
 6051TIP3   OH218116   4.880   3.417   4.037
 6051TIP3    H118117   4.946   3.373   4.091
 6051TIP3    H218118   4.906   3.509   4.038
 6052TIP3   OH218119   4.655   5.384   0.776
 6052TIP3    H118120   4.659   5.471   0.815
 6052TIP3    H218121   4.680   5.324   0.846
 6053TIP3   OH218122   5.441   2.979   2.196
 6053TIP3    H118123   5.349   2.980   2.222
 6053TIP3    H218124   5.455   2.891   2.159
 6054TIP3   OH218125   6.523   1.902   0.860
 6054TIP3    H118126   6.484   1.831   0.810
 6054TIP3    H218127   6.455   1.970   0.862
 6055TIP3   OH218128   0.872   2.024   1.017
 6055TIP3    H118129   0.953   1.981   1.045
 6055TIP3    H218130   0.848   2.080   1.090
 6056TIP3   OH218131   3.253   4.189   4.881
 6056TIP3    H118132   3.197   4.113   4.867
 6056TIP3    H218133   3.269   4.191   4.975
 6057TIP3   OH218134   6.256   6.569   2.451
 6057TIP3    H118135   6.251   6.523   2.535
 6057TIP3    H218136   6.166   6.568   2.419
 6058TIP3   OH218137   5.799   3.014   2.003
 6058TIP3    H118138   5.830   2.982   2.087
 6058TIP3    H218139   5.711   3.048   2.021
 6059TIP3   OH218140   6.555   4.393   0.932
 6059TIP3    H118141   6.639   4.387   0.978
 6059TIP3    H218142   6.518   4.476   0.960
 6060TIP3   OH218143   4.939   2.060   2.518
 6060TIP3    H118144   4.994   2.039   2.443
 6060TIP3    H218145   4.941   2.156   2.523
 6061TIP3   OH218146   6.824   5.185   2.322
 6061TIP3    H118147   6.756   5.188   2.255
 6061TIP3    H218148   6.794   5.119   2.384
 6062TIP3   OH218149   2.831   2.835   5.716
 6062TIP3    H118150   2.892   2.908   5.727
 6062TIP3    H218151   2.888   2.758   5.707
 6063TIP3   OH218152   2.566   3.240   2.328
 6063TIP3    H118153   2.647   3.207   2.366
 6063TIP3    H218154   2.498   3.210   2.388
 6064TIP3   OH218155   2.591   4.527   0.445
 6064TIP3    H118156   2.542   4.526   0.362
 6064TIP3    H218157   2.683   4.534   0.418
 6065TIP3   OH218158   3.780   4.989   3.354
 6065TIP3    H118159   3.855   5.012   3.299
 6065TIP3    H218160   3.707   5.037   3.316
 6066TIP3   OH218161   5.338   5.898   4.726
 6066TIP3    H118162   5.289   5.815   4.722
 6066TIP3    H218163   5.377   5.906   4.639
 6067TIP3   OH218164   3.628   6.219   2.313
 6067TIP3    H118165   3.708   6.266   2.289
 6067TIP3    H218166   3.657   6.152   2.375
 6068TIP3   OH218167   3.737   1.709   4.715
 6068TIP3    H118168   3.669   1.770   4.687
 6068TIP3    H218169   3.691   1.645   4.769
 6069TIP3   OH218170   3.379   0.651   4.910
 6069TIP3    H118171   3.334   0.717   4.857
 6069TIP3    H218172   3.312   0.586   4.930
 6070TIP3   OH218173   6.578   1.724   1.463
 6070TIP3    H118174   6.566   1.781   1.539
 6070TIP3    H218175   6.648   1.767   1.412
 6071TIP3   OH218176   6.734   5.504   5.633
 6071TIP3    H118177   6.676   5.483   5.560
 6071TIP3    H218178   6.822   5.482   5.600
 6072TIP3   OH218179   1.498   3.162   3.717
 6072TIP3    H118180   1.519   3.254   3.734
 6072TIP3    H218181   1.582   3.116   3.727
 6073TIP3   OH218182   0.652   0.572   3.155
 6073TIP3    H118183   0.583   0.538   3.098
 6073TIP3    H218184   0.616   0.564   3.243
 6074TIP3   OH218185   6.384   5.150   4.726
 6074TIP3    H118186   6.378   5.168   4.819
 6074TIP3    H218187   6.450   5.081   4.719
 6075TIP3   OH218188   4.400   4.203   2.236
 6075TIP3    H118189   4.393   4.274   2.171
 6075TIP3    H218190   4.387   4.123   2.185
 6076TIP3   OH218191   3.370   6.404   1.793
 6076TIP3    H118192   3.322   6.415   1.875
 6076TIP3    H218193   3.303   6.382   1.728
 6077TIP3   OH218194   2.771   2.278   3.530
 6077TIP3    H118195   2.706   2.347   3.513
 6077TIP3    H218196   2.852   2.312   3.491
 6078TIP3   OH218197   5.224   3.228   2.796
 6078TIP3    H118198   5.292   3.200   2.736
 6078TIP3    H218199   5.189   3.147   2.833
 6079TIP3   OH218200   4.688   1.805   4.551
 6079TIP3    H118201   4.754   1.854   4.600
 6079TIP3    H218202   4.605   1.831   4.589
 6080TIP3   OH218203   6.914   3.722   1.316
 6080TIP3    H118204   6.918   3.627   1.323
 6080TIP3    H218205   6.999   3.752   1.348
 6081TIP3   OH218206   1.845   4.628   3.281
 6081TIP3    H118207   1.836   4.597   3.371
 6081TIP3    H218208   1.920   4.580   3.246
 6082TIP3   OH218209   2.602   3.441   5.369
 6082TIP3    H118210   2.656   3.448   5.447
 6082TIP3    H218211   2.664   3.433   5.297
 6083TIP3   OH218212   5.768   2.551   4.706
 6083TIP3    H118213   5.726   2.479   4.659
 6083TIP3    H218214   5.695   2.599   4.746
 6084TIP3   OH218215   6.629   1.409   4.056
 6084TIP3    H118216   6.595   1.433   4.142
 6084TIP3    H218217   6.659   1.318   4.067
 6085TIP3   OH218218   6.542   2.604   0.238
 6085TIP3    H118219   6.590   2.684   0.257
 6085TIP3    H218220   6.453   2.634   0.218
 6086TIP3   OH218221   6.808   2.443   1.183
 6086TIP3    H118222   6.855   2.411   1.106
 6086TIP3    H218223   6.869   2.430   1.255
 6087TIP3   OH218224   4.230   6.201   0.565
 6087TIP3    H118225   4.135   6.203   0.553
 6087TIP3    H218226   4.265   6.201   0.477
 6088TIP3   OH218227   4.545   1.854   1.265
 6088TIP3    H118228   4.546   1.939   1.308
 6088TIP3    H218229   4.513   1.871   1.177
 6089TIP3   OH218230   4.349   2.936   5.581
 6089TIP3    H118231   4.387   2.864   5.530
 6089TIP3    H218232   4.391   2.929   5.667
 6090TIP3   OH218233   6.352   3.004   0.538
 6090TIP3    H118234   6.440   2.966   0.525
 6090TIP3    H218235   6.361   3.059   0.615
 6091TIP3   OH218236   0.562   2.706   0.032
 6091TIP3    H118237   0.493   2.767   0.058
 6091TIP3    H218238   0.642   2.758   0.036
 6092TIP3   OH218239   5.922   6.524   2.768
 6092TIP3    H118240   5.970   6.487   2.693
 6092TIP3    H218241   5.913   6.450   2.828
 6093TIP3   OH218242   5.092   3.572   0.160
 6093TIP3    H118243   5.030   3.574   0.232
 6093TIP3    H218244   5.136   3.657   0.164
 6094TIP3   OH218245   6.625   0.575   0.068
 6094TIP3    H118246   6.539   0.537   0.049
 6094TIP3    H218247   6.622   0.597   0.161
 6095TIP3   OH218248   0.062   3.127   0.536
 6095TIP3    H118249  -0.018   3.174   0.560
 6095TIP3    H218250   0.030   3.041   0.506
 6096TIP3   OH218251   0.403   0.250   1.325
 6096TIP3    H118252   0.377   0.160   1.347
 6096TIP3    H218253   0.344   0.305   1.377
 6097TIP3   OH218254   1.049   5.103   3.446
 6097TIP3    H118255   0.973   5.161   3.441
 6097TIP3    H218256   1.120   5.151   3.403
 6098TIP3   OH218257   2.953   1.884   1.972
 6098TIP3    H118258   2.993   1.925   1.895
 6098TIP3    H218259   3.023   1.879   2.037
 6099TIP3   OH218260   1.291   3.596   1.159
 6099TIP3    H118261   1.302   3.501   1.172
 6099TIP3    H218262   1.287   3.607   1.064
 6100TIP3   OH218263   2.129   5.637   2.952
 6100TIP3    H118264   2.108   5.543   2.951
 6100TIP3    H218265   2.163   5.652   3.040
 6101TIP3   OH218266   6.468   5.917   4.838
 6101TIP3    H118267   6.454   5.827   4.866
 6101TIP3    H218268   6.393   5.965   4.872
 6102TIP3   OH218269   3.561   5.920   5.730
 6102TIP3    H118270   3.577   5.826   5.730
 6102TIP3    H218271   3.468   5.929   5.751
 6103TIP3   OH218272   1.057   3.555   3.490
 6103TIP3    H118273   1.122   3.528   3.426
 6103TIP3    H218274   1.053   3.483   3.553
 6104TIP3   OH218275   2.697   6.098   3.692
 6104TIP3    H118276   2.682   6.189   3.717
 6104TIP3    H218277   2.679   6.095   3.598
 6105TIP3   OH218278   0.998   6.310   5.096
 6105TIP3    H118279   1.077   6.362   5.113
 6105TIP3    H218280   1.026   6.244   5.033
 6106TIP3   OH218281   1.332   3.999   5.215
 6106TIP3    H118282   1.281   3.956   5.146
 6106TIP3    H218283   1.281   3.984   5.295
 6107TIP3   OH218284   3.668   2.970   3.720
 6107TIP3    H118285   3.588   2.921   3.701
 6107TIP3    H218286   3.739   2.913   3.690
 6108TIP3   OH218287   5.462   4.189   2.399
 6108TIP3    H118288   5.475   4.276   2.362
 6108TIP3    H218289   5.409   4.143   2.335
 6109TIP3   OH218290   0.494   3.371   0.534
 6109TIP3    H118291   0.496   3.395   0.442
 6109TIP3    H218292   0.420   3.420   0.570
 6110TIP3   OH218293   3.600   4.104   3.392
 6110TIP3    H118294   3.645   4.182   3.360
 6110TIP3    H218295   3.507   4.127   3.390
 6111TIP3   OH218296   6.377   0.260   1.354
 6111TIP3    H118297   6.441   0.256   1.283
 6111TIP3    H218298   6.356   0.168   1.372
 6112TIP3   OH218299   5.483   5.668   0.450
 6112TIP3    H118300   5.507   5.704   0.364
 6112TIP3    H218301   5.425   5.734   0.488
 6113TIP3   OH218302   0.276   1.688   1.871
 6113TIP3    H118303   0.261   1.596   1.849
 6113TIP3    H218304   0.211   1.707   1.939
 6114TIP3   OH218305   0.160   2.849   2.708
 6114TIP3    H118306   0.097   2.814   2.644
 6114TIP3    H218307   0.236   2.874   2.655
 6115TIP3   OH218308   4.902   4.534   5.751
 6115TIP3    H118309   4.880   4.487   5.832
 6115TIP3    H218310   4.934   4.466   5.692
 6116TIP3   OH218311   4.561   4.388   4.163
 6116TIP3    H118312   4.525   4.301   4.144
 6116TIP3    H218313   4.484   4.443   4.178
 6117TIP3   OH218314   6.448   6.197   5.489
 6117TIP3    H118315   6.352   6.200   5.486
 6117TIP3    H218316   6.470   6.217   5.580
 6118TIP3   OH218317   1.592   2.098   2.375
 6118TIP3    H118318   1.508   2.060   2.400
 6118TIP3    H218319   1.657   2.036   2.407
 6119TIP3   OH218320   1.007   3.463   2.259
 6119TIP3    H118321   1.035   3.468   2.351
 6119TIP3    H218322   1.089   3.451   2.210
 6120TIP3   OH218323   4.954   2.798   4.266
 6120TIP3    H118324   5.038   2.803   4.220
 6120TIP3    H218325   4.951   2.708   4.300
 6121TIP3   OH218326   6.993   1.049   4.147
 6121TIP3    H118327   6.964   0.975   4.093
 6121TIP3    H218328   7.006   1.011   4.234
 6122TIP3   OH218329   3.285   4.747   5.460
 6122TIP3    H118330   3.194   4.724   5.479
 6122TIP3    H218331   3.333   4.718   5.537
 6123TIP3   OH218332   5.233   6.602   1.153
 6123TIP3    H118333   5.199   6.514   1.169
 6123TIP3    H218334   5.156   6.655   1.132
 6124TIP3   OH218335   3.292   4.174   2.961
 6124TIP3    H118336   3.359   4.107   2.956
 6124TIP3    H218337   3.215   4.129   2.997
 6125TIP3   OH218338   3.739   0.890   0.587
 6125TIP3    H118339   3.784   0.973   0.598
 6125TIP3    H218340   3.665   0.910   0.530
 6126TIP3   OH218341   6.924   4.768   4.116
 6126TIP3    H118342   6.831   4.763   4.093
 6126TIP3    H218343   6.936   4.699   4.181
 6127TIP3   OH218344   4.622   1.123   2.299
 6127TIP3    H118345   4.622   1.172   2.217
 6127TIP3    H218346   4.572   1.178   2.360
 6128TIP3   OH218347   5.111   1.223   5.802
 6128TIP3    H118348   5.126   1.136   5.838
 6128TIP3    H218349   5.135   1.216   5.710
 6129TIP3   OH218350   5.613   4.625   2.691
 6129TIP3    H118351   5.678   4.653   2.755
 6129TIP3    H218352   5.620   4.530   2.689
 6130TIP3   OH218353   4.109   2.436   3.447
 6130TIP3    H118354   4.149   2.359   3.487
 6130TIP3    H218355   4.033   2.401   3.400
 6131TIP3   OH218356   6.990   2.387   4.787
 6131TIP3    H118357   6.990   2.370   4.693
 6131TIP3    H218358   6.938   2.467   4.796
 6132TIP3   OH218359   6.474   0.003   4.879
 6132TIP3    H118360   6.533   0.076   4.896
 6132TIP3    H218361   6.406   0.040   4.823
 6133TIP3   OH218362   6.188   0.767   4.330
 6133TIP3    H118363   6.112   0.792   4.278
 6133TIP3    H218364   6.151   0.723   4.407
 6134TIP3   OH218365   1.116   0.960   1.938
 6134TIP3    H118366   1.188   0.978   1.877
 6134TIP3    H218367   1.158   0.915   2.011
 6135TIP3   OH218368   5.503   6.509   0.244
 6135TIP3    H118369   5.496   6.586   0.300
 6135TIP3    H218370   5.548   6.540   0.166
 6136TIP3   OH218371   6.302   6.673   1.519
 6136TIP3    H118372   6.305   6.748   1.579
 6136TIP3    H218373   6.374   6.617   1.548
 6137TIP3   OH218374   4.903   6.605   3.513
 6137TIP3    H118375   4.896   6.634   3.422
 6137TIP3    H218376   4.841   6.533   3.520
 6138TIP3   OH218377   0.872   2.443   3.380
 6138TIP3    H118378   0.828   2.519   3.340
 6138TIP3    H218379   0.965   2.466   3.379
 6139TIP3   OH218380   3.735   0.696   3.046
 6139TIP3    H118381   3.764   0.690   3.137
 6139TIP3    H218382   3.816   0.684   2.995
 6140TIP3   OH218383   5.449   2.713   0.504
 6140TIP3    H118384   5.372   2.658   0.491
 6140TIP3    H218385   5.450   2.772   0.428
 6141TIP3   OH218386   3.877   5.942  -0.066
 6141TIP3    H118387   3.829   5.972   0.011
 6141TIP3    H218388   3.859   6.008  -0.133
 6142TIP3   OH218389   5.024   4.429   4.577
 6142TIP3    H118390   4.967   4.506   4.585
 6142TIP3    H218391   4.993   4.369   4.645
 6143TIP3   OH218392   4.558   2.455   0.396
 6143TIP3    H118393   4.644   2.415   0.405
 6143TIP3    H218394   4.504   2.386   0.358
 6144TIP3   OH218395   3.449   6.647   5.116
 6144TIP3    H118396   3.412   6.730   5.087
 6144TIP3    H218397   3.486   6.608   5.037
 6145TIP3   OH218398   1.909   0.072   4.308
 6145TIP3    H118399   1.993   0.088   4.266
 6145TIP3    H218400   1.929   0.065   4.401
 6146TIP3   OH218401   6.311   6.252   3.543
 6146TIP3    H118402   6.283   6.334   3.585
 6146TIP3    H218403   6.232   6.198   3.543
 6147TIP3   OH218404   4.441   0.675   3.559
 6147TIP3    H118405   4.400   0.761   3.566
 6147TIP3    H218406   4.491   0.679   3.478
 6148TIP3   OH218407   0.597   2.836   1.574
 6148TIP3    H118408   0.524   2.862   1.518
 6148TIP3    H218409   0.556   2.791   1.648
 6149TIP3   OH218410   5.046   1.287   1.395
 6149TIP3    H118411   5.016   1.228   1.326
 6149TIP3    H218412   5.112   1.237   1.442
 6150TIP3   OH218413   4.860   3.892   4.096
 6150TIP3    H118414   4.913   3.813   4.088
 6150TIP3    H218415   4.907   3.946   4.160
 6151TIP3   OH218416   0.441   4.281   3.389
 6151TIP3    H118417   0.430   4.282   3.484
 6151TIP3    H218418   0.462   4.372   3.366
 6152TIP3   OH218419   1.641   1.437   1.987
 6152TIP3    H118420   1.603   1.405   2.069
 6152TIP3    H218421   1.567   1.440   1.926
 6153TIP3   OH218422   0.282   5.718   4.550
 6153TIP3    H118423   0.231   5.657   4.496
 6153TIP3    H218424   0.354   5.665   4.584
 6154TIP3   OH218425   2.117   0.650   4.552
 6154TIP3    H118426   2.032   0.650   4.509
 6154TIP3    H218427   2.099   0.626   4.643
 6155TIP3   OH218428   1.266   4.560   0.003
 6155TIP3    H118429   1.320   4.503   0.059
 6155TIP3    H218430   1.183   4.567   0.049
 6156TIP3   OH218431   6.003   6.501   0.196
 6156TIP3    H118432   5.964   6.492   0.109
 6156TIP3    H218433   6.078   6.442   0.194
 6157TIP3   OH218434   1.721   0.142   3.872
 6157TIP3    H118435   1.809   0.179   3.886
 6157TIP3    H218436   1.663   0.201   3.921
 6158TIP3   OH218437   4.261   4.838   2.295
 6158TIP3    H118438   4.336   4.835   2.235
 6158TIP3    H218439   4.293   4.795   2.374
 6159TIP3   OH218440   1.194   4.562   3.475
 6159TIP3    H118441   1.272   4.509   3.494
 6159TIP3    H218442   1.227   4.652   3.474
 6160TIP3   OH218443   0.013   6.394   3.155
 6160TIP3    H118444   0.023   6.465   3.092
 6160TIP3    H218445  -0.081   6.380   3.162
 6161TIP3   OH218446   0.652   1.347   3.769
 6161TIP3    H118447   0.613   1.360   3.683
 6161TIP3    H218448   0.593   1.391   3.830
 6162TIP3   OH218449   0.178   5.551   1.994
 6162TIP3    H118450   0.093   5.594   1.985
 6162TIP3    H218451   0.169   5.495   2.072
 6163TIP3   OH218452   2.224   5.560   5.703
 6163TIP3    H118453   2.150   5.555   5.643
 6163TIP3    H218454   2.239   5.469   5.729
 6164TIP3   OH218455   4.559   5.375   3.496
 6164TIP3    H118456   4.525   5.402   3.581
 6164TIP3    H218457   4.492   5.316   3.460
 6165TIP3   OH218458   2.636   4.209   2.638
 6165TIP3    H118459   2.557   4.162   2.613
 6165TIP3    H218460   2.697   4.194   2.566
 6166TIP3   OH218461   6.119   4.999   0.337
 6166TIP3    H118462   6.105   5.094   0.341
 6166TIP3    H218463   6.062   4.963   0.405
 6167TIP3   OH218464   1.457   5.322   4.810
 6167TIP3    H118465   1.431   5.232   4.831
 6167TIP3    H218466   1.553   5.319   4.805
 6168TIP3   OH218467   5.174   4.944   2.112
 6168TIP3    H118468   5.256   4.948   2.063
 6168TIP3    H218469   5.122   5.017   2.078
 6169TIP3   OH218470   5.942   5.033   0.060
 6169TIP3    H118471   5.934   5.100  -0.008
 6169TIP3    H218472   5.934   5.081   0.142
 6170TIP3   OH218473   5.789   0.919   1.166
 6170TIP3    H118474   5.817   1.009   1.184
 6170TIP3    H218475   5.723   0.928   1.097
 6171TIP3   OH218476   1.035   4.481   4.811
 6171TIP3    H118477   1.083   4.543   4.756
 6171TIP3    H218478   0.942   4.499   4.793
 6172TIP3   OH218479   6.488   6.450   1.507
 6172TIP3    H118480   6.531   6.437   1.422
 6172TIP3    H218481   6.555   6.428   1.572
 6173TIP3   OH218482   3.156   2.302   2.083
 6173TIP3    H118483   3.206   2.318   2.002
 6173TIP3    H218484   3.132   2.390   2.114
 6174TIP3   OH218485   4.629   0.062   3.975
 6174TIP3    H118486   4.658  -0.023   3.941
 6174TIP3    H218487   4.570   0.096   3.908
 6175TIP3   OH218488   6.151   0.179   2.826
 6175TIP3    H118489   6.072   0.219   2.863
 6175TIP3    H218490   6.183   0.242   2.762
 6176TIP3   OH218491   5.218   3.830   1.229
 6176TIP3    H118492   5.267   3.846   1.149
 6176TIP3    H218493   5.189   3.739   1.222
 6177TIP3   OH218494   3.190   1.615   0.445
 6177TIP3    H118495   3.152   1.700   0.466
 6177TIP3    H218496   3.116   1.554   0.448
 6178TIP3   OH218497   7.155   1.047  -0.002
 6178TIP3    H118498   7.192   1.127   0.036
 6178TIP3    H218499   7.060   1.061   0.002
 6179TIP3   OH218500   6.411   3.419   4.819
 6179TIP3    H118501   6.378   3.338   4.781
 6179TIP3    H218502   6.464   3.458   4.750
 6180TIP3   OH218503   0.288   5.485   0.238
 6180TIP3    H118504   0.248   5.418   0.183
 6180TIP3    H218505   0.225   5.557   0.237
 6181TIP3   OH218506   3.249   5.854   0.819
 6181TIP3    H118507   3.186   5.887   0.883
 6181TIP3    H218508   3.293   5.933   0.787
 6182TIP3   OH218509   1.485   0.417   0.978
 6182TIP3    H118510   1.408   0.475   0.978
 6182TIP3    H218511   1.517   0.420   1.068
 6183TIP3   OH218512   3.571   1.488   3.916
 6183TIP3    H118513   3.507   1.465   3.983
 6183TIP3    H218514   3.604   1.574   3.942
 6184TIP3   OH218515   6.291   3.868   3.532
 6184TIP3    H118516   6.326   3.889   3.445
 6184TIP3    H218517   6.205   3.829   3.515
 6185TIP3   OH218518   3.198   6.279   1.592
 6185TIP3    H118519   3.176   6.279   1.499
 6185TIP3    H218520   3.114   6.266   1.637
 6186TIP3   OH218521   4.146   1.611   0.156
 6186TIP3    H118522   4.146   1.706   0.152
 6186TIP3    H218523   4.121   1.591   0.246
 6187TIP3   OH218524   2.805   3.772   2.010
 6187TIP3    H118525   2.816   3.823   2.090
 6187TIP3    H218526   2.710   3.759   2.003
 6188TIP3   OH218527   5.972   6.619   2.347
 6188TIP3    H118528   5.907   6.560   2.308
 6188TIP3    H218529   6.034   6.637   2.276
 6189TIP3   OH218530   0.968   6.042   2.662
 6189TIP3    H118531   1.024   6.004   2.730
 6189TIP3    H218532   0.981   6.136   2.670
 6190TIP3   OH218533   4.247   4.236   0.472
 6190TIP3    H118534   4.289   4.170   0.416
 6190TIP3    H218535   4.320   4.283   0.513
 6191TIP3   OH218536   3.563   6.165   5.177
 6191TIP3    H118537   3.626   6.221   5.132
 6191TIP3    H218538   3.584   6.174   5.270
 6192TIP3   OH218539  -0.015   5.810   4.119
 6192TIP3    H118540   0.038   5.857   4.182
 6192TIP3    H218541  -0.031   5.873   4.049
 6193TIP3   OH218542   5.132   6.405   3.895
 6193TIP3    H118543   5.090   6.482   3.856
 6193TIP3    H218544   5.091   6.331   3.850
 6194TIP3   OH218545   5.373   4.911   0.894
 6194TIP3    H118546   5.310   4.851   0.855
 6194TIP3    H218547   5.321   4.965   0.954
 6195TIP3   OH218548   3.454   5.463   1.538
 6195TIP3    H118549   3.420   5.519   1.607
 6195TIP3    H218550   3.549   5.470   1.546
 6196TIP3   OH218551   4.708  -0.011   2.383
 6196TIP3    H118552   4.747   0.009   2.468
 6196TIP3    H218553   4.643   0.057   2.369
 6197TIP3   OH218554   0.385   4.943   1.109
 6197TIP3    H118555   0.434   4.909   1.185
 6197TIP3    H218556   0.316   4.997   1.147
 6198TIP3   OH218557   4.778   2.920   1.334
 6198TIP3    H118558   4.749   2.997   1.384
 6198TIP3    H218559   4.776   2.948   1.243
 6199TIP3   OH218560   2.976   5.229   1.319
 6199TIP3    H118561   3.066   5.259   1.304
 6199TIP3    H218562   2.967   5.151   1.265
 6200TIP3   OH218563   4.837   1.927   1.834
 6200TIP3    H118564   4.865   2.017   1.823
 6200TIP3    H218565   4.769   1.931   1.901
 6201TIP3   OH218566   4.240   1.618   2.129
 6201TIP3    H118567   4.270   1.709   2.125
 6201TIP3    H218568   4.301   1.575   2.189
 6202TIP3   OH218569   7.131   4.001   5.715
 6202TIP3    H118570   7.215   3.987   5.758
 6202TIP3    H218571   7.153   4.044   5.633
 6203TIP3   OH218572   6.280   0.916   0.921
 6203TIP3    H118573   6.323   0.831   0.931
 6203TIP3    H218574   6.190   0.901   0.951
 6204TIP3   OH218575   5.676   5.801   3.177
 6204TIP3    H118576   5.736   5.875   3.186
 6204TIP3    H218577   5.652   5.801   3.085
 6205TIP3   OH218578   4.061   3.201   2.857
 6205TIP3    H118579   4.031   3.111   2.866
 6205TIP3    H218580   4.038   3.226   2.767
 6206TIP3   OH218581   2.336   6.738   0.577
 6206TIP3    H118582   2.241   6.749   0.574
 6206TIP3    H218583   2.357   6.746   0.670
 6207TIP3   OH218584   5.672   0.127   0.064
 6207TIP3    H118585   5.760   0.109   0.097
 6207TIP3    H218586   5.662   0.067  -0.010
 6208TIP3   OH218587   0.161   3.911   3.835
 6208TIP3    H118588   0.099   3.890   3.764
 6208TIP3    H218589   0.245   3.918   3.790
 6209TIP3   OH218590   0.163   4.531   5.021
 6209TIP3    H118591   0.165   4.469   4.947
 6209TIP3    H218592   0.091   4.590   5.001
 6210TIP3   OH218593   0.021   3.862   2.785
 6210TIP3    H118594   0.015   3.793   2.852
 6210TIP3    H218595   0.114   3.870   2.767
 6211TIP3   OH218596   6.002   0.935   5.659
 6211TIP3    H118597   6.051   0.921   5.741
 6211TIP3    H218598   6.069   0.960   5.595
 6212TIP3   OH218599   2.818   1.600   1.485
 6212TIP3    H118600   2.902   1.642   1.467
 6212TIP3    H218601   2.783   1.647   1.561
 6213TIP3   OH218602   5.332   4.758   5.544
 6213TIP3    H118603   5.345   4.723   5.456
 6213TIP3    H218604   5.237   4.772   5.551
 6214TIP3   OH218605   1.058   4.532   2.062
 6214TIP3    H118606   1.135   4.528   2.119
 6214TIP3    H218607   1.094   4.549   1.975
 6215TIP3   OH218608   3.974   2.002   1.352
 6215TIP3    H118609   4.064   2.006   1.318
 6215TIP3    H218610   3.984   2.016   1.446
 6216TIP3   OH218611   1.632   5.540   3.014
 6216TIP3    H118612   1.612   5.468   2.954
 6216TIP3    H218613   1.628   5.618   2.959
 6217TIP3   OH218614   2.470   0.806   1.429
 6217TIP3    H118615   2.414   0.730   1.414
 6217TIP3    H218616   2.469   0.819   1.524
 6218TIP3   OH218617   2.450   0.376   1.626
 6218TIP3    H118618   2.489   0.381   1.713
 6218TIP3    H218619   2.357   0.396   1.640
 6219TIP3   OH218620   1.707   0.237   5.483
 6219TIP3    H118621   1.638   0.247   5.417
 6219TIP3    H218622   1.710   0.143   5.501
 6220TIP3   OH218623   4.671   6.413   4.861
 6220TIP3    H118624   4.687   6.321   4.880
 6220TIP3    H218625   4.579   6.428   4.886
 6221TIP3   OH218626   2.119   0.249   2.179
 6221TIP3    H118627   2.043   0.190   2.183
 6221TIP3    H218628   2.114   0.287   2.091
 6222TIP3   OH218629   3.539   1.876   4.610
 6222TIP3    H118630   3.447   1.869   4.582
 6222TIP3    H218631   3.534   1.890   4.705
 6223TIP3   OH218632   6.588   0.337   3.803
 6223TIP3    H118633   6.603   0.431   3.802
 6223TIP3    H218634   6.638   0.304   3.729
 6224TIP3   OH218635   1.031   2.259   3.812
 6224TIP3    H118636   0.984   2.333   3.773
 6224TIP3    H218637   0.996   2.253   3.901
 6225TIP3   OH218638   5.064   5.742   1.716
 6225TIP3    H118639   5.109   5.826   1.707
 6225TIP3    H218640   5.135   5.678   1.727
 6226TIP3   OH218641   2.368   1.100   0.143
 6226TIP3    H118642   2.457   1.068   0.159
 6226TIP3    H218643   2.336   1.126   0.229
 6227TIP3   OH218644   0.355   0.141   3.465
 6227TIP3    H118645   0.300   0.165   3.391
 6227TIP3    H218646   0.402   0.221   3.488
 6228TIP3   OH218647   6.878   6.003   3.316
 6228TIP3    H118648   6.841   6.083   3.279
 6228TIP3    H218649   6.822   5.982   3.391
 6229TIP3   OH218650   6.238   2.612   2.826
 6229TIP3    H118651   6.258   2.523   2.856
 6229TIP3    H218652   6.239   2.664   2.906
 6230TIP3   OH218653   1.102   4.108   0.108
 6230TIP3    H118654   1.083   4.093   0.201
 6230TIP3    H218655   1.036   4.172   0.081
 6231TIP3   OH218656   3.290   4.462   5.124
 6231TIP3    H118657   3.205   4.503   5.142
 6231TIP3    H218658   3.354   4.532   5.134
 6232TIP3   OH218659   6.408   6.305   3.884
 6232TIP3    H118660   6.313   6.295   3.897
 6232TIP3    H218661   6.439   6.217   3.863
 6233TIP3   OH218662   6.194   0.424   0.293
 6233TIP3    H118663   6.106   0.423   0.255
 6233TIP3    H218664   6.185   0.376   0.376
 6234TIP3   OH218665   2.283   4.697   0.808
 6234TIP3    H118666   2.302   4.647   0.729
 6234TIP3    H218667   2.259   4.631   0.873
 6235TIP3   OH218668   1.334   0.580   3.578
 6235TIP3    H118669   1.408   0.523   3.601
 6235TIP3    H218670   1.289   0.596   3.661
 6236TIP3   OH218671   3.539   3.417   1.689
 6236TIP3    H118672   3.460   3.378   1.651
 6236TIP3    H218673   3.576   3.469   1.618
 6237TIP3   OH218674   4.261   0.531   5.668
 6237TIP3    H118675   4.183   0.553   5.719
 6237TIP3    H218676   4.226   0.501   5.584
 6238TIP3   OH218677   4.845   2.146   4.813
 6238TIP3    H118678   4.932   2.130   4.850
 6238TIP3    H218679   4.824   2.236   4.837
 6239TIP3   OH218680   1.002   5.404   2.282
 6239TIP3    H118681   1.068   5.387   2.349
 6239TIP3    H218682   0.942   5.329   2.286
 6240TIP3   OH218683   1.863   0.792   2.136
 6240TIP3    H118684   1.935   0.819   2.192
 6240TIP3    H218685   1.869   0.696   2.133
 6241TIP3   OH218686   2.732   5.391   2.233
 6241TIP3    H118687   2.708   5.437   2.152
 6241TIP3    H218688   2.769   5.308   2.203
 6242TIP3   OH218689   4.430   3.716   3.205
 6242TIP3    H118690   4.403   3.638   3.254
 6242TIP3    H218691   4.459   3.683   3.121
 6243TIP3   OH218692   0.057   4.567   1.084
 6243TIP3    H118693   0.148   4.543   1.102
 6243TIP3    H218694   0.063   4.654   1.044
 6244TIP3   OH218695   5.614   6.606   0.024
 6244TIP3    H118696   5.655   6.602  -0.062
 6244TIP3    H218697   5.549   6.675   0.017
 6245TIP3   OH218698   3.638   4.850   4.002
 6245TIP3    H118699   3.611   4.932   4.043
 6245TIP3    H218700   3.584   4.843   3.923
 6246TIP3   OH218701   2.966   1.529   3.132
 6246TIP3    H118702   3.057   1.555   3.116
 6246TIP3    H218703   2.966   1.499   3.223
 6247TIP3   OH218704   2.226   4.261   0.564
 6247TIP3    H118705   2.156   4.314   0.602
 6247TIP3    H218706   2.237   4.188   0.626
 6248TIP3   OH218707   7.092   6.716   4.722
 6248TIP3    H118708   7.101   6.729   4.627
 6248TIP3    H218709   7.179   6.732   4.757
 6249TIP3   OH218710   4.207   3.611   5.445
 6249TIP3    H118711   4.171   3.546   5.385
 6249TIP3    H218712   4.221   3.689   5.391
 6250TIP3   OH218713   0.762   4.057   4.299
 6250TIP3    H118714   0.853   4.042   4.325
 6250TIP3    H218715   0.754   4.016   4.213
 6251TIP3   OH218716   0.724   1.498   2.014
 6251TIP3    H118717   0.774   1.484   1.934
 6251TIP3    H218718   0.755   1.582   2.048
 6252TIP3   OH218719   5.468   5.429   5.412
 6252TIP3    H118720   5.426   5.353   5.374
 6252TIP3    H218721   5.421   5.445   5.494
 6253TIP3   OH218722   3.030   5.513   2.459
 6253TIP3    H118723   3.125   5.518   2.458
 6253TIP3    H218724   3.002   5.596   2.498
 6254TIP3   OH218725   4.467   0.348   0.044
 6254TIP3    H118726   4.400   0.417   0.041
 6254TIP3    H218727   4.434   0.286   0.110
 6255TIP3   OH218728   5.508   4.300   1.082
 6255TIP3    H118729   5.456   4.375   1.110
 6255TIP3    H218730   5.443   4.234   1.054
 6256TIP3   OH218731   0.124   2.323   0.028
 6256TIP3    H118732   0.120   2.375  -0.051
 6256TIP3    H218733   0.088   2.380   0.096
 6257TIP3   OH218734   6.631   3.038   5.388
 6257TIP3    H118735   6.609   3.061   5.297
 6257TIP3    H218736   6.706   3.094   5.408
 6258TIP3   OH218737   4.571   6.125   1.824
 6258TIP3    H118738   4.506   6.054   1.821
 6258TIP3    H218739   4.530   6.196   1.775
 6259TIP3   OH218740   1.986   6.145   3.756
 6259TIP3    H118741   2.021   6.099   3.832
 6259TIP3    H218742   1.974   6.078   3.689
 6260TIP3   OH218743   1.720   3.916   2.911
 6260TIP3    H118744   1.703   3.992   2.966
 6260TIP3    H218745   1.677   3.844   2.956
 6261TIP3   OH218746   1.445   0.490   1.683
 6261TIP3    H118747   1.397   0.567   1.712
 6261TIP3    H218748   1.476   0.513   1.595
 6262TIP3   OH218749   4.544   3.837   3.621
 6262TIP3    H118750   4.524   3.760   3.675
 6262TIP3    H218751   4.589   3.800   3.545
 6263TIP3   OH218752   4.080   6.433   2.223
 6263TIP3    H118753   4.074   6.520   2.182
 6263TIP3    H218754   4.169   6.404   2.204
 6264TIP3   OH218755   1.399   0.700   3.344
 6264TIP3    H118756   1.317   0.704   3.295
 6264TIP3    H218757   1.375   0.654   3.425
 6265TIP3   OH218758   5.536   2.598   4.138
 6265TIP3    H118759   5.556   2.542   4.063
 6265TIP3    H218760   5.442   2.586   4.152
 6266TIP3   OH218761   4.925   1.597   5.280
 6266TIP3    H118762   5.019   1.595   5.299
 6266TIP3    H218763   4.916   1.550   5.197
 6267TIP3   OH218764   5.919   6.561   5.509
 6267TIP3    H118765   5.997   6.556   5.454
 6267TIP3    H218766   5.953   6.554   5.598
 6268TIP3   OH218767   5.662   3.056   5.081
 6268TIP3    H118768   5.732   2.996   5.108
 6268TIP3    H218769   5.699   3.103   5.006
 6269TIP3   OH218770   4.578   5.432   3.179
 6269TIP3    H118771   4.628   5.352   3.161
 6269TIP3    H218772   4.569   5.433   3.275
 6270TIP3   OH218773   3.990   0.029   4.677
 6270TIP3    H118774   3.942   0.110   4.658
 6270TIP3    H218775   3.932  -0.040   4.646
 6271TIP3   OH218776   3.333   1.651   0.076
 6271TIP3    H118777   3.338   1.690  -0.011
 6271TIP3    H218778   3.420   1.615   0.093
 6272TIP3   OH218779   2.264   0.312   5.124
 6272TIP3    H118780   2.244   0.387   5.180
 6272TIP3    H218781   2.202   0.319   5.051
 6273TIP3   OH218782   2.277   0.856   3.755
 6273TIP3    H118783   2.274   0.761   3.743
 6273TIP3    H218784   2.233   0.871   3.839
 6274TIP3   OH218785   1.531   2.942   1.727
 6274TIP3    H118786   1.480   2.909   1.801
 6274TIP3    H218787   1.477   3.011   1.689
 6275TIP3   OH218788   5.787   2.866   2.644
 6275TIP3    H118789   5.737   2.920   2.705
 6275TIP3    H218790   5.740   2.872   2.561
 6276TIP3   OH218791   3.677   6.684   5.249
 6276TIP3    H118792   3.591   6.680   5.206
 6276TIP3    H218793   3.726   6.748   5.197
 6277TIP3   OH218794   1.632   3.985   1.681
 6277TIP3    H118795   1.563   3.919   1.689
 6277TIP3    H218796   1.602   4.057   1.736
 6278TIP3   OH218797   3.996   0.867   4.519
 6278TIP3    H118798   4.034   0.924   4.585
 6278TIP3    H218799   4.034   0.896   4.436
 6279TIP3   OH218800   1.426   5.028   4.679
 6279TIP3    H118801   1.481   5.093   4.637
 6279TIP3    H218802   1.486   4.959   4.706
 6280TIP3   OH218803   5.146   4.686   2.754
 6280TIP3    H118804   5.176   4.632   2.681
 6280TIP3    H218805   5.066   4.728   2.723
 6281TIP3   OH218806   3.951   1.616   2.179
 6281TIP3    H118807   3.948   1.521   2.187
 6281TIP3    H218808   4.039   1.635   2.146
 6282TIP3   OH218809   7.055   6.343   0.591
 6282TIP3    H118810   7.050   6.263   0.540
 6282TIP3    H218811   7.000   6.326   0.668
 6283TIP3   OH218812   3.074   2.013   1.734
 6283TIP3    H118813   3.113   2.086   1.685
 6283TIP3    H218814   3.145   1.950   1.743
 6284TIP3   OH218815   0.803   1.982   3.889
 6284TIP3    H118816   0.740   2.037   3.843
 6284TIP3    H218817   0.795   1.896   3.847
 6285TIP3   OH218818   5.128   1.182   5.092
 6285TIP3    H118819   5.064   1.115   5.067
 6285TIP3    H218820   5.207   1.132   5.112
 6286TIP3   OH218821   4.351   3.913   1.792
 6286TIP3    H118822   4.392   3.840   1.745
 6286TIP3    H218823   4.333   3.877   1.879
 6287TIP3   OH218824   1.385   1.987   2.512
 6287TIP3    H118825   1.375   1.893   2.526
 6287TIP3    H218826   1.295   2.021   2.515
 6288TIP3   OH218827   2.113   0.588   4.815
 6288TIP3    H118828   2.090   0.495   4.820
 6288TIP3    H218829   2.208   0.590   4.830
 6289TIP3   OH218830   2.788   3.911   1.010
 6289TIP3    H118831   2.740   3.908   1.092
 6289TIP3    H218832   2.721   3.916   0.942
 6290TIP3   OH218833   3.758   2.641   4.898
 6290TIP3    H118834   3.697   2.632   4.824
 6290TIP3    H218835   3.809   2.719   4.877
 6291TIP3   OH218836   5.249   3.678   4.656
 6291TIP3    H118837   5.284   3.706   4.741
 6291TIP3    H218838   5.326   3.671   4.600
 6292TIP3   OH218839   4.647   4.946   3.181
 6292TIP3    H118840   4.708   4.928   3.253
 6292TIP3    H218841   4.692   5.012   3.128
 6293TIP3   OH218842   4.739   6.555   1.053
 6293TIP3    H118843   4.786   6.551   0.970
 6293TIP3    H218844   4.756   6.644   1.086
 6294TIP3   OH218845   3.080   5.426   3.568
 6294TIP3    H118846   3.090   5.484   3.644
 6294TIP3    H218847   3.169   5.410   3.538
 6295TIP3   OH218848   6.893   2.664   5.352
 6295TIP3    H118849   6.957   2.733   5.371
 6295TIP3    H218850   6.927   2.587   5.397
 6296TIP3   OH218851   3.646   0.333   3.678
 6296TIP3    H118852   3.647   0.293   3.765
 6296TIP3    H218853   3.650   0.427   3.695
 6297TIP3   OH218854   5.921   4.089   0.609
 6297TIP3    H118855   5.855   4.030   0.644
 6297TIP3    H218856   5.874   4.170   0.592
 6298TIP3   OH218857   5.470   4.684   2.448
 6298TIP3    H118858   5.492   4.663   2.539
 6298TIP3    H218859   5.409   4.758   2.454
 6299TIP3   OH218860   6.397   2.158   2.427
 6299TIP3    H118861   6.402   2.187   2.336
 6299TIP3    H218862   6.478   2.190   2.466
 6300TIP3   OH218863   2.713   1.339   2.132
 6300TIP3    H118864   2.711   1.340   2.036
 6300TIP3    H218865   2.629   1.376   2.158
 6301TIP3   OH218866   0.954   0.326   3.769
 6301TIP3    H118867   0.962   0.412   3.727
 6301TIP3    H218868   0.896   0.277   3.712
 6302TIP3   OH218869   3.864   2.423   0.166
 6302TIP3    H118870   3.860   2.340   0.213
 6302TIP3    H218871   3.957   2.439   0.151
 6303TIP3   OH218872   1.333   0.923   2.116
 6303TIP3    H118873   1.319   1.015   2.097
 6303TIP3    H218874   1.428   0.915   2.127
 6304TIP3   OH218875   2.645   0.477   4.966
 6304TIP3    H118876   2.644   0.534   5.043
 6304TIP3    H218877   2.598   0.526   4.899
 6305TIP3   OH218878   2.039   1.730   5.701
 6305TIP3    H118879   2.107   1.666   5.722
 6305TIP3    H218880   1.992   1.742   5.784
 6306TIP3   OH218881   5.145   1.025   2.555
 6306TIP3    H118882   5.195   1.039   2.474
 6306TIP3    H218883   5.083   0.955   2.533
 6307TIP3   OH218884   1.714   4.790   3.538
 6307TIP3    H118885   1.795   4.830   3.507
 6307TIP3    H218886   1.735   4.697   3.547
 6308TIP3   OH218887   0.294   6.346   1.944
 6308TIP3    H118888   0.220   6.360   1.885
 6308TIP3    H218889   0.342   6.428   1.942
 6309TIP3   OH218890   0.968   5.520   5.299
 6309TIP3    H118891   0.978   5.583   5.227
 6309TIP3    H218892   1.055   5.482   5.310
 6310TIP3   OH218893   4.250   1.992   1.300
 6310TIP3    H118894   4.293   2.067   1.259
 6310TIP3    H218895   4.295   1.980   1.383
 6311TIP3   OH218896   5.352   4.090   3.780
 6311TIP3    H118897   5.349   3.996   3.761
 6311TIP3    H218898   5.264   4.122   3.757
 6312TIP3   OH218899   6.543   6.339   5.279
 6312TIP3    H118900   6.491   6.417   5.294
 6312TIP3    H218901   6.534   6.288   5.360
 6313TIP3   OH218902   3.179   2.218   4.509
 6313TIP3    H118903   3.138   2.261   4.585
 6313TIP3    H218904   3.248   2.164   4.546
 6314TIP3   OH218905   0.905   1.423   5.219
 6314TIP3    H118906   0.913   1.425   5.123
 6314TIP3    H218907   0.982   1.375   5.248
 6315TIP3   OH218908   2.698   6.580   1.695
 6315TIP3    H118909   2.752   6.576   1.773
 6315TIP3    H218910   2.610   6.555   1.725
 6316TIP3   OH218911   4.035   2.442   2.529
 6316TIP3    H118912   3.993   2.357   2.517
 6316TIP3    H218913   3.993   2.499   2.464
 6317TIP3   OH218914   1.752   1.048   2.266
 6317TIP3    H118915   1.711   1.085   2.188
 6317TIP3    H218916   1.789   0.965   2.237
 6318TIP3   OH218917   0.811   4.067   2.809
 6318TIP3    H118918   0.896   4.058   2.852
 6318TIP3    H218919   0.774   3.979   2.810
 6319TIP3   OH218920   7.121   4.365   3.161
 6319TIP3    H118921   7.188   4.334   3.222
 6319TIP3    H218922   7.128   4.461   3.164
 6320TIP3   OH218923   4.939   5.894   2.276
 6320TIP3    H118924   4.967   5.971   2.226
 6320TIP3    H218925   4.938   5.924   2.367
 6321TIP3   OH218926   4.092   3.494   4.143
 6321TIP3    H118927   4.146   3.481   4.222
 6321TIP3    H218928   4.004   3.467   4.170
 6322TIP3   OH218929   6.335   4.511   0.030
 6322TIP3    H118930   6.328   4.600  -0.004
 6322TIP3    H218931   6.258   4.501   0.086
 6323TIP3   OH218932   0.637   1.933   2.460
 6323TIP3    H118933   0.629   1.838   2.451
 6323TIP3    H218934   0.644   1.966   2.370
 6324TIP3   OH218935   6.374   6.283   1.070
 6324TIP3    H118936   6.327   6.349   1.019
 6324TIP3    H218937   6.436   6.245   1.008
 6325TIP3   OH218938   2.806   0.966   1.884
 6325TIP3    H118939   2.764   0.881   1.874
 6325TIP3    H218940   2.884   0.949   1.936
 6326TIP3   OH218941   2.432   0.673   1.689
 6326TIP3    H118942   2.372   0.599   1.701
 6326TIP3    H218943   2.396   0.743   1.743
 6327TIP3   OH218944   5.560   4.424   4.265
 6327TIP3    H118945   5.560   4.328   4.262
 6327TIP3    H218946   5.467   4.448   4.272
 6328TIP3   OH218947   5.194   4.210   0.223
 6328TIP3    H118948   5.111   4.166   0.242
 6328TIP3    H218949   5.228   4.164   0.147
 6329TIP3   OH218950   1.971   4.297   4.217
 6329TIP3    H118951   2.051   4.315   4.267
 6329TIP3    H218952   1.921   4.237   4.273
 6330TIP3   OH218953   0.177   3.569   4.348
 6330TIP3    H118954   0.222   3.583   4.265
 6330TIP3    H218955   0.095   3.525   4.325
 6331TIP3   OH218956  -0.008   0.926   1.831
 6331TIP3    H118957  -0.016   0.839   1.871
 6331TIP3    H218958   0.086   0.941   1.824
 6332TIP3   OH218959   1.971   5.069   1.422
 6332TIP3    H118960   1.949   5.123   1.347
 6332TIP3    H218961   2.066   5.065   1.423
 6333TIP3   OH218962   1.163   1.222   4.433
 6333TIP3    H118963   1.120   1.283   4.373
 6333TIP3    H218964   1.230   1.275   4.476
 6334TIP3   OH218965   5.116   2.134   3.604
 6334TIP3    H118966   5.207   2.155   3.627
 6334TIP3    H218967   5.071   2.128   3.688
 6335TIP3   OH218968   4.376   5.961   5.853
 6335TIP3    H118969   4.432   5.959   5.930
 6335TIP3    H218970   4.436   5.948   5.779
 6336TIP3   OH218971   1.611   1.214   0.564
 6336TIP3    H118972   1.685   1.264   0.529
 6336TIP3    H218973   1.589   1.259   0.646
 6337TIP3   OH218974   0.187   1.337   5.453
 6337TIP3    H118975   0.182   1.314   5.546
 6337TIP3    H218976   0.154   1.427   5.449
 6338TIP3   OH218977   4.473   0.687   0.991
 6338TIP3    H118978   4.533   0.752   0.954
 6338TIP3    H218979   4.408   0.673   0.923
 6339TIP3   OH218980   0.072   6.672   1.181
 6339TIP3    H118981   0.016   6.678   1.104
 6339TIP3    H218982   0.011   6.670   1.255
 6340TIP3   OH218983   2.162   4.011   1.031
 6340TIP3    H118984   2.080   3.962   1.033
 6340TIP3    H218985   2.202   3.996   1.116
 6341TIP3   OH218986   5.197   0.743   1.728
 6341TIP3    H118987   5.240   0.759   1.812
 6341TIP3    H218988   5.188   0.648   1.724
 6342TIP3   OH218989   5.311   2.687   4.474
 6342TIP3    H118990   5.256   2.712   4.548
 6342TIP3    H218991   5.393   2.734   4.489
 6343TIP3   OH218992   0.169   3.218   3.544
 6343TIP3    H118993   0.138   3.287   3.485
 6343TIP3    H218994   0.156   3.254   3.631
 6344TIP3   OH218995   6.549   3.806   3.174
 6344TIP3    H118996   6.549   3.779   3.082
 6344TIP3    H218997   6.604   3.740   3.218
 6345TIP3   OH218998   2.900   2.903   0.785
 6345TIP3    H118999   2.957   2.979   0.797
 6345TIP3    H219000   2.943   2.834   0.835
 6346TIP3   OH219001   3.619   4.511   1.789
 6346TIP3    H119002   3.632   4.435   1.732
 6346TIP3    H219003   3.605   4.475   1.876
 6347TIP3   OH219004   5.409   1.213   1.436
 6347TIP3    H119005   5.444   1.260   1.361
 6347TIP3    H219006   5.411   1.277   1.508
 6348TIP3   OH219007   3.498   0.705   0.463
 6348TIP3    H119008   3.417   0.654   0.475
 6348TIP3    H219009   3.473   0.777   0.406
 6349TIP3   OH219010   2.338   6.355   2.865
 6349TIP3    H119011   2.403   6.344   2.934
 6349TIP3    H219012   2.283   6.428   2.894
 6350TIP3   OH219013   5.145   0.118   2.879
 6350TIP3    H119014   5.194   0.185   2.831
 6350TIP3    H219015   5.153   0.144   2.971
 6351TIP3   OH219016   3.452   0.782   1.203
 6351TIP3    H119017   3.384   0.837   1.164
 6351TIP3    H219018   3.403   0.713   1.249
 6352TIP3   OH219019   5.246   0.453   0.398
 6352TIP3    H119020   5.159   0.484   0.424
 6352TIP3    H219021   5.239   0.442   0.303
 6353TIP3   OH219022   1.747   3.845   3.812
 6353TIP3    H119023   1.834   3.837   3.851
 6353TIP3    H219024   1.719   3.755   3.796
 6354TIP3   OH219025   5.268   2.838   1.000
 6354TIP3    H119026   5.316   2.809   1.077
 6354TIP3    H219027   5.328   2.822   0.927
 6355TIP3   OH219028   6.439   4.160   0.345
 6355TIP3    H119029   6.477   4.232   0.296
 6355TIP3    H219030   6.499   4.146   0.418
 6356TIP3   OH219031   0.341   1.848   4.751
 6356TIP3    H119032   0.429   1.821   4.775
 6356TIP3    H219033   0.322   1.923   4.809
 6357TIP3   OH219034   2.435   6.495   1.139
 6357TIP3    H119035   2.469   6.529   1.221
 6357TIP3    H219036   2.494   6.530   1.072
 6358TIP3   OH219037   3.518   5.504   2.246
 6358TIP3    H119038   3.424   5.518   2.252
 6358TIP3    H219039   3.530   5.458   2.163
 6359TIP3   OH219040   6.693   2.989   2.328
 6359TIP3    H119041   6.633   2.924   2.364
 6359TIP3    H219042   6.734   2.944   2.253
 6360TIP3   OH219043   5.368   1.522   1.384
 6360TIP3    H119044   5.423   1.557   1.315
 6360TIP3    H219045   5.283   1.507   1.343
 6361TIP3   OH219046   3.193   3.944   3.696
 6361TIP3    H119047   3.216   4.010   3.631
 6361TIP3    H219048   3.262   3.951   3.762
 6362TIP3   OH219049   7.019   1.596   5.754
 6362TIP3    H119050   6.931   1.633   5.763
 6362TIP3    H219051   7.064   1.621   5.834
 6363TIP3   OH219052   0.855   6.522   5.220
 6363TIP3    H119053   0.862   6.450   5.156
 6363TIP3    H219054   0.906   6.593   5.181
 6364TIP3   OH219055   1.079   3.846   1.908
 6364TIP3    H119056   1.092   3.833   2.002
 6364TIP3    H219057   1.070   3.941   1.898
 6365TIP3   OH219058   0.200   4.237   2.587
 6365TIP3    H119059   0.177   4.309   2.527
 6365TIP3    H219060   0.295   4.229   2.579
 6366TIP3   OH219061   1.141   5.132   3.754
 6366TIP3    H119062   1.223   5.182   3.762
 6366TIP3    H219063   1.118   5.138   3.662
 6367TIP3   OH219064   4.282   5.221   4.636
 6367TIP3    H119065   4.205   5.237   4.581
 6367TIP3    H219066   4.249   5.163   4.705
 6368TIP3   OH219067   0.206   0.034   5.804
 6368TIP3    H119068   0.206  -0.061   5.817
 6368TIP3    H219069   0.299   0.058   5.803
 6369TIP3   OH219070   0.781   2.560   5.080
 6369TIP3    H119071   0.713   2.494   5.072
 6369TIP3    H219072   0.771   2.614   5.001
 6370TIP3   OH219073   2.876   0.592   3.211
 6370TIP3    H119074   2.958   0.564   3.251
 6370TIP3    H219075   2.813   0.595   3.283
 6371TIP3   OH219076   2.075   5.848   1.777
 6371TIP3    H119077   2.035   5.833   1.691
 6371TIP3    H219078   2.104   5.762   1.806
 6372TIP3   OH219079   1.510   2.715   4.698
 6372TIP3    H119080   1.550   2.697   4.783
 6372TIP3    H219081   1.583   2.742   4.642
 6373TIP3   OH219082   4.238   0.578   1.525
 6373TIP3    H119083   4.312   0.521   1.548
 6373TIP3    H219084   4.275   0.666   1.526
 6374TIP3   OH219085   3.256   1.467   2.114
 6374TIP3    H119086   3.253   1.442   2.021
 6374TIP3    H219087   3.343   1.441   2.143
 6375TIP3   OH219088   0.890   4.421   1.322
 6375TIP3    H119089   0.819   4.484   1.319
 6375TIP3    H219090   0.937   4.441   1.403
 6376TIP3   OH219091   4.490   0.458   1.200
 6376TIP3    H119092   4.472   0.499   1.116
 6376TIP3    H219093   4.435   0.380   1.201
 6377TIP3   OH219094   5.673   2.312   0.497
 6377TIP3    H119095   5.677   2.229   0.450
 6377TIP3    H219096   5.752   2.359   0.471
 6378TIP3   OH219097   5.994   3.077   2.509
 6378TIP3    H119098   5.980   2.990   2.545
 6378TIP3    H219099   6.088   3.082   2.495
 6379TIP3   OH219100   5.153   1.451   1.821
 6379TIP3    H119101   5.172   1.518   1.886
 6379TIP3    H219102   5.079   1.485   1.771
 6380TIP3   OH219103   5.897   1.712   4.557
 6380TIP3    H119104   5.898   1.633   4.502
 6380TIP3    H219105   5.956   1.692   4.629
 6381TIP3   OH219106   5.652   6.007   2.389
 6381TIP3    H119107   5.648   5.954   2.309
 6381TIP3    H219108   5.560   6.026   2.409
 6382TIP3   OH219109   1.625   4.088   2.689
 6382TIP3    H119110   1.642   4.031   2.764
 6382TIP3    H219111   1.711   4.105   2.651
 6383TIP3   OH219112   5.504   3.232   1.665
 6383TIP3    H119113   5.519   3.291   1.739
 6383TIP3    H219114   5.449   3.283   1.605
 6384TIP3   OH219115   3.857   5.839   5.787
 6384TIP3    H119116   3.881   5.864   5.698
 6384TIP3    H219117   3.922   5.883   5.842
 6385TIP3   OH219118   5.419   0.993   5.256
 6385TIP3    H119119   5.485   0.930   5.284
 6385TIP3    H219120   5.467   1.077   5.252
 6386TIP3   OH219121   0.418   2.009   2.590
 6386TIP3    H119122   0.506   1.992   2.556
 6386TIP3    H219123   0.359   1.987   2.517
 6387TIP3   OH219124   4.774   0.592   0.572
 6387TIP3    H119125   4.838   0.664   0.564
 6387TIP3    H219126   4.797   0.549   0.654
 6388TIP3   OH219127   6.785   0.756   5.759
 6388TIP3    H119128   6.779   0.716   5.846
 6388TIP3    H219129   6.752   0.688   5.700
 6389TIP3   OH219130   3.234   2.639   4.734
 6389TIP3    H119131   3.322   2.666   4.711
 6389TIP3    H219132   3.221   2.672   4.823
 6390TIP3   OH219133   7.117   2.677   3.803
 6390TIP3    H119134   7.154   2.700   3.718
 6390TIP3    H219135   7.191   2.678   3.863
 6391TIP3   OH219136   0.519   2.807   4.234
 6391TIP3    H119137   0.519   2.713   4.253
 6391TIP3    H219138   0.599   2.822   4.184
 6392TIP3   OH219139   7.230   3.395   1.861
 6392TIP3    H119140   7.261   3.418   1.774
 6392TIP3    H219141   7.159   3.333   1.846
 6393TIP3   OH219142   5.851   4.428   1.994
 6393TIP3    H119143   5.769   4.463   1.961
 6393TIP3    H219144   5.885   4.374   1.923
 6394TIP3   OH219145   3.433   6.795   5.368
 6394TIP3    H119146   3.512   6.806   5.420
 6394TIP3    H219147   3.454   6.725   5.306
 6395TIP3   OH219148   1.209   5.040   3.115
 6395TIP3    H119149   1.262   5.068   3.190
 6395TIP3    H219150   1.164   5.120   3.087
 6396TIP3   OH219151   1.586   2.205   2.979
 6396TIP3    H119152   1.642   2.146   3.029
 6396TIP3    H219153   1.572   2.159   2.896
 6397TIP3   OH219154   4.659   6.104   3.905
 6397TIP3    H119155   4.569   6.132   3.885
 6397TIP3    H219156   4.708   6.123   3.825
 6398TIP3   OH219157   0.705   2.182   3.730
 6398TIP3    H119158   0.726   2.151   3.642
 6398TIP3    H219159   0.746   2.268   3.735
 6399TIP3   OH219160   0.969   1.021   0.407
 6399TIP3    H119161   0.905   1.093   0.408
 6399TIP3    H219162   1.051   1.061   0.437
 6400TIP3   OH219163   4.766   4.700   0.575
 6400TIP3    H119164   4.765   4.769   0.641
 6400TIP3    H219165   4.740   4.743   0.493
 6401TIP3   OH219166   7.189   3.793   4.689
 6401TIP3    H119167   7.147   3.869   4.730
 6401TIP3    H219168   7.208   3.823   4.600
 6402TIP3   OH219169   6.304   5.499   3.869
 6402TIP3    H119170   6.234   5.555   3.905
 6402TIP3    H219171   6.381   5.557   3.865
 6403TIP3   OH219172   1.212   3.862   5.397
 6403TIP3    H119173   1.195   3.813   5.317
 6403TIP3    H219174   1.198   3.799   5.467
 6404TIP3   OH219175   3.342   6.167   5.597
 6404TIP3    H119176   3.381   6.244   5.637
 6404TIP3    H219177   3.297   6.122   5.668
 6405TIP3   OH219178   0.067   3.443   3.417
 6405TIP3    H119179   0.066   3.538   3.427
 6405TIP3    H219180  -0.019   3.414   3.447
 6406TIP3   OH219181   4.124   1.637   1.652
 6406TIP3    H119182   4.204   1.609   1.607
 6406TIP3    H219183   4.149   1.717   1.697
 6407TIP3   OH219184   4.209   6.170   1.239
 6407TIP3    H119185   4.195   6.104   1.307
 6407TIP3    H219186   4.303   6.163   1.218
 6408TIP3   OH219187   2.979   0.600   3.771
 6408TIP3    H119188   2.917   0.567   3.705
 6408TIP3    H219189   3.052   0.539   3.767
 6409TIP3   OH219190   5.000   4.184   4.753
 6409TIP3    H119191   5.090   4.173   4.784
 6409TIP3    H219192   4.950   4.207   4.832
 6410TIP3   OH219193   3.927   1.249   3.939
 6410TIP3    H119194   3.964   1.162   3.931
 6410TIP3    H219195   3.995   1.308   3.907
 6411TIP3   OH219196   1.400   5.596   2.504
 6411TIP3    H119197   1.478   5.646   2.528
 6411TIP3    H219198   1.405   5.587   2.409
 6412TIP3   OH219199   2.033   4.032   0.129
 6412TIP3    H119200   2.010   4.093   0.199
 6412TIP3    H219201   2.064   3.954   0.175
 6413TIP3   OH219202   5.876   6.788   2.548
 6413TIP3    H119203   5.882   6.719   2.482
 6413TIP3    H219204   5.951   6.773   2.605
 6414TIP3   OH219205   5.062   2.138   1.837
 6414TIP3    H119206   5.076   2.139   1.931
 6414TIP3    H219207   5.141   2.097   1.801
 6415TIP3   OH219208   0.208   6.211   2.352
 6415TIP3    H119209   0.238   6.151   2.420
 6415TIP3    H219210   0.275   6.279   2.347
 6416TIP3   OH219211   5.512   4.445   2.295
 6416TIP3    H119212   5.519   4.531   2.336
 6416TIP3    H219213   5.548   4.458   2.207
 6417TIP3   OH219214   2.002   6.632   4.656
 6417TIP3    H119215   2.002   6.727   4.645
 6417TIP3    H219216   1.910   6.608   4.659
 6418TIP3   OH219217   2.402   1.389   2.195
 6418TIP3    H119218   2.306   1.387   2.198
 6418TIP3    H219219   2.425   1.479   2.215
 6419TIP3   OH219220   7.153   0.499   4.406
 6419TIP3    H119221   7.109   0.573   4.364
 6419TIP3    H219222   7.238   0.493   4.363
 6420TIP3   OH219223   3.905   2.941   5.682
 6420TIP3    H119224   3.889   3.026   5.722
 6420TIP3    H219225   3.989   2.912   5.718
 6421TIP3   OH219226   2.841   3.562   0.277
 6421TIP3    H119227   2.784   3.485   0.273
 6421TIP3    H219228   2.782   3.635   0.296
 6422TIP3   OH219229   0.148   4.054   0.445
 6422TIP3    H119230   0.164   4.113   0.519
 6422TIP3    H219231   0.205   3.979   0.461
 6423TIP3   OH219232   3.483   0.298   4.231
 6423TIP3    H119233   3.463   0.369   4.292
 6423TIP3    H219234   3.404   0.288   4.179
 6424TIP3   OH219235   0.140   6.448   3.691
 6424TIP3    H119236   0.159   6.390   3.765
 6424TIP3    H219237   0.073   6.402   3.641
 6425TIP3   OH219238   6.078   4.710   1.921
 6425TIP3    H119239   6.150   4.772   1.910
 6425TIP3    H219240   6.118   4.624   1.911
 6426TIP3   OH219241   6.998   6.357   4.220
 6426TIP3    H119242   6.963   6.382   4.135
 6426TIP3    H219243   6.927   6.309   4.263
 6427TIP3   OH219244   5.997   5.060   4.788
 6427TIP3    H119245   6.060   5.036   4.720
 6427TIP3    H219246   5.933   4.988   4.787
 6428TIP3   OH219247   1.131   5.985   5.118
 6428TIP3    H119248   1.046   5.961   5.155
 6428TIP3    H219249   1.192   5.922   5.155
 6429TIP3   OH219250   0.123   5.631   2.417
 6429TIP3    H119251   0.163   5.622   2.504
 6429TIP3    H219252   0.094   5.543   2.395
 6430TIP3   OH219253   5.779   2.319   1.195
 6430TIP3    H119254   5.854   2.377   1.208
 6430TIP3    H219255   5.765   2.319   1.100
 6431TIP3   OH219256   3.710   4.714   5.288
 6431TIP3    H119257   3.776   4.648   5.311
 6431TIP3    H219258   3.740   4.749   5.204
 6432TIP3   OH219259   3.827   5.953   5.029
 6432TIP3    H119260   3.922   5.954   5.022
 6432TIP3    H219261   3.809   5.975   5.120
 6433TIP3   OH219262   4.867   6.755   5.325
 6433TIP3    H119263   4.853   6.695   5.251
 6433TIP3    H219264   4.866   6.842   5.286
 6434TIP3   OH219265   0.796   2.505   0.753
 6434TIP3    H119266   0.719   2.450   0.762
 6434TIP3    H219267   0.779   2.560   0.677
 6435TIP3   OH219268   3.826   4.214   1.105
 6435TIP3    H119269   3.738   4.212   1.142
 6435TIP3    H219270   3.883   4.239   1.178
 6436TIP3   OH219271   1.152   1.013   4.794
 6436TIP3    H119272   1.088   1.005   4.865
 6436TIP3    H219273   1.200   1.094   4.815
 6437TIP3   OH219274   5.530   2.372   3.951
 6437TIP3    H119275   5.621   2.370   3.923
 6437TIP3    H219276   5.482   2.404   3.875
 6438TIP3   OH219277   1.293   6.389   4.683
 6438TIP3    H119278   1.238   6.464   4.658
 6438TIP3    H219279   1.242   6.345   4.751
 6439TIP3   OH219280   5.115   0.586   4.958
 6439TIP3    H119281   5.075   0.665   4.995
 6439TIP3    H219282   5.137   0.610   4.868
 6440TIP3   OH219283   0.294   0.431   3.406
 6440TIP3    H119284   0.237   0.474   3.469
 6440TIP3    H219285   0.379   0.425   3.450
 6441TIP3   OH219286   2.256   3.796   1.864
 6441TIP3    H119287   2.317   3.806   1.937
 6441TIP3    H219288   2.169   3.809   1.903
 6442TIP3   OH219289   5.008   5.106   1.982
 6442TIP3    H119290   4.961   5.146   1.909
 6442TIP3    H219291   4.990   5.163   2.057
 6443TIP3   OH219292   3.983   0.733   3.369
 6443TIP3    H119293   4.053   0.709   3.430
 6443TIP3    H219294   4.016   0.705   3.283
 6444TIP3   OH219295   4.529   3.191   5.582
 6444TIP3    H119296   4.503   3.278   5.552
 6444TIP3    H219297   4.586   3.157   5.514
 6445TIP3   OH219298   5.255   3.202   1.832
 6445TIP3    H119299   5.293   3.172   1.915
 6445TIP3    H219300   5.318   3.266   1.798
 6446TIP3   OH219301   5.869   5.975   2.826
 6446TIP3    H119302   5.962   5.968   2.805
 6446TIP3    H219303   5.824   5.945   2.747
 6447TIP3   OH219304   5.939   4.949   3.904
 6447TIP3    H119305   5.979   5.015   3.962
 6447TIP3    H219306   5.869   4.911   3.957
 6448TIP3   OH219307   1.069   2.413   4.739
 6448TIP3    H119308   1.162   2.414   4.761
 6448TIP3    H219309   1.058   2.483   4.675
 6449TIP3   OH219310   1.420   1.961   4.992
 6449TIP3    H119311   1.473   1.886   5.022
 6449TIP3    H219312   1.361   1.924   4.927
 6450TIP3   OH219313   4.285   3.275   4.375
 6450TIP3    H119314   4.336   3.212   4.428
 6450TIP3    H219315   4.309   3.256   4.285
 6451TIP3   OH219316   5.632   2.208   4.211
 6451TIP3    H119317   5.567   2.244   4.270
 6451TIP3    H219318   5.595   2.220   4.123
 6452TIP3   OH219319   3.660   5.546   5.215
 6452TIP3    H119320   3.708   5.554   5.298
 6452TIP3    H219321   3.728   5.524   5.151
 6453TIP3   OH219322   4.796   3.783   4.411
 6453TIP3    H119323   4.765   3.861   4.455
 6453TIP3    H219324   4.881   3.764   4.452
 6454TIP3   OH219325   1.352   4.790   1.075
 6454TIP3    H119326   1.391   4.869   1.112
 6454TIP3    H219327   1.373   4.721   1.137
 6455TIP3   OH219328   3.582   4.162   1.200
 6455TIP3    H119329   3.499   4.120   1.222
 6455TIP3    H219330   3.561   4.255   1.193
 6456TIP3   OH219331   6.217   2.967   5.608
 6456TIP3    H119332   6.256   3.038   5.557
 6456TIP3    H219333   6.281   2.949   5.677
 6457TIP3   OH219334   2.926   3.978   0.707
 6457TIP3    H119335   2.961   4.061   0.742
 6457TIP3    H219336   2.855   4.005   0.649
 6458TIP3   OH219337   6.077   4.290   0.899
 6458TIP3    H119338   6.003   4.328   0.851
 6458TIP3    H219339   6.154   4.317   0.850
 6459TIP3   OH219340   2.728   1.253   1.852
 6459TIP3    H119341   2.736   1.158   1.852
 6459TIP3    H219342   2.811   1.284   1.814
 6460TIP3   OH219343   4.586   3.828   5.461
 6460TIP3    H119344   4.559   3.750   5.510
 6460TIP3    H219345   4.575   3.900   5.524
 6461TIP3   OH219346   5.311   0.439   3.591
 6461TIP3    H119347   5.317   0.347   3.564
 6461TIP3    H219348   5.228   0.446   3.637
 6462TIP3   OH219349   1.350   4.338   1.965
 6462TIP3    H119350   1.338   4.414   2.022
 6462TIP3    H219351   1.317   4.265   2.016
 6463TIP3   OH219352   0.548   4.362   1.127
 6463TIP3    H119353   0.457   4.381   1.102
 6463TIP3    H219354   0.562   4.412   1.208
 6464TIP3   OH219355   3.128   3.832   1.670
 6464TIP3    H119356   3.193   3.773   1.630
 6464TIP3    H219357   3.180   3.902   1.710
 6465TIP3   OH219358   0.678   6.473   1.627
 6465TIP3    H119359   0.736   6.456   1.701
 6465TIP3    H219360   0.736   6.486   1.553
 6466TIP3   OH219361   6.534   0.265   2.887
 6466TIP3    H119362   6.534   0.195   2.952
 6466TIP3    H219363   6.548   0.221   2.803
 6467TIP3   OH219364   2.862   5.107   4.102
 6467TIP3    H119365   2.833   5.170   4.036
 6467TIP3    H219366   2.900   5.160   4.172
 6468TIP3   OH219367   5.566   2.759   4.600
 6468TIP3    H119368   5.598   2.849   4.602
 6468TIP3    H219369   5.540   2.741   4.690
 6469TIP3   OH219370   5.339   1.002   1.853
 6469TIP3    H119371   5.328   0.983   1.760
 6469TIP3    H219372   5.320   1.096   1.861
 6470TIP3   OH219373   1.685   1.160   4.842
 6470TIP3    H119374   1.713   1.074   4.873
 6470TIP3    H219375   1.762   1.216   4.854
 6471TIP3   OH219376   4.109   0.482   1.109
 6471TIP3    H119377   4.048   0.545   1.071
 6471TIP3    H219378   4.161   0.534   1.171
 6472TIP3   OH219379   3.951   5.146   2.237
 6472TIP3    H119380   3.857   5.140   2.219
 6472TIP3    H219381   3.979   5.055   2.246
 6473TIP3   OH219382   0.931   4.862   1.892
 6473TIP3    H119383   1.023   4.890   1.899
 6473TIP3    H219384   0.913   4.818   1.975
 6474TIP3   OH219385   0.549   6.496   5.166
 6474TIP3    H119386   0.607   6.527   5.235
 6474TIP3    H219387   0.546   6.401   5.178
 6475TIP3   OH219388   6.657   3.090   0.353
 6475TIP3    H119389   6.605   3.050   0.423
 6475TIP3    H219390   6.602   3.161   0.320
 6476TIP3   OH219391   0.122   1.745   0.463
 6476TIP3    H119392   0.094   1.675   0.522
 6476TIP3    H219393   0.207   1.716   0.430
 6477TIP3   OH219394   0.368   3.641   2.838
 6477TIP3    H119395   0.329   3.575   2.781
 6477TIP3    H219396   0.388   3.594   2.919
 6478TIP3   OH219397   5.929   3.955   5.651
 6478TIP3    H119398   5.890   3.957   5.739
 6478TIP3    H219399   5.988   3.880   5.653
 6479TIP3   OH219400   5.241   4.799   1.292
 6479TIP3    H119401   5.318   4.764   1.337
 6479TIP3    H219402   5.174   4.805   1.361
 6480TIP3   OH219403   0.088   2.699   4.763
 6480TIP3    H119404   0.148   2.674   4.693
 6480TIP3    H219405   0.057   2.786   4.738
 6481TIP3   OH219406   1.505   1.359   2.627
 6481TIP3    H119407   1.432   1.323   2.677
 6481TIP3    H219408   1.473   1.442   2.593
 6482TIP3   OH219409   2.637   3.989   4.433
 6482TIP3    H119410   2.588   4.011   4.354
 6482TIP3    H219411   2.648   3.894   4.428
 6483TIP3   OH219412   1.659   1.139   1.995
 6483TIP3    H119413   1.663   1.231   1.971
 6483TIP3    H219414   1.635   1.093   1.915
 6484TIP3   OH219415   5.533   2.445   2.539
 6484TIP3    H119416   5.544   2.361   2.494
 6484TIP3    H219417   5.443   2.471   2.520
 6485TIP3   OH219418   2.851   5.039   2.308
 6485TIP3    H119419   2.823   5.094   2.381
 6485TIP3    H219420   2.849   5.096   2.232
 6486TIP3   OH219421   4.968   2.582   2.203
 6486TIP3    H119422   4.973   2.645   2.131
 6486TIP3    H219423   4.878   2.590   2.234
 6487TIP3   OH219424   3.776   0.386   2.434
 6487TIP3    H119425   3.688   0.354   2.451
 6487TIP3    H219426   3.818   0.316   2.384
 6488TIP3   OH219427   4.046   5.083   0.625
 6488TIP3    H119428   4.090   5.121   0.550
 6488TIP3    H219429   4.018   5.158   0.678
 6489TIP3   OH219430   0.354   2.802   3.651
 6489TIP3    H119431   0.265   2.833   3.632
 6489TIP3    H219432   0.400   2.809   3.568
 6490TIP3   OH219433   2.046   4.639   1.877
 6490TIP3    H119434   2.042   4.598   1.964
 6490TIP3    H219435   2.096   4.577   1.824
 6491TIP3   OH219436   4.751   4.378   0.021
 6491TIP3    H119437   4.687   4.313  -0.010
 6491TIP3    H219438   4.761   4.360   0.114
 6492TIP3   OH219439   5.292   0.661   0.996
 6492TIP3    H119440   5.217   0.609   0.968
 6492TIP3    H219441   5.361   0.596   1.012
 6493TIP3   OH219442   5.125   3.163   4.668
 6493TIP3    H119443   5.121   3.070   4.645
 6493TIP3    H219444   5.111   3.209   4.586
 6494TIP3   OH219445   4.907   3.769   1.891
 6494TIP3    H119446   4.910   3.774   1.986
 6494TIP3    H219447   4.828   3.818   1.866
 6495TIP3   OH219448   6.925   0.833   4.011
 6495TIP3    H119449   6.990   0.832   3.940
 6495TIP3    H219450   6.900   0.741   4.022
 6496TIP3   OH219451   5.113   4.204   3.461
 6496TIP3    H119452   5.079   4.116   3.445
 6496TIP3    H219453   5.109   4.214   3.556
 6497TIP3   OH219454   2.975   3.520   3.332
 6497TIP3    H119455   2.958   3.430   3.360
 6497TIP3    H219456   2.888   3.557   3.318
 6498TIP3   OH219457   5.980   2.701   4.203
 6498TIP3    H119458   6.033   2.647   4.144
 6498TIP3    H219459   6.022   2.786   4.203
 6499TIP3   OH219460   2.728   4.831   1.318
 6499TIP3    H119461   2.787   4.757   1.332
 6499TIP3    H219462   2.673   4.804   1.244
 6500TIP3   OH219463   4.811   3.092   4.017
 6500TIP3    H119464   4.742   3.146   3.978
 6500TIP3    H219465   4.766   3.011   4.042
 6501TIP3   OH219466   1.525   2.677   3.250
 6501TIP3    H119467   1.557   2.755   3.296
 6501TIP3    H219468   1.591   2.660   3.183
 6502TIP3   OH219469   3.106   5.578   1.154
 6502TIP3    H119470   3.020   5.570   1.115
 6502TIP3    H219471   3.141   5.489   1.157
 6503TIP3   OH219472   2.740   4.182   4.800
 6503TIP3    H119473   2.806   4.141   4.744
 6503TIP3    H219474   2.658   4.175   4.750
 6504TIP3   OH219475   4.866   2.903   4.841
 6504TIP3    H119476   4.956   2.883   4.867
 6504TIP3    H219477   4.875   2.975   4.778
 6505TIP3   OH219478   4.571   3.276   3.372
 6505TIP3    H119479   4.514   3.337   3.325
 6505TIP3    H219480   4.604   3.326   3.447
 6506TIP3   OH219481   2.569   2.502   1.043
 6506TIP3    H119482   2.518   2.442   1.097
 6506TIP3    H219483   2.559   2.587   1.087
 6507TIP3   OH219484   3.772   6.565   1.572
 6507TIP3    H119485   3.699   6.560   1.510
 6507TIP3    H219486   3.734   6.537   1.655
 6508TIP3   OH219487   4.735   4.607   4.252
 6508TIP3    H119488   4.697   4.526   4.219
 6508TIP3    H219489   4.769   4.652   4.175
 6509TIP3   OH219490   2.092   5.602   4.850
 6509TIP3    H119491   2.180   5.630   4.872
 6509TIP3    H219492   2.102   5.550   4.771
 6510TIP3   OH219493   3.457   1.490   0.637
 6510TIP3    H119494   3.431   1.519   0.549
 6510TIP3    H219495   3.375   1.460   0.677
 6511TIP3   OH219496   7.038   5.310   3.111
 6511TIP3    H119497   7.089   5.329   3.189
 6511TIP3    H219498   7.016   5.217   3.118
 6512TIP3   OH219499   0.011   0.091   4.675
 6512TIP3    H119500   0.082   0.053   4.726
 6512TIP3    H219501   0.040   0.179   4.654
 6513TIP3   OH219502   3.033   1.654   4.652
 6513TIP3    H119503   2.943   1.621   4.659
 6513TIP3    H219504   3.023   1.750   4.653
 6514TIP3   OH219505   4.870   5.031   0.507
 6514TIP3    H119506   4.836   5.050   0.420
 6514TIP3    H219507   4.949   4.979   0.491
 6515TIP3   OH219508   2.439   4.914   3.496
 6515TIP3    H119509   2.434   4.902   3.401
 6515TIP3    H219510   2.394   4.996   3.513
 6516TIP3   OH219511   1.837   1.760   1.396
 6516TIP3    H119512   1.787   1.841   1.385
 6516TIP3    H219513   1.922   1.788   1.431
 6517TIP3   OH219514   7.100   0.331   0.056
 6517TIP3    H119515   7.165   0.302  -0.008
 6517TIP3    H219516   7.150   0.343   0.137
 6518TIP3   OH219517   1.937   3.532   2.014
 6518TIP3    H119518   1.896   3.559   1.932
 6518TIP3    H219519   1.868   3.542   2.080
 6519TIP3   OH219520   5.286   0.183   1.492
 6519TIP3    H119521   5.361   0.188   1.433
 6519TIP3    H219522   5.265   0.274   1.513
 6520TIP3   OH219523   4.576   6.775   2.354
 6520TIP3    H119524   4.553   6.840   2.420
 6520TIP3    H219525   4.580   6.824   2.272
 6521TIP3   OH219526   3.201   1.445   5.105
 6521TIP3    H119527   3.264   1.490   5.160
 6521TIP3    H219528   3.115   1.470   5.140
 6522TIP3   OH219529   4.697   1.603   1.732
 6522TIP3    H119530   4.717   1.677   1.675
 6522TIP3    H219531   4.782   1.563   1.750
 6523TIP3   OH219532   1.074   4.048   0.368
 6523TIP3    H119533   0.980   4.043   0.386
 6523TIP3    H219534   1.111   3.970   0.410
 6524TIP3   OH219535   3.934   4.599   2.597
 6524TIP3    H119536   3.970   4.602   2.509
 6524TIP3    H219537   3.911   4.691   2.616
 6525TIP3   OH219538   0.472   3.213   4.000
 6525TIP3    H119539   0.493   3.279   3.935
 6525TIP3    H219540   0.557   3.184   4.034
 6526TIP3   OH219541   1.644   5.981   1.461
 6526TIP3    H119542   1.549   5.992   1.458
 6526TIP3    H219543   1.658   5.894   1.499
 6527TIP3   OH219544   4.376   4.830   4.244
 6527TIP3    H119545   4.399   4.849   4.153
 6527TIP3    H219546   4.367   4.734   4.246
 6528TIP3   OH219547   3.885   4.877   0.559
 6528TIP3    H119548   3.948   4.942   0.588
 6528TIP3    H219549   3.875   4.892   0.465
 6529TIP3   OH219550   1.395   2.834   3.761
 6529TIP3    H119551   1.350   2.851   3.843
 6529TIP3    H219552   1.336   2.777   3.712
 6530TIP3   OH219553   4.529   3.107   5.045
 6530TIP3    H119554   4.535   3.062   5.130
 6530TIP3    H219555   4.620   3.124   5.021
 6531TIP3   OH219556   4.332   0.606   3.276
 6531TIP3    H119557   4.267   0.605   3.206
 6531TIP3    H219558   4.281   0.585   3.355
 6532TIP3   OH219559   5.954   1.415   5.016
 6532TIP3    H119560   5.895   1.462   4.958
 6532TIP3    H219561   5.995   1.483   5.070
 6533TIP3   OH219562   3.199   2.842   5.254
 6533TIP3    H119563   3.229   2.906   5.319
 6533TIP3    H219564   3.112   2.818   5.283
 6534TIP3   OH219565   2.621   0.297   1.426
 6534TIP3    H119566   2.648   0.378   1.383
 6534TIP3    H219567   2.553   0.324   1.488
 6535TIP3   OH219568   3.132   4.845   5.258
 6535TIP3    H119569   3.163   4.790   5.329
 6535TIP3    H219570   3.071   4.906   5.299
 6536TIP3   OH219571   5.234   1.825   1.230
 6536TIP3    H119572   5.289   1.902   1.215
 6536TIP3    H219573   5.233   1.779   1.147
 6537TIP3   OH219574   5.562   1.903   4.229
 6537TIP3    H119575   5.514   1.959   4.291
 6537TIP3    H219576   5.495   1.843   4.195
 6538TIP3   OH219577   0.393   2.676   5.364
 6538TIP3    H119578   0.431   2.696   5.279
 6538TIP3    H219579   0.406   2.582   5.374
 6539TIP3   OH219580   1.076   6.498   4.039
 6539TIP3    H119581   1.139   6.472   3.972
 6539TIP3    H219582   0.992   6.498   3.994
 6540TIP3   OH219583   4.669   2.470   2.445
 6540TIP3    H119584   4.668   2.563   2.423
 6540TIP3    H219585   4.620   2.465   2.528
 6541TIP3   OH219586   6.535   1.999   3.451
 6541TIP3    H119587   6.490   1.914   3.455
 6541TIP3    H219588   6.618   1.983   3.495
 6542TIP3   OH219589   3.725   2.546   4.473
 6542TIP3    H119590   3.640   2.513   4.501
 6542TIP3    H219591   3.739   2.624   4.526
 6543TIP3   OH219592   0.490   4.796   2.750
 6543TIP3    H119593   0.554   4.800   2.821
 6543TIP3    H219594   0.439   4.717   2.768
 6544TIP3   OH219595   1.583   1.335   3.028
 6544TIP3    H119596   1.513   1.396   3.006
 6544TIP3    H219597   1.648   1.346   2.958
 6545TIP3   OH219598   5.658   2.545   0.784
 6545TIP3    H119599   5.688   2.599   0.711
 6545TIP3    H219600   5.678   2.597   0.862
 6546TIP3   OH219601   0.918   3.271   4.252
 6546TIP3    H119602   0.988   3.270   4.187
 6546TIP3    H219603   0.913   3.181   4.283
 6547TIP3   OH219604   6.656   6.034   5.355
 6547TIP3    H119605   6.655   6.080   5.271
 6547TIP3    H219606   6.582   6.069   5.404
 6548TIP3   OH219607   1.718   5.273   4.842
 6548TIP3    H119608   1.796   5.313   4.881
 6548TIP3    H219609   1.751   5.204   4.786
 6549TIP3   OH219610   3.564   4.216   0.065
 6549TIP3    H119611   3.567   4.129   0.105
 6549TIP3    H219612   3.586   4.276   0.136
 6550TIP3   OH219613   7.116   4.406   0.574
 6550TIP3    H119614   7.092   4.314   0.586
 6550TIP3    H219615   7.175   4.425   0.646
 6551TIP3   OH219616   6.771   1.927   1.384
 6551TIP3    H119617   6.699   1.987   1.404
 6551TIP3    H219618   6.849   1.973   1.416
 6552TIP3   OH219619   1.418   1.256   4.083
 6552TIP3    H119620   1.400   1.221   3.996
 6552TIP3    H219621   1.337   1.300   4.109
 6553TIP3   OH219622   1.550   4.215   1.798
 6553TIP3    H119623   1.615   4.261   1.850
 6553TIP3    H219624   1.466   4.253   1.825
 6554TIP3   OH219625   6.133   4.577   5.018
 6554TIP3    H119626   6.225   4.603   5.021
 6554TIP3    H219627   6.106   4.598   4.928
 6555TIP3   OH219628   1.486   5.897   2.732
 6555TIP3    H119629   1.524   5.867   2.650
 6555TIP3    H219630   1.428   5.969   2.708
 6556TIP3   OH219631   2.095   5.197   1.763
 6556TIP3    H119632   2.175   5.147   1.748
 6556TIP3    H219633   2.026   5.131   1.768
 6557TIP3   OH219634   1.280   4.416   2.360
 6557TIP3    H119635   1.286   4.477   2.287
 6557TIP3    H219636   1.365   4.422   2.403
 6558TIP3   OH219637   6.689   1.524   1.612
 6558TIP3    H119638   6.730   1.571   1.684
 6558TIP3    H219639   6.613   1.578   1.588
 6559TIP3   OH219640   0.831   4.525   2.930
 6559TIP3    H119641   0.787   4.462   2.872
 6559TIP3    H219642   0.911   4.549   2.883
 6560TIP3   OH219643   4.072   4.782   5.560
 6560TIP3    H119644   4.079   4.794   5.466
 6560TIP3    H219645   4.153   4.739   5.586
 6561TIP3   OH219646   7.128   1.058   5.602
 6561TIP3    H119647   7.103   1.148   5.622
 6561TIP3    H219648   7.180   1.065   5.522
 6562TIP3   OH219649   6.907   3.809   3.704
 6562TIP3    H119650   6.990   3.812   3.655
 6562TIP3    H219651   6.887   3.901   3.722
 6563TIP3   OH219652   1.743   2.554   5.772
 6563TIP3    H119653   1.719   2.590   5.687
 6563TIP3    H219654   1.659   2.542   5.817
 6564TIP3   OH219655   2.135   5.650   2.348
 6564TIP3    H119656   2.210   5.590   2.348
 6564TIP3    H219657   2.075   5.612   2.412
 6565TIP3   OH219658   1.100   1.479   2.752
 6565TIP3    H119659   1.156   1.402   2.764
 6565TIP3    H219660   1.147   1.550   2.793
 6566TIP3   OH219661   4.350   5.547   0.960
 6566TIP3    H119662   4.439   5.549   0.924
 6566TIP3    H219663   4.360   5.574   1.051
 6567TIP3   OH219664   1.377   4.336   4.268
 6567TIP3    H119665   1.297   4.374   4.305
 6567TIP3    H219666   1.361   4.336   4.173
 6568TIP3   OH219667   0.001   2.115   3.867
 6568TIP3    H119668   0.086   2.101   3.909
 6568TIP3    H219669   0.004   2.205   3.835
 6569TIP3   OH219670   2.144   0.117   2.671
 6569TIP3    H119671   2.132   0.212   2.666
 6569TIP3    H219672   2.238   0.106   2.684
 6570TIP3   OH219673   1.690   2.955   0.064
 6570TIP3    H119674   1.615   2.970   0.006
 6570TIP3    H219675   1.652   2.923   0.145
 6571TIP3   OH219676   0.098   5.691   0.221
 6571TIP3    H119677   0.072   5.731   0.304
 6571TIP3    H219678   0.174   5.742   0.193
 6572TIP3   OH219679   5.651   1.842   4.865
 6572TIP3    H119680   5.609   1.838   4.951
 6572TIP3    H219681   5.694   1.928   4.863
 6573TIP3   OH219682   2.390   5.208   4.403
 6573TIP3    H119683   2.455   5.147   4.368
 6573TIP3    H219684   2.407   5.290   4.357
 6574TIP3   OH219685   3.481   5.520   5.641
 6574TIP3    H119686   3.504   5.434   5.607
 6574TIP3    H219687   3.555   5.545   5.696
 6575TIP3   OH219688   5.921   4.645   1.092
 6575TIP3    H119689   6.002   4.650   1.143
 6575TIP3    H219690   5.878   4.565   1.122
 6576TIP3   OH219691   2.968   3.597   5.423
 6576TIP3    H119692   2.967   3.661   5.495
 6576TIP3    H219693   2.904   3.631   5.361
 6577TIP3   OH219694   2.684   2.544   3.588
 6577TIP3    H119695   2.703   2.529   3.681
 6577TIP3    H219696   2.760   2.592   3.556
 6578TIP3   OH219697   2.301   4.696   1.968
 6578TIP3    H119698   2.336   4.655   1.889
 6578TIP3    H219699   2.207   4.705   1.951
 6579TIP3   OH219700   4.494   0.862   2.500
 6579TIP3    H119701   4.568   0.810   2.471
 6579TIP3    H219702   4.498   0.859   2.596
 6580TIP3   OH219703   6.494   2.850   5.751
 6580TIP3    H119704   6.550   2.851   5.828
 6580TIP3    H219705   6.490   2.942   5.723
 6581TIP3   OH219706   3.421   6.175   3.249
 6581TIP3    H119707   3.336   6.216   3.234
 6581TIP3    H219708   3.401   6.095   3.297
 6582TIP3   OH219709   5.580   2.143   5.800
 6582TIP3    H119710   5.553   2.231   5.829
 6582TIP3    H219711   5.517   2.120   5.732
 6583TIP3   OH219712   6.989   6.288   0.323
 6583TIP3    H119713   7.017   6.379   0.311
 6583TIP3    H219714   6.987   6.252   0.234
 6584TIP3   OH219715   5.977   3.902   2.942
 6584TIP3    H119716   5.903   3.898   2.882
 6584TIP3    H219717   6.050   3.934   2.889
 6585TIP3   OH219718   2.825   5.484   3.483
 6585TIP3    H119719   2.842   5.478   3.389
 6585TIP3    H219720   2.903   5.447   3.525
 6586TIP3   OH219721   6.551   2.411   1.323
 6586TIP3    H119722   6.530   2.504   1.336
 6586TIP3    H219723   6.634   2.412   1.276
 6587TIP3   OH219724   2.159   2.348   3.865
 6587TIP3    H119725   2.099   2.374   3.936
 6587TIP3    H219726   2.222   2.419   3.860
 6588TIP3   OH219727   1.622   2.639   4.420
 6588TIP3    H119728   1.704   2.660   4.463
 6588TIP3    H219729   1.609   2.709   4.356
 6589TIP3   OH219730   0.898   5.049   1.276
 6589TIP3    H119731   0.864   5.009   1.196
 6589TIP3    H219732   0.993   5.042   1.267
 6590TIP3   OH219733   5.312   2.288   5.055
 6590TIP3    H119734   5.382   2.253   5.110
 6590TIP3    H219735   5.325   2.383   5.058
 6591TIP3   OH219736   7.200   5.996   1.272
 6591TIP3    H119737   7.128   5.933   1.275
 6591TIP3    H219738   7.179   6.060   1.339
 6592TIP3   OH219739   5.357   6.704   2.128
 6592TIP3    H119740   5.294   6.668   2.190
 6592TIP3    H219741   5.356   6.798   2.145
 6593TIP3   OH219742   1.490   4.323   2.650
 6593TIP3    H119743   1.505   4.369   2.732
 6593TIP3    H219744   1.530   4.237   2.663
 6594TIP3   OH219745   2.523   1.502   4.321
 6594TIP3    H119746   2.580   1.578   4.309
 6594TIP3    H219747   2.497   1.506   4.413
 6595TIP3   OH219748   6.037   1.258   1.880
 6595TIP3    H119749   5.978   1.309   1.935
 6595TIP3    H219750   5.980   1.211   1.820
 6596TIP3   OH219751   3.277   1.792   4.573
 6596TIP3    H119752   3.203   1.847   4.600
 6596TIP3    H219753   3.249   1.753   4.490
 6597TIP3   OH219754   1.053   4.864   4.942
 6597TIP3    H119755   1.006   4.947   4.934
 6597TIP3    H219756   1.005   4.815   5.008
 6598TIP3   OH219757   5.173   5.550   5.012
 6598TIP3    H119758   5.079   5.568   5.020
 6598TIP3    H219759   5.206   5.555   5.101
 6599TIP3   OH219760   0.870   1.462   1.769
 6599TIP3    H119761   0.848   1.377   1.730
 6599TIP3    H219762   0.962   1.453   1.794
 6600TIP3   OH219763   4.797   4.764   4.034
 6600TIP3    H119764   4.837   4.846   4.062
 6600TIP3    H219765   4.729   4.790   3.972
 6601TIP3   OH219766   3.684   5.058   0.290
 6601TIP3    H119767   3.750   5.123   0.314
 6601TIP3    H219768   3.602   5.093   0.324
 6602TIP3   OH219769   4.932   3.625   1.349
 6602TIP3    H119770   4.973   3.548   1.310
 6602TIP3    H219771   4.858   3.644   1.291
 6603TIP3   OH219772   6.594   6.671   3.912
 6603TIP3    H119773   6.687   6.666   3.936
 6603TIP3    H219774   6.575   6.765   3.912
 6604TIP3   OH219775   7.191   4.600   1.864
 6604TIP3    H119776   7.098   4.590   1.886
 6604TIP3    H219777   7.190   4.628   1.772
 6605TIP3   OH219778   6.332   4.800   1.944
 6605TIP3    H119779   6.406   4.828   1.889
 6605TIP3    H219780   6.339   4.705   1.946
 6606TIP3   OH219781   2.143   4.727   3.398
 6606TIP3    H119782   2.176   4.638   3.387
 6606TIP3    H219783   2.177   4.775   3.322
 6607TIP3   OH219784   1.490   2.111   0.394
 6607TIP3    H119785   1.401   2.121   0.426
 6607TIP3    H219786   1.483   2.051   0.320
 6608TIP3   OH219787   3.996   0.154   3.777
 6608TIP3    H119788   3.937   0.089   3.815
 6608TIP3    H219789   4.083   0.115   3.786
 6609TIP3   OH219790   2.841   3.325   4.603
 6609TIP3    H119791   2.772   3.341   4.539
 6609TIP3    H219792   2.827   3.235   4.631
 6610TIP3   OH219793   1.069   3.704   1.435
 6610TIP3    H119794   1.085   3.764   1.362
 6610TIP3    H219795   1.123   3.739   1.506
 6611TIP3   OH219796   6.255   4.186   5.617
 6611TIP3    H119797   6.252   4.107   5.563
 6611TIP3    H219798   6.259   4.153   5.707
 6612TIP3   OH219799   4.931   6.426   5.595
 6612TIP3    H119800   4.841   6.445   5.569
 6612TIP3    H219801   4.924   6.352   5.656
 6613TIP3   OH219802   4.645   2.249   5.312
 6613TIP3    H119803   4.643   2.172   5.255
 6613TIP3    H219804   4.729   2.291   5.291
 6614TIP3   OH219805   5.445   2.756   2.593
 6614TIP3    H119806   5.489   2.711   2.665
 6614TIP3    H219807   5.352   2.750   2.614
 6615TIP3   OH219808   3.288   5.793   2.050
 6615TIP3    H119809   3.245   5.708   2.049
 6615TIP3    H219810   3.244   5.844   1.982
 6616TIP3   OH219811   5.561   1.752   0.267
 6616TIP3    H119812   5.532   1.734   0.177
 6616TIP3    H219813   5.553   1.669   0.313
 6617TIP3   OH219814   6.805   1.759   5.027
 6617TIP3    H119815   6.720   1.799   5.009
 6617TIP3    H219816   6.791   1.705   5.104
 6618TIP3   OH219817   0.230   2.257   4.830
 6618TIP3    H119818   0.137   2.238   4.819
 6618TIP3    H219819   0.260   2.191   4.894
 6619TIP3   OH219820   6.569   6.138   0.122
 6619TIP3    H119821   6.587   6.158   0.214
 6619TIP3    H219822   6.533   6.219   0.087
 6620TIP3   OH219823   1.111   3.926   1.248
 6620TIP3    H119824   1.132   3.994   1.184
 6620TIP3    H219825   1.017   3.912   1.239
 6621TIP3   OH219826   6.509   5.316   3.478
 6621TIP3    H119827   6.588   5.369   3.484
 6621TIP3    H219828   6.467   5.325   3.563
 6622TIP3   OH219829   5.135   2.095   5.308
 6622TIP3    H119830   5.089   2.104   5.224
 6622TIP3    H219831   5.111   2.173   5.357
 6623TIP3   OH219832   2.230   3.745   0.614
 6623TIP3    H119833   2.297   3.702   0.667
 6623TIP3    H219834   2.269   3.752   0.527
 6624TIP3   OH219835   1.688   2.369   4.618
 6624TIP3    H119836   1.656   2.373   4.708
 6624TIP3    H219837   1.706   2.460   4.595
 6625TIP3   OH219838   2.254   4.777   4.860
 6625TIP3    H119839   2.294   4.828   4.931
 6625TIP3    H219840   2.327   4.756   4.802
 6626TIP3   OH219841   3.743   5.269   0.638
 6626TIP3    H119842   3.737   5.277   0.543
 6626TIP3    H219843   3.678   5.203   0.661
 6627TIP3   OH219844   0.400   5.297   2.313
 6627TIP3    H119845   0.431   5.386   2.329
 6627TIP3    H219846   0.437   5.246   2.384
 6628TIP3   OH219847   3.999   3.337   2.373
 6628TIP3    H119848   3.973   3.274   2.306
 6628TIP3    H219849   4.010   3.419   2.326
 6629TIP3   OH219850   2.960   3.330   3.829
 6629TIP3    H119851   3.041   3.362   3.790
 6629TIP3    H219852   2.957   3.371   3.915
 6630TIP3   OH219853   6.499   1.005   1.084
 6630TIP3    H119854   6.551   1.054   1.020
 6630TIP3    H219855   6.423   0.974   1.036
 6631TIP3   OH219856   1.139   0.896   1.523
 6631TIP3    H119857   1.066   0.884   1.461
 6631TIP3    H219858   1.105   0.958   1.587
 6632TIP3   OH219859   0.918   3.459   2.649
 6632TIP3    H119860   0.914   3.363   2.654
 6632TIP3    H219861   1.003   3.477   2.610
 6633TIP3   OH219862   4.138   4.007   0.667
 6633TIP3    H119863   4.149   4.067   0.593
 6633TIP3    H219864   4.124   3.921   0.626
 6634TIP3   OH219865   5.924   4.529   0.820
 6634TIP3    H119866   5.922   4.568   0.907
 6634TIP3    H219867   5.987   4.581   0.771
 6635TIP3   OH219868   3.205   6.507   0.080
 6635TIP3    H119869   3.165   6.532   0.163
 6635TIP3    H219870   3.193   6.412   0.075
 6636TIP3   OH219871   2.177   1.608   3.509
 6636TIP3    H119872   2.088   1.573   3.497
 6636TIP3    H219873   2.230   1.557   3.448
 6637TIP3   OH219874   6.266   3.692   1.134
 6637TIP3    H119875   6.342   3.648   1.096
 6637TIP3    H219876   6.304   3.755   1.196
 6638TIP3   OH219877   2.934   6.682   0.058
 6638TIP3    H119878   2.959   6.769   0.026
 6638TIP3    H219879   2.987   6.669   0.137
 6639TIP3   OH219880   5.503   6.578   1.957
 6639TIP3    H119881   5.506   6.490   1.995
 6639TIP3    H219882   5.438   6.624   2.010
 6640TIP3   OH219883   4.225   6.396   3.375
 6640TIP3    H119884   4.147   6.425   3.422
 6640TIP3    H219885   4.256   6.474   3.330
 6641TIP3   OH219886   4.443   1.335   0.177
 6641TIP3    H119887   4.396   1.390   0.114
 6641TIP3    H219888   4.519   1.303   0.130
 6642TIP3   OH219889   4.030   0.249   4.334
 6642TIP3    H119890   3.937   0.257   4.352
 6642TIP3    H219891   4.035   0.233   4.240
 6643TIP3   OH219892   6.551   4.741   0.201
 6643TIP3    H119893   6.481   4.791   0.160
 6643TIP3    H219894   6.511   4.704   0.280
 6644TIP3   OH219895   6.239   4.770   3.331
 6644TIP3    H119896   6.144   4.783   3.342
 6644TIP3    H219897   6.276   4.857   3.346
 6645TIP3   OH219898   2.080   5.087   2.109
 6645TIP3    H119899   2.009   5.150   2.094
 6645TIP3    H219900   2.066   5.019   2.042
 6646TIP3   OH219901   5.422   3.906   0.740
 6646TIP3    H119902   5.378   3.827   0.770
 6646TIP3    H219903   5.396   3.974   0.802
 6647TIP3   OH219904   3.785   0.651   0.463
 6647TIP3    H119905   3.842   0.727   0.477
 6647TIP3    H219906   3.698   0.681   0.490
 6648TIP3   OH219907   5.940   3.160   4.011
 6648TIP3    H119908   5.881   3.214   4.065
 6648TIP3    H219909   5.887   3.083   3.989
 6649TIP3   OH219910   3.332   0.697   4.255
 6649TIP3    H119911   3.278   0.624   4.225
 6649TIP3    H219912   3.271   0.771   4.257
 6650TIP3   OH219913   3.424   5.634   4.114
 6650TIP3    H119914   3.489   5.661   4.048
 6650TIP3    H219915   3.431   5.539   4.117
 6651TIP3   OH219916   7.173   2.585   0.806
 6651TIP3    H119917   7.202   2.663   0.855
 6651TIP3    H219918   7.124   2.534   0.871
 6652TIP3   OH219919   4.489   4.064   2.701
 6652TIP3    H119920   4.440   4.092   2.624
 6652TIP3    H219921   4.433   4.087   2.775
 6653TIP3   OH219922   6.770   4.247   1.826
 6653TIP3    H119923   6.739   4.324   1.778
 6653TIP3    H219924   6.696   4.222   1.881
 6654TIP3   OH219925   1.659   6.466   3.030
 6654TIP3    H119926   1.654   6.474   3.125
 6654TIP3    H219927   1.681   6.555   3.001
 6655TIP3   OH219928   6.309   0.152   3.073
 6655TIP3    H119929   6.267   0.201   3.002
 6655TIP3    H219930   6.248   0.158   3.146
 6656TIP3   OH219931   2.550   2.789   5.661
 6656TIP3    H119932   2.561   2.713   5.605
 6656TIP3    H219933   2.636   2.831   5.661
 6657TIP3   OH219934   7.047   4.307   2.030
 6657TIP3    H119935   7.109   4.283   1.961
 6657TIP3    H219936   6.961   4.297   1.991
 6658TIP3   OH219937   6.531   4.358   5.736
 6658TIP3    H119938   6.563   4.331   5.650
 6658TIP3    H219939   6.439   4.381   5.721
 6659TIP3   OH219940   5.173   2.976   2.860
 6659TIP3    H119941   5.117   2.958   2.784
 6659TIP3    H219942   5.115   2.966   2.936
 6660TIP3   OH219943   1.958   0.434   2.911
 6660TIP3    H119944   1.933   0.423   2.819
 6660TIP3    H219945   2.001   0.352   2.935
 6661TIP3   OH219946   5.638   0.605   4.960
 6661TIP3    H119947   5.555   0.651   4.953
 6661TIP3    H219948   5.662   0.583   4.870
 6662TIP3   OH219949   6.742   4.067   4.540
 6662TIP3    H119950   6.778   4.083   4.626
 6662TIP3    H219951   6.793   4.122   4.481
 6663TIP3   OH219952   2.554   5.146   0.361
 6663TIP3    H119953   2.562   5.057   0.325
 6663TIP3    H219954   2.642   5.167   0.392
 6664TIP3   OH219955   0.617   2.364   1.469
 6664TIP3    H119956   0.701   2.410   1.471
 6664TIP3    H219957   0.560   2.416   1.527
 6665TIP3   OH219958   6.302   2.705   0.131
 6665TIP3    H119959   6.219   2.749   0.150
 6665TIP3    H219960   6.281   2.612   0.138
 6666TIP3   OH219961   7.208   6.309   3.525
 6666TIP3    H119962   7.128   6.272   3.562
 6666TIP3    H219963   7.215   6.269   3.438
 6667TIP3   OH219964   0.662   1.814   5.128
 6667TIP3    H119965   0.641   1.888   5.185
 6667TIP3    H219966   0.614   1.740   5.166
 6668TIP3   OH219967   7.094   1.410   2.996
 6668TIP3    H119968   7.153   1.411   2.921
 6668TIP3    H219969   7.006   1.413   2.957
 6669TIP3   OH219970   0.872   6.702   0.455
 6669TIP3    H119971   0.863   6.683   0.361
 6669TIP3    H219972   0.950   6.653   0.482
 6670TIP3   OH219973   1.114   2.753   2.293
 6670TIP3    H119974   1.184   2.784   2.350
 6670TIP3    H219975   1.113   2.658   2.305
 6671TIP3   OH219976   0.439   1.102   3.167
 6671TIP3    H119977   0.480   1.147   3.241
 6671TIP3    H219978   0.354   1.074   3.201
 6672TIP3   OH219979   3.369   4.951   4.351
 6672TIP3    H119980   3.334   4.890   4.286
 6672TIP3    H219981   3.302   5.019   4.358
 6673TIP3   OH219982   2.140   6.282   1.029
 6673TIP3    H119983   2.122   6.359   0.976
 6673TIP3    H219984   2.185   6.222   0.970
 6674TIP3   OH219985   4.117   4.648   5.047
 6674TIP3    H119986   4.155   4.719   4.995
 6674TIP3    H219987   4.087   4.584   4.982
 6675TIP3   OH219988   3.346   2.083  -0.051
 6675TIP3    H119989   3.347   2.108   0.041
 6675TIP3    H219990   3.288   2.148  -0.093
 6676TIP3   OH219991   3.449   2.872   4.746
 6676TIP3    H119992   3.403   2.951   4.718
 6676TIP3    H219993   3.499   2.899   4.822
 6677TIP3   OH219994   5.973   5.105   5.476
 6677TIP3    H119995   6.040   5.142   5.418
 6677TIP3    H219996   6.015   5.102   5.562
 6678TIP3   OH219997   4.776   6.077   2.771
 6678TIP3    H119998   4.823   6.012   2.823
 6678TIP3    H219999   4.735   6.134   2.836
 6679TIP3   OH220000   2.633   0.067   3.208
 6679TIP3    H120001   2.691  -0.007   3.225
 6679TIP3    H220002   2.625   0.111   3.292
 6680TIP3   OH220003   4.350   1.368   4.061
 6680TIP3    H120004   4.385   1.377   4.150
 6680TIP3    H220005   4.424   1.392   4.004
 6681TIP3   OH220006   5.544   1.731   3.694
 6681TIP3    H120007   5.550   1.720   3.599
 6681TIP3    H220008   5.529   1.824   3.707
 6682TIP3   OH220009   0.743   1.945   1.367
 6682TIP3    H120010   0.730   2.016   1.304
 6682TIP3    H220011   0.684   1.966   1.439
 6683TIP3   OH220012   0.317   5.102   5.160
 6683TIP3    H120013   0.348   5.184   5.122
 6683TIP3    H220014   0.375   5.086   5.234
 6684TIP3   OH220015   1.004   5.242   5.189
 6684TIP3    H120016   0.983   5.268   5.279
 6684TIP3    H220017   1.086   5.193   5.197
 6685TIP3   OH220018   1.121   4.853   3.697
 6685TIP3    H120019   1.166   4.855   3.612
 6685TIP3    H220020   1.150   4.933   3.741
 6686TIP3   OH220021   1.978   4.161   1.330
 6686TIP3    H120022   2.039   4.107   1.280
 6686TIP3    H220023   2.034   4.215   1.386
 6687TIP3   OH220024   3.031   4.823   3.213
 6687TIP3    H120025   3.120   4.849   3.189
 6687TIP3    H220026   3.002   4.889   3.276
 6688TIP3   OH220027   4.297   1.888   2.081
 6688TIP3    H120028   4.324   1.978   2.098
 6688TIP3    H220029   4.227   1.895   2.017
 6689TIP3   OH220030   6.115   5.970   5.236
 6689TIP3    H120031   6.103   5.968   5.331
 6689TIP3    H220032   6.105   5.878   5.208
 6690TIP3   OH220033   4.453   6.093   1.440
 6690TIP3    H120034   4.486   6.016   1.486
 6690TIP3    H220035   4.376   6.120   1.489
 6691TIP3   OH220036   6.097   4.684   0.623
 6691TIP3    H120037   6.143   4.602   0.602
 6691TIP3    H220038   6.165   4.751   0.620
 6692TIP3   OH220039   2.877   2.225   1.745
 6692TIP3    H120040   2.915   2.265   1.667
 6692TIP3    H220041   2.930   2.146   1.759
 6693TIP3   OH220042   0.326   6.296   1.206
 6693TIP3    H120043   0.264   6.254   1.147
 6693TIP3    H220044   0.272   6.343   1.269
 6694TIP3   OH220045   3.289   1.028   3.398
 6694TIP3    H120046   3.278   0.933   3.399
 6694TIP3    H220047   3.215   1.061   3.449
 6695TIP3   OH220048   5.837   3.785   2.184
 6695TIP3    H120049   5.798   3.873   2.178
 6695TIP3    H220050   5.842   3.767   2.278
 6696TIP3   OH220051   7.057   1.032   1.013
 6696TIP3    H120052   7.138   0.982   1.003
 6696TIP3    H220053   7.028   1.049   0.923
 6697TIP3   OH220054   6.796   0.930   1.689
 6697TIP3    H120055   6.797   0.835   1.680
 6697TIP3    H220056   6.849   0.962   1.615
 6698TIP3   OH220057   4.102   2.274   2.757
 6698TIP3    H120058   4.042   2.329   2.808
 6698TIP3    H220059   4.124   2.327   2.681
 6699TIP3   OH220060   1.643   2.420   3.425
 6699TIP3    H120061   1.586   2.382   3.359
 6699TIP3    H220062   1.728   2.428   3.382
 6700TIP3   OH220063   0.882   3.990   5.851
 6700TIP3    H120064   0.869   3.917   5.912
 6700TIP3    H220065   0.910   3.948   5.770
 6701TIP3   OH220066   3.198   2.425   1.261
 6701TIP3    H120067   3.143   2.352   1.233
 6701TIP3    H220068   3.196   2.422   1.357
 6702TIP3   OH220069   3.246   6.388   2.097
 6702TIP3    H120070   3.243   6.332   2.175
 6702TIP3    H220071   3.270   6.474   2.130
 6703TIP3   OH220072   3.175   1.268   2.695
 6703TIP3    H120073   3.107   1.210   2.660
 6703TIP3    H220074   3.153   1.276   2.788
 6704TIP3   OH220075   3.642   0.640   1.478
 6704TIP3    H120076   3.633   0.564   1.536
 6704TIP3    H220077   3.666   0.603   1.393
 6705TIP3   OH220078   1.897   1.508   4.019
 6705TIP3    H120079   1.933   1.514   3.931
 6705TIP3    H220080   1.892   1.598   4.050
 6706TIP3   OH220081   5.847   1.934   2.611
 6706TIP3    H120082   5.898   1.997   2.560
 6706TIP3    H220083   5.862   1.850   2.567
 6707TIP3   OH220084   2.873   2.762   2.476
 6707TIP3    H120085   2.813   2.751   2.550
 6707TIP3    H220086   2.960   2.755   2.515
 6708TIP3   OH220087   6.676   5.829   3.116
 6708TIP3    H120088   6.732   5.835   3.193
 6708TIP3    H220089   6.617   5.755   3.134
 6709TIP3   OH220090   6.448   5.001   1.437
 6709TIP3    H120091   6.471   4.980   1.527
 6709TIP3    H220092   6.524   5.049   1.403
 6710TIP3   OH220093   0.712   4.196   0.695
 6710TIP3    H120094   0.626   4.238   0.687
 6710TIP3    H220095   0.703   4.113   0.650
 6711TIP3   OH220096   2.112   2.856   0.839
 6711TIP3    H120097   2.200   2.894   0.842
 6711TIP3    H220098   2.122   2.776   0.787
 6712TIP3   OH220099   6.771   2.053   3.891
 6712TIP3    H120100   6.860   2.086   3.890
 6712TIP3    H220101   6.772   1.983   3.957
 6713TIP3   OH220102   1.478   5.829   1.119
 6713TIP3    H120103   1.404   5.884   1.145
 6713TIP3    H220104   1.555   5.880   1.146
 6714TIP3   OH220105   3.477   4.628   2.345
 6714TIP3    H120106   3.527   4.673   2.277
 6714TIP3    H220107   3.544   4.597   2.407
 6715TIP3   OH220108   3.770   1.993   1.671
 6715TIP3    H120109   3.857   1.971   1.637
 6715TIP3    H220110   3.766   2.088   1.666
 6716TIP3   OH220111   6.118   1.703   4.084
 6716TIP3    H120112   6.092   1.765   4.016
 6716TIP3    H220113   6.208   1.680   4.062
 6717TIP3   OH220114   4.103   5.170   3.894
 6717TIP3    H120115   4.112   5.084   3.854
 6717TIP3    H220116   4.125   5.232   3.824
 6718TIP3   OH220117   5.077   6.216   3.660
 6718TIP3    H120118   5.147   6.151   3.658
 6718TIP3    H220119   5.104   6.282   3.596
 6719TIP3   OH220120   1.325   0.134   5.821
 6719TIP3    H120121   1.306   0.045   5.851
 6719TIP3    H220122   1.302   0.190   5.895
 6720TIP3   OH220123   5.031   1.743   4.355
 6720TIP3    H120124   5.028   1.837   4.334
 6720TIP3    H220125   4.983   1.701   4.284
 6721TIP3   OH220126   1.656   1.757   2.608
 6721TIP3    H120127   1.733   1.703   2.591
 6721TIP3    H220128   1.691   1.842   2.633
 6722TIP3   OH220129   2.831   4.378   5.003
 6722TIP3    H120130   2.890   4.434   4.953
 6722TIP3    H220131   2.857   4.289   4.979
 6723TIP3   OH220132   6.054   1.321   1.001
 6723TIP3    H120133   6.079   1.287   1.087
 6723TIP3    H220134   5.967   1.284   0.986
 6724TIP3   OH220135   5.585   0.672   1.234
 6724TIP3    H120136   5.648   0.733   1.197
 6724TIP3    H220137   5.608   0.588   1.195
 6725TIP3   OH220138   4.665   6.553   0.695
 6725TIP3    H120139   4.754   6.552   0.732
 6725TIP3    H220140   4.671   6.496   0.618
 6726TIP3   OH220141   4.949   1.067   3.453
 6726TIP3    H120142   4.902   1.037   3.375
 6726TIP3    H220143   5.041   1.051   3.433
 6727TIP3   OH220144   2.880   6.332   5.420
 6727TIP3    H120145   2.972   6.326   5.394
 6727TIP3    H220146   2.869   6.264   5.486
 6728TIP3   OH220147   2.668   6.341   3.373
 6728TIP3    H120148   2.659   6.252   3.406
 6728TIP3    H220149   2.711   6.330   3.288
 6729TIP3   OH220150   6.189   1.162   1.223
 6729TIP3    H120151   6.142   1.157   1.307
 6729TIP3    H220152   6.183   1.073   1.187
 6730TIP3   OH220153   0.938   3.135   0.570
 6730TIP3    H120154   0.943   3.047   0.608
 6730TIP3    H220155   0.999   3.187   0.622
 6731TIP3   OH220156   2.481   1.438   0.668
 6731TIP3    H120157   2.392   1.406   0.686
 6731TIP3    H220158   2.472   1.533   0.667
 6732TIP3   OH220159   4.181   5.653   4.111
 6732TIP3    H120160   4.092   5.684   4.126
 6732TIP3    H220161   4.225   5.665   4.195
 6733TIP3   OH220162   0.968   3.316   0.036
 6733TIP3    H120163   0.983   3.289   0.127
 6733TIP3    H220164   0.898   3.259   0.005
 6734TIP3   OH220165   0.861   0.391   2.813
 6734TIP3    H120166   0.885   0.375   2.904
 6734TIP3    H220167   0.864   0.305   2.772
 6735TIP3   OH220168   0.716   1.225   1.983
 6735TIP3    H120169   0.703   1.320   1.982
 6735TIP3    H220170   0.679   1.198   2.067
 6736TIP3   OH220171   3.079   0.770   4.585
 6736TIP3    H120172   3.167   0.775   4.624
 6736TIP3    H220173   3.020   0.763   4.661
 6737TIP3   OH220174   0.757   5.987   4.743
 6737TIP3    H120175   0.829   6.047   4.726
 6737TIP3    H220176   0.778   5.909   4.691
 6738TIP3   OH220177   1.366   1.028   0.797
 6738TIP3    H120178   1.460   1.029   0.815
 6738TIP3    H220179   1.361   1.025   0.701
 6739TIP3   OH220180   6.660   3.534   0.862
 6739TIP3    H120181   6.688   3.457   0.911
 6739TIP3    H220182   6.669   3.509   0.770
 6740TIP3   OH220183   5.007   1.886   2.731
 6740TIP3    H120184   4.937   1.915   2.790
 6740TIP3    H220185   4.991   1.935   2.650
 6741TIP3   OH220186   1.439   5.357   1.122
 6741TIP3    H120187   1.518   5.308   1.102
 6741TIP3    H220188   1.368   5.304   1.086
 6742TIP3   OH220189   1.627   0.793   3.476
 6742TIP3    H120190   1.557   0.760   3.419
 6742TIP3    H220191   1.651   0.877   3.438
 6743TIP3   OH220192   4.489   2.851   2.756
 6743TIP3    H120193   4.429   2.920   2.784
 6743TIP3    H220194   4.439   2.799   2.694
 6744TIP3   OH220195   7.136   6.690   2.738
 6744TIP3    H120196   7.194   6.737   2.798
 6744TIP3    H220197   7.060   6.667   2.791
 6745TIP3   OH220198   5.107   5.098   1.537
 6745TIP3    H120199   5.016   5.095   1.508
 6745TIP3    H220200   5.101   5.103   1.633
 6746TIP3   OH220201   1.606   0.493   0.182
 6746TIP3    H120202   1.629   0.429   0.115
 6746TIP3    H220203   1.576   0.440   0.256
 6747TIP3   OH220204   1.139   0.899   5.675
 6747TIP3    H120205   1.166   0.864   5.760
 6747TIP3    H220206   1.074   0.836   5.643
 6748TIP3   OH220207   0.922   1.534   3.933
 6748TIP3    H120208   1.010   1.504   3.956
 6748TIP3    H220209   0.908   1.502   3.844
 6749TIP3   OH220210   2.010   1.853   3.784
 6749TIP3    H120211   1.985   1.883   3.697
 6749TIP3    H220212   2.103   1.831   3.776
 6750TIP3   OH220213   3.759   6.064   0.199
 6750TIP3    H120214   3.666   6.064   0.175
 6750TIP3    H220215   3.763   6.008   0.276
 6751TIP3   OH220216   3.002   2.495   3.077
 6751TIP3    H120217   3.083   2.448   3.059
 6751TIP3    H220218   2.937   2.427   3.093
 6752TIP3   OH220219   1.570   0.697   4.212
 6752TIP3    H120220   1.561   0.754   4.135
 6752TIP3    H220221   1.529   0.615   4.186
 6753TIP3   OH220222   0.699   5.771   1.461
 6753TIP3    H120223   0.735   5.800   1.545
 6753TIP3    H220224   0.687   5.677   1.471
 6754TIP3   OH220225   4.013   5.140   2.624
 6754TIP3    H120226   4.028   5.221   2.671
 6754TIP3    H220227   4.098   5.118   2.585
 6755TIP3   OH220228   5.393   6.335   3.891
 6755TIP3    H120229   5.301   6.349   3.868
 6755TIP3    H220230   5.424   6.421   3.917
 6756TIP3   OH220231   4.154   3.798   4.308
 6756TIP3    H120232   4.080   3.798   4.247
 6756TIP3    H220233   4.151   3.712   4.350
 6757TIP3   OH220234   3.158   3.251   1.903
 6757TIP3    H120235   3.084   3.246   1.963
 6757TIP3    H220236   3.233   3.267   1.959
 6758TIP3   OH220237   2.586   4.757   1.115
 6758TIP3    H120238   2.581   4.710   1.032
 6758TIP3    H220239   2.521   4.826   1.108
 6759TIP3   OH220240   6.566   6.466   4.455
 6759TIP3    H120241   6.490   6.496   4.505
 6759TIP3    H220242   6.568   6.524   4.379
 6760TIP3   OH220243   0.213   5.885   2.943
 6760TIP3    H120244   0.132   5.834   2.934
 6760TIP3    H220245   0.185   5.967   2.983
 6761TIP3   OH220246   5.043   3.620   1.022
 6761TIP3    H120247   4.948   3.614   1.027
 6761TIP3    H220248   5.070   3.542   0.973
 6762TIP3   OH220249   4.308   2.451   1.876
 6762TIP3    H120250   4.295   2.546   1.871
 6762TIP3    H220251   4.262   2.425   1.956
 6763TIP3   OH220252   5.388   0.542   1.347
 6763TIP3    H120253   5.384   0.620   1.402
 6763TIP3    H220254   5.464   0.556   1.291
 6764TIP3   OH220255   6.310   3.609   2.834
 6764TIP3    H120256   6.230   3.656   2.809
 6764TIP3    H220257   6.321   3.543   2.765
 6765TIP3   OH220258   6.567   1.623   4.808
 6765TIP3    H120259   6.489   1.598   4.858
 6765TIP3    H220260   6.634   1.560   4.834
 6766TIP3   OH220261   1.040   5.542   5.555
 6766TIP3    H120262   1.027   5.583   5.469
 6766TIP3    H220263   0.998   5.601   5.616
 6767TIP3   OH220264   4.011   3.552   5.018
 6767TIP3    H120265   3.968   3.534   4.934
 6767TIP3    H220266   3.983   3.640   5.041
 6768TIP3   OH220267   2.998   4.757   3.806
 6768TIP3    H120268   3.065   4.771   3.739
 6768TIP3    H220269   2.948   4.838   3.807
 6769TIP3   OH220270   4.462   0.266   4.298
 6769TIP3    H120271   4.395   0.322   4.258
 6769TIP3    H220272   4.497   0.319   4.370
 6770TIP3   OH220273   2.935   0.657   4.971
 6770TIP3    H120274   2.877   0.641   4.897
 6770TIP3    H220275   2.970   0.745   4.955
 6771TIP3   OH220276   0.397   6.772   0.427
 6771TIP3    H120277   0.452   6.695   0.443
 6771TIP3    H220278   0.307   6.740   0.439
 6772TIP3   OH220279   4.628   6.492   5.551
 6772TIP3    H120280   4.649   6.519   5.462
 6772TIP3    H220281   4.560   6.425   5.540
 6773TIP3   OH220282   4.113   1.030   3.421
 6773TIP3    H120283   4.138   0.989   3.338
 6773TIP3    H220284   4.034   1.079   3.400
 6774TIP3   OH220285   4.348   1.192   4.937
 6774TIP3    H120286   4.379   1.149   5.017
 6774TIP3    H220287   4.259   1.221   4.957
 6775TIP3   OH220288   0.605   0.414   2.716
 6775TIP3    H120289   0.623   0.367   2.634
 6775TIP3    H220290   0.690   0.419   2.760
 6776TIP3   OH220291   0.717   4.719   0.048
 6776TIP3    H120292   0.667   4.642   0.022
 6776TIP3    H220293   0.718   4.775  -0.030
 6777TIP3   OH220294   0.698   1.558   5.645
 6777TIP3    H120295   0.695   1.511   5.561
 6777TIP3    H220296   0.724   1.491   5.708
 6778TIP3   OH220297   0.706   2.935   1.981
 6778TIP3    H120298   0.679   2.852   2.022
 6778TIP3    H220299   0.682   3.002   2.045
 6779TIP3   OH220300   3.375   4.840   3.853
 6779TIP3    H120301   3.411   4.873   3.771
 6779TIP3    H220302   3.290   4.883   3.861
 6780TIP3   OH220303   1.018   1.616   3.433
 6780TIP3    H120304   1.058   1.574   3.357
 6780TIP3    H220305   1.062   1.700   3.441
 6781TIP3   OH220306   0.084   1.458   4.593
 6781TIP3    H120307   0.125   1.518   4.655
 6781TIP3    H220308   0.118   1.485   4.508
 6782TIP3   OH220309   4.340   3.981   0.368
 6782TIP3    H120310   4.273   3.921   0.401
 6782TIP3    H220311   4.312   4.001   0.279
 6783TIP3   OH220312   0.728   4.473   3.334
 6783TIP3    H120313   0.721   4.457   3.428
 6783TIP3    H220314   0.704   4.564   3.323
 6784TIP3   OH220315   6.969   3.000   4.061
 6784TIP3    H120316   7.007   3.086   4.046
 6784TIP3    H220317   6.961   2.993   4.157
 6785TIP3   OH220318   2.973   3.713   0.674
 6785TIP3    H120319   2.996   3.806   0.677
 6785TIP3    H220320   2.927   3.697   0.757
 6786TIP3   OH220321   1.999   3.061   1.446
 6786TIP3    H120322   1.943   3.046   1.522
 6786TIP3    H220323   1.987   2.984   1.391
 6787TIP3   OH220324   7.125   2.813   4.933
 6787TIP3    H120325   7.160   2.852   5.013
 6787TIP3    H220326   7.190   2.747   4.908
 6788TIP3   OH220327   1.575   2.589   2.971
 6788TIP3    H120328   1.528   2.551   2.897
 6788TIP3    H220329   1.665   2.559   2.961
 6789TIP3   OH220330   5.409   3.747   2.039
 6789TIP3    H120331   5.439   3.681   2.101
 6789TIP3    H220332   5.426   3.831   2.083
 6790TIP3   OH220333   3.927   1.194   5.113
 6790TIP3    H120334   3.913   1.100   5.099
 6790TIP3    H220335   3.888   1.212   5.198
 6791TIP3   OH220336   2.030   5.996   3.050
 6791TIP3    H120337   2.011   6.089   3.039
 6791TIP3    H220338   2.125   5.993   3.066
 6792TIP3   OH220339   0.249   5.082   4.828
 6792TIP3    H120340   0.256   5.078   4.733
 6792TIP3    H220341   0.326   5.132   4.855
 6793TIP3   OH220342   1.440   4.112   5.888
 6793TIP3    H120343   1.481   4.127   5.803
 6793TIP3    H220344   1.391   4.192   5.907
 6794TIP3   OH220345   1.942   4.794   0.669
 6794TIP3    H120346   1.954   4.800   0.574
 6794TIP3    H220347   2.006   4.856   0.704
 6795TIP3   OH220348   0.989   6.158   2.332
 6795TIP3    H120349   1.061   6.111   2.374
 6795TIP3    H220350   1.031   6.214   2.267
 6796TIP3   OH220351   2.429   4.741   5.793
 6796TIP3    H120352   2.509   4.782   5.763
 6796TIP3    H220353   2.395   4.695   5.716
 6797TIP3   OH220354   3.058   4.020   5.506
 6797TIP3    H120355   3.083   3.956   5.439
 6797TIP3    H220356   3.113   3.998   5.581
 6798TIP3   OH220357   6.889   4.256   2.275
 6798TIP3    H120358   6.940   4.246   2.194
 6798TIP3    H220359   6.819   4.318   2.252
 6799TIP3   OH220360   2.344   2.917   5.790
 6799TIP3    H120361   2.301   2.972   5.724
 6799TIP3    H220362   2.427   2.891   5.750
 6800TIP3   OH220363   6.401   4.547   3.404
 6800TIP3    H120364   6.395   4.549   3.500
 6800TIP3    H220365   6.334   4.608   3.374
 6801TIP3   OH220366   5.569   0.356   1.540
 6801TIP3    H120367   5.653   0.315   1.560
 6801TIP3    H220368   5.579   0.389   1.451
 6802TIP3   OH220369   1.241   5.597   5.123
 6802TIP3    H120370   1.295   5.521   5.147
 6802TIP3    H220371   1.231   5.646   5.204
 6803TIP3   OH220372   1.196   5.060   0.805
 6803TIP3    H120373   1.141   5.123   0.759
 6803TIP3    H220374   1.139   5.024   0.873
 6804TIP3   OH220375   2.945   2.752   0.347
 6804TIP3    H120376   2.880   2.810   0.387
 6804TIP3    H220377   2.917   2.664   0.372
 6805TIP3   OH220378   5.938   5.648   0.616
 6805TIP3    H120379   5.915   5.661   0.708
 6805TIP3    H220380   5.966   5.735   0.586
 6806TIP3   OH220381   0.474   4.018   2.493
 6806TIP3    H120382   0.514   3.942   2.449
 6806TIP3    H220383   0.458   3.987   2.582
 6807TIP3   OH220384   3.295   1.865   1.230
 6807TIP3    H120385   3.367   1.918   1.264
 6807TIP3    H220386   3.327   1.833   1.146
 6808TIP3   OH220387   5.884   0.817   4.509
 6808TIP3    H120388   5.805   0.765   4.523
 6808TIP3    H220389   5.905   0.853   4.596
 6809TIP3   OH220390   3.552   6.777   0.385
 6809TIP3    H120391   3.631   6.740   0.425
 6809TIP3    H220392   3.572   6.784   0.292
 6810TIP3   OH220393   2.337   0.436   0.249
 6810TIP3    H120394   2.275   0.457   0.318
 6810TIP3    H220395   2.332   0.511   0.189
 6811TIP3   OH220396   5.348   6.204   2.237
 6811TIP3    H120397   5.349   6.116   2.273
 6811TIP3    H220398   5.388   6.194   2.150
 6812TIP3   OH220399   5.929   3.166   3.408
 6812TIP3    H120400   5.923   3.171   3.504
 6812TIP3    H220401   6.008   3.116   3.391
 6813TIP3   OH220402   1.597   5.937   1.897
 6813TIP3    H120403   1.522   5.993   1.915
 6813TIP3    H220404   1.672   5.987   1.930
 6814TIP3   OH220405   3.816   2.798   0.747
 6814TIP3    H120406   3.751   2.733   0.774
 6814TIP3    H220407   3.775   2.882   0.765
 6815TIP3   OH220408   1.764   0.607   3.182
 6815TIP3    H120409   1.764   0.537   3.247
 6815TIP3    H220410   1.678   0.601   3.141
 6816TIP3   OH220411   4.290   0.315   3.643
 6816TIP3    H120412   4.297   0.277   3.730
 6816TIP3    H220413   4.212   0.274   3.605
 6817TIP3   OH220414   1.360   3.170   3.997
 6817TIP3    H120415   1.437   3.210   4.038
 6817TIP3    H220416   1.396   3.115   3.927
 6818TIP3   OH220417   2.531   0.612   0.827
 6818TIP3    H120418   2.507   0.610   0.920
 6818TIP3    H220419   2.447   0.619   0.781
 6819TIP3   OH220420   4.245   3.927   0.926
 6819TIP3    H120421   4.216   3.990   0.992
 6819TIP3    H220422   4.203   3.955   0.845
 6820TIP3   OH220423   6.298   3.951   0.184
 6820TIP3    H120424   6.237   3.903   0.239
 6820TIP3    H220425   6.336   4.017   0.242
 6821TIP3   OH220426   6.770   5.228   2.921
 6821TIP3    H120427   6.737   5.143   2.951
 6821TIP3    H220428   6.855   5.208   2.881
 6822TIP3   OH220429   0.252   5.858   0.072
 6822TIP3    H120430   0.315   5.918   0.113
 6822TIP3    H220431   0.221   5.906  -0.005
 6823TIP3   OH220432   3.207   6.501   5.820
 6823TIP3    H120433   3.253   6.537   5.745
 6823TIP3    H220434   3.117   6.489   5.790
 6824TIP3   OH220435   6.948   5.259   0.243
 6824TIP3    H120436   6.872   5.296   0.287
 6824TIP3    H220437   6.912   5.190   0.187
 6825TIP3   OH220438   3.688   0.845   1.659
 6825TIP3    H120439   3.783   0.849   1.655
 6825TIP3    H220440   3.663   0.795   1.581
 6826TIP3   OH220441   6.220   5.516   0.842
 6826TIP3    H120442   6.223   5.607   0.812
 6826TIP3    H220443   6.274   5.515   0.921
 6827TIP3   OH220444   6.405   4.741   5.145
 6827TIP3    H120445   6.415   4.647   5.157
 6827TIP3    H220446   6.492   4.777   5.160
 6828TIP3   OH220447   2.447   3.283   1.402
 6828TIP3    H120448   2.425   3.368   1.439
 6828TIP3    H220449   2.408   3.219   1.462
 6829TIP3   OH220450   2.911   3.577   4.514
 6829TIP3    H120451   2.993   3.613   4.549
 6829TIP3    H220452   2.885   3.510   4.577
 6830TIP3   OH220453   5.305   5.570   3.053
 6830TIP3    H120454   5.230   5.596   3.106
 6830TIP3    H220455   5.273   5.495   3.003
 6831TIP3   OH220456   6.529   6.504   1.929
 6831TIP3    H120457   6.502   6.515   2.020
 6831TIP3    H220458   6.593   6.434   1.930
 6832TIP3   OH220459   0.202   4.461   0.756
 6832TIP3    H120460   0.222   4.511   0.835
 6832TIP3    H220461   0.194   4.527   0.687
 6833TIP3   OH220462   6.311   2.330   0.405
 6833TIP3    H120463   6.287   2.354   0.495
 6833TIP3    H220464   6.333   2.237   0.410
 6834TIP3   OH220465   6.007   0.399   0.705
 6834TIP3    H120466   5.964   0.478   0.670
 6834TIP3    H220467   5.975   0.328   0.649
 6835TIP3   OH220468   6.999   5.184   1.897
 6835TIP3    H120469   7.088   5.157   1.875
 6835TIP3    H220470   6.952   5.102   1.910
 6836TIP3   OH220471   4.647   4.728   4.686
 6836TIP3    H120472   4.620   4.819   4.691
 6836TIP3    H220473   4.565   4.679   4.674
 6837TIP3   OH220474   3.217   1.334   0.785
 6837TIP3    H120475   3.169   1.310   0.705
 6837TIP3    H220476   3.182   1.277   0.852
 6838TIP3   OH220477   3.521   0.052   2.294
 6838TIP3    H120478   3.543   0.057   2.387
 6838TIP3    H220479   3.429   0.025   2.292
 6839TIP3   OH220480   5.840   2.320   0.902
 6839TIP3    H120481   5.811   2.405   0.869
 6839TIP3    H220482   5.870   2.273   0.824
 6840TIP3   OH220483   1.522   4.847   4.006
 6840TIP3    H120484   1.445   4.789   4.008
 6840TIP3    H220485   1.594   4.790   3.979
 6841TIP3   OH220486   4.758   3.000   2.295
 6841TIP3    H120487   4.760   2.993   2.199
 6841TIP3    H220488   4.850   3.001   2.321
 6842TIP3   OH220489   1.646   4.595   0.776
 6842TIP3    H120490   1.555   4.570   0.789
 6842TIP3    H220491   1.660   4.668   0.835
 6843TIP3   OH220492   1.387   0.324   5.187
 6843TIP3    H120493   1.361   0.372   5.266
 6843TIP3    H220494   1.374   0.232   5.210
 6844TIP3   OH220495   5.849   5.546   1.352
 6844TIP3    H120496   5.820   5.569   1.264
 6844TIP3    H220497   5.892   5.461   1.341
 6845TIP3   OH220498   5.813   3.538   4.378
 6845TIP3    H120499   5.815   3.472   4.448
 6845TIP3    H220500   5.727   3.527   4.338
 6846TIP3   OH220501   4.830   6.764   2.450
 6846TIP3    H120502   4.865   6.853   2.447
 6846TIP3    H220503   4.750   6.767   2.398
 6847TIP3   OH220504   0.177   5.183   1.187
 6847TIP3    H120505   0.162   5.270   1.225
 6847TIP3    H220506   0.102   5.168   1.130
 6848TIP3   OH220507   6.623   4.396   2.662
 6848TIP3    H120508   6.621   4.443   2.746
 6848TIP3    H220509   6.672   4.316   2.681
 6849TIP3   OH220510   5.491   1.201   1.997
 6849TIP3    H120511   5.531   1.282   1.967
 6849TIP3    H220512   5.556   1.162   2.056
 6850TIP3   OH220513   6.850   6.591   2.402
 6850TIP3    H120514   6.771   6.627   2.361
 6850TIP3    H220515   6.832   6.597   2.496
 6851TIP3   OH220516   0.059   0.393   4.656
 6851TIP3    H120517   0.070   0.488   4.654
 6851TIP3    H220518   0.135   0.361   4.704
 6852TIP3   OH220519   4.035   2.429   4.041
 6852TIP3    H120520   3.984   2.452   4.119
 6852TIP3    H220521   3.976   2.444   3.968
 6853TIP3   OH220522   5.973   2.703   5.196
 6853TIP3    H120523   5.938   2.724   5.282
 6853TIP3    H220524   6.053   2.654   5.214
 6854TIP3   OH220525   5.749   3.189   3.017
 6854TIP3    H120526   5.794   3.272   3.030
 6854TIP3    H220527   5.819   3.123   3.021
 6855TIP3   OH220528   7.168   2.668   5.256
 6855TIP3    H120529   7.152   2.610   5.331
 6855TIP3    H220530   7.206   2.611   5.189
 6856TIP3   OH220531   5.011   2.837   1.078
 6856TIP3    H120532   4.973   2.751   1.061
 6856TIP3    H220533   5.105   2.826   1.061
 6857TIP3   OH220534   3.996   1.281   3.375
 6857TIP3    H120535   4.026   1.330   3.299
 6857TIP3    H220536   4.057   1.304   3.445
 6858TIP3   OH220537   1.394   2.003   2.100
 6858TIP3    H120538   1.408   1.922   2.150
 6858TIP3    H220539   1.328   1.980   2.034
 6859TIP3   OH220540   3.656   5.034   5.193
 6859TIP3    H120541   3.598   5.002   5.125
 6859TIP3    H220542   3.622   5.121   5.214
 6860TIP3   OH220543   6.280   3.734   5.870
 6860TIP3    H120544   6.240   3.730   5.784
 6860TIP3    H220545   6.236   3.667   5.921
 6861TIP3   OH220546   4.157   6.177   1.875
 6861TIP3    H120547   4.239   6.214   1.908
 6861TIP3    H220548   4.098   6.252   1.868
 6862TIP3   OH220549   1.373   6.040   3.045
 6862TIP3    H120550   1.338   6.029   2.957
 6862TIP3    H220551   1.304   6.087   3.092
 6863TIP3   OH220552   2.227   6.581   2.184
 6863TIP3    H120553   2.255   6.655   2.130
 6863TIP3    H220554   2.245   6.608   2.274
 6864TIP3   OH220555   3.511   5.931   2.114
 6864TIP3    H120556   3.436   5.877   2.088
 6864TIP3    H220557   3.484   6.021   2.093
 6865TIP3   OH220558   0.766   3.624   5.262
 6865TIP3    H120559   0.702   3.587   5.202
 6865TIP3    H220560   0.831   3.555   5.275
 6866TIP3   OH220561   3.656   6.576   4.286
 6866TIP3    H120562   3.606   6.605   4.210
 6866TIP3    H220563   3.628   6.635   4.356
 6867TIP3   OH220564   0.017   0.060   1.729
 6867TIP3    H120565   0.094   0.008   1.709
 6867TIP3    H220566  -0.041   0.001   1.777
 6868TIP3   OH220567   6.677   2.371   3.409
 6868TIP3    H120568   6.737   2.431   3.364
 6868TIP3    H220569   6.662   2.300   3.347
 6869TIP3   OH220570   6.174   4.795   5.283
 6869TIP3    H120571   6.229   4.851   5.337
 6869TIP3    H220572   6.234   4.757   5.219
 6870TIP3   OH220573   2.944   5.425   0.894
 6870TIP3    H120574   2.893   5.350   0.925
 6870TIP3    H220575   2.895   5.501   0.924
 6871TIP3   OH220576   3.694   6.129   4.898
 6871TIP3    H120577   3.751   6.066   4.942
 6871TIP3    H220578   3.676   6.089   4.813
 6872TIP3   OH220579   4.456   3.777   1.014
 6872TIP3    H120580   4.508   3.843   1.060
 6872TIP3    H220581   4.380   3.825   0.981
 6873TIP3   OH220582   3.808   2.599   5.510
 6873TIP3    H120583   3.764   2.629   5.590
 6873TIP3    H220584   3.896   2.574   5.540
 6874TIP3   OH220585   1.873   2.769   1.668
 6874TIP3    H120586   1.880   2.825   1.745
 6874TIP3    H220587   1.950   2.712   1.672
 6875TIP3   OH220588   6.425   2.345   1.902
 6875TIP3    H120589   6.359   2.328   1.835
 6875TIP3    H220590   6.430   2.440   1.906
 6876TIP3   OH220591   1.749   2.957   0.669
 6876TIP3    H120592   1.832   3.005   0.659
 6876TIP3    H220593   1.681   3.023   0.655
 6877TIP3   OH220594   2.942   4.123   0.302
 6877TIP3    H120595   2.904   4.158   0.221
 6877TIP3    H220596   2.970   4.200   0.351
 6878TIP3   OH220597   1.488   0.731   2.502
 6878TIP3    H120598   1.467   0.642   2.473
 6878TIP3    H220599   1.537   0.719   2.583
 6879TIP3   OH220600   3.195   5.220   3.827
 6879TIP3    H120601   3.175   5.281   3.898
 6879TIP3    H220602   3.115   5.219   3.773
 6880TIP3   OH220603   2.593   3.727   4.628
 6880TIP3    H120604   2.655   3.719   4.701
 6880TIP3    H220605   2.648   3.724   4.549
 6881TIP3   OH220606   0.604   3.711   1.884
 6881TIP3    H120607   0.563   3.789   1.848
 6881TIP3    H220608   0.687   3.703   1.838
 6882TIP3   OH220609   1.257   1.684   0.260
 6882TIP3    H120610   1.300   1.733   0.331
 6882TIP3    H220611   1.168   1.669   0.292
 6883TIP3   OH220612   2.386   2.095   4.247
 6883TIP3    H120613   2.408   2.186   4.265
 6883TIP3    H220614   2.385   2.090   4.151
 6884TIP3   OH220615   5.864   2.608   2.642
 6884TIP3    H120616   5.840   2.696   2.615
 6884TIP3    H220617   5.854   2.556   2.562
 6885TIP3   OH220618   7.053   0.938   4.436
 6885TIP3    H120619   7.043   1.033   4.434
 6885TIP3    H220620   7.132   0.923   4.488
 6886TIP3   OH220621   2.724   5.970   3.113
 6886TIP3    H120622   2.797   5.912   3.090
 6886TIP3    H220623   2.681   5.927   3.186
 6887TIP3   OH220624   3.864   2.126   3.683
 6887TIP3    H120625   3.954   2.131   3.714
 6887TIP3    H220626   3.814   2.098   3.759
 6888TIP3   OH220627   3.961   0.029   5.053
 6888TIP3    H120628   3.869   0.017   5.076
 6888TIP3    H220629   4.010   0.002   5.131
 6889TIP3   OH220630   0.999   0.347   4.915
 6889TIP3    H120631   1.050   0.326   4.837
 6889TIP3    H220632   0.908   0.340   4.886
 6890TIP3   OH220633   4.667   0.748   1.723
 6890TIP3    H120634   4.753   0.781   1.695
 6890TIP3    H220635   4.640   0.688   1.653
 6891TIP3   OH220636   1.707   0.189   3.572
 6891TIP3    H120637   1.692   0.203   3.666
 6891TIP3    H220638   1.624   0.155   3.540
 6892TIP3   OH220639   3.079   5.013   0.936
 6892TIP3    H120640   3.101   5.037   1.026
 6892TIP3    H220641   2.987   5.038   0.926
 6893TIP3   OH220642   0.690   2.084   4.499
 6893TIP3    H120643   0.674   2.176   4.523
 6893TIP3    H220644   0.688   2.084   4.403
 6894TIP3   OH220645   5.353   5.128   3.401
 6894TIP3    H120646   5.388   5.039   3.391
 6894TIP3    H220647   5.272   5.128   3.350
 6895TIP3   OH220648   0.069  -0.025   1.160
 6895TIP3    H120649   0.086  -0.023   1.254
 6895TIP3    H220650   0.122   0.047   1.124
 6896TIP3   OH220651   2.757   6.178   4.097
 6896TIP3    H120652   2.751   6.243   4.026
 6896TIP3    H220653   2.712   6.101   4.062
 6897TIP3   OH220654   2.610   0.154   4.674
 6897TIP3    H120655   2.672   0.145   4.601
 6897TIP3    H220656   2.663   0.138   4.752
 6898TIP3   OH220657   4.911   6.554   0.847
 6898TIP3    H120658   4.990   6.508   0.817
 6898TIP3    H220659   4.940   6.644   0.864
 6899TIP3   OH220660   1.106   6.514   1.008
 6899TIP3    H120661   1.198   6.496   1.028
 6899TIP3    H220662   1.060   6.436   1.039
 6900TIP3   OH220663   5.633   0.161   4.932
 6900TIP3    H120664   5.563   0.155   4.867
 6900TIP3    H220665   5.591   0.200   5.009
 6901TIP3   OH220666   2.769   3.195   0.757
 6901TIP3    H120667   2.826   3.208   0.681
 6901TIP3    H220668   2.809   3.124   0.807
 6902TIP3   OH220669   6.778   4.949   3.944
 6902TIP3    H120670   6.698   4.934   3.894
 6902TIP3    H220671   6.765   5.036   3.984
 6903TIP3   OH220672   5.572   5.552   0.729
 6903TIP3    H120673   5.575   5.642   0.697
 6903TIP3    H220674   5.524   5.504   0.661
 6904TIP3   OH220675   6.140   5.805   0.840
 6904TIP3    H120676   6.175   5.777   0.924
 6904TIP3    H220677   6.046   5.810   0.853
 6905TIP3   OH220678   6.581   2.582   0.923
 6905TIP3    H120679   6.608   2.613   0.837
 6905TIP3    H220680   6.637   2.507   0.941
 6906TIP3   OH220681   0.956   4.781   4.095
 6906TIP3    H120682   0.884   4.722   4.073
 6906TIP3    H220683   0.991   4.748   4.178
 6907TIP3   OH220684   4.708   3.653   3.865
 6907TIP3    H120685   4.791   3.634   3.909
 6907TIP3    H220686   4.672   3.567   3.846
 6908TIP3   OH220687   4.232   3.483   3.496
 6908TIP3    H120688   4.159   3.461   3.554
 6908TIP3    H220689   4.222   3.425   3.421
 6909TIP3   OH220690   2.747   5.243   3.620
 6909TIP3    H120691   2.717   5.308   3.557
 6909TIP3    H220692   2.734   5.159   3.576
 6910TIP3   OH220693   5.765   3.338   5.659
 6910TIP3    H120694   5.735   3.426   5.682
 6910TIP3    H220695   5.772   3.292   5.743
 6911TIP3   OH220696   1.844   0.610   0.979
 6911TIP3    H120697   1.752   0.621   1.001
 6911TIP3    H220698   1.858   0.516   0.979
 6912TIP3   OH220699   3.900   5.423   2.103
 6912TIP3    H120700   3.955   5.375   2.164
 6912TIP3    H220701   3.813   5.384   2.113
 6913TIP3   OH220702   5.618   3.006   1.733
 6913TIP3    H120703   5.582   3.094   1.732
 6913TIP3    H220704   5.682   3.005   1.662
 6914TIP3   OH220705   2.478   4.078   0.454
 6914TIP3    H120706   2.428   4.155   0.429
 6914TIP3    H220707   2.529   4.056   0.376
 6915TIP3   OH220708   7.114   0.923   1.283
 6915TIP3    H120709   7.055   0.973   1.225
 6915TIP3    H220710   7.095   0.832   1.263
 6916TIP3   OH220711   1.658   6.358   2.142
 6916TIP3    H120712   1.711   6.281   2.158
 6916TIP3    H220713   1.688   6.422   2.206
 6917TIP3   OH220714   5.193   0.401   1.177
 6917TIP3    H120715   5.242   0.458   1.237
 6917TIP3    H220716   5.114   0.451   1.155
 6918TIP3   OH220717   0.917   1.283   1.244
 6918TIP3    H120718   0.930   1.370   1.281
 6918TIP3    H220719   0.830   1.286   1.204
 6919TIP3   OH220720   4.173   3.393   0.755
 6919TIP3    H120721   4.198   3.449   0.829
 6919TIP3    H220722   4.253   3.385   0.703
 6920TIP3   OH220723   3.641   5.624   1.908
 6920TIP3    H120724   3.712   5.661   1.961
 6920TIP3    H220725   3.594   5.700   1.874
 6921TIP3   OH220726   6.667   1.641   3.901
 6921TIP3    H120727   6.604   1.702   3.940
 6921TIP3    H220728   6.621   1.557   3.898
 6922TIP3   OH220729   2.599   2.756   4.068
 6922TIP3    H120730   2.513   2.797   4.076
 6922TIP3    H220731   2.612   2.711   4.152
 6923TIP3   OH220732   3.118   6.725   2.477
 6923TIP3    H120733   3.185   6.779   2.518
 6923TIP3    H220734   3.164   6.677   2.409
 6924TIP3   OH220735   5.894   1.054   2.624
 6924TIP3    H120736   5.855   0.972   2.655
 6924TIP3    H220737   5.897   1.044   2.528
 6925TIP3   OH220738   4.954   1.186   1.023
 6925TIP3    H120739   5.043   1.213   1.044
 6925TIP3    H220740   4.908   1.268   1.002
 6926TIP3   OH220741   6.240   5.855   5.530
 6926TIP3    H120742   6.301   5.887   5.597
 6926TIP3    H220743   6.173   5.923   5.525
 6927TIP3   OH220744   3.903   4.955   4.581
 6927TIP3    H120745   3.861   4.958   4.667
 6927TIP3    H220746   3.847   5.009   4.525
 6928TIP3   OH220747   0.347   3.850   0.432
 6928TIP3    H120748   0.355   3.800   0.513
 6928TIP3    H220749   0.438   3.869   0.406
 6929TIP3   OH220750   2.712   1.686   3.347
 6929TIP3    H120751   2.796   1.647   3.371
 6929TIP3    H220752   2.717   1.698   3.253
 6930TIP3   OH220753   1.816   3.873   0.107
 6930TIP3    H120754   1.850   3.808   0.169
 6930TIP3    H220755   1.885   3.940   0.102
 6931TIP3   OH220756   5.915   2.202   2.503
 6931TIP3    H120757   5.960   2.249   2.573
 6931TIP3    H220758   5.985   2.161   2.452
 6932TIP3   OH220759   5.987   3.524   3.926
 6932TIP3    H120760   5.983   3.612   3.889
 6932TIP3    H220761   5.986   3.538   4.021
 6933TIP3   OH220762   0.745   5.998   4.302
 6933TIP3    H120763   0.700   5.921   4.268
 6933TIP3    H220764   0.758   6.054   4.225
 6934TIP3   OH220765   4.556   6.013   2.519
 6934TIP3    H120766   4.536   5.983   2.607
 6934TIP3    H220767   4.592   6.101   2.531
 6935TIP3   OH220768   5.281   5.655   5.244
 6935TIP3    H120769   5.274   5.577   5.300
 6935TIP3    H220770   5.375   5.670   5.236
 6936TIP3   OH220771   4.408   5.809   0.783
 6936TIP3    H120772   4.470   5.738   0.797
 6936TIP3    H220773   4.363   5.818   0.867
 6937TIP3   OH220774   1.467   3.778   3.630
 6937TIP3    H120775   1.488   3.870   3.613
 6937TIP3    H220776   1.382   3.765   3.588
 6938TIP3   OH220777   1.579   3.808   0.284
 6938TIP3    H120778   1.494   3.852   0.270
 6938TIP3    H220779   1.640   3.880   0.300
 6939TIP3   OH220780   1.648   5.440   2.403
 6939TIP3    H120781   1.681   5.520   2.364
 6939TIP3    H220782   1.595   5.399   2.334
 6940TIP3   OH220783   6.622   4.449   3.836
 6940TIP3    H120784   6.702   4.501   3.839
 6940TIP3    H220785   6.567   4.485   3.905
 6941TIP3   OH220786   1.069   5.427   4.966
 6941TIP3    H120787   1.119   5.498   5.007
 6941TIP3    H220788   1.058   5.363   5.037
 6942TIP3   OH220789   0.254   0.710   4.693
 6942TIP3    H120790   0.295   0.667   4.617
 6942TIP3    H220791   0.275   0.652   4.766
 6943TIP3   OH220792   7.056   4.007   3.461
 6943TIP3    H120793   6.989   4.067   3.428
 6943TIP3    H220794   7.060   3.938   3.394
 6944TIP3   OH220795   4.841   6.264   5.094
 6944TIP3    H120796   4.882   6.185   5.130
 6944TIP3    H220797   4.820   6.240   5.004
 6945TIP3   OH220798   3.203   3.829   2.158
 6945TIP3    H120799   3.284   3.834   2.210
 6945TIP3    H220800   3.142   3.886   2.205
 6946TIP3   OH220801   1.991   0.927   3.720
 6946TIP3    H120802   1.971   0.936   3.627
 6946TIP3    H220803   2.073   0.878   3.722
 6947TIP3   OH220804   3.874   1.113   0.459
 6947TIP3    H120805   3.806   1.160   0.410
 6947TIP3    H220806   3.898   1.174   0.529
 6948TIP3   OH220807   1.983   4.805   0.401
 6948TIP3    H120808   2.052   4.744   0.375
 6948TIP3    H220809   2.004   4.886   0.354
 6949TIP3   OH220810   5.935   1.965   2.226
 6949TIP3    H120811   5.989   2.012   2.289
 6949TIP3    H220812   5.906   2.033   2.165
 6950TIP3   OH220813   5.396   2.170   4.687
 6950TIP3    H120814   5.324   2.233   4.689
 6950TIP3    H220815   5.403   2.141   4.778
 6951TIP3   OH220816   4.889   1.174   0.105
 6951TIP3    H120817   4.828   1.161   0.178
 6951TIP3    H220818   4.904   1.086   0.072
 6952TIP3   OH220819   0.092   1.294   0.377
 6952TIP3    H120820   0.103   1.220   0.318
 6952TIP3    H220821  -0.002   1.299   0.392
 6953TIP3   OH220822   7.041   3.142   5.211
 6953TIP3    H120823   6.952   3.138   5.177
 6953TIP3    H220824   7.061   3.236   5.214
 6954TIP3   OH220825   0.175   6.361   1.418
 6954TIP3    H120826   0.253   6.374   1.473
 6954TIP3    H220827   0.125   6.293   1.462
 6955TIP3   OH220828   0.434   2.194   3.822
 6955TIP3    H120829   0.528   2.209   3.815
 6955TIP3    H220830   0.412   2.146   3.742
 6956TIP3   OH220831   6.014   5.560   1.077
 6956TIP3    H120832   6.076   5.632   1.093
 6956TIP3    H220833   6.066   5.481   1.088
 6957TIP3   OH220834   4.036   5.948   1.089
 6957TIP3    H120835   4.070   5.984   1.171
 6957TIP3    H220836   4.115   5.925   1.039
 6958TIP3   OH220837   2.615   0.139   1.171
 6958TIP3    H120838   2.586   0.051   1.148
 6958TIP3    H220839   2.589   0.149   1.263
 6959TIP3   OH220840   0.783   2.609   4.323
 6959TIP3    H120841   0.775   2.700   4.296
 6959TIP3    H220842   0.762   2.559   4.243
 6960TIP3   OH220843   1.314   2.516   4.300
 6960TIP3    H120844   1.361   2.593   4.332
 6960TIP3    H220845   1.227   2.523   4.340
 6961TIP3   OH220846   4.936   2.883   5.195
 6961TIP3    H120847   4.868   2.823   5.227
 6961TIP3    H220848   4.890   2.963   5.174
 6962TIP3   OH220849   2.890   4.372   2.543
 6962TIP3    H120850   2.819   4.433   2.565
 6962TIP3    H220851   2.883   4.361   2.448
 6963TIP3   OH220852   6.182   0.723   4.050
 6963TIP3    H120853   6.181   0.655   4.117
 6963TIP3    H220854   6.274   0.735   4.028
 6964TIP3   OH220855   5.211   1.359   3.501
 6964TIP3    H120856   5.184   1.314   3.421
 6964TIP3    H220857   5.223   1.288   3.565
 6965TIP3   OH220858   6.229   0.631   0.686
 6965TIP3    H120859   6.176   0.553   0.702
 6965TIP3    H220860   6.220   0.682   0.767
 6966TIP3   OH220861   5.966   3.168   1.412
 6966TIP3    H120862   5.922   3.092   1.451
 6966TIP3    H220863   6.058   3.144   1.411
 6967TIP3   OH220864   3.925   3.843   4.087
 6967TIP3    H120865   3.874   3.860   4.166
 6967TIP3    H220866   3.903   3.915   4.028
 6968TIP3   OH220867   1.673   6.121   0.925
 6968TIP3    H120868   1.696   6.114   1.018
 6968TIP3    H220869   1.752   6.091   0.879
 6969TIP3   OH220870   6.261   2.461   5.587
 6969TIP3    H120871   6.310   2.542   5.571
 6969TIP3    H220872   6.299   2.397   5.527
 6970TIP3   OH220873   1.944   5.806   2.803
 6970TIP3    H120874   1.998   5.763   2.870
 6970TIP3    H220875   1.854   5.795   2.835
 6971TIP3   OH220876   0.162   0.038   0.753
 6971TIP3    H120877   0.067   0.022   0.752
 6971TIP3    H220878   0.183   0.060   0.662
 6972TIP3   OH220879   1.373   6.709   4.413
 6972TIP3    H120880   1.326   6.723   4.495
 6972TIP3    H220881   1.306   6.685   4.350
 6973TIP3   OH220882   2.471   5.614   5.134
 6973TIP3    H120883   2.504   5.676   5.200
 6973TIP3    H220884   2.396   5.571   5.176
 6974TIP3   OH220885   1.234   1.369   5.757
 6974TIP3    H120886   1.182   1.445   5.779
 6974TIP3    H220887   1.307   1.403   5.705
 6975TIP3   OH220888   6.665   3.658   1.420
 6975TIP3    H120889   6.679   3.579   1.473
 6975TIP3    H220890   6.750   3.676   1.380
 6976TIP3   OH220891   1.450   3.570   1.379
 6976TIP3    H120892   1.504   3.513   1.325
 6976TIP3    H220893   1.416   3.635   1.319
 6977TIP3   OH220894   4.427   3.620   5.601
 6977TIP3    H120895   4.419   3.682   5.673
 6977TIP3    H220896   4.337   3.598   5.578
 6978TIP3   OH220897   0.947   4.317   0.590
 6978TIP3    H120898   0.871   4.276   0.631
 6978TIP3    H220899   0.945   4.408   0.620
 6979TIP3   OH220900   2.520   3.088   0.224
 6979TIP3    H120901   2.498   2.995   0.225
 6979TIP3    H220902   2.559   3.104   0.138
 6980TIP3   OH220903   3.307   6.438   1.222
 6980TIP3    H120904   3.257   6.371   1.269
 6980TIP3    H220905   3.318   6.508   1.286
 6981TIP3   OH220906   4.203   3.087   0.066
 6981TIP3    H120907   4.259   3.052   0.135
 6981TIP3    H220908   4.182   3.176   0.095
 6982TIP3   OH220909   6.315   1.717   1.435
 6982TIP3    H120910   6.265   1.692   1.512
 6982TIP3    H220911   6.403   1.683   1.451
 6983TIP3   OH220912   1.136   4.182   3.921
 6983TIP3    H120913   1.089   4.264   3.934
 6983TIP3    H220914   1.150   4.148   4.010
 6984TIP3   OH220915   4.424   0.687   4.273
 6984TIP3    H120916   4.403   0.702   4.365
 6984TIP3    H220917   4.520   0.688   4.270
 6985TIP3   OH220918   0.636   5.354   1.835
 6985TIP3    H120919   0.680   5.359   1.920
 6985TIP3    H220920   0.669   5.430   1.786
 6986TIP3   OH220921   1.479   2.244   2.662
 6986TIP3    H120922   1.571   2.231   2.682
 6986TIP3    H220923   1.444   2.156   2.651
 6987TIP3   OH220924   3.947   1.710   3.087
 6987TIP3    H120925   3.912   1.796   3.110
 6987TIP3    H220926   3.869   1.657   3.070
 6988TIP3   OH220927   1.711   2.062   3.802
 6988TIP3    H120928   1.616   2.071   3.809
 6988TIP3    H220929   1.746   2.131   3.858
 6989TIP3   OH220930   5.242   3.078   3.263
 6989TIP3    H120931   5.332   3.051   3.245
 6989TIP3    H220932   5.247   3.172   3.280
 6990TIP3   OH220933   3.656   4.673   5.869
 6990TIP3    H120934   3.634   4.582   5.849
 6990TIP3    H220935   3.735   4.691   5.818
 6991TIP3   OH220936   2.692   3.719   1.286
 6991TIP3    H120937   2.629   3.788   1.265
 6991TIP3    H220938   2.680   3.703   1.380
 6992TIP3   OH220939   3.122   4.007   4.426
 6992TIP3    H120940   3.037   4.002   4.469
 6992TIP3    H220941   3.105   3.978   4.336
 6993TIP3   OH220942   4.466   6.107   1.153
 6993TIP3    H120943   4.474   6.201   1.141
 6993TIP3    H220944   4.484   6.093   1.246
 6994TIP3   OH220945   4.106   0.396   3.992
 6994TIP3    H120946   4.088   0.422   3.902
 6994TIP3    H220947   4.042   0.327   4.010
 6995TIP3   OH220948   6.861   6.290   0.786
 6995TIP3    H120949   6.822   6.203   0.799
 6995TIP3    H220950   6.806   6.349   0.839
 6996TIP3   OH220951   4.796   1.281   0.478
 6996TIP3    H120952   4.772   1.202   0.430
 6996TIP3    H220953   4.764   1.353   0.424
 6997TIP3   OH220954   4.628   5.259   5.334
 6997TIP3    H120955   4.554   5.258   5.273
 6997TIP3    H220956   4.647   5.167   5.350
 6998TIP3   OH220957   2.166   1.908   0.980
 6998TIP3    H120958   2.232   1.923   0.912
 6998TIP3    H220959   2.198   1.832   1.028
 6999TIP3   OH220960   1.548   6.373   1.875
 6999TIP3    H120961   1.588   6.398   1.958
 6999TIP3    H220962   1.619   6.377   1.811
 7000TIP3   OH220963   0.585   5.072   3.753
 7000TIP3    H120964   0.605   5.151   3.803
 7000TIP3    H220965   0.670   5.031   3.737
 7001TIP3   OH220966   7.112   5.598   1.130
 7001TIP3    H120967   7.108   5.580   1.224
 7001TIP3    H220968   7.201   5.632   1.117
 7002TIP3   OH220969   3.245   6.352   0.495
 7002TIP3    H120970   3.155   6.358   0.527
 7002TIP3    H220971   3.282   6.438   0.515
 7003TIP3   OH220972   0.651   2.514   5.637
 7003TIP3    H120973   0.638   2.582   5.572
 7003TIP3    H220974   0.600   2.439   5.605
 7004TIP3   OH220975   1.281   6.339   0.625
 7004TIP3    H120976   1.346   6.340   0.695
 7004TIP3    H220977   1.248   6.429   0.621
 7005TIP3   OH220978   2.535   4.668   5.530
 7005TIP3    H120979   2.483   4.700   5.457
 7005TIP3    H220980   2.574   4.747   5.568
 7006TIP3   OH220981   0.295   5.653   3.615
 7006TIP3    H120982   0.241   5.667   3.693
 7006TIP3    H220983   0.359   5.723   3.617
 7007TIP3   OH220984   7.035   2.773   2.258
 7007TIP3    H120985   6.987   2.844   2.215
 7007TIP3    H220986   7.099   2.818   2.314
 7008TIP3   OH220987   6.248   1.303   5.659
 7008TIP3    H120988   6.314   1.237   5.637
 7008TIP3    H220989   6.173   1.253   5.692
 7009TIP3   OH220990   4.515   0.181   5.676
 7009TIP3    H120991   4.475   0.234   5.745
 7009TIP3    H220992   4.570   0.118   5.723
 7010TIP3   OH220993   1.809   6.724   0.391
 7010TIP3    H120994   1.794   6.755   0.481
 7010TIP3    H220995   1.747   6.652   0.380
 7011TIP3   OH220996   5.075   3.514   2.680
 7011TIP3    H120997   5.035   3.467   2.753
 7011TIP3    H220998   5.104   3.597   2.718
 7012TIP3   OH220999   5.879   1.223   3.702
 7012TIP3    H121000   5.800   1.186   3.662
 7012TIP3    H221001   5.945   1.222   3.633
 7013TIP3   OH221002   4.524   3.474   2.187
 7013TIP3    H121003   4.586   3.540   2.155
 7013TIP3    H221004   4.579   3.408   2.229
 7014TIP3   OH221005   4.799   3.649   2.321
 7014TIP3    H121006   4.706   3.632   2.307
 7014TIP3    H221007   4.831   3.571   2.368
 7015TIP3   OH221008   4.289   0.167   2.605
 7015TIP3    H121009   4.331   0.084   2.582
 7015TIP3    H221010   4.357   0.217   2.650
 7016TIP3   OH221011   5.208   2.402   4.019
 7016TIP3    H121012   5.269   2.333   3.993
 7016TIP3    H221013   5.261   2.462   4.072
 7017TIP3   OH221014   2.710   1.131   1.244
 7017TIP3    H121015   2.620   1.139   1.212
 7017TIP3    H221016   2.731   1.219   1.276
 7018TIP3   OH221017   2.124   0.663   2.081
 7018TIP3    H121018   2.191   0.625   2.138
 7018TIP3    H221019   2.055   0.597   2.077
 7019TIP3   OH221020   4.833   2.704   2.742
 7019TIP3    H121021   4.761   2.640   2.739
 7019TIP3    H221022   4.899   2.663   2.798
 7020TIP3   OH221023   6.565   4.670   2.831
 7020TIP3    H121024   6.641   4.728   2.836
 7020TIP3    H221025   6.490   4.729   2.828
 7021TIP3   OH221026   3.670   5.098   1.211
 7021TIP3    H121027   3.689   5.174   1.265
 7021TIP3    H221028   3.670   5.131   1.121
 7022TIP3   OH221029   6.613   5.752   5.383
 7022TIP3    H121030   6.690   5.716   5.425
 7022TIP3    H221031   6.621   5.847   5.395
 7023TIP3   OH221032   3.547   1.903   5.827
 7023TIP3    H121033   3.581   1.941   5.908
 7023TIP3    H221034   3.511   1.978   5.779
 7024TIP3   OH221035   5.492   0.849   2.469
 7024TIP3    H121036   5.472   0.821   2.380
 7024TIP3    H221037   5.554   0.784   2.501
 7025TIP3   OH221038   6.757   0.405   2.363
 7025TIP3    H121039   6.741   0.453   2.282
 7025TIP3    H221040   6.780   0.472   2.427
 7026TIP3   OH221041   3.784   3.327   5.586
 7026TIP3    H121042   3.704   3.374   5.562
 7026TIP3    H221043   3.752   3.244   5.623
 7027TIP3   OH221044   0.506   5.160   2.517
 7027TIP3    H121045   0.556   5.081   2.537
 7027TIP3    H221046   0.521   5.218   2.592
 7028TIP3   OH221047   0.465   4.335   0.685
 7028TIP3    H121048   0.373   4.357   0.698
 7028TIP3    H221049   0.507   4.418   0.661
 7029TIP3   OH221050   3.130   0.264   1.166
 7029TIP3    H121051   3.054   0.213   1.137
 7029TIP3    H221052   3.117   0.275   1.260
 7030TIP3   OH221053   0.903   6.555   3.683
 7030TIP3    H121054   0.991   6.589   3.667
 7030TIP3    H221055   0.859   6.559   3.598
 7031TIP3   OH221056   1.422   6.561   4.127
 7031TIP3    H121057   1.431   6.468   4.150
 7031TIP3    H221058   1.438   6.608   4.209
 7032TIP3   OH221059   0.958   5.178   0.695
 7032TIP3    H121060   0.988   5.143   0.611
 7032TIP3    H221061   0.934   5.269   0.675
 7033TIP3   OH221062   1.835   5.674   3.200
 7033TIP3    H121063   1.837   5.585   3.164
 7033TIP3    H221064   1.751   5.709   3.172
 7034TIP3   OH221065   3.084   6.594   1.123
 7034TIP3    H121066   3.046   6.509   1.100
 7034TIP3    H221067   3.178   6.582   1.112
 7035TIP3   OH221068   5.376   5.366   1.109
 7035TIP3    H121069   5.366   5.287   1.162
 7035TIP3    H221070   5.448   5.346   1.050
 7036TIP3   OH221071   2.900   6.180   5.009
 7036TIP3    H121072   2.987   6.178   4.970
 7036TIP3    H221073   2.882   6.273   5.023
 7037TIP3   OH221074   7.215   5.861   3.102
 7037TIP3    H121075   7.147   5.808   3.145
 7037TIP3    H221076   7.167   5.936   3.067
 7038TIP3   OH221077   4.300   0.150   0.884
 7038TIP3    H121078   4.346   0.105   0.954
 7038TIP3    H221079   4.236   0.087   0.852
 7039TIP3   OH221080   4.320   5.037   2.976
 7039TIP3    H121081   4.407   5.074   2.960
 7039TIP3    H221082   4.299   5.063   3.065
 7040TIP3   OH221083   3.038   4.368   3.769
 7040TIP3    H121084   3.113   4.343   3.824
 7040TIP3    H221085   2.966   4.315   3.801
 7041TIP3   OH221086   6.038   5.782   3.531
 7041TIP3    H121087   5.975   5.745   3.469
 7041TIP3    H221088   6.032   5.726   3.608
 7042TIP3   OH221089   2.993   2.891   0.107
 7042TIP3    H121090   3.060   2.852   0.050
 7042TIP3    H221091   2.982   2.827   0.178
 7043TIP3   OH221092   0.458   1.093   3.761
 7043TIP3    H121093   0.485   1.039   3.836
 7043TIP3    H221094   0.395   1.039   3.714
 7044TIP3   OH221095   5.904   5.059   1.648
 7044TIP3    H121096   5.993   5.092   1.640
 7044TIP3    H221097   5.861   5.119   1.708
 7045TIP3   OH221098   6.239   5.641   5.058
 7045TIP3    H121099   6.303   5.680   5.118
 7045TIP3    H221100   6.159   5.633   5.110
 7046TIP3   OH221101   5.853   3.421   4.620
 7046TIP3    H121102   5.817   3.333   4.620
 7046TIP3    H221103   5.863   3.443   4.712
 7047TIP3   OH221104   5.052   3.125   2.051
 7047TIP3    H121105   5.021   3.102   1.963
 7047TIP3    H221106   5.021   3.214   2.065
 7048TIP3   OH221107   5.127   4.240   0.988
 7048TIP3    H121108   5.041   4.200   0.988
 7048TIP3    H221109   5.111   4.333   0.973
 7049TIP3   OH221110   4.083   5.568   1.004
 7049TIP3    H121111   4.176   5.544   0.994
 7049TIP3    H221112   4.058   5.531   1.088
 7050TIP3   OH221113   4.739   3.372   5.294
 7050TIP3    H121114   4.673   3.400   5.357
 7050TIP3    H221115   4.750   3.447   5.235
 7051TIP3   OH221116   3.696   4.101   5.184
 7051TIP3    H121117   3.740   4.179   5.149
 7051TIP3    H221118   3.709   4.106   5.278
 7052TIP3   OH221119   0.504   4.332   2.249
 7052TIP3    H121120   0.442   4.259   2.248
 7052TIP3    H221121   0.557   4.319   2.171
 7053TIP3   OH221122   0.439   0.077   3.765
 7053TIP3    H121123   0.508   0.136   3.735
 7053TIP3    H221124   0.407   0.117   3.846
 7054TIP3   OH221125   6.842   4.895   3.494
 7054TIP3    H121126   6.851   4.900   3.590
 7054TIP3    H221127   6.835   4.986   3.466
 7055TIP3   OH221128   0.153   1.039   3.234
 7055TIP3    H121129   0.090   0.973   3.264
 7055TIP3    H221130   0.112   1.122   3.257
 7056TIP3   OH221131   6.373   6.263   4.672
 7056TIP3    H121132   6.457   6.248   4.628
 7056TIP3    H221133   6.308   6.255   4.602
 7057TIP3   OH221134   1.367   6.289   2.859
 7057TIP3    H121135   1.388   6.382   2.867
 7057TIP3    H221136   1.305   6.273   2.930
 7058TIP3   OH221137   3.307   5.607   5.843
 7058TIP3    H121138   3.225   5.646   5.811
 7058TIP3    H221139   3.362   5.601   5.765
 7059TIP3   OH221140   3.907   5.745   0.932
 7059TIP3    H121141   3.961   5.674   0.896
 7059TIP3    H221142   3.970   5.816   0.950
 7060TIP3   OH221143   3.443   5.756   2.487
 7060TIP3    H121144   3.522   5.702   2.488
 7060TIP3    H221145   3.396   5.727   2.409
 7061TIP3   OH221146   0.370   6.471   2.552
 7061TIP3    H121147   0.333   6.533   2.490
 7061TIP3    H221148   0.296   6.442   2.605
 7062TIP3   OH221149   5.353   4.639   5.010
 7062TIP3    H121150   5.309   4.574   4.955
 7062TIP3    H221151   5.393   4.699   4.948
 7063TIP3   OH221152   2.064   2.183   2.561
 7063TIP3    H121153   2.062   2.260   2.618
 7063TIP3    H221154   2.109   2.116   2.612
 7064TIP3   OH221155   0.156   1.557   0.076
 7064TIP3    H121156   0.070   1.597   0.083
 7064TIP3    H221157   0.141   1.463   0.089
 7065TIP3   OH221158   1.401   6.455   0.355
 7065TIP3    H121159   1.311   6.458   0.322
 7065TIP3    H221160   1.398   6.391   0.426
 7066TIP3   OH221161   6.534   4.936   4.672
 7066TIP3    H121162   6.581   4.881   4.736
 7066TIP3    H221163   6.527   4.881   4.594
 7067TIP3   OH221164   4.681   0.144   4.737
 7067TIP3    H121165   4.675   0.051   4.758
 7067TIP3    H221166   4.594   0.168   4.704
 7068TIP3   OH221167   5.103   0.275   4.934
 7068TIP3    H121168   5.145   0.326   5.003
 7068TIP3    H221169   5.047   0.338   4.889
 7069TIP3   OH221170   1.988   4.768   3.057
 7069TIP3    H121171   1.925   4.830   3.095
 7069TIP3    H221172   1.977   4.689   3.111
 7070TIP3   OH221173   2.231   1.133   5.692
 7070TIP3    H121174   2.276   1.213   5.663
 7070TIP3    H221175   2.269   1.114   5.778
 7071TIP3   OH221176   6.032   6.597   3.904
 7071TIP3    H121177   6.038   6.605   3.808
 7071TIP3    H221178   6.117   6.564   3.931
 7072TIP3   OH221179   3.998   5.651   3.848
 7072TIP3    H121180   3.976   5.619   3.760
 7072TIP3    H221181   3.914   5.671   3.888
 7073TIP3   OH221182   3.443   6.198   2.069
 7073TIP3    H121183   3.400   6.282   2.059
 7073TIP3    H221184   3.537   6.217   2.065
 7074TIP3   OH221185   6.494   5.876   0.429
 7074TIP3    H121186   6.409   5.883   0.471
 7074TIP3    H221187   6.557   5.884   0.501
 7075TIP3   OH221188   1.198   3.418   1.425
 7075TIP3    H121189   1.290   3.427   1.404
 7075TIP3    H221190   1.154   3.482   1.370
 7076TIP3   OH221191   0.231   0.726   1.596
 7076TIP3    H121192   0.211   0.816   1.569
 7076TIP3    H221193   0.153   0.698   1.644
 7077TIP3   OH221194   1.637   3.902   4.861
 7077TIP3    H121195   1.613   3.919   4.952
 7077TIP3    H221196   1.712   3.959   4.844
 7078TIP3   OH221197   4.398   5.716   3.010
 7078TIP3    H121198   4.330   5.710   2.942
 7078TIP3    H221199   4.476   5.743   2.963
 7079TIP3   OH221200   5.818   5.961   5.023
 7079TIP3    H121201   5.740   6.010   4.999
 7079TIP3    H221202   5.865   5.950   4.941
 7080TIP3   OH221203   4.119   1.313   4.981
 7080TIP3    H121204   4.054   1.264   5.031
 7080TIP3    H221205   4.072   1.391   4.950
 7081TIP3   OH221206   4.087   0.026   3.160
 7081TIP3    H121207   4.156  -0.006   3.218
 7081TIP3    H221208   4.056   0.106   3.203
 7082TIP3   OH221209   1.641   0.995   3.288
 7082TIP3    H121210   1.730   0.982   3.255
 7082TIP3    H221211   1.591   1.022   3.211
 7083TIP3   OH221212   2.570   2.138   0.944
 7083TIP3    H121213   2.543   2.088   1.021
 7083TIP3    H221214   2.647   2.187   0.972
 7084TIP3   OH221215   0.293   3.970   2.046
 7084TIP3    H121216   0.315   3.878   2.058
 7084TIP3    H221217   0.301   4.009   2.133
 7085TIP3   OH221218   5.830   4.832   5.475
 7085TIP3    H121219   5.908   4.779   5.494
 7085TIP3    H221220   5.759   4.788   5.520
 7086TIP3   OH221221   0.271   6.641   1.379
 7086TIP3    H121222   0.252   6.559   1.425
 7086TIP3    H221223   0.197   6.653   1.319
 7087TIP3   OH221224   1.047   5.894   0.835
 7087TIP3    H121225   0.990   5.827   0.873
 7087TIP3    H221226   1.053   5.869   0.742
 7088TIP3   OH221227   5.116   6.016   4.468
 7088TIP3    H121228   5.168   6.093   4.491
 7088TIP3    H221229   5.159   5.943   4.512
 7089TIP3   OH221230   1.083   1.482   1.346
 7089TIP3    H121231   1.108   1.486   1.254
 7089TIP3    H221232   1.110   1.567   1.382
 7090TIP3   OH221233   1.684   0.174   4.172
 7090TIP3    H121234   1.732   0.143   4.095
 7090TIP3    H221235   1.742   0.156   4.246
 7091TIP3   OH221236   7.202   2.676   2.585
 7091TIP3    H121237   7.119   2.628   2.578
 7091TIP3    H221238   7.258   2.638   2.517
 7092TIP3   OH221239   2.057   2.694   4.734
 7092TIP3    H121240   2.139   2.649   4.712
 7092TIP3    H221241   2.085   2.774   4.780
 7093TIP3   OH221242   6.579   0.977   1.344
 7093TIP3    H121243   6.618   0.890   1.355
 7093TIP3    H221244   6.547   0.977   1.254
 7094TIP3   OH221245   0.715   1.264   4.772
 7094TIP3    H121246   0.703   1.359   4.766
 7094TIP3    H221247   0.780   1.253   4.841
 7095TIP3   OH221248   5.423   0.496   4.697
 7095TIP3    H121249   5.436   0.537   4.783
 7095TIP3    H221250   5.501   0.521   4.648
 7096TIP3   OH221251   6.571   3.127   0.052
 7096TIP3    H121252   6.660   3.107   0.022
 7096TIP3    H221253   6.580   3.207   0.104
 7097TIP3   OH221254   3.361   6.078   1.815
 7097TIP3    H121255   3.335   6.159   1.771
 7097TIP3    H221256   3.390   6.106   1.902
 7098TIP3   OH221257   4.079   6.306   4.399
 7098TIP3    H121258   4.090   6.283   4.307
 7098TIP3    H221259   3.997   6.356   4.400
 7099TIP3   OH221260   1.237   0.274   5.616
 7099TIP3    H121261   1.164   0.316   5.662
 7099TIP3    H221262   1.271   0.210   5.679
 7100TIP3   OH221263   2.566   4.693   0.759
 7100TIP3    H121264   2.597   4.612   0.800
 7100TIP3    H221265   2.472   4.694   0.777
 7101TIP3   OH221266   5.592   2.706   3.291
 7101TIP3    H121267   5.515   2.731   3.342
 7101TIP3    H221268   5.560   2.701   3.201
 7102TIP3   OH221269   3.598   6.631   2.303
 7102TIP3    H121270   3.548   6.680   2.368
 7102TIP3    H221271   3.661   6.694   2.269
 7103TIP3   OH221272   4.143   5.585   3.279
 7103TIP3    H121273   4.180   5.502   3.308
 7103TIP3    H221274   4.214   5.648   3.290
 7104TIP3   OH221275   2.140   4.589   0.375
 7104TIP3    H121276   2.131   4.525   0.304
 7104TIP3    H221277   2.105   4.545   0.452
 7105TIP3   OH221278   3.601   0.419   1.712
 7105TIP3    H121279   3.524   0.367   1.736
 7105TIP3    H221280   3.668   0.355   1.689
 7106TIP3   OH221281   0.219   2.582   0.142
 7106TIP3    H121282   0.280   2.547   0.077
 7106TIP3    H221283   0.252   2.548   0.225
 7107TIP3   OH221284   4.970   4.739   0.759
 7107TIP3    H121285   5.062   4.753   0.736
 7107TIP3    H221286   4.930   4.825   0.754
 7108TIP3   OH221287   5.147   1.425   2.547
 7108TIP3    H121288   5.109   1.510   2.526
 7108TIP3    H221289   5.092   1.362   2.500
 7109TIP3   OH221290   7.193   1.891   3.084
 7109TIP3    H121291   7.206   1.801   3.114
 7109TIP3    H221292   7.195   1.885   2.989
 7110TIP3   OH221293   3.234  -0.006   2.305
 7110TIP3    H121294   3.193   0.072   2.268
 7110TIP3    H221295   3.190  -0.079   2.261
 7111TIP3   OH221296   6.596   2.186   1.038
 7111TIP3    H121297   6.664   2.253   1.035
 7111TIP3    H221298   6.591   2.153   0.948
 7112TIP3   OH221299   4.721   1.976   3.840
 7112TIP3    H121300   4.642   1.923   3.845
 7112TIP3    H221301   4.689   2.066   3.840
 7113TIP3   OH221302   0.591   4.645   1.871
 7113TIP3    H121303   0.548   4.575   1.822
 7113TIP3    H221304   0.629   4.702   1.803
 7114TIP3   OH221305   3.414   6.097   0.861
 7114TIP3    H121306   3.398   6.187   0.891
 7114TIP3    H221307   3.509   6.086   0.866
 7115TIP3   OH221308   1.951   1.703   4.630
 7115TIP3    H121309   1.973   1.778   4.575
 7115TIP3    H221310   1.861   1.718   4.657
 7116TIP3   OH221311   6.470   4.671   2.234
 7116TIP3    H121312   6.454   4.709   2.321
 7116TIP3    H221313   6.391   4.621   2.215
 7117TIP3   OH221314   2.336   3.329   3.145
 7117TIP3    H121315   2.344   3.234   3.138
 7117TIP3    H221316   2.255   3.343   3.195
 7118TIP3   OH221317   4.126   2.497   4.388
 7118TIP3    H121318   4.033   2.514   4.373
 7118TIP3    H221319   4.169   2.580   4.364
 7119TIP3   OH221320   1.147   5.481   1.629
 7119TIP3    H121321   1.236   5.509   1.653
 7119TIP3    H221322   1.114   5.549   1.572
 7120TIP3   OH221323   5.889   0.235   0.495
 7120TIP3    H121324   5.815   0.197   0.541
 7120TIP3    H221325   5.923   0.164   0.441
 7121TIP3   OH221326   6.674   5.201   3.706
 7121TIP3    H121327   6.700   5.211   3.797
 7121TIP3    H221328   6.583   5.230   3.703
 7122TIP3   OH221329   3.862   1.707   1.711
 7122TIP3    H121330   3.811   1.696   1.630
 7122TIP3    H221331   3.953   1.706   1.681
 7123TIP3   OH221332   3.640   6.372   0.672
 7123TIP3    H121333   3.614   6.315   0.599
 7123TIP3    H221334   3.694   6.440   0.631
 7124TIP3   OH221335   1.269   4.857   3.464
 7124TIP3    H121336   1.274   4.929   3.402
 7124TIP3    H221337   1.343   4.871   3.523
 7125TIP3   OH221338   3.651   5.055   0.010
 7125TIP3    H121339   3.680   5.112  -0.061
 7125TIP3    H221340   3.670   5.104   0.090
 7126TIP3   OH221341   2.446   5.783   5.632
 7126TIP3    H121342   2.434   5.697   5.592
 7126TIP3    H221343   2.358   5.820   5.638
 7127TIP3   OH221344   5.765   4.910   4.136
 7127TIP3    H121345   5.686   4.964   4.131
 7127TIP3    H221346   5.733   4.820   4.134
 7128TIP3   OH221347   1.204   1.788   3.311
 7128TIP3    H121348   1.261   1.712   3.301
 7128TIP3    H221349   1.257   1.862   3.283
 7129TIP3   OH221350   1.518   5.330   2.206
 7129TIP3    H121351   1.536   5.297   2.118
 7129TIP3    H221352   1.482   5.417   2.193
 7130TIP3   OH221353   2.908   1.523   3.427
 7130TIP3    H121354   2.828   1.471   3.439
 7130TIP3    H221355   2.975   1.475   3.475
 7131TIP3   OH221356   4.322   5.399   3.047
 7131TIP3    H121357   4.398   5.423   3.100
 7131TIP3    H221358   4.268   5.478   3.045
 7132TIP3   OH221359   3.622   4.770   3.329
 7132TIP3    H121360   3.629   4.776   3.234
 7132TIP3    H221361   3.687   4.833   3.362
 7133TIP3   OH221362   6.888   3.130   4.522
 7133TIP3    H121363   6.929   3.186   4.588
 7133TIP3    H221364   6.836   3.068   4.573
 7134TIP3   OH221365   6.128   3.416   4.455
 7134TIP3    H121366   6.057   3.461   4.502
 7134TIP3    H221367   6.146   3.473   4.380
 7135TIP3   OH221368   5.585   6.431   5.595
 7135TIP3    H121369   5.588   6.383   5.513
 7135TIP3    H221370   5.671   6.472   5.602
 7136TIP3   OH221371   4.833   6.676   3.053
 7136TIP3    H121372   4.899   6.730   3.009
 7136TIP3    H221373   4.882   6.632   3.124
 7137TIP3   OH221374   6.787   4.422   5.159
 7137TIP3    H121375   6.859   4.362   5.140
 7137TIP3    H221376   6.829   4.507   5.171
 7138TIP3   OH221377   5.428   6.077   1.731
 7138TIP3    H121378   5.369   6.142   1.694
 7138TIP3    H221379   5.516   6.109   1.709
 7139TIP3   OH221380   6.824   4.707   5.246
 7139TIP3    H121381   6.864   4.794   5.249
 7139TIP3    H221382   6.761   4.708   5.318
 7140TIP3   OH221383   3.207   3.484   0.040
 7140TIP3    H121384   3.268   3.557   0.052
 7140TIP3    H221385   3.263   3.408   0.026
 7141TIP3   OH221386   5.027   2.753   4.584
 7141TIP3    H121387   4.953   2.802   4.548
 7141TIP3    H221388   5.040   2.680   4.524
 7142TIP3   OH221389   3.726   5.558   1.595
 7142TIP3    H121390   3.763   5.509   1.668
 7142TIP3    H221391   3.745   5.650   1.616
 7143TIP3   OH221392   3.941   5.706   4.559
 7143TIP3    H121393   4.029   5.676   4.537
 7143TIP3    H221394   3.947   5.733   4.651
 7144TIP3   OH221395   0.472   0.484   0.445
 7144TIP3    H121396   0.533   0.474   0.371
 7144TIP3    H221397   0.529   0.491   0.522
 7145TIP3   OH221398   6.338   2.951   0.945
 7145TIP3    H121399   6.387   2.970   1.025
 7145TIP3    H221400   6.330   2.855   0.944
 7146TIP3   OH221401   3.789   1.151   5.537
 7146TIP3    H121402   3.724   1.096   5.582
 7146TIP3    H221403   3.779   1.237   5.578
 7147TIP3   OH221404   0.602   3.778   2.446
 7147TIP3    H121405   0.653   3.843   2.494
 7147TIP3    H221406   0.659   3.701   2.442
 7148TIP3   OH221407   1.511   3.363   5.740
 7148TIP3    H121408   1.491   3.442   5.691
 7148TIP3    H221409   1.602   3.343   5.718
 7149TIP3   OH221410   5.247   3.917   3.587
 7149TIP3    H121411   5.317   3.859   3.618
 7149TIP3    H221412   5.278   3.948   3.502
 7150TIP3   OH221413   6.854   3.319   4.336
 7150TIP3    H121414   6.844   3.390   4.400
 7150TIP3    H221415   6.855   3.239   4.388
 7151TIP3   OH221416   1.980   0.150   5.793
 7151TIP3    H121417   2.075   0.159   5.790
 7151TIP3    H221418   1.950   0.228   5.839
 7152TIP3   OH221419   6.815   3.440   4.793
 7152TIP3    H121420   6.742   3.445   4.731
 7152TIP3    H221421   6.888   3.406   4.741
 7153TIP3   OH221422   2.831   5.133   0.881
 7153TIP3    H121423   2.802   5.174   0.800
 7153TIP3    H221424   2.786   5.049   0.883
 7154TIP3   OH221425   6.679   0.657   2.789
 7154TIP3    H121426   6.610   0.594   2.809
 7154TIP3    H221427   6.730   0.665   2.870
 7155TIP3   OH221428   0.272   1.471   0.525
 7155TIP3    H121429   0.336   1.516   0.470
 7155TIP3    H221430   0.212   1.430   0.463
 7156TIP3   OH221431   2.397   4.426   1.261
 7156TIP3    H121432   2.466   4.429   1.327
 7156TIP3    H221433   2.368   4.334   1.261
 7157TIP3   OH221434   0.968   5.339   0.351
 7157TIP3    H121435   0.898   5.341   0.286
 7157TIP3    H221436   0.928   5.375   0.431
 7158TIP3   OH221437   0.525   0.185   2.206
 7158TIP3    H121438   0.555   0.274   2.227
 7158TIP3    H221439   0.482   0.155   2.286
 7159TIP3   OH221440   6.072   4.552   4.339
 7159TIP3    H121441   6.115   4.637   4.343
 7159TIP3    H221442   6.013   4.559   4.264
 7160TIP3   OH221443   0.953   5.272   5.467
 7160TIP3    H121444   1.019   5.220   5.512
 7160TIP3    H221445   0.980   5.363   5.482
 7161TIP3   OH221446   3.487   5.824   1.800
 7161TIP3    H121447   3.558   5.836   1.737
 7161TIP3    H221448   3.460   5.913   1.823
 7162TIP3   OH221449   6.479   6.458   3.414
 7162TIP3    H121450   6.483   6.519   3.488
 7162TIP3    H221451   6.420   6.389   3.443
 7163TIP3   OH221452   0.961   3.495   5.538
 7163TIP3    H121453   1.027   3.451   5.591
 7163TIP3    H221454   0.879   3.451   5.560
 7164TIP3   OH221455   2.798  -0.016   3.626
 7164TIP3    H121456   2.740   0.019   3.558
 7164TIP3    H221457   2.872   0.045   3.628
 7165TIP3   OH221458   1.620   1.390   3.832
 7165TIP3    H121459   1.582   1.444   3.902
 7165TIP3    H221460   1.569   1.309   3.835
 7166TIP3   OH221461   5.247   6.101   0.835
 7166TIP3    H121462   5.289   6.080   0.751
 7166TIP3    H221463   5.165   6.145   0.811
 7167TIP3   OH221464   4.508   0.774   4.601
 7167TIP3    H121465   4.477   0.863   4.617
 7167TIP3    H221466   4.600   0.784   4.578
 7168TIP3   OH221467   3.746   0.599   3.405
 7168TIP3    H121468   3.688   0.651   3.461
 7168TIP3    H221469   3.834   0.627   3.429
 7169TIP3   OH221470   1.218   1.033   4.211
 7169TIP3    H121471   1.312   1.013   4.210
 7169TIP3    H221472   1.197   1.045   4.303
 7170TIP3   OH221473   2.382   0.947   2.236
 7170TIP3    H121474   2.434   0.871   2.259
 7170TIP3    H221475   2.445   1.009   2.199
 7171TIP3   OH221476   2.166   1.382   1.832
 7171TIP3    H121477   2.085   1.384   1.882
 7171TIP3    H221478   2.226   1.329   1.884
 7172TIP3   OH221479   4.876   0.428   3.894
 7172TIP3    H121480   4.797   0.418   3.841
 7172TIP3    H221481   4.846   0.418   3.984
 7173TIP3   OH221482   2.817   1.178   3.353
 7173TIP3    H121483   2.793   1.159   3.262
 7173TIP3    H221484   2.736   1.210   3.393
 7174TIP3   OH221485   7.153   3.644   2.612
 7174TIP3    H121486   7.201   3.706   2.667
 7174TIP3    H221487   7.139   3.690   2.530
 7175TIP3   OH221488   7.005   2.744   3.512
 7175TIP3    H121489   6.999   2.838   3.497
 7175TIP3    H221490   7.066   2.712   3.445
 7176TIP3   OH221491   3.210   2.174   4.237
 7176TIP3    H121492   3.298   2.212   4.241
 7176TIP3    H221493   3.185   2.161   4.328
 7177TIP3   OH221494   6.590   3.591   0.216
 7177TIP3    H121495   6.522   3.626   0.159
 7177TIP3    H221496   6.665   3.649   0.203
 7178TIP3   OH221497   3.405   6.708   3.882
 7178TIP3    H121498   3.376   6.799   3.877
 7178TIP3    H221499   3.330   6.661   3.919
 7179TIP3   OH221500   6.594   2.885   2.065
 7179TIP3    H121501   6.570   2.973   2.037
 7179TIP3    H221502   6.516   2.851   2.107
 7180TIP3   OH221503   0.257   2.164   1.027
 7180TIP3    H121504   0.320   2.127   1.089
 7180TIP3    H221505   0.312   2.210   0.963
 7181TIP3   OH221506   1.024   6.615   5.728
 7181TIP3    H121507   1.032   6.685   5.663
 7181TIP3    H221508   1.086   6.549   5.700
 7182TIP3   OH221509   7.105   4.486   4.816
 7182TIP3    H121510   7.157   4.489   4.736
 7182TIP3    H221511   7.130   4.566   4.863
 7183TIP3   OH221512   5.445   3.771   4.828
 7183TIP3    H121513   5.420   3.782   4.920
 7183TIP3    H221514   5.534   3.806   4.823
 7184TIP3   OH221515   4.075   5.348   0.548
 7184TIP3    H121516   4.150   5.346   0.487
 7184TIP3    H221517   4.107   5.398   0.623
 7185TIP3   OH221518   0.229   3.418   0.243
 7185TIP3    H121519   0.219   3.358   0.316
 7185TIP3    H221520   0.318   3.452   0.251
 7186TIP3   OH221521   2.905   4.622   2.833
 7186TIP3    H121522   2.889   4.686   2.902
 7186TIP3    H221523   2.947   4.672   2.763
 7187TIP3   OH221524   0.885   5.878   5.198
 7187TIP3    H121525   0.852   5.914   5.281
 7187TIP3    H221526   0.840   5.794   5.190
 7188TIP3   OH221527   4.037   2.510   5.263
 7188TIP3    H121528   4.080   2.555   5.337
 7188TIP3    H221529   4.053   2.567   5.188
 7189TIP3   OH221530   1.174   4.630   5.578
 7189TIP3    H121531   1.117   4.564   5.538
 7189TIP3    H221532   1.240   4.580   5.625
 7190TIP3   OH221533   7.206   5.385   3.943
 7190TIP3    H121534   7.144   5.315   3.919
 7190TIP3    H221535   7.171   5.463   3.901
 7191TIP3   OH221536   1.159   5.153   5.600
 7191TIP3    H121537   1.239   5.164   5.549
 7191TIP3    H221538   1.184   5.095   5.672
 7192TIP3   OH221539   5.900   5.751   5.817
 7192TIP3    H121540   5.987   5.709   5.815
 7192TIP3    H221541   5.862   5.732   5.732
 7193TIP3   OH221542   1.160   5.308   0.000
 7193TIP3    H121543   1.169   5.234   0.060
 7193TIP3    H221544   1.214   5.376   0.038
 7194TIP3   OH221545   2.362   1.835   3.362
 7194TIP3    H121546   2.297   1.891   3.404
 7194TIP3    H221547   2.312   1.779   3.303
 7195TIP3   OH221548   7.003   2.779   3.220
 7195TIP3    H121549   6.913   2.812   3.225
 7195TIP3    H221550   7.008   2.738   3.134
 7196TIP3   OH221551   6.077   0.307   2.108
 7196TIP3    H121552   6.072   0.381   2.169
 7196TIP3    H221553   6.048   0.343   2.024
 7197TIP3   OH221554   6.225   4.161   1.440
 7197TIP3    H121555   6.156   4.221   1.413
 7197TIP3    H221556   6.286   4.160   1.367
 7198TIP3   OH221557   5.125   0.704   4.711
 7198TIP3    H121558   5.145   0.794   4.738
 7198TIP3    H221559   5.207   0.672   4.673
 7199TIP3   OH221560   6.079   4.355   4.535
 7199TIP3    H121561   6.044   4.420   4.596
 7199TIP3    H221562   6.074   4.397   4.449
 7200TIP3   OH221563   1.632   3.389   4.438
 7200TIP3    H121564   1.718   3.359   4.469
 7200TIP3    H221565   1.645   3.482   4.417
 7201TIP3   OH221566   0.037   2.917   3.263
 7201TIP3    H121567   0.079   2.834   3.286
 7201TIP3    H221568  -0.049   2.892   3.229
 7202TIP3   OH221569   4.471   5.381   1.196
 7202TIP3    H121570   4.398   5.320   1.190
 7202TIP3    H221571   4.429   5.466   1.215
 7203TIP3   OH221572   1.933   3.445   0.654
 7203TIP3    H121573   1.876   3.385   0.703
 7203TIP3    H221574   1.892   3.451   0.568
 7204TIP3   OH221575   2.485   0.428   5.757
 7204TIP3    H121576   2.470   0.468   5.672
 7204TIP3    H221577   2.539   0.492   5.805
 7205TIP3   OH221578   1.134   3.139   5.757
 7205TIP3    H121579   1.124   3.126   5.663
 7205TIP3    H221580   1.073   3.211   5.778
 7206TIP3   OH221581   2.079   2.434   0.777
 7206TIP3    H121582   1.984   2.442   0.781
 7206TIP3    H221583   2.107   2.506   0.720
 7207TIP3   OH221584   5.666   0.211   5.734
 7207TIP3    H121585   5.696   0.244   5.649
 7207TIP3    H221586   5.630   0.125   5.716
 7208TIP3   OH221587   0.558   2.154   0.985
 7208TIP3    H121588   0.562   2.061   0.961
 7208TIP3    H221589   0.555   2.154   1.081
 7209TIP3   OH221590   4.230   6.123   3.629
 7209TIP3    H121591   4.139   6.147   3.615
 7209TIP3    H221592   4.240   6.040   3.582
 7210TIP3   OH221593   6.613   0.428   1.641
 7210TIP3    H121594   6.645   0.342   1.668
 7210TIP3    H221595   6.624   0.430   1.546
 7211TIP3   OH221596   6.472   0.661   4.557
 7211TIP3    H121597   6.563   0.678   4.533
 7211TIP3    H221598   6.441   0.598   4.491
 7212TIP3   OH221599   4.162   0.402   2.846
 7212TIP3    H121600   4.227   0.352   2.894
 7212TIP3    H221601   4.143   0.477   2.902
 7213TIP3   OH221602   0.265   3.926   1.421
 7213TIP3    H121603   0.184   3.883   1.448
 7213TIP3    H221604   0.303   3.867   1.355
 7214TIP3   OH221605   5.348   5.360   4.921
 7214TIP3    H121606   5.297   5.436   4.948
 7214TIP3    H221607   5.298   5.285   4.953
 7215TIP3   OH221608   0.100   0.748   0.300
 7215TIP3    H121609   0.109   0.738   0.395
 7215TIP3    H221610   0.177   0.800   0.275
 7216TIP3   OH221611   0.413   5.852   5.066
 7216TIP3    H121612   0.497   5.890   5.091
 7216TIP3    H221613   0.419   5.839   4.971
 7217TIP3   OH221614   3.261   5.839   5.561
 7217TIP3    H121615   3.276   5.899   5.634
 7217TIP3    H221616   3.190   5.782   5.593
 7218TIP3   OH221617   6.998   0.111   0.517
 7218TIP3    H121618   6.904   0.129   0.509
 7218TIP3    H221619   7.008   0.020   0.491
 7219TIP3   OH221620   2.833   0.206   1.690
 7219TIP3    H121621   2.839   0.119   1.652
 7219TIP3    H221622   2.823   0.265   1.615
 7220TIP3   OH221623   4.500   2.041   4.531
 7220TIP3    H121624   4.574   2.081   4.485
 7220TIP3    H221625   4.456   2.115   4.574
 7221TIP3   OH221626   2.743   4.906   4.244
 7221TIP3    H121627   2.801   4.961   4.192
 7221TIP3    H221628   2.704   4.846   4.180
 7222TIP3   OH221629   0.549   5.839   4.214
 7222TIP3    H121630   0.453   5.840   4.213
 7222TIP3    H221631   0.574   5.835   4.122
 7223TIP3   OH221632   3.063   2.856   4.151
 7223TIP3    H121633   2.974   2.860   4.117
 7223TIP3    H221634   3.070   2.930   4.211
 7224TIP3   OH221635   4.884   6.547   1.378
 7224TIP3    H121636   4.815   6.553   1.445
 7224TIP3    H221637   4.837   6.558   1.296
 7225TIP3   OH221638   5.538   2.553   1.414
 7225TIP3    H121639   5.564   2.544   1.506
 7225TIP3    H221640   5.540   2.647   1.397
 7226TIP3   OH221641   0.721   4.064   5.022
 7226TIP3    H121642   0.768   3.984   5.045
 7226TIP3    H221643   0.670   4.041   4.945
 7227TIP3   OH221644   4.998   3.656   3.953
 7227TIP3    H121645   5.010   3.733   3.898
 7227TIP3    H221646   5.085   3.617   3.960
 7228TIP3   OH221647   5.382   0.255   4.370
 7228TIP3    H121648   5.329   0.333   4.386
 7228TIP3    H221649   5.334   0.205   4.304
 7229TIP3   OH221650   2.882   4.976   5.556
 7229TIP3    H121651   2.954   5.038   5.564
 7229TIP3    H221652   2.884   4.950   5.464
 7230TIP3   OH221653   3.072   6.347   2.782
 7230TIP3    H121654   3.049   6.297   2.860
 7230TIP3    H221655   3.063   6.285   2.709
 7231TIP3   OH221656   5.597   6.044   1.379
 7231TIP3    H121657   5.647   6.121   1.353
 7231TIP3    H221658   5.663   5.979   1.405
 7232TIP3   OH221659   6.585   3.956   2.210
 7232TIP3    H121660   6.501   3.934   2.251
 7232TIP3    H221661   6.649   3.905   2.258
 7233TIP3   OH221662   4.844   4.054   3.866
 7233TIP3    H121663   4.784   4.117   3.906
 7233TIP3    H221664   4.890   4.015   3.941
 7234TIP3   OH221665   0.750   0.385   4.770
 7234TIP3    H121666   0.767   0.478   4.786
 7234TIP3    H221667   0.757   0.376   4.675
 7235TIP3   OH221668   5.224   4.925   4.376
 7235TIP3    H121669   5.138   4.951   4.343
 7235TIP3    H221670   5.251   4.853   4.319
 7236TIP3   OH221671   0.809   1.664   1.608
 7236TIP3    H121672   0.796   1.592   1.669
 7236TIP3    H221673   0.904   1.677   1.605
 7237TIP3   OH221674   3.623   0.366   2.804
 7237TIP3    H121675   3.700   0.355   2.860
 7237TIP3    H221676   3.658   0.383   2.717
 7238TIP3   OH221677   7.110   0.559   0.804
 7238TIP3    H121678   7.098   0.480   0.750
 7238TIP3    H221679   7.168   0.531   0.875
 7239TIP3   OH221680   4.990   6.606   4.484
 7239TIP3    H121681   4.985   6.556   4.403
 7239TIP3    H221682   4.952   6.547   4.550
 7240TIP3   OH221683   3.968   0.264   4.923
 7240TIP3    H121684   4.049   0.256   4.872
 7240TIP3    H221685   3.976   0.200   4.992
 7241TIP3   OH221686   5.068   4.929   3.719
 7241TIP3    H121687   5.154   4.923   3.677
 7241TIP3    H221688   5.088   4.945   3.811
 7242TIP3   OH221689   4.693   5.618   1.695
 7242TIP3    H121690   4.716   5.563   1.770
 7242TIP3    H221691   4.774   5.662   1.672
 7243TIP3   OH221692   4.427   3.849   5.060
 7243TIP3    H121693   4.506   3.825   5.011
 7243TIP3    H221694   4.452   3.930   5.105
 7244TIP3   OH221695   4.224   3.400   5.741
 7244TIP3    H121696   4.215   3.311   5.705
 7244TIP3    H221697   4.135   3.432   5.748
 7245TIP3   OH221698   0.546   0.327   4.104
 7245TIP3    H121699   0.638   0.300   4.113
 7245TIP3    H221700   0.550   0.413   4.063
 7246TIP3   OH221701   4.476   6.638   3.231
 7246TIP3    H121702   4.467   6.729   3.204
 7246TIP3    H221703   4.434   6.588   3.160
 7247TIP3   OH221704   1.360   5.221   1.901
 7247TIP3    H121705   1.278   5.255   1.937
 7247TIP3    H221706   1.372   5.136   1.943
 7248TIP3   OH221707   2.556   5.038   2.342
 7248TIP3    H121708   2.575   4.949   2.371
 7248TIP3    H221709   2.627   5.059   2.280
 7249TIP3   OH221710   4.226   0.729   1.186
 7249TIP3    H121711   4.289   0.714   1.257
 7249TIP3    H221712   4.281   0.741   1.108
 7250TIP3   OH221713   0.844   0.054   2.370
 7250TIP3    H121714   0.848   0.001   2.290
 7250TIP3    H221715   0.929   0.041   2.412
 7251TIP3   OH221716   0.721   5.911   3.235
 7251TIP3    H121717   0.726   6.000   3.201
 7251TIP3    H221718   0.650   5.870   3.186
 7252TIP3   OH221719   6.207   3.381   3.877
 7252TIP3    H121720   6.129   3.435   3.885
 7252TIP3    H221721   6.272   3.439   3.838
 7253TIP3   OH221722   5.146   4.223   3.176
 7253TIP3    H121723   5.095   4.258   3.249
 7253TIP3    H221724   5.208   4.163   3.216
 7254TIP3   OH221725   3.348   0.930   0.350
 7254TIP3    H121726   3.316   0.923   0.440
 7254TIP3    H221727   3.423   0.990   0.356
 7255TIP3   OH221728   2.709   5.743   1.659
 7255TIP3    H121729   2.692   5.700   1.575
 7255TIP3    H221730   2.622   5.762   1.694
 7256TIP3   OH221731   2.554   1.625   2.190
 7256TIP3    H121732   2.622   1.606   2.255
 7256TIP3    H221733   2.588   1.701   2.142
 7257TIP3   OH221734   3.676   0.958   4.993
 7257TIP3    H121735   3.605   0.935   5.052
 7257TIP3    H221736   3.654   1.045   4.960
 7258TIP3   OH221737   0.652   0.018   5.516
 7258TIP3    H121738   0.623   0.067   5.440
 7258TIP3    H221739   0.742  -0.009   5.495
 7259TIP3   OH221740   5.182   5.373   0.461
 7259TIP3    H121741   5.159   5.328   0.380
 7259TIP3    H221742   5.130   5.454   0.459
 7260TIP3   OH221743   5.791   2.346   5.467
 7260TIP3    H121744   5.817   2.387   5.550
 7260TIP3    H221745   5.699   2.370   5.457
 7261TIP3   OH221746   4.423   0.286   0.633
 7261TIP3    H121747   4.347   0.302   0.577
 7261TIP3    H221748   4.387   0.275   0.720
 7262TIP3   OH221749   4.558   3.200   5.841
 7262TIP3    H121750   4.607   3.281   5.850
 7262TIP3    H221751   4.538   3.195   5.747
 7263TIP3   OH221752   6.720   1.016   5.625
 7263TIP3    H121753   6.718   1.099   5.674
 7263TIP3    H221754   6.720   0.948   5.693
 7264TIP3   OH221755   1.052   5.757   4.892
 7264TIP3    H121756   0.992   5.697   4.935
 7264TIP3    H221757   1.055   5.834   4.950
 7265TIP3   OH221758   1.412   2.803   5.001
 7265TIP3    H121759   1.478   2.738   5.026
 7265TIP3    H221760   1.462   2.882   4.984
 7266TIP3   OH221761   4.355   0.665   2.265
 7266TIP3    H121762   4.429   0.617   2.227
 7266TIP3    H221763   4.369   0.658   2.359
 7267TIP3   OH221764   5.538   5.612   3.431
 7267TIP3    H121765   5.531   5.539   3.370
 7267TIP3    H221766   5.602   5.584   3.496
 7268TIP3   OH221767   2.204   0.101   4.218
 7268TIP3    H121768   2.296   0.076   4.208
 7268TIP3    H221769   2.205   0.197   4.214
 7269TIP3   OH221770   1.249   3.779   0.939
 7269TIP3    H121771   1.341   3.805   0.950
 7269TIP3    H221772   1.199   3.855   0.967
 7270TIP3   OH221773   3.861   2.553   4.216
 7270TIP3    H121774   3.834   2.629   4.163
 7270TIP3    H221775   3.822   2.570   4.302
 7271TIP3   OH221776   3.830   2.120   0.927
 7271TIP3    H121777   3.775   2.043   0.944
 7271TIP3    H221778   3.907   2.106   0.982
 7272TIP3   OH221779   4.691   5.659   1.145
 7272TIP3    H121780   4.709   5.748   1.174
 7272TIP3    H221781   4.604   5.640   1.180
 7273TIP3   OH221782   5.687   2.841   5.278
 7273TIP3    H121783   5.638   2.921   5.301
 7273TIP3    H221784   5.711   2.804   5.363
 7274TIP3   OH221785   5.877   0.565   1.535
 7274TIP3    H121786   5.847   0.495   1.477
 7274TIP3    H221787   5.801   0.622   1.545
 7275TIP3   OH221788   2.271   1.330   4.377
 7275TIP3    H121789   2.327   1.354   4.303
 7275TIP3    H221790   2.268   1.409   4.431
 7276TIP3   OH221791   4.793   3.918   1.576
 7276TIP3    H121792   4.783   3.824   1.587
 7276TIP3    H221793   4.885   3.931   1.552
 7277TIP3   OH221794   7.050   3.909   4.408
 7277TIP3    H121795   7.009   3.916   4.494
 7277TIP3    H221796   6.990   3.952   4.348
 7278TIP3   OH221797   3.187   3.549   0.554
 7278TIP3    H121798   3.166   3.455   0.553
 7278TIP3    H221799   3.106   3.592   0.580
 7279TIP3   OH221800   3.385   0.162   3.199
 7279TIP3    H121801   3.477   0.154   3.221
 7279TIP3    H221802   3.366   0.085   3.145
 7280TIP3   OH221803   6.300   6.515   3.632
 7280TIP3    H121804   6.325   6.523   3.724
 7280TIP3    H221805   6.218   6.563   3.624
 7281TIP3   OH221806   0.967   6.155   3.234
 7281TIP3    H121807   1.039   6.208   3.200
 7281TIP3    H221808   1.005   6.068   3.248
 7282TIP3   OH221809   3.379   3.558   4.710
 7282TIP3    H121810   3.458   3.608   4.688
 7282TIP3    H221811   3.389   3.475   4.664
 7283TIP3   OH221812   7.134   3.805   2.006
 7283TIP3    H121813   7.156   3.712   2.017
 7283TIP3    H221814   7.055   3.805   1.952
 7284TIP3   OH221815   5.733   2.633   5.086
 7284TIP3    H121816   5.826   2.644   5.100
 7284TIP3    H221817   5.691   2.699   5.141
 7285TIP3   OH221818   6.442   3.875   1.862
 7285TIP3    H121819   6.518   3.828   1.829
 7285TIP3    H221820   6.384   3.884   1.786
 7286TIP3   OH221821   5.281   5.388   1.594
 7286TIP3    H121822   5.210   5.403   1.532
 7286TIP3    H221823   5.310   5.476   1.619
 7287TIP3   OH221824   0.507   6.462   3.979
 7287TIP3    H121825   0.446   6.535   3.990
 7287TIP3    H221826   0.593   6.504   3.976
 7288TIP3   OH221827   2.418   1.652   1.507
 7288TIP3    H121828   2.426   1.570   1.458
 7288TIP3    H221829   2.352   1.633   1.574
 7289TIP3   OH221830   3.337   5.100   4.052
 7289TIP3    H121831   3.320   5.133   3.963
 7289TIP3    H221832   3.256   5.057   4.077
 7290TIP3   OH221833   4.918   4.979   2.659
 7290TIP3    H121834   4.831   4.965   2.698
 7290TIP3    H221835   4.906   4.961   2.566
 7291TIP3   OH221836   1.651   6.749   5.299
 7291TIP3    H121837   1.741   6.718   5.298
 7291TIP3    H221838   1.626   6.746   5.392
 7292TIP3   OH221839   0.399   6.430   1.571
 7292TIP3    H121840   0.486   6.469   1.562
 7292TIP3    H221841   0.378   6.437   1.664
 7293TIP3   OH221842   5.304   2.371   2.073
 7293TIP3    H121843   5.311   2.466   2.074
 7293TIP3    H221844   5.390   2.341   2.043
 7294TIP3   OH221845   0.853   0.346   3.093
 7294TIP3    H121846   0.778   0.299   3.128
 7294TIP3    H221847   0.888   0.394   3.168
 7295TIP3   OH221848   7.218   1.157   5.343
 7295TIP3    H121849   7.164   1.227   5.306
 7295TIP3    H221850   7.291   1.203   5.385
 7296TIP3   OH221851   4.342   5.112   0.073
 7296TIP3    H121852   4.396   5.128   0.150
 7296TIP3    H221853   4.298   5.195   0.056
 7297TIP3   OH221854   2.026   3.231   0.860
 7297TIP3    H121855   2.057   3.176   0.932
 7297TIP3    H221856   2.084   3.308   0.862
 7298TIP3   OH221857   1.472   1.157   4.676
 7298TIP3    H121858   1.545   1.131   4.732
 7298TIP3    H221859   1.485   1.250   4.660
 7299TIP3   OH221860   2.703   4.088   1.488
 7299TIP3    H121861   2.769   4.089   1.418
 7299TIP3    H221862   2.700   4.179   1.518
 7300TIP3   OH221863   5.698   3.920   4.817
 7300TIP3    H121864   5.753   3.931   4.740
 7300TIP3    H221865   5.758   3.895   4.887
 7301TIP3   OH221866   2.729   2.590   2.906
 7301TIP3    H121867   2.772   2.507   2.884
 7301TIP3    H221868   2.784   2.628   2.975
 7302TIP3   OH221869   3.496   3.940   5.666
 7302TIP3    H121870   3.405   3.969   5.666
 7302TIP3    H221871   3.491   3.844   5.666
 7303TIP3   OH221872   7.076   5.712   2.504
 7303TIP3    H121873   7.059   5.635   2.558
 7303TIP3    H221874   7.171   5.712   2.491
 7304TIP3   OH221875   3.903   2.612   0.953
 7304TIP3    H121876   3.947   2.632   1.036
 7304TIP3    H221877   3.913   2.692   0.902
 7305TIP3   OH221878   3.747   4.799   0.244
 7305TIP3    H121879   3.834   4.834   0.260
 7305TIP3    H221880   3.689   4.875   0.248
 7306TIP3   OH221881   5.066   2.922   3.414
 7306TIP3    H121882   5.126   2.993   3.391
 7306TIP3    H221883   4.980   2.965   3.420
 7307TIP3   OH221884   5.112   1.516   1.152
 7307TIP3    H121885   5.080   1.482   1.068
 7307TIP3    H221886   5.058   1.593   1.168
 7308TIP3   OH221887   6.798   4.257   4.359
 7308TIP3    H121888   6.703   4.248   4.362
 7308TIP3    H221889   6.814   4.322   4.290
 7309TIP3   OH221890   7.002   4.942   0.537
 7309TIP3    H121891   7.073   4.995   0.500
 7309TIP3    H221892   6.976   4.884   0.466
 7310TIP3   OH221893   5.161   2.904   4.865
 7310TIP3    H121894   5.150   2.985   4.916
 7310TIP3    H221895   5.241   2.919   4.815
 7311TIP3   OH221896   1.754   5.367   1.662
 7311TIP3    H121897   1.798   5.300   1.610
 7311TIP3    H221898   1.686   5.402   1.603
 7312TIP3   OH221899   1.898   1.608   5.147
 7312TIP3    H121900   1.993   1.607   5.162
 7312TIP3    H221901   1.885   1.678   5.083
 7313TIP3   OH221902   2.257   0.655   2.495
 7313TIP3    H121903   2.203   0.711   2.550
 7313TIP3    H221904   2.198   0.626   2.425
 7314TIP3   OH221905   4.919   2.702   0.202
 7314TIP3    H121906   5.014   2.716   0.198
 7314TIP3    H221907   4.904   2.623   0.150
 7315TIP3   OH221908   1.481   4.550   4.861
 7315TIP3    H121909   1.420   4.617   4.830
 7315TIP3    H221910   1.543   4.539   4.788
 7316TIP3   OH221911   1.077   6.258   2.815
 7316TIP3    H121912   1.147   6.317   2.842
 7316TIP3    H221913   1.029   6.238   2.895
 7317TIP3   OH221914   2.186   1.676   1.142
 7317TIP3    H121915   2.134   1.596   1.149
 7317TIP3    H221916   2.194   1.708   1.231
 7318TIP3   OH221917   3.436   3.298   0.462
 7318TIP3    H121918   3.342   3.305   0.446
 7318TIP3    H221919   3.464   3.387   0.481
 7319TIP3   OH221920   0.391   6.227   4.846
 7319TIP3    H121921   0.324   6.294   4.836
 7319TIP3    H221922   0.349   6.157   4.894
 7320TIP3   OH221923   5.517   0.695   4.142
 7320TIP3    H121924   5.520   0.603   4.117
 7320TIP3    H221925   5.576   0.738   4.080
 7321TIP3   OH221926   3.883   2.327   1.651
 7321TIP3    H121927   3.965   2.361   1.617
 7321TIP3    H221928   3.908   2.268   1.722
 7322TIP3   OH221929   3.893   0.647   3.688
 7322TIP3    H121930   3.954   0.588   3.644
 7322TIP3    H221931   3.849   0.592   3.753
 7323TIP3   OH221932   6.145   5.934   2.707
 7323TIP3    H121933   6.195   6.016   2.702
 7323TIP3    H221934   6.187   5.885   2.777
 7324TIP3   OH221935   6.044   2.399   1.447
 7324TIP3    H121936   6.054   2.309   1.416
 7324TIP3    H221937   6.022   2.449   1.368
 7325TIP3   OH221938   5.017   1.280   5.334
 7325TIP3    H121939   5.083   1.262   5.266
 7325TIP3    H221940   4.955   1.340   5.292
 7326TIP3   OH221941   6.906   5.434   1.811
 7326TIP3    H121942   6.961   5.366   1.850
 7326TIP3    H221943   6.966   5.507   1.796
 7327TIP3   OH221944   3.886   5.812   0.654
 7327TIP3    H121945   3.884   5.733   0.708
 7327TIP3    H221946   3.916   5.881   0.714
 7328TIP3   OH221947   2.527   2.956   5.397
 7328TIP3    H121948   2.442   2.913   5.384
 7328TIP3    H221949   2.590   2.884   5.395
 7329TIP3   OH221950   0.590   2.370   2.379
 7329TIP3    H121951   0.569   2.446   2.434
 7329TIP3    H221952   0.537   2.299   2.414
 7330TIP3   OH221953   3.945   6.653   5.792
 7330TIP3    H121954   3.860   6.609   5.787
 7330TIP3    H221955   4.001   6.601   5.734
 7331TIP3   OH221956   5.053   6.749   4.764
 7331TIP3    H121957   5.035   6.682   4.697
 7331TIP3    H221958   5.142   6.778   4.745
 7332TIP3   OH221959   5.356   2.240   0.292
 7332TIP3    H121960   5.267   2.215   0.265
 7332TIP3    H221961   5.404   2.249   0.210
 7333TIP3   OH221962   1.656   4.813   4.826
 7333TIP3    H121963   1.710   4.735   4.833
 7333TIP3    H221964   1.651   4.830   4.732
 7334TIP3   OH221965   6.116   6.083   0.321
 7334TIP3    H121966   6.174   6.148   0.361
 7334TIP3    H221967   6.144   5.999   0.359
 7335TIP3   OH221968   6.444   0.107   5.736
 7335TIP3    H121969   6.486   0.139   5.816
 7335TIP3    H221970   6.411   0.021   5.759
 7336TIP3   OH221971   4.058   6.761   1.387
 7336TIP3    H121972   4.079   6.693   1.324
 7336TIP3    H221973   4.137   6.768   1.442
 7337TIP3   OH221974   4.118   4.437   3.852
 7337TIP3    H121975   4.160   4.352   3.861
 7337TIP3    H221976   4.051   4.438   3.921
 7338TIP3   OH221977   1.163   6.526   3.510
 7338TIP3    H121978   1.232   6.577   3.468
 7338TIP3    H221979   1.114   6.487   3.438
 7339TIP3   OH221980   6.105   3.415   3.313
 7339TIP3    H121981   6.093   3.349   3.244
 7339TIP3    H221982   6.160   3.371   3.378
 7340TIP3   OH221983   3.113   3.697   1.140
 7340TIP3    H121984   3.081   3.761   1.203
 7340TIP3    H221985   3.104   3.742   1.055
 7341TIP3   OH221986   5.563   4.549   2.052
 7341TIP3    H121987   5.603   4.634   2.068
 7341TIP3    H221988   5.505   4.564   1.977
 7342TIP3   OH221989   2.366   4.504   0.624
 7342TIP3    H121990   2.312   4.431   0.593
 7342TIP3    H221991   2.451   4.491   0.582
 7343TIP3   OH221992   6.436   5.910   0.730
 7343TIP3    H121993   6.384   5.959   0.666
 7343TIP3    H221994   6.527   5.923   0.703
 7344TIP3   OH221995   0.464   3.549   0.974
 7344TIP3    H121996   0.534   3.608   0.946
 7344TIP3    H221997   0.484   3.529   1.066
 7345TIP3   OH221998   1.973   0.910   2.375
 7345TIP3    H121999   1.980   1.004   2.360
 7345TIP3    H222000   1.920   0.903   2.455
 7346TIP3   OH222001   6.481   3.585   0.531
 7346TIP3    H122002   6.561   3.541   0.559
 7346TIP3    H222003   6.493   3.599   0.437
 7347TIP3   OH222004   4.929   1.710   1.105
 7347TIP3    H122005   4.868   1.705   1.178
 7347TIP3    H222006   4.890   1.657   1.036
 7348TIP3   OH222007   6.800   3.177   2.655
 7348TIP3    H122008   6.763   3.249   2.602
 7348TIP3    H222009   6.856   3.221   2.718
 7349TIP3   OH222010   2.217   4.766   4.466
 7349TIP3    H122011   2.306   4.758   4.431
 7349TIP3    H222012   2.229   4.797   4.555
 7350TIP3   OH222013   3.868   0.456   0.269
 7350TIP3    H122014   3.785   0.448   0.316
 7350TIP3    H222015   3.916   0.524   0.317
 7351TIP3   OH222016   6.014   3.676   1.736
 7351TIP3    H122017   5.969   3.596   1.763
 7351TIP3    H222018   6.023   3.727   1.816
 7352TIP3   OH222019   0.508   2.605   2.005
 7352TIP3    H122020   0.556   2.668   2.058
 7352TIP3    H222021   0.557   2.523   2.017
 7353TIP3   OH222022   6.888   6.719   5.143
 7353TIP3    H122023   6.915   6.628   5.134
 7353TIP3    H222024   6.804   6.715   5.189
 7354TIP3   OH222025   3.572   5.065   1.565
 7354TIP3    H122026   3.652   5.017   1.586
 7354TIP3    H222027   3.599   5.130   1.500
 7355TIP3   OH222028   2.871   2.884   1.599
 7355TIP3    H122029   2.838   2.922   1.680
 7355TIP3    H222030   2.803   2.821   1.573
 7356TIP3   OH222031   6.615   3.260   2.315
 7356TIP3    H122032   6.634   3.169   2.339
 7356TIP3    H222033   6.628   3.309   2.395
 7357TIP3   OH222034   4.873   4.266   3.634
 7357TIP3    H122035   4.938   4.250   3.703
 7357TIP3    H222036   4.849   4.179   3.603
 7358TIP3   OH222037   5.846   5.658   4.120
 7358TIP3    H122038   5.827   5.611   4.201
 7358TIP3    H222039   5.764   5.652   4.070
 7359TIP3   OH222040   3.254   4.082   2.395
 7359TIP3    H122041   3.230   4.050   2.482
 7359TIP3    H222042   3.344   4.113   2.404
 7360TIP3   OH222043   5.709   0.108   1.475
 7360TIP3    H122044   5.785   0.118   1.418
 7360TIP3    H222045   5.637   0.146   1.425
 7361TIP3   OH222046   0.252   6.235   0.940
 7361TIP3    H122047   0.197   6.285   0.880
 7361TIP3    H222048   0.339   6.235   0.899
 7362TIP3   OH222049   3.952   0.871   1.626
 7362TIP3    H122050   4.006   0.935   1.579
 7362TIP3    H222051   3.972   0.886   1.718
 7363TIP3   OH222052   5.133   4.142   5.784
 7363TIP3    H122053   5.183   4.210   5.738
 7363TIP3    H222054   5.153   4.061   5.737
 7364TIP3   OH222055   3.611   1.952   5.514
 7364TIP3    H122056   3.517   1.933   5.515
 7364TIP3    H222057   3.630   1.975   5.424
 7365TIP3   OH222058   5.756   2.883   4.307
 7365TIP3    H122059   5.807   2.847   4.379
 7365TIP3    H222060   5.822   2.916   4.245
 7366TIP3   OH222061   2.959   4.730   5.053
 7366TIP3    H122062   2.913   4.665   5.106
 7366TIP3    H222063   3.012   4.779   5.116
 7367TIP3   OH222064   0.902   2.634   1.007
 7367TIP3    H122065   0.895   2.605   0.916
 7367TIP3    H222066   0.844   2.711   1.012
 7368TIP3   OH222067   0.736   0.115   1.966
 7368TIP3    H122068   0.719   0.203   1.930
 7368TIP3    H222069   0.682   0.110   2.044
 7369TIP3   OH222070   2.342   5.109   5.736
 7369TIP3    H122071   2.266   5.082   5.685
 7369TIP3    H222072   2.416   5.100   5.675
 7370TIP3   OH222073   4.129   6.627   3.245
 7370TIP3    H122074   4.119   6.720   3.262
 7370TIP3    H222075   4.051   6.586   3.283
 7371TIP3   OH222076   2.112   2.620   5.605
 7371TIP3    H122077   2.161   2.642   5.685
 7371TIP3    H222078   2.156   2.542   5.571
 7372TIP3   OH222079   5.580   3.897   1.307
 7372TIP3    H122080   5.579   3.959   1.234
 7372TIP3    H222081   5.669   3.900   1.340
 7373TIP3   OH222082   2.849   6.570   0.491
 7373TIP3    H122083   2.772   6.577   0.435
 7373TIP3    H222084   2.875   6.661   0.507
 7374TIP3   OH222085   2.070   0.354   1.925
 7374TIP3    H122086   2.075   0.263   1.895
 7374TIP3    H222087   2.106   0.405   1.853
 7375TIP3   OH222088   6.161   4.503   2.767
 7375TIP3    H122089   6.148   4.440   2.838
 7375TIP3    H222090   6.231   4.465   2.714
 7376TIP3   OH222091   6.436   3.439   3.260
 7376TIP3    H122092   6.375   3.499   3.217
 7376TIP3    H222093   6.381   3.385   3.316
 7377TIP3   OH222094   0.812   0.667   0.702
 7377TIP3    H122095   0.780   0.683   0.790
 7377TIP3    H222096   0.847   0.579   0.704
 7378TIP3   OH222097   5.585   3.812   0.462
 7378TIP3    H122098   5.669   3.767   0.459
 7378TIP3    H222099   5.593   3.871   0.538
 7379TIP3   OH222100   1.535   6.203   0.486
 7379TIP3    H122101   1.537   6.138   0.556
 7379TIP3    H222102   1.474   6.168   0.421
 7380TIP3   OH222103   4.961   0.705   5.383
 7380TIP3    H122104   4.896   0.675   5.319
 7380TIP3    H222105   5.010   0.626   5.407
 7381TIP3   OH222106   6.932   3.270   2.099
 7381TIP3    H122107   6.982   3.259   2.018
 7381TIP3    H222108   6.986   3.229   2.167
 7382TIP3   OH222109   0.031   2.844   1.336
 7382TIP3    H122110   0.065   2.863   1.249
 7382TIP3    H222111  -0.016   2.924   1.361
 7383TIP3   OH222112   2.569   4.443   3.294
 7383TIP3    H122113   2.501   4.406   3.351
 7383TIP3    H222114   2.643   4.383   3.303
 7384TIP3   OH222115   6.094   6.214   1.793
 7384TIP3    H122116   6.168   6.232   1.734
 7384TIP3    H222117   6.125   6.146   1.851
 7385TIP3   OH222118   6.425   2.692   5.549
 7385TIP3    H122119   6.458   2.742   5.624
 7385TIP3    H222120   6.468   2.731   5.474
 7386TIP3   OH222121   6.574   2.997   2.734
 7386TIP3    H122122   6.587   2.968   2.643
 7386TIP3    H222123   6.622   3.080   2.740
 7387TIP3   OH222124   5.883   4.659   2.852
 7387TIP3    H122125   5.962   4.706   2.825
 7387TIP3    H222126   5.843   4.715   2.918
 7388TIP3   OH222127   5.312   6.677   4.917
 7388TIP3    H122128   5.362   6.631   4.985
 7388TIP3    H222129   5.227   6.694   4.958
 7389TIP3   OH222130   5.991   6.787   4.654
 7389TIP3    H122131   5.920   6.745   4.704
 7389TIP3    H222132   6.071   6.761   4.699
 7390TIP3   OH222133   6.190   0.185   4.325
 7390TIP3    H122134   6.224   0.141   4.247
 7390TIP3    H222135   6.267   0.209   4.375
 7391TIP3   OH222136   5.624   6.632   4.414
 7391TIP3    H122137   5.531   6.612   4.411
 7391TIP3    H222138   5.657   6.582   4.488
 7392TIP3   OH222139   3.910   4.284   2.120
 7392TIP3    H122140   3.981   4.310   2.061
 7392TIP3    H222141   3.949   4.216   2.175
 7393TIP3   OH222142   3.203   1.409  -0.022
 7393TIP3    H122143   3.234   1.337   0.034
 7393TIP3    H222144   3.261   1.483   0.000
 7394TIP3   OH222145   4.168   3.407   0.095
 7394TIP3    H122146   4.240   3.469   0.084
 7394TIP3    H222147   4.134   3.425   0.183
 7395TIP3   OH222148   4.803   0.614   1.970
 7395TIP3    H122149   4.860   0.574   2.035
 7395TIP3    H222150   4.766   0.539   1.922
 7396TIP3   OH222151   5.817   4.400   1.172
 7396TIP3    H122152   5.841   4.317   1.130
 7396TIP3    H222153   5.778   4.374   1.255
 7397TIP3   OH222154   0.978   2.861   5.167
 7397TIP3    H122155   1.065   2.848   5.206
 7397TIP3    H222156   0.918   2.816   5.226
 7398TIP3   OH222157   1.458   0.097   3.495
 7398TIP3    H122158   1.374   0.132   3.462
 7398TIP3    H222159   1.441   0.077   3.587
 7399TIP3   OH222160   4.986   3.626   4.781
 7399TIP3    H122161   5.041   3.576   4.720
 7399TIP3    H222162   4.979   3.713   4.741
 7400TIP3   OH222163   5.436   5.413   0.540
 7400TIP3    H122164   5.465   5.486   0.485
 7400TIP3    H222165   5.347   5.395   0.510
 7401TIP3   OH222166   3.290   0.239   3.572
 7401TIP3    H122167   3.353   0.309   3.560
 7401TIP3    H222168   3.343   0.161   3.586
 7402TIP3   OH222169   1.698   3.146   3.069
 7402TIP3    H122170   1.653   3.087   3.129
 7402TIP3    H222171   1.628   3.184   3.016
 7403TIP3   OH222172   5.480   0.103   4.563
 7403TIP3    H122173   5.443   0.137   4.645
 7403TIP3    H222174   5.435   0.153   4.494
 7404TIP3   OH222175   3.294   6.649   2.174
 7404TIP3    H122176   3.360   6.603   2.225
 7404TIP3    H222177   3.323   6.740   2.174
 7405TIP3   OH222178   4.894   4.747   0.279
 7405TIP3    H122179   4.878   4.679   0.345
 7405TIP3    H222180   4.817   4.743   0.222
 7406TIP3   OH222181   1.225   5.829   2.192
 7406TIP3    H122182   1.174   5.895   2.145
 7406TIP3    H222183   1.159   5.772   2.233
 7407TIP3   OH222184   0.205   5.298   0.466
 7407TIP3    H122185   0.263   5.329   0.396
 7407TIP3    H222186   0.197   5.204   0.450
 7408TIP3   OH222187   4.145   6.232   4.153
 7408TIP3    H122188   4.163   6.315   4.109
 7408TIP3    H222189   4.168   6.165   4.088
 7409TIP3   OH222190   3.466   3.528   1.913
 7409TIP3    H122191   3.561   3.537   1.921
 7409TIP3    H222192   3.452   3.499   1.823
 7410TIP3   OH222193   6.558   3.561   4.651
 7410TIP3    H122194   6.530   3.533   4.563
 7410TIP3    H222195   6.577   3.655   4.641
 7411TIP3   OH222196   3.732   5.941   0.453
 7411TIP3    H122197   3.648   5.928   0.497
 7411TIP3    H222198   3.791   5.878   0.494
 7412TIP3   OH222199   3.022   3.909   2.596
 7412TIP3    H122200   3.093   3.917   2.660
 7412TIP3    H222201   2.966   3.985   2.612
 7413TIP3   OH222202   2.641   5.335   5.277
 7413TIP3    H122203   2.700   5.403   5.248
 7413TIP3    H222204   2.565   5.343   5.220
 7414TIP3   OH222205   0.824   3.081   4.562
 7414TIP3    H122206   0.894   3.144   4.577
 7414TIP3    H222207   0.846   3.040   4.478
 7415TIP3   OH222208   5.586   4.212   5.369
 7415TIP3    H122209   5.639   4.177   5.442
 7415TIP3    H222210   5.647   4.217   5.296
 7416TIP3   OH222211   3.958   2.057   4.387
 7416TIP3    H122212   3.991   2.064   4.298
 7416TIP3    H222213   3.913   2.139   4.403
 7417TIP3   OH222214   3.591   1.056   2.689
 7417TIP3    H122215   3.660   0.990   2.689
 7417TIP3    H222216   3.511   1.007   2.673
 7418TIP3   OH222217   0.752   6.117   1.656
 7418TIP3    H122218   0.664   6.150   1.637
 7418TIP3    H222219   0.808   6.154   1.588
 7419TIP3   OH222220   2.827   2.093   5.095
 7419TIP3    H122221   2.916   2.069   5.120
 7419TIP3    H222222   2.838   2.160   5.027
 7420TIP3   OH222223   6.875   5.875   5.543
 7420TIP3    H122224   6.915   5.941   5.599
 7420TIP3    H222225   6.814   5.924   5.487
 7421TIP3   OH222226   2.298   5.708   3.178
 7421TIP3    H122227   2.297   5.738   3.269
 7421TIP3    H222228   2.301   5.789   3.126
 7422TIP3   OH222229   3.726   1.848   0.418
 7422TIP3    H122230   3.658   1.807   0.471
 7422TIP3    H222231   3.704   1.942   0.419
 7423TIP3   OH222232   6.943   4.847   4.961
 7423TIP3    H122233   6.954   4.855   5.055
 7423TIP3    H222234   6.997   4.917   4.924
 7424TIP3   OH222235   6.076   6.073   3.525
 7424TIP3    H122236   6.007   6.120   3.478
 7424TIP3    H222237   6.060   5.981   3.504
 7425TIP3   OH222238   4.265   1.430   5.750
 7425TIP3    H122239   4.172   1.448   5.765
 7425TIP3    H222240   4.288   1.484   5.674
 7426TIP3   OH222241   6.691   2.011   0.271
 7426TIP3    H122242   6.650   2.036   0.188
 7426TIP3    H222243   6.785   2.023   0.255
 7427TIP3   OH222244   2.298   6.226   5.218
 7427TIP3    H122245   2.278   6.295   5.281
 7427TIP3    H222246   2.339   6.272   5.145
 7428TIP3   OH222247   3.811   3.474   2.126
 7428TIP3    H122248   3.780   3.519   2.048
 7428TIP3    H222249   3.761   3.513   2.198
 7429TIP3   OH222250   6.529   1.521   2.712
 7429TIP3    H122251   6.581   1.443   2.731
 7429TIP3    H222252   6.463   1.523   2.781
 7430TIP3   OH222253   5.693   5.130   5.001
 7430TIP3    H122254   5.640   5.193   4.952
 7430TIP3    H222255   5.656   5.044   4.977
 7431TIP3   OH222256   3.943   6.082   2.676
 7431TIP3    H122257   3.900   5.996   2.684
 7431TIP3    H222258   3.890   6.139   2.732
 7432TIP3   OH222259   4.306  -0.016   2.274
 7432TIP3    H122260   4.231   0.043   2.264
 7432TIP3    H222261   4.375   0.039   2.310
 7433TIP3   OH222262   4.386   2.194   1.132
 7433TIP3    H122263   4.390   2.265   1.068
 7433TIP3    H222264   4.408   2.115   1.082
 7434TIP3   OH222265   2.780   3.218   1.468
 7434TIP3    H122266   2.703   3.273   1.452
 7434TIP3    H222267   2.795   3.227   1.562
 7435TIP3   OH222268   6.720   6.198   1.133
 7435TIP3    H122269   6.672   6.199   1.051
 7435TIP3    H222270   6.785   6.268   1.125
 7436TIP3   OH222271   2.430   0.962   5.547
 7436TIP3    H122272   2.370   0.974   5.621
 7436TIP3    H222273   2.469   1.048   5.533
 7437TIP3   OH222274   4.945   5.878   1.333
 7437TIP3    H122275   4.873   5.903   1.275
 7437TIP3    H222276   5.024   5.885   1.278
 7438TIP3   OH222277   2.551   1.716   4.076
 7438TIP3    H122278   2.546   1.780   4.005
 7438TIP3    H222279   2.460   1.692   4.093
 7439TIP3   OH222280   6.485   1.526  -0.030
 7439TIP3    H122281   6.398   1.532  -0.069
 7439TIP3    H222282   6.470   1.539   0.063
 7440TIP3   OH222283   6.444   6.607   0.926
 7440TIP3    H122284   6.363   6.579   0.967
 7440TIP3    H222285   6.422   6.688   0.880
 7441TIP3   OH222286   4.781   4.343   3.978
 7441TIP3    H122287   4.712   4.355   4.043
 7441TIP3    H222288   4.749   4.390   3.900
 7442TIP3   OH222289   0.282   0.461   2.219
 7442TIP3    H122290   0.229   0.423   2.149
 7442TIP3    H222291   0.372   0.458   2.185
 7443TIP3   OH222292   2.748   1.660   5.417
 7443TIP3    H122293   2.811   1.610   5.365
 7443TIP3    H222294   2.664   1.642   5.376
 7444TIP3   OH222295   3.849   0.057   1.316
 7444TIP3    H122296   3.766   0.082   1.276
 7444TIP3    H222297   3.826  -0.009   1.381
 7445TIP3   OH222298   3.374   2.470   3.541
 7445TIP3    H122299   3.352   2.560   3.519
 7445TIP3    H222300   3.294   2.433   3.578
 7446TIP3   OH222301   5.847   1.748   2.409
 7446TIP3    H122302   5.885   1.821   2.359
 7446TIP3    H222303   5.763   1.732   2.367
 7447TIP3   OH222304   0.417   5.850   1.727
 7447TIP3    H122305   0.328   5.884   1.731
 7447TIP3    H222306   0.473   5.925   1.750
 7448TIP3   OH222307   0.294   0.360   4.792
 7448TIP3    H122308   0.367   0.302   4.814
 7448TIP3    H222309   0.303   0.434   4.852
 7449TIP3   OH222310   2.149   1.940   4.926
 7449TIP3    H122311   2.240   1.953   4.953
 7449TIP3    H222312   2.103   1.916   5.006
 7450TIP3   OH222313   6.804   4.980   1.501
 7450TIP3    H122314   6.896   5.005   1.506
 7450TIP3    H222315   6.756   5.055   1.537
 7451TIP3   OH222316   2.152   1.157   5.321
 7451TIP3    H122317   2.146   1.131   5.229
 7451TIP3    H222318   2.218   1.226   5.321
 7452TIP3   OH222319   6.967   6.160   0.044
 7452TIP3    H122320   6.919   6.079   0.065
 7452TIP3    H222321   7.056   6.131   0.024
 7453TIP3   OH222322   4.372   1.183   3.494
 7453TIP3    H122323   4.283   1.164   3.464
 7453TIP3    H222324   4.423   1.192   3.413
 7454TIP3   OH222325   3.009   0.594   2.223
 7454TIP3    H122326   2.955   0.533   2.174
 7454TIP3    H222327   3.071   0.629   2.159
 7455TIP3   OH222328   1.229   2.113   1.129
 7455TIP3    H122329   1.211   2.184   1.068
 7455TIP3    H222330   1.308   2.142   1.175
 7456TIP3   OH222331   1.811   5.805   4.653
 7456TIP3    H122332   1.782   5.714   4.649
 7456TIP3    H222333   1.746   5.848   4.710
 7457TIP3   OH222334   1.071   3.192   4.541
 7457TIP3    H122335   1.109   3.131   4.479
 7457TIP3    H222336   1.072   3.277   4.496
 7458TIP3   OH222337   5.740   2.497   3.118
 7458TIP3    H122338   5.702   2.559   3.056
 7458TIP3    H222339   5.814   2.543   3.157
 7459TIP3   OH222340   4.518   6.661   0.386
 7459TIP3    H122341   4.460   6.695   0.318
 7459TIP3    H222342   4.590   6.619   0.338
 7460TIP3   OH222343   2.244   2.524   4.106
 7460TIP3    H122344   2.322   2.503   4.158
 7460TIP3    H222345   2.278   2.542   4.018
 7461TIP3   OH222346   1.438   0.792   5.451
 7461TIP3    H122347   1.499   0.864   5.467
 7461TIP3    H222348   1.492   0.713   5.452
 7462TIP3   OH222349   2.176   2.624   5.100
 7462TIP3    H122350   2.172   2.715   5.070
 7462TIP3    H222351   2.230   2.579   5.036
 7463TIP3   OH222352   1.561   3.195   5.165
 7463TIP3    H122353   1.493   3.160   5.107
 7463TIP3    H222354   1.551   3.290   5.160
 7464TIP3   OH222355   6.349   2.964   1.232
 7464TIP3    H122356   6.286   2.898   1.201
 7464TIP3    H222357   6.304   3.006   1.305
 7465TIP3   OH222358   2.560   5.790   5.363
 7465TIP3    H122359   2.554   5.797   5.458
 7465TIP3    H222360   2.548   5.879   5.331
 7466TIP3   OH222361   6.991   5.847   3.546
 7466TIP3    H122362   6.988   5.756   3.518
 7466TIP3    H222363   6.996   5.842   3.642
 7467TIP3   OH222364   2.268   1.874   2.083
 7467TIP3    H122365   2.298   1.853   1.994
 7467TIP3    H222366   2.185   1.828   2.092
 7468TIP3   OH222367   1.193   2.339   2.481
 7468TIP3    H122368   1.272   2.388   2.503
 7468TIP3    H222369   1.199   2.327   2.386
 7469TIP3   OH222370   0.699   6.357   3.016
 7469TIP3    H122371   0.669   6.302   3.088
 7469TIP3    H222372   0.619   6.380   2.969
 7470TIP3   OH222373   2.737   6.351   3.855
 7470TIP3    H122374   2.692   6.435   3.851
 7470TIP3    H222375   2.823   6.368   3.817
 7471TIP3   OH222376   0.200   5.060   2.143
 7471TIP3    H122377   0.282   5.016   2.166
 7471TIP3    H222378   0.213   5.151   2.170
 7472TIP3   OH222379   4.617   0.848   0.205
 7472TIP3    H122380   4.582   0.771   0.160
 7472TIP3    H222381   4.542   0.904   0.219
 7473TIP3   OH222382   4.084   5.452   5.369
 7473TIP3    H122383   4.136   5.430   5.446
 7473TIP3    H222384   4.029   5.526   5.397
 7474TIP3   OH222385   0.590   3.170   2.110
 7474TIP3    H122386   0.619   3.213   2.191
 7474TIP3    H222387   0.521   3.227   2.076
 7475TIP3   OH222388   1.141   6.660   4.655
 7475TIP3    H122389   1.059   6.638   4.699
 7475TIP3    H222390   1.120   6.739   4.604
 7476TIP3   OH222391   3.249   5.246   5.434
 7476TIP3    H122392   3.304   5.167   5.440
 7476TIP3    H222393   3.232   5.256   5.341
 7477TIP3   OH222394   6.871   3.062   3.736
 7477TIP3    H122395   6.893   3.155   3.741
 7477TIP3    H222396   6.955   3.019   3.720
 7478TIP3   OH222397   2.512   0.898   1.858
 7478TIP3    H122398   2.467   0.967   1.809
 7478TIP3    H222399   2.548   0.943   1.934
 7479TIP3   OH222400   6.470   3.181   1.119
 7479TIP3    H122401   6.423   3.111   1.165
 7479TIP3    H222402   6.439   3.262   1.160
 7480TIP3   OH222403   2.682   3.827   5.011
 7480TIP3    H122404   2.604   3.784   4.976
 7480TIP3    H222405   2.754   3.789   4.961
 7481TIP3   OH222406   3.638   5.083   2.510
 7481TIP3    H122407   3.681   5.089   2.595
 7481TIP3    H222408   3.568   5.019   2.522
 7482TIP3   OH222409   0.893   1.704   1.126
 7482TIP3    H122410   0.970   1.760   1.141
 7482TIP3    H222411   0.869   1.673   1.214
 7483TIP3   OH222412   5.046   3.810   2.502
 7483TIP3    H122413   5.095   3.772   2.429
 7483TIP3    H222414   4.976   3.746   2.520
 7484TIP3   OH222415   6.797   0.347   3.092
 7484TIP3    H122416   6.879   0.333   3.045
 7484TIP3    H222417   6.769   0.435   3.065
 7485TIP3   OH222418   7.006   6.554   3.684
 7485TIP3    H122419   7.036   6.599   3.605
 7485TIP3    H222420   6.911   6.546   3.672
 7486TIP3   OH222421   6.753   6.439   0.327
 7486TIP3    H122422   6.790   6.352   0.317
 7486TIP3    H222423   6.738   6.469   0.237
 7487TIP3   OH222424   3.632   2.605   0.845
 7487TIP3    H122425   3.589   2.537   0.794
 7487TIP3    H222426   3.703   2.559   0.891
 7488TIP3   OH222427   1.050   5.238   2.062
 7488TIP3    H122428   0.992   5.304   2.100
 7488TIP3    H222429   1.080   5.186   2.136
 7489TIP3   OH222430   6.542   3.255   5.138
 7489TIP3    H122431   6.541   3.278   5.231
 7489TIP3    H222432   6.629   3.215   5.125
 7490TIP3   OH222433   0.605   6.584   3.547
 7490TIP3    H122434   0.521   6.632   3.547
 7490TIP3    H222435   0.582   6.496   3.576
 7491TIP3   OH222436   2.479   4.303   5.338
 7491TIP3    H122437   2.421   4.343   5.402
 7491TIP3    H222438   2.453   4.343   5.254
 7492TIP3   OH222439   0.439   0.692   1.101
 7492TIP3    H122440   0.378   0.621   1.078
 7492TIP3    H222441   0.463   0.731   1.017
 7493TIP3   OH222442   4.268   0.901   3.221
 7493TIP3    H122443   4.347   0.855   3.251
 7493TIP3    H222444   4.213   0.831   3.185
 7494TIP3   OH222445   6.991   5.322   4.480
 7494TIP3    H122446   7.059   5.353   4.540
 7494TIP3    H222447   6.909   5.345   4.523
 7495TIP3   OH222448   1.965   0.289   1.579
 7495TIP3    H122449   2.008   0.364   1.619
 7495TIP3    H222450   2.004   0.282   1.492
 7496TIP3   OH222451   2.259   4.995   1.403
 7496TIP3    H122452   2.276   4.904   1.379
 7496TIP3    H222453   2.340   5.041   1.382
 7497TIP3   OH222454   1.668   4.849   4.529
 7497TIP3    H122455   1.688   4.875   4.439
 7497TIP3    H222456   1.684   4.755   4.531
 7498TIP3   OH222457   3.313   2.603   5.395
 7498TIP3    H122458   3.251   2.568   5.459
 7498TIP3    H222459   3.284   2.693   5.380
 7499TIP3   OH222460   3.428   1.871   4.123
 7499TIP3    H122461   3.454   1.961   4.146
 7499TIP3    H222462   3.337   1.880   4.093
 7500TIP3   OH222463   0.910   4.954   0.179
 7500TIP3    H122464   0.853   5.001   0.118
 7500TIP3    H222465   0.882   4.862   0.172
 7501TIP3   OH222466   5.338   2.948   3.562
 7501TIP3    H122467   5.299   2.887   3.500
 7501TIP3    H222468   5.424   2.968   3.524
 7502TIP3   OH222469   6.429   2.316   0.679
 7502TIP3    H122470   6.407   2.228   0.709
 7502TIP3    H222471   6.515   2.334   0.717
 7503TIP3   OH222472   0.374   3.732   1.234
 7503TIP3    H122473   0.421   3.799   1.184
 7503TIP3    H222474   0.428   3.654   1.226
 7504TIP3   OH222475   3.073   4.989   1.221
 7504TIP3    H122476   3.161   4.969   1.254
 7504TIP3    H222477   3.015   4.959   1.291
 7505TIP3   OH222478   2.593   6.760   4.107
 7505TIP3    H122479   2.506   6.790   4.131
 7505TIP3    H222480   2.597   6.670   4.140
 7506TIP3   OH222481   4.975   3.429   1.942
 7506TIP3    H122482   4.955   3.362   1.877
 7506TIP3    H222483   5.035   3.489   1.896
 7507TIP3   OH222484   5.612   4.694   5.560
 7507TIP3    H122485   5.521   4.718   5.541
 7507TIP3    H222486   5.606   4.635   5.635
 7508TIP3   OH222487   6.165   1.359   2.361
 7508TIP3    H122488   6.244   1.413   2.359
 7508TIP3    H222489   6.122   1.378   2.277
 7509TIP3   OH222490   2.314   3.987   4.625
 7509TIP3    H122491   2.278   3.913   4.674
 7509TIP3    H222492   2.355   3.947   4.548
 7510TIP3   OH222493   0.511   6.571   5.481
 7510TIP3    H122494   0.479   6.554   5.569
 7510TIP3    H222495   0.598   6.531   5.478
 7511TIP3   OH222496   7.044   3.251   2.797
 7511TIP3    H122497   7.072   3.216   2.713
 7511TIP3    H222498   7.097   3.330   2.810
 7512TIP3   OH222499   0.978   2.885   0.727
 7512TIP3    H122500   1.036   2.839   0.788
 7512TIP3    H222501   0.952   2.819   0.663
 7513TIP3   OH222502   1.064   2.522   4.393
 7513TIP3    H122503   0.973   2.547   4.384
 7513TIP3    H222504   1.091   2.557   4.478
 7514TIP3   OH222505   1.963   0.194   3.998
 7514TIP3    H122506   2.040   0.150   4.035
 7514TIP3    H222507   1.955   0.276   4.047
 7515TIP3   OH222508   7.001   2.135   4.045
 7515TIP3    H122509   7.065   2.105   3.981
 7515TIP3    H222510   7.041   2.213   4.084
 7516TIP3   OH222511   6.823   4.134   5.022
 7516TIP3    H122512   6.911   4.142   5.058
 7516TIP3    H222513   6.777   4.077   5.084
 7517TIP3   OH222514   4.841   4.112   5.806
 7517TIP3    H122515   4.878   4.025   5.796
 7517TIP3    H222516   4.910   4.162   5.851
 7518TIP3   OH222517   6.890   2.462   1.458
 7518TIP3    H122518   6.822   2.483   1.522
 7518TIP3    H222519   6.948   2.538   1.460
 7519TIP3   OH222520   7.015   1.492   4.549
 7519TIP3    H122521   6.977   1.458   4.630
 7519TIP3    H222522   7.110   1.484   4.561
 7520TIP3   OH222523   2.543   4.568   1.759
 7520TIP3    H122524   2.571   4.652   1.722
 7520TIP3    H222525   2.449   4.563   1.740
 7521TIP3   OH222526   2.873   5.565   1.796
 7521TIP3    H122527   2.809   5.621   1.752
 7521TIP3    H222528   2.956   5.585   1.753
 7522TIP3   OH222529   4.074   6.256   0.857
 7522TIP3    H122530   4.064   6.166   0.826
 7522TIP3    H222531   4.167   6.276   0.843
 7523TIP3   OH222532   1.762   3.052   1.605
 7523TIP3    H122533   1.697   3.008   1.660
 7523TIP3    H222534   1.717   3.130   1.572
 7524TIP3   OH222535   0.086   4.566   5.693
 7524TIP3    H122536   0.001   4.524   5.706
 7524TIP3    H222537   0.150   4.496   5.708
 7525TIP3   OH222538   3.945   6.159   2.410
 7525TIP3    H122539   3.884   6.232   2.403
 7525TIP3    H222540   3.945   6.135   2.502
 7526TIP3   OH222541   1.484   4.289   0.199
 7526TIP3    H122542   1.532   4.251   0.272
 7526TIP3    H222543   1.439   4.365   0.236
 7527TIP3   OH222544   2.866   3.653   0.917
 7527TIP3    H122545   2.917   3.576   0.942
 7527TIP3    H222546   2.882   3.716   0.988
 7528TIP3   OH222547   2.464   2.246   0.718
 7528TIP3    H122548   2.500   2.186   0.783
 7528TIP3    H222549   2.512   2.226   0.638
 7529TIP3   OH222550   6.213   4.980   2.090
 7529TIP3    H122551   6.262   4.946   2.015
 7529TIP3    H222552   6.218   4.910   2.155
 7530TIP3   OH222553   2.924   0.829   0.365
 7530TIP3    H122554   2.876   0.827   0.448
 7530TIP3    H222555   2.890   0.754   0.315
 7531TIP3   OH222556   1.219   1.300   4.856
 7531TIP3    H122557   1.242   1.313   4.764
 7531TIP3    H222558   1.299   1.267   4.896
 7532TIP3   OH222559   3.629   5.992   2.529
 7532TIP3    H122560   3.551   5.941   2.509
 7532TIP3    H222561   3.648   5.972   2.620
 7533TIP3   OH222562   3.494   1.087   3.174
 7533TIP3    H122563   3.453   1.037   3.244
 7533TIP3    H222564   3.538   1.021   3.120
 7534TIP3   OH222565   3.699   1.433   5.056
 7534TIP3    H122566   3.729   1.374   5.125
 7534TIP3    H222567   3.741   1.401   4.977
 7535TIP3   OH222568   1.573   2.316   4.881
 7535TIP3    H122569   1.654   2.294   4.927
 7535TIP3    H222570   1.520   2.361   4.947
 7536TIP3   OH222571   0.876   4.471   0.331
 7536TIP3    H122572   0.785   4.442   0.323
 7536TIP3    H222573   0.909   4.425   0.408
 7537TIP3   OH222574   2.207   0.201   5.604
 7537TIP3    H122575   2.161   0.201   5.520
 7537TIP3    H222576   2.259   0.120   5.602
 7538TIP3   OH222577   0.197   0.196   0.250
 7538TIP3    H122578   0.150   0.118   0.218
 7538TIP3    H222579   0.185   0.261   0.181
 7539TIP3   OH222580   6.105   4.678   1.511
 7539TIP3    H122581   6.036   4.744   1.513
 7539TIP3    H222582   6.136   4.678   1.421
 7540TIP3   OH222583   0.487   2.116   5.090
 7540TIP3    H122584   0.395   2.097   5.071
 7540TIP3    H222585   0.495   2.107   5.185
 7541TIP3   OH222586   5.019   6.634   1.701
 7541TIP3    H122587   5.073   6.656   1.777
 7541TIP3    H222588   5.010   6.539   1.705
 7542TIP3   OH222589   3.116   4.495   1.736
 7542TIP3    H122590   3.148   4.519   1.649
 7542TIP3    H222591   3.043   4.554   1.752
 7543TIP3   OH222592   1.443   4.442   1.558
 7543TIP3    H122593   1.490   4.469   1.637
 7543TIP3    H222594   1.351   4.443   1.583
 7544TIP3   OH222595   4.322   6.360   0.804
 7544TIP3    H122596   4.411   6.358   0.839
 7544TIP3    H222597   4.333   6.364   0.709
 7545TIP3   OH222598   3.287   4.618   4.775
 7545TIP3    H122599   3.305   4.528   4.746
 7545TIP3    H222600   3.346   4.631   4.849
 7546TIP3   OH222601   2.001   2.069   3.969
 7546TIP3    H122602   1.925   2.128   3.973
 7546TIP3    H222603   1.975   2.000   3.908
 7547TIP3   OH222604   6.231   3.868   5.039
 7547TIP3    H122605   6.163   3.802   5.047
 7547TIP3    H222606   6.232   3.889   4.945
 7548TIP3   OH222607   2.994   3.850   0.308
 7548TIP3    H122608   2.974   3.943   0.305
 7548TIP3    H222609   2.913   3.808   0.336
 7549TIP3   OH222610   6.362   3.804   2.266
 7549TIP3    H122611   6.276   3.768   2.290
 7549TIP3    H222612   6.420   3.728   2.267
 7550TIP3   OH222613   1.924   5.298   1.278
 7550TIP3    H122614   1.963   5.281   1.192
 7550TIP3    H222615   1.932   5.393   1.290
 7551TIP3   OH222616   0.447   2.893   3.429
 7551TIP3    H122617   0.364   2.920   3.389
 7551TIP3    H222618   0.514   2.941   3.381
 7552TIP3   OH222619   4.573   5.196   1.443
 7552TIP3    H122620   4.484   5.197   1.480
 7552TIP3    H222621   4.606   5.284   1.460
 7553TIP3   OH222622   2.487   0.129   5.857
 7553TIP3    H122623   2.487   0.217   5.820
 7553TIP3    H222624   2.566   0.125   5.911
 7554TIP3   OH222625   1.974   6.126   4.738
 7554TIP3    H122626   1.931   6.127   4.824
 7554TIP3    H222627   2.012   6.214   4.730
 7555TIP3   OH222628   6.286   5.308   3.318
 7555TIP3    H122629   6.219   5.344   3.375
 7555TIP3    H222630   6.364   5.301   3.373
 7556TIP3   OH222631   2.414   4.498   4.824
 7556TIP3    H122632   2.449   4.495   4.734
 7556TIP3    H222633   2.445   4.418   4.865
 7557TIP3   OH222634   5.443   0.850   0.225
 7557TIP3    H122635   5.475   0.921   0.170
 7557TIP3    H222636   5.429   0.891   0.311
 7558TIP3   OH222637   6.775   3.942   5.458
 7558TIP3    H122638   6.841   3.881   5.492
 7558TIP3    H222639   6.821   4.025   5.451
 7559TIP3   OH222640   3.180   5.261   4.813
 7559TIP3    H122641   3.148   5.338   4.766
 7559TIP3    H222642   3.269   5.284   4.839
 7560TIP3   OH222643   0.803   5.469   1.198
 7560TIP3    H122644   0.816   5.415   1.120
 7560TIP3    H222645   0.711   5.494   1.194
 7561TIP3   OH222646   4.017   5.701   0.445
 7561TIP3    H122647   3.968   5.708   0.527
 7561TIP3    H222648   4.094   5.757   0.458
 7562TIP3   OH222649   6.323   3.405   1.236
 7562TIP3    H122650   6.258   3.412   1.166
 7562TIP3    H222651   6.288   3.459   1.307
 7563TIP3   OH222652   1.428   4.857   5.494
 7563TIP3    H122653   1.522   4.845   5.476
 7563TIP3    H222654   1.416   4.816   5.580
 7564TIP3   OH222655   2.651   6.315   1.126
 7564TIP3    H122656   2.622   6.394   1.171
 7564TIP3    H222657   2.654   6.339   1.033
 7565TIP3   OH222658   6.348   6.432   5.801
 7565TIP3    H122659   6.391   6.372   5.740
 7565TIP3    H222660   6.403   6.430   5.879
 7566TIP3   OH222661   3.158   5.520   5.480
 7566TIP3    H122662   3.211   5.575   5.422
 7566TIP3    H222663   3.213   5.444   5.497
 7567TIP3   OH222664   5.267   5.549   0.808
 7567TIP3    H122665   5.287   5.555   0.714
 7567TIP3    H222666   5.351   5.533   0.850
 7568TIP3   OH222667   4.227   0.051   3.977
 7568TIP3    H122668   4.246   0.014   3.891
 7568TIP3    H222669   4.253   0.143   3.969
 7569TIP3   OH222670   2.466   2.422   4.221
 7569TIP3    H122671   2.532   2.487   4.245
 7569TIP3    H222672   2.492   2.392   4.134
 7570TIP3   OH222673   3.144   0.267   1.518
 7570TIP3    H122674   3.235   0.262   1.488
 7570TIP3    H222675   3.118   0.176   1.532
 7571TIP3   OH222676   5.963   6.054   4.054
 7571TIP3    H122677   6.007   6.034   4.137
 7571TIP3    H222678   5.873   6.075   4.079
 7572TIP3   OH222679   5.120   5.478   1.029
 7572TIP3    H122680   5.141   5.533   0.954
 7572TIP3    H222681   5.205   5.455   1.067
 7573TIP3   OH222682   5.092   4.737   1.513
 7573TIP3    H122683   5.109   4.796   1.587
 7573TIP3    H222684   5.025   4.676   1.545
 7574TIP3   OH222685   6.091   6.690   1.334
 7574TIP3    H122686   6.029   6.761   1.347
 7574TIP3    H222687   6.160   6.707   1.399
 7575TIP3   OH222688   4.747   0.782   1.133
 7575TIP3    H122689   4.841   0.799   1.136
 7575TIP3    H222690   4.724   0.788   1.040
 7576TIP3   OH222691   3.881   2.969   4.092
 7576TIP3    H122692   3.925   2.896   4.048
 7576TIP3    H222693   3.863   3.031   4.022
 7577TIP3   OH222694   3.392   4.690   5.735
 7577TIP3    H122695   3.462   4.742   5.696
 7577TIP3    H222696   3.429   4.657   5.817
 7578TIP3   OH222697   5.221   2.142   5.771
 7578TIP3    H122698   5.135   2.184   5.783
 7578TIP3    H222699   5.265   2.152   5.855
 7579TIP3   OH222700   2.669   0.603   0.475
 7579TIP3    H122701   2.672   0.590   0.381
 7579TIP3    H222702   2.618   0.529   0.508
 7580TIP3   OH222703   0.551   5.099   1.861
 7580TIP3    H122704   0.553   5.194   1.872
 7580TIP3    H222705   0.539   5.086   1.767
 7581TIP3   OH222706   7.029   4.646   5.903
 7581TIP3    H122707   7.124   4.637   5.904
 7581TIP3    H222708   6.998   4.572   5.850
 7582TIP3   OH222709   0.699   6.793   1.510
 7582TIP3    H122710   0.697   6.755   1.422
 7582TIP3    H222711   0.759   6.736   1.559
 7583TIP3   OH222712   4.745   4.038   2.257
 7583TIP3    H122713   4.806   4.072   2.322
 7583TIP3    H222714   4.678   3.991   2.308
 7584TIP3   OH222715   4.673   5.700   3.657
 7584TIP3    H122716   4.739   5.631   3.649
 7584TIP3    H222717   4.704   5.769   3.598
 7585TIP3   OH222718   4.250   3.819   2.814
 7585TIP3    H122719   4.342   3.822   2.786
 7585TIP3    H222720   4.200   3.818   2.732
 7586TIP3   OH222721   2.140   2.639   0.557
 7586TIP3    H122722   2.111   2.681   0.476
 7586TIP3    H222723   2.219   2.687   0.582
 7587TIP3   OH222724   3.581   4.114   0.875
 7587TIP3    H122725   3.506   4.167   0.848
 7587TIP3    H222726   3.549   4.063   0.950
 7588TIP3   OH222727   2.372   3.702   4.131
 7588TIP3    H122728   2.295   3.649   4.111
 7588TIP3    H222729   2.421   3.706   4.048
 7589TIP3   OH222730   3.216   1.211   0.176
 7589TIP3    H122731   3.139   1.184   0.125
 7589TIP3    H222732   3.207   1.165   0.259
 7590TIP3   OH222733   4.604   4.806   0.964
 7590TIP3    H122734   4.623   4.842   0.877
 7590TIP3    H222735   4.579   4.882   1.016
 7591TIP3   OH222736   4.086   4.803   1.820
 7591TIP3    H122737   4.020   4.864   1.855
 7591TIP3    H222738   4.169   4.851   1.827
 7592TIP3   OH222739   1.760   4.899   5.497
 7592TIP3    H122740   1.776   4.835   5.429
 7592TIP3    H222741   1.845   4.910   5.540
 7593TIP3   OH222742   3.947   3.479   4.767
 7593TIP3    H122743   3.957   3.545   4.699
 7593TIP3    H222744   4.025   3.425   4.759
 7594TIP3   OH222745   5.631   4.270   1.356
 7594TIP3    H122746   5.543   4.271   1.393
 7594TIP3    H222747   5.617   4.264   1.261
 7595TIP3   OH222748   6.563   4.887   2.621
 7595TIP3    H122749   6.565   4.978   2.650
 7595TIP3    H222750   6.480   4.853   2.657
 7596TIP3   OH222751   5.053   4.562   5.338
 7596TIP3    H122752   4.972   4.520   5.364
 7596TIP3    H222753   5.035   4.656   5.342
 7597TIP3   OH222754   4.296   3.133   3.630
 7597TIP3    H122755   4.367   3.190   3.661
 7597TIP3    H222756   4.259   3.096   3.710
 7598TIP3   OH222757   0.899   6.705   1.693
 7598TIP3    H122758   0.891   6.614   1.722
 7598TIP3    H222759   0.898   6.755   1.775
 7599TIP3   OH222760   6.607   2.732   3.870
 7599TIP3    H122761   6.672   2.700   3.932
 7599TIP3    H222762   6.621   2.680   3.791
 7600TIP3   OH222763   0.290   2.990   1.562
 7600TIP3    H122764   0.293   2.920   1.497
 7600TIP3    H222765   0.276   3.070   1.511
 7601TIP3   OH222766   5.991   6.222   4.905
 7601TIP3    H122767   5.975   6.186   4.993
 7601TIP3    H222768   5.964   6.152   4.846
 7602TIP3   OH222769   6.174   2.752   1.196
 7602TIP3    H122770   6.121   2.677   1.226
 7602TIP3    H222771   6.239   2.713   1.137
 7603TIP3   OH222772   0.426   1.533   2.757
 7603TIP3    H122773   0.494   1.520   2.690
 7603TIP3    H222774   0.440   1.462   2.819
 7604TIP3   OH222775   3.461   1.030   2.052
 7604TIP3    H122776   3.438   0.944   2.016
 7604TIP3    H222777   3.520   1.010   2.125
 7605TIP3   OH222778   0.987   2.161   4.825
 7605TIP3    H122779   0.973   2.129   4.736
 7605TIP3    H222780   0.992   2.256   4.816
 7606TIP3   OH222781   5.420   5.144   2.281
 7606TIP3    H122782   5.488   5.085   2.247
 7606TIP3    H222783   5.384   5.187   2.203
 7607TIP3   OH222784   4.834   5.870   2.586
 7607TIP3    H122785   4.767   5.869   2.518
 7607TIP3    H222786   4.816   5.949   2.637
 7608TIP3   OH222787   0.610   2.365   2.105
 7608TIP3    H122788   0.625   2.361   2.199
 7608TIP3    H222789   0.655   2.289   2.070
 7609TIP3   OH222790   2.570   5.553   1.154
 7609TIP3    H122791   2.601   5.524   1.069
 7609TIP3    H222792   2.587   5.648   1.154
 7610TIP3   OH222793   2.193   0.782   5.147
 7610TIP3    H122794   2.183   0.708   5.206
 7610TIP3    H222795   2.261   0.837   5.187
 7611TIP3   OH222796   5.615   0.458   2.272
 7611TIP3    H122797   5.658   0.373   2.265
 7611TIP3    H222798   5.545   0.444   2.335
 7612TIP3   OH222799   0.713   1.575   0.822
 7612TIP3    H122800   0.693   1.624   0.743
 7612TIP3    H222801   0.762   1.498   0.792
 7613TIP3   OH222802   5.882   4.022   1.640
 7613TIP3    H122803   5.854   4.108   1.607
 7613TIP3    H222804   5.971   4.036   1.673
 7614TIP3   OH222805   2.885   1.449   1.719
 7614TIP3    H122806   2.873   1.442   1.625
 7614TIP3    H222807   2.980   1.446   1.731
 7615TIP3   OH222808   2.346   6.024   3.897
 7615TIP3    H122809   2.318   6.097   3.952
 7615TIP3    H222810   2.294   5.950   3.928
 7616TIP3   OH222811   5.141   1.266   3.245
 7616TIP3    H122812   5.113   1.227   3.163
 7616TIP3    H222813   5.066   1.318   3.274
 7617TIP3   OH222814   1.813   5.600   5.142
 7617TIP3    H122815   1.860   5.543   5.204
 7617TIP3    H222816   1.724   5.606   5.177
 7618TIP3   OH222817   1.672   6.069   4.739
 7618TIP3    H122818   1.762   6.095   4.717
 7618TIP3    H222819   1.631   6.149   4.770
 7619TIP3   OH222820   0.651   2.228   5.509
 7619TIP3    H122821   0.738   2.255   5.481
 7619TIP3    H222822   0.667   2.166   5.580
 7620TIP3   OH222823   0.105   0.515   0.514
 7620TIP3    H122824   0.167   0.446   0.489
 7620TIP3    H222825   0.029   0.467   0.549
 7621TIP3   OH222826   2.758   4.903   2.693
 7621TIP3    H122827   2.810   4.881   2.770
 7621TIP3    H222828   2.815   4.881   2.619
 7622TIP3   OH222829   0.795   0.253   5.365
 7622TIP3    H122830   0.817   0.327   5.422
 7622TIP3    H222831   0.878   0.205   5.356
 7623TIP3   OH222832   1.079   2.434   0.431
 7623TIP3    H122833   1.172   2.428   0.452
 7623TIP3    H222834   1.036   2.385   0.501
 7624TIP3   OH222835   0.232   4.135   5.167
 7624TIP3    H122836   0.326   4.132   5.182
 7624TIP3    H222837   0.204   4.217   5.208
 7625TIP3   OH222838   4.090   4.005   4.663
 7625TIP3    H122839   4.118   4.068   4.597
 7625TIP3    H222840   4.168   3.990   4.716
 7626TIP3   OH222841   0.234   2.494   2.104
 7626TIP3    H122842   0.164   2.556   2.084
 7626TIP3    H222843   0.309   2.526   2.056
 7627TIP3   OH222844   6.599   1.259   3.154
 7627TIP3    H122845   6.538   1.259   3.080
 7627TIP3    H222846   6.652   1.337   3.141
 7628TIP3   OH222847   1.124   3.996   0.793
 7628TIP3    H122848   1.131   3.920   0.735
 7628TIP3    H222849   1.143   4.071   0.735
 7629TIP3   OH222850   6.952   5.669   0.753
 7629TIP3    H122851   6.947   5.676   0.657
 7629TIP3    H222852   6.997   5.749   0.780
 7630TIP3   OH222853   4.713   6.187   1.437
 7630TIP3    H122854   4.752   6.119   1.491
 7630TIP3    H222855   4.621   6.160   1.429
 7631TIP3   OH222856   6.858   1.533   2.086
 7631TIP3    H122857   6.833   1.443   2.110
 7631TIP3    H222858   6.831   1.586   2.161
 7632TIP3   OH222859   3.141   6.782   5.647
 7632TIP3    H122860   3.065   6.742   5.606
 7632TIP3    H222861   3.200   6.709   5.666
 7633TIP3   OH222862   5.279   2.888   4.164
 7633TIP3    H122863   5.371   2.912   4.156
 7633TIP3    H222864   5.253   2.861   4.075
 7634TIP3   OH222865   3.431   4.529   0.449
 7634TIP3    H122866   3.345   4.516   0.488
 7634TIP3    H222867   3.414   4.582   0.370
 7635TIP3   OH222868   0.642   4.102   3.415
 7635TIP3    H122869   0.571   4.166   3.420
 7635TIP3    H222870   0.638   4.069   3.325
 7636TIP3   OH222871   2.786   0.487   2.821
 7636TIP3    H122872   2.750   0.403   2.852
 7636TIP3    H222873   2.709   0.543   2.812
 7637TIP3   OH222874   5.330   4.899   3.628
 7637TIP3    H122875   5.394   4.934   3.690
 7637TIP3    H222876   5.367   4.918   3.542
 7638TIP3   OH222877   5.734   6.583   1.765
 7638TIP3    H122878   5.661   6.588   1.826
 7638TIP3    H222879   5.795   6.521   1.807
 7639TIP3   OH222880   2.221   1.813   3.020
 7639TIP3    H122881   2.176   1.761   3.086
 7639TIP3    H222882   2.229   1.755   2.945
 7640TIP3   OH222883   4.143   0.471   5.350
 7640TIP3    H122884   4.183   0.392   5.386
 7640TIP3    H222885   4.075   0.439   5.291
 7641TIP3   OH222886   3.597   4.559   3.536
 7641TIP3    H122887   3.618   4.648   3.563
 7641TIP3    H222888   3.511   4.566   3.494
 7642TIP3   OH222889   0.631   4.286   1.986
 7642TIP3    H122890   0.637   4.332   1.902
 7642TIP3    H222891   0.548   4.239   1.981
 7643TIP3   OH222892   0.642   5.105   5.899
 7643TIP3    H122893   0.689   5.158   5.835
 7643TIP3    H222894   0.654   5.015   5.870
 7644TIP3   OH222895   6.607   0.553   5.597
 7644TIP3    H122896   6.585   0.580   5.508
 7644TIP3    H222897   6.524   0.524   5.635
 7645TIP3   OH222898   1.042   3.189   1.423
 7645TIP3    H122899   1.011   3.181   1.513
 7645TIP3    H222900   1.100   3.265   1.425
 7646TIP3   OH222901   6.451   4.080   5.078
 7646TIP3    H122902   6.532   4.034   5.096
 7646TIP3    H222903   6.394   4.014   5.037
 7647TIP3   OH222904   4.191   5.465   3.531
 7647TIP3    H122905   4.255   5.536   3.525
 7647TIP3    H222906   4.170   5.461   3.625
 7648TIP3   OH222907   6.765   6.204   1.701
 7648TIP3    H122908   6.799   6.236   1.617
 7648TIP3    H222909   6.688   6.152   1.677
 7649TIP3   OH222910   2.071   3.733   1.347
 7649TIP3    H122911   2.011   3.669   1.387
 7649TIP3    H222912   2.062   3.719   1.253
 7650TIP3   OH222913   0.225   0.411   0.105
 7650TIP3    H122914   0.217   0.362   0.023
 7650TIP3    H222915   0.244   0.501   0.076
 7651TIP3   OH222916   3.915   4.501   5.273
 7651TIP3    H122917   3.945   4.453   5.350
 7651TIP3    H222918   3.995   4.526   5.227
 7652TIP3   OH222919   6.439   0.749   4.239
 7652TIP3    H122920   6.360   0.773   4.288
 7652TIP3    H222921   6.461   0.662   4.271
 7653TIP3   OH222922   3.806   4.264   5.660
 7653TIP3    H122923   3.900   4.247   5.666
 7653TIP3    H222924   3.765   4.194   5.711
 7654TIP3   OH222925   3.096   0.566   1.246
 7654TIP3    H122926   3.110   0.660   1.231
 7654TIP3    H222927   3.059   0.534   1.164
 7655TIP3   OH222928   7.016   3.559   1.625
 7655TIP3    H122929   7.062   3.505   1.690
 7655TIP3    H222930   7.084   3.584   1.563
 7656TIP3   OH222931   1.718   5.522   3.934
 7656TIP3    H122932   1.750   5.608   3.961
 7656TIP3    H222933   1.789   5.485   3.882
 7657TIP3   OH222934   5.142   4.271   3.745
 7657TIP3    H122935   5.087   4.327   3.800
 7657TIP3    H222936   5.230   4.310   3.753
 7658TIP3   OH222937   4.575   4.805   2.941
 7658TIP3    H122938   4.569   4.847   3.027
 7658TIP3    H222939   4.506   4.738   2.943
 7659TIP3   OH222940   3.708   6.261   1.081
 7659TIP3    H122941   3.677   6.281   1.169
 7659TIP3    H222942   3.803   6.271   1.085
 7660TIP3   OH222943   2.650   1.559   0.001
 7660TIP3    H122944   2.705   1.536  -0.074
 7660TIP3    H222945   2.571   1.506  -0.010
 7661TIP3   OH222946   6.684   6.175   2.377
 7661TIP3    H122947   6.768   6.202   2.341
 7661TIP3    H222948   6.702   6.153   2.468
 7662TIP3   OH222949   1.194   0.691   2.682
 7662TIP3    H122950   1.258   0.648   2.624
 7662TIP3    H222951   1.118   0.707   2.627
 7663TIP3   OH222952   6.906   0.593   1.866
 7663TIP3    H122953   6.889   0.639   1.783
 7663TIP3    H222954   6.836   0.528   1.872
 7664TIP3   OH222955   1.186   4.335   1.653
 7664TIP3    H122956   1.105   4.386   1.646
 7664TIP3    H222957   1.175   4.263   1.591
 7665TIP3   OH222958   3.822   1.848   4.207
 7665TIP3    H122959   3.756   1.806   4.262
 7665TIP3    H222960   3.861   1.915   4.263
 7666TIP3   OH222961   5.465   2.101   1.748
 7666TIP3    H122962   5.382   2.104   1.700
 7666TIP3    H222963   5.446   2.051   1.827
 7667TIP3   OH222964   4.681   3.046   2.688
 7667TIP3    H122965   4.633   2.964   2.699
 7667TIP3    H222966   4.629   3.095   2.625
 7668TIP3   OH222967   2.978   2.396   0.284
 7668TIP3    H122968   2.991   2.367   0.194
 7668TIP3    H222969   2.883   2.405   0.293
 7669TIP3   OH222970   6.908   1.858   4.789
 7669TIP3    H122971   6.876   1.808   4.864
 7669TIP3    H222972   6.847   1.931   4.781
 7670TIP3   OH222973   0.226   0.350   3.163
 7670TIP3    H122974   0.257   0.402   3.237
 7670TIP3    H222975   0.250   0.260   3.185
 7671TIP3   OH222976   4.437   6.704   0.778
 7671TIP3    H122977   4.523   6.665   0.763
 7671TIP3    H222978   4.397   6.708   0.691
 7672TIP3   OH222979   0.582   3.834   3.232
 7672TIP3    H122980   0.517   3.795   3.175
 7672TIP3    H222981   0.541   3.834   3.319
 7673TIP3   OH222982   1.609   1.776   4.970
 7673TIP3    H122983   1.617   1.831   4.892
 7673TIP3    H222984   1.698   1.771   5.005
 7674TIP3   OH222985   3.904   2.174   0.243
 7674TIP3    H122986   3.836   2.116   0.278
 7674TIP3    H222987   3.986   2.136   0.276
 7675TIP3   OH222988   5.562   5.253   4.797
 7675TIP3    H122989   5.534   5.189   4.732
 7675TIP3    H222990   5.481   5.295   4.826
 7676TIP3   OH222991   6.806   4.917   2.495
 7676TIP3    H122992   6.818   4.863   2.417
 7676TIP3    H222993   6.725   4.884   2.534
 7677TIP3   OH222994   0.013   2.025   4.360
 7677TIP3    H122995  -0.070   2.043   4.404
 7677TIP3    H222996   0.080   2.056   4.421
 7678TIP3   OH222997   5.276   2.535   4.258
 7678TIP3    H122998   5.279   2.598   4.330
 7678TIP3    H222999   5.212   2.469   4.286
 7679TIP3   OH223000   2.980   5.815   2.243
 7679TIP3    H123001   3.003   5.806   2.336
 7679TIP3    H223002   2.937   5.733   2.221
 7680TIP3   OH223003   4.524   4.190   5.459
 7680TIP3    H123004   4.617   4.186   5.481
 7680TIP3    H223005   4.483   4.232   5.535
 7681TIP3   OH223006   0.522   5.431   0.414
 7681TIP3    H123007   0.530   5.508   0.470
 7681TIP3    H223008   0.460   5.457   0.346
 7682TIP3   OH223009   1.548   1.660   0.212
 7682TIP3    H123010   1.596   1.736   0.243
 7682TIP3    H223011   1.468   1.658   0.265
 7683TIP3   OH223012   1.512   4.539   1.104
 7683TIP3    H123013   1.585   4.582   1.059
 7683TIP3    H223014   1.520   4.568   1.195
 7684TIP3   OH223015   6.276   4.116   2.324
 7684TIP3    H123016   6.366   4.100   2.352
 7684TIP3    H223017   6.282   4.132   2.230
 7685TIP3   OH223018   3.744   4.429   4.820
 7685TIP3    H123019   3.734   4.494   4.751
 7685TIP3    H223020   3.662   4.380   4.819
 7686TIP3   OH223021   2.742   4.174   1.934
 7686TIP3    H123022   2.720   4.221   1.853
 7686TIP3    H223023   2.837   4.178   1.939
 7687TIP3   OH223024   3.751   5.569   2.779
 7687TIP3    H123025   3.668   5.600   2.815
 7687TIP3    H223026   3.813   5.639   2.799
 7688TIP3   OH223027   0.682   1.375   2.919
 7688TIP3    H123028   0.589   1.375   2.941
 7688TIP3    H223029   0.722   1.436   2.982
 7689TIP3   OH223030   6.699   4.661   2.548
 7689TIP3    H123031   6.689   4.584   2.605
 7689TIP3    H223032   6.634   4.724   2.580
 7690TIP3   OH223033   0.065   6.124   0.618
 7690TIP3    H123034   0.094   6.043   0.577
 7690TIP3    H223035   0.144   6.178   0.622
 7691TIP3   OH223036   5.202   0.040   4.914
 7691TIP3    H123037   5.158   0.124   4.926
 7691TIP3    H223038   5.268   0.038   4.982
 7692TIP3   OH223039   6.249   3.343   5.039
 7692TIP3    H123040   6.309   3.387   4.979
 7692TIP3    H223041   6.305   3.314   5.111
 7693TIP3   OH223042   4.826   4.277   3.375
 7693TIP3    H123043   4.758   4.215   3.399
 7693TIP3    H223044   4.876   4.290   3.456
 7694TIP3   OH223045   3.146   6.416   0.873
 7694TIP3    H123046   3.231   6.371   0.872
 7694TIP3    H223047   3.169   6.509   0.870
 7695TIP3   OH223048   3.074   5.403   4.039
 7695TIP3    H123049   3.028   5.486   4.026
 7695TIP3    H223050   3.018   5.353   4.099
 7696TIP3   OH223051   2.569   5.230   3.127
 7696TIP3    H123052   2.535   5.312   3.161
 7696TIP3    H223053   2.645   5.255   3.075
 7697TIP3   OH223054   2.488   5.451   0.601
 7697TIP3    H123055   2.427   5.510   0.645
 7697TIP3    H223056   2.472   5.466   0.507
 7698TIP3   OH223057   3.488   3.557   0.499
 7698TIP3    H123058   3.410   3.610   0.519
 7698TIP3    H223059   3.554   3.589   0.560
 7699TIP3   OH223060   4.082   1.034   3.908
 7699TIP3    H123061   4.063   0.988   3.826
 7699TIP3    H223062   4.145   0.978   3.953
 7700TIP3   OH223063   4.711   1.143   1.516
 7700TIP3    H123064   4.726   1.236   1.495
 7700TIP3    H223065   4.756   1.096   1.446
 7701TIP3   OH223066   4.608   0.569   5.134
 7701TIP3    H123067   4.560   0.594   5.055
 7701TIP3    H223068   4.540   0.555   5.200
 7702TIP3   OH223069   7.052   1.741   0.732
 7702TIP3    H123070   7.130   1.779   0.772
 7702TIP3    H223071   7.080   1.655   0.701
 7703TIP3   OH223072   4.299   4.710   1.076
 7703TIP3    H123073   4.379   4.670   1.109
 7703TIP3    H223074   4.268   4.649   1.009
 7704TIP3   OH223075   4.011   5.488   0.281
 7704TIP3    H123076   4.102   5.458   0.274
 7704TIP3    H223077   4.017   5.578   0.311
 7705TIP3   OH223078   4.422   3.985   3.174
 7705TIP3    H123079   4.412   3.890   3.183
 7705TIP3    H223080   4.517   3.998   3.166
 7706TIP3   OH223081   1.848   2.141   0.356
 7706TIP3    H123082   1.931   2.170   0.393
 7706TIP3    H223083   1.792   2.123   0.432
 7707TIP3   OH223084   5.850   3.006   2.274
 7707TIP3    H123085   5.895   3.073   2.325
 7707TIP3    H223086   5.918   2.942   2.254
 7708TIP3   OH223087   0.599   2.950   4.976
 7708TIP3    H123088   0.552   2.925   4.896
 7708TIP3    H223089   0.619   2.867   5.019
 7709TIP3   OH223090   1.426   1.873   0.973
 7709TIP3    H123091   1.393   1.959   0.948
 7709TIP3    H223092   1.433   1.876   1.068
 7710TIP3   OH223093   1.171   0.291   0.804
 7710TIP3    H123094   1.193   0.376   0.843
 7710TIP3    H223095   1.145   0.237   0.878
 7711TIP3   OH223096   0.399   2.136   0.028
 7711TIP3    H123097   0.394   2.224  -0.009
 7711TIP3    H223098   0.445   2.084  -0.038
 7712TIP3   OH223099   3.494   0.264   0.351
 7712TIP3    H123100   3.406   0.244   0.382
 7712TIP3    H223101   3.488   0.354   0.319
 7713TIP3   OH223102   0.795   0.486   5.540
 7713TIP3    H123103   0.747   0.472   5.622
 7713TIP3    H223104   0.794   0.581   5.527
 7714TIP3   OH223105   0.814   5.108   1.687
 7714TIP3    H123106   0.753   5.116   1.760
 7714TIP3    H223107   0.900   5.104   1.729
 7715TIP3   OH223108   0.707   6.223   2.724
 7715TIP3    H123109   0.737   6.251   2.638
 7715TIP3    H223110   0.785   6.192   2.768
 7716TIP3   OH223111   0.904   3.375   5.192
 7716TIP3    H123112   0.839   3.315   5.229
 7716TIP3    H223113   0.887   3.374   5.098
 7717TIP3   OH223114   3.542   1.461   2.128
 7717TIP3    H123115   3.636   1.452   2.108
 7717TIP3    H223116   3.526   1.555   2.126
 7718TIP3   OH223117   3.243   2.386   4.000
 7718TIP3    H123118   3.245   2.471   3.956
 7718TIP3    H223119   3.298   2.398   4.077
 7719TIP3   OH223120   4.908   0.360   4.689
 7719TIP3    H123121   4.938   0.438   4.642
 7719TIP3    H223122   4.827   0.389   4.732
 7720TIP3   OH223123   5.066   5.763   3.396
 7720TIP3    H123124   5.123   5.687   3.408
 7720TIP3    H223125   5.026   5.776   3.482
 7721TIP3   OH223126   1.296   4.017   3.789
 7721TIP3    H123127   1.239   4.078   3.836
 7721TIP3    H223128   1.384   4.039   3.818
 7722TIP3   OH223129   3.117   3.340   4.391
 7722TIP3    H123130   3.097   3.407   4.325
 7722TIP3    H223131   3.032   3.314   4.425
 7723TIP3   OH223132   5.804   0.875   0.412
 7723TIP3    H123133   5.752   0.945   0.371
 7723TIP3    H223134   5.830   0.912   0.497
 7724TIP3   OH223135   4.201   2.688   5.680
 7724TIP3    H123136   4.197   2.684   5.775
 7724TIP3    H223137   4.225   2.778   5.660
 7725TIP3   OH223138   1.052   3.026   2.640
 7725TIP3    H123139   0.957   3.022   2.636
 7725TIP3    H223140   1.073   2.999   2.730
 7726TIP3   OH223141   2.013   2.601   1.951
 7726TIP3    H123142   1.979   2.572   2.036
 7726TIP3    H223143   2.103   2.628   1.969
 7727TIP3   OH223144   3.500   2.369   5.329
 7727TIP3    H123145   3.544   2.346   5.410
 7727TIP3    H223146   3.456   2.452   5.348
 7728TIP3   OH223147   0.417   4.184   4.382
 7728TIP3    H123148   0.335   4.232   4.376
 7728TIP3    H223149   0.465   4.208   4.303
 7729TIP3   OH223150   5.400   1.767   2.821
 7729TIP3    H123151   5.321   1.737   2.775
 7729TIP3    H223152   5.438   1.833   2.763
 7730TIP3   OH223153   4.787   1.313   0.781
 7730TIP3    H123154   4.784   1.297   0.687
 7730TIP3    H223155   4.702   1.353   0.801
 7731TIP3   OH223156   0.717   1.820   1.871
 7731TIP3    H123157   0.795   1.817   1.816
 7731TIP3    H223158   0.649   1.855   1.814
 7732TIP3   OH223159   4.068   0.744   5.368
 7732TIP3    H123160   4.098   0.653   5.359
 7732TIP3    H223161   3.994   0.739   5.429
 7733TIP3   OH223162   4.267   2.520   3.895
 7733TIP3    H123163   4.211   2.566   3.833
 7733TIP3    H223164   4.227   2.538   3.980
 7734TIP3   OH223165   1.742   0.302   1.395
 7734TIP3    H123166   1.779   0.385   1.363
 7734TIP3    H223167   1.789   0.285   1.477
 7735TIP3   OH223168   2.581   5.661   0.141
 7735TIP3    H123169   2.628   5.699   0.215
 7735TIP3    H223170   2.502   5.622   0.180
 7736TIP3   OH223171   5.387   6.613   5.692
 7736TIP3    H123172   5.402   6.681   5.626
 7736TIP3    H223173   5.444   6.541   5.665
 7737TIP3   OH223174   2.468   6.718   5.611
 7737TIP3    H123175   2.457   6.626   5.635
 7737TIP3    H223176   2.458   6.765   5.694
 7738TIP3   OH223177   0.946   1.857   5.129
 7738TIP3    H123178   0.945   1.806   5.210
 7738TIP3    H223179   0.854   1.866   5.105
 7739TIP3   OH223180   5.262   1.256   4.394
 7739TIP3    H123181   5.197   1.327   4.395
 7739TIP3    H223182   5.347   1.301   4.391
 7740TIP3   OH223183   0.801   5.686   0.638
 7740TIP3    H123184   0.826   5.674   0.730
 7740TIP3    H223185   0.793   5.781   0.628
 7741TIP3   OH223186   5.390   6.678   4.652
 7741TIP3    H123187   5.362   6.674   4.744
 7741TIP3    H223188   5.400   6.586   4.626
 7742TIP3   OH223189   2.161   4.608   2.564
 7742TIP3    H123190   2.190   4.671   2.630
 7742TIP3    H223191   2.157   4.659   2.483
 7743TIP3   OH223192   6.799   4.957   4.414
 7743TIP3    H123193   6.743   4.880   4.420
 7743TIP3    H223194   6.874   4.936   4.469
 7744TIP3   OH223195   2.169   6.738   3.087
 7744TIP3    H123196   2.140   6.649   3.068
 7744TIP3    H223197   2.261   6.729   3.112
 7745TIP3   OH223198   0.910   0.639   0.118
 7745TIP3    H123199   0.978   0.673   0.176
 7745TIP3    H223200   0.901   0.706   0.050
 7746TIP3   OH223201   3.894   3.543   3.456
 7746TIP3    H123202   3.817   3.595   3.480
 7746TIP3    H223203   3.885   3.530   3.361
 7747TIP3   OH223204   0.041   6.552   4.060
 7747TIP3    H123205  -0.032   6.491   4.054
 7747TIP3    H223206   0.076   6.539   4.148
 7748TIP3   OH223207   7.005   2.762   4.516
 7748TIP3    H123208   7.002   2.679   4.469
 7748TIP3    H223209   7.031   2.737   4.605
 7749TIP3   OH223210   1.449   4.062   0.457
 7749TIP3    H123211   1.532   4.109   0.464
 7749TIP3    H223212   1.382   4.130   0.459
 7750TIP3   OH223213   0.329   2.060   1.848
 7750TIP3    H123214   0.338   2.069   1.943
 7750TIP3    H223215   0.360   2.144   1.814
 7751TIP3   OH223216   3.144   2.778   1.632
 7751TIP3    H123217   3.075   2.825   1.586
 7751TIP3    H223218   3.119   2.781   1.724
 7752TIP3   OH223219   4.229   5.366   5.914
 7752TIP3    H123220   4.310   5.321   5.890
 7752TIP3    H223221   4.199   5.407   5.833
 7753TIP3   OH223222   5.624   4.733   3.865
 7753TIP3    H123223   5.672   4.693   3.792
 7753TIP3    H223224   5.603   4.821   3.835
 7754TIP3   OH223225   4.020   4.858   3.545
 7754TIP3    H123226   4.035   4.768   3.518
 7754TIP3    H223227   4.029   4.909   3.465
 7755TIP3   OH223228   3.575   6.784   0.760
 7755TIP3    H123229   3.614   6.866   0.790
 7755TIP3    H223230   3.646   6.720   0.765
 7756TIP3   OH223231   5.744   1.168   0.866
 7756TIP3    H123232   5.703   1.087   0.897
 7756TIP3    H223233   5.671   1.230   0.857
 7757TIP3   OH223234   6.322   4.529   1.950
 7757TIP3    H123235   6.325   4.504   2.042
 7757TIP3    H223236   6.287   4.452   1.905
 7758TIP3   OH223237   7.149   1.515   0.612
 7758TIP3    H123238   7.202   1.473   0.680
 7758TIP3    H223239   7.095   1.444   0.577
 7759TIP3   OH223240   2.825   0.475   2.033
 7759TIP3    H123241   2.854   0.390   1.999
 7759TIP3    H223242   2.791   0.521   1.956
 7760TIP3   OH223243   5.209   1.725   2.355
 7760TIP3    H123244   5.279   1.740   2.419
 7760TIP3    H223245   5.250   1.674   2.285
 7761TIP3   OH223246   4.185   3.871   2.545
 7761TIP3    H123247   4.215   3.962   2.544
 7761TIP3    H223248   4.225   3.832   2.468
 7762TIP3   OH223249   6.836   6.665   4.797
 7762TIP3    H123250   6.902   6.717   4.844
 7762TIP3    H223251   6.866   6.575   4.806
 7763TIP3   OH223252   2.842   4.857   2.945
 7763TIP3    H123253   2.908   4.897   3.002
 7763TIP3    H223254   2.760   4.864   2.994
 7764TIP3   OH223255   3.818   4.199   3.143
 7764TIP3    H123256   3.821   4.242   3.229
 7764TIP3    H223257   3.746   4.242   3.097
 7765TIP3   OH223258   0.612   2.787   2.217
 7765TIP3    H123259   0.524   2.768   2.249
 7765TIP3    H223260   0.637   2.868   2.264
 7766TIP3   OH223261   5.419   6.383   4.869
 7766TIP3    H123262   5.444   6.341   4.786
 7766TIP3    H223263   5.500   6.422   4.901
 7767TIP3   OH223264   4.139   1.333   1.162
 7767TIP3    H123265   4.085   1.412   1.161
 7767TIP3    H223266   4.095   1.274   1.100
 7768TIP3   OH223267   6.745   2.483   5.087
 7768TIP3    H123268   6.813   2.549   5.072
 7768TIP3    H223269   6.793   2.404   5.113
 7769TIP3   OH223270   0.109   1.795   2.054
 7769TIP3    H123271   0.026   1.816   2.011
 7769TIP3    H223272   0.091   1.806   2.148
 7770TIP3   OH223273   1.156   4.913   1.748
 7770TIP3    H123274   1.070   4.928   1.710
 7770TIP3    H223275   1.208   4.874   1.678
 7771TIP3   OH223276   0.888   3.189   1.657
 7771TIP3    H123277   0.805   3.145   1.671
 7771TIP3    H223278   0.940   3.166   1.734
 7772TIP3   OH223279   1.677   5.202   1.122
 7772TIP3    H123280   1.727   5.255   1.184
 7772TIP3    H223281   1.744   5.149   1.077
 7773TIP3   OH223282   4.340   0.381   4.830
 7773TIP3    H123283   4.373   0.454   4.777
 7773TIP3    H223284   4.386   0.388   4.913
 7774TIP3   OH223285   5.915   6.173   4.331
 7774TIP3    H123286   5.831   6.192   4.374
 7774TIP3    H223287   5.916   6.232   4.255
 7775TIP3   OH223288   6.103   1.206   5.090
 7775TIP3    H123289   6.052   1.287   5.082
 7775TIP3    H223290   6.176   1.230   5.148
 7776TIP3   OH223291   2.808   0.650   0.216
 7776TIP3    H123292   2.826   0.691   0.131
 7776TIP3    H223293   2.777   0.563   0.195
 7777TIP3   OH223294   1.684   1.442   3.274
 7777TIP3    H123295   1.618   1.414   3.338
 7777TIP3    H223296   1.654   1.407   3.191
 7778TIP3   OH223297   2.937   6.408   2.138
 7778TIP3    H123298   2.972   6.395   2.226
 7778TIP3    H223299   2.949   6.323   2.095
 7779TIP3   OH223300   3.428   2.863   3.666
 7779TIP3    H123301   3.359   2.926   3.683
 7779TIP3    H223302   3.391   2.802   3.602
 7780TIP3   OH223303   1.063   4.606   2.832
 7780TIP3    H123304   1.098   4.688   2.867
 7780TIP3    H223305   1.098   4.602   2.743
 7781TIP3   OH223306   1.077   6.122   4.447
 7781TIP3    H123307   1.135   6.177   4.393
 7781TIP3    H223308   1.052   6.179   4.520
 7782TIP3   OH223309   1.315   5.045   4.918
 7782TIP3    H123310   1.365   5.029   4.838
 7782TIP3    H223311   1.226   5.017   4.896
 7783TIP3   OH223312   5.767   0.241   2.229
 7783TIP3    H123313   5.832   0.254   2.298
 7783TIP3    H223314   5.813   0.192   2.161
 7784TIP3   OH223315   6.014   0.726   0.319
 7784TIP3    H123316   5.999   0.645   0.369
 7784TIP3    H223317   5.940   0.782   0.341
 7785TIP3   OH223318   2.514   6.428   5.233
 7785TIP3    H123319   2.590   6.486   5.234
 7785TIP3    H223320   2.447   6.477   5.184
 7786TIP3   OH223321   2.105   3.678   2.951
 7786TIP3    H123322   2.154   3.746   2.905
 7786TIP3    H223323   2.137   3.596   2.914
 7787TIP3   OH223324   5.204   6.482   3.069
 7787TIP3    H123325   5.272   6.447   3.127
 7787TIP3    H223326   5.253   6.523   2.998
 7788TIP3   OH223327   3.296   4.435   2.338
 7788TIP3    H123328   3.369   4.495   2.323
 7788TIP3    H223329   3.219   4.491   2.339
 7789TIP3   OH223330   5.142   3.057   1.274
 7789TIP3    H123331   5.075   3.057   1.206
 7789TIP3    H223332   5.125   2.977   1.323
 7790TIP3   OH223333   3.080   5.010   0.645
 7790TIP3    H123334   3.065   4.985   0.736
 7790TIP3    H223335   3.087   5.106   0.647
 7791TIP3   OH223336   0.155   2.456   4.150
 7791TIP3    H123337   0.162   2.549   4.128
 7791TIP3    H223338   0.233   2.416   4.112
 7792TIP3   OH223339   3.241   5.512   3.137
 7792TIP3    H123340   3.194   5.454   3.077
 7792TIP3    H223341   3.332   5.484   3.131
 7793TIP3   OH223342   1.785   5.157   0.625
 7793TIP3    H123343   1.878   5.148   0.607
 7793TIP3    H223344   1.773   5.250   0.645
 7794TIP3   OH223345   7.194   5.742   4.766
 7794TIP3    H123346   7.165   5.754   4.676
 7794TIP3    H223347   7.131   5.792   4.818
 7795TIP3   OH223348   4.944   3.810   0.397
 7795TIP3    H123349   4.997   3.827   0.319
 7795TIP3    H223350   4.951   3.715   0.411
 7796TIP3   OH223351   0.309   0.345   0.813
 7796TIP3    H123352   0.322   0.339   0.908
 7796TIP3    H223353   0.390   0.383   0.779
 7797TIP3   OH223354   5.496   1.706   0.682
 7797TIP3    H123355   5.484   1.794   0.647
 7797TIP3    H223356   5.590   1.701   0.702
 7798TIP3   OH223357   4.475   1.708   0.295
 7798TIP3    H123358   4.530   1.748   0.227
 7798TIP3    H223359   4.501   1.752   0.376
 7799TIP3   OH223360   5.349   1.741   4.110
 7799TIP3    H123361   5.255   1.739   4.095
 7799TIP3    H223362   5.386   1.684   4.043
 7800TIP3   OH223363   5.228   3.683   4.218
 7800TIP3    H123364   5.236   3.754   4.153
 7800TIP3    H223365   5.317   3.648   4.226
 7801TIP3   OH223366   0.132   2.704   0.453
 7801TIP3    H123367   0.086   2.623   0.433
 7801TIP3    H223368   0.081   2.772   0.409
 7802TIP3   OH223369   6.231   6.079   4.843
 7802TIP3    H123370   6.285   6.135   4.788
 7802TIP3    H223371   6.147   6.125   4.849
 7803TIP3   OH223372   2.766   3.795   5.526
 7803TIP3    H123373   2.749   3.887   5.546
 7803TIP3    H223374   2.771   3.792   5.431
 7804TIP3   OH223375   1.489   6.437   1.288
 7804TIP3    H123376   1.504   6.472   1.200
 7804TIP3    H223377   1.424   6.368   1.276
 7805TIP3   OH223378   5.999   5.406   2.152
 7805TIP3    H123379   6.014   5.376   2.241
 7805TIP3    H223380   5.965   5.329   2.106
 7806TIP3   OH223381   2.327   5.447   2.361
 7806TIP3    H123382   2.281   5.404   2.288
 7806TIP3    H223383   2.361   5.374   2.414
 7807TIP3   OH223384   3.956   3.007   5.405
 7807TIP3    H123385   4.015   3.064   5.455
 7807TIP3    H223386   3.905   2.962   5.472
 7808TIP3   OH223387   1.571   1.275   0.876
 7808TIP3    H123388   1.538   1.261   0.964
 7808TIP3    H223389   1.530   1.356   0.847
 7809TIP3   OH223390   1.867   3.564   1.415
 7809TIP3    H123391   1.844   3.521   1.497
 7809TIP3    H223392   1.813   3.521   1.349
 7810TIP3   OH223393   2.455   0.375   1.091
 7810TIP3    H123394   2.471   0.359   0.998
 7810TIP3    H223395   2.507   0.309   1.136
 7811TIP3   OH223396   5.654   4.357   3.663
 7811TIP3    H123397   5.601   4.414   3.609
 7811TIP3    H223398   5.600   4.338   3.740
 7812TIP3   OH223399   4.116   0.517   1.801
 7812TIP3    H123400   4.130   0.449   1.867
 7812TIP3    H223401   4.129   0.472   1.717
 7813TIP3   OH223402   4.912   2.388   2.526
 7813TIP3    H123403   4.825   2.411   2.492
 7813TIP3    H223404   4.969   2.393   2.449
 7814TIP3   OH223405   5.428   3.211   2.055
 7814TIP3    H123406   5.364   3.261   2.106
 7814TIP3    H223407   5.445   3.133   2.108
 7815TIP3   OH223408   1.341   0.931   2.379
 7815TIP3    H123409   1.345   0.896   2.290
 7815TIP3    H223410   1.380   0.862   2.434
 7816TIP3   OH223411   1.633   4.007   0.685
 7816TIP3    H123412   1.637   4.074   0.753
 7816TIP3    H223413   1.544   4.010   0.652
 7817TIP3   OH223414   5.591   5.586   2.738
 7817TIP3    H123415   5.549   5.517   2.790
 7817TIP3    H223416   5.633   5.539   2.666
 7818TIP3   OH223417   1.780   1.922   5.854
 7818TIP3    H123418   1.757   1.935   5.762
 7818TIP3    H223419   1.697   1.901   5.897
 7819TIP3   OH223420   1.224   3.395   2.067
 7819TIP3    H123421   1.245   3.426   1.979
 7819TIP3    H223422   1.221   3.299   2.059
 7820TIP3   OH223423   6.539   6.135   3.496
 7820TIP3    H123424   6.612   6.190   3.526
 7820TIP3    H223425   6.461   6.181   3.526
 7821TIP3   OH223426   0.479   4.878   4.522
 7821TIP3    H123427   0.556   4.922   4.558
 7821TIP3    H223428   0.471   4.798   4.573
 7822TIP3   OH223429   0.148   2.186   2.355
 7822TIP3    H123430   0.063   2.208   2.317
 7822TIP3    H223431   0.128   2.160   2.445
 7823TIP3   OH223432   3.066   3.305   4.767
 7823TIP3    H123433   3.054   3.210   4.762
 7823TIP3    H223434   3.001   3.341   4.706
 7824TIP3   OH223435   2.247   1.064   3.997
 7824TIP3    H123436   2.333   1.041   4.031
 7824TIP3    H223437   2.195   1.084   4.075
 7825TIP3   OH223438   0.792   5.033   0.451
 7825TIP3    H123439   0.887   5.048   0.450
 7825TIP3    H223440   0.780   4.953   0.399
 7826TIP3   OH223441   6.673   1.335  -0.007
 7826TIP3    H123442   6.603   1.400  -0.014
 7826TIP3    H223443   6.700   1.338   0.085
 7827TIP3   OH223444   2.611   1.047   2.096
 7827TIP3    H123445   2.636   0.959   2.124
 7827TIP3    H223446   2.694   1.093   2.085
 7828TIP3   OH223447   3.202   5.372   0.917
 7828TIP3    H123448   3.115   5.407   0.897
 7828TIP3    H223449   3.261   5.445   0.900
 7829TIP3   OH223450   2.128   2.080   2.969
 7829TIP3    H123451   2.163   1.992   2.985
 7829TIP3    H223452   2.165   2.106   2.885
 7830TIP3   OH223453   2.662   4.862   5.677
 7830TIP3    H123454   2.722   4.928   5.645
 7830TIP3    H223455   2.636   4.893   5.764
 7831TIP3   OH223456   6.619   3.290   1.415
 7831TIP3    H123457   6.696   3.333   1.453
 7831TIP3    H223458   6.550   3.304   1.480
 7832TIP3   OH223459   5.019   1.994   3.391
 7832TIP3    H123460   5.092   1.946   3.351
 7832TIP3    H223461   5.061   2.055   3.452
 7833TIP3   OH223462   5.859   4.606   3.285
 7833TIP3    H123463   5.876   4.674   3.351
 7833TIP3    H223464   5.927   4.540   3.301
 7834TIP3   OH223465   4.512   1.721   0.595
 7834TIP3    H123466   4.589   1.693   0.546
 7834TIP3    H223467   4.546   1.755   0.677
 7835TIP3   OH223468   0.812   2.980   2.750
 7835TIP3    H123469   0.798   2.910   2.687
 7835TIP3    H223470   0.778   2.944   2.833
 7836TIP3   OH223471   2.195  -0.006   3.177
 7836TIP3    H123472   2.279   0.004   3.133
 7836TIP3    H223473   2.163   0.083   3.188
 7837TIP3   OH223474   0.464   0.213   0.563
 7837TIP3    H123475   0.427   0.299   0.585
 7837TIP3    H223476   0.504   0.183   0.645
 7838TIP3   OH223477   6.085   0.699   4.690
 7838TIP3    H123478   6.137   0.779   4.688
 7838TIP3    H223479   6.029   0.710   4.767
 7839TIP3   OH223480   0.867   6.479   1.383
 7839TIP3    H123481   0.820   6.545   1.331
 7839TIP3    H223482   0.957   6.510   1.385
 7840TIP3   OH223483   2.339   0.028   4.477
 7840TIP3    H123484   2.276   0.081   4.429
 7840TIP3    H223485   2.420   0.035   4.427
 7841TIP3   OH223486   3.257   4.478   1.983
 7841TIP3    H123487   3.240   4.498   1.891
 7841TIP3    H223488   3.174   4.495   2.027
 7842TIP3   OH223489   0.036   2.030   1.799
 7842TIP3    H123490   0.124   2.043   1.835
 7842TIP3    H223491   0.045   1.952   1.743
 7843TIP3   OH223492   4.237   1.138   3.078
 7843TIP3    H123493   4.265   1.064   3.132
 7843TIP3    H223494   4.310   1.200   3.083
 7844TIP3   OH223495   1.556   1.917   1.630
 7844TIP3    H123496   1.586   1.993   1.681
 7844TIP3    H223497   1.600   1.843   1.671
 7845TIP3   OH223498   5.931   5.979   1.355
 7845TIP3    H123499   5.893   5.898   1.389
 7845TIP3    H223500   5.944   6.033   1.433
 7846TIP3   OH223501   2.752   5.125   0.055
 7846TIP3    H123502   2.724   5.212   0.084
 7846TIP3    H223503   2.692   5.065   0.100
 7847TIP3   OH223504   0.138   0.988   4.475
 7847TIP3    H123505   0.091   1.071   4.473
 7847TIP3    H223506   0.210   1.002   4.537
 7848TIP3   OH223507   3.044   5.281   0.608
 7848TIP3    H123508   3.120   5.337   0.590
 7848TIP3    H223509   3.000   5.323   0.682
 7849TIP3   OH223510   6.394   2.751   2.215
 7849TIP3    H123511   6.432   2.784   2.296
 7849TIP3    H223512   6.299   2.754   2.230
 7850TIP3   OH223513   2.890   5.390   4.848
 7850TIP3    H123514   2.828   5.460   4.868
 7850TIP3    H223515   2.849   5.310   4.881
 7851TIP3   OH223516   5.563   6.607   2.586
 7851TIP3    H123517   5.583   6.633   2.496
 7851TIP3    H223518   5.607   6.673   2.640
 7852TIP3   OH223519   0.092   0.478   2.949
 7852TIP3    H123520   0.146   0.433   3.014
 7852TIP3    H223521   0.109   0.430   2.868
 7853TIP3   OH223522   5.458   5.397   2.877
 7853TIP3    H123523   5.363   5.389   2.887
 7853TIP3    H223524   5.482   5.326   2.816
 7854TIP3   OH223525   2.379   3.001   0.848
 7854TIP3    H123526   2.467   2.965   0.863
 7854TIP3    H223527   2.393   3.070   0.784
 7855TIP3   OH223528   5.545  -0.007   4.187
 7855TIP3    H123529   5.521  -0.052   4.268
 7855TIP3    H223530   5.621   0.046   4.211
 7856TIP3   OH223531   1.386   5.093   3.355
 7856TIP3    H123532   1.464   5.055   3.396
 7856TIP3    H223533   1.403   5.187   3.356
 7857TIP3   OH223534   1.396   3.218   5.517
 7857TIP3    H123535   1.471   3.250   5.567
 7857TIP3    H223536   1.385   3.281   5.447
 7858TIP3   OH223537   3.198   3.852   4.149
 7858TIP3    H123538   3.237   3.765   4.153
 7858TIP3    H223539   3.156   3.856   4.063
 7859TIP3   OH223540   6.544   3.315   0.258
 7859TIP3    H123541   6.468   3.306   0.316
 7859TIP3    H223542   6.558   3.410   0.253
 7860TIP3   OH223543   2.643   2.563   1.558
 7860TIP3    H123544   2.590   2.591   1.632
 7860TIP3    H223545   2.625   2.469   1.550
 7861TIP3   OH223546   2.882   3.170   0.491
 7861TIP3    H123547   2.858   3.194   0.401
 7861TIP3    H223548   2.877   3.075   0.493
 7862TIP3   OH223549   2.971   2.604   5.650
 7862TIP3    H123550   3.053   2.558   5.630
 7862TIP3    H223551   2.929   2.550   5.716
 7863TIP3   OH223552   7.013   3.843   5.093
 7863TIP3    H123553   6.949   3.781   5.058
 7863TIP3    H223554   6.994   3.848   5.187
 7864TIP3   OH223555   2.921   4.942   1.466
 7864TIP3    H123556   2.903   5.022   1.514
 7864TIP3    H223557   2.836   4.917   1.427
 7865TIP3   OH223558   5.194   4.548   2.468
 7865TIP3    H123559   5.278   4.527   2.428
 7865TIP3    H223560   5.130   4.540   2.397
 7866TIP3   OH223561   1.529   4.196   0.835
 7866TIP3    H123562   1.442   4.207   0.797
 7866TIP3    H223563   1.518   4.217   0.928
 7867TIP3   OH223564   5.708   2.637   1.642
 7867TIP3    H123565   5.671   2.619   1.729
 7867TIP3    H223566   5.753   2.721   1.652
 7868TIP3   OH223567   6.934   6.113   5.631
 7868TIP3    H123568   6.929   6.204   5.601
 7868TIP3    H223569   7.026   6.101   5.655
 7869TIP3   OH223570   6.645   2.749   5.400
 7869TIP3    H123571   6.735   2.728   5.373
 7869TIP3    H223572   6.646   2.844   5.411
 7870TIP3   OH223573   0.344   1.447   1.227
 7870TIP3    H123574   0.386   1.497   1.298
 7870TIP3    H223575   0.417   1.401   1.185
 7871TIP3   OH223576   4.965   0.837   2.023
 7871TIP3    H123577   4.899   0.898   1.989
 7871TIP3    H223578   4.961   0.762   1.963
 7872TIP3   OH223579   6.028   4.008   2.435
 7872TIP3    H123580   6.122   4.021   2.422
 7872TIP3    H223581   5.987   4.066   2.371
 7873TIP3   OH223582   2.411   5.515   3.415
 7873TIP3    H123583   2.450   5.541   3.331
 7873TIP3    H223584   2.411   5.419   3.411
 7874TIP3   OH223585   3.020   0.210   5.676
 7874TIP3    H123586   3.033   0.302   5.698
 7874TIP3    H223587   3.036   0.205   5.582
 7875TIP3   OH223588   5.052   1.863   0.928
 7875TIP3    H123589   5.009   1.844   1.012
 7875TIP3    H223590   5.133   1.813   0.931
 7876TIP3   OH223591   0.385   1.831   2.789
 7876TIP3    H123592   0.409   1.881   2.711
 7876TIP3    H223593   0.421   1.744   2.774
 7877TIP3   OH223594   2.966   1.849   3.322
 7877TIP3    H123595   3.040   1.794   3.347
 7877TIP3    H223596   2.890   1.791   3.328
 7878TIP3   OH223597   4.401   4.745   0.725
 7878TIP3    H123598   4.346   4.824   0.730
 7878TIP3    H223599   4.469   4.759   0.791
 7879TIP3   OH223600   0.439   5.868   0.470
 7879TIP3    H123601   0.473   5.940   0.523
 7879TIP3    H223602   0.481   5.790   0.505
 7880TIP3   OH223603   1.365   1.862   4.341
 7880TIP3    H123604   1.297   1.906   4.392
 7880TIP3    H223605   1.445   1.873   4.393
 7881TIP3   OH223606   0.384   1.875   1.432
 7881TIP3    H123607   0.295   1.909   1.442
 7881TIP3    H223608   0.421   1.877   1.520
 7882TIP3   OH223609   6.253   2.002   4.651
 7882TIP3    H123610   6.258   1.909   4.671
 7882TIP3    H223611   6.182   2.008   4.586
 7883TIP3   OH223612   3.219   5.286   5.152
 7883TIP3    H123613   3.259   5.220   5.095
 7883TIP3    H223614   3.125   5.270   5.144
 7884TIP3   OH223615   3.730   2.210   3.949
 7884TIP3    H123616   3.808   2.165   3.981
 7884TIP3    H223617   3.670   2.139   3.927
 7885TIP3   OH223618   4.801   1.820   1.580
 7885TIP3    H123619   4.802   1.873   1.659
 7885TIP3    H223620   4.821   1.882   1.510
 7886TIP3   OH223621   5.938   6.451   1.870
 7886TIP3    H123622   5.983   6.532   1.843
 7886TIP3    H223623   6.002   6.382   1.855
 7887TIP3   OH223624   5.178   4.620   1.860
 7887TIP3    H123625   5.142   4.533   1.843
 7887TIP3    H223626   5.269   4.615   1.832
 7888TIP3   OH223627   2.961   5.413   5.333
 7888TIP3    H123628   3.033   5.455   5.380
 7888TIP3    H223629   2.890   5.477   5.337
 7889TIP3   OH223630   1.610   2.634   2.591
 7889TIP3    H123631   1.610   2.698   2.662
 7889TIP3    H223632   1.678   2.572   2.616
 7890TIP3   OH223633   3.315   3.863   4.569
 7890TIP3    H123634   3.256   3.914   4.513
 7890TIP3    H223635   3.315   3.776   4.531
 7891TIP3   OH223636   2.958   4.131   5.031
 7891TIP3    H123637   2.997   4.061   4.979
 7891TIP3    H223638   3.033   4.172   5.074
 7892TIP3   OH223639   6.094   1.695   1.884
 7892TIP3    H123640   6.037   1.707   1.960
 7892TIP3    H223641   6.172   1.747   1.903
 7893TIP3   OH223642   6.026   5.295   2.746
 7893TIP3    H123643   6.062   5.311   2.833
 7893TIP3    H223644   5.933   5.318   2.754
 7894TIP3   OH223645   4.014   4.868   2.194
 7894TIP3    H123646   4.103   4.865   2.230
 7894TIP3    H223647   4.000   4.781   2.158
 7895TIP3   OH223648   5.530   3.968   3.374
 7895TIP3    H123649   5.594   3.991   3.307
 7895TIP3    H223650   5.564   3.888   3.414
 7896TIP3   OH223651   1.110   2.065   5.555
 7896TIP3    H123652   1.120   2.054   5.461
 7896TIP3    H223653   1.061   1.988   5.583
 7897TIP3   OH223654   4.319   4.107   2.484
 7897TIP3    H123655   4.250   4.171   2.469
 7897TIP3    H223656   4.369   4.105   2.402
 7898TIP3   OH223657   4.875   5.515   3.668
 7898TIP3    H123658   4.971   5.510   3.666
 7898TIP3    H223659   4.848   5.448   3.731
 7899TIP3   OH223660   0.773   4.363   4.778
 7899TIP3    H123661   0.685   4.329   4.766
 7899TIP3    H223662   0.790   4.354   4.871
 7900TIP3   OH223663   5.212   2.807   0.250
 7900TIP3    H123664   5.198   2.838   0.161
 7900TIP3    H223665   5.261   2.878   0.293
 7901TIP3   OH223666   0.855   5.689   0.920
 7901TIP3    H123667   0.793   5.721   0.986
 7901TIP3    H223668   0.922   5.644   0.971
 7902TIP3   OH223669   3.603   0.614   4.277
 7902TIP3    H123670   3.650   0.679   4.329
 7902TIP3    H223671   3.514   0.647   4.272
 7903TIP3   OH223672   0.058   4.370   5.216
 7903TIP3    H123673  -0.001   4.431   5.258
 7903TIP3    H223674   0.094   4.419   5.141
 7904TIP3   OH223675   3.298   1.776   1.852
 7904TIP3    H123676   3.253   1.726   1.784
 7904TIP3    H223677   3.294   1.720   1.929
 7905TIP3   OH223678   1.570   0.423   2.299
 7905TIP3    H123679   1.581   0.348   2.240
 7905TIP3    H223680   1.503   0.477   2.257
 7906TIP3   OH223681   5.883   3.148   4.641
 7906TIP3    H123682   5.857   3.067   4.684
 7906TIP3    H223683   5.957   3.180   4.692
 7907TIP3   OH223684   3.941   0.279   2.774
 7907TIP3    H123685   4.035   0.296   2.782
 7907TIP3    H223686   3.918   0.232   2.854
 7908TIP3   OH223687   6.807   5.144   0.653
 7908TIP3    H123688   6.858   5.066   0.630
 7908TIP3    H223689   6.777   5.178   0.568
 7909TIP3   OH223690   4.260   3.486   5.146
 7909TIP3    H123691   4.167   3.501   5.127
 7909TIP3    H223692   4.291   3.432   5.074
 7910TIP3   OH223693   6.433   1.086   5.550
 7910TIP3    H123694   6.497   1.050   5.488
 7910TIP3    H223695   6.486   1.111   5.626
 7911TIP3   OH223696   4.600   4.521   0.701
 7911TIP3    H123697   4.612   4.606   0.657
 7911TIP3    H223698   4.687   4.499   0.733
 7912TIP3   OH223699   3.896   4.071   1.550
 7912TIP3    H123700   3.842   4.139   1.589
 7912TIP3    H223701   3.857   4.054   1.465
 7913TIP3   OH223702   3.305   1.261   3.876
 7913TIP3    H123703   3.308   1.166   3.860
 7913TIP3    H223704   3.386   1.279   3.924
 7914TIP3   OH223705   7.219   1.482   2.179
 7914TIP3    H123706   7.239   1.389   2.189
 7914TIP3    H223707   7.169   1.486   2.098
 7915TIP3   OH223708   2.945   0.582   5.250
 7915TIP3    H123709   2.958   0.620   5.163
 7915TIP3    H223710   2.880   0.638   5.292
 7916TIP3   OH223711   0.596   1.975   2.192
 7916TIP3    H123712   0.546   2.048   2.228
 7916TIP3    H223713   0.532   1.922   2.145
 7917TIP3   OH223714   0.241   0.487   1.913
 7917TIP3    H123715   0.323   0.533   1.892
 7917TIP3    H223716   0.188   0.552   1.959
 7918TIP3   OH223717   5.977   3.432   5.464
 7918TIP3    H123718   6.068   3.429   5.495
 7918TIP3    H223719   5.925   3.407   5.540
 7919TIP3   OH223720   2.880   0.006   1.279
 7919TIP3    H123721   2.849   0.096   1.276
 7919TIP3    H223722   2.810  -0.041   1.325
 7920TIP3   OH223723   6.995   1.330   5.725
 7920TIP3    H123724   6.927   1.293   5.781
 7920TIP3    H223725   6.986   1.425   5.736
 7921TIP3   OH223726   6.341   2.060   0.456
 7921TIP3    H123727   6.282   1.989   0.479
 7921TIP3    H223728   6.426   2.033   0.489
 7922TIP3   OH223729   2.729   5.685   4.715
 7922TIP3    H123730   2.708   5.639   4.796
 7922TIP3    H223731   2.675   5.765   4.717
 7923TIP3   OH223732   7.020   0.690   1.150
 7923TIP3    H123733   6.935   0.660   1.117
 7923TIP3    H223734   7.083   0.629   1.112
 7924TIP3   OH223735   3.483   0.604   2.951
 7924TIP3    H123736   3.574   0.597   2.922
 7924TIP3    H223737   3.482   0.684   3.005
 7925TIP3   OH223738   5.570   1.794   3.385
 7925TIP3    H123739   5.642   1.819   3.326
 7925TIP3    H223740   5.564   1.699   3.377
 7926TIP3   OH223741   0.102   4.225   0.672
 7926TIP3    H123742   0.132   4.301   0.722
 7926TIP3    H223743   0.082   4.159   0.738
 7927TIP3   OH223744   5.345   4.583   4.698
 7927TIP3    H123745   5.387   4.666   4.675
 7927TIP3    H223746   5.258   4.608   4.728
 7928TIP3   OH223747   6.453   0.634   4.850
 7928TIP3    H123748   6.541   0.641   4.887
 7928TIP3    H223749   6.467   0.606   4.760
 7929TIP3   OH223750   0.806   6.308   0.361
 7929TIP3    H123751   0.840   6.321   0.272
 7929TIP3    H223752   0.714   6.286   0.348
 7930TIP3   OH223753   4.709   4.888   1.954
 7930TIP3    H123754   4.706   4.982   1.969
 7930TIP3    H223755   4.723   4.879   1.860
 7931TIP3   OH223756   5.914   4.224   3.032
 7931TIP3    H123757   5.834   4.246   2.983
 7931TIP3    H223758   5.939   4.137   2.999
 7932TIP3   OH223759   7.155   1.078   3.024
 7932TIP3    H123760   7.098   1.063   3.100
 7932TIP3    H223761   7.243   1.069   3.059
 7933TIP3   OH223762   5.962   0.118   1.392
 7933TIP3    H123763   5.952   0.212   1.382
 7933TIP3    H223764   6.046   0.107   1.437
 7934TIP3   OH223765   3.609   6.020   3.123
 7934TIP3    H123766   3.562   5.976   3.052
 7934TIP3    H223767   3.549   6.090   3.151
 7935TIP3   OH223768   5.961   6.189   5.185
 7935TIP3    H123769   5.988   6.097   5.188
 7935TIP3    H223770   5.888   6.195   5.247
 7936TIP3   OH223771   2.846   0.378   4.671
 7936TIP3    H123772   2.760   0.383   4.630
 7936TIP3    H223773   2.885   0.298   4.637
 7937TIP3   OH223774   4.229   2.626   0.573
 7937TIP3    H123775   4.189   2.541   0.587
 7937TIP3    H223776   4.157   2.689   0.582
 7938TIP3   OH223777   3.088   4.978   2.151
 7938TIP3    H123778   3.076   4.906   2.090
 7938TIP3    H223779   3.020   4.965   2.217
 7939TIP3   OH223780   6.914   2.804   0.896
 7939TIP3    H123781   6.990   2.828   0.843
 7939TIP3    H223782   6.950   2.772   0.978
 7940TIP3   OH223783   0.618   1.030   0.411
 7940TIP3    H123784   0.528   1.049   0.438
 7940TIP3    H223785   0.641   0.952   0.460
 7941TIP3   OH223786   4.013   3.019   0.745
 7941TIP3    H123787   3.965   3.093   0.707
 7941TIP3    H223788   3.976   3.009   0.833
 7942TIP3   OH223789   2.533   4.986   1.486
 7942TIP3    H123790   2.574   4.914   1.438
 7942TIP3    H223791   2.597   5.057   1.483
 7943TIP3   OH223792   1.922   1.255   5.470
 7943TIP3    H123793   1.891   1.333   5.515
 7943TIP3    H223794   1.943   1.286   5.381
 7944TIP3   OH223795   6.072   5.132   5.035
 7944TIP3    H123796   6.021   5.103   4.960
 7944TIP3    H223797   6.113   5.214   5.007
 7945TIP3   OH223798   3.212   3.957   0.487
 7945TIP3    H123799   3.242   3.893   0.423
 7945TIP3    H223800   3.117   3.947   0.489
 7946TIP3   OH223801   6.030   3.783   3.817
 7946TIP3    H123802   5.982   3.809   3.738
 7946TIP3    H223803   6.093   3.854   3.831
 7947TIP3   OH223804   6.938   1.191   3.484
 7947TIP3    H123805   6.844   1.195   3.503
 7947TIP3    H223806   6.965   1.283   3.480
 7948TIP3   OH223807   0.484   2.529   3.301
 7948TIP3    H123808   0.445   2.604   3.257
 7948TIP3    H223809   0.545   2.493   3.236
 7949TIP3   OH223810   6.643   1.080   4.760
 7949TIP3    H123811   6.659   1.119   4.674
 7949TIP3    H223812   6.574   1.016   4.745
 7950TIP3   OH223813   7.190   4.718   1.607
 7950TIP3    H123814   7.205   4.642   1.551
 7950TIP3    H223815   7.181   4.792   1.547
 7951TIP3   OH223816   2.582   0.191   3.466
 7951TIP3    H123817   2.512   0.169   3.526
 7951TIP3    H223818   2.639   0.251   3.515
 7952TIP3   OH223819   0.044   5.035   0.467
 7952TIP3    H123820   0.057   5.097   0.539
 7952TIP3    H223821   0.132   5.008   0.442
 7953TIP3   OH223822   5.721   5.518   4.355
 7953TIP3    H123823   5.745   5.598   4.401
 7953TIP3    H223824   5.790   5.455   4.377
 7954TIP3   OH223825   6.529   5.617   1.178
 7954TIP3    H123826   6.464   5.548   1.162
 7954TIP3    H223827   6.608   5.569   1.205
 7955TIP3   OH223828   4.034   6.541   1.620
 7955TIP3    H123829   3.940   6.540   1.600
 7955TIP3    H223830   4.076   6.515   1.539
 7956TIP3   OH223831   2.252   4.071   0.782
 7956TIP3    H123832   2.224   4.051   0.872
 7956TIP3    H223833   2.259   3.985   0.740
 7957TIP3   OH223834   2.691   6.092   1.704
 7957TIP3    H123835   2.643   6.123   1.780
 7957TIP3    H223836   2.777   6.067   1.738
 7958TIP3   OH223837   4.774   2.896   2.033
 7958TIP3    H123838   4.869   2.904   2.029
 7958TIP3    H223839   4.758   2.802   2.025
 7959TIP3   OH223840   3.219   3.525   1.766
 7959TIP3    H123841   3.202   3.436   1.796
 7959TIP3    H223842   3.168   3.580   1.825
 7960TIP3   OH223843   4.975   6.484   2.886
 7960TIP3    H123844   5.028   6.522   2.956
 7960TIP3    H223845   4.965   6.555   2.823
 7961TIP3   OH223846   4.428   0.165   4.647
 7961TIP3    H123847   4.408   0.254   4.677
 7961TIP3    H223848   4.364   0.148   4.578
 7962TIP3   OH223849   3.441   2.229   1.058
 7962TIP3    H123850   3.509   2.162   1.054
 7962TIP3    H223851   3.389   2.214   0.979
 7963TIP3   OH223852   3.421   2.863   0.376
 7963TIP3    H123853   3.333   2.849   0.411
 7963TIP3    H223854   3.469   2.784   0.401
 7964TIP3   OH223855   6.353   1.048   4.000
 7964TIP3    H123856   6.260   1.035   4.020
 7964TIP3    H223857   6.384   0.962   3.971
 7965TIP3   OH223858   6.937   1.726   1.650
 7965TIP3    H123859   6.868   1.717   1.716
 7965TIP3    H223860   7.016   1.696   1.693
 7966TIP3   OH223861   7.006   5.915   5.016
 7966TIP3    H123862   6.998   6.009   4.999
 7966TIP3    H223863   6.954   5.899   5.094
 7967TIP3   OH223864   0.584   4.005   4.503
 7967TIP3    H123865   0.528   4.080   4.484
 7967TIP3    H223866   0.646   4.001   4.429
 7968TIP3   OH223867   1.017   1.857   3.106
 7968TIP3    H123868   1.074   1.840   3.182
 7968TIP3    H223869   0.995   1.950   3.114
 7969TIP3   OH223870   3.338   3.090   3.436
 7969TIP3    H123871   3.395   3.128   3.503
 7969TIP3    H223872   3.283   3.028   3.484
 7970TIP3   OH223873   4.470   3.087   1.736
 7970TIP3    H123874   4.458   2.997   1.706
 7970TIP3    H223875   4.497   3.078   1.828
 7971TIP3   OH223876   1.237   6.450   5.174
 7971TIP3    H123877   1.241   6.475   5.266
 7971TIP3    H223878   1.191   6.522   5.131
 7972TIP3   OH223879   6.247   5.334   4.972
 7972TIP3    H123880   6.218   5.343   4.881
 7972TIP3    H223881   6.269   5.423   5.000
 7973TIP3   OH223882   1.919   2.868   5.609
 7973TIP3    H123883   1.990   2.804   5.602
 7973TIP3    H223884   1.841   2.815   5.622
 7974TIP3   OH223885   4.870   0.206   2.891
 7974TIP3    H123886   4.955   0.161   2.892
 7974TIP3    H223887   4.889   0.294   2.922
 7975TIP3   OH223888   4.040   4.321   3.377
 7975TIP3    H123889   4.121   4.291   3.334
 7975TIP3    H223890   4.041   4.277   3.462
 7976TIP3   OH223891   6.549   1.059   1.745
 7976TIP3    H123892   6.629   1.018   1.712
 7976TIP3    H223893   6.566   1.153   1.739
 7977TIP3   OH223894   5.982   2.348   5.238
 7977TIP3    H123895   5.929   2.358   5.318
 7977TIP3    H223896   5.918   2.343   5.167
 7978TIP3   OH223897   5.359   1.948   2.004
 7978TIP3    H123898   5.361   1.868   2.057
 7978TIP3    H223899   5.415   2.010   2.051
 7979TIP3   OH223900   3.035   6.146   4.042
 7979TIP3    H123901   3.077   6.215   4.092
 7979TIP3    H223902   2.943   6.149   4.069
 7980TIP3   OH223903   0.784   1.554   0.444
 7980TIP3    H123904   0.704   1.509   0.416
 7980TIP3    H223905   0.831   1.490   0.496
 7981TIP3   OH223906   2.230   0.041   5.888
 7981TIP3    H123907   2.319   0.074   5.878
 7981TIP3    H223908   2.241  -0.050   5.917
 7982TIP3   OH223909   1.423   4.111   4.579
 7982TIP3    H123910   1.398   4.029   4.621
 7982TIP3    H223911   1.349   4.170   4.596
 7983TIP3   OH223912   5.825   1.846   1.486
 7983TIP3    H123913   5.898   1.908   1.488
 7983TIP3    H223914   5.755   1.891   1.533
 7984TIP3   OH223915   0.600   0.944   3.394
 7984TIP3    H123916   0.636   1.024   3.356
 7984TIP3    H223917   0.638   0.940   3.482
 7985TIP3   OH223918   4.021   6.667   0.382
 7985TIP3    H123919   3.995   6.622   0.301
 7985TIP3    H223920   4.062   6.748   0.352
 7986TIP3   OH223921   4.727   0.271   0.768
 7986TIP3    H123922   4.778   0.335   0.817
 7986TIP3    H223923   4.637   0.300   0.776
 7987TIP3   OH223924   6.740   6.598   0.114
 7987TIP3    H123925   6.756   6.678   0.164
 7987TIP3    H223926   6.809   6.597   0.047
 7988TIP3   OH223927   6.017   2.377   2.992
 7988TIP3    H123928   5.989   2.467   3.010
 7988TIP3    H223929   6.110   2.384   2.970
 7989TIP3   OH223930   2.647   2.558   3.874
 7989TIP3    H123931   2.601   2.480   3.905
 7989TIP3    H223932   2.598   2.631   3.912
 7990TIP3   OH223933   5.154   4.536   0.942
 7990TIP3    H123934   5.058   4.542   0.941
 7990TIP3    H223935   5.177   4.519   0.850
 7991TIP3   OH223936   4.126   1.519   4.667
 7991TIP3    H123937   4.202   1.460   4.673
 7991TIP3    H223938   4.144   1.573   4.590
 7992TIP3   OH223939   4.984   5.233   2.886
 7992TIP3    H123940   4.969   5.142   2.863
 7992TIP3    H223941   4.925   5.283   2.829
 7993TIP3   OH223942   1.284   3.244   2.747
 7993TIP3    H123943   1.269   3.158   2.707
 7993TIP3    H223944   1.241   3.239   2.832
 7994TIP3   OH223945   1.509   6.620   2.721
 7994TIP3    H123946   1.573   6.685   2.750
 7994TIP3    H223947   1.562   6.553   2.677
 7995TIP3   OH223948   6.179   0.879   2.006
 7995TIP3    H123949   6.181   0.836   1.920
 7995TIP3    H223950   6.267   0.916   2.016
 7996TIP3   OH223951   4.445   4.425   3.780
 7996TIP3    H123952   4.418   4.424   3.872
 7996TIP3    H223953   4.406   4.504   3.744
 7997TIP3   OH223954   2.686   6.475   5.653
 7997TIP3    H123955   2.652   6.393   5.616
 7997TIP3    H223956   2.662   6.542   5.589
 7998TIP3   OH223957   5.221   6.149   3.256
 7998TIP3    H123958   5.128   6.130   3.266
 7998TIP3    H223959   5.244   6.112   3.171
 7999TIP3   OH223960   6.122   5.147   5.717
 7999TIP3    H123961   6.073   5.090   5.776
 7999TIP3    H223962   6.082   5.233   5.729
 8000TIP3   OH223963   3.400   3.618   3.995
 8000TIP3    H123964   3.312   3.634   3.960
 8000TIP3    H223965   3.459   3.640   3.922
 8001TIP3   OH223966   0.028   1.217   5.841
 8001TIP3    H123967  -0.037   1.266   5.790
 8001TIP3    H223968   0.108   1.223   5.789
 8002TIP3   OH223969   0.095   5.364   4.983
 8002TIP3    H123970   0.176   5.348   4.936
 8002TIP3    H223971   0.028   5.315   4.935
 8003TIP3   OH223972   1.682   2.293   5.268
 8003TIP3    H123973   1.712   2.262   5.353
 8003TIP3    H223974   1.656   2.214   5.221
 8004TIP3   OH223975   3.792   0.272   1.535
 8004TIP3    H123976   3.770   0.207   1.602
 8004TIP3    H223977   3.808   0.220   1.456
 8005TIP3   OH223978   4.413   6.286   5.516
 8005TIP3    H123979   4.375   6.356   5.463
 8005TIP3    H223980   4.368   6.291   5.600
 8006TIP3   OH223981   0.779   2.695   3.288
 8006TIP3    H123982   0.770   2.763   3.221
 8006TIP3    H223983   0.810   2.742   3.365
 8007TIP3   OH223984   4.554   6.686   5.290
 8007TIP3    H123985   4.644   6.716   5.295
 8007TIP3    H223986   4.509   6.752   5.238
 8008TIP3   OH223987   5.703   4.007   4.096
 8008TIP3    H123988   5.637   3.944   4.124
 8008TIP3    H223989   5.701   4.004   4.001
 8009TIP3   OH223990   4.268   2.817   4.990
 8009TIP3    H123991   4.333   2.851   4.929
 8009TIP3    H223992   4.298   2.848   5.076
 8010TIP3   OH223993   3.043   0.165   0.180
 8010TIP3    H123994   3.093   0.145   0.101
 8010TIP3    H223995   3.105   0.151   0.251
 8011TIP3   OH223996   1.540   1.308   1.241
 8011TIP3    H123997   1.471   1.347   1.187
 8011TIP3    H223998   1.598   1.381   1.262
 8012TIP3   OH223999   4.716   1.632   0.447
 8012TIP3    H124000   4.718   1.588   0.362
 8012TIP3    H224001   4.807   1.658   0.462
 8013TIP3   OH224002   0.832   0.961   2.547
 8013TIP3    H124003   0.856   1.038   2.599
 8013TIP3    H224004   0.796   0.997   2.466
 8014TIP3   OH224005   0.534   1.197   1.425
 8014TIP3    H124006   0.507   1.284   1.455
 8014TIP3    H224007   0.520   1.199   1.330
 8015TIP3   OH224008   1.205   5.430   5.730
 8015TIP3    H124009   1.117   5.443   5.696
 8015TIP3    H224010   1.221   5.336   5.722
 8016TIP3   OH224011   3.812   0.088   0.442
 8016TIP3    H124012   3.872   0.115   0.510
 8016TIP3    H224013   3.862   0.098   0.360
 8017TIP3   OH224014   4.959   2.597   1.415
 8017TIP3    H124015   4.885   2.549   1.450
 8017TIP3    H224016   4.945   2.600   1.321
 8018TIP3   OH224017   1.438   5.784   0.578
 8018TIP3    H124018   1.385   5.837   0.518
 8018TIP3    H224019   1.458   5.842   0.651
 8019TIP3   OH224020   5.466   2.063   2.851
 8019TIP3    H124021   5.465   2.083   2.757
 8019TIP3    H224022   5.374   2.065   2.877
 8020TIP3   OH224023   5.766   4.858   2.300
 8020TIP3    H124024   5.788   4.791   2.365
 8020TIP3    H224025   5.840   4.918   2.301
 8021TIP3   OH224026   1.404   5.178   1.599
 8021TIP3    H124027   1.313   5.191   1.574
 8021TIP3    H224028   1.406   5.198   1.693
 8022TIP3   OH224029   2.896   6.687   5.877
 8022TIP3    H124030   2.814   6.725   5.845
 8022TIP3    H224031   2.905   6.605   5.828
 8023TIP3   OH224032   5.642   2.146   2.574
 8023TIP3    H124033   5.721   2.164   2.524
 8023TIP3    H224034   5.671   2.092   2.647
 8024TIP3   OH224035   6.349   5.101   4.344
 8024TIP3    H124036   6.377   5.085   4.254
 8024TIP3    H224037   6.430   5.103   4.395
 8025TIP3   OH224038   6.139   6.013   1.992
 8025TIP3    H124039   6.202   5.956   2.036
 8025TIP3    H224040   6.069   6.025   2.057
 8026TIP3   OH224041   1.218   5.207   2.766
 8026TIP3    H124042   1.215   5.298   2.736
 8026TIP3    H224043   1.130   5.191   2.801
 8027TIP3   OH224044   2.057   4.495   3.186
 8027TIP3    H124045   2.150   4.481   3.171
 8027TIP3    H224046   2.023   4.408   3.208
 8028TIP3   OH224047   0.453   1.863   3.873
 8028TIP3    H124048   0.517   1.904   3.815
 8028TIP3    H224049   0.498   1.853   3.956
 8029TIP3   OH224050   5.235   2.386   4.607
 8029TIP3    H124051   5.216   2.461   4.663
 8029TIP3    H224052   5.149   2.356   4.577
 8030TIP3   OH224053   1.059   5.812   0.582
 8030TIP3    H124054   0.993   5.746   0.600
 8030TIP3    H224055   1.090   5.792   0.494
 8031TIP3   OH224056   6.512   3.091   5.638
 8031TIP3    H124057   6.576   3.143   5.687
 8031TIP3    H224058   6.546   3.090   5.549
 8032TIP3   OH224059   1.316   2.995   0.543
 8032TIP3    H124060   1.240   3.044   0.574
 8032TIP3    H224061   1.391   3.051   0.563
 8033TIP3   OH224062   6.582   2.877   4.426
 8033TIP3    H124063   6.581   2.782   4.437
 8033TIP3    H224064   6.667   2.904   4.461
 8034TIP3   OH224065   1.161   3.133   3.367
 8034TIP3    H124066   1.197   3.081   3.438
 8034TIP3    H224067   1.225   3.203   3.353
 8035TIP3   OH224068   3.360   5.893   0.321
 8035TIP3    H124069   3.411   5.959   0.367
 8035TIP3    H224070   3.425   5.845   0.269
 8036TIP3   OH224071   0.756   3.034   5.410
 8036TIP3    H124072   0.701   2.959   5.434
 8036TIP3    H224073   0.708   3.078   5.341
 8037TIP3   OH224074   3.580   3.737   3.801
 8037TIP3    H124075   3.543   3.782   3.725
 8037TIP3    H224076   3.675   3.745   3.789
 8038TIP3   OH224077   4.474   1.865   5.470
 8038TIP3    H124078   4.524   1.941   5.498
 8038TIP3    H224079   4.504   1.848   5.381
 8039TIP3   OH224080   4.503   2.848   3.709
 8039TIP3    H124081   4.491   2.758   3.740
 8039TIP3    H224082   4.440   2.856   3.636
 8040TIP3   OH224083   4.236   6.558   1.049
 8040TIP3    H124084   4.310   6.604   1.088
 8040TIP3    H224085   4.273   6.510   0.975
 8041TIP3   OH224086   1.412   4.283   1.070
 8041TIP3    H124087   1.426   4.377   1.054
 8041TIP3    H224088   1.410   4.274   1.165
 8042TIP3   OH224089   4.683   2.494   0.087
 8042TIP3    H124090   4.712   2.417   0.135
 8042TIP3    H224091   4.742   2.501   0.013
 8043TIP3   OH224092   6.985   5.874   3.794
 8043TIP3    H124093   6.917   5.849   3.857
 8043TIP3    H224094   7.037   5.940   3.841
 8044TIP3   OH224095   4.271   2.630   5.435
 8044TIP3    H124096   4.328   2.554   5.428
 8044TIP3    H224097   4.237   2.627   5.525
 8045TIP3   OH224098   3.052   4.731   2.028
 8045TIP3    H124099   3.085   4.771   1.948
 8045TIP3    H224100   2.957   4.736   2.020
 8046TIP3   OH224101   6.429   2.920   5.157
 8046TIP3    H124102   6.473   2.851   5.107
 8046TIP3    H224103   6.354   2.876   5.197
 8047TIP3   OH224104   1.149   5.700   4.617
 8047TIP3    H124105   1.221   5.650   4.655
 8047TIP3    H224106   1.112   5.748   4.691
 8048TIP3   OH224107   3.641   2.409   4.114
 8048TIP3    H124108   3.702   2.353   4.067
 8048TIP3    H224109   3.687   2.492   4.123
 8049TIP3   OH224110   3.348   3.390   2.123
 8049TIP3    H124111   3.281   3.448   2.160
 8049TIP3    H224112   3.398   3.445   2.063
 8050TIP3   OH224113   4.002   0.868   2.854
 8050TIP3    H124114   4.027   0.819   2.776
 8050TIP3    H224115   4.029   0.812   2.927
 8051TIP3   OH224116   1.503   3.912   2.269
 8051TIP3    H124117   1.544   3.993   2.236
 8051TIP3    H224118   1.529   3.908   2.361
 8052TIP3   OH224119   2.019   6.687   2.646
 8052TIP3    H124120   2.071   6.628   2.592
 8052TIP3    H224121   2.082   6.751   2.680
 8053TIP3   OH224122   1.935   6.531   3.470
 8053TIP3    H124123   1.977   6.449   3.497
 8053TIP3    H224124   1.938   6.586   3.548
 8054TIP3   OH224125   4.189   4.460   3.081
 8054TIP3    H124126   4.179   4.367   3.061
 8054TIP3    H224127   4.099   4.492   3.095
 8055TIP3   OH224128   6.705   2.807   0.266
 8055TIP3    H124129   6.781   2.775   0.315
 8055TIP3    H224130   6.703   2.901   0.284
 8056TIP3   OH224131   0.296   1.961   0.304
 8056TIP3    H124132   0.229   1.902   0.339
 8056TIP3    H224133   0.366   1.903   0.273
 8057TIP3   OH224134   6.235   0.365   2.654
 8057TIP3    H124135   6.304   0.366   2.587
 8057TIP3    H224136   6.182   0.443   2.635
 8058TIP3   OH224137   1.360   2.449   4.024
 8058TIP3    H124138   1.441   2.483   3.985
 8058TIP3    H224139   1.335   2.516   4.088
 8059TIP3   OH224140   0.752   1.758   2.139
 8059TIP3    H124141   0.707   1.832   2.178
 8059TIP3    H224142   0.721   1.755   2.049
 8060TIP3   OH224143   5.577   5.360   4.069
 8060TIP3    H124144   5.655   5.359   4.124
 8060TIP3    H224145   5.536   5.274   4.083
 8061TIP3   OH224146   6.140   6.267   4.514
 8061TIP3    H124147   6.113   6.194   4.458
 8061TIP3    H224148   6.058   6.309   4.539
 8062TIP3   OH224149   2.603   0.065   4.364
 8062TIP3    H124150   2.597   0.025   4.451
 8062TIP3    H224151   2.693   0.095   4.358
 8063TIP3   OH224152   2.119   2.350   2.780
 8063TIP3    H124153   2.203   2.314   2.811
 8063TIP3    H224154   2.134   2.445   2.777
 8064TIP3   OH224155   3.022   2.420   1.022
 8064TIP3    H124156   3.046   2.501   1.067
 8064TIP3    H224157   3.067   2.425   0.937
 8065TIP3   OH224158   6.171   4.664   1.229
 8065TIP3    H124159   6.226   4.586   1.226
 8065TIP3    H224160   6.221   4.730   1.181
 8066TIP3   OH224161   3.086   5.220   1.739
 8066TIP3    H124162   3.152   5.169   1.694
 8066TIP3    H224163   3.129   5.251   1.819
 8067TIP3   OH224164   3.599   5.121   4.372
 8067TIP3    H124165   3.520   5.073   4.344
 8067TIP3    H224166   3.659   5.112   4.298
 8068TIP3   OH224167   7.147   0.189   3.350
 8068TIP3    H124168   7.173   0.276   3.381
 8068TIP3    H224169   7.062   0.203   3.308
 8069TIP3   OH224170   5.578   2.904   0.142
 8069TIP3    H124171   5.536   2.956   0.074
 8069TIP3    H224172   5.518   2.909   0.217
 8070TIP3   OH224173   5.592   0.086   5.342
 8070TIP3    H124174   5.547   0.008   5.375
 8070TIP3    H224175   5.680   0.056   5.321
 8071TIP3   OH224176   1.160   1.003   3.922
 8071TIP3    H124177   1.171   1.015   4.016
 8071TIP3    H224178   1.239   1.042   3.883
 8072TIP3   OH224179   3.502   5.915   5.066
 8072TIP3    H124180   3.494   6.007   5.092
 8072TIP3    H224181   3.586   5.887   5.101
 8073TIP3   OH224182   4.843   4.759   3.607
 8073TIP3    H124183   4.927   4.784   3.647
 8073TIP3    H224184   4.816   4.681   3.655
 8074TIP3   OH224185   3.906   1.108   2.869
 8074TIP3    H124186   3.924   1.110   2.963
 8074TIP3    H224187   3.945   1.025   2.839
 8075TIP3   OH224188   5.661   0.388   3.479
 8075TIP3    H124189   5.752   0.415   3.481
 8075TIP3    H224190   5.632   0.392   3.570
 8076TIP3   OH224191   1.059   5.696   1.119
 8076TIP3    H124192   1.144   5.657   1.140
 8076TIP3    H224193   1.019   5.714   1.204
 8077TIP3   OH224194   0.193   1.613   5.438
 8077TIP3    H124195   0.127   1.682   5.435
 8077TIP3    H224196   0.260   1.647   5.497
 8078TIP3   OH224197   2.288   5.369   0.071
 8078TIP3    H124198   2.313   5.278   0.088
 8078TIP3    H224199   2.340   5.394  -0.006
 8079TIP3   OH224200   7.159   5.715   1.531
 8079TIP3    H124201   7.153   5.628   1.493
 8079TIP3    H224202   7.108   5.771   1.472
 8080TIP3   OH224203   0.025   5.832   5.388
 8080TIP3    H124204  -0.015   5.919   5.386
 8080TIP3    H224205   0.043   5.812   5.296
 8081TIP3   OH224206   3.443   2.890   1.682
 8081TIP3    H124207   3.360   2.910   1.726
 8081TIP3    H224208   3.419   2.828   1.614
 8082TIP3   OH224209   3.518   4.015   4.739
 8082TIP3    H124210   3.477   4.014   4.652
 8082TIP3    H224211   3.445   4.004   4.800
 8083TIP3   OH224212   5.476   6.164   3.390
 8083TIP3    H124213   5.518   6.079   3.400
 8083TIP3    H224214   5.383   6.144   3.376
 8084TIP3   OH224215   4.504   3.284   3.780
 8084TIP3    H124216   4.451   3.354   3.815
 8084TIP3    H224217   4.594   3.310   3.800
 8085TIP3   OH224218   0.540   5.856   5.757
 8085TIP3    H124219   0.570   5.864   5.847
 8085TIP3    H224220   0.467   5.918   5.750
 8086TIP3   OH224221   6.554   2.315   5.790
 8086TIP3    H124222   6.588   2.225   5.790
 8086TIP3    H224223   6.591   2.354   5.711
 8087TIP3   OH224224   1.600   5.652   1.846
 8087TIP3    H124225   1.595   5.740   1.883
 8087TIP3    H224226   1.694   5.631   1.846
 8088TIP3   OH224227   2.189   1.273   2.511
 8088TIP3    H124228   2.128   1.242   2.444
 8088TIP3    H224229   2.265   1.216   2.503
 8089TIP3   OH224230   2.250   1.476   0.400
 8089TIP3    H124231   2.213   1.535   0.334
 8089TIP3    H224232   2.227   1.516   0.483
 8090TIP3   OH224233   1.323   4.573   2.118
 8090TIP3    H124234   1.289   4.607   2.035
 8090TIP3    H224235   1.405   4.619   2.130
 8091TIP3   OH224236   4.085   2.605   3.681
 8091TIP3    H124237   4.110   2.550   3.608
 8091TIP3    H224238   3.992   2.624   3.666
 8092TIP3   OH224239   0.532   6.587   4.546
 8092TIP3    H124240   0.519   6.609   4.454
 8092TIP3    H224241   0.622   6.555   4.551
 8093TIP3   OH224242   2.796   6.003   1.114
 8093TIP3    H124243   2.788   6.081   1.170
 8093TIP3    H224244   2.741   6.021   1.039
 8094TIP3   OH224245   2.946   3.636   1.642
 8094TIP3    H124246   2.909   3.599   1.562
 8094TIP3    H224247   3.041   3.627   1.631
 8095TIP3   OH224248   3.168   0.092   4.710
 8095TIP3    H124249   3.241   0.112   4.769
 8095TIP3    H224250   3.194   0.129   4.626
 8096TIP3   OH224251   6.932   0.199   2.536
 8096TIP3    H124252   6.956   0.167   2.623
 8096TIP3    H224253   6.981   0.280   2.525
 8097TIP3   OH224254   4.859   2.033   5.465
 8097TIP3    H124255   4.943   2.009   5.427
 8097TIP3    H224256   4.795   1.986   5.412
 8098TIP3   OH224257   2.003   6.127   5.225
 8098TIP3    H124258   2.049   6.044   5.215
 8098TIP3    H224259   2.023   6.176   5.145
 8099TIP3   OH224260   6.931   0.139   3.657
 8099TIP3    H124261   6.913   0.226   3.693
 8099TIP3    H224262   7.015   0.114   3.695
 8100TIP3   OH224263   5.068   0.820   1.399
 8100TIP3    H124264   5.157   0.818   1.436
 8100TIP3    H224265   5.081   0.820   1.305
 8101TIP3   OH224266   6.689   2.623   4.471
 8101TIP3    H124267   6.783   2.607   4.472
 8101TIP3    H224268   6.657   2.584   4.553
 8102TIP3   OH224269   1.141   1.798   3.856
 8102TIP3    H124270   1.134   1.819   3.762
 8102TIP3    H224271   1.166   1.706   3.858
 8103TIP3   OH224272   2.933   5.911   3.680
 8103TIP3    H124273   2.890   5.994   3.702
 8103TIP3    H224274   2.862   5.846   3.685
 8104TIP3   OH224275   1.652   4.574   5.715
 8104TIP3    H124276   1.705   4.548   5.639
 8104TIP3    H224277   1.710   4.630   5.766
 8105TIP3   OH224278   7.087   6.661   0.675
 8105TIP3    H124279   6.999   6.676   0.640
 8105TIP3    H224280   7.098   6.566   0.671
 8106TIP3   OH224281   1.961   4.687   1.480
 8106TIP3    H124282   2.056   4.695   1.492
 8106TIP3    H224283   1.932   4.636   1.555
 8107TIP3   OH224284   1.524   4.243   4.896
 8107TIP3    H124285   1.505   4.337   4.892
 8107TIP3    H224286   1.556   4.229   4.985
 8108TIP3   OH224287   0.159   6.525   4.296
 8108TIP3    H124288   0.158   6.574   4.378
 8108TIP3    H224289   0.186   6.437   4.321
 8109TIP3   OH224290   0.314   0.483   5.802
 8109TIP3    H124291   0.405   0.462   5.781
 8109TIP3    H224292   0.264   0.407   5.772
 8110TIP3   OH224293   6.809   2.497   0.541
 8110TIP3    H124294   6.749   2.437   0.497
 8110TIP3    H224295   6.890   2.447   0.553
 8111TIP3   OH224296   6.785   0.654   1.635
 8111TIP3    H124297   6.819   0.679   1.548
 8111TIP3    H224298   6.715   0.592   1.616
 8112TIP3   OH224299   2.016   5.870   3.385
 8112TIP3    H124300   2.106   5.896   3.370
 8112TIP3    H224301   1.989   5.828   3.303
 8113TIP3   OH224302   1.303   1.780   4.793
 8113TIP3    H124303   1.382   1.758   4.743
 8113TIP3    H224304   1.263   1.852   4.744
 8114TIP3   OH224305   1.713   0.227   0.519
 8114TIP3    H124306   1.798   0.187   0.537
 8114TIP3    H224307   1.679   0.252   0.605
 8115TIP3   OH224308   1.972   1.245   1.001
 8115TIP3    H124309   1.905   1.310   1.022
 8115TIP3    H224310   1.925   1.177   0.953
 8116TIP3   OH224311   4.836   6.207   4.077
 8116TIP3    H124312   4.779   6.254   4.139
 8116TIP3    H224313   4.775   6.167   4.015
 8117TIP3   OH224314   3.958   3.065   1.451
 8117TIP3    H124315   3.929   3.135   1.510
 8117TIP3    H224316   4.020   3.014   1.503
 8118TIP3   OH224317   4.775   0.642   3.601
 8118TIP3    H124318   4.768   0.605   3.513
 8118TIP3    H224319   4.752   0.734   3.590
 8119TIP3   OH224320   3.847   3.318   1.582
 8119TIP3    H124321   3.891   3.366   1.512
 8119TIP3    H224322   3.765   3.365   1.596
 8120TIP3   OH224323   2.456   1.404   0.231
 8120TIP3    H124324   2.388   1.436   0.290
 8120TIP3    H224325   2.409   1.351   0.167
 8121TIP3   OH224326   2.489   2.860   2.102
 8121TIP3    H124327   2.478   2.953   2.085
 8121TIP3    H224328   2.562   2.833   2.046
 8122TIP3   OH224329   2.297   5.215   0.429
 8122TIP3    H124330   2.317   5.261   0.511
 8122TIP3    H224331   2.381   5.209   0.384
 8123TIP3   OH224332   0.895   1.666   2.640
 8123TIP3    H124333   0.958   1.600   2.668
 8123TIP3    H224334   0.940   1.750   2.654
 8124TIP3   OH224335   4.761   6.223   4.544
 8124TIP3    H124336   4.673   6.232   4.508
 8124TIP3    H224337   4.785   6.312   4.571
 8125TIP3   OH224338   2.079   1.063   1.690
 8125TIP3    H124339   2.137   0.996   1.727
 8125TIP3    H224340   2.029   1.096   1.765
 8126TIP3   OH224341   3.774   1.439   0.606
 8126TIP3    H124342   3.686   1.428   0.643
 8126TIP3    H224343   3.758   1.468   0.516
 8127TIP3   OH224344   5.500   0.992   1.599
 8127TIP3    H124345   5.573   1.038   1.641
 8127TIP3    H224346   5.455   1.061   1.549
 8128TIP3   OH224347   4.893   1.822   0.708
 8128TIP3    H124348   4.927   1.754   0.649
 8128TIP3    H224349   4.959   1.828   0.777
 8129TIP3   OH224350   0.113   5.943   3.552
 8129TIP3    H124351   0.045   5.971   3.491
 8129TIP3    H224352   0.123   5.849   3.535
 8130TIP3   OH224353   6.657   1.219   3.467
 8130TIP3    H124354   6.585   1.200   3.407
 8130TIP3    H224355   6.617   1.274   3.535
 8131TIP3   OH224356   2.396   4.051   2.637
 8131TIP3    H124357   2.363   4.076   2.723
 8131TIP3    H224358   2.357   3.964   2.621
 8132TIP3   OH224359   2.963   2.051   2.299
 8132TIP3    H124360   3.056   2.070   2.281
 8132TIP3    H224361   2.964   1.963   2.337
 8133TIP3   OH224362   6.868   6.409   2.635
 8133TIP3    H124363   6.899   6.452   2.555
 8133TIP3    H224364   6.839   6.481   2.691
 8134TIP3   OH224365   3.233   0.763   3.722
 8134TIP3    H124366   3.209   0.762   3.629
 8134TIP3    H224367   3.162   0.716   3.765
 8135TIP3   OH224368   1.361   5.584   5.488
 8135TIP3    H124369   1.326   5.538   5.564
 8135TIP3    H224370   1.337   5.676   5.503
 8136TIP3   OH224371   5.048   3.098   4.208
 8136TIP3    H124372   5.059   3.003   4.204
 8136TIP3    H224373   5.104   3.132   4.138
 8137TIP3   OH224374   2.199   4.794   3.741
 8137TIP3    H124375   2.252   4.854   3.793
 8137TIP3    H224376   2.252   4.775   3.664
 8138TIP3   OH224377   4.862   5.414   0.382
 8138TIP3    H124378   4.771   5.442   0.385
 8138TIP3    H224379   4.878   5.374   0.468
 8139TIP3   OH224380   3.456   4.652   5.205
 8139TIP3    H124381   3.418   4.676   5.290
 8139TIP3    H224382   3.550   4.651   5.221
 8140TIP3   OH224383   1.672   1.198   5.874
 8140TIP3    H124384   1.680   1.254   5.796
 8140TIP3    H224385   1.578   1.200   5.895
 8141TIP3   OH224386   4.993   0.615   4.062
 8141TIP3    H124387   5.056   0.555   4.021
 8141TIP3    H224388   4.953   0.662   3.989
 8142TIP3   OH224389   2.194   2.927   1.739
 8142TIP3    H124390   2.174   2.857   1.677
 8142TIP3    H224391   2.278   2.902   1.777
 8143TIP3   OH224392   4.594   4.249   0.964
 8143TIP3    H124393   4.535   4.265   1.038
 8143TIP3    H224394   4.677   4.287   0.992
 8144TIP3   OH224395   7.057   0.020   4.451
 8144TIP3    H124396   6.983  -0.039   4.468
 8144TIP3    H224397   7.121  -0.002   4.519
 8145TIP3   OH224398   4.318   0.165   0.199
 8145TIP3    H124399   4.254   0.233   0.221
 8145TIP3    H224400   4.277   0.084   0.229
 8146TIP3   OH224401   0.366   4.847   1.702
 8146TIP3    H124402   0.451   4.876   1.736
 8146TIP3    H224403   0.382   4.758   1.669
 8147TIP3   OH224404   1.766   6.438   0.445
 8147TIP3    H124405   1.708   6.467   0.515
 8147TIP3    H224406   1.789   6.348   0.470
 8148TIP3   OH224407   0.978   1.919   5.713
 8148TIP3    H124408   0.965   1.876   5.797
 8148TIP3    H224409   0.889   1.939   5.683
 8149TIP3   OH224410   2.593   6.675   3.578
 8149TIP3    H124411   2.588   6.621   3.657
 8149TIP3    H224412   2.531   6.746   3.593
 8150TIP3   OH224413   3.120   2.884   3.113
 8150TIP3    H124414   3.090   2.869   3.024
 8150TIP3    H224415   3.136   2.979   3.116
 8151TIP3   OH224416   2.415   6.542   4.241
 8151TIP3    H124417   2.329   6.523   4.277
 8151TIP3    H224418   2.398   6.575   4.152
 8152TIP3   OH224419   3.627   2.940   4.487
 8152TIP3    H124420   3.608   2.862   4.538
 8152TIP3    H224421   3.707   2.976   4.527
 8153TIP3   OH224422   4.797   2.925   3.785
 8153TIP3    H124423   4.716   2.904   3.738
 8153TIP3    H224424   4.813   3.017   3.765
 8154TIP3   OH224425   2.811   1.123   0.071
 8154TIP3    H124426   2.851   1.182   0.007
 8154TIP3    H224427   2.835   1.160   0.156
 8155TIP3   OH224428   0.789   3.689   1.517
 8155TIP3    H124429   0.864   3.684   1.457
 8155TIP3    H224430   0.829   3.700   1.603
 8156TIP3   OH224431   2.903   4.418   4.164
 8156TIP3    H124432   2.845   4.345   4.143
 8156TIP3    H224433   2.868   4.491   4.113
 8157TIP3   OH224434   0.220   5.251   3.044
 8157TIP3    H124435   0.188   5.340   3.062
 8157TIP3    H224436   0.284   5.234   3.112
 8158TIP3   OH224437   6.435   2.015   3.896
 8158TIP3    H124438   6.351   2.061   3.894
 8158TIP3    H224439   6.423   1.942   3.835
 8159TIP3   OH224440   0.919   5.993   5.817
 8159TIP3    H124441   0.887   5.920   5.869
 8159TIP3    H224442   0.841   6.048   5.803
 8160TIP3   OH224443   3.353   6.502   3.031
 8160TIP3    H124444   3.354   6.561   3.106
 8160TIP3    H224445   3.296   6.546   2.967
 8161TIP3   OH224446   1.334   6.231   3.808
 8161TIP3    H124447   1.345   6.174   3.884
 8161TIP3    H224448   1.395   6.198   3.743
 8162TIP3   OH224449   3.140   0.899   4.332
 8162TIP3    H124450   3.120   0.878   4.423
 8162TIP3    H224451   3.060   0.877   4.284
 8163TIP3   OH224452   0.181   0.784   2.877
 8163TIP3    H124453   0.229   0.704   2.855
 8163TIP3    H224454   0.245   0.837   2.925
 8164TIP3   OH224455   4.196   3.648   1.152
 8164TIP3    H124456   4.275   3.688   1.190
 8164TIP3    H224457   4.226   3.614   1.068
 8165TIP3   OH224458   0.457   3.920   1.787
 8165TIP3    H124459   0.393   3.868   1.738
 8165TIP3    H224460   0.408   3.957   1.860
 8166TIP3   OH224461   2.389   5.381   1.273
 8166TIP3    H124462   2.319   5.440   1.300
 8166TIP3    H224463   2.441   5.432   1.211
 8167TIP3   OH224464   7.098   0.722   4.264
 8167TIP3    H124465   7.139   0.755   4.184
 8167TIP3    H224466   7.084   0.800   4.317
 8168TIP3   OH224467   6.079   1.140   3.122
 8168TIP3    H124468   6.052   1.072   3.060
 8168TIP3    H224469   6.093   1.094   3.204
 8169TIP3   OH224470   6.242   5.553   3.173
 8169TIP3    H124471   6.261   5.565   3.266
 8169TIP3    H224472   6.172   5.615   3.154
 8170TIP3   OH224473   5.814   2.906   3.153
 8170TIP3    H124474   5.833   2.930   3.062
 8170TIP3    H224475   5.720   2.887   3.153
 8171TIP3   OH224476   5.645   6.522   2.894
 8171TIP3    H124477   5.652   6.428   2.877
 8171TIP3    H224478   5.725   6.559   2.857
 8172TIP3   OH224479   4.550   1.953   2.301
 8172TIP3    H124480   4.606   1.945   2.378
 8172TIP3    H224481   4.464   1.976   2.336
 8173TIP3   OH224482   7.065   4.990   2.568
 8173TIP3    H124483   7.073   4.904   2.609
 8173TIP3    H224484   6.979   4.989   2.527
 8174TIP3   OH224485   2.286   3.005   2.393
 8174TIP3    H124486   2.369   2.974   2.429
 8174TIP3    H224487   2.247   3.057   2.463
 8175TIP3   OH224488   6.657   0.441   1.346
 8175TIP3    H124489   6.616   0.367   1.301
 8175TIP3    H224490   6.742   0.408   1.375
 8176TIP3   OH224491   5.591   4.498   3.426
 8176TIP3    H124492   5.656   4.469   3.362
 8176TIP3    H224493   5.517   4.527   3.373
 8177TIP3   OH224494   2.077   3.332   1.537
 8177TIP3    H124495   2.052   3.329   1.444
 8177TIP3    H224496   1.994   3.324   1.584
 8178TIP3   OH224497   2.474   4.909   1.880
 8178TIP3    H124498   2.405   4.845   1.895
 8178TIP3    H224499   2.463   4.973   1.951
 8179TIP3   OH224500   3.148   5.796   2.832
 8179TIP3    H124501   3.153   5.702   2.814
 8179TIP3    H224502   3.187   5.837   2.755
 8180TIP3   OH224503   5.070   2.115   0.576
 8180TIP3    H124504   5.141   2.069   0.531
 8180TIP3    H224505   5.103   2.128   0.666
 8181TIP3   OH224506   7.125   3.997   5.332
 8181TIP3    H124507   7.176   4.058   5.384
 8181TIP3    H224508   7.190   3.946   5.284
 8182TIP3   OH224509   6.796   5.027   0.913
 8182TIP3    H124510   6.738   4.950   0.915
 8182TIP3    H224511   6.753   5.087   0.852
 8183TIP3   OH224512   2.092   5.918   5.873
 8183TIP3    H124513   2.033   5.993   5.881
 8183TIP3    H224514   2.178   5.953   5.896
 8184TIP3   OH224515   3.173   4.914   1.856
 8184TIP3    H124516   3.179   4.940   1.764
 8184TIP3    H224517   3.238   4.969   1.900
 8185TIP3   OH224518   6.010   5.655   5.494
 8185TIP3    H124519   5.936   5.663   5.554
 8185TIP3    H224520   6.077   5.713   5.531
 8186TIP3   OH224521   0.951   1.597   2.270
 8186TIP3    H124522   0.906   1.679   2.250
 8186TIP3    H224523   0.880   1.537   2.294
 8187TIP3   OH224524   1.051   0.439   5.409
 8187TIP3    H124525   1.006   0.434   5.494
 8187TIP3    H224526   1.099   0.521   5.412
 8188TIP3   OH224527   3.888   4.309   4.453
 8188TIP3    H124528   3.837   4.265   4.521
 8188TIP3    H224529   3.943   4.241   4.416
 8189TIP3   OH224530   4.293   5.319   1.546
 8189TIP3    H124531   4.293   5.313   1.450
 8189TIP3    H224532   4.352   5.392   1.565
 8190TIP3   OH224533   5.408   2.837   1.701
 8190TIP3    H124534   5.436   2.820   1.611
 8190TIP3    H224535   5.469   2.902   1.734
 8191TIP3   OH224536   3.515   1.063   1.358
 8191TIP3    H124537   3.443   1.085   1.418
 8191TIP3    H224538   3.497   0.973   1.331
 8192TIP3   OH224539   3.974   1.520   0.794
 8192TIP3    H124540   3.925   1.504   0.713
 8192TIP3    H224541   3.912   1.568   0.850
 8193TIP3   OH224542   4.611   3.486   2.735
 8193TIP3    H124543   4.571   3.477   2.821
 8193TIP3    H224544   4.702   3.459   2.748
 8194TIP3   OH224545   2.632   1.448   5.128
 8194TIP3    H124546   2.589   1.521   5.173
 8194TIP3    H224547   2.718   1.443   5.169
 8195TIP3   OH224548   7.179   0.510   2.239
 8195TIP3    H124549   7.163   0.432   2.186
 8195TIP3    H224550   7.149   0.486   2.327
 8196TIP3   OH224551   0.889   5.403   1.688
 8196TIP3    H124552   0.871   5.309   1.685
 8196TIP3    H224553   0.982   5.410   1.709
 8197TIP3   OH224554   1.878   0.711   3.483
 8197TIP3    H124555   1.786   0.738   3.483
 8197TIP3    H224556   1.880   0.636   3.424
 8198TIP3   OH224557   1.909   1.986   1.605
 8198TIP3    H124558   1.865   2.037   1.672
 8198TIP3    H224559   1.930   2.050   1.536
 8199TIP3   OH224560   3.061   5.242   2.128
 8199TIP3    H124561   3.064   5.147   2.124
 8199TIP3    H224562   3.118   5.271   2.056
 8200TIP3   OH224563   5.389   5.159   5.532
 8200TIP3    H124564   5.304   5.120   5.511
 8200TIP3    H224565   5.447   5.130   5.462
 8201TIP3   OH224566   2.252   5.973   5.127
 8201TIP3    H124567   2.240   6.067   5.134
 8201TIP3    H224568   2.345   5.958   5.145
 8202TIP3   OH224569   1.196   1.911   4.563
 8202TIP3    H124570   1.105   1.938   4.559
 8202TIP3    H224571   1.246   1.993   4.562
 8203TIP3   OH224572   0.914   2.296   4.410
 8203TIP3    H124573   0.985   2.359   4.421
 8203TIP3    H224574   0.954   2.222   4.364
 8204TIP3   OH224575   2.237   2.640   3.325
 8204TIP3    H124576   2.286   2.574   3.375
 8204TIP3    H224577   2.245   2.612   3.234
 8205TIP3   OH224578   2.759   1.551   2.373
 8205TIP3    H124579   2.700   1.485   2.410
 8205TIP3    H224580   2.839   1.503   2.352
 8206TIP3   OH224581   0.726   5.275   3.137
 8206TIP3    H124582   0.686   5.282   3.224
 8206TIP3    H224583   0.677   5.337   3.083
 8207TIP3   OH224584   2.215   6.767   0.228
 8207TIP3    H124585   2.214   6.674   0.206
 8207TIP3    H224586   2.177   6.772   0.316
 8208TIP3   OH224587   1.406   1.788   0.488
 8208TIP3    H124588   1.326   1.834   0.515
 8208TIP3    H224589   1.467   1.803   0.560
 8209TIP3   OH224590   4.138   6.460   2.898
 8209TIP3    H124591   4.218   6.495   2.938
 8209TIP3    H224592   4.067   6.505   2.945
 8210TIP3   OH224593   4.162   5.704   1.837
 8210TIP3    H124594   4.100   5.632   1.836
 8210TIP3    H224595   4.109   5.783   1.828
 8211TIP3   OH224596   2.397   2.639   0.036
 8211TIP3    H124597   2.426   2.606  -0.050
 8211TIP3    H224598   2.318   2.589   0.055
 8212TIP3   OH224599   1.974   5.375   2.208
 8212TIP3    H124600   1.955   5.349   2.118
 8212TIP3    H224601   1.937   5.463   2.216
 8213TIP3   OH224602   1.665   5.357   0.216
 8213TIP3    H124603   1.651   5.380   0.308
 8213TIP3    H224604   1.617   5.425   0.167
 8214TIP3   OH224605   5.241   6.269   4.563
 8214TIP3    H124606   5.153   6.307   4.569
 8214TIP3    H224607   5.283   6.318   4.493
 8215TIP3   OH224608   3.689   6.122   1.697
 8215TIP3    H124609   3.685   6.216   1.679
 8215TIP3    H224610   3.698   6.116   1.792
 8216TIP3   OH224611   0.862   0.100   4.551
 8216TIP3    H124612   0.832   0.015   4.518
 8216TIP3    H224613   0.792   0.129   4.610
 8217TIP3   OH224614   0.508   0.356   1.652
 8217TIP3    H124615   0.431   0.393   1.610
 8217TIP3    H224616   0.583   0.398   1.609
 8218TIP3   OH224617   2.602   2.502   5.579
 8218TIP3    H124618   2.677   2.444   5.597
 8218TIP3    H224619   2.555   2.506   5.662
 8219TIP3   OH224620   1.818   2.028   2.595
 8219TIP3    H124621   1.903   2.071   2.594
 8219TIP3    H224622   1.802   2.009   2.687
 8220TIP3   OH224623   3.099   2.269   0.020
 8220TIP3    H124624   3.013   2.248  -0.016
 8220TIP3    H224625   3.121   2.194   0.075
 8221TIP3   OH224626   4.529   0.264   2.655
 8221TIP3    H124627   4.568   0.193   2.707
 8221TIP3    H224628   4.588   0.338   2.667
 8222TIP3   OH224629   6.776   2.362   4.056
 8222TIP3    H124630   6.861   2.405   4.061
 8222TIP3    H224631   6.766   2.320   4.142
 8223TIP3   OH224632   6.568   0.045   2.733
 8223TIP3    H124633   6.497  -0.018   2.747
 8223TIP3    H224634   6.647  -0.001   2.760
 8224TIP3   OH224635   5.839   5.490   5.131
 8224TIP3    H124636   5.750   5.501   5.097
 8224TIP3    H224637   5.867   5.405   5.096
 8225TIP3   OH224638   6.697   3.027   3.456
 8225TIP3    H124639   6.707   3.059   3.367
 8225TIP3    H224640   6.778   3.052   3.500
 8226TIP3   OH224641   4.476   1.704   5.809
 8226TIP3    H124642   4.539   1.773   5.790
 8226TIP3    H224643   4.507   1.629   5.759
 8227TIP3   OH224644   4.818   6.271   0.534
 8227TIP3    H124645   4.851   6.299   0.449
 8227TIP3    H224646   4.743   6.215   0.514
 8228TIP3   OH224647   2.509   4.621   4.003
 8228TIP3    H124648   2.519   4.539   3.956
 8228TIP3    H224649   2.568   4.682   3.960
 8229TIP3   OH224650   0.081   0.056   2.175
 8229TIP3    H124651   0.160   0.076   2.124
 8229TIP3    H224652   0.067  -0.038   2.163
 8230TIP3   OH224653   3.837   2.217   2.617
 8230TIP3    H124654   3.859   2.153   2.685
 8230TIP3    H224655   3.749   2.247   2.642
 8231TIP3   OH224656   1.780   2.893   1.053
 8231TIP3    H124657   1.762   2.981   1.085
 8231TIP3    H224658   1.859   2.902   1.000
 8232TIP3   OH224659   6.389   2.933   3.640
 8232TIP3    H124660   6.381   2.886   3.723
 8232TIP3    H224661   6.437   2.874   3.583
 8233TIP3   OH224662   3.625   5.344   3.965
 8233TIP3    H124663   3.560   5.327   4.032
 8233TIP3    H224664   3.687   5.405   4.006
 8234TIP3   OH224665   3.861   4.681   5.700
 8234TIP3    H124666   3.923   4.731   5.645
 8234TIP3    H224667   3.825   4.615   5.641
 8235TIP3   OH224668   2.302   3.658   4.986
 8235TIP3    H124669   2.352   3.671   5.066
 8235TIP3    H224670   2.223   3.711   4.998
 8236TIP3   OH224671   6.330   5.947   3.596
 8236TIP3    H124672   6.245   5.986   3.580
 8236TIP3    H224673   6.388   6.022   3.615
 8237TIP3   OH224674   4.634   2.063   0.096
 8237TIP3    H124675   4.672   2.082   0.010
 8237TIP3    H224676   4.626   1.968   0.098
 8238TIP3   OH224677   4.448   2.463   2.916
 8238TIP3    H124678   4.406   2.541   2.951
 8238TIP3    H224679   4.539   2.470   2.946
 8239TIP3   OH224680   1.221   5.250   1.030
 8239TIP3    H124681   1.229   5.170   0.979
 8239TIP3    H224682   1.186   5.314   0.969
 8240TIP3   OH224683   4.484   2.021   1.474
 8240TIP3    H124684   4.475   1.929   1.498
 8240TIP3    H224685   4.569   2.047   1.508
 8241TIP3   OH224686   1.478   2.328   1.923
 8241TIP3    H124687   1.412   2.268   1.888
 8241TIP3    H224688   1.471   2.407   1.869
 8242TIP3   OH224689   0.965   2.925   4.749
 8242TIP3    H124690   0.911   2.935   4.827
 8242TIP3    H224691   0.912   2.960   4.678
 8243TIP3   OH224692   4.768   0.994   2.474
 8243TIP3    H124693   4.713   1.027   2.403
 8243TIP3    H224694   4.806   1.073   2.514
 8244TIP3   OH224695   1.485   0.916   5.750
 8244TIP3    H124696   1.430   0.982   5.792
 8244TIP3    H224697   1.530   0.962   5.680
 8245TIP3   OH224698   4.910   3.192   1.791
 8245TIP3    H124699   4.822   3.153   1.801
 8245TIP3    H224700   4.952   3.139   1.723
 8246TIP3   OH224701   5.862   3.796   3.578
 8246TIP3    H124702   5.850   3.891   3.590
 8246TIP3    H224703   5.937   3.789   3.520
 8247TIP3   OH224704   1.499   2.203   4.014
 8247TIP3    H124705   1.450   2.123   4.032
 8247TIP3    H224706   1.433   2.273   4.015
 8248TIP3   OH224707   5.124   5.835   5.057
 8248TIP3    H124708   5.135   5.837   4.962
 8248TIP3    H224709   5.191   5.775   5.089
 8249TIP3   OH224710   5.208   1.264   1.152
 8249TIP3    H124711   5.156   1.335   1.189
 8249TIP3    H224712   5.272   1.307   1.095
 8250TIP3   OH224713   6.050   4.693   5.821
 8250TIP3    H124714   6.019   4.604   5.802
 8250TIP3    H224715   6.146   4.684   5.824
 8251TIP3   OH224716   3.950   3.590   1.695
 8251TIP3    H124717   3.929   3.596   1.601
 8251TIP3    H224718   4.043   3.566   1.697
 8252TIP3   OH224719   3.344   0.490   1.081
 8252TIP3    H124720   3.287   0.416   1.100
 8252TIP3    H224721   3.374   0.520   1.167
 8253TIP3   OH224722   2.946   6.417   5.734
 8253TIP3    H124723   2.928   6.326   5.758
 8253TIP3    H224724   2.876   6.439   5.672
 8254TIP3   OH224725   3.303   3.268   1.615
 8254TIP3    H124726   3.233   3.319   1.574
 8254TIP3    H224727   3.258   3.196   1.660
 8255TIP3   OH224728   0.311   5.838   4.071
 8255TIP3    H124729   0.303   5.743   4.077
 8255TIP3    H224730   0.247   5.872   4.133
 8256TIP3   OH224731   4.740   1.111   4.072
 8256TIP3    H124732   4.731   1.078   3.982
 8256TIP3    H224733   4.721   1.035   4.127
 8257TIP3   OH224734   6.757   3.958   1.412
 8257TIP3    H124735   6.817   3.885   1.393
 8257TIP3    H224736   6.670   3.920   1.400
 8258TIP3   OH224737   4.969   5.655   1.959
 8258TIP3    H124738   5.002   5.712   1.889
 8258TIP3    H224739   4.992   5.702   2.040
 8259TIP3   OH224740   5.346   0.096   3.849
 8259TIP3    H124741   5.353   0.013   3.897
 8259TIP3    H224742   5.260   0.131   3.874
 8260TIP3   OH224743   5.255   4.134   4.875
 8260TIP3    H124744   5.261   4.056   4.930
 8260TIP3    H224745   5.320   4.120   4.806
 8261TIP3   OH224746   3.719   0.466   1.269
 8261TIP3    H124747   3.813   0.483   1.262
 8261TIP3    H224748   3.685   0.478   1.180
 8262TIP3   OH224749   6.401   0.468   4.372
 8262TIP3    H124750   6.333   0.458   4.306
 8262TIP3    H224751   6.369   0.419   4.448
 8263TIP3   OH224752   3.387   3.479   5.097
 8263TIP3    H124753   3.350   3.476   5.185
 8263TIP3    H224754   3.330   3.423   5.044
 8264TIP3   OH224755   5.548   3.051   3.150
 8264TIP3    H124756   5.502   3.008   3.077
 8264TIP3    H224757   5.615   3.105   3.108
 8265TIP3   OH224758   0.909   4.304   5.774
 8265TIP3    H124759   0.983   4.263   5.819
 8265TIP3    H224760   0.898   4.252   5.695
 8266TIP3   OH224761   3.918   4.974   5.248
 8266TIP3    H124762   3.919   5.022   5.331
 8266TIP3    H224763   3.825   4.965   5.226
 8267TIP3   OH224764   2.380   3.695   1.272
 8267TIP3    H124765   2.407   3.609   1.304
 8267TIP3    H224766   2.288   3.702   1.297
 8268TIP3   OH224767   0.450   3.195   4.963
 8268TIP3    H124768   0.482   3.105   4.970
 8268TIP3    H224769   0.436   3.208   4.869
 8269TIP3   OH224770   4.800   4.237   0.258
 8269TIP3    H124771   4.835   4.236   0.348
 8269TIP3    H224772   4.720   4.186   0.263
 8270TIP3   OH224773   5.884   2.299   0.082
 8270TIP3    H124774   5.959   2.312   0.024
 8270TIP3    H224775   5.861   2.207   0.072
 8271TIP3   OH224776   6.060   0.908   3.643
 8271TIP3    H124777   6.112   0.988   3.653
 8271TIP3    H224778   6.117   0.838   3.672
 8272TIP3   OH224779   6.824   4.754   2.218
 8272TIP3    H124780   6.807   4.669   2.259
 8272TIP3    H224781   6.915   4.748   2.188
 8273TIP3   OH224782   6.182   4.798   4.031
 8273TIP3    H124783   6.150   4.801   3.941
 8273TIP3    H224784   6.142   4.719   4.068
 8274TIP3   OH224785   0.302   4.976   0.766
 8274TIP3    H124786   0.275   4.885   0.781
 8274TIP3    H224787   0.222   5.021   0.740
 8275TIP3   OH224788   0.028   3.560   2.067
 8275TIP3    H124789   0.011   3.518   1.983
 8275TIP3    H224790  -0.012   3.501   2.132
 8276TIP3   OH224791   6.141   2.093   2.408
 8276TIP3    H124792   6.228   2.129   2.426
 8276TIP3    H224793   6.153   1.999   2.408
 8277TIP3   OH224794   6.819   2.415   0.889
 8277TIP3    H124795   6.818   2.324   0.862
 8277TIP3    H224796   6.912   2.437   0.895
 8278TIP3   OH224797   1.771   4.385   2.962
 8278TIP3    H124798   1.797   4.397   3.053
 8278TIP3    H224799   1.717   4.306   2.962
 8279TIP3   OH224800   3.014   6.561   3.211
 8279TIP3    H124801   2.937   6.606   3.247
 8279TIP3    H224802   3.010   6.580   3.117
 8280TIP3   OH224803   0.501   6.273   0.801
 8280TIP3    H124804   0.537   6.361   0.789
 8280TIP3    H224805   0.561   6.231   0.863
 8281TIP3   OH224806   4.741   2.271   0.230
 8281TIP3    H124807   4.795   2.213   0.284
 8281TIP3    H224808   4.691   2.212   0.174
 8282TIP3   OH224809   4.156   2.356   0.620
 8282TIP3    H124810   4.184   2.277   0.573
 8282TIP3    H224811   4.106   2.324   0.694
 8283TIP3   OH224812   1.154   2.751   0.932
 8283TIP3    H124813   1.180   2.678   0.876
 8283TIP3    H224814   1.124   2.710   1.014
 8284TIP3   OH224815   3.499   5.429   3.144
 8284TIP3    H124816   3.486   5.343   3.184
 8284TIP3    H224817   3.561   5.473   3.202
 8285TIP3   OH224818   5.811   6.233   2.445
 8285TIP3    H124819   5.734   6.266   2.493
 8285TIP3    H224820   5.790   6.141   2.427
 8286TIP3   OH224821   5.486   5.856   0.709
 8286TIP3    H124822   5.407   5.821   0.667
 8286TIP3    H224823   5.468   5.851   0.802
 8287TIP3   OH224824   5.793   6.653   4.008
 8287TIP3    H124825   5.884   6.644   3.981
 8287TIP3    H224826   5.764   6.734   3.966
 8288TIP3   OH224827   4.236   2.806   4.061
 8288TIP3    H124828   4.212   2.861   3.986
 8288TIP3    H224829   4.332   2.801   4.056
 8289TIP3   OH224830   5.654   0.655   3.139
 8289TIP3    H124831   5.656   0.563   3.113
 8289TIP3    H224832   5.622   0.653   3.230
 8290TIP3   OH224833   6.804   1.338   1.132
 8290TIP3    H124834   6.742   1.319   1.202
 8290TIP3    H224835   6.786   1.429   1.108
 8291TIP3   OH224836   1.122   1.943   2.465
 8291TIP3    H124837   1.128   1.851   2.439
 8291TIP3    H224838   1.101   1.989   2.384
 8292TIP3   OH224839   0.815   6.710   3.188
 8292TIP3    H124840   0.765   6.791   3.195
 8292TIP3    H224841   0.797   6.677   3.100
 8293TIP3   OH224842   2.285   3.296   0.222
 8293TIP3    H124843   2.233   3.275   0.299
 8293TIP3    H224844   2.346   3.223   0.213
 8294TIP3   OH224845   0.435   2.854   4.763
 8294TIP3    H124846   0.350   2.898   4.764
 8294TIP3    H224847   0.484   2.898   4.693
 8295TIP3   OH224848   5.648   6.803   5.014
 8295TIP3    H124849   5.632   6.713   4.986
 8295TIP3    H224850   5.560   6.838   5.033
 8296TIP3   OH224851   4.374   5.597   3.935
 8296TIP3    H124852   4.438   5.636   3.995
 8296TIP3    H224853   4.289   5.611   3.977
 8297TIP3   OH224854   2.228   6.322   1.998
 8297TIP3    H124855   2.290   6.260   2.036
 8297TIP3    H224856   2.244   6.404   2.045
 8298TIP3   OH224857   0.677   0.287   2.479
 8298TIP3    H124858   0.698   0.198   2.453
 8298TIP3    H224859   0.757   0.337   2.463
 8299TIP3   OH224860   3.534   4.888   4.574
 8299TIP3    H124861   3.603   4.947   4.545
 8299TIP3    H224862   3.475   4.880   4.499
 8300TIP3   OH224863   0.533   5.566   1.228
 8300TIP3    H124864   0.442   5.586   1.252
 8300TIP3    H224865   0.546   5.476   1.256
 8301TIP3   OH224866   6.712   4.711   0.632
 8301TIP3    H124867   6.793   4.671   0.601
 8301TIP3    H224868   6.644   4.647   0.610
 8302TIP3   OH224869   3.108   5.370   2.667
 8302TIP3    H124870   3.175   5.437   2.675
 8302TIP3    H224871   3.038   5.411   2.617
 8303TIP3   OH224872   1.453   5.521   0.028
 8303TIP3    H124873   1.405   5.600   0.052
 8303TIP3    H224874   1.510   5.548  -0.044
 8304TIP3   OH224875   0.962   0.736   3.476
 8304TIP3    H124876   1.044   0.767   3.513
 8304TIP3    H224877   0.948   0.790   3.398
 8305TIP3   OH224878   1.882   4.005   1.035
 8305TIP3    H124879   1.807   3.948   1.051
 8305TIP3    H224880   1.846   4.093   1.040
 8306TIP3   OH224881   4.465   4.928   2.107
 8306TIP3    H124882   4.488   5.016   2.136
 8306TIP3    H224883   4.547   4.891   2.076
 8307TIP3   OH224884   5.514   2.147   0.995
 8307TIP3    H124885   5.551   2.168   0.909
 8307TIP3    H224886   5.557   2.065   1.020
 8308TIP3   OH224887   4.729   4.473   3.738
 8308TIP3    H124888   4.645   4.438   3.708
 8308TIP3    H224889   4.794   4.415   3.699
 8309TIP3   OH224890   0.576   3.995   4.772
 8309TIP3    H124891   0.522   3.917   4.783
 8309TIP3    H224892   0.604   3.991   4.680
 8310TIP3   OH224893   1.259   3.074   1.624
 8310TIP3    H124894   1.193   3.084   1.692
 8310TIP3    H224895   1.250   2.983   1.594
 8311TIP3   OH224896   3.294   6.466   4.534
 8311TIP3    H124897   3.229   6.498   4.471
 8311TIP3    H224898   3.248   6.398   4.583
 8312TIP3   OH224899   0.097   0.240   4.997
 8312TIP3    H124900   0.168   0.263   4.936
 8312TIP3    H224901   0.089   0.318   5.053
 8313TIP3   OH224902   0.475   0.555   4.639
 8313TIP3    H124903   0.549   0.580   4.694
 8313TIP3    H224904   0.440   0.476   4.679
 8314TIP3   OH224905   4.359   1.478   1.228
 8314TIP3    H124906   4.432   1.415   1.230
 8314TIP3    H224907   4.281   1.424   1.219
 8315TIP3   OH224908   1.572   3.764   1.899
 8315TIP3    H124909   1.545   3.704   1.969
 8315TIP3    H224910   1.522   3.844   1.915
 8316TIP3   OH224911   6.047   6.064   5.492
 8316TIP3    H124912   6.078   6.154   5.487
 8316TIP3    H224913   5.963   6.069   5.537
 8317TIP3   OH224914   5.171   1.782   3.590
 8317TIP3    H124915   5.213   1.705   3.628
 8317TIP3    H224916   5.174   1.767   3.495
 8318TIP3   OH224917   1.369   6.554   3.303
 8318TIP3    H124918   1.334   6.475   3.263
 8318TIP3    H224919   1.462   6.537   3.314
 8319TIP3   OH224920   5.126   3.802   2.775
 8319TIP3    H124921   5.108   3.844   2.691
 8319TIP3    H224922   5.040   3.783   2.811
 8320TIP3   OH224923   4.090   1.093   4.727
 8320TIP3    H124924   4.034   1.159   4.768
 8320TIP3    H224925   4.072   1.101   4.634
 8321TIP3   OH224926   1.615   4.400   3.935
 8321TIP3    H124927   1.575   4.472   3.887
 8321TIP3    H224928   1.680   4.364   3.874
 8322TIP3   OH224929   6.648   2.463   5.554
 8322TIP3    H124930   6.611   2.408   5.485
 8322TIP3    H224931   6.626   2.553   5.527
 8323TIP3   OH224932   4.246   1.500   0.849
 8323TIP3    H124933   4.153   1.501   0.870
 8323TIP3    H224934   4.251   1.527   0.758
 8324TIP3   OH224935   2.164   5.182   3.795
 8324TIP3    H124936   2.245   5.158   3.751
 8324TIP3    H224937   2.179   5.162   3.888
 8325TIP3   OH224938   0.624   1.251   0.603
 8325TIP3    H124939   0.625   1.168   0.554
 8325TIP3    H224940   0.531   1.267   0.620
 8326TIP3   OH224941   3.230   4.650   0.124
 8326TIP3    H124942   3.325   4.646   0.127
 8326TIP3    H224943   3.209   4.742   0.139
 8327TIP3   OH224944   5.861   1.026   0.643
 8327TIP3    H124945   5.938   0.987   0.685
 8327TIP3    H224946   5.792   1.023   0.709
 8328TIP3   OH224947   2.157   4.091   3.484
 8328TIP3    H124948   2.187   4.113   3.571
 8328TIP3    H224949   2.200   4.154   3.426
 8329TIP3   OH224950   2.122   4.029   2.035
 8329TIP3    H124951   2.139   3.967   2.107
 8329TIP3    H224952   2.196   4.089   2.037
 8330TIP3   OH224953   0.583   5.402   2.657
 8330TIP3    H124954   0.518   5.464   2.690
 8330TIP3    H224955   0.637   5.454   2.597
 8331TIP3   OH224956   4.275   5.607   5.244
 8331TIP3    H124957   4.232   5.646   5.168
 8331TIP3    H224958   4.203   5.563   5.291
 8332TIP3   OH224959   3.838   3.679   5.606
 8332TIP3    H124960   3.870   3.690   5.517
 8332TIP3    H224961   3.743   3.690   5.598
 8333TIP3   OH224962   6.911   2.962   2.107
 8333TIP3    H124963   6.905   2.926   2.018
 8333TIP3    H224964   6.867   3.046   2.102
 8334TIP3   OH224965   1.794   3.647   2.929
 8334TIP3    H124966   1.801   3.742   2.914
 8334TIP3    H224967   1.877   3.623   2.969
 8335TIP3   OH224968   1.368   4.477   0.348
 8335TIP3    H124969   1.280   4.514   0.358
 8335TIP3    H224970   1.427   4.552   0.358
 8336TIP3   OH224971   3.173   6.417   4.990
 8336TIP3    H124972   3.198   6.360   4.917
 8336TIP3    H224973   3.182   6.506   4.954
 8337TIP3   OH224974   6.392   5.172   5.721
 8337TIP3    H124975   6.298   5.154   5.722
 8337TIP3    H224976   6.404   5.238   5.790
 8338TIP3   OH224977   2.065   2.109   1.116
 8338TIP3    H124978   2.088   2.028   1.071
 8338TIP3    H224979   2.101   2.179   1.061
 8339TIP3   OH224980   3.181   1.626   1.630
 8339TIP3    H124981   3.154   1.538   1.603
 8339TIP3    H224982   3.139   1.684   1.568
 8340TIP3   OH224983   4.170   5.853   3.513
 8340TIP3    H124984   4.148   5.877   3.603
 8340TIP3    H224985   4.221   5.773   3.521
 8341TIP3   OH224986   4.922   0.307   1.894
 8341TIP3    H124987   4.878   0.335   1.975
 8341TIP3    H224988   5.008   0.348   1.898
 8342TIP3   OH224989   0.648   2.288   0.166
 8342TIP3    H124990   0.660   2.197   0.194
 8342TIP3    H224991   0.700   2.339   0.229
 8343TIP3   OH224992   3.579   6.294   1.345
 8343TIP3    H124993   3.571   6.388   1.359
 8343TIP3    H224994   3.627   6.262   1.421
 8344TIP3   OH224995   5.367   4.033   1.687
 8344TIP3    H124996   5.348   4.080   1.606
 8344TIP3    H224997   5.346   4.095   1.756
 8345TIP3   OH224998   6.241   4.410   1.156
 8345TIP3    H124999   6.195   4.354   1.093
 8345TIP3    H225000   6.325   4.427   1.115
 8346TIP3   OH225001   6.815   6.703   0.909
 8346TIP3    H125002   6.758   6.751   0.849
 8346TIP3    H225003   6.827   6.764   0.983
 8347TIP3   OH225004   4.160   4.943   0.987
 8347TIP3    H125005   4.206   4.947   0.904
 8347TIP3    H225006   4.219   4.894   1.045
 8348TIP3   OH225007   6.658   2.365   0.347
 8348TIP3    H125008   6.572   2.325   0.359
 8348TIP3    H225009   6.641   2.438   0.287
 8349TIP3   OH225010   6.611   2.176   2.680
 8349TIP3    H125011   6.569   2.234   2.743
 8349TIP3    H225012   6.651   2.107   2.733
 8350TIP3   OH225013   6.671   6.469   1.287
 8350TIP3    H125014   6.750   6.499   1.242
 8350TIP3    H225015   6.618   6.429   1.218
 8351TIP3   OH225016   2.076   0.920   0.110
 8351TIP3    H125017   2.054   0.975   0.185
 8351TIP3    H225018   2.152   0.869   0.138
 8352TIP3   OH225019   4.321   3.264   4.975
 8352TIP3    H125020   4.244   3.213   5.001
 8352TIP3    H225021   4.395   3.207   4.996
 8353TIP3   OH225022   0.585   4.051   5.436
 8353TIP3    H125023   0.572   4.142   5.411
 8353TIP3    H225024   0.506   4.006   5.406
 8354TIP3   OH225025   3.133   3.295   0.590
 8354TIP3    H125026   3.149   3.238   0.665
 8354TIP3    H225027   3.048   3.267   0.555
 8355TIP3   OH225028   0.231   4.006   2.950
 8355TIP3    H125029   0.282   4.057   3.013
 8355TIP3    H225030   0.140   4.014   2.981
 8356TIP3   OH225031   1.972   3.977   5.159
 8356TIP3    H125032   2.038   3.920   5.199
 8356TIP3    H225033   1.919   4.009   5.233
 8357TIP3   OH225034   3.897   4.426   1.471
 8357TIP3    H125035   3.943   4.470   1.542
 8357TIP3    H225036   3.880   4.495   1.407
 8358TIP3   OH225037   2.140   2.416   5.301
 8358TIP3    H125038   2.198   2.430   5.376
 8358TIP3    H225039   2.162   2.487   5.241
 8359TIP3   OH225040   7.165   1.299   0.795
 8359TIP3    H125041   7.139   1.326   0.883
 8359TIP3    H225042   7.100   1.233   0.771
 8360TIP3   OH225043   4.692   6.061   3.467
 8360TIP3    H125044   4.696   5.975   3.425
 8360TIP3    H225045   4.613   6.101   3.431
 8361TIP3   OH225046   4.571   5.801   4.976
 8361TIP3    H125047   4.664   5.800   4.999
 8361TIP3    H225048   4.541   5.887   5.005
 8362TIP3   OH225049   5.178   2.652   4.766
 8362TIP3    H125050   5.117   2.679   4.698
 8362TIP3    H225051   5.199   2.733   4.813
 8363TIP3   OH225052   1.668   3.918   4.476
 8363TIP3    H125053   1.657   3.907   4.382
 8363TIP3    H225054   1.581   3.904   4.512
 8364TIP3   OH225055   4.768   5.789   5.309
 8364TIP3    H125056   4.672   5.791   5.315
 8364TIP3    H225057   4.791   5.699   5.332
 8365TIP3   OH225058   2.773   6.281   3.090
 8365TIP3    H125059   2.778   6.246   3.001
 8365TIP3    H225060   2.836   6.230   3.140
 8366TIP3   OH225061   4.825   2.021   0.513
 8366TIP3    H125062   4.916   2.049   0.507
 8366TIP3    H225063   4.822   1.967   0.591
 8367TIP3   OH225064   2.907   0.038   2.952
 8367TIP3    H125065   2.899   0.036   3.047
 8367TIP3    H225066   3.000   0.052   2.935
 8368TIP3   OH225067   7.108   5.345   0.534
 8368TIP3    H125068   7.201   5.325   0.523
 8368TIP3    H225069   7.066   5.298   0.463
 8369TIP3   OH225070   6.703   2.491   4.805
 8369TIP3    H125071   6.693   2.442   4.887
 8369TIP3    H225072   6.646   2.446   4.743
 8370TIP3   OH225073   7.221   5.110   4.419
 8370TIP3    H125074   7.244   5.168   4.346
 8370TIP3    H225075   7.161   5.161   4.472
 8371TIP3   OH225076   2.059   4.947   4.755
 8371TIP3    H125077   2.112   5.027   4.759
 8371TIP3    H225078   2.124   4.876   4.752
 8372TIP3   OH225079   2.563   6.083   0.981
 8372TIP3    H125080   2.577   6.150   1.048
 8372TIP3    H225081   2.518   6.129   0.910
 8373TIP3   OH225082   7.111   4.610   3.683
 8373TIP3    H125083   7.118   4.635   3.590
 8373TIP3    H225084   7.176   4.541   3.694
 8374TIP3   OH225085   0.899   0.486   5.150
 8374TIP3    H125086   0.956   0.447   5.216
 8374TIP3    H225087   0.882   0.416   5.088
 8375TIP3   OH225088   6.937   4.962   5.774
 8375TIP3    H125089   6.846   4.960   5.802
 8375TIP3    H225090   6.938   5.025   5.701
 8376TIP3   OH225091   6.157   0.016   2.152
 8376TIP3    H125092   6.232   0.052   2.199
 8376TIP3    H225093   6.098   0.090   2.141
 8377TIP3   OH225094   4.932   2.931   2.663
 8377TIP3    H125095   4.904   2.845   2.695
 8377TIP3    H225096   4.850   2.977   2.644
 8378TIP3   OH225097   3.855   5.525   0.664
 8378TIP3    H125098   3.805   5.448   0.689
 8378TIP3    H225099   3.936   5.490   0.626
 8379TIP3   OH225100   1.148   3.142   5.473
 8379TIP3    H125101   1.234   3.178   5.496
 8379TIP3    H225102   1.145   3.148   5.378
 8380TIP3   OH225103   5.502   0.266   5.128
 8380TIP3    H125104   5.506   0.358   5.154
 8380TIP3    H225105   5.532   0.218   5.205
 8381TIP3   OH225106   1.813   2.724   0.530
 8381TIP3    H125107   1.761   2.799   0.559
 8381TIP3    H225108   1.804   2.660   0.600
 8382TIP3   OH225109   5.920   2.942   2.915
 8382TIP3    H125110   5.850   2.928   2.851
 8382TIP3    H225111   6.001   2.928   2.865
 8383TIP3   OH225112   5.347   3.946   4.485
 8383TIP3    H125113   5.426   3.893   4.496
 8383TIP3    H225114   5.278   3.893   4.525
 8384TIP3   OH225115   1.449   5.183   0.210
 8384TIP3    H125116   1.514   5.252   0.203
 8384TIP3    H225117   1.419   5.187   0.301
 8385TIP3   OH225118   6.861   5.206   5.251
 8385TIP3    H125119   6.858   5.237   5.342
 8385TIP3    H225120   6.781   5.241   5.212
 8386TIP3   OH225121   3.644   5.154   1.847
 8386TIP3    H125122   3.630   5.061   1.869
 8386TIP3    H225123   3.625   5.159   1.753
 8387TIP3   OH225124   3.419   2.326   4.263
 8387TIP3    H125125   3.397   2.378   4.340
 8387TIP3    H225126   3.498   2.365   4.228
 8388TIP3   OH225127   4.027   6.060   4.523
 8388TIP3    H125128   4.061   6.137   4.477
 8388TIP3    H225129   3.979   6.096   4.598
 8389TIP3   OH225130   4.977   1.239   4.016
 8389TIP3    H125131   4.888   1.216   4.042
 8389TIP3    H225132   5.029   1.162   4.039
 8390TIP3   OH225133   2.576   6.216   5.048
 8390TIP3    H125134   2.558   6.274   4.975
 8390TIP3    H225135   2.557   6.269   5.126
 8391TIP3   OH225136   6.120   6.597   5.336
 8391TIP3    H125137   6.211   6.603   5.306
 8391TIP3    H225138   6.085   6.685   5.326
 8392TIP3   OH225139   3.301   6.649   0.541
 8392TIP3    H125140   3.295   6.740   0.570
 8392TIP3    H225141   3.381   6.646   0.489
 8393TIP3   OH225142   6.163   4.811   3.724
 8393TIP3    H125143   6.235   4.867   3.695
 8393TIP3    H225144   6.191   4.723   3.702
 8394TIP3   OH225145   3.203   4.277   4.398
 8394TIP3    H125146   3.182   4.185   4.384
 8394TIP3    H225147   3.119   4.320   4.409
 8395TIP3   OH225148   3.060   0.086   5.149
 8395TIP3    H125149   3.056   0.029   5.072
 8395TIP3    H225150   2.974   0.127   5.153
 8396TIP3   OH225151   5.803   4.806   3.061
 8396TIP3    H125152   5.827   4.758   3.141
 8396TIP3    H225153   5.714   4.838   3.078
 8397TIP3   OH225154   6.585   3.157   2.032
 8397TIP3    H125155   6.633   3.201   2.102
 8397TIP3    H225156   6.495   3.188   2.042
 8398TIP3   OH225157   4.140   2.888   3.804
 8398TIP3    H125158   4.083   2.949   3.759
 8398TIP3    H225159   4.138   2.809   3.750
 8399TIP3   OH225160   6.985   0.284   4.363
 8399TIP3    H125161   7.066   0.329   4.386
 8399TIP3    H225162   7.011   0.193   4.348
 8400TIP3   OH225163   3.071   5.144   5.653
 8400TIP3    H125164   3.135   5.185   5.594
 8400TIP3    H225165   3.124   5.111   5.725
 8401TIP3   OH225166   1.097   3.765   0.249
 8401TIP3    H125167   1.088   3.736   0.158
 8401TIP3    H225168   1.082   3.686   0.300
 8402TIP3   OH225169   6.641   6.618   3.065
 8402TIP3    H125170   6.606   6.674   2.996
 8402TIP3    H225171   6.590   6.537   3.059
 8403TIP3   OH225172   3.047   5.637   4.825
 8403TIP3    H125173   3.135   5.615   4.794
 8403TIP3    H225174   3.010   5.554   4.854
 8404TIP3   OH225175   7.179   1.086   1.571
 8404TIP3    H125176   7.098   1.052   1.532
 8404TIP3    H225177   7.187   1.039   1.654
 8405TIP3   OH225178   6.193   6.529   1.025
 8405TIP3    H125179   6.111   6.576   1.010
 8405TIP3    H225180   6.167   6.437   1.033
 8406TIP3   OH225181   1.864   2.745   4.297
 8406TIP3    H125182   1.952   2.708   4.306
 8406TIP3    H225183   1.855   2.764   4.204
 8407TIP3   OH225184   5.378   6.244   2.751
 8407TIP3    H125185   5.387   6.263   2.844
 8407TIP3    H225186   5.298   6.290   2.725
 8408TIP3   OH225187   1.703   6.314   3.627
 8408TIP3    H125188   1.706   6.282   3.537
 8408TIP3    H225189   1.651   6.395   3.622
 8409TIP3   OH225190   7.114   6.697   1.387
 8409TIP3    H125191   7.052   6.648   1.441
 8409TIP3    H225192   7.126   6.780   1.433
 8410TIP3   OH225193   4.417   3.405   3.198
 8410TIP3    H125194   4.434   3.414   3.104
 8410TIP3    H225195   4.324   3.385   3.204
 8411TIP3   OH225196   5.898   0.156   5.009
 8411TIP3    H125197   5.938   0.134   4.925
 8411TIP3    H225198   5.805   0.170   4.988
 8412TIP3   OH225199   1.072   0.186   1.655
 8412TIP3    H125200   1.156   0.180   1.700
 8412TIP3    H225201   1.036   0.271   1.682
 8413TIP3   OH225202   3.801   4.249   0.669
 8413TIP3    H125203   3.868   4.258   0.602
 8413TIP3    H225204   3.725   4.214   0.623
 8414TIP3   OH225205   2.084   1.585   4.297
 8414TIP3    H125206   2.048   1.674   4.297
 8414TIP3    H225207   2.049   1.545   4.377
 8415TIP3   OH225208   0.782   6.568   5.848
 8415TIP3    H125209   0.782   6.632   5.919
 8415TIP3    H225210   0.864   6.585   5.800
 8416TIP3   OH225211   6.531   4.227   4.755
 8416TIP3    H125212   6.573   4.265   4.832
 8416TIP3    H225213   6.603   4.188   4.706
 8417TIP3   OH225214   0.531   0.441   5.459
 8417TIP3    H125215   0.621   0.455   5.490
 8417TIP3    H225216   0.498   0.368   5.512
 8418TIP3   OH225217   3.471   1.541   5.205
 8418TIP3    H125218   3.552   1.525   5.157
 8418TIP3    H225219   3.454   1.458   5.250
 8419TIP3   OH225220   6.827   2.197   4.290
 8419TIP3    H125221   6.844   2.156   4.205
 8419TIP3    H225222   6.912   2.196   4.335
 8420TIP3   OH225223   5.722   1.470   4.704
 8420TIP3    H125224   5.760   1.555   4.726
 8420TIP3    H225225   5.628   1.486   4.704
 8421TIP3   OH225226   6.721   5.717   1.603
 8421TIP3    H125227   6.736   5.725   1.698
 8421TIP3    H225228   6.635   5.756   1.589
 8422TIP3   OH225229   2.101   0.818   3.175
 8422TIP3    H125230   2.130   0.812   3.084
 8422TIP3    H225231   2.072   0.730   3.197
 8423TIP3   OH225232   5.488   4.117   2.676
 8423TIP3    H125233   5.451   4.166   2.750
 8423TIP3    H225234   5.441   4.150   2.600
 8424TIP3   OH225235   2.114   6.115   4.439
 8424TIP3    H125236   2.186   6.178   4.432
 8424TIP3    H225237   2.150   6.044   4.493
 8425TIP3   OH225238   6.639   0.162   1.719
 8425TIP3    H125239   6.587   0.133   1.794
 8425TIP3    H225240   6.691   0.086   1.695
 8426TIP3   OH225241   5.846   2.708   3.937
 8426TIP3    H125242   5.815   2.620   3.915
 8426TIP3    H225243   5.867   2.704   4.030
 8427TIP3   OH225244   0.680   6.732   3.783
 8427TIP3    H125245   0.692   6.816   3.739
 8427TIP3    H225246   0.638   6.676   3.717
 8428TIP3   OH225247   6.908   3.332   3.708
 8428TIP3    H125248   6.910   3.408   3.767
 8428TIP3    H225249   6.904   3.370   3.621
 8429TIP3   OH225250   5.562   0.423   3.751
 8429TIP3    H125251   5.495   0.398   3.688
 8429TIP3    H225252   5.528   0.503   3.792
 8430TIP3   OH225253   0.993   2.938   5.488
 8430TIP3    H125254   1.045   3.019   5.490
 8430TIP3    H225255   0.906   2.967   5.461
 8431TIP3   OH225256   3.333   4.421   1.022
 8431TIP3    H125257   3.269   4.490   1.039
 8431TIP3    H225258   3.411   4.468   0.991
 8432TIP3   OH225259   4.962   1.243   2.384
 8432TIP3    H125260   4.916   1.289   2.314
 8432TIP3    H225261   5.040   1.206   2.341
 8433TIP3   OH225262   0.583   5.296   0.673
 8433TIP3    H125263   0.531   5.280   0.751
 8433TIP3    H225264   0.521   5.289   0.601
 8434TIP3   OH225265   1.086   5.881   3.086
 8434TIP3    H125266   0.997   5.895   3.054
 8434TIP3    H225267   1.140   5.885   3.007
 8435TIP3   OH225268   2.020   5.258   3.587
 8435TIP3    H125269   2.071   5.226   3.661
 8435TIP3    H225270   1.974   5.181   3.554
 8436TIP3   OH225271   5.915   2.916   4.791
 8436TIP3    H125272   6.009   2.914   4.808
 8436TIP3    H225273   5.875   2.918   4.879
 8437TIP3   OH225274   4.003   0.596   4.571
 8437TIP3    H125275   3.934   0.614   4.635
 8437TIP3    H225276   4.012   0.678   4.522
 8438TIP3   OH225277   0.857   2.349   1.855
 8438TIP3    H125278   0.832   2.441   1.844
 8438TIP3    H225279   0.867   2.338   1.950
 8439TIP3   OH225280   2.004   3.674   1.087
 8439TIP3    H125281   2.058   3.596   1.101
 8439TIP3    H225282   2.001   3.684   0.992
 8440TIP3   OH225283   4.161   2.367   0.339
 8440TIP3    H125284   4.209   2.298   0.385
 8440TIP3    H225285   4.096   2.398   0.403
 8441TIP3   OH225286   6.161   0.584   5.220
 8441TIP3    H125287   6.231   0.541   5.173
 8441TIP3    H225288   6.178   0.678   5.209
 8442TIP3   OH225289   0.183   5.999   4.789
 8442TIP3    H125290   0.253   6.023   4.728
 8442TIP3    H225291   0.150   5.916   4.757
 8443TIP3   OH225292   2.122   5.455   3.820
 8443TIP3    H125293   2.033   5.450   3.786
 8443TIP3    H225294   2.153   5.364   3.820
 8444TIP3   OH225295   4.127   2.727   1.773
 8444TIP3    H125296   4.163   2.720   1.684
 8444TIP3    H225297   4.045   2.678   1.769
 8445TIP3   OH225298   1.604   3.818   3.146
 8445TIP3    H125299   1.561   3.761   3.210
 8445TIP3    H225300   1.541   3.888   3.130
 8446TIP3   OH225301   1.659   5.728   0.929
 8446TIP3    H125302   1.741   5.764   0.963
 8446TIP3    H225303   1.592   5.758   0.990
 8447TIP3   OH225304   1.303   1.432   4.551
 8447TIP3    H125305   1.375   1.488   4.523
 8447TIP3    H225306   1.224   1.485   4.537
 8448TIP3   OH225307   0.784   4.860   1.430
 8448TIP3    H125308   0.855   4.815   1.474
 8448TIP3    H225309   0.826   4.926   1.375
 8449TIP3   OH225310   2.542   2.265   0.345
 8449TIP3    H125311   2.622   2.267   0.397
 8449TIP3    H225312   2.529   2.173   0.325
 8450TIP3   OH225313   4.075   1.301   0.234
 8450TIP3    H125314   4.127   1.372   0.196
 8450TIP3    H225315   4.018   1.344   0.298
 8451TIP3   OH225316   6.814   5.656   0.227
 8451TIP3    H125317   6.719   5.661   0.233
 8451TIP3    H225318   6.831   5.601   0.150
 8452TIP3   OH225319   3.727   1.354   0.976
 8452TIP3    H125320   3.769   1.330   1.058
 8452TIP3    H225321   3.768   1.298   0.910
 8453TIP3   OH225322   6.638   2.132   0.742
 8453TIP3    H125323   6.723   2.141   0.701
 8453TIP3    H225324   6.626   2.038   0.755
 8454TIP3   OH225325   0.593   6.506   0.669
 8454TIP3    H125326   0.622   6.594   0.692
 8454TIP3    H225327   0.588   6.507   0.573
 8455TIP3   OH225328   1.057   3.042   4.073
 8455TIP3    H125329   1.065   2.981   3.999
 8455TIP3    H225330   0.999   2.997   4.135
 8456TIP3   OH225331   3.409   5.885   2.966
 8456TIP3    H125332   3.379   5.963   2.919
 8456TIP3    H225333   3.332   5.855   3.014
 8457TIP3   OH225334   5.673   1.241   4.582
 8457TIP3    H125335   5.688   1.325   4.626
 8457TIP3    H225336   5.755   1.193   4.595
 8458TIP3   OH225337   2.639   2.635   1.989
 8458TIP3    H125338   2.620   2.542   1.979
 8458TIP3    H225339   2.675   2.643   2.077
 8459TIP3   OH225340   5.615   6.342   2.612
 8459TIP3    H125341   5.590   6.434   2.618
 8459TIP3    H225342   5.549   6.296   2.664
 8460TIP3   OH225343   2.453   1.368   1.461
 8460TIP3    H125344   2.373   1.324   1.489
 8460TIP3    H225345   2.509   1.368   1.538
 8461TIP3   OH225346   0.674   5.946   5.013
 8461TIP3    H125347   0.704   5.961   4.923
 8461TIP3    H225348   0.754   5.941   5.065
 8462TIP3   OH225349   6.749   2.071   2.248
 8462TIP3    H125350   6.745   2.044   2.156
 8462TIP3    H225351   6.757   1.990   2.297
 8463TIP3   OH225352   0.530   0.022   5.851
 8463TIP3    H125353   0.616   0.029   5.890
 8463TIP3    H225354   0.533  -0.059   5.799
 8464TIP3   OH225355   1.693   4.833   0.172
 8464TIP3    H125356   1.690   4.919   0.216
 8464TIP3    H225357   1.784   4.821   0.148
 8465TIP3   OH225358   4.271   6.071   4.808
 8465TIP3    H125359   4.306   6.156   4.780
 8465TIP3    H225360   4.334   6.007   4.775
 8466TIP3   OH225361   6.216   4.446   0.541
 8466TIP3    H125362   6.182   4.372   0.489
 8466TIP3    H225363   6.290   4.409   0.589
 8467TIP3   OH225364   4.698   0.551   3.349
 8467TIP3    H125365   4.667   0.633   3.311
 8467TIP3    H225366   4.764   0.520   3.286
 8468TIP3   OH225367   1.960   6.098   1.724
 8468TIP3    H125368   2.024   6.164   1.749
 8468TIP3    H225369   2.002   6.015   1.749
 8469TIP3   OH225370   2.717   4.968   3.558
 8469TIP3    H125371   2.737   4.924   3.476
 8469TIP3    H225372   2.622   4.968   3.563
 8470TIP3   OH225373   4.827   5.543   5.358
 8470TIP3    H125374   4.857   5.456   5.386
 8470TIP3    H225375   4.799   5.530   5.267
 8471TIP3   OH225376   4.328   5.612   4.370
 8471TIP3    H125377   4.330   5.516   4.370
 8471TIP3    H225378   4.287   5.635   4.454
 8472TIP3   OH225379   1.653   5.269   3.969
 8472TIP3    H125380   1.647   5.365   3.968
 8472TIP3    H225381   1.747   5.251   3.965
 8473TIP3   OH225382   0.238   4.562   2.303
 8473TIP3    H125383   0.322   4.522   2.322
 8473TIP3    H225384   0.177   4.520   2.363
 8474TIP3   OH225385   5.831   3.451   2.892
 8474TIP3    H125386   5.860   3.388   2.826
 8474TIP3    H225387   5.911   3.484   2.931
 8475TIP3   OH225388   0.340   2.913   5.535
 8475TIP3    H125389   0.368   2.849   5.601
 8475TIP3    H225390   0.358   2.870   5.452
 8476TIP3   OH225391   3.194   5.048   3.437
 8476TIP3    H125392   3.251   5.093   3.499
 8476TIP3    H225393   3.190   5.106   3.361
 8477TIP3   OH225394   4.621   5.165   3.693
 8477TIP3    H125395   4.703   5.146   3.649
 8477TIP3    H225396   4.628   5.258   3.718
 8478TIP3   OH225397   2.895   2.571   4.009
 8478TIP3    H125398   2.883   2.503   4.075
 8478TIP3    H225399   2.827   2.555   3.944
 8479TIP3   OH225400   5.530   2.292   1.332
 8479TIP3    H125401   5.503   2.382   1.347
 8479TIP3    H225402   5.598   2.298   1.265
 8480TIP3   OH225403   6.736   3.504   5.512
 8480TIP3    H125404   6.686   3.585   5.502
 8480TIP3    H225405   6.737   3.489   5.607
 8481TIP3   OH225406   4.602   2.636   4.495
 8481TIP3    H125407   4.515   2.631   4.536
 8481TIP3    H225408   4.647   2.557   4.525
 8482TIP3   OH225409   5.509   1.368   4.407
 8482TIP3    H125410   5.522   1.462   4.394
 8482TIP3    H225411   5.584   1.341   4.460
 8483TIP3   OH225412   2.458   2.667   2.297
 8483TIP3    H125413   2.445   2.725   2.223
 8483TIP3    H225414   2.371   2.634   2.318
 8484TIP3   OH225415   4.038   1.813   4.007
 8484TIP3    H125416   4.068   1.761   4.082
 8484TIP3    H225417   3.988   1.750   3.954
 8485TIP3   OH225418   4.651   3.835   0.388
 8485TIP3    H125419   4.738   3.797   0.397
 8485TIP3    H225420   4.608   3.780   0.323
 8486TIP3   OH225421   3.742   0.241   4.321
 8486TIP3    H125422   3.733   0.146   4.312
 8486TIP3    H225423   3.657   0.275   4.292
 8487TIP3   OH225424   0.090   2.388   0.495
 8487TIP3    H125425   0.153   2.338   0.443
 8487TIP3    H225426   0.140   2.420   0.570
 8488TIP3   OH225427   3.105   4.727   4.273
 8488TIP3    H125428   3.019   4.717   4.233
 8488TIP3    H225429   3.151   4.647   4.252
 8489TIP3   OH225430   5.277   5.585   1.285
 8489TIP3    H125431   5.195   5.551   1.322
 8489TIP3    H225432   5.320   5.508   1.249
 8490TIP3   OH225433   1.338   6.601   2.925
 8490TIP3    H125434   1.386   6.659   2.984
 8490TIP3    H225435   1.380   6.614   2.839
 8491TIP3   OH225436   6.151   2.003   2.773
 8491TIP3    H125437   6.139   1.910   2.755
 8491TIP3    H225438   6.185   2.039   2.690
 8492TIP3   OH225439   5.646   2.766   2.948
 8492TIP3    H125440   5.554   2.792   2.943
 8492TIP3    H225441   5.662   2.716   2.868
 8493TIP3   OH225442   4.520   3.070   3.033
 8493TIP3    H125443   4.527   3.115   3.117
 8493TIP3    H225444   4.531   2.978   3.054
 8494TIP3   OH225445   4.855   0.761   3.841
 8494TIP3    H125446   4.765   0.755   3.872
 8494TIP3    H225447   4.849   0.751   3.746
 8495TIP3   OH225448   4.318   2.189   0.472
 8495TIP3    H125449   4.355   2.153   0.392
 8495TIP3    H225450   4.352   2.132   0.542
 8496TIP3   OH225451   0.779   4.225   3.971
 8496TIP3    H125452   0.709   4.288   3.991
 8496TIP3    H225453   0.762   4.198   3.881
 8497TIP3   OH225454   0.549   2.523   0.533
 8497TIP3    H125455   0.497   2.490   0.606
 8497TIP3    H225456   0.519   2.613   0.521
 8498TIP3   OH225457   3.762   3.162   2.707
 8498TIP3    H125458   3.796   3.106   2.777
 8498TIP3    H225459   3.817   3.240   2.710
 8499TIP3   OH225460   4.534   0.441   2.189
 8499TIP3    H125461   4.599   0.436   2.259
 8499TIP3    H225462   4.543   0.357   2.143
 8500TIP3   OH225463   1.956   2.152   4.693
 8500TIP3    H125464   1.938   2.228   4.637
 8500TIP3    H225465   1.964   2.079   4.632
 8501TIP3   OH225466   2.305   5.974   3.054
 8501TIP3    H125467   2.355   5.964   2.973
 8501TIP3    H225468   2.356   6.036   3.106
 8502TIP3   OH225469   0.195   0.924   3.837
 8502TIP3    H125470   0.156   1.010   3.850
 8502TIP3    H225471   0.246   0.932   3.756
 8503TIP3   OH225472   1.794   4.358   4.815
 8503TIP3    H125473   1.745   4.314   4.746
 8503TIP3    H225474   1.815   4.289   4.878
 8504TIP3   OH225475   5.431   6.489   1.333
 8504TIP3    H125476   5.454   6.533   1.415
 8504TIP3    H225477   5.361   6.542   1.296
 8505TIP3   OH225478   0.096   5.853   1.986
 8505TIP3    H125479   0.028   5.836   2.051
 8505TIP3    H225480   0.159   5.908   2.031
 8506TIP3   OH225481   5.498   4.878   0.066
 8506TIP3    H125482   5.583   4.870   0.109
 8506TIP3    H225483   5.449   4.801   0.095
 8507TIP3   OH225484   4.244   0.620   0.406
 8507TIP3    H125485   4.235   0.714   0.424
 8507TIP3    H225486   4.334   0.599   0.433
 8508TIP3   OH225487   0.398   4.612   3.774
 8508TIP3    H125488   0.378   4.590   3.683
 8508TIP3    H225489   0.374   4.704   3.782
 8509TIP3   OH225490   3.793   6.708   0.529
 8509TIP3    H125491   3.792   6.677   0.619
 8509TIP3    H225492   3.868   6.663   0.489
 8510TIP3   OH225493   0.994   5.199   3.025
 8510TIP3    H125494   0.930   5.241   3.083
 8510TIP3    H225495   0.995   5.252   2.946
 8511TIP3   OH225496   4.574   5.483   2.882
 8511TIP3    H125497   4.562   5.563   2.830
 8511TIP3    H225498   4.543   5.506   2.969
 8512TIP3   OH225499   4.277   5.000   1.903
 8512TIP3    H125500   4.343   5.023   1.838
 8512TIP3    H225501   4.324   5.000   1.987
 8513TIP3   OH225502   2.576   5.732   3.997
 8513TIP3    H125503   2.504   5.732   3.934
 8513TIP3    H225504   2.614   5.819   3.990
 8514TIP3   OH225505   4.732   5.843   3.984
 8514TIP3    H125506   4.725   5.832   4.079
 8514TIP3    H225507   4.704   5.933   3.968
 8515TIP3   OH225508   5.663   6.131   0.941
 8515TIP3    H125509   5.756   6.123   0.919
 8515TIP3    H225510   5.658   6.103   1.033
 8516TIP3   OH225511   2.994   2.700   0.917
 8516TIP3    H125512   2.995   2.715   1.011
 8516TIP3    H225513   3.078   2.658   0.899
 8517TIP3   OH225514   3.376   4.062   4.136
 8517TIP3    H125515   3.352   4.148   4.103
 8517TIP3    H225516   3.293   4.022   4.163
 8518TIP3   OH225517   2.377   5.187   2.461
 8518TIP3    H125518   2.302   5.133   2.437
 8518TIP3    H225519   2.450   5.152   2.411
 8519TIP3   OH225520   6.472   3.886   3.760
 8519TIP3    H125521   6.448   3.894   3.668
 8519TIP3    H225522   6.496   3.975   3.786
 8520TIP3   OH225523   1.380   1.371   1.868
 8520TIP3    H125524   1.378   1.374   1.773
 8520TIP3    H225525   1.343   1.454   1.896
 8521TIP3   OH225526   5.111   4.346   5.031
 8521TIP3    H125527   5.154   4.431   5.023
 8521TIP3    H225528   5.165   4.286   4.980
 8522TIP3   OH225529   0.396   3.183   4.695
 8522TIP3    H125530   0.344   3.257   4.662
 8522TIP3    H225531   0.334   3.111   4.700
 8523TIP3   OH225532   0.478   4.534   4.958
 8523TIP3    H125533   0.389   4.504   4.942
 8523TIP3    H225534   0.517   4.541   4.870
 8524TIP3   OH225535   2.715   4.127   3.168
 8524TIP3    H125536   2.709   4.034   3.190
 8524TIP3    H225537   2.721   4.128   3.072
 8525TIP3   OH225538   3.085   3.105   4.256
 8525TIP3    H125539   3.110   3.193   4.285
 8525TIP3    H225540   3.025   3.074   4.323
 8526TIP3   OH225541   5.426   5.421   4.510
 8526TIP3    H125542   5.482   5.485   4.556
 8526TIP3    H225543   5.443   5.437   4.417
 8527TIP3   OH225544   0.209   0.909   5.436
 8527TIP3    H125545   0.130   0.936   5.389
 8527TIP3    H225546   0.279   0.920   5.371
 8528TIP3   OH225547   2.879   1.532   0.945
 8528TIP3    H125548   2.816   1.594   0.908
 8528TIP3    H225549   2.837   1.447   0.937
 8529TIP3   OH225550   2.133   0.681   1.024
 8529TIP3    H125551   2.055   0.666   0.970
 8529TIP3    H225552   2.148   0.776   1.017
 8530TIP3   OH225553   5.006   5.606   3.129
 8530TIP3    H125554   5.044   5.649   3.052
 8530TIP3    H225555   4.917   5.640   3.134
 8531TIP3   OH225556   6.210   0.037   0.165
 8531TIP3    H125557   6.259  -0.028   0.115
 8531TIP3    H225558   6.274   0.106   0.183
 8532TIP3   OH225559   4.376   4.679   3.161
 8532TIP3    H125560   4.451   4.632   3.197
 8532TIP3    H225561   4.305   4.615   3.161
 8533TIP3   OH225562   2.876   1.698   1.188
 8533TIP3    H125563   2.893   1.660   1.102
 8533TIP3    H225564   2.831   1.629   1.236
 8534TIP3   OH225565   0.986   3.831   3.099
 8534TIP3    H125566   0.968   3.830   3.005
 8534TIP3    H225567   0.908   3.793   3.139
 8535TIP3   OH225568   6.417   4.906   3.650
 8535TIP3    H125569   6.463   4.978   3.692
 8535TIP3    H225570   6.480   4.834   3.651
 8536TIP3   OH225571   3.562   4.325   3.073
 8536TIP3    H125572   3.477   4.295   3.039
 8536TIP3    H225573   3.539   4.392   3.138
 8537TIP3   OH225574   1.143   4.045   4.155
 8537TIP3    H125575   1.201   3.971   4.173
 8537TIP3    H225576   1.115   4.074   4.242
 8538TIP3   OH225577   0.936   6.789   3.940
 8538TIP3    H125578   0.885   6.779   3.860
 8538TIP3    H225579   1.027   6.779   3.913
 8539TIP3   OH225580   1.735   2.416   4.251
 8539TIP3    H125581   1.690   2.498   4.270
 8539TIP3    H225582   1.676   2.348   4.283
 8540TIP3   OH225583   4.261   4.465   1.352
 8540TIP3    H125584   4.279   4.544   1.303
 8540TIP3    H225585   4.250   4.494   1.442
 8541TIP3   OH225586   2.034   0.535   0.111
 8541TIP3    H125587   2.000   0.480   0.182
 8541TIP3    H225588   2.056   0.618   0.154
 8542TIP3   OH225589   4.420   1.643   1.012
 8542TIP3    H125590   4.380   1.613   1.093
 8542TIP3    H225591   4.368   1.602   0.943
 8543TIP3   OH225592   2.166   1.180   1.188
 8543TIP3    H125593   2.165   1.087   1.212
 8543TIP3    H225594   2.084   1.194   1.141
 8544TIP3   OH225595   1.947   6.137   0.780
 8544TIP3    H125596   1.980   6.226   0.775
 8544TIP3    H225597   2.026   6.082   0.775
 8545TIP3   OH225598   3.975   1.740   5.665
 8545TIP3    H125599   4.066   1.719   5.686
 8545TIP3    H225600   3.951   1.679   5.595
 8546TIP3   OH225601   4.429   4.267   1.197
 8546TIP3    H125602   4.353   4.311   1.234
 8546TIP3    H225603   4.414   4.174   1.215
 8547TIP3   OH225604   4.020   2.780   1.225
 8547TIP3    H125605   3.983   2.742   1.305
 8547TIP3    H225606   4.097   2.727   1.206
 8548TIP3   OH225607   6.625   0.160   2.487
 8548TIP3    H125608   6.717   0.188   2.490
 8548TIP3    H225609   6.606   0.129   2.575
 8549TIP3   OH225610   0.148   2.217   3.039
 8549TIP3    H125611   0.054   2.205   3.050
 8549TIP3    H225612   0.161   2.216   2.944
 8550TIP3   OH225613   1.946   1.831   4.214
 8550TIP3    H125614   1.986   1.918   4.209
 8550TIP3    H225615   1.907   1.818   4.128
 8551TIP3   OH225616   1.926   4.891   3.394
 8551TIP3    H125617   1.951   4.802   3.368
 8551TIP3    H225618   1.913   4.938   3.312
 8552TIP3   OH225619   2.115   5.876   3.687
 8552TIP3    H125620   2.201   5.913   3.668
 8552TIP3    H225621   2.122   5.784   3.660
 8553TIP3   OH225622   3.280   3.357   3.884
 8553TIP3    H125623   3.270   3.306   3.964
 8553TIP3    H225624   3.217   3.428   3.892
 8554TIP3   OH225625   1.406   2.688   1.207
 8554TIP3    H125626   1.425   2.659   1.118
 8554TIP3    H225627   1.352   2.766   1.195
 8555TIP3   OH225628   0.582   4.764   4.241
 8555TIP3    H125629   0.572   4.767   4.336
 8555TIP3    H225630   0.643   4.835   4.221
 8556TIP3   OH225631   5.583   4.781   1.836
 8556TIP3    H125632   5.619   4.788   1.748
 8556TIP3    H225633   5.655   4.804   1.894
 8557TIP3   OH225634   3.275   4.985   5.068
 8557TIP3    H125635   3.228   4.960   5.148
 8557TIP3    H225636   3.216   4.962   4.997
 8558TIP3   OH225637   3.090   6.704   3.507
 8558TIP3    H125638   3.022   6.641   3.532
 8558TIP3    H225639   3.171   6.666   3.539
 8559TIP3   OH225640   1.872   6.045   2.128
 8559TIP3    H125641   1.831   6.087   2.203
 8559TIP3    H225642   1.900   6.117   2.072
 8560TIP3   OH225643   0.628   3.481   5.071
 8560TIP3    H125644   0.538   3.479   5.040
 8560TIP3    H225645   0.674   3.419   5.013
 8561TIP3   OH225646   0.934   5.692   1.346
 8561TIP3    H125647   0.906   5.600   1.344
 8561TIP3    H225648   0.855   5.739   1.374
 8562TIP3   OH225649   4.593   3.396   4.876
 8562TIP3    H125650   4.635   3.312   4.893
 8562TIP3    H225651   4.507   3.388   4.916
 8563TIP3   OH225652   0.718   1.975   5.673
 8563TIP3    H125653   0.686   1.913   5.608
 8563TIP3    H225654   0.639   2.009   5.715
 8564TIP3   OH225655   5.034   1.719   1.797
 8564TIP3    H125656   5.067   1.715   1.887
 8564TIP3    H225657   4.956   1.774   1.802
 8565TIP3   OH225658   0.019   4.935   5.376
 8565TIP3    H125659   0.074   4.866   5.414
 8565TIP3    H225660   0.049   4.942   5.286
 8566TIP3   OH225661   2.885   6.521   5.096
 8566TIP3    H125662   2.915   6.611   5.113
 8566TIP3    H225663   2.950   6.484   5.037
 8567TIP3   OH225664   5.151   3.410   4.200
 8567TIP3    H125665   5.201   3.348   4.253
 8567TIP3    H225666   5.183   3.496   4.227
 8568TIP3   OH225667   2.501   3.304   5.764
 8568TIP3    H125668   2.511   3.234   5.699
 8568TIP3    H225669   2.549   3.378   5.727
 8569TIP3   OH225670   3.104   4.571   1.033
 8569TIP3    H125671   3.067   4.654   1.004
 8569TIP3    H225672   3.029   4.524   1.071
 8570TIP3   OH225673   1.120   5.475   0.899
 8570TIP3    H125674   1.150   5.546   0.957
 8570TIP3    H225675   1.156   5.498   0.814
 8571TIP3   OH225676   6.213   2.661   0.430
 8571TIP3    H125677   6.288   2.627   0.381
 8571TIP3    H225678   6.162   2.584   0.453
 8572TIP3   OH225679   0.992   2.644   3.934
 8572TIP3    H125680   1.072   2.668   3.886
 8572TIP3    H225681   0.993   2.699   4.012
 8573TIP3   OH225682   0.418   4.521   2.766
 8573TIP3    H125683   0.361   4.459   2.811
 8573TIP3    H225684   0.431   4.482   2.679
 8574TIP3   OH225685   0.213   5.229   0.064
 8574TIP3    H125686   0.174   5.143   0.051
 8574TIP3    H225687   0.158   5.288   0.012
 8575TIP3   OH225688   6.409   0.506   2.834
 8575TIP3    H125689   6.423   0.417   2.866
 8575TIP3    H225690   6.371   0.495   2.747
 8576TIP3   OH225691   2.264   2.360   0.335
 8576TIP3    H125692   2.352   2.327   0.318
 8576TIP3    H225693   2.232   2.308   0.408
 8577TIP3   OH225694   3.560   5.413   0.985
 8577TIP3    H125695   3.526   5.412   1.075
 8577TIP3    H225696   3.615   5.491   0.982
 8578TIP3   OH225697   3.415   6.246   2.602
 8578TIP3    H125698   3.506   6.224   2.582
 8578TIP3    H225699   3.364   6.202   2.533
 8579TIP3   OH225700   6.428   5.250   4.122
 8579TIP3    H125701   6.397   5.283   4.206
 8579TIP3    H225702   6.448   5.329   4.071
 8580TIP3   OH225703   0.053   1.157   3.776
 8580TIP3    H125704   0.076   1.216   3.704
 8580TIP3    H225705  -0.036   1.183   3.800
 8581TIP3   OH225706   0.415   6.595   1.876
 8581TIP3    H125707   0.414   6.641   1.792
 8581TIP3    H225708   0.477   6.645   1.929
 8582TIP3   OH225709   2.066   2.713   1.288
 8582TIP3    H125710   1.977   2.719   1.254
 8582TIP3    H225711   2.115   2.669   1.220
 8583TIP3   OH225712   3.250   0.462   4.682
 8583TIP3    H125713   3.204   0.394   4.633
 8583TIP3    H225714   3.217   0.454   4.771
 8584TIP3   OH225715   4.739   4.060   3.531
 8584TIP3    H125716   4.695   3.978   3.553
 8584TIP3    H225717   4.822   4.033   3.493
 8585TIP3   OH225718   6.335   2.392   3.835
 8585TIP3    H125719   6.415   2.375   3.885
 8585TIP3    H225720   6.362   2.387   3.744
 8586TIP3   OH225721   5.412   0.044   1.696
 8586TIP3    H125722   5.379   0.120   1.648
 8586TIP3    H225723   5.504   0.063   1.712
 8587TIP3   OH225724   4.567   4.527   3.283
 8587TIP3    H125725   4.632   4.503   3.217
 8587TIP3    H225726   4.555   4.447   3.334
 8588TIP3   OH225727   1.579   1.503   4.478
 8588TIP3    H125728   1.632   1.548   4.412
 8588TIP3    H225729   1.591   1.410   4.459
 8589TIP3   OH225730  -0.005   4.303   2.796
 8589TIP3    H125731   0.060   4.307   2.866
 8589TIP3    H225732   0.038   4.253   2.727
 8590TIP3   OH225733   2.537   5.240   4.112
 8590TIP3    H125734   2.495   5.325   4.103
 8590TIP3    H225735   2.627   5.254   4.082
 8591TIP3   OH225736   6.233   3.967   5.378
 8591TIP3    H125737   6.139   3.988   5.374
 8591TIP3    H225738   6.253   3.933   5.291
 8592TIP3   OH225739   3.286   0.247   4.034
 8592TIP3    H125740   3.296   0.156   4.006
 8592TIP3    H225741   3.192   0.263   4.030
 8593TIP3   OH225742   2.195   1.998   0.485
 8593TIP3    H125743   2.208   2.086   0.521
 8593TIP3    H225744   2.120   1.964   0.534
 8594TIP3   OH225745   1.086   3.857   2.428
 8594TIP3    H125746   1.029   3.902   2.489
 8594TIP3    H225747   1.170   3.849   2.474
 8595TIP3   OH225748   5.060   4.311   2.617
 8595TIP3    H125749   5.013   4.257   2.553
 8595TIP3    H225750   5.092   4.386   2.566
 8596TIP3   OH225751  -0.063   1.836   4.178
 8596TIP3    H125752  -0.050   1.917   4.228
 8596TIP3    H225753   0.004   1.776   4.210
 8597TIP3   OH225754   6.759   6.310   3.553
 8597TIP3    H125755   6.771   6.362   3.473
 8597TIP3    H225756   6.760   6.374   3.624
 8598TIP3   OH225757   6.664   4.670   4.087
 8598TIP3    H125758   6.697   4.606   4.151
 8598TIP3    H225759   6.573   4.645   4.073
 8599TIP3   OH225760   3.358   2.804   2.537
 8599TIP3    H125761   3.418   2.791   2.464
 8599TIP3    H225762   3.366   2.897   2.559
 8600TIP3   OH225763   1.332   5.500   1.346
 8600TIP3    H125764   1.377   5.457   1.274
 8600TIP3    H225765   1.240   5.476   1.335
 8601TIP3   OH225766   4.232   3.147   1.921
 8601TIP3    H125767   4.310   3.139   1.866
 8601TIP3    H225768   4.263   3.190   2.000
 8602TIP3   OH225769   7.064   0.414   0.561
 8602TIP3    H125770   7.073   0.320   0.550
 8602TIP3    H225771   6.970   0.430   0.562
 8603TIP3   OH225772   4.202   1.074   2.755
 8603TIP3    H125773   4.166   1.163   2.748
 8603TIP3    H225774   4.132   1.023   2.795
 8604TIP3   OH225775   3.820   3.198   0.632
 8604TIP3    H125776   3.793   3.290   0.636
 8604TIP3    H225777   3.814   3.176   0.539
 8605TIP3   OH225778   2.461   0.647   3.425
 8605TIP3    H125779   2.402   0.720   3.405
 8605TIP3    H225780   2.462   0.643   3.520
 8606TIP3   OH225781   3.032   4.209   4.685
 8606TIP3    H125782   3.102   4.232   4.746
 8606TIP3    H225783   3.016   4.289   4.635
 8607TIP3   OH225784   1.965   4.959   0.073
 8607TIP3    H125785   1.998   5.015   0.144
 8607TIP3    H225786   1.874   4.987   0.062
 8608TIP3   OH225787   1.179   6.613   0.650
 8608TIP3    H125788   1.118   6.554   0.606
 8608TIP3    H225789   1.157   6.700   0.617
 8609TIP3   OH225790   1.268   2.467   0.751
 8609TIP3    H125791   1.308   2.474   0.665
 8609TIP3    H225792   1.244   2.374   0.758
 8610TIP3   OH225793   3.044   0.446   0.750
 8610TIP3    H125794   2.978   0.497   0.799
 8610TIP3    H225795   3.045   0.361   0.793
 8611TIP3   OH225796   5.240   2.473   2.470
 8611TIP3    H125797   5.199   2.507   2.550
 8611TIP3    H225798   5.240   2.547   2.410
 8612TIP3   OH225799   6.097   6.092   0.710
 8612TIP3    H125800   6.161   6.124   0.646
 8612TIP3    H225801   6.150   6.046   0.775
 8613TIP3   OH225802   3.726   1.227   1.260
 8613TIP3    H125803   3.674   1.152   1.288
 8613TIP3    H225804   3.703   1.297   1.323
 8614TIP3   OH225805   5.232   0.465   3.981
 8614TIP3    H125806   5.317   0.421   3.975
 8614TIP3    H225807   5.168   0.395   3.966
 8615TIP3   OH225808   2.996   0.933   2.058
 8615TIP3    H125809   2.953   0.921   2.143
 8615TIP3    H225810   3.073   0.987   2.078
 8616TIP3   OH225811   4.965   1.484   1.602
 8616TIP3    H125812   4.974   1.572   1.566
 8616TIP3    H225813   4.998   1.426   1.533
 8617TIP3   OH225814   1.315   0.460   4.435
 8617TIP3    H125815   1.321   0.391   4.370
 8617TIP3    H225816   1.221   0.476   4.445
 8618TIP3   OH225817   0.715   0.677   2.310
 8618TIP3    H125818   0.721   0.632   2.395
 8618TIP3    H225819   0.637   0.731   2.318
 8619TIP3   OH225820   5.530   2.101   2.150
 8619TIP3    H125821   5.596   2.166   2.171
 8619TIP3    H225822   5.472   2.100   2.226
 8620TIP3   OH225823   0.527   4.918   4.806
 8620TIP3    H125824   0.488   4.849   4.753
 8620TIP3    H225825   0.520   4.885   4.896
 8621TIP3   OH225826   1.098   3.037   0.181
 8621TIP3    H125827   1.081   3.118   0.230
 8621TIP3    H225828   1.114   2.971   0.248
 8622TIP3   OH225829   3.091   5.518   1.637
 8622TIP3    H125830   3.181   5.545   1.657
 8622TIP3    H225831   3.097   5.424   1.619
 8623TIP3   OH225832   4.740   5.581   3.911
 8623TIP3    H125833   4.717   5.670   3.936
 8623TIP3    H225834   4.814   5.590   3.851
 8624TIP3   OH225835   0.045   1.782   1.051
 8624TIP3    H125836   0.071   1.852   1.111
 8624TIP3    H225837   0.060   1.818   0.964
 8625TIP3   OH225838   0.403   3.205   1.201
 8625TIP3    H125839   0.466   3.255   1.254
 8625TIP3    H225840   0.425   3.228   1.111
 8626TIP3   OH225841   4.926   1.958   5.072
 8626TIP3    H125842   4.845   1.986   5.114
 8626TIP3    H225843   4.921   1.862   5.072
 8627TIP3   OH225844   2.832   3.423   5.234
 8627TIP3    H125845   2.880   3.499   5.268
 8627TIP3    H225846   2.892   3.384   5.169
 8628TIP3   OH225847   1.103   0.082   3.776
 8628TIP3    H125848   1.092   0.042   3.690
 8628TIP3    H225849   1.084   0.175   3.762
 8629TIP3   OH225850   0.712   4.841   1.704
 8629TIP3    H125851   0.740   4.876   1.619
 8629TIP3    H225852   0.786   4.857   1.762
 8630TIP3   OH225853   0.516   5.600   3.819
 8630TIP3    H125854   0.478   5.683   3.790
 8630TIP3    H225855   0.569   5.623   3.895
 8631TIP3   OH225856   1.272   4.846   4.510
 8631TIP3    H125857   1.304   4.831   4.421
 8631TIP3    H225858   1.325   4.919   4.543
 8632TIP3   OH225859   0.630   3.812   0.308
 8632TIP3    H125860   0.687   3.852   0.243
 8632TIP3    H225861   0.690   3.765   0.367
 8633TIP3   OH225862   6.077   5.271   1.762
 8633TIP3    H125863   6.142   5.301   1.825
 8633TIP3    H225864   6.042   5.351   1.723
 8634TIP3   OH225865   1.778   4.562   0.321
 8634TIP3    H125866   1.702   4.619   0.336
 8634TIP3    H225867   1.852   4.611   0.356
 8635TIP3   OH225868   6.668   1.886   3.685
 8635TIP3    H125869   6.711   1.951   3.741
 8635TIP3    H225870   6.588   1.863   3.733
 8636TIP3   OH225871   6.081   4.644   4.681
 8636TIP3    H125872   6.072   4.662   4.588
 8636TIP3    H225873   5.997   4.605   4.707
 8637TIP3   OH225874   6.866   4.203   0.632
 8637TIP3    H125875   6.814   4.171   0.559
 8637TIP3    H225876   6.948   4.153   0.627
 8638TIP3   OH225877   6.834   1.236   2.987
 8638TIP3    H125878   6.902   1.185   2.944
 8638TIP3    H225879   6.792   1.175   3.047
 8639TIP3   OH225880   5.306   0.087   1.098
 8639TIP3    H125881   5.288   0.153   1.031
 8639TIP3    H225882   5.351   0.016   1.051
 8640TIP3   OH225883   3.765   3.964   1.316
 8640TIP3    H125884   3.714   4.044   1.303
 8640TIP3    H225885   3.799   3.943   1.230
 8641TIP3   OH225886   3.532   2.808   2.319
 8641TIP3    H125887   3.498   2.852   2.241
 8641TIP3    H225888   3.592   2.871   2.358
 8642TIP3   OH225889   1.456   4.530   3.756
 8642TIP3    H125890   1.393   4.600   3.740
 8642TIP3    H225891   1.431   4.461   3.695
 8643TIP3   OH225892   3.803   3.702   2.546
 8643TIP3    H125893   3.798   3.753   2.627
 8643TIP3    H225894   3.887   3.727   2.508
 8644TIP3   OH225895   7.086   2.920   0.477
 8644TIP3    H125896   7.029   2.994   0.498
 8644TIP3    H225897   7.026   2.848   0.457
 8645TIP3   OH225898   1.341   3.751   3.904
 8645TIP3    H125899   1.257   3.780   3.870
 8645TIP3    H225900   1.405   3.788   3.843
 8646TIP3   OH225901   5.365   0.687   4.937
 8646TIP3    H125902   5.365   0.770   4.986
 8646TIP3    H225903   5.284   0.644   4.964
 8647TIP3   OH225904   4.890   3.749   3.250
 8647TIP3    H125905   4.917   3.665   3.287
 8647TIP3    H225906   4.942   3.756   3.170
 8648TIP3   OH225907   1.868   4.154   2.569
 8648TIP3    H125908   1.898   4.164   2.479
 8648TIP3    H225909   1.934   4.199   2.622
 8649TIP3   OH225910   4.596   1.693   4.061
 8649TIP3    H125911   4.572   1.745   3.985
 8649TIP3    H225912   4.531   1.717   4.128
 8650TIP3   OH225913   3.494   4.488   1.431
 8650TIP3    H125914   3.507   4.583   1.426
 8650TIP3    H225915   3.555   4.452   1.367
 8651TIP3   OH225916   0.928   3.582   0.112
 8651TIP3    H125917   0.905   3.642   0.041
 8651TIP3    H225918   0.954   3.501   0.068
 8652TIP3   OH225919   6.780   0.944   3.632
 8652TIP3    H125920   6.758   0.979   3.718
 8652TIP3    H225921   6.766   1.017   3.572
 8653TIP3   OH225922   3.949   0.377   3.600
 8653TIP3    H125923   3.858   0.369   3.573
 8653TIP3    H225924   3.957   0.316   3.673
 8654TIP3   OH225925   3.715   0.540   3.841
 8654TIP3    H125926   3.647   0.605   3.856
 8654TIP3    H225927   3.737   0.509   3.929
 8655TIP3   OH225928   4.870   5.210   1.668
 8655TIP3    H125929   4.933   5.271   1.706
 8655TIP3    H225930   4.873   5.228   1.574
 8656TIP3   OH225931   7.149   1.784   2.799
 8656TIP3    H125932   7.105   1.726   2.736
 8656TIP3    H225933   7.227   1.735   2.825
 8657TIP3   OH225934   4.009   3.097   4.290
 8657TIP3    H125935   4.070   3.096   4.216
 8657TIP3    H225936   3.939   3.037   4.264
 8658TIP3   OH225937   3.660   1.666   2.961
 8658TIP3    H125938   3.640   1.722   3.037
 8658TIP3    H225939   3.620   1.711   2.887
 8659TIP3   OH225940   2.044   4.912   1.879
 8659TIP3    H125941   2.034   4.818   1.897
 8659TIP3    H225942   2.084   4.915   1.793
 8660TIP3   OH225943   1.147   6.156   4.883
 8660TIP3    H125944   1.230   6.125   4.847
 8660TIP3    H225945   1.142   6.116   4.970
 8661TIP3   OH225946   3.854   2.268   5.762
 8661TIP3    H125947   3.850   2.262   5.858
 8661TIP3    H225948   3.851   2.177   5.732
 8662TIP3   OH225949   5.594   4.175   0.631
 8662TIP3    H125950   5.547   4.092   0.629
 8662TIP3    H225951   5.618   4.186   0.723
 8663TIP3   OH225952   1.750   1.686   5.602
 8663TIP3    H125953   1.833   1.732   5.613
 8663TIP3    H225954   1.697   1.745   5.548
 8664TIP3   OH225955   2.910   3.926   3.499
 8664TIP3    H125956   2.992   3.946   3.544
 8664TIP3    H225957   2.845   3.922   3.569
 8665TIP3   OH225958   0.575   1.898   4.192
 8665TIP3    H125959   0.566   1.817   4.141
 8665TIP3    H225960   0.506   1.892   4.258
 8666TIP3   OH225961   0.327   2.417   5.160
 8666TIP3    H125962   0.334   2.421   5.065
 8666TIP3    H225963   0.233   2.415   5.177
 8667TIP3   OH225964   6.734   1.270   1.921
 8667TIP3    H125965   6.756   1.236   2.008
 8667TIP3    H225966   6.816   1.303   1.887
 8668TIP3   OH225967   7.177   1.640   3.134
 8668TIP3    H125968   7.144   1.550   3.138
 8668TIP3    H225969   7.272   1.631   3.134
 8669TIP3   OH225970   5.748   6.071   1.773
 8669TIP3    H125971   5.814   6.005   1.753
 8669TIP3    H225972   5.744   6.124   1.693
 8670TIP3   OH225973   1.386   0.425   1.280
 8670TIP3    H125974   1.333   0.504   1.286
 8670TIP3    H225975   1.459   0.439   1.340
 8671TIP3   OH225976   5.386   1.419   5.254
 8671TIP3    H125977   5.431   1.388   5.333
 8671TIP3    H225978   5.423   1.366   5.184
 8672TIP3   OH225979   5.828   0.374   1.345
 8672TIP3    H125980   5.922   0.364   1.329
 8672TIP3    H225981   5.789   0.373   1.258
 8673TIP3   OH225982   2.513   1.764   4.667
 8673TIP3    H125983   2.602   1.729   4.668
 8673TIP3    H225984   2.513   1.831   4.735
 8674TIP3   OH225985   2.817   5.797   1.301
 8674TIP3    H125986   2.821   5.849   1.221
 8674TIP3    H225987   2.816   5.862   1.371
 8675TIP3   OH225988   3.879   0.509   4.927
 8675TIP3    H125989   3.920   0.424   4.912
 8675TIP3    H225990   3.785   0.493   4.915
 8676TIP3   OH225991   0.792   1.030   0.162
 8676TIP3    H125992   0.723   1.035   0.229
 8676TIP3    H225993   0.874   1.038   0.211
 8677TIP3   OH225994   1.521   1.676   4.678
 8677TIP3    H125995   1.538   1.608   4.613
 8677TIP3    H225996   1.530   1.632   4.762
 8678TIP3   OH225997   0.264   3.795   2.520
 8678TIP3    H125998   0.192   3.855   2.501
 8678TIP3    H225999   0.323   3.846   2.576
 8679TIP3   OH226000   4.117   2.214   3.796
 8679TIP3    H126001   4.187   2.211   3.731
 8679TIP3    H226002   4.128   2.300   3.839
 8680TIP3   OH226003   2.132   3.631   5.514
 8680TIP3    H126004   2.107   3.563   5.451
 8680TIP3    H226005   2.116   3.592   5.599
 8681TIP3   OH226006   6.596   0.277   4.218
 8681TIP3    H126007   6.551   0.342   4.273
 8681TIP3    H226008   6.678   0.320   4.194
 8682TIP3   OH226009   6.448   1.001   0.681
 8682TIP3    H126010   6.400   1.082   0.663
 8682TIP3    H226011   6.477   1.010   0.772
 8683TIP3   OH226012   2.183   3.806   5.237
 8683TIP3    H126013   2.234   3.782   5.314
 8683TIP3    H226014   2.238   3.868   5.189
 8684TIP3   OH226015   0.959   0.474   3.324
 8684TIP3    H126016   0.938   0.539   3.391
 8684TIP3    H226017   0.941   0.389   3.365
 8685TIP3   OH226018   5.351   0.157   3.555
 8685TIP3    H126019   5.357   0.147   3.650
 8685TIP3    H226020   5.399   0.082   3.520
 8686TIP3   OH226021   0.169   4.400   4.050
 8686TIP3    H126022   0.100   4.453   4.010
 8686TIP3    H226023   0.246   4.456   4.049
 8687TIP3   OH226024   3.630   1.558   0.044
 8687TIP3    H126025   3.685   1.558   0.122
 8687TIP3    H226026   3.639   1.469   0.009
 8688TIP3   OH226027   0.120   5.168   3.409
 8688TIP3    H126028   0.167   5.221   3.474
 8688TIP3    H226029   0.189   5.114   3.369
 8689TIP3   OH226030   5.871   4.712   3.708
 8689TIP3    H126031   5.910   4.626   3.691
 8689TIP3    H226032   5.944   4.766   3.738
 8690TIP3   OH226033   6.619   5.240   1.410
 8690TIP3    H126034   6.549   5.301   1.430
 8690TIP3    H226035   6.638   5.254   1.317
 8691TIP3   OH226036   2.495   6.041   5.286
 8691TIP3    H126037   2.443   6.102   5.339
 8691TIP3    H226038   2.575   6.089   5.267
 8692TIP3   OH226039   2.898   4.994   1.910
 8692TIP3    H126040   2.858   5.080   1.898
 8692TIP3    H226041   2.992   5.011   1.904
 8693TIP3   OH226042   6.104   6.446   4.797
 8693TIP3    H126043   6.140   6.510   4.858
 8693TIP3    H226044   6.088   6.368   4.850
 8694TIP3   OH226045   1.183   6.797   3.829
 8694TIP3    H126046   1.171   6.819   3.736
 8694TIP3    H226047   1.207   6.704   3.828
 8695TIP3   OH226048   3.169   6.553   3.928
 8695TIP3    H126049   3.147   6.525   3.839
 8695TIP3    H226050   3.085   6.573   3.969
 8696TIP3   OH226051   2.639   5.582   2.050
 8696TIP3    H126052   2.547   5.593   2.027
 8696TIP3    H226053   2.674   5.670   2.054
 8697TIP3   OH226054   1.354   1.177   3.836
 8697TIP3    H126055   1.293   1.245   3.806
 8697TIP3    H226056   1.420   1.172   3.766
 8698TIP3   OH226057   5.547   2.880   4.133
 8698TIP3    H126058   5.539   2.785   4.134
 8698TIP3    H226059   5.606   2.900   4.205
 8699TIP3   OH226060   1.332   5.651   5.854
 8699TIP3    H126061   1.383   5.598   5.915
 8699TIP3    H226062   1.288   5.587   5.798
 8700TIP3   OH226063   3.969   6.452   0.674
 8700TIP3    H126064   4.016   6.388   0.727
 8700TIP3    H226065   3.975   6.418   0.585
 8701TIP3   OH226066   1.150   5.919   2.823
 8701TIP3    H126067   1.146   5.862   2.746
 8701TIP3    H226068   1.187   6.001   2.791
 8702TIP3   OH226069   3.747   4.504   5.538
 8702TIP3    H126070   3.689   4.493   5.463
 8702TIP3    H226071   3.764   4.415   5.568
 8703TIP3   OH226072   1.137   0.129   1.379
 8703TIP3    H126073   1.064   0.190   1.365
 8703TIP3    H226074   1.133   0.108   1.473
 8704TIP3   OH226075   3.811   0.096   2.584
 8704TIP3    H126076   3.852   0.161   2.642
 8704TIP3    H226077   3.865   0.018   2.593
 8705TIP3   OH226078   7.030   0.888   5.815
 8705TIP3    H126079   7.059   0.936   5.738
 8705TIP3    H226080   6.956   0.836   5.784
 8706TIP3   OH226081   1.737   2.002   3.093
 8706TIP3    H126082   1.813   2.041   3.134
 8706TIP3    H226083   1.717   1.925   3.147
 8707TIP3   OH226084   4.828   3.322   4.675
 8707TIP3    H126085   4.785   3.393   4.628
 8707TIP3    H226086   4.907   3.304   4.624
 8708TIP3   OH226087   1.429   4.907   4.270
 8708TIP3    H126088   1.447   4.891   4.177
 8708TIP3    H226089   1.412   5.001   4.276
 8709TIP3   OH226090   2.096   1.242   3.855
 8709TIP3    H126091   2.015   1.234   3.906
 8709TIP3    H226092   2.164   1.204   3.911
 8710TIP3   OH226093   1.462   5.191   3.002
 8710TIP3    H126094   1.543   5.234   2.974
 8710TIP3    H226095   1.411   5.181   2.922
 8711TIP3   OH226096   1.316   1.636   1.753
 8711TIP3    H126097   1.378   1.620   1.683
 8711TIP3    H226098   1.283   1.724   1.737
 8712TIP3   OH226099   7.125   6.083   4.707
 8712TIP3    H126100   7.146   6.145   4.636
 8712TIP3    H226101   7.167   6.120   4.784
 8713TIP3   OH226102   6.191   4.136   3.129
 8713TIP3    H126103   6.211   4.085   3.050
 8713TIP3    H226104   6.228   4.084   3.201
 8714TIP3   OH226105   2.374   2.146   2.536
 8714TIP3    H126106   2.380   2.052   2.523
 8714TIP3    H226107   2.283   2.167   2.516
 8715TIP3   OH226108   1.385   5.543   4.502
 8715TIP3    H126109   1.369   5.547   4.596
 8715TIP3    H226110   1.460   5.600   4.488
 8716TIP3   OH226111   5.596   2.533   4.426
 8716TIP3    H126112   5.565   2.605   4.480
 8716TIP3    H226113   5.577   2.560   4.336
 8717TIP3   OH226114   5.147   0.164   0.386
 8717TIP3    H126115   5.148   0.232   0.319
 8717TIP3    H226116   5.086   0.098   0.351
 8718TIP3   OH226117   5.015   4.039   4.271
 8718TIP3    H126118   4.970   4.053   4.355
 8718TIP3    H226119   5.099   4.083   4.282
 8719TIP3   OH226120   0.686   2.450   1.158
 8719TIP3    H126121   0.761   2.509   1.154
 8719TIP3    H226122   0.617   2.501   1.200
 8720TIP3   OH226123   0.395   4.781   0.204
 8720TIP3    H126124   0.441   4.799   0.122
 8720TIP3    H226125   0.302   4.792   0.183
 8721TIP3   OH226126   0.604   4.320   5.545
 8721TIP3    H126127   0.624   4.389   5.608
 8721TIP3    H226128   0.550   4.363   5.479
 8722TIP3   OH226129   4.264   4.569   5.662
 8722TIP3    H126130   4.309   4.542   5.582
 8722TIP3    H226131   4.181   4.522   5.660
 8723TIP3   OH226132   0.324   6.033   2.502
 8723TIP3    H126133   0.254   5.972   2.528
 8723TIP3    H226134   0.379   6.041   2.579
 8724TIP3   OH226135   2.370   4.939   5.060
 8724TIP3    H126136   2.418   4.990   4.994
 8724TIP3    H226137   2.437   4.886   5.103
 8725TIP3   OH226138   0.201   3.224   4.185
 8725TIP3    H126139   0.249   3.249   4.106
 8725TIP3    H226140   0.265   3.179   4.239
 8726TIP3   OH226141   3.922   6.594   5.410
 8726TIP3    H126142   3.929   6.682   5.445
 8726TIP3    H226143   3.838   6.562   5.442
 8727TIP3   OH226144   5.635   5.890   3.441
 8727TIP3    H126145   5.612   5.806   3.402
 8727TIP3    H226146   5.672   5.868   3.527
 8728TIP3   OH226147   0.274   3.233   3.067
 8728TIP3    H126148   0.189   3.190   3.077
 8728TIP3    H226149   0.333   3.182   3.123
 8729TIP3   OH226150   0.495   2.425   4.747
 8729TIP3    H126151   0.428   2.371   4.705
 8729TIP3    H226152   0.577   2.378   4.729
 8730TIP3   OH226153   7.112   6.478   5.418
 8730TIP3    H126154   7.061   6.552   5.384
 8730TIP3    H226155   7.182   6.467   5.354
 8731TIP3   OH226156   6.777   3.136   5.105
 8731TIP3    H126157   6.845   3.169   5.047
 8731TIP3    H226158   6.749   3.054   5.064
 8732TIP3   OH226159   3.389   1.007   3.807
 8732TIP3    H126160   3.421   0.987   3.895
 8732TIP3    H226161   3.332   0.934   3.785
 8733TIP3   OH226162   2.012   2.439   4.473
 8733TIP3    H126163   2.046   2.525   4.448
 8733TIP3    H226164   1.918   2.443   4.454
 8734TIP3   OH226165   6.629   2.243   3.796
 8734TIP3    H126166   6.671   2.288   3.870
 8734TIP3    H226167   6.621   2.152   3.825
 8735TIP3   OH226168   2.444   6.180   4.745
 8735TIP3    H126169   2.365   6.151   4.791
 8735TIP3    H226170   2.435   6.145   4.656
 8736TIP3   OH226171   4.113   3.733   1.431
 8736TIP3    H126172   4.155   3.751   1.347
 8736TIP3    H226173   4.149   3.798   1.491
 8737TIP3   OH226174   5.822   0.736   1.816
 8737TIP3    H126175   5.898   0.766   1.766
 8737TIP3    H226176   5.766   0.813   1.823
 8738TIP3   OH226177   5.767   1.940   4.449
 8738TIP3    H126178   5.811   1.855   4.457
 8738TIP3    H226179   5.793   1.988   4.527
 8739TIP3   OH226180   5.699   4.927   0.554
 8739TIP3    H126181   5.741   4.842   0.563
 8739TIP3    H226182   5.771   4.990   0.559
 8740TIP3   OH226183   3.249   1.402   3.332
 8740TIP3    H126184   3.337   1.428   3.304
 8740TIP3    H226185   3.224   1.333   3.270
 8741TIP3   OH226186   0.878   6.245   3.479
 8741TIP3    H126187   0.914   6.201   3.402
 8741TIP3    H226188   0.947   6.238   3.545
 8742TIP3   OH226189   6.481   4.049   4.199
 8742TIP3    H126190   6.544   4.094   4.144
 8742TIP3    H226191   6.499   4.081   4.288
 8743TIP3   OH226192   3.046   0.364   5.392
 8743TIP3    H126193   3.019   0.420   5.320
 8743TIP3    H226194   2.977   0.298   5.399
 8744TIP3   OH226195   6.781   1.572   0.514
 8744TIP3    H126196   6.712   1.543   0.574
 8744TIP3    H226197   6.800   1.661   0.541
 8745TIP3   OH226198   6.438   0.445   2.200
 8745TIP3    H126199   6.414   0.430   2.108
 8745TIP3    H226200   6.521   0.493   2.196
 8746TIP3   OH226201   0.781   3.440   0.354
 8746TIP3    H126202   0.808   3.489   0.276
 8746TIP3    H226203   0.782   3.505   0.425
 8747TIP3   OH226204   4.900   6.340   3.320
 8747TIP3    H126205   4.884   6.252   3.285
 8747TIP3    H226206   4.814   6.382   3.322
 8748TIP3   OH226207   2.881   2.732   4.819
 8748TIP3    H126208   2.877   2.698   4.909
 8748TIP3    H226209   2.897   2.826   4.829
 8749TIP3   OH226210   4.321   5.872   2.528
 8749TIP3    H126211   4.278   5.835   2.451
 8749TIP3    H226212   4.390   5.928   2.492
 8750TIP3   OH226213   4.701   3.561   1.983
 8750TIP3    H126214   4.661   3.646   1.966
 8750TIP3    H226215   4.791   3.569   1.951
 8751TIP3   OH226216   3.745  -0.025   5.690
 8751TIP3    H126217   3.825   0.023   5.666
 8751TIP3    H226218   3.776  -0.101   5.738
 8752TIP3   OH226219   0.294   6.842   2.066
 8752TIP3    H126220   0.384   6.810   2.067
 8752TIP3    H226221   0.242   6.768   2.095
 8753TIP3   OH226222   0.344   1.349   2.380
 8753TIP3    H126223   0.373   1.266   2.417
 8753TIP3    H226224   0.363   1.341   2.286
 8754TIP3   OH226225   4.272   4.189   3.867
 8754TIP3    H126226   4.361   4.215   3.846
 8754TIP3    H226227   4.269   4.095   3.847
 8755TIP3   OH226228   2.264   6.251   4.062
 8755TIP3    H126229   2.173   6.266   4.089
 8755TIP3    H226230   2.292   6.335   4.025
 8756TIP3   OH226231   5.422   0.926   2.937
 8756TIP3    H126232   5.401   0.897   3.026
 8756TIP3    H226233   5.446   1.018   2.947
 8757TIP3   OH226234   6.223   3.176   0.318
 8757TIP3    H126235   6.233   3.108   0.251
 8757TIP3    H226236   6.263   3.138   0.397
 8758TIP3   OH226237   3.411   5.199   3.244
 8758TIP3    H126238   3.319   5.182   3.226
 8758TIP3    H226239   3.458   5.131   3.195
 8759TIP3   OH226240   1.131   0.092   1.954
 8759TIP3    H126241   1.047   0.051   1.974
 8759TIP3    H226242   1.126   0.178   1.997
 8760TIP3   OH226243   5.676   5.889   4.368
 8760TIP3    H126244   5.691   5.960   4.305
 8760TIP3    H226245   5.760   5.844   4.374
 8761TIP3   OH226246   6.754   3.516   2.104
 8761TIP3    H126247   6.802   3.436   2.083
 8761TIP3    H226248   6.710   3.540   2.023
 8762TIP3   OH226249   5.085   6.030   2.080
 8762TIP3    H126250   5.154   6.073   2.029
 8762TIP3    H226251   5.003   6.061   2.042
 8763TIP3   OH226252   4.852   1.593   4.222
 8763TIP3    H126253   4.794   1.666   4.244
 8763TIP3    H226254   4.794   1.527   4.185
 8764TIP3   OH226255   6.895   3.764   0.269
 8764TIP3    H126256   6.911   3.772   0.363
 8764TIP3    H226257   6.967   3.814   0.229
 8765TIP3   OH226258   1.493   4.861   1.424
 8765TIP3    H126259   1.549   4.801   1.376
 8765TIP3    H226260   1.549   4.936   1.444
 8766TIP3   OH226261   3.438   1.488   1.659
 8766TIP3    H126262   3.361   1.543   1.647
 8766TIP3    H226263   3.503   1.546   1.700
 8767TIP3   OH226264   0.381   1.115   2.178
 8767TIP3    H126265   0.389   1.187   2.116
 8767TIP3    H226266   0.471   1.097   2.205
 8768TIP3   OH226267   0.164   1.968   3.268
 8768TIP3    H126268   0.173   2.061   3.246
 8768TIP3    H226269   0.101   1.934   3.205
 8769TIP3   OH226270   6.108   2.204   0.984
 8769TIP3    H126271   6.043   2.267   0.952
 8769TIP3    H226272   6.161   2.254   1.047
 8770TIP3   OH226273   0.243   0.487   2.497
 8770TIP3    H126274   0.253   0.466   2.404
 8770TIP3    H226275   0.288   0.571   2.507
 8771TIP3   OH226276   2.293   2.272   0.059
 8771TIP3    H126277   2.270   2.311   0.143
 8771TIP3    H226278   2.345   2.194   0.082
 8772TIP3   OH226279   0.306   4.640   5.240
 8772TIP3    H126280   0.252   4.607   5.169
 8772TIP3    H226281   0.245   4.653   5.313
 8773TIP3   OH226282   4.176   0.405   0.840
 8773TIP3    H126283   4.207   0.319   0.867
 8773TIP3    H226284   4.163   0.453   0.922
 8774TIP3   OH226285   0.341   6.061   5.782
 8774TIP3    H126286   0.312   6.034   5.869
 8774TIP3    H226287   0.329   6.156   5.780
 8775TIP3   OH226288   2.509   1.109   3.335
 8775TIP3    H126289   2.440   1.175   3.334
 8775TIP3    H226290   2.557   1.126   3.416
 8776TIP3   OH226291   2.634   1.448   3.667
 8776TIP3    H126292   2.654   1.501   3.744
 8776TIP3    H226293   2.605   1.511   3.601
 8777TIP3   OH226294   2.847   4.698   0.967
 8777TIP3    H126295   2.825   4.765   0.903
 8777TIP3    H226296   2.787   4.715   1.040
 8778TIP3   OH226297   6.511   1.403   1.968
 8778TIP3    H126298   6.445   1.334   1.965
 8778TIP3    H226299   6.593   1.360   1.943
 8779TIP3   OH226300   1.182   0.532   0.945
 8779TIP3    H126301   1.183   0.621   0.981
 8779TIP3    H226302   1.120   0.485   0.999
 8780TIP3   OH226303   6.976   2.252   5.650
 8780TIP3    H126304   6.942   2.337   5.680
 8780TIP3    H226305   6.907   2.218   5.593
 8781TIP3   OH226306   1.071   4.040   2.881
 8781TIP3    H126307   1.085   4.134   2.893
 8781TIP3    H226308   1.159   4.003   2.876
 8782TIP3   OH226309   6.281   0.037   4.101
 8782TIP3    H126310   6.190   0.016   4.079
 8782TIP3    H226311   6.315   0.082   4.024
 8783TIP3   OH226312   3.780   0.201   2.220
 8783TIP3    H126313   3.757   0.276   2.166
 8783TIP3    H226314   3.700   0.149   2.225
 8784TIP3   OH226315   1.428   2.626   0.945
 8784TIP3    H126316   1.436   2.701   0.887
 8784TIP3    H226317   1.367   2.567   0.900
 8785TIP3   OH226318   2.417   5.324   4.869
 8785TIP3    H126319   2.420   5.239   4.825
 8785TIP3    H226320   2.383   5.385   4.804
 8786TIP3   OH226321   5.298   4.684   0.139
 8786TIP3    H126322   5.237   4.734   0.085
 8786TIP3    H226323   5.243   4.636   0.200
 8787TIP3   OH226324   0.593   3.257   0.272
 8787TIP3    H126325   0.662   3.320   0.292
 8787TIP3    H226326   0.571   3.274   0.180
 8788TIP3   OH226327   6.538   2.061   5.495
 8788TIP3    H126328   6.510   2.050   5.586
 8788TIP3    H226329   6.492   1.992   5.448
 8789TIP3   OH226330   5.429   2.469   3.735
 8789TIP3    H126331   5.341   2.503   3.719
 8789TIP3    H226332   5.486   2.546   3.728
 8790TIP3   OH226333   5.253   4.848   2.369
 8790TIP3    H126334   5.232   4.889   2.285
 8790TIP3    H226335   5.171   4.810   2.398
 8791TIP3   OH226336   1.476   2.891   4.265
 8791TIP3    H126337   1.422   2.851   4.334
 8791TIP3    H226338   1.496   2.978   4.298
 8792TIP3   OH226339   5.545   5.463   1.950
 8792TIP3    H126340   5.466   5.437   1.997
 8792TIP3    H226341   5.546   5.407   1.873
 8793TIP3   OH226342   6.838   4.297   3.645
 8793TIP3    H126343   6.890   4.317   3.566
 8793TIP3    H226344   6.751   4.330   3.625
 8794TIP3   OH226345   2.940   1.488   0.429
 8794TIP3    H126346   2.872   1.551   0.455
 8794TIP3    H226347   2.943   1.496   0.333
 8795TIP3   OH226348   1.926   1.371   1.971
 8795TIP3    H126349   1.843   1.418   1.981
 8795TIP3    H226350   1.901   1.283   1.945
 8796TIP3   OH226351   2.849   3.214   4.983
 8796TIP3    H126352   2.917   3.203   5.049
 8796TIP3    H226353   2.768   3.194   5.029
 8797TIP3   OH226354   1.351   3.926   0.165
 8797TIP3    H126355   1.329   4.012   0.200
 8797TIP3    H226356   1.267   3.883   0.150
 8798TIP3   OH226357   1.865   2.204   2.819
 8798TIP3    H126358   1.845   2.141   2.889
 8798TIP3    H226359   1.940   2.253   2.852
 8799TIP3   OH226360   5.098   3.985   1.809
 8799TIP3    H126361   5.194   3.987   1.810
 8799TIP3    H226362   5.074   3.933   1.886
 8800TIP3   OH226363   2.266   3.231   4.415
 8800TIP3    H126364   2.291   3.316   4.452
 8800TIP3    H226365   2.218   3.253   4.335
 8801TIP3   OH226366   0.324   6.736   2.770
 8801TIP3    H126367   0.398   6.735   2.832
 8801TIP3    H226368   0.255   6.688   2.815
 8802TIP3   OH226369   6.374   4.484   1.612
 8802TIP3    H126370   6.305   4.443   1.664
 8802TIP3    H226371   6.343   4.573   1.598
 8803TIP3   OH226372   3.082   4.647   0.401
 8803TIP3    H126373   2.993   4.631   0.370
 8803TIP3    H226374   3.137   4.626   0.326
 8804TIP3   OH226375   0.547   1.433   0.387
 8804TIP3    H126376   0.521   1.388   0.306
 8804TIP3    H226377   0.551   1.363   0.452
 8805TIP3   OH226378   6.090   2.466   2.267
 8805TIP3    H126379   6.095   2.561   2.253
 8805TIP3    H226380   6.162   2.447   2.327
 8806TIP3   OH226381   6.679   6.645   5.356
 8806TIP3    H126382   6.723   6.699   5.422
 8806TIP3    H226383   6.697   6.555   5.382
 8807TIP3   OH226384   4.440   6.508   0.102
 8807TIP3    H126385   4.447   6.517   0.007
 8807TIP3    H226386   4.527   6.480   0.130
 8808TIP3   OH226387   2.334   0.309   2.818
 8808TIP3    H126388   2.420   0.296   2.777
 8808TIP3    H226389   2.301   0.390   2.778
 8809TIP3   OH226390   3.004   3.913   3.902
 8809TIP3    H126391   3.054   3.931   3.822
 8809TIP3    H226392   2.973   3.823   3.891
 8810TIP3   OH226393   1.163   1.852   2.001
 8810TIP3    H126394   1.113   1.772   1.986
 8810TIP3    H226395   1.163   1.896   1.916
 8811TIP3   OH226396   2.470   1.816   0.443
 8811TIP3    H126397   2.405   1.824   0.374
 8811TIP3    H226398   2.422   1.781   0.518
 8812TIP3   OH226399   6.560   3.781   5.894
 8812TIP3    H126400   6.574   3.872   5.919
 8812TIP3    H226401   6.473   3.780   5.855
 8813TIP3   OH226402   0.307   4.646   1.975
 8813TIP3    H126403   0.401   4.631   1.989
 8813TIP3    H226404   0.291   4.618   1.885
 8814TIP3   OH226405   6.528   1.041   2.352
 8814TIP3    H126406   6.483   1.032   2.268
 8814TIP3    H226407   6.458   1.048   2.416
 8815TIP3   OH226408   0.983   1.441   4.924
 8815TIP3    H126409   0.969   1.531   4.895
 8815TIP3    H226410   1.063   1.413   4.878
 8816TIP3   OH226411   6.526   4.211   2.499
 8816TIP3    H126412   6.557   4.126   2.530
 8816TIP3    H226413   6.595   4.273   2.524
 8817TIP3   OH226414   0.814   6.007   3.744
 8817TIP3    H126415   0.780   6.042   3.663
 8817TIP3    H226416   0.805   5.912   3.735
 8818TIP3   OH226417   2.693   6.310   4.783
 8818TIP3    H126418   2.771   6.255   4.781
 8818TIP3    H226419   2.620   6.250   4.771
 8819TIP3   OH226420   1.850   4.839   2.801
 8819TIP3    H126421   1.759   4.834   2.831
 8819TIP3    H226422   1.900   4.792   2.868
 8820TIP3   OH226423   4.406   6.689   3.538
 8820TIP3    H126424   4.461   6.696   3.460
 8820TIP3    H226425   4.431   6.765   3.591
 8821TIP3   OH226426   5.580   0.972   4.549
 8821TIP3    H126427   5.600   0.947   4.458
 8821TIP3    H226428   5.594   1.067   4.551
 8822TIP3   OH226429   5.927   4.449   5.732
 8822TIP3    H126430   5.863   4.378   5.734
 8822TIP3    H226431   5.968   4.442   5.646
 8823TIP3   OH226432   4.870   1.680   4.973
 8823TIP3    H126433   4.922   1.608   4.938
 8823TIP3    H226434   4.790   1.638   5.004
 8824TIP3   OH226435   1.708   5.086   0.289
 8824TIP3    H126436   1.682   5.112   0.377
 8824TIP3    H226437   1.660   5.145   0.231
 8825TIP3   OH226438   7.079   4.571   5.279
 8825TIP3    H126439   7.033   4.561   5.363
 8825TIP3    H226440   7.018   4.622   5.225
 8826TIP3   OH226441   6.421   2.498   4.946
 8826TIP3    H126442   6.361   2.555   4.897
 8826TIP3    H226443   6.452   2.553   5.018
 8827TIP3   OH226444   4.091   3.144   2.561
 8827TIP3    H126445   4.063   3.217   2.506
 8827TIP3    H226446   4.013   3.090   2.572
 8828TIP3   OH226447   4.404   5.633   3.564
 8828TIP3    H126448   4.489   5.651   3.604
 8828TIP3    H226449   4.416   5.653   3.472
 8829TIP3   OH226450   1.088   2.464   5.084
 8829TIP3    H126451   0.996   2.488   5.081
 8829TIP3    H226452   1.096   2.408   5.161
 8830TIP3   OH226453   3.323   1.837   0.767
 8830TIP3    H126454   3.259   1.843   0.697
 8830TIP3    H226455   3.271   1.837   0.848
 8831TIP3   OH226456   6.693   5.880   3.700
 8831TIP3    H126457   6.758   5.810   3.701
 8831TIP3    H226458   6.640   5.863   3.622
 8832TIP3   OH226459   0.744   5.218   4.567
 8832TIP3    H126460   0.796   5.289   4.604
 8832TIP3    H226461   0.719   5.249   4.480
 8833TIP3   OH226462   0.665   4.989   2.098
 8833TIP3    H126463   0.580   4.946   2.110
 8833TIP3    H226464   0.661   5.025   2.010
 8834TIP3   OH226465   3.229   1.735   3.382
 8834TIP3    H126466   3.274   1.676   3.321
 8834TIP3    H226467   3.229   1.688   3.465
 8835TIP3   OH226468   0.283   0.029   5.049
 8835TIP3    H126469   0.251   0.115   5.024
 8835TIP3    H226470   0.237  -0.032   4.992
 8836TIP3   OH226471   0.384   0.583   2.758
 8836TIP3    H126472   0.459   0.524   2.749
 8836TIP3    H226473   0.336   0.574   2.676
 8837TIP3   OH226474   0.651   3.516   0.051
 8837TIP3    H126475   0.711   3.531  -0.022
 8837TIP3    H226476   0.602   3.438   0.026
 8838TIP3   OH226477   2.356   2.099   3.977
 8838TIP3    H126478   2.265   2.107   3.947
 8838TIP3    H226479   2.392   2.026   3.927
 8839TIP3   OH226480   0.824   6.412   4.267
 8839TIP3    H126481   0.830   6.332   4.215
 8839TIP3    H226482   0.837   6.483   4.204
 8840TIP3   OH226483   4.873   5.772   0.295
 8840TIP3    H126484   4.781   5.771   0.270
 8840TIP3    H226485   4.921   5.758   0.213
 8841TIP3   OH226486   1.960   4.445   4.629
 8841TIP3    H126487   2.017   4.508   4.672
 8841TIP3    H226488   1.884   4.437   4.687
 8842TIP3   OH226489   5.607   0.728   2.880
 8842TIP3    H126490   5.620   0.701   2.971
 8842TIP3    H226491   5.548   0.804   2.886
 8843TIP3   OH226492   2.750   5.392   1.312
 8843TIP3    H126493   2.719   5.432   1.230
 8843TIP3    H226494   2.829   5.344   1.287
 8844TIP3   OH226495   1.235   2.965   4.792
 8844TIP3    H126496   1.149   2.952   4.752
 8844TIP3    H226497   1.253   2.882   4.835
 8845TIP3   OH226498   0.461   1.439   0.969
 8845TIP3    H126499   0.391   1.503   0.980
 8845TIP3    H226500   0.439   1.393   0.888
 8846TIP3   OH226501   7.072   0.139   5.567
 8846TIP3    H126502   6.981   0.116   5.589
 8846TIP3    H226503   7.102   0.190   5.642
 8847TIP3   OH226504   5.687   3.374   2.051
 8847TIP3    H126505   5.646   3.427   2.119
 8847TIP3    H226506   5.616   3.321   2.015
 8848TIP3   OH226507   2.372   3.528   1.529
 8848TIP3    H126508   2.409   3.503   1.613
 8848TIP3    H226509   2.287   3.484   1.526
 8849TIP3   OH226510   3.994   5.608   3.029
 8849TIP3    H126511   3.942   5.528   3.022
 8849TIP3    H226512   4.049   5.595   3.106
 8850TIP3   OH226513   7.108   3.192   5.573
 8850TIP3    H126514   7.143   3.265   5.624
 8850TIP3    H226515   7.185   3.145   5.543
 8851TIP3   OH226516   2.643   1.193   3.573
 8851TIP3    H126517   2.607   1.281   3.581
 8851TIP3    H226518   2.702   1.184   3.648
 8852TIP3   OH226519   4.599   3.831   2.879
 8852TIP3    H126520   4.582   3.924   2.863
 8852TIP3    H226521   4.595   3.791   2.792
 8853TIP3   OH226522   0.315   4.248   1.688
 8853TIP3    H126523   0.368   4.187   1.636
 8853TIP3    H226524   0.226   4.239   1.652
 8854TIP3   OH226525   5.253   4.227   2.782
 8854TIP3    H126526   5.289   4.313   2.803
 8854TIP3    H226527   5.170   4.246   2.739
 8855TIP3   OH226528   6.698   0.762   5.260
 8855TIP3    H126529   6.780   0.810   5.276
 8855TIP3    H226530   6.707   0.727   5.172
 8856TIP3   OH226531   7.183   6.724   3.838
 8856TIP3    H126532   7.209   6.677   3.917
 8856TIP3    H226533   7.152   6.656   3.778
 8857TIP3   OH226534   1.328   6.748   5.159
 8857TIP3    H126535   1.242   6.781   5.133
 8857TIP3    H226536   1.312   6.702   5.241
 8858TIP3   OH226537   6.442   0.703   0.953
 8858TIP3    H126538   6.456   0.613   0.985
 8858TIP3    H226539   6.529   0.744   0.959
 8859TIP3   OH226540   6.804   3.551   3.493
 8859TIP3    H126541   6.728   3.537   3.549
 8859TIP3    H226542   6.769   3.591   3.414
 8860TIP3   OH226543   3.350   5.216   5.754
 8860TIP3    H126544   3.348   5.281   5.825
 8860TIP3    H226545   3.389   5.262   5.680
 8861TIP3   OH226546   1.955   4.270   1.929
 8861TIP3    H126547   2.026   4.287   1.991
 8861TIP3    H226548   1.953   4.175   1.919
 8862TIP3   OH226549   1.372   5.656   2.826
 8862TIP3    H126550   1.388   5.731   2.769
 8862TIP3    H226551   1.279   5.662   2.848
 8863TIP3   OH226552   5.173   2.146   3.001
 8863TIP3    H126553   5.105   2.135   3.068
 8863TIP3    H226554   5.191   2.057   2.971
 8864TIP3   OH226555   5.067   4.165   1.470
 8864TIP3    H126556   5.016   4.107   1.415
 8864TIP3    H226557   5.118   4.106   1.526
 8865TIP3   OH226558   5.974   3.904   1.179
 8865TIP3    H126559   5.922   3.907   1.259
 8865TIP3    H226560   5.977   3.811   1.155
 8866TIP3   OH226561   0.354   0.510   5.224
 8866TIP3    H126562   0.446   0.488   5.240
 8866TIP3    H226563   0.308   0.478   5.302
 8867TIP3   OH226564   3.825   4.538   0.384
 8867TIP3    H126565   3.798   4.624   0.352
 8867TIP3    H226566   3.921   4.544   0.389
 8868TIP3   OH226567   7.016   5.424   4.228
 8868TIP3    H126568   7.018   5.377   4.312
 8868TIP3    H226569   7.063   5.367   4.168
 8869TIP3   OH226570   5.051   3.555   2.205
 8869TIP3    H126571   5.012   3.505   2.133
 8869TIP3    H226572   4.976   3.594   2.251
 8870TIP3   OH226573   6.872   6.671   2.073
 8870TIP3    H126574   6.944   6.679   2.135
 8870TIP3    H226575   6.830   6.589   2.096
 8871TIP3   OH226576   0.951   0.824   1.744
 8871TIP3    H126577   1.023   0.762   1.731
 8871TIP3    H226578   0.976   0.874   1.821
 8872TIP3   OH226579   5.819   2.186   1.791
 8872TIP3    H126580   5.832   2.269   1.744
 8872TIP3    H226581   5.768   2.132   1.731
 8873TIP3   OH226582   2.374   5.964   3.641
 8873TIP3    H126583   2.372   5.964   3.737
 8873TIP3    H226584   2.390   6.055   3.617
 8874TIP3   OH226585   2.584   5.691   2.665
 8874TIP3    H126586   2.639   5.764   2.634
 8874TIP3    H226587   2.589   5.626   2.595
 8875TIP3   OH226588   5.790   6.684   0.237
 8875TIP3    H126589   5.723   6.665   0.171
 8875TIP3    H226590   5.853   6.613   0.229
 8876TIP3   OH226591   3.572   1.679   3.222
 8876TIP3    H126592   3.549   1.587   3.235
 8876TIP3    H226593   3.620   1.704   3.301
 8877TIP3   OH226594   3.816   2.640   3.605
 8877TIP3    H126595   3.733   2.660   3.648
 8877TIP3    H226596   3.810   2.547   3.583
 8878TIP3   OH226597   1.830   0.384   5.880
 8878TIP3    H126598   1.818   0.447   5.809
 8878TIP3    H226599   1.748   0.334   5.881
 8879TIP3   OH226600   6.574   5.149   2.212
 8879TIP3    H126601   6.506   5.155   2.279
 8879TIP3    H226602   6.565   5.061   2.177
 8880TIP3   OH226603   2.554   6.413   2.148
 8880TIP3    H126604   2.521   6.478   2.086
 8880TIP3    H226605   2.611   6.463   2.207
 8881TIP3   OH226606   1.476   0.718   4.946
 8881TIP3    H126607   1.530   0.786   4.986
 8881TIP3    H226608   1.398   0.713   5.002
 8882TIP3   OH226609   2.101   6.083   1.360
 8882TIP3    H126610   2.193   6.068   1.383
 8882TIP3    H226611   2.055   6.008   1.396
 8883TIP3   OH226612   4.010   6.289   5.301
 8883TIP3    H126613   3.986   6.298   5.209
 8883TIP3    H226614   4.032   6.378   5.329
 8884TIP3   OH226615   3.076   2.032   5.698
 8884TIP3    H126616   3.016   2.068   5.763
 8884TIP3    H226617   3.021   2.010   5.623
 8885TIP3   OH226618   0.904   5.440   4.065
 8885TIP3    H126619   0.915   5.444   4.160
 8885TIP3    H226620   0.971   5.379   4.035
 8886TIP3   OH226621   1.754   3.288   0.802
 8886TIP3    H126622   1.830   3.262   0.854
 8886TIP3    H226623   1.679   3.251   0.849
 8887TIP3   OH226624   5.068   0.118   1.248
 8887TIP3    H126625   5.148   0.094   1.202
 8887TIP3    H226626   5.057   0.211   1.230
 8888TIP3   OH226627   4.308   6.595   1.888
 8888TIP3    H126628   4.266   6.680   1.898
 8888TIP3    H226629   4.310   6.559   1.977
 8889TIP3   OH226630   0.326   1.322   0.750
 8889TIP3    H126631   0.274   1.255   0.706
 8889TIP3    H226632   0.330   1.394   0.687
 8890TIP3   OH226633   3.631   0.111   3.319
 8890TIP3    H126634   3.672   0.059   3.249
 8890TIP3    H226635   3.663   0.200   3.304
 8891TIP3   OH226636   0.667   2.624   4.024
 8891TIP3    H126637   0.747   2.627   3.971
 8891TIP3    H226638   0.596   2.623   3.960
 8892TIP3   OH226639   4.527   4.078   3.745
 8892TIP3    H126640   4.502   3.992   3.710
 8892TIP3    H226641   4.605   4.103   3.695
 8893TIP3   OH226642   0.442   0.653   1.867
 8893TIP3    H126643   0.403   0.739   1.887
 8893TIP3    H226644   0.535   0.664   1.885
 8894TIP3   OH226645   7.005   5.323   2.490
 8894TIP3    H126646   6.948   5.287   2.422
 8894TIP3    H226647   7.094   5.302   2.459
 8895TIP3   OH226648   6.819   1.108   5.388
 8895TIP3    H126649   6.896   1.054   5.370
 8895TIP3    H226650   6.784   1.072   5.470
 8896TIP3   OH226651   0.501   2.530   4.262
 8896TIP3    H126652   0.532   2.540   4.172
 8896TIP3    H226653   0.502   2.436   4.278
 8897TIP3   OH226654   6.256   0.351   5.720
 8897TIP3    H126655   6.318   0.421   5.698
 8897TIP3    H226656   6.312   0.275   5.738
 8898TIP3   OH226657   2.296   4.442   3.080
 8898TIP3    H126658   2.389   4.465   3.081
 8898TIP3    H226659   2.272   4.441   2.988
 8899TIP3   OH226660   3.464   0.849   5.115
 8899TIP3    H126661   3.398   0.919   5.115
 8899TIP3    H226662   3.440   0.794   5.040
 8900TIP3   OH226663   5.689   5.983   4.631
 8900TIP3    H126664   5.673   5.955   4.541
 8900TIP3    H226665   5.614   6.040   4.652
 8901TIP3   OH226666   1.425   0.264   4.277
 8901TIP3    H126667   1.405   0.190   4.334
 8901TIP3    H226668   1.517   0.251   4.252
 8902TIP3   OH226669   0.427   5.354   5.165
 8902TIP3    H126670   0.413   5.368   5.072
 8902TIP3    H226671   0.522   5.356   5.176
 8903TIP3   OH226672   0.629   0.257   5.688
 8903TIP3    H126673   0.608   0.276   5.780
 8903TIP3    H226674   0.607   0.164   5.677
 8904TIP3   OH226675   0.622   0.886   5.132
 8904TIP3    H126676   0.701   0.915   5.177
 8904TIP3    H226677   0.608   0.797   5.163
 8905TIP3   OH226678   3.092   6.597   1.597
 8905TIP3    H126679   3.055   6.679   1.629
 8905TIP3    H226680   3.107   6.545   1.676
 8906TIP3   OH226681   5.323   5.192   1.336
 8906TIP3    H126682   5.261   5.175   1.407
 8906TIP3    H226683   5.409   5.190   1.379
 8907TIP3   OH226684   4.719   5.954   1.134
 8907TIP3    H126685   4.638   6.005   1.140
 8907TIP3    H226686   4.776   6.005   1.076
 8908TIP3   OH226687   4.608   5.625   0.887
 8908TIP3    H126688   4.666   5.683   0.837
 8908TIP3    H226689   4.635   5.639   0.978
 8909TIP3   OH226690   0.272   1.568   2.205
 8909TIP3    H126691   0.308   1.555   2.293
 8909TIP3    H226692   0.177   1.561   2.216
 8910TIP3   OH226693   0.750   3.642   3.668
 8910TIP3    H126694   0.722   3.585   3.597
 8910TIP3    H226695   0.771   3.725   3.626
 8911TIP3   OH226696   6.404   3.237   2.869
 8911TIP3    H126697   6.349   3.204   2.798
 8911TIP3    H226698   6.377   3.188   2.946
 8912TIP3   OH226699   3.827   0.597   1.845
 8912TIP3    H126700   3.776   0.561   1.773
 8912TIP3    H226701   3.917   0.569   1.826
 8913TIP3   OH226702   4.744   1.812   2.928
 8913TIP3    H126703   4.657   1.807   2.967
 8913TIP3    H226704   4.760   1.906   2.918
 8914TIP3   OH226705   0.269   5.845   2.262
 8914TIP3    H126706   0.222   5.768   2.295
 8914TIP3    H226707   0.267   5.907   2.334
 8915TIP3   OH226708   1.464   2.433   2.448
 8915TIP3    H126709   1.478   2.362   2.511
 8915TIP3    H226710   1.487   2.512   2.497
 8916TIP3   OH226711   7.194   3.593   5.428
 8916TIP3    H126712   7.198   3.520   5.366
 8916TIP3    H226713   7.284   3.608   5.454
 8917TIP3   OH226714   4.170   5.952   1.385
 8917TIP3    H126715   4.237   5.897   1.344
 8917TIP3    H226716   4.121   5.891   1.440
 8918TIP3   OH226717   1.124   1.489   3.218
 8918TIP3    H126718   1.211   1.450   3.213
 8918TIP3    H226719   1.084   1.469   3.133
 8919TIP3   OH226720   2.930   3.947   2.317
 8919TIP3    H126721   2.974   3.927   2.400
 8919TIP3    H226722   2.854   3.888   2.316
 8920TIP3   OH226723   4.389   5.016   3.645
 8920TIP3    H126724   4.462   5.076   3.660
 8920TIP3    H226725   4.430   4.937   3.609
 8921TIP3   OH226726   5.972   0.153   0.100
 8921TIP3    H126727   6.060   0.126   0.126
 8921TIP3    H226728   5.973   0.248   0.106
 8922TIP3   OH226729   1.668   6.124   3.892
 8922TIP3    H126730   1.630   6.045   3.855
 8922TIP3    H226731   1.666   6.111   3.987
 8923TIP3   OH226732   5.943   5.121   1.977
 8923TIP3    H126733   6.032   5.146   1.950
 8923TIP3    H226734   5.886   5.179   1.927
 8924TIP3   OH226735   1.632   3.875   4.214
 8924TIP3    H126736   1.717   3.918   4.202
 8924TIP3    H226737   1.569   3.936   4.177
 8925TIP3   OH226738   3.032   1.192   3.895
 8925TIP3    H126739   3.115   1.230   3.864
 8925TIP3    H226740   3.028   1.215   3.988
 8926TIP3   OH226741   6.241   0.352   0.907
 8926TIP3    H126742   6.155   0.373   0.944
 8926TIP3    H226743   6.222   0.300   0.830
 8927TIP3   OH226744   6.089   2.914   3.218
 8927TIP3    H126745   5.994   2.906   3.209
 8927TIP3    H226746   6.120   2.825   3.230
 8928TIP3   OH226747   7.158   2.868   0.784
 8928TIP3    H126748   7.224   2.936   0.798
 8928TIP3    H226749   7.163   2.849   0.691
 8929TIP3   OH226750   5.456   3.777   1.046
 8929TIP3    H126751   5.516   3.850   1.039
 8929TIP3    H226752   5.510   3.704   1.076
 8930TIP3   OH226753   2.668   3.951   0.603
 8930TIP3    H126754   2.634   3.933   0.690
 8930TIP3    H226755   2.603   4.008   0.563
 8931TIP3   OH226756   1.550   6.615   2.368
 8931TIP3    H126757   1.549   6.702   2.328
 8931TIP3    H226758   1.636   6.579   2.344
 8932TIP3   OH226759   3.414   6.366   0.962
 8932TIP3    H126760   3.506   6.389   0.968
 8932TIP3    H226761   3.382   6.372   1.052
 8933TIP3   OH226762   7.172   1.198   4.388
 8933TIP3    H126763   7.129   1.283   4.384
 8933TIP3    H226764   7.246   1.205   4.328
 8934TIP3   OH226765   2.627   2.422   0.119
 8934TIP3    H126766   2.634   2.513   0.150
 8934TIP3    H226767   2.616   2.371   0.199
 8935TIP3   OH226768   3.519   2.469   4.647
 8935TIP3    H126769   3.430   2.472   4.610
 8935TIP3    H226770   3.510   2.421   4.729
 8936TIP3   OH226771   2.040   3.075   2.573
 8936TIP3    H126772   1.998   3.161   2.567
 8936TIP3    H226773   2.094   3.080   2.651
 8937TIP3   OH226774   6.971   4.351   4.545
 8937TIP3    H126775   6.910   4.321   4.613
 8937TIP3    H226776   6.930   4.325   4.463
 8938TIP3   OH226777   4.286   3.959   3.570
 8938TIP3    H126778   4.352   3.892   3.553
 8938TIP3    H226779   4.285   4.012   3.490
 8939TIP3   OH226780   5.897   5.607   0.047
 8939TIP3    H126781   5.915   5.620  -0.045
 8939TIP3    H226782   5.919   5.691   0.088
 8940TIP3   OH226783   3.302   5.043   1.622
 8940TIP3    H126784   3.303   5.033   1.527
 8940TIP3    H226785   3.392   5.023   1.649
 8941TIP3   OH226786   1.591   0.587   5.315
 8941TIP3    H126787   1.524   0.523   5.340
 8941TIP3    H226788   1.642   0.543   5.247
 8942TIP3   OH226789   6.027   2.390   2.695
 8942TIP3    H126790   5.998   2.481   2.696
 8942TIP3    H226791   6.019   2.361   2.786
 8943TIP3   OH226792   0.744   4.606   0.979
 8943TIP3    H126793   0.673   4.612   0.914
 8943TIP3    H226794   0.820   4.575   0.928
 8944TIP3   OH226795   1.082   1.763   1.397
 8944TIP3    H126796   1.128   1.819   1.460
 8944TIP3    H226797   1.096   1.805   1.312
 8945TIP3   OH226798  -0.012   2.652   2.053
 8945TIP3    H126799  -0.048   2.668   2.141
 8945TIP3    H226800  -0.065   2.580   2.018
 8946TIP3   OH226801   5.416   0.201   0.123
 8946TIP3    H126802   5.436   0.243   0.207
 8946TIP3    H226803   5.502   0.182   0.085
 8947TIP3   OH226804   1.655   6.180   3.029
 8947TIP3    H126805   1.568   6.141   3.023
 8947TIP3    H226806   1.638   6.274   3.034
 8948TIP3   OH226807   4.740   0.996   1.937
 8948TIP3    H126808   4.657   1.041   1.951
 8948TIP3    H226809   4.797   1.063   1.899
 8949TIP3   OH226810   5.444   1.252   0.397
 8949TIP3    H126811   5.473   1.341   0.416
 8949TIP3    H226812   5.388   1.260   0.320
 8950TIP3   OH226813   5.165   2.556   0.991
 8950TIP3    H126814   5.238   2.495   1.006
 8950TIP3    H226815   5.205   2.632   0.949
 8951TIP3   OH226816   1.742   6.062   0.265
 8951TIP3    H126817   1.751   5.977   0.221
 8951TIP3    H226818   1.730   6.040   0.357
 8952TIP3   OH226819   5.228   4.624   3.643
 8952TIP3    H126820   5.254   4.715   3.630
 8952TIP3    H226821   5.253   4.605   3.734
 8953TIP3   OH226822   2.607   4.602   3.038
 8953TIP3    H126823   2.578   4.545   3.110
 8953TIP3    H226824   2.702   4.607   3.048
 8954TIP3   OH226825   3.658   6.393   1.762
 8954TIP3    H126826   3.732   6.389   1.823
 8954TIP3    H226827   3.581   6.375   1.815
 8955TIP3   OH226828   2.416   2.644   5.294
 8955TIP3    H126829   2.428   2.558   5.336
 8955TIP3    H226830   2.414   2.625   5.201
 8956TIP3   OH226831   2.046   6.257   3.459
 8956TIP3    H126832   2.033   6.220   3.546
 8956TIP3    H226833   2.140   6.269   3.452
 8957TIP3   OH226834   4.468   3.509   0.970
 8957TIP3    H126835   4.468   3.595   1.014
 8957TIP3    H226836   4.536   3.517   0.903
 8958TIP3   OH226837   6.639   5.384   2.527
 8958TIP3    H126838   6.551   5.354   2.554
 8958TIP3    H226839   6.692   5.377   2.607
 8959TIP3   OH226840   2.069   2.118   1.402
 8959TIP3    H126841   2.074   2.120   1.306
 8959TIP3    H226842   2.160   2.104   1.430
 8960TIP3   OH226843   5.876   2.422   1.675
 8960TIP3    H126844   5.908   2.412   1.586
 8960TIP3    H226845   5.831   2.506   1.676
 8961TIP3   OH226846   0.025   1.093   2.507
 8961TIP3    H126847   0.070   1.069   2.426
 8961TIP3    H226848   0.001   1.009   2.547
 8962TIP3   OH226849   2.251   1.861   4.343
 8962TIP3    H126850   2.298   1.939   4.312
 8962TIP3    H226851   2.248   1.803   4.267
 8963TIP3   OH226852   0.774   4.229   0.970
 8963TIP3    H126853   0.713   4.290   1.011
 8963TIP3    H226854   0.745   4.225   0.879
 8964TIP3   OH226855   2.652   5.819   0.780
 8964TIP3    H126856   2.590   5.829   0.852
 8964TIP3    H226857   2.694   5.904   0.773
 8965TIP3   OH226858   1.389   4.992   0.030
 8965TIP3    H126859   1.417   5.056   0.096
 8965TIP3    H226860   1.341   4.926   0.080
 8966TIP3   OH226861   5.607   4.121   0.202
 8966TIP3    H126862   5.648   4.067   0.134
 8966TIP3    H226863   5.581   4.201   0.156
 8967TIP3   OH226864   2.586   4.054   5.336
 8967TIP3    H126865   2.674   4.057   5.298
 8967TIP3    H226866   2.551   4.142   5.322
 8968TIP3   OH226867   7.188   4.815   0.982
 8968TIP3    H126868   7.149   4.849   1.063
 8968TIP3    H226869   7.139   4.858   0.912
 8969TIP3   OH226870   1.892   0.138   2.123
 8969TIP3    H126871   1.861   0.052   2.096
 8969TIP3    H226872   1.813   0.192   2.126
 8970TIP3   OH226873   7.232   6.014   3.931
 8970TIP3    H126874   7.236   6.067   3.852
 8970TIP3    H226875   7.266   6.070   4.000
 8971TIP3   OH226876   4.844   1.356   2.695
 8971TIP3    H126877   4.931   1.340   2.660
 8971TIP3    H226878   4.806   1.420   2.634
 8972TIP3   OH226879   5.690   3.976   3.097
 8972TIP3    H126880   5.678   4.058   3.048
 8972TIP3    H226881   5.634   3.913   3.051
 8973TIP3   OH226882   2.443   6.202   4.465
 8973TIP3    H126883   2.534   6.228   4.477
 8973TIP3    H226884   2.439   6.169   4.375
 8974TIP3   OH226885   6.861   1.497   0.276
 8974TIP3    H126886   6.842   1.510   0.369
 8974TIP3    H226887   6.784   1.452   0.242
 8975TIP3   OH226888   1.128   4.208   1.404
 8975TIP3    H126889   1.159   4.183   1.317
 8975TIP3    H226890   1.048   4.156   1.417
 8976TIP3   OH226891   4.159   3.006   4.533
 8976TIP3    H126892   4.082   3.056   4.507
 8976TIP3    H226893   4.230   3.040   4.478
 8977TIP3   OH226894   3.005   1.765   2.884
 8977TIP3    H126895   3.043   1.721   2.960
 8977TIP3    H226896   2.931   1.813   2.918
 8978TIP3   OH226897   5.606   0.926   4.860
 8978TIP3    H126898   5.677   0.868   4.888
 8978TIP3    H226899   5.610   0.925   4.764
 8979TIP3   OH226900   6.175   6.336   5.489
 8979TIP3    H126901   6.123   6.389   5.550
 8979TIP3    H226902   6.249   6.393   5.464
 8980TIP3   OH226903   2.160   1.645   5.218
 8980TIP3    H126904   2.221   1.675   5.150
 8980TIP3    H226905   2.206   1.574   5.262
 8981TIP3   OH226906   3.253   5.441   0.565
 8981TIP3    H126907   3.289   5.470   0.648
 8981TIP3    H226908   3.238   5.522   0.516
 8982TIP3   OH226909   2.607   0.746   2.141
 8982TIP3    H126910   2.658   0.704   2.071
 8982TIP3    H226911   2.588   0.675   2.202
 8983TIP3   OH226912   0.327   6.036   3.885
 8983TIP3    H126913   0.321   5.959   3.941
 8983TIP3    H226914   0.414   6.072   3.902
 8984TIP3   OH226915   4.750   1.252   2.913
 8984TIP3    H126916   4.802   1.293   2.844
 8984TIP3    H226917   4.661   1.248   2.877
 8985TIP3   OH226918   0.139   5.945   1.713
 8985TIP3    H126919   0.077   5.888   1.667
 8985TIP3    H226920   0.136   5.917   1.804
 8986TIP3   OH226921   6.443   5.935   2.489
 8986TIP3    H126922   6.356   5.966   2.464
 8986TIP3    H226923   6.484   5.910   2.406
 8987TIP3   OH226924   1.549   0.406   4.610
 8987TIP3    H126925   1.563   0.311   4.600
 8987TIP3    H226926   1.486   0.428   4.542
 8988TIP3   OH226927   6.668   3.238   5.778
 8988TIP3    H126928   6.662   3.334   5.774
 8988TIP3    H226929   6.688   3.219   5.869
 8989TIP3   OH226930   1.457   2.966   2.061
 8989TIP3    H126931   1.459   2.949   2.155
 8989TIP3    H226932   1.511   3.044   2.049
 8990TIP3   OH226933   2.710   1.560   3.931
 8990TIP3    H126934   2.790   1.539   3.979
 8990TIP3    H226935   2.667   1.626   3.985
 8991TIP3   OH226936   6.236   6.319   0.480
 8991TIP3    H126937   6.146   6.352   0.490
 8991TIP3    H226938   6.270   6.367   0.404
 8992TIP3   OH226939   2.400   3.723   0.373
 8992TIP3    H126940   2.476   3.781   0.377
 8992TIP3    H226941   2.431   3.645   0.326
 8993TIP3   OH226942   4.453   1.599   3.697
 8993TIP3    H126943   4.433   1.635   3.611
 8993TIP3    H226944   4.496   1.516   3.680
 8994TIP3   OH226945   2.348   0.065   5.095
 8994TIP3    H126946   2.260   0.028   5.089
 8994TIP3    H226947   2.335   0.155   5.125
 8995TIP3   OH226948   3.249   2.954   3.981
 8995TIP3    H126949   3.162   2.925   4.010
 8995TIP3    H226950   3.309   2.921   4.049
 8996TIP3   OH226951   1.616   0.387   3.950
 8996TIP3    H126952   1.676   0.460   3.935
 8996TIP3    H226953   1.559   0.417   4.021
 8997TIP3   OH226954   2.051   0.850   5.449
 8997TIP3    H126955   1.983   0.817   5.390
 8997TIP3    H226956   2.051   0.789   5.523
 8998TIP3   OH226957   0.753   0.651   1.856
 8998TIP3    H126958   0.797   0.695   1.784
 8998TIP3    H226959   0.804   0.674   1.933
 8999TIP3   OH226960   0.170   1.679   4.286
 8999TIP3    H126961   0.261   1.651   4.296
 8999TIP3    H226962   0.160   1.751   4.347
 9000TIP3   OH226963   0.772   2.769   2.571
 9000TIP3    H126964   0.792   2.824   2.495
 9000TIP3    H226965   0.817   2.687   2.555
 9001TIP3   OH226966   1.708   3.870   3.476
 9001TIP3    H126967   1.776   3.840   3.417
 9001TIP3    H226968   1.702   3.801   3.542
 9002TIP3   OH226969   2.429   2.602   3.591
 9002TIP3    H126970   2.376   2.554   3.527
 9002TIP3    H226971   2.520   2.581   3.567
 9003TIP3   OH226972   6.029   1.457   0.743
 9003TIP3    H126973   6.033   1.414   0.828
 9003TIP3    H226974   6.114   1.441   0.703
 9004TIP3   OH226975   1.845   5.927   2.582
 9004TIP3    H126976   1.921   5.962   2.537
 9004TIP3    H226977   1.881   5.882   2.659
 9005TIP3   OH226978   0.250   2.128   4.015
 9005TIP3    H126979   0.327   2.155   3.964
 9005TIP3    H226980   0.275   2.144   4.106
 9006TIP3   OH226981   2.491   5.086   0.881
 9006TIP3    H126982   2.464   5.056   0.968
 9006TIP3    H226983   2.419   5.141   0.851
 9007TIP3   OH226984   0.414   5.543   3.168
 9007TIP3    H126985   0.447   5.631   3.154
 9007TIP3    H226986   0.457   5.490   3.101
 9008TIP3   OH226987   3.379   0.860   2.676
 9008TIP3    H126988   3.363   0.781   2.728
 9008TIP3    H226989   3.294   0.878   2.635
 9009TIP3   OH226990   2.760   2.590   0.831
 9009TIP3    H126991   2.720   2.588   0.918
 9009TIP3    H226992   2.837   2.647   0.841
 9010TIP3   OH226993   1.223   5.550   3.549
 9010TIP3    H126994   1.244   5.495   3.474
 9010TIP3    H226995   1.223   5.639   3.514
 9011TIP3   OH226996   1.700   2.973   3.774
 9011TIP3    H126997   1.648   2.896   3.798
 9011TIP3    H226998   1.758   2.988   3.849
 9012TIP3   OH226999   3.955   2.974   1.024
 9012TIP3    H127000   3.968   2.910   1.093
 9012TIP3    H227001   3.939   3.056   1.069
 9013TIP3   OH227002   2.677   5.379   0.962
 9013TIP3    H127003   2.699   5.413   0.875
 9013TIP3    H227004   2.678   5.284   0.951
 9014TIP3   OH227005   5.096   6.155   2.842
 9014TIP3    H127006   5.037   6.225   2.870
 9014TIP3    H227007   5.058   6.075   2.879
 9015TIP3   OH227008   5.872   2.481   2.075
 9015TIP3    H127009   5.932   2.483   2.149
 9015TIP3    H227010   5.815   2.557   2.088
 9016TIP3   OH227011   6.927   1.691   1.002
 9016TIP3    H127012   6.979   1.751   0.948
 9016TIP3    H227013   6.912   1.615   0.946
 9017TIP3   OH227014   4.540   2.814   4.078
 9017TIP3    H127015   4.506   2.900   4.057
 9017TIP3    H227016   4.629   2.813   4.042
 9018TIP3   OH227017   3.959   3.015   3.648
 9018TIP3    H127018   3.921   2.982   3.566
 9018TIP3    H227019   4.002   3.097   3.623
 9019TIP3   OH227020   4.793   0.143   1.739
 9019TIP3    H127021   4.850   0.072   1.710
 9019TIP3    H227022   4.849   0.195   1.797
 9020TIP3   OH227023   6.094   1.009   4.061
 9020TIP3    H127024   6.049   0.973   4.137
 9020TIP3    H227025   6.103   0.935   4.001
 9021TIP3   OH227026   5.527   3.220   1.019
 9021TIP3    H127027   5.450   3.277   1.030
 9021TIP3    H227028   5.551   3.231   0.927
 9022TIP3   OH227029   5.523   2.206   5.231
 9022TIP3    H127030   5.511   2.274   5.297
 9022TIP3    H227031   5.565   2.134   5.279
 9023TIP3   OH227032   0.524   6.031   0.655
 9023TIP3    H127033   0.514   6.126   0.647
 9023TIP3    H227034   0.516   6.014   0.749
 9024TIP3   OH227035   6.047   0.851   1.704
 9024TIP3    H127036   6.095   0.796   1.642
 9024TIP3    H227037   6.110   0.917   1.731
 9025TIP3   OH227038   0.411   2.486   5.854
 9025TIP3    H127039   0.457   2.452   5.931
 9025TIP3    H227040   0.463   2.455   5.780
 9026TIP3   OH227041   4.789   4.220   5.552
 9026TIP3    H127042   4.851   4.174   5.496
 9026TIP3    H227043   4.799   4.178   5.638
 9027TIP3   OH227044   4.016   3.433   3.681
 9027TIP3    H127045   3.991   3.487   3.757
 9027TIP3    H227046   3.965   3.469   3.609
 9028TIP3   OH227047   1.148   2.386   1.985
 9028TIP3    H127048   1.162   2.459   1.925
 9028TIP3    H227049   1.236   2.364   2.017
 9029TIP3   OH227050   5.997   0.299   5.821
 9029TIP3    H127051   6.090   0.302   5.800
 9029TIP3    H227052   5.965   0.387   5.802
 9030TIP3   OH227053   5.761   5.004   4.512
 9030TIP3    H127054   5.780   4.915   4.542
 9030TIP3    H227055   5.738   5.052   4.592
 9031TIP3   OH227056   2.951   6.722   0.821
 9031TIP3    H127057   3.039   6.707   0.855
 9031TIP3    H227058   2.966   6.769   0.739
 9032TIP3   OH227059   3.239   5.693   2.337
 9032TIP3    H127060   3.220   5.746   2.260
 9032TIP3    H227061   3.216   5.604   2.312
 9033TIP3   OH227062   2.118   5.247   4.463
 9033TIP3    H127063   2.202   5.245   4.416
 9033TIP3    H227064   2.085   5.158   4.455
 9034TIP3   OH227065   6.697   5.922   0.610
 9034TIP3    H127066   6.778   5.944   0.564
 9034TIP3    H227067   6.722   5.919   0.702
 9035TIP3   OH227068   0.853   2.339   3.103
 9035TIP3    H127069   0.778   2.377   3.059
 9035TIP3    H227070   0.872   2.400   3.174
 9036TIP3   OH227071   2.009   0.661   5.679
 9036TIP3    H127072   2.045   0.579   5.644
 9036TIP3    H227073   1.916   0.658   5.657
 9037TIP3   OH227074   1.273   5.785   1.350
 9037TIP3    H127075   1.207   5.769   1.417
 9037TIP3    H227076   1.319   5.702   1.341
 9038TIP3   OH227077   3.026   2.272   3.824
 9038TIP3    H127078   2.969   2.232   3.758
 9038TIP3    H227079   3.113   2.236   3.805
 9039TIP3   OH227080   5.099   3.122   0.215
 9039TIP3    H127081   5.044   3.184   0.166
 9039TIP3    H227082   5.038   3.055   0.246
 9040TIP3   OH227083   1.403   1.606   2.596
 9040TIP3    H127084   1.339   1.651   2.540
 9040TIP3    H227085   1.476   1.668   2.603
 9041TIP3   OH227086   1.033   2.817   1.918
 9041TIP3    H127087   1.117   2.782   1.949
 9041TIP3    H227088   0.969   2.787   1.983
 9042TIP3   OH227089   1.913   4.539   0.778
 9042TIP3    H127090   1.934   4.632   0.766
 9042TIP3    H227091   1.818   4.535   0.774
 9043TIP3   OH227092   5.415   4.442   0.392
 9043TIP3    H127093   5.447   4.520   0.437
 9043TIP3    H227094   5.344   4.474   0.336
 9044TIP3   OH227095   5.188   2.950   0.619
 9044TIP3    H127096   5.191   2.964   0.524
 9044TIP3    H227097   5.231   3.027   0.656
 9045TIP3   OH227098   4.565   4.801   3.535
 9045TIP3    H127099   4.659   4.803   3.550
 9045TIP3    H227100   4.555   4.759   3.450
 9046TIP3   OH227101   6.272   6.555   1.862
 9046TIP3    H127102   6.358   6.568   1.902
 9046TIP3    H227103   6.284   6.482   1.802
 9047TIP3   OH227104   2.667   2.188   5.289
 9047TIP3    H127105   2.699   2.150   5.207
 9047TIP3    H227106   2.612   2.120   5.327
 9048TIP3   OH227107   0.132   5.008   4.094
 9048TIP3    H127108   0.222   5.031   4.070
 9048TIP3    H227109   0.131   4.912   4.093
 9049TIP3   OH227110   6.223   5.623   0.398
 9049TIP3    H127111   6.252   5.697   0.451
 9049TIP3    H227112   6.184   5.563   0.462
 9050TIP3   OH227113   2.197   5.228   2.926
 9050TIP3    H127114   2.146   5.293   2.974
 9050TIP3    H227115   2.144   5.208   2.849
 9051TIP3   OH227116   2.183   6.251   1.727
 9051TIP3    H127117   2.239   6.323   1.700
 9051TIP3    H227118   2.177   6.259   1.822
 9052TIP3   OH227119   5.928   1.225   0.051
 9052TIP3    H127120   5.906   1.281  -0.023
 9052TIP3    H227121   5.844   1.210   0.095
 9053TIP3   OH227122   4.844   6.118   1.964
 9053TIP3    H127123   4.769   6.137   2.020
 9053TIP3    H227124   4.806   6.082   1.884
 9054TIP3   OH227125   5.636   2.102   3.057
 9054TIP3    H127126   5.589   2.072   2.979
 9054TIP3    H227127   5.567   2.128   3.118
 9055TIP3   OH227128   4.528   3.715   4.341
 9055TIP3    H127129   4.511   3.635   4.291
 9055TIP3    H227130   4.623   3.715   4.354
 9056TIP3   OH227131   3.209   2.678   0.252
 9056TIP3    H127132   3.224   2.595   0.206
 9056TIP3    H227133   3.118   2.673   0.282
 9057TIP3   OH227134   4.636   4.731   1.611
 9057TIP3    H127135   4.707   4.795   1.619
 9057TIP3    H227136   4.676   4.648   1.637
 9058TIP3   OH227137   6.685   6.002   2.605
 9058TIP3    H127138   6.615   5.962   2.554
 9058TIP3    H227139   6.755   5.936   2.607
 9059TIP3   OH227140   4.465   3.050   3.915
 9059TIP3    H127141   4.471   3.139   3.882
 9059TIP3    H227142   4.458   2.995   3.836
 9060TIP3   OH227143   0.124   1.312   3.989
 9060TIP3    H127144   0.111   1.279   3.900
 9060TIP3    H227145   0.088   1.400   3.988
 9061TIP3   OH227146   3.972   5.289   4.103
 9061TIP3    H127147   4.038   5.336   4.153
 9061TIP3    H227148   4.020   5.248   4.031
 9062TIP3   OH227149   2.609   6.607   3.851
 9062TIP3    H127150   2.625   6.668   3.922
 9062TIP3    H227151   2.515   6.589   3.855
 9063TIP3   OH227152   4.853   1.380   5.115
 9063TIP3    H127153   4.768   1.421   5.131
 9063TIP3    H227154   4.833   1.308   5.055
 9064TIP3   OH227155   5.280   4.297   0.591
 9064TIP3    H127156   5.274   4.212   0.546
 9064TIP3    H227157   5.334   4.351   0.533
 9065TIP3   OH227158   0.089   4.000   2.450
 9065TIP3    H127159   0.099   4.065   2.520
 9065TIP3    H227160   0.040   4.047   2.382
 9066TIP3   OH227161   1.958   0.088   0.532
 9066TIP3    H127162   1.996   0.003   0.507
 9066TIP3    H227163   2.030   0.150   0.523
 9067TIP3   OH227164   4.990   4.509   0.049
 9067TIP3    H127165   5.035   4.504   0.133
 9067TIP3    H227166   4.919   4.445   0.056
 9068TIP3   OH227167   0.876   5.433   0.608
 9068TIP3    H127168   0.865   5.528   0.598
 9068TIP3    H227169   0.789   5.397   0.592
 9069TIP3   OH227170   1.322   0.512   2.491
 9069TIP3    H127171   1.333   0.428   2.535
 9069TIP3    H227172   1.339   0.494   2.398
 9070TIP3   OH227173   3.993   4.406   2.781
 9070TIP3    H127174   3.935   4.440   2.713
 9070TIP3    H227175   4.081   4.430   2.751
 9071TIP3   OH227176   1.845   3.260   1.928
 9071TIP3    H127177   1.882   3.327   1.986
 9071TIP3    H227178   1.915   3.195   1.918
 9072TIP3   OH227179   5.237   1.125   2.292
 9072TIP3    H127180   5.210   1.061   2.226
 9072TIP3    H227181   5.312   1.169   2.253
 9073TIP3   OH227182   3.993   5.815   1.569
 9073TIP3    H127183   4.025   5.850   1.652
 9073TIP3    H227184   3.906   5.854   1.558
 9074TIP3   OH227185   1.889   3.647   4.808
 9074TIP3    H127186   1.959   3.703   4.843
 9074TIP3    H227187   1.817   3.658   4.869
 9075TIP3   OH227188   4.613   4.298   2.982
 9075TIP3    H127189   4.533   4.246   2.974
 9075TIP3    H227190   4.636   4.321   2.892
 9076TIP3   OH227191   5.819   4.162   5.507
 9076TIP3    H127192   5.903   4.205   5.496
 9076TIP3    H227193   5.836   4.092   5.571
 9077TIP3   OH227194   5.822   0.677   2.458
 9077TIP3    H127195   5.785   0.646   2.375
 9077TIP3    H227196   5.763   0.642   2.525
 9078TIP3   OH227197   5.004   1.428   3.829
 9078TIP3    H127198   4.941   1.494   3.859
 9078TIP3    H227199   5.004   1.362   3.898
 9079TIP3   OH227200   5.868   4.525   4.815
 9079TIP3    H127201   5.836   4.441   4.782
 9079TIP3    H227202   5.800   4.555   4.875
 9080TIP3   OH227203   2.785   6.737   3.236
 9080TIP3    H127204   2.698   6.708   3.263
 9080TIP3    H227205   2.771   6.823   3.197
 9081TIP3   OH227206   0.165   5.337   2.184
 9081TIP3    H127207   0.085   5.343   2.237
 9081TIP3    H227208   0.236   5.329   2.248
 9082TIP3   OH227209   5.329   3.239   3.557
 9082TIP3    H127210   5.400   3.281   3.606
 9082TIP3    H227211   5.334   3.147   3.581
 9083TIP3   OH227212   3.804   2.276   4.515
 9083TIP3    H127213   3.781   2.368   4.499
 9083TIP3    H227214   3.723   2.237   4.548
 9084TIP3   OH227215   2.636   1.012   1.536
 9084TIP3    H127216   2.575   1.044   1.603
 9084TIP3    H227217   2.581   0.968   1.472
 9085TIP3   OH227218   3.369   6.145   4.642
 9085TIP3    H127219   3.362   6.051   4.661
 9085TIP3    H227220   3.280   6.178   4.652
 9086TIP3   OH227221   6.149   4.388   3.016
 9086TIP3    H127222   6.161   4.301   3.054
 9086TIP3    H227223   6.055   4.404   3.021
 9087TIP3   OH227224   1.578  -0.040   0.450
 9087TIP3    H127225   1.549   0.039   0.497
 9087TIP3    H227226   1.497  -0.078   0.416
 9088TIP3   OH227227   7.136   2.962   1.646
 9088TIP3    H127228   7.189   3.013   1.586
 9088TIP3    H227229   7.071   2.918   1.590
 9089TIP3   OH227230   1.392   2.222   3.640
 9089TIP3    H127231   1.366   2.151   3.699
 9089TIP3    H227232   1.417   2.178   3.559
 9090TIP3   OH227233   5.702   2.713   5.526
 9090TIP3    H127234   5.720   2.636   5.580
 9090TIP3    H227235   5.609   2.706   5.505
 9091TIP3   OH227236   5.589   5.514   4.993
 9091TIP3    H127237   5.547   5.599   4.981
 9091TIP3    H227238   5.531   5.452   4.948
 9092TIP3   OH227239   2.943   5.501   0.246
 9092TIP3    H127240   2.857   5.495   0.288
 9092TIP3    H227241   2.969   5.593   0.258
 9093TIP3   OH227242   5.322   5.248   0.051
 9093TIP3    H127243   5.296   5.252  -0.041
 9093TIP3    H227244   5.338   5.340   0.075
 9094TIP3   OH227245   4.691   5.277   1.039
 9094TIP3    H127246   4.606   5.295   1.079
 9094TIP3    H227247   4.752   5.334   1.087
 9095TIP3   OH227248   6.948   6.042   0.459
 9095TIP3    H127249   7.010   5.985   0.414
 9095TIP3    H227250   6.952   6.125   0.410
 9096TIP3   OH227251   2.539   6.509   4.928
 9096TIP3    H127252   2.485   6.470   4.859
 9096TIP3    H227253   2.626   6.469   4.915
 9097TIP3   OH227254   2.202   2.394   2.167
 9097TIP3    H127255   2.142   2.384   2.093
 9097TIP3    H227256   2.265   2.323   2.157
 9098TIP3   OH227257   3.822   2.918   5.156
 9098TIP3    H127258   3.798   2.832   5.188
 9098TIP3    H227259   3.884   2.952   5.221
 9099TIP3   OH227260   1.541   5.942   3.273
 9099TIP3    H127261   1.620   5.901   3.237
 9099TIP3    H227262   1.480   5.945   3.199
 9100TIP3   OH227263   3.107   5.578   1.953
 9100TIP3    H127264   3.040   5.524   1.911
 9100TIP3    H227265   3.082   5.580   2.045
 9101TIP3   OH227266   2.065   1.700   3.216
 9101TIP3    H127267   2.020   1.747   3.286
 9101TIP3    H227268   2.007   1.626   3.196
 9102TIP3   OH227269   2.180   4.897   4.222
 9102TIP3    H127270   2.194   4.814   4.177
 9102TIP3    H227271   2.157   4.873   4.311
 9103TIP3   OH227272   7.204   0.783   0.645
 9103TIP3    H127273   7.220   0.691   0.665
 9103TIP3    H227274   7.127   0.806   0.698
 9104TIP3   OH227275   5.669   4.829   0.938
 9104TIP3    H127276   5.695   4.743   0.971
 9104TIP3    H227277   5.573   4.825   0.937
 9105TIP3   OH227278   4.258   4.099   4.890
 9105TIP3    H127279   4.263   4.165   4.821
 9105TIP3    H227280   4.249   4.149   4.971
 9106TIP3   OH227281   0.853   1.334   3.276
 9106TIP3    H127282   0.862   1.419   3.318
 9106TIP3    H227283   0.924   1.332   3.211
 9107TIP3   OH227284   3.632   3.610   3.484
 9107TIP3    H127285   3.593   3.695   3.503
 9107TIP3    H227286   3.576   3.547   3.529
 9108TIP3   OH227287   6.916   1.646   3.770
 9108TIP3    H127288   6.963   1.709   3.824
 9108TIP3    H227289   6.824   1.658   3.794
 9109TIP3   OH227290   2.426   5.833   4.662
 9109TIP3    H127291   2.489   5.839   4.590
 9109TIP3    H227292   2.449   5.907   4.719
 9110TIP3   OH227293   2.239   0.257   3.698
 9110TIP3    H127294   2.254   0.320   3.627
 9110TIP3    H227295   2.307   0.191   3.686
 9111TIP3   OH227296   3.613   3.803   5.241
 9111TIP3    H127297   3.621   3.878   5.183
 9111TIP3    H227298   3.621   3.727   5.183
 9112TIP3   OH227299   5.521   3.845   4.194
 9112TIP3    H127300   5.427   3.859   4.204
 9112TIP3    H227301   5.534   3.752   4.215
 9113TIP3   OH227302   4.462   3.116   4.552
 9113TIP3    H127303   4.556   3.111   4.535
 9113TIP3    H227304   4.448   3.205   4.587
 9114TIP3   OH227305   1.340   2.715   1.974
 9114TIP3    H127306   1.358   2.804   2.004
 9114TIP3    H227307   1.390   2.659   2.034
 9115TIP3   OH227308   3.765   0.824   5.599
 9115TIP3    H127309   3.702   0.884   5.559
 9115TIP3    H227310   3.761   0.745   5.545
 9116TIP3   OH227311   2.287   5.942   3.366
 9116TIP3    H127312   2.345   6.005   3.323
 9116TIP3    H227313   2.316   5.941   3.458
 9117TIP3   OH227314   1.772   4.214   1.585
 9117TIP3    H127315   1.808   4.288   1.635
 9117TIP3    H227316   1.706   4.176   1.643
 9118TIP3   OH227317   1.292   2.793   4.058
 9118TIP3    H127318   1.226   2.750   4.113
 9118TIP3    H227319   1.315   2.872   4.106
 9119TIP3   OH227320   3.897   1.691   3.801
 9119TIP3    H127321   3.950   1.735   3.734
 9119TIP3    H227322   3.841   1.631   3.751
 9120TIP3   OH227323   2.395   4.551   5.106
 9120TIP3    H127324   2.398   4.577   5.014
 9120TIP3    H227325   2.449   4.472   5.111
 9121TIP3   OH227326   4.025   3.743   5.838
 9121TIP3    H127327   3.977   3.672   5.882
 9121TIP3    H227328   3.967   3.771   5.768
 9122TIP3   OH227329   6.576   4.985   5.360
 9122TIP3    H127330   6.579   4.985   5.265
 9122TIP3    H227331   6.486   5.010   5.381
 9123TIP3   OH227332   4.425   2.821   0.633
 9123TIP3    H127333   4.361   2.759   0.598
 9123TIP3    H227334   4.467   2.774   0.706
 9124TIP3   OH227335   2.582   4.466   3.764
 9124TIP3    H127336   2.676   4.481   3.753
 9124TIP3    H227337   2.540   4.541   3.721
 9125TIP3   OH227338   6.434   6.221   2.257
 9125TIP3    H127339   6.380   6.185   2.327
 9125TIP3    H227340   6.524   6.212   2.288
 9126TIP3   OH227341   6.441   3.863   1.256
 9126TIP3    H127342   6.518   3.839   1.204
 9126TIP3    H227343   6.401   3.935   1.207
 9127TIP3   OH227344   1.908   0.722   2.973
 9127TIP3    H127345   1.890   0.639   2.929
 9127TIP3    H227346   1.860   0.716   3.055
 9128TIP3   OH227347   1.572   1.344   1.578
 9128TIP3    H127348   1.632   1.419   1.583
 9128TIP3    H227349   1.506   1.371   1.515
 9129TIP3   OH227350   0.328   2.358   2.504
 9129TIP3    H127351   0.300   2.446   2.479
 9129TIP3    H227352   0.297   2.302   2.432
 9130TIP3   OH227353   6.830   5.101   4.772
 9130TIP3    H127354   6.921   5.072   4.766
 9130TIP3    H227355   6.787   5.061   4.696
 9131TIP3   OH227356   4.937   1.969   5.714
 9131TIP3    H127357   4.897   2.016   5.641
 9131TIP3    H227358   4.969   2.038   5.773
 9132TIP3   OH227359   3.196   0.455   3.713
 9132TIP3    H127360   3.262   0.462   3.782
 9132TIP3    H227361   3.241   0.408   3.643
 9133TIP3   OH227362   2.998   4.360   1.212
 9133TIP3    H127363   3.011   4.304   1.135
 9133TIP3    H227364   3.043   4.315   1.283
 9134TIP3   OH227365   4.680   2.706   5.172
 9134TIP3    H127366   4.688   2.723   5.078
 9134TIP3    H227367   4.619   2.632   5.177
 9135TIP3   OH227368   2.739   0.933   3.607
 9135TIP3    H127369   2.811   0.920   3.546
 9135TIP3    H227370   2.704   1.019   3.584
 9136TIP3   OH227371   4.605   0.786   3.965
 9136TIP3    H127372   4.660   0.794   4.043
 9136TIP3    H227373   4.542   0.858   3.972
 9137TIP3   OH227374   6.096   3.944   4.779
 9137TIP3    H127375   6.147   4.016   4.817
 9137TIP3    H227376   6.064   3.979   4.695
 9138TIP3   OH227377   6.250   3.311   1.877
 9138TIP3    H127378   6.271   3.404   1.869
 9138TIP3    H227379   6.224   3.300   1.968
 9139TIP3   OH227380   4.485   4.130   1.852
 9139TIP3    H127381   4.434   4.208   1.829
 9139TIP3    H227382   4.433   4.057   1.818
 9140TIP3   OH227383   5.328   5.799   4.220
 9140TIP3    H127384   5.400   5.821   4.161
 9140TIP3    H227385   5.346   5.709   4.247
 9141TIP3   OH227386   0.041   4.130   4.964
 9141TIP3    H127387   0.099   4.158   5.034
 9141TIP3    H227388   0.054   4.036   4.958
 9142TIP3   OH227389   2.190   1.626   1.662
 9142TIP3    H127390   2.114   1.685   1.665
 9142TIP3    H227391   2.164   1.551   1.716
 9143TIP3   OH227392   1.011   4.403   5.449
 9143TIP3    H127393   0.954   4.327   5.459
 9143TIP3    H227394   1.047   4.395   5.361
 9144TIP3   OH227395   5.263   2.620   3.008
 9144TIP3    H127396   5.250   2.681   3.081
 9144TIP3    H227397   5.195   2.553   3.020
 9145TIP3   OH227398   6.679   6.480   1.689
 9145TIP3    H127399   6.641   6.521   1.766
 9145TIP3    H227400   6.727   6.404   1.724
 9146TIP3   OH227401   1.641   2.996   2.547
 9146TIP3    H127402   1.653   3.081   2.589
 9146TIP3    H227403   1.730   2.968   2.524
 9147TIP3   OH227404   7.219   3.488   1.106
 9147TIP3    H127405   7.262   3.568   1.136
 9147TIP3    H227406   7.145   3.519   1.053
 9148TIP3   OH227407   0.535   5.677   2.623
 9148TIP3    H127408   0.480   5.704   2.697
 9148TIP3    H227409   0.621   5.715   2.641
 9149TIP3   OH227410   0.415   3.118   5.756
 9149TIP3    H127411   0.455   3.040   5.717
 9149TIP3    H227412   0.484   3.155   5.811
 9150TIP3   OH227413   0.856   4.809   0.751
 9150TIP3    H127414   0.783   4.865   0.728
 9150TIP3    H227415   0.926   4.833   0.690
 9151TIP3   OH227416   2.518   1.283   4.144
 9151TIP3    H127417   2.512   1.372   4.178
 9151TIP3    H227418   2.561   1.292   4.059
 9152TIP3   OH227419   3.984   6.285   1.099
 9152TIP3    H127420   4.004   6.267   1.007
 9152TIP3    H227421   4.065   6.263   1.146
 9153TIP3   OH227422   1.728   1.366   5.670
 9153TIP3    H127423   1.663   1.389   5.604
 9153TIP3    H227424   1.789   1.440   5.670
 9154TIP3   OH227425   1.205   4.690   4.735
 9154TIP3    H127426   1.147   4.740   4.793
 9154TIP3    H227427   1.234   4.754   4.670
 9155TIP3   OH227428   2.762   3.086   4.211
 9155TIP3    H127429   2.782   3.033   4.289
 9155TIP3    H227430   2.785   3.030   4.137
 9156TIP3   OH227431   7.092   3.926   1.111
 9156TIP3    H127432   7.038   3.891   1.040
 9156TIP3    H227433   7.146   3.853   1.139
 9157TIP3   OH227434   4.253   2.915   0.986
 9157TIP3    H127435   4.289   2.999   0.956
 9157TIP3    H227436   4.162   2.917   0.959
 9158TIP3   OH227437   0.669   0.388   1.934
 9158TIP3    H127438   0.610   0.368   1.861
 9158TIP3    H227439   0.704   0.474   1.914
 9159TIP3   OH227440   3.407   5.179   4.666
 9159TIP3    H127441   3.341   5.138   4.721
 9159TIP3    H227442   3.386   5.148   4.577
 9160TIP3   OH227443   5.924   2.410   3.445
 9160TIP3    H127444   5.913   2.504   3.428
 9160TIP3    H227445   6.012   2.403   3.483
 9161TIP3   OH227446   5.710   6.605   1.351
 9161TIP3    H127447   5.773   6.618   1.422
 9161TIP3    H227448   5.759   6.557   1.284
 9162TIP3   OH227449   0.179   2.680   3.896
 9162TIP3    H127450   0.229   2.599   3.903
 9162TIP3    H227451   0.236   2.739   3.846
 9163TIP3   OH227452   0.475   5.966   2.981
 9163TIP3    H127453   0.385   5.948   3.011
 9163TIP3    H227454   0.492   6.056   3.009
 9164TIP3   OH227455   0.646   3.318   2.357
 9164TIP3    H127456   0.634   3.402   2.403
 9164TIP3    H227457   0.712   3.272   2.409
 9165TIP3   OH227458   0.517   4.270   4.736
 9165TIP3    H127459   0.540   4.180   4.756
 9165TIP3    H227460   0.434   4.284   4.781
 9166TIP3   OH227461   4.078   0.156   3.477
 9166TIP3    H127462   4.086   0.136   3.570
 9166TIP3    H227463   4.118   0.080   3.433
 9167TIP3   OH227464   7.043   0.890   3.740
 9167TIP3    H127465   6.985   0.929   3.675
 9167TIP3    H227466   7.129   0.890   3.699
 9168TIP3   OH227467   4.051   4.094   4.347
 9168TIP3    H127468   4.016   4.005   4.350
 9168TIP3    H227469   4.091   4.102   4.260
 9169TIP3   OH227470   1.972   4.572   5.519
 9169TIP3    H127471   1.981   4.481   5.547
 9169TIP3    H227472   1.884   4.578   5.484
 9170TIP3   OH227473   6.807   0.371   0.881
 9170TIP3    H127474   6.802   0.403   0.792
 9170TIP3    H227475   6.718   0.376   0.915
 9171TIP3   OH227476   3.770   5.245   0.976
 9171TIP3    H127477   3.807   5.279   1.058
 9171TIP3    H227478   3.709   5.312   0.947
 9172TIP3   OH227479   6.795   2.188   5.436
 9172TIP3    H127480   6.736   2.252   5.395
 9172TIP3    H227481   6.737   2.117   5.464
 9173TIP3   OH227482   0.501   0.980   4.018
 9173TIP3    H127483   0.476   0.889   4.031
 9173TIP3    H227484   0.423   1.030   4.042
 9174TIP3   OH227485   0.651   5.925   3.959
 9174TIP3    H127486   0.694   5.991   3.905
 9174TIP3    H227487   0.667   5.842   3.913
 9175TIP3   OH227488   6.397   2.246   4.362
 9175TIP3    H127489   6.473   2.188   4.368
 9175TIP3    H227490   6.434   2.334   4.358
 9176TIP3   OH227491   3.352   1.065   1.786
 9176TIP3    H127492   3.262   1.057   1.818
 9176TIP3    H227493   3.406   1.047   1.863
 9177TIP3   OH227494   1.030   0.787   4.394
 9177TIP3    H127495   1.094   0.822   4.455
 9177TIP3    H227496   1.040   0.692   4.399
 9178TIP3   OH227497   5.861   5.157   2.508
 9178TIP3    H127498   5.890   5.141   2.418
 9178TIP3    H227499   5.865   5.072   2.550
 9179TIP3   OH227500   1.167   0.629   3.192
 9179TIP3    H127501   1.088   0.608   3.243
 9179TIP3    H227502   1.137   0.632   3.101
 9180TIP3   OH227503   1.994   2.393   0.486
 9180TIP3    H127504   1.933   2.432   0.548
 9180TIP3    H227505   2.078   2.434   0.508
 9181TIP3   OH227506   1.349   0.210   2.282
 9181TIP3    H127507   1.265   0.257   2.287
 9181TIP3    H227508   1.367   0.204   2.188
 9182TIP3   OH227509   6.317   2.990   0.141
 9182TIP3    H127510   6.403   3.025   0.121
 9182TIP3    H227511   6.325   2.896   0.127
 9183TIP3   OH227512   0.312   3.610   4.104
 9183TIP3    H127513   0.379   3.633   4.040
 9183TIP3    H227514   0.289   3.519   4.083
 9184TIP3   OH227515   3.166   5.900   1.811
 9184TIP3    H127516   3.234   5.967   1.813
 9184TIP3    H227517   3.146   5.889   1.718
 9185TIP3   OH227518   6.449   4.362   3.227
 9185TIP3    H127519   6.360   4.329   3.227
 9185TIP3    H227520   6.445   4.445   3.275
 9186TIP3   OH227521   5.721   5.232   3.562
 9186TIP3    H127522   5.633   5.198   3.574
 9186TIP3    H227523   5.743   5.273   3.646
 9187TIP3   OH227524   5.009   2.744   1.986
 9187TIP3    H127525   4.987   2.743   1.892
 9187TIP3    H227526   5.093   2.790   1.991
 9188TIP3   OH227527   4.842   5.798   5.043
 9188TIP3    H127528   4.927   5.839   5.029
 9188TIP3    H227529   4.826   5.807   5.137
 9189TIP3   OH227530   0.881   2.901   2.332
 9189TIP3    H127531   0.955   2.845   2.308
 9189TIP3    H227532   0.902   2.986   2.293
 9190TIP3   OH227533   6.566   6.707   4.916
 9190TIP3    H127534   6.523   6.627   4.887
 9190TIP3    H227535   6.655   6.700   4.881
 9191TIP3   OH227536   3.649   1.432   4.748
 9191TIP3    H127537   3.568   1.468   4.785
 9191TIP3    H227538   3.661   1.478   4.666
 9192TIP3   OH227539   3.491   5.314   4.935
 9192TIP3    H127540   3.512   5.300   5.027
 9192TIP3    H227541   3.542   5.392   4.911
 9193TIP3   OH227542   0.315   4.986   0.374
 9193TIP3    H127543   0.350   4.901   0.349
 9193TIP3    H227544   0.390   5.045   0.373
 9194TIP3   OH227545   6.514   6.401   2.567
 9194TIP3    H127546   6.483   6.486   2.599
 9194TIP3    H227547   6.599   6.419   2.529
 9195TIP3   OH227548   2.747   4.743   0.137
 9195TIP3    H127549   2.805   4.779   0.070
 9195TIP3    H227550   2.789   4.661   0.163
 9196TIP3   OH227551   1.535   6.112   3.615
 9196TIP3    H127552   1.594   6.180   3.646
 9196TIP3    H227553   1.501   6.146   3.532
 9197TIP3   OH227554   4.696   3.262   1.994
 9197TIP3    H127555   4.730   3.277   2.082
 9197TIP3    H227556   4.709   3.345   1.948
 9198TIP3   OH227557   6.620   4.060   1.958
 9198TIP3    H127558   6.650   4.027   2.042
 9198TIP3    H227559   6.554   3.996   1.929
 9199TIP3   OH227560   7.049   1.642   2.606
 9199TIP3    H127561   7.049   1.555   2.646
 9199TIP3    H227562   7.072   1.626   2.515
 9200TIP3   OH227563   6.560   1.422   0.954
 9200TIP3    H127564   6.464   1.429   0.960
 9200TIP3    H227565   6.592   1.458   1.036
 9201TIP3   OH227566   3.339   0.270   5.383
 9201TIP3    H127567   3.267   0.333   5.391
 9201TIP3    H227568   3.329   0.214   5.460
 9202TIP3   OH227569   6.244   0.158   0.658
 9202TIP3    H127570   6.334   0.163   0.624
 9202TIP3    H227571   6.201   0.094   0.602
 9203TIP3   OH227572   7.035   4.103   0.388
 9203TIP3    H127573   7.120   4.089   0.429
 9203TIP3    H227574   7.050   4.090   0.295
 9204TIP3   OH227575   6.883   5.546   3.895
 9204TIP3    H127576   6.825   5.559   3.971
 9204TIP3    H227577   6.826   5.509   3.828
 9205TIP3   OH227578   3.206   0.448   3.024
 9205TIP3    H127579   3.285   0.463   2.972
 9205TIP3    H227580   3.136   0.489   2.974
 9206TIP3   OH227581   5.182   4.477   1.346
 9206TIP3    H127582   5.183   4.559   1.394
 9206TIP3    H227583   5.089   4.464   1.324
 9207TIP3   OH227584   1.910   1.003   3.180
 9207TIP3    H127585   1.987   0.950   3.158
 9207TIP3    H227586   1.945   1.075   3.232
 9208TIP3   OH227587   1.761   3.808   1.341
 9208TIP3    H127588   1.734   3.794   1.250
 9208TIP3    H227589   1.794   3.723   1.370
 9209TIP3   OH227590   1.573   3.498   5.112
 9209TIP3    H127591   1.638   3.563   5.088
 9209TIP3    H227592   1.505   3.507   5.045
 9210TIP3   OH227593   5.179   4.998   3.240
 9210TIP3    H127594   5.160   4.905   3.228
 9210TIP3    H227595   5.193   5.031   3.151
 9211TIP3   OH227596   2.648   1.423   0.425
 9211TIP3    H127597   2.605   1.401   0.507
 9211TIP3    H227598   2.583   1.401   0.357
 9212TIP3   OH227599   6.732   4.526   5.852
 9212TIP3    H127600   6.661   4.472   5.819
 9212TIP3    H227601   6.692   4.610   5.873
 9213TIP3   OH227602   6.486   0.945   3.485
 9213TIP3    H127603   6.488   0.986   3.572
 9213TIP3    H227604   6.445   1.011   3.429
 9214TIP3   OH227605   0.965   1.298   3.027
 9214TIP3    H127606   0.939   1.307   2.936
 9214TIP3    H227607   1.054   1.265   3.024
 9215TIP3   OH227608   0.114   2.233   3.535
 9215TIP3    H127609   0.108   2.137   3.533
 9215TIP3    H227610   0.044   2.261   3.594
 9216TIP3   OH227611   2.812   5.262   3.902
 9216TIP3    H127612   2.800   5.356   3.913
 9216TIP3    H227613   2.799   5.246   3.809
 9217TIP3   OH227614   6.391   1.714   0.653
 9217TIP3    H127615   6.440   1.752   0.579
 9217TIP3    H227616   6.303   1.751   0.645
 9218TIP3   OH227617   4.996   3.910   4.711
 9218TIP3    H127618   4.973   3.910   4.618
 9218TIP3    H227619   4.952   3.987   4.746
 9219TIP3   OH227620   5.099   6.694   1.973
 9219TIP3    H127621   5.093   6.786   1.948
 9219TIP3    H227622   5.191   6.672   1.965
 9220TIP3   OH227623   6.949   2.952   4.334
 9220TIP3    H127624   7.008   2.896   4.384
 9220TIP3    H227625   6.914   3.014   4.398
 9221TIP3   OH227626   6.882   0.071   0.998
 9221TIP3    H127627   6.822   0.146   0.997
 9221TIP3    H227628   6.855   0.017   0.924
 9222TIP3   OH227629   6.063   3.368   1.120
 9222TIP3    H127630   6.080   3.279   1.087
 9222TIP3    H227631   5.972   3.366   1.146
 9223TIP3   OH227632   6.300   0.638   1.898
 9223TIP3    H127633   6.262   0.636   1.986
 9223TIP3    H227634   6.234   0.596   1.843
 9224TIP3   OH227635   5.176   2.694   2.320
 9224TIP3    H127636   5.184   2.776   2.272
 9224TIP3    H227637   5.087   2.663   2.302
 9225TIP3   OH227638   5.124   4.797   5.212
 9225TIP3    H127639   5.076   4.805   5.129
 9225TIP3    H227640   5.145   4.704   5.219
 9226TIP3   OH227641   6.240   3.040   1.800
 9226TIP3    H127642   6.238   3.135   1.812
 9226TIP3    H227643   6.172   3.007   1.858
 9227TIP3   OH227644   1.577   4.327   2.368
 9227TIP3    H127645   1.657   4.373   2.341
 9227TIP3    H227646   1.569   4.346   2.461
 9228TIP3   OH227647   2.405   5.740   1.450
 9228TIP3    H127648   2.411   5.788   1.533
 9228TIP3    H227649   2.487   5.690   1.445
 9229TIP3   OH227650   2.562   6.453   4.439
 9229TIP3    H127651   2.519   6.484   4.360
 9229TIP3    H227652   2.637   6.401   4.407
 9230TIP3   OH227653   2.014   0.086   4.582
 9230TIP3    H127654   2.062   0.007   4.606
 9230TIP3    H227655   1.967   0.111   4.662
 9231TIP3   OH227656   3.256   2.935   1.011
 9231TIP3    H127657   3.295   2.849   1.021
 9231TIP3    H227658   3.317   2.994   1.055
 9232TIP3   OH227659   3.803   5.835   2.390
 9232TIP3    H127660   3.736   5.899   2.412
 9232TIP3    H227661   3.768   5.752   2.422
 9233TIP3   OH227662   2.866   3.097   2.960
 9233TIP3    H127663   2.926   3.109   3.033
 9233TIP3    H227664   2.899   3.155   2.892
 9234TIP3   OH227665   4.597   3.964   4.523
 9234TIP3    H127666   4.567   3.992   4.437
 9234TIP3    H227667   4.521   3.977   4.580
 9235TIP3   OH227668   3.750   1.656   1.464
 9235TIP3    H127669   3.716   1.572   1.493
 9235TIP3    H227670   3.773   1.643   1.372
 9236TIP3   OH227671   2.769   6.556   5.349
 9236TIP3    H127672   2.796   6.476   5.393
 9236TIP3    H227673   2.805   6.549   5.261
 9237TIP3   OH227674   6.300   1.458   2.887
 9237TIP3    H127675   6.221   1.428   2.841
 9237TIP3    H227676   6.337   1.378   2.924
 9238TIP3   OH227677   3.829   5.277   0.381
 9238TIP3    H127678   3.851   5.362   0.342
 9238TIP3    H227679   3.888   5.269   0.456
 9239TIP3   OH227680   3.720   3.270   0.041
 9239TIP3    H127681   3.741   3.226   0.123
 9239TIP3    H227682   3.746   3.207  -0.027
 9240TIP3   OH227683   2.076   0.069   1.860
 9240TIP3    H127684   2.011   0.031   1.801
 9240TIP3    H227685   2.082   0.007   1.932
 9241TIP3   OH227686   2.462   1.673   3.544
 9241TIP3    H127687   2.374   1.667   3.581
 9241TIP3    H227688   2.454   1.736   3.472
 9242TIP3   OH227689   2.253   4.485   3.464
 9242TIP3    H127690   2.308   4.409   3.445
 9242TIP3    H227691   2.179   4.450   3.514
 9243TIP3   OH227692   3.888   5.969   4.222
 9243TIP3    H127693   3.814   6.023   4.250
 9243TIP3    H227694   3.966   6.018   4.247
 9244TIP3   OH227695   0.032   0.307   0.828
 9244TIP3    H127696   0.124   0.311   0.802
 9244TIP3    H227697   0.012   0.214   0.833
 9245TIP3   OH227698   4.874   1.496   4.639
 9245TIP3    H127699   4.932   1.518   4.711
 9245TIP3    H227700   4.832   1.579   4.616
 9246TIP3   OH227701   6.135   6.540   2.129
 9246TIP3    H127702   6.109   6.448   2.139
 9246TIP3    H227703   6.177   6.544   2.044
 9247TIP3   OH227704   4.774   0.926   2.916
 9247TIP3    H127705   4.812   1.005   2.954
 9247TIP3    H227706   4.848   0.865   2.908
 9248TIP3   OH227707   4.194   3.305   5.393
 9248TIP3    H127708   4.112   3.325   5.348
 9248TIP3    H227709   4.262   3.341   5.335
 9249TIP3   OH227710   3.124   3.745   2.924
 9249TIP3    H127711   3.034   3.778   2.929
 9249TIP3    H227712   3.121   3.678   2.856
 9250TIP3   OH227713   4.039   4.593   4.234
 9250TIP3    H127714   3.946   4.608   4.222
 9250TIP3    H227715   4.055   4.607   4.327
 9251TIP3   OH227716   0.365   5.674   2.832
 9251TIP3    H127717   0.300   5.740   2.855
 9251TIP3    H227718   0.435   5.685   2.897
 9252TIP3   OH227719   1.572   3.272   3.441
 9252TIP3    H127720   1.573   3.312   3.528
 9252TIP3    H227721   1.544   3.181   3.457
 9253TIP3   OH227722   0.930   4.417   3.158
 9253TIP3    H127723   0.873   4.443   3.230
 9253TIP3    H227724   0.909   4.478   3.087
 9254TIP3   OH227725   6.562   5.649   4.925
 9254TIP3    H127726   6.545   5.715   4.993
 9254TIP3    H227727   6.611   5.697   4.858
 9255TIP3   OH227728   6.978   1.253   3.835
 9255TIP3    H127729   6.969   1.295   3.921
 9255TIP3    H227730   6.910   1.186   3.834
 9256TIP3   OH227731   4.604   4.013   5.190
 9256TIP3    H127732   4.597   3.945   5.257
 9256TIP3    H227733   4.618   4.094   5.240
 9257TIP3   OH227734   0.194   3.792   1.720
 9257TIP3    H127735   0.111   3.818   1.759
 9257TIP3    H227736   0.173   3.774   1.628
 9258TIP3   OH227737   1.342   1.856   5.395
 9258TIP3    H127738   1.438   1.853   5.402
 9258TIP3    H227739   1.313   1.772   5.429
 9259TIP3   OH227740   1.055   6.160   0.120
 9259TIP3    H127741   1.017   6.093   0.176
 9259TIP3    H227742   1.135   6.121   0.085
 9260TIP3   OH227743   6.271   2.421   2.516
 9260TIP3    H127744   6.311   2.335   2.507
 9260TIP3    H227745   6.195   2.406   2.572
 9261TIP3   OH227746   6.326   4.660   5.791
 9261TIP3    H127747   6.349   4.638   5.701
 9261TIP3    H227748   6.356   4.749   5.803
 9262TIP3   OH227749   2.328   6.242   3.545
 9262TIP3    H127750   2.382   6.244   3.467
 9262TIP3    H227751   2.319   6.334   3.570
 9263TIP3   OH227752   3.590   1.741   0.679
 9263TIP3    H127753   3.522   1.786   0.729
 9263TIP3    H227754   3.548   1.660   0.650
 9264TIP3   OH227755   6.016   5.672   2.650
 9264TIP3    H127756   6.078   5.660   2.722
 9264TIP3    H227757   6.035   5.759   2.616
 9265TIP3   OH227758   4.835  -0.010   1.115
 9265TIP3    H127759   4.908   0.043   1.148
 9265TIP3    H227760   4.808  -0.062   1.191
 9266TIP3   OH227761   2.218   5.624   3.614
 9266TIP3    H127762   2.292   5.586   3.566
 9266TIP3    H227763   2.182   5.551   3.664
 9267TIP3   OH227764   7.154   6.092   3.335
 9267TIP3    H127765   7.194   6.061   3.254
 9267TIP3    H227766   7.065   6.055   3.334
 9268TIP3   OH227767   0.950   4.870   3.340
 9268TIP3    H127768   0.970   4.897   3.251
 9268TIP3    H227769   0.972   4.946   3.394
 9269TIP3   OH227770   0.128   1.815   1.667
 9269TIP3    H127771   0.173   1.782   1.744
 9269TIP3    H227772   0.123   1.739   1.608
 9270TIP3   OH227773   2.425   4.252   3.444
 9270TIP3    H127774   2.520   4.245   3.453
 9270TIP3    H227775   2.407   4.228   3.353
 9271TIP3   OH227776   4.250   0.918   0.500
 9271TIP3    H127777   4.214   1.006   0.488
 9271TIP3    H227778   4.316   0.928   0.568
 9272TIP3   OH227779   4.315   0.576   2.706
 9272TIP3    H127780   4.305   0.646   2.771
 9272TIP3    H227781   4.257   0.506   2.737
 9273TIP3   OH227782   5.526   4.325   4.979
 9273TIP3    H127783   5.567   4.294   5.060
 9273TIP3    H227784   5.472   4.251   4.950
 9274TIP3   OH227785   4.102   0.737   2.623
 9274TIP3    H127786   4.051   0.691   2.556
 9274TIP3    H227787   4.192   0.707   2.611
 9275TIP3   OH227788   1.901   0.491   2.066
 9275TIP3    H127789   1.868   0.431   2.133
 9275TIP3    H227790   1.953   0.436   2.008
 9276TIP3   OH227791   5.830   3.700   0.479
 9276TIP3    H127792   5.896   3.654   0.530
 9276TIP3    H227793   5.872   3.783   0.455
 9277TIP3   OH227794   2.130   0.980   2.107
 9277TIP3    H127795   2.214   1.001   2.149
 9277TIP3    H227796   2.127   0.884   2.106
 9278TIP3   OH227797   0.274   2.885   4.291
 9278TIP3    H127798   0.280   2.973   4.329
 9278TIP3    H227799   0.364   2.862   4.268
 9279TIP3   OH227800   5.247   4.196   4.068
 9279TIP3    H127801   5.224   4.192   4.161
 9279TIP3    H227802   5.184   4.257   4.030
 9280TIP3   OH227803   6.991   1.087   0.723
 9280TIP3    H127804   6.908   1.131   0.707
 9280TIP3    H227805   6.996   1.020   0.654
 9281TIP3   OH227806   4.242   1.406   1.950
 9281TIP3    H127807   4.222   1.469   2.019
 9281TIP3    H227808   4.330   1.428   1.921
 9282TIP3   OH227809   6.135   6.328   2.960
 9282TIP3    H127810   6.066   6.299   3.020
 9282TIP3    H227811   6.189   6.388   3.011
 9283TIP3   OH227812   5.351   6.242   1.083
 9283TIP3    H127813   5.337   6.232   0.989
 9283TIP3    H227814   5.278   6.297   1.112
 9284TIP3   OH227815   2.734   1.416   5.562
 9284TIP3    H127816   2.719   1.509   5.545
 9284TIP3    H227817   2.815   1.395   5.515
 9285TIP3   OH227818   6.117   0.393   4.687
 9285TIP3    H127819   6.115   0.488   4.676
 9285TIP3    H227820   6.033   0.373   4.729
 9286TIP3   OH227821   1.624   0.120   1.637
 9286TIP3    H127822   1.700   0.087   1.685
 9286TIP3    H227823   1.634   0.086   1.549
 9287TIP3   OH227824   1.104   2.836   1.355
 9287TIP3    H127825   1.022   2.819   1.401
 9287TIP3    H227826   1.173   2.820   1.420
 9288TIP3   OH227827   0.867   5.702   5.705
 9288TIP3    H127828   0.913   5.735   5.783
 9288TIP3    H227829   0.784   5.749   5.705
 9289TIP3   OH227830   5.962   0.909   2.987
 9289TIP3    H127831   5.920   0.863   3.060
 9289TIP3    H227832   6.040   0.857   2.968
 9290TIP3   OH227833   1.619   4.934   2.076
 9290TIP3    H127834   1.660   4.973   2.153
 9290TIP3    H227835   1.631   4.840   2.088
 9291TIP3   OH227836   0.144   4.763   0.098
 9291TIP3    H127837   0.136   4.845   0.050
 9291TIP3    H227838   0.195   4.706   0.040
 9292TIP3   OH227839   1.920   0.033   1.650
 9292TIP3    H127840   1.914   0.128   1.639
 9292TIP3    H227841   1.872  -0.003   1.576
 9293TIP3   OH227842   4.765   2.433   4.202
 9293TIP3    H127843   4.726   2.346   4.209
 9293TIP3    H227844   4.690   2.493   4.209
 9294TIP3   OH227845   2.034   2.426   1.707
 9294TIP3    H127846   2.020   2.473   1.789
 9294TIP3    H227847   2.025   2.333   1.730
 9295TIP3   OH227848   1.957   4.229   5.329
 9295TIP3    H127849   1.875   4.239   5.280
 9295TIP3    H227850   1.935   4.258   5.418
 9296TIP3   OH227851   1.861   1.522   3.726
 9296TIP3    H127852   1.781   1.484   3.762
 9296TIP3    H227853   1.833   1.599   3.677
 9297TIP3   OH227854   4.969   0.458   2.924
 9297TIP3    H127855   4.984   0.549   2.947
 9297TIP3    H227856   4.981   0.455   2.829
 9298TIP3   OH227857   7.044   3.804   5.516
 9298TIP3    H127858   7.063   3.875   5.454
 9298TIP3    H227859   7.119   3.745   5.509
 9299TIP3   OH227860   7.003   2.745   5.703
 9299TIP3    H127861   6.958   2.829   5.713
 9299TIP3    H227862   7.092   2.769   5.677
 9300TIP3   OH227863   2.336   5.247   3.409
 9300TIP3    H127864   2.346   5.186   3.336
 9300TIP3    H227865   2.242   5.265   3.412
 9301TIP3   OH227866   3.521   4.445   2.040
 9301TIP3    H127867   3.426   4.454   2.040
 9301TIP3    H227868   3.549   4.484   2.123
 9302TIP3   OH227869   7.136   2.066   2.058
 9302TIP3    H127870   7.126   2.028   1.971
 9302TIP3    H227871   7.173   2.153   2.042
 9303TIP3   OH227872   2.451   0.803   2.601
 9303TIP3    H127873   2.402   0.772   2.524
 9303TIP3    H227874   2.390   0.863   2.645
 9304TIP3   OH227875   0.188   6.131   3.142
 9304TIP3    H127876   0.267   6.149   3.193
 9304TIP3    H227877   0.155   6.218   3.118
 9305TIP3   OH227878   6.280   3.934   1.647
 9305TIP3    H127879   6.309   4.000   1.584
 9305TIP3    H227880   6.250   3.862   1.593
 9306TIP3   OH227881   6.172   2.706   4.929
 9306TIP3    H127882   6.151   2.799   4.938
 9306TIP3    H227883   6.119   2.662   4.995
 9307TIP3   OH227884   5.435   4.546   1.801
 9307TIP3    H127885   5.485   4.494   1.739
 9307TIP3    H227886   5.483   4.628   1.808
 9308TIP3   OH227887   5.301   5.087   2.552
 9308TIP3    H127888   5.333   5.065   2.465
 9308TIP3    H227889   5.301   5.003   2.599
 9309TIP3   OH227890   1.956  -0.021   5.573
 9309TIP3    H127891   1.994   0.059   5.539
 9309TIP3    H227892   1.942  -0.004   5.666
 9310TIP3   OH227893   6.749   1.524   3.144
 9310TIP3    H127894   6.783   1.520   3.233
 9310TIP3    H227895   6.826   1.537   3.089
 9311TIP3   OH227896   6.832   4.658   3.780
 9311TIP3    H127897   6.908   4.599   3.778
 9311TIP3    H227898   6.870   4.744   3.797
 9312TIP3   OH227899   2.562   3.333   4.711
 9312TIP3    H127900   2.610   3.254   4.686
 9312TIP3    H227901   2.557   3.385   4.631
 9313TIP3   OH227902   6.327   0.411   1.567
 9313TIP3    H127903   6.355   0.356   1.494
 9313TIP3    H227904   6.407   0.452   1.599
 9314TIP3   OH227905   4.460   0.585   1.953
 9314TIP3    H127906   4.451   0.536   2.035
 9314TIP3    H227907   4.390   0.550   1.897
 9315TIP3   OH227908   4.055   5.262   0.838
 9315TIP3    H127909   3.962   5.264   0.859
 9315TIP3    H227910   4.092   5.339   0.883
 9316TIP3   OH227911   0.754   0.267   0.935
 9316TIP3    H127912   0.730   0.185   0.892
 9316TIP3    H227913   0.689   0.278   1.005
 9317TIP3   OH227914   1.255   4.270   0.757
 9317TIP3    H127915   1.217   4.351   0.791
 9317TIP3    H227916   1.234   4.271   0.664
 9318TIP3   OH227917   0.591   2.463   3.051
 9318TIP3    H127918   0.562   2.422   2.970
 9318TIP3    H227919   0.555   2.551   3.048
 9319TIP3   OH227920   7.231   3.311   3.760
 9319TIP3    H127921   7.279   3.390   3.786
 9319TIP3    H227922   7.149   3.344   3.724
 9320TIP3   OH227923   3.230   2.864   5.607
 9320TIP3    H127924   3.232   2.808   5.684
 9320TIP3    H227925   3.320   2.893   5.596
 9321TIP3   OH227926   2.755   1.683   4.369
 9321TIP3    H127927   2.779   1.714   4.282
 9321TIP3    H227928   2.697   1.751   4.403
 9322TIP3   OH227929   4.347   1.182   2.125
 9322TIP3    H127930   4.281   1.175   2.056
 9322TIP3    H227931   4.425   1.216   2.081
 9323TIP3   OH227932   1.071   3.806   3.815
 9323TIP3    H127933   1.073   3.843   3.727
 9323TIP3    H227934   1.031   3.720   3.805
 9324TIP3   OH227935   1.399   2.832   2.973
 9324TIP3    H127936   1.448   2.753   2.997
 9324TIP3    H227937   1.457   2.879   2.914
 9325TIP3   OH227938   6.773   1.113   0.281
 9325TIP3    H127939   6.692   1.151   0.245
 9325TIP3    H227940   6.767   1.020   0.259
 9326TIP3   OH227941   6.596   0.232   1.205
 9326TIP3    H127942   6.565   0.155   1.157
 9326TIP3    H227943   6.669   0.200   1.258
 9327TIP3   OH227944   1.908   3.666   0.259
 9327TIP3    H127945   1.907   3.574   0.289
 9327TIP3    H227946   1.984   3.704   0.302
 9328TIP3   OH227947   1.487   4.957   3.595
 9328TIP3    H127948   1.511   4.996   3.679
 9328TIP3    H227949   1.569   4.919   3.562
 9329TIP3   OH227950   4.094   1.455   3.151
 9329TIP3    H127951   4.000   1.457   3.131
 9329TIP3    H227952   4.134   1.414   3.075
 9330TIP3   OH227953   2.782   5.530   3.885
 9330TIP3    H127954   2.819   5.563   3.967
 9330TIP3    H227955   2.807   5.595   3.819
 9331TIP3   OH227956   4.800   6.205   3.671
 9331TIP3    H127957   4.894   6.218   3.663
 9331TIP3    H227958   4.778   6.145   3.600
 9332TIP3   OH227959   6.295   0.151   2.377
 9332TIP3    H127960   6.385   0.180   2.394
 9332TIP3    H227961   6.247   0.232   2.358
 9333TIP3   OH227962   2.785   5.152   2.556
 9333TIP3    H127963   2.774   5.078   2.617
 9333TIP3    H227964   2.714   5.212   2.580
 9334TIP3   OH227965   1.238   5.013   5.814
 9334TIP3    H127966   1.228   5.023   5.908
 9334TIP3    H227967   1.189   4.934   5.793
 9335TIP3   OH227968   0.465   6.079   1.129
 9335TIP3    H127969   0.457   6.014   1.198
 9335TIP3    H227970   0.446   6.162   1.173
 9336TIP3   OH227971   3.334   0.530   3.980
 9336TIP3    H127972   3.271   0.550   4.049
 9336TIP3    H227973   3.357   0.438   3.994
 9337TIP3   OH227974   2.846   1.396   4.377
 9337TIP3    H127975   2.822   1.477   4.333
 9337TIP3    H227976   2.931   1.414   4.418
 9338TIP3   OH227977   0.735   1.683   1.352
 9338TIP3    H127978   0.749   1.683   1.447
 9338TIP3    H227979   0.752   1.773   1.326
 9339TIP3   OH227980   0.682   3.742   0.835
 9339TIP3    H127981   0.698   3.800   0.760
 9339TIP3    H227982   0.766   3.738   0.880
 9340TIP3   OH227983   2.877   0.018   0.988
 9340TIP3    H127984   2.881  -0.073   1.017
 9340TIP3    H227985   2.867   0.068   1.069
 9341TIP3   OH227986   2.248   2.260   0.929
 9341TIP3    H127987   2.342   2.255   0.913
 9341TIP3    H227988   2.218   2.333   0.874
 9342TIP3   OH227989   3.625   1.206   4.904
 9342TIP3    H127990   3.532   1.216   4.926
 9342TIP3    H227991   3.641   1.272   4.836
 9343TIP3   OH227992   2.538   2.930   1.626
 9343TIP3    H127993   2.578   2.878   1.696
 9343TIP3    H227994   2.530   3.018   1.663
 9344TIP3   OH227995   2.087   5.434   2.686
 9344TIP3    H127996   2.090   5.381   2.607
 9344TIP3    H227997   2.011   5.490   2.675
 9345TIP3   OH227998   0.083   5.294   4.206
 9345TIP3    H127999   0.103   5.207   4.171
 9345TIP3    H228000   0.068   5.349   4.129
 9346TIP3   OH228001   4.626   0.101   2.862
 9346TIP3    H128002   4.613   0.077   2.954
 9346TIP3    H228003   4.716   0.131   2.858
 9347TIP3   OH228004   0.041   4.087   0.935
 9347TIP3    H128005   0.015   4.021   0.999
 9347TIP3    H228006   0.114   4.134   0.978
 9348TIP3   OH228007   5.923   0.950   4.749
 9348TIP3    H128008   5.939   0.925   4.840
 9348TIP3    H228009   5.902   1.043   4.753
 9349TIP3   OH228010   0.193   2.972   1.124
 9349TIP3    H128011   0.161   3.060   1.142
 9349TIP3    H228012   0.286   2.983   1.107
 9350TIP3   OH228013   3.163   0.319   2.507
 9350TIP3    H128014   3.135   0.295   2.418
 9350TIP3    H228015   3.104   0.391   2.531
 9351TIP3   OH228016   2.103   6.381   4.701
 9351TIP3    H128017   2.081   6.447   4.767
 9351TIP3    H228018   2.105   6.430   4.618
 9352TIP3   OH228019   6.234   3.205   4.596
 9352TIP3    H128020   6.299   3.171   4.535
 9352TIP3    H228021   6.191   3.276   4.547
 9353TIP3   OH228022   7.177   2.978   2.037
 9353TIP3    H128023   7.088   3.004   2.063
 9353TIP3    H228024   7.165   2.894   1.992
 9354TIP3   OH228025   5.942   0.318   4.338
 9354TIP3    H128026   5.925   0.374   4.414
 9354TIP3    H228027   6.030   0.285   4.351
 9355TIP3   OH228028   7.194   4.719   4.960
 9355TIP3    H128029   7.110   4.761   4.939
 9355TIP3    H228030   7.258   4.790   4.956
 9356TIP3   OH228031   1.921   1.542   2.943
 9356TIP3    H128032   1.864   1.494   2.883
 9356TIP3    H228033   1.993   1.482   2.962
 9357TIP3   OH228034   4.813   1.364   1.241
 9357TIP3    H128035   4.877   1.432   1.261
 9357TIP3    H228036   4.771   1.393   1.161
 9358TIP3   OH228037   1.259   3.752   3.075
 9358TIP3    H128038   1.172   3.792   3.082
 9358TIP3    H228039   1.320   3.823   3.092
 9359TIP3   OH228040   0.037   0.779   4.030
 9359TIP3    H128041   0.090   0.805   4.105
 9359TIP3    H228042   0.089   0.803   3.954
 9360TIP3   OH228043   3.042   1.768   1.410
 9360TIP3    H128044   3.001   1.729   1.333
 9360TIP3    H228045   3.124   1.805   1.378
 9361TIP3   OH228046   2.167   3.435   1.154
 9361TIP3    H128047   2.099   3.375   1.183
 9361TIP3    H228048   2.229   3.381   1.106
 9362TIP3   OH228049   4.146   4.945   3.773
 9362TIP3    H128050   4.227   4.972   3.729
 9362TIP3    H228051   4.100   4.893   3.707
 9363TIP3   OH228052   2.455   3.153   2.073
 9363TIP3    H128053   2.518   3.199   2.129
 9363TIP3    H228054   2.371   3.167   2.116
 9364TIP3   OH228055   6.113   2.361   0.608
 9364TIP3    H128056   6.089   2.287   0.553
 9364TIP3    H228057   6.050   2.429   0.584
 9365TIP3   OH228058   0.687   2.662   2.840
 9365TIP3    H128059   0.749   2.721   2.883
 9365TIP3    H228060   0.608   2.714   2.829
 9366TIP3   OH228061   1.564   3.316   4.099
 9366TIP3    H128062   1.578   3.410   4.095
 9366TIP3    H228063   1.645   3.281   4.136
 9367TIP3   OH228064   2.304   4.110   4.931
 9367TIP3    H128065   2.259   4.188   4.964
 9367TIP3    H228066   2.256   4.085   4.852
 9368TIP3   OH228067   4.826   3.704   2.629
 9368TIP3    H128068   4.819   3.698   2.724
 9368TIP3    H228069   4.769   3.778   2.606
 9369TIP3   OH228070   1.950   4.245   3.297
 9369TIP3    H128071   1.907   4.164   3.268
 9369TIP3    H228072   1.983   4.224   3.384
 9370TIP3   OH228073   6.244   6.183   2.703
 9370TIP3    H128074   6.328   6.230   2.702
 9370TIP3    H228075   6.181   6.244   2.665
 9371TIP3   OH228076   6.855   6.054   4.354
 9371TIP3    H128077   6.801   5.984   4.392
 9371TIP3    H228078   6.796   6.130   4.351
 9372TIP3   OH228079   7.180   3.483   2.821
 9372TIP3    H128080   7.236   3.534   2.879
 9372TIP3    H228081   7.166   3.539   2.745
 9373TIP3   OH228082   0.027   0.307   1.856
 9373TIP3    H128083   0.037   0.215   1.833
 9373TIP3    H228084   0.110   0.347   1.833
 9374TIP3   OH228085   2.057   3.027   1.035
 9374TIP3    H128086   2.088   2.955   0.980
 9374TIP3    H228087   2.110   3.022   1.114
 9375TIP3   OH228088   4.549   5.347   2.610
 9375TIP3    H128089   4.468   5.311   2.646
 9375TIP3    H228090   4.538   5.442   2.617
 9376TIP3   OH228091   1.259   0.193   1.152
 9376TIP3    H128092   1.220   0.146   1.226
 9376TIP3    H228093   1.313   0.261   1.193
 9377TIP3   OH228094   6.507   5.442   0.479
 9377TIP3    H128095   6.418   5.414   0.499
 9377TIP3    H228096   6.537   5.486   0.559
 9378TIP3   OH228097   6.804   3.640   5.021
 9378TIP3    H128098   6.796   3.587   4.942
 9378TIP3    H228099   6.714   3.654   5.049
 9379TIP3   OH228100   1.199   4.859   0.215
 9379TIP3    H128101   1.191   4.764   0.223
 9379TIP3    H228102   1.111   4.893   0.232
 9380TIP3   OH228103   6.248   3.986   2.039
 9380TIP3    H128104   6.298   3.975   2.121
 9380TIP3    H228105   6.308   3.954   1.971
 9381TIP3   OH228106   6.233   5.063   3.867
 9381TIP3    H128107   6.190   4.985   3.830
 9381TIP3    H228108   6.181   5.084   3.944
 9382TIP3   OH228109   4.180   6.385   1.424
 9382TIP3    H128110   4.197   6.308   1.479
 9382TIP3    H228111   4.162   6.348   1.337
 9383TIP3   OH228112   1.802   3.452   0.424
 9383TIP3    H128113   1.764   3.376   0.381
 9383TIP3    H228114   1.729   3.512   0.438
 9384TIP3   OH228115   3.134   0.710   5.673
 9384TIP3    H128116   3.122   0.615   5.679
 9384TIP3    H228117   3.205   0.729   5.733
 9385TIP3   OH228118   6.725   5.415   1.232
 9385TIP3    H128119   6.773   5.438   1.152
 9385TIP3    H228120   6.782   5.442   1.303
 9386TIP3   OH228121   5.823   5.253   1.406
 9386TIP3    H128122   5.809   5.197   1.330
 9386TIP3    H228123   5.885   5.204   1.460
 9387TIP3   OH228124   1.493   2.568   1.798
 9387TIP3    H128125   1.568   2.625   1.819
 9387TIP3    H228126   1.418   2.613   1.838
 9388TIP3   OH228127   4.088   1.562   2.519
 9388TIP3    H128128   4.047   1.607   2.593
 9388TIP3    H228129   4.169   1.611   2.504
 9389TIP3   OH228130   5.042   6.515   5.825
 9389TIP3    H128131   5.010   6.525   5.736
 9389TIP3    H228132   5.118   6.458   5.818
 9390TIP3   OH228133   2.316   6.164   0.571
 9390TIP3    H128134   2.385   6.099   0.564
 9390TIP3    H228135   2.261   6.149   0.494
 9391TIP3   OH228136   0.190   0.909   4.214
 9391TIP3    H128137   0.173   0.951   4.298
 9391TIP3    H228138   0.247   0.971   4.168
 9392TIP3   OH228139   3.953   0.467   1.415
 9392TIP3    H128140   3.890   0.428   1.476
 9392TIP3    H228141   4.038   0.442   1.450
 9393TIP3   OH228142   3.225   6.159   0.689
 9393TIP3    H128143   3.225   6.251   0.664
 9393TIP3    H228144   3.285   6.155   0.764
 9394TIP3   OH228145   5.076   6.045   1.124
 9394TIP3    H128146   5.135   5.970   1.133
 9394TIP3    H228147   5.028   6.028   1.043
 9395TIP3   OH228148   2.479   4.584   2.783
 9395TIP3    H128149   2.479   4.679   2.794
 9395TIP3    H228150   2.527   4.551   2.859
 9396TIP3   OH228151   0.597   2.675   4.541
 9396TIP3    H128152   0.564   2.764   4.537
 9396TIP3    H228153   0.663   2.671   4.472
 9397TIP3   OH228154   1.227   4.651   1.878
 9397TIP3    H128155   1.205   4.714   1.809
 9397TIP3    H228156   1.323   4.655   1.883
 9398TIP3   OH228157   6.836   0.773   1.371
 9398TIP3    H128158   6.852   0.865   1.395
 9398TIP3    H228159   6.889   0.760   1.292
 9399TIP3   OH228160   4.224   5.727   2.794
 9399TIP3    H128161   4.244   5.782   2.718
 9399TIP3    H228162   4.148   5.675   2.767
 9400TIP3   OH228163   4.605   6.374   4.209
 9400TIP3    H128164   4.542   6.364   4.138
 9400TIP3    H228165   4.576   6.453   4.255
 9401TIP3   OH228166   3.524   3.866   3.557
 9401TIP3    H128167   3.474   3.867   3.476
 9401TIP3    H228168   3.555   3.956   3.567
 9402TIP3   OH228169   1.320   1.564   1.180
 9402TIP3    H128170   1.380   1.637   1.198
 9402TIP3    H228171   1.242   1.605   1.145
 9403TIP3   OH228172   5.226   3.051   5.604
 9403TIP3    H128173   5.196   3.026   5.517
 9403TIP3    H228174   5.321   3.039   5.601
 9404TIP3   OH228175   1.152   0.071   3.493
 9404TIP3    H128176   1.067   0.048   3.457
 9404TIP3    H228177   1.170   0.159   3.458
 9405TIP3   OH228178   0.779   0.426   4.483
 9405TIP3    H128179   0.707   0.477   4.447
 9405TIP3    H228180   0.774   0.341   4.439
 9406TIP3   OH228181   0.569   1.236   4.262
 9406TIP3    H128182   0.624   1.287   4.204
 9406TIP3    H228183   0.615   1.237   4.346
 9407TIP3   OH228184   6.252   6.396   0.190
 9407TIP3    H128185   6.334   6.439   0.216
 9407TIP3    H228186   6.273   6.353   0.107
 9408TIP3   OH228187   3.797   5.073   4.158
 9408TIP3    H128188   3.835   5.160   4.163
 9408TIP3    H228189   3.838   5.032   4.082
 9409TIP3   OH228190   3.900   2.825   2.318
 9409TIP3    H128191   3.885   2.908   2.362
 9409TIP3    H228192   3.865   2.838   2.230
 9410TIP3   OH228193   0.822   6.801   2.582
 9410TIP3    H128194   0.831   6.811   2.487
 9410TIP3    H228195   0.851   6.712   2.599
 9411TIP3   OH228196   5.469   6.348   3.582
 9411TIP3    H128197   5.499   6.306   3.663
 9411TIP3    H228198   5.479   6.280   3.515
 9412TIP3   OH228199   5.019   0.806   3.206
 9412TIP3    H128200   5.037   0.719   3.241
 9412TIP3    H228201   5.074   0.865   3.258
 9413TIP3   OH228202   2.448   6.151   3.222
 9413TIP3    H128203   2.411   6.240   3.220
 9413TIP3    H228204   2.542   6.164   3.222
 9414TIP3   OH228205   3.455   3.191   2.260
 9414TIP3    H128206   3.503   3.236   2.329
 9414TIP3    H228207   3.418   3.261   2.207
 9415TIP3   OH228208   2.614   3.411   4.448
 9415TIP3    H128209   2.530   3.457   4.440
 9415TIP3    H228210   2.608   3.341   4.383
 9416TIP3   OH228211   5.605   4.846   5.195
 9416TIP3    H128212   5.625   4.834   5.102
 9416TIP3    H228213   5.607   4.758   5.232
 9417TIP3   OH228214   3.042   2.014   3.123
 9417TIP3    H128215   2.995   1.961   3.188
 9417TIP3    H228216   3.130   1.977   3.121
 9418TIP3   OH228217   0.468   6.360   3.687
 9418TIP3    H128218   0.383   6.318   3.684
 9418TIP3    H228219   0.476   6.394   3.776
 9419TIP3   OH228220   0.407   4.667   4.726
 9419TIP3    H128221   0.328   4.624   4.759
 9419TIP3    H228222   0.426   4.622   4.644
 9420TIP3   OH228223   1.134   2.800   0.421
 9420TIP3    H128224   1.180   2.720   0.396
 9420TIP3    H228225   1.192   2.842   0.484
 9421TIP3   OH228226   1.370   4.127   2.832
 9421TIP3    H128227   1.299   4.157   2.776
 9421TIP3    H228228   1.429   4.079   2.773
 9422TIP3   OH228229   4.175   6.681   2.425
 9422TIP3    H128230   4.098   6.641   2.464
 9422TIP3    H228231   4.178   6.769   2.463
 9423TIP3   OH228232   0.006   5.404   3.296
 9423TIP3    H128233   0.013   5.335   3.361
 9423TIP3    H228234   0.015   5.486   3.346
 9424TIP3   OH228235   5.221   1.544   3.703
 9424TIP3    H128236   5.150   1.504   3.753
 9424TIP3    H228237   5.223   1.497   3.620
 9425TIP3   OH228238   4.433   5.467   0.232
 9425TIP3    H128239   4.478   5.550   0.247
 9425TIP3    H228240   4.449   5.448   0.140
 9426TIP3   OH228241   6.586   2.758   4.808
 9426TIP3    H128242   6.607   2.666   4.825
 9426TIP3    H228243   6.499   2.755   4.767
 9427TIP3   OH228244   6.128   4.755   2.293
 9427TIP3    H128245   6.120   4.696   2.368
 9427TIP3    H228246   6.069   4.719   2.227
 9428TIP3   OH228247   6.037   0.557   2.571
 9428TIP3    H128248   5.970   0.607   2.525
 9428TIP3    H228249   6.105   0.622   2.591
 9429TIP3   OH228250   5.642   3.729   3.415
 9429TIP3    H128251   5.703   3.712   3.487
 9429TIP3    H228252   5.673   3.672   3.344
 9430TIP3   OH228253   4.148   0.548   3.515
 9430TIP3    H128254   4.226   0.514   3.560
 9430TIP3    H228255   4.087   0.474   3.514
 9431TIP3   OH228256   1.305   1.854   5.716
 9431TIP3    H128257   1.279   1.942   5.740
 9431TIP3    H228258   1.298   1.852   5.621
 9432TIP3   OH228259   5.382   2.959   0.382
 9432TIP3    H128260   5.445   2.994   0.445
 9432TIP3    H228261   5.372   3.028   0.317
 9433TIP3   OH228262   6.614   0.849   0.508
 9433TIP3    H128263   6.570   0.921   0.553
 9433TIP3    H228264   6.655   0.889   0.432
 9434TIP3   OH228265   0.612   6.769   4.904
 9434TIP3    H128266   0.669   6.812   4.841
 9434TIP3    H228267   0.639   6.677   4.902
 9435TIP3   OH228268   2.228   2.910   4.800
 9435TIP3    H128269   2.313   2.868   4.814
 9435TIP3    H228270   2.250   3.003   4.792
 9436TIP3   OH228271   1.404   3.361   2.527
 9436TIP3    H128272   1.496   3.343   2.546
 9436TIP3    H228273   1.358   3.335   2.606
 9437TIP3   OH228274   0.800   3.792   1.153
 9437TIP3    H128275   0.851   3.864   1.117
 9437TIP3    H228276   0.716   3.797   1.107
 9438TIP3   OH228277   1.565   5.613   5.309
 9438TIP3    H128278   1.507   5.613   5.386
 9438TIP3    H228279   1.639   5.667   5.336
 9439TIP3   OH228280   0.919   4.927   3.049
 9439TIP3    H128281   0.917   5.023   3.058
 9439TIP3    H228282   1.005   4.908   3.011
 9440TIP3   OH228283   1.829   3.902   2.138
 9440TIP3    H128284   1.747   3.906   2.088
 9440TIP3    H228285   1.897   3.911   2.071
 9441TIP3   OH228286   6.608   6.518   5.642
 9441TIP3    H128287   6.697   6.512   5.607
 9441TIP3    H228288   6.614   6.478   5.729
 9442TIP3   OH228289   4.607   1.749   4.847
 9442TIP3    H128290   4.524   1.727   4.805
 9442TIP3    H228291   4.614   1.844   4.838
 9443TIP3   OH228292   3.284   4.169   2.103
 9443TIP3    H128293   3.214   4.234   2.093
 9443TIP3    H228294   3.305   4.169   2.196
 9444TIP3   OH228295   2.664   5.936   5.677
 9444TIP3    H128296   2.591   5.875   5.664
 9444TIP3    H228297   2.727   5.886   5.729
 9445TIP3   OH228298   6.114   0.533   1.670
 9445TIP3    H128299   6.030   0.535   1.623
 9445TIP3    H228300   6.176   0.496   1.606
 9446TIP3   OH228301   2.631   6.786   2.539
 9446TIP3    H128302   2.721   6.752   2.537
 9446TIP3    H228303   2.578   6.711   2.565
 9447TIP3   OH228304   5.920   6.276   0.794
 9447TIP3    H128305   5.976   6.200   0.776
 9447TIP3    H228306   5.945   6.341   0.730
 9448TIP3   OH228307   4.889   3.451   2.497
 9448TIP3    H128308   4.983   3.466   2.506
 9448TIP3    H228309   4.850   3.498   2.570
 9449TIP3   OH228310   0.186   6.431   4.793
 9449TIP3    H128311   0.255   6.497   4.792
 9449TIP3    H228312   0.127   6.459   4.863
 9450TIP3   OH228313   1.041   0.133   5.335
 9450TIP3    H128314   1.073   0.222   5.353
 9450TIP3    H228315   1.074   0.113   5.247
 9451TIP3   OH228316   4.960   5.903   2.899
 9451TIP3    H128317   5.009   5.906   2.982
 9451TIP3    H228318   4.992   5.824   2.855
 9452TIP3   OH228319   0.747   2.852   1.071
 9452TIP3    H128320   0.801   2.907   1.128
 9452TIP3    H228321   0.666   2.839   1.121
 9453TIP3   OH228322   2.020   3.316   2.292
 9453TIP3    H128323   1.929   3.319   2.323
 9453TIP3    H228324   2.033   3.400   2.249
 9454TIP3   OH228325   5.758   6.329   4.803
 9454TIP3    H128326   5.704   6.268   4.853
 9454TIP3    H228327   5.844   6.288   4.800
 9455TIP3   OH228328   6.961   2.078   5.067
 9455TIP3    H128329   6.990   2.054   5.154
 9455TIP3    H228330   6.872   2.043   5.061
 9456TIP3   OH228331   5.615   4.571   0.992
 9456TIP3    H128332   5.519   4.563   0.995
 9456TIP3    H228333   5.646   4.498   1.046
 9457TIP3   OH228334   6.363   6.678   2.938
 9457TIP3    H128335   6.350   6.766   2.974
 9457TIP3    H228336   6.360   6.620   3.015
 9458TIP3   OH228337   6.095   6.445   5.732
 9458TIP3    H128338   6.179   6.430   5.776
 9458TIP3    H228339   6.039   6.374   5.762
 9459TIP3   OH228340   4.673   2.969   5.260
 9459TIP3    H128341   4.684   2.877   5.234
 9459TIP3    H228342   4.584   2.974   5.294
 9460TIP3   OH228343   4.006   4.352   4.100
 9460TIP3    H128344   3.915   4.325   4.113
 9460TIP3    H228345   4.019   4.426   4.160
 9461TIP3   OH228346   2.413   1.285   5.176
 9461TIP3    H128347   2.352   1.324   5.239
 9461TIP3    H228348   2.489   1.345   5.177
 9462TIP3   OH228349   0.306   2.900   5.131
 9462TIP3    H128350   0.325   2.989   5.100
 9462TIP3    H228351   0.234   2.911   5.193
 9463TIP3   OH228352   0.218   2.160   4.536
 9463TIP3    H128353   0.212   2.243   4.489
 9463TIP3    H228354   0.245   2.185   4.625
 9464TIP3   OH228355   1.986   1.298   2.713
 9464TIP3    H128356   2.002   1.247   2.633
 9464TIP3    H228357   2.064   1.285   2.766
 9465TIP3   OH228358   5.782   0.410   2.714
 9465TIP3    H128359   5.860   0.460   2.693
 9465TIP3    H228360   5.711   0.474   2.715
 9466TIP3   OH228361   7.026   3.199   1.821
 9466TIP3    H128362   6.937   3.211   1.787
 9466TIP3    H228363   7.059   3.123   1.774
 9467TIP3   OH228364   6.807   1.388   5.388
 9467TIP3    H128365   6.894   1.405   5.351
 9467TIP3    H228366   6.802   1.293   5.395
 9468TIP3   OH228367   5.248   0.677   2.669
 9468TIP3    H128368   5.207   0.745   2.616
 9468TIP3    H228369   5.288   0.618   2.606
 9469TIP3   OH228370   2.375   2.153   2.121
 9469TIP3    H128371   2.323   2.076   2.099
 9469TIP3    H228372   2.433   2.165   2.046
 9470TIP3   OH228373   3.917   5.832   2.898
 9470TIP3    H128374   3.973   5.840   2.821
 9470TIP3    H228375   3.956   5.761   2.948
 9471TIP3   OH228376   0.364   2.969   2.535
 9471TIP3    H128377   0.322   3.053   2.518
 9471TIP3    H228378   0.435   2.964   2.472
 9472TIP3   OH228379   1.800   3.039   2.227
 9472TIP3    H128380   1.846   2.979   2.285
 9472TIP3    H228381   1.758   3.103   2.285
 9473TIP3   OH228382   5.412   3.415   4.013
 9473TIP3    H128383   5.504   3.389   4.004
 9473TIP3    H228384   5.408   3.460   4.098
 9474TIP3   OH228385   0.535   5.288   1.314
 9474TIP3    H128386   0.616   5.269   1.360
 9474TIP3    H228387   0.509   5.204   1.276
 9475TIP3   OH228388   0.610   5.077   4.212
 9475TIP3    H128389   0.670   5.134   4.165
 9475TIP3    H228390   0.661   5.045   4.287
 9476TIP3   OH228391   4.469   5.080   1.735
 9476TIP3    H128392   4.477   5.148   1.802
 9476TIP3    H228393   4.556   5.074   1.696
 9477TIP3   OH228394   4.388   2.223   3.979
 9477TIP3    H128395   4.368   2.303   3.931
 9477TIP3    H228396   4.360   2.240   4.069
 9478TIP3   OH228397   1.018   2.960   3.809
 9478TIP3    H128398   0.935   2.911   3.814
 9478TIP3    H228399   0.991   3.052   3.806
 9479TIP3   OH228400   6.105   1.787   5.667
 9479TIP3    H128401   6.179   1.803   5.725
 9479TIP3    H228402   6.056   1.716   5.709
 9480TIP3   OH228403   0.253   6.185   3.537
 9480TIP3    H128404   0.224   6.096   3.557
 9480TIP3    H228405   0.175   6.239   3.545
 9481TIP3   OH228406   1.354   1.557   2.255
 9481TIP3    H128407   1.432   1.503   2.241
 9481TIP3    H228408   1.288   1.518   2.198
 9482TIP3   OH228409   5.385   0.248   5.457
 9482TIP3    H128410   5.435   0.173   5.426
 9482TIP3    H228411   5.451   0.309   5.491
 9483TIP3   OH228412   6.082   5.440   4.077
 9483TIP3    H128413   6.160   5.484   4.111
 9483TIP3    H228414   6.054   5.492   4.002
 9484TIP3   OH228415   2.751   1.963   1.530
 9484TIP3    H128416   2.777   1.969   1.438
 9484TIP3    H228417   2.834   1.953   1.577
 9485TIP3   OH228418   4.660   2.754   3.308
 9485TIP3    H128419   4.607   2.824   3.346
 9485TIP3    H228420   4.655   2.768   3.214
 9486TIP3   OH228421   2.644   4.277   2.172
 9486TIP3    H128422   2.643   4.368   2.141
 9486TIP3    H228423   2.677   4.227   2.097
 9487TIP3   OH228424   0.677   0.946   1.357
 9487TIP3    H128425   0.657   1.036   1.383
 9487TIP3    H228426   0.592   0.903   1.352
 9488TIP3   OH228427   5.182   0.648   2.348
 9488TIP3    H128428   5.254   0.694   2.305
 9488TIP3    H228429   5.224   0.587   2.408
 9489TIP3   OH228430   5.586   2.070   0.320
 9489TIP3    H128431   5.556   1.986   0.286
 9489TIP3    H228432   5.506   2.118   0.340
 9490TIP3   OH228433   6.536   5.137   1.672
 9490TIP3    H128434   6.538   5.085   1.752
 9490TIP3    H228435   6.558   5.226   1.702
 9491TIP3   OH228436   2.875   0.873   3.353
 9491TIP3    H128437   2.884   0.967   3.338
 9491TIP3    H228438   2.796   0.849   3.305
 9492TIP3   OH228439   5.441   3.575   2.612
 9492TIP3    H128440   5.449   3.669   2.596
 9492TIP3    H228441   5.466   3.564   2.704
 9493TIP3   OH228442   3.274   2.127   3.838
 9493TIP3    H128443   3.356   2.078   3.848
 9493TIP3    H228444   3.280   2.197   3.903
 9494TIP3   OH228445   6.221   3.491   5.627
 9494TIP3    H128446   6.280   3.419   5.650
 9494TIP3    H228447   6.278   3.556   5.586
 9495TIP3   OH228448   4.276   6.246   5.762
 9495TIP3    H128449   4.302   6.170   5.814
 9495TIP3    H228450   4.222   6.298   5.821
 9496TIP3   OH228451   4.469   0.342   3.242
 9496TIP3    H128452   4.459   0.382   3.328
 9496TIP3    H228453   4.536   0.395   3.198
 9497TIP3   OH228454   2.918   4.885   5.897
 9497TIP3    H128455   2.951   4.829   5.967
 9497TIP3    H228456   2.944   4.840   5.816
 9498TIP3   OH228457   1.645   1.620   5.285
 9498TIP3    H128458   1.619   1.694   5.341
 9498TIP3    H228459   1.740   1.621   5.289
 9499TIP3   OH228460   5.872   1.161   1.251
 9499TIP3    H128461   5.928   1.183   1.326
 9499TIP3    H228462   5.800   1.224   1.256
 9500TIP3   OH228463   3.239   6.664   4.870
 9500TIP3    H128464   3.260   6.753   4.897
 9500TIP3    H228465   3.323   6.627   4.844
 9501TIP3   OH228466   1.367   0.260   2.591
 9501TIP3    H128467   1.376   0.231   2.500
 9501TIP3    H228468   1.335   0.183   2.638
 9502TIP3   OH228469   2.014   2.777   0.359
 9502TIP3    H128470   1.935   2.780   0.413
 9502TIP3    H228471   2.020   2.864   0.321
 9503TIP3   OH228472   0.290   3.110   0.718
 9503TIP3    H128473   0.289   3.014   0.722
 9503TIP3    H228474   0.236   3.131   0.642
 9504TIP3   OH228475   4.373   5.581   1.519
 9504TIP3    H128476   4.280   5.599   1.533
 9504TIP3    H228477   4.383   5.585   1.424
 9505TIP3   OH228478   3.105   2.267   0.733
 9505TIP3    H128479   3.199   2.255   0.746
 9505TIP3    H228480   3.094   2.264   0.638
 9506TIP3   OH228481   2.959   2.942   4.418
 9506TIP3    H128482   3.025   2.913   4.481
 9506TIP3    H228483   2.876   2.918   4.459
 9507TIP3   OH228484   3.250   4.532   3.745
 9507TIP3    H128485   3.253   4.611   3.798
 9507TIP3    H228486   3.160   4.499   3.755
 9508TIP3   OH228487   5.852   2.780   3.664
 9508TIP3    H128488   5.857   2.875   3.652
 9508TIP3    H228489   5.891   2.765   3.750
 9509TIP3   OH228490   4.293   5.933   5.466
 9509TIP3    H128491   4.346   5.970   5.536
 9509TIP3    H228492   4.214   5.986   5.465
 9510TIP3   OH228493   5.694   0.379   0.131
 9510TIP3    H128494   5.618   0.405   0.182
 9510TIP3    H228495   5.684   0.284   0.120
 9511TIP3   OH228496   3.142   5.579   3.787
 9511TIP3    H128497   3.213   5.628   3.745
 9511TIP3    H228498   3.117   5.632   3.862
 9512TIP3   OH228499   1.876   5.015   3.136
 9512TIP3    H128500   1.803   5.070   3.166
 9512TIP3    H228501   1.923   5.069   3.074
 9513TIP3   OH228502   5.302   1.952   0.116
 9513TIP3    H128503   5.349   1.880   0.074
 9513TIP3    H228504   5.214   1.949   0.079
 9514TIP3   OH228505   2.327   1.638   2.340
 9514TIP3    H128506   2.262   1.673   2.278
 9514TIP3    H228507   2.410   1.641   2.293
 9515TIP3   OH228508   2.405   2.214   1.484
 9515TIP3    H128509   2.500   2.221   1.475
 9515TIP3    H228510   2.392   2.167   1.567
 9516TIP3   OH228511   4.867   4.899   3.324
 9516TIP3    H128512   4.937   4.854   3.275
 9516TIP3    H228513   4.874   4.864   3.413
 9517TIP3   OH228514   6.555   6.626   4.204
 9517TIP3    H128515   6.592   6.597   4.121
 9517TIP3    H228516   6.621   6.684   4.241
 9518TIP3   OH228517   6.194   5.104   2.662
 9518TIP3    H128518   6.132   5.172   2.687
 9518TIP3    H228519   6.144   5.046   2.605
 9519TIP3   OH228520   0.180   3.881   5.234
 9519TIP3    H128521   0.217   3.970   5.233
 9519TIP3    H228522   0.143   3.869   5.147
 9520TIP3   OH228523   6.290   1.487   0.999
 9520TIP3    H128524   6.276   1.558   1.062
 9520TIP3    H228525   6.205   1.443   0.993
 9521TIP3   OH228526   0.280   6.279   0.625
 9521TIP3    H128527   0.347   6.292   0.692
 9521TIP3    H228528   0.287   6.356   0.569
 9522TIP3   OH228529   4.350   2.546   1.463
 9522TIP3    H128530   4.422   2.608   1.453
 9522TIP3    H228531   4.392   2.460   1.460
 9523TIP3   OH228532   3.791   0.509   4.108
 9523TIP3    H128533   3.827   0.428   4.145
 9523TIP3    H228534   3.741   0.548   4.179
 9524TIP3   OH228535   1.112   1.594   0.985
 9524TIP3    H128536   1.023   1.575   1.015
 9524TIP3    H228537   1.101   1.667   0.924
 9525TIP3   OH228538   3.907   5.097   3.064
 9525TIP3    H128539   3.920   5.003   3.072
 9525TIP3    H228540   3.854   5.108   2.986
 9526TIP3   OH228541   0.481   1.132   2.557
 9526TIP3    H128542   0.507   1.111   2.468
 9526TIP3    H228543   0.517   1.219   2.574
 9527TIP3   OH228544   2.913   0.353   3.517
 9527TIP3    H128545   2.873   0.438   3.499
 9527TIP3    H228546   2.938   0.319   3.430
 9528TIP3   OH228547   1.013   0.605   3.733
 9528TIP3    H128548   0.989   0.640   3.647
 9528TIP3    H228549   0.947   0.639   3.792
 9529TIP3   OH228550   4.694   6.488   2.060
 9529TIP3    H128551   4.642   6.435   2.121
 9529TIP3    H228552   4.753   6.537   2.117
 9530TIP3   OH228553   4.807   4.982   2.395
 9530TIP3    H128554   4.810   4.939   2.309
 9530TIP3    H228555   4.822   5.074   2.376
 9531TIP3   OH228556   6.562   4.144   3.720
 9531TIP3    H128557   6.545   4.147   3.626
 9531TIP3    H228558   6.533   4.229   3.752
 9532TIP3   OH228559   4.574   1.954   0.409
 9532TIP3    H128560   4.660   1.982   0.439
 9532TIP3    H228561   4.531   1.920   0.487
 9533TIP3   OH228562   2.620   5.025   5.266
 9533TIP3    H128563   2.579   5.052   5.348
 9533TIP3    H228564   2.572   4.948   5.238
 9534TIP3   OH228565   6.727   5.985   1.994
 9534TIP3    H128566   6.807   5.933   2.003
 9534TIP3    H228567   6.684   5.950   1.916
 9535TIP3   OH228568   4.068   5.543   1.551
 9535TIP3    H128569   4.020   5.625   1.563
 9535TIP3    H228570   4.030   5.484   1.616
 9536TIP3   OH228571   3.442   3.186   4.746
 9536TIP3    H128572   3.533   3.195   4.772
 9536TIP3    H228573   3.435   3.234   4.663
 9537TIP3   OH228574   1.749   0.963   0.353
 9537TIP3    H128575   1.733   1.047   0.310
 9537TIP3    H228576   1.782   0.987   0.440
 9538TIP3   OH228577   6.870   5.900   0.018
 9538TIP3    H128578   6.906   5.839  -0.046
 9538TIP3    H228579   6.780   5.871   0.030
 9539TIP3   OH228580   1.370   4.317   4.009
 9539TIP3    H128581   1.320   4.281   3.936
 9539TIP3    H228582   1.457   4.336   3.972
 9540TIP3   OH228583   4.357   2.249   4.631
 9540TIP3    H128584   4.418   2.273   4.701
 9540TIP3    H228585   4.275   2.231   4.675
 9541TIP3   OH228586   4.138   4.123   1.080
 9541TIP3    H128587   4.194   4.074   1.141
 9541TIP3    H228588   4.065   4.152   1.134
 9542TIP3   OH228589   2.264   2.860   5.341
 9542TIP3    H128590   2.179   2.840   5.302
 9542TIP3    H228591   2.305   2.775   5.356
 9543TIP3   OH228592   7.156   5.466   2.887
 9543TIP3    H128593   7.228   5.490   2.946
 9543TIP3    H228594   7.097   5.415   2.942
 9544TIP3   OH228595   4.931   4.376   1.341
 9544TIP3    H128596   4.997   4.324   1.386
 9544TIP3    H228597   4.857   4.381   1.402
 9545TIP3   OH228598   3.887   2.347   0.785
 9545TIP3    H128599   3.895   2.399   0.865
 9545TIP3    H228600   3.844   2.266   0.813
 9546TIP3   OH228601   6.984   1.456   5.008
 9546TIP3    H128602   7.058   1.456   4.947
 9546TIP3    H228603   6.916   1.505   4.961
 9547TIP3   OH228604   2.384   2.531   3.110
 9547TIP3    H128605   2.420   2.533   3.022
 9547TIP3    H228606   2.343   2.444   3.117
 9548TIP3   OH228607   5.378   2.106   3.986
 9548TIP3    H128608   5.329   2.028   3.959
 9548TIP3    H228609   5.463   2.096   3.943
 9549TIP3   OH228610   1.986   3.158   0.292
 9549TIP3    H128611   1.891   3.170   0.301
 9549TIP3    H228612   2.022   3.196   0.372
 9550TIP3   OH228613   1.269   2.602   0.163
 9550TIP3    H128614   1.204   2.637   0.103
 9550TIP3    H228615   1.256   2.507   0.160
 9551TIP3   OH228616   1.261   0.668   1.319
 9551TIP3    H128617   1.312   0.730   1.372
 9551TIP3    H228618   1.258   0.707   1.232
 9552TIP3   OH228619   5.182   0.950   4.814
 9552TIP3    H128620   5.266   0.971   4.855
 9552TIP3    H228621   5.122   1.017   4.847
 9553TIP3   OH228622   5.249   6.277   5.759
 9553TIP3    H128623   5.314   6.239   5.700
 9553TIP3    H228624   5.298   6.293   5.840
 9554TIP3   OH228625   5.166   5.158   0.665
 9554TIP3    H128626   5.194   5.250   0.667
 9554TIP3    H228627   5.236   5.113   0.618
 9555TIP3   OH228628   5.660   0.175   2.607
 9555TIP3    H128629   5.728   0.242   2.607
 9555TIP3    H228630   5.608   0.193   2.686
 9556TIP3   OH228631   2.957   5.218   5.137
 9556TIP3    H128632   2.879   5.241   5.087
 9556TIP3    H228633   2.952   5.273   5.216
 9557TIP3   OH228634   2.817   6.456   2.738
 9557TIP3    H128635   2.875   6.418   2.803
 9557TIP3    H228636   2.741   6.399   2.737
 9558TIP3   OH228637   1.938   5.734   2.195
 9558TIP3    H128638   2.013   5.683   2.225
 9558TIP3    H228639   1.951   5.820   2.235
 9559TIP3   OH228640   6.483   5.708   0.880
 9559TIP3    H128641   6.440   5.778   0.830
 9559TIP3    H228642   6.504   5.748   0.964
 9560TIP3   OH228643   6.346   5.812   1.991
 9560TIP3    H128644   6.377   5.836   2.078
 9560TIP3    H228645   6.306   5.726   2.003
 9561TIP3   OH228646   6.721   1.158   4.091
 9561TIP3    H128647   6.807   1.124   4.115
 9561TIP3    H228648   6.660   1.110   4.146
 9562TIP3   OH228649   1.129   1.863   1.119
 9562TIP3    H128650   1.172   1.947   1.135
 9562TIP3    H228651   1.155   1.838   1.031
 9563TIP3   OH228652   3.238   4.482   1.510
 9563TIP3    H128653   3.318   4.432   1.494
 9563TIP3    H228654   3.234   4.545   1.438
 9564TIP3   OH228655   4.489   1.591   5.309
 9564TIP3    H128656   4.413   1.564   5.258
 9564TIP3    H228657   4.476   1.551   5.395
 9565TIP3   OH228658   1.558   6.188   4.446
 9565TIP3    H128659   1.644   6.217   4.476
 9565TIP3    H228660   1.508   6.268   4.432
 9566TIP3   OH228661   6.601   3.760   5.538
 9566TIP3    H128662   6.578   3.782   5.629
 9566TIP3    H228663   6.648   3.837   5.507
 9567TIP3   OH228664   5.881   2.057   1.290
 9567TIP3    H128665   5.973   2.083   1.302
 9567TIP3    H228666   5.831   2.132   1.322
 9568TIP3   OH228667   5.810   1.451   1.728
 9568TIP3    H128668   5.772   1.492   1.651
 9568TIP3    H228669   5.904   1.465   1.719
 9569TIP3   OH228670   6.720   0.612   4.891
 9569TIP3    H128671   6.809   0.615   4.926
 9569TIP3    H228672   6.712   0.691   4.838
 9570TIP3   OH228673   1.465   3.162   4.337
 9570TIP3    H128674   1.473   3.142   4.430
 9570TIP3    H228675   1.512   3.245   4.326
 9571TIP3   OH228676   6.451   5.791   1.586
 9571TIP3    H128677   6.366   5.822   1.554
 9571TIP3    H228678   6.443   5.695   1.586
 9572TIP3   OH228679   5.647   2.966   0.860
 9572TIP3    H128680   5.709   2.954   0.932
 9572TIP3    H228681   5.653   3.059   0.838
 9573TIP3   OH228682   4.510   6.709   4.093
 9573TIP3    H128683   4.492   6.792   4.049
 9573TIP3    H228684   4.429   6.690   4.142
 9574TIP3   OH228685   0.114   5.870   2.569
 9574TIP3    H128686   0.051   5.942   2.578
 9574TIP3    H228687   0.119   5.832   2.657
 9575TIP3   OH228688   5.833   2.778   1.265
 9575TIP3    H128689   5.808   2.780   1.358
 9575TIP3    H228690   5.828   2.870   1.237
 9576TIP3   OH228691   3.768   1.732   5.348
 9576TIP3    H128692   3.856   1.741   5.311
 9576TIP3    H228693   3.775   1.659   5.411
 9577TIP3   OH228694   2.256   1.696   3.763
 9577TIP3    H128695   2.270   1.619   3.817
 9577TIP3    H228696   2.200   1.666   3.692
 9578TIP3   OH228697   4.281   1.860   0.171
 9578TIP3    H128698   4.318   1.849   0.083
 9578TIP3    H228699   4.340   1.811   0.228
 9579TIP3   OH228700   5.214   6.170   0.105
 9579TIP3    H128701   5.222   6.158   0.010
 9579TIP3    H228702   5.191   6.262   0.115
 9580TIP3   OH228703   1.257   3.882   4.402
 9580TIP3    H128704   1.313   3.877   4.479
 9580TIP3    H228705   1.316   3.866   4.328
 9581TIP3   OH228706   1.245   6.073   2.365
 9581TIP3    H128707   1.251   5.984   2.331
 9581TIP3    H228708   1.332   6.092   2.399
 9582TIP3   OH228709   6.004   1.873   3.887
 9582TIP3    H128710   5.966   1.819   3.818
 9582TIP3    H228711   6.045   1.946   3.841
 9583TIP3   OH228712   3.676   1.691   5.625
 9583TIP3    H128713   3.692   1.749   5.551
 9583TIP3    H228714   3.657   1.751   5.698
 9584TIP3   OH228715   1.214   0.054   4.385
 9584TIP3    H128716   1.228  -0.033   4.349
 9584TIP3    H228717   1.210   0.040   4.480
 9585TIP3   OH228718   5.340   6.482   1.660
 9585TIP3    H128719   5.335   6.551   1.726
 9585TIP3    H228720   5.414   6.507   1.604
 9586TIP3   OH228721   2.585   2.820   0.817
 9586TIP3    H128722   2.629   2.744   0.778
 9586TIP3    H228723   2.644   2.847   0.887
 9587TIP3   OH228724   1.031   3.068   1.850
 9587TIP3    H128725   1.011   2.984   1.893
 9587TIP3    H228726   1.090   3.112   1.911
 9588TIP3   OH228727   2.052   1.126   0.309
 9588TIP3    H128728   2.142   1.141   0.339
 9588TIP3    H228729   2.029   1.207   0.263
 9589TIP3   OH228730   3.308   6.592   5.582
 9589TIP3    H128731   3.360   6.656   5.534
 9589TIP3    H228732   3.319   6.510   5.534
 9590TIP3   OH228733   3.523   4.046   2.855
 9590TIP3    H128734   3.546   4.094   2.775
 9590TIP3    H228735   3.607   4.018   2.891
 9591TIP3   OH228736   0.911   1.679   4.609
 9591TIP3    H128737   0.945   1.676   4.698
 9591TIP3    H228738   0.986   1.657   4.554
 9592TIP3   OH228739   4.501   6.385   1.221
 9592TIP3    H128740   4.485   6.468   1.176
 9592TIP3    H228741   4.476   6.402   1.311
 9593TIP3   OH228742   3.424   1.402   5.664
 9593TIP3    H128743   3.516   1.391   5.689
 9593TIP3    H228744   3.375   1.357   5.732
 9594TIP3   OH228745   1.211   1.989   0.639
 9594TIP3    H128746   1.165   2.050   0.581
 9594TIP3    H228747   1.241   2.043   0.712
 9595TIP3   OH228748   7.080   1.875   5.569
 9595TIP3    H128749   7.159   1.863   5.516
 9595TIP3    H228750   7.104   1.942   5.633
 9596TIP3   OH228751   6.615   2.947   0.575
 9596TIP3    H128752   6.629   3.002   0.652
 9596TIP3    H228753   6.634   2.858   0.605
 9597TIP3   OH228754   1.403   2.593   1.457
 9597TIP3    H128755   1.486   2.608   1.501
 9597TIP3    H228756   1.406   2.649   1.380
 9598TIP3   OH228757   6.304   4.843   0.555
 9598TIP3    H128758   6.354   4.880   0.628
 9598TIP3    H228759   6.321   4.902   0.482
 9599TIP3   OH228760   1.167   3.375   1.714
 9599TIP3    H128761   1.143   3.463   1.743
 9599TIP3    H228762   1.129   3.368   1.626
 9600TIP3   OH228763   3.614   0.404   5.314
 9600TIP3    H128764   3.571   0.480   5.277
 9600TIP3    H228765   3.550   0.368   5.377
 9601TIP3   OH228766   6.602   3.586   1.877
 9601TIP3    H128767   6.632   3.629   1.797
 9601TIP3    H228768   6.506   3.592   1.873
 9602TIP3   OH228769   6.042   4.367   1.427
 9602TIP3    H128770   6.096   4.412   1.492
 9602TIP3    H228771   6.064   4.409   1.344
 9603TIP3   OH228772   2.873   5.465   3.223
 9603TIP3    H128773   2.833   5.418   3.150
 9603TIP3    H228774   2.915   5.541   3.183
 9604TIP3   OH228775   0.301   4.004   0.072
 9604TIP3    H128776   0.269   4.013  -0.018
 9604TIP3    H228777   0.251   4.068   0.122
 9605TIP3   OH228778   4.314   2.003   3.816
 9605TIP3    H128779   4.343   2.029   3.728
 9605TIP3    H228780   4.326   2.081   3.869
 9606TIP3   OH228781   6.421   6.076   5.168
 9606TIP3    H128782   6.342   6.029   5.196
 9606TIP3    H228783   6.393   6.167   5.157
 9607TIP3   OH228784   4.693   0.835   0.868
 9607TIP3    H128785   4.780   0.813   0.834
 9607TIP3    H228786   4.641   0.852   0.790
 9608TIP3   OH228787   1.894   3.948   4.159
 9608TIP3    H128788   1.907   4.010   4.231
 9608TIP3    H228789   1.980   3.940   4.119
 9609TIP3   OH228790   1.493   0.342   0.358
 9609TIP3    H128791   1.559   0.296   0.411
 9609TIP3    H228792   1.415   0.343   0.414
 9610TIP3   OH228793   5.457   5.062   4.105
 9610TIP3    H128794   5.488   5.030   4.190
 9610TIP3    H228795   5.371   5.100   4.124
 9611TIP3   OH228796   6.346   1.438   3.432
 9611TIP3    H128797   6.286   1.512   3.436
 9611TIP3    H228798   6.409   1.461   3.364
 9612TIP3   OH228799   5.203   5.794   1.156
 9612TIP3    H128800   5.256   5.851   1.211
 9612TIP3    H228801   5.233   5.705   1.174
 9613TIP3   OH228802   5.082   5.438   1.410
 9613TIP3    H128803   5.014   5.495   1.448
 9613TIP3    H228804   5.034   5.363   1.375
 9614TIP3   OH228805   2.744   4.887   3.262
 9614TIP3    H128806   2.793   4.805   3.260
 9614TIP3    H228807   2.652   4.860   3.263
 9615TIP3   OH228808   1.764   1.860   0.269
 9615TIP3    H128809   1.808   1.903   0.343
 9615TIP3    H228810   1.783   1.917   0.194
 9616TIP3   OH228811   4.344   3.016   2.198
 9616TIP3    H128812   4.388   2.992   2.117
 9616TIP3    H228813   4.310   3.104   2.182
 9617TIP3   OH228814   3.547   0.018   0.446
 9617TIP3    H128815   3.535   0.105   0.408
 9617TIP3    H228816   3.642   0.009   0.455
 9618TIP3   OH228817   1.332   5.596   1.044
 9618TIP3    H128818   1.381   5.661   1.094
 9618TIP3    H228819   1.377   5.513   1.063
 9619TIP3   OH228820   5.390   0.831   3.213
 9619TIP3    H128821   5.424   0.768   3.277
 9619TIP3    H228822   5.421   0.916   3.244
 9620TIP3   OH228823   1.897   1.755   0.743
 9620TIP3    H128824   1.929   1.739   0.832
 9620TIP3    H228825   1.902   1.850   0.732
 9621TIP3   OH228826   5.002   5.783   3.873
 9621TIP3    H128827   5.045   5.778   3.958
 9621TIP3    H228828   4.910   5.801   3.893
 9622TIP3   OH228829   0.451   3.658   3.864
 9622TIP3    H128830   0.530   3.708   3.848
 9622TIP3    H228831   0.389   3.688   3.797
 9623TIP3   OH228832   6.760   0.650   3.057
 9623TIP3    H128833   6.843   0.674   3.098
 9623TIP3    H228834   6.693   0.697   3.107
 9624TIP3   OH228835   6.672   3.925   5.161
 9624TIP3    H128836   6.617   3.847   5.149
 9624TIP3    H228837   6.693   3.926   5.254
 9625TIP3   OH228838   4.757   5.479   1.915
 9625TIP3    H128839   4.821   5.542   1.949
 9625TIP3    H228840   4.788   5.394   1.947
 9626TIP3   OH228841   5.218   6.591   3.586
 9626TIP3    H128842   5.307   6.556   3.578
 9626TIP3    H228843   5.164   6.532   3.533
 9627TIP3   OH228844   5.031   1.181   3.003
 9627TIP3    H128845   5.058   1.110   2.944
 9627TIP3    H228846   4.952   1.216   2.962
 9628TIP3   OH228847   0.790   4.955   4.383
 9628TIP3    H128848   0.877   4.917   4.388
 9628TIP3    H228849   0.787   5.017   4.456
 9629TIP3   OH228850   0.533   6.233   5.149
 9629TIP3    H128851   0.529   6.195   5.061
 9629TIP3    H228852   0.624   6.222   5.176
 9630TIP3   OH228853   6.494   6.121   1.635
 9630TIP3    H128854   6.496   6.039   1.585
 9630TIP3    H228855   6.415   6.166   1.603
 9631TIP3   OH228856   4.645   3.189   0.109
 9631TIP3    H128857   4.605   3.214   0.192
 9631TIP3    H228858   4.716   3.130   0.134
 9632TIP3   OH228859   3.380   6.760   2.882
 9632TIP3    H128860   3.317   6.829   2.902
 9632TIP3    H228861   3.327   6.689   2.845
 9633TIP3   OH228862   7.120   5.313   4.749
 9633TIP3    H128863   7.105   5.218   4.755
 9633TIP3    H228864   7.043   5.352   4.791
 9634TIP3   OH228865   1.374   0.906   1.801
 9634TIP3    H128866   1.413   0.992   1.784
 9634TIP3    H228867   1.449   0.849   1.822
 9635TIP3   OH228868   4.886   1.852   4.749
 9635TIP3    H128869   4.846   1.801   4.819
 9635TIP3    H228870   4.907   1.936   4.790
 9636TIP3   OH228871   3.813   1.067   4.218
 9636TIP3    H128872   3.858   0.985   4.238
 9636TIP3    H228873   3.752   1.080   4.290
 9637TIP3   OH228874   1.510   6.543   4.681
 9637TIP3    H128875   1.442   6.476   4.684
 9637TIP3    H228876   1.585   6.499   4.641
 9638TIP3   OH228877   4.898   3.169   1.095
 9638TIP3    H128878   4.805   3.160   1.118
 9638TIP3    H228879   4.908   3.115   1.017
 9639TIP3   OH228880   3.557   3.210   4.371
 9639TIP3    H128881   3.539   3.116   4.373
 9639TIP3    H228882   3.591   3.226   4.283
 9640TIP3   OH228883   0.511   2.712   5.106
 9640TIP3    H128884   0.483   2.655   5.035
 9640TIP3    H228885   0.441   2.777   5.115
 9641TIP3   OH228886   2.514   2.313   3.964
 9641TIP3    H128887   2.573   2.261   3.910
 9641TIP3    H228888   2.436   2.258   3.975
 9642TIP3   OH228889   0.438   2.837   2.826
 9642TIP3    H128890   0.409   2.881   2.746
 9642TIP3    H228891   0.371   2.858   2.891
 9643TIP3   OH228892   3.473   5.309   2.529
 9643TIP3    H128893   3.539   5.242   2.511
 9643TIP3    H228894   3.398   5.284   2.476
 9644TIP3   OH228895   4.383   0.956   0.888
 9644TIP3    H128896   4.289   0.954   0.908
 9644TIP3    H228897   4.410   1.045   0.909
 9645TIP3   OH228898   5.259   1.335   2.053
 9645TIP3    H128899   5.248   1.378   1.967
 9645TIP3    H228900   5.319   1.263   2.036
 9646TIP3   OH228901   3.764   0.865   3.970
 9646TIP3    H128902   3.830   0.849   4.038
 9646TIP3    H228903   3.786   0.950   3.934
 9647TIP3   OH228904   6.428   6.455   4.847
 9647TIP3    H128905   6.515   6.419   4.831
 9647TIP3    H228906   6.368   6.393   4.805
 9648TIP3   OH228907   4.870   5.446   1.128
 9648TIP3    H128908   4.959   5.451   1.093
 9648TIP3    H228909   4.842   5.537   1.137
 9649TIP3   OH228910   6.029   2.342   5.687
 9649TIP3    H128911   6.001   2.284   5.616
 9649TIP3    H228912   6.108   2.385   5.653
 9650TIP3   OH228913   0.353   0.139   1.802
 9650TIP3    H128914   0.406   0.205   1.758
 9650TIP3    H228915   0.409   0.061   1.805
 9651TIP3   OH228916   4.583   6.223   0.327
 9651TIP3    H128917   4.567   6.150   0.268
 9651TIP3    H228918   4.590   6.300   0.270
 9652TIP3   OH228919   4.801   2.440   5.701
 9652TIP3    H128920   4.720   2.423   5.653
 9652TIP3    H228921   4.775   2.496   5.773
 9653TIP3   OH228922   1.597   5.476   2.723
 9653TIP3    H128923   1.555   5.428   2.652
 9653TIP3    H228924   1.548   5.558   2.728
 9654TIP3   OH228925   1.576   2.368   0.740
 9654TIP3    H128926   1.575   2.403   0.651
 9654TIP3    H228927   1.570   2.444   0.797
 9655TIP3   OH228928   5.850   1.671   4.958
 9655TIP3    H128929   5.785   1.732   4.923
 9655TIP3    H228930   5.917   1.665   4.890
 9656TIP3   OH228931   6.907   4.639   0.980
 9656TIP3    H128932   6.851   4.598   0.915
 9656TIP3    H228933   6.996   4.622   0.949
 9657TIP3   OH228934   0.357   1.938   5.597
 9657TIP3    H128935   0.378   1.846   5.613
 9657TIP3    H228936   0.393   1.985   5.672
 9658TIP3   OH228937   6.263   5.779   2.932
 9658TIP3    H128938   6.346   5.824   2.919
 9658TIP3    H228939   6.267   5.703   2.875
 9659TIP3   OH228940   3.210   1.652   3.064
 9659TIP3    H128941   3.254   1.731   3.094
 9659TIP3    H228942   3.280   1.594   3.034
 9660TIP3   OH228943   0.708   6.104   5.705
 9660TIP3    H128944   0.638   6.041   5.687
 9660TIP3    H228945   0.662   6.180   5.741
 9661TIP3   OH228946   5.070   2.151   4.553
 9661TIP3    H128947   5.122   2.105   4.618
 9661TIP3    H228948   5.044   2.083   4.490
 9662TIP3   OH228949   3.506   2.119   2.300
 9662TIP3    H128950   3.599   2.097   2.301
 9662TIP3    H228951   3.478   2.110   2.391
 9663TIP3   OH228952   4.999   6.036   3.387
 9663TIP3    H128953   5.029   6.003   3.472
 9663TIP3    H228954   4.906   6.014   3.383
 9664TIP3   OH228955   5.936   2.349   4.107
 9664TIP3    H128956   5.954   2.264   4.067
 9664TIP3    H228957   5.844   2.345   4.134
 9665TIP3   OH228958   4.715   5.313   2.376
 9665TIP3    H128959   4.791   5.370   2.389
 9665TIP3    H228960   4.658   5.332   2.450
 9666TIP3   OH228961   6.327   1.382   1.326
 9666TIP3    H128962   6.298   1.466   1.292
 9666TIP3    H228963   6.269   1.318   1.285
 9667TIP3   OH228964   3.657   4.423   0.901
 9667TIP3    H128965   3.592   4.467   0.847
 9667TIP3    H228966   3.741   4.461   0.874
 9668TIP3   OH228967   5.883   6.440   3.505
 9668TIP3    H128968   5.796   6.460   3.540
 9668TIP3    H228969   5.869   6.363   3.450
 9669TIP3   OH228970   0.671   4.835   3.297
 9669TIP3    H128971   0.635   4.903   3.240
 9669TIP3    H228972   0.763   4.857   3.306
 9670TIP3   OH228973   4.200   6.578   4.999
 9670TIP3    H128974   4.208   6.612   5.089
 9670TIP3    H228975   4.138   6.638   4.956
 9671TIP3   OH228976   4.662   0.432   4.484
 9671TIP3    H128977   4.726   0.502   4.502
 9671TIP3    H228978   4.581   0.463   4.524
 9672TIP3   OH228979   0.866   2.478   1.519
 9672TIP3    H128980   0.925   2.497   1.447
 9672TIP3    H228981   0.890   2.541   1.587
 9673TIP3   OH228982   4.369   1.217   4.493
 9673TIP3    H128983   4.329   1.275   4.557
 9673TIP3    H228984   4.370   1.267   4.411
 9674TIP3   OH228985   4.663   2.800   2.974
 9674TIP3    H128986   4.599   2.831   2.910
 9674TIP3    H228987   4.746   2.796   2.927
 9675TIP3   OH228988   1.475   4.224   5.655
 9675TIP3    H128989   1.466   4.318   5.643
 9675TIP3    H228990   1.389   4.188   5.635
 9676TIP3   OH228991   5.859   4.373   2.786
 9676TIP3    H128992   5.786   4.372   2.724
 9676TIP3    H228993   5.870   4.465   2.810
 9677TIP3   OH228994   1.402   4.352   3.558
 9677TIP3    H128995   1.482   4.304   3.579
 9677TIP3    H228996   1.336   4.283   3.544
 9678TIP3   OH228997   2.462   3.461   4.007
 9678TIP3    H128998   2.467   3.372   4.040
 9678TIP3    H228999   2.384   3.463   3.952
 9679TIP3   OH229000   2.232   3.977   1.328
 9679TIP3    H129001   2.262   4.005   1.414
 9679TIP3    H229002   2.190   3.892   1.343
 9680TIP3   OH229003   3.659   3.274   1.330
 9680TIP3    H129004   3.648   3.232   1.244
 9680TIP3    H229005   3.648   3.202   1.393
 9681TIP3   OH229006   5.779   4.396   0.629
 9681TIP3    H129007   5.788   4.437   0.715
 9681TIP3    H229008   5.711   4.329   0.641
 9682TIP3   OH229009   5.436   0.791   2.209
 9682TIP3    H129010   5.464   0.878   2.178
 9682TIP3    H229011   5.470   0.730   2.144
 9683TIP3   OH229012   6.330   2.429   5.859
 9683TIP3    H129013   6.312   2.453   5.768
 9683TIP3    H229014   6.412   2.380   5.854
 9684TIP3   OH229015   4.639   1.790   0.098
 9684TIP3    H129016   4.600   1.741   0.026
 9684TIP3    H229017   4.732   1.766   0.096
 9685TIP3   OH229018   6.020   2.996   4.219
 9685TIP3    H129019   6.010   3.063   4.151
 9685TIP3    H229020   6.109   2.963   4.207
 9686TIP3   OH229021   6.348   1.293   1.604
 9686TIP3    H129022   6.310   1.207   1.586
 9686TIP3    H229023   6.379   1.324   1.519
 9687TIP3   OH229024   4.245   5.071   2.489
 9687TIP3    H129025   4.254   4.992   2.436
 9687TIP3    H229026   4.326   5.075   2.541
 9688TIP3   OH229027   3.672   4.233   2.689
 9688TIP3    H129028   3.756   4.193   2.667
 9688TIP3    H229029   3.615   4.214   2.615
 9689TIP3   OH229030   1.067   1.147   5.753
 9689TIP3    H129031   1.105   1.063   5.727
 9689TIP3    H229032   1.141   1.208   5.754
 9690TIP3   OH229033   5.589   5.758   4.034
 9690TIP3    H129034   5.519   5.774   3.970
 9690TIP3    H229035   5.627   5.844   4.050
 9691TIP3   OH229036   0.754   0.849   5.457
 9691TIP3    H129037   0.744   0.939   5.426
 9691TIP3    H229038   0.698   0.797   5.399
 9692TIP3   OH229039   2.344   6.209   0.838
 9692TIP3    H129040   2.364   6.298   0.868
 9692TIP3    H229041   2.334   6.216   0.743
 9693TIP3   OH229042   0.227   1.431   3.305
 9693TIP3    H129043   0.292   1.488   3.347
 9693TIP3    H229044   0.177   1.394   3.378
 9694TIP3   OH229045   6.616   1.937   2.012
 9694TIP3    H129046   6.609   1.847   1.981
 9694TIP3    H229047   6.527   1.960   2.038
 9695TIP3   OH229048   2.555   6.639   1.990
 9695TIP3    H129049   2.561   6.695   2.067
 9695TIP3    H229050   2.639   6.593   1.987
 9696TIP3   OH229051   1.940   4.131   0.668
 9696TIP3    H129052   1.990   4.184   0.730
 9696TIP3    H229053   1.889   4.072   0.724
 9697TIP3   OH229054   0.556   2.986   3.682
 9697TIP3    H129055   0.471   2.947   3.702
 9697TIP3    H229056   0.536   3.069   3.641
 9698TIP3   OH229057   3.161   6.294   4.722
 9698TIP3    H129058   3.081   6.292   4.670
 9698TIP3    H229059   3.155   6.217   4.778
 9699TIP3   OH229060   6.557   0.980   5.338
 9699TIP3    H129061   6.633   1.038   5.332
 9699TIP3    H229062   6.587   0.897   5.303
 9700TIP3   OH229063   1.718   5.914   0.493
 9700TIP3    H129064   1.790   5.878   0.545
 9700TIP3    H229065   1.642   5.860   0.516
 9701TIP3   OH229066   2.245   5.829   1.204
 9701TIP3    H129067   2.286   5.802   1.286
 9701TIP3    H229068   2.214   5.918   1.222
 9702TIP3   OH229069   1.371   5.478   0.450
 9702TIP3    H129070   1.331   5.489   0.364
 9702TIP3    H229071   1.464   5.491   0.435
 9703TIP3   OH229072   4.163   5.296   5.050
 9703TIP3    H129073   4.073   5.267   5.067
 9703TIP3    H229074   4.193   5.241   4.978
 9704TIP3   OH229075   3.374   3.345   4.520
 9704TIP3    H129076   3.438   3.303   4.463
 9704TIP3    H229077   3.294   3.351   4.466
 9705TIP3   OH229078   0.985   5.686   3.275
 9705TIP3    H129079   1.036   5.746   3.221
 9705TIP3    H229080   0.996   5.720   3.364
 9706TIP3   OH229081   6.601   4.074   0.073
 9706TIP3    H129082   6.597   4.158   0.118
 9706TIP3    H229083   6.523   4.073   0.016
 9707TIP3   OH229084   1.041   3.279   0.291
 9707TIP3    H129085   1.109   3.317   0.347
 9707TIP3    H229086   0.967   3.263   0.350
 9708TIP3   OH229087   6.625   6.319   0.662
 9708TIP3    H129088   6.714   6.323   0.699
 9708TIP3    H229089   6.594   6.410   0.665
 9709TIP3   OH229090   4.280   6.287   4.583
 9709TIP3    H129091   4.348   6.225   4.554
 9709TIP3    H229092   4.219   6.292   4.510
 9710TIP3   OH229093   0.824   1.689   0.209
 9710TIP3    H129094   0.912   1.726   0.202
 9710TIP3    H229095   0.821   1.651   0.297
 9711TIP3   OH229096   6.234   3.105   2.712
 9711TIP3    H129097   6.314   3.061   2.685
 9711TIP3    H229098   6.178   3.034   2.744
 9712TIP3   OH229099   6.687   5.823   3.974
 9712TIP3    H129100   6.649   5.737   3.959
 9712TIP3    H229101   6.673   5.871   3.892
 9713TIP3   OH229102   3.761   1.213   3.199
 9713TIP3    H129103   3.704   1.162   3.256
 9713TIP3    H229104   3.819   1.260   3.259
 9714TIP3   OH229105   4.538   1.107   0.547
 9714TIP3    H129106   4.533   1.031   0.605
 9714TIP3    H229107   4.632   1.129   0.545
 9715TIP3   OH229108   0.987   4.387   3.572
 9715TIP3    H129109   1.058   4.439   3.533
 9715TIP3    H229110   0.983   4.308   3.517
 9716TIP3   OH229111   0.878   6.403   2.189
 9716TIP3    H129112   0.960   6.373   2.152
 9716TIP3    H229113   0.847   6.330   2.242
 9717TIP3   OH229114   1.105   3.599   0.577
 9717TIP3    H129115   1.146   3.593   0.664
 9717TIP3    H229116   1.117   3.513   0.539
 9718TIP3   OH229117   3.483   2.402   4.912
 9718TIP3    H129118   3.547   2.350   4.962
 9718TIP3    H229119   3.487   2.489   4.952
 9719TIP3   OH229120   5.049   2.305   2.108
 9719TIP3    H129121   5.142   2.307   2.086
 9719TIP3    H229122   5.024   2.397   2.113
 9720TIP3   OH229123   0.150   5.697   1.086
 9720TIP3    H129124   0.214   5.659   1.025
 9720TIP3    H229125   0.133   5.785   1.052
 9721TIP3   OH229126   0.127   5.043   3.763
 9721TIP3    H129127   0.140   5.066   3.855
 9721TIP3    H229128   0.106   5.127   3.721
 9722TIP3   OH229129   2.180   2.747   1.529
 9722TIP3    H129130   2.187   2.653   1.547
 9722TIP3    H229131   2.128   2.753   1.449
 9723TIP3   OH229132   0.296   5.564   4.133
 9723TIP3    H129133   0.235   5.558   4.206
 9723TIP3    H229134   0.372   5.513   4.161
 9724TIP3   OH229135   3.688   2.711   3.287
 9724TIP3    H129136   3.734   2.683   3.208
 9724TIP3    H229137   3.604   2.745   3.256
 9725TIP3   OH229138   5.772   1.391   0.672
 9725TIP3    H129139   5.777   1.296   0.662
 9725TIP3    H229140   5.862   1.418   0.690
 9726TIP3   OH229141   3.891   6.690   2.754
 9726TIP3    H129142   3.846   6.773   2.770
 9726TIP3    H229143   3.887   6.644   2.837
 9727TIP3   OH229144   0.587   6.229   5.490
 9727TIP3    H129145   0.644   6.291   5.445
 9727TIP3    H229146   0.564   6.272   5.572
 9728TIP3   OH229147   2.067   6.377   2.227
 9728TIP3    H129148   2.099   6.466   2.213
 9728TIP3    H229149   2.066   6.337   2.140
 9729TIP3   OH229150   3.033   3.275   2.847
 9729TIP3    H129151   3.064   3.360   2.816
 9729TIP3    H229152   3.104   3.214   2.827
 9730TIP3   OH229153   6.349   6.601   4.602
 9730TIP3    H129154   6.303   6.550   4.669
 9730TIP3    H229155   6.305   6.577   4.520
 9731TIP3   OH229156   2.090   0.494   2.333
 9731TIP3    H129157   2.130   0.414   2.298
 9731TIP3    H229158   1.996   0.480   2.322
 9732TIP3   OH229159   1.921   5.191   3.947
 9732TIP3    H129160   1.961   5.155   3.868
 9732TIP3    H229161   1.935   5.123   4.013
 9733TIP3   OH229162   7.147   4.576   1.344
 9733TIP3    H129163   7.084   4.504   1.343
 9733TIP3    H229164   7.100   4.648   1.302
 9734TIP3   OH229165   2.466   1.129   2.526
 9734TIP3    H129166   2.503   1.082   2.601
 9734TIP3    H229167   2.529   1.200   2.509
 9735TIP3   OH229168   6.286   6.497   3.151
 9735TIP3    H129169   6.360   6.475   3.208
 9735TIP3    H229170   6.226   6.545   3.208
 9736TIP3   OH229171   5.965   3.416   5.033
 9736TIP3    H129172   5.922   3.367   5.103
 9736TIP3    H229173   6.054   3.379   5.030
 9737TIP3   OH229174   6.377   3.163   0.768
 9737TIP3    H129175   6.365   3.245   0.816
 9737TIP3    H229176   6.361   3.095   0.833
 9738TIP3   OH229177   6.383   3.413   0.923
 9738TIP3    H129178   6.340   3.494   0.897
 9738TIP3    H229179   6.476   3.433   0.920
 9739TIP3   OH229180   0.256   2.861   3.071
 9739TIP3    H129181   0.224   2.813   3.148
 9739TIP3    H229182   0.179   2.907   3.038
 9740TIP3   OH229183   0.097   4.793   3.868
 9740TIP3    H129184   0.126   4.870   3.819
 9740TIP3    H229185   0.094   4.724   3.802
 9741TIP3   OH229186   2.713   4.448   0.055
 9741TIP3    H129187   2.642   4.450   0.119
 9741TIP3    H229188   2.670   4.458  -0.030
 9742TIP3   OH229189   3.931   4.002   5.472
 9742TIP3    H129190   4.026   3.990   5.467
 9742TIP3    H229191   3.895   3.927   5.424
 9743TIP3   OH229192   1.755   3.247   5.741
 9743TIP3    H129193   1.846   3.277   5.732
 9743TIP3    H229194   1.738   3.201   5.659
 9744TIP3   OH229195   2.693   3.677   0.708
 9744TIP3    H129196   2.754   3.743   0.674
 9744TIP3    H229197   2.748   3.618   0.759
 9745TIP3   OH229198   7.223   4.061   3.139
 9745TIP3    H129199   7.142   4.013   3.123
 9745TIP3    H229200   7.203   4.151   3.113
 9746TIP3   OH229201   1.130   3.459   4.448
 9746TIP3    H129202   1.211   3.448   4.397
 9746TIP3    H229203   1.095   3.543   4.419
 9747TIP3   OH229204   0.601   0.047   2.772
 9747TIP3    H129205   0.670   0.027   2.709
 9747TIP3    H229206   0.648   0.081   2.849
 9748TIP3   OH229207   4.413   5.643   4.830
 9748TIP3    H129208   4.358   5.608   4.900
 9748TIP3    H229209   4.471   5.704   4.875
 9749TIP3   OH229210   1.774   2.496   1.292
 9749TIP3    H129211   1.761   2.590   1.304
 9749TIP3    H229212   1.780   2.460   1.380
   7.20668   6.79453   5.88422   0.00000   0.00000  -2.40223   0.00000  -2.40223  -3.39726
