Title
29212
    1ASP      N    1   2.457   3.054   5.849  0.3281 -0.4334  0.0828
    1ASP    HT1    2   2.507   2.973   5.892 -0.1058  0.5879  2.6675
    1ASP    HT2    3   2.430   3.022   5.754 -0.3246 -0.6851  0.3423
    1ASP    HT3    4   2.373   3.074   5.907  0.2372  2.1423 -0.8427
    1ASP     CA    5   2.549   3.172   5.847 -0.5703 -0.5887 -0.4288
    1ASP     HA    6   2.584   3.196   5.946 -1.6261  0.0724 -0.1956
    1ASP     CB    7   2.668   3.143   5.754  0.6712 -0.0149 -0.1725
    1ASP    HB1    8   2.633   3.118   5.652  0.0502  0.0064  0.0308
    1ASP    HB2    9   2.722   3.051   5.784  2.1123  0.4636 -1.1905
    1ASP     CG   10   2.777   3.251   5.759 -0.0666 -0.7525 -0.0787
    1ASP    OD1   11   2.780   3.327   5.861 -0.1102  0.2779 -0.3944
    1ASP    OD2   12   2.852   3.253   5.658 -0.3551  0.5032 -0.7915
    1ASP      C   13   2.467   3.285   5.785  0.0418  0.1408  0.0221
    1ASP      O   14   2.362   3.253   5.730 -0.4710 -0.7025  0.3516
    2GLY      N   15   2.504   3.415   5.798 -0.8414  0.5256 -0.3354
    2GLY     HN   16   2.595   3.428   5.836 -0.7428  1.0452 -0.7232
    2GLY     CA   17   2.444   3.535   5.743  0.0533 -0.1181 -0.7166
    2GLY    HA1   18   2.507   3.615   5.777  0.9855 -0.0850 -2.4109
    2GLY    HA2   19   2.343   3.546   5.778 -0.2977  1.6410 -2.1465
    2GLY      C   20   2.434   3.541   5.592  0.5220  0.3644 -0.3753
    2GLY      O   21   2.480   3.449   5.528 -0.2445 -0.3997 -0.2835
    3ASP      N   22   2.382   3.654   5.546  0.5770  0.1054 -0.4930
    3ASP     HN   23   2.343   3.728   5.600 -2.6780 -0.4317 -1.8816
    3ASP     CA   24   2.372   3.689   5.410 -0.4055  0.2739  0.1859
    3ASP     HA   25   2.315   3.616   5.355 -0.6626  1.3702 -1.0604
    3ASP     CB   26   2.285   3.821   5.395 -0.9307 -0.5537 -0.3549
    3ASP    HB1   27   2.291   3.869   5.295  1.5501  0.0088  0.0120
    3ASP    HB2   28   2.324   3.898   5.465 -0.8591 -1.0530  0.1667
    3ASP     CG   29   2.142   3.798   5.429 -0.0486 -0.4242  0.3213
    3ASP    OD1   30   2.071   3.907   5.444  0.2681  0.2313 -0.2206
    3ASP    OD2   31   2.093   3.682   5.424  0.5349 -0.0009 -0.4440
    3ASP      C   32   2.507   3.698   5.323  0.9285  0.7769  0.0457
    3ASP      O   33   2.610   3.738   5.371 -0.0732 -0.2514  0.1726
    4GLY      N   34   2.496   3.653   5.194 -0.2276 -0.1854  0.1936
    4GLY     HN   35   2.404   3.645   5.157 -0.5373 -0.2268  0.9483
    4GLY     CA   36   2.601   3.633   5.102 -0.1469 -0.0565 -0.0653
    4GLY    HA1   37   2.553   3.566   5.033 -0.9673 -0.6892  1.0962
    4GLY    HA2   38   2.682   3.589   5.157  0.0619 -0.3739 -0.6173
    4GLY      C   39   2.639   3.758   5.026  0.8187  0.2266 -0.0317
    4GLY      O   40   2.610   3.864   5.085 -0.2069 -0.3664 -0.0642
    5PRO      N   41   2.697   3.746   4.906  0.3139  0.1841  0.0917
    5PRO     CD   42   2.743   3.617   4.852 -0.2481  0.5039  0.3136
    5PRO    HD1   43   2.672   3.574   4.779  0.1984 -2.2015  1.3650
    5PRO    HD2   44   2.785   3.548   4.928 -1.7929 -0.3151  0.4593
    5PRO     CA   45   2.719   3.851   4.814 -0.1864  0.1015 -0.7178
    5PRO     HA   46   2.771   3.928   4.869  0.0534 -1.6959  1.6841
    5PRO     CB   47   2.790   3.792   4.701 -0.7827  0.2243 -0.3688
    5PRO    HB1   48   2.860   3.870   4.664  0.6238 -0.7187  0.2068
    5PRO    HB2   49   2.715   3.773   4.622 -1.8013 -0.3744  0.7149
    5PRO     CG   50   2.852   3.664   4.762 -0.8164 -0.9246  0.3433
    5PRO    HG1   51   2.873   3.598   4.674  1.1324  0.1081 -0.0101
    5PRO    HG2   52   2.941   3.697   4.818 -0.6283  1.0824 -1.0281
    5PRO      C   53   2.596   3.929   4.778 -0.7466  0.6737 -0.1124
    5PRO      O   54   2.499   3.875   4.725 -0.6846 -0.1964 -0.2730
    6GLY      N   55   2.589   4.054   4.810  0.5596  0.2532 -0.7632
    6GLY     HN   56   2.663   4.096   4.862  0.6265 -2.3809  1.5112
    6GLY     CA   57   2.478   4.139   4.758 -0.2825  0.0890 -0.6213
    6GLY    HA1   58   2.486   4.234   4.809 -0.5982 -0.1181 -0.1740
    6GLY    HA2   59   2.380   4.096   4.774  0.5699 -0.8701  2.9296
    6GLY      C   60   2.487   4.191   4.614 -0.0469 -0.1328 -0.5126
    6GLY      O   61   2.571   4.139   4.541 -0.3863 -0.0412  0.4254
    7ASP      N   62   2.418   4.292   4.572 -0.4401 -0.1473 -0.1751
    7ASP     HN   63   2.362   4.346   4.634  1.2155  2.8766 -1.0787
    7ASP     CA   64   2.425   4.363   4.450  0.2742  0.4308  0.7745
    7ASP     HA   65   2.403   4.287   4.377 -0.8723 -0.2662  1.8103
    7ASP     CB   66   2.327   4.485   4.449 -0.1641  0.0256 -0.2108
    7ASP    HB1   67   2.345   4.551   4.361 -0.4770  1.2249  0.5976
    7ASP    HB2   68   2.336   4.547   4.541  2.8518  0.7379 -0.8712
    7ASP     CG   69   2.183   4.448   4.435  0.8563  0.1538 -0.5530
    7ASP    OD1   70   2.093   4.511   4.491 -0.2432 -0.7037 -0.6021
    7ASP    OD2   71   2.148   4.346   4.369 -1.1612  0.0141 -0.2030
    7ASP      C   72   2.569   4.420   4.427 -0.0241  0.3006  0.0049
    7ASP      O   73   2.632   4.460   4.523  0.8320 -0.2821 -0.6856
    8PRO      N   74   2.630   4.422   4.308 -0.3591 -0.0163 -0.0421
    8PRO     CD   75   2.579   4.352   4.191 -0.2319 -0.8154  1.0140
    8PRO    HD1   76   2.497   4.403   4.137  1.7259  0.3300 -1.0413
    8PRO    HD2   77   2.561   4.246   4.222  0.0898 -0.5896  2.0245
    8PRO     CA   78   2.746   4.509   4.280  0.4382 -0.1680 -0.2202
    8PRO     HA   79   2.837   4.467   4.321  0.3585 -1.3349 -1.1690
    8PRO     CB   80   2.751   4.490   4.129 -0.1324 -0.7148 -0.3747
    8PRO    HB1   81   2.855   4.499   4.089  0.1588 -2.0518  0.0077
    8PRO    HB2   82   2.688   4.573   4.091  1.3111  0.2198 -0.8494
    8PRO     CG   83   2.695   4.354   4.094  0.3594  0.2064 -0.4597
    8PRO    HG1   84   2.669   4.335   3.987 -0.9553 -1.6486  0.1455
    8PRO    HG2   85   2.768   4.280   4.130 -2.1952 -2.7544 -0.8948
    8PRO      C   86   2.741   4.653   4.331 -1.3948 -0.0677 -0.0786
    8PRO      O   87   2.632   4.710   4.345  0.2181 -0.4695 -0.4347
    9GLY      N   88   2.860   4.705   4.373 -0.3469 -0.1455  0.5379
    9GLY     HN   89   2.950   4.664   4.361 -0.3370  0.0287 -0.0118
    9GLY     CA   90   2.866   4.850   4.402 -0.0396 -1.1733  0.8936
    9GLY    HA1   91   2.910   4.860   4.500  0.1379  0.2941  0.6814
    9GLY    HA2   92   2.768   4.896   4.395  0.7184  0.3278 -0.2510
    9GLY      C   93   2.959   4.911   4.301 -0.5609 -0.6224  0.1510
    9GLY      O   94   2.983   4.865   4.190 -0.4804 -0.0671 -0.5210
   10ASP      N   95   3.006   5.034   4.342  0.5118  0.6111  0.1427
   10ASP     HN   96   2.986   5.066   4.434 -0.2542  1.2192 -0.2229
   10ASP     CA   97   3.101   5.121   4.272 -0.2831  0.5834  0.1328
   10ASP     HA   98   3.073   5.126   4.168  1.1782 -0.5206 -0.3420
   10ASP     CB   99   3.078   5.261   4.329  0.4750 -0.2180 -0.1242
   10ASP    HB1  100   3.145   5.341   4.291 -1.7690  1.2707 -1.1883
   10ASP    HB2  101   3.072   5.254   4.440  0.7295  0.8414 -0.0388
   10ASP     CG  102   2.945   5.317   4.290 -0.7327 -0.2602  0.7482
   10ASP    OD1  103   2.864   5.257   4.216 -0.7598  0.1081 -0.7505
   10ASP    OD2  104   2.919   5.434   4.335 -0.0699 -0.2038  0.1692
   10ASP      C  105   3.241   5.075   4.295 -0.7235 -0.0652 -0.1535
   10ASP      O  106   3.340   5.115   4.232  0.1529 -0.5343 -0.3758
   11GLY      N  107   3.264   4.986   4.393  0.5344  0.0474  0.4546
   11GLY     HN  108   3.192   4.979   4.461  2.9897  0.5317  3.3070
   11GLY     CA  109   3.389   4.932   4.428  1.3462 -0.1982  0.0876
   11GLY    HA1  110   3.397   4.937   4.536  1.0482  0.5513  0.0842
   11GLY    HA2  111   3.471   4.982   4.377  0.9231 -0.7372 -1.1500
   11GLY      C  112   3.393   4.786   4.385  0.1430  0.7093 -0.1266
   11GLY    OT1  113   3.324   4.703   4.453 -0.6934 -0.1845  0.3121
   11GLY    OT2  114   3.461   4.744   4.287  0.9638 -0.2767 -0.1101
   12SOD    SOD  115   3.208   0.064   3.930  0.4803  0.3154  0.5371
   13SOD    SOD  116   6.917   3.219   1.242  0.1842  0.0756  0.4253
   14SOD    SOD  117   3.056   0.394   3.221 -0.0601  0.0606  0.2426
   15SOD    SOD  118   1.655   5.579   5.190 -0.1575 -0.2316  0.5541
   16SOD    SOD  119   5.502   4.699   3.032 -0.1721 -0.3008  0.4140
   17SOD    SOD  120   6.613   2.373   5.198 -0.0956 -0.4249 -0.1621
   18SOD    SOD  121   1.151   1.897   5.455  0.0816 -0.0305  0.4845
   19SOD    SOD  122   1.032   4.676   3.369 -0.2152 -0.0876 -0.3604
   20SOD    SOD  123   4.457   2.054   4.790 -0.1571 -0.3347 -0.0656
   21SOD    SOD  124   5.997   5.869   1.465 -0.0696 -0.0516 -0.3848
   22SOD    SOD  125   3.151   1.924   4.332 -0.2595  0.2245  0.1445
   23SOD    SOD  126   4.360   2.997   1.302  0.1561 -0.1032 -0.3529
   24SOD    SOD  127   1.653   2.315   1.452 -0.3429 -0.0845 -0.0617
   25SOD    SOD  128   3.516   4.528   4.266  0.0217  0.0921  0.2156
   26SOD    SOD  129   6.266   3.746   3.176  0.2092  0.0971 -0.0813
   27SOD    SOD  130   0.767   0.166   0.045 -0.1876 -0.1206  0.6335
   28SOD    SOD  131   1.418   2.550   5.307 -0.6296 -0.6082  0.2594
   29SOD    SOD  132   0.968   1.734   4.813 -0.0921  0.0780 -0.0174
   30SOD    SOD  133   3.123   5.946   5.449  0.2918  0.1208  0.5761
   31SOD    SOD  134   4.545   4.212   4.201 -0.8819 -0.1698  0.3768
   32SOD    SOD  135   6.522   6.705   5.209 -0.1446  0.3849 -0.3341
   33SOD    SOD  136   6.591   5.832   3.375  0.0574  0.5245 -0.3133
   34SOD    SOD  137   6.161   1.783   3.233  0.0225 -0.2596  0.1756
   35SOD    SOD  138   4.761   3.189   5.265  0.0982  0.6676  0.1786
   36SOD    SOD  139   2.168   2.924   2.255 -0.5726 -0.2741 -0.4862
   37SOD    SOD  140   6.860   5.147   4.526  0.2853 -0.5495 -0.6043
   38SOD    SOD  141   5.610   3.513   1.054 -0.0161 -0.5516 -0.1666
   39SOD    SOD  142   5.024   6.748   0.703 -0.1036 -0.1110 -0.1937
   40SOD    SOD  143   3.809   0.776   4.335  0.2858  0.0121 -0.0228
   41SOD    SOD  144   5.069   0.813   4.309  0.0216  0.5631 -0.1945
   42SOD    SOD  145   3.197   5.268   3.578 -0.0514  0.0940  0.1332
   43CLA    CLA  146   6.439   2.114   3.132  0.1856  0.0742  0.1945
   44CLA    CLA  147   0.212   0.328   3.946  0.1291  0.1174  0.3156
   45CLA    CLA  148   0.091   3.572   2.041  0.2478  0.3051  0.6432
   46CLA    CLA  149   0.899   6.517   3.271  0.1537  0.5372  0.4449
   47CLA    CLA  150   5.434   5.025   4.420 -0.0354 -0.0624 -0.0361
   48CLA    CLA  151   0.839   2.757   3.702  0.2087 -0.2932 -0.2883
   49CLA    CLA  152   3.637   4.237   5.006 -0.3410  0.0902  0.2827
   50CLA    CLA  153   3.322   1.784   3.872  0.2310 -0.1335 -0.5308
   51CLA    CLA  154   0.936   3.122   0.880 -0.3783 -0.3183  0.2134
   52CLA    CLA  155   1.999   0.473   2.111 -0.0410 -0.2396 -0.0842
   53CLA    CLA  156   3.843   1.826   5.127  0.0872 -0.0207 -0.4453
   54CLA    CLA  157   3.567   2.421   0.926 -0.1387  0.3481  0.0014
   55CLA    CLA  158   2.490   2.003   2.359 -0.0694 -0.0083 -0.1359
   56CLA    CLA  159   1.309   0.412   5.226 -0.1943  0.0704 -0.2032
   57CLA    CLA  160   4.876   4.915   1.250 -0.0834  0.5013  0.3085
   58CLA    CLA  161   3.431   3.973   1.572  0.2377  0.0189  0.0902
   59CLA    CLA  162   3.381   5.671   3.170 -0.4822  0.0479  0.0985
   60CLA    CLA  163   0.486   3.490   1.181  0.5015  0.1246  0.4163
   61CLA    CLA  164   5.429   1.579   3.400 -0.1569 -0.0589 -0.2640
   62CLA    CLA  165   1.548   6.402   5.500 -0.1035 -0.3716  0.1425
   63CLA    CLA  166   5.118   2.235   1.206  0.2254  0.3714 -0.1229
   64CLA    CLA  167   5.517   3.683   1.245  0.2587  0.3290  0.2241
   65CLA    CLA  168   1.269   4.682   2.446 -0.0664 -0.2240  0.0979
   66CLA    CLA  169   1.784   2.450   5.050  0.2097 -0.3015 -0.2691
   67CLA    CLA  170   3.145   3.323   1.272  0.2166  0.4012 -0.3049
   68CLA    CLA  171   5.190   4.035   2.963  0.0269  0.2172 -0.1067
   69CLA    CLA  172   6.418   6.139   3.667 -0.0071  0.4433  0.0765
   70TIP3   OH2  173   2.697   5.130   1.963  0.3001  0.5775 -0.2670
   70TIP3    H1  174   2.670   5.107   2.052  1.1457 -3.3303 -0.8398
   70TIP3    H2  175   2.647   5.070   1.906 -0.0254  2.7658 -2.4928
   71TIP3   OH2  176   6.245   1.767   2.474 -0.3953  0.0780  0.6202
   71TIP3    H1  177   6.241   1.863   2.481 -0.2016 -0.0076  2.2627
   71TIP3    H2  178   6.328   1.749   2.432 -0.8501  0.6545 -0.5637
   72TIP3   OH2  179   0.534   6.130   1.845  0.6020  0.0978  0.3587
   72TIP3    H1  180   0.491   6.066   1.787 -0.0884 -1.6072  2.6138
   72TIP3    H2  181   0.461   6.171   1.892  1.1052  1.9892 -0.4274
   73TIP3   OH2  182   3.938   4.218   2.694  0.2640 -0.6156  0.2832
   73TIP3    H1  183   4.032   4.231   2.706  0.2666 -0.8889  0.5777
   73TIP3    H2  184   3.923   4.127   2.720 -0.3317 -0.1260  1.7488
   74TIP3   OH2  185   6.737   5.790   1.565  0.0991 -0.6000  0.1536
   74TIP3    H1  186   6.696   5.717   1.518 -2.3635  0.3875  0.6058
   74TIP3    H2  187   6.680   5.805   1.641  2.6627 -0.6315  2.2440
   75TIP3   OH2  188   5.648   1.241   1.432 -0.3788 -0.7065  0.3597
   75TIP3    H1  189   5.667   1.214   1.342  3.5812 -1.5660  1.2685
   75TIP3    H2  190   5.728   1.285   1.461 -2.2676  1.4112  2.8950
   76TIP3   OH2  191   6.961   0.181   4.316  0.0795 -0.0758  0.2974
   76TIP3    H1  192   6.980   0.087   4.310  1.7815  0.3007 -1.0282
   76TIP3    H2  193   7.000   0.209   4.399  1.4388 -0.1876 -0.2719
   77TIP3   OH2  194   2.169   0.190   2.214  0.1789 -0.0420  0.7489
   77TIP3    H1  195   2.107   0.258   2.186  1.6592  1.0383 -0.0853
   77TIP3    H2  196   2.217   0.167   2.134  0.9992 -0.6832  1.4072
   78TIP3   OH2  197   2.762   1.657   5.517 -0.3309  0.0987 -0.2619
   78TIP3    H1  198   2.672   1.668   5.546 -0.7317 -0.6003 -1.1820
   78TIP3    H2  199   2.770   1.713   5.440 -0.3942 -0.8526 -0.9794
   79TIP3   OH2  200   4.437   3.547   4.895 -0.8055 -0.2026 -0.1437
   79TIP3    H1  201   4.346   3.536   4.923 -0.7974 -0.2698 -0.1422
   79TIP3    H2  202   4.464   3.631   4.932  0.0911 -1.5292  2.4490
   80TIP3   OH2  203   3.152   3.472   3.826 -0.8190  0.5188  0.1748
   80TIP3    H1  204   3.186   3.475   3.737  0.6354 -1.6026  0.5909
   80TIP3    H2  205   3.229   3.473   3.882 -1.7089  2.0019  1.4575
   81TIP3   OH2  206   5.428   1.698   2.520 -0.4329  0.3159  0.1693
   81TIP3    H1  207   5.356   1.685   2.581 -0.9340  0.4513 -0.3868
   81TIP3    H2  208   5.423   1.623   2.460 -0.4758  0.6356 -0.2301
   82TIP3   OH2  209   7.053   2.885   1.443 -0.5978 -0.1503  1.0170
   82TIP3    H1  210   6.986   2.816   1.443  1.0137 -1.9597 -2.4096
   82TIP3    H2  211   7.135   2.839   1.462  0.2637  1.2297  0.7650
   83TIP3   OH2  212   5.146   1.350   2.888  0.0144 -0.0714  0.0310
   83TIP3    H1  213   5.210   1.279   2.888  1.0473  0.7692 -2.3090
   83TIP3    H2  214   5.159   1.395   2.971  1.9629 -0.3475 -0.0969
   84TIP3   OH2  215   1.026   2.078   3.033  0.5309 -0.3320  0.1207
   84TIP3    H1  216   0.954   2.105   2.976  1.5262  1.7722 -0.2474
   84TIP3    H2  217   0.985   2.064   3.119 -0.1871  2.2078  0.2793
   85TIP3   OH2  218   3.794   6.327   1.319 -0.0326  0.7267  0.3584
   85TIP3    H1  219   3.719   6.386   1.315 -0.1202  0.5659 -0.7635
   85TIP3    H2  220   3.756   6.240   1.331 -0.1385  0.4789 -1.4988
   86TIP3   OH2  221   5.805   4.063   1.686  0.4510 -0.4941  0.1667
   86TIP3    H1  222   5.898   4.069   1.707  0.1480 -0.0978  1.4819
   86TIP3    H2  223   5.762   4.046   1.769 -0.6560 -0.7363 -0.4313
   87TIP3   OH2  224   5.750   4.671   2.102  0.4698 -0.3456  0.8917
   87TIP3    H1  225   5.836   4.706   2.125  0.4931  0.9913 -0.9963
   87TIP3    H2  226   5.753   4.580   2.130  3.1178 -0.7906 -0.5566
   88TIP3   OH2  227   5.786   1.013   3.707 -0.4470 -0.0269  0.9229
   88TIP3    H1  228   5.704   0.973   3.735 -1.6590  0.0305 -2.1360
   88TIP3    H2  229   5.825   0.948   3.648  0.1502  1.1611 -0.0501
   89TIP3   OH2  230   1.529   3.640   2.824 -0.8385  0.5992  0.0430
   89TIP3    H1  231   1.465   3.601   2.765  0.9570 -1.0294 -0.9177
   89TIP3    H2  232   1.612   3.638   2.776 -0.0717  2.9871  1.1019
   90TIP3   OH2  233   1.707   0.107   2.572  0.4436  0.5689  0.1341
   90TIP3    H1  234   1.661   0.158   2.639  1.2930  0.9456  0.4358
   90TIP3    H2  235   1.741   0.031   2.619 -0.2818  0.0261 -0.1918
   91TIP3   OH2  236   0.939   3.686   4.878  0.7353  1.1581 -0.1216
   91TIP3    H1  237   0.979   3.705   4.962  1.9117 -0.9664 -0.1325
   91TIP3    H2  238   0.858   3.737   4.878  1.6313  2.6929  1.4563
   92TIP3   OH2  239   5.972   5.341   4.313 -0.6442  0.2420 -0.1931
   92TIP3    H1  240   6.016   5.277   4.370 -0.0826  0.1289 -0.7401
   92TIP3    H2  241   5.942   5.289   4.238 -1.2092  0.4238 -0.0919
   93TIP3   OH2  242   4.156   0.411   3.985 -0.0881 -0.1431  0.1440
   93TIP3    H1  243   4.180   0.377   4.071 -0.8752  0.4489  0.6179
   93TIP3    H2  244   4.070   0.451   3.999  0.3769  1.1581 -0.6011
   94TIP3   OH2  245   4.112   2.308   4.740  0.4447 -0.1585  0.0780
   94TIP3    H1  246   4.198   2.311   4.699  0.5022  0.1402  0.2161
   94TIP3    H2  247   4.079   2.220   4.722 -0.3810  0.5628 -2.2891
   95TIP3   OH2  248   0.962   3.250   1.181 -0.7226  0.6227 -0.0338
   95TIP3    H1  249   0.972   3.208   1.095  2.6130  1.0562  0.0246
   95TIP3    H2  250   0.873   3.227   1.208 -0.0834 -4.3177 -1.0938
   96TIP3   OH2  251   0.160   3.845   0.918 -0.2529  0.0646  0.2938
   96TIP3    H1  252   0.241   3.818   0.962  0.6660 -1.2139 -2.0002
   96TIP3    H2  253   0.178   3.933   0.887  0.3728 -0.2947 -0.3964
   97TIP3   OH2  254   6.486   1.550   2.140 -0.6638  0.1845 -0.3941
   97TIP3    H1  255   6.404   1.501   2.149  0.9889 -2.6619  0.4037
   97TIP3    H2  256   6.523   1.521   2.057  1.3625 -1.7556  1.0625
   98TIP3   OH2  257   6.102   5.520   4.146 -0.0935  0.2830  0.1528
   98TIP3    H1  258   6.181   5.530   4.198 -0.3097  0.0906  0.5257
   98TIP3    H2  259   6.040   5.476   4.205 -0.4296  0.3057 -0.1788
   99TIP3   OH2  260   3.381   1.639   0.979  0.2845 -0.3957 -0.0790
   99TIP3    H1  261   3.321   1.579   1.023 -0.0146  0.3526  0.5637
   99TIP3    H2  262   3.331   1.671   0.903 -0.6673  1.2027  1.1477
  100TIP3   OH2  263   5.398   5.923   4.612 -0.6194 -0.1483 -0.2891
  100TIP3    H1  264   5.341   5.924   4.535  0.5402  0.9990 -1.1772
  100TIP3    H2  265   5.468   5.985   4.591  0.0610 -0.2693  1.4497
  101TIP3   OH2  266   4.853   1.299   0.003  0.0124  0.0329 -0.2492
  101TIP3    H1  267   4.783   1.352   0.043 -0.4803 -0.5028 -0.3844
  101TIP3    H2  268   4.919   1.363  -0.024 -0.4222  0.5510 -0.1091
  102TIP3   OH2  269   6.070   3.714   3.029 -0.0471 -0.5558 -0.0142
  102TIP3    H1  270   6.100   3.627   3.005  0.6016 -0.3175 -0.0812
  102TIP3    H2  271   6.117   3.773   2.970 -1.0202 -0.2073 -0.4586
  103TIP3   OH2  272   1.455   0.415   4.950  0.0438 -0.1424  0.3270
  103TIP3    H1  273   1.401   0.431   5.027 -0.8064  1.7422 -0.6044
  103TIP3    H2  274   1.396   0.425   4.876  1.3057  0.2639 -0.6663
  104TIP3   OH2  275   1.327   3.145   2.462  0.4390  0.1304  0.1954
  104TIP3    H1  276   1.330   3.050   2.468 -2.3590  0.0425  2.0701
  104TIP3    H2  277   1.242   3.164   2.422  1.5215  1.8830 -1.4763
  105TIP3   OH2  278   4.264   2.726   2.841 -0.1251 -0.6017 -0.4106
  105TIP3    H1  279   4.218   2.807   2.862 -0.3163 -0.8606  0.1820
  105TIP3    H2  280   4.280   2.684   2.925  0.1892 -1.0653 -0.6933
  106TIP3   OH2  281   4.924   1.272   4.790  0.2734 -0.4076 -0.5889
  106TIP3    H1  282   4.898   1.339   4.727 -1.5790 -0.0924  0.4716
  106TIP3    H2  283   5.019   1.281   4.796  0.4123  0.1430 -2.6413
  107TIP3   OH2  284   5.104   2.146   4.139 -0.0926  0.5616 -0.2972
  107TIP3    H1  285   5.135   2.236   4.150 -0.4680  0.8601 -1.4885
  107TIP3    H2  286   5.008   2.153   4.135 -0.1095  0.7251 -4.3824
  108TIP3   OH2  287   4.593   3.089   4.772  0.0421 -0.4666 -0.4036
  108TIP3    H1  288   4.550   3.128   4.849 -0.4323  2.0091 -1.8172
  108TIP3    H2  289   4.523   3.044   4.726  0.1842 -1.3428  0.2096
  109TIP3   OH2  290   5.480   5.918   4.296  0.3336  0.2021 -0.4284
  109TIP3    H1  291   5.492   5.989   4.359 -0.0481 -1.3686  1.5238
  109TIP3    H2  292   5.528   5.845   4.335 -0.8441 -1.1282 -1.4196
  110TIP3   OH2  293   6.809   1.420   0.846 -0.0776  0.3644 -0.1564
  110TIP3    H1  294   6.903   1.418   0.863 -0.0687  1.9703  0.1341
  110TIP3    H2  295   6.801   1.468   0.764 -0.5762 -1.0098 -0.9334
  111TIP3   OH2  296   5.367   6.037   2.922 -0.4981 -0.0920  0.0501
  111TIP3    H1  297   5.460   6.049   2.943  0.6056 -1.6765 -3.3170
  111TIP3    H2  298   5.338   5.968   2.981  1.3385 -1.6284 -0.7251
  112TIP3   OH2  299   5.207   6.411   2.199 -0.0197 -0.2545  0.6143
  112TIP3    H1  300   5.294   6.409   2.159 -0.4204  0.8060 -0.3995
  112TIP3    H2  301   5.209   6.344   2.267  0.9307 -1.6531 -0.7465
  113TIP3   OH2  302   1.108   6.327   5.378 -0.0253  0.2026  0.0403
  113TIP3    H1  303   1.032   6.314   5.434 -0.2317 -1.1066 -0.5146
  113TIP3    H2  304   1.126   6.421   5.384 -0.3779  0.1838  1.8323
  114TIP3   OH2  305   5.030   5.453   2.952 -0.8092 -0.5998  0.7602
  114TIP3    H1  306   4.972   5.449   2.876 -1.5269  0.3794  1.2290
  114TIP3    H2  307   5.110   5.494   2.919 -0.6494 -1.2730  0.2787
  115TIP3   OH2  308   4.171   1.271   0.039  0.4863  0.3605  0.5338
  115TIP3    H1  309   4.211   1.347  -0.004  0.6114  0.8806  1.5525
  115TIP3    H2  310   4.132   1.306   0.119 -0.4040 -0.4624  0.4839
  116TIP3   OH2  311   4.716   4.891   0.805  0.6347 -0.3140  0.0671
  116TIP3    H1  312   4.747   4.939   0.728 -2.2567  1.6787 -0.0258
  116TIP3    H2  313   4.743   4.945   0.880  0.2152 -0.2831  0.1974
  117TIP3   OH2  314   5.385   6.200   0.344 -0.0493  0.2451  0.2590
  117TIP3    H1  315   5.343   6.114   0.350  0.4960  0.0619  1.8783
  117TIP3    H2  316   5.432   6.197   0.260 -1.2221 -0.4564 -0.4058
  118TIP3   OH2  317   0.601   5.230   0.684  0.2156  0.2901 -0.1493
  118TIP3    H1  318   0.619   5.198   0.596  0.8694  1.4400 -0.4580
  118TIP3    H2  319   0.597   5.150   0.738 -0.4566 -0.4430 -1.2394
  119TIP3   OH2  320   7.222   3.171   2.106 -0.1994  0.0520  0.0010
  119TIP3    H1  321   7.160   3.243   2.094 -0.0239  0.1233 -0.5239
  119TIP3    H2  322   7.178   3.095   2.067  0.1434  0.1590 -0.6065
  120TIP3   OH2  323   3.360   5.980   5.043  0.3655 -0.3069 -0.2482
  120TIP3    H1  324   3.320   5.902   5.003 -0.9382  0.1948  0.0070
  120TIP3    H2  325   3.422   6.011   4.977 -0.2379 -0.6792 -1.0127
  121TIP3   OH2  326   1.630   0.219   3.785  0.6360 -0.0115 -0.0895
  121TIP3    H1  327   1.604   0.130   3.757 -0.6042  0.8065 -1.7516
  121TIP3    H2  328   1.578   0.277   3.729  1.1587  1.7806  1.2100
  122TIP3   OH2  329   3.998   4.671   4.728 -0.5189 -0.3462  0.4157
  122TIP3    H1  330   4.002   4.750   4.674  1.3503 -0.6186  0.1159
  122TIP3    H2  331   3.927   4.619   4.690  0.4804 -0.3548 -1.5440
  123TIP3   OH2  332   6.519   3.625   0.335  0.3736 -0.0907 -0.3577
  123TIP3    H1  333   6.455   3.689   0.303  0.2174 -0.2802 -0.4221
  123TIP3    H2  334   6.604   3.661   0.307  0.4661  1.1051  1.3062
  124TIP3   OH2  335   1.839   5.862   3.085 -0.5346 -0.3853  0.0075
  124TIP3    H1  336   1.929   5.890   3.100 -0.4411  0.6841 -2.1867
  124TIP3    H2  337   1.841   5.767   3.099  0.7289 -0.2760  0.7736
  125TIP3   OH2  338   4.256   5.205   4.850 -0.0526  0.1795  0.1728
  125TIP3    H1  339   4.208   5.122   4.860 -0.2966  0.3352  0.3216
  125TIP3    H2  340   4.341   5.189   4.891  0.3544 -0.3766 -0.8617
  126TIP3   OH2  341   1.996   6.731   4.307  0.1859  0.0718 -0.2297
  126TIP3    H1  342   1.905   6.718   4.279 -0.5671 -0.8051  2.2568
  126TIP3    H2  343   2.046   6.668   4.256 -0.9936 -1.0803 -0.0273
  127TIP3   OH2  344   0.300   6.711   3.890 -0.2874 -0.0908 -0.3408
  127TIP3    H1  345   0.205   6.720   3.895 -0.4631 -0.6116 -2.0346
  127TIP3    H2  346   0.326   6.768   3.817  0.8465  0.8703  0.7774
  128TIP3   OH2  347   5.037   0.108   4.307 -0.6039 -0.1917 -0.7251
  128TIP3    H1  348   5.093   0.086   4.232  1.7200  1.3759  0.4129
  128TIP3    H2  349   5.093   0.094   4.384 -2.7916 -1.3978  0.7476
  129TIP3   OH2  350   6.199   4.708   3.662  0.5332  0.0678 -0.1728
  129TIP3    H1  351   6.200   4.802   3.681  2.0367  0.2081 -0.8241
  129TIP3    H2  352   6.201   4.702   3.567 -1.3744 -0.6515 -0.2152
  130TIP3   OH2  353   5.446   1.384   3.655  0.3812 -0.1580 -0.4194
  130TIP3    H1  354   5.534   1.347   3.650  1.4059  2.0974 -0.4802
  130TIP3    H2  355   5.440   1.441   3.578 -0.8225  0.3614  0.0308
  131TIP3   OH2  356   1.166   1.267   5.534  0.6498  0.3741 -0.1473
  131TIP3    H1  357   1.126   1.315   5.606 -1.1387  2.0427 -2.1427
  131TIP3    H2  358   1.179   1.332   5.465  2.6303 -1.0748 -1.2679
  132TIP3   OH2  359   0.775   2.534   4.889  0.6218 -0.1105  0.4845
  132TIP3    H1  360   0.780   2.508   4.797 -0.2420  0.3813  0.2809
  132TIP3    H2  361   0.688   2.506   4.917  1.0001 -0.5511  1.2566
  133TIP3   OH2  362   5.817   2.305   2.034 -0.3886  0.4280  0.0410
  133TIP3    H1  363   5.759   2.304   2.110 -2.2298 -0.0495 -1.3066
  133TIP3    H2  364   5.758   2.295   1.959  1.4469 -0.0265 -1.4031
  134TIP3   OH2  365   5.361   3.793   0.186  0.1235 -0.2727 -0.6143
  134TIP3    H1  366   5.278   3.839   0.196 -0.5210 -1.2676 -1.1904
  134TIP3    H2  367   5.347   3.708   0.227  0.9413 -0.3542 -0.4915
  135TIP3   OH2  368   4.194   0.508   3.712  0.1253  0.4828 -0.4722
  135TIP3    H1  369   4.221   0.474   3.797 -0.3290  0.0122 -0.5107
  135TIP3    H2  370   4.233   0.595   3.708  1.6298 -0.1567 -0.5246
  136TIP3   OH2  371   6.696   0.179   3.143  0.4077  0.7889 -0.1161
  136TIP3    H1  372   6.731   0.129   3.070  0.9416  0.9857  0.0004
  136TIP3    H2  373   6.734   0.267   3.133  2.3093  0.2556  1.6082
  137TIP3   OH2  374   1.959   3.912   3.407 -0.2981  0.0658 -0.4812
  137TIP3    H1  375   1.995   3.891   3.321  0.9610 -0.1113  0.0682
  137TIP3    H2  376   1.897   3.841   3.426 -1.2682  0.5698 -1.6011
  138TIP3   OH2  377   3.010   1.773   0.666  0.0557 -0.4387  0.1543
  138TIP3    H1  378   2.977   1.816   0.587 -1.1925 -1.3862  0.1146
  138TIP3    H2  379   2.967   1.820   0.738  1.5702  0.7426  0.3306
  139TIP3   OH2  380   4.680   6.359   3.907  0.5399 -0.8279  0.3810
  139TIP3    H1  381   4.623   6.435   3.894 -1.4120 -2.3412 -0.5131
  139TIP3    H2  382   4.729   6.379   3.986 -1.9305  0.2286  1.7845
  140TIP3   OH2  383   6.429   0.124   0.154 -0.3656  0.4887 -0.2062
  140TIP3    H1  384   6.439   0.042   0.106  0.0825  0.2624  0.2669
  140TIP3    H2  385   6.519   0.154   0.170 -0.4018 -0.4272  2.1652
  141TIP3   OH2  386   5.772   4.859   1.591 -0.3820  0.3419 -0.3355
  141TIP3    H1  387   5.748   4.805   1.666  1.4703  0.0491  0.1027
  141TIP3    H2  388   5.852   4.903   1.618 -0.0271  0.7359 -1.9141
  142TIP3   OH2  389   6.790   0.830  -0.002  0.0295 -0.5307  0.4549
  142TIP3    H1  390   6.804   0.894   0.068  1.7044 -0.2317 -0.1034
  142TIP3    H2  391   6.704   0.793   0.016  0.1887 -0.0685  2.3509
  143TIP3   OH2  392   6.480   4.741   1.644 -0.2847 -0.2842 -0.2437
  143TIP3    H1  393   6.491   4.719   1.551  0.9079  0.3805 -0.2776
  143TIP3    H2  394   6.397   4.790   1.647 -0.4466 -0.5097 -0.9213
  144TIP3   OH2  395   1.688   1.475   5.021 -0.0548  0.1901  0.5690
  144TIP3    H1  396   1.780   1.488   4.998  0.2394  0.0610  1.6058
  144TIP3    H2  397   1.677   1.380   5.024 -0.4337  0.1948 -0.3063
  145TIP3   OH2  398   1.526   4.778   0.570 -0.3040 -0.1042 -0.6460
  145TIP3    H1  399   1.444   4.734   0.592  0.0875 -0.8961 -0.7330
  145TIP3    H2  400   1.581   4.766   0.647 -0.7540  1.6714 -0.0115
  146TIP3   OH2  401   2.731   1.687   0.539  0.8450 -0.3213  0.4579
  146TIP3    H1  402   2.738   1.691   0.634 -0.0202  0.4972  0.5040
  146TIP3    H2  403   2.763   1.772   0.509 -0.0122 -0.1019  0.1146
  147TIP3   OH2  404   5.999   2.906   1.055  0.1074 -0.0483  0.2057
  147TIP3    H1  405   5.961   2.840   1.113 -3.8712  1.6916 -0.1302
  147TIP3    H2  406   6.032   2.973   1.114  0.1662 -0.3293  0.4949
  148TIP3   OH2  407   0.095   0.597   3.518  0.9215 -0.3394  0.3651
  148TIP3    H1  408   0.014   0.547   3.531 -0.8158  2.2625  0.2550
  148TIP3    H2  409   0.066   0.681   3.482  3.7276  0.5965  0.0426
  149TIP3   OH2  410   5.933   2.005   3.499  0.3694 -0.3433 -0.3137
  149TIP3    H1  411   5.991   2.056   3.555 -0.4002  0.7652 -0.4989
  149TIP3    H2  412   5.845   2.032   3.524  0.0033  0.6463 -2.4554
  150TIP3   OH2  413   4.644   1.289   3.592  0.5412 -0.8134  0.3424
  150TIP3    H1  414   4.646   1.363   3.532  2.1310 -0.2188  1.0652
  150TIP3    H2  415   4.669   1.326   3.677 -1.3787 -1.6755  1.3410
  151TIP3   OH2  416   6.963   2.294   2.242  0.1552 -0.4764  0.1691
  151TIP3    H1  417   6.884   2.295   2.188 -0.0265 -0.5550  0.4285
  151TIP3    H2  418   7.006   2.378   2.224  0.0032 -0.4260  0.0406
  152TIP3   OH2  419   0.737   0.013   0.406  0.2739  0.2507  0.5065
  152TIP3    H1  420   0.682   0.081   0.444  1.0888  0.6538  1.0177
  152TIP3    H2  421   0.826   0.035   0.436  1.0407  0.7991 -1.9172
  153TIP3   OH2  422   5.114   0.606   1.564  0.3276  0.9129  0.4061
  153TIP3    H1  423   5.092   0.690   1.604 -1.6663  0.2531  0.8075
  153TIP3    H2  424   5.151   0.555   1.636  1.2870  1.3461  0.2266
  154TIP3   OH2  425   4.624   0.119   1.518 -0.2811  0.0749 -0.0038
  154TIP3    H1  426   4.704   0.112   1.467 -0.3616 -0.3447 -0.0758
  154TIP3    H2  427   4.651   0.157   1.602  0.4450 -2.3943  0.9816
  155TIP3   OH2  428   1.671   6.205   1.077  0.3553 -0.3425 -0.5505
  155TIP3    H1  429   1.655   6.261   1.002 -0.5933  0.8468  0.5049
  155TIP3    H2  430   1.766   6.210   1.092  0.0614  2.9562  0.9615
  156TIP3   OH2  431   0.164   4.453   4.720 -0.1424 -0.7091  0.5401
  156TIP3    H1  432   0.108   4.450   4.642  0.5850  0.2249 -0.0267
  156TIP3    H2  433   0.244   4.407   4.694 -0.3536 -1.4519  1.1400
  157TIP3   OH2  434   2.644   3.751   3.194 -0.2393 -0.4316 -0.4920
  157TIP3    H1  435   2.592   3.689   3.245 -1.1351  0.3739 -0.3921
  157TIP3    H2  436   2.706   3.697   3.146 -0.3856 -1.3230  0.2995
  158TIP3   OH2  437   6.887   5.303   0.894 -0.2183  0.2180 -0.1951
  158TIP3    H1  438   6.951   5.245   0.936  1.0190  0.3080 -1.8720
  158TIP3    H2  439   6.805   5.286   0.941  0.8675 -0.3988  1.5572
  159TIP3   OH2  440   5.373   0.354   0.475 -0.1303 -0.2118  0.2438
  159TIP3    H1  441   5.439   0.395   0.530 -0.2304 -1.2555  1.1860
  159TIP3    H2  442   5.324   0.298   0.535 -0.0317 -1.6451 -0.9617
  160TIP3   OH2  443   0.790   4.179   2.165 -0.0971 -0.1962  0.5633
  160TIP3    H1  444   0.799   4.262   2.212  0.6085 -0.5888  1.1408
  160TIP3    H2  445   0.861   4.181   2.100 -1.1440  0.4013 -0.5969
  161TIP3   OH2  446   1.530   3.747   1.929 -0.0630  0.0201  0.6542
  161TIP3    H1  447   1.587   3.679   1.892  0.1274  1.2928 -1.5231
  161TIP3    H2  448   1.462   3.760   1.863  0.9065  3.1823  0.1230
  162TIP3   OH2  449   3.497   2.402   5.387  0.2572 -0.1462  0.3969
  162TIP3    H1  450   3.510   2.496   5.395  1.9126 -0.3395  0.3431
  162TIP3    H2  451   3.519   2.383   5.295  0.6413 -0.6848  0.5977
  163TIP3   OH2  452   2.047   3.227   0.324 -0.1200  0.0190  0.0384
  163TIP3    H1  453   1.999   3.262   0.399 -0.9313  0.1654 -0.5298
  163TIP3    H2  454   2.131   3.274   0.325  1.1095 -2.0091  2.4999
  164TIP3   OH2  455   3.663   6.325   4.202  0.0355  0.1633  0.6578
  164TIP3    H1  456   3.662   6.407   4.153  1.8577  1.0758  2.0104
  164TIP3    H2  457   3.681   6.351   4.292 -0.5206 -1.6483  1.3490
  165TIP3   OH2  458   3.306   0.849   1.860 -0.1294 -0.3942  0.4243
  165TIP3    H1  459   3.273   0.874   1.774 -1.5922 -0.0510  1.0641
  165TIP3    H2  460   3.315   0.931   1.908  0.3605 -0.6121  0.7161
  166TIP3   OH2  461   6.000   6.789   2.408  0.0752  0.0077  0.3485
  166TIP3    H1  462   6.000   6.694   2.396 -0.8655  0.2487 -2.2031
  166TIP3    H2  463   5.909   6.815   2.397  0.4481  1.2766  0.0537
  167TIP3   OH2  464   5.616   4.136   3.129 -0.2959  0.3339  0.3652
  167TIP3    H1  465   5.710   4.138   3.145 -0.1301 -0.2996 -0.4219
  167TIP3    H2  466   5.605   4.181   3.045 -0.8980  1.8336  1.2037
  168TIP3   OH2  467   6.266   2.046   2.427  0.7398 -0.1329  0.3767
  168TIP3    H1  468   6.238   2.105   2.497 -3.2394 -2.1060  0.7493
  168TIP3    H2  469   6.203   2.061   2.357  2.6985 -0.5103 -1.5868
  169TIP3   OH2  470   1.001   0.997   4.982 -0.0029 -0.0562 -0.3971
  169TIP3    H1  471   0.926   0.969   5.034 -0.8175  0.7913 -1.0787
  169TIP3    H2  472   0.966   1.010   4.894  0.8020  0.9132 -0.5954
  170TIP3   OH2  473   0.356   3.317   5.039 -0.0304  0.2996 -1.0717
  170TIP3    H1  474   0.327   3.397   5.083 -0.2899  1.0423 -2.5361
  170TIP3    H2  475   0.446   3.336   5.013  1.2159 -1.2409  1.6591
  171TIP3   OH2  476   7.028   3.877   3.092  0.3212 -0.0502 -0.3678
  171TIP3    H1  477   6.989   3.838   3.170 -0.0999  0.4891 -0.3044
  171TIP3    H2  478   7.094   3.938   3.125  1.1950 -0.9096 -0.4742
  172TIP3   OH2  479   5.005   0.281   0.072 -0.1720 -0.2746  0.2323
  172TIP3    H1  480   5.072   0.255   0.136 -0.6337  4.1108  2.9548
  172TIP3    H2  481   4.928   0.231   0.096  0.7673 -1.7477  0.3033
  173TIP3   OH2  482   4.890   1.386   2.773  0.3706 -0.4887 -0.3906
  173TIP3    H1  483   4.976   1.366   2.810  0.8012  0.1838 -0.9869
  173TIP3    H2  484   4.881   1.481   2.784  0.5072 -0.2647 -1.9470
  174TIP3   OH2  485   4.579   2.991   3.679  0.5868  0.5534  0.9473
  174TIP3    H1  486   4.574   3.085   3.662 -0.5688  0.3387 -0.0137
  174TIP3    H2  487   4.619   2.985   3.765 -0.1710  1.9633  1.4376
  175TIP3   OH2  488   1.955   3.321   4.189  0.1339  0.2388 -0.2734
  175TIP3    H1  489   2.006   3.320   4.108 -0.8478 -0.1676 -0.9039
  175TIP3    H2  490   1.915   3.408   4.191  0.3865  0.3505 -0.0783
  176TIP3   OH2  491   6.803   1.237   2.934  0.3666  0.0329 -0.3862
  176TIP3    H1  492   6.740   1.187   2.882 -0.1587  0.0526  0.2157
  176TIP3    H2  493   6.772   1.327   2.928  0.3169  0.0372 -0.0525
  177TIP3   OH2  494   3.273   6.180   2.097 -0.2581 -0.2368 -0.3618
  177TIP3    H1  495   3.322   6.140   2.025 -1.3561 -1.6370 -0.3779
  177TIP3    H2  496   3.300   6.129   2.174  0.3834  0.8023  0.1285
  178TIP3   OH2  497   3.927   3.510   0.090  0.9211 -0.1006 -0.2959
  178TIP3    H1  498   3.969   3.424   0.090  0.7344 -0.1922 -0.2132
  178TIP3    H2  499   3.856   3.502   0.154 -0.8479 -0.7506 -2.2203
  179TIP3   OH2  500   1.692   2.898   3.285  0.3881 -0.2096  0.0908
  179TIP3    H1  501   1.754   2.898   3.212  1.2565  0.8626  0.7996
  179TIP3    H2  502   1.704   2.812   3.326  2.4636  0.4630  1.0371
  180TIP3   OH2  503   5.898   0.272   2.043 -0.3140  0.1828  0.1331
  180TIP3    H1  504   5.935   0.307   1.962 -0.8587  1.2827  0.3417
  180TIP3    H2  505   5.944   0.318   2.112 -3.2355  2.9969  0.4071
  181TIP3   OH2  506   1.458   0.064   1.089 -0.7385 -0.2920  0.1098
  181TIP3    H1  507   1.400   0.029   1.022 -2.1567 -0.8087  1.5522
  181TIP3    H2  508   1.430   0.155   1.099  0.3823  0.2012 -0.9055
  182TIP3   OH2  509   6.813   5.153   1.379  0.0681 -0.1240 -0.4288
  182TIP3    H1  510   6.857   5.236   1.365  0.3837 -0.4805 -1.6455
  182TIP3    H2  511   6.861   5.090   1.325 -0.3070 -1.0541  0.2792
  183TIP3   OH2  512   2.429   4.686   5.136 -0.4944 -0.3806 -0.3111
  183TIP3    H1  513   2.355   4.746   5.146 -1.5364 -1.0539 -3.0306
  183TIP3    H2  514   2.485   4.727   5.070 -1.0269 -2.1005 -1.9293
  184TIP3   OH2  515   2.722   0.088   0.901 -0.0669 -0.6455 -0.0806
  184TIP3    H1  516   2.768   0.165   0.936 -0.4043 -0.1610 -0.6926
  184TIP3    H2  517   2.661   0.123   0.837 -2.0435 -1.1548  1.4201
  185TIP3   OH2  518   1.784   3.797   1.597 -0.2025  0.3277 -0.2682
  185TIP3    H1  519   1.779   3.725   1.660 -4.4936 -0.4949 -1.2435
  185TIP3    H2  520   1.822   3.757   1.519 -2.1332 -0.9018 -0.6502
  186TIP3   OH2  521   0.366   2.554   3.407  0.6963 -0.2798  0.3416
  186TIP3    H1  522   0.460   2.570   3.410  0.5500  0.9276 -0.6142
  186TIP3    H2  523   0.343   2.561   3.314 -0.3625 -0.3474  0.5799
  187TIP3   OH2  524   1.977   4.263   1.875 -0.1669 -0.6221 -0.0898
  187TIP3    H1  525   1.983   4.308   1.791  0.5915  2.0954  1.3087
  187TIP3    H2  526   1.891   4.288   1.909 -1.3292 -3.2999 -0.7911
  188TIP3   OH2  527   4.475   4.953   5.485 -0.4002 -0.0417 -0.1140
  188TIP3    H1  528   4.511   4.900   5.414  0.3462  0.4158 -0.0804
  188TIP3    H2  529   4.547   4.966   5.546 -1.1628 -0.8569  1.0038
  189TIP3   OH2  530   5.718   4.538   5.687 -0.1272 -0.6163  0.3240
  189TIP3    H1  531   5.767   4.520   5.767  1.2949 -1.1761 -0.6266
  189TIP3    H2  532   5.742   4.628   5.664  0.5039 -0.9063 -0.1667
  190TIP3   OH2  533   0.783   4.089   0.109  0.0712  0.2449  0.2861
  190TIP3    H1  534   0.741   4.028   0.049 -3.0885  1.4989  1.0310
  190TIP3    H2  535   0.798   4.038   0.188 -0.9771 -0.0242  0.3262
  191TIP3   OH2  536   4.392   1.458   2.239 -0.5443  0.5070 -0.5179
  191TIP3    H1  537   4.366   1.450   2.330  1.7610 -3.7070  0.0373
  191TIP3    H2  538   4.326   1.409   2.190  0.1074 -0.3554 -0.5694
  192TIP3   OH2  539   6.694   1.071   5.629  0.4599 -0.3247 -0.3365
  192TIP3    H1  540   6.670   1.163   5.618 -0.5153 -0.6122 -0.7195
  192TIP3    H2  541   6.751   1.070   5.706 -0.5774  0.4279  0.4757
  193TIP3   OH2  542   4.346   3.292   3.094  0.0620 -0.1481 -0.4355
  193TIP3    H1  543   4.336   3.211   3.045 -1.2943 -1.5223  1.9524
  193TIP3    H2  544   4.258   3.330   3.095 -0.0884 -0.4871  1.4291
  194TIP3   OH2  545   2.514   0.630   1.480  0.0317 -0.4107  0.5026
  194TIP3    H1  546   2.479   0.600   1.396  1.1354 -1.5985  0.4325
  194TIP3    H2  547   2.608   0.638   1.465  0.3691 -1.4764  1.8400
  195TIP3   OH2  548   0.414   5.594   0.767  0.2310 -0.1733 -0.3654
  195TIP3    H1  549   0.388   5.542   0.843 -1.6228 -2.0886 -2.1538
  195TIP3    H2  550   0.396   5.685   0.793  0.8657 -0.6340  1.8835
  196TIP3   OH2  551   4.879   4.100   3.037  0.0347 -0.5888  0.3518
  196TIP3    H1  552   4.960   4.054   3.012  1.0934  1.5460 -0.3506
  196TIP3    H2  553   4.909   4.181   3.079 -1.7636 -0.8537  2.3713
  197TIP3   OH2  554   3.048   4.777   3.941 -0.0869 -0.1724 -0.0530
  197TIP3    H1  555   3.014   4.805   4.026 -0.8650  0.7491 -0.6532
  197TIP3    H2  556   3.136   4.814   3.938 -0.4758  0.7792 -0.1156
  198TIP3   OH2  557   3.537   6.534   4.941  0.1744  0.1718 -0.6400
  198TIP3    H1  558   3.492   6.618   4.929  1.8611  1.4629  1.5076
  198TIP3    H2  559   3.630   6.556   4.939  0.9592 -2.3645 -4.5688
  199TIP3   OH2  560   3.077   0.430   4.189 -0.0072  0.1828 -0.5742
  199TIP3    H1  561   3.033   0.347   4.205  2.9525 -1.5645 -0.6380
  199TIP3    H2  562   3.012   0.497   4.208 -1.9621 -2.1040  1.3460
  200TIP3   OH2  563   3.952   4.986   3.546 -0.0453 -0.3206  0.5006
  200TIP3    H1  564   4.011   4.959   3.476 -0.0984 -0.2291  0.4205
  200TIP3    H2  565   3.913   5.067   3.514  0.0130 -0.2194  0.6832
  201TIP3   OH2  566   3.929   4.737   2.698 -0.2833  0.4309  0.3634
  201TIP3    H1  567   3.918   4.795   2.623  1.1707  0.6514  0.2855
  201TIP3    H2  568   3.883   4.657   2.673 -1.2528  1.0939 -0.0411
  202TIP3   OH2  569   3.694   2.062   4.431  0.8120  0.2597  0.1771
  202TIP3    H1  570   3.684   2.069   4.336 -0.9895  0.1437  0.3283
  202TIP3    H2  571   3.685   1.968   4.449 -0.7243  0.4623  0.6088
  203TIP3   OH2  572   3.961   2.314   1.003  0.1308 -0.4455 -0.9821
  203TIP3    H1  573   3.944   2.232   1.049  0.2883 -0.3705 -0.7931
  203TIP3    H2  574   3.880   2.331   0.955  0.3702 -1.1238 -1.6510
  204TIP3   OH2  575   4.935   6.305   5.629  0.1582 -0.0779 -0.4859
  204TIP3    H1  576   4.844   6.291   5.605  0.1299  0.5695 -0.7666
  204TIP3    H2  577   4.984   6.295   5.548  0.5712 -2.3085 -0.0247
  205TIP3   OH2  578   3.218   3.304   2.848 -0.0931 -0.1338  0.6281
  205TIP3    H1  579   3.285   3.325   2.913  1.2223 -1.3650 -0.2689
  205TIP3    H2  580   3.242   3.357   2.771 -0.8395  0.2963  0.6884
  206TIP3   OH2  581   2.648   0.035   3.507 -0.2320  0.3833  0.0452
  206TIP3    H1  582   2.629   0.121   3.470  0.3333  0.3884 -0.2428
  206TIP3    H2  583   2.714   0.051   3.574 -0.8161  0.2927  0.6500
  207TIP3   OH2  584   6.622   5.265   5.453  0.2507  0.1915 -0.1098
  207TIP3    H1  585   6.559   5.241   5.521  0.1024 -0.7169 -0.5528
  207TIP3    H2  586   6.618   5.361   5.449 -0.4946  0.1882  0.4440
  208TIP3   OH2  587   3.482   6.645   2.299  0.7293 -0.4450 -0.1216
  208TIP3    H1  588   3.452   6.720   2.350  2.7254 -0.3917  1.0611
  208TIP3    H2  589   3.512   6.683   2.216 -1.2056 -0.3671 -0.8413
  209TIP3   OH2  590   0.141   3.447   2.491 -1.0731 -0.8033  0.0333
  209TIP3    H1  591   0.090   3.381   2.445 -0.6547 -2.0259  1.2528
  209TIP3    H2  592   0.188   3.398   2.558  0.7364  0.4553 -0.2392
  210TIP3   OH2  593   6.787   3.826   5.683  0.4821 -0.1065  0.0998
  210TIP3    H1  594   6.831   3.888   5.741  0.3241  0.4154 -0.3390
  210TIP3    H2  595   6.694   3.841   5.697  0.4351  0.8568 -1.1649
  211TIP3   OH2  596   5.615   4.584   0.206 -0.2648 -0.2616 -0.0243
  211TIP3    H1  597   5.639   4.567   0.115  1.6778 -1.0049  0.5702
  211TIP3    H2  598   5.525   4.552   0.214 -0.4422 -0.2284 -1.6569
  212TIP3   OH2  599   2.787   2.338   3.194  0.6620 -0.1161  0.2503
  212TIP3    H1  600   2.857   2.283   3.230 -0.0625 -0.9477  0.4197
  212TIP3    H2  601   2.708   2.285   3.205  0.2370  0.1376 -1.4281
  213TIP3   OH2  602   5.842   3.055   1.478 -0.4156  0.2243 -0.0137
  213TIP3    H1  603   5.928   3.062   1.437  0.1957 -0.0880  1.1718
  213TIP3    H2  604   5.849   3.106   1.559 -1.1478 -0.3169  0.4051
  214TIP3   OH2  605   0.709   0.941   5.388  0.2194  0.7304 -0.4389
  214TIP3    H1  606   0.695   0.927   5.482 -0.0639  0.1656 -0.5630
  214TIP3    H2  607   0.796   0.981   5.383 -0.4207  2.3175  0.1859
  215TIP3   OH2  608   2.961   1.808   1.568 -0.9034  0.5281 -0.4219
  215TIP3    H1  609   2.869   1.832   1.578 -1.3676 -0.7649 -1.2813
  215TIP3    H2  610   2.961   1.713   1.566  0.5025  0.5003 -0.1510
  216TIP3   OH2  611   4.337   6.281   5.843 -0.0456  0.3594  0.1777
  216TIP3    H1  612   4.388   6.346   5.892  0.0105 -0.4634  1.2321
  216TIP3    H2  613   4.246   6.299   5.868 -0.2439  1.3584 -1.1459
  217TIP3   OH2  614   0.394   0.980   3.081 -0.4279 -0.0823  0.5837
  217TIP3    H1  615   0.452   0.903   3.087 -0.4756 -0.2221 -0.5323
  217TIP3    H2  616   0.453   1.055   3.092 -0.6059 -0.2304  3.4733
  218TIP3   OH2  617   6.019   5.240   3.138  0.4596  0.9109 -0.1410
  218TIP3    H1  618   6.052   5.156   3.168 -2.6589 -0.9011 -1.2917
  218TIP3    H2  619   5.998   5.287   3.219  1.5810  0.3315  0.5171
  219TIP3   OH2  620   0.249   5.109   5.459 -0.2020  0.4775  0.3452
  219TIP3    H1  621   0.280   5.048   5.392 -0.9738  0.3294  0.1083
  219TIP3    H2  622   0.291   5.192   5.437  1.3932 -0.0898  1.0672
  220TIP3   OH2  623   4.052   4.067   4.064 -0.0771 -0.4772 -0.6225
  220TIP3    H1  624   4.112   4.082   3.991 -0.4864 -0.3905 -0.9462
  220TIP3    H2  625   3.965   4.071   4.024 -0.2899 -0.8043 -0.1948
  221TIP3   OH2  626   2.821   6.728   0.325  0.3349  0.0907 -0.3980
  221TIP3    H1  627   2.872   6.669   0.269 -0.0591 -0.8023  0.1672
  221TIP3    H2  628   2.734   6.688   0.328  0.2822  0.2752  0.6419
  222TIP3   OH2  629   3.578   6.646   3.203 -0.1518  0.0059  0.1060
  222TIP3    H1  630   3.638   6.703   3.251  0.0540 -0.6134  0.6020
  222TIP3    H2  631   3.511   6.622   3.268 -0.6538  0.2817 -0.3016
  223TIP3   OH2  632   4.257   6.737   1.376  0.3446 -0.0187  0.1535
  223TIP3    H1  633   4.337   6.743   1.323  0.6540 -1.5425  0.3918
  223TIP3    H2  634   4.191   6.786   1.326  1.4515  1.3865  0.0332
  224TIP3   OH2  635   4.733   1.018   0.705  0.4166 -0.5509  0.3243
  224TIP3    H1  636   4.669   1.065   0.758  0.4106  0.7753 -0.7968
  224TIP3    H2  637   4.773   0.955   0.765 -0.8060 -0.3143  1.4348
  225TIP3   OH2  638   0.342   1.010   2.135  0.2395  0.3010  0.4059
  225TIP3    H1  639   0.294   1.093   2.138  0.1331  0.2166  1.1038
  225TIP3    H2  640   0.429   1.030   2.170 -0.2953 -0.2082  2.1512
  226TIP3   OH2  641   5.168   2.426   5.456 -0.2564 -0.1520 -0.8829
  226TIP3    H1  642   5.141   2.358   5.394 -1.0332  0.8614 -1.6923
  226TIP3    H2  643   5.091   2.483   5.464  0.4425  0.7415 -0.3781
  227TIP3   OH2  644   3.747   3.172   3.948 -0.0998  0.4861 -0.6363
  227TIP3    H1  645   3.672   3.120   3.977  0.1233  0.7227  0.4256
  227TIP3    H2  646   3.759   3.149   3.856  0.1668 -1.5576 -0.1363
  228TIP3   OH2  647   4.131   5.502   5.088  0.0697  0.1554 -0.6011
  228TIP3    H1  648   4.215   5.547   5.102  0.1282  0.2019 -1.0692
  228TIP3    H2  649   4.151   5.410   5.103 -0.0141  0.2619  0.2065
  229TIP3   OH2  650   1.570   1.613   0.089  0.3417 -0.4853  0.2440
  229TIP3    H1  651   1.573   1.651   0.001  0.1113 -1.7379 -0.3230
  229TIP3    H2  652   1.590   1.520   0.076  1.8573 -0.3971  1.7134
  230TIP3   OH2  653   3.705   6.109   0.159 -0.2650 -0.7839 -0.1287
  230TIP3    H1  654   3.741   6.051   0.092  2.2123 -0.5218  0.8591
  230TIP3    H2  655   3.692   6.193   0.114  1.7898 -0.4822 -0.2440
  231TIP3   OH2  656   2.832   0.176   5.059 -0.2122 -0.0456 -0.6199
  231TIP3    H1  657   2.789   0.171   4.974 -2.1620 -0.6262  0.3349
  231TIP3    H2  658   2.848   0.270   5.073 -0.6602  0.1299 -1.2558
  232TIP3   OH2  659   2.810   1.995   2.325  0.2003 -0.0473 -0.1793
  232TIP3    H1  660   2.791   2.074   2.378 -0.2985  1.1153 -2.0049
  232TIP3    H2  661   2.727   1.948   2.322  0.2204 -0.0980  0.0365
  233TIP3   OH2  662   1.420   1.926   4.639 -0.0687 -0.2315  0.4067
  233TIP3    H1  663   1.352   1.892   4.581  0.1787 -0.7547  0.4156
  233TIP3    H2  664   1.500   1.923   4.587  0.4750 -2.2510  1.2593
  234TIP3   OH2  665   2.488   1.748   1.733  0.8321 -0.2078 -0.1002
  234TIP3    H1  666   2.462   1.657   1.721  1.1887 -0.1718 -1.3151
  234TIP3    H2  667   2.526   1.773   1.648  0.9787  0.9870  0.3023
  235TIP3   OH2  668   5.102   4.418   2.791 -0.1609 -0.0919  0.4313
  235TIP3    H1  669   5.074   4.493   2.843 -0.7253  0.3356 -0.4670
  235TIP3    H2  670   5.183   4.448   2.748 -0.4178  0.0336  0.0271
  236TIP3   OH2  671   3.174   4.408   4.942  0.4226 -0.0851  0.5681
  236TIP3    H1  672   3.096   4.459   4.963  0.1961  0.2081 -0.9390
  236TIP3    H2  673   3.188   4.422   4.849  1.1543 -1.6819  0.4102
  237TIP3   OH2  674   0.418   0.729   1.493  0.0480 -0.1464 -0.2138
  237TIP3    H1  675   0.387   0.686   1.413 -1.9391  0.2237  0.3063
  237TIP3    H2  676   0.360   0.697   1.562  1.1038  0.2947  0.9080
  238TIP3   OH2  677   0.429   5.010   4.044  0.0333 -0.2534  0.6793
  238TIP3    H1  678   0.497   4.996   4.110  1.9461  1.1680 -0.8805
  238TIP3    H2  679   0.453   5.092   4.001 -2.8894  0.4909  0.2487
  239TIP3   OH2  680   1.384   4.949   5.101  0.2657  0.2315 -0.0169
  239TIP3    H1  681   1.390   4.888   5.174  0.9371 -1.0572 -1.0992
  239TIP3    H2  682   1.454   5.013   5.118 -0.1901  0.4991  0.9260
  240TIP3   OH2  683  -0.023   4.526   1.598  0.5477 -0.1816  0.2641
  240TIP3    H1  684   0.030   4.495   1.671  2.0514  0.2551 -0.5893
  240TIP3    H2  685   0.026   4.501   1.520  0.3604  1.6929 -0.5216
  241TIP3   OH2  686   1.685   5.850   0.976 -0.3358 -0.3889  0.2314
  241TIP3    H1  687   1.601   5.874   1.015  0.3778  0.6599  1.1695
  241TIP3    H2  688   1.728   5.934   0.958  0.1738 -0.8979 -1.0071
  242TIP3   OH2  689   6.119   3.019   1.863 -0.4059 -0.4766  0.0699
  242TIP3    H1  690   6.070   3.016   1.945  0.2380 -1.8823  0.4249
  242TIP3    H2  691   6.187   3.084   1.879  0.6777 -1.8450  1.2359
  243TIP3   OH2  692   5.849   5.003   0.538  0.0359 -0.0557 -0.4533
  243TIP3    H1  693   5.878   5.093   0.529  0.6523 -0.0201  1.3328
  243TIP3    H2  694   5.766   4.998   0.492  1.0064  0.8545 -2.4011
  244TIP3   OH2  695   1.999   2.310   2.239  0.0171 -0.5664 -0.4593
  244TIP3    H1  696   2.070   2.252   2.215  0.8924  0.6628 -0.9258
  244TIP3    H2  697   1.919   2.261   2.218  0.7126 -1.8083 -0.2755
  245TIP3   OH2  698   4.459   5.570   2.261  0.3384 -0.1497  0.0321
  245TIP3    H1  699   4.396   5.584   2.190  1.0190  2.1366 -0.1960
  245TIP3    H2  700   4.524   5.639   2.250  1.5073 -0.8912  1.7784
  246TIP3   OH2  701   7.222   2.478   2.425 -0.0935  0.0851 -0.1590
  246TIP3    H1  702   7.206   2.559   2.472 -0.2179 -0.4449  0.7438
  246TIP3    H2  703   7.159   2.478   2.353 -0.3552  0.6018  0.0671
  247TIP3   OH2  704   7.024   5.807   2.281  0.4338  0.4014  0.7246
  247TIP3    H1  705   7.058   5.829   2.194  0.3061  0.7136  0.7531
  247TIP3    H2  706   7.014   5.891   2.325 -2.9898  0.6644 -0.2375
  248TIP3   OH2  707   3.587   0.237   4.036 -0.0492  0.4816 -0.2302
  248TIP3    H1  708   3.531   0.186   3.977  1.4682 -0.5499 -0.8286
  248TIP3    H2  709   3.562   0.209   4.124  0.3213 -0.8676 -0.5277
  249TIP3   OH2  710   3.231   4.155   0.745  0.3747  0.5033 -0.5397
  249TIP3    H1  711   3.224   4.063   0.720  1.0537 -0.4091  2.2564
  249TIP3    H2  712   3.310   4.159   0.799 -0.6802  2.3309  0.9801
  250TIP3   OH2  713   5.894   0.599   0.238 -0.1818  0.4872  0.2912
  250TIP3    H1  714   5.886   0.688   0.204 -0.2644  0.4398  0.1867
  250TIP3    H2  715   5.856   0.543   0.170  0.7526  0.2855 -0.0902
  251TIP3   OH2  716   4.932   3.821   3.784 -0.1359  0.1230  0.1012
  251TIP3    H1  717   4.969   3.866   3.709 -0.5215 -0.8683 -0.7052
  251TIP3    H2  718   4.983   3.852   3.859  1.6419 -0.4193 -0.8282
  252TIP3   OH2  719   4.683   2.269   0.837  0.1051  0.0822  0.6991
  252TIP3    H1  720   4.730   2.237   0.759  0.3331  0.2869  0.7520
  252TIP3    H2  721   4.718   2.216   0.909 -0.8751 -0.8514  0.5110
  253TIP3   OH2  722   4.115   4.094   2.440 -0.2902  0.1626  0.8113
  253TIP3    H1  723   4.100   4.005   2.473  0.6554 -0.4362 -0.2697
  253TIP3    H2  724   4.162   4.139   2.510  0.9029 -0.8049  0.6797
  254TIP3   OH2  725   1.580   1.511   1.894 -0.3589 -0.2585 -0.3503
  254TIP3    H1  726   1.606   1.438   1.951 -0.7181 -0.4646 -0.4486
  254TIP3    H2  727   1.658   1.530   1.842 -0.2000 -0.4323 -0.1793
  255TIP3   OH2  728   1.872   4.688   0.706 -0.0466 -0.5799  0.4472
  255TIP3    H1  729   1.935   4.761   0.699 -0.5110 -0.3106 -1.0921
  255TIP3    H2  730   1.815   4.713   0.779 -1.5080  1.6832 -1.3314
  256TIP3   OH2  731   3.549   4.182   1.123  0.5110 -0.1089  0.1377
  256TIP3    H1  732   3.517   4.170   1.212 -1.5032 -1.3190 -0.7052
  256TIP3    H2  733   3.569   4.276   1.117 -2.0658  0.5556  1.0180
  257TIP3   OH2  734   6.342   1.429   0.087 -0.4544 -0.2324  0.4211
  257TIP3    H1  735   6.385   1.442   0.002  0.5151 -1.1749  0.7563
  257TIP3    H2  736   6.374   1.501   0.141  0.2143 -0.5653  0.4744
  258TIP3   OH2  737   6.566   0.226   0.711 -0.0998  0.3303 -0.0132
  258TIP3    H1  738   6.618   0.253   0.636 -1.2532 -1.4819 -1.5802
  258TIP3    H2  739   6.505   0.298   0.727  0.2340  0.7797 -0.7565
  259TIP3   OH2  740   6.270   4.599   2.874  0.2880  0.4626 -0.0380
  259TIP3    H1  741   6.356   4.562   2.855 -0.3639 -0.0480 -2.3991
  259TIP3    H2  742   6.278   4.692   2.851 -0.2591  0.0202 -2.2575
  260TIP3   OH2  743   1.989   1.806   3.108 -0.1466 -0.1907  0.5779
  260TIP3    H1  744   2.061   1.817   3.170 -2.0631  2.0243  2.6170
  260TIP3    H2  745   1.999   1.879   3.046 -0.0605 -0.5095  0.2105
  261TIP3   OH2  746   6.287   3.387   3.457 -0.2862 -0.4130  0.0464
  261TIP3    H1  747   6.263   3.351   3.542 -0.3638  0.6821  0.4994
  261TIP3    H2  748   6.383   3.379   3.453 -0.3205 -0.8608  0.0396
  262TIP3   OH2  749   6.722   4.985   4.413 -0.0610  0.4084 -0.4611
  262TIP3    H1  750   6.635   4.995   4.376 -0.6471  0.0816  0.7879
  262TIP3    H2  751   6.748   4.895   4.390  0.3257  0.7750 -1.5555
  263TIP3   OH2  752   1.667   6.283   0.794  0.1588  0.3566 -0.5211
  263TIP3    H1  753   1.647   6.345   0.724 -2.1488 -0.4926 -0.7085
  263TIP3    H2  754   1.722   6.216   0.752  0.4289  0.8626 -0.9920
  264TIP3   OH2  755   1.201   6.401   1.765  0.1311  0.2169  0.3351
  264TIP3    H1  756   1.226   6.485   1.804 -0.0753 -0.0667  1.0776
  264TIP3    H2  757   1.277   6.344   1.779  0.7536  0.6091 -1.2232
  265TIP3   OH2  758   2.162   0.508   1.602  0.1963  0.2495 -0.0143
  265TIP3    H1  759   2.125   0.585   1.558 -1.0975 -0.6968 -0.6296
  265TIP3    H2  760   2.105   0.436   1.578  1.7360 -1.0594  0.0411
  266TIP3   OH2  761   5.417   1.752   5.480  0.4436  0.1672 -0.2700
  266TIP3    H1  762   5.370   1.794   5.552  1.7321  0.1304  0.6242
  266TIP3    H2  763   5.392   1.660   5.486 -0.4330  0.3674 -0.6725
  267TIP3   OH2  764   2.674   6.383   1.094  0.1779 -0.1917  0.3780
  267TIP3    H1  765   2.724   6.390   1.175  3.7860  0.5466 -1.7275
  267TIP3    H2  766   2.630   6.468   1.086  1.7309  0.6580  0.4455
  268TIP3   OH2  767   1.023   4.094   4.953 -0.6186 -0.0413 -0.0910
  268TIP3    H1  768   0.949   4.088   5.013  0.0120 -0.7686  0.6332
  268TIP3    H2  769   1.059   4.006   4.950  1.7395  0.7452  1.5610
  269TIP3   OH2  770   4.267   0.298   4.218  0.5506  0.1512  0.3897
  269TIP3    H1  771   4.350   0.251   4.207  0.3323 -0.7618  2.1626
  269TIP3    H2  772   4.250   0.293   4.312 -1.6911  0.0181  0.0281
  270TIP3   OH2  773   6.201   5.112   4.372  0.1931  0.0838  0.2383
  270TIP3    H1  774   6.181   5.019   4.380  0.4876 -0.0068 -0.0596
  270TIP3    H2  775   6.218   5.126   4.279 -2.2791  0.9426 -0.1582
  271TIP3   OH2  776   4.346   5.664   5.817  0.0100 -0.1187 -0.2917
  271TIP3    H1  777   4.255   5.633   5.823 -0.1138  0.3106  0.2375
  271TIP3    H2  778   4.384   5.614   5.745 -1.5666  1.9260 -2.7334
  272TIP3   OH2  779   5.181   0.249   2.167  0.3814  0.2520  0.2083
  272TIP3    H1  780   5.088   0.225   2.167  0.8087 -1.7736  2.5257
  272TIP3    H2  781   5.202   0.266   2.258  2.5931 -0.7058 -0.0523
  273TIP3   OH2  782   3.252   6.241   2.521 -0.0786 -0.2644  0.2592
  273TIP3    H1  783   3.178   6.254   2.580  0.1329  1.1259  0.2641
  273TIP3    H2  784   3.328   6.239   2.578 -0.0023 -0.3593  0.1530
  274TIP3   OH2  785   2.419   0.839   5.209  0.5337 -0.4202 -0.4644
  274TIP3    H1  786   2.441   0.928   5.236  0.0215 -0.4105 -0.0601
  274TIP3    H2  787   2.387   0.797   5.288  1.1274 -1.0863 -0.5658
  275TIP3   OH2  788   0.643   6.024   2.655 -0.7204 -0.5475  0.2000
  275TIP3    H1  789   0.548   6.034   2.653 -0.7145 -0.2238  0.9346
  275TIP3    H2  790   0.670   6.073   2.733 -0.0131 -1.1327  0.3307
  276TIP3   OH2  791   1.982   2.647   4.859 -0.0399 -0.6430  0.4462
  276TIP3    H1  792   1.916   2.675   4.923  0.2527 -0.5080  0.6947
  276TIP3    H2  793   1.938   2.581   4.806 -0.8668  0.5066 -0.3587
  277TIP3   OH2  794   3.520   0.214   0.917  0.2711 -0.1933 -0.1802
  277TIP3    H1  795   3.478   0.271   0.982 -1.8141 -0.1965 -1.4523
  277TIP3    H2  796   3.562   0.146   0.969 -0.3899  0.4247  1.2208
  278TIP3   OH2  797   5.600   2.327   3.420 -0.3629  0.4713 -0.0353
  278TIP3    H1  798   5.527   2.369   3.465 -1.0582  0.1577 -0.8388
  278TIP3    H2  799   5.585   2.347   3.328  0.4101  0.1518 -0.2328
  279TIP3   OH2  800   4.185   1.594   0.073 -0.3349 -0.4473  0.6738
  279TIP3    H1  801   4.232   1.655   0.130 -1.2632  0.1179  0.8539
  279TIP3    H2  802   4.097   1.588   0.111 -0.8266 -0.4324 -0.4237
  280TIP3   OH2  803   6.327   5.756   0.444  0.1245 -0.7026  0.7831
  280TIP3    H1  804   6.368   5.843   0.450 -0.5598 -0.3385  0.2271
  280TIP3    H2  805   6.294   5.740   0.532 -0.5001 -0.0212  0.6811
  281TIP3   OH2  806   1.567   0.689   1.760 -0.2895  0.3340 -0.7052
  281TIP3    H1  807   1.633   0.700   1.692  0.9802  0.8827  0.5784
  281TIP3    H2  808   1.540   0.778   1.783 -0.3524  0.1765 -0.1503
  282TIP3   OH2  809   2.894   0.774   2.313 -0.0505  0.2699 -0.5030
  282TIP3    H1  810   2.854   0.747   2.396  2.2158 -0.3435  0.4773
  282TIP3    H2  811   2.926   0.692   2.275  1.6573  0.8434 -0.4120
  283TIP3   OH2  812   2.413   0.498   1.268 -0.1611 -0.1523 -0.3713
  283TIP3    H1  813   2.477   0.446   1.219  1.2982 -0.4927  1.7570
  283TIP3    H2  814   2.329   0.472   1.232  0.7389 -1.5243 -1.6236
  284TIP3   OH2  815   2.045   5.658   3.527  0.0804 -0.1345 -0.9792
  284TIP3    H1  816   2.104   5.695   3.462 -0.6135  0.8581 -1.0585
  284TIP3    H2  817   1.978   5.724   3.540  1.6583  0.9900  2.8083
  285TIP3   OH2  818   4.442   2.666   0.135  0.0545 -0.1379 -0.1780
  285TIP3    H1  819   4.470   2.748   0.095  0.4237 -0.2952 -0.2527
  285TIP3    H2  820   4.524   2.624   0.163 -0.2325  0.3157  1.4352
  286TIP3   OH2  821   3.155   5.109   3.728 -0.0634 -0.0017 -0.1422
  286TIP3    H1  822   3.152   5.032   3.671  0.1731 -0.3555  0.3119
  286TIP3    H2  823   3.166   5.072   3.816  0.9632  0.5913 -0.0158
  287TIP3   OH2  824   0.673   5.947   5.161  0.2244 -0.1610  0.6004
  287TIP3    H1  825   0.747   5.994   5.200 -0.8980  0.8368  1.6506
  287TIP3    H2  826   0.648   5.883   5.227 -0.8260  0.6039  0.9818
  288TIP3   OH2  827   3.942   3.466   4.294 -0.3843 -0.0651 -0.6867
  288TIP3    H1  828   4.018   3.453   4.238  1.2055 -0.6889  1.4681
  288TIP3    H2  829   3.928   3.381   4.336 -0.2687  0.8064  1.2411
  289TIP3   OH2  830   6.065   5.920   5.270 -0.3515  0.0485  0.2833
  289TIP3    H1  831   5.983   5.950   5.232  1.7122  1.5435 -3.4838
  289TIP3    H2  832   6.072   5.967   5.354 -2.4741  1.2581 -0.1598
  290TIP3   OH2  833   6.461   4.208   5.126  0.0149 -0.8224  0.9071
  290TIP3    H1  834   6.545   4.239   5.092 -0.6437  0.4249  0.3317
  290TIP3    H2  835   6.483   4.162   5.207  1.1803  0.2857  1.2531
  291TIP3   OH2  836   0.428   2.458   0.260 -0.2640  0.1327 -0.3563
  291TIP3    H1  837   0.366   2.409   0.314 -0.4800 -0.6683 -1.2892
  291TIP3    H2  838   0.377   2.527   0.219 -0.6899 -0.8373 -1.5236
  292TIP3   OH2  839   1.043   6.430   1.248 -0.2582  0.2264  0.1016
  292TIP3    H1  840   1.060   6.522   1.265  2.0131 -0.3351  1.3351
  292TIP3    H2  841   0.958   6.413   1.289 -0.8675  1.8180 -0.4454
  293TIP3   OH2  842   6.340   4.018   2.216 -0.1833  0.0462  0.0453
  293TIP3    H1  843   6.432   4.043   2.225 -0.2791  0.2405  0.5394
  293TIP3    H2  844   6.322   4.025   2.122 -0.1556  1.6769  0.1236
  294TIP3   OH2  845   5.233   2.038   2.280 -0.3213  0.0052  0.2096
  294TIP3    H1  846   5.222   1.944   2.296 -0.4938 -0.0721 -0.3661
  294TIP3    H2  847   5.145   2.074   2.287 -0.5894 -0.1979 -1.6214
  295TIP3   OH2  848   3.358   4.462   4.083  0.8749  0.6026  0.2807
  295TIP3    H1  849   3.347   4.367   4.083 -0.3149  0.7212 -0.2427
  295TIP3    H2  850   3.296   4.493   4.017  1.4919  1.7231  0.1973
  296TIP3   OH2  851   0.885   4.027   1.797 -0.5303  0.1665  0.0570
  296TIP3    H1  852   0.892   4.087   1.871  0.9607  0.1181 -0.0186
  296TIP3    H2  853   0.959   4.049   1.740 -0.3075 -1.3225 -0.2809
  297TIP3   OH2  854   4.339   3.417   2.270  0.5618 -0.3357 -0.4917
  297TIP3    H1  855   4.421   3.409   2.319  0.4813 -0.3220 -0.3564
  297TIP3    H2  856   4.349   3.499   2.221 -0.4747  1.1289  1.5991
  298TIP3   OH2  857   5.336   2.199   3.110  0.0280  0.0528  0.3634
  298TIP3    H1  858   5.396   2.258   3.065  0.2635 -1.0798 -0.8764
  298TIP3    H2  859   5.249   2.235   3.093  0.2190  0.5101  0.3418
  299TIP3   OH2  860   2.722   1.716   0.831  0.1842  0.5089  0.0785
  299TIP3    H1  861   2.776   1.756   0.898 -0.8379 -0.7477  1.7322
  299TIP3    H2  862   2.633   1.740   0.854 -0.1315  0.9407 -1.4778
  300TIP3   OH2  863   3.906   3.290   1.061 -0.1603  0.3224  0.4108
  300TIP3    H1  864   3.845   3.363   1.050 -0.4397  0.1456  0.7720
  300TIP3    H2  865   3.858   3.226   1.114  0.9591  0.9405  2.2585
  301TIP3   OH2  866   1.534   3.284   2.569 -0.2595  0.7304 -0.2789
  301TIP3    H1  867   1.470   3.218   2.540 -1.1693  0.9798  1.1039
  301TIP3    H2  868   1.482   3.353   2.610  0.8609  1.1173  0.5600
  302TIP3   OH2  869   3.424   2.339   1.368  0.5486 -0.0691  0.4763
  302TIP3    H1  870   3.349   2.359   1.311  1.1152  0.4627 -0.1027
  302TIP3    H2  871   3.385   2.315   1.452 -0.3148 -0.9816 -0.1606
  303TIP3   OH2  872   0.652   6.279   0.394  0.3100  0.1745  0.2827
  303TIP3    H1  873   0.586   6.259   0.328 -0.9134  1.3338  1.0994
  303TIP3    H2  874   0.604   6.280   0.477  0.8834  3.0337  0.6859
  304TIP3   OH2  875   1.871   6.541   3.909 -0.3562  0.0972  0.2246
  304TIP3    H1  876   1.852   6.535   4.002 -1.3710 -0.8037 -0.0184
  304TIP3    H2  877   1.900   6.631   3.896  2.2243 -0.3853  1.8172
  305TIP3   OH2  878   1.423   0.817   4.486  0.1893  0.4518  0.4734
  305TIP3    H1  879   1.486   0.761   4.440  1.6145  0.4439  2.3314
  305TIP3    H2  880   1.476   0.889   4.521 -1.3023  1.9781 -0.2215
  306TIP3   OH2  881   4.712   0.762   3.477  0.2794 -1.0877  0.1328
  306TIP3    H1  882   4.653   0.701   3.521  1.0790 -2.7443 -0.9888
  306TIP3    H2  883   4.727   0.724   3.391  0.9391  0.6456 -0.5763
  307TIP3   OH2  884   6.659   2.269   0.886  0.1766 -0.2878  0.6046
  307TIP3    H1  885   6.707   2.328   0.828  0.6234  0.3021  1.5581
  307TIP3    H2  886   6.707   2.186   0.882  0.8534  0.0813  0.9879
  308TIP3   OH2  887   6.256   1.044   1.464  0.3681 -0.1559 -0.1361
  308TIP3    H1  888   6.289   1.017   1.550  1.0704  2.6075  0.5685
  308TIP3    H2  889   6.162   1.026   1.467  0.4021 -0.1834  1.1881
  309TIP3   OH2  890   6.908   4.439   4.161  0.4463 -0.0566  0.0274
  309TIP3    H1  891   6.880   4.502   4.227  1.3895  0.3125  0.0982
  309TIP3    H2  892   6.847   4.366   4.170 -0.1147  0.4645  0.5526
  310TIP3   OH2  893   0.408   3.957   0.790  0.5648  0.0638  0.2363
  310TIP3    H1  894   0.377   4.000   0.711  1.0147 -1.4291 -0.8067
  310TIP3    H2  895   0.397   4.022   0.860 -1.1153  0.9408 -0.7940
  311TIP3   OH2  896   6.852   6.437   1.968 -0.1821 -0.2046 -0.2554
  311TIP3    H1  897   6.916   6.503   1.941  0.5957 -0.5657  0.6687
  311TIP3    H2  898   6.834   6.388   1.887  0.2580  0.2772 -0.6548
  312TIP3   OH2  899   4.530   1.741   0.480 -0.3540  0.6232 -0.3305
  312TIP3    H1  900   4.495   1.655   0.503  1.0831  0.5174  1.7323
  312TIP3    H2  901   4.625   1.732   0.488 -0.1799  2.5062  0.3548
  313TIP3   OH2  902   3.040   6.049   4.838 -0.0685  0.0845  0.6388
  313TIP3    H1  903   3.092   6.100   4.776 -0.0089 -0.6357  0.0844
  313TIP3    H2  904   2.982   5.997   4.783 -0.1492 -0.4267  1.1996
  314TIP3   OH2  905   3.969   4.394   3.989 -0.5241  0.0480 -0.7264
  314TIP3    H1  906   3.906   4.334   4.030  0.1305  0.0693  0.3659
  314TIP3    H2  907   4.046   4.340   3.972 -0.3178  0.3388 -0.7157
  315TIP3   OH2  908   5.862   5.277   5.021 -0.0445  0.2765  0.3072
  315TIP3    H1  909   5.940   5.222   5.019 -0.7423 -0.7123 -0.1476
  315TIP3    H2  910   5.861   5.314   5.109 -0.3271 -1.5741  1.1269
  316TIP3   OH2  911   2.570   2.475   3.315  0.0319  0.1182  0.2194
  316TIP3    H1  912   2.655   2.506   3.282 -0.1817  1.1480  0.5893
  316TIP3    H2  913   2.548   2.401   3.259 -0.9176  2.5130 -2.8557
  317TIP3   OH2  914   2.807   6.191   4.935 -0.6528 -0.2137 -0.3583
  317TIP3    H1  915   2.871   6.207   4.866 -1.0454  4.4662  0.0484
  317TIP3    H2  916   2.858   6.174   5.013  0.0321  0.7148 -0.5931
  318TIP3   OH2  917   3.703   3.759   5.366  0.7262  1.1554 -0.2511
  318TIP3    H1  918   3.681   3.811   5.289 -0.7382  0.6574 -0.1860
  318TIP3    H2  919   3.671   3.671   5.346  0.6376  0.9391  0.7833
  319TIP3   OH2  920   3.211   2.913   0.430 -0.2647  0.1442  0.1325
  319TIP3    H1  921   3.126   2.873   0.414  0.0741 -1.1832  1.4341
  319TIP3    H2  922   3.235   2.886   0.519  1.3510  0.7982 -0.0541
  320TIP3   OH2  923   7.117   6.474   0.865  0.3326 -0.2217 -0.1877
  320TIP3    H1  924   7.130   6.507   0.776  0.7544  2.9681  0.9143
  320TIP3    H2  925   7.039   6.520   0.896  0.3801 -1.0235  1.2126
  321TIP3   OH2  926   2.605   6.178   2.103 -0.7826 -0.3918  0.3999
  321TIP3    H1  927   2.675   6.150   2.162 -1.5008 -0.6224  1.1567
  321TIP3    H2  928   2.553   6.099   2.087 -1.3445 -0.0487  0.4983
  322TIP3   OH2  929   3.247   3.592   1.339 -0.1571  0.0238  0.1401
  322TIP3    H1  930   3.215   3.506   1.312 -1.5138 -0.3378  2.5879
  322TIP3    H2  931   3.316   3.574   1.402 -1.1298  0.6334  1.4491
  323TIP3   OH2  932   2.284   0.940   0.875  0.3728  0.6000 -0.2878
  323TIP3    H1  933   2.377   0.947   0.897  0.1310 -2.5004  2.5725
  323TIP3    H2  934   2.238   0.967   0.954 -1.1526  1.0147 -1.2698
  324TIP3   OH2  935   0.836   2.697   4.341 -0.1170 -0.1373  0.0941
  324TIP3    H1  936   0.866   2.683   4.431  2.9200  0.5368 -0.6928
  324TIP3    H2  937   0.789   2.780   4.344 -1.3166 -0.8132  1.2628
  325TIP3   OH2  938   3.052   1.237   4.302  0.2794  0.0262  0.0035
  325TIP3    H1  939   3.004   1.163   4.263  1.4702 -0.8203  0.0929
  325TIP3    H2  940   3.141   1.204   4.312  1.1953  1.9758 -1.3150
  326TIP3   OH2  941   2.457   3.064   2.277  0.2103  0.2953 -0.8425
  326TIP3    H1  942   2.443   3.039   2.186 -2.4843 -1.6973 -0.0005
  326TIP3    H2  943   2.404   3.143   2.289 -0.5778 -0.2466 -0.6881
  327TIP3   OH2  944   6.765   4.327   1.455 -0.8257 -0.0321  0.3644
  327TIP3    H1  945   6.688   4.343   1.509 -0.2766 -0.5211  1.3027
  327TIP3    H2  946   6.817   4.407   1.462 -0.4274 -0.3497  1.1247
  328TIP3   OH2  947   3.269   4.386   0.312  0.1613  0.4586  0.2821
  328TIP3    H1  948   3.187   4.340   0.300  1.1856 -0.6941 -4.6953
  328TIP3    H2  949   3.313   4.339   0.383 -1.5064 -2.0495 -0.2211
  329TIP3   OH2  950   0.261   4.059   3.003 -0.4742 -0.1466  0.4183
  329TIP3    H1  951   0.196   4.129   3.002 -1.3622 -0.8848  1.9446
  329TIP3    H2  952   0.296   4.060   3.092  1.4425  0.0518 -0.2910
  330TIP3   OH2  953   6.590   5.452   3.875  0.4387  0.2371  0.3830
  330TIP3    H1  954   6.631   5.399   3.944  0.7881  0.7331  0.5648
  330TIP3    H2  955   6.503   5.473   3.909 -0.3537 -1.5728 -0.3811
  331TIP3   OH2  956   0.444   4.409   1.939 -0.2115  0.2802 -0.0924
  331TIP3    H1  957   0.420   4.360   2.018  0.6466 -0.4804 -0.2939
  331TIP3    H2  958   0.520   4.362   1.904 -0.0021  1.1708 -0.8488
  332TIP3   OH2  959   6.696   5.559   4.517 -0.5572  0.4374  0.1056
  332TIP3    H1  960   6.673   5.629   4.578 -0.3496  0.7789 -0.2084
  332TIP3    H2  961   6.678   5.595   4.430 -0.0923  0.2362 -0.0788
  333TIP3   OH2  962   1.545   5.828   3.441 -0.5195 -0.7216  0.4073
  333TIP3    H1  963   1.524   5.863   3.528 -0.0167 -1.0249  0.6534
  333TIP3    H2  964   1.491   5.879   3.381 -0.3085  0.0048  0.8265
  334TIP3   OH2  965   2.956   3.302   3.623  0.0033 -0.0179 -0.1061
  334TIP3    H1  966   3.047   3.275   3.610  0.0854 -1.0158  2.0307
  334TIP3    H2  967   2.952   3.330   3.715 -1.3339  2.3493 -0.8003
  335TIP3   OH2  968   4.622   3.769   2.357 -0.1617 -0.4800 -0.2120
  335TIP3    H1  969   4.579   3.722   2.428 -0.9476 -1.7380 -1.4659
  335TIP3    H2  970   4.578   3.738   2.278  0.4348  1.1394 -1.2340
  336TIP3   OH2  971   4.573   1.882   5.125 -0.1161 -0.0898  0.0833
  336TIP3    H1  972   4.643   1.832   5.167  0.4913  0.4210 -0.2961
  336TIP3    H2  973   4.619   1.945   5.069 -0.8656 -2.2374 -3.2173
  337TIP3   OH2  974   3.916   0.593   1.782 -0.4143  0.3845  0.8439
  337TIP3    H1  975   4.009   0.602   1.763  0.1013 -0.0173  2.9367
  337TIP3    H2  976   3.905   0.627   1.871 -2.2880  0.5256  0.6100
  338TIP3   OH2  977   1.463   5.670   0.268 -0.1480 -0.1865 -0.1248
  338TIP3    H1  978   1.463   5.766   0.263  1.8041 -0.0746  0.8911
  338TIP3    H2  979   1.459   5.651   0.361  1.4142 -1.0140 -0.1945
  339TIP3   OH2  980   6.042   4.444   2.921 -0.4561 -0.0168  0.0633
  339TIP3    H1  981   5.984   4.485   2.857 -1.9600  0.6628  1.7882
  339TIP3    H2  982   6.127   4.485   2.906 -0.4726 -0.6834 -2.1976
  340TIP3   OH2  983   0.502   6.738   5.215  0.1271  0.0786  0.3210
  340TIP3    H1  984   0.418   6.784   5.217 -0.2602 -0.5956  0.0449
  340TIP3    H2  985   0.507   6.701   5.127  0.1488 -0.8827  0.7120
  341TIP3   OH2  986   0.056   6.549   1.064  0.1800  0.0328  0.2668
  341TIP3    H1  987  -0.013   6.498   1.023  0.4444 -1.5091  1.6229
  341TIP3    H2  988   0.022   6.570   1.150  0.1967  1.9705 -0.1689
  342TIP3   OH2  989   3.075   2.916   3.369  0.2538 -0.4124 -0.3381
  342TIP3    H1  990   3.008   2.860   3.409  0.0417  0.6828  0.8755
  342TIP3    H2  991   3.044   2.928   3.279 -1.1579  0.0047  0.1666
  343TIP3   OH2  992   5.749   1.845   2.925 -0.5444 -0.6080  0.3579
  343TIP3    H1  993   5.798   1.927   2.927 -1.0619 -0.2647  2.9493
  343TIP3    H2  994   5.705   1.845   2.840 -1.0728  2.1676  0.5392
  344TIP3   OH2  995   2.993   3.348   2.391  0.1066 -0.2559  0.1552
  344TIP3    H1  996   2.968   3.423   2.444  0.4241 -0.5238  0.6938
  344TIP3    H2  997   2.947   3.361   2.307 -0.3780  0.1804  0.4836
  345TIP3   OH2  998   0.039   2.833   2.887  0.0468  0.4037  0.0422
  345TIP3    H1  999   0.098   2.771   2.845 -0.2833 -0.3576  0.6932
  345TIP3    H2 1000  -0.039   2.782   2.910 -1.1367  1.5159 -1.3138
  346TIP3   OH2 1001   6.185   3.588   1.685  0.0416  0.0752  0.1323
  346TIP3    H1 1002   6.121   3.517   1.678 -0.1678  0.2639  0.1235
  346TIP3    H2 1003   6.243   3.561   1.757  0.1250 -0.2305 -0.0473
  347TIP3   OH2 1004   5.098   2.414   3.842  0.4204  0.2794  0.4499
  347TIP3    H1 1005   5.091   2.323   3.813  1.7955  0.1860  0.3676
  347TIP3    H2 1006   5.099   2.465   3.761  1.8862  0.1897  0.3912
  348TIP3   OH2 1007   7.204   5.498   2.964 -0.2396  0.4678 -0.1696
  348TIP3    H1 1008   7.115   5.507   2.996  0.2798 -0.0215  1.5185
  348TIP3    H2 1009   7.244   5.433   3.021  0.8996 -0.1164 -1.5607
  349TIP3   OH2 1010   4.958   5.315   3.394 -0.2410 -0.1763 -0.5331
  349TIP3    H1 1011   4.932   5.357   3.312 -0.1575 -0.5981 -0.7796
  349TIP3    H2 1012   4.930   5.376   3.462 -1.4299 -0.3763 -0.8138
  350TIP3   OH2 1013   6.909   1.975   5.619  0.6310  0.2817 -0.0984
  350TIP3    H1 1014   6.935   1.909   5.555  0.7526  2.7482 -2.7972
  350TIP3    H2 1015   6.977   2.042   5.613 -0.5391  1.6270  1.0154
  351TIP3   OH2 1016   0.358   0.974   1.854  0.3046 -0.4942  0.0249
  351TIP3    H1 1017   0.305   0.965   1.775  0.9403 -0.1811 -0.4480
  351TIP3    H2 1018   0.299   1.015   1.918 -0.0902 -0.3674 -0.4148
  352TIP3   OH2 1019   4.764   4.657   5.519 -0.0835 -0.0214 -0.0816
  352TIP3    H1 1020   4.784   4.734   5.466 -1.3530  0.6570  0.3971
  352TIP3    H2 1021   4.850   4.624   5.545  0.5878 -0.3415 -2.4699
  353TIP3   OH2 1022   2.658   5.497   4.374  0.2761 -0.1482  0.2280
  353TIP3    H1 1023   2.753   5.497   4.381  0.2057 -2.1549  2.7048
  353TIP3    H2 1024   2.639   5.446   4.295  1.2102  0.4726 -0.4195
  354TIP3   OH2 1025   2.971   4.931   0.763  0.1369 -0.1330  0.1954
  354TIP3    H1 1026   3.050   4.973   0.728 -0.5176  0.2140 -0.8914
  354TIP3    H2 1027   2.942   4.989   0.833 -0.6683  1.1884 -1.1842
  355TIP3   OH2 1028   5.728   0.081   4.376 -0.3463 -0.4145  0.6444
  355TIP3    H1 1029   5.741  -0.000   4.326  1.1144 -0.6650  1.3651
  355TIP3    H2 1030   5.746   0.057   4.467 -1.6670  0.3376  1.1360
  356TIP3   OH2 1031   1.982   3.233   4.446 -0.0225  0.6230  0.0069
  356TIP3    H1 1032   1.975   3.276   4.360 -2.7676  1.8431  0.7310
  356TIP3    H2 1033   1.904   3.178   4.451  0.5686 -0.1193  1.3648
  357TIP3   OH2 1034   4.485   3.130   4.350 -0.0225  0.2157 -0.3842
  357TIP3    H1 1035   4.468   3.040   4.377  0.0271  0.0993 -0.7401
  357TIP3    H2 1036   4.551   3.162   4.412 -1.2980  0.5740  0.8176
  358TIP3   OH2 1037   2.682   0.287   2.234 -0.2461  0.1696 -0.2281
  358TIP3    H1 1038   2.635   0.370   2.237 -0.7155 -0.1114  0.4411
  358TIP3    H2 1039   2.615   0.221   2.216 -0.2002 -0.2744  1.1110
  359TIP3   OH2 1040   2.842   2.974   0.517 -0.3400  0.4300 -0.0283
  359TIP3    H1 1041   2.813   2.913   0.448  0.2799 -1.2795  1.1795
  359TIP3    H2 1042   2.783   2.957   0.590  0.3336  0.7671  0.5990
  360TIP3   OH2 1043   5.414   6.745   3.192  0.0353  0.1188 -0.0810
  360TIP3    H1 1044   5.467   6.787   3.124 -1.7542  1.1071 -0.9354
  360TIP3    H2 1045   5.371   6.818   3.237 -0.4232 -0.6305  0.7177
  361TIP3   OH2 1046   2.430   0.547   4.701  0.5986  0.5696 -0.4156
  361TIP3    H1 1047   2.510   0.520   4.747  0.6231  0.3457 -0.5862
  361TIP3    H2 1048   2.368   0.476   4.717  0.6903  0.3632 -0.9411
  362TIP3   OH2 1049   5.806   4.085   0.126 -0.0555  0.1053 -0.3622
  362TIP3    H1 1050   5.737   4.020   0.144 -0.5962  0.5551 -0.7983
  362TIP3    H2 1051   5.786   4.158   0.185 -0.5116  0.6376 -1.1713
  363TIP3   OH2 1052   3.678   0.876   0.136  0.4785  0.2520 -0.4276
  363TIP3    H1 1053   3.622   0.944   0.174  0.2448  0.4182 -1.0513
  363TIP3    H2 1054   3.764   0.890   0.175  0.4912  1.0631 -0.7334
  364TIP3   OH2 1055   3.892   0.102   2.140 -0.2216 -0.0939 -0.3258
  364TIP3    H1 1056   3.917   0.049   2.065 -0.8592 -0.5704 -0.2090
  364TIP3    H2 1057   3.838   0.044   2.194  1.8416 -0.4339  1.5119
  365TIP3   OH2 1058   2.071   3.345   3.943 -0.2937 -0.1989 -0.3768
  365TIP3    H1 1059   2.132   3.413   3.972 -1.1410 -0.6282  2.7374
  365TIP3    H2 1060   2.121   3.294   3.880  1.7984  0.7871  0.3950
  366TIP3   OH2 1061   0.087   6.755   4.244 -0.5477 -0.1971 -0.0610
  366TIP3    H1 1062   0.024   6.789   4.307 -2.1639 -0.3049 -1.5318
  366TIP3    H2 1063   0.110   6.830   4.189  1.6756  0.1528  1.2194
  367TIP3   OH2 1064   2.496   1.321   5.458  0.3203  0.3540  0.2933
  367TIP3    H1 1065   2.584   1.338   5.491  0.7975 -1.4771  0.1036
  367TIP3    H2 1066   2.439   1.328   5.534  1.1478 -1.9479  1.2058
  368TIP3   OH2 1067   4.221   1.847   3.988 -0.3101 -0.1492  0.3269
  368TIP3    H1 1068   4.243   1.778   4.050  0.2853 -0.2787 -0.0209
  368TIP3    H2 1069   4.159   1.807   3.928  0.6347 -0.6491 -0.3545
  369TIP3   OH2 1070   4.309   2.359   1.832  0.0398  0.1442 -0.0051
  369TIP3    H1 1071   4.314   2.450   1.862  0.2171  0.0015  0.4042
  369TIP3    H2 1072   4.233   2.323   1.878  0.8728 -0.3445  1.0181
  370TIP3   OH2 1073   5.585   6.732   0.142  0.3514 -0.2662  0.4513
  370TIP3    H1 1074   5.549   6.739   0.230  0.2958  2.3420  0.2967
  370TIP3    H2 1075   5.554   6.647   0.110  0.0970 -1.1143  2.7962
  371TIP3   OH2 1076   4.882   0.842   2.329 -0.5793  0.4395  0.7408
  371TIP3    H1 1077   4.857   0.825   2.420  1.2096  1.0756  1.4024
  371TIP3    H2 1078   4.805   0.817   2.278 -0.6505 -2.7339  2.1537
  372TIP3   OH2 1079   4.304   6.567   2.772  0.7441 -0.9095 -0.6379
  372TIP3    H1 1080   4.361   6.604   2.705  1.2898 -0.1851  0.1960
  372TIP3    H2 1081   4.255   6.497   2.728  1.2928 -0.6289 -1.6999
  373TIP3   OH2 1082   4.242   1.088   5.916 -0.0725  0.1315  0.3925
  373TIP3    H1 1083   4.177   1.037   5.868 -0.3308 -0.3933  1.2579
  373TIP3    H2 1084   4.319   1.089   5.860 -0.7723  0.6280 -0.5826
  374TIP3   OH2 1085   6.308   3.453   2.183  0.0973  0.0650 -0.4652
  374TIP3    H1 1086   6.257   3.380   2.218 -0.0951  0.9918  1.3728
  374TIP3    H2 1087   6.242   3.515   2.151  0.0135  0.9628  1.2887
  375TIP3   OH2 1088   1.166   5.162   1.124 -0.0182 -0.3647  0.8950
  375TIP3    H1 1089   1.223   5.137   1.196 -0.3438  1.5750  1.9166
  375TIP3    H2 1090   1.210   5.237   1.083 -0.2407 -0.9264 -0.4158
  376TIP3   OH2 1091   3.198   0.012   0.846 -0.0555 -0.1485  0.0829
  376TIP3    H1 1092   3.272   0.007   0.907  0.5913  1.7399 -0.4831
  376TIP3    H2 1093   3.215   0.089   0.793 -1.6903 -0.5295 -1.0910
  377TIP3   OH2 1094   6.395   1.823   3.240 -0.1867  0.4114  0.1590
  377TIP3    H1 1095   6.484   1.806   3.273  0.0972  1.0193 -0.2633
  377TIP3    H2 1096   6.403   1.906   3.194 -0.8239  0.1325 -0.4707
  378TIP3   OH2 1097   0.848   1.175   1.408  0.6132  0.4435 -0.1452
  378TIP3    H1 1098   0.887   1.258   1.434  1.0870  0.5913 -1.2613
  378TIP3    H2 1099   0.882   1.112   1.471 -0.4497  1.2177  1.2585
  379TIP3   OH2 1100   2.288   5.967   0.924 -0.7415  0.1365 -0.5022
  379TIP3    H1 1101   2.349   5.898   0.948 -1.5114 -0.8153 -1.1909
  379TIP3    H2 1102   2.342   6.034   0.882 -0.2446 -1.0697 -1.8770
  380TIP3   OH2 1103   2.786   2.245   0.664  0.8098 -0.1062  0.6806
  380TIP3    H1 1104   2.700   2.254   0.624  0.6503  0.8069  1.1892
  380TIP3    H2 1105   2.826   2.332   0.655  1.4680 -0.3713  0.9205
  381TIP3   OH2 1106   0.578   0.506   2.158 -0.0126 -0.1774  0.1425
  381TIP3    H1 1107   0.617   0.588   2.188 -1.2638 -0.2353  2.0813
  381TIP3    H2 1108   0.653   0.448   2.141  0.8118  0.5486  1.1962
  382TIP3   OH2 1109   4.257   1.429   4.332  0.0154  0.1169 -0.3660
  382TIP3    H1 1110   4.194   1.467   4.393  0.1043  0.8657 -0.7318
  382TIP3    H2 1111   4.322   1.386   4.387 -0.2280  0.2734  0.0447
  383TIP3   OH2 1112   7.135   3.579   3.426 -0.1784 -0.5412  0.6468
  383TIP3    H1 1113   7.170   3.554   3.341 -1.3213  0.0897 -0.0384
  383TIP3    H2 1114   7.051   3.622   3.406 -1.9105 -2.9274  2.2413
  384TIP3   OH2 1115   1.898   3.910   4.523  0.4756 -0.0291 -0.5665
  384TIP3    H1 1116   1.939   3.939   4.605 -0.3912 -2.0661  0.6877
  384TIP3    H2 1117   1.810   3.949   4.526  0.6882  0.4732 -0.8799
  385TIP3   OH2 1118   6.093   1.760   3.455  0.0530 -0.1578  0.7730
  385TIP3    H1 1119   6.146   1.717   3.523  0.1198 -1.3425  0.0124
  385TIP3    H2 1120   6.048   1.831   3.500  1.5769  0.2996  1.6470
  386TIP3   OH2 1121   3.801   3.099   5.408  0.0547 -0.4244  0.7713
  386TIP3    H1 1122   3.843   3.170   5.456 -0.2293 -0.3789  0.9543
  386TIP3    H2 1123   3.868   3.030   5.403 -0.3559 -0.9790  2.4467
  387TIP3   OH2 1124   5.522   0.285   0.817 -0.4874 -0.2098  0.3325
  387TIP3    H1 1125   5.489   0.340   0.746 -0.1593 -1.4828 -0.8521
  387TIP3    H2 1126   5.573   0.217   0.773 -0.1739 -0.9764  1.8044
  388TIP3   OH2 1127   4.665   1.198   3.983  0.3303 -0.3811  0.1891
  388TIP3    H1 1128   4.693   1.260   3.916 -1.9139  0.9964  0.4194
  388TIP3    H2 1129   4.747   1.171   4.026  1.6421  0.1059 -1.8499
  389TIP3   OH2 1130   3.094   2.118   4.194 -0.0249  0.4607 -0.4341
  389TIP3    H1 1131   3.092   2.190   4.257 -2.3928  0.2758 -0.1893
  389TIP3    H2 1132   3.150   2.150   4.123  0.8109  1.6055  0.6821
  390TIP3   OH2 1133   1.355   6.048   0.832 -0.1633 -0.1167 -0.0350
  390TIP3    H1 1134   1.389   6.095   0.756 -0.4991  0.7601  0.3463
  390TIP3    H2 1135   1.350   6.114   0.901  0.4143 -0.9690  0.8408
  391TIP3   OH2 1136   3.382   5.273   2.928 -0.1421  0.3547 -0.8709
  391TIP3    H1 1137   3.346   5.314   2.850 -1.1709  0.6001 -0.2929
  391TIP3    H2 1138   3.309   5.220   2.963  0.8188 -1.1418 -1.0186
  392TIP3   OH2 1139   1.861   5.318   1.008 -0.1385 -0.1397  0.2237
  392TIP3    H1 1140   1.858   5.397   0.955 -0.0100 -0.3419 -0.0859
  392TIP3    H2 1141   1.903   5.345   1.090  0.4260 -0.0188 -0.1014
  393TIP3   OH2 1142   4.270   4.895   1.769  0.2890 -0.0098  0.4377
  393TIP3    H1 1143   4.189   4.913   1.721  0.1735  0.5061  0.8241
  393TIP3    H2 1144   4.331   4.863   1.702  0.2215  0.9741 -0.1140
  394TIP3   OH2 1145   3.998   2.987   3.938  0.0724 -0.0683 -0.2898
  394TIP3    H1 1146   3.935   3.042   3.891  0.1448  1.1335  0.9514
  394TIP3    H2 1147   4.081   3.035   3.931  0.4369 -0.6941 -0.3136
  395TIP3   OH2 1148   2.517   2.778   2.949  0.0708 -0.2096 -0.3491
  395TIP3    H1 1149   2.577   2.830   2.895 -0.0318  0.5266  0.2312
  395TIP3    H2 1150   2.560   2.771   3.033 -0.2534 -0.4398 -0.2001
  396TIP3   OH2 1151   2.431   0.347   5.812 -0.6652  0.4360 -0.2014
  396TIP3    H1 1152   2.361   0.395   5.768 -1.4525 -0.2011  0.3337
  396TIP3    H2 1153   2.430   0.379   5.902  0.6233  1.3831 -0.4944
  397TIP3   OH2 1154   4.166   0.506   4.375 -0.0292  0.4550  0.6044
  397TIP3    H1 1155   4.259   0.481   4.374 -0.0141  0.4930 -1.1780
  397TIP3    H2 1156   4.119   0.423   4.382  0.1072  0.4799  2.3978
  398TIP3   OH2 1157   3.895   3.617   3.664 -0.3653 -0.5906 -0.4695
  398TIP3    H1 1158   3.932   3.529   3.667  2.7057  0.5693 -0.7958
  398TIP3    H2 1159   3.849   3.627   3.748  0.1615 -2.1066  0.0314
  399TIP3   OH2 1160   5.746   0.836   2.057 -0.4612  0.3350  0.3038
  399TIP3    H1 1161   5.684   0.763   2.067  0.6652 -1.2665 -2.7721
  399TIP3    H2 1162   5.693   0.907   2.021 -0.7246 -0.8174 -1.7389
  400TIP3   OH2 1163   1.105   5.922   3.036 -0.0945 -0.2446  0.2828
  400TIP3    H1 1164   1.122   5.850   3.097  2.1573  0.6148  0.7809
  400TIP3    H2 1165   1.145   5.893   2.954 -1.5131 -0.6349 -0.2893
  401TIP3   OH2 1166   1.716   6.770   5.796 -0.0699  0.1590  0.0036
  401TIP3    H1 1167   1.653   6.809   5.857 -1.1715  0.6541 -1.4006
  401TIP3    H2 1168   1.798   6.817   5.812 -0.3318  0.2559  1.1147
  402TIP3   OH2 1169   3.638   1.907   3.014  0.1061  0.1157 -0.1146
  402TIP3    H1 1170   3.616   1.972   3.081  1.3003 -0.7884  1.1991
  402TIP3    H2 1171   3.674   1.833   3.063 -1.9139 -1.9179 -1.4721
  403TIP3   OH2 1172   0.720   4.060   2.846  0.1271 -0.0713  0.2662
  403TIP3    H1 1173   0.785   4.114   2.802 -0.4785  1.0325  0.6880
  403TIP3    H2 1174   0.731   3.973   2.808  0.7740  0.4623 -0.8041
  404TIP3   OH2 1175   0.070   0.280   1.272 -0.7039  0.4318 -0.5073
  404TIP3    H1 1176   0.003   0.214   1.253 -1.3812  1.0565 -0.3765
  404TIP3    H2 1177   0.105   0.305   1.187 -0.5421 -0.0020 -0.5667
  405TIP3   OH2 1178   4.450   5.459   5.158 -0.3370 -0.0759  0.4587
  405TIP3    H1 1179   4.454   5.527   5.225  3.5316 -0.1018  0.4391
  405TIP3    H2 1180   4.435   5.378   5.207 -0.4021  0.2398  0.9697
  406TIP3   OH2 1181   6.453   0.547   2.539 -0.3404  0.4952  0.0502
  406TIP3    H1 1182   6.507   0.623   2.517 -1.1428  0.4401 -2.4068
  406TIP3    H2 1183   6.511   0.472   2.524 -0.3580  0.5274 -0.1857
  407TIP3   OH2 1184   6.981   5.619   4.547  0.1791 -0.5447 -0.4947
  407TIP3    H1 1185   6.890   5.607   4.521  0.0417 -0.4040 -0.0775
  407TIP3    H2 1186   7.024   5.651   4.467 -0.3695  0.4992 -0.3979
  408TIP3   OH2 1187   4.924   4.330   1.176 -0.1444  0.6403 -0.1766
  408TIP3    H1 1188   4.838   4.294   1.157 -0.4124  0.4256  1.3001
  408TIP3    H2 1189   4.911   4.425   1.172 -0.5836  0.6207  0.4718
  409TIP3   OH2 1190   3.291   3.887   0.996 -0.2912 -0.4318  0.0782
  409TIP3    H1 1191   3.348   3.825   1.042 -1.7682 -1.0876  1.1132
  409TIP3    H2 1192   3.351   3.940   0.944  1.1775 -1.6462  0.4450
  410TIP3   OH2 1193   2.670   1.163   5.241 -1.0026 -0.2848  0.2638
  410TIP3    H1 1194   2.593   1.124   5.282  0.4228 -2.2174  1.2231
  410TIP3    H2 1195   2.742   1.145   5.301  0.1776  1.8714 -0.3751
  411TIP3   OH2 1196   2.282   4.427   1.258  0.1432  0.1761 -0.2995
  411TIP3    H1 1197   2.266   4.352   1.201  0.4451 -1.3649  1.5381
  411TIP3    H2 1198   2.210   4.487   1.239 -1.0773 -1.3313 -0.6369
  412TIP3   OH2 1199   1.224   5.521   1.114  0.1094  0.5021  0.4550
  412TIP3    H1 1200   1.165   5.538   1.040  0.9091 -0.3176 -0.3935
  412TIP3    H2 1201   1.306   5.564   1.090  1.3496 -2.1789 -0.5719
  413TIP3   OH2 1202   1.023   3.827   5.414  0.1029  0.3818  0.7913
  413TIP3    H1 1203   1.107   3.829   5.368 -0.2299 -1.4289 -0.0107
  413TIP3    H2 1204   0.995   3.918   5.417  1.7302  0.9395  0.4005
  414TIP3   OH2 1205   5.130   3.121   5.126  0.4595  0.4031  0.2907
  414TIP3    H1 1206   5.222   3.147   5.126  0.6242 -0.1488 -0.2734
  414TIP3    H2 1207   5.109   3.104   5.034 -0.0415 -0.0196  0.4726
  415TIP3   OH2 1208   3.089   5.334   1.839 -0.2484 -0.6671  0.1699
  415TIP3    H1 1209   3.166   5.331   1.782 -0.2883  1.3596 -0.0622
  415TIP3    H2 1210   3.118   5.293   1.920  0.7467 -0.8842 -0.2733
  416TIP3   OH2 1211   6.566   3.402   1.995 -0.0775 -0.6061 -0.0770
  416TIP3    H1 1212   6.657   3.387   1.971 -0.2921  0.5323 -1.8507
  416TIP3    H2 1213   6.567   3.420   2.089  1.6013  0.0381 -0.1981
  417TIP3   OH2 1214   2.260   0.420   0.864 -0.3489 -0.0058 -0.3639
  417TIP3    H1 1215   2.215   0.423   0.949  0.0025 -0.2882 -0.1650
  417TIP3    H2 1216   2.213   0.352   0.816  0.0346 -0.4929 -0.0564
  418TIP3   OH2 1217   5.032   3.642   3.357  0.8795  0.2881  0.6990
  418TIP3    H1 1218   5.102   3.687   3.308 -0.5287 -0.9836 -2.8327
  418TIP3    H2 1219   5.068   3.554   3.374  0.7588  0.1777  0.3905
  419TIP3   OH2 1220   6.108   4.911   2.380  0.5041 -0.3668 -0.2550
  419TIP3    H1 1221   6.131   4.993   2.336  1.2326  0.0080  0.7909
  419TIP3    H2 1222   6.192   4.872   2.404  0.1805  0.5042  2.6875
  420TIP3   OH2 1223   4.916   2.699   0.316  0.3221  0.3493  0.1493
  420TIP3    H1 1224   4.883   2.778   0.274  1.9125  0.7027 -0.4826
  420TIP3    H2 1225   4.969   2.730   0.389  1.7053 -0.0643 -0.6422
  421TIP3   OH2 1226   2.016   3.202   0.715 -0.1048 -0.5712 -0.1255
  421TIP3    H1 1227   2.082   3.163   0.658  0.3238  0.2724 -0.2326
  421TIP3    H2 1228   1.939   3.147   0.704  0.3682 -1.1701 -0.5313
  422TIP3   OH2 1229   0.429   2.970   1.471  0.1178 -0.1566  0.3380
  422TIP3    H1 1230   0.462   2.999   1.386  0.5796 -1.1150  0.1780
  422TIP3    H2 1231   0.372   3.041   1.501  1.5993  1.1376  0.1970
  423TIP3   OH2 1232   1.695   0.732   2.585  0.0989 -0.5310 -0.2188
  423TIP3    H1 1233   1.767   0.689   2.540  1.3567  0.1278  1.0885
  423TIP3    H2 1234   1.721   0.733   2.677 -2.6048 -2.3120  0.7101
  424TIP3   OH2 1235   2.621   1.881   1.925  0.0657  0.2838 -0.1284
  424TIP3    H1 1236   2.574   1.815   1.873  0.5362 -0.2082  0.0591
  424TIP3    H2 1237   2.641   1.950   1.862 -0.8709  0.4872 -0.2182
  425TIP3   OH2 1238   4.727   3.009   5.408 -0.4363 -0.4844 -0.1943
  425TIP3    H1 1239   4.719   2.973   5.496  0.5619  0.0766  0.1399
  425TIP3    H2 1240   4.752   2.934   5.353  0.2985 -0.5689  0.2504
  426TIP3   OH2 1241   0.468   2.683   2.638 -0.3012  0.8008  0.5084
  426TIP3    H1 1242   0.488   2.709   2.728 -0.9286 -2.5152  1.7407
  426TIP3    H2 1243   0.534   2.727   2.585  2.0571  0.4363  2.9446
  427TIP3   OH2 1244   5.291   2.101   3.350  0.2747  0.3321 -0.3392
  427TIP3    H1 1245   5.265   2.188   3.380 -1.7971  0.1365 -1.3588
  427TIP3    H2 1246   5.295   2.109   3.255 -0.8297 -0.8666 -0.5191
  428TIP3   OH2 1247   6.278   3.374   2.574  0.0534  0.5673  0.8358
  428TIP3    H1 1248   6.293   3.343   2.663  0.2755  0.0042  0.6076
  428TIP3    H2 1249   6.362   3.412   2.547 -0.2324  1.4231  1.1318
  429TIP3   OH2 1250   1.163   3.624   2.945 -0.8393  0.2815 -0.3363
  429TIP3    H1 1251   1.137   3.588   2.861 -0.9892  0.8512 -0.5387
  429TIP3    H2 1252   1.104   3.699   2.958  0.6304  1.5633 -0.7753
  430TIP3   OH2 1253   5.843   0.140   3.209 -0.3703 -0.6172  0.8527
  430TIP3    H1 1254   5.859   0.213   3.149 -1.0607 -0.2060  1.1589
  430TIP3    H2 1255   5.886   0.065   3.168 -0.4683 -0.2482  0.0600
  431TIP3   OH2 1256   6.363   2.269   1.976  0.1470  0.2590 -0.3961
  431TIP3    H1 1257   6.270   2.251   1.959  0.3420 -2.7668  1.1163
  431TIP3    H2 1258   6.410   2.202   1.927  1.4848  0.9302 -0.0805
  432TIP3   OH2 1259   6.647   2.655   2.633 -0.3441 -0.3320  0.1677
  432TIP3    H1 1260   6.573   2.594   2.636 -0.8378  0.2937  2.3576
  432TIP3    H2 1261   6.715   2.613   2.686 -0.6104  0.8418  1.5106
  433TIP3   OH2 1262   6.231   0.945   1.168  0.3031  0.3320  0.2321
  433TIP3    H1 1263   6.234   1.040   1.157 -1.5640  0.3116 -0.8893
  433TIP3    H2 1264   6.189   0.912   1.089 -0.2625 -1.3085  1.1478
  434TIP3   OH2 1265   3.209   6.004   2.774 -0.6365  0.1350 -0.7352
  434TIP3    H1 1266   3.265   5.964   2.708  0.2045  0.4234 -0.2180
  434TIP3    H2 1267   3.179   5.931   2.828  1.9878  0.2253  1.0468
  435TIP3   OH2 1268   1.128   0.101   4.692  0.4715  0.6440  0.0784
  435TIP3    H1 1269   1.216   0.081   4.725  0.2418 -0.4240  0.0777
  435TIP3    H2 1270   1.077   0.021   4.710 -1.1188  2.0151  2.1983
  436TIP3   OH2 1271   1.028   1.888   3.636  0.1368 -0.2957  0.2914
  436TIP3    H1 1272   1.050   1.981   3.631 -1.1195 -0.0374 -1.4150
  436TIP3    H2 1273   1.086   1.853   3.703  0.4656  1.7659  1.1519
  437TIP3   OH2 1274   0.092   4.508   3.836  0.0656 -0.0491 -0.4192
  437TIP3    H1 1275   0.010   4.461   3.824 -0.0767  0.1240 -0.1281
  437TIP3    H2 1276   0.158   4.439   3.846  0.0681 -0.1946 -1.3659
  438TIP3   OH2 1277   1.107   4.894   1.474  0.1934 -0.0189  0.0962
  438TIP3    H1 1278   1.093   4.982   1.438  0.8986 -0.3117 -0.9419
  438TIP3    H2 1279   1.069   4.835   1.409  1.7878 -0.5714 -0.3910
  439TIP3   OH2 1280   0.151   1.099   3.158  0.1708  0.7194 -0.0769
  439TIP3    H1 1281   0.192   1.140   3.234  0.9911 -0.1889 -0.0038
  439TIP3    H2 1282   0.224   1.059   3.111 -0.5373 -0.2183 -0.4024
  440TIP3   OH2 1283   2.771   2.521   4.253  0.5924 -0.7129 -0.4764
  440TIP3    H1 1284   2.749   2.434   4.285 -1.0439 -1.1327 -2.5109
  440TIP3    H2 1285   2.854   2.510   4.207  1.6333 -0.6233  1.2618
  441TIP3   OH2 1286   1.831   1.194   0.254 -1.0438 -0.5086 -0.1189
  441TIP3    H1 1287   1.891   1.126   0.223  0.5499  0.5946  0.4063
  441TIP3    H2 1288   1.806   1.165   0.342 -0.7089 -0.6165 -0.0592
  442TIP3   OH2 1289   2.426   3.006   3.059 -0.1964 -0.0606 -0.0887
  442TIP3    H1 1290   2.460   2.968   2.978  1.2426  1.3769 -0.2033
  442TIP3    H2 1291   2.455   2.946   3.128  1.2205  0.2749 -0.3581
  443TIP3   OH2 1292   3.795   0.925   2.203 -0.2631  0.2672  0.3661
  443TIP3    H1 1293   3.871   0.968   2.163 -1.1038  1.0120 -0.4685
  443TIP3    H2 1294   3.760   0.989   2.263 -0.4428  0.0559  0.4877
  444TIP3   OH2 1295   0.050   1.434   5.121  0.3412  0.3789  0.4099
  444TIP3    H1 1296  -0.046   1.439   5.129  0.2290 -0.1174 -0.4705
  444TIP3    H2 1297   0.070   1.484   5.042  0.3905 -2.4993 -1.5795
  445TIP3   OH2 1298   4.579   2.164   2.102 -0.1277  0.0468 -0.4062
  445TIP3    H1 1299   4.612   2.089   2.151 -0.8470 -0.6700 -1.0046
  445TIP3    H2 1300   4.494   2.182   2.141 -0.5857 -0.3564 -1.2015
  446TIP3   OH2 1301   0.340   0.199   2.179 -0.0742 -0.5132  0.8748
  446TIP3    H1 1302   0.291   0.275   2.209  1.2946  0.7831 -0.0176
  446TIP3    H2 1303   0.403   0.235   2.116  0.9582 -2.3181  0.8227
  447TIP3   OH2 1304   3.043   2.238   4.948 -0.5737  0.2557 -0.1389
  447TIP3    H1 1305   3.071   2.200   4.865 -1.5758 -0.1516 -0.3002
  447TIP3    H2 1306   2.955   2.203   4.962 -0.2496 -0.0276  1.3121
  448TIP3   OH2 1307   2.212   3.016   0.854  0.6765  0.7248 -0.1809
  448TIP3    H1 1308   2.117   3.018   0.853  0.5631 -1.6421 -1.5960
  448TIP3    H2 1309   2.239   3.106   0.835 -1.2573  1.2391 -0.6722
  449TIP3   OH2 1310   6.692   4.570   3.416  0.1211  0.2337 -0.8955
  449TIP3    H1 1311   6.620   4.520   3.455  1.1006  1.2022  2.5893
  449TIP3    H2 1312   6.654   4.657   3.400  0.6437  1.2476  2.4149
  450TIP3   OH2 1313   5.020   4.786   3.841 -0.3167 -0.5862 -0.4081
  450TIP3    H1 1314   4.988   4.746   3.922 -0.6402  1.2220  0.4026
  450TIP3    H2 1315   4.942   4.798   3.787 -0.4719  0.3415  0.0010
  451TIP3   OH2 1316   3.768   1.263   4.771  0.3098  0.0601 -0.2540
  451TIP3    H1 1317   3.698   1.215   4.815 -0.1651  2.2254  1.5206
  451TIP3    H2 1318   3.738   1.273   4.681 -0.9324 -0.3798  0.0975
  452TIP3   OH2 1319   7.083   0.450   3.556 -0.2488 -0.2027 -0.0997
  452TIP3    H1 1320   7.041   0.436   3.472  0.6307 -1.5217 -0.3409
  452TIP3    H2 1321   7.029   0.401   3.618 -1.7737  1.9727  0.4139
  453TIP3   OH2 1322   5.613  -0.012   5.676 -0.1486 -0.4406 -0.2956
  453TIP3    H1 1323   5.649   0.075   5.658  1.7305 -1.1433 -0.1683
  453TIP3    H2 1324   5.553  -0.029   5.603  1.4434 -0.0666 -1.7681
  454TIP3   OH2 1325   6.326   1.614   3.885 -0.0242 -0.3145 -0.2142
  454TIP3    H1 1326   6.388   1.591   3.954  0.3671 -0.4593 -0.6013
  454TIP3    H2 1327   6.257   1.662   3.929 -0.0998 -0.9478  0.3794
  455TIP3   OH2 1328   3.165   0.633   5.683 -0.2657 -0.0380 -0.2208
  455TIP3    H1 1329   3.224   0.567   5.719  0.9359  0.8155 -0.5869
  455TIP3    H2 1330   3.077   0.604   5.710  0.3883 -0.7975  1.1802
  456TIP3   OH2 1331   5.575   4.291   0.128 -0.2841  0.2392  0.2141
  456TIP3    H1 1332   5.596   4.273   0.219 -1.2114 -0.7231  0.2599
  456TIP3    H2 1333   5.528   4.374   0.130  1.3600  1.2095  0.3683
  457TIP3   OH2 1334   7.119   2.154   5.554 -0.0784  0.3249 -0.5500
  457TIP3    H1 1335   7.212   2.161   5.534  0.1169 -0.1534  0.1720
  457TIP3    H2 1336   7.084   2.242   5.537  0.1738  0.1130 -2.4057
  458TIP3   OH2 1337   4.533   6.599   3.905 -0.2983  0.0836 -0.2352
  458TIP3    H1 1338   4.503   6.679   3.862 -0.5142  0.5842  0.8148
  458TIP3    H2 1339   4.471   6.584   3.975 -1.3280 -2.0463 -1.4923
  459TIP3   OH2 1340   3.052   0.669   2.963 -0.4541  0.0167 -0.1050
  459TIP3    H1 1341   2.987   0.683   2.893 -1.1538  0.4596  0.6100
  459TIP3    H2 1342   3.055   0.574   2.974 -0.4973 -0.0446 -0.5942
  460TIP3   OH2 1343   6.536   0.659   3.893 -0.2184  0.4907  0.5800
  460TIP3    H1 1344   6.590   0.625   3.821  0.1061  2.3312 -0.0847
  460TIP3    H2 1345   6.509   0.580   3.941  1.6615 -0.6054 -0.0463
  461TIP3   OH2 1346   0.270   0.575   1.016 -0.0221 -0.1505 -0.1355
  461TIP3    H1 1347   0.355   0.607   1.046 -0.2150  0.2082  0.0309
  461TIP3    H2 1348   0.289   0.490   0.976  0.1920 -0.8787  1.4106
  462TIP3   OH2 1349   0.181   0.908   0.330  0.6909 -0.3951  0.3173
  462TIP3    H1 1350   0.199   0.996   0.295 -1.0323  0.1545  0.6630
  462TIP3    H2 1351   0.109   0.876   0.275 -1.0597 -0.1240  2.3245
  463TIP3   OH2 1352   0.759   0.788   4.541 -0.2958  0.0158 -0.3465
  463TIP3    H1 1353   0.692   0.850   4.512  0.9908  2.1353  0.9352
  463TIP3    H2 1354   0.719   0.702   4.531 -2.1128  1.0077 -2.3944
  464TIP3   OH2 1355   0.772   3.968   1.353  0.0653  0.6435  0.0420
  464TIP3    H1 1356   0.858   3.940   1.384 -0.0951  0.1823  0.0808
  464TIP3    H2 1357   0.712   3.938   1.422 -0.1405  0.8320 -0.0563
  465TIP3   OH2 1358   6.125   1.686   1.626 -0.4198 -0.1738 -0.3718
  465TIP3    H1 1359   6.147   1.602   1.667  2.3935  0.8398  0.4066
  465TIP3    H2 1360   6.100   1.743   1.699  0.0125  0.3313 -0.6150
  466TIP3   OH2 1361   3.148   6.774   0.373 -0.5404 -0.1223  0.0418
  466TIP3    H1 1362   3.185   6.736   0.294 -0.2140 -0.5237  0.3793
  466TIP3    H2 1363   3.053   6.776   0.356 -0.8175 -2.8380  0.6762
  467TIP3   OH2 1364   5.334   3.877   5.564 -0.1754 -0.1074  0.5521
  467TIP3    H1 1365   5.312   3.937   5.635 -0.3639  0.9969 -0.4113
  467TIP3    H2 1366   5.264   3.890   5.499  0.2899 -0.6916 -0.0853
  468TIP3   OH2 1367   6.601   3.171   5.836  0.4597 -0.0117 -0.0134
  468TIP3    H1 1368   6.513   3.207   5.824  0.7231  0.0407 -2.2315
  468TIP3    H2 1369   6.639   3.225   5.906 -1.0614  0.3063  0.6172
  469TIP3   OH2 1370   0.249   0.435   4.251  0.0521 -0.1735 -0.2470
  469TIP3    H1 1371   0.175   0.496   4.247 -0.7100 -1.1212 -1.5790
  469TIP3    H2 1372   0.259   0.404   4.161  0.3426 -2.0825  0.4039
  470TIP3   OH2 1373   4.045   1.605   3.165  0.5214 -0.1287  0.2561
  470TIP3    H1 1374   4.088   1.646   3.240 -0.7855  1.0363  0.4238
  470TIP3    H2 1375   4.026   1.678   3.105  0.6928 -0.9049 -0.7745
  471TIP3   OH2 1376   1.317   3.397   1.738  0.5509  0.3864 -0.1540
  471TIP3    H1 1377   1.276   3.331   1.794  2.5037  1.2644  2.5191
  471TIP3    H2 1378   1.305   3.479   1.785  1.9640  1.2465 -1.2227
  472TIP3   OH2 1379   4.925   4.319   3.661  0.2010 -0.3237 -0.4483
  472TIP3    H1 1380   4.873   4.262   3.604  0.3571  1.0305 -2.0384
  472TIP3    H2 1381   4.867   4.394   3.678 -0.5878 -1.5191  2.8607
  473TIP3   OH2 1382   5.372   1.234   3.056  0.4448  0.1332 -0.9197
  473TIP3    H1 1383   5.381   1.139   3.054 -2.2753 -0.3018  1.6641
  473TIP3    H2 1384   5.420   1.261   3.134 -0.4555  0.5975 -0.5136
  474TIP3   OH2 1385   3.829   5.258   5.189  0.1559  0.1364  0.2898
  474TIP3    H1 1386   3.744   5.227   5.156  1.9889 -1.4718 -3.6242
  474TIP3    H2 1387   3.841   5.344   5.148  0.6175  0.1150  0.3765
  475TIP3   OH2 1388   3.786   1.975   4.716 -0.1598  0.1789 -0.0545
  475TIP3    H1 1389   3.754   2.050   4.665 -0.5618 -0.2750 -0.4765
  475TIP3    H2 1390   3.721   1.964   4.785  0.1865  0.5557  0.3378
  476TIP3   OH2 1391   0.940   0.678   0.731  0.0999 -0.0539  0.1534
  476TIP3    H1 1392   0.910   0.698   0.642  0.2877  0.7314  0.2553
  476TIP3    H2 1393   0.894   0.741   0.787  2.2486  1.5656  0.2610
  477TIP3   OH2 1394   3.919   1.570   0.943 -0.0377 -0.1006 -0.2060
  477TIP3    H1 1395   3.920   1.490   0.890 -0.6174  1.4599 -2.7571
  477TIP3    H2 1396   3.842   1.562   0.998 -1.0002 -0.6855 -1.5707
  478TIP3   OH2 1397   4.044   5.801   4.992  0.0775 -0.3563  0.3279
  478TIP3    H1 1398   4.015   5.719   5.032 -2.2201 -0.2492 -0.9057
  478TIP3    H2 1399   4.130   5.817   5.029 -0.0830 -2.4937  1.8170
  479TIP3   OH2 1400   6.505   0.453   4.705  0.2195  0.2383 -0.4728
  479TIP3    H1 1401   6.438   0.455   4.636 -0.0727 -1.3268 -0.2649
  479TIP3    H2 1402   6.489   0.533   4.756 -0.9015  0.3547 -0.9695
  480TIP3   OH2 1403   5.762   3.571   0.445  0.1427 -0.1207  0.1906
  480TIP3    H1 1404   5.800   3.532   0.524  1.1223  1.4356  0.5273
  480TIP3    H2 1405   5.835   3.573   0.383 -0.2498 -0.0217 -0.2670
  481TIP3   OH2 1406   2.093   4.284   0.296  0.1352 -0.0644 -0.2691
  481TIP3    H1 1407   2.171   4.299   0.243  0.4613 -1.1975 -0.1175
  481TIP3    H2 1408   2.043   4.366   0.287  2.0661  1.3329  0.9279
  482TIP3   OH2 1409   0.254   3.688   3.662 -0.4473 -0.2363 -0.5404
  482TIP3    H1 1410   0.295   3.733   3.589  0.3125 -1.1247 -0.6785
  482TIP3    H2 1411   0.181   3.744   3.687  0.2998  0.9132 -0.8848
  483TIP3   OH2 1412   1.613   1.436   1.444  0.0576  0.1870  0.4264
  483TIP3    H1 1413   1.656   1.377   1.382 -0.1440  1.1566 -0.6584
  483TIP3    H2 1414   1.521   1.407   1.444 -0.0607  0.5562 -0.1761
  484TIP3   OH2 1415   3.652   1.596   1.032 -0.0549 -0.5882  0.3953
  484TIP3    H1 1416   3.561   1.607   1.003 -0.5269  1.3952  2.3552
  484TIP3    H2 1417   3.697   1.674   1.001  0.1361  0.0825  2.2049
  485TIP3   OH2 1418   3.733   2.046   1.525  0.1383  0.5665  0.3005
  485TIP3    H1 1419   3.657   1.989   1.511 -0.9559  2.2271 -0.9915
  485TIP3    H2 1420   3.707   2.103   1.598 -0.3650  1.8850 -0.8730
  486TIP3   OH2 1421   3.738   2.107   0.308  0.0768 -0.2099  0.2895
  486TIP3    H1 1422   3.830   2.086   0.328  0.6146  1.5061 -0.1970
  486TIP3    H2 1423   3.690   2.083   0.387  0.5455 -3.2587 -0.2255
  487TIP3   OH2 1424   0.617   1.475   1.688  0.1992 -1.0668 -0.2859
  487TIP3    H1 1425   0.552   1.406   1.697  0.1602 -1.2507 -1.7079
  487TIP3    H2 1426   0.566   1.556   1.682  0.1114 -1.1668 -0.9648
  488TIP3   OH2 1427   3.624   5.930   3.803  0.0621  0.4592  0.1911
  488TIP3    H1 1428   3.686   5.878   3.854  0.1356  0.8309  0.4807
  488TIP3    H2 1429   3.567   5.972   3.868  0.4880  1.3538  0.0009
  489TIP3   OH2 1430   1.003   3.153   5.571 -0.0607 -0.7004 -0.5623
  489TIP3    H1 1431   0.964   3.111   5.648  0.2627  0.0346  0.0121
  489TIP3    H2 1432   0.928   3.182   5.519 -0.2999  0.4923  0.4173
  490TIP3   OH2 1433   6.304   2.187   5.850  0.1462 -0.6781 -0.2425
  490TIP3    H1 1434   6.336   2.234   5.928  2.9830 -0.1720 -1.5904
  490TIP3    H2 1435   6.221   2.149   5.878 -1.0541  2.9193  1.7727
  491TIP3   OH2 1436   1.009   1.626   5.173  0.5226 -0.2279  0.7897
  491TIP3    H1 1437   1.046   1.670   5.096 -1.3710  2.6502  1.3641
  491TIP3    H2 1438   0.931   1.581   5.140 -0.1196  0.7528  0.9427
  492TIP3   OH2 1439   1.162   2.450   1.763  0.0076 -0.2549 -0.5198
  492TIP3    H1 1440   1.104   2.475   1.691 -2.1057 -1.7150  0.5628
  492TIP3    H2 1441   1.149   2.518   1.829 -1.0493 -0.9059 -0.0215
  493TIP3   OH2 1442   4.474   4.282   0.650  0.2371  0.1094  0.1178
  493TIP3    H1 1443   4.493   4.375   0.641 -1.7964  0.5484 -0.0675
  493TIP3    H2 1444   4.524   4.255   0.726  4.3487  0.2606 -2.2233
  494TIP3   OH2 1445  -0.005   1.947   4.062 -0.0502  0.1397  0.3621
  494TIP3    H1 1446  -0.001   1.854   4.085  0.9367 -0.4959 -2.0714
  494TIP3    H2 1447   0.084   1.978   4.073  0.0755  0.2394 -0.7685
  495TIP3   OH2 1448   6.627   5.607   1.020  0.6325  0.2831  0.2085
  495TIP3    H1 1449   6.534   5.629   1.023  0.8438  1.2184  0.1583
  495TIP3    H2 1450   6.672   5.691   1.032  1.4728 -0.2359  0.7853
  496TIP3   OH2 1451   4.356   4.405   3.182 -0.0185  0.3785 -0.1177
  496TIP3    H1 1452   4.376   4.332   3.241  1.1311  1.7958  1.3263
  496TIP3    H2 1453   4.415   4.392   3.107  0.9094  0.3838  0.6027
  497TIP3   OH2 1454   0.978   1.403   1.547 -0.4915  0.1363 -0.1627
  497TIP3    H1 1455   1.067   1.369   1.550 -1.1428 -1.6831 -0.3058
  497TIP3    H2 1456   0.938   1.375   1.629 -1.8854 -2.0114 -1.4810
  498TIP3   OH2 1457   0.833   5.118   5.585 -0.3313 -0.2728  0.2668
  498TIP3    H1 1458   0.888   5.140   5.660 -1.4901 -0.6730  1.2619
  498TIP3    H2 1459   0.843   5.023   5.574 -1.4877 -0.5126  1.0419
  499TIP3   OH2 1460   3.152   0.435   5.294  0.3173 -0.1430  0.0086
  499TIP3    H1 1461   3.153   0.340   5.306 -0.5365 -0.1811 -0.1808
  499TIP3    H2 1462   3.206   0.469   5.366 -0.4482 -0.6963  0.8667
  500TIP3   OH2 1463   1.300   2.167   2.404  0.4870  0.1775  0.1268
  500TIP3    H1 1464   1.264   2.107   2.339  1.5924  0.6628 -0.9733
  500TIP3    H2 1465   1.324   2.245   2.354  0.1656  1.0777  1.3360
  501TIP3   OH2 1466   4.821   4.033   1.809  0.1502 -0.0000 -0.2422
  501TIP3    H1 1467   4.875   4.100   1.769 -2.8268  1.6578 -1.8027
  501TIP3    H2 1468   4.767   4.080   1.873 -2.1847 -0.7171 -1.5438
  502TIP3   OH2 1469   1.582   0.606   3.704  0.5408 -0.2184  0.0466
  502TIP3    H1 1470   1.646   0.634   3.769  0.3568  0.0332  0.1188
  502TIP3    H2 1471   1.498   0.638   3.737  0.4211 -0.2575 -0.2168
  503TIP3   OH2 1472   4.032   4.197   1.428 -0.1206  0.4761 -0.3056
  503TIP3    H1 1473   3.958   4.257   1.417 -1.2456 -0.6557  0.6606
  503TIP3    H2 1474   4.000   4.133   1.492  1.4768 -0.4267 -0.3790
  504TIP3   OH2 1475   3.503   5.509   0.795 -0.3240  0.4068 -0.1374
  504TIP3    H1 1476   3.579   5.461   0.828 -1.4546 -0.1621  1.8154
  504TIP3    H2 1477   3.430   5.448   0.802 -0.9166  0.7633 -2.4817
  505TIP3   OH2 1478   3.871   2.380   3.132  0.5274 -0.4081 -0.2952
  505TIP3    H1 1479   3.921   2.385   3.051  0.3810  1.9082 -0.3036
  505TIP3    H2 1480   3.802   2.445   3.122 -0.0317 -0.6974  1.3473
  506TIP3   OH2 1481   3.370   2.476   4.411  0.2588 -0.6360  0.1072
  506TIP3    H1 1482   3.432   2.457   4.481 -0.0904 -0.4994  0.4593
  506TIP3    H2 1483   3.388   2.567   4.387 -0.7319 -0.1376  1.1799
  507TIP3   OH2 1484   4.148   4.959   2.570 -0.6651  0.3158  0.3367
  507TIP3    H1 1485   4.055   4.947   2.553 -0.6467 -0.7213  0.8701
  507TIP3    H2 1486   4.190   4.949   2.485 -0.9531 -0.2579  0.2617
  508TIP3   OH2 1487   6.070   5.854   3.593 -0.4642 -0.2410  0.2587
  508TIP3    H1 1488   5.982   5.821   3.609 -0.2800 -0.3592  1.1096
  508TIP3    H2 1489   6.122   5.775   3.575 -0.0124 -0.4972  2.3492
  509TIP3   OH2 1490   0.186   6.667   5.456  0.2303 -0.5812  0.1968
  509TIP3    H1 1491   0.209   6.756   5.482  0.5163 -0.7557  0.5454
  509TIP3    H2 1492   0.093   6.659   5.476  0.5085 -0.8138  1.4687
  510TIP3   OH2 1493   5.835   4.434   1.736  0.0341 -0.3785 -0.1411
  510TIP3    H1 1494   5.842   4.482   1.654  0.9903  2.2376  1.3379
  510TIP3    H2 1495   5.744   4.404   1.739 -0.3053  0.4118 -1.6463
  511TIP3   OH2 1496   3.101   0.342   3.002  0.2276  0.9092 -0.3764
  511TIP3    H1 1497   3.155   0.409   2.961 -0.6569  0.9671 -1.5021
  511TIP3    H2 1498   3.108   0.266   2.944  1.5942 -0.1920  1.1172
  512TIP3   OH2 1499   2.932   6.377   3.165 -0.4612 -0.3251 -0.2189
  512TIP3    H1 1500   2.981   6.452   3.199 -0.9242  0.2192 -0.7155
  512TIP3    H2 1501   2.910   6.325   3.242 -1.3294  0.7854  0.3095
  513TIP3   OH2 1502   2.365   4.881   5.610  0.0268  0.1444 -0.2721
  513TIP3    H1 1503   2.334   4.866   5.699 -1.7768  3.8600 -0.1190
  513TIP3    H2 1504   2.287   4.869   5.555 -0.4118  3.6152 -0.5858
  514TIP3   OH2 1505   2.041   2.797   4.638 -0.0436  0.6426  0.3317
  514TIP3    H1 1506   2.025   2.746   4.717  1.1046 -1.8451 -0.9254
  514TIP3    H2 1507   2.107   2.746   4.590  0.2833  2.7499 -1.6047
  515TIP3   OH2 1508   4.920   5.195   5.042 -0.1835  0.2208  0.1037
  515TIP3    H1 1509   5.001   5.206   5.092  0.0330  0.5088 -0.3094
  515TIP3    H2 1510   4.857   5.162   5.106  0.6597 -1.5158  0.1103
  516TIP3   OH2 1511   4.415   1.408   1.054 -0.3249  0.3862  0.1257
  516TIP3    H1 1512   4.401   1.438   0.965  0.1009 -1.4118 -0.5852
  516TIP3    H2 1513   4.344   1.346   1.070  0.4475 -0.4307  0.4819
  517TIP3   OH2 1514   3.854   6.816   1.921 -0.3751  0.3662  0.7634
  517TIP3    H1 1515   3.910   6.748   1.959  1.0152  0.7865 -0.4233
  517TIP3    H2 1516   3.773   6.770   1.898 -0.6251 -0.2317  2.6328
  518TIP3   OH2 1517   0.963   0.164   0.506  0.2613 -0.0490  0.1021
  518TIP3    H1 1518   0.902   0.234   0.530 -1.5201 -1.4751 -0.1429
  518TIP3    H2 1519   1.008   0.198   0.428 -1.3867  0.4039 -0.6893
  519TIP3   OH2 1520   2.751   3.039   2.157 -0.0191 -0.3036 -0.3150
  519TIP3    H1 1521   2.660   3.047   2.185  0.4999  0.8993  1.1641
  519TIP3    H2 1522   2.795   2.996   2.231  0.9985  1.0834 -0.0685
  520TIP3   OH2 1523   0.506   4.104   5.106 -0.1334  0.2494 -0.0403
  520TIP3    H1 1524   0.458   4.149   5.036 -0.6404 -0.0024  0.1372
  520TIP3    H2 1525   0.537   4.175   5.163  4.3504  0.9576 -2.8746
  521TIP3   OH2 1526   3.128   0.844   4.096  0.7043  0.2234  0.1878
  521TIP3    H1 1527   3.177   0.818   4.018  0.0090 -0.4405 -0.0272
  521TIP3    H2 1528   3.078   0.921   4.068  0.1086 -0.2798 -0.1621
  522TIP3   OH2 1529   4.266   4.762   0.635  0.2485  0.2155  0.0217
  522TIP3    H1 1530   4.254   4.851   0.601 -1.4889  0.9557  2.3211
  522TIP3    H2 1531   4.255   4.706   0.558  2.1086  1.9338 -1.6520
  523TIP3   OH2 1532   1.008   6.059   1.910 -0.4996  0.5444  0.3096
  523TIP3    H1 1533   1.009   5.976   1.864  1.8309  0.4725  0.3692
  523TIP3    H2 1534   1.028   6.036   2.001 -0.6641  1.0873  0.4867
  524TIP3   OH2 1535   1.475   0.211   3.289 -0.3616  0.3705 -0.0931
  524TIP3    H1 1536   1.480   0.248   3.201 -1.3648 -0.2891 -0.4397
  524TIP3    H2 1537   1.382   0.196   3.304 -0.0862 -0.9867  0.4644
  525TIP3   OH2 1538   5.601   6.315   3.753 -0.6522 -0.1359 -0.1456
  525TIP3    H1 1539   5.681   6.339   3.707  0.5430 -1.3465  1.2193
  525TIP3    H2 1540   5.538   6.298   3.683  0.3354  0.5847 -1.2557
  526TIP3   OH2 1541   2.468   2.058   1.368 -0.2161 -0.6735 -0.1787
  526TIP3    H1 1542   2.516   2.129   1.411  0.0796 -0.7169 -0.4402
  526TIP3    H2 1543   2.524   2.031   1.296 -0.3158 -1.1968 -0.0588
  527TIP3   OH2 1544   0.560   2.102   4.487 -0.1900  0.4392  0.3454
  527TIP3    H1 1545   0.516   2.087   4.403 -0.6584 -0.3379  0.7161
  527TIP3    H2 1546   0.629   2.036   4.489  0.2129  0.8562  0.3081
  528TIP3   OH2 1547   7.080   2.280   4.231 -0.0123  0.2540  0.7842
  528TIP3    H1 1548   7.039   2.205   4.275 -0.5670  0.1288  0.0797
  528TIP3    H2 1549   7.174   2.263   4.237 -0.1118 -0.2108  1.1279
  529TIP3   OH2 1550   1.128   3.129   5.898 -0.0250  0.3832  0.2152
  529TIP3    H1 1551   1.075   3.067   5.947  0.6078  0.1544  0.6281
  529TIP3    H2 1552   1.143   3.086   5.813 -2.2531  1.3602 -0.7428
  530TIP3   OH2 1553   6.731   2.404   4.707 -0.1437 -0.6447 -0.1980
  530TIP3    H1 1554   6.810   2.358   4.677 -1.0155 -2.0118 -0.4729
  530TIP3    H2 1555   6.736   2.489   4.665  2.1063  0.0269  1.2265
  531TIP3   OH2 1556   1.272   0.066   5.042 -0.5811  1.0285 -0.3831
  531TIP3    H1 1557   1.296   0.136   5.102 -1.4753  0.4104  0.7571
  531TIP3    H2 1558   1.309   0.091   4.958  0.7987  1.8769  0.4518
  532TIP3   OH2 1559   2.700   3.672   3.922 -0.3136  0.0002  0.0259
  532TIP3    H1 1560   2.634   3.722   3.971 -0.9899  0.5310 -1.3657
  532TIP3    H2 1561   2.781   3.722   3.932 -0.6532  0.5948 -0.1428
  533TIP3   OH2 1562   5.271   3.540   0.246  0.3812 -0.4584 -0.0559
  533TIP3    H1 1563   5.340   3.473   0.239  0.2313 -0.7004  0.7333
  533TIP3    H2 1564   5.225   3.519   0.327 -0.4560 -0.1321 -0.4311
  534TIP3   OH2 1565   5.571   0.686   2.354  0.1868 -0.2332 -0.3016
  534TIP3    H1 1566   5.572   0.624   2.427 -2.5883 -0.4112 -0.3145
  534TIP3    H2 1567   5.566   0.631   2.276  0.3700 -0.0233 -0.4617
  535TIP3   OH2 1568   1.610   4.707   5.207  0.1739  0.1173 -0.2193
  535TIP3    H1 1569   1.593   4.703   5.113 -0.0250 -0.4994 -0.1620
  535TIP3    H2 1570   1.532   4.669   5.247  0.2955  0.2950  0.1919
  536TIP3   OH2 1571   6.344   5.165   3.010  0.0674 -0.5978 -0.7458
  536TIP3    H1 1572   6.308   5.077   3.007 -2.7799  0.4837 -1.0831
  536TIP3    H2 1573   6.362   5.181   3.103  0.1594 -1.3363 -0.6299
  537TIP3   OH2 1574   2.386   1.768   4.392  0.2563 -0.3903  0.4393
  537TIP3    H1 1575   2.325   1.837   4.366  1.2075  0.0860 -0.6076
  537TIP3    H2 1576   2.333   1.688   4.391 -0.9955  0.3489  2.2003
  538TIP3   OH2 1577   2.077   4.594   1.209  0.2068  0.1127  0.3100
  538TIP3    H1 1578   2.004   4.570   1.267 -0.1382  0.2652 -0.0562
  538TIP3    H2 1579   2.035   4.619   1.127  0.7143 -0.4520 -0.1293
  539TIP3   OH2 1580   5.884   2.794   0.197  0.5933 -0.0506 -0.2829
  539TIP3    H1 1581   5.943   2.811   0.123  2.2221  3.0488  1.5107
  539TIP3    H2 1582   5.937   2.743   0.259  0.8298  1.1727  0.5569
  540TIP3   OH2 1583   0.338   4.767   2.949 -0.4012 -0.3710 -0.4819
  540TIP3    H1 1584   0.349   4.672   2.953 -0.0974 -0.2974  1.8849
  540TIP3    H2 1585   0.385   4.792   2.870  0.9462 -2.0379 -0.2883
  541TIP3   OH2 1586   0.525   3.258   0.961 -0.2409 -0.2004  0.6333
  541TIP3    H1 1587   0.613   3.291   0.943 -1.0907  1.1085 -1.6570
  541TIP3    H2 1588   0.494   3.311   1.034  0.5213  0.0311  0.7965
  542TIP3   OH2 1589   2.439   6.364   2.784  0.1424 -0.5608  0.6310
  542TIP3    H1 1590   2.460   6.273   2.762  1.7831 -0.8555  3.0465
  542TIP3    H2 1591   2.405   6.361   2.873 -0.7043  1.1106  0.4117
  543TIP3   OH2 1592   3.185   4.447   3.447  0.3402 -0.0246 -0.1748
  543TIP3    H1 1593   3.206   4.468   3.538  0.5326 -0.2231 -0.1748
  543TIP3    H2 1594   3.106   4.393   3.453  0.3977 -0.1028 -0.1222
  544TIP3   OH2 1595   5.190   2.103   5.643 -0.0799 -0.3675  0.0595
  544TIP3    H1 1596   5.159   2.177   5.591  0.5084  0.7453  1.2251
  544TIP3    H2 1597   5.254   2.142   5.704 -0.3333 -1.6950  1.2203
  545TIP3   OH2 1598   1.555   5.935   0.664 -0.1055  0.2687  0.3721
  545TIP3    H1 1599   1.521   5.952   0.752 -0.1295  0.4279  0.3328
  545TIP3    H2 1600   1.636   5.986   0.659 -0.2668  0.5059  0.1925
  546TIP3   OH2 1601   0.257   3.173   1.476  0.0124 -0.3972 -0.6620
  546TIP3    H1 1602   0.331   3.230   1.494  0.2180 -0.9131  0.1791
  546TIP3    H2 1603   0.214   3.212   1.400  0.3566  0.6646 -0.3239
  547TIP3   OH2 1604   4.566   2.657   0.907 -0.3817 -0.5578  0.1562
  547TIP3    H1 1605   4.560   2.690   0.817 -1.2037  0.8345  0.7080
  547TIP3    H2 1606   4.658   2.672   0.932 -0.4450  0.1527 -0.0343
  548TIP3   OH2 1607   1.386   4.224   0.573  0.5163  0.3875  0.1419
  548TIP3    H1 1608   1.387   4.193   0.664  4.7305 -0.0425  0.1532
  548TIP3    H2 1609   1.439   4.303   0.574  0.2934  0.6167 -1.8867
  549TIP3   OH2 1610   0.508   0.456   3.430 -0.8391  0.4859  0.5893
  549TIP3    H1 1611   0.422   0.418   3.448 -0.8744 -0.8062 -1.8795
  549TIP3    H2 1612   0.559   0.438   3.509 -1.8836 -1.7482  0.8434
  550TIP3   OH2 1613   1.709   1.629   5.659 -0.4763 -0.4284 -0.0126
  550TIP3    H1 1614   1.753   1.627   5.574 -0.2892 -0.1230  0.0747
  550TIP3    H2 1615   1.671   1.716   5.665 -1.7136 -0.9190 -0.3888
  551TIP3   OH2 1616   1.978   6.606   1.552 -0.0206 -0.0702 -0.0792
  551TIP3    H1 1617   1.953   6.527   1.505 -1.5838  0.6146 -0.4290
  551TIP3    H2 1618   2.041   6.650   1.495 -1.7938  0.6898 -1.5430
  552TIP3   OH2 1619   3.768   1.397   3.416  0.1913  0.7821 -0.4454
  552TIP3    H1 1620   3.757   1.413   3.322 -0.9299  0.2358 -0.4157
  552TIP3    H2 1621   3.784   1.484   3.453 -0.3525  1.1278 -1.0062
  553TIP3   OH2 1622   3.275   5.405   4.059  0.1259 -0.1726  0.3760
  553TIP3    H1 1623   3.190   5.388   4.020 -0.1180  0.5957  0.5504
  553TIP3    H2 1624   3.293   5.327   4.112 -0.0941 -0.6866 -0.3012
  554TIP3   OH2 1625   5.947   0.633   3.333 -0.2696 -0.1935  0.2214
  554TIP3    H1 1626   5.936   0.705   3.271  0.8677 -0.0437  0.1783
  554TIP3    H2 1627   6.027   0.589   3.305 -1.1402 -1.6913  0.0447
  555TIP3   OH2 1628   5.935   4.842   1.204  0.3421  0.7580 -0.7058
  555TIP3    H1 1629   5.886   4.839   1.122  0.3807  0.0676 -0.7087
  555TIP3    H2 1630   5.947   4.936   1.221  0.5188  0.9081 -1.5990
  556TIP3   OH2 1631   6.362   0.061   1.395  0.1267 -0.7918  0.4935
  556TIP3    H1 1632   6.390  -0.027   1.422 -1.1765 -1.2219  0.5200
  556TIP3    H2 1633   6.289   0.082   1.453  0.4762  0.3622  0.5451
  557TIP3   OH2 1634   4.872   6.206   1.652 -0.6096  0.1252  0.3371
  557TIP3    H1 1635   4.828   6.131   1.693  1.4545  0.1201  2.7744
  557TIP3    H2 1636   4.961   6.174   1.635 -0.8446  0.7492 -2.6193
  558TIP3   OH2 1637   3.257   6.292   4.039  0.1442 -0.0321  0.5472
  558TIP3    H1 1638   3.330   6.232   4.027  0.3607  0.1962  0.7142
  558TIP3    H2 1639   3.182   6.248   3.999  0.6040  0.2036 -0.6161
  559TIP3   OH2 1640   3.623   1.958   4.947 -0.0787  1.2003  0.2739
  559TIP3    H1 1641   3.538   1.946   4.989 -0.0601  0.0893  0.0200
  559TIP3    H2 1642   3.687   1.927   5.012  0.3005  3.5639  1.1380
  560TIP3   OH2 1643   3.463   5.323   2.046  0.2485  0.2356 -0.0470
  560TIP3    H1 1644   3.384   5.353   2.091  1.1088  0.3481  1.4813
  560TIP3    H2 1645   3.435   5.244   1.998 -1.2876  1.5580 -1.4607
  561TIP3   OH2 1646   2.225   5.837   3.404  0.2859  0.5448 -0.6183
  561TIP3    H1 1647   2.307   5.851   3.358  0.8163  0.9842  0.4180
  561TIP3    H2 1648   2.244   5.860   3.495 -0.9527  0.5541 -0.3342
  562TIP3   OH2 1649   3.590   5.118   1.011  0.1835 -0.6892 -0.1106
  562TIP3    H1 1650   3.644   5.196   1.021  0.2238 -0.7110 -0.1608
  562TIP3    H2 1651   3.578   5.108   0.917 -0.0739 -0.5716 -0.0932
  563TIP3   OH2 1652   6.229   1.162   3.407 -0.1820  0.1396 -0.3917
  563TIP3    H1 1653   6.294   1.117   3.461  0.7530  2.0787  0.1841
  563TIP3    H2 1654   6.264   1.158   3.318  0.5008  0.7493 -0.1598
  564TIP3   OH2 1655   2.897   0.439   5.049 -0.6791  0.0787  0.3537
  564TIP3    H1 1656   2.901   0.481   5.136 -2.0140  0.1862  0.3795
  564TIP3    H2 1657   2.942   0.501   4.992  1.1054 -0.4467  1.1046
  565TIP3   OH2 1658   3.692   2.198   2.892 -0.1802 -0.4216  0.0812
  565TIP3    H1 1659   3.720   2.210   2.801 -0.5912  1.1352  0.1316
  565TIP3    H2 1660   3.605   2.239   2.896  0.2724  0.4685  1.4066
  566TIP3   OH2 1661   2.701   4.108   0.815  0.4101  0.5816 -0.4670
  566TIP3    H1 1662   2.778   4.096   0.870 -0.1283  0.7086  0.3201
  566TIP3    H2 1663   2.678   4.200   0.825  0.0024  0.4845 -0.4913
  567TIP3   OH2 1664   2.172   4.030   2.930 -0.1706  0.3712  0.1524
  567TIP3    H1 1665   2.078   4.021   2.943 -0.0577  1.1886  1.9138
  567TIP3    H2 1666   2.193   4.115   2.968  1.5244 -0.5641  1.4895
  568TIP3   OH2 1667   0.515   2.030   0.381 -0.0100  0.0085  0.0813
  568TIP3    H1 1668   0.454   2.075   0.440 -0.0042 -0.3567  0.3623
  568TIP3    H2 1669   0.471   1.949   0.357  1.0830 -1.0911  1.6632
  569TIP3   OH2 1670   3.530   3.162   5.681 -0.0151  0.5825 -0.2171
  569TIP3    H1 1671   3.583   3.082   5.674  1.2270  1.3074  0.4232
  569TIP3    H2 1672   3.486   3.169   5.596  0.4634 -0.3658 -0.5610
  570TIP3   OH2 1673   1.073   4.976   4.867 -0.4508  0.2606  0.5176
  570TIP3    H1 1674   0.992   5.023   4.885 -0.8766  0.8462 -2.4692
  570TIP3    H2 1675   1.050   4.912   4.800  1.5049  0.3515 -0.3274
  571TIP3   OH2 1676   6.229   6.544   1.211 -0.4637 -0.2452 -0.9268
  571TIP3    H1 1677   6.304   6.566   1.156 -0.2590  2.2389  0.1850
  571TIP3    H2 1678   6.153   6.578   1.163 -0.4083  0.8751 -0.2491
  572TIP3   OH2 1679   4.131   3.048   0.910 -0.3967  0.5041  0.4622
  572TIP3    H1 1680   4.165   2.969   0.867 -1.6578  0.6118 -0.8018
  572TIP3    H2 1681   4.131   3.115   0.841  0.7721  1.6840  1.5411
  573TIP3   OH2 1682   0.100   6.174   2.649 -0.1803 -0.3863 -0.0380
  573TIP3    H1 1683   0.175   6.185   2.708 -0.7050  1.2382  0.3634
  573TIP3    H2 1684   0.085   6.261   2.613 -1.2717 -0.9012 -0.8786
  574TIP3   OH2 1685   5.287   4.540   1.700  0.8903 -0.1248  0.2855
  574TIP3    H1 1686   5.366   4.561   1.651  0.1242 -0.0049 -0.9333
  574TIP3    H2 1687   5.254   4.460   1.659  0.1903  0.0206  0.5465
  575TIP3   OH2 1688   6.267   5.475   5.331 -0.3644 -0.0951 -0.2347
  575TIP3    H1 1689   6.262   5.433   5.417  0.8468 -1.9150 -0.9913
  575TIP3    H2 1690   6.305   5.561   5.349 -0.8301 -0.1438  1.1235
  576TIP3   OH2 1691   0.066   4.634   0.248 -0.2489  0.3075 -0.1104
  576TIP3    H1 1692   0.018   4.713   0.220 -1.0205 -0.2799 -0.4797
  576TIP3    H2 1693   0.148   4.638   0.199  1.7631  3.1376  3.0210
  577TIP3   OH2 1694   0.504   1.733   1.393 -0.2499 -0.7086 -0.4464
  577TIP3    H1 1695   0.511   1.708   1.301  0.6455 -2.1189 -0.0197
  577TIP3    H2 1696   0.449   1.811   1.392  1.1403  0.3359 -2.3451
  578TIP3   OH2 1697   4.836   2.187   3.700 -0.4132  0.3134  0.1920
  578TIP3    H1 1698   4.835   2.208   3.607 -0.0176  1.2348  0.3922
  578TIP3    H2 1699   4.759   2.130   3.712 -1.7602  1.9450 -0.2910
  579TIP3   OH2 1700   6.075   2.697   0.409 -0.1336 -0.3934 -0.5550
  579TIP3    H1 1701   6.129   2.636   0.460 -1.4981 -0.7878  0.4709
  579TIP3    H2 1702   6.123   2.780   0.414  0.6089 -0.8344 -0.0418
  580TIP3   OH2 1703   0.577   2.856   1.913  0.5869 -0.2872  0.1219
  580TIP3    H1 1704   0.606   2.944   1.938 -1.4028  0.2481  0.7454
  580TIP3    H2 1705   0.656   2.813   1.880  2.0309  1.0438  1.6721
  581TIP3   OH2 1706   6.165   0.034   2.285 -0.2692  0.3495  0.4806
  581TIP3    H1 1707   6.119   0.020   2.203  0.0667  0.8670  0.1971
  581TIP3    H2 1708   6.256   0.048   2.260  0.4189 -2.3583  1.1573
  582TIP3   OH2 1709   4.409   0.823   1.297  0.3196 -0.5670 -0.3443
  582TIP3    H1 1710   4.476   0.792   1.237 -0.7169 -1.4126 -1.1129
  582TIP3    H2 1711   4.327   0.811   1.250 -0.3314  1.2469  0.2346
  583TIP3   OH2 1712   6.691   0.809   4.660 -0.3789 -0.3323  0.1814
  583TIP3    H1 1713   6.704   0.735   4.601 -0.9298 -0.4258  0.1744
  583TIP3    H2 1714   6.736   0.882   4.617 -1.0976 -0.3066 -0.5513
  584TIP3   OH2 1715   5.766   1.698   0.555 -0.0996  0.4801 -0.3118
  584TIP3    H1 1716   5.845   1.653   0.585 -1.0319  0.0351  1.5886
  584TIP3    H2 1717   5.799   1.763   0.492  1.5166 -1.1810 -1.2792
  585TIP3   OH2 1718   0.204   3.863   0.457  0.7440  0.8930 -0.0569
  585TIP3    H1 1719   0.133   3.812   0.494 -0.1021  0.8900 -1.5877
  585TIP3    H2 1720   0.280   3.804   0.458 -0.2450 -0.5364 -1.9421
  586TIP3   OH2 1721   1.319   6.263   3.001 -0.0468 -0.5679 -0.2908
  586TIP3    H1 1722   1.230   6.289   2.974  0.7899  1.5392 -1.2275
  586TIP3    H2 1723   1.348   6.203   2.932  0.8489  2.2277 -2.5185
  587TIP3   OH2 1724   5.232   5.364   2.591 -0.0912 -0.1650 -0.0208
  587TIP3    H1 1725   5.289   5.438   2.570  0.0716 -0.3908 -0.3805
  587TIP3    H2 1726   5.286   5.287   2.576 -0.2556 -0.3609  0.3719
  588TIP3   OH2 1727   5.006   0.655   0.833 -0.5790  0.4050 -0.0902
  588TIP3    H1 1728   4.987   0.665   0.740 -0.5642 -0.1404 -0.1525
  588TIP3    H2 1729   5.030   0.563   0.844 -1.7992  0.1522  0.6580
  589TIP3   OH2 1730   1.153   0.555   1.041 -0.1503 -0.4151 -0.0460
  589TIP3    H1 1731   1.130   0.580   1.131  0.4416  0.0588 -0.0218
  589TIP3    H2 1732   1.143   0.459   1.040  0.0378 -0.4445  0.5839
  590TIP3   OH2 1733   4.894   3.617   2.401  0.4850 -0.1430 -0.1170
  590TIP3    H1 1734   4.920   3.619   2.493  2.2119  0.0669 -0.5628
  590TIP3    H2 1735   4.813   3.667   2.397 -1.7263 -3.2192  1.8348
  591TIP3   OH2 1736   4.097   6.354   5.312 -0.4597 -0.5132 -0.4580
  591TIP3    H1 1737   4.059   6.437   5.339  0.6910  0.9266 -2.9599
  591TIP3    H2 1738   4.142   6.322   5.390 -0.0675  1.7363  0.3063
  592TIP3   OH2 1739   0.762   6.111   5.564 -0.2839  0.6346 -0.4763
  592TIP3    H1 1740   0.815   6.188   5.542 -0.2751  0.6565 -0.3792
  592TIP3    H2 1741   0.822   6.053   5.610 -0.2233  0.4567 -0.7797
  593TIP3   OH2 1742   6.076   2.716   5.587 -0.7932  0.2348 -0.5156
  593TIP3    H1 1743   6.029   2.643   5.545  0.2956 -0.0625 -1.2367
  593TIP3    H2 1744   6.168   2.692   5.582 -0.4371  1.5135 -0.4614
  594TIP3   OH2 1745   1.540   3.519   3.057  0.0007  0.3314  0.1026
  594TIP3    H1 1746   1.457   3.532   3.102 -0.1091 -2.5411  0.9254
  594TIP3    H2 1747   1.534   3.574   2.979 -4.0254 -1.9550 -1.4907
  595TIP3   OH2 1748   7.162   1.403   3.453  0.2050 -0.3969  0.1034
  595TIP3    H1 1749   7.187   1.408   3.545  1.3899  1.4037 -0.2499
  595TIP3    H2 1750   7.077   1.446   3.449  1.1186  1.5174  0.1015
  596TIP3   OH2 1751   0.806   0.055   2.954  0.4971 -0.2315 -0.1624
  596TIP3    H1 1752   0.861   0.018   3.023 -0.1318 -1.3625 -0.2499
  596TIP3    H2 1753   0.863   0.118   2.909  1.4060 -0.6517  0.3787
  597TIP3   OH2 1754   5.919   4.451   5.300  0.1367  0.2750 -0.1976
  597TIP3    H1 1755   5.881   4.417   5.219  0.2485  0.9007 -0.5168
  597TIP3    H2 1756   6.000   4.494   5.272 -0.3233  1.3630  0.1032
  598TIP3   OH2 1757   6.047   0.283   3.016 -0.3624  0.1366 -0.3385
  598TIP3    H1 1758   6.107   0.209   3.019 -1.5898 -0.9487 -1.3030
  598TIP3    H2 1759   6.090   0.346   2.958 -0.5201 -1.0196 -1.7817
  599TIP3   OH2 1760   5.052   2.642   0.556  0.0828 -0.2175  0.2970
  599TIP3    H1 1761   4.990   2.653   0.628  0.6634  0.0079  0.7694
  599TIP3    H2 1762   5.118   2.582   0.590  1.2992  1.2149  0.5918
  600TIP3   OH2 1763   6.792   2.083   4.927  0.1040  0.4023 -0.2114
  600TIP3    H1 1764   6.801   2.056   4.835 -0.3687  0.9341 -0.4237
  600TIP3    H2 1765   6.756   2.006   4.971 -0.0697  0.2808 -0.5599
  601TIP3   OH2 1766   6.195   4.914   2.811  0.0028  0.1081  0.1972
  601TIP3    H1 1767   6.137   4.896   2.736 -2.1314  0.5177  1.6464
  601TIP3    H2 1768   6.153   4.986   2.857  1.3213 -0.0435  1.7300
  602TIP3   OH2 1769   5.101   3.248   1.321  0.0169  0.3141  0.2258
  602TIP3    H1 1770   5.051   3.171   1.347 -0.2518  0.9877  1.8492
  602TIP3    H2 1771   5.038   3.320   1.324  0.3704  0.6861 -0.7987
  603TIP3   OH2 1772   2.966   4.222   3.908  0.5476  0.3784  0.3515
  603TIP3    H1 1773   2.909   4.272   3.850 -1.5405 -2.0488  0.1306
  603TIP3    H2 1774   3.025   4.175   3.849  1.4704  1.3209  0.4874
  604TIP3   OH2 1775   1.407   0.111   4.808  0.0824  0.0568  0.2550
  604TIP3    H1 1776   1.363   0.192   4.781 -0.6672 -0.4563 -0.1040
  604TIP3    H2 1777   1.473   0.095   4.740 -0.5989 -0.2779 -0.3462
  605TIP3   OH2 1778   5.920   2.990   2.350  0.3003 -0.0776  0.0541
  605TIP3    H1 1779   5.918   2.921   2.417  2.6652  0.6571  1.0057
  605TIP3    H2 1780   5.926   3.071   2.400  0.2135  0.6297 -1.0580
  606TIP3   OH2 1781   0.235   2.231   0.310  0.2743  0.2471  0.0727
  606TIP3    H1 1782   0.267   2.201   0.394 -1.4080 -0.7545  0.3938
  606TIP3    H2 1783   0.263   2.164   0.248 -0.1848 -0.0360  0.1672
  607TIP3   OH2 1784   5.415   6.708   1.251 -0.0920 -0.4835 -0.2146
  607TIP3    H1 1785   5.487   6.650   1.275  0.5260  0.3113 -0.0692
  607TIP3    H2 1786   5.365   6.660   1.186 -0.0644 -1.4844  0.4903
  608TIP3   OH2 1787   5.240   3.183   5.512  0.0581 -0.1703  0.7200
  608TIP3    H1 1788   5.258   3.268   5.552 -0.6271  0.3027  0.0607
  608TIP3    H2 1789   5.196   3.133   5.580  1.9572 -0.6325  1.6831
  609TIP3   OH2 1790   0.379   1.162   4.576  0.0700 -0.0574  0.1622
  609TIP3    H1 1791   0.376   1.137   4.669 -0.7418 -0.6719 -0.0120
  609TIP3    H2 1792   0.320   1.100   4.533  0.6039  0.0821 -0.8046
  610TIP3   OH2 1793   4.561   4.259   0.394 -0.1476  0.1530  0.0935
  610TIP3    H1 1794   4.526   4.185   0.344  0.2587 -1.5218  2.1826
  610TIP3    H2 1795   4.522   4.250   0.481 -0.3990  2.6656  0.3352
  611TIP3   OH2 1796   2.948   4.086   1.581  0.1712  0.7179 -0.4318
  611TIP3    H1 1797   2.912   4.022   1.519  2.1241 -1.4038  0.4632
  611TIP3    H2 1798   3.037   4.103   1.549  0.8445  0.3815  1.1799
  612TIP3   OH2 1799   6.258   2.438   2.565  0.0949  0.6007 -0.3065
  612TIP3    H1 1800   6.222   2.370   2.621 -0.8345  0.9251 -0.4976
  612TIP3    H2 1801   6.191   2.454   2.499  0.5375  1.2966 -0.6068
  613TIP3   OH2 1802   0.415   0.385   2.759 -0.3863 -0.5062  0.8500
  613TIP3    H1 1803   0.479   0.398   2.689 -0.4284 -1.3585  0.6346
  613TIP3    H2 1804   0.408   0.289   2.766 -2.1776 -0.4318  0.3819
  614TIP3   OH2 1805   2.441   6.188   4.353 -0.2715 -0.5142 -0.4108
  614TIP3    H1 1806   2.513   6.163   4.295 -0.1228  0.9526 -0.8963
  614TIP3    H2 1807   2.362   6.180   4.299 -0.2720 -0.4048 -0.4275
  615TIP3   OH2 1808   2.863   4.065   4.445 -0.0755  0.7446  0.4181
  615TIP3    H1 1809   2.930   4.030   4.386  0.8133  1.0047  1.2481
  615TIP3    H2 1810   2.782   4.022   4.418  0.3757  0.6126 -0.7706
  616TIP3   OH2 1811   6.677   2.733   4.774  0.2988  0.3252  0.0874
  616TIP3    H1 1812   6.703   2.716   4.684  0.2867  0.0429  0.1370
  616TIP3    H2 1813   6.596   2.684   4.786  1.6142 -1.7768  1.0215
  617TIP3   OH2 1814   5.040   1.209   5.194 -0.3142 -0.2433  0.2130
  617TIP3    H1 1815   5.037   1.134   5.254  1.4281 -0.5408 -0.0152
  617TIP3    H2 1816   5.105   1.184   5.128 -0.6298  0.9640 -0.5860
  618TIP3   OH2 1817   6.773   1.139   5.328 -0.2405 -0.3306 -0.2539
  618TIP3    H1 1818   6.762   1.232   5.349  0.8402 -0.5479  1.4035
  618TIP3    H2 1819   6.722   1.093   5.393 -1.0319 -0.9160 -1.2655
  619TIP3   OH2 1820   6.354   1.404   1.131  0.4603 -0.0691 -0.1965
  619TIP3    H1 1821   6.373   1.392   1.224 -0.2656 -1.9928 -0.2492
  619TIP3    H2 1822   6.367   1.498   1.116  1.6124  0.1139  1.5915
  620TIP3   OH2 1823   3.362   6.286   1.371  0.1261 -0.2361  0.0266
  620TIP3    H1 1824   3.369   6.309   1.464 -3.0159  1.1120  0.0337
  620TIP3    H2 1825   3.312   6.205   1.370 -2.3377  1.1723 -0.4477
  621TIP3   OH2 1826   5.182   4.063   3.276  0.3039  0.7246  0.1312
  621TIP3    H1 1827   5.170   4.022   3.190 -0.1954  1.3150 -0.0861
  621TIP3    H2 1828   5.275   4.050   3.295  0.0572 -1.0343  0.3561
  622TIP3   OH2 1829   5.253   3.779   4.850 -0.0302 -0.2879  0.0348
  622TIP3    H1 1830   5.163   3.760   4.877 -0.8098  0.0115 -2.1468
  622TIP3    H2 1831   5.296   3.693   4.847  0.3359 -0.2773  2.7588
  623TIP3   OH2 1832   4.669   4.307   3.817  0.5851  0.4653 -0.0334
  623TIP3    H1 1833   4.602   4.376   3.819 -2.6217 -2.3190 -1.7423
  623TIP3    H2 1834   4.641   4.244   3.883  2.3132 -0.1908  0.1202
  624TIP3   OH2 1835   7.039   5.217   1.593 -0.0568 -1.1533 -0.3346
  624TIP3    H1 1836   7.019   5.129   1.625  1.8339 -1.4436  0.1551
  624TIP3    H2 1837   7.116   5.206   1.537 -1.2690 -0.1402 -2.3136
  625TIP3   OH2 1838   0.673   2.664   1.286  0.7125 -0.3271  0.0573
  625TIP3    H1 1839   0.740   2.701   1.228  0.8149 -0.2455  0.2276
  625TIP3    H2 1840   0.643   2.586   1.240  0.6190 -0.1287 -0.2224
  626TIP3   OH2 1841   6.729   0.771   1.518 -0.3529 -0.0775  0.0012
  626TIP3    H1 1842   6.789   0.822   1.571 -0.0855 -0.9983  0.6212
  626TIP3    H2 1843   6.785   0.712   1.467 -0.6492  0.2316 -0.6961
  627TIP3   OH2 1844   6.521   4.483   2.790  0.1117  0.4719  0.3480
  627TIP3    H1 1845   6.523   4.479   2.694 -0.1643  2.6826  0.1997
  627TIP3    H2 1846   6.590   4.544   2.813  1.1799 -1.1492  1.7156
  628TIP3   OH2 1847   0.517   0.163   0.584  0.3756  0.0166  0.2270
  628TIP3    H1 1848   0.526   0.134   0.675  0.4054 -3.0544 -0.6164
  628TIP3    H2 1849   0.430   0.132   0.558  0.1368  1.3608 -0.6571
  629TIP3   OH2 1850   4.947   4.419   4.917  0.0225  0.1459 -0.0356
  629TIP3    H1 1851   4.854   4.400   4.911 -0.2051  1.3090 -0.5335
  629TIP3    H2 1852   4.962   4.437   5.010 -0.5585  1.3018 -0.1409
  630TIP3   OH2 1853   4.891   2.628   1.515 -0.7722  0.3554  0.6740
  630TIP3    H1 1854   4.813   2.579   1.539 -0.5611 -0.7347 -0.7212
  630TIP3    H2 1855   4.952   2.562   1.482 -0.6601  1.5752 -1.7803
  631TIP3   OH2 1856   1.025   5.687   0.870 -0.3833  0.5352  0.0037
  631TIP3    H1 1857   1.112   5.715   0.843  0.7082 -2.8727 -0.5123
  631TIP3    H2 1858   0.970   5.702   0.792  0.5167 -0.1992 -0.8015
  632TIP3   OH2 1859   0.502   4.795   5.396 -0.3276  0.0093 -0.2812
  632TIP3    H1 1860   0.537   4.764   5.312 -2.7234 -0.7361 -1.0934
  632TIP3    H2 1861   0.447   4.870   5.373  0.4031  0.9450  0.8962
  633TIP3   OH2 1862   3.575   4.052   3.060 -0.4673 -0.4077 -0.1521
  633TIP3    H1 1863   3.597   4.135   3.019 -0.0563  0.3224  1.4330
  633TIP3    H2 1864   3.659   4.006   3.067 -0.0708  0.5076  1.9508
  634TIP3   OH2 1865   4.212   6.683   4.218  0.8101 -0.1753 -0.1239
  634TIP3    H1 1866   4.167   6.683   4.303 -1.3436 -3.8536 -1.0513
  634TIP3    H2 1867   4.286   6.623   4.231  0.9786 -0.0747 -0.6183
  635TIP3   OH2 1868   7.017   1.016   4.123 -0.0631  0.1506  0.0536
  635TIP3    H1 1869   7.009   1.015   4.219  2.0703 -1.4979  0.2846
  635TIP3    H2 1870   6.997   0.926   4.096  0.2509  0.3780 -0.9676
  636TIP3   OH2 1871   4.985   5.475   3.927 -0.7746  0.1178  0.3548
  636TIP3    H1 1872   5.077   5.480   3.902 -0.6733 -0.0164  0.6890
  636TIP3    H2 1873   4.948   5.561   3.905 -0.3457  0.4958  1.0888
  637TIP3   OH2 1874   5.834   6.641   4.723  0.4931 -0.2368 -0.9754
  637TIP3    H1 1875   5.873   6.557   4.748  1.2333  0.0889 -1.0062
  637TIP3    H2 1876   5.777   6.620   4.649 -0.1770 -0.8868 -0.2970
  638TIP3   OH2 1877   6.527   3.087   1.833  0.0545  0.2165  0.1772
  638TIP3    H1 1878   6.469   3.149   1.877  0.8648 -0.0006  1.6098
  638TIP3    H2 1879   6.487   3.001   1.849  1.4045 -0.0693  2.3109
  639TIP3   OH2 1880   2.309   3.904   4.520 -0.4672  0.0204 -0.0634
  639TIP3    H1 1881   2.351   3.932   4.601 -0.6699 -0.9329  0.3889
  639TIP3    H2 1882   2.227   3.863   4.548 -0.4172 -0.5577 -0.7168
  640TIP3   OH2 1883   6.790   4.799   2.748 -0.6443 -0.3015  0.3163
  640TIP3    H1 1884   6.873   4.752   2.738 -1.0720 -0.9660 -0.2462
  640TIP3    H2 1885   6.809   4.887   2.716 -0.1027 -0.3887  0.3847
  641TIP3   OH2 1886   2.726   2.745   0.387  0.0400 -0.2442 -0.1092
  641TIP3    H1 1887   2.695   2.809   0.323 -0.6127 -0.7809 -0.3375
  641TIP3    H2 1888   2.740   2.665   0.336 -0.1628 -0.5825  0.3584
  642TIP3   OH2 1889   1.106   2.950   5.404  0.1984 -0.0024 -0.3634
  642TIP3    H1 1890   1.139   2.873   5.450 -0.5175  0.7186  1.4410
  642TIP3    H2 1891   1.089   3.014   5.473  2.2830  2.3960 -1.9134
  643TIP3   OH2 1892   5.992   4.226   2.372  0.4831  0.0495  0.0916
  643TIP3    H1 1893   5.903   4.244   2.402 -0.9328 -0.1142 -3.5433
  643TIP3    H2 1894   6.017   4.305   2.324  1.7179 -0.4922 -0.1928
  644TIP3   OH2 1895   1.511   5.004   1.519 -0.2797 -0.0661 -0.0905
  644TIP3    H1 1896   1.430   4.998   1.570  0.7113 -2.5304  1.3824
  644TIP3    H2 1897   1.574   5.045   1.578  0.4043 -1.2417  0.0155
  645TIP3   OH2 1898   5.486   4.472   2.472 -0.2109 -0.2021 -0.0067
  645TIP3    H1 1899   5.574   4.507   2.456  0.1944 -1.4440 -0.6929
  645TIP3    H2 1900   5.429   4.520   2.411  0.2850 -0.5430 -0.7580
  646TIP3   OH2 1901   0.329   2.954   0.156 -0.0356  0.0753 -0.2193
  646TIP3    H1 1902   0.395   2.888   0.178  1.8276  1.7729 -0.4481
  646TIP3    H2 1903   0.298   2.986   0.241  0.3622  0.1594 -0.1068
  647TIP3   OH2 1904   0.031   0.083   3.486  0.2473  0.0765  0.0687
  647TIP3    H1 1905   0.090   0.074   3.561 -0.4799 -0.5017  0.5782
  647TIP3    H2 1906   0.089   0.078   3.410  0.9221  0.0521  0.5721
  648TIP3   OH2 1907   2.255   1.596   5.617 -0.5956  0.4091 -0.8463
  648TIP3    H1 1908   2.252   1.510   5.576  1.1709  0.7267 -1.7413
  648TIP3    H2 1909   2.176   1.640   5.587 -0.7279 -0.3634 -1.6675
  649TIP3   OH2 1910   6.082   6.587   4.999 -0.3354  0.4617  0.0751
  649TIP3    H1 1911   6.093   6.675   5.035 -0.0575  0.3930  0.1567
  649TIP3    H2 1912   5.995   6.589   4.958  0.0702  1.0802 -0.7948
  650TIP3   OH2 1913   6.211   1.581   4.412  0.7923 -0.2787 -0.0025
  650TIP3    H1 1914   6.211   1.540   4.325 -1.2189 -0.7730  0.1785
  650TIP3    H2 1915   6.204   1.675   4.394  2.5605 -0.1850 -0.3738
  651TIP3   OH2 1916   0.667   1.522   5.731  0.5172  0.3566  0.0900
  651TIP3    H1 1917   0.680   1.468   5.809 -1.1726 -0.5294 -0.1884
  651TIP3    H2 1918   0.647   1.459   5.661  2.1257  1.1182 -1.1141
  652TIP3   OH2 1919   3.531   2.810   2.076  0.3690  0.6829  0.0037
  652TIP3    H1 1920   3.483   2.878   2.029 -0.2510  0.6115  0.5028
  652TIP3    H2 1921   3.621   2.842   2.081  0.3189  0.9468 -0.7280
  653TIP3   OH2 1922   5.058   3.091   0.229  0.3514  0.1131  0.0934
  653TIP3    H1 1923   5.140   3.064   0.270 -0.1859  0.0729  1.1614
  653TIP3    H2 1924   5.077   3.176   0.189  1.1109 -0.2447 -0.3210
  654TIP3   OH2 1925   1.840   0.890   0.670 -0.3760 -0.3524  0.1055
  654TIP3    H1 1926   1.833   0.808   0.620  0.7837 -0.2894 -0.2129
  654TIP3    H2 1927   1.934   0.908   0.670 -0.6592  1.2240 -0.2225
  655TIP3   OH2 1928   6.214   2.348   3.942  0.1965 -0.0171 -0.0337
  655TIP3    H1 1929   6.268   2.388   4.011 -0.5259 -0.0788  0.5860
  655TIP3    H2 1930   6.275   2.332   3.871  0.7944  0.8710  0.2487
  656TIP3   OH2 1931   6.998   4.090   0.778  0.0175  0.3284  0.1131
  656TIP3    H1 1932   6.957   4.015   0.820 -0.2735  1.1316  1.2953
  656TIP3    H2 1933   6.957   4.167   0.819 -1.0457  1.1779 -2.3533
  657TIP3   OH2 1934   4.465   6.262   0.022 -0.0265 -0.8389  0.5275
  657TIP3    H1 1935   4.524   6.267   0.097 -0.7818 -0.9309  1.1410
  657TIP3    H2 1936   4.427   6.175   0.028  0.9519 -1.3928 -0.7878
  658TIP3   OH2 1937   4.075   0.588   2.943  0.3630  0.0090 -0.6669
  658TIP3    H1 1938   4.142   0.520   2.952  0.8576  0.5179 -0.4509
  658TIP3    H2 1939   4.042   0.577   2.854  0.8438 -0.1507 -0.8303
  659TIP3   OH2 1940   4.759   2.231   3.447 -0.3608  0.2617 -0.0783
  659TIP3    H1 1941   4.698   2.158   3.441 -0.4262  0.3382 -0.3356
  659TIP3    H2 1942   4.829   2.211   3.386  0.8127 -0.7040  1.4999
  660TIP3   OH2 1943   2.243   2.586   1.922  0.1359  0.2374  0.6518
  660TIP3    H1 1944   2.267   2.595   1.830  0.5316  1.6464  0.8767
  660TIP3    H2 1945   2.270   2.497   1.945  2.1456  0.6179  0.0036
  661TIP3   OH2 1946   5.015   0.164   1.542  0.7791 -0.6665  0.2951
  661TIP3    H1 1947   5.064   0.230   1.591  0.1174 -0.1267  0.2460
  661TIP3    H2 1948   5.075   0.090   1.535  1.0667 -0.5563  1.4735
  662TIP3   OH2 1949   4.050   0.110   3.850 -0.0600 -0.1191 -0.0828
  662TIP3    H1 1950   4.094   0.140   3.771 -2.9998  0.7676 -1.4968
  662TIP3    H2 1951   4.092   0.160   3.921  2.5331 -0.8432 -0.9804
  663TIP3   OH2 1952   1.064   1.064   3.478  0.2985 -0.3151  0.3314
  663TIP3    H1 1953   1.033   0.975   3.461 -2.5344  0.4235  1.1203
  663TIP3    H2 1954   1.106   1.090   3.396 -1.6484 -1.3105 -1.0802
  664TIP3   OH2 1955   2.194   2.334   5.498  0.0858 -0.2173 -0.2310
  664TIP3    H1 1956   2.154   2.384   5.427  1.7119  0.2995 -0.8407
  664TIP3    H2 1957   2.281   2.373   5.508  0.6570 -1.6460  0.6441
  665TIP3   OH2 1958   0.602   0.773   2.301 -0.1335 -0.2727 -0.6745
  665TIP3    H1 1959   0.581   0.835   2.231 -0.9582 -1.2758 -1.3624
  665TIP3    H2 1960   0.517   0.750   2.338  0.1712 -0.9243 -0.3679
  666TIP3   OH2 1961   2.887   4.077   1.000  0.4291  0.1317  0.3307
  666TIP3    H1 1962   2.934   4.135   1.059  0.2266  2.6277 -1.7964
  666TIP3    H2 1963   2.955   4.036   0.946  0.3922  1.7937 -1.0473
  667TIP3   OH2 1964   2.867   0.480   5.367  0.3292 -0.4023 -0.1850
  667TIP3    H1 1965   2.960   0.463   5.347  0.1780 -1.2139 -0.2454
  667TIP3    H2 1966   2.864   0.572   5.390  0.1882  1.5003 -6.1705
  668TIP3   OH2 1967   4.720   4.686   2.323  0.5550 -0.4030 -0.7350
  668TIP3    H1 1968   4.637   4.703   2.366  1.2244  0.5902  0.2209
  668TIP3    H2 1969   4.759   4.614   2.372 -0.4557 -2.0309 -2.2310
  669TIP3   OH2 1970   4.239   1.492   5.116 -0.0327 -0.2147  0.5832
  669TIP3    H1 1971   4.252   1.586   5.101  0.4474 -0.1877  1.1211
  669TIP3    H2 1972   4.148   1.484   5.144  0.3829  0.3016  2.1467
  670TIP3   OH2 1973   6.389   4.324   4.870 -0.3031  0.3626 -0.8679
  670TIP3    H1 1974   6.468   4.376   4.888  0.1580 -0.9685  1.4228
  670TIP3    H2 1975   6.383   4.264   4.945 -2.0816 -1.3197 -2.2684
  671TIP3   OH2 1976   1.727   1.681   3.702  0.4090  0.2517  0.2062
  671TIP3    H1 1977   1.821   1.667   3.695  0.7060  1.8877  0.6087
  671TIP3    H2 1978   1.708   1.747   3.636 -0.1788  1.0954  1.1988
  672TIP3   OH2 1979   3.483   3.635   2.922 -0.6087 -0.7118  0.7155
  672TIP3    H1 1980   3.410   3.588   2.961 -2.4671 -0.2287 -1.9306
  672TIP3    H2 1981   3.456   3.727   2.924 -0.1405 -0.5298 -0.3378
  673TIP3   OH2 1982   0.872   6.431   5.148  0.3730 -0.1354  0.9031
  673TIP3    H1 1983   0.947   6.388   5.189  0.2799 -1.2213 -0.0124
  673TIP3    H2 1984   0.821   6.465   5.221  1.7697  0.6899  1.5456
  674TIP3   OH2 1985   6.839   2.462   5.233  0.0252  0.7296  0.2284
  674TIP3    H1 1986   6.888   2.483   5.312  1.6308  0.2839 -0.6076
  674TIP3    H2 1987   6.823   2.546   5.192  0.3782  0.8572  0.3478
  675TIP3   OH2 1988   0.275   4.513   0.938  0.4814  0.3411  0.1132
  675TIP3    H1 1989   0.288   4.593   0.887  0.4356 -0.3561 -1.0131
  675TIP3    H2 1990   0.265   4.544   1.029  3.5097  1.4358  0.1922
  676TIP3   OH2 1991   4.680   3.135   0.734 -1.1848 -0.7919 -0.2905
  676TIP3    H1 1992   4.658   3.097   0.649 -0.7821 -0.3259 -0.6077
  676TIP3    H2 1993   4.769   3.104   0.752 -1.7150 -1.9188  0.5588
  677TIP3   OH2 1994   2.042   6.007   2.652 -0.1363 -0.5562 -0.7967
  677TIP3    H1 1995   2.108   6.069   2.682 -0.1942 -0.5783 -0.6167
  677TIP3    H2 1996   2.070   5.982   2.564 -0.8928  0.8233 -1.4556
  678TIP3   OH2 1997   1.416   3.235   3.618 -0.0864  0.1038  0.4276
  678TIP3    H1 1998   1.329   3.195   3.615 -0.4288  0.8705 -0.4040
  678TIP3    H2 1999   1.471   3.180   3.562 -0.3525  0.3223 -0.0531
  679TIP3   OH2 2000   1.103   0.500   3.744 -0.4358  0.2381  0.4923
  679TIP3    H1 2001   1.070   0.570   3.688  0.4720  1.6137  1.5652
  679TIP3    H2 2002   1.192   0.529   3.767  0.3880 -1.8373  0.0805
  680TIP3   OH2 2003   1.302   2.796   4.239  0.2724  0.0308 -0.0149
  680TIP3    H1 2004   1.286   2.786   4.333 -2.1461 -1.1830 -0.4885
  680TIP3    H2 2005   1.215   2.799   4.200  1.2274 -0.4182 -2.3159
  681TIP3   OH2 2006   1.954   2.631   1.511  0.8509 -0.0489 -0.4980
  681TIP3    H1 2007   1.964   2.694   1.583 -1.8631 -0.9987  0.8574
  681TIP3    H2 2008   2.037   2.585   1.508  1.9491  1.7616  0.2676
  682TIP3   OH2 2009   2.287   6.246   3.587  0.3906  0.7825 -0.0675
  682TIP3    H1 2010   2.205   6.223   3.542  0.9468 -0.9851 -0.2652
  682TIP3    H2 2011   2.327   6.162   3.608  1.9271  1.6080  0.4746
  683TIP3   OH2 2012   2.339   0.223   1.964 -0.5131 -0.0336 -0.1921
  683TIP3    H1 2013   2.261   0.200   1.914  0.4208  0.1229 -1.7996
  683TIP3    H2 2014   2.361   0.311   1.935  0.7755 -0.4244 -0.4607
  684TIP3   OH2 2015   0.631   4.912   4.587 -0.2860  0.1499 -0.5790
  684TIP3    H1 2016   0.545   4.953   4.595 -0.3035  0.5275 -2.3403
  684TIP3    H2 2017   0.640   4.859   4.666 -1.6022  1.0666  0.2236
  685TIP3   OH2 2018   3.916   0.193   0.901 -0.0208 -0.2840  0.1595
  685TIP3    H1 2019   3.859   0.125   0.936  1.3727 -1.4421  0.2453
  685TIP3    H2 2020   3.943   0.244   0.978  0.6557 -0.9928  0.4082
  686TIP3   OH2 2021   1.098   4.595   4.515  0.0967 -0.1447 -0.2980
  686TIP3    H1 2022   1.053   4.679   4.503  1.3964  0.7646  0.9299
  686TIP3    H2 2023   1.040   4.531   4.474 -0.6454  1.4100 -1.8054
  687TIP3   OH2 2024   0.579   6.427   3.739 -0.3494  0.2378  0.0439
  687TIP3    H1 2025   0.552   6.410   3.829 -2.0984  1.8252 -0.1096
  687TIP3    H2 2026   0.641   6.358   3.719 -0.6409 -0.7150  2.1466
  688TIP3   OH2 2027   5.997   2.154   0.859 -0.1457 -0.1727 -0.1455
  688TIP3    H1 2028   6.060   2.107   0.913  1.0626  1.7955  0.2360
  688TIP3    H2 2029   5.916   2.152   0.911 -0.1263 -1.7253 -0.1216
  689TIP3   OH2 2030   2.737   4.374   0.750  0.0888 -0.1062  0.0859
  689TIP3    H1 2031   2.829   4.356   0.733 -0.5146 -1.6128 -2.0952
  689TIP3    H2 2032   2.736   4.423   0.832  3.1233  3.5086 -1.7472
  690TIP3   OH2 2033   5.088   2.959   2.652  0.3789  0.3100  0.6136
  690TIP3    H1 2034   5.041   2.891   2.604 -0.2895  0.3345  1.2153
  690TIP3    H2 2035   5.139   3.005   2.585  1.4262 -1.2324  0.3038
  691TIP3   OH2 2036   0.180   5.840   5.015  0.0053 -0.7171  0.2268
  691TIP3    H1 2037   0.189   5.755   5.058 -1.3568 -0.2822  1.5025
  691TIP3    H2 2038   0.142   5.896   5.083  0.6408  0.8508 -0.6582
  692TIP3   OH2 2039   0.756   5.199   4.527 -0.4671  0.7613 -0.6130
  692TIP3    H1 2040   0.810   5.166   4.456 -1.7771  1.2026 -1.8445
  692TIP3    H2 2041   0.784   5.148   4.603  0.7994  0.1264 -1.4676
  693TIP3   OH2 2042   5.889   1.300   5.717 -0.1048  0.1194 -0.7578
  693TIP3    H1 2043   5.956   1.233   5.731 -0.7104 -0.6562 -1.5200
  693TIP3    H2 2044   5.890   1.316   5.623 -0.2398  0.9094 -0.6307
  694TIP3   OH2 2045   4.619   1.320   0.801 -0.0901 -0.5749 -0.4152
  694TIP3    H1 2046   4.699   1.357   0.837 -0.0152 -0.7346 -0.4176
  694TIP3    H2 2047   4.548   1.366   0.846 -0.0396 -2.6094  1.9543
  695TIP3   OH2 2048   2.943   0.029   2.542 -0.3400 -0.2580  0.1688
  695TIP3    H1 2049   2.973   0.072   2.621 -1.1252  0.3248  0.1540
  695TIP3    H2 2050   2.854  -0.001   2.562 -1.5678  2.0889 -1.2537
  696TIP3   OH2 2051   0.740   1.554   2.254 -0.2336 -0.1728 -0.3802
  696TIP3    H1 2052   0.669   1.491   2.267  1.5915 -2.3789 -0.3850
  696TIP3    H2 2053   0.756   1.554   2.159 -1.2206  1.5364 -0.5804
  697TIP3   OH2 2054   6.156   4.734   4.692  0.3439  0.1561  0.4858
  697TIP3    H1 2055   6.120   4.646   4.699 -0.8606  0.5381 -0.4883
  697TIP3    H2 2056   6.101   4.787   4.751 -0.6147  0.7051 -0.8429
  698TIP3   OH2 2057   6.689   4.918   4.074 -0.0013  0.7775 -0.1733
  698TIP3    H1 2058   6.685   4.867   3.993 -0.1625  1.9081 -0.9015
  698TIP3    H2 2059   6.772   4.966   4.068  0.7450 -0.2954  1.0796
  699TIP3   OH2 2060   3.939   2.217   5.058  0.2341  0.1538  0.5428
  699TIP3    H1 2061   3.951   2.175   5.143  3.1628  0.5138  0.3886
  699TIP3    H2 2062   4.014   2.190   5.006  1.5404  4.2628 -0.0640
  700TIP3   OH2 2063   2.510   0.069   2.469  0.1359  0.1671 -0.3003
  700TIP3    H1 2064   2.502   0.165   2.463 -1.3644  0.2936  2.1930
  700TIP3    H2 2065   2.420   0.038   2.477  0.6383 -1.3893 -0.4014
  701TIP3   OH2 2066   3.621   3.819   1.385 -0.0576 -0.3970 -0.1644
  701TIP3    H1 2067   3.659   3.756   1.446 -0.5341 -1.0575 -0.5426
  701TIP3    H2 2068   3.564   3.873   1.440 -0.4308 -0.9446 -0.0085
  702TIP3   OH2 2069   5.005   6.399   3.952 -0.4403 -0.3144 -0.6933
  702TIP3    H1 2070   4.962   6.478   3.919 -0.4524  0.0151  0.1121
  702TIP3    H2 2071   4.996   6.403   4.047  1.2051 -0.3187 -0.4952
  703TIP3   OH2 2072   5.420   5.570   2.627 -0.0003 -0.4776  0.3281
  703TIP3    H1 2073   5.510   5.546   2.604  0.1180 -1.1055  1.3501
  703TIP3    H2 2074   5.427   5.658   2.662  0.1373 -0.3294 -0.0650
  704TIP3   OH2 2075   1.291   1.769   2.314 -0.0509  0.2426  0.0622
  704TIP3    H1 2076   1.300   1.698   2.249 -0.7773 -0.2379  0.4727
  704TIP3    H2 2077   1.197   1.777   2.327  0.0234  1.3999 -0.0834
  705TIP3   OH2 2078   6.863   2.340   2.886  0.1683 -0.2792 -0.2258
  705TIP3    H1 2079   6.902   2.271   2.939 -1.5262 -3.3930 -2.6979
  705TIP3    H2 2080   6.893   2.323   2.797 -2.1187  0.7324 -1.2945
  706TIP3   OH2 2081   7.005   3.304   3.932  0.2804 -0.4281  0.4000
  706TIP3    H1 2082   7.068   3.320   4.002  0.6210  0.0396 -0.0071
  706TIP3    H2 2083   6.987   3.210   3.936  0.2004 -0.3839  1.1915
  707TIP3   OH2 2084   4.543   2.908   0.042 -1.0369  0.3590 -0.1013
  707TIP3    H1 2085   4.576   2.897  -0.047 -0.6782 -0.3879  0.1139
  707TIP3    H2 2086   4.556   3.001   0.061 -1.1286  0.5235 -0.8317
  708TIP3   OH2 2087   1.352   1.807   0.793 -0.4623  0.5832  0.6057
  708TIP3    H1 2088   1.326   1.716   0.805  3.0656 -0.6058  0.4326
  708TIP3    H2 2089   1.348   1.820   0.698 -0.4937  0.4377  0.5863
  709TIP3   OH2 2090   1.131   6.662   4.607  0.2735 -0.6639  0.1423
  709TIP3    H1 2091   1.169   6.588   4.654 -1.0870 -1.3179  0.2706
  709TIP3    H2 2092   1.095   6.624   4.527  0.2614  0.0020 -0.1772
  710TIP3   OH2 2093   3.534   3.062   5.087  0.4750  0.1280 -0.2151
  710TIP3    H1 2094   3.494   2.986   5.130  2.8685 -0.0800  1.8847
  710TIP3    H2 2095   3.572   3.026   5.006  1.4535 -0.9482  0.6796
  711TIP3   OH2 2096   6.544   2.111   1.770  0.2826  0.1252  0.0838
  711TIP3    H1 2097   6.582   2.198   1.763  0.1983  0.1328 -0.2685
  711TIP3    H2 2098   6.618   2.051   1.762  0.1457  0.1191 -1.2936
  712TIP3   OH2 2099   4.251   1.271   5.561  0.0381  0.1729  0.1754
  712TIP3    H1 2100   4.295   1.353   5.584 -0.8854  0.5392  0.6979
  712TIP3    H2 2101   4.163   1.281   5.596 -1.1036  0.2714 -2.5363
  713TIP3   OH2 2102   1.658   0.182   2.291 -0.2106 -0.5043  0.3322
  713TIP3    H1 2103   1.590   0.114   2.287 -0.4023 -0.4814  2.0799
  713TIP3    H2 2104   1.684   0.182   2.383  0.4181  1.1956  0.1718
  714TIP3   OH2 2105   3.707   0.780   3.541  0.4235  0.2950  0.1576
  714TIP3    H1 2106   3.735   0.689   3.554 -0.9935 -0.1479  0.3031
  714TIP3    H2 2107   3.612   0.777   3.549  0.3334  1.7651 -0.0760
  715TIP3   OH2 2108   1.715   2.269   0.877  0.0154  0.4460  0.6568
  715TIP3    H1 2109   1.626   2.288   0.907  0.7193  2.2696  1.7654
  715TIP3    H2 2110   1.706   2.257   0.782 -1.3681  0.9214  0.7010
  716TIP3   OH2 2111   5.528   4.846   2.156 -0.0455  0.3084  0.5503
  716TIP3    H1 2112   5.458   4.808   2.104  1.1101 -0.0393 -0.8144
  716TIP3    H2 2113   5.605   4.793   2.134  1.5109  3.0254 -1.0015
  717TIP3   OH2 2114   5.612   5.336   0.662  0.1765 -0.6491 -0.1474
  717TIP3    H1 2115   5.683   5.401   0.664 -0.4924  0.0803  0.0513
  717TIP3    H2 2116   5.554   5.362   0.733 -0.3718 -1.1548 -0.4075
  718TIP3   OH2 2117   2.567   1.739   4.023 -0.3621 -0.4180  0.3911
  718TIP3    H1 2118   2.475   1.753   4.000  0.0168 -0.5832 -1.2902
  718TIP3    H2 2119   2.611   1.718   3.941  1.1043 -0.8596  1.2360
  719TIP3   OH2 2120   1.894   1.182   2.797  0.1678  0.1646  0.4923
  719TIP3    H1 2121   1.964   1.116   2.794 -0.0669 -0.0653 -0.2075
  719TIP3    H2 2122   1.927   1.253   2.741  0.8388  1.0904  1.9846
  720TIP3   OH2 2123   0.867   2.998   2.611 -0.1881  0.2376 -0.4886
  720TIP3    H1 2124   0.912   2.929   2.659 -1.7821 -0.1143  0.6041
  720TIP3    H2 2125   0.822   2.952   2.540 -0.5984  0.2379 -0.2374
  721TIP3   OH2 2126   5.450   4.676   4.883 -0.1777  0.4251  0.1135
  721TIP3    H1 2127   5.434   4.722   4.801 -2.5415  2.1662  1.4264
  721TIP3    H2 2128   5.516   4.728   4.928 -0.4757  0.6939  0.2378
  722TIP3   OH2 2129   1.004   6.130   2.712 -0.3635  0.6180 -0.5292
  722TIP3    H1 2130   0.974   6.082   2.634 -1.1790  1.4091 -0.7282
  722TIP3    H2 2131   0.933   6.118   2.775 -0.4316  1.2877 -0.4734
  723TIP3   OH2 2132   1.907   2.829   4.399  0.0514 -0.3489 -0.7919
  723TIP3    H1 2133   1.908   2.745   4.355  1.5398 -0.2879 -0.9305
  723TIP3    H2 2134   1.898   2.807   4.492 -2.4815 -0.4980 -0.9971
  724TIP3   OH2 2135   1.285   3.555   3.176 -0.1266 -0.8081  0.6672
  724TIP3    H1 2136   1.237   3.576   3.096 -3.6684  1.9838  3.2014
  724TIP3    H2 2137   1.232   3.489   3.219  0.5340 -0.6577  1.7474
  725TIP3   OH2 2138   6.273   0.182   5.224 -0.9090 -0.2189  0.1177
  725TIP3    H1 2139   6.331   0.256   5.242  0.5665 -1.5314  1.0535
  725TIP3    H2 2140   6.246   0.151   5.311 -1.7825 -0.5856 -0.2690
  726TIP3   OH2 2141   1.899   0.838   1.957 -0.0940  0.2043  0.0672
  726TIP3    H1 2142   1.969   0.877   2.009 -0.2963 -0.3325  0.7616
  726TIP3    H2 2143   1.843   0.794   2.022 -1.5846  1.3857 -0.3564
  727TIP3   OH2 2144   3.585   4.725   0.775  0.1333  0.2623 -0.6175
  727TIP3    H1 2145   3.599   4.630   0.770 -0.3197  0.2227 -1.4096
  727TIP3    H2 2146   3.606   4.748   0.865 -3.6001 -1.2339  0.8454
  728TIP3   OH2 2147   0.335   4.870   3.210 -0.3561  0.4998 -0.5086
  728TIP3    H1 2148   0.304   4.960   3.199  0.3805  0.8321  0.0531
  728TIP3    H2 2149   0.320   4.829   3.125  0.6717  1.5855 -1.2433
  729TIP3   OH2 2150   4.692   4.950   0.201  0.1176 -0.4677 -0.0848
  729TIP3    H1 2151   4.704   4.993   0.116 -0.3967 -0.9775 -0.4312
  729TIP3    H2 2152   4.614   4.992   0.239 -0.0907 -0.7403 -0.2025
  730TIP3   OH2 2153   2.818   6.071   4.410  0.2334  0.2185  0.0970
  730TIP3    H1 2154   2.887   6.103   4.352 -1.5778  2.8076 -0.7979
  730TIP3    H2 2155   2.780   5.996   4.364  0.9636  0.1672 -0.4404
  731TIP3   OH2 2156   2.264   2.932   3.489 -0.6048 -0.3965 -0.2551
  731TIP3    H1 2157   2.177   2.894   3.503 -0.0501 -1.6661 -0.1057
  731TIP3    H2 2158   2.317   2.858   3.459  1.1398 -0.3873  2.4495
  732TIP3   OH2 2159   5.386   2.626   1.338 -0.3790 -0.2183 -0.0157
  732TIP3    H1 2160   5.435   2.665   1.266 -1.4201 -1.4623 -1.4472
  732TIP3    H2 2161   5.349   2.545   1.302 -0.9212 -0.8928  1.9197
  733TIP3   OH2 2162   7.085   5.366   1.831  0.0685  0.0456 -0.1615
  733TIP3    H1 2163   7.044   5.320   1.757 -0.7569  1.4538 -0.6057
  733TIP3    H2 2164   7.179   5.355   1.816 -0.0733 -2.2841  0.2728
  734TIP3   OH2 2165   4.743   3.708   5.308  0.4102  0.0707  0.4241
  734TIP3    H1 2166   4.658   3.688   5.347  0.2573  0.4509  0.2910
  734TIP3    H2 2167   4.791   3.753   5.378  0.0122  1.0585  0.0710
  735TIP3   OH2 2168   3.263   2.265   5.482  0.0720 -0.0733 -0.1042
  735TIP3    H1 2169   3.207   2.274   5.405  0.6458  0.8210 -0.4427
  735TIP3    H2 2170   3.352   2.264   5.446  0.4558  2.1430  0.6144
  736TIP3   OH2 2171   6.915   1.339   0.446  0.2065 -0.5318 -0.1310
  736TIP3    H1 2172   6.833   1.294   0.464  0.5077 -0.5993  1.1512
  736TIP3    H2 2173   6.982   1.271   0.452  0.5684 -0.1082  0.9579
  737TIP3   OH2 2174   6.478   5.689   1.426  0.6070  0.3321 -0.2847
  737TIP3    H1 2175   6.516   5.752   1.365  1.5285 -0.4544 -0.5264
  737TIP3    H2 2176   6.536   5.614   1.424 -0.9321 -0.9094 -0.6434
  738TIP3   OH2 2177   5.183   2.654   2.217  0.2724 -0.1453  0.5878
  738TIP3    H1 2178   5.175   2.584   2.282 -1.1125 -0.7436 -0.1881
  738TIP3    H2 2179   5.117   2.633   2.150  1.2004  0.8048 -0.6852
  739TIP3   OH2 2180   0.394   4.298   4.340  0.7896  0.5321  1.0880
  739TIP3    H1 2181   0.424   4.249   4.263 -1.3784  0.5761  0.1316
  739TIP3    H2 2182   0.309   4.333   4.314 -0.5279 -0.3165  3.8513
  740TIP3   OH2 2183   2.573   2.066   3.679  0.0354  0.0791 -0.0640
  740TIP3    H1 2184   2.647   2.006   3.682  0.4847  0.5717 -0.7712
  740TIP3    H2 2185   2.588   2.128   3.751 -0.6392 -0.8703  0.9187
  741TIP3   OH2 2186   2.614   2.501   3.867 -0.0264 -0.1918 -0.0007
  741TIP3    H1 2187   2.683   2.564   3.845 -0.0388  0.1675  0.9143
  741TIP3    H2 2188   2.552   2.506   3.795  0.7731 -0.3351 -0.7176
  742TIP3   OH2 2189   6.528   1.393   2.816 -0.9743  0.2507  0.0245
  742TIP3    H1 2190   6.552   1.302   2.800 -0.4650  0.2090  1.0009
  742TIP3    H2 2191   6.434   1.397   2.796 -1.5100 -1.0018  2.0573
  743TIP3   OH2 2192   0.295   5.958   4.157  0.1950 -0.2711 -0.2226
  743TIP3    H1 2193   0.241   6.028   4.193 -2.4124 -1.3124 -1.8094
  743TIP3    H2 2194   0.383   5.974   4.192 -1.1383  1.3999  2.7299
  744TIP3   OH2 2195   0.579   4.720   0.761 -0.4752 -0.1238  0.1189
  744TIP3    H1 2196   0.648   4.736   0.696  0.3821  0.8509  1.2240
  744TIP3    H2 2197   0.615   4.650   0.816 -0.5274  0.1092  0.4534
  745TIP3   OH2 2198   4.990   4.485   2.352  0.2679  0.5275 -0.5679
  745TIP3    H1 2199   4.912   4.499   2.405  0.6795  0.4803  0.0593
  745TIP3    H2 2200   5.049   4.435   2.408 -0.3871 -2.1111 -2.0689
  746TIP3   OH2 2201   4.447   4.664   3.143  0.7715 -0.5831  0.3189
  746TIP3    H1 2202   4.436   4.573   3.173  0.5638 -1.0188 -1.0191
  746TIP3    H2 2203   4.365   4.684   3.097  1.0333  0.0954  0.1391
  747TIP3   OH2 2204   6.085   5.525   3.676  0.0435 -0.0755 -0.7008
  747TIP3    H1 2205   6.149   5.559   3.740  0.3389 -0.0222 -1.0222
  747TIP3    H2 2206   6.017   5.485   3.730 -1.0168  2.2110 -0.2438
  748TIP3   OH2 2207   1.429   2.150   2.655  0.3352 -0.0850 -0.0148
  748TIP3    H1 2208   1.518   2.173   2.627  0.2543 -0.7301 -0.8207
  748TIP3    H2 2209   1.378   2.148   2.574 -0.5869  0.9648  0.5088
  749TIP3   OH2 2210   1.314   2.707   2.264 -0.2458  0.0736 -0.1229
  749TIP3    H1 2211   1.300   2.715   2.170  0.3104 -2.4179 -0.4885
  749TIP3    H2 2212   1.227   2.695   2.302 -0.5861  2.1821 -0.1225
  750TIP3   OH2 2213   5.771   6.623   2.292  0.0749 -0.4674  0.2153
  750TIP3    H1 2214   5.838   6.578   2.240 -0.8970 -1.8338  0.0967
  750TIP3    H2 2215   5.723   6.675   2.228  1.1402  0.7280  0.3378
  751TIP3   OH2 2216   2.606   3.284   3.705 -0.2496 -0.5418 -0.3323
  751TIP3    H1 2217   2.541   3.225   3.744  0.8090 -0.7115  1.2896
  751TIP3    H2 2218   2.622   3.350   3.773 -1.0523  1.3945 -1.9276
  752TIP3   OH2 2219   4.319   6.425   4.000  0.1449 -0.1644  0.0163
  752TIP3    H1 2220   4.363   6.370   4.065 -0.9254  0.8532  1.6758
  752TIP3    H2 2221   4.226   6.412   4.017 -0.2985 -1.7055 -2.9359
  753TIP3   OH2 2222   1.501   0.229   1.455  0.3061 -0.2543  0.3362
  753TIP3    H1 2223   1.564   0.182   1.509  2.3910  0.2471 -1.5270
  753TIP3    H2 2224   1.464   0.163   1.397  0.4023 -0.2385  0.2580
  754TIP3   OH2 2225   7.001   3.921   4.451  0.0831 -0.4128  0.4195
  754TIP3    H1 2226   6.956   3.943   4.533  0.4294  2.9700 -0.1412
  754TIP3    H2 2227   6.939   3.867   4.403 -1.5866  0.4430  1.5080
  755TIP3   OH2 2228   0.266   5.907   3.666  0.2394 -0.3546 -0.3523
  755TIP3    H1 2229   0.273   5.860   3.749 -0.7662  0.4767  0.2193
  755TIP3    H2 2230   0.346   5.959   3.661  1.7905 -2.6294 -1.3779
  756TIP3   OH2 2231   6.513   4.742   0.949 -0.1255 -0.1224  0.0999
  756TIP3    H1 2232   6.551   4.798   1.017 -0.1960 -0.2328  0.2304
  756TIP3    H2 2233   6.586   4.718   0.893 -0.0586 -0.0724  0.1661
  757TIP3   OH2 2234   2.142   3.759   4.678 -0.1262 -0.1577 -0.1078
  757TIP3    H1 2235   2.110   3.673   4.705  1.4951 -1.1316 -1.0996
  757TIP3    H2 2236   2.123   3.816   4.753 -3.2614 -0.7828 -0.2791
  758TIP3   OH2 2237   2.688   5.982   5.513  0.3453 -0.0983 -0.7943
  758TIP3    H1 2238   2.714   5.990   5.605  0.4980  0.3016 -0.8714
  758TIP3    H2 2239   2.672   5.888   5.501 -0.6030 -0.0371 -0.1142
  759TIP3   OH2 2240   5.045   6.076   3.621 -0.2146  0.0027 -0.0735
  759TIP3    H1 2241   5.011   6.144   3.563 -2.1775 -0.4863  0.4150
  759TIP3    H2 2242   5.015   6.102   3.708  0.1523 -0.7939  0.2995
  760TIP3   OH2 2243   3.746   4.609   1.351 -0.3167 -0.2444  0.1815
  760TIP3    H1 2244   3.779   4.548   1.417 -0.3081  0.7765  1.1527
  760TIP3    H2 2245   3.665   4.643   1.388  0.1054  0.9504  0.0486
  761TIP3   OH2 2246   2.428   1.667   1.175  0.9834 -0.2238 -0.5173
  761TIP3    H1 2247   2.419   1.734   1.107  0.6845  0.9316  0.5967
  761TIP3    H2 2248   2.509   1.621   1.153  0.8057  0.0243 -1.7296
  762TIP3   OH2 2249   5.636   1.065   0.580  0.3406 -0.6199  0.2973
  762TIP3    H1 2250   5.575   1.052   0.508  0.1141  2.1053 -0.1044
  762TIP3    H2 2251   5.581   1.081   0.656  0.5450 -0.1860  0.3598
  763TIP3   OH2 2252   4.513   4.394   0.077  0.1276  0.5368  0.4525
  763TIP3    H1 2253   4.577   4.353   0.019 -1.4461  0.8337 -1.6365
  763TIP3    H2 2254   4.562   4.460   0.125  2.2404 -2.0425  2.1607
  764TIP3   OH2 2255   2.970   6.323   1.274 -0.4831 -0.1650 -0.1622
  764TIP3    H1 2256   2.929   6.308   1.359 -0.1902 -1.2015 -0.1888
  764TIP3    H2 2257   2.980   6.418   1.269 -0.8957 -0.0583  0.7716
  765TIP3   OH2 2258   3.624   0.378   4.694  0.0190  0.0239 -0.2706
  765TIP3    H1 2259   3.620   0.407   4.785 -0.4599  0.5783 -0.4614
  765TIP3    H2 2260   3.716   0.355   4.680  0.1376  0.1310  0.2880
  766TIP3   OH2 2261   1.599   0.392   4.046 -0.1730  0.0457  0.1674
  766TIP3    H1 2262   1.594   0.359   3.956  0.2649 -1.0296  0.5151
  766TIP3    H2 2263   1.581   0.486   4.039 -1.3200 -0.2260 -0.8971
  767TIP3   OH2 2264   6.958   0.552   5.465  0.1932 -0.1985 -0.1835
  767TIP3    H1 2265   6.910   0.633   5.446  0.2727  0.0768  0.7226
  767TIP3    H2 2266   6.997   0.527   5.382  1.0449  1.2767 -0.2614
  768TIP3   OH2 2267   0.481   1.778   0.803 -0.1220 -0.4030  0.1667
  768TIP3    H1 2268   0.526   1.693   0.799  2.1034  0.7282 -3.2947
  768TIP3    H2 2269   0.402   1.765   0.750 -0.0485 -0.4361  0.0654
  769TIP3   OH2 2270   5.744   5.013   5.226 -0.4513  0.0476 -1.1615
  769TIP3    H1 2271   5.718   5.066   5.150  1.0851  2.7740  0.0551
  769TIP3    H2 2272   5.799   4.945   5.189  2.7749  3.0254 -2.4640
  770TIP3   OH2 2273   0.152   4.951   1.209 -0.4744  0.6608  0.4007
  770TIP3    H1 2274   0.242   4.981   1.190  0.3579 -1.3958  0.8504
  770TIP3    H2 2275   0.132   4.889   1.139 -0.4907 -0.8891  1.7131
  771TIP3   OH2 2276   4.187   1.103   4.883  0.1564  0.3572 -0.2455
  771TIP3    H1 2277   4.140   1.157   4.947 -0.0904  0.6659 -0.6865
  771TIP3    H2 2278   4.277   1.136   4.885 -0.1010  1.1303 -0.8741
  772TIP3   OH2 2279   4.238   6.137   3.768  0.8378 -0.0763  0.1047
  772TIP3    H1 2280   4.186   6.058   3.755 -0.3618  0.1529  2.8693
  772TIP3    H2 2281   4.255   6.139   3.862  4.0411  1.0408 -0.3726
  773TIP3   OH2 2282   3.593   1.539   2.856 -0.4214 -0.1680  0.1103
  773TIP3    H1 2283   3.598   1.445   2.876 -0.6378 -0.1057  0.4658
  773TIP3    H2 2284   3.584   1.581   2.942 -0.4785  0.1669 -0.0609
  774TIP3   OH2 2285   1.467   1.649   2.770 -0.0007 -0.1913  0.7836
  774TIP3    H1 2286   1.408   1.658   2.695 -0.3266  0.3851  1.1065
  774TIP3    H2 2287   1.431   1.578   2.822  0.8160 -1.3235 -0.1419
  775TIP3   OH2 2288   3.692   0.582   5.816 -0.1614 -0.2712  0.1130
  775TIP3    H1 2289   3.754   0.633   5.868 -0.4403  0.2760 -0.0903
  775TIP3    H2 2290   3.743   0.549   5.743 -0.6085  2.2054 -1.4202
  776TIP3   OH2 2291   3.557   0.177   0.625  0.4462  0.2776  0.0586
  776TIP3    H1 2292   3.594   0.256   0.586 -2.3413  1.4505 -0.3754
  776TIP3    H2 2293   3.540   0.201   0.716  2.1775 -0.8039  0.7199
  777TIP3   OH2 2294   1.575   6.459   5.193 -0.0833 -0.4343  0.1558
  777TIP3    H1 2295   1.493   6.414   5.173 -0.7440  0.6564  0.3624
  777TIP3    H2 2296   1.599   6.428   5.280 -0.1009 -1.0034 -0.0401
  778TIP3   OH2 2297   4.895   3.832   5.886 -0.0483  0.0481  0.0062
  778TIP3    H1 2298   4.931   3.791   5.808  1.6788 -0.7478  1.1778
  778TIP3    H2 2299   4.934   3.785   5.959 -1.6121  0.7745  1.3849
  779TIP3   OH2 2300   2.979   1.236   3.711 -0.2318 -0.2015  0.2927
  779TIP3    H1 2301   2.958   1.327   3.692  1.9490  0.5798  1.2329
  779TIP3    H2 2302   2.941   1.187   3.638 -1.5460  1.4323 -0.1812
  780TIP3   OH2 2303   6.112   2.497   2.357  0.7247 -0.0222  0.1679
  780TIP3    H1 2304   6.086   2.564   2.294 -0.2684 -0.7247 -0.1901
  780TIP3    H2 2305   6.169   2.438   2.308 -2.0144 -2.0195 -0.9346
  781TIP3   OH2 2306   3.294   1.842   5.885  0.1094 -0.1852  0.3809
  781TIP3    H1 2307   3.345   1.800   5.954 -0.1895  1.1133  1.4420
  781TIP3    H2 2308   3.322   1.800   5.805  0.9930 -1.2473  1.2195
  782TIP3   OH2 2309   2.954   1.339   3.002  0.3216  0.4966  0.2051
  782TIP3    H1 2310   3.004   1.332   3.083  0.0199  2.5688  0.6357
  782TIP3    H2 2311   2.961   1.432   2.978 -1.3363  0.3538 -0.9996
  783TIP3   OH2 2312   5.803   3.732   3.540  1.0769  0.1782  0.0078
  783TIP3    H1 2313   5.838   3.648   3.569  2.0503  1.4497  2.8136
  783TIP3    H2 2314   5.715   3.711   3.508  1.1292 -1.8300  1.0066
  784TIP3   OH2 2315   1.847   2.071   5.396  0.2404  0.3489  0.4011
  784TIP3    H1 2316   1.900   2.075   5.476  1.0211  1.5192 -0.1442
  784TIP3    H2 2317   1.880   2.143   5.342 -3.0323  2.2939  0.7080
  785TIP3   OH2 2318   0.180   5.754   4.777  0.0756 -0.1260 -0.0793
  785TIP3    H1 2319   0.169   5.801   4.859 -1.7159  2.1756 -1.5200
  785TIP3    H2 2320   0.101   5.701   4.768 -0.2830  0.5106 -0.8170
  786TIP3   OH2 2321   0.051   6.362   3.519 -0.0696 -0.1062  0.1823
  786TIP3    H1 2322   0.060   6.424   3.592  0.1666 -0.3645  0.3758
  786TIP3    H2 2323   0.057   6.417   3.441 -2.3885  0.4620  0.3313
  787TIP3   OH2 2324   0.886   1.427   4.368  0.3038 -0.1384  0.7122
  787TIP3    H1 2325   0.937   1.499   4.406  1.2916 -0.5923  0.2727
  787TIP3    H2 2326   0.939   1.395   4.296 -1.6773  0.8921 -1.3142
  788TIP3   OH2 2327   0.627   4.986   0.835 -0.5789 -0.3479  0.0146
  788TIP3    H1 2328   0.714   4.997   0.796 -0.6583  1.0708  0.1723
  788TIP3    H2 2329   0.615   4.892   0.841  0.2832 -0.5803 -1.4793
  789TIP3   OH2 2330   1.713   3.047   0.304  0.2396  0.1820  0.3355
  789TIP3    H1 2331   1.704   3.133   0.263 -3.5072 -0.1788  0.1166
  789TIP3    H2 2332   1.687   3.060   0.395  0.9793 -0.5016  0.6643
  790TIP3   OH2 2333   1.330   0.641   3.833  0.3813  0.1158  0.5800
  790TIP3    H1 2334   1.350   0.633   3.926 -1.2117  0.5559  0.9973
  790TIP3    H2 2335   1.267   0.713   3.828 -1.6512 -1.6230 -0.4749
  791TIP3   OH2 2336   2.393   3.984   1.561  0.9513  0.7467  0.0212
  791TIP3    H1 2337   2.324   3.929   1.597  2.2968 -1.1001 -0.0826
  791TIP3    H2 2338   2.350   4.036   1.494 -0.1122 -1.3965 -1.0649
  792TIP3   OH2 2339   5.623   5.294   3.469  0.0610  0.0367 -0.1565
  792TIP3    H1 2340   5.695   5.268   3.412 -0.3347 -0.6117 -0.3650
  792TIP3    H2 2341   5.602   5.384   3.442  0.3211 -0.0259 -0.5666
  793TIP3   OH2 2342   5.475   2.180   0.291 -0.7760  0.7550  0.1086
  793TIP3    H1 2343   5.387   2.147   0.276 -0.3694 -0.2770 -0.0536
  793TIP3    H2 2344   5.462   2.272   0.317 -1.8638  0.7112 -0.2403
  794TIP3   OH2 2345   6.252   6.688   5.548 -0.1037  0.5235 -0.3024
  794TIP3    H1 2346   6.305   6.611   5.567 -0.2441  0.3865 -0.4633
  794TIP3    H2 2347   6.218   6.715   5.633 -0.1212  0.3589 -0.2559
  795TIP3   OH2 2348   6.798   1.568   2.406  0.0596 -0.2835  0.2115
  795TIP3    H1 2349   6.838   1.601   2.487  0.9827 -1.5228  0.2809
  795TIP3    H2 2350   6.773   1.478   2.426  1.2946 -0.9801 -1.1924
  796TIP3   OH2 2351   0.553   3.341   2.530  0.8092  0.1778  0.0787
  796TIP3    H1 2352   0.467   3.298   2.532  1.2489 -0.7106 -0.0626
  796TIP3    H2 2353   0.597   3.309   2.608  1.3076  0.0273 -0.2642
  797TIP3   OH2 2354   2.849   0.700   3.989  0.0779 -0.3154  0.3430
  797TIP3    H1 2355   2.788   0.707   4.062 -1.7742 -0.9841 -1.0682
  797TIP3    H2 2356   2.833   0.779   3.937 -0.3732 -1.0085 -0.5971
  798TIP3   OH2 2357   2.541   5.085   4.494 -0.3722 -0.7317 -0.2975
  798TIP3    H1 2358   2.578   5.062   4.579  0.3807  1.5182  0.0659
  798TIP3    H2 2359   2.616   5.085   4.435 -0.0203  1.8518  0.0094
  799TIP3   OH2 2360   6.287   4.110   0.060  0.2464 -0.3559  0.5111
  799TIP3    H1 2361   6.375   4.135   0.088  0.8833  0.6420 -2.1093
  799TIP3    H2 2362   6.231   4.134   0.134  2.1956 -1.8421  2.6308
  800TIP3   OH2 2363   1.681   1.223   5.619 -0.1902  0.7302 -0.3028
  800TIP3    H1 2364   1.691   1.299   5.561 -2.0581  1.0377 -0.2849
  800TIP3    H2 2365   1.596   1.185   5.595  0.1604 -0.6613  0.5092
  801TIP3   OH2 2366   5.903   3.315   2.173 -0.0292 -0.1652 -0.0218
  801TIP3    H1 2367   5.883   3.355   2.088 -2.2682 -0.6642  0.1852
  801TIP3    H2 2368   5.888   3.385   2.236  0.6888 -0.0602  0.0395
  802TIP3   OH2 2369   0.149   6.274   5.420 -0.2562  0.3814 -0.6165
  802TIP3    H1 2370   0.123   6.310   5.504  1.0299  0.7994 -0.3826
  802TIP3    H2 2371   0.164   6.181   5.437 -0.7518  0.3032 -0.5758
  803TIP3   OH2 2372   5.702   0.748   0.508 -0.1890 -0.6547  0.8116
  803TIP3    H1 2373   5.771   0.686   0.533 -0.6513 -1.0520  1.1419
  803TIP3    H2 2374   5.721   0.769   0.417  0.5293 -0.5396  0.9810
  804TIP3   OH2 2375   5.898   2.222   2.446  0.2077 -0.2669  0.0053
  804TIP3    H1 2376   5.936   2.295   2.495  1.1658 -0.8103  0.1090
  804TIP3    H2 2377   5.829   2.188   2.503 -0.1251  0.4382  0.0324
  805TIP3   OH2 2378   7.190   4.834   5.166 -0.8344  0.5102 -0.3721
  805TIP3    H1 2379   7.260   4.769   5.168 -0.3507  0.7794 -3.5303
  805TIP3    H2 2380   7.123   4.798   5.224  1.7249  0.1638  2.6360
  806TIP3   OH2 2381   5.645   4.308   3.456 -0.6186 -0.7883 -0.3491
  806TIP3    H1 2382   5.583   4.265   3.398  0.6626 -0.3185 -2.1391
  806TIP3    H2 2383   5.712   4.242   3.474  0.1582 -0.2944 -1.2758
  807TIP3   OH2 2384   4.376   3.543   4.496 -0.0153  0.1160 -0.5642
  807TIP3    H1 2385   4.282   3.539   4.516  0.0588 -0.3359 -0.2905
  807TIP3    H2 2386   4.381   3.595   4.416 -0.6105 -0.8090 -1.2258
  808TIP3   OH2 2387   4.502   5.302   2.329  0.0359  0.2536  0.1947
  808TIP3    H1 2388   4.472   5.390   2.307  0.5172  0.5068  0.5391
  808TIP3    H2 2389   4.516   5.305   2.423 -0.8532 -0.4716  0.3687
  809TIP3   OH2 2390   3.474   5.740   2.820 -0.0282  0.1752 -0.2555
  809TIP3    H1 2391   3.494   5.647   2.833  0.7823  0.3328 -0.3194
  809TIP3    H2 2392   3.508   5.784   2.898 -0.1581  0.4539 -0.3533
  810TIP3   OH2 2393   5.162   1.051   4.268  0.1991  0.2743  1.0520
  810TIP3    H1 2394   5.203   1.017   4.189 -0.5989  1.2748  0.1791
  810TIP3    H2 2395   5.148   1.144   4.249 -1.9122  0.0972  1.5490
  811TIP3   OH2 2396   5.097   2.525   1.143  0.0800  0.4026 -0.1667
  811TIP3    H1 2397   5.111   2.435   1.172  0.3906  0.7298  0.7246
  811TIP3    H2 2398   5.005   2.543   1.163  0.0920  0.3751 -0.0877
  812TIP3   OH2 2399   5.814   4.606   4.477 -0.6207  0.4021 -0.1310
  812TIP3    H1 2400   5.827   4.686   4.427 -0.2236  0.5960  0.2638
  812TIP3    H2 2401   5.766   4.634   4.555 -0.7893  0.1943 -0.1595
  813TIP3   OH2 2402   6.284   5.638   3.856 -0.1963 -0.1340 -0.1477
  813TIP3    H1 2403   6.289   5.730   3.827  2.8381 -0.3515 -0.6623
  813TIP3    H2 2404   6.315   5.640   3.946 -0.0754 -0.6445 -0.1787
  814TIP3   OH2 2405   6.457   1.075   4.450 -0.4283 -0.1194  0.2706
  814TIP3    H1 2406   6.511   1.066   4.372  0.4242 -0.3124  0.8716
  814TIP3    H2 2407   6.499   1.144   4.501 -1.2900  0.3851  0.3100
  815TIP3   OH2 2408   3.263   3.892   0.700  0.0395 -0.0012 -0.3803
  815TIP3    H1 2409   3.184   3.838   0.703  0.0873 -0.0219  0.8722
  815TIP3    H2 2410   3.335   3.830   0.695  0.1129 -0.1048  1.3915
  816TIP3   OH2 2411   2.380   2.544   5.779 -0.5767 -0.4196  0.0163
  816TIP3    H1 2412   2.416   2.531   5.691 -0.2717 -0.4750  0.1466
  816TIP3    H2 2413   2.289   2.568   5.765 -0.2574  0.6189 -0.3549
  817TIP3   OH2 2414   3.051   0.633   4.905  0.0197  0.0470  0.0276
  817TIP3    H1 2415   3.133   0.670   4.872  0.3321 -0.7681 -0.1211
  817TIP3    H2 2416   3.001   0.710   4.933 -0.3079  0.8180 -2.3819
  818TIP3   OH2 2417   4.754   5.805   4.596  0.2115  0.1896  0.2194
  818TIP3    H1 2418   4.683   5.810   4.532 -0.5172  1.6977  1.0905
  818TIP3    H2 2419   4.765   5.711   4.613  0.7201 -0.2778 -2.3756
  819TIP3   OH2 2420   6.122   6.650   3.322 -0.0762 -0.1100 -0.0139
  819TIP3    H1 2421   6.098   6.742   3.314 -1.0560 -0.4216 -0.9762
  819TIP3    H2 2422   6.144   6.624   3.232 -0.5287 -0.9856  0.1188
  820TIP3   OH2 2423   4.686   1.986   2.309 -0.1411  0.3088  0.0971
  820TIP3    H1 2424   4.661   1.894   2.303  0.7705 -0.0459  1.4327
  820TIP3    H2 2425   4.621   2.024   2.368 -0.9556  0.7092 -1.0271
  821TIP3   OH2 2426   5.915   0.936   1.006 -0.1360 -0.5416  0.0270
  821TIP3    H1 2427   5.848   0.919   0.939 -0.2484  0.7390 -0.2033
  821TIP3    H2 2428   5.997   0.939   0.957 -0.1552 -0.1308  0.0169
  822TIP3   OH2 2429   7.205   4.074   3.133 -0.4172 -0.1624  0.1436
  822TIP3    H1 2430   7.245   4.111   3.212  0.2229 -0.7793  0.1124
  822TIP3    H2 2431   7.119   4.116   3.128 -1.0039 -1.0380  1.8847
  823TIP3   OH2 2432   3.415   6.602   4.302  0.3284  0.3318  0.4659
  823TIP3    H1 2433   3.385   6.536   4.364  1.5727  0.1879  0.9420
  823TIP3    H2 2434   3.360   6.590   4.225  0.9072 -1.6443  0.3193
  824TIP3   OH2 2435   4.410   0.822   3.243  0.0099 -0.5733 -0.6032
  824TIP3    H1 2436   4.329   0.800   3.195 -0.4849  1.7919 -0.9551
  824TIP3    H2 2437   4.450   0.737   3.261 -3.1816 -1.9645  0.7429
  825TIP3   OH2 2438   2.597   0.670   3.370 -0.2294  0.0126  0.5778
  825TIP3    H1 2439   2.567   0.685   3.280 -0.0823  0.4890  0.6049
  825TIP3    H2 2440   2.534   0.608   3.407  0.8160 -1.7830 -0.4878
  826TIP3   OH2 2441   6.646   3.786   3.031 -0.2049  0.6645 -0.5529
  826TIP3    H1 2442   6.670   3.875   3.058  0.8863  0.1524  0.2998
  826TIP3    H2 2443   6.580   3.759   3.095 -0.3911  0.7952 -0.6905
  827TIP3   OH2 2444   2.535   0.173   0.661  0.1576  0.5167  0.3689
  827TIP3    H1 2445   2.559   0.250   0.608  0.7488  0.7117  0.9131
  827TIP3    H2 2446   2.517   0.105   0.597  1.4008  0.5903 -0.0886
  828TIP3   OH2 2447   1.481   1.083   1.421  0.9090  0.8791  0.2817
  828TIP3    H1 2448   1.556   1.127   1.380 -0.6550  0.4285 -3.4871
  828TIP3    H2 2449   1.407   1.141   1.406 -0.8500 -1.8462 -3.1862
  829TIP3   OH2 2450   1.021   0.614   3.068  0.2613 -0.1043  0.0437
  829TIP3    H1 2451   0.960   0.634   2.997 -1.8506  0.9971  2.0247
  829TIP3    H2 2452   1.006   0.522   3.089  1.3382 -0.6159 -1.2416
  830TIP3   OH2 2453   3.439   0.017   0.413 -0.3670 -0.1097  0.0611
  830TIP3    H1 2454   3.491   0.062   0.481 -0.7837  0.9868 -0.3254
  830TIP3    H2 2455   3.370  -0.028   0.462 -0.1710 -0.0131  0.4339
  831TIP3   OH2 2456   2.559   6.601   5.364 -0.3015 -0.2951  0.3936
  831TIP3    H1 2457   2.503   6.665   5.321 -1.2983 -0.8715  0.7905
  831TIP3    H2 2458   2.539   6.609   5.457 -0.6356 -1.3432  0.4274
  832TIP3   OH2 2459   4.792   3.862   2.152 -0.1170  0.2634  0.2839
  832TIP3    H1 2460   4.834   3.946   2.169 -0.9611  1.1282 -1.6906
  832TIP3    H2 2461   4.743   3.843   2.232 -1.1385  2.4061  0.2158
  833TIP3   OH2 2462   5.946   1.802   4.190  0.3326  0.5430 -0.2184
  833TIP3    H1 2463   5.929   1.760   4.274  1.6922  1.4448  0.5614
  833TIP3    H2 2464   5.865   1.849   4.170 -0.0639  0.1905  0.5102
  834TIP3   OH2 2465   2.407   5.410   1.839 -0.5326 -0.5822 -0.1265
  834TIP3    H1 2466   2.360   5.400   1.922 -0.3016  2.7335  0.5447
  834TIP3    H2 2467   2.498   5.390   1.861 -0.3965  0.6888  0.6026
  835TIP3   OH2 2468   6.415   2.247   5.232  0.2484  1.1918 -0.1367
  835TIP3    H1 2469   6.361   2.224   5.308  0.1323 -1.2063 -0.8420
  835TIP3    H2 2470   6.354   2.249   5.158  0.7021  1.1213 -0.5215
  836TIP3   OH2 2471   0.443   2.935   2.811 -0.7384  0.3390 -0.4115
  836TIP3    H1 2472   0.508   3.005   2.821  0.8206 -0.9391 -1.2184
  836TIP3    H2 2473   0.404   2.951   2.725  1.8621 -1.4586 -2.0842
  837TIP3   OH2 2474   1.426   2.139   0.715  0.0817  0.1478 -0.4071
  837TIP3    H1 2475   1.411   2.139   0.809 -2.3835  0.3899 -0.7105
  837TIP3    H2 2476   1.406   2.049   0.688  1.5636 -0.1319 -0.6232
  838TIP3   OH2 2477   0.311   2.907   1.991 -0.0421 -0.3537  0.2774
  838TIP3    H1 2478   0.396   2.879   1.960 -0.2740 -2.2529  1.2388
  838TIP3    H2 2479   0.259   2.919   1.912  0.3960 -1.6399 -0.2274
  839TIP3   OH2 2480   3.751   3.602   2.472 -0.2466  0.3552  0.0135
  839TIP3    H1 2481   3.779   3.667   2.407  1.1487 -0.2292  0.0025
  839TIP3    H2 2482   3.753   3.649   2.555 -2.2867  1.1808 -0.3331
  840TIP3   OH2 2483   6.217   3.348   3.711  0.5392  0.4015  0.1471
  840TIP3    H1 2484   6.170   3.279   3.759 -0.1091 -0.0273 -1.0779
  840TIP3    H2 2485   6.309   3.331   3.730  0.3217 -0.0772  0.8186
  841TIP3   OH2 2486   5.433   2.106   2.117  0.0237  0.8652  0.6157
  841TIP3    H1 2487   5.497   2.120   2.187 -0.1355  1.4613  0.6455
  841TIP3    H2 2488   5.350   2.092   2.164 -0.2337  2.0467  0.5405
  842TIP3   OH2 2489   3.992   0.294   1.165 -0.1433 -0.1613 -0.4423
  842TIP3    H1 2490   3.930   0.310   1.236  1.7379 -2.2383  1.8576
  842TIP3    H2 2491   4.046   0.372   1.163 -0.7773  0.2969 -0.2111
  843TIP3   OH2 2492   2.399   2.870   1.647  0.1083 -0.3727 -0.4350
  843TIP3    H1 2493   2.486   2.900   1.671  0.2743 -0.8416 -0.4410
  843TIP3    H2 2494   2.382   2.910   1.562  0.9578 -1.5179 -1.1630
  844TIP3   OH2 2495   1.973   1.365   2.579 -0.1610  0.1343 -0.4379
  844TIP3    H1 2496   1.965   1.307   2.503 -0.8230  0.2144 -0.4319
  844TIP3    H2 2497   1.975   1.453   2.541 -1.8034  0.2569 -0.3045
  845TIP3   OH2 2498   6.488   3.311   3.167 -0.5995  0.3553  0.1491
  845TIP3    H1 2499   6.529   3.321   3.253 -0.3080  1.0893 -0.0694
  845TIP3    H2 2500   6.409   3.260   3.184  0.1461 -0.6900  0.6502
  846TIP3   OH2 2501   5.027   2.487   5.772 -0.0871 -0.6102 -0.2650
  846TIP3    H1 2502   4.967   2.419   5.802  1.4236 -1.3530  1.2065
  846TIP3    H2 2503   5.103   2.440   5.740  0.6918  0.3642  0.0932
  847TIP3   OH2 2504   2.433   5.754   3.830 -0.2896  0.2090 -0.0238
  847TIP3    H1 2505   2.523   5.779   3.850 -0.0221 -0.7582  0.0475
  847TIP3    H2 2506   2.401   5.713   3.911 -0.9699  0.9921  0.1187
  848TIP3   OH2 2507   0.303   5.819   3.360 -0.0542  0.0399  0.9153
  848TIP3    H1 2508   0.344   5.856   3.282  0.4216 -0.6406  0.8308
  848TIP3    H2 2509   0.321   5.882   3.429 -0.3795  0.5937  0.5011
  849TIP3   OH2 2510   2.807   0.410   3.912  0.2730  0.1521  0.0438
  849TIP3    H1 2511   2.785   0.373   3.997 -2.3449 -1.4339 -1.1936
  849TIP3    H2 2512   2.812   0.505   3.927  0.3697 -0.1310  2.0289
  850TIP3   OH2 2513   7.101   5.738   3.630 -0.1859 -0.2007 -0.1161
  850TIP3    H1 2514   7.142   5.792   3.562  1.4595 -1.8702 -0.5583
  850TIP3    H2 2515   7.011   5.769   3.635 -0.5805 -0.3927 -3.5411
  851TIP3   OH2 2516   6.569   1.818   0.339 -0.0626 -0.1344  0.5921
  851TIP3    H1 2517   6.631   1.815   0.266  0.5180 -0.1267  1.0786
  851TIP3    H2 2518   6.519   1.737   0.332 -0.8696  0.4119 -0.5406
  852TIP3   OH2 2519   1.529   2.536   0.627  0.0653 -0.1711  0.1173
  852TIP3    H1 2520   1.596   2.472   0.649 -0.7799 -0.8908  0.6608
  852TIP3    H2 2521   1.477   2.545   0.707 -0.7935 -0.0120 -0.4445
  853TIP3   OH2 2522   2.524   1.111   4.778  0.4577 -0.3350  0.4972
  853TIP3    H1 2523   2.440   1.149   4.801 -0.2962 -2.2093  1.0830
  853TIP3    H2 2524   2.585   1.147   4.842  0.3002  1.6461 -0.4108
  854TIP3   OH2 2525   1.675   3.449   4.440  0.0811 -0.4092 -0.1270
  854TIP3    H1 2526   1.714   3.525   4.484 -1.1670  0.4993 -0.5494
  854TIP3    H2 2527   1.745   3.417   4.383  1.5405 -1.2434  1.9964
  855TIP3   OH2 2528   0.102   1.098   3.659  0.0665  0.7007  0.2152
  855TIP3    H1 2529   0.162   1.026   3.674  0.4108  0.8751 -0.2995
  855TIP3    H2 2530   0.017   1.056   3.642  0.5077  0.3498 -1.2776
  856TIP3   OH2 2531   4.905   3.778   1.688 -0.5323 -0.4951  0.0660
  856TIP3    H1 2532   4.863   3.860   1.717 -1.8067 -0.9239 -0.5117
  856TIP3    H2 2533   4.998   3.790   1.710 -0.8185  0.7963  0.6806
  857TIP3   OH2 2534   0.299   6.200   1.980 -0.0929  0.5242  0.0751
  857TIP3    H1 2535   0.282   6.121   2.030  0.3854 -0.5516 -1.4092
  857TIP3    H2 2536   0.327   6.265   2.045  1.0400 -0.9711  1.1232
  858TIP3   OH2 2537   6.665   2.916   2.553  0.7728  0.6956  0.0422
  858TIP3    H1 2538   6.632   2.837   2.595  1.7541 -0.6089 -1.5052
  858TIP3    H2 2539   6.603   2.985   2.578  0.4438 -0.3240  2.2294
  859TIP3   OH2 2540   6.024   0.260   4.905  0.0190  0.6573  0.0367
  859TIP3    H1 2541   6.020   0.328   4.973 -0.1143  0.9320 -0.2425
  859TIP3    H2 2542   5.973   0.188   4.942 -1.2910  1.3356 -0.3512
  860TIP3   OH2 2543   0.498   6.620   4.882 -0.1244  0.0979 -0.4201
  860TIP3    H1 2544   0.522   6.550   4.822  1.3914 -1.3937  1.7612
  860TIP3    H2 2545   0.572   6.626   4.943 -1.3561  1.8225  1.0197
  861TIP3   OH2 2546   2.445   0.967   0.233 -0.1301 -0.3043  0.1736
  861TIP3    H1 2547   2.416   0.885   0.194 -1.9885 -0.1321  1.1015
  861TIP3    H2 2548   2.461   1.025   0.158 -0.8828 -0.8556 -0.4224
  862TIP3   OH2 2549   6.004   1.436   3.124  0.3517 -0.3061 -0.5787
  862TIP3    H1 2550   5.962   1.473   3.046 -0.4226 -1.0467 -0.5242
  862TIP3    H2 2551   6.041   1.512   3.169  1.1751  0.0888 -1.8706
  863TIP3   OH2 2552   6.506   4.183   2.774 -0.0542 -0.0649  0.3927
  863TIP3    H1 2553   6.592   4.155   2.743  0.6898  1.8935  0.5425
  863TIP3    H2 2554   6.475   4.243   2.706 -0.7354  0.2202  0.9426
  864TIP3   OH2 2555   6.906   6.011   5.580  0.0081  0.2357 -0.3819
  864TIP3    H1 2556   6.879   6.035   5.491 -0.1023  2.1523  0.1151
  864TIP3    H2 2557   6.844   5.944   5.607  0.1965 -0.5475 -1.8338
  865TIP3   OH2 2558   5.804   4.073   2.905 -0.1214 -0.2955 -0.0161
  865TIP3    H1 2559   5.792   3.980   2.927  0.1382 -0.4344 -0.4622
  865TIP3    H2 2560   5.839   4.111   2.986  0.4689 -0.7349 -0.0535
  866TIP3   OH2 2561   0.051   3.768   5.452  0.4412  0.7779  0.6877
  866TIP3    H1 2562  -0.032   3.808   5.477  1.0509  1.9058  0.9978
  866TIP3    H2 2563   0.092   3.744   5.535  0.4521  0.2741  0.5396
  867TIP3   OH2 2564   0.639   4.269   1.802 -0.1127 -0.3638  0.1156
  867TIP3    H1 2565   0.606   4.183   1.826 -3.2797  0.5362 -0.5861
  867TIP3    H2 2566   0.594   4.291   1.720  1.2214  1.6493 -0.1746
  868TIP3   OH2 2567   3.629   3.151   4.727 -0.1679 -0.0126  0.2659
  868TIP3    H1 2568   3.629   3.066   4.773 -0.6761 -1.6725 -2.5582
  868TIP3    H2 2569   3.722   3.167   4.708  0.0204  0.5606  1.5451
  869TIP3   OH2 2570   0.415   6.642   2.289 -0.0488 -0.4491 -0.1097
  869TIP3    H1 2571   0.426   6.720   2.235 -0.8790 -0.4951 -0.3589
  869TIP3    H2 2572   0.436   6.671   2.378 -0.3083  0.0439 -0.2071
  870TIP3   OH2 2573   4.135   0.781   0.364 -0.5513  0.2254  0.0473
  870TIP3    H1 2574   4.170   0.692   0.357 -0.2348  0.3115  0.4966
  870TIP3    H2 2575   4.171   0.815   0.446 -0.6685  0.7681 -0.1194
  871TIP3   OH2 2576   0.145   2.546   2.107  0.3410 -0.2158  0.4946
  871TIP3    H1 2577   0.235   2.562   2.135  1.2654 -0.9370 -1.8394
  871TIP3    H2 2578   0.143   2.454   2.082 -0.4806  0.2503 -1.3292
  872TIP3   OH2 2579   6.598   2.352   5.429 -0.0789  0.3790 -0.2214
  872TIP3    H1 2580   6.656   2.277   5.445 -0.0217  0.2622 -0.9645
  872TIP3    H2 2581   6.525   2.338   5.490 -0.6835 -0.9492 -1.1854
  873TIP3   OH2 2582   1.925   0.412   4.737 -0.1014 -0.2661  0.2898
  873TIP3    H1 2583   1.881   0.487   4.696 -1.5116 -0.3776  1.5142
  873TIP3    H2 2584   2.018   0.436   4.738 -0.4780  1.2745  0.2613
  874TIP3   OH2 2585   3.960   1.171   2.407  0.5177 -0.0695  0.2240
  874TIP3    H1 2586   4.041   1.218   2.391  0.3615  0.6979  1.5185
  874TIP3    H2 2587   3.894   1.216   2.355  0.1099  2.0447  2.4010
  875TIP3   OH2 2588   0.944   4.086   4.407  0.1866 -0.3553  0.2918
  875TIP3    H1 2589   0.984   4.033   4.475  0.2088 -0.1653  0.4259
  875TIP3    H2 2590   0.996   4.068   4.329 -0.1711 -0.9960  0.1906
  876TIP3   OH2 2591   4.607   0.872   5.606 -0.2235 -0.5737  0.3948
  876TIP3    H1 2592   4.563   0.890   5.523  0.9141 -0.0002 -0.1230
  876TIP3    H2 2593   4.657   0.952   5.624  3.3473 -2.2869 -0.8710
  877TIP3   OH2 2594   3.967   5.435   3.878 -0.2906  0.3906 -0.2801
  877TIP3    H1 2595   4.054   5.398   3.895 -0.6434 -0.5636 -0.5239
  877TIP3    H2 2596   3.980   5.530   3.888  0.8527  0.2936 -0.6212
  878TIP3   OH2 2597   5.698   3.972   2.618  0.4952  0.2594 -0.3452
  878TIP3    H1 2598   5.695   4.027   2.696 -0.1022  0.1029 -0.2502
  878TIP3    H2 2599   5.766   3.907   2.637  1.9315  1.5529 -0.8729
  879TIP3   OH2 2600   0.682   3.262   0.371 -0.2757 -0.6713  0.1436
  879TIP3    H1 2601   0.750   3.308   0.421 -0.0582 -1.1073  0.2488
  879TIP3    H2 2602   0.675   3.176   0.413 -2.2950  0.0320  1.4273
  880TIP3   OH2 2603   5.093   5.128   2.203  0.1490  1.0524  0.7356
  880TIP3    H1 2604   5.131   5.089   2.124  0.7214  0.4460  1.2960
  880TIP3    H2 2605   5.028   5.189   2.171 -1.3591 -0.9320 -0.2001
  881TIP3   OH2 2606   2.046   2.794   3.241 -0.7045 -0.0687  0.4397
  881TIP3    H1 2607   2.025   2.874   3.193  2.6560  0.6063 -0.1235
  881TIP3    H2 2608   2.119   2.755   3.192 -0.4836 -2.0682  2.2127
  882TIP3   OH2 2609   0.637   1.861   5.121 -0.6090 -0.3252  0.7180
  882TIP3    H1 2610   0.688   1.890   5.197 -1.0536  0.5314  0.7038
  882TIP3    H2 2611   0.551   1.900   5.134 -0.9244 -0.8421  0.1790
  883TIP3   OH2 2612   1.340   3.470   0.022 -0.1068 -0.0289 -0.5334
  883TIP3    H1 2613   1.263   3.478  -0.034 -0.8274  0.6076  0.5352
  883TIP3    H2 2614   1.315   3.408   0.090 -0.3580  1.6115  0.9155
  884TIP3   OH2 2615   6.041   4.870   0.318 -0.1435 -0.5724  0.4025
  884TIP3    H1 2616   5.973   4.907   0.374  0.1644 -1.1320  1.1605
  884TIP3    H2 2617   6.027   4.776   0.321  0.0593 -0.6279 -0.2336
  885TIP3   OH2 2618   1.185   2.507   0.636  0.2705  0.3313 -0.1369
  885TIP3    H1 2619   1.198   2.433   0.576 -0.1919 -0.7448  1.0540
  885TIP3    H2 2620   1.230   2.482   0.716 -2.5138 -0.1169  1.4073
  886TIP3   OH2 2621   1.482   1.884   1.815  0.1092  0.1165  0.0327
  886TIP3    H1 2622   1.494   1.947   1.886 -1.2380  2.4126 -1.6668
  886TIP3    H2 2623   1.571   1.860   1.790  0.7526  2.5874 -0.2798
  887TIP3   OH2 2624   2.669   3.220   4.651  0.7220  1.1359  0.2145
  887TIP3    H1 2625   2.647   3.186   4.565 -0.8774 -1.8645  1.6839
  887TIP3    H2 2626   2.607   3.292   4.666 -1.0081 -0.2546 -0.0084
  888TIP3   OH2 2627   2.187   2.059   2.446 -0.1578 -0.0495  0.0265
  888TIP3    H1 2628   2.276   2.032   2.425 -0.7059 -2.2034  0.1986
  888TIP3    H2 2629   2.188   2.155   2.440  2.4680  0.0860  1.2506
  889TIP3   OH2 2630   2.438   3.688   0.900 -0.3722  0.0831  0.5921
  889TIP3    H1 2631   2.466   3.664   0.989  1.3172 -0.6868 -0.1004
  889TIP3    H2 2632   2.480   3.772   0.884 -0.0492 -0.1376  0.2630
  890TIP3   OH2 2633   6.218   4.444   1.573 -0.0370 -0.2101  0.1295
  890TIP3    H1 2634   6.197   4.363   1.527  0.2803 -0.7121  0.8629
  890TIP3    H2 2635   6.169   4.511   1.525 -0.9970 -0.9496  0.0312
  891TIP3   OH2 2636   6.165   1.207   2.997  0.0804  0.9266 -0.7491
  891TIP3    H1 2637   6.098   1.252   3.049  0.7293 -0.8421  1.8076
  891TIP3    H2 2638   6.245   1.213   3.049  0.9656 -0.3216 -1.8852
  892TIP3   OH2 2639   3.652   3.752   0.466  0.3189  0.5678  0.5664
  892TIP3    H1 2640   3.640   3.683   0.401  1.6746  0.0591  0.8371
  892TIP3    H2 2641   3.602   3.722   0.542  0.7901 -0.0644  0.6364
  893TIP3   OH2 2642   1.666   6.030   5.268 -0.2424 -0.3604 -0.1442
  893TIP3    H1 2643   1.623   6.009   5.350  0.5016 -1.1448  0.0547
  893TIP3    H2 2644   1.595   6.033   5.203 -0.5298 -2.3393  0.0328
  894TIP3   OH2 2645   0.574   2.010   1.670  0.2426 -0.0460 -0.2800
  894TIP3    H1 2646   0.593   2.068   1.743  1.3099 -0.7384  0.0169
  894TIP3    H2 2647   0.659   1.987   1.634 -0.2662  0.2249 -1.7124
  895TIP3   OH2 2648   2.089   1.837   5.588  0.2984 -0.1524 -0.0299
  895TIP3    H1 2649   2.165   1.846   5.531  0.7522 -0.4945  0.5145
  895TIP3    H2 2650   2.117   1.872   5.672 -0.0700 -0.4865  0.2388
  896TIP3   OH2 2651   1.295   6.200   3.950 -0.2382  0.0803  0.1067
  896TIP3    H1 2652   1.338   6.266   3.895  1.2032  1.2160  2.4438
  896TIP3    H2 2653   1.304   6.119   3.900  2.5858  0.7178 -0.5922
  897TIP3   OH2 2654   3.655   0.636   0.346  0.4372  0.4632 -0.1311
  897TIP3    H1 2655   3.657   0.649   0.251 -1.1464 -2.2384 -0.6435
  897TIP3    H2 2656   3.598   0.706   0.378  0.7912  1.2692 -1.1919
  898TIP3   OH2 2657   5.755   1.358   3.431 -0.1999  0.0548  0.4821
  898TIP3    H1 2658   5.739   1.318   3.517  0.6267  1.0171  1.1081
  898TIP3    H2 2659   5.846   1.337   3.412 -0.0176  0.8805  0.4166
  899TIP3   OH2 2660   6.133   5.929   1.297 -0.4391  0.0944 -0.6700
  899TIP3    H1 2661   6.053   5.953   1.250  0.5449  0.8923 -1.9926
  899TIP3    H2 2662   6.183   5.878   1.234  0.8059  0.9837 -0.4403
  900TIP3   OH2 2663   2.049   6.561   4.759 -0.1245  0.1349  0.0481
  900TIP3    H1 2664   1.966   6.582   4.718 -0.7873  0.5990  1.5562
  900TIP3    H2 2665   2.061   6.467   4.744 -0.7586  0.1270 -0.4220
  901TIP3   OH2 2666   4.419   6.780   5.445  0.4533  0.0145  0.2600
  901TIP3    H1 2667   4.435   6.727   5.367 -0.1331 -0.8556  0.7146
  901TIP3    H2 2668   4.442   6.869   5.418  1.2635 -0.4236 -0.5839
  902TIP3   OH2 2669   6.994   0.727   3.429 -0.4965 -0.8350  0.0730
  902TIP3    H1 2670   7.002   0.641   3.471  0.8001  0.0174  1.7054
  902TIP3    H2 2671   7.084   0.751   3.406 -0.5599  0.7970  1.2767
  903TIP3   OH2 2672   6.934   2.311   1.589  0.0019  0.3051  0.1127
  903TIP3    H1 2673   6.991   2.351   1.655  0.7600  2.5281 -1.7538
  903TIP3    H2 2674   6.994   2.279   1.521 -0.8385 -0.1430 -0.4443
  904TIP3   OH2 2675   3.911   4.243   0.853  0.6074 -0.4567 -0.2808
  904TIP3    H1 2676   3.996   4.211   0.881  1.2499  0.4713 -1.0746
  904TIP3    H2 2677   3.930   4.325   0.807 -0.6197 -0.6615 -1.2392
  905TIP3   OH2 2678   3.633   4.744   1.063  0.2026  0.4490  0.1825
  905TIP3    H1 2679   3.711   4.795   1.087 -0.0088  0.9353 -0.1474
  905TIP3    H2 2680   3.584   4.736   1.145  1.1738 -0.9067  0.6661
  906TIP3   OH2 2681   1.393   5.991   2.984 -0.5211  0.6364 -0.0879
  906TIP3    H1 2682   1.315   6.006   2.931 -1.1340 -3.9800 -0.8776
  906TIP3    H2 2683   1.465   5.997   2.922 -0.6900  0.6143 -0.2885
  907TIP3   OH2 2684   2.866   1.882   2.075  0.1419  0.1923 -0.1507
  907TIP3    H1 2685   2.842   1.909   2.164 -0.2299  0.3829 -0.3089
  907TIP3    H2 2686   2.786   1.892   2.024  0.0902 -0.8726 -0.3004
  908TIP3   OH2 2687   1.597   4.424   5.100 -0.0713  0.6384  0.2885
  908TIP3    H1 2688   1.656   4.436   5.175  2.1505 -0.5536 -1.1421
  908TIP3    H2 2689   1.577   4.330   5.102 -2.4517  1.0957  1.0320
  909TIP3   OH2 2690   6.627   1.419   3.189  0.6217 -0.0409  0.7268
  909TIP3    H1 2691   6.567   1.474   3.139 -1.0957 -0.4747  2.2048
  909TIP3    H2 2692   6.684   1.482   3.235  0.4977  0.4079  0.2764
  910TIP3   OH2 2693   6.229   1.371   4.170 -0.0504 -0.2432  0.4980
  910TIP3    H1 2694   6.204   1.321   4.247 -1.5707 -0.5762 -0.1707
  910TIP3    H2 2695   6.170   1.340   4.101  1.0621  0.2617 -0.7261
  911TIP3   OH2 2696   6.170   1.553   4.883 -0.2558  0.0181  0.6526
  911TIP3    H1 2697   6.092   1.515   4.924 -0.1057 -1.6777 -0.5331
  911TIP3    H2 2698   6.136   1.621   4.824 -0.8461 -0.6204  0.2407
  912TIP3   OH2 2699   6.867   3.199   0.448 -0.0867 -0.4824 -0.6520
  912TIP3    H1 2700   6.852   3.215   0.354 -2.1936 -0.6214 -0.3783
  912TIP3    H2 2701   6.954   3.159   0.451  0.4183  0.3569 -2.4507
  913TIP3   OH2 2702   2.064   4.676   3.498  0.1532 -0.7173 -0.1099
  913TIP3    H1 2703   2.025   4.614   3.559 -0.5800 -0.8054 -0.6528
  913TIP3    H2 2704   2.149   4.697   3.537 -0.6266 -0.1346  1.3444
  914TIP3   OH2 2705   5.699   2.926   4.215 -0.0550  0.1322  0.7256
  914TIP3    H1 2706   5.659   2.859   4.271 -0.3468 -0.5942 -0.3039
  914TIP3    H2 2707   5.625   2.962   4.165  0.3962 -0.3782 -0.3404
  915TIP3   OH2 2708   1.087   1.830   1.467 -0.2657 -0.1560 -0.1864
  915TIP3    H1 2709   1.093   1.867   1.555  1.3523 -0.8979  0.0663
  915TIP3    H2 2710   1.118   1.740   1.478 -2.1088 -0.9536 -1.1490
  916TIP3   OH2 2711   5.521   1.039   4.234 -0.4070  0.1017 -0.6514
  916TIP3    H1 2712   5.504   1.049   4.140  0.0062  1.7644 -0.5811
  916TIP3    H2 2713   5.490   1.120   4.273 -0.0270 -0.3174  0.5879
  917TIP3   OH2 2714   0.247   5.864   2.887  0.4345  0.0361 -0.1362
  917TIP3    H1 2715   0.321   5.811   2.917  1.6040  2.2210  1.0970
  917TIP3    H2 2716   0.282   5.914   2.813 -0.4426 -0.3759 -0.8434
  918TIP3   OH2 2717   2.326   5.860   2.222  0.1857 -0.4135 -0.1862
  918TIP3    H1 2718   2.334   5.894   2.311 -1.2966 -3.1941  1.1349
  918TIP3    H2 2719   2.250   5.906   2.186  0.0640 -0.1267  0.4256
  919TIP3   OH2 2720   2.721   5.580   0.666  0.0266  0.0753 -0.1527
  919TIP3    H1 2721   2.798   5.589   0.723  0.5484 -1.4805 -0.5663
  919TIP3    H2 2722   2.669   5.658   0.684 -0.2069 -0.6647  3.0473
  920TIP3   OH2 2723   7.173   2.439   4.906 -0.2581  0.2972 -0.4860
  920TIP3    H1 2724   7.117   2.371   4.943  0.0357 -0.4418 -1.3529
  920TIP3    H2 2725   7.113   2.506   4.875 -0.5396  0.5874  0.6435
  921TIP3   OH2 2726   2.860   4.865   1.092 -0.4211  0.6218 -0.0175
  921TIP3    H1 2727   2.952   4.845   1.108 -0.3137 -0.8977 -2.0667
  921TIP3    H2 2728   2.859   4.897   1.001 -2.1099 -1.3426 -0.7720
  922TIP3   OH2 2729   4.170   2.213   3.673 -0.4063 -0.1769 -0.4382
  922TIP3    H1 2730   4.078   2.225   3.650 -0.3708 -0.5519 -0.7813
  922TIP3    H2 2731   4.172   2.134   3.726 -0.4475  0.5229  0.6335
  923TIP3   OH2 2732   2.957   0.336   1.232  0.6490 -0.0670  0.5144
  923TIP3    H1 2733   2.971   0.244   1.255 -0.1103 -0.1933  0.5262
  923TIP3    H2 2734   3.008   0.385   1.297 -0.4363 -0.4483  1.7140
  924TIP3   OH2 2735   1.664   2.991   4.935 -0.0701  0.5928  0.2141
  924TIP3    H1 2736   1.689   3.054   4.867 -0.7517  1.5030  0.7965
  924TIP3    H2 2737   1.609   3.040   4.996 -2.2691 -0.9942 -0.3273
  925TIP3   OH2 2738   4.268   1.719   0.328  0.1726 -0.3352  0.2260
  925TIP3    H1 2739   4.285   1.792   0.268 -2.2269  1.6728  1.8246
  925TIP3    H2 2740   4.297   1.751   0.413 -1.0092 -1.1991  0.9737
  926TIP3   OH2 2741   2.217   0.360   4.751  0.6741 -0.4122  0.4368
  926TIP3    H1 2742   2.186   0.288   4.806 -0.1535 -0.3229  0.1065
  926TIP3    H2 2743   2.212   0.325   4.662 -0.6729  0.3586  0.1796
  927TIP3   OH2 2744   2.890   1.544   2.061  0.6819  0.1296  0.7289
  927TIP3    H1 2745   2.796   1.558   2.064  0.5416 -0.3592 -0.4898
  927TIP3    H2 2746   2.920   1.603   1.991  1.3328  0.5197  1.3266
  928TIP3   OH2 2747   1.564   2.963   5.341 -0.2190  0.2141  0.3676
  928TIP3    H1 2748   1.583   2.877   5.305 -2.6617 -0.8715  1.4513
  928TIP3    H2 2749   1.618   2.968   5.420  0.2353 -0.1418  0.0865
  929TIP3   OH2 2750   0.125   1.288   4.233 -0.0132  0.2465 -0.1800
  929TIP3    H1 2751   0.214   1.321   4.227  1.0440 -2.2351  0.4919
  929TIP3    H2 2752   0.127   1.205   4.185 -1.3935 -0.8479  1.5239
  930TIP3   OH2 2753   1.363   2.462   4.500  0.0493 -0.2905 -0.3044
  930TIP3    H1 2754   1.429   2.516   4.542  1.9340 -0.7652 -2.4646
  930TIP3    H2 2755   1.349   2.389   4.561 -0.6022  1.2388  1.4435
  931TIP3   OH2 2756   6.221   3.243   0.702 -0.0982  0.3712  0.1432
  931TIP3    H1 2757   6.154   3.281   0.646  0.1823 -0.5362 -0.8495
  931TIP3    H2 2758   6.174   3.182   0.759 -0.0701 -0.7786 -1.0171
  932TIP3   OH2 2759   0.649   3.999   3.738 -0.0244 -0.0697  0.1548
  932TIP3    H1 2760   0.642   4.041   3.652  0.6235  1.4713  0.8325
  932TIP3    H2 2761   0.558   3.980   3.762 -0.3033  0.6135 -0.3278
  933TIP3   OH2 2762   4.328   5.983   3.010  0.6471  0.2275  0.5197
  933TIP3    H1 2763   4.352   6.061   3.059  0.6293 -0.0574  0.9985
  933TIP3    H2 2764   4.242   5.958   3.046  0.2808  0.4413 -0.1883
  934TIP3   OH2 2765   5.271   3.319   0.603  0.3271 -0.0804 -0.0298
  934TIP3    H1 2766   5.222   3.380   0.548  1.3895  0.0137 -0.9014
  934TIP3    H2 2767   5.352   3.366   0.624  0.4497 -0.5772  0.6409
  935TIP3   OH2 2768   5.618   6.460   1.631 -0.6300 -0.0380 -0.0048
  935TIP3    H1 2769   5.582   6.422   1.711  0.7468 -0.5256  0.4280
  935TIP3    H2 2770   5.600   6.394   1.563 -0.6020 -0.2475  0.1898
  936TIP3   OH2 2771   3.581   3.084   3.465  0.3422 -0.1429 -0.4524
  936TIP3    H1 2772   3.490   3.061   3.443  0.0724  1.1044 -0.6908
  936TIP3    H2 2773   3.630   3.065   3.385 -0.1227  1.4517 -1.1399
  937TIP3   OH2 2774   4.270   5.627   0.150  0.1897  0.4653  0.1363
  937TIP3    H1 2775   4.322   5.695   0.194  0.3008  1.5219 -1.5453
  937TIP3    H2 2776   4.187   5.627   0.197  1.4138 -0.8796  2.5324
  938TIP3   OH2 2777   6.086   2.740   0.764 -0.4654  0.0466  0.6006
  938TIP3    H1 2778   6.122   2.827   0.747 -1.8775  1.0817  2.5326
  938TIP3    H2 2779   6.158   2.692   0.805  0.3201  0.2820 -0.4622
  939TIP3   OH2 2780   6.292   3.306   4.356 -0.0929  0.3460  0.2621
  939TIP3    H1 2781   6.346   3.227   4.355 -0.9434 -0.2510  0.0892
  939TIP3    H2 2782   6.306   3.345   4.442 -0.4780 -0.5751  0.7515
  940TIP3   OH2 2783   3.661   4.383   3.290 -0.0524 -0.4624 -0.0943
  940TIP3    H1 2784   3.648   4.474   3.264  0.9715 -0.6121 -1.2497
  940TIP3    H2 2785   3.591   4.365   3.353  0.5048  1.5004  1.1687
  941TIP3   OH2 2786   4.686   1.380   2.983 -0.4875 -0.2517  0.3994
  941TIP3    H1 2787   4.741   1.302   2.971 -1.7697 -0.8492 -2.2566
  941TIP3    H2 2788   4.708   1.436   2.909 -0.0267  1.7160  1.9514
  942TIP3   OH2 2789   4.904   5.613   5.131  0.5727  0.5269 -0.4909
  942TIP3    H1 2790   4.862   5.632   5.047  1.9116  0.7967 -1.1156
  942TIP3    H2 2791   4.926   5.699   5.168  0.0262  0.4103  0.1344
  943TIP3   OH2 2792   0.552   0.293   5.193  0.0424 -0.0159  0.3584
  943TIP3    H1 2793   0.482   0.359   5.186 -0.1700 -0.0837  1.6187
  943TIP3    H2 2794   0.569   0.266   5.103 -3.7886 -2.3250  0.1031
  944TIP3   OH2 2795   0.808   5.754   5.636  0.1758  0.1700  0.1646
  944TIP3    H1 2796   0.832   5.723   5.723 -2.1710  1.0408  1.2121
  944TIP3    H2 2797   0.713   5.762   5.639 -0.1013 -0.8553 -2.8885
  945TIP3   OH2 2798   3.656   2.726   4.718 -0.2960 -0.5382  0.2418
  945TIP3    H1 2799   3.737   2.688   4.752  0.8563  0.9510 -0.7240
  945TIP3    H2 2800   3.678   2.753   4.628 -1.5695  0.7085  0.2686
  946TIP3   OH2 2801   0.774   0.337   2.002 -0.1294  0.0298  0.5133
  946TIP3    H1 2802   0.805   0.309   2.088  0.0712  2.1790  1.1976
  946TIP3    H2 2803   0.845   0.312   1.942  1.1968  1.3069  1.4655
  947TIP3   OH2 2804   5.281   4.200   1.288  0.6073  0.0128 -0.0049
  947TIP3    H1 2805   5.266   4.116   1.330 -0.4838  0.0623 -0.2557
  947TIP3    H2 2806   5.305   4.178   1.198  0.2730 -0.0327 -0.0840
  948TIP3   OH2 2807   2.171   1.961   4.313 -0.0929  0.0327  0.5092
  948TIP3    H1 2808   2.113   1.952   4.389 -2.3124  0.3430 -1.0793
  948TIP3    H2 2809   2.184   2.056   4.305 -0.7886  0.0863 -0.1229
  949TIP3   OH2 2810   0.660   2.477   5.801  0.3050 -0.4598 -0.2878
  949TIP3    H1 2811   0.732   2.525   5.842 -0.5882 -0.0196  0.8122
  949TIP3    H2 2812   0.643   2.523   5.719  0.1643  0.4568  0.2502
  950TIP3   OH2 2813   4.934   0.229   3.602 -1.0912 -0.3425 -0.6271
  950TIP3    H1 2814   4.844   0.253   3.621 -1.1904  0.5352 -2.0720
  950TIP3    H2 2815   4.928   0.173   3.524 -0.4172 -0.6601 -0.4655
  951TIP3   OH2 2816   2.297   2.111   4.539  0.2655 -0.2066  0.2023
  951TIP3    H1 2817   2.367   2.137   4.479  1.8586  0.5359  2.2535
  951TIP3    H2 2818   2.341   2.058   4.606 -1.2753 -0.4032  1.1140
  952TIP3   OH2 2819   2.820   3.221   3.959 -0.5679  0.0156 -0.3755
  952TIP3    H1 2820   2.728   3.201   3.946 -0.2994 -0.6524 -1.3016
  952TIP3    H2 2821   2.823   3.317   3.965 -1.6844 -0.0301  2.8134
  953TIP3   OH2 2822   1.071   1.924   0.422 -0.3025 -0.3944 -0.4559
  953TIP3    H1 2823   1.101   1.932   0.331 -1.7381  0.0510 -0.9229
  953TIP3    H2 2824   0.984   1.886   0.415 -0.0875 -1.1628  0.8107
  954TIP3   OH2 2825   4.617   1.729   2.220  0.4708 -0.6434  0.3957
  954TIP3    H1 2826   4.559   1.709   2.147  0.0388 -0.6734  0.7488
  954TIP3    H2 2827   4.699   1.685   2.199  0.2500 -0.8960  0.0751
  955TIP3   OH2 2828   3.093   1.158   2.773  0.4386 -0.1613 -0.3081
  955TIP3    H1 2829   3.127   1.069   2.784 -0.7545 -0.5964  0.0568
  955TIP3    H2 2830   2.999   1.150   2.791  0.2577  1.1184 -0.5797
  956TIP3   OH2 2831   4.896   1.476   5.171 -0.0276 -0.0828 -0.6780
  956TIP3    H1 2832   4.930   1.391   5.199 -0.2539 -0.7124 -2.2575
  956TIP3    H2 2833   4.858   1.460   5.085 -1.5558  1.2746 -0.3047
  957TIP3   OH2 2834   1.164   3.233   1.896 -0.4191  0.0904  0.2067
  957TIP3    H1 2835   1.069   3.225   1.897 -0.3381 -1.2207 -0.4251
  957TIP3    H2 2836   1.189   3.237   1.988 -0.9324 -2.1826  0.5031
  958TIP3   OH2 2837   1.798   0.412   4.474  0.0139 -0.0006  0.4492
  958TIP3    H1 2838   1.855   0.487   4.491 -0.7678  1.1260 -1.5304
  958TIP3    H2 2839   1.851   0.353   4.421 -0.5611  1.0426 -1.3826
  959TIP3   OH2 2840   4.027   4.427   1.719 -0.1831  0.3257 -0.5077
  959TIP3    H1 2841   4.102   4.473   1.756 -0.7022  1.2919 -0.6221
  959TIP3    H2 2842   4.051   4.413   1.627  0.2918 -0.3350 -0.2940
  960TIP3   OH2 2843   1.271   0.051   4.436 -0.1692  0.8902  0.2476
  960TIP3    H1 2844   1.220   0.115   4.485 -1.0334  0.5751 -0.2084
  960TIP3    H2 2845   1.353   0.096   4.414  0.0851  1.1416  1.6669
  961TIP3   OH2 2846   7.170   5.716   0.788  0.5037 -0.0951 -0.1006
  961TIP3    H1 2847   7.152   5.809   0.803 -0.9239  0.4863 -4.1482
  961TIP3    H2 2848   7.095   5.671   0.824 -0.1571  0.6268 -0.5441
  962TIP3   OH2 2849   0.412   3.443   5.488 -0.1173  0.5798  0.2794
  962TIP3    H1 2850   0.354   3.374   5.521 -1.7890  1.1443 -1.3268
  962TIP3    H2 2851   0.398   3.517   5.547 -2.5183  1.3331 -1.1089
  963TIP3   OH2 2852   2.299   4.983   3.059  0.0433 -0.4109  0.1871
  963TIP3    H1 2853   2.262   4.905   3.101  2.9246 -1.1511  1.6227
  963TIP3    H2 2854   2.248   5.056   3.095 -0.7126 -1.4061  1.2110
  964TIP3   OH2 2855   3.751   2.754   4.477 -0.4937  0.5870  0.4597
  964TIP3    H1 2856   3.803   2.675   4.464  0.5809  1.1931  0.9292
  964TIP3    H2 2857   3.798   2.823   4.430 -1.2681  1.0038  0.2777
  965TIP3   OH2 2858   4.789   3.290   3.837 -0.2180 -0.3722 -0.4447
  965TIP3    H1 2859   4.756   3.333   3.916 -0.4124 -0.3617 -0.5312
  965TIP3    H2 2860   4.874   3.253   3.863  0.2218  0.5624 -0.5261
  966TIP3   OH2 2861   2.145   2.757   0.583  0.0380 -0.5796  0.1624
  966TIP3    H1 2862   2.128   2.811   0.506  0.6076 -1.9300 -0.9591
  966TIP3    H2 2863   2.089   2.794   0.651 -0.4797  0.6536 -0.8866
  967TIP3   OH2 2864   5.563   3.606   5.400 -0.4790 -0.3329  0.7741
  967TIP3    H1 2865   5.587   3.616   5.492  0.2629 -2.3127  0.8353
  967TIP3    H2 2866   5.544   3.513   5.390  1.8899 -0.6618 -1.6267
  968TIP3   OH2 2867   5.738   4.715   4.735 -0.4582  0.4328  0.0442
  968TIP3    H1 2868   5.791   4.780   4.781 -0.3744 -1.0449  2.1889
  968TIP3    H2 2869   5.661   4.763   4.705 -0.3265  1.5574  1.4179
  969TIP3   OH2 2870   1.123   6.750   3.251  0.3446 -0.0670  0.6054
  969TIP3    H1 2871   1.195   6.717   3.305  0.2774 -0.5848  0.3809
  969TIP3    H2 2872   1.061   6.678   3.248  0.4706 -0.1472 -0.3914
  970TIP3   OH2 2873   5.061   5.427   4.223  0.0420  0.1480 -0.0146
  970TIP3    H1 2874   5.044   5.333   4.227  2.9518 -0.4545 -0.0085
  970TIP3    H2 2875   5.064   5.447   4.129  1.8061 -0.3084 -0.0829
  971TIP3   OH2 2876   5.210   6.736   4.388  0.1693 -0.4485 -0.4181
  971TIP3    H1 2877   5.252   6.666   4.439 -1.5949 -2.0960 -1.1433
  971TIP3    H2 2878   5.263   6.814   4.408  1.1644 -1.5892  1.7747
  972TIP3   OH2 2879   5.808   5.121   0.213  0.6550 -0.5057  0.2335
  972TIP3    H1 2880   5.757   5.057   0.262 -0.2353  1.7556  2.5084
  972TIP3    H2 2881   5.866   5.160   0.278  0.8345  1.2929 -0.9213
  973TIP3   OH2 2882   3.013   2.189   0.411  0.1034  0.1120 -0.0677
  973TIP3    H1 2883   2.943   2.156   0.355  1.0194 -1.9644 -0.0681
  973TIP3    H2 2884   3.065   2.246   0.354  0.4064 -1.1307 -1.0744
  974TIP3   OH2 2885   3.954   5.375   2.387  0.0543 -0.0548  0.2437
  974TIP3    H1 2886   3.946   5.356   2.481 -0.0895  0.2177  0.2881
  974TIP3    H2 2887   4.003   5.301   2.352 -0.1468 -0.3035  0.4834
  975TIP3   OH2 2888   6.005   5.159   4.718  0.2235 -0.7696 -0.0972
  975TIP3    H1 2889   5.949   5.237   4.725 -1.4071 -1.9778  1.3183
  975TIP3    H2 2890   6.065   5.166   4.792  0.5781 -0.5136 -0.4030
  976TIP3   OH2 2891   2.489   2.080   0.975  0.0171  0.1110  0.4545
  976TIP3    H1 2892   2.582   2.058   0.982 -0.2277 -0.6789  1.6926
  976TIP3    H2 2893   2.479   2.162   1.023 -0.2296 -0.8680  2.1689
  977TIP3   OH2 2894   4.488   2.415   0.498 -0.0454 -0.2084  0.1615
  977TIP3    H1 2895   4.451   2.402   0.585 -0.8332 -0.1235 -0.1519
  977TIP3    H2 2896   4.581   2.427   0.514 -0.0712 -0.8962  0.9272
  978TIP3   OH2 2897   3.233   6.035   1.427 -0.0491  0.5077 -0.0270
  978TIP3    H1 2898   3.183   6.054   1.506  2.3137  2.1240  1.1953
  978TIP3    H2 2899   3.261   5.944   1.437 -0.6852  0.3633  0.4569
  979TIP3   OH2 2900   5.260   5.110   0.554  0.3384 -0.4387 -0.0929
  979TIP3    H1 2901   5.275   5.179   0.490 -0.9756  0.3053  0.3667
  979TIP3    H2 2902   5.236   5.033   0.502 -0.9885  0.2319 -0.4987
  980TIP3   OH2 2903   1.020   6.417   2.678 -0.8377  0.3437 -0.0405
  980TIP3    H1 2904   1.029   6.322   2.684 -0.2675  0.3156 -1.0507
  980TIP3    H2 2905   1.049   6.449   2.763  0.3853 -0.3218 -0.1741
  981TIP3   OH2 2906   2.774   4.838   5.150 -0.1267  0.0397 -0.3355
  981TIP3    H1 2907   2.749   4.926   5.178  0.3751 -0.2607  1.1750
  981TIP3    H2 2908   2.733   4.780   5.215  1.5003 -0.6642  0.1182
  982TIP3   OH2 2909   5.668   3.108   1.948  0.1239 -0.7525  0.4641
  982TIP3    H1 2910   5.660   3.193   1.991  0.0298 -0.8290  0.6009
  982TIP3    H2 2911   5.654   3.044   2.019 -0.1151 -0.8790  0.3044
  983TIP3   OH2 2912   0.868   3.438   0.492  0.6597 -0.5533  0.1727
  983TIP3    H1 2913   0.923   3.516   0.494 -1.3809  0.9516  0.2859
  983TIP3    H2 2914   0.794   3.459   0.549 -1.1185 -1.6512 -1.5945
  984TIP3   OH2 2915   0.106   3.138   1.686  0.0611  0.2805  0.3873
  984TIP3    H1 2916   0.164   3.155   1.612  2.6392  0.8837  2.4019
  984TIP3    H2 2917   0.127   3.207   1.750 -2.2579 -0.0349  1.5968
  985TIP3   OH2 2918   5.804   3.488   4.486 -0.2711 -0.2832  0.3618
  985TIP3    H1 2919   5.789   3.561   4.546 -0.0501 -0.2250  0.3452
  985TIP3    H2 2920   5.717   3.465   4.455 -0.2188  0.8578 -0.6887
  986TIP3   OH2 2921   4.618   3.812   5.648 -0.2483  0.2916 -0.3442
  986TIP3    H1 2922   4.709   3.823   5.620  0.5417 -2.1837  0.9872
  986TIP3    H2 2923   4.615   3.850   5.736 -0.3566 -0.1160 -0.1697
  987TIP3   OH2 2924   6.645   1.139   2.744 -0.2741  0.1785  0.3244
  987TIP3    H1 2925   6.589   1.068   2.775 -0.2485  0.5925  1.3810
  987TIP3    H2 2926   6.721   1.094   2.707  0.4187 -0.3858  2.2761
  988TIP3   OH2 2927   1.732   5.286   5.522 -0.0907  0.3272 -0.1309
  988TIP3    H1 2928   1.640   5.260   5.512 -0.2541  0.9667 -0.3494
  988TIP3    H2 2929   1.756   5.322   5.437 -0.3622  2.3474  0.5819
  989TIP3   OH2 2930   3.100   4.329   1.810  0.7158  0.1185  0.2095
  989TIP3    H1 2931   3.105   4.332   1.905  1.4472  0.5327  0.1656
  989TIP3    H2 2932   3.009   4.308   1.791  0.1552  1.7474  0.9826
  990TIP3   OH2 2933   4.281   6.289   0.857 -0.4096 -0.1826  0.2331
  990TIP3    H1 2934   4.201   6.237   0.872 -1.3018  1.2601  0.6363
  990TIP3    H2 2935   4.349   6.243   0.906 -0.8638 -1.7113 -0.5031
  991TIP3   OH2 2936   5.472   2.264   0.978 -0.3706  0.0986  0.1874
  991TIP3    H1 2937   5.528   2.285   0.903 -1.4044 -1.7777 -1.1764
  991TIP3    H2 2938   5.430   2.348   1.000  1.5230  1.1388  0.0796
  992TIP3   OH2 2939   3.762   2.223   1.307 -0.4792  0.9796 -0.6011
  992TIP3    H1 2940   3.740   2.166   1.381 -1.4207  1.5718 -0.3923
  992TIP3    H2 2941   3.833   2.179   1.262 -0.4656  0.1833  0.1746
  993TIP3   OH2 2942   6.966   0.291   1.769 -0.7999 -0.6088 -0.5416
  993TIP3    H1 2943   6.990   0.287   1.862 -1.5018  0.6357 -0.2786
  993TIP3    H2 2944   7.000   0.376   1.739 -1.0633 -0.7532 -1.2788
  994TIP3   OH2 2945   5.174   4.724   1.015 -0.6569  0.1304  0.0208
  994TIP3    H1 2946   5.264   4.707   0.987 -0.1531  0.2456  1.5039
  994TIP3    H2 2947   5.168   4.820   1.021 -0.4686  0.0817  1.1636
  995TIP3   OH2 2948   4.062   3.849   4.221  0.4829 -0.1810  0.2315
  995TIP3    H1 2949   4.056   3.783   4.152  3.4297  0.9246 -1.2487
  995TIP3    H2 2950   4.047   3.932   4.176 -0.4664  0.4028  1.5513
  996TIP3   OH2 2951   0.219   2.482   4.934 -0.3469  0.0307  0.3027
  996TIP3    H1 2952   0.126   2.493   4.919 -0.1114  4.1166  0.7082
  996TIP3    H2 2953   0.225   2.418   5.005 -2.6778 -1.4795 -0.7506
  997TIP3   OH2 2954   5.490   3.235   2.972 -0.1420  0.1989 -0.5548
  997TIP3    H1 2955   5.476   3.232   2.877  0.6580 -0.0776 -0.6788
  997TIP3    H2 2956   5.557   3.303   2.984 -1.2608  1.2404 -0.0370
  998TIP3   OH2 2957   6.673   6.710   1.785  0.3771 -0.0291 -0.2033
  998TIP3    H1 2958   6.694   6.648   1.716  2.7068 -0.6210  0.9158
  998TIP3    H2 2959   6.623   6.659   1.849  0.9476 -0.3473 -0.0055
  999TIP3   OH2 2960   2.921   2.918   2.369  0.6695 -0.6757  0.4662
  999TIP3    H1 2961   3.013   2.925   2.346  0.6174  0.1476  0.4953
  999TIP3    H2 2962   2.914   2.961   2.454  0.1187 -0.0276  0.1008
 1000TIP3   OH2 2963   4.517   3.672   0.008 -0.3827 -0.5209  0.3588
 1000TIP3    H1 2964   4.460   3.663   0.085 -0.3231  1.5084  0.6763
 1000TIP3    H2 2965   4.499   3.759  -0.026  1.8650 -0.1665 -0.0734
 1001TIP3   OH2 2966   6.255   0.258   3.332  0.3057  0.3229 -0.3370
 1001TIP3    H1 2967   6.340   0.242   3.291  0.4747  0.9708 -0.2537
 1001TIP3    H2 2968   6.233   0.348   3.307  0.2298  0.5921  0.6424
 1002TIP3   OH2 2969   5.122   2.522   0.193  0.4527  0.1054  0.1789
 1002TIP3    H1 2970   5.056   2.568   0.245  0.9030  0.3424  0.5481
 1002TIP3    H2 2971   5.178   2.592   0.158  0.4170 -0.0823 -0.2572
 1003TIP3   OH2 2972   1.717   1.647   3.385  0.3846 -0.0650 -0.1185
 1003TIP3    H1 2973   1.736   1.641   3.291 -1.4421 -1.8963 -0.4478
 1003TIP3    H2 2974   1.623   1.664   3.390  0.0385 -2.0440  1.3389
 1004TIP3   OH2 2975   0.673   0.645   3.050 -0.5130 -0.2752  0.2558
 1004TIP3    H1 2976   0.745   0.621   2.992 -0.2567 -0.3948  0.6169
 1004TIP3    H2 2977   0.603   0.582   3.029  0.2502 -1.5649  1.3916
 1005TIP3   OH2 2978   4.911   4.064   0.271 -0.1031 -0.6779  0.2818
 1005TIP3    H1 2979   4.893   4.158   0.269  1.0808 -0.4413 -0.1469
 1005TIP3    H2 2980   4.825   4.022   0.273 -0.6414  0.4286  1.6741
 1006TIP3   OH2 2981   7.111   0.432   2.799  0.0888  0.5550 -0.3339
 1006TIP3    H1 2982   7.204   0.412   2.808  0.3391  1.1122 -1.4897
 1006TIP3    H2 2983   7.108   0.526   2.780 -0.7525  0.6602  0.2430
 1007TIP3   OH2 2984   3.202   4.046   2.051  0.7419  0.1795 -0.3038
 1007TIP3    H1 2985   3.214   4.042   1.957 -2.1248  1.4664 -0.8440
 1007TIP3    H2 2986   3.108   4.036   2.064  0.8431  1.5998  2.2808
 1008TIP3   OH2 2987   4.187   3.440   4.179 -0.0070 -0.2401 -0.2594
 1008TIP3    H1 2988   4.198   3.374   4.247 -0.4883 -0.4640 -0.3903
 1008TIP3    H2 2989   4.199   3.391   4.097 -0.4108 -0.1793 -0.3577
 1009TIP3   OH2 2990   3.635   2.508   2.732 -0.1192  0.1447 -0.3688
 1009TIP3    H1 2991   3.566   2.447   2.758  0.1659  0.2539  0.6580
 1009TIP3    H2 2992   3.589   2.590   2.714 -0.6074 -0.5313 -2.5063
 1010TIP3   OH2 2993   0.796   1.967   0.031 -0.3978  0.6787  0.0382
 1010TIP3    H1 2994   0.792   1.929  -0.057 -1.2939  0.6588  0.0756
 1010TIP3    H2 2995   0.881   2.010   0.035 -0.0492  0.0711 -0.5874
 1011TIP3   OH2 2996   1.099   0.226   0.267  0.0088  0.0982  0.2506
 1011TIP3    H1 2997   1.045   0.278   0.207  0.8522  0.9583  0.2056
 1011TIP3    H2 2998   1.188   0.260   0.254  0.5744 -1.3019  0.3019
 1012TIP3   OH2 2999   0.617   5.518   0.614 -0.4713 -0.3464  0.0866
 1012TIP3    H1 3000   0.542   5.561   0.655  0.2769 -0.6334  1.8472
 1012TIP3    H2 3001   0.598   5.424   0.622  0.3052 -0.4370  1.0618
 1013TIP3   OH2 3002   6.827   1.381   5.675 -0.0648 -0.0705  0.3711
 1013TIP3    H1 3003   6.743   1.380   5.630  0.8128  0.0360 -1.3330
 1013TIP3    H2 3004   6.817   1.450   5.741 -1.0383  0.5155 -0.3530
 1014TIP3   OH2 3005   3.049   2.227   3.596  0.0618 -0.3194 -0.0128
 1014TIP3    H1 3006   3.000   2.291   3.648  0.4385  1.0053 -1.2343
 1014TIP3    H2 3007   3.130   2.272   3.574  0.1296 -1.0531 -1.2960
 1015TIP3   OH2 3008   7.206   3.537   0.044  0.3530 -0.0851  0.4174
 1015TIP3    H1 3009   7.145   3.585   0.100 -1.4694 -1.9129  0.1231
 1015TIP3    H2 3010   7.251   3.478   0.104  1.6426  0.9990  0.5720
 1016TIP3   OH2 3011   2.992   4.018   2.556 -0.2056 -0.2749  0.4759
 1016TIP3    H1 3012   2.946   4.094   2.592  0.5080  1.3275 -1.7645
 1016TIP3    H2 3013   2.926   3.948   2.556 -1.2805  0.6830  1.3775
 1017TIP3   OH2 3014   3.555   2.099   2.600 -0.1633 -0.3863  0.0704
 1017TIP3    H1 3015   3.483   2.158   2.577 -0.3032 -0.9087 -0.8662
 1017TIP3    H2 3016   3.512   2.022   2.636  0.0363  0.2404  1.7751
 1018TIP3   OH2 3017   4.148   5.208   0.030 -0.0327 -0.2539  0.0610
 1018TIP3    H1 3018   4.187   5.124   0.005  0.1700  0.1253 -0.9398
 1018TIP3    H2 3019   4.222   5.262   0.055 -0.0573 -0.0265 -0.3517
 1019TIP3   OH2 3020   7.067   6.200   0.765 -0.3552 -0.2035 -0.5769
 1019TIP3    H1 3021   7.093   6.286   0.797 -0.3345 -0.1757 -0.6682
 1019TIP3    H2 3022   7.124   6.139   0.812 -0.0138 -0.1327 -0.8889
 1020TIP3   OH2 3023   1.600   4.616   1.501  0.6142 -0.0858  0.2147
 1020TIP3    H1 3024   1.607   4.559   1.578  1.6045  0.8321  0.8458
 1020TIP3    H2 3025   1.654   4.692   1.523 -1.7280  1.7650 -0.0186
 1021TIP3   OH2 3026   4.228   2.647   0.597  0.1595  0.1755 -0.8253
 1021TIP3    H1 3027   4.312   2.693   0.604  1.3402 -2.0306  1.2697
 1021TIP3    H2 3028   4.237   2.596   0.516  0.9211 -0.1461 -0.5507
 1022TIP3   OH2 3029   0.908   5.495   3.733 -0.0733  0.0732  0.0970
 1022TIP3    H1 3030   0.843   5.530   3.794  2.1620  0.9456  2.1834
 1022TIP3    H2 3031   0.981   5.469   3.789  2.1232  0.8707 -2.2067
 1023TIP3   OH2 3032   4.851   2.168   1.072  0.1793 -0.3056  0.0124
 1023TIP3    H1 3033   4.819   2.130   1.154 -0.0701 -0.3808 -0.1204
 1023TIP3    H2 3034   4.947   2.160   1.078  0.0979 -2.2806 -0.6545
 1024TIP3   OH2 3035   4.805   6.140   2.229 -0.1537 -0.4853  0.3182
 1024TIP3    H1 3036   4.829   6.065   2.174  0.9651 -0.4287  0.7061
 1024TIP3    H2 3037   4.870   6.140   2.299 -0.1486  0.8396  0.3372
 1025TIP3   OH2 3038   3.334   1.371   2.219 -0.2010  0.1136  0.0397
 1025TIP3    H1 3039   3.344   1.464   2.240 -0.0989 -0.5533  3.4699
 1025TIP3    H2 3040   3.245   1.364   2.185 -0.6233  1.3031  0.8367
 1026TIP3   OH2 3041   5.254   3.702   3.211 -0.3860  0.3972 -0.6151
 1026TIP3    H1 3042   5.307   3.779   3.193  0.6073 -0.2705 -0.5756
 1026TIP3    H2 3043   5.316   3.631   3.223 -1.2927 -0.4825 -0.9342
 1027TIP3   OH2 3044   0.619   2.304   4.670  0.2322  0.1030  0.0857
 1027TIP3    H1 3045   0.603   2.235   4.605  1.0630  0.8981 -1.0147
 1027TIP3    H2 3046   0.532   2.324   4.704  0.1053 -2.5262  1.6023
 1028TIP3   OH2 3047   2.654   4.122   2.897 -0.0859 -0.0670  0.3010
 1028TIP3    H1 3048   2.599   4.046   2.879 -1.5752  1.2005 -0.7668
 1028TIP3    H2 3049   2.670   4.118   2.991  0.2872 -1.9472  0.1938
 1029TIP3   OH2 3050   1.266   1.154   3.270 -0.2164  0.3871 -0.1802
 1029TIP3    H1 3051   1.251   1.060   3.259 -0.7250  0.2576  1.3455
 1029TIP3    H2 3052   1.337   1.175   3.209 -1.7822 -0.4394 -2.4542
 1030TIP3   OH2 3053   3.939   0.418   3.639 -0.1139  0.0614 -0.5871
 1030TIP3    H1 3054   3.971   0.328   3.627 -0.9249 -0.3512  0.1784
 1030TIP3    H2 3055   4.016   0.467   3.667 -0.2260 -1.0747  2.0079
 1031TIP3   OH2 3056   0.436   0.746   0.364 -0.4494  0.3967  0.1810
 1031TIP3    H1 3057   0.475   0.726   0.279 -0.6270  0.8451 -0.0062
 1031TIP3    H2 3058   0.343   0.761   0.345 -0.4242  0.8434  0.4065
 1032TIP3   OH2 3059   0.847   1.336   5.344 -0.0453  0.0295 -0.6988
 1032TIP3    H1 3060   0.884   1.254   5.376  2.2668  1.4782  0.6872
 1032TIP3    H2 3061   0.756   1.316   5.324  0.2905 -2.7098  0.1226
 1033TIP3   OH2 3062   2.237   5.763   4.361 -0.3344 -0.1749  0.1120
 1033TIP3    H1 3063   2.168   5.696   4.366 -0.3604 -0.0926  0.9603
 1033TIP3    H2 3064   2.205   5.834   4.416  1.1174 -0.7692  1.8340
 1034TIP3   OH2 3065   2.572   2.974   4.755 -0.2972  0.3829  0.4534
 1034TIP3    H1 3066   2.602   3.060   4.724  0.6156 -0.6206 -1.6599
 1034TIP3    H2 3067   2.476   2.979   4.751 -0.2509  1.2561  0.2175
 1035TIP3   OH2 3068   0.329   6.003   2.409 -0.4360 -0.5212 -0.1461
 1035TIP3    H1 3069   0.378   6.075   2.448 -0.1338 -0.1719 -1.1594
 1035TIP3    H2 3070   0.292   6.039   2.328 -1.6765 -1.0238  0.1745
 1036TIP3   OH2 3071   0.127   3.831   2.881 -0.1210  0.1474  0.0583
 1036TIP3    H1 3072   0.198   3.883   2.919 -0.4171  0.3650  0.3257
 1036TIP3    H2 3073   0.161   3.800   2.797  0.6041 -0.4783  0.5743
 1037TIP3   OH2 3074   3.884   3.869   4.941  0.1486  0.3625 -0.3844
 1037TIP3    H1 3075   3.814   3.805   4.957 -0.3606  0.9905 -0.0239
 1037TIP3    H2 3076   3.890   3.919   5.022  1.4900 -0.1021 -0.1741
 1038TIP3   OH2 3077   1.603   6.270   3.958 -0.4021 -0.4158 -0.4926
 1038TIP3    H1 3078   1.612   6.328   4.033 -0.6958  0.2744 -0.9743
 1038TIP3    H2 3079   1.544   6.317   3.899 -2.7541 -2.3209  0.1921
 1039TIP3   OH2 3080   1.484   4.847   4.382 -0.5011 -0.0965 -0.4151
 1039TIP3    H1 3081   1.420   4.787   4.422  2.2355 -1.4603  2.4208
 1039TIP3    H2 3082   1.437   4.929   4.371 -3.1934 -1.4923 -0.2474
 1040TIP3   OH2 3083   6.098   4.971   3.171 -0.2557  0.0183  0.1971
 1040TIP3    H1 3084   6.022   4.941   3.222 -0.8380 -0.0723 -0.7040
 1040TIP3    H2 3085   6.135   4.891   3.135 -1.0208  0.2284 -1.1194
 1041TIP3   OH2 3086   5.095   3.358   0.122 -0.5512  0.6682  0.5544
 1041TIP3    H1 3087   5.037   3.430   0.096  0.9507  1.5500 -0.5166
 1041TIP3    H2 3088   5.173   3.402   0.157  1.2963 -0.2984 -2.0442
 1042TIP3   OH2 3089   4.294   1.985   5.572  0.7004  0.2557 -0.4323
 1042TIP3    H1 3090   4.202   2.000   5.551  0.1017 -1.1335  1.0010
 1042TIP3    H2 3091   4.319   2.062   5.624  0.1424  0.3031 -0.2242
 1043TIP3   OH2 3092   3.306   1.455   5.319 -0.0055 -0.1453 -0.5265
 1043TIP3    H1 3093   3.346   1.402   5.250 -0.1844  1.1244 -1.6665
 1043TIP3    H2 3094   3.212   1.448   5.303 -0.0245  0.7322 -0.9051
 1044TIP3   OH2 3095   1.715   5.250   0.757  0.0281 -0.2315  0.4387
 1044TIP3    H1 3096   1.764   5.185   0.707 -0.8934 -0.8238  0.2705
 1044TIP3    H2 3097   1.731   5.227   0.849  1.3020  0.5384  0.4272
 1045TIP3   OH2 3098   5.716   3.629   4.973 -0.0015  0.0309  0.0228
 1045TIP3    H1 3099   5.644   3.668   5.024  0.2524 -0.6451  0.9237
 1045TIP3    H2 3100   5.740   3.697   4.910  0.0439  1.1313  1.1823
 1046TIP3   OH2 3101   2.353   1.684   5.852 -0.3726 -0.2600  0.1133
 1046TIP3    H1 3102   2.281   1.743   5.875 -0.2574 -0.4623  1.0191
 1046TIP3    H2 3103   2.337   1.662   5.760 -1.1332  0.1681  0.1339
 1047TIP3   OH2 3104   4.665   4.408   4.118 -0.4129  0.5160 -0.4155
 1047TIP3    H1 3105   4.642   4.501   4.107  1.0213  0.8644 -0.6077
 1047TIP3    H2 3106   4.757   4.403   4.093 -0.3234 -0.8688  0.1303
 1048TIP3   OH2 3107   2.490   3.575   3.738  0.7330 -0.2335 -0.0817
 1048TIP3    H1 3108   2.411   3.611   3.777  0.8447  1.8676 -1.5957
 1048TIP3    H2 3109   2.560   3.599   3.798  0.6042  0.8373 -0.3387
 1049TIP3   OH2 3110   1.377   3.783   1.716 -0.9697 -0.3661  0.4063
 1049TIP3    H1 3111   1.285   3.773   1.691 -0.6823 -1.3966 -0.3363
 1049TIP3    H2 3112   1.425   3.782   1.633 -0.1013 -2.4040  0.8655
 1050TIP3   OH2 3113   2.087   3.931   2.097 -0.5942  0.1260 -0.0625
 1050TIP3    H1 3114   2.121   3.842   2.088  1.1266  0.6671  0.7496
 1050TIP3    H2 3115   2.137   3.970   2.169 -1.1620  1.8184 -0.5191
 1051TIP3   OH2 3116   1.026   1.325   3.622  0.1231 -0.5752 -0.1398
 1051TIP3    H1 3117   0.956   1.376   3.582  0.6548  0.4889  0.2597
 1051TIP3    H2 3118   0.985   1.242   3.644 -1.2716  0.3540  0.9176
 1052TIP3   OH2 3119   2.125   3.160   2.700 -0.4634 -0.2073 -0.8405
 1052TIP3    H1 3120   2.076   3.080   2.681 -1.0631 -0.1629  0.4393
 1052TIP3    H2 3121   2.148   3.152   2.792  0.3362  0.6437 -0.9629
 1053TIP3   OH2 3122   1.324   6.725   4.281  0.3322 -0.2953  0.1401
 1053TIP3    H1 3123   1.365   6.790   4.223 -0.0642 -0.0331  0.1477
 1053TIP3    H2 3124   1.256   6.684   4.227  0.2450 -0.3473  0.2882
 1054TIP3   OH2 3125   4.211   1.039   3.850  0.5264 -0.5736  0.2114
 1054TIP3    H1 3126   4.133   1.094   3.861  2.3217  2.0981  0.3523
 1054TIP3    H2 3127   4.230   1.045   3.756  1.1106 -0.3803  0.3390
 1055TIP3   OH2 3128   2.194   0.132   4.029 -0.5830 -0.0024  0.0292
 1055TIP3    H1 3129   2.105   0.149   4.059 -0.5328  0.2777  0.0278
 1055TIP3    H2 3130   2.233   0.219   4.022 -0.6729 -0.0304 -1.0884
 1056TIP3   OH2 3131   3.016   3.418   4.513  0.0196 -0.2753  0.1329
 1056TIP3    H1 3132   2.998   3.325   4.504  0.5128 -0.4913  1.2312
 1056TIP3    H2 3133   2.996   3.455   4.427  0.0967 -1.4344 -0.3963
 1057TIP3   OH2 3134   5.927   3.209   3.805 -0.2035 -0.2786  0.5365
 1057TIP3    H1 3135   5.926   3.292   3.851  1.3518  0.3356 -0.4698
 1057TIP3    H2 3136   5.885   3.227   3.721  0.8727 -0.2775 -0.0182
 1058TIP3   OH2 3137   2.321   1.477   2.571  0.1834 -0.2622  0.0738
 1058TIP3    H1 3138   2.376   1.482   2.494 -0.4961 -0.8332 -0.4712
 1058TIP3    H2 3139   2.269   1.557   2.570  1.0030  0.2903  0.6056
 1059TIP3   OH2 3140   3.186   5.169   3.377 -0.0382 -0.2106  0.1631
 1059TIP3    H1 3141   3.187   5.217   3.294 -0.6597 -0.0345  0.2542
 1059TIP3    H2 3142   3.181   5.077   3.351 -3.2023 -0.0858 -0.0296
 1060TIP3   OH2 3143   0.922   3.647   2.472 -0.5360  0.1535 -0.0067
 1060TIP3    H1 3144   0.962   3.712   2.414  0.2369 -1.2330 -1.0780
 1060TIP3    H2 3145   0.937   3.563   2.428 -3.2573 -0.5999  0.3213
 1061TIP3   OH2 3146   5.842   3.286   4.064  0.0423  0.0371  0.0171
 1061TIP3    H1 3147   5.876   3.358   4.011  0.6836 -0.1832  0.1274
 1061TIP3    H2 3148   5.747   3.302   4.068  0.1097  0.5635 -0.4215
 1062TIP3   OH2 3149   1.831   5.963   3.725 -0.0008 -0.0578 -0.2837
 1062TIP3    H1 3150   1.825   5.922   3.811  0.1105 -1.0282 -0.7211
 1062TIP3    H2 3151   1.816   5.891   3.663  0.5055  0.5079 -1.0869
 1063TIP3   OH2 3152   5.748   0.423   3.300  0.2253 -0.6207 -0.2854
 1063TIP3    H1 3153   5.818   0.487   3.315 -0.6733  0.4624 -0.5443
 1063TIP3    H2 3154   5.670   0.465   3.336 -0.8288 -0.6043 -2.4446
 1064TIP3   OH2 3155   0.356   1.917   5.140 -0.0873  0.0949  0.6225
 1064TIP3    H1 3156   0.339   1.871   5.222 -1.4426  0.0150  0.3104
 1064TIP3    H2 3157   0.309   2.000   5.148  0.3778  0.4066  0.2132
 1065TIP3   OH2 3158   0.169   2.911   3.143 -0.1124  0.0447 -0.5221
 1065TIP3    H1 3159   0.119   2.923   3.223 -0.9205 -1.0361 -0.8336
 1065TIP3    H2 3160   0.103   2.900   3.074  0.5525 -0.1337 -1.1541
 1066TIP3   OH2 3161   4.933   3.931   2.452  0.1431  0.3814  0.0002
 1066TIP3    H1 3162   4.907   3.909   2.542 -1.7969  0.1045 -0.5866
 1066TIP3    H2 3163   5.016   3.885   2.439 -0.4500 -1.0467  1.0590
 1067TIP3   OH2 3164   3.907   5.712   3.936 -0.2075  0.3314 -0.6757
 1067TIP3    H1 3165   3.898   5.671   4.023  1.9618  0.8903 -0.1231
 1067TIP3    H2 3166   3.898   5.806   3.953 -1.0874  0.3797 -1.3039
 1068TIP3   OH2 3167   3.982   2.079   1.164  0.4232  0.2458 -0.0148
 1068TIP3    H1 3168   3.978   2.000   1.110  0.3735 -0.4072  0.9261
 1068TIP3    H2 3169   4.075   2.099   1.171  0.3614  1.2534 -1.6260
 1069TIP3   OH2 3170   5.918   4.829   5.112  0.7650  0.3876  0.1192
 1069TIP3    H1 3171   5.868   4.757   5.074  1.5024  0.1377 -0.4045
 1069TIP3    H2 3172   5.988   4.787   5.161  1.3948  0.7376 -0.4550
 1070TIP3   OH2 3173   3.762   4.712   4.383 -0.2226  0.2901 -0.1585
 1070TIP3    H1 3174   3.746   4.773   4.311  0.0576  0.7709  0.1832
 1070TIP3    H2 3175   3.743   4.763   4.462  0.6853  0.1573  0.1595
 1071TIP3   OH2 3176   0.423   6.362   5.787  0.1913  0.6243  0.4540
 1071TIP3    H1 3177   0.472   6.284   5.815 -0.5184  0.1030  0.2924
 1071TIP3    H2 3178   0.451   6.376   5.696 -0.2644  0.0581  0.2120
 1072TIP3   OH2 3179   4.262   5.844   4.382  0.5846  0.2648 -0.3241
 1072TIP3    H1 3180   4.177   5.844   4.426  0.9235  0.6750  0.3428
 1072TIP3    H2 3181   4.263   5.761   4.333 -0.1891  0.2521 -0.3415
 1073TIP3   OH2 3182   1.685   6.491   4.952  0.4459  0.0763  0.3058
 1073TIP3    H1 3183   1.644   6.484   5.038  1.2965 -0.1774  0.6998
 1073TIP3    H2 3184   1.670   6.581   4.924 -0.2556  0.0221  0.5012
 1074TIP3   OH2 3185   1.834   0.663   4.309  0.1503  0.0283  0.1856
 1074TIP3    H1 3186   1.879   0.696   4.387 -1.1445  0.9661  0.5711
 1074TIP3    H2 3187   1.902   0.618   4.259  1.4172  1.0696  0.9198
 1075TIP3   OH2 3188   4.512   3.508   0.956  0.1193 -0.0808  0.0198
 1075TIP3    H1 3189   4.586   3.552   0.914  0.3720 -0.1590  0.3809
 1075TIP3    H2 3190   4.490   3.436   0.897 -0.5320  0.7204 -0.7673
 1076TIP3   OH2 3191   5.719   0.194   1.236 -0.3802 -0.0036  0.3721
 1076TIP3    H1 3192   5.640   0.171   1.186  0.3716 -1.7588 -0.0814
 1076TIP3    H2 3193   5.688   0.210   1.325 -1.1495 -1.6851  0.4361
 1077TIP3   OH2 3194   1.326   5.855   2.021 -0.3568  0.0124 -0.3536
 1077TIP3    H1 3195   1.403   5.908   2.002  1.3251 -1.8652  0.8688
 1077TIP3    H2 3196   1.321   5.792   1.949  0.0380 -0.6820  0.2143
 1078TIP3   OH2 3197   0.647   1.139   4.130 -0.7964  0.5595  0.2832
 1078TIP3    H1 3198   0.628   1.189   4.209 -1.2667 -0.5627  0.9055
 1078TIP3    H2 3199   0.705   1.196   4.079 -1.1406  1.6336  1.0497
 1079TIP3   OH2 3200   0.954   1.089   5.402 -0.5974 -0.0240 -0.2031
 1079TIP3    H1 3201   1.015   1.041   5.347 -0.4286  0.3043 -0.3050
 1079TIP3    H2 3202   1.009   1.130   5.469 -1.0796 -3.5344  2.6588
 1080TIP3   OH2 3203   1.517   2.735   2.014 -0.2002  0.3706  0.2921
 1080TIP3    H1 3204   1.474   2.691   1.940 -0.8296  0.9401  0.3238
 1080TIP3    H2 3205   1.593   2.679   2.032 -1.7309 -1.5153  1.2496
 1081TIP3   OH2 3206   3.369   3.587   2.534 -0.5745 -0.2965 -0.1993
 1081TIP3    H1 3207   3.293   3.583   2.592 -1.1142  1.5331 -0.7216
 1081TIP3    H2 3208   3.443   3.607   2.591 -0.9987  0.8798 -0.0476
 1082TIP3   OH2 3209   2.866   3.625   2.822 -0.5548 -0.2720 -0.0248
 1082TIP3    H1 3210   2.795   3.688   2.813 -1.3287 -1.1770 -0.5332
 1082TIP3    H2 3211   2.854   3.587   2.910  0.5304  0.9821  0.6987
 1083TIP3   OH2 3212   2.484   3.786   2.319  0.3571 -0.1613  0.4620
 1083TIP3    H1 3213   2.419   3.783   2.249 -0.2338  0.2713  0.9930
 1083TIP3    H2 3214   2.518   3.876   2.316  0.2425 -0.1075  0.8138
 1084TIP3   OH2 3215   4.732   3.668   0.871 -0.6345 -0.4037  0.3856
 1084TIP3    H1 3216   4.785   3.692   0.947  0.3953  1.8160 -0.9139
 1084TIP3    H2 3217   4.750   3.575   0.857  2.7884  0.1480  0.1834
 1085TIP3   OH2 3218   5.718   2.112   2.606  0.0723 -0.5440  0.2613
 1085TIP3    H1 3219   5.722   2.023   2.641  0.3810  0.1869  2.2174
 1085TIP3    H2 3220   5.657   2.158   2.664 -1.0424  0.2457 -1.4454
 1086TIP3   OH2 3221   5.291   5.299   2.132 -0.0888 -0.3875  0.0918
 1086TIP3    H1 3222   5.213   5.254   2.164 -0.6241 -0.1658 -0.8753
 1086TIP3    H2 3223   5.261   5.348   2.056  0.9755 -0.2235 -0.2342
 1087TIP3   OH2 3224   3.710   3.655   4.985 -0.0656 -0.2161  0.2895
 1087TIP3    H1 3225   3.634   3.598   4.976 -0.1928 -0.2331  1.4128
 1087TIP3    H2 3226   3.779   3.597   5.017  0.1549  0.0079  0.2244
 1088TIP3   OH2 3227   0.463   1.358   3.504  0.1158  0.5342  0.1050
 1088TIP3    H1 3228   0.471   1.411   3.424 -0.2412 -0.6540 -0.7447
 1088TIP3    H2 3229   0.447   1.422   3.573  1.6451  1.7106 -0.5591
 1089TIP3   OH2 3230   3.466   4.640   5.879 -0.1523 -0.1123  0.0074
 1089TIP3    H1 3231   3.401   4.706   5.853 -0.2979 -0.5320 -0.7016
 1089TIP3    H2 3232   3.544   4.691   5.899 -0.2508  0.2765 -0.5766
 1090TIP3   OH2 3233   5.181   0.015   4.907 -0.1058  0.1345 -0.4514
 1090TIP3    H1 3234   5.242   0.083   4.877 -1.8558  1.3135 -1.6156
 1090TIP3    H2 3235   5.229  -0.067   4.897  1.3380  1.0193 -1.1529
 1091TIP3   OH2 3236   3.444   3.770   3.970  0.1172  0.4838 -0.2102
 1091TIP3    H1 3237   3.517   3.713   3.946 -0.8088 -0.4031 -1.0343
 1091TIP3    H2 3238   3.414   3.738   4.055 -0.6831 -0.5943 -0.8714
 1092TIP3   OH2 3239   3.920   4.818   1.405  0.0699 -0.3724  0.3765
 1092TIP3    H1 3240   3.980   4.755   1.364  0.4712 -0.1132  0.5642
 1092TIP3    H2 3241   3.835   4.775   1.402  0.0479 -0.2722 -0.9338
 1093TIP3   OH2 3242   6.200   3.695   0.164  0.5665 -0.3770 -0.0928
 1093TIP3    H1 3243   6.154   3.733   0.239  2.1875  0.1861  0.6677
 1093TIP3    H2 3244   6.202   3.765   0.099 -1.2735 -1.0251 -0.9055
 1094TIP3   OH2 3245   7.037   1.793   0.755 -0.0080 -0.1042 -0.6235
 1094TIP3    H1 3246   7.016   1.740   0.831  0.5250  0.4519 -0.0776
 1094TIP3    H2 3247   7.047   1.882   0.789  2.0806 -0.1388 -1.0031
 1095TIP3   OH2 3248   2.197   5.300   0.250  0.2093 -0.3456  0.2220
 1095TIP3    H1 3249   2.229   5.275   0.163  2.0399  2.3689  0.0255
 1095TIP3    H2 3250   2.112   5.340   0.234  0.9752  1.0502 -0.4973
 1096TIP3   OH2 3251   4.204   4.077   0.912 -0.4237 -0.3222 -0.1360
 1096TIP3    H1 3252   4.269   4.147   0.914 -1.5360  0.7413  0.1548
 1096TIP3    H2 3253   4.178   4.064   1.004 -1.9593  0.6061 -0.3942
 1097TIP3   OH2 3254   5.139   0.898   2.882  0.0986  0.0462 -0.0037
 1097TIP3    H1 3255   5.116   0.932   2.796  0.8549 -0.2663 -0.3365
 1097TIP3    H2 3256   5.211   0.954   2.912 -0.1107  0.1086  0.3942
 1098TIP3   OH2 3257   2.692   3.541   0.805 -0.0328  0.2497  0.7722
 1098TIP3    H1 3258   2.647   3.478   0.861  0.4639 -0.1049  0.7840
 1098TIP3    H2 3259   2.683   3.625   0.851  0.2406 -0.0093  1.3168
 1099TIP3   OH2 3260   6.441   1.590   1.347 -0.3093 -0.4050 -0.6025
 1099TIP3    H1 3261   6.527   1.558   1.373 -0.8549 -0.0910  1.8644
 1099TIP3    H2 3262   6.428   1.668   1.401 -1.8255 -0.0077 -1.4918
 1100TIP3   OH2 3263   6.480   3.996   4.748 -0.3680 -0.3046 -0.2614
 1100TIP3    H1 3264   6.453   3.911   4.713 -0.5892 -0.4218  0.1915
 1100TIP3    H2 3265   6.448   4.059   4.684 -0.8163 -0.5145 -0.2506
 1101TIP3   OH2 3266   6.367   1.680   2.808  0.3886  0.3515 -0.5717
 1101TIP3    H1 3267   6.351   1.774   2.822  1.1838  0.3346  0.5706
 1101TIP3    H2 3268   6.438   1.678   2.744  0.1569  0.5070 -0.8422
 1102TIP3   OH2 3269   2.169   1.255   5.060 -0.6585 -0.3445 -0.1814
 1102TIP3    H1 3270   2.221   1.190   5.013 -1.6326 -1.9331  0.8470
 1102TIP3    H2 3271   2.132   1.310   4.991  1.5191  0.2211 -0.9867
 1103TIP3   OH2 3272   0.492   5.533   2.717  0.3463  0.3177 -0.0427
 1103TIP3    H1 3273   0.410   5.483   2.717  0.5452 -0.0236  0.6802
 1103TIP3    H2 3274   0.483   5.594   2.643 -0.2121 -0.2781 -0.4796
 1104TIP3   OH2 3275   3.550   6.547   2.581 -0.4430  0.2150 -0.1618
 1104TIP3    H1 3276   3.565   6.637   2.551 -2.4062  0.6273 -0.0102
 1104TIP3    H2 3277   3.515   6.501   2.504  2.1459 -0.9502 -0.7575
 1105TIP3   OH2 3278   1.325   2.035   5.487  0.8332  0.2269  0.1692
 1105TIP3    H1 3279   1.402   2.031   5.431  0.4849  1.6257 -0.4384
 1105TIP3    H2 3280   1.346   2.101   5.552  0.2440  0.4414  0.1488
 1106TIP3   OH2 3281   3.637   1.099   2.326  0.4711  0.3592  0.6973
 1106TIP3    H1 3282   3.602   1.174   2.374  0.2419 -1.2173  3.1716
 1106TIP3    H2 3283   3.582   1.026   2.352  2.2366 -1.1451  0.3734
 1107TIP3   OH2 3284   6.117   6.342   4.084  0.3433  0.3265  0.0128
 1107TIP3    H1 3285   6.033   6.385   4.067  0.0646  0.4400  1.5545
 1107TIP3    H2 3286   6.108   6.255   4.045 -0.6181  0.2315  0.4235
 1108TIP3   OH2 3287   3.255   6.567   4.062 -0.0645 -0.2412 -0.4393
 1108TIP3    H1 3288   3.284   6.476   4.062 -0.8637 -0.5476  1.1532
 1108TIP3    H2 3289   3.227   6.583   3.972 -0.4121 -1.7508 -0.6392
 1109TIP3   OH2 3290   2.955   3.739   3.455 -0.3181  0.6736 -0.2651
 1109TIP3    H1 3291   2.932   3.647   3.448  0.5857  0.4648 -0.6999
 1109TIP3    H2 3292   2.886   3.778   3.509 -0.9256 -0.1678 -0.4219
 1110TIP3   OH2 3293   2.026   5.530   1.811  0.0246 -0.0521  0.4362
 1110TIP3    H1 3294   2.101   5.554   1.866  0.9502 -0.6330 -0.5361
 1110TIP3    H2 3295   2.065   5.492   1.733 -1.2632  0.6871 -0.6089
 1111TIP3   OH2 3296   2.557   2.809   3.959  0.4629  0.0252 -0.8718
 1111TIP3    H1 3297   2.649   2.836   3.950  0.8161 -0.5499  0.6444
 1111TIP3    H2 3298   2.536   2.827   4.051 -0.8091 -0.2604 -1.0939
 1112TIP3   OH2 3299   4.217   1.034   3.548  0.3677 -0.3563  0.3100
 1112TIP3    H1 3300   4.160   1.107   3.524 -1.6616 -1.2829  2.0172
 1112TIP3    H2 3301   4.295   1.045   3.493 -1.5794  0.7442 -2.4493
 1113TIP3   OH2 3302   6.743   3.452   1.023  0.0370 -0.0617  0.5234
 1113TIP3    H1 3303   6.813   3.436   0.960  1.2875  0.2618  1.7703
 1113TIP3    H2 3304   6.739   3.370   1.074 -1.4544 -0.5945 -0.3964
 1114TIP3   OH2 3305   0.195   1.944   0.129 -0.1930 -0.6702 -0.1279
 1114TIP3    H1 3306   0.222   1.871   0.074 -0.8128 -0.7669 -0.3140
 1114TIP3    H2 3307   0.264   2.009   0.118 -0.5895 -0.4460 -1.4985
 1115TIP3   OH2 3308   4.377   4.205   5.777 -0.8315  0.0252  0.3195
 1115TIP3    H1 3309   4.342   4.211   5.687 -2.8814  0.2432  1.0761
 1115TIP3    H2 3310   4.453   4.263   5.777 -0.2237 -0.7045 -1.5218
 1116TIP3   OH2 3311   5.028   6.612   1.150 -0.4258 -0.1292  0.0201
 1116TIP3    H1 3312   5.116   6.577   1.137  0.1139  1.5245 -1.0702
 1116TIP3    H2 3313   5.031   6.654   1.236  0.4026  1.3724 -0.6998
 1117TIP3   OH2 3314   4.692   0.794   1.792 -0.4774 -0.1415 -0.1740
 1117TIP3    H1 3315   4.747   0.872   1.785 -1.9956  1.3835  2.9812
 1117TIP3    H2 3316   4.713   0.757   1.878 -3.2449 -0.3494  0.5069
 1118TIP3   OH2 3317   0.589   2.444   1.118  0.4507  0.7818  0.8630
 1118TIP3    H1 3318   0.669   2.394   1.132  0.5447  0.4759 -0.6626
 1118TIP3    H2 3319   0.521   2.378   1.105  0.0919  1.0516  1.3039
 1119TIP3   OH2 3320   6.643   5.198   3.551 -0.8512 -0.3601 -0.2044
 1119TIP3    H1 3321   6.627   5.132   3.483 -0.6079  0.6042 -1.2307
 1119TIP3    H2 3322   6.735   5.223   3.539 -0.7243 -0.3711  0.6732
 1120TIP3   OH2 3323   1.627   2.205   5.096  0.1654 -0.1447 -0.2523
 1120TIP3    H1 3324   1.701   2.266   5.095  1.5978 -1.7300  1.2823
 1120TIP3    H2 3325   1.624   2.169   5.007  0.9825  0.2479 -0.4466
 1121TIP3   OH2 3326   4.472   1.451   0.513  0.1984 -0.8459 -0.0207
 1121TIP3    H1 3327   4.559   1.413   0.501  0.4340 -0.0368 -1.0119
 1121TIP3    H2 3328   4.437   1.460   0.425 -1.1222 -1.6353  0.3880
 1122TIP3   OH2 3329   7.046   1.310   4.235 -0.1451 -0.1247  0.4342
 1122TIP3    H1 3330   7.137   1.291   4.254  0.2557  0.7089 -0.5467
 1122TIP3    H2 3331   7.011   1.229   4.199  0.8202  0.1555 -1.2334
 1123TIP3   OH2 3332   2.356   1.421   0.558  1.1260  0.2964  0.3861
 1123TIP3    H1 3333   2.360   1.341   0.506 -0.2099  0.3042  0.2435
 1123TIP3    H2 3334   2.306   1.482   0.504 -1.0281  0.0378  1.9515
 1124TIP3   OH2 3335   7.246   5.072   5.840 -0.6013  0.6763 -0.7464
 1124TIP3    H1 3336   7.183   5.138   5.813 -0.6371  1.0017  0.0826
 1124TIP3    H2 3337   7.193   5.003   5.879 -0.3995  1.6669  1.4279
 1125TIP3   OH2 3338   5.790   5.497   1.483  0.3024  0.0177  0.2591
 1125TIP3    H1 3339   5.741   5.437   1.539 -0.9476  0.7949  0.0109
 1125TIP3    H2 3340   5.843   5.439   1.428  0.0040 -0.8152  0.8231
 1126TIP3   OH2 3341   6.287   0.666   3.501  0.1997 -0.1372  0.4150
 1126TIP3    H1 3342   6.211   0.643   3.555 -0.7522 -0.5255 -1.0463
 1126TIP3    H2 3343   6.313   0.753   3.532 -0.0950 -0.4883  1.7218
 1127TIP3   OH2 3344   2.039   5.399   3.346  0.1637  0.0889 -0.4987
 1127TIP3    H1 3345   2.061   5.317   3.389  0.4280  0.7040  0.5893
 1127TIP3    H2 3346   2.075   5.467   3.404 -1.2553  1.0144 -0.6383
 1128TIP3   OH2 3347   2.822   1.424   0.176 -0.3510 -0.2236 -0.4440
 1128TIP3    H1 3348   2.863   1.337   0.172 -1.5052 -0.8882  1.2805
 1128TIP3    H2 3349   2.879   1.474   0.235 -0.5748 -0.3209 -0.1451
 1129TIP3   OH2 3350   1.023   2.550   3.292  0.2505 -0.2937 -0.1899
 1129TIP3    H1 3351   0.981   2.529   3.375  2.0694 -1.1343  0.5795
 1129TIP3    H2 3352   1.063   2.636   3.307  1.0843 -0.7099  0.0370
 1130TIP3   OH2 3353   6.475   5.311   0.869  0.3171  0.2049 -0.0358
 1130TIP3    H1 3354   6.464   5.261   0.950 -0.7489 -0.0567 -0.3303
 1130TIP3    H2 3355   6.445   5.252   0.800  1.3004  0.3958 -0.6380
 1131TIP3   OH2 3356   0.007   5.705   4.166 -0.4111  0.3894 -0.2242
 1131TIP3    H1 3357   0.018   5.685   4.074  0.5224 -0.0423 -0.0248
 1131TIP3    H2 3358   0.003   5.801   4.170 -1.8911  0.3836 -0.8490
 1132TIP3   OH2 3359   4.405   5.073   3.202  0.2502  0.1917  0.0592
 1132TIP3    H1 3360   4.327   5.040   3.158  0.2634  0.1945  0.0340
 1132TIP3    H2 3361   4.411   5.022   3.282  0.3351  0.0550 -0.0347
 1133TIP3   OH2 3362   2.114   0.846   1.694  0.3224  0.1106  0.5695
 1133TIP3    H1 3363   2.160   0.787   1.752  1.8472  1.9093  1.3008
 1133TIP3    H2 3364   2.156   0.834   1.608 -0.7272 -1.2498  0.2102
 1134TIP3   OH2 3365   5.377   6.142   1.439 -0.2548 -0.5307  0.2226
 1134TIP3    H1 3366   5.453   6.194   1.413 -1.2713  0.8065 -0.1937
 1134TIP3    H2 3367   5.316   6.150   1.366 -1.0766 -1.0277  0.8328
 1135TIP3   OH2 3368   0.359   6.684   1.492  0.1481  0.3418 -0.2253
 1135TIP3    H1 3369   0.418   6.610   1.508  0.3098  0.4836 -0.1644
 1135TIP3    H2 3370   0.371   6.741   1.567  0.0941  0.4773 -0.3197
 1136TIP3   OH2 3371   5.609   2.880   3.135  0.5927  0.6753 -0.6289
 1136TIP3    H1 3372   5.574   2.969   3.145 -0.0616  0.2654  0.9743
 1136TIP3    H2 3373   5.586   2.835   3.216  0.2943 -1.1823 -1.6721
 1137TIP3   OH2 3374   3.720   2.595   3.138  0.0044  0.2616 -0.2599
 1137TIP3    H1 3375   3.694   2.648   3.062  0.8032  0.6449 -0.2653
 1137TIP3    H2 3376   3.720   2.656   3.211 -0.0083  0.0563 -0.0888
 1138TIP3   OH2 3377   6.459   4.200   1.553 -0.0631 -0.3535  0.5213
 1138TIP3    H1 3378   6.511   4.199   1.633 -0.5791 -2.3726  0.8726
 1138TIP3    H2 3379   6.397   4.273   1.566  1.0798  0.5476  1.1135
 1139TIP3   OH2 3380   0.635   6.396   2.414 -0.2693  0.6639  0.0288
 1139TIP3    H1 3381   0.659   6.314   2.371 -1.4555  0.4175 -0.2175
 1139TIP3    H2 3382   0.659   6.464   2.352 -0.6315  0.3992 -0.4087
 1140TIP3   OH2 3383   6.991   4.557   4.879 -0.4337  0.2522 -0.5212
 1140TIP3    H1 3384   7.043   4.562   4.959  0.9953 -0.5440 -1.3558
 1140TIP3    H2 3385   6.984   4.463   4.862 -0.7454  0.4142 -1.3105
 1141TIP3   OH2 3386   3.738   2.633   0.547  0.2790  0.1286  0.1741
 1141TIP3    H1 3387   3.696   2.655   0.464  0.1329 -0.9040 -0.0387
 1141TIP3    H2 3388   3.725   2.711   0.602 -2.3037 -0.2692  0.2764
 1142TIP3   OH2 3389   4.355   4.791   4.276 -0.0212  1.0546  0.1006
 1142TIP3    H1 3390   4.415   4.718   4.286 -2.4566 -0.9436  1.1186
 1142TIP3    H2 3391   4.366   4.842   4.356 -1.4959 -0.8210  1.5922
 1143TIP3   OH2 3392   0.624   5.325   3.699 -0.0367 -0.0537  0.3089
 1143TIP3    H1 3393   0.709   5.370   3.699 -1.5229  2.9813  0.0379
 1143TIP3    H2 3394   0.639   5.247   3.647  2.7110  0.0823  0.7139
 1144TIP3   OH2 3395   4.652   3.443   4.041  0.2060  0.2378 -0.5455
 1144TIP3    H1 3396   4.628   3.392   4.119 -0.3510  1.4128  0.0850
 1144TIP3    H2 3397   4.603   3.525   4.051  0.6433  0.6640 -1.8141
 1145TIP3   OH2 3398   4.588   3.281   3.635  0.0897 -0.2273  0.2504
 1145TIP3    H1 3399   4.626   3.337   3.567  2.2686 -0.4952  1.1808
 1145TIP3    H2 3400   4.650   3.287   3.708 -0.3283 -2.7578  0.8925
 1146TIP3   OH2 3401   0.753   5.058   2.182  0.0377 -0.3373 -0.6346
 1146TIP3    H1 3402   0.698   5.007   2.122 -1.0701  1.4453 -1.2169
 1146TIP3    H2 3403   0.766   5.001   2.257 -1.7269 -1.2335 -0.9565
 1147TIP3   OH2 3404   3.814   6.550   3.955  0.0287 -0.2844  0.0387
 1147TIP3    H1 3405   3.864   6.622   3.916 -1.5555  1.8395  1.6591
 1147TIP3    H2 3406   3.775   6.588   4.034 -1.5281 -2.7298  0.5608
 1148TIP3   OH2 3407   0.924   1.081   3.765 -0.2383  0.0720 -0.4712
 1148TIP3    H1 3408   0.840   1.115   3.733 -0.6488 -0.0672  0.4455
 1148TIP3    H2 3409   0.928   0.992   3.731  0.2285  0.5630 -1.7599
 1149TIP3   OH2 3410   2.015   4.599   5.353 -0.0175 -0.0229  0.1350
 1149TIP3    H1 3411   1.943   4.590   5.416 -0.6380 -1.4052 -0.7144
 1149TIP3    H2 3412   1.979   4.656   5.284  0.6985  1.5796  1.0415
 1150TIP3   OH2 3413   4.976   4.216   4.250 -0.1293 -0.1818  0.5636
 1150TIP3    H1 3414   4.980   4.272   4.327 -0.9685 -0.6217  0.9437
 1150TIP3    H2 3415   5.064   4.179   4.243  0.6122  1.6261 -0.0552
 1151TIP3   OH2 3416   0.726   2.952   5.512  0.2151  0.3568 -0.4593
 1151TIP3    H1 3417   0.712   2.885   5.446 -1.3358  0.2187 -0.0262
 1151TIP3    H2 3418   0.785   2.911   5.575  0.8481  0.1144 -1.1960
 1152TIP3   OH2 3419   0.092   2.866   0.307  0.2064  0.2980  0.4668
 1152TIP3    H1 3420   0.126   2.851   0.395 -0.1661 -2.1746  0.2538
 1152TIP3    H2 3421   0.067   2.779   0.276  0.2298  1.1208 -2.0532
 1153TIP3   OH2 3422   3.665   5.401   3.956 -0.1794  0.2986  0.2676
 1153TIP3    H1 3423   3.756   5.426   3.936  0.0946 -1.1673 -0.4552
 1153TIP3    H2 3424   3.620   5.408   3.872 -0.2965 -0.7342  0.2361
 1154TIP3   OH2 3425   3.689   1.757   1.509  0.2377 -0.2071 -0.1041
 1154TIP3    H1 3426   3.640   1.710   1.576  0.9275  0.9379  1.2475
 1154TIP3    H2 3427   3.779   1.729   1.520  0.2493 -0.6099 -1.1017
 1155TIP3   OH2 3428   1.810   2.776   5.038 -0.0175 -0.4725 -0.4506
 1155TIP3    H1 3429   1.766   2.856   5.009 -0.1470 -0.8319 -1.2598
 1155TIP3    H2 3430   1.739   2.717   5.062  0.0658 -0.5295 -0.3433
 1156TIP3   OH2 3431   5.607   0.805   3.316 -0.0204 -0.0023  0.4235
 1156TIP3    H1 3432   5.563   0.794   3.231  0.2606 -1.1904  0.4156
 1156TIP3    H2 3433   5.640   0.894   3.314  1.6447 -0.5963 -1.5394
 1157TIP3   OH2 3434   4.961   4.106   4.601  0.8320 -0.1356  0.2985
 1157TIP3    H1 3435   5.014   4.138   4.528  0.7765  2.8896  1.4518
 1157TIP3    H2 3436   5.023   4.095   4.673  0.4212 -0.0685  0.6667
 1158TIP3   OH2 3437   1.826   4.593   0.999  0.0235  0.4580  0.0511
 1158TIP3    H1 3438   1.797   4.684   1.006 -0.4948  0.4067 -1.1163
 1158TIP3    H2 3439   1.911   4.599   0.956  0.7418  0.4672  1.4166
 1159TIP3   OH2 3440   7.167   0.136   2.951  0.0406 -0.3180 -0.3579
 1159TIP3    H1 3441   7.151   0.109   3.041  2.1519 -1.2433 -0.1829
 1159TIP3    H2 3442   7.217   0.217   2.958  1.1325 -0.9438 -0.6299
 1160TIP3   OH2 3443   4.736   2.237   0.100  0.0686 -0.0346 -0.9396
 1160TIP3    H1 3444   4.828   2.264   0.105 -0.3854  1.4904 -0.0841
 1160TIP3    H2 3445   4.728   2.170   0.168 -0.0614  1.9264  1.1005
 1161TIP3   OH2 3446   3.745   0.091   5.153 -0.1373 -0.2667 -0.8240
 1161TIP3    H1 3447   3.799   0.013   5.166 -1.9779 -1.4593  0.2032
 1161TIP3    H2 3448   3.794   0.161   5.196  1.0230 -1.0833 -0.7545
 1162TIP3   OH2 3449   0.632   1.863   4.186  0.1329 -0.0081 -0.1560
 1162TIP3    H1 3450   0.567   1.792   4.187 -0.4463  0.5085  0.8880
 1162TIP3    H2 3451   0.628   1.899   4.098 -2.1560  1.0290  0.3070
 1163TIP3   OH2 3452   0.242   5.312   3.802  0.0479  0.2027  0.1254
 1163TIP3    H1 3453   0.225   5.229   3.757 -2.1907  0.0881  1.0612
 1163TIP3    H2 3454   0.195   5.378   3.750 -0.3534  0.4795  0.8390
 1164TIP3   OH2 3455   5.416   0.444   3.147  0.0326 -0.5155 -0.1904
 1164TIP3    H1 3456   5.422   0.381   3.219 -0.3280  0.8902  1.1403
 1164TIP3    H2 3457   5.326   0.476   3.151  0.1664 -0.0289 -0.9236
 1165TIP3   OH2 3458   3.250   5.808   0.161 -0.0983 -0.1353  0.0769
 1165TIP3    H1 3459   3.317   5.872   0.185 -2.5660  1.8165  2.3651
 1165TIP3    H2 3460   3.225   5.767   0.243 -3.7648  1.4642 -0.0471
 1166TIP3   OH2 3461   3.812   6.142   4.703  0.0855 -0.1706 -0.3274
 1166TIP3    H1 3462   3.815   6.069   4.764 -2.5438  1.6419  2.2656
 1166TIP3    H2 3463   3.900   6.178   4.704  0.2760 -0.5625  2.0229
 1167TIP3   OH2 3464   0.215   6.530   4.275 -0.3962  0.0048  0.3420
 1167TIP3    H1 3465   0.148   6.599   4.273 -1.6056 -1.1656 -0.6241
 1167TIP3    H2 3466   0.169   6.450   4.251  0.3510 -1.7210  3.9755
 1168TIP3   OH2 3467   4.508   1.582   2.802  0.1053 -0.4733  0.2484
 1168TIP3    H1 3468   4.534   1.664   2.844  2.9197 -0.2970 -1.5523
 1168TIP3    H2 3469   4.512   1.517   2.873  1.5463  0.3549  0.9856
 1169TIP3   OH2 3470   5.187   5.910   1.974 -0.2981  0.1939  0.0687
 1169TIP3    H1 3471   5.249   5.949   2.037  0.7286 -0.4570 -0.5037
 1169TIP3    H2 3472   5.146   5.985   1.932 -1.3633  0.6601  1.8071
 1170TIP3   OH2 3473   5.623   4.445   4.687 -0.1238 -0.0222 -0.1106
 1170TIP3    H1 3474   5.655   4.533   4.708 -3.5564  1.4280 -0.1973
 1170TIP3    H2 3475   5.592   4.410   4.770 -3.2158  1.0133 -0.6685
 1171TIP3   OH2 3476   4.023   5.854   4.517  0.5051 -0.5864 -0.4973
 1171TIP3    H1 3477   3.950   5.902   4.479  1.2167  2.4698  1.5212
 1171TIP3    H2 3478   3.984   5.802   4.587  0.1964  1.6354  1.0958
 1172TIP3   OH2 3479   3.990   1.785   4.743 -0.3600  0.1835 -0.0077
 1172TIP3    H1 3480   3.989   1.738   4.826 -1.1596 -1.3531 -0.8291
 1172TIP3    H2 3481   3.918   1.847   4.750 -0.2414  0.2615  0.5508
 1173TIP3   OH2 3482   5.321   1.333   0.617  0.4870  0.4990  0.3610
 1173TIP3    H1 3483   5.374   1.399   0.663  1.3233  2.0627 -2.6080
 1173TIP3    H2 3484   5.347   1.341   0.525 -2.1008 -1.4451 -0.6650
 1174TIP3   OH2 3485   1.191   2.179   3.723 -0.3878  0.5401 -0.4666
 1174TIP3    H1 3486   1.109   2.225   3.743 -0.7052 -0.3707  0.4195
 1174TIP3    H2 3487   1.259   2.237   3.756 -0.5603  1.9062 -2.3382
 1175TIP3   OH2 3488   1.263   5.469   2.907 -0.3591  0.5651  0.0747
 1175TIP3    H1 3489   1.301   5.443   2.991 -0.9816  1.6643  0.7209
 1175TIP3    H2 3490   1.275   5.393   2.851 -1.2579 -0.7609  1.5949
 1176TIP3   OH2 3491   0.608   3.819   4.777 -0.4801 -0.3992 -0.5660
 1176TIP3    H1 3492   0.646   3.903   4.800  0.5690 -0.8548 -0.5899
 1176TIP3    H2 3493   0.514   3.830   4.791 -0.2723  0.5436  0.1206
 1177TIP3   OH2 3494   0.577   0.320   3.212  0.1070 -0.2132 -0.1617
 1177TIP3    H1 3495   0.552   0.356   3.297  0.1966  0.3558 -0.3766
 1177TIP3    H2 3496   0.551   0.387   3.148 -0.6726 -0.9578 -0.6557
 1178TIP3   OH2 3497   1.692   2.982   1.465  0.4368  0.0341 -0.3552
 1178TIP3    H1 3498   1.616   3.026   1.427  0.2860 -0.4925 -0.6752
 1178TIP3    H2 3499   1.765   3.041   1.448  0.3877 -0.2386 -1.5649
 1179TIP3   OH2 3500   0.469   1.607   4.736 -0.1462 -0.2369  0.4485
 1179TIP3    H1 3501   0.448   1.696   4.762  2.2800  0.5344  0.0045
 1179TIP3    H2 3502   0.479   1.560   4.818 -1.8399 -0.2719  0.6840
 1180TIP3   OH2 3503   5.651   5.006   1.412  0.1172  0.2765 -0.0323
 1180TIP3    H1 3504   5.602   4.938   1.365 -1.6136  0.9064  0.7600
 1180TIP3    H2 3505   5.697   4.959   1.482  0.1388 -0.2556 -0.3947
 1181TIP3   OH2 3506   4.355   5.069   0.653  0.2402  0.1825 -0.3546
 1181TIP3    H1 3507   4.405   5.037   0.728  0.0102  0.8508  0.0922
 1181TIP3    H2 3508   4.371   5.163   0.652 -0.2988  0.2752 -0.7370
 1182TIP3   OH2 3509   4.738   3.710   4.893 -0.4367 -0.1433 -0.4555
 1182TIP3    H1 3510   4.671   3.654   4.855  0.0442 -0.4287 -0.8857
 1182TIP3    H2 3511   4.763   3.665   4.974 -1.2527  0.3182  0.0652
 1183TIP3   OH2 3512   3.930   0.529   4.017 -0.1334 -0.1236  0.3659
 1183TIP3    H1 3513   3.985   0.600   3.984 -0.8780  0.2146 -0.1776
 1183TIP3    H2 3514   3.866   0.515   3.948 -1.3916  0.2191  1.4303
 1184TIP3   OH2 3515   6.431   1.849   2.159  0.2026  0.8746  0.2310
 1184TIP3    H1 3516   6.418   1.779   2.095 -0.1740  0.0138  1.2161
 1184TIP3    H2 3517   6.443   1.804   2.242  0.8605  1.9646  0.7560
 1185TIP3   OH2 3518   3.679   4.842   5.050  0.6938  0.3426  0.2286
 1185TIP3    H1 3519   3.688   4.751   5.021  0.8140  0.8602 -1.4628
 1185TIP3    H2 3520   3.671   4.836   5.145  3.2583 -1.2424  0.4221
 1186TIP3   OH2 3521   6.455   0.093   5.638  0.5652 -0.0244  0.4899
 1186TIP3    H1 3522   6.456   0.188   5.635  1.1030 -0.0448 -0.4035
 1186TIP3    H2 3523   6.548   0.068   5.634  0.3702 -0.6486 -3.1092
 1187TIP3   OH2 3524   5.109   4.109   1.836  0.0179  0.6658 -0.2442
 1187TIP3    H1 3525   5.090   4.173   1.768 -0.1922  0.2548 -0.5783
 1187TIP3    H2 3526   5.203   4.116   1.851  0.1920  0.2704 -1.0803
 1188TIP3   OH2 3527   2.307   0.311   4.506  0.1794  0.3309 -0.1063
 1188TIP3    H1 3528   2.390   0.336   4.464  0.8824  0.0205  1.0701
 1188TIP3    H2 3529   2.298   0.218   4.488 -0.5684  0.6063 -1.2981
 1189TIP3   OH2 3530   3.063   4.465   1.009 -0.0239  0.1306  0.2827
 1189TIP3    H1 3531   3.093   4.375   1.021 -1.6810 -0.5422 -0.2783
 1189TIP3    H2 3532   3.066   4.503   1.096  1.7344 -0.0992  0.3526
 1190TIP3   OH2 3533   0.128   1.680   2.470  0.5646  0.1224 -0.3396
 1190TIP3    H1 3534   0.138   1.748   2.403  0.0602  1.8073  1.2094
 1190TIP3    H2 3535   0.066   1.717   2.533  1.7942 -0.9170  1.6046
 1191TIP3   OH2 3536   1.559   0.729   2.349 -0.4328 -0.3929  0.3961
 1191TIP3    H1 3537   1.617   0.706   2.422  0.2938  0.0139 -0.0311
 1191TIP3    H2 3538   1.499   0.655   2.341 -0.0814 -0.7482  0.9677
 1192TIP3   OH2 3539   1.949   2.150   3.610 -0.3062 -0.3254 -0.0392
 1192TIP3    H1 3540   2.032   2.112   3.582  1.9580  2.9745  1.5016
 1192TIP3    H2 3541   1.916   2.089   3.676  2.2552 -0.5480  1.1654
 1193TIP3   OH2 3542   1.242   0.439   1.926 -0.6658  0.3732 -0.1689
 1193TIP3    H1 3543   1.315   0.488   1.963  0.0619 -1.5373  1.0544
 1193TIP3    H2 3544   1.171   0.452   1.989 -0.4738 -0.0882  0.1538
 1194TIP3   OH2 3545   5.087   2.121   3.779 -0.4418 -0.1170 -0.1245
 1194TIP3    H1 3546   5.113   2.037   3.741  0.9958 -0.0767  0.6940
 1194TIP3    H2 3547   5.004   2.142   3.736 -0.4727 -1.6027 -0.8636
 1195TIP3   OH2 3548   1.834   1.845   0.386 -0.3878  0.6738 -0.1170
 1195TIP3    H1 3549   1.764   1.782   0.369 -1.5252  2.0962 -1.0133
 1195TIP3    H2 3550   1.835   1.854   0.482 -0.8397 -0.0008 -0.0398
 1196TIP3   OH2 3551   5.330   4.357   1.992 -0.9715  0.1794 -0.3658
 1196TIP3    H1 3552   5.355   4.271   1.959  1.3998 -0.3769  2.4797
 1196TIP3    H2 3553   5.289   4.339   2.077 -0.8256  1.8227  0.0855
 1197TIP3   OH2 3554   0.752   1.202   3.371 -0.1694 -0.2635  0.6188
 1197TIP3    H1 3555   0.836   1.164   3.346 -0.2489 -0.9177  1.3063
 1197TIP3    H2 3556   0.751   1.197   3.467 -0.5563  0.6880  0.6776
 1198TIP3   OH2 3557   6.266   6.292   5.799  0.5432  0.0195 -0.6529
 1198TIP3    H1 3558   6.237   6.383   5.797  1.2349  0.2844  0.6552
 1198TIP3    H2 3559   6.356   6.295   5.831  0.5158 -1.1309 -0.4043
 1199TIP3   OH2 3560   0.487   5.409   5.534  0.4329  0.2824 -0.4069
 1199TIP3    H1 3561   0.569   5.386   5.579 -0.6141 -2.9917  0.0924
 1199TIP3    H2 3562   0.437   5.457   5.600  0.7321 -0.4440  0.3720
 1200TIP3   OH2 3563   1.124   1.787   4.969 -0.0960  0.1308  0.2112
 1200TIP3    H1 3564   1.074   1.845   5.027 -0.4782 -0.2998  0.3147
 1200TIP3    H2 3565   1.208   1.776   5.013 -0.3039 -0.0153  0.5766
 1201TIP3   OH2 3566   2.530   4.549   0.064 -0.1386 -0.3045 -0.0763
 1201TIP3    H1 3567   2.571   4.500   0.136  0.6603  1.8628  1.0513
 1201TIP3    H2 3568   2.564   4.508  -0.015  1.3077 -0.9380  0.8261
 1202TIP3   OH2 3569   4.846   0.727   2.015 -0.3793  0.2795  0.3029
 1202TIP3    H1 3570   4.795   0.713   2.095  0.6348 -0.3522  0.8638
 1202TIP3    H2 3571   4.927   0.678   2.030 -0.2846 -0.0732 -1.2326
 1203TIP3   OH2 3572   5.053   6.192   5.398 -0.0234 -0.4811 -0.4504
 1203TIP3    H1 3573   4.987   6.173   5.331  0.0642 -1.1868 -0.3450
 1203TIP3    H2 3574   5.137   6.183   5.352  0.0618 -1.6882 -0.0848
 1204TIP3   OH2 3575   4.130   0.118   2.300  0.1589  0.0775 -0.0635
 1204TIP3    H1 3576   4.074   0.119   2.223  1.2526  1.1114 -0.8716
 1204TIP3    H2 3577   4.200   0.057   2.279 -0.2967 -0.7401  0.7013
 1205TIP3   OH2 3578   1.754   6.516   2.881 -0.3748 -0.3657  0.1340
 1205TIP3    H1 3579   1.667   6.483   2.904  0.2349 -0.3397  2.7897
 1205TIP3    H2 3580   1.766   6.594   2.936  0.8182  0.4189 -1.1664
 1206TIP3   OH2 3581   0.659   2.034   5.609 -0.1252 -0.5558 -0.2035
 1206TIP3    H1 3582   0.616   2.097   5.668 -0.6833 -1.4794  0.4017
 1206TIP3    H2 3583   0.662   1.953   5.659  0.6466 -1.0034 -0.9531
 1207TIP3   OH2 3584   2.667   1.843   2.651  0.3529  0.1205  0.1425
 1207TIP3    H1 3585   2.617   1.876   2.576  1.2902  0.6924 -0.2509
 1207TIP3    H2 3586   2.613   1.772   2.685 -0.1549 -0.0797 -0.9998
 1208TIP3   OH2 3587   6.974   6.047   4.736  0.2062  0.0818  0.0622
 1208TIP3    H1 3588   6.927   6.015   4.659 -1.7128 -0.9616  1.5777
 1208TIP3    H2 3589   6.914   6.031   4.809  1.5061  2.0234  1.6641
 1209TIP3   OH2 3590   0.051   5.979   5.732 -0.2771 -0.4619 -0.2830
 1209TIP3    H1 3591   0.091   6.046   5.789 -0.1563 -0.9474  0.2077
 1209TIP3    H2 3592   0.038   5.904   5.789  1.0903 -1.4451 -1.2089
 1210TIP3   OH2 3593   6.495   4.590   0.286 -0.1058  0.3982 -0.4712
 1210TIP3    H1 3594   6.531   4.631   0.207 -1.3487  1.7706 -0.3465
 1210TIP3    H2 3595   6.511   4.654   0.356 -1.5888  0.4591 -0.1692
 1211TIP3   OH2 3596   2.402   3.051   0.381  0.1632  0.0098 -0.3080
 1211TIP3    H1 3597   2.452   3.123   0.342 -0.3283  0.5820  0.1041
 1211TIP3    H2 3598   2.463   2.977   0.381  0.5243  0.2917 -1.1611
 1212TIP3   OH2 3599   1.832   6.671   5.334  0.5830 -0.0527  0.1386
 1212TIP3    H1 3600   1.906   6.686   5.276  1.6135  1.3677  1.7244
 1212TIP3    H2 3601   1.844   6.582   5.366 -0.3657 -1.1227 -2.2117
 1213TIP3   OH2 3602   6.196   6.283   1.244  0.2043 -0.4557  0.1186
 1213TIP3    H1 3603   6.153   6.272   1.160 -0.6357  1.2468  0.2804
 1213TIP3    H2 3604   6.254   6.359   1.232  1.4537 -1.3007  0.5715
 1214TIP3   OH2 3605  -0.020   1.643   4.099 -0.2927 -0.0419 -0.0388
 1214TIP3    H1 3606   0.074   1.629   4.113 -0.2847  0.0677  0.0118
 1214TIP3    H2 3607  -0.042   1.581   4.029  0.1420  1.0097 -1.1475
 1215TIP3   OH2 3608   5.582   5.447   5.465  0.0981 -0.9068 -0.8630
 1215TIP3    H1 3609   5.595   5.519   5.404  2.6947 -1.6616 -1.3111
 1215TIP3    H2 3610   5.531   5.485   5.536  1.0850  1.3023 -1.2594
 1216TIP3   OH2 3611   4.907   6.558   3.559 -0.1643  0.0336 -0.4861
 1216TIP3    H1 3612   4.995   6.575   3.594 -0.3044 -3.3799  2.0299
 1216TIP3    H2 3613   4.849   6.571   3.634 -1.1703 -2.3087 -0.7792
 1217TIP3   OH2 3614   2.070   1.642   3.465 -0.2620 -0.1248  0.5789
 1217TIP3    H1 3615   2.155   1.686   3.459 -1.0817  1.6678  1.0910
 1217TIP3    H2 3616   2.044   1.626   3.374  0.1200  0.3871  0.3759
 1218TIP3   OH2 3617   0.304   0.126   5.360 -0.5089 -0.2478 -0.9303
 1218TIP3    H1 3618   0.294   0.107   5.453  0.3419 -1.1928 -1.0223
 1218TIP3    H2 3619   0.369   0.196   5.356  0.1566 -0.8485 -0.8498
 1219TIP3   OH2 3620   1.464   1.968   2.160  0.4469  0.1287  0.2379
 1219TIP3    H1 3621   1.401   1.932   2.223  1.1671  1.9675  2.0780
 1219TIP3    H2 3622   1.529   1.899   2.149  0.2423 -0.2726  1.4252
 1220TIP3   OH2 3623   4.972   5.945   1.511 -0.2403 -0.3273  0.0293
 1220TIP3    H1 3624   4.970   5.850   1.519  1.6888 -0.3204  1.0134
 1220TIP3    H2 3625   5.044   5.973   1.567 -0.5581  1.6974 -0.4858
 1221TIP3   OH2 3626   2.852   3.136   1.800 -0.0157 -0.6312  0.0780
 1221TIP3    H1 3627   2.918   3.196   1.834 -0.8071 -0.5777  1.6446
 1221TIP3    H2 3628   2.821   3.177   1.720  1.5785 -0.4862 -0.4824
 1222TIP3   OH2 3629   7.186   4.089   3.445 -0.4025 -0.1426 -0.1604
 1222TIP3    H1 3630   7.212   4.000   3.422 -5.1894 -1.7672 -0.4447
 1222TIP3    H2 3631   7.150   4.081   3.534  0.7689  2.0105  0.5810
 1223TIP3   OH2 3632   0.112   1.281   5.713 -0.2953 -0.4734  0.0048
 1223TIP3    H1 3633   0.036   1.338   5.707 -1.3140 -1.7663  0.2183
 1223TIP3    H2 3634   0.119   1.260   5.807  1.3437  0.9322  0.2490
 1224TIP3   OH2 3635   6.294   3.930   4.022 -0.1461  0.1102 -0.4929
 1224TIP3    H1 3636   6.279   3.968   3.935 -2.1030 -0.5394 -0.5011
 1224TIP3    H2 3637   6.207   3.930   4.063  0.4557 -1.0320  0.8557
 1225TIP3   OH2 3638   3.283   3.727   3.091 -0.2645  0.4521  0.1557
 1225TIP3    H1 3639   3.195   3.741   3.126  0.0907 -0.6021  1.5796
 1225TIP3    H2 3640   3.293   3.795   3.024 -1.3428  2.0007  1.4690
 1226TIP3   OH2 3641   2.312   4.295   1.706 -0.3545  0.3823 -0.1564
 1226TIP3    H1 3642   2.253   4.230   1.670 -2.0281  0.5376  2.1015
 1226TIP3    H2 3643   2.324   4.359   1.636 -0.3807 -1.2021 -1.6746
 1227TIP3   OH2 3644   1.633   0.899   2.131 -0.2541 -0.4392  0.7999
 1227TIP3    H1 3645   1.598   0.817   2.167 -1.5605 -0.6408 -0.8227
 1227TIP3    H2 3646   1.680   0.872   2.052  1.9973  0.0672  1.8799
 1228TIP3   OH2 3647   5.705   2.665   5.241 -0.2545  0.6288 -0.0659
 1228TIP3    H1 3648   5.654   2.735   5.200  0.2742  3.2053  3.2682
 1228TIP3    H2 3649   5.796   2.688   5.223 -0.0326  1.5896  2.0458
 1229TIP3   OH2 3650   6.796   5.395   5.193  0.2229 -0.2777  0.4790
 1229TIP3    H1 3651   6.785   5.300   5.192  0.4046 -0.2978 -0.3796
 1229TIP3    H2 3652   6.862   5.412   5.126  1.1088  0.3536  1.4880
 1230TIP3   OH2 3653   4.675   4.011   5.338  0.0857  0.1056  0.0591
 1230TIP3    H1 3654   4.605   3.948   5.353  0.0152 -0.3459 -1.9700
 1230TIP3    H2 3655   4.653   4.053   5.255  1.9054  0.3958 -0.3238
 1231TIP3   OH2 3656   3.695   0.476   2.799 -0.0931  0.0425 -0.7541
 1231TIP3    H1 3657   3.657   0.482   2.887 -1.8406  3.0137 -1.5900
 1231TIP3    H2 3658   3.632   0.424   2.749 -1.7006  2.4495 -1.3794
 1232TIP3   OH2 3659   4.120   3.047   1.312 -0.2742  0.4462  0.0228
 1232TIP3    H1 3660   4.055   3.012   1.251 -0.5996 -0.1762  0.7205
 1232TIP3    H2 3661   4.087   3.134   1.336 -1.0958 -0.0504  0.7300
 1233TIP3   OH2 3662   4.904   2.992   0.452  0.3668  0.0023 -0.2435
 1233TIP3    H1 3663   4.952   3.029   0.377  0.5081 -0.4566 -0.3788
 1233TIP3    H2 3664   4.968   2.990   0.522 -0.1122  1.6775  0.2927
 1234TIP3   OH2 3665   4.189   0.550   5.598 -0.6072  0.0266  0.2210
 1234TIP3    H1 3666   4.269   0.602   5.595 -0.3095 -0.4478 -0.4334
 1234TIP3    H2 3667   4.219   0.462   5.622 -0.4886 -0.8812 -2.7544
 1235TIP3   OH2 3668   4.237   5.250   3.450 -0.4586 -0.2987 -0.5442
 1235TIP3    H1 3669   4.163   5.259   3.390 -0.9009  0.9917  0.1485
 1235TIP3    H2 3670   4.310   5.292   3.404 -0.4323 -0.5930 -0.7724
 1236TIP3   OH2 3671   2.724   4.426   3.394  0.4732  0.5213  0.0582
 1236TIP3    H1 3672   2.680   4.381   3.466  3.3841  0.1709  1.7907
 1236TIP3    H2 3673   2.688   4.514   3.395 -1.2466 -0.1464  0.3360
 1237TIP3   OH2 3674   3.125   0.016   2.327 -0.1162 -0.3105 -0.4565
 1237TIP3    H1 3675   3.160   0.102   2.307 -0.3550  0.2193  1.2610
 1237TIP3    H2 3676   3.059   0.032   2.395 -0.1559 -1.8420 -0.0990
 1238TIP3   OH2 3677   0.110   4.907   3.017 -0.2199 -0.4030  0.6354
 1238TIP3    H1 3678   0.109   4.993   2.976  0.6172  0.8885  3.1258
 1238TIP3    H2 3679   0.188   4.864   2.981  0.2561  0.5059  0.5644
 1239TIP3   OH2 3680   1.342   2.558   5.826 -0.3558  0.2976 -0.0187
 1239TIP3    H1 3681   1.372   2.469   5.847 -0.6455  0.9571  3.7996
 1239TIP3    H2 3682   1.254   2.545   5.790 -0.6721 -0.9803  1.1178
 1240TIP3   OH2 3683   5.158   0.221   2.476  0.1372  0.5537  0.2529
 1240TIP3    H1 3684   5.083   0.193   2.527 -0.6055 -0.7668 -1.4530
 1240TIP3    H2 3685   5.233   0.214   2.536 -0.8530  0.3136  1.4921
 1241TIP3   OH2 3686   2.065   1.455   4.872 -0.0169  0.6029 -0.7646
 1241TIP3    H1 3687   2.005   1.402   4.819 -0.2533  0.5285 -0.4317
 1241TIP3    H2 3688   2.027   1.542   4.872  0.8023  0.9733 -1.9751
 1242TIP3   OH2 3689   4.179   5.557   4.604  0.3105 -0.0066  0.1533
 1242TIP3    H1 3690   4.116   5.530   4.670 -0.9497 -1.2762 -1.4960
 1242TIP3    H2 3691   4.227   5.477   4.582 -1.2720 -0.3374 -2.4857
 1243TIP3   OH2 3692   5.267   6.324   3.921 -1.1597 -0.6060  0.0963
 1243TIP3    H1 3693   5.174   6.304   3.933 -0.8582 -2.0051  0.2956
 1243TIP3    H2 3694   5.313   6.249   3.960  0.0781  0.4940  0.8662
 1244TIP3   OH2 3695   1.111   2.133   5.326  0.2286 -0.1685  0.1162
 1244TIP3    H1 3696   1.170   2.198   5.288 -1.2650  0.1245 -1.8832
 1244TIP3    H2 3697   1.059   2.183   5.389  0.6038  0.0545  0.2563
 1245TIP3   OH2 3698   3.757   4.275   4.129 -0.3266  0.4866  0.9325
 1245TIP3    H1 3699   3.692   4.292   4.061 -1.4463 -2.2597  1.1836
 1245TIP3    H2 3700   3.733   4.335   4.200 -1.7588  0.4733  0.4887
 1246TIP3   OH2 3701   1.918   4.673   2.449 -0.0124  0.3701  0.0732
 1246TIP3    H1 3702   1.961   4.588   2.442 -0.8471 -0.0685  0.1864
 1246TIP3    H2 3703   1.931   4.700   2.540 -1.3834 -0.5413  0.5699
 1247TIP3   OH2 3704   2.851   0.683   0.170  0.1610 -0.7010 -0.3160
 1247TIP3    H1 3705   2.792   0.609   0.153  0.1655 -0.8568  0.3158
 1247TIP3    H2 3706   2.796   0.746   0.215  0.5932 -1.0629  0.7573
 1248TIP3   OH2 3707   2.709   0.651   3.075 -0.3926 -0.1903  0.1632
 1248TIP3    H1 3708   2.657   0.663   2.995 -0.3072  1.4150  0.3224
 1248TIP3    H2 3709   2.764   0.729   3.080  1.1571 -1.2591  0.6715
 1249TIP3   OH2 3710   6.885   2.500   5.805  0.2413 -0.2517 -0.4366
 1249TIP3    H1 3711   6.953   2.560   5.835  1.6194 -1.6945 -0.5858
 1249TIP3    H2 3712   6.891   2.425   5.863 -3.2640  0.7439  1.5352
 1250TIP3   OH2 3713   6.965   0.364   0.550 -0.3742  0.2589  0.0356
 1250TIP3    H1 3714   6.895   0.423   0.579  0.7678  0.7769  1.9081
 1250TIP3    H2 3715   6.960   0.289   0.610  1.4558  0.9110  1.0819
 1251TIP3   OH2 3716   1.787   6.415   1.896  0.0540  0.0355  0.0070
 1251TIP3    H1 3717   1.866   6.363   1.908  0.1578  0.5659  1.9949
 1251TIP3    H2 3718   1.726   6.380   1.961 -0.1262  1.8813  0.8974
 1252TIP3   OH2 3719   5.576   4.021   3.547  0.3029 -0.5299 -0.3204
 1252TIP3    H1 3720   5.529   3.987   3.623 -0.5606  0.6664 -0.2899
 1252TIP3    H2 3721   5.651   4.067   3.585 -1.1285  1.6778 -0.0098
 1253TIP3   OH2 3722   2.397   5.530   3.643  0.7896  0.0196  0.1279
 1253TIP3    H1 3723   2.363   5.609   3.685  1.9264  1.6755 -1.8540
 1253TIP3    H2 3724   2.457   5.562   3.575  0.5232 -2.5096 -1.4734
 1254TIP3   OH2 3725   1.665   0.912   4.280 -0.1986 -0.7259  0.2570
 1254TIP3    H1 3726   1.722   0.835   4.275  0.7133 -0.0516  0.0964
 1254TIP3    H2 3727   1.599   0.897   4.212  0.0573 -1.2903  0.1244
 1255TIP3   OH2 3728   2.377   5.162   0.415  0.1222  0.1931  0.3685
 1255TIP3    H1 3729   2.317   5.181   0.343  1.1307 -0.6416 -0.7327
 1255TIP3    H2 3730   2.438   5.236   0.416 -1.1755  1.3099  1.8308
 1256TIP3   OH2 3731   6.965   0.008   5.796 -0.5063  0.0038  0.0811
 1256TIP3    H1 3732   6.961   0.052   5.881 -1.5194  2.2741 -1.0541
 1256TIP3    H2 3733   7.008   0.072   5.738 -0.8230 -1.0470 -1.3735
 1257TIP3   OH2 3734   1.445   1.087   2.023  0.2524 -0.1953  0.1897
 1257TIP3    H1 3735   1.353   1.068   2.043  0.3105 -0.4712  0.1948
 1257TIP3    H2 3736   1.495   1.027   2.077  0.4096 -0.9211 -0.7399
 1258TIP3   OH2 3737   0.064   2.545   0.997 -0.3115  0.2303  0.5439
 1258TIP3    H1 3738   0.006   2.588   1.059 -1.1489  3.4903 -2.1801
 1258TIP3    H2 3739   0.149   2.587   1.010 -0.3308  0.4663 -0.0400
 1259TIP3   OH2 3740   6.120   4.357   1.807 -0.1770  0.6047  0.4222
 1259TIP3    H1 3741   6.159   4.385   1.724  0.6238 -0.5269  0.3937
 1259TIP3    H2 3742   6.025   4.359   1.791 -0.0121 -1.5889 -1.2459
 1260TIP3   OH2 3743   4.431   5.677   5.338 -0.4561  0.0924 -0.5483
 1260TIP3    H1 3744   4.468   5.765   5.332  1.6511 -0.5861  1.0319
 1260TIP3    H2 3745   4.367   5.684   5.409 -0.8959  0.5082 -0.9744
 1261TIP3   OH2 3746   7.167   2.338   2.990  0.2741 -0.0880 -0.2776
 1261TIP3    H1 3747   7.115   2.303   3.063  1.4869  0.0223  0.6584
 1261TIP3    H2 3748   7.159   2.272   2.921  2.3680 -2.2127  1.3812
 1262TIP3   OH2 3749   5.198   0.375   5.844  0.6241 -0.0120 -0.8229
 1262TIP3    H1 3750   5.218   0.389   5.752 -0.8965  2.7299 -0.8698
 1262TIP3    H2 3751   5.162   0.459   5.874 -0.0961 -1.1663  1.9529
 1263TIP3   OH2 3752   4.777   0.250   4.918 -0.3056 -0.1509  0.1772
 1263TIP3    H1 3753   4.818   0.169   4.947 -2.5633 -0.7205  2.0168
 1263TIP3    H2 3754   4.733   0.228   4.836  0.5795 -0.2573 -0.2891
 1264TIP3   OH2 3755   6.274   5.998   0.913 -0.2322 -0.0330 -0.1179
 1264TIP3    H1 3756   6.315   5.913   0.900  1.1358  0.5976 -0.0079
 1264TIP3    H2 3757   6.330   6.043   0.975 -0.5591  1.2218 -0.7044
 1265TIP3   OH2 3758   0.569   1.141   1.786 -0.4784  0.2525 -0.1076
 1265TIP3    H1 3759   0.484   1.097   1.794  0.1653 -0.9597  0.3149
 1265TIP3    H2 3760   0.614   1.094   1.715 -0.3815  1.2896 -0.7590
 1266TIP3   OH2 3761   0.297   2.658   1.069  0.0671  0.1873  0.2247
 1266TIP3    H1 3762   0.384   2.646   1.031  0.2957 -0.6231  0.9757
 1266TIP3    H2 3763   0.314   2.693   1.157 -0.4495  2.0046 -0.3479
 1267TIP3   OH2 3764   5.292   3.015   1.255 -0.4054 -0.6469  0.6157
 1267TIP3    H1 3765   5.321   2.970   1.334  0.7608 -0.3859  0.3613
 1267TIP3    H2 3766   5.247   3.093   1.287 -0.5481 -0.9017  1.0340
 1268TIP3   OH2 3767   3.262   5.525   4.454  0.3851 -0.2494 -0.1675
 1268TIP3    H1 3768   3.177   5.569   4.453  0.2844 -0.3683  1.1256
 1268TIP3    H2 3769   3.268   5.487   4.542  1.6716 -0.4487 -0.3230
 1269TIP3   OH2 3770   6.203   3.382   1.405  0.1676  0.0371  0.3398
 1269TIP3    H1 3771   6.245   3.447   1.349  0.9876 -0.4907  0.3238
 1269TIP3    H2 3772   6.116   3.419   1.423  0.5897  1.0996  0.2862
 1270TIP3   OH2 3773   5.905   2.989   4.036  0.3047 -0.1987 -0.6009
 1270TIP3    H1 3774   5.882   3.081   4.020  1.9254  0.0261 -2.0097
 1270TIP3    H2 3775   5.836   2.956   4.094 -0.4767  1.8178 -0.2973
 1271TIP3   OH2 3776   2.426   2.381   2.670 -0.0522 -0.3348  0.3031
 1271TIP3    H1 3777   2.447   2.364   2.762  1.8382 -1.0851 -0.2232
 1271TIP3    H2 3778   2.456   2.470   2.654 -2.2358  0.5701  0.8814
 1272TIP3   OH2 3779   6.244   6.383   2.115 -0.0946  0.0053 -0.0356
 1272TIP3    H1 3780   6.233   6.365   2.022  0.0912  0.1510 -0.0843
 1272TIP3    H2 3781   6.336   6.407   2.125  0.1123 -0.8764  0.3238
 1273TIP3   OH2 3782   3.187   4.087   1.438 -0.1485 -0.5134 -0.1486
 1273TIP3    H1 3783   3.277   4.066   1.462 -0.0584  0.3388  0.2802
 1273TIP3    H2 3784   3.161   4.017   1.378  0.8068 -0.7423 -0.3013
 1274TIP3   OH2 3785   6.877   2.656   1.455 -0.5771 -0.0735 -0.4337
 1274TIP3    H1 3786   6.857   2.598   1.382 -1.3919 -1.5379  0.8797
 1274TIP3    H2 3787   6.878   2.598   1.531  1.4331  1.2042  0.5717
 1275TIP3   OH2 3788   5.621   0.010   3.317 -0.5253  0.0456  0.2722
 1275TIP3    H1 3789   5.587   0.065   3.388  1.3184  0.0157  1.2605
 1275TIP3    H2 3790   5.686   0.065   3.274 -1.9510  0.2303 -1.7830
 1276TIP3   OH2 3791   6.504   1.557   0.412  0.2291 -0.0055  0.3723
 1276TIP3    H1 3792   6.503   1.462   0.401 -0.5550  0.0082  0.3181
 1276TIP3    H2 3793   6.437   1.574   0.479 -2.0888  0.8022 -2.0062
 1277TIP3   OH2 3794   0.590   2.216   5.798 -0.7087  0.3408 -0.5225
 1277TIP3    H1 3795   0.546   2.228   5.882 -0.6352 -0.8765 -0.2865
 1277TIP3    H2 3796   0.639   2.297   5.784  0.9500 -0.1795  1.6321
 1278TIP3   OH2 3797   1.988   5.089   0.922 -0.5085 -0.3927 -0.1834
 1278TIP3    H1 3798   2.036   5.059   0.999  0.6930  0.7822 -0.4436
 1278TIP3    H2 3799   1.970   5.181   0.939  0.3703  0.0650 -1.5704
 1279TIP3   OH2 3800   2.708   3.217   5.193  0.1949 -0.4910  0.1162
 1279TIP3    H1 3801   2.741   3.237   5.105  2.6181  1.0692  1.2829
 1279TIP3    H2 3802   2.618   3.248   5.191  0.7735  1.2969 -1.2743
 1280TIP3   OH2 3803   3.654   1.978   5.608  0.2518  0.0531  0.3433
 1280TIP3    H1 3804   3.689   2.004   5.523 -2.3878 -1.2511 -1.2632
 1280TIP3    H2 3805   3.628   2.061   5.649 -2.3519  0.5388 -2.0227
 1281TIP3   OH2 3806   5.446   0.461   5.797 -0.2051  0.5045  0.5871
 1281TIP3    H1 3807   5.417   0.520   5.728 -0.4436  0.3078  0.5191
 1281TIP3    H2 3808   5.369   0.448   5.852 -0.0930  0.4314  0.7268
 1282TIP3   OH2 3809   6.550   5.283   4.814 -0.2209  0.1074 -0.5025
 1282TIP3    H1 3810   6.533   5.231   4.892  0.8670 -0.5129 -0.6742
 1282TIP3    H2 3811   6.612   5.350   4.843 -0.5245  0.4435 -0.6219
 1283TIP3   OH2 3812   1.460   1.884   4.012 -0.0897 -0.2797 -0.6251
 1283TIP3    H1 3813   1.394   1.953   4.005 -0.2648 -0.5474 -1.7180
 1283TIP3    H2 3814   1.466   1.847   3.924  0.0007 -1.6591 -0.0575
 1284TIP3   OH2 3815   5.725   1.672   2.199  0.3742 -0.1604 -0.3125
 1284TIP3    H1 3816   5.809   1.633   2.224  0.9912  0.0177 -2.0323
 1284TIP3    H2 3817   5.746   1.735   2.131 -1.1233  0.2099 -0.4831
 1285TIP3   OH2 3818   4.280   0.583   2.711 -0.2225 -0.1348 -0.4960
 1285TIP3    H1 3819   4.210   0.647   2.701  0.2151  1.0108  2.5618
 1285TIP3    H2 3820   4.235   0.498   2.715 -1.2960  0.4378 -0.1751
 1286TIP3   OH2 3821   4.030   1.248   3.490 -0.2073 -0.3086 -0.0801
 1286TIP3    H1 3822   4.035   1.277   3.581 -0.2319 -0.8998  0.1198
 1286TIP3    H2 3823   3.964   1.304   3.450 -1.0370 -0.8009  0.5691
 1287TIP3   OH2 3824   3.028   6.030   1.222  0.3014  0.1401  0.0223
 1287TIP3    H1 3825   3.104   6.014   1.278  0.2330  1.1779  0.4382
 1287TIP3    H2 3826   3.017   6.125   1.223 -0.9958  0.0122 -0.0338
 1288TIP3   OH2 3827   6.893   5.938   1.294 -0.1717  0.3863  0.1554
 1288TIP3    H1 3828   6.967   5.910   1.348  0.6606 -0.6827 -1.4562
 1288TIP3    H2 3829   6.911   6.030   1.275  0.5538  0.2407  0.0975
 1289TIP3   OH2 3830   0.489   5.745   2.930 -1.0566 -0.0597 -0.1244
 1289TIP3    H1 3831   0.446   5.662   2.947  1.0094 -1.1118  0.3132
 1289TIP3    H2 3832   0.580   5.722   2.912 -0.3169  2.1343  0.4368
 1290TIP3   OH2 3833   6.804   4.477   5.240 -0.1798 -0.2038 -0.3203
 1290TIP3    H1 3834   6.897   4.488   5.219  0.0238 -0.6756  0.2915
 1290TIP3    H2 3835   6.798   4.501   5.332 -0.5219 -0.8943 -0.1551
 1291TIP3   OH2 3836   4.478   4.589   5.827  0.2231 -0.3005 -0.0302
 1291TIP3    H1 3837   4.540   4.517   5.815 -0.2604 -0.8122  0.4833
 1291TIP3    H2 3838   4.407   4.551   5.879  0.6602  0.9274  1.5419
 1292TIP3   OH2 3839   3.632   1.985   1.785  0.0355 -0.2451  0.5535
 1292TIP3    H1 3840   3.695   1.923   1.749  1.7457  1.4208  0.5008
 1292TIP3    H2 3841   3.654   1.989   1.878 -2.2867 -2.1529  1.2980
 1293TIP3   OH2 3842   0.729   0.621   3.328 -0.3338  0.1374  0.1489
 1293TIP3    H1 3843   0.730   0.534   3.368  0.2995  0.4388  0.8077
 1293TIP3    H2 3844   0.702   0.605   3.237  1.8009 -1.0410 -0.3618
 1294TIP3   OH2 3845   4.389   4.197   3.636 -0.1295  0.6369 -0.2239
 1294TIP3    H1 3846   4.317   4.259   3.636 -0.3346  0.4846 -2.1603
 1294TIP3    H2 3847   4.450   4.232   3.570  0.4645 -0.4161 -0.2537
 1295TIP3   OH2 3848   3.569   3.275   2.058 -0.1581 -0.6201 -0.8841
 1295TIP3    H1 3849   3.590   3.314   2.143  0.5166 -0.8134 -0.9562
 1295TIP3    H2 3850   3.650   3.282   2.007 -0.8306  0.3522 -1.8485
 1296TIP3   OH2 3851   6.478   1.539   5.742  0.3156  0.0444  0.4416
 1296TIP3    H1 3852   6.399   1.565   5.790 -0.1545  0.1367 -0.3613
 1296TIP3    H2 3853   6.515   1.622   5.711  2.3816  0.3108  3.2471
 1297TIP3   OH2 3854   7.002   6.594   2.241  0.7416  0.1294 -0.0905
 1297TIP3    H1 3855   6.914   6.628   2.259  0.7476  1.2011 -1.7618
 1297TIP3    H2 3856   7.012   6.605   2.146  3.1207  1.1813  0.2142
 1298TIP3   OH2 3857   3.636   1.095   3.562 -0.3773  0.3545  0.7927
 1298TIP3    H1 3858   3.711   1.138   3.521 -0.7254  0.4230  0.2137
 1298TIP3    H2 3859   3.661   1.002   3.565 -0.9096  0.1297 -0.8885
 1299TIP3   OH2 3860   1.785   4.261   4.665 -0.7057  0.1978  0.1486
 1299TIP3    H1 3861   1.800   4.245   4.572 -2.3101  0.4065 -0.1582
 1299TIP3    H2 3862   1.712   4.322   4.668 -0.7372  0.1243  1.5590
 1300TIP3   OH2 3863   4.070   2.936   3.055 -0.0221 -0.0717  0.0150
 1300TIP3    H1 3864   4.154   2.902   3.086 -0.0994  0.2102  0.5379
 1300TIP3    H2 3865   4.062   3.022   3.096 -1.0191 -0.5049  0.7877
 1301TIP3   OH2 3866   6.445   6.665   3.339 -0.4336  0.2148  0.0381
 1301TIP3    H1 3867   6.460   6.759   3.344 -1.2690  0.4718 -1.5632
 1301TIP3    H2 3868   6.350   6.656   3.333 -0.3576 -0.7252  0.1089
 1302TIP3   OH2 3869   3.044   3.766   3.201  0.0923 -0.1538 -0.2079
 1302TIP3    H1 3870   2.992   3.754   3.280  1.0728 -1.8540  0.2297
 1302TIP3    H2 3871   2.981   3.765   3.129 -0.5849 -0.9652  0.3940
 1303TIP3   OH2 3872   0.897   6.376   5.552  0.1507 -0.6056 -0.1617
 1303TIP3    H1 3873   0.914   6.469   5.535  2.1469 -1.2860 -2.4676
 1303TIP3    H2 3874   0.946   6.357   5.632  0.4144  0.1517 -0.1411
 1304TIP3   OH2 3875   5.133   2.758   5.025 -0.3921 -0.7623  0.2309
 1304TIP3    H1 3876   5.141   2.762   5.120 -2.4980  0.2121  0.4305
 1304TIP3    H2 3877   5.059   2.700   5.009 -0.3722 -0.5312 -0.8036
 1305TIP3   OH2 3878   3.193   6.196   2.996  0.2967 -0.0211 -0.4458
 1305TIP3    H1 3879   3.201   6.109   3.034  1.0902  0.6232  0.9373
 1305TIP3    H2 3880   3.148   6.182   2.912  0.7911 -1.7957 -0.4513
 1306TIP3   OH2 3881   3.401   1.918   3.557  0.1190 -0.1979 -0.5087
 1306TIP3    H1 3882   3.389   1.882   3.644  1.3573 -0.8061 -0.5711
 1306TIP3    H2 3883   3.399   1.842   3.499 -1.9694  0.3139 -1.1812
 1307TIP3   OH2 3884   6.419   1.555   3.071  0.5457 -0.6843  0.0698
 1307TIP3    H1 3885   6.383   1.640   3.097  0.0507  0.0909 -2.8129
 1307TIP3    H2 3886   6.368   1.529   2.995  1.3289 -3.1592  0.2964
 1308TIP3   OH2 3887   3.178   5.098   3.067  1.0432  0.3464 -0.2006
 1308TIP3    H1 3888   3.216   5.014   3.039 -0.1134 -0.6107  0.9360
 1308TIP3    H2 3889   3.084   5.079   3.075  0.6840  1.9247 -0.4475
 1309TIP3   OH2 3890   5.863   4.139   3.550  0.2710  0.0021  0.1996
 1309TIP3    H1 3891   5.898   4.091   3.476  0.0468  1.4197 -0.8646
 1309TIP3    H2 3892   5.935   4.143   3.613  1.0667  0.3383 -0.7120
 1310TIP3   OH2 3893   0.838   4.253   1.215 -0.2312  0.0055 -0.2279
 1310TIP3    H1 3894   0.927   4.283   1.231  0.0122  0.0546 -1.5854
 1310TIP3    H2 3895   0.841   4.159   1.233 -0.0320  0.0884  0.1945
 1311TIP3   OH2 3896   1.982   5.434   2.562 -0.2470  0.8762  0.1201
 1311TIP3    H1 3897   1.996   5.362   2.502  2.6368  1.4025  0.0169
 1311TIP3    H2 3898   1.927   5.398   2.631  0.1825 -1.0818 -0.5143
 1312TIP3   OH2 3899   1.754   0.665   0.079 -0.6886  0.4684 -0.3769
 1312TIP3    H1 3900   1.805   0.725   0.134 -1.5820  0.7914  0.1210
 1312TIP3    H2 3901   1.755   0.705  -0.008 -0.8610  0.9534 -0.1609
 1313TIP3   OH2 3902   3.076   3.415   0.980  0.2186  0.4525  0.0119
 1313TIP3    H1 3903   3.101   3.404   1.071 -0.8635 -1.3320  0.1312
 1313TIP3    H2 3904   3.102   3.334   0.937  0.2813  1.0712 -1.1804
 1314TIP3   OH2 3905   0.843   5.595   3.495 -0.3999 -0.8100  0.0004
 1314TIP3    H1 3906   0.854   5.559   3.583 -0.5545 -0.4927  0.1522
 1314TIP3    H2 3907   0.812   5.522   3.442 -0.4801 -0.9587  0.2510
 1315TIP3   OH2 3908   2.266   3.180   0.604  0.0461 -0.0685  0.0813
 1315TIP3    H1 3909   2.295   3.270   0.611  0.7357 -0.2397 -0.4460
 1315TIP3    H2 3910   2.326   3.140   0.541  0.8004 -1.3200  1.5254
 1316TIP3   OH2 3911   6.526   6.741   5.758  0.7049 -0.2726  0.0909
 1316TIP3    H1 3912   6.485   6.700   5.835 -0.5658  2.2213  0.8540
 1316TIP3    H2 3913   6.498   6.686   5.684 -0.5231 -1.0361  1.0777
 1317TIP3   OH2 3914   5.752   6.258   2.989 -0.0919  0.1610  0.9211
 1317TIP3    H1 3915   5.751   6.290   2.898 -2.8774 -0.6074  0.6118
 1317TIP3    H2 3916   5.692   6.316   3.036 -1.5687 -1.6479  1.3886
 1318TIP3   OH2 3917   4.844   3.427   0.772 -0.5414  0.2407  0.1471
 1318TIP3    H1 3918   4.899   3.364   0.727 -1.5888 -0.2670 -0.4605
 1318TIP3    H2 3919   4.811   3.484   0.702 -0.2613  0.9564  0.5862
 1319TIP3   OH2 3920   3.392   4.872   2.412  0.3251 -0.3033  0.5396
 1319TIP3    H1 3921   3.329   4.925   2.461  0.2462 -0.2776  0.4089
 1319TIP3    H2 3922   3.358   4.783   2.418  0.0493 -0.2258  0.1028
 1320TIP3   OH2 3923   1.647   6.357   1.287 -0.3878 -0.2443  0.8165
 1320TIP3    H1 3924   1.711   6.337   1.355  0.3818 -0.9970 -0.0792
 1320TIP3    H2 3925   1.635   6.273   1.241 -0.8241  0.2570 -0.0032
 1321TIP3   OH2 3926   2.377   2.719   4.750 -0.0884 -0.0101  0.7333
 1321TIP3    H1 3927   2.349   2.641   4.702 -1.6194 -0.5671  2.3915
 1321TIP3    H2 3928   2.435   2.766   4.690 -2.9020  0.0735 -2.1893
 1322TIP3   OH2 3929   4.186   1.341   4.081 -0.2118 -0.2628  0.1664
 1322TIP3    H1 3930   4.225   1.375   4.001 -0.7401 -0.3018 -0.1109
 1322TIP3    H2 3931   4.233   1.386   4.152  1.2797 -1.3043 -0.1113
 1323TIP3   OH2 3932   3.642   4.941   3.166 -0.4052 -0.1271  0.8059
 1323TIP3    H1 3933   3.671   4.904   3.082  1.3402  2.9879 -0.1518
 1323TIP3    H2 3934   3.547   4.941   3.161 -0.4638  3.0581 -2.9008
 1324TIP3   OH2 3935   6.776   3.212   1.841 -0.1992  0.3252 -0.5055
 1324TIP3    H1 3936   6.710   3.143   1.832  0.7807 -0.4897 -1.7971
 1324TIP3    H2 3937   6.746   3.282   1.784 -1.4985  1.2949  1.2401
 1325TIP3   OH2 3938   5.531   3.071   2.201 -0.1148 -0.8521  0.0041
 1325TIP3    H1 3939   5.459   3.133   2.213  0.3382  0.2990 -2.7052
 1325TIP3    H2 3940   5.602   3.107   2.253 -0.7821 -0.7787  0.8940
 1326TIP3   OH2 3941   2.561   1.456   0.834 -0.3619 -0.7015 -0.1215
 1326TIP3    H1 3942   2.516   1.373   0.847 -0.3824 -0.7195 -0.2946
 1326TIP3    H2 3943   2.492   1.517   0.808 -0.2061 -0.8746 -0.9796
 1327TIP3   OH2 3944   6.582   5.148   5.063  0.0264 -0.0491  0.4562
 1327TIP3    H1 3945   6.533   5.190   5.133  1.1456  1.8488  0.1634
 1327TIP3    H2 3946   6.664   5.120   5.103  1.4325  2.6072 -0.3674
 1328TIP3   OH2 3947   2.306   6.115   4.590  0.5686 -0.2174  0.0852
 1328TIP3    H1 3948   2.362   6.147   4.519 -0.2285  0.1990 -0.3720
 1328TIP3    H2 3949   2.365   6.065   4.646  1.3809  0.1388 -0.4270
 1329TIP3   OH2 3950   2.830   5.418   0.138  0.2286 -0.9669  0.1422
 1329TIP3    H1 3951   2.876   5.500   0.155  0.4123 -1.2846  1.2483
 1329TIP3    H2 3952   2.900   5.352   0.136  0.2806 -0.9304 -2.3191
 1330TIP3   OH2 3953   1.279   3.240   3.930  0.6600 -0.4592  0.5680
 1330TIP3    H1 3954   1.314   3.160   3.891 -0.1050  0.0450 -1.2552
 1330TIP3    H2 3955   1.200   3.258   3.880  0.2271  0.8618  1.6715
 1331TIP3   OH2 3956   2.121   0.934   3.275  0.5400 -0.8816 -0.0367
 1331TIP3    H1 3957   2.026   0.950   3.275  0.5198 -0.9435  0.7784
 1331TIP3    H2 3958   2.160   1.021   3.277  0.5048 -0.8532 -0.5143
 1332TIP3   OH2 3959   4.036   2.325   2.921 -0.8488 -0.0272  0.5426
 1332TIP3    H1 3960   4.120   2.348   2.882 -0.1842 -2.4428  0.3816
 1332TIP3    H2 3961   3.973   2.336   2.849 -0.3343 -0.2008  0.0535
 1333TIP3   OH2 3962   5.689   6.081   0.291 -0.2495 -0.1059  0.5275
 1333TIP3    H1 3963   5.654   6.168   0.274 -0.6363  0.4776  3.7233
 1333TIP3    H2 3964   5.733   6.089   0.376 -0.1205 -2.9698  0.8237
 1334TIP3   OH2 3965   5.914   0.365   2.564 -0.4342  0.3547  0.1056
 1334TIP3    H1 3966   5.943   0.449   2.530 -0.6334  0.6311  0.6025
 1334TIP3    H2 3967   5.885   0.384   2.654  0.4491 -0.4288  0.5670
 1335TIP3   OH2 3968   0.647   3.294   0.111 -0.7732 -0.3664  0.1840
 1335TIP3    H1 3969   0.672   3.385   0.099 -0.5743 -0.2879  1.1634
 1335TIP3    H2 3970   0.672   3.273   0.201  0.3501 -1.7504 -0.4055
 1336TIP3   OH2 3971   4.357   2.371   0.766 -0.1277  0.1728 -0.0392
 1336TIP3    H1 3972   4.295   2.443   0.774  0.8156  0.9230  0.8429
 1336TIP3    H2 3973   4.424   2.390   0.832  0.6163 -1.0290 -0.4192
 1337TIP3   OH2 3974   2.524   1.510   5.238  0.0253  0.0285 -0.6990
 1337TIP3    H1 3975   2.438   1.474   5.214  0.1070 -0.1792 -0.6804
 1337TIP3    H2 3976   2.544   1.470   5.322 -0.5805  1.2917  0.0767
 1338TIP3   OH2 3977   4.467   3.789   2.826  0.9541 -0.4129  0.4120
 1338TIP3    H1 3978   4.473   3.717   2.889  0.8932 -0.5172  0.2995
 1338TIP3    H2 3979   4.550   3.836   2.835  0.4952  0.2286  1.3546
 1339TIP3   OH2 3980   6.014   4.124   0.713  0.6197  0.1613  0.4295
 1339TIP3    H1 3981   6.088   4.136   0.654  1.5035  0.0242  1.4754
 1339TIP3    H2 3982   5.958   4.059   0.670  1.1577  0.1822 -0.3113
 1340TIP3   OH2 3983   2.944   4.504   1.407 -0.4369 -0.5190 -0.6386
 1340TIP3    H1 3984   2.901   4.423   1.381 -1.4945 -0.1737 -0.0349
 1340TIP3    H2 3985   3.036   4.480   1.421 -0.7857 -1.6530 -0.2419
 1341TIP3   OH2 3986   7.165   6.554   0.581 -0.7325 -0.0091 -0.3183
 1341TIP3    H1 3987   7.130   6.630   0.535  0.2631  0.6769  0.0269
 1341TIP3    H2 3988   7.238   6.524   0.527 -0.2470  0.1371  0.2411
 1342TIP3   OH2 3989   2.122   6.551   3.004 -0.2315  0.2520 -0.2158
 1342TIP3    H1 3990   2.077   6.607   2.941  1.6574  1.5517 -0.4796
 1342TIP3    H2 3991   2.123   6.602   3.085 -0.4545 -0.3560  0.1762
 1343TIP3   OH2 3992   0.638   0.430   0.921 -0.4607  0.7862  0.3954
 1343TIP3    H1 3993   0.624   0.496   0.989 -1.1050  1.2590 -0.1924
 1343TIP3    H2 3994   0.573   0.450   0.854 -0.6829 -0.4633  0.2199
 1344TIP3   OH2 3995   1.461   1.129   0.442  0.4723 -0.0063  0.3486
 1344TIP3    H1 3996   1.556   1.137   0.440  0.3765  1.2644  0.1501
 1344TIP3    H2 3997   1.443   1.076   0.520  1.2657  1.1171  1.3296
 1345TIP3   OH2 3998   6.066   1.947   0.191 -0.2885 -0.1570  0.2322
 1345TIP3    H1 3999   6.060   1.857   0.161  0.3441 -1.1241  2.7675
 1345TIP3    H2 4000   6.128   1.989   0.131 -1.3368 -1.0775 -1.5735
 1346TIP3   OH2 4001   0.742   0.823   1.876  0.2069  0.0144 -0.2180
 1346TIP3    H1 4002   0.691   0.772   1.813  1.6778 -0.0337 -1.4394
 1346TIP3    H2 4003   0.777   0.759   1.938 -1.2974  0.0676  0.7367
 1347TIP3   OH2 4004   2.052   4.558   2.867 -0.0289 -0.3487  0.3609
 1347TIP3    H1 4005   2.144   4.538   2.849  0.1096 -0.8668  1.5341
 1347TIP3    H2 4006   2.051   4.653   2.883 -0.0456  0.0056 -1.5224
 1348TIP3   OH2 4007   3.800   2.516   5.722  0.0190  0.2853 -0.0218
 1348TIP3    H1 4008   3.854   2.463   5.781 -1.7793 -0.6724  0.8338
 1348TIP3    H2 4009   3.741   2.453   5.680 -0.5725  1.3209 -0.7829
 1349TIP3   OH2 4010   2.146   4.336   3.892 -0.6357  0.1694  0.6557
 1349TIP3    H1 4011   2.052   4.338   3.875 -0.6854 -1.0701  0.6827
 1349TIP3    H2 4012   2.186   4.378   3.816 -1.1234 -0.9642 -0.2602
 1350TIP3   OH2 4013   0.483   3.692   0.759  0.5494  0.4463 -0.1370
 1350TIP3    H1 4014   0.547   3.665   0.825 -2.5026 -1.4420  2.3731
 1350TIP3    H2 4015   0.480   3.788   0.767  2.3447  0.5086  0.2960
 1351TIP3   OH2 4016   3.790   0.089   5.720 -0.1755  0.0518  0.6486
 1351TIP3    H1 4017   3.800   0.032   5.643 -1.1973  0.5400  0.1348
 1351TIP3    H2 4018   3.878   0.121   5.738  0.1977 -0.6743  0.1481
 1352TIP3   OH2 4019   2.884   5.637   2.159 -0.1864 -0.0588  0.2518
 1352TIP3    H1 4020   2.889   5.561   2.218 -1.4605 -0.3469  0.0184
 1352TIP3    H2 4021   2.875   5.712   2.217  1.2286 -0.0498  0.4911
 1353TIP3   OH2 4022   4.410   2.920   4.984 -0.5157  0.1937  0.7269
 1353TIP3    H1 4023   4.439   2.883   5.067  1.5224 -0.1768 -0.0875
 1353TIP3    H2 4024   4.321   2.950   5.001 -1.3664 -2.7558  2.1437
 1354TIP3   OH2 4025   0.332   1.738   5.332  0.1985 -0.2983  0.1103
 1354TIP3    H1 4026   0.331   1.649   5.297  0.4038 -0.4575  0.5052
 1354TIP3    H2 4027   0.270   1.736   5.405 -0.6536  0.1773 -0.5756
 1355TIP3   OH2 4028   5.794   6.410   1.946  0.0284  0.2689  0.3534
 1355TIP3    H1 4029   5.838   6.417   2.031 -0.5403 -0.0332  0.6799
 1355TIP3    H2 4030   5.781   6.501   1.919  0.1443  0.3696  0.6239
 1356TIP3   OH2 4031   2.142   0.128   1.538  0.4895  0.0169  0.0820
 1356TIP3    H1 4032   2.201   0.193   1.575  1.1957 -0.7050  0.2599
 1356TIP3    H2 4033   2.195   0.048   1.533 -0.5848 -0.7523  0.6211
 1357TIP3   OH2 4034   3.305   5.790   1.570  0.0566  0.0699  0.4420
 1357TIP3    H1 4035   3.243   5.796   1.642  0.2327  2.0756  0.4800
 1357TIP3    H2 4036   3.324   5.696   1.562 -1.1570 -0.3375  1.9549
 1358TIP3   OH2 4037   4.109   3.070   2.203  0.5342 -0.2139 -0.3525
 1358TIP3    H1 4038   4.101   3.091   2.110  0.3772  0.2725 -0.2320
 1358TIP3    H2 4039   4.201   3.087   2.224  0.2903  0.8997 -0.1314
 1359TIP3   OH2 4040   5.482   4.354   4.424 -0.0463  0.3355 -0.0386
 1359TIP3    H1 4041   5.457   4.437   4.383 -0.9555  0.6241  1.0240
 1359TIP3    H2 4042   5.543   4.380   4.493  0.1461  0.0602 -0.1088
 1360TIP3   OH2 4043   4.860   3.981   4.339  0.3962  0.1689  0.0585
 1360TIP3    H1 4044   4.879   4.058   4.285 -0.7389  1.5690  1.5240
 1360TIP3    H2 4045   4.890   4.006   4.427  0.0342 -1.0937  0.5630
 1361TIP3   OH2 4046   1.539   6.641   4.418  0.3083 -0.0505 -0.6311
 1361TIP3    H1 4047   1.526   6.568   4.478  0.8990  0.4268  0.0987
 1361TIP3    H2 4048   1.451   6.661   4.386 -0.0546 -0.1822  0.2437
 1362TIP3   OH2 4049   1.557   3.991   3.957  0.1312  0.1568 -0.1936
 1362TIP3    H1 4050   1.578   4.083   3.941  0.8231  0.2699  1.2323
 1362TIP3    H2 4051   1.641   3.946   3.951 -0.3012 -0.5326 -1.6306
 1363TIP3   OH2 4052   4.156   0.512   4.652 -0.5765 -0.4278  0.0404
 1363TIP3    H1 4053   4.175   0.534   4.561  0.3405 -0.0151  0.3091
 1363TIP3    H2 4054   4.241   0.522   4.697 -1.0901 -0.2360  1.0022
 1364TIP3   OH2 4055   2.495   6.834   4.956  1.0279  0.7857 -0.1503
 1364TIP3    H1 4056   2.588   6.814   4.945  0.7321 -0.9163  0.3153
 1364TIP3    H2 4057   2.450   6.751   4.940 -0.3980  1.4952  0.0292
 1365TIP3   OH2 4058   6.800   6.684   4.413 -0.3270  0.0975  0.4538
 1365TIP3    H1 4059   6.822   6.714   4.501 -1.2504 -0.1988  0.8024
 1365TIP3    H2 4060   6.735   6.614   4.427 -0.8338  0.3632 -0.4695
 1366TIP3   OH2 4061   3.223   1.140   4.052  0.2491 -0.2301 -0.5566
 1366TIP3    H1 4062   3.260   1.208   3.995 -1.8598  1.1867 -0.3828
 1366TIP3    H2 4063   3.179   1.080   3.992 -0.8115  0.5094 -0.5505
 1367TIP3   OH2 4064   0.160   2.796   4.542 -0.0850  0.0600  0.3279
 1367TIP3    H1 4065   0.131   2.708   4.518 -0.3684 -0.2840  1.7968
 1367TIP3    H2 4066   0.081   2.839   4.574  0.3417  0.3034  1.0862
 1368TIP3   OH2 4067   4.120   1.625   2.611 -0.3622 -0.1423 -0.1516
 1368TIP3    H1 4068   4.095   1.539   2.644 -0.7010 -0.1221 -0.3486
 1368TIP3    H2 4069   4.209   1.613   2.578 -0.9442 -0.8111 -1.5666
 1369TIP3   OH2 4070   0.171   5.301   4.072  0.0576 -0.2996  0.5287
 1369TIP3    H1 4071   0.193   5.330   3.984 -0.6477  1.1831  0.7991
 1369TIP3    H2 4072   0.249   5.255   4.103  1.2828  1.3250  0.0297
 1370TIP3   OH2 4073   4.563   1.921   5.868 -0.0801  0.3672  0.0268
 1370TIP3    H1 4074   4.568   1.887   5.778  0.2126  1.2394 -0.2938
 1370TIP3    H2 4075   4.565   1.843   5.923 -0.3501 -0.1841 -0.7292
 1371TIP3   OH2 4076   6.231   2.235   5.443  0.4394  0.3190 -0.1671
 1371TIP3    H1 4077   6.157   2.268   5.494 -0.6410 -1.2421 -0.6497
 1371TIP3    H2 4078   6.208   2.144   5.424  3.2939 -0.7928  1.1598
 1372TIP3   OH2 4079   3.410   3.898   2.911  0.1250 -0.6592 -0.4737
 1372TIP3    H1 4080   3.418   3.914   2.817  0.7488 -0.5850 -0.4162
 1372TIP3    H2 4081   3.461   3.968   2.951  0.6002 -1.1987 -0.1166
 1373TIP3   OH2 4082   6.964   4.185   3.160 -0.2659  0.4135 -0.5873
 1373TIP3    H1 4083   6.908   4.206   3.235  1.3972 -1.2441  1.2608
 1373TIP3    H2 4084   6.990   4.270   3.125  0.2245  1.3377  1.7959
 1374TIP3   OH2 4085   4.041   3.296   1.421 -0.5726  0.3919  0.9885
 1374TIP3    H1 4086   3.945   3.304   1.414 -0.5945 -0.6798 -0.2664
 1374TIP3    H2 4087   4.075   3.362   1.361 -0.5723 -0.3905  0.1036
 1375TIP3   OH2 4088   4.016   2.461   3.356  0.1897  0.7929  0.7628
 1375TIP3    H1 4089   3.963   2.420   3.288  1.2882 -0.5695  0.6727
 1375TIP3    H2 4090   3.993   2.554   3.353 -0.1588  0.6807 -1.1249
 1376TIP3   OH2 4091   3.104   4.553   0.529  0.2750  0.1878  0.2369
 1376TIP3    H1 4092   3.160   4.476   0.514  1.1131  0.8482 -0.0884
 1376TIP3    H2 4093   3.147   4.600   0.601  2.1614  2.5343 -2.2325
 1377TIP3   OH2 4094   5.126   0.999   2.320  0.6956 -0.6772  0.1136
 1377TIP3    H1 4095   5.052   0.951   2.358 -0.0963  1.2512  1.1704
 1377TIP3    H2 4096   5.175   0.933   2.272 -1.8252 -2.0190 -0.8106
 1378TIP3   OH2 4097   3.065   2.856   0.130  0.2263  0.2312 -0.0659
 1378TIP3    H1 4098   3.023   2.808   0.059  3.4661 -1.5481 -0.9786
 1378TIP3    H2 4099   3.040   2.809   0.210  1.1134 -1.3422 -0.6789
 1379TIP3   OH2 4100   3.246   4.679   0.747  0.2213  0.3217 -0.5546
 1379TIP3    H1 4101   3.211   4.700   0.834  0.8424  0.5690 -0.3592
 1379TIP3    H2 4102   3.339   4.664   0.762  0.2550 -0.0487 -1.1134
 1380TIP3   OH2 4103   5.849   6.188   3.404 -0.0368  0.2412  0.3918
 1380TIP3    H1 4104   5.858   6.129   3.328  1.5207  0.4447  0.3818
 1380TIP3    H2 4105   5.839   6.275   3.365 -0.0857  0.2442  0.4115
 1381TIP3   OH2 4106   0.519   3.571   4.872  0.2730 -0.1744  0.1482
 1381TIP3    H1 4107   0.542   3.646   4.817 -1.6071  0.9065  0.7449
 1381TIP3    H2 4108   0.476   3.510   4.813  1.5761 -0.6989 -0.2879
 1382TIP3   OH2 4109   0.391   2.272   1.065 -0.1769  0.5005 -0.5197
 1382TIP3    H1 4110   0.423   2.215   1.134 -0.0458  0.8747 -0.2651
 1382TIP3    H2 4111   0.304   2.299   1.093  1.2423  3.6986  1.4685
 1383TIP3   OH2 4112   5.160   6.365   5.828 -0.3795 -0.0847  0.4428
 1383TIP3    H1 4113   5.207   6.446   5.808  0.2920 -0.4765  0.3904
 1383TIP3    H2 4114   5.085   6.365   5.768  0.1832  0.0018 -0.2736
 1384TIP3   OH2 4115   6.722   6.607   2.928  0.0978  0.3548 -0.3618
 1384TIP3    H1 4116   6.748   6.570   3.013 -1.0400 -0.8395 -0.4897
 1384TIP3    H2 4117   6.636   6.567   2.911 -1.1764  3.0067 -0.5978
 1385TIP3   OH2 4118   1.037   5.317   3.270 -0.3417  0.5491  0.2813
 1385TIP3    H1 4119   1.098   5.370   3.218 -1.6331  1.0005 -0.8294
 1385TIP3    H2 4120   0.997   5.380   3.330  0.0643  0.3040  0.8189
 1386TIP3   OH2 4121   1.008   5.387   4.292  0.5080  0.0859 -0.0411
 1386TIP3    H1 4122   1.053   5.322   4.346 -0.0576 -0.7584 -0.5584
 1386TIP3    H2 4123   1.020   5.356   4.202 -2.7638 -1.3817 -0.1502
 1387TIP3   OH2 4124   3.634   5.137   5.061 -0.1215  0.3746 -0.5866
 1387TIP3    H1 4125   3.584   5.201   5.009 -1.7654  0.1503  0.6321
 1387TIP3    H2 4126   3.576   5.060   5.065  0.8222 -0.3243 -0.0716
 1388TIP3   OH2 4127   0.559   4.287  -0.011 -0.3846  0.7034  0.1065
 1388TIP3    H1 4128   0.654   4.289  -0.025 -0.3416  1.9167  0.4393
 1388TIP3    H2 4129   0.549   4.247   0.076 -0.1869  0.3927 -0.0145
 1389TIP3   OH2 4130   4.727   4.251   0.807  0.3610  0.2082  0.0848
 1389TIP3    H1 4131   4.720   4.343   0.835  1.5044  0.4583 -0.3886
 1389TIP3    H2 4132   4.812   4.222   0.841 -0.2430 -0.8649  0.7181
 1390TIP3   OH2 4133   0.915   2.111   4.819  0.4217  0.3401  0.2541
 1390TIP3    H1 4134   0.965   2.192   4.812  0.0140  0.6314  0.6917
 1390TIP3    H2 4135   0.951   2.067   4.895  2.0585 -0.8928 -1.1461
 1391TIP3   OH2 4136   0.439   5.603   3.439  0.0672 -0.7034  0.0930
 1391TIP3    H1 4137   0.501   5.634   3.505 -0.2959 -1.5564  0.8654
 1391TIP3    H2 4138   0.382   5.677   3.422 -1.3850 -1.1461  2.6009
 1392TIP3   OH2 4139   2.103   1.899   1.561  0.7424  0.0124  0.2839
 1392TIP3    H1 4140   2.123   1.816   1.604  1.6072 -0.1217 -0.3709
 1392TIP3    H2 4141   2.098   1.879   1.468  0.5212  0.6122  0.1566
 1393TIP3   OH2 4142   1.978   4.068   4.753  0.1224 -0.1836 -0.3770
 1393TIP3    H1 4143   2.048   4.092   4.693  1.0074 -0.3540  0.5611
 1393TIP3    H2 4144   1.927   4.149   4.764 -0.2539 -0.2405 -1.6021
 1394TIP3   OH2 4145   7.129   4.396   5.624  0.0731  0.1523 -0.1449
 1394TIP3    H1 4146   7.146   4.489   5.615  2.4228 -0.0981  1.0630
 1394TIP3    H2 4147   7.033   4.389   5.622 -0.3327  2.9074  2.5402
 1395TIP3   OH2 4148   3.106   3.972   0.462  0.2206  0.3991 -0.4557
 1395TIP3    H1 4149   3.192   3.939   0.489  0.4199  0.1697 -1.3321
 1395TIP3    H2 4150   3.046   3.900   0.482  0.5020 -0.1237 -1.4231
 1396TIP3   OH2 4151   6.965   5.568   0.892 -0.0597  0.3177  0.0747
 1396TIP3    H1 4152   6.930   5.479   0.892  0.3275  0.1585 -0.6852
 1396TIP3    H2 4153   6.968   5.593   0.984 -1.6546  0.1392  0.2009
 1397TIP3   OH2 4154   1.446   2.318   0.109 -0.1248  0.0957 -0.1366
 1397TIP3    H1 4155   1.475   2.379   0.041 -0.7133 -1.3708 -1.7890
 1397TIP3    H2 4156   1.378   2.266   0.067 -0.8026 -0.6132  1.7336
 1398TIP3   OH2 4157   3.268   3.150   0.277 -0.3256  0.2679 -0.2429
 1398TIP3    H1 4158   3.209   3.090   0.325 -2.8041  1.9712 -0.9540
 1398TIP3    H2 4159   3.260   3.123   0.186 -1.4186  1.5610 -0.5630
 1399TIP3   OH2 4160   0.624   1.543   0.849 -0.1404  0.0788  0.0021
 1399TIP3    H1 4161   0.585   1.538   0.762  0.3609  1.5124 -0.3355
 1399TIP3    H2 4162   0.719   1.543   0.833  0.0472 -2.1824  0.7358
 1400TIP3   OH2 4163   6.156   3.782   5.610  0.1978  0.4242 -0.3781
 1400TIP3    H1 4164   6.174   3.876   5.614 -0.0869  0.4530  0.2528
 1400TIP3    H2 4165   6.098   3.765   5.684 -0.8089 -0.0203 -1.2522
 1401TIP3   OH2 4166   7.105   4.866   0.662  0.2463 -0.3578 -0.2916
 1401TIP3    H1 4167   7.072   4.947   0.624  1.8891  0.5926  0.2218
 1401TIP3    H2 4168   7.172   4.894   0.725  0.5041 -2.0888  0.2642
 1402TIP3   OH2 4169   2.805   2.625   2.534  0.1782  0.1385  0.3379
 1402TIP3    H1 4170   2.715   2.594   2.540  0.6831 -1.4836  0.1251
 1402TIP3    H2 4171   2.827   2.652   2.623 -0.1516 -0.5867  0.6521
 1403TIP3   OH2 4172   1.508   2.420   4.921  0.1287 -0.5021  0.8632
 1403TIP3    H1 4173   1.528   2.471   4.842 -0.1230  0.8280  1.6324
 1403TIP3    H2 4174   1.582   2.436   4.980 -0.0776 -0.8176  1.2136
 1404TIP3   OH2 4175   6.108   4.642   5.216 -0.2552  0.6724  0.1408
 1404TIP3    H1 4176   6.168   4.716   5.223 -0.7346  1.1524 -0.5957
 1404TIP3    H2 4177   6.138   4.595   5.138 -1.0175  1.1063 -0.4304
 1405TIP3   OH2 4178   0.226   1.800   3.810  0.1241  0.1203 -0.2660
 1405TIP3    H1 4179   0.307   1.818   3.764 -0.4111  1.5522 -0.6999
 1405TIP3    H2 4180   0.184   1.730   3.759 -0.1091  1.1565 -1.5434
 1406TIP3   OH2 4181   3.446   3.320   5.239 -0.5060  0.0405 -0.5020
 1406TIP3    H1 4182   3.351   3.312   5.251 -0.8486  2.1389 -1.4529
 1406TIP3    H2 4183   3.466   3.259   5.168 -1.2216 -0.0171 -0.6614
 1407TIP3   OH2 4184   6.515   5.432   3.580 -0.0675  0.5758 -0.2149
 1407TIP3    H1 4185   6.498   5.431   3.674  0.6349  0.1884 -0.0861
 1407TIP3    H2 4186   6.565   5.352   3.563 -0.5766  0.4125 -0.9945
 1408TIP3   OH2 4187   3.630   1.235   2.893 -0.5274  0.6463  0.0185
 1408TIP3    H1 4188   3.700   1.212   2.953 -0.6818  0.2992  0.0668
 1408TIP3    H2 4189   3.648   1.183   2.814 -1.7629 -0.8972  0.6952
 1409TIP3   OH2 4190   3.339   3.384   1.930 -0.0549  0.2247 -0.2676
 1409TIP3    H1 4191   3.326   3.426   2.015 -0.0550  2.1477 -1.1591
 1409TIP3    H2 4192   3.420   3.334   1.941  0.0228  0.5488  0.8331
 1410TIP3   OH2 4193   1.610   2.813   0.988 -0.0485 -0.7844  0.7734
 1410TIP3    H1 4194   1.548   2.873   0.948  1.3526 -0.5067 -1.1378
 1410TIP3    H2 4195   1.667   2.869   1.041  1.5965 -0.2346 -1.4363
 1411TIP3   OH2 4196   0.832   6.063   2.438  0.7648  0.2064 -0.0467
 1411TIP3    H1 4197   0.766   6.064   2.507  1.3829 -0.4624  0.5659
 1411TIP3    H2 4198   0.782   6.081   2.358 -0.5027 -2.0722  0.1478
 1412TIP3   OH2 4199   5.090   6.526   4.217  0.2779 -0.3556 -0.7580
 1412TIP3    H1 4200   5.148   6.575   4.158  2.1798 -0.5161  0.9082
 1412TIP3    H2 4201   5.071   6.588   4.288 -1.4147 -0.4054 -1.1254
 1413TIP3   OH2 4202   7.024   0.546   1.643  0.0425 -0.4851  0.1001
 1413TIP3    H1 4203   7.102   0.558   1.589  0.5813  0.5242  1.0628
 1413TIP3    H2 4204   6.951   0.564   1.584  0.6593  2.0547  0.0189
 1414TIP3   OH2 4205   4.467   6.246   0.495 -0.2004 -0.0534 -0.1970
 1414TIP3    H1 4206   4.548   6.242   0.546 -0.2003  2.1936  0.0734
 1414TIP3    H2 4207   4.404   6.196   0.547  0.6811 -0.8068  0.1895
 1415TIP3   OH2 4208   5.118   0.405   4.408 -0.1844 -0.2658  0.4065
 1415TIP3    H1 4209   5.191   0.454   4.446 -0.5455  0.3989  0.2630
 1415TIP3    H2 4210   5.113   0.436   4.318  1.0695 -2.2951 -0.4239
 1416TIP3   OH2 4211   5.889   1.531   4.710  0.3474  0.1518 -0.1341
 1416TIP3    H1 4212   5.913   1.446   4.672 -0.3227 -0.6212  1.1112
 1416TIP3    H2 4213   5.965   1.587   4.692  2.5560 -1.7837  2.3571
 1417TIP3   OH2 4214   3.992   0.440   2.719  0.3074  0.5899 -0.5871
 1417TIP3    H1 4215   3.902   0.462   2.743 -0.3102 -0.4834 -1.7918
 1417TIP3    H2 4216   3.984   0.359   2.668  1.9128  0.6994 -1.0639
 1418TIP3   OH2 4217   4.709   1.244   0.552 -0.0347  0.5319 -0.3074
 1418TIP3    H1 4218   4.685   1.280   0.638  1.3454 -0.4222  0.5020
 1418TIP3    H2 4219   4.717   1.150   0.566  2.2079  0.5673 -0.9625
 1419TIP3   OH2 4220   3.249   4.163   3.909 -0.0924  0.0894 -0.0244
 1419TIP3    H1 4221   3.313   4.100   3.876 -0.6776  0.4662 -1.9642
 1419TIP3    H2 4222   3.261   4.161   4.004  2.0281 -0.6455 -0.2585
 1420TIP3   OH2 4223   4.027   3.965   0.718 -0.0789  0.2004  0.4232
 1420TIP3    H1 4224   3.938   3.955   0.751 -0.4957  0.3844 -0.5958
 1420TIP3    H2 4225   4.078   3.995   0.793 -0.2468 -2.6367  1.7793
 1421TIP3   OH2 4226   3.663   5.288   3.676 -0.1818  0.1933 -0.1409
 1421TIP3    H1 4227   3.673   5.209   3.730  0.1642 -1.0253 -1.9076
 1421TIP3    H2 4228   3.587   5.270   3.621 -1.0316  1.7627  0.4771
 1422TIP3   OH2 4229   3.728   1.542   5.478  0.6429  0.0082 -0.0726
 1422TIP3    H1 4230   3.708   1.576   5.565  0.0900 -1.6654  0.4823
 1422TIP3    H2 4231   3.742   1.448   5.491  2.5413  0.0342 -1.4888
 1423TIP3   OH2 4232   3.819   0.865   3.785 -0.1438 -0.4719 -0.0186
 1423TIP3    H1 4233   3.804   0.858   3.691  1.0131  0.3033 -0.2820
 1423TIP3    H2 4234   3.882   0.797   3.805 -0.3726 -0.6236  0.1989
 1424TIP3   OH2 4235   0.849   4.773   0.237 -0.2972  0.7166 -0.0369
 1424TIP3    H1 4236   0.777   4.713   0.221 -1.2478  1.5367  1.0664
 1424TIP3    H2 4237   0.925   4.730   0.198 -0.9962 -1.0793  0.5060
 1425TIP3   OH2 4238   0.294   0.127   1.604  0.2356  0.7427 -0.1488
 1425TIP3    H1 4239   0.247   0.209   1.589  0.7120  1.1251  0.4239
 1425TIP3    H2 4240   0.239   0.079   1.666  1.2637  1.8132  1.6755
 1426TIP3   OH2 4241   3.315   5.308   2.622 -0.3155  0.4726  0.3456
 1426TIP3    H1 4242   3.347   5.320   2.532 -0.4960  1.7641  0.4314
 1426TIP3    H2 4243   3.359   5.230   2.653  2.6945  2.0539  0.4045
 1427TIP3   OH2 4244   0.677   2.564   4.600 -0.5619  1.0685 -0.1464
 1427TIP3    H1 4245   0.662   2.470   4.609 -1.8494  1.2587 -0.1397
 1427TIP3    H2 4246   0.773   2.573   4.597 -0.4349 -0.2687 -0.5870
 1428TIP3   OH2 4247   3.405   1.404   0.387  0.1224  0.1883  0.4759
 1428TIP3    H1 4248   3.446   1.441   0.465 -2.0158  0.2499  1.6564
 1428TIP3    H2 4249   3.360   1.478   0.347  0.0629 -0.1230 -0.0358
 1429TIP3   OH2 4250   6.210   2.537   1.737 -0.1196 -0.1641 -0.1048
 1429TIP3    H1 4251   6.178   2.624   1.762  0.9581  0.6260 -1.3568
 1429TIP3    H2 4252   6.176   2.522   1.649  1.5026 -0.0062 -0.8035
 1430TIP3   OH2 4253   2.476   2.313   2.947  0.1919  0.0232  0.2969
 1430TIP3    H1 4254   2.403   2.271   2.993  1.1351 -0.7971  1.1011
 1430TIP3    H2 4255   2.554   2.269   2.981  1.2039  2.0798  0.7983
 1431TIP3   OH2 4256   3.503   0.738   1.157  0.4176 -0.0210  0.4730
 1431TIP3    H1 4257   3.497   0.797   1.233  0.5262  0.9707 -0.2726
 1431TIP3    H2 4258   3.590   0.699   1.164  1.1459  1.4222 -0.0932
 1432TIP3   OH2 4259   0.757   5.512   4.316 -0.3931  0.0165 -0.0226
 1432TIP3    H1 4260   0.737   5.469   4.399  0.1566 -1.6965 -0.7298
 1432TIP3    H2 4261   0.815   5.451   4.271 -1.2833  0.5502 -1.9841
 1433TIP3   OH2 4262   6.078   2.147   4.081  0.5690 -0.1041 -0.2372
 1433TIP3    H1 4263   6.124   2.206   4.021 -0.7708 -0.7080 -1.9348
 1433TIP3    H2 4264   6.042   2.078   4.025 -1.1607 -0.4385  1.1785
 1434TIP3   OH2 4265   1.015   5.385   4.847 -0.4200 -0.3079  0.1566
 1434TIP3    H1 4266   0.990   5.422   4.931 -0.4476  1.2141 -0.4851
 1434TIP3    H2 4267   1.056   5.301   4.868 -0.3789  0.0740  1.6737
 1435TIP3   OH2 4268   6.472   2.092   4.924  0.6230 -0.6124  0.0849
 1435TIP3    H1 4269   6.467   2.186   4.908  0.7309 -0.3126  1.7064
 1435TIP3    H2 4270   6.412   2.054   4.859 -2.1744  0.8435  1.6423
 1436TIP3   OH2 4271   5.846   3.999   5.658 -0.3724  0.2488 -0.3819
 1436TIP3    H1 4272   5.930   3.995   5.611 -0.3634 -1.9139 -0.2879
 1436TIP3    H2 4273   5.871   4.002   5.751 -0.4066  1.0535 -0.3936
 1437TIP3   OH2 4274   2.895   0.281   0.669  0.6772  0.4411 -0.3330
 1437TIP3    H1 4275   2.894   0.312   0.759  1.6892 -0.9964  0.2086
 1437TIP3    H2 4276   2.985   0.299   0.639  0.6437  0.0008 -0.7109
 1438TIP3   OH2 4277   5.974   0.020   2.548  0.6716 -0.1949  0.0280
 1438TIP3    H1 4278   5.894   0.053   2.587 -0.1657 -2.2092  0.1734
 1438TIP3    H2 4279   5.998   0.085   2.482 -2.5547 -0.6919 -1.8566
 1439TIP3   OH2 4280   3.123   3.737   4.505 -0.0661  0.2339 -0.7951
 1439TIP3    H1 4281   3.128   3.664   4.567  0.1302 -2.0772 -3.3148
 1439TIP3    H2 4282   3.033   3.733   4.471 -0.8495  2.8017  0.7150
 1440TIP3   OH2 4283   3.483   0.557   4.522  0.7626 -0.1545 -0.0474
 1440TIP3    H1 4284   3.410   0.552   4.584  1.0387  0.4087  0.3262
 1440TIP3    H2 4285   3.561   0.540   4.574  1.1702  1.9962  0.1376
 1441TIP3   OH2 4286   5.426   5.922   4.904  0.0176  0.4414 -0.3256
 1441TIP3    H1 4287   5.478   6.003   4.900  2.2807 -0.9609 -2.6078
 1441TIP3    H2 4288   5.398   5.907   4.814 -0.9490 -0.9836  0.1762
 1442TIP3   OH2 4289   0.954   3.258   2.580  0.6778 -0.0530  0.3997
 1442TIP3    H1 4290   0.940   3.164   2.570 -1.7159  0.3217 -0.4079
 1442TIP3    H2 4291   0.973   3.289   2.492 -0.2806  0.4443  0.3566
 1443TIP3   OH2 4292   6.363   6.200   3.964 -0.6265  0.5486  0.1125
 1443TIP3    H1 4293   6.372   6.195   3.869  0.6562 -0.1518  0.2459
 1443TIP3    H2 4294   6.321   6.285   3.980 -1.0587  0.5760 -1.0779
 1444TIP3   OH2 4295   3.862   6.490   0.848 -0.2567  0.3001 -0.3137
 1444TIP3    H1 4296   3.940   6.534   0.816 -0.5804  0.4578 -0.8942
 1444TIP3    H2 4297   3.839   6.538   0.927  1.0295 -0.6168  0.6720
 1445TIP3   OH2 4298   5.296   5.017   1.134  0.1509  0.1278  0.0130
 1445TIP3    H1 4299   5.232   5.088   1.129  0.3854  0.2555 -2.5253
 1445TIP3    H2 4300   5.270   4.967   1.211 -0.4688  2.4897  1.4499
 1446TIP3   OH2 4301   1.992   6.417   0.945 -0.4194 -0.5312 -0.1434
 1446TIP3    H1 4302   1.927   6.434   1.013  0.6870  0.5435  0.6944
 1446TIP3    H2 4303   1.987   6.493   0.886  0.1799 -0.3366  0.0392
 1447TIP3   OH2 4304   0.649   0.575   0.410  0.1855 -0.3900 -0.1075
 1447TIP3    H1 4305   0.590   0.501   0.394  0.8555 -1.3512  1.6556
 1447TIP3    H2 4306   0.596   0.653   0.390 -1.8133 -1.1980  1.7302
 1448TIP3   OH2 4307   1.977   2.983   4.145  0.2289 -0.1684  0.1725
 1448TIP3    H1 4308   1.904   3.039   4.119  0.2962 -0.6598 -1.1313
 1448TIP3    H2 4309   1.962   2.967   4.238  0.3489  2.2032  0.6802
 1449TIP3   OH2 4310   1.837   5.341   1.966  0.3884  0.1319  0.3937
 1449TIP3    H1 4311   1.884   5.281   1.908 -2.0151 -1.7162  0.2282
 1449TIP3    H2 4312   1.793   5.402   1.907 -0.0116 -0.1571  0.3931
 1450TIP3   OH2 4313   7.101   5.823   4.945 -0.1134 -0.3506 -0.2776
 1450TIP3    H1 4314   7.121   5.915   4.933 -0.3031 -0.2298  0.3102
 1450TIP3    H2 4315   7.131   5.803   5.034 -3.2672  0.0360  1.0004
 1451TIP3   OH2 4316   7.009   1.327   5.460 -0.2565  0.2131  0.3186
 1451TIP3    H1 4317   6.975   1.361   5.543  2.4751  0.2206  1.5181
 1451TIP3    H2 4318   7.018   1.233   5.475  0.6233  0.2730  0.1823
 1452TIP3   OH2 4319   0.659   3.235   2.750 -0.4571 -0.2656 -0.0531
 1452TIP3    H1 4320   0.644   3.201   2.838 -0.7264  0.8731  0.3687
 1452TIP3    H2 4321   0.745   3.201   2.725  0.1566  0.3506  1.1408
 1453TIP3   OH2 4322   2.802   2.553   0.197 -0.2124  0.0320  0.3984
 1453TIP3    H1 4323   2.871   2.605   0.156 -0.6029  0.6509  0.5038
 1453TIP3    H2 4324   2.746   2.527   0.124 -0.9513  1.1992  0.5123
 1454TIP3   OH2 4325   0.698   1.632   0.274 -0.1130 -0.3525  0.5167
 1454TIP3    H1 4326   0.783   1.675   0.261  0.1891 -1.5202 -2.0482
 1454TIP3    H2 4327   0.640   1.674   0.211 -1.1120 -0.4374  1.3625
 1455TIP3   OH2 4328   5.851   4.800   2.859 -0.7269  0.1902  0.2579
 1455TIP3    H1 4329   5.890   4.852   2.788  1.9877 -0.4418  1.1652
 1455TIP3    H2 4330   5.870   4.709   2.836  1.2259  0.0105  2.2431
 1456TIP3   OH2 4331   0.097   5.680   5.605 -0.3167 -0.2803 -0.3287
 1456TIP3    H1 4332   0.139   5.624   5.539  0.8671  0.8114 -0.5374
 1456TIP3    H2 4333   0.004   5.680   5.581 -0.1146 -1.0016 -1.1632
 1457TIP3   OH2 4334   3.709   4.879   4.638 -0.2979  0.0062  0.5099
 1457TIP3    H1 4335   3.697   4.973   4.653  0.4324 -0.1005  1.9357
 1457TIP3    H2 4336   3.804   4.866   4.642 -0.1863 -0.4653 -1.9980
 1458TIP3   OH2 4337   0.516   1.037   5.203 -0.0217  0.0616  0.3199
 1458TIP3    H1 4338   0.541   1.128   5.190 -1.3862  0.3278 -0.6819
 1458TIP3    H2 4339   0.563   1.010   5.282  1.6330  1.1404 -0.2561
 1459TIP3   OH2 4340   0.921   0.463   5.590 -0.2402  0.4570  0.1755
 1459TIP3    H1 4341   0.958   0.456   5.503  0.0348  1.5551  0.1919
 1459TIP3    H2 4342   0.918   0.557   5.608 -1.6124  0.3360  0.7824
 1460TIP3   OH2 4343   7.171   2.255   5.263 -0.1732 -0.3051 -0.4741
 1460TIP3    H1 4344   7.107   2.241   5.333 -0.5450  0.7196 -0.5840
 1460TIP3    H2 4345   7.118   2.281   5.188  0.2706 -0.8513 -0.9801
 1461TIP3   OH2 4346   1.037   4.705   5.680  0.1147 -0.4062  0.1014
 1461TIP3    H1 4347   1.126   4.722   5.650  0.1147  0.0371  0.3469
 1461TIP3    H2 4348   1.021   4.613   5.658  0.6719 -0.5170  0.1585
 1462TIP3   OH2 4349   1.063   4.470   1.534  0.5775  0.3835  0.3246
 1462TIP3    H1 4350   1.113   4.504   1.608 -0.3724 -0.2034  1.2659
 1462TIP3    H2 4351   0.980   4.441   1.573 -0.5748  1.4719 -1.2074
 1463TIP3   OH2 4352   3.528   2.472   5.856  0.1379 -0.5954 -0.0375
 1463TIP3    H1 4353   3.537   2.377   5.864  0.4744 -0.4524  2.1877
 1463TIP3    H2 4354   3.449   2.493   5.905  0.2090  0.2918 -0.2839
 1464TIP3   OH2 4355   3.925   5.829   2.604 -0.0693 -0.1951 -0.4415
 1464TIP3    H1 4356   3.990   5.814   2.672 -0.7513  0.0236  0.2622
 1464TIP3    H2 4357   3.977   5.839   2.524  0.8644  1.2477  0.2906
 1465TIP3   OH2 4358   1.655   6.253   4.460 -0.3092  0.2070  1.4387
 1465TIP3    H1 4359   1.666   6.310   4.536  0.2444  1.1747  0.6713
 1465TIP3    H2 4360   1.604   6.306   4.398 -1.4667 -0.8763  1.4414
 1466TIP3   OH2 4361   7.137   3.655   1.593  0.0171  0.6894  0.1711
 1466TIP3    H1 4362   7.201   3.602   1.640 -1.0759 -0.2522  0.6198
 1466TIP3    H2 4363   7.167   3.745   1.607  0.5699  0.3416  1.4115
 1467TIP3   OH2 4364   3.826   6.293   2.418  0.4433 -0.2378  0.3722
 1467TIP3    H1 4365   3.829   6.325   2.508 -1.1288 -3.7336  1.8567
 1467TIP3    H2 4366   3.736   6.264   2.406  0.3456  0.9948 -2.7615
 1468TIP3   OH2 4367   2.546   6.244   4.896  0.0825  0.1750  0.6443
 1468TIP3    H1 4368   2.636   6.228   4.923 -0.1260 -1.4037  0.4858
 1468TIP3    H2 4369   2.515   6.160   4.862 -1.0984  0.9634 -0.3354
 1469TIP3   OH2 4370   6.789   6.454   5.616  0.0443 -0.2143 -0.0622
 1469TIP3    H1 4371   6.841   6.519   5.663 -0.0607 -1.1711  1.4434
 1469TIP3    H2 4372   6.844   6.375   5.615 -0.5929 -0.6631 -0.1721
 1470TIP3   OH2 4373   1.174   6.467   2.085 -0.3255  0.8799  0.1540
 1470TIP3    H1 4374   1.135   6.455   2.172  0.2960  1.9114  0.6004
 1470TIP3    H2 4375   1.197   6.379   2.057  0.6520  0.6078  1.6325
 1471TIP3   OH2 4376   1.488   4.378   2.049  0.2418  0.0764 -0.1527
 1471TIP3    H1 4377   1.421   4.345   2.109  0.7605 -0.4139  0.1738
 1471TIP3    H2 4378   1.442   4.440   1.992 -0.5097 -0.3409 -0.0119
 1472TIP3   OH2 4379   0.991   3.034   1.816 -0.1881 -0.4810 -0.7411
 1472TIP3    H1 4380   1.069   3.002   1.862 -0.3315 -2.8116 -1.9481
 1472TIP3    H2 4381   1.026   3.073   1.736  0.0171  3.0345  0.8996
 1473TIP3   OH2 4382   2.095   1.878   5.079 -0.3842 -0.3220 -0.5813
 1473TIP3    H1 4383   2.017   1.922   5.043  0.4480  1.7281 -0.0281
 1473TIP3    H2 4384   2.134   1.833   5.004 -1.3857 -0.2755 -1.1431
 1474TIP3   OH2 4385   5.132   2.363   1.643 -0.2741  0.0404  0.0130
 1474TIP3    H1 4386   5.146   2.287   1.700  3.9817  0.6895  0.1632
 1474TIP3    H2 4387   5.158   2.438   1.697  1.4195  0.9430 -1.9474
 1475TIP3   OH2 4388   6.534   3.263   0.298  0.3326  0.0203 -0.0873
 1475TIP3    H1 4389   6.549   3.170   0.314  0.0232 -0.0530 -0.2022
 1475TIP3    H2 4390   6.509   3.298   0.383  1.8372  0.2932  0.2596
 1476TIP3   OH2 4391   6.044   3.420   2.976 -0.6789 -0.2698  0.1513
 1476TIP3    H1 4392   5.973   3.382   2.924  0.2031 -0.8368 -0.6731
 1476TIP3    H2 4393   6.025   3.394   3.066 -0.6286 -1.8543 -0.2663
 1477TIP3   OH2 4394   0.897   6.048   3.875  0.4730 -0.2791 -0.0975
 1477TIP3    H1 4395   0.830   6.008   3.931  2.8980 -2.9844  1.1858
 1477TIP3    H2 4396   0.958   6.089   3.936  0.4585  1.3907 -1.1624
 1478TIP3   OH2 4397   4.925   1.120   4.102 -0.0813 -0.2277 -0.2449
 1478TIP3    H1 4398   4.982   1.187   4.141  2.4623 -2.1439 -0.4080
 1478TIP3    H2 4399   4.873   1.087   4.176 -0.6485  1.1940  0.0237
 1479TIP3   OH2 4400   4.813   1.429   0.374 -0.4958 -0.3717 -0.5434
 1479TIP3    H1 4401   4.904   1.453   0.394 -0.4515 -0.4918 -0.6009
 1479TIP3    H2 4402   4.795   1.356   0.433 -0.2531 -0.9530 -1.1780
 1480TIP3   OH2 4403   1.665   3.825   4.871  0.4981  0.0644 -0.0306
 1480TIP3    H1 4404   1.731   3.769   4.911  0.7067 -0.6797 -1.3514
 1480TIP3    H2 4405   1.593   3.765   4.848  1.1545  0.0850 -2.4066
 1481TIP3   OH2 4406   3.089   1.887   0.338  0.1639 -0.3520  0.0753
 1481TIP3    H1 4407   3.100   1.930   0.253  0.6470  0.3294  0.4754
 1481TIP3    H2 4408   3.020   1.822   0.323 -1.7505  1.6290 -0.1630
 1482TIP3   OH2 4409   4.091   3.956   3.650 -0.0590 -0.2748  0.0675
 1482TIP3    H1 4410   4.113   3.896   3.721 -0.1151 -0.3325  0.0361
 1482TIP3    H2 4411   4.051   4.031   3.694  2.5358  1.0360  0.4114
 1483TIP3   OH2 4412   3.995   1.249   1.672 -0.6670 -0.3695 -0.0811
 1483TIP3    H1 4413   3.979   1.169   1.722  1.0396 -0.1028  0.9996
 1483TIP3    H2 4414   3.932   1.313   1.706 -0.9020 -0.7807  0.2588
 1484TIP3   OH2 4415   0.788   0.047   4.812  0.8196 -0.3531 -0.2875
 1484TIP3    H1 4416   0.859   0.001   4.856  0.5718 -1.0154 -0.5713
 1484TIP3    H2 4417   0.761   0.115   4.874  0.8346 -0.9304  0.3646
 1485TIP3   OH2 4418   0.869   0.252   2.766 -0.5334 -0.1956  0.3601
 1485TIP3    H1 4419   0.786   0.284   2.802  0.0879  2.1989 -0.1779
 1485TIP3    H2 4420   0.880   0.301   2.685  0.6569 -1.6653 -0.3994
 1486TIP3   OH2 4421   6.176   2.061   4.350  0.2491 -0.3055 -0.1621
 1486TIP3    H1 4422   6.159   2.069   4.256 -0.9415 -0.2270  0.0364
 1486TIP3    H2 4423   6.089   2.070   4.390  0.8351  0.4071  0.9929
 1487TIP3   OH2 4424   6.451   3.618   4.917 -0.1421 -0.3627 -0.3486
 1487TIP3    H1 4425   6.382   3.629   4.852 -2.1418  1.0683  1.8755
 1487TIP3    H2 4426   6.451   3.524   4.937  1.0140 -0.9690 -2.8040
 1488TIP3   OH2 4427   4.421   5.815   3.646 -0.1595 -0.2605 -1.3847
 1488TIP3    H1 4428   4.441   5.771   3.563  1.3161 -2.2790 -0.0723
 1488TIP3    H2 4429   4.459   5.902   3.637  1.3987 -0.9775 -2.3068
 1489TIP3   OH2 4430   5.123   5.826   3.902 -0.3056 -0.1353 -0.6180
 1489TIP3    H1 4431   5.033   5.813   3.873 -0.3142  2.1002 -1.7890
 1489TIP3    H2 4432   5.117   5.895   3.968  0.5801  0.3470 -1.0316
 1490TIP3   OH2 4433   5.680   4.133   2.150  0.0974 -0.4710  0.3916
 1490TIP3    H1 4434   5.742   4.113   2.220 -0.3416  0.1916  0.9911
 1490TIP3    H2 4435   5.608   4.178   2.195  0.5309  1.3878 -0.7002
 1491TIP3   OH2 4436   6.160   4.511   4.986 -0.4570 -0.1259  0.1657
 1491TIP3    H1 4437   6.179   4.431   5.035 -0.3101  0.9164  1.9134
 1491TIP3    H2 4438   6.108   4.482   4.912  1.4669 -2.0965 -0.5087
 1492TIP3   OH2 4439   4.555   5.453   3.502 -0.0652  0.0834  0.1486
 1492TIP3    H1 4440   4.540   5.425   3.411 -0.9319 -1.0028  0.6092
 1492TIP3    H2 4441   4.502   5.533   3.511  0.6042  0.6172 -0.5027
 1493TIP3   OH2 4442   4.982   2.796   2.866 -0.1094 -0.0144 -0.0751
 1493TIP3    H1 4443   5.070   2.759   2.868  0.3513  1.0559  0.6227
 1493TIP3    H2 4444   4.985   2.862   2.798  0.0851  1.0505  0.9356
 1494TIP3   OH2 4445   4.429   1.452   3.040  0.4361 -0.2887 -0.9053
 1494TIP3    H1 4446   4.523   1.439   3.028  0.5661  0.5170 -0.8355
 1494TIP3    H2 4447   4.422   1.540   3.078 -0.4648  0.5780 -2.9421
 1495TIP3   OH2 4448   1.617   6.616   0.961 -0.2862 -0.1752 -0.2159
 1495TIP3    H1 4449   1.534   6.625   1.007  0.1482  1.7132  0.2568
 1495TIP3    H2 4450   1.675   6.573   1.024  0.2181  2.1157  0.9664
 1496TIP3   OH2 4451   3.559   2.198   5.170 -0.2760  0.0281 -0.2862
 1496TIP3    H1 4452   3.595   2.237   5.089  0.7522  0.3156  0.2886
 1496TIP3    H2 4453   3.491   2.138   5.139  1.1286 -1.0281 -1.4748
 1497TIP3   OH2 4454   2.513   5.162   3.047 -0.1768  0.4530 -0.1901
 1497TIP3    H1 4455   2.591   5.133   3.001  0.2978 -0.0458  0.8910
 1497TIP3    H2 4456   2.453   5.088   3.043 -0.2506  0.5166 -0.2643
 1498TIP3   OH2 4457   6.496   2.425   2.708  0.3191 -0.5561  0.1157
 1498TIP3    H1 4458   6.406   2.431   2.678 -0.4258  1.0201  2.3556
 1498TIP3    H2 4459   6.489   2.409   2.802  2.3765 -0.7146  0.2945
 1499TIP3   OH2 4460   6.624   6.170   2.352 -0.1805 -0.5462  0.0169
 1499TIP3    H1 4461   6.691   6.224   2.309  1.4506 -0.4472  2.4713
 1499TIP3    H2 4462   6.655   6.080   2.340  1.0129 -0.4456  1.9948
 1500TIP3   OH2 4463   4.806   1.517   4.305  0.9017 -0.0251 -0.7906
 1500TIP3    H1 4464   4.748   1.443   4.324  1.8644 -0.4337  0.7963
 1500TIP3    H2 4465   4.797   1.532   4.211 -3.0322  1.0407 -0.3795
 1501TIP3   OH2 4466   6.755   2.437   3.785 -0.0177  0.0504  0.0966
 1501TIP3    H1 4467   6.842   2.397   3.777 -0.5528 -0.8982 -1.2025
 1501TIP3    H2 4468   6.774   2.530   3.800  1.2245 -0.3704  1.3204
 1502TIP3   OH2 4469   5.307   3.487   1.975  0.2177  0.2068 -0.1842
 1502TIP3    H1 4470   5.329   3.400   2.007 -1.3877  0.0602  0.6157
 1502TIP3    H2 4471   5.381   3.511   1.918  1.3665 -1.0569  0.7094
 1503TIP3   OH2 4472   4.429   2.503   5.584  0.3172  0.6356  0.5978
 1503TIP3    H1 4473   4.334   2.514   5.589  0.3098  0.7330  0.2584
 1503TIP3    H2 4474   4.456   2.485   5.674 -0.0921  0.0392  0.6011
 1504TIP3   OH2 4475   5.144   2.787   3.391 -0.4272  0.2294  0.5194
 1504TIP3    H1 4476   5.228   2.813   3.428 -0.7412 -0.0020  1.4310
 1504TIP3    H2 4477   5.129   2.849   3.319  0.4074  0.4170  0.5004
 1505TIP3   OH2 4478   0.725   1.376   0.371  0.8902  0.3854  0.1013
 1505TIP3    H1 4479   0.660   1.354   0.438 -0.0521 -3.0906 -1.7021
 1505TIP3    H2 4480   0.701   1.463   0.341 -2.9616 -0.6349 -0.3597
 1506TIP3   OH2 4481   0.416   6.538   1.131 -0.7549 -0.4034 -0.1007
 1506TIP3    H1 4482   0.462   6.600   1.075 -1.9352  0.4601 -0.1585
 1506TIP3    H2 4483   0.353   6.592   1.179 -1.7935 -1.5524 -0.1342
 1507TIP3   OH2 4484   6.158   0.838   0.921 -0.0442 -0.2275 -0.0043
 1507TIP3    H1 4485   6.248   0.861   0.899  0.7691 -2.4727  0.7065
 1507TIP3    H2 4486   6.131   0.778   0.852  0.2720 -2.2785  1.5775
 1508TIP3   OH2 4487   4.318   4.399   4.531  0.0109  0.3892  0.2826
 1508TIP3    H1 4488   4.346   4.397   4.623 -0.6063 -1.2856  0.4618
 1508TIP3    H2 4489   4.237   4.349   4.529  0.9226 -1.1747 -1.4603
 1509TIP3   OH2 4490   3.111   4.333   4.421  1.0552 -0.2409  0.3501
 1509TIP3    H1 4491   3.034   4.278   4.429 -0.3694  1.2996 -1.6954
 1509TIP3    H2 4492   3.155   4.303   4.341  0.8868  0.7663 -0.1512
 1510TIP3   OH2 4493   5.594   4.161   5.729  0.2633  0.0888 -0.0931
 1510TIP3    H1 4494   5.639   4.186   5.810 -1.7615  0.7797  0.9095
 1510TIP3    H2 4495   5.661   4.120   5.675  2.4453  2.4843  0.5922
 1511TIP3   OH2 4496   6.398   6.788   4.641 -0.2447 -0.0764  0.1562
 1511TIP3    H1 4497   6.385   6.743   4.558 -1.0215  0.3803  0.0255
 1511TIP3    H2 4498   6.431   6.874   4.618  0.5385 -0.3006  0.3792
 1512TIP3   OH2 4499   6.494   4.873   4.604 -0.0676 -0.4768 -0.1449
 1512TIP3    H1 4500   6.517   4.944   4.544 -1.7917  0.7531  0.5898
 1512TIP3    H2 4501   6.534   4.898   4.687  1.0182 -1.4186 -0.3494
 1513TIP3   OH2 4502   7.145   4.930   0.238  0.7749 -0.7141 -0.3176
 1513TIP3    H1 4503   7.081   5.000   0.251  1.2822 -0.1501 -0.7607
 1513TIP3    H2 4504   7.218   4.954   0.296  1.2699 -0.4630 -1.0375
 1514TIP3   OH2 4505   4.029   0.205   2.903 -0.3775  0.4853  0.0237
 1514TIP3    H1 4506   4.045   0.298   2.920  0.2457  0.4823 -0.5164
 1514TIP3    H2 4507   4.084   0.185   2.828  0.4461 -0.6431  0.9072
 1515TIP3   OH2 4508   6.474   2.209   0.044  0.7009  0.0199  0.1026
 1515TIP3    H1 4509   6.517   2.149  -0.017  1.2712  1.2376 -0.7305
 1515TIP3    H2 4510   6.536   2.217   0.117  0.7927 -0.0890  0.0372
 1516TIP3   OH2 4511   1.010   5.763   1.810 -0.1580 -0.3764  0.2812
 1516TIP3    H1 4512   0.978   5.711   1.884 -1.1185 -0.3699 -0.1133
 1516TIP3    H2 4513   0.934   5.813   1.781  0.1269 -0.5718 -0.8729
 1517TIP3   OH2 4514   3.319   4.576   1.242  0.4080  0.9332  0.2015
 1517TIP3    H1 4515   3.385   4.514   1.212 -1.1069 -0.5203 -0.3177
 1517TIP3    H2 4516   3.285   4.538   1.323 -0.2626  1.2708  0.0923
 1518TIP3   OH2 4517   6.935   1.665   3.881  0.1668 -0.3024  0.9203
 1518TIP3    H1 4518   6.998   1.595   3.863  1.3141  0.7867  0.5036
 1518TIP3    H2 4519   6.850   1.621   3.885  0.7241 -1.5775 -0.3278
 1519TIP3   OH2 4520   3.745   0.385   4.421  0.0349  0.3899 -0.3446
 1519TIP3    H1 4521   3.801   0.317   4.459 -1.3508  0.2042  1.4552
 1519TIP3    H2 4522   3.664   0.382   4.472 -1.2328  1.3855 -2.1718
 1520TIP3   OH2 4523   6.867   1.535   4.838 -0.1148  0.3024 -0.6345
 1520TIP3    H1 4524   6.778   1.525   4.804  0.6231  1.9770 -3.4348
 1520TIP3    H2 4525   6.919   1.470   4.791  0.3467  0.1466  0.0738
 1521TIP3   OH2 4526   1.522   0.953   3.398 -0.4277  0.2224  0.7818
 1521TIP3    H1 4527   1.539   1.031   3.346 -2.6984  0.0264 -0.4065
 1521TIP3    H2 4528   1.559   0.972   3.484  1.0073  1.6723 -0.1002
 1522TIP3   OH2 4529   6.980   6.763   3.344  0.5962  0.2034  0.3876
 1522TIP3    H1 4530   6.993   6.741   3.252 -0.5181  0.4570  0.1549
 1522TIP3    H2 4531   6.947   6.682   3.384 -0.3966  0.5139  0.2233
 1523TIP3   OH2 4532   0.987   4.740   3.833  0.5434  0.2434 -0.1540
 1523TIP3    H1 4533   0.951   4.660   3.796 -1.4293  0.4640  1.1378
 1523TIP3    H2 4534   0.912   4.799   3.841  1.5674  1.4927  0.7472
 1524TIP3   OH2 4535   3.795   3.388   0.386 -0.3671 -0.1803 -0.6484
 1524TIP3    H1 4536   3.727   3.349   0.441  0.0935  0.0972  0.1204
 1524TIP3    H2 4537   3.872   3.391   0.441  0.0311  0.3510 -1.2273
 1525TIP3   OH2 4538   1.744   5.309   4.267  0.0604 -0.8655  0.4984
 1525TIP3    H1 4539   1.784   5.238   4.218 -0.7752 -0.7480 -0.4018
 1525TIP3    H2 4540   1.753   5.386   4.210 -0.0002 -0.4951  0.9806
 1526TIP3   OH2 4541   6.058   0.149   4.069 -0.3545 -0.2572  0.0311
 1526TIP3    H1 4542   6.078   0.238   4.097 -0.4856  0.0287 -0.7692
 1526TIP3    H2 4543   6.082   0.094   4.144 -0.6942  0.4881  0.6988
 1527TIP3   OH2 4544   6.152   2.170   2.649 -0.8056  0.0593 -0.4101
 1527TIP3    H1 4545   6.081   2.108   2.668 -0.8889  0.3506  0.2790
 1527TIP3    H2 4546   6.189   2.191   2.735 -0.9736  1.2006 -0.6025
 1528TIP3   OH2 4547   4.289   2.963   5.850  0.1768  0.4183  0.0709
 1528TIP3    H1 4548   4.239   2.995   5.925  1.1950 -0.1514  1.0290
 1528TIP3    H2 4549   4.255   2.876   5.833 -0.4855  0.7876 -0.5552
 1529TIP3   OH2 4550   5.415   4.630   2.037  0.4391 -0.4999 -0.0322
 1529TIP3    H1 4551   5.370   4.605   2.118  0.8446 -0.7790  0.1084
 1529TIP3    H2 4552   5.443   4.547   1.998 -0.2670 -0.4021 -0.7602
 1530TIP3   OH2 4553   2.146   1.979   3.834 -0.7045  0.0790 -0.6228
 1530TIP3    H1 4554   2.055   1.971   3.862 -0.6000 -0.1237 -0.3438
 1530TIP3    H2 4555   2.183   2.047   3.891 -0.6991  0.2134 -0.7844
 1531TIP3   OH2 4556   6.373   1.406   4.999  0.7571  0.2438  0.2621
 1531TIP3    H1 4557   6.305   1.471   4.980 -0.6975 -1.0795  0.6723
 1531TIP3    H2 4558   6.352   1.332   4.942  0.4165 -1.0948  2.0304
 1532TIP3   OH2 4559   4.426   1.502   0.247 -0.0690 -0.0314  0.0484
 1532TIP3    H1 4560   4.383   1.585   0.265 -1.8145 -0.9965  0.5461
 1532TIP3    H2 4561   4.361   1.450   0.200  0.4112 -1.6606  1.0741
 1533TIP3   OH2 4562   4.790   3.018   2.346 -0.1785  0.2944  0.2403
 1533TIP3    H1 4563   4.855   3.084   2.371 -2.3065  2.5990 -0.0042
 1533TIP3    H2 4564   4.746   2.995   2.428 -0.5038  0.3951  0.0957
 1534TIP3   OH2 4565   2.196   5.379   4.806  0.1484  0.0710  0.2367
 1534TIP3    H1 4566   2.193   5.346   4.896 -0.0738 -1.9908 -0.4578
 1534TIP3    H2 4567   2.108   5.364   4.772  0.4843 -0.0587 -0.6014
 1535TIP3   OH2 4568   4.228   5.363   0.670 -1.0068  0.4386  0.0707
 1535TIP3    H1 4569   4.157   5.326   0.722 -0.7446 -0.7944 -0.4146
 1535TIP3    H2 4570   4.250   5.445   0.713 -2.0472  0.3420  0.8057
 1536TIP3   OH2 4571   2.957   1.647   4.807 -0.0004  0.0158  0.3551
 1536TIP3    H1 4572   2.929   1.563   4.772  1.1328 -0.1586 -0.1663
 1536TIP3    H2 4573   3.047   1.658   4.775  0.0539  1.1741  0.8557
 1537TIP3   OH2 4574   3.394   5.016   5.271 -0.0075 -0.4409  0.4479
 1537TIP3    H1 4575   3.302   5.021   5.248 -0.3792 -0.0672  1.8872
 1537TIP3    H2 4576   3.424   4.932   5.234 -0.5355  0.0778 -1.2218
 1538TIP3   OH2 4577   4.159   2.946   4.737 -0.0893 -0.2700  0.2284
 1538TIP3    H1 4578   4.191   2.856   4.730  0.3059 -0.0313 -1.4576
 1538TIP3    H2 4579   4.109   2.947   4.818  2.1986 -1.2880  1.7683
 1539TIP3   OH2 4580   1.995   2.145   1.627  0.4431  0.1188 -0.3636
 1539TIP3    H1 4581   2.061   2.169   1.692  1.0972 -1.2475 -0.4737
 1539TIP3    H2 4582   2.017   2.054   1.604 -2.3511 -0.9192  0.6800
 1540TIP3   OH2 4583   2.278   6.486   0.196  0.0284  0.3372  0.5403
 1540TIP3    H1 4584   2.280   6.430   0.119  0.0530 -0.0870  0.8454
 1540TIP3    H2 4585   2.365   6.476   0.235 -0.0281  0.4471  0.6944
 1541TIP3   OH2 4586   2.074   6.289   2.421 -0.5623  0.1059 -0.1134
 1541TIP3    H1 4587   2.165   6.293   2.392 -0.3841 -1.1262  0.2253
 1541TIP3    H2 4588   2.078   6.301   2.516 -0.5671 -1.4794  0.1221
 1542TIP3   OH2 4589   5.504   3.476   0.634  0.2139 -0.2983 -0.3710
 1542TIP3    H1 4590   5.513   3.537   0.706 -2.3587 -1.2380  0.8862
 1542TIP3    H2 4591   5.578   3.495   0.576  1.2942  1.7571  1.5484
 1543TIP3   OH2 4592   5.994   1.210   3.659  0.9210 -0.3383  0.3412
 1543TIP3    H1 4593   6.039   1.191   3.741  1.4103  0.8295  0.3787
 1543TIP3    H2 4594   5.919   1.151   3.658 -0.0281  0.7024  2.4189
 1544TIP3   OH2 4595   6.113   2.911   5.358 -0.4587  0.2809  0.4459
 1544TIP3    H1 4596   6.206   2.921   5.379 -0.6085  2.0589  0.4251
 1544TIP3    H2 4597   6.091   2.823   5.389  0.9335  0.2890  1.5993
 1545TIP3   OH2 4598   6.124   4.791   5.631  0.3038 -0.0093  0.5957
 1545TIP3    H1 4599   6.206   4.817   5.672  1.4415 -0.2205 -1.4115
 1545TIP3    H2 4600   6.139   4.701   5.602 -1.3646 -0.7585  1.9133
 1546TIP3   OH2 4601   3.997   2.734   3.961  0.4520  0.1005 -0.7361
 1546TIP3    H1 4602   4.054   2.723   3.885  1.5258  1.0411 -0.0975
 1546TIP3    H2 4603   3.993   2.829   3.974 -0.7368  0.0106 -0.3653
 1547TIP3   OH2 4604   6.031   2.277   3.116  0.0235 -0.1358  0.9779
 1547TIP3    H1 4605   5.954   2.297   3.062 -0.2647 -1.5801  0.8159
 1547TIP3    H2 4606   6.070   2.362   3.134 -0.7222  0.4998 -0.2596
 1548TIP3   OH2 4607   5.714   2.037   3.229  0.6485  0.4130  0.0119
 1548TIP3    H1 4608   5.663   1.958   3.210  0.2114  0.2726  1.5822
 1548TIP3    H2 4609   5.718   2.040   3.325  0.3146  2.5060  0.0124
 1549TIP3   OH2 4610   0.270   0.211   5.816 -0.0421 -0.0544 -0.0903
 1549TIP3    H1 4611   0.229   0.205   5.903 -0.5443  0.8906 -0.2548
 1549TIP3    H2 4612   0.202   0.180   5.756 -0.5568  1.5419 -0.3674
 1550TIP3   OH2 4613   4.192   4.520   0.796  0.5294 -0.1785 -0.4991
 1550TIP3    H1 4614   4.226   4.580   0.729  0.4639 -1.3262 -1.5899
 1550TIP3    H2 4615   4.098   4.516   0.780  0.5475 -0.6509 -0.4943
 1551TIP3   OH2 4616   5.054   3.694   5.705  0.4771 -0.1182 -0.1551
 1551TIP3    H1 4617   5.148   3.680   5.714  0.3591 -1.7080 -0.9579
 1551TIP3    H2 4618   5.014   3.617   5.745 -0.4653  0.3198 -0.2214
 1552TIP3   OH2 4619   4.900   1.649   1.550 -0.5708 -0.2792  0.3132
 1552TIP3    H1 4620   4.902   1.589   1.624  0.2621  0.0479  0.5628
 1552TIP3    H2 4621   4.988   1.644   1.513 -0.2531  1.3456  0.7957
 1553TIP3   OH2 4622   4.465   3.845   5.399  0.3765 -0.1878 -0.2011
 1553TIP3    H1 4623   4.383   3.830   5.446  1.1441 -1.9429  0.6680
 1553TIP3    H2 4624   4.529   3.861   5.468  1.0980 -0.6061 -0.7663
 1554TIP3   OH2 4625   2.291   4.982   0.628  0.6783 -0.2819 -0.1076
 1554TIP3    H1 4626   2.366   4.922   0.621  1.7016  0.9161  0.2802
 1554TIP3    H2 4627   2.318   5.060   0.579 -0.6807 -0.1645 -0.7048
 1555TIP3   OH2 4628   1.682   4.153   2.321  0.1370 -0.0836 -0.1584
 1555TIP3    H1 4629   1.716   4.226   2.374  0.3247 -0.2156 -0.0952
 1555TIP3    H2 4630   1.728   4.162   2.238  1.0836 -0.8462  0.2587
 1556TIP3   OH2 4631   6.611   2.787   5.309  0.3222 -0.2668 -0.1184
 1556TIP3    H1 4632   6.551   2.823   5.375 -0.0119  0.4690 -0.8078
 1556TIP3    H2 4633   6.694   2.833   5.326  1.9366 -3.8094  3.2033
 1557TIP3   OH2 4634   1.635   6.789   2.548 -0.0574  0.1197 -0.2552
 1557TIP3    H1 4635   1.676   6.818   2.467  0.6292  0.0624  0.0667
 1557TIP3    H2 4636   1.601   6.702   2.528  0.4534 -0.0546 -0.3664
 1558TIP3   OH2 4637   3.153   0.137   4.512 -0.4080  0.4970 -0.1225
 1558TIP3    H1 4638   3.242   0.166   4.531  0.3570 -1.5193 -0.3516
 1558TIP3    H2 4639   3.118   0.109   4.596  0.0983 -1.0071 -0.3866
 1559TIP3   OH2 4640   4.173   3.897   3.134  0.8146 -0.3893  0.3968
 1559TIP3    H1 4641   4.119   3.835   3.182 -0.0536 -0.4394 -0.6056
 1559TIP3    H2 4642   4.152   3.881   3.042  0.6157  1.3281  0.1069
 1560TIP3   OH2 4643   6.640   2.329   4.963 -0.2552 -0.1103 -0.5178
 1560TIP3    H1 4644   6.663   2.238   4.945 -0.5657 -0.1586 -0.6885
 1560TIP3    H2 4645   6.697   2.379   4.905  2.0891 -0.0248  1.7055
 1561TIP3   OH2 4646   1.735   3.183   4.719 -0.2131  0.2356 -0.3260
 1561TIP3    H1 4647   1.798   3.255   4.721  1.7381 -1.3657  2.7308
 1561TIP3    H2 4648   1.751   3.140   4.635  4.0832 -1.0041  0.8476
 1562TIP3   OH2 4649   5.010   2.332   0.033  0.3337 -0.0580 -0.2693
 1562TIP3    H1 4650   5.079   2.354   0.095 -1.1017  2.7594  0.5173
 1562TIP3    H2 4651   5.025   2.392  -0.041 -0.7005 -0.0537 -0.4879
 1563TIP3   OH2 4652   2.279   2.943   4.879  0.5263  0.0165 -0.2489
 1563TIP3    H1 4653   2.302   2.855   4.849 -0.7337 -0.1151 -0.8801
 1563TIP3    H2 4654   2.216   2.975   4.815 -0.9856  0.3846  1.3510
 1564TIP3   OH2 4655   0.530   1.027   1.266 -0.3174 -0.4021  0.2760
 1564TIP3    H1 4656   0.455   1.012   1.209 -0.9388 -0.7640  1.1569
 1564TIP3    H2 4657   0.600   0.974   1.228  0.2213  1.6449 -1.8416
 1565TIP3   OH2 4658   2.249   1.792   2.665 -0.0870 -0.0360  0.2753
 1565TIP3    H1 4659   2.302   1.799   2.585 -0.6980 -0.0430 -0.1424
 1565TIP3    H2 4660   2.160   1.808   2.635 -0.2641  0.4492  1.0507
 1566TIP3   OH2 4661   0.637   6.733   4.082 -0.3234 -0.2536 -0.3126
 1566TIP3    H1 4662   0.586   6.656   4.105 -0.2965 -0.1360  0.1511
 1566TIP3    H2 4663   0.572   6.803   4.074 -0.2294 -0.0733  0.4155
 1567TIP3   OH2 4664   1.965   5.356   2.956  0.1521 -0.4691  0.2792
 1567TIP3    H1 4665   1.916   5.345   2.875  0.7773 -0.9783 -0.0431
 1567TIP3    H2 4666   1.919   5.425   3.003  1.2758  1.8259 -1.7109
 1568TIP3   OH2 4667   0.107   3.432   4.787 -0.2503 -0.2806  0.1884
 1568TIP3    H1 4668   0.076   3.434   4.877 -0.6533  0.2376  0.0418
 1568TIP3    H2 4669   0.039   3.478   4.737 -0.9839 -2.2234 -0.6815
 1569TIP3   OH2 4670   3.171   2.703   2.107 -0.2456  0.6549 -0.7573
 1569TIP3    H1 4671   3.098   2.641   2.115 -0.4935  0.9872 -0.4271
 1569TIP3    H2 4672   3.228   2.663   2.042  0.3479 -0.6663  0.5067
 1570TIP3   OH2 4673   6.222   6.363   4.911  0.1203 -0.1368  0.0074
 1570TIP3    H1 4674   6.299   6.397   4.866  0.2997 -0.3360  0.1569
 1570TIP3    H2 4675   6.177   6.441   4.945  1.3561 -0.0931  1.6880
 1571TIP3   OH2 4676   1.165   5.821   0.508 -0.2853  0.1470 -0.1783
 1571TIP3    H1 4677   1.166   5.799   0.415 -0.3693  0.6312 -0.3007
 1571TIP3    H2 4678   1.177   5.916   0.510 -0.7679  0.2052  0.2798
 1572TIP3   OH2 4679   5.122   5.221   1.134  0.6414 -0.4814 -0.3225
 1572TIP3    H1 4680   5.124   5.266   1.218  3.2695  0.3768 -0.7384
 1572TIP3    H2 4681   5.162   5.284   1.073  0.9801 -1.9721 -1.6914
 1573TIP3   OH2 4682   4.486   4.342   2.957  0.3114  0.1799  0.4002
 1573TIP3    H1 4683   4.551   4.374   2.894 -0.5414 -0.6242 -0.9337
 1573TIP3    H2 4684   4.450   4.263   2.916  0.6228 -1.1207  2.4752
 1574TIP3   OH2 4685   5.491   1.255   4.430  0.4295  0.1653 -0.2239
 1574TIP3    H1 4686   5.469   1.348   4.419 -0.3763 -0.1723 -1.7167
 1574TIP3    H2 4687   5.409   1.215   4.461  0.3201 -0.2975 -1.0973
 1575TIP3   OH2 4688   0.764   5.488   1.214  0.1186  0.3428 -0.1071
 1575TIP3    H1 4689   0.835   5.458   1.270  0.5543 -0.1809 -0.9068
 1575TIP3    H2 4690   0.807   5.545   1.150 -0.4992  1.6408  0.5923
 1576TIP3   OH2 4691   3.368   5.715   3.464 -0.0562 -0.5744  0.5988
 1576TIP3    H1 4692   3.345   5.718   3.371  0.5294  1.6573  0.4619
 1576TIP3    H2 4693   3.453   5.758   3.469 -2.2531  4.2677  2.6673
 1577TIP3   OH2 4694   0.103   1.623   0.238 -0.1340  0.1372  0.1717
 1577TIP3    H1 4695   0.087   1.547   0.294 -1.4955  0.4382  0.2365
 1577TIP3    H2 4696   0.025   1.628   0.183  0.6906  0.5083 -0.9858
 1578TIP3   OH2 4697   5.051   6.710   2.670 -0.3606  0.4532  0.1345
 1578TIP3    H1 4698   5.135   6.688   2.630 -1.1944  0.3179 -1.6242
 1578TIP3    H2 4699   5.025   6.791   2.626 -0.6279  1.1370  1.5019
 1579TIP3   OH2 4700   5.689   1.536   3.187 -0.5571 -0.1533 -0.1980
 1579TIP3    H1 4701   5.738   1.457   3.163  0.5644  0.6528 -0.6556
 1579TIP3    H2 4702   5.683   1.532   3.283 -0.3394 -0.7031 -0.2043
 1580TIP3   OH2 4703   0.592   5.837   3.892  0.1153 -0.3372  0.3384
 1580TIP3    H1 4704   0.603   5.930   3.914 -0.5238 -0.3147  0.5869
 1580TIP3    H2 4705   0.623   5.790   3.969 -1.2457 -0.2805  0.9421
 1581TIP3   OH2 4706   3.415   4.594   4.704 -0.2465 -0.0583  0.3035
 1581TIP3    H1 4707   3.379   4.622   4.789  0.0553  1.8283 -0.1431
 1581TIP3    H2 4708   3.390   4.664   4.644  0.3916 -0.8975 -0.9649
 1582TIP3   OH2 4709   0.841   4.755   0.617  0.2592  0.6330 -0.1184
 1582TIP3    H1 4710   0.769   4.795   0.568 -0.3227 -1.5688 -1.2056
 1582TIP3    H2 4711   0.865   4.678   0.565  0.8342 -0.8183  2.1535
 1583TIP3   OH2 4712   5.547   6.135   4.467 -0.2971  0.0546  0.3450
 1583TIP3    H1 4713   5.636   6.167   4.459 -0.8173  1.0716 -2.5563
 1583TIP3    H2 4714   5.496   6.189   4.406 -3.3857  1.0860  3.4862
 1584TIP3   OH2 4715   1.739   1.208   3.972  0.0227 -0.5560 -0.0679
 1584TIP3    H1 4716   1.808   1.145   3.951  0.1096  0.1705 -2.2512
 1584TIP3    H2 4717   1.771   1.291   3.939 -1.9654 -0.2323 -1.3949
 1585TIP3   OH2 4718   3.022   6.606   1.255  0.6234 -0.4831  0.4850
 1585TIP3    H1 4719   3.108   6.572   1.279 -0.0302 -1.3664  1.6526
 1585TIP3    H2 4720   3.037   6.699   1.236  1.9898 -0.8312 -0.2885
 1586TIP3   OH2 4721   4.267   4.777   4.636 -0.4099 -0.1647  0.4142
 1586TIP3    H1 4722   4.304   4.802   4.721  0.7374 -0.3042 -0.0239
 1586TIP3    H2 4723   4.183   4.737   4.658 -0.0585 -0.3550  1.5088
 1587TIP3   OH2 4724   6.818   1.978   3.317 -0.3262 -0.1244 -0.2539
 1587TIP3    H1 4725   6.858   2.057   3.353  0.2942 -0.9469  0.9280
 1587TIP3    H2 4726   6.882   1.946   3.253 -0.0884 -0.2500  0.0457
 1588TIP3   OH2 4727   0.555   4.522   0.360 -0.0609 -0.7834 -0.2617
 1588TIP3    H1 4728   0.544   4.441   0.311 -0.7581 -1.5521  1.0935
 1588TIP3    H2 4729   0.587   4.494   0.446 -1.9881  0.1949  0.8369
 1589TIP3   OH2 4730   2.041   0.504   3.913  0.0085  0.1043  0.6331
 1589TIP3    H1 4731   2.131   0.473   3.910 -0.4889 -1.6529  2.1272
 1589TIP3    H2 4732   2.004   0.480   3.828  0.2919 -1.3944  0.9083
 1590TIP3   OH2 4733   2.148   6.103   0.652 -0.0425  0.3706 -0.3835
 1590TIP3    H1 4734   2.156   6.173   0.718 -0.4778  1.7837 -1.7666
 1590TIP3    H2 4735   2.171   6.145   0.569 -0.0419 -1.2242 -1.2270
 1591TIP3   OH2 4736   5.543   2.224   0.656  0.0888 -0.3365  0.4744
 1591TIP3    H1 4737   5.592   2.250   0.579  0.0531 -1.2540  0.1355
 1591TIP3    H2 4738   5.535   2.305   0.708 -0.3314  0.4027 -0.7067
 1592TIP3   OH2 4739   4.031   4.712   3.449 -0.4557  0.0484  0.0325
 1592TIP3    H1 4740   4.033   4.634   3.393  0.0037  0.0810 -0.0031
 1592TIP3    H2 4741   4.003   4.782   3.391 -1.0426 -0.1236  0.1073
 1593TIP3   OH2 4742   7.108   2.751   0.771 -0.0125  1.0566  0.1962
 1593TIP3    H1 4743   7.078   2.781   0.857  0.8810  0.0951  0.8612
 1593TIP3    H2 4744   7.192   2.794   0.758 -0.2473  1.3742 -0.3086
 1594TIP3   OH2 4745   1.779   6.068   2.534  0.5631 -0.3872 -0.0645
 1594TIP3    H1 4746   1.783   6.151   2.581  0.0902 -0.3289 -0.1256
 1594TIP3    H2 4747   1.867   6.031   2.543  0.9009  0.3174 -0.3985
 1595TIP3   OH2 4748   4.416   6.259   4.209  0.2029  0.4985  0.1621
 1595TIP3    H1 4749   4.499   6.245   4.255 -0.5998 -0.1253  1.4943
 1595TIP3    H2 4750   4.400   6.175   4.165 -1.0120 -0.3946  2.1497
 1596TIP3   OH2 4751   7.067   5.835   0.103  0.2631 -0.4133 -0.3924
 1596TIP3    H1 4752   7.000   5.777   0.141  0.4625  0.3923  1.3042
 1596TIP3    H2 4753   7.017   5.903   0.058 -0.0431 -0.3912 -0.0245
 1597TIP3   OH2 4754   1.700   0.151   3.431 -0.4081 -0.3606  0.3030
 1597TIP3    H1 4755   1.626   0.192   3.387 -0.3837  0.0970  0.6787
 1597TIP3    H2 4756   1.753   0.224   3.463  0.6526 -0.6799 -0.6862
 1598TIP3   OH2 4757   1.567   5.935   2.232 -0.1083 -0.2878 -0.0068
 1598TIP3    H1 4758   1.659   5.924   2.208 -0.2459 -1.2700 -0.1277
 1598TIP3    H2 4759   1.520   5.931   2.148 -0.2510  0.3280  0.0422
 1599TIP3   OH2 4760   5.974   0.532   0.805 -0.1457 -0.4455 -0.8706
 1599TIP3    H1 4761   5.890   0.566   0.835 -0.1145 -0.9667 -0.1680
 1599TIP3    H2 4762   5.969   0.539   0.709 -0.7606  0.0423 -0.8127
 1600TIP3   OH2 4763   2.800   5.316   3.808  0.5095  0.0961 -0.0652
 1600TIP3    H1 4764   2.785   5.250   3.876 -0.1408 -1.4375 -1.6419
 1600TIP3    H2 4765   2.732   5.382   3.824  0.2759 -0.3115  0.6877
 1601TIP3   OH2 4766   1.056   2.833   2.246  0.2286 -0.2808 -0.4877
 1601TIP3    H1 4767   0.999   2.771   2.201 -0.4319  0.4578 -0.7125
 1601TIP3    H2 4768   1.128   2.848   2.185 -1.1262  1.4294 -1.8150
 1602TIP3   OH2 4769   6.242   4.278   0.767  0.3072 -0.2619  0.3961
 1602TIP3    H1 4770   6.240   4.226   0.686 -0.2301  0.9098 -0.3665
 1602TIP3    H2 4771   6.193   4.357   0.746 -0.9336 -0.4658  2.2471
 1603TIP3   OH2 4772   4.268   0.885   4.510 -0.2558  0.0717  0.0183
 1603TIP3    H1 4773   4.217   0.890   4.591 -1.3841 -0.4325 -0.6414
 1603TIP3    H2 4774   4.353   0.850   4.537 -0.5362  0.1314  1.0129
 1604TIP3   OH2 4775   1.035   4.431   1.981 -0.1837  0.3665  0.2211
 1604TIP3    H1 4776   1.099   4.461   2.046 -0.6395  1.5957  0.1449
 1604TIP3    H2 4777   0.956   4.482   2.001 -0.6007  0.1223 -0.7474
 1605TIP3   OH2 4778   5.146   5.375   1.508  0.4078 -0.0524 -0.3283
 1605TIP3    H1 4779   5.085   5.301   1.518 -2.6765  2.1821 -1.0573
 1605TIP3    H2 4780   5.117   5.439   1.573  1.0837  1.6572 -1.6261
 1606TIP3   OH2 4781   0.230   0.054   2.994 -0.5011 -0.1407  0.1269
 1606TIP3    H1 4782   0.172  -0.021   2.984  0.8540 -1.2002 -0.0873
 1606TIP3    H2 4783   0.286   0.052   2.916  0.6082  0.1141  0.8871
 1607TIP3   OH2 4784   1.027   1.988   5.631  0.2390  0.5429  0.1858
 1607TIP3    H1 4785   1.008   1.931   5.706  0.8996  1.1506  0.8277
 1607TIP3    H2 4786   0.991   2.073   5.656 -1.9157  0.1591 -1.3047
 1608TIP3   OH2 4787   1.115   0.081   2.755  0.0456  0.0205  0.4746
 1608TIP3    H1 4788   1.183   0.107   2.694 -0.7645  3.3444  0.8220
 1608TIP3    H2 4789   1.035   0.079   2.703  0.1402 -2.9366  0.2751
 1609TIP3   OH2 4790   2.290   6.037   2.450 -0.1872  0.0610 -0.7870
 1609TIP3    H1 4791   2.383   6.014   2.457 -0.4175 -0.3943  1.2462
 1609TIP3    H2 4792   2.290   6.125   2.413  0.9596 -0.5805 -2.4709
 1610TIP3   OH2 4793   5.968   4.927   3.470  0.3595 -0.8838 -0.1050
 1610TIP3    H1 4794   5.889   4.976   3.447  0.9009  0.5202  0.8256
 1610TIP3    H2 4795   5.936   4.852   3.521 -0.3591 -0.0644  0.6852
 1611TIP3   OH2 4796   2.934   4.460   0.328  0.0239 -0.8861 -0.3801
 1611TIP3    H1 4797   2.963   4.370   0.337 -0.5511 -1.1206 -0.8013
 1611TIP3    H2 4798   2.982   4.508   0.395  0.8937 -1.3683 -0.6430
 1612TIP3   OH2 4799   6.944   0.436   3.334  0.0814 -0.3124  0.3666
 1612TIP3    H1 4800   6.866   0.389   3.363 -1.2724  1.4817 -0.2016
 1612TIP3    H2 4801   6.927   0.457   3.242  0.1922  1.9919  0.7953
 1613TIP3   OH2 4802   3.704   3.116   3.014 -0.5271  0.0493  0.5268
 1613TIP3    H1 4803   3.784   3.092   2.967 -1.5222 -2.9180  0.1665
 1613TIP3    H2 4804   3.651   3.163   2.948  1.0951  2.7097  0.9769
 1614TIP3   OH2 4805   6.903   0.221   2.418  0.4039 -0.3396 -0.5884
 1614TIP3    H1 4806   6.892   0.186   2.329 -1.5175 -1.1313 -0.0766
 1614TIP3    H2 4807   6.867   0.154   2.475  2.7267 -0.3742  0.9357
 1615TIP3   OH2 4808   5.144   1.565   3.790  0.5736 -0.5764  0.0056
 1615TIP3    H1 4809   5.225   1.533   3.751 -0.1866 -1.7410 -0.6579
 1615TIP3    H2 4810   5.156   1.552   3.884  1.5387  0.1919  0.0052
 1616TIP3   OH2 4811   5.010   3.723   0.746 -0.0931 -0.5122  0.4211
 1616TIP3    H1 4812   4.931   3.756   0.703  1.2942  2.7484  0.0932
 1616TIP3    H2 4813   4.979   3.690   0.831 -2.0160 -1.1043 -0.4594
 1617TIP3   OH2 4814   4.054   0.780   3.900 -0.1894  0.0665 -0.1397
 1617TIP3    H1 4815   4.126   0.837   3.873  0.8311 -0.6380  1.0327
 1617TIP3    H2 4816   4.041   0.799   3.993 -1.3797  0.0178 -0.2796
 1618TIP3   OH2 4817   5.476   5.220   0.223 -0.8166 -0.1121 -0.0600
 1618TIP3    H1 4818   5.432   5.177   0.150 -0.0962 -1.4609  0.2830
 1618TIP3    H2 4819   5.561   5.178   0.229  0.2985  1.9739 -0.2538
 1619TIP3   OH2 4820   6.831   2.827   3.831  0.0562 -0.3317  0.2843
 1619TIP3    H1 4821   6.757   2.813   3.890  1.3237  0.4049  2.1512
 1619TIP3    H2 4822   6.890   2.754   3.849  1.0585  0.6044  0.9595
 1620TIP3   OH2 4823   5.864   1.047   2.295  0.5968 -0.3224 -0.3544
 1620TIP3    H1 4824   5.818   1.127   2.271  0.7355 -0.4579 -1.1001
 1620TIP3    H2 4825   5.927   1.033   2.225  1.6497 -0.2512  0.5542
 1621TIP3   OH2 4826   5.230   5.570   2.841 -0.7885 -0.1086 -0.1485
 1621TIP3    H1 4827   5.307   5.545   2.792 -0.3524  0.8006  0.0482
 1621TIP3    H2 4828   5.189   5.639   2.789 -1.9469 -1.1478 -0.6700
 1622TIP3   OH2 4829   3.320   6.540   3.705  0.1941 -0.2942 -0.0043
 1622TIP3    H1 4830   3.376   6.563   3.778 -0.6958 -1.8762  1.2529
 1622TIP3    H2 4831   3.297   6.624   3.665  0.4885  0.6439  1.6938
 1623TIP3   OH2 4832   7.016   3.035   3.985  0.2741  0.3646 -0.6931
 1623TIP3    H1 4833   6.935   2.991   4.012  1.3016  0.6888  3.7606
 1623TIP3    H2 4834   7.075   2.964   3.961 -0.2631 -0.1388 -0.5555
 1624TIP3   OH2 4835   6.278   1.200   0.236 -0.6073  0.4061  0.1464
 1624TIP3    H1 4836   6.295   1.140   0.164 -3.8517 -1.0777  0.4218
 1624TIP3    H2 4837   6.280   1.287   0.196  0.5885 -0.1404 -1.0543
 1625TIP3   OH2 4838   4.543   5.243  -0.013 -0.2015  0.5270 -0.0181
 1625TIP3    H1 4839   4.492   5.162  -0.012 -0.6225  0.7793 -0.5755
 1625TIP3    H2 4840   4.495   5.303   0.045  1.7696 -0.5758  2.9999
 1626TIP3   OH2 4841   1.365   1.237   4.534  0.5223 -0.2076  0.1176
 1626TIP3    H1 4842   1.441   1.180   4.526  2.1149  1.9795 -1.7639
 1626TIP3    H2 4843   1.319   1.228   4.450  0.1651  0.3637  0.2441
 1627TIP3   OH2 4844   3.910   6.215   3.146  0.1916 -0.0360 -0.4746
 1627TIP3    H1 4845   3.902   6.294   3.200  2.0109 -0.0387 -0.1060
 1627TIP3    H2 4846   3.839   6.158   3.176 -0.5135  1.0458 -0.0199
 1628TIP3   OH2 4847   0.318   3.544   2.278  0.8684  0.1197  0.9554
 1628TIP3    H1 4848   0.252   3.555   2.209  2.0960  1.8751 -0.0123
 1628TIP3    H2 4849   0.268   3.517   2.355 -0.5835 -1.7614 -0.5199
 1629TIP3   OH2 4850   3.245   6.341   3.221 -0.3275 -0.6243 -0.5623
 1629TIP3    H1 4851   3.244   6.270   3.285 -2.1287 -1.0121 -0.9638
 1629TIP3    H2 4852   3.198   6.306   3.145 -0.5472  0.7154 -1.0780
 1630TIP3   OH2 4853   2.850   2.767   3.501  0.4320  0.3421  0.1322
 1630TIP3    H1 4854   2.773   2.794   3.451  0.8265  0.7199 -0.2816
 1630TIP3    H2 4855   2.858   2.674   3.484 -1.2557 -0.2159  1.9923
 1631TIP3   OH2 4856   3.961   6.399   1.766  0.2998 -0.1569 -0.3795
 1631TIP3    H1 4857   3.993   6.312   1.789  0.0577 -0.1009  0.1825
 1631TIP3    H2 4858   4.032   6.438   1.716  1.7737  0.5274  2.0920
 1632TIP3   OH2 4859   2.206   0.169   4.995  0.1053  0.1225  0.1602
 1632TIP3    H1 4860   2.168   0.220   5.067  0.3426  0.4342  0.0711
 1632TIP3    H2 4861   2.297   0.200   4.990 -0.5744  2.0616 -1.9921
 1633TIP3   OH2 4862   5.167   4.290   2.202  0.2642  0.3632  0.0473
 1633TIP3    H1 4863   5.120   4.228   2.147 -0.4093  0.9155 -0.0156
 1633TIP3    H2 4864   5.098   4.335   2.251  0.6769  1.6645 -0.5432
 1634TIP3   OH2 4865   5.744   1.868   5.372 -0.4489 -0.3401 -0.3690
 1634TIP3    H1 4866   5.675   1.890   5.309  0.2327  1.1110 -0.6567
 1634TIP3    H2 4867   5.766   1.777   5.351 -1.2613 -0.3633 -1.2408
 1635TIP3   OH2 4868   2.708   2.645   0.697 -0.0196  0.1153 -0.1629
 1635TIP3    H1 4869   2.737   2.631   0.607 -1.5283 -4.3382 -0.2293
 1635TIP3    H2 4870   2.612   2.653   0.690 -0.3310 -1.8544  1.0274
 1636TIP3   OH2 4871   1.436   3.807   5.563  0.2936 -0.1771 -0.6666
 1636TIP3    H1 4872   1.459   3.772   5.477 -0.0541 -1.5106 -0.2479
 1636TIP3    H2 4873   1.473   3.745   5.625 -0.5016  0.1003  0.1162
 1637TIP3   OH2 4874   2.104   1.192   2.023 -0.1858  0.2113  0.3481
 1637TIP3    H1 4875   2.072   1.262   1.965  0.0366  0.1721  0.1787
 1637TIP3    H2 4876   2.198   1.187   2.005 -0.5409 -1.6298 -1.2707
 1638TIP3   OH2 4877   2.465   3.710   1.686  0.5721  0.4791 -0.0000
 1638TIP3    H1 4878   2.554   3.714   1.722  0.6321 -0.9695  0.0801
 1638TIP3    H2 4879   2.450   3.797   1.649  1.4985  1.1808  1.1960
 1639TIP3   OH2 4880   0.791   1.599   1.489 -0.5160  0.2503 -0.2334
 1639TIP3    H1 4881   0.723   1.570   1.550  0.2692 -0.1451  0.4782
 1639TIP3    H2 4882   0.858   1.530   1.494  0.9378  1.6777  0.7341
 1640TIP3   OH2 4883   2.708   3.795   0.956  0.2699 -0.2801  0.2982
 1640TIP3    H1 4884   2.753   3.843   0.885 -0.0411 -0.1726  0.1748
 1640TIP3    H2 4885   2.694   3.861   1.024 -1.5559  0.1991 -0.4946
 1641TIP3   OH2 4886   0.609   4.112   3.476  0.6282  0.1693 -0.0031
 1641TIP3    H1 4887   0.534   4.064   3.442  0.2268 -0.5323  1.7593
 1641TIP3    H2 4888   0.658   4.139   3.398 -0.1275 -1.4878 -1.1026
 1642TIP3   OH2 4889   0.143   4.681   4.898  0.0861  0.1840 -0.2872
 1642TIP3    H1 4890   0.129   4.600   4.848 -0.6359  1.1585 -1.7276
 1642TIP3    H2 4891   0.064   4.733   4.882  0.6775  1.3188  0.3674
 1643TIP3   OH2 4892   3.951   4.184   5.766  0.2053 -0.3241  0.0934
 1643TIP3    H1 4893   3.985   4.253   5.822 -0.2752 -1.4973  1.9156
 1643TIP3    H2 4894   3.861   4.172   5.796 -1.1797  1.0757 -3.0021
 1644TIP3   OH2 4895   4.885   5.759   1.916 -0.0599 -0.5412 -0.5743
 1644TIP3    H1 4896   4.791   5.767   1.931 -0.3478  0.2546 -2.5272
 1644TIP3    H2 4897   4.923   5.836   1.960 -0.4423 -0.2581 -0.7378
 1645TIP3   OH2 4898   2.534   1.418   3.980 -0.4496  0.3127 -0.4244
 1645TIP3    H1 4899   2.461   1.435   3.921 -1.7847  0.4708  1.1827
 1645TIP3    H2 4900   2.595   1.490   3.964 -1.3097  0.9739 -0.8115
 1646TIP3   OH2 4901   2.715   5.097   5.271  0.0053 -0.1187  0.0662
 1646TIP3    H1 4902   2.640   5.041   5.290 -0.6255  0.3135 -1.0354
 1646TIP3    H2 4903   2.780   5.075   5.338 -0.9548 -0.7808  0.7977
 1647TIP3   OH2 4904   3.239   2.364   4.029 -0.1408  0.2686  0.1065
 1647TIP3    H1 4905   3.153   2.352   3.988  0.5350 -0.2906 -1.2009
 1647TIP3    H2 4906   3.242   2.457   4.053 -1.5836  0.0410  1.3253
 1648TIP3   OH2 4907   0.710   4.633   2.211 -0.3346  0.2339  0.2857
 1648TIP3    H1 4908   0.752   4.593   2.134  0.6709  1.2591  0.2645
 1648TIP3    H2 4909   0.632   4.676   2.176 -1.3763 -1.5544  0.2926
 1649TIP3   OH2 4910   4.802   2.929   0.155 -0.0334 -0.2220  0.2600
 1649TIP3    H1 4911   4.800   3.008   0.208  0.5147 -0.5307  0.7486
 1649TIP3    H2 4912   4.711   2.900   0.149  0.0097 -0.7796  1.9331
 1650TIP3   OH2 4913   2.640   6.010   3.901 -0.6150 -0.4379  0.2852
 1650TIP3    H1 4914   2.608   6.023   3.811  1.9637 -0.7476 -0.7528
 1650TIP3    H2 4915   2.668   5.919   3.903 -0.1239 -0.2766  1.2450
 1651TIP3   OH2 4916   3.688   4.093   5.810 -0.2266  0.5644  0.0428
 1651TIP3    H1 4917   3.592   4.096   5.817 -0.1799  3.4333  0.8651
 1651TIP3    H2 4918   3.705   4.078   5.717 -1.4227 -1.2654  0.0770
 1652TIP3   OH2 4919   5.605   3.915   0.225 -0.4495  0.2380 -0.1606
 1652TIP3    H1 4920   5.602   3.935   0.318 -0.1087  1.4222 -0.3808
 1652TIP3    H2 4921   5.518   3.881   0.204 -0.7267  0.5486  0.4690
 1653TIP3   OH2 4922   6.712   3.286   0.660 -0.2568 -0.1986 -0.0748
 1653TIP3    H1 4923   6.713   3.381   0.646  0.0358 -0.3184 -0.8597
 1653TIP3    H2 4924   6.777   3.251   0.600  1.3457 -0.6932  1.8506
 1654TIP3   OH2 4925   7.120   4.645   0.939  0.4683  0.1242 -0.0446
 1654TIP3    H1 4926   7.063   4.720   0.923  0.2499 -0.3147 -1.3953
 1654TIP3    H2 4927   7.123   4.598   0.856  1.7953 -0.5605  0.3632
 1655TIP3   OH2 4928   4.804   0.391   3.259  0.5480  0.2531 -0.4004
 1655TIP3    H1 4929   4.789   0.478   3.222 -0.8283  0.2854  0.1731
 1655TIP3    H2 4930   4.871   0.352   3.203  1.5182  1.8409 -0.3895
 1656TIP3   OH2 4931   3.035   3.445   5.774  0.5695 -0.2631  0.1724
 1656TIP3    H1 4932   2.955   3.397   5.793  0.2127  0.0943 -0.4171
 1656TIP3    H2 4933   3.082   3.390   5.711  1.5555 -1.2448  1.6915
 1657TIP3   OH2 4934   6.722   1.623   3.320 -0.2078  0.1479  0.3232
 1657TIP3    H1 4935   6.682   1.671   3.392 -0.7630 -2.0665  1.5762
 1657TIP3    H2 4936   6.815   1.647   3.324 -0.8043  3.1507 -0.8555
 1658TIP3   OH2 4937   4.068   6.242   1.081 -0.2098 -0.2483 -0.1967
 1658TIP3    H1 4938   4.134   6.294   1.126  0.1691 -2.0701  1.5185
 1658TIP3    H2 4939   3.985   6.264   1.124 -0.1792 -0.4121 -0.0500
 1659TIP3   OH2 4940   7.052   3.033   1.215 -0.5202  0.0281  0.0712
 1659TIP3    H1 4941   7.133   3.032   1.164 -0.9848 -1.9337 -0.7193
 1659TIP3    H2 4942   7.073   2.987   1.296 -0.7241 -0.1605  0.0208
 1660TIP3   OH2 4943   0.907   6.483   0.165  0.5799  0.1182 -0.2814
 1660TIP3    H1 4944   0.966   6.531   0.106 -0.6778  1.1124 -0.7848
 1660TIP3    H2 4945   0.835   6.453   0.109 -0.3463  0.5780  0.6165
 1661TIP3   OH2 4946   4.658   1.091   1.219 -0.0512 -0.3285 -0.4544
 1661TIP3    H1 4947   4.563   1.090   1.210 -0.0961 -0.8235  0.0775
 1661TIP3    H2 4948   4.674   1.070   1.311  0.5409  0.7880 -0.2832
 1662TIP3   OH2 4949   4.376   6.384   3.727  0.1357 -0.8664 -0.0732
 1662TIP3    H1 4950   4.317   6.310   3.737 -0.7687 -0.1246  0.2166
 1662TIP3    H2 4951   4.391   6.415   3.816  0.1704 -0.4476 -0.2215
 1663TIP3   OH2 4952   2.290   2.486   4.607 -0.3861  0.3939 -0.2465
 1663TIP3    H1 4953   2.338   2.416   4.563  0.6906  0.3672  0.9011
 1663TIP3    H2 4954   2.245   2.532   4.536  0.9807  0.1232 -1.3454
 1664TIP3   OH2 4955   6.872   5.861   3.670  0.1278 -0.6185  0.3394
 1664TIP3    H1 4956   6.786   5.844   3.634 -1.1140  1.5365  2.0152
 1664TIP3    H2 4957   6.862   5.845   3.764  1.6873 -0.7242  0.5136
 1665TIP3   OH2 4958   3.929   1.560   1.995 -0.6894 -0.3087  0.8841
 1665TIP3    H1 4959   3.888   1.526   1.916 -0.1581 -1.1221  0.9392
 1665TIP3    H2 4960   3.869   1.627   2.027 -1.4259 -0.7154  0.3805
 1666TIP3   OH2 4961   5.994   3.946   2.168 -0.2920  0.4011  0.4301
 1666TIP3    H1 4962   6.054   4.011   2.204  0.9370 -0.5537  0.1531
 1666TIP3    H2 4963   5.950   3.910   2.245  1.4640 -0.7861  0.9374
 1667TIP3   OH2 4964   3.355   1.437   4.937 -0.0897 -0.1230  0.1746
 1667TIP3    H1 4965   3.439   1.459   4.898  0.1777 -1.7553 -0.2566
 1667TIP3    H2 4966   3.298   1.511   4.914  0.3098 -0.5417 -2.5391
 1668TIP3   OH2 4967   0.744   1.565   4.148 -0.0085 -0.0444 -0.2447
 1668TIP3    H1 4968   0.695   1.538   4.225  0.3910 -0.1234 -0.0174
 1668TIP3    H2 4969   0.786   1.647   4.173  0.8176 -0.5079 -0.0805
 1669TIP3   OH2 4970   5.348   6.284   4.784  0.0169 -0.6990 -0.0643
 1669TIP3    H1 4971   5.433   6.251   4.813  1.3443  2.7077  0.3171
 1669TIP3    H2 4972   5.348   6.272   4.689  0.5360 -1.4527  0.0206
 1670TIP3   OH2 4973   1.053   1.875   4.149  0.6550  0.4458 -0.2454
 1670TIP3    H1 4974   1.061   1.965   4.115 -1.4400  1.3878  1.5257
 1670TIP3    H2 4975   1.110   1.874   4.226 -0.2069  0.6455  0.4046
 1671TIP3   OH2 4976   3.936   4.972   0.185 -0.0646 -0.3535  0.3261
 1671TIP3    H1 4977   3.887   5.018   0.116 -0.1315  1.8342  1.7205
 1671TIP3    H2 4978   3.870   4.921   0.231 -0.7493  1.0370  0.9688
 1672TIP3   OH2 4979   2.158   6.414   2.666 -0.1952  0.2892  0.2424
 1672TIP3    H1 4980   2.169   6.473   2.592  1.3365  0.6389  0.7182
 1672TIP3    H2 4981   2.247   6.393   2.694 -0.7295 -0.9985  1.0757
 1673TIP3   OH2 4982   1.380   6.560   1.068 -0.4258 -0.2339  0.3413
 1673TIP3    H1 4983   1.363   6.533   1.158  1.7384 -1.8421  0.3291
 1673TIP3    H2 4984   1.352   6.486   1.015 -2.0369  0.8400 -0.4209
 1674TIP3   OH2 4985   3.651   1.752   0.608  0.5321 -0.1896  0.2697
 1674TIP3    H1 4986   3.742   1.733   0.584  0.2277 -0.5841 -0.6510
 1674TIP3    H2 4987   3.626   1.826   0.553  0.6053  0.5751  1.2570
 1675TIP3   OH2 4988   7.143   2.995   4.241 -0.0425  0.1382 -0.2717
 1675TIP3    H1 4989   7.218   2.936   4.256  0.9164  1.3943  0.0633
 1675TIP3    H2 4990   7.134   2.999   4.146 -1.4941 -2.1694 -0.3177
 1676TIP3   OH2 4991   4.200   0.265   0.347 -0.2022  0.2977  0.2450
 1676TIP3    H1 4992   4.118   0.234   0.308 -0.1652  0.1180  0.3099
 1676TIP3    H2 4993   4.268   0.235   0.287 -0.1569  0.1454  0.3727
 1677TIP3   OH2 4994   3.274   2.992   5.706  0.5863 -0.5316 -0.0908
 1677TIP3    H1 4995   3.283   2.964   5.615 -0.1678  3.3672 -1.5770
 1677TIP3    H2 4996   3.337   3.063   5.715 -1.5349  1.2909  1.3713
 1678TIP3   OH2 4997   2.909   2.143   3.360  0.3143 -0.2755  0.0895
 1678TIP3    H1 4998   2.949   2.201   3.424 -0.4625  1.8668 -1.2796
 1678TIP3    H2 4999   2.822   2.125   3.394  0.0877  0.4399 -0.1129
 1679TIP3   OH2 5000   3.456   2.586   1.655  0.0265 -0.1075  0.5195
 1679TIP3    H1 5001   3.505   2.665   1.673 -0.4753  0.4808 -0.6223
 1679TIP3    H2 5002   3.519   2.526   1.615  0.0671  0.2562  0.0361
 1680TIP3   OH2 5003   7.136   5.111   0.842  0.2504  0.3085  0.5401
 1680TIP3    H1 5004   7.095   5.128   0.927  0.0644 -0.3859  0.5929
 1680TIP3    H2 5005   7.146   5.198   0.803 -0.3488  0.5691  0.9532
 1681TIP3   OH2 5006   4.428   6.446   1.723  0.3187 -0.4343  0.0499
 1681TIP3    H1 5007   4.478   6.388   1.782 -0.4568  0.0344  1.2144
 1681TIP3    H2 5008   4.461   6.534   1.742  0.8838 -0.3906 -1.0840
 1682TIP3   OH2 5009   2.184   5.860   0.257  0.0507  0.3687 -0.2206
 1682TIP3    H1 5010   2.227   5.782   0.291 -1.0819 -0.2986 -0.2423
 1682TIP3    H2 5011   2.249   5.929   0.263 -0.4026  0.6950  4.6196
 1683TIP3   OH2 5012   2.997   0.312   2.663 -0.2779 -0.0746  0.1563
 1683TIP3    H1 5013   3.065   0.278   2.721  0.6361  0.3663 -0.6260
 1683TIP3    H2 5014   3.043   0.373   2.606 -1.4642  0.7744  0.0597
 1684TIP3   OH2 5015   3.300   1.766   5.290 -0.2268 -0.3022 -0.0818
 1684TIP3    H1 5016   3.256   1.697   5.241  2.0327 -0.5689 -1.8967
 1684TIP3    H2 5017   3.369   1.722   5.339  0.1530  0.4580  0.0906
 1685TIP3   OH2 5018   2.913   4.502   4.934 -0.1033 -0.2614 -0.4492
 1685TIP3    H1 5019   2.853   4.483   4.861 -0.5777 -0.6543  0.0343
 1685TIP3    H2 5020   2.891   4.591   4.961  0.6574  0.2063 -1.3338
 1686TIP3   OH2 5021   1.604   4.705   2.778  0.9765  0.0711 -0.4909
 1686TIP3    H1 5022   1.548   4.776   2.746  0.7538  0.4749  0.7702
 1686TIP3    H2 5023   1.678   4.750   2.819  2.6112 -0.4374 -2.6546
 1687TIP3   OH2 5024   3.340   1.189   4.814  0.4092 -0.0871 -0.2479
 1687TIP3    H1 5025   3.253   1.150   4.809  0.2197  0.3780 -0.6677
 1687TIP3    H2 5026   3.324   1.283   4.824  0.8540  0.0627 -0.8274
 1688TIP3   OH2 5027   6.328   3.522   3.091  0.2350  0.1366 -0.4022
 1688TIP3    H1 5028   6.409   3.474   3.106  0.4054  0.5783  0.1227
 1688TIP3    H2 5029   6.259   3.463   3.122  0.5331  0.7506  1.5906
 1689TIP3   OH2 5030   0.427   6.260   2.537  0.0201  0.2122 -0.4669
 1689TIP3    H1 5031   0.356   6.322   2.557  0.6617  0.6410  0.5182
 1689TIP3    H2 5032   0.503   6.315   2.518  0.3994 -0.2664 -0.3546
 1690TIP3   OH2 5033   6.255   0.228   0.639  0.1788  0.3105  0.3228
 1690TIP3    H1 5034   6.175   0.198   0.596 -1.1377 -0.1035  2.9123
 1690TIP3    H2 5035   6.321   0.224   0.570 -2.3052  2.4475 -2.4687
 1691TIP3   OH2 5036   0.713   2.771   5.297 -0.7787 -0.2289  0.0357
 1691TIP3    H1 5037   0.792   2.719   5.314 -1.4368 -0.7824  1.6762
 1691TIP3    H2 5038   0.648   2.707   5.269 -0.7451  0.1848 -1.0218
 1692TIP3   OH2 5039   7.197   0.792   0.178 -0.0323 -0.1675  0.4384
 1692TIP3    H1 5040   7.283   0.794   0.135 -0.2994  0.0727 -0.0968
 1692TIP3    H2 5041   7.137   0.760   0.110 -0.0427 -2.3328  1.3994
 1693TIP3   OH2 5042   3.532   1.594   3.420 -0.3294 -0.6512  0.6148
 1693TIP3    H1 5043   3.570   1.599   3.508 -0.3685  0.8455  0.5782
 1693TIP3    H2 5044   3.462   1.529   3.428  0.0250 -0.9468  1.5440
 1694TIP3   OH2 5045   3.371   0.310   0.439  0.4053 -0.0269 -0.6536
 1694TIP3    H1 5046   3.349   0.247   0.371  2.0526 -3.1627  1.4757
 1694TIP3    H2 5047   3.466   0.322   0.430  0.4012  0.7147  0.1467
 1695TIP3   OH2 5048   2.614   1.503   2.012  0.3401 -0.2014  0.3813
 1695TIP3    H1 5049   2.551   1.575   2.002  1.0184  0.2710 -0.6090
 1695TIP3    H2 5050   2.572   1.443   2.074 -0.0217  1.2803  1.6349
 1696TIP3   OH2 5051   6.259   0.317   5.802 -0.3039 -0.1622 -0.6799
 1696TIP3    H1 5052   6.291   0.365   5.878  2.7644 -2.3184 -0.4350
 1696TIP3    H2 5053   6.231   0.232   5.836  1.4061 -1.2848 -1.9229
 1697TIP3   OH2 5054   0.583   1.307   5.148  0.5874 -0.4461 -0.2127
 1697TIP3    H1 5055   0.501   1.351   5.128 -0.4425 -1.3380  1.7050
 1697TIP3    H2 5056   0.637   1.319   5.070 -0.3265  2.5003 -0.5136
 1698TIP3   OH2 5057   1.607   0.564   3.013  0.3411 -0.2888  0.1744
 1698TIP3    H1 5058   1.527   0.596   2.971 -0.1092  0.0110  1.2457
 1698TIP3    H2 5059   1.608   0.606   3.099  1.7419 -0.1578  0.1156
 1699TIP3   OH2 5060   1.402   3.875   0.170  0.5765 -0.1598 -0.6305
 1699TIP3    H1 5061   1.488   3.899   0.135  0.7544 -1.0223 -0.7965
 1699TIP3    H2 5062   1.404   3.908   0.261  1.4588 -1.0211 -0.3180
 1700TIP3   OH2 5063   6.082   4.876   4.471  0.1159  0.0270  0.3730
 1700TIP3    H1 5064   6.017   4.943   4.492 -1.4411 -1.3375  0.0873
 1700TIP3    H2 5065   6.092   4.826   4.553 -1.7088 -1.7843 -0.4312
 1701TIP3   OH2 5066   1.538   3.475   1.155  0.1858  0.1007 -0.1533
 1701TIP3    H1 5067   1.517   3.383   1.143  1.6221 -0.4754  1.3359
 1701TIP3    H2 5068   1.461   3.522   1.122 -1.2600 -1.6639  0.5397
 1702TIP3   OH2 5069   2.897   2.493   3.392 -0.6213  0.2109 -0.2416
 1702TIP3    H1 5070   2.988   2.493   3.360 -0.4496  2.4569  0.0574
 1702TIP3    H2 5071   2.848   2.446   3.325  0.5515  0.2025 -1.1304
 1703TIP3   OH2 5072   6.914   3.212   3.470  0.2295  0.3624  0.0232
 1703TIP3    H1 5073   6.995   3.237   3.515  1.0711 -0.7154 -0.8305
 1703TIP3    H2 5074   6.923   3.247   3.382  0.2725 -0.6701 -0.4045
 1704TIP3   OH2 5075   2.807   3.043   2.589 -0.6183 -0.3142 -0.2028
 1704TIP3    H1 5076   2.893   3.083   2.598 -0.5696 -0.7367  1.9157
 1704TIP3    H2 5077   2.746   3.110   2.623 -0.9416 -0.5782 -0.2600
 1705TIP3   OH2 5078   0.924   6.156   3.072  0.0904 -0.3012  0.1703
 1705TIP3    H1 5079   0.937   6.074   3.026 -2.9844 -2.6029  2.8785
 1705TIP3    H2 5080   0.992   6.158   3.139  1.3135  0.4094 -1.0376
 1706TIP3   OH2 5081   6.847   3.526   0.403 -0.0723  0.2508  0.3229
 1706TIP3    H1 5082   6.767   3.536   0.454  0.0401 -1.0536  0.8033
 1706TIP3    H2 5083   6.914   3.507   0.469  0.2112 -0.7753 -0.2404
 1707TIP3   OH2 5084   5.437   0.391   1.224 -0.3150  0.6560  0.4476
 1707TIP3    H1 5085   5.352   0.434   1.232 -0.6113  0.3680 -0.8535
 1707TIP3    H2 5086   5.453   0.389   1.130  0.5375 -0.4431  0.6034
 1708TIP3   OH2 5087   3.674   6.614   4.191  0.1013  0.0035  0.1238
 1708TIP3    H1 5088   3.609   6.623   4.260  1.1083  0.2879  1.0671
 1708TIP3    H2 5089   3.744   6.674   4.216  1.0068 -0.7390 -0.5320
 1709TIP3   OH2 5090   1.672   4.390   2.512  0.2715 -0.0255  0.0061
 1709TIP3    H1 5091   1.689   4.482   2.533  0.4458 -0.4007  1.7154
 1709TIP3    H2 5092   1.759   4.354   2.495  0.5014 -0.3450  1.6303
 1710TIP3   OH2 5093   7.111   2.940   4.525 -0.5980 -0.3323 -0.5354
 1710TIP3    H1 5094   7.087   2.919   4.434  1.1529 -0.2178 -1.0698
 1710TIP3    H2 5095   7.159   3.022   4.518  1.3618 -1.3514  0.1815
 1711TIP3   OH2 5096   4.752   5.239   0.854 -0.0781  0.1075  0.1582
 1711TIP3    H1 5097   4.758   5.216   0.761  0.1021  0.9863 -0.0527
 1711TIP3    H2 5098   4.700   5.319   0.856  2.2126  1.6878  0.5471
 1712TIP3   OH2 5099   2.070   1.239   0.769 -0.0967 -0.0248  0.6493
 1712TIP3    H1 5100   2.085   1.191   0.850  0.1129 -1.3209 -0.1270
 1712TIP3    H2 5101   1.988   1.204   0.735 -0.1780  0.5034  0.2918
 1713TIP3   OH2 5102   3.518   4.297   2.364 -0.1617  0.1483 -0.0821
 1713TIP3    H1 5103   3.462   4.293   2.286  0.8683 -0.1932 -0.8225
 1713TIP3    H2 5104   3.566   4.379   2.355  0.2014 -0.0526  0.0256
 1714TIP3   OH2 5105   0.858   4.608   0.884  0.1858 -0.1500  0.4628
 1714TIP3    H1 5106   0.873   4.676   0.818 -2.0410  0.3635  0.4030
 1714TIP3    H2 5107   0.890   4.527   0.843  1.7097  0.6358  0.0368
 1715TIP3   OH2 5108   1.438   4.491   1.189  0.3965 -0.1433  0.3939
 1715TIP3    H1 5109   1.398   4.577   1.192 -1.3137 -0.8631 -0.4318
 1715TIP3    H2 5110   1.528   4.505   1.217  0.2808  1.9725 -0.1649
 1716TIP3   OH2 5111   1.619   2.583   5.464  0.2281 -0.2752 -0.5343
 1716TIP3    H1 5112   1.609   2.647   5.534  1.7105  1.2156 -1.6128
 1716TIP3    H2 5113   1.646   2.502   5.508  0.5308  0.4561  0.6511
 1717TIP3   OH2 5114   3.217   0.908   2.862  0.4499  0.0081 -0.1768
 1717TIP3    H1 5115   3.201   0.897   2.956 -0.7959 -0.9062 -0.4638
 1717TIP3    H2 5116   3.309   0.885   2.850  0.3455 -0.9148  0.6797
 1718TIP3   OH2 5117   0.753   2.557   3.080 -0.0696  0.1316 -0.6725
 1718TIP3    H1 5118   0.804   2.554   2.999  2.3631  2.4206  0.6127
 1718TIP3    H2 5119   0.788   2.485   3.133  0.8365  0.7585 -0.3849
 1719TIP3   OH2 5120   2.998   6.374   4.737  0.0778  0.1046 -0.4255
 1719TIP3    H1 5121   2.929   6.395   4.800 -0.2204 -0.7590 -0.4595
 1719TIP3    H2 5122   2.963   6.403   4.653 -0.2120 -0.2488 -0.4295
 1720TIP3   OH2 5123   6.577   2.361   2.961 -0.1526  0.1869  0.3480
 1720TIP3    H1 5124   6.534   2.304   3.025 -0.1926 -0.3140 -0.1141
 1720TIP3    H2 5125   6.663   2.321   2.948 -0.1348  0.3013  0.1125
 1721TIP3   OH2 5126   4.937   1.981   5.008 -0.1785  0.0960 -0.4178
 1721TIP3    H1 5127   5.008   1.917   5.020  0.1386  0.6745  1.0943
 1721TIP3    H2 5128   4.919   1.980   4.914  1.3396 -0.6060 -0.7362
 1722TIP3   OH2 5129   5.227   4.544   4.324 -0.4089  0.4013  0.2059
 1722TIP3    H1 5130   5.202   4.635   4.305 -0.1850  0.6697  1.1702
 1722TIP3    H2 5131   5.315   4.535   4.288 -0.4022  0.5839  0.1769
 1723TIP3   OH2 5132   1.072   0.668   4.087 -0.5327  0.1334  0.0669
 1723TIP3    H1 5133   1.077   0.708   4.174 -0.1017 -0.5267  0.3497
 1723TIP3    H2 5134   1.006   0.721   4.041 -0.7779  0.4812  0.7924
 1724TIP3   OH2 5135   6.558   3.870   3.713 -0.8400  0.7042 -0.0473
 1724TIP3    H1 5136   6.567   3.854   3.807 -0.6974 -2.5761 -0.5162
 1724TIP3    H2 5137   6.480   3.924   3.705  0.3845  2.9893  2.0387
 1725TIP3   OH2 5138   4.113   6.696   3.204  0.3182  0.0881 -0.4488
 1725TIP3    H1 5139   4.022   6.691   3.173  0.5665 -1.0140 -1.0742
 1725TIP3    H2 5140   4.152   6.614   3.174  1.4044  0.3550  0.2031
 1726TIP3   OH2 5141   1.327   3.283   1.171  0.1411  0.3519  0.1010
 1726TIP3    H1 5142   1.264   3.338   1.217 -0.8766 -0.0308 -0.7945
 1726TIP3    H2 5143   1.288   3.267   1.086  1.2162 -0.3379 -0.2930
 1727TIP3   OH2 5144   5.960   3.964   4.439  0.4925 -0.1395  0.2683
 1727TIP3    H1 5145   6.017   3.898   4.479  0.1144 -0.3398  0.4758
 1727TIP3    H2 5146   5.887   3.973   4.501  0.4408  0.3205  0.1380
 1728TIP3   OH2 5147   3.990   5.970   3.883 -0.4451  0.4750 -0.5572
 1728TIP3    H1 5148   4.021   5.945   3.796  1.6337  1.3718 -0.1471
 1728TIP3    H2 5149   3.921   6.034   3.867  0.9630  1.8114 -1.6061
 1729TIP3   OH2 5150   1.212   5.538   2.134 -0.4589 -0.1695  0.1248
 1729TIP3    H1 5151   1.274   5.557   2.064 -0.9927 -2.1271 -0.9474
 1729TIP3    H2 5152   1.261   5.556   2.214  0.4630  1.2322 -0.6927
 1730TIP3   OH2 5153   6.002   2.360   4.283 -0.1056 -0.3901  0.1093
 1730TIP3    H1 5154   6.050   2.305   4.222 -0.0162  0.3934 -0.5486
 1730TIP3    H2 5155   6.052   2.441   4.287 -0.6680 -0.0502  0.4236
 1731TIP3   OH2 5156   1.612   3.929   3.047 -0.3013 -0.1740 -0.3414
 1731TIP3    H1 5157   1.542   3.951   2.985 -0.9160 -2.3975 -0.5132
 1731TIP3    H2 5158   1.567   3.915   3.130  0.0542 -0.7547 -0.2459
 1732TIP3   OH2 5159   6.318   6.288   3.402  0.3884  0.1349  0.3012
 1732TIP3    H1 5160   6.236   6.247   3.373  2.5009 -1.5281 -4.3255
 1732TIP3    H2 5161   6.350   6.232   3.473  0.3389 -2.9741 -1.9448
 1733TIP3   OH2 5162   3.928   4.507   0.746 -0.0260 -0.6897  0.0873
 1733TIP3    H1 5163   3.922   4.573   0.677  1.2163 -1.2942 -0.6339
 1733TIP3    H2 5164   3.841   4.507   0.786 -0.0799  1.3307  0.0883
 1734TIP3   OH2 5165   5.789   2.925   0.857  0.8021 -0.3807 -0.3630
 1734TIP3    H1 5166   5.852   2.888   0.919 -0.2267  0.0949  1.0161
 1734TIP3    H2 5167   5.840   2.939   0.777  2.4638  0.0872  0.7191
 1735TIP3   OH2 5168   4.908   2.741   2.607  0.2317  0.8387 -0.4161
 1735TIP3    H1 5169   4.891   2.649   2.629  3.3928  0.3960  0.6765
 1735TIP3    H2 5170   4.861   2.756   2.525  0.4672 -2.0642 -1.1630
 1736TIP3   OH2 5171   6.710   4.271   5.102  0.2632  0.1192 -0.0272
 1736TIP3    H1 5172   6.749   4.195   5.145  0.6542 -0.3497 -1.1904
 1736TIP3    H2 5173   6.751   4.346   5.144  1.0615 -0.3379  0.0244
 1737TIP3   OH2 5174   7.170   1.805   5.026  0.1491  0.5573  0.2568
 1737TIP3    H1 5175   7.156   1.832   5.117  0.7108  0.7558  0.2867
 1737TIP3    H2 5176   7.261   1.777   5.023 -0.1575 -0.4532 -0.0007
 1738TIP3   OH2 5177   6.923   2.114   0.585  0.7378  0.5096  0.0218
 1738TIP3    H1 5178   6.909   2.169   0.662 -0.4422 -0.1950  0.3292
 1738TIP3    H2 5179   6.837   2.106   0.545  1.1040 -0.1887 -0.6499
 1739TIP3   OH2 5180   5.928   6.058   1.576 -0.7620  0.0714 -0.6549
 1739TIP3    H1 5181   5.841   6.037   1.609 -0.5063 -1.1999 -0.7195
 1739TIP3    H2 5182   5.957   6.132   1.629  0.0463 -2.4769  2.7961
 1740TIP3   OH2 5183   5.123   3.938   5.376  0.6202 -0.1189 -0.5068
 1740TIP3    H1 5184   5.144   4.030   5.386 -0.2105  0.0925 -0.5948
 1740TIP3    H2 5185   5.052   3.936   5.312  0.7390 -0.8280 -0.6247
 1741TIP3   OH2 5186   3.373   2.136   2.356 -0.4205 -0.3709 -0.2085
 1741TIP3    H1 5187   3.442   2.129   2.290 -0.7394 -1.6425 -0.4440
 1741TIP3    H2 5188   3.296   2.096   2.314 -0.1157 -3.1309  1.5810
 1742TIP3   OH2 5189   3.558   0.367   2.155 -0.5227  0.2186 -0.2254
 1742TIP3    H1 5190   3.565   0.446   2.101 -1.1396  1.5483  1.5365
 1742TIP3    H2 5191   3.633   0.373   2.215 -1.0203 -0.1195  0.4372
 1743TIP3   OH2 5192   5.116   4.024   2.662 -0.3437  0.7431  0.2898
 1743TIP3    H1 5193   5.042   4.085   2.665 -2.0555 -1.2422  2.2096
 1743TIP3    H2 5194   5.141   4.013   2.754 -0.0634 -1.3510  0.0007
 1744TIP3   OH2 5195   2.395   4.099   3.492  0.0126  0.7723  0.1280
 1744TIP3    H1 5196   2.339   4.096   3.570  1.4668 -1.7148  1.2088
 1744TIP3    H2 5197   2.351   4.040   3.430 -0.2944  1.4797 -0.3389
 1745TIP3   OH2 5198   5.062   3.113   3.767 -0.3240  0.2822  0.6373
 1745TIP3    H1 5199   5.050   3.076   3.855  0.6770 -2.1974 -0.1824
 1745TIP3    H2 5200   5.155   3.135   3.764 -0.3686  0.4033  0.2070
 1746TIP3   OH2 5201   3.616   1.921   2.044 -0.0302 -0.0397 -0.1297
 1746TIP3    H1 5202   3.672   1.948   2.116  0.1542  0.2745 -0.3871
 1746TIP3    H2 5203   3.527   1.938   2.076 -0.0770 -1.9607  0.8554
 1747TIP3   OH2 5204   6.120   2.414   1.164  0.2072  0.1462  0.0205
 1747TIP3    H1 5205   6.096   2.471   1.236 -1.6424  0.7251 -0.9981
 1747TIP3    H2 5206   6.092   2.461   1.085 -1.0206 -1.9360 -0.8826
 1748TIP3   OH2 5207   4.542   1.553   5.562 -0.4387 -0.0032  0.8412
 1748TIP3    H1 5208   4.542   1.648   5.550  0.1541  0.0962  1.5887
 1748TIP3    H2 5209   4.457   1.535   5.603 -0.9272  0.0859 -0.0979
 1749TIP3   OH2 5210   2.250   4.425   1.935  0.8014 -0.6555 -0.4245
 1749TIP3    H1 5211   2.279   4.393   1.850  1.0747 -2.3931  0.2813
 1749TIP3    H2 5212   2.185   4.361   1.964 -0.4414  0.7434  0.0141
 1750TIP3   OH2 5213   6.964   2.721   4.219 -0.0759 -0.4429 -0.1909
 1750TIP3    H1 5214   7.039   2.732   4.161 -0.3380  0.5148 -0.3667
 1750TIP3    H2 5215   6.998   2.672   4.293  0.3871 -1.2261 -0.9011
 1751TIP3   OH2 5216   5.707   5.826   2.707  0.1029 -0.6886  0.3217
 1751TIP3    H1 5217   5.701   5.731   2.700  1.2291 -0.7811  0.3885
 1751TIP3    H2 5218   5.619   5.854   2.733 -0.3948 -1.6459 -0.2691
 1752TIP3   OH2 5219   3.315   0.879   5.701  0.1703  0.7358 -0.6419
 1752TIP3    H1 5220   3.264   0.799   5.692  1.2419 -0.1335  0.6753
 1752TIP3    H2 5221   3.391   0.854   5.753 -0.8807  3.2368  2.3744
 1753TIP3   OH2 5222   5.915   1.323   1.532 -0.3509  0.4119 -0.1691
 1753TIP3    H1 5223   5.992   1.357   1.576 -0.1302 -0.7280  0.3709
 1753TIP3    H2 5224   5.941   1.235   1.504 -1.8253 -0.4546  1.0736
 1754TIP3   OH2 5225   7.006   5.349   4.878  0.7802  0.0784  0.6624
 1754TIP3    H1 5226   6.936   5.407   4.850  1.4294  1.1074  1.0809
 1754TIP3    H2 5227   7.022   5.374   4.970 -1.5366 -3.4135  2.2039
 1755TIP3   OH2 5228   3.087   6.052   2.414 -0.2486 -0.0856 -0.5550
 1755TIP3    H1 5229   3.066   6.049   2.508 -2.4456  0.6721 -0.9696
 1755TIP3    H2 5230   3.129   6.137   2.401 -1.2431  0.4374 -0.4645
 1756TIP3   OH2 5231   3.353   2.520   5.131 -0.2661 -0.0649 -0.1970
 1756TIP3    H1 5232   3.295   2.474   5.193  0.3028 -0.7538 -0.1547
 1756TIP3    H2 5233   3.366   2.457   5.060 -0.9231  0.7289 -1.0372
 1757TIP3   OH2 5234   3.864   1.508   3.869  0.4605  0.4752 -0.4490
 1757TIP3    H1 5235   3.823   1.578   3.920 -0.0547 -0.5580  0.5965
 1757TIP3    H2 5236   3.803   1.434   3.875  2.0934 -0.8647  0.5077
 1758TIP3   OH2 5237   0.134   2.738   3.757 -0.3147  0.0692 -0.2556
 1758TIP3    H1 5238   0.093   2.802   3.699  0.6263 -0.5231 -1.6370
 1758TIP3    H2 5239   0.129   2.656   3.709 -3.9021 -1.6052  2.5429
 1759TIP3   OH2 5240   3.401   5.338   2.378  0.0955  0.1690  0.2635
 1759TIP3    H1 5241   3.493   5.342   2.355  0.1416  0.2507  0.4554
 1759TIP3    H2 5242   3.359   5.405   2.325  0.4284  1.3657  1.4602
 1760TIP3   OH2 5243   1.552   4.223   3.209 -0.5465 -0.5099  0.0173
 1760TIP3    H1 5244   1.631   4.169   3.209 -0.9585 -1.2453  2.7400
 1760TIP3    H2 5245   1.575   4.300   3.260 -0.7510  0.7331 -1.6710
 1761TIP3   OH2 5246   2.000   5.958   5.808 -0.1113  0.1308  0.3224
 1761TIP3    H1 5247   2.080   6.009   5.799 -1.1348  1.4313 -2.0844
 1761TIP3    H2 5248   1.945   6.009   5.867 -0.0773  0.3962  0.1214
 1762TIP3   OH2 5249   3.798   5.742   0.996 -0.2033  0.5323  0.5589
 1762TIP3    H1 5250   3.770   5.704   1.079 -1.2195 -0.9160 -0.4129
 1762TIP3    H2 5251   3.754   5.827   0.993 -2.4141 -0.5547  0.3035
 1763TIP3   OH2 5252   7.111   5.112   2.483  0.0094 -0.1462  0.3938
 1763TIP3    H1 5253   7.062   5.189   2.454  1.7210  2.0092  2.8329
 1763TIP3    H2 5254   7.199   5.126   2.448  0.3038 -1.0798  0.7463
 1764TIP3   OH2 5255   2.499   1.997   4.720 -0.1146 -0.0767 -0.1071
 1764TIP3    H1 5256   2.440   1.947   4.776 -0.6429  0.7511  0.0907
 1764TIP3    H2 5257   2.539   2.062   4.778 -0.4287  0.5818 -0.6101
 1765TIP3   OH2 5258   4.309   5.800   0.498 -0.0189 -0.5771  0.9450
 1765TIP3    H1 5259   4.249   5.744   0.548 -0.3192 -1.3778 -0.2515
 1765TIP3    H2 5260   4.275   5.888   0.509 -0.8966 -0.9171  1.0128
 1766TIP3   OH2 5261   5.361   3.601   2.829  0.2321 -0.1569 -0.3476
 1766TIP3    H1 5262   5.375   3.538   2.758 -0.1603 -2.3132  1.3687
 1766TIP3    H2 5263   5.268   3.621   2.825  0.3911  0.4742 -1.0107
 1767TIP3   OH2 5264   3.691   6.158   2.169 -0.2705 -0.1831  0.5733
 1767TIP3    H1 5265   3.723   6.245   2.144  3.9147 -1.5558  0.3830
 1767TIP3    H2 5266   3.740   6.098   2.113 -0.3133 -2.8117  3.1396
 1768TIP3   OH2 5267   0.536   3.597   3.323  0.0961 -0.0083 -0.2741
 1768TIP3    H1 5268   0.620   3.582   3.367  0.1111 -0.2894 -0.3948
 1768TIP3    H2 5269   0.472   3.556   3.381  0.1714 -0.8432 -0.7672
 1769TIP3   OH2 5270   5.939   1.921   4.715  0.3339  0.4860 -0.1126
 1769TIP3    H1 5271   5.912   1.963   4.633  0.0643  0.6029  0.0353
 1769TIP3    H2 5272   5.982   1.992   4.764  2.9564 -0.1906 -1.2617
 1770TIP3   OH2 5273   5.279   5.623   4.021  0.3263 -0.6480 -0.2436
 1770TIP3    H1 5274   5.265   5.615   4.116  0.0393 -0.0387 -0.2352
 1770TIP3    H2 5275   5.226   5.697   3.995 -1.5722 -2.2759 -1.3058
 1771TIP3   OH2 5276   0.047   3.550   3.875 -0.0357 -0.8317  0.2937
 1771TIP3    H1 5277   0.086   3.463   3.876  3.3492  0.5522  0.0268
 1771TIP3    H2 5278   0.066   3.587   3.961 -0.4282  0.0681  0.0098
 1772TIP3   OH2 5279   3.021   4.701   3.664  0.2705  0.3751  0.2899
 1772TIP3    H1 5280   3.108   4.663   3.660 -0.0326 -0.2515 -0.6756
 1772TIP3    H2 5281   3.016   4.741   3.751  0.1728 -2.8638  1.9330
 1773TIP3   OH2 5282   3.946   4.783   3.744 -0.2420  0.2011  0.4014
 1773TIP3    H1 5283   3.981   4.789   3.655 -0.0907  1.0519  0.5169
 1773TIP3    H2 5284   3.912   4.870   3.763  1.3712  0.5638  1.8577
 1774TIP3   OH2 5285   5.622   4.716   3.268 -0.1796 -0.2140 -0.4454
 1774TIP3    H1 5286   5.597   4.638   3.317 -0.4710  0.0647 -0.1425
 1774TIP3    H2 5287   5.576   4.788   3.312 -0.6620  0.0056 -1.2905
 1775TIP3   OH2 5288   4.355   6.487   4.361  0.5753 -0.3448 -0.0777
 1775TIP3    H1 5289   4.360   6.414   4.299  3.4265  0.2759 -0.7223
 1775TIP3    H2 5290   4.370   6.446   4.446 -2.8481 -1.1284  0.2651
 1776TIP3   OH2 5291   3.120   2.572   1.523  0.4823 -0.7599  0.4733
 1776TIP3    H1 5292   3.104   2.506   1.590 -0.0723 -1.0289  0.0867
 1776TIP3    H2 5293   3.147   2.650   1.571 -1.9411 -0.2939  1.1896
 1777TIP3   OH2 5294   1.530   5.289   1.724  0.4768  0.1110  0.1311
 1777TIP3    H1 5295   1.477   5.335   1.658 -0.2013  0.6461  1.0264
 1777TIP3    H2 5296   1.620   5.305   1.697  0.2155 -1.0398 -1.5830
 1778TIP3   OH2 5297   0.898   5.045   0.724 -0.5617  0.4214  0.0455
 1778TIP3    H1 5298   0.893   5.129   0.679  0.8370  0.1896 -0.5965
 1778TIP3    H2 5299   0.940   4.987   0.661  0.0328 -0.3113  1.0948
 1779TIP3   OH2 5300   1.087   3.254   0.664 -0.3391 -0.0571  0.0134
 1779TIP3    H1 5301   1.020   3.286   0.604  0.0943  1.0851  0.1063
 1779TIP3    H2 5302   1.041   3.196   0.724 -0.7393 -1.4209 -1.5401
 1780TIP3   OH2 5303   0.198   0.774   4.121 -0.0693 -0.1351  0.3268
 1780TIP3    H1 5304   0.279   0.727   4.104 -0.9840 -1.1353 -1.4869
 1780TIP3    H2 5305   0.129   0.717   4.087 -1.2878  2.0998 -1.1878
 1781TIP3   OH2 5306   5.480   6.005   0.642 -0.4017  0.0060 -0.2346
 1781TIP3    H1 5307   5.437   6.070   0.586 -1.5150 -0.3952  0.1307
 1781TIP3    H2 5308   5.556   5.976   0.592 -1.7279 -0.8408 -1.8392
 1782TIP3   OH2 5309   3.095   3.259   1.988  0.0166 -0.2286  0.3322
 1782TIP3    H1 5310   3.176   3.297   1.954  0.0211 -1.4017 -1.0651
 1782TIP3    H2 5311   3.117   3.168   2.007 -1.4662 -1.2658 -2.3044
 1783TIP3   OH2 5312   2.602   0.365   0.940 -0.3047  0.3056 -0.1486
 1783TIP3    H1 5313   2.673   0.429   0.933 -0.5750  0.6725  0.3708
 1783TIP3    H2 5314   2.574   0.349   0.850 -0.0200  0.6760 -0.3045
 1784TIP3   OH2 5315   1.843   3.204   3.918 -0.0036  0.2999  0.0939
 1784TIP3    H1 5316   1.916   3.262   3.942  0.3321 -0.3120  0.5629
 1784TIP3    H2 5317   1.814   3.166   4.001 -1.0299  0.7214 -0.0490
 1785TIP3   OH2 5318   6.375   2.636   4.675 -0.3359  0.3721  0.2967
 1785TIP3    H1 5319   6.378   2.725   4.640 -1.8011  0.1659 -0.4190
 1785TIP3    H2 5320   6.415   2.642   4.762  0.8486  1.4395 -0.3060
 1786TIP3   OH2 5321   4.404   3.225   1.305 -0.0558  0.5069  0.0952
 1786TIP3    H1 5322   4.371   3.260   1.223 -1.5877 -0.5215  0.2422
 1786TIP3    H2 5323   4.421   3.303   1.359  0.5803  1.1657 -1.0214
 1787TIP3   OH2 5324   1.848   0.976   3.236 -0.0382  0.1617  0.4551
 1787TIP3    H1 5325   1.806   0.972   3.150  1.4097 -1.0708 -0.2522
 1787TIP3    H2 5326   1.800   1.043   3.284 -0.4126  1.4099 -1.5714
 1788TIP3   OH2 5327   3.558   2.062   0.979 -0.5451 -0.0183  0.4819
 1788TIP3    H1 5328   3.564   2.017   1.064 -1.0866 -0.4494  0.3031
 1788TIP3    H2 5329   3.573   2.154   1.000 -0.3931 -0.1567  1.0091
 1789TIP3   OH2 5330   5.293   1.116   4.593 -0.1702 -0.0769 -0.3883
 1789TIP3    H1 5331   5.307   1.057   4.667  0.5140 -0.5329 -0.8814
 1789TIP3    H2 5332   5.236   1.067   4.534 -0.1436  0.0189 -0.4926
 1790TIP3   OH2 5333   5.017   0.482   3.481 -0.8365  0.1819  0.1164
 1790TIP3    H1 5334   4.951   0.442   3.425  0.5280 -0.1778 -1.2848
 1790TIP3    H2 5335   5.024   0.423   3.556 -1.0162 -0.5848 -0.4633
 1791TIP3   OH2 5336   3.106   2.287   5.264  0.6001  0.0256 -0.2172
 1791TIP3    H1 5337   3.109   2.374   5.224  1.1881 -0.5193 -1.4134
 1791TIP3    H2 5338   3.100   2.226   5.190 -0.3346 -0.9469  0.6116
 1792TIP3   OH2 5339   5.009   3.487   2.163  0.8069  0.5191 -0.0624
 1792TIP3    H1 5340   4.995   3.538   2.243 -0.5438 -0.6786  0.5035
 1792TIP3    H2 5341   4.991   3.549   2.092  1.2951  1.3902  0.5486
 1793TIP3   OH2 5342   3.029   6.110   2.019 -0.5935  0.7787  0.5555
 1793TIP3    H1 5343   3.111   6.134   2.063 -0.4248  1.8514 -0.3134
 1793TIP3    H2 5344   3.048   6.118   1.926 -1.9621  2.0645  0.3423
 1794TIP3   OH2 5345   2.597   3.296   2.494 -0.6808 -0.0929 -0.0463
 1794TIP3    H1 5346   2.678   3.343   2.473 -0.0713 -0.7777  0.6732
 1794TIP3    H2 5347   2.572   3.328   2.581 -1.5762  0.6174 -0.5557
 1795TIP3   OH2 5348   5.491   4.726   5.467  0.1674 -0.6410  0.0569
 1795TIP3    H1 5349   5.578   4.692   5.445 -0.1239  0.0423 -2.4834
 1795TIP3    H2 5350   5.456   4.758   5.384 -2.5423 -0.9164  0.9882
 1796TIP3   OH2 5351   4.247   4.718   2.952 -0.3603  0.5928 -0.1836
 1796TIP3    H1 5352   4.159   4.694   2.922 -0.6994  1.2483  0.2779
 1796TIP3    H2 5353   4.292   4.749   2.873 -1.3054  2.4940 -0.0312
 1797TIP3   OH2 5354   1.276   2.367   1.181  0.3449 -0.1136 -0.3780
 1797TIP3    H1 5355   1.202   2.368   1.242  0.1481  1.1076 -0.6166
 1797TIP3    H2 5356   1.258   2.439   1.120  1.6892  0.1447 -0.4942
 1798TIP3   OH2 5357   6.510   1.487   0.864  0.5277  0.4089  0.3444
 1798TIP3    H1 5358   6.604   1.473   0.851  1.0709  2.6565  1.3508
 1798TIP3    H2 5359   6.504   1.577   0.894 -1.8520 -0.1080  1.6069
 1799TIP3   OH2 5360   4.161   2.130   2.083  0.0178  0.1011  0.0408
 1799TIP3    H1 5361   4.066   2.140   2.072 -0.3051  0.5914  2.6743
 1799TIP3    H2 5362   4.180   2.045   2.044 -1.5413 -0.0973 -0.3719
 1800TIP3   OH2 5363   6.471   6.493   2.944  0.4387 -0.7641  0.2953
 1800TIP3    H1 5364   6.399   6.486   2.882 -0.1237  0.7366  0.7353
 1800TIP3    H2 5365   6.429   6.505   3.029  1.1958  0.0938  0.5605
 1801TIP3   OH2 5366   4.486   5.937   5.297  0.0087  0.3204  0.0816
 1801TIP3    H1 5367   4.405   5.976   5.330  0.6852 -0.0249  2.2422
 1801TIP3    H2 5368   4.540   6.013   5.272  0.2967  0.7257  1.8089
 1802TIP3   OH2 5369   2.793   4.135   5.609  0.1029 -0.2593 -0.4035
 1802TIP3    H1 5370   2.753   4.221   5.616  0.4567 -0.0406 -0.9960
 1802TIP3    H2 5371   2.721   4.074   5.624 -0.4401  0.1310 -1.3220
 1803TIP3   OH2 5372   5.793   3.750   5.281  0.1212  0.3826 -0.1392
 1803TIP3    H1 5373   5.718   3.707   5.322  0.6668 -2.0993 -1.5322
 1803TIP3    H2 5374   5.756   3.795   5.205 -0.0253 -0.7637 -0.7755
 1804TIP3   OH2 5375   0.142   5.982   1.026 -0.2755 -0.6415 -0.4638
 1804TIP3    H1 5376   0.164   5.984   0.933 -0.2125 -0.7333 -0.4510
 1804TIP3    H2 5377   0.227   5.972   1.071 -0.1825  0.4844 -0.3430
 1805TIP3   OH2 5378   3.358   1.493   4.156 -0.0534 -0.0090 -0.3100
 1805TIP3    H1 5379   3.267   1.485   4.128  0.3234 -1.9159 -1.1736
 1805TIP3    H2 5380   3.364   1.437   4.234  0.2278  0.7144  0.2024
 1806TIP3   OH2 5381   1.839   4.552   1.365 -0.2961  0.3947  0.3791
 1806TIP3    H1 5382   1.784   4.508   1.430 -0.7873  0.8522  0.2814
 1806TIP3    H2 5383   1.783   4.559   1.288  0.4673 -0.6592 -0.3019
 1807TIP3   OH2 5384   3.291   3.323   1.582  0.5214  0.1546 -0.2993
 1807TIP3    H1 5385   3.266   3.377   1.507 -0.9098  1.8567  1.2892
 1807TIP3    H2 5386   3.374   3.360   1.612  1.5964 -1.1438 -1.5497
 1808TIP3   OH2 5387   5.566   3.723   4.117 -0.4583 -0.3753  0.0565
 1808TIP3    H1 5388   5.523   3.792   4.068  1.7680  0.0576 -1.4285
 1808TIP3    H2 5389   5.659   3.745   4.114  0.1008 -2.2354  1.4814
 1809TIP3   OH2 5390   2.498   0.133   1.228  0.2968  0.3347  0.7493
 1809TIP3    H1 5391   2.557   0.206   1.246  3.3060 -1.4956 -0.9140
 1809TIP3    H2 5392   2.465   0.151   1.140  1.0885 -0.2731  0.3130
 1810TIP3   OH2 5393   3.918   4.095   2.224 -0.3937 -0.0691 -0.5183
 1810TIP3    H1 5394   3.969   4.117   2.302 -0.2191 -0.0806 -0.6290
 1810TIP3    H2 5395   3.918   4.176   2.173  1.0235 -0.5730 -1.3616
 1811TIP3   OH2 5396   5.831   4.526   3.424  0.0861  0.5285 -0.4546
 1811TIP3    H1 5397   5.887   4.529   3.502 -0.9614  0.4934  0.3075
 1811TIP3    H2 5398   5.798   4.436   3.423  0.3959  0.4169 -1.1680
 1812TIP3   OH2 5399   3.445   3.708   1.169 -0.6561 -0.2023  0.1864
 1812TIP3    H1 5400   3.488   3.721   1.253 -0.0167  1.4966 -0.3593
 1812TIP3    H2 5401   3.361   3.668   1.191 -0.3151 -0.2000  1.5869
 1813TIP3   OH2 5402   6.785   3.895   3.532  0.5069 -0.4034 -0.5311
 1813TIP3    H1 5403   6.859   3.930   3.581  0.0009 -0.6344  0.4199
 1813TIP3    H2 5404   6.711   3.901   3.592  0.2212 -2.2421 -0.6394
 1814TIP3   OH2 5405   1.052   0.429   5.834 -0.1103  0.6364  0.2101
 1814TIP3    H1 5406   1.014   0.413   5.748 -1.5729 -0.2276  0.9846
 1814TIP3    H2 5407   1.138   0.468   5.815 -0.7757  1.3459 -1.6097
 1815TIP3   OH2 5408   0.446   3.137   4.009 -0.3304  0.6078  0.2786
 1815TIP3    H1 5409   0.367   3.165   4.057 -0.9465 -0.8843  0.1700
 1815TIP3    H2 5410   0.445   3.190   3.929  0.1048  2.3274  1.3427
 1816TIP3   OH2 5411   5.203   4.842   1.349  0.3810  0.2526 -0.2937
 1816TIP3    H1 5412   5.124   4.860   1.298  1.1289  0.4497 -1.4193
 1816TIP3    H2 5413   5.173   4.788   1.422 -0.6184 -0.7044 -1.3685
 1817TIP3   OH2 5414   4.682   2.694   0.557 -0.3624 -0.0212 -0.0921
 1817TIP3    H1 5415   4.692   2.606   0.521  1.2468  1.2019 -2.9343
 1817TIP3    H2 5416   4.758   2.705   0.615 -0.2227 -0.2621 -0.2300
 1818TIP3   OH2 5417   0.193   6.324   4.624  0.3491 -0.2921  0.3459
 1818TIP3    H1 5418   0.119   6.384   4.626  0.0422 -0.6769  1.9497
 1818TIP3    H2 5419   0.154   6.237   4.626  0.7965 -0.5960 -1.7121
 1819TIP3   OH2 5420   3.808   0.129   0.124  0.0226  0.3503 -0.3198
 1819TIP3    H1 5421   3.821   0.179   0.205 -1.6319 -0.0431  0.2361
 1819TIP3    H2 5422   3.886   0.074   0.116 -1.1668 -2.0863  2.8656
 1820TIP3   OH2 5423   0.972   2.787   2.730  0.0219 -0.1150 -0.6402
 1820TIP3    H1 5424   1.054   2.810   2.773 -0.0810 -0.2802 -0.3549
 1820TIP3    H2 5425   0.998   2.730   2.657  0.1295 -0.4470 -0.3423
 1821TIP3   OH2 5426   5.572   1.088   2.099 -0.1694  0.0227 -0.1647
 1821TIP3    H1 5427   5.598   1.039   2.177  0.3364  0.3542 -0.1198
 1821TIP3    H2 5428   5.488   1.128   2.122  0.1268  0.3785  0.3288
 1822TIP3   OH2 5429   4.423   4.800   1.555 -0.0387 -0.2220  0.2329
 1822TIP3    H1 5430   4.442   4.710   1.528  0.1221  0.6358 -2.7988
 1822TIP3    H2 5431   4.486   4.853   1.507  0.3661  1.5225  2.5335
 1823TIP3   OH2 5432   4.524   1.960   3.190 -0.3139  0.3747  0.0170
 1823TIP3    H1 5433   4.503   2.039   3.140  1.0932  1.1636  0.5881
 1823TIP3    H2 5434   4.553   1.993   3.275  1.3545 -0.6733 -0.0977
 1824TIP3   OH2 5435   3.860   1.167   3.081 -0.2401 -0.1607  0.4294
 1824TIP3    H1 5436   3.840   1.085   3.037 -1.9955 -0.1217  1.0791
 1824TIP3    H2 5437   3.952   1.160   3.106 -0.2722 -1.7708  0.1695
 1825TIP3   OH2 5438   6.528   5.838   3.654  0.5750 -0.2360  0.3601
 1825TIP3    H1 5439   6.505   5.930   3.661 -0.7658 -0.6659  2.1374
 1825TIP3    H2 5440   6.558   5.813   3.741 -0.3167 -1.7879  0.2615
 1826TIP3   OH2 5441   0.749   4.252   0.927 -0.2677 -0.0456 -0.0909
 1826TIP3    H1 5442   0.759   4.254   1.022 -1.7130  0.8112  0.0674
 1826TIP3    H2 5443   0.707   4.335   0.906  0.7099  0.1108 -1.5835
 1827TIP3   OH2 5444   4.496   4.041   2.351  0.1149  0.2102  0.2107
 1827TIP3    H1 5445   4.525   3.961   2.308 -1.3452 -0.2053 -0.0611
 1827TIP3    H2 5446   4.577   4.086   2.376  0.9953 -0.1195 -1.8685
 1828TIP3   OH2 5447   1.401   3.984   4.642 -0.7602  0.7623 -0.1876
 1828TIP3    H1 5448   1.381   3.974   4.735  0.8494 -0.7388  0.0438
 1828TIP3    H2 5449   1.492   4.014   4.641  0.3171 -2.1995 -1.2529
 1829TIP3   OH2 5450   2.565   6.277   0.125  0.1736  0.3605 -0.3848
 1829TIP3    H1 5451   2.655   6.247   0.128  0.1381  0.2656 -0.2788
 1829TIP3    H2 5452   2.569   6.362   0.082  0.2389  0.0506 -1.0069
 1830TIP3   OH2 5453   5.112   6.300   4.361  0.3338 -0.2562  0.0477
 1830TIP3    H1 5454   5.031   6.252   4.341  0.6241 -0.1220 -1.5652
 1830TIP3    H2 5455   5.096   6.388   4.326 -0.0801  0.8278  2.7032
 1831TIP3   OH2 5456   4.667   6.259   3.652  0.5375 -0.4061 -0.4588
 1831TIP3    H1 5457   4.666   6.277   3.746 -0.1593 -1.1090 -0.3252
 1831TIP3    H2 5458   4.649   6.344   3.611  0.3142 -0.1997  0.0576
 1832TIP3   OH2 5459   1.034   6.006   5.573 -0.2282  0.0203  0.2534
 1832TIP3    H1 5460   1.118   6.029   5.535  0.0116 -0.3516  0.5462
 1832TIP3    H2 5461   1.043   5.914   5.597 -1.4509 -0.6560 -1.6702
 1833TIP3   OH2 5462   3.117   5.572   5.038 -0.1497 -0.3609  0.5289
 1833TIP3    H1 5463   3.072   5.647   5.077  0.7138  0.8356 -0.6869
 1833TIP3    H2 5464   3.054   5.500   5.043 -1.6884  0.9141  0.0461
 1834TIP3   OH2 5465   3.799   1.146   0.342  0.3243 -0.3013 -0.3095
 1834TIP3    H1 5466   3.885   1.183   0.326  0.6813 -0.4716  1.1008
 1834TIP3    H2 5467   3.806   1.055   0.315  0.3798 -0.1577 -0.7961
 1835TIP3   OH2 5468   0.086   5.945   2.468 -0.1445 -0.2605 -0.1143
 1835TIP3    H1 5469   0.175   5.978   2.456  0.1317 -1.1024 -0.3858
 1835TIP3    H2 5470   0.048   6.003   2.534  0.3126  0.6477 -0.6313
 1836TIP3   OH2 5471   5.517   6.268   2.111 -0.0841  0.4535 -0.7557
 1836TIP3    H1 5472   5.499   6.361   2.097 -0.8077  0.5970  0.9191
 1836TIP3    H2 5473   5.578   6.266   2.185 -1.8754 -0.4382  0.7890
 1837TIP3   OH2 5474   6.312   2.856   0.337  0.3754  0.1447 -0.6811
 1837TIP3    H1 5475   6.372   2.865   0.411  0.3342 -1.3542 -0.4356
 1837TIP3    H2 5476   6.366   2.870   0.260  0.4985  1.3282 -0.3911
 1838TIP3   OH2 5477   7.036   4.182   4.276 -0.6427 -0.0280 -0.4665
 1838TIP3    H1 5478   7.016   4.262   4.324  1.5124  0.7159 -0.6879
 1838TIP3    H2 5479   6.989   4.113   4.322 -1.8899  1.2303  0.2192
 1839TIP3   OH2 5480   2.646   4.941   4.820  0.2711  0.1827  0.1320
 1839TIP3    H1 5481   2.576   4.882   4.791  1.2928 -1.9200  1.6965
 1839TIP3    H2 5482   2.718   4.882   4.845  2.1964  2.2194 -0.3591
 1840TIP3   OH2 5483   5.211   6.783   1.931 -0.2585 -0.1366  0.2914
 1840TIP3    H1 5484   5.271   6.711   1.908  1.0881  1.1675 -0.4586
 1840TIP3    H2 5485   5.269   6.858   1.946 -1.6746  0.9508  0.4773
 1841TIP3   OH2 5486   0.269   0.493   0.528 -0.0144 -0.1941 -0.3346
 1841TIP3    H1 5487   0.238   0.429   0.593 -0.6345 -0.4976 -0.9129
 1841TIP3    H2 5488   0.223   0.469   0.447  0.7866  0.1382 -0.9061
 1842TIP3   OH2 5489   0.387   3.662   5.678 -0.0003 -0.2910  0.0498
 1842TIP3    H1 5490   0.455   3.680   5.743  1.9915 -0.6707 -1.8069
 1842TIP3    H2 5491   0.355   3.749   5.653 -0.5000 -0.1231  1.1828
 1843TIP3   OH2 5492   0.855   6.617   1.607  0.5084  0.4321 -0.0671
 1843TIP3    H1 5493   0.950   6.600   1.609  0.6273  1.1551  1.6839
 1843TIP3    H2 5494   0.817   6.549   1.663  0.2911  1.6673  1.3509
 1844TIP3   OH2 5495   5.236   3.721   3.688  0.2562 -0.0470 -0.2077
 1844TIP3    H1 5496   5.153   3.735   3.644  1.4490 -1.7663 -3.3253
 1844TIP3    H2 5497   5.216   3.660   3.759 -1.4114  1.2168  0.4711
 1845TIP3   OH2 5498   5.434   0.057   5.491 -0.0964 -0.1566  0.0949
 1845TIP3    H1 5499   5.386   0.054   5.574  0.1878  0.1592  0.2750
 1845TIP3    H2 5500   5.415   0.145   5.456  0.1580 -0.1181  0.0521
 1846TIP3   OH2 5501   0.149   5.346   1.784  0.3705 -0.0280 -0.0773
 1846TIP3    H1 5502   0.193   5.431   1.784  0.6041 -0.1485 -0.3047
 1846TIP3    H2 5503   0.197   5.295   1.850 -0.8198  0.5514  1.2903
 1847TIP3   OH2 5504   3.220   3.223   4.084  0.2090  0.2944  0.6180
 1847TIP3    H1 5505   3.245   3.176   4.004 -1.7966  0.0966  0.0597
 1847TIP3    H2 5506   3.136   3.184   4.110  0.5529  0.7146  2.5402
 1848TIP3   OH2 5507   5.073   4.486   0.491 -0.3554 -0.1477  0.3783
 1848TIP3    H1 5508   4.998   4.545   0.502 -0.5656 -0.2009 -0.6782
 1848TIP3    H2 5509   5.044   4.404   0.532 -2.2196 -1.2403 -2.8222
 1849TIP3   OH2 5510   3.986   5.008   2.858  0.1298 -0.5258 -0.1992
 1849TIP3    H1 5511   3.931   4.930   2.870  0.5359 -0.5215  2.2359
 1849TIP3    H2 5512   4.032   4.992   2.776 -1.0921 -2.0351 -0.6456
 1850TIP3   OH2 5513   5.502   3.508   1.777  0.0289  0.0959  0.1590
 1850TIP3    H1 5514   5.469   3.444   1.715  1.2700  1.3968 -1.9513
 1850TIP3    H2 5515   5.542   3.456   1.847 -1.7835 -1.4078  0.1422
 1851TIP3   OH2 5516   6.786   2.407   1.372  0.1229 -0.1530 -0.3636
 1851TIP3    H1 5517   6.696   2.405   1.339 -1.1690 -1.7205  2.8303
 1851TIP3    H2 5518   6.793   2.329   1.427  3.1721  0.4384  0.2653
 1852TIP3   OH2 5519   0.198   0.411   2.280  0.3259  0.1813  0.2651
 1852TIP3    H1 5520   0.126   0.374   2.331 -0.1186  0.4295 -0.1693
 1852TIP3    H2 5521   0.224   0.490   2.329 -0.1839  0.4896  0.0401
 1853TIP3   OH2 5522   5.098   0.317   1.251 -0.4142 -0.4950 -0.1380
 1853TIP3    H1 5523   5.025   0.292   1.308 -0.3198 -1.2501 -0.3300
 1853TIP3    H2 5524   5.154   0.372   1.305 -1.0372 -0.0554  0.0636
 1854TIP3   OH2 5525   3.094   2.257   2.791  0.5456  0.6958  0.1704
 1854TIP3    H1 5526   3.151   2.271   2.715  0.5295  1.5881  0.3064
 1854TIP3    H2 5527   3.033   2.189   2.763  0.4483  1.1179 -0.6837
 1855TIP3   OH2 5528   6.914   1.959   5.244 -0.3682  0.2905  0.0928
 1855TIP3    H1 5529   6.995   1.946   5.292  0.3411 -0.3387 -1.2197
 1855TIP3    H2 5530   6.869   1.874   5.247 -0.5076  0.3581 -0.0120
 1856TIP3   OH2 5531   2.672   5.113   5.889  0.9489 -0.2649  0.0041
 1856TIP3    H1 5532   2.727   5.057   5.835 -1.3597 -0.2379 -2.6283
 1856TIP3    H2 5533   2.617   5.052   5.938 -0.3715 -0.4146 -1.5618
 1857TIP3   OH2 5534   2.888   2.263   1.121 -0.0251 -0.1330 -0.8756
 1857TIP3    H1 5535   2.919   2.326   1.056 -0.7566  1.3478  0.1421
 1857TIP3    H2 5536   2.911   2.302   1.206  0.1086 -1.5782 -0.2063
 1858TIP3   OH2 5537   6.709   4.233   0.613  0.0956  0.5250 -0.2999
 1858TIP3    H1 5538   6.683   4.294   0.544  0.1947  0.2072 -0.6251
 1858TIP3    H2 5539   6.633   4.230   0.672 -0.3441  0.1342 -0.8670
 1859TIP3   OH2 5540   2.007   2.642   2.558 -0.3999 -0.6231 -0.1887
 1859TIP3    H1 5541   2.034   2.632   2.467 -1.0726 -2.3337 -0.2266
 1859TIP3    H2 5542   2.021   2.556   2.597  0.3867  0.2273  1.4839
 1860TIP3   OH2 5543   1.074   0.172   4.116  0.2944 -0.1900 -0.0611
 1860TIP3    H1 5544   1.014   0.198   4.187  2.2114 -1.4313  2.1485
 1860TIP3    H2 5545   1.055   0.234   4.046 -0.5714  2.2415  2.1473
 1861TIP3   OH2 5546   6.305   0.983   5.453  0.0164 -0.6378 -0.3958
 1861TIP3    H1 5547   6.313   1.077   5.438 -1.2775 -0.5907 -0.9689
 1861TIP3    H2 5548   6.212   0.964   5.436  0.5948 -2.3238 -2.0769
 1862TIP3   OH2 5549   0.829   1.493   3.500  0.1439 -0.0674 -0.1099
 1862TIP3    H1 5550   0.792   1.528   3.581 -1.2360  1.0294 -1.1716
 1862TIP3    H2 5551   0.756   1.491   3.439  1.4327  0.3763 -1.7334
 1863TIP3   OH2 5552   3.074   3.913   1.181  0.5833 -0.0240  0.1686
 1863TIP3    H1 5553   3.033   3.829   1.159  1.1072  0.1418 -1.5598
 1863TIP3    H2 5554   3.153   3.916   1.126  1.9111  0.5176  2.0086
 1864TIP3   OH2 5555   2.778   1.087   0.085  0.1196  0.0779 -0.1873
 1864TIP3    H1 5556   2.818   1.055   0.004  0.5493 -3.4672  1.2551
 1864TIP3    H2 5557   2.852   1.115   0.139 -0.0117  0.5153 -0.2268
 1865TIP3   OH2 5558   3.207   5.519   5.406 -0.3462 -0.4865  0.3023
 1865TIP3    H1 5559   3.281   5.489   5.352 -1.5882  0.1967 -1.9096
 1865TIP3    H2 5560   3.136   5.460   5.384 -0.9033 -0.1595  1.1814
 1866TIP3   OH2 5561   4.447   5.358   0.460 -0.4600  0.1198  0.0995
 1866TIP3    H1 5562   4.392   5.357   0.538 -1.1863  0.5084 -0.4043
 1866TIP3    H2 5563   4.515   5.423   0.479 -0.0461 -0.4876  0.7899
 1867TIP3   OH2 5564   3.975   4.714   5.096 -0.3310  0.4088  0.8699
 1867TIP3    H1 5565   3.914   4.659   5.146 -0.5314  1.2842  1.6075
 1867TIP3    H2 5566   3.961   4.688   5.005  0.0271 -1.2156  1.2333
 1868TIP3   OH2 5567   3.712   2.965   5.639 -0.1980 -0.1692 -0.3827
 1868TIP3    H1 5568   3.746   2.875   5.635 -1.4962 -0.7132  0.2128
 1868TIP3    H2 5569   3.774   3.016   5.587  0.7076 -1.3640 -0.5258
 1869TIP3   OH2 5570   0.300   4.222   2.124  0.4028 -0.8595 -0.4272
 1869TIP3    H1 5571   0.291   4.271   2.206 -1.0976 -1.0363 -0.4443
 1869TIP3    H2 5572   0.367   4.157   2.142  0.7349 -0.3214  0.3647
 1870TIP3   OH2 5573   4.665   5.722   0.047  0.1786 -0.2651  0.1978
 1870TIP3    H1 5574   4.658   5.725   0.142 -0.3130 -0.7949  0.1857
 1870TIP3    H2 5575   4.703   5.807   0.023  0.0378 -0.0116  0.8398
 1871TIP3   OH2 5576   3.552   5.094   2.805  0.4324  0.0856 -0.3861
 1871TIP3    H1 5577   3.584   5.145   2.730  0.4106 -1.9455 -1.8822
 1871TIP3    H2 5578   3.500   5.156   2.856 -0.1140  1.4149 -2.4252
 1872TIP3   OH2 5579   0.694   6.748   4.341  0.2272  0.0578  0.1759
 1872TIP3    H1 5580   0.705   6.778   4.251  1.0508  0.2363  0.3278
 1872TIP3    H2 5581   0.732   6.818   4.394 -0.4993  0.0829  0.6823
 1873TIP3   OH2 5582   6.140   0.562   4.165 -0.1952 -0.4613 -0.0152
 1873TIP3    H1 5583   6.128   0.492   4.229  0.1836 -0.8703 -0.3774
 1873TIP3    H2 5584   6.053   0.598   4.151 -0.3969 -0.8839  0.1495
 1874TIP3   OH2 5585   6.193   1.532   3.295 -0.3089 -0.5285 -0.5391
 1874TIP3    H1 5586   6.286   1.509   3.297  0.3305  1.8205  0.1997
 1874TIP3    H2 5587   6.165   1.525   3.386 -0.2633  0.8426 -0.4039
 1875TIP3   OH2 5588   4.388   1.475   0.784  0.3076  0.9982 -0.1802
 1875TIP3    H1 5589   4.337   1.548   0.819  1.0464  1.2684  0.3544
 1875TIP3    H2 5590   4.428   1.510   0.705  1.2017  1.3940  0.4366
 1876TIP3   OH2 5591   6.199   4.732   4.246  0.2087  0.5119  0.3238
 1876TIP3    H1 5592   6.279   4.706   4.292 -0.0444 -0.3427  0.2910
 1876TIP3    H2 5593   6.141   4.764   4.315  0.7006  1.4725  0.3070
 1877TIP3   OH2 5594   1.879   3.889   1.000  0.2238 -0.2693  0.2393
 1877TIP3    H1 5595   1.831   3.806   0.993 -0.9773  0.5132 -1.4584
 1877TIP3    H2 5596   1.966   3.869   0.964 -0.0377 -0.8149 -0.1024
 1878TIP3   OH2 5597   5.439   6.220   5.469  0.1778  0.8894  0.7777
 1878TIP3    H1 5598   5.496   6.226   5.393 -0.8810  0.1494 -0.1075
 1878TIP3    H2 5599   5.390   6.139   5.457  0.5135  0.3444  2.6433
 1879TIP3   OH2 5600   4.649   5.701   1.659  0.0249 -0.3178 -0.1324
 1879TIP3    H1 5601   4.611   5.744   1.583  1.4772  0.3667 -0.5145
 1879TIP3    H2 5602   4.697   5.626   1.622  0.1302 -0.4128  0.1966
 1880TIP3   OH2 5603   3.245   5.134   1.432  0.2536  0.4181 -0.4024
 1880TIP3    H1 5604   3.153   5.162   1.423 -0.4479 -1.5667  0.1179
 1880TIP3    H2 5605   3.283   5.151   1.346 -1.1012 -0.3090 -1.1898
 1881TIP3   OH2 5606   2.493   3.459   0.456  0.5569 -0.0402  0.0518
 1881TIP3    H1 5607   2.478   3.553   0.441  1.8894 -0.0107 -1.3053
 1881TIP3    H2 5608   2.588   3.448   0.447  0.4341 -1.5122  0.3144
 1882TIP3   OH2 5609   3.358   3.078   1.277 -0.1964  0.0029 -0.2178
 1882TIP3    H1 5610   3.333   3.023   1.351  0.1848 -0.9227 -0.7632
 1882TIP3    H2 5611   3.295   3.150   1.278 -0.7611 -0.4909  0.4512
 1883TIP3   OH2 5612   6.763   2.934   5.852 -0.3418 -0.4960 -0.0923
 1883TIP3    H1 5613   6.697   3.000   5.829  0.2849 -0.3282 -1.5220
 1883TIP3    H2 5614   6.735   2.901   5.937 -0.8181  1.4308  0.5560
 1884TIP3   OH2 5615   4.856   2.052   3.970 -0.3263  0.0599  0.1794
 1884TIP3    H1 5616   4.775   2.063   3.920 -0.8958 -0.0368  1.0679
 1884TIP3    H2 5617   4.924   2.091   3.914 -1.0828  0.7718 -0.2690
 1885TIP3   OH2 5618   3.217   3.416   4.305  0.4617  0.3266 -0.1926
 1885TIP3    H1 5619   3.154   3.357   4.264 -2.2645  3.3996 -0.8406
 1885TIP3    H2 5620   3.193   3.415   4.398  2.1973 -1.4720  0.3128
 1886TIP3   OH2 5621   1.764   2.698   2.777  0.6608  0.5594 -0.8063
 1886TIP3    H1 5622   1.730   2.632   2.716  2.6064 -0.6535 -0.6865
 1886TIP3    H2 5623   1.859   2.689   2.770  1.0644 -0.7874  3.4927
 1887TIP3   OH2 5624   0.669   4.563   4.148 -0.4265  0.0387  0.1466
 1887TIP3    H1 5625   0.586   4.538   4.107 -0.4680 -1.1139  0.9012
 1887TIP3    H2 5626   0.736   4.524   4.092 -0.3673  0.9939 -0.4789
 1888TIP3   OH2 5627   6.135   5.003   5.450  0.0172  0.4742 -0.0445
 1888TIP3    H1 5628   6.052   5.049   5.440  1.3360  3.1400  0.3750
 1888TIP3    H2 5629   6.125   4.954   5.532 -1.2838  0.3539 -0.2529
 1889TIP3   OH2 5630   0.608   1.402   2.978 -0.3510 -0.3873  0.5510
 1889TIP3    H1 5631   0.568   1.480   2.939 -1.1881 -1.8193 -1.7213
 1889TIP3    H2 5632   0.702   1.421   2.980 -0.5811  0.8277  0.4498
 1890TIP3   OH2 5633   1.972   5.007   1.482 -0.4240 -0.0493  0.6373
 1890TIP3    H1 5634   2.040   5.012   1.548  0.3087 -1.4691  0.0172
 1890TIP3    H2 5635   1.939   4.917   1.486 -0.5234 -0.1036 -0.7561
 1891TIP3   OH2 5636   1.353   1.449   5.022 -0.2398  0.3592  0.7251
 1891TIP3    H1 5637   1.432   1.396   5.016  0.8407  1.8855  1.0058
 1891TIP3    H2 5638   1.342   1.486   4.934  1.5231  3.0676  1.5262
 1892TIP3   OH2 5639   1.927   6.334   2.791  0.1204  0.6215 -0.6362
 1892TIP3    H1 5640   2.008   6.371   2.757  0.5855  0.8460  0.6395
 1892TIP3    H2 5641   1.868   6.408   2.799  0.4477  0.8028  0.2267
 1893TIP3   OH2 5642   5.773   5.042   0.971 -0.1213 -0.1042 -0.0809
 1893TIP3    H1 5643   5.697   4.989   0.947 -0.0104 -0.4290  0.2802
 1893TIP3    H2 5644   5.736   5.121   1.010 -0.2741 -0.3376  0.2530
 1894TIP3   OH2 5645   7.012   2.845   1.021  0.5930  0.4213 -0.1203
 1894TIP3    H1 5646   6.978   2.769   1.068  0.3565  0.8720  0.4531
 1894TIP3    H2 5647   7.004   2.917   1.083  0.5768  0.9689 -0.7443
 1895TIP3   OH2 5648   2.424   6.577   1.762  0.3788 -0.1838 -0.5218
 1895TIP3    H1 5649   2.461   6.645   1.819 -0.6477 -0.0007 -0.0582
 1895TIP3    H2 5650   2.444   6.495   1.807  3.4342 -0.4523 -2.0555
 1896TIP3   OH2 5651   2.187   3.097   2.059  0.4523 -0.1805  0.2402
 1896TIP3    H1 5652   2.222   3.085   1.971  2.1597  3.5818  0.2005
 1896TIP3    H2 5653   2.098   3.128   2.046  0.0534 -1.4093 -0.0450
 1897TIP3   OH2 5654   0.844   0.352   0.183  0.3548 -0.0844 -0.6419
 1897TIP3    H1 5655   0.904   0.420   0.153 -0.3412  0.4570 -0.8288
 1897TIP3    H2 5656   0.790   0.395   0.249  0.8035 -0.8309  0.2276
 1898TIP3   OH2 5657   5.176   2.970   2.198 -0.7476  0.8360 -0.1225
 1898TIP3    H1 5658   5.091   2.958   2.157 -0.1932  0.2240 -1.1435
 1898TIP3    H2 5659   5.216   2.883   2.196  0.2016  1.2680 -0.3646
 1899TIP3   OH2 5660   4.643   0.751   2.208  0.6884 -0.3719 -0.5830
 1899TIP3    H1 5661   4.623   0.844   2.216 -0.3372 -0.6107 -0.1264
 1899TIP3    H2 5662   4.620   0.714   2.294  2.3426 -0.8419 -0.3034
 1900TIP3   OH2 5663   1.470   5.532   4.245 -0.4210  0.4047 -0.6671
 1900TIP3    H1 5664   1.445   5.554   4.335 -1.4190  0.6865 -1.0017
 1900TIP3    H2 5665   1.561   5.503   4.252 -0.0811  1.5818  0.2649
 1901TIP3   OH2 5666   1.993   0.078   2.410 -0.1499 -0.0511 -0.2986
 1901TIP3    H1 5667   2.081   0.067   2.374  0.1871 -2.7262  1.1603
 1901TIP3    H2 5668   1.937   0.090   2.332  0.8772 -3.2154 -1.6980
 1902TIP3   OH2 5669   2.081   4.915   1.169  0.2366  0.3543  0.3448
 1902TIP3    H1 5670   2.102   4.853   1.100  0.6636 -1.4336  1.9951
 1902TIP3    H2 5671   2.121   4.878   1.247  0.3635  2.6615  1.4367
 1903TIP3   OH2 5672   4.561   2.036   2.893  0.1230  0.0340 -0.0406
 1903TIP3    H1 5673   4.486   1.999   2.938 -0.2620  1.5234  0.5927
 1903TIP3    H2 5674   4.562   1.992   2.807 -1.7891  0.3748 -0.2678
 1904TIP3   OH2 5675   5.689   5.695   3.043  0.5795 -0.2371  0.1828
 1904TIP3    H1 5676   5.659   5.630   2.979  1.9931 -1.3679  0.6188
 1904TIP3    H2 5677   5.701   5.775   2.992 -1.1386 -0.2905 -0.3767
 1905TIP3   OH2 5678   6.947   3.920   1.294 -0.3870  0.1770 -0.1986
 1905TIP3    H1 5679   7.037   3.948   1.312 -0.2401 -0.1736 -0.3977
 1905TIP3    H2 5680   6.951   3.825   1.294 -1.0253  0.1172  1.2004
 1906TIP3   OH2 5681   1.248   4.809   5.341 -0.0435  0.0500 -0.1003
 1906TIP3    H1 5682   1.198   4.773   5.267 -0.8625  0.0754  0.4338
 1906TIP3    H2 5683   1.318   4.745   5.355  0.0256 -0.0353 -0.7970
 1907TIP3   OH2 5684   2.177   2.727   1.153  0.4233  0.1836  0.3156
 1907TIP3    H1 5685   2.223   2.669   1.213 -0.7054  1.2557  2.3348
 1907TIP3    H2 5686   2.085   2.701   1.160  0.0012  1.6458  0.6562
 1908TIP3   OH2 5687   4.507   3.985   4.549 -0.2782  0.0251 -0.2334
 1908TIP3    H1 5688   4.417   3.970   4.521 -0.3389  1.1009 -0.6571
 1908TIP3    H2 5689   4.535   4.062   4.499  0.7403 -0.0565  0.1907
 1909TIP3   OH2 5690   5.387   4.857   3.840 -0.2936  0.0002  0.0759
 1909TIP3    H1 5691   5.331   4.891   3.770  0.2737  0.0358 -0.3701
 1909TIP3    H2 5692   5.395   4.929   3.902  0.9482  0.7517 -0.8883
 1910TIP3   OH2 5693   4.898   0.760   2.947  0.1485 -0.0226 -0.0503
 1910TIP3    H1 5694   4.834   0.828   2.924 -0.9000 -0.4887  1.3342
 1910TIP3    H2 5695   4.983   0.804   2.940 -0.3442  0.7559 -1.4385
 1911TIP3   OH2 5696   2.214   2.231   3.667 -0.0055  0.0075  0.0917
 1911TIP3    H1 5697   2.248   2.215   3.755 -1.3679  0.0216  0.6318
 1911TIP3    H2 5698   2.233   2.150   3.619  3.6544  1.0879 -0.6270
 1912TIP3   OH2 5699   2.426   5.871   3.053 -0.8318 -0.3451 -0.3227
 1912TIP3    H1 5700   2.408   5.918   3.134 -1.1403 -0.5484 -0.2691
 1912TIP3    H2 5701   2.339   5.851   3.017 -0.7136 -1.0208 -0.2536
 1913TIP3   OH2 5702   4.179   5.695   0.724 -0.4645  0.1376 -0.1185
 1913TIP3    H1 5703   4.084   5.689   0.711 -0.3635  0.1386 -0.9369
 1913TIP3    H2 5704   4.189   5.741   0.807 -1.1738 -1.4603  0.8918
 1914TIP3   OH2 5705   6.130   2.683   3.802 -0.0998  0.1688  0.6416
 1914TIP3    H1 5706   6.217   2.651   3.782 -0.4852 -0.5519  0.0808
 1914TIP3    H2 5707   6.141   2.737   3.880  0.7327 -0.4441  0.9483
 1915TIP3   OH2 5708   1.392   4.088   4.166 -0.3909 -0.2301  0.4620
 1915TIP3    H1 5709   1.422   4.067   4.077 -0.2765  0.8640  0.2296
 1915TIP3    H2 5710   1.446   4.035   4.223  0.0781 -0.3532 -0.0868
 1916TIP3   OH2 5711   2.887   5.447   2.685  0.0951 -0.0220 -0.4284
 1916TIP3    H1 5712   2.869   5.537   2.657 -0.5426 -0.0912 -0.2491
 1916TIP3    H2 5713   2.980   5.435   2.669  1.2382  2.0940  3.3999
 1917TIP3   OH2 5714   2.217   2.325   0.813 -0.0897 -0.5011 -0.2307
 1917TIP3    H1 5715   2.136   2.276   0.832 -0.1071 -0.3173  0.1692
 1917TIP3    H2 5716   2.190   2.393   0.751 -0.9259  1.5859  2.2693
 1918TIP3   OH2 5717   0.344   2.753   1.322  0.0819  0.0104 -0.0953
 1918TIP3    H1 5718   0.325   2.840   1.356 -0.8629  0.0243 -0.6321
 1918TIP3    H2 5719   0.434   2.736   1.349 -0.0611  0.7279  0.8860
 1919TIP3   OH2 5720   6.839   0.502   3.954  0.2362  0.1978 -0.2411
 1919TIP3    H1 5721   6.787   0.512   3.874  0.4914 -0.3131 -0.4774
 1919TIP3    H2 5722   6.882   0.417   3.944  1.0257  0.5581  0.0040
 1920TIP3   OH2 5723   1.172   1.678   5.550  0.0015 -0.3625 -0.4320
 1920TIP3    H1 5724   1.233   1.607   5.571  1.2068  0.4988 -0.9301
 1920TIP3    H2 5725   1.097   1.663   5.608  2.3014  0.7697  3.1238
 1921TIP3   OH2 5726   1.816   5.806   4.210 -0.2605  0.3791  1.0781
 1921TIP3    H1 5727   1.795   5.753   4.288  1.4970  1.0953  2.0950
 1921TIP3    H2 5728   1.754   5.878   4.213 -2.7222 -1.5364 -0.3434
 1922TIP3   OH2 5729   5.981   1.467   2.351 -0.3621  0.1532 -0.2114
 1922TIP3    H1 5730   5.978   1.487   2.445 -1.6300  2.3977 -0.6655
 1922TIP3    H2 5731   5.911   1.404   2.337  0.6858 -1.2135  0.5345
 1923TIP3   OH2 5732   4.693   4.504   0.956  0.0345 -0.4654  0.2254
 1923TIP3    H1 5733   4.616   4.478   1.007  0.0611 -1.5990 -0.2759
 1923TIP3    H2 5734   4.762   4.515   1.021 -0.3841 -0.0745  0.6133
 1924TIP3   OH2 5735   0.139   5.217   1.075 -0.0590 -0.2309  0.0812
 1924TIP3    H1 5736   0.148   5.145   1.013  4.1049  2.6518 -3.3266
 1924TIP3    H2 5737   0.205   5.199   1.142 -0.8264 -0.7701  0.7048
 1925TIP3   OH2 5738   1.221   3.936   5.636 -0.1503 -0.0212  0.2742
 1925TIP3    H1 5739   1.255   3.970   5.719 -1.8744  0.0445  1.0054
 1925TIP3    H2 5740   1.292   3.882   5.601  1.0097  0.8222  1.2546
 1926TIP3   OH2 5741   4.256   3.188   0.703 -0.0176 -0.0894  0.5896
 1926TIP3    H1 5742   4.333   3.245   0.705 -0.4474  0.6696 -1.6864
 1926TIP3    H2 5743   4.182   3.248   0.706 -0.4766 -0.5133 -1.0746
 1927TIP3   OH2 5744   2.501   5.772   4.220 -0.3757  0.4033 -0.0546
 1927TIP3    H1 5745   2.480   5.695   4.166  1.3291 -0.2593  0.1439
 1927TIP3    H2 5746   2.425   5.784   4.276 -0.5441 -1.3851  0.1541
 1928TIP3   OH2 5747   3.524   3.335   4.199  0.0397 -0.1663 -0.0632
 1928TIP3    H1 5748   3.433   3.322   4.225  0.1586  0.7533  0.8701
 1928TIP3    H2 5749   3.566   3.250   4.213 -0.5954 -0.5064 -0.1983
 1929TIP3   OH2 5750   5.965   5.481   2.426 -0.7394 -0.7371 -0.9897
 1929TIP3    H1 5751   5.951   5.406   2.368  1.9677 -0.6811 -1.8341
 1929TIP3    H2 5752   5.966   5.557   2.368 -0.3056 -0.4265 -0.5879
 1930TIP3   OH2 5753   6.170   1.102   0.854 -0.4095  0.6608  0.2533
 1930TIP3    H1 5754   6.150   1.148   0.936 -0.3302  1.9839 -0.4436
 1930TIP3    H2 5755   6.245   1.046   0.876 -1.2026 -0.0098  1.4048
 1931TIP3   OH2 5756   0.961   1.998   1.950  0.4150  0.2607  0.4572
 1931TIP3    H1 5757   1.044   1.952   1.943  0.0174 -0.5940  1.1263
 1931TIP3    H2 5758   0.985   2.091   1.952  1.3295  0.0326  0.3892
 1932TIP3   OH2 5759   6.455   5.355   2.116 -0.0306  0.2426 -0.8782
 1932TIP3    H1 5760   6.505   5.395   2.187 -0.2975 -0.7901 -0.0902
 1932TIP3    H2 5761   6.366   5.388   2.127  0.3620  1.8726 -2.1244
 1933TIP3   OH2 5762   3.537   1.624   3.711  0.0691 -0.0024 -0.1677
 1933TIP3    H1 5763   3.471   1.680   3.752  0.9161  0.5068  0.5532
 1933TIP3    H2 5764   3.523   1.538   3.749  0.2158  0.2435  0.4509
 1934TIP3   OH2 5765   0.004   3.359   4.117  0.3668 -0.2822 -0.4960
 1934TIP3    H1 5766  -0.027   3.326   4.201 -0.3598  1.0618 -0.2063
 1934TIP3    H2 5767   0.072   3.423   4.140  0.7970 -0.5588 -0.9752
 1935TIP3   OH2 5768   6.924   2.611   4.604  0.0115 -0.2840 -0.9357
 1935TIP3    H1 5769   6.968   2.626   4.688 -0.1279 -0.7937 -0.7667
 1935TIP3    H2 5770   6.968   2.534   4.567  0.3913  0.2209 -1.5561
 1936TIP3   OH2 5771   2.337   3.082   5.356 -0.3650  0.4172 -0.1993
 1936TIP3    H1 5772   2.366   3.028   5.282 -2.7345 -0.0583 -0.8663
 1936TIP3    H2 5773   2.372   3.037   5.433 -0.0085 -0.5386 -0.8942
 1937TIP3   OH2 5774   6.638   3.831   0.578 -0.2709  0.1030 -0.3487
 1937TIP3    H1 5775   6.589   3.863   0.654 -1.1747  0.8849 -1.2274
 1937TIP3    H2 5776   6.645   3.907   0.520  2.4681  0.1544 -0.0600
 1938TIP3   OH2 5777   6.639   2.715   0.069 -0.3623  0.4406 -0.6013
 1938TIP3    H1 5778   6.627   2.697   0.162 -1.5479  0.7027 -0.6861
 1938TIP3    H2 5779   6.684   2.799   0.066  0.2710  0.1237 -0.2708
 1939TIP3   OH2 5780   0.813   6.492   4.770 -0.1809  0.0757  0.4110
 1939TIP3    H1 5781   0.748   6.510   4.702 -0.4805  0.2492  0.7419
 1939TIP3    H2 5782   0.848   6.405   4.747  1.4298  1.1091 -1.3044
 1940TIP3   OH2 5783   0.791   2.528   3.511 -0.4866  0.1711 -1.0023
 1940TIP3    H1 5784   0.815   2.582   3.586  2.2103  0.9305 -2.2984
 1940TIP3    H2 5785   0.737   2.585   3.457  1.1618  1.1607 -1.6708
 1941TIP3   OH2 5786   4.084   3.491   0.513 -0.0183 -0.0487 -0.0269
 1941TIP3    H1 5787   4.144   3.471   0.442 -0.3844  0.7010 -0.5528
 1941TIP3    H2 5788   4.128   3.560   0.563 -0.3876  0.4247 -0.3496
 1942TIP3   OH2 5789   5.792   5.607   5.268 -0.2697 -0.0105 -0.3069
 1942TIP3    H1 5790   5.811   5.662   5.192 -2.1947  0.5902 -0.4204
 1942TIP3    H2 5791   5.804   5.665   5.344 -0.2573 -0.0368 -0.2885
 1943TIP3   OH2 5792   0.068   4.494   5.344 -0.5470  0.5622 -0.0469
 1943TIP3    H1 5793   0.055   4.525   5.434 -2.2379  4.0795 -1.3149
 1943TIP3    H2 5794   0.134   4.553   5.308  0.2919 -0.9528 -1.1049
 1944TIP3   OH2 5795   3.478   4.986   2.180  0.3609  0.2239 -0.2809
 1944TIP3    H1 5796   3.398   5.013   2.135  0.0597 -1.7744 -1.0738
 1944TIP3    H2 5797   3.448   4.937   2.256  0.8798  2.2189  1.2859
 1945TIP3   OH2 5798   4.821   1.502   2.252 -0.0503  0.3605  0.2154
 1945TIP3    H1 5799   4.771   1.428   2.216 -0.9455  0.9805  0.1339
 1945TIP3    H2 5800   4.813   1.493   2.347 -0.6709  0.6826  0.1975
 1946TIP3   OH2 5801   6.947   6.048   2.614  0.2283  0.3502  0.5831
 1946TIP3    H1 5802   7.022   5.991   2.626 -0.0588  0.0940  1.2275
 1946TIP3    H2 5803   6.871   5.994   2.638 -0.2088  0.4718 -0.4634
 1947TIP3   OH2 5804   0.373   3.824   4.562  0.2075 -0.5146  0.2030
 1947TIP3    H1 5805   0.368   3.910   4.521  0.9417 -0.0533  1.0411
 1947TIP3    H2 5806   0.332   3.836   4.648  0.1400 -1.0457  0.2477
 1948TIP3   OH2 5807   2.017   1.836   2.363 -0.4846 -0.0648  0.2777
 1948TIP3    H1 5808   2.060   1.922   2.358 -1.3115  0.3458  0.0059
 1948TIP3    H2 5809   1.947   1.841   2.298 -0.3244 -1.0783  0.0215
 1949TIP3   OH2 5810   3.907   6.584   1.418 -0.3349 -0.4813  0.2066
 1949TIP3    H1 5811   3.884   6.612   1.329 -1.2110 -1.9934 -0.0945
 1949TIP3    H2 5812   3.914   6.489   1.411  1.9609 -0.4374  1.2650
 1950TIP3   OH2 5813   3.445   2.156   3.430  0.3462 -0.3837 -0.2411
 1950TIP3    H1 5814   3.421   2.129   3.342  1.4965 -1.6624 -0.2088
 1950TIP3    H2 5815   3.436   2.076   3.483 -0.3381  0.3617  0.8081
 1951TIP3   OH2 5816   0.265   5.384   2.760 -0.2596 -0.1618 -0.5044
 1951TIP3    H1 5817   0.187   5.339   2.729  1.0474 -0.6188 -3.5713
 1951TIP3    H2 5818   0.325   5.313   2.785 -1.4771  0.1760  4.2663
 1952TIP3   OH2 5819   6.740   3.305   3.810 -0.2221  0.0241  0.3824
 1952TIP3    H1 5820   6.830   3.314   3.842 -0.4631 -1.7154  1.6719
 1952TIP3    H2 5821   6.741   3.223   3.760 -0.6690  0.9849 -1.2746
 1953TIP3   OH2 5822   5.856   3.425   0.638  0.3972 -0.1458 -0.3834
 1953TIP3    H1 5823   5.826   3.347   0.592 -1.1807 -0.0753  0.4548
 1953TIP3    H2 5824   5.857   3.400   0.730  2.5694  0.0182 -0.2978
 1954TIP3   OH2 5825   4.874   1.628   3.709 -0.4964  0.4665  0.0999
 1954TIP3    H1 5826   4.963   1.611   3.740  0.6011  2.7996 -1.4628
 1954TIP3    H2 5827   4.876   1.602   3.617 -1.9342 -0.8086  0.3763
 1955TIP3   OH2 5828   0.002   2.592   5.437 -0.1999  0.6214  0.0204
 1955TIP3    H1 5829  -0.019   2.682   5.462  2.7560  0.9844  1.7399
 1955TIP3    H2 5830   0.034   2.598   5.347 -2.0361  0.8628 -0.6608
 1956TIP3   OH2 5831   6.907   0.286   3.714 -0.1278 -0.1679 -0.0159
 1956TIP3    H1 5832   6.837   0.284   3.649 -1.3717 -1.6689  1.2970
 1956TIP3    H2 5833   6.954   0.204   3.702 -0.3424 -0.4406  0.9146
 1957TIP3   OH2 5834   0.829   2.990   4.899  0.2710 -0.5164  0.3156
 1957TIP3    H1 5835   0.836   2.996   4.804  1.1570 -0.3699  0.3808
 1957TIP3    H2 5836   0.897   3.049   4.932 -0.6957  0.2233  1.0529
 1958TIP3   OH2 5837   0.682   2.216   0.212 -0.0920 -0.1367  0.0591
 1958TIP3    H1 5838   0.751   2.172   0.162  0.5569  1.3179 -0.3781
 1958TIP3    H2 5839   0.668   2.160   0.288  1.4364 -0.5622  0.0498
 1959TIP3   OH2 5840   2.991   1.559   0.907  0.0853  0.0230 -0.0205
 1959TIP3    H1 5841   2.959   1.648   0.894 -0.3830 -0.2046 -0.5011
 1959TIP3    H2 5842   2.956   1.510   0.832 -0.8991 -0.8767  0.9710
 1960TIP3   OH2 5843   0.062   2.212   1.431 -0.2236 -0.2191  0.0001
 1960TIP3    H1 5844   0.145   2.226   1.476  0.5047 -0.3709 -1.2388
 1960TIP3    H2 5845   0.056   2.117   1.421 -0.1069 -0.1624 -0.6708
 1961TIP3   OH2 5846   0.919   0.649   0.457 -0.2983  0.3986 -0.0361
 1961TIP3    H1 5847   0.835   0.610   0.432  0.6441 -2.2491  0.7035
 1961TIP3    H2 5848   0.951   0.690   0.376 -1.5464  0.0380 -0.7426
 1962TIP3   OH2 5849   4.098   6.114   4.624  0.2266  0.0683  0.1094
 1962TIP3    H1 5850   4.134   6.144   4.541  1.3725  0.0209  0.5628
 1962TIP3    H2 5851   4.093   6.019   4.616  0.3274  0.0650  0.0929
 1963TIP3   OH2 5852   3.209   0.917   0.344  0.7068  0.5990  0.2262
 1963TIP3    H1 5853   3.202   0.882   0.433 -0.6422 -0.4546 -0.2675
 1963TIP3    H2 5854   3.239   1.007   0.356  0.2152  0.5860  1.7669
 1964TIP3   OH2 5855   2.672   5.683   1.323  0.5051 -0.2510  0.7098
 1964TIP3    H1 5856   2.586   5.717   1.347  1.2192  2.1685  0.1314
 1964TIP3    H2 5857   2.726   5.761   1.308  2.4441 -1.6722 -0.2489
 1965TIP3   OH2 5858   3.592   1.244   1.070  0.6462 -0.2011  0.4981
 1965TIP3    H1 5859   3.552   1.290   0.997  0.2501 -0.4257  0.5678
 1965TIP3    H2 5860   3.549   1.279   1.148 -0.4671 -1.4648  0.4813
 1966TIP3   OH2 5861   0.846   5.269   5.340  0.2557  0.1534 -0.1780
 1966TIP3    H1 5862   0.864   5.202   5.407 -0.8705 -0.2918 -0.2919
 1966TIP3    H2 5863   0.776   5.231   5.287  0.5531  0.8586 -1.1037
 1967TIP3   OH2 5864   4.609   0.551   0.794 -0.1364  0.5017 -0.2477
 1967TIP3    H1 5865   4.553   0.613   0.840 -0.4383 -0.1122  0.2237
 1967TIP3    H2 5866   4.686   0.542   0.851 -0.8033 -0.7637  0.4896
 1968TIP3   OH2 5867   2.733   0.259   1.938  0.0617  0.0400  0.0297
 1968TIP3    H1 5868   2.680   0.204   1.995 -0.4591  0.0228 -0.4725
 1968TIP3    H2 5869   2.810   0.281   1.992  0.2953 -1.1779  0.2285
 1969TIP3   OH2 5870   2.672   4.683   3.238 -0.1767 -0.3443  1.1975
 1969TIP3    H1 5871   2.596   4.674   3.181  0.3232 -0.7418  0.5728
 1969TIP3    H2 5872   2.663   4.770   3.278 -0.0617  0.3310 -0.2028
 1970TIP3   OH2 5873   3.846   1.646   2.811 -0.1118  0.5243  0.4151
 1970TIP3    H1 5874   3.903   1.576   2.778  1.7185  0.7530  2.8297
 1970TIP3    H2 5875   3.759   1.607   2.812  0.5511 -1.0579 -0.1000
 1971TIP3   OH2 5876   6.111   0.306   4.646  0.1195 -0.2914  0.6123
 1971TIP3    H1 5877   6.127   0.400   4.642  0.8837 -0.3455  1.8468
 1971TIP3    H2 5878   6.078   0.292   4.735  2.1490 -1.4702  1.2420
 1972TIP3   OH2 5879   3.469   4.986   3.497  0.4026  0.3966 -0.1572
 1972TIP3    H1 5880   3.448   4.909   3.444 -1.5523 -0.7287  2.0753
 1972TIP3    H2 5881   3.540   4.958   3.554 -0.0286  0.3516  0.3682
 1973TIP3   OH2 5882   5.373   3.428   1.355 -0.5329 -1.0550  0.1442
 1973TIP3    H1 5883   5.298   3.425   1.295 -0.6498 -0.5087  0.2510
 1973TIP3    H2 5884   5.422   3.506   1.328  1.0205 -2.4011 -1.0994
 1974TIP3   OH2 5885   0.317   6.091   4.900 -0.0734  0.1470 -0.1909
 1974TIP3    H1 5886   0.239   6.060   4.946 -1.2485 -0.2005 -2.3038
 1974TIP3    H2 5887   0.320   6.040   4.820  2.3945  0.1309 -0.1628
 1975TIP3   OH2 5888   0.842   5.971   1.557  0.2372 -0.0883  0.6366
 1975TIP3    H1 5889   0.852   5.973   1.461  0.7503 -0.1024  0.6901
 1975TIP3    H2 5890   0.843   6.063   1.583 -0.9235 -0.0239  0.5318
 1976TIP3   OH2 5891   4.437   0.637   5.548 -0.2362  0.0782 -0.4950
 1976TIP3    H1 5892   4.503   0.567   5.549 -0.7436 -0.4065  0.0058
 1976TIP3    H2 5893   4.488   0.718   5.552  0.4890 -0.1356 -3.5010
 1977TIP3   OH2 5894   6.863   5.249   2.832 -0.3075  0.2970 -0.0150
 1977TIP3    H1 5895   6.898   5.164   2.804 -1.0539  0.1095 -0.4156
 1977TIP3    H2 5896   6.772   5.231   2.854 -0.4907  1.0072 -0.1664
 1978TIP3   OH2 5897   5.696   4.285   2.746  0.0042  0.2748 -0.5264
 1978TIP3    H1 5898   5.614   4.264   2.790  0.7737 -0.5027  0.6308
 1978TIP3    H2 5899   5.763   4.240   2.799  1.0721 -0.0085 -2.0397
 1979TIP3   OH2 5900   2.612   4.083   0.340  0.2270 -0.1369 -0.7221
 1979TIP3    H1 5901   2.597   4.147   0.409 -0.9592  0.3212 -1.3701
 1979TIP3    H2 5902   2.638   4.003   0.386  1.0475  0.6102  0.1401
 1980TIP3   OH2 5903   5.937   3.134   2.708  0.0844 -0.3724 -0.0746
 1980TIP3    H1 5904   5.926   3.169   2.620 -0.8206 -1.3000 -0.3454
 1980TIP3    H2 5905   6.026   3.101   2.711  0.7958  1.4069  0.0129
 1981TIP3   OH2 5906   6.335   4.545   0.839 -0.0062  0.6720  0.0384
 1981TIP3    H1 5907   6.392   4.618   0.863 -1.3755  1.0925  2.2440
 1981TIP3    H2 5908   6.374   4.469   0.881 -0.4869  0.7785  0.6883
 1982TIP3   OH2 5909   0.530   2.904   4.570 -0.2979 -0.5668  0.2546
 1982TIP3    H1 5910   0.604   2.882   4.513  1.0797  1.6989  1.0434
 1982TIP3    H2 5911   0.559   2.879   4.657  0.2459  1.7521  0.7899
 1983TIP3   OH2 5912   4.125   6.816   3.431 -0.1805  0.1196  0.3080
 1983TIP3    H1 5913   4.135   6.744   3.493  1.3356 -0.4901 -0.5731
 1983TIP3    H2 5914   4.100   6.774   3.349  3.0931  0.1881 -0.8840
 1984TIP3   OH2 5915   0.029   4.194   5.423  0.1461 -0.6419  0.4034
 1984TIP3    H1 5916   0.020   4.234   5.510 -0.5346  0.1004  0.0128
 1984TIP3    H2 5917   0.093   4.250   5.378 -1.8807  0.9735 -0.6406
 1985TIP3   OH2 5918   6.167   6.061   4.882 -0.1206  0.1014  0.1629
 1985TIP3    H1 5919   6.184   6.085   4.791  1.7277  1.2290  0.7556
 1985TIP3    H2 5920   6.148   6.143   4.926 -2.0900 -0.5501  0.6357
 1986TIP3   OH2 5921   6.165   4.071   5.586  0.1607 -0.1283  0.2207
 1986TIP3    H1 5922   6.127   4.150   5.625 -0.3431 -0.2056 -0.1050
 1986TIP3    H2 5923   6.255   4.095   5.565 -0.3002  0.7179 -0.8921
 1987TIP3   OH2 5924   6.362   2.237   3.678 -0.0828 -0.1339  0.4879
 1987TIP3    H1 5925   6.345   2.275   3.592  2.2481 -0.0786 -0.0332
 1987TIP3    H2 5926   6.456   2.219   3.677 -0.0627 -0.4384  2.9206
 1988TIP3   OH2 5927   4.916   2.539   5.475  0.1656 -0.3841  0.0968
 1988TIP3    H1 5928   4.876   2.577   5.553  2.1411 -0.4529  1.2017
 1988TIP3    H2 5929   4.847   2.543   5.408 -1.6152 -0.3922  1.8417
 1989TIP3   OH2 5930   1.354   0.863   1.798 -0.0154  0.1386 -0.2862
 1989TIP3    H1 5931   1.397   0.948   1.798  1.6032 -0.6234  0.7146
 1989TIP3    H2 5932   1.306   0.860   1.881 -2.3154  1.0732 -1.4927
 1990TIP3   OH2 5933   4.221   0.112   1.084 -0.8669  0.0140 -0.2338
 1990TIP3    H1 5934   4.173   0.179   1.035 -1.8044 -1.4155 -1.3716
 1990TIP3    H2 5935   4.156   0.044   1.102 -0.0104 -0.4918  1.1180
 1991TIP3   OH2 5936   0.677   2.951   0.991  0.1909  0.1783 -0.2674
 1991TIP3    H1 5937   0.716   3.038   0.978  0.7385 -0.2177 -1.3585
 1991TIP3    H2 5938   0.714   2.897   0.921  0.4155 -1.1296  0.8299
 1992TIP3   OH2 5939   4.656   1.863   4.161  0.1133 -0.0689  0.8189
 1992TIP3    H1 5940   4.630   1.774   4.138 -0.0177 -0.2850  1.7707
 1992TIP3    H2 5941   4.617   1.917   4.092  0.3208 -0.7527  0.1487
 1993TIP3   OH2 5942   1.231   4.174   5.326  0.3877 -0.4356 -0.0523
 1993TIP3    H1 5943   1.275   4.114   5.266  1.8897  2.4211 -2.0484
 1993TIP3    H2 5944   1.297   4.198   5.390  0.6033  0.8826 -0.7290
 1994TIP3   OH2 5945   4.733   2.178   1.319 -0.5399 -0.3837 -0.2153
 1994TIP3    H1 5946   4.723   2.093   1.361 -0.5552 -0.4535 -0.3622
 1994TIP3    H2 5947   4.805   2.220   1.367  0.3104 -0.9713 -0.9489
 1995TIP3   OH2 5948   5.878   6.067   3.719 -0.1521 -0.5526 -0.0411
 1995TIP3    H1 5949   5.936   6.094   3.648 -4.0478  0.8804 -3.0076
 1995TIP3    H2 5950   5.862   5.974   3.702  1.0379 -0.9007  0.6674
 1996TIP3   OH2 5951   5.149   0.977   3.979 -0.1256 -0.1090 -0.9029
 1996TIP3    H1 5952   5.061   1.005   3.952 -1.2098 -1.3001  1.1839
 1996TIP3    H2 5953   5.154   0.886   3.952 -1.0787 -1.2115  2.2420
 1997TIP3   OH2 5954   3.708   4.739   5.332  0.3641 -0.3434  0.0000
 1997TIP3    H1 5955   3.734   4.730   5.424  1.3364 -0.4054 -0.2750
 1997TIP3    H2 5956   3.648   4.666   5.317  1.7657 -1.5440  0.0492
 1998TIP3   OH2 5957   4.774   3.955   3.244  0.0830 -0.5976  0.1741
 1998TIP3    H1 5958   4.820   3.983   3.165  0.2949  0.5908  0.6920
 1998TIP3    H2 5959   4.694   4.008   3.246  1.0589  0.9248  1.7927
 1999TIP3   OH2 5960   6.932   3.575   4.731  0.3052 -0.1209 -0.4249
 1999TIP3    H1 5961   6.847   3.610   4.757 -0.4692 -1.3380 -1.2190
 1999TIP3    H2 5962   6.989   3.652   4.725 -0.0224  0.4699  2.5569
 2000TIP3   OH2 5963   3.476   5.071   1.860 -0.1305  0.9219 -0.0309
 2000TIP3    H1 5964   3.525   4.996   1.896 -0.8995  0.4974  0.1587
 2000TIP3    H2 5965   3.387   5.058   1.892 -0.7232  0.8124 -1.6847
 2001TIP3   OH2 5966   6.483   5.767   2.483 -0.1367  0.3710 -0.0923
 2001TIP3    H1 5967   6.504   5.678   2.456 -2.5240  0.1778 -1.6393
 2001TIP3    H2 5968   6.527   5.823   2.419 -0.8405  0.1495 -0.7930
 2002TIP3   OH2 5969   4.002   2.373   5.834 -0.0303 -0.1164 -0.2180
 2002TIP3    H1 5970   4.084   2.385   5.882 -0.9376  0.6897  1.2104
 2002TIP3    H2 5971   3.994   2.279   5.822  1.7129 -0.1616 -1.5574
 2003TIP3   OH2 5972   2.710   6.503   2.732 -0.5342  0.5078  1.1599
 2003TIP3    H1 5973   2.681   6.428   2.783 -2.0783  1.1218  1.2168
 2003TIP3    H2 5974   2.747   6.563   2.796 -0.3431  0.2865  1.2574
 2004TIP3   OH2 5975   1.718   3.409   5.079 -0.0375 -0.7193 -0.0986
 2004TIP3    H1 5976   1.691   3.444   5.164 -0.7686  0.1394 -0.6705
 2004TIP3    H2 5977   1.672   3.326   5.072  0.6764 -1.2034  0.6939
 2005TIP3   OH2 5978   1.725   6.740   0.467  0.3953  1.3262  1.1011
 2005TIP3    H1 5979   1.813   6.721   0.435 -0.2206 -0.5194  0.3461
 2005TIP3    H2 5980   1.671   6.740   0.389 -0.5474  0.6136  1.7330
 2006TIP3   OH2 5981   2.463   5.405   0.338  0.3686  0.2633 -0.1970
 2006TIP3    H1 5982   2.488   5.484   0.290  0.8321  0.9841  1.1801
 2006TIP3    H2 5983   2.379   5.380   0.300  0.8873  0.5986 -1.6105
 2007TIP3   OH2 5984   2.260   5.906   3.669  0.1056 -0.3720  0.7232
 2007TIP3    H1 5985   2.322   5.868   3.731  0.9337 -0.3206 -0.0607
 2007TIP3    H2 5986   2.203   5.961   3.723  0.5994 -0.5921  1.4821
 2008TIP3   OH2 5987   4.754   6.572   3.299 -0.3041 -0.2980 -0.0819
 2008TIP3    H1 5988   4.817   6.592   3.367 -2.2509 -0.1254  1.7793
 2008TIP3    H2 5989   4.736   6.479   3.309 -0.5449 -0.2916 -0.4209
 2009TIP3   OH2 5990   3.174   6.050   5.663 -0.0744  0.1814 -0.5743
 2009TIP3    H1 5991   3.226   6.008   5.731 -0.1787 -0.9050 -1.1370
 2009TIP3    H2 5992   3.227   6.124   5.634 -0.0585  0.7029  0.7169
 2010TIP3   OH2 5993   1.305   1.693   3.071  0.4915  0.0860 -0.0685
 2010TIP3    H1 5994   1.286   1.763   3.009 -3.5773  0.5692  1.4307
 2010TIP3    H2 5995   1.287   1.732   3.157  0.8806 -1.9998  1.0231
 2011TIP3   OH2 5996   1.916   2.596   4.262  0.2743  0.1508  0.4012
 2011TIP3    H1 5997   1.923   2.520   4.320  0.6032  0.0266  0.2018
 2011TIP3    H2 5998   1.914   2.559   4.174  3.5136  0.4582  0.0918
 2012TIP3   OH2 5999   6.655   4.385   0.374 -0.2070  0.5622 -0.2417
 2012TIP3    H1 6000   6.743   4.421   0.384 -0.2871  0.6788  0.0476
 2012TIP3    H2 6001   6.611   4.447   0.316  0.3825 -0.3308 -1.7172
 2013TIP3   OH2 6002   2.812   0.262   4.730 -0.4462 -0.2384  0.1954
 2013TIP3    H1 6003   2.873   0.194   4.703 -0.2832  0.1889 -0.5452
 2013TIP3    H2 6004   2.736   0.215   4.763 -0.8326 -0.8088 -1.4047
 2014TIP3   OH2 6005   5.363   4.664   4.023  0.3275  0.2483  0.6255
 2014TIP3    H1 6006   5.376   4.719   3.945  0.0559  1.8330  1.6470
 2014TIP3    H2 6007   5.276   4.687   4.054 -0.3267 -1.7271  0.4000
 2015TIP3   OH2 6008   0.348   3.370   2.904  0.0380 -0.4186  0.1849
 2015TIP3    H1 6009   0.416   3.436   2.920 -0.7841  0.3325  0.6753
 2015TIP3    H2 6010   0.347   3.317   2.984  0.0177 -0.4028  0.1952
 2016TIP3   OH2 6011   0.274   4.966   0.644  0.5765  0.3579 -0.8275
 2016TIP3    H1 6012   0.220   4.975   0.565 -0.6337  0.2515 -0.0457
 2016TIP3    H2 6013   0.304   5.055   0.662 -2.6534  1.2871  0.9149
 2017TIP3   OH2 6014   5.651   5.503   0.107 -0.0672  0.3271 -0.0033
 2017TIP3    H1 6015   5.648   5.408   0.100  1.4743  0.3631 -2.3248
 2017TIP3    H2 6016   5.672   5.533   0.018  2.7208  2.6334  1.2841
 2018TIP3   OH2 6017   6.116   2.974   4.800 -0.4688  0.4905  0.6875
 2018TIP3    H1 6018   6.133   2.893   4.849 -0.0161 -0.5999 -1.1450
 2018TIP3    H2 6019   6.021   2.974   4.787 -0.3658 -0.3245 -0.1797
 2019TIP3   OH2 6020   6.890   4.523   3.652  0.0562 -0.5195 -0.7256
 2019TIP3    H1 6021   6.817   4.569   3.609 -0.7154 -0.8600  0.2011
 2019TIP3    H2 6022   6.890   4.436   3.612 -0.9820 -1.0058  0.2803
 2020TIP3   OH2 6023   1.397   5.172   3.880 -0.0249 -0.0684 -0.6589
 2020TIP3    H1 6024   1.327   5.148   3.819 -1.1878 -2.8202  1.5382
 2020TIP3    H2 6025   1.440   5.089   3.901  0.1847  0.6923  2.3582
 2021TIP3   OH2 6026   2.263   0.772   1.482  0.0525  0.2667 -0.4971
 2021TIP3    H1 6027   2.329   0.836   1.455  1.1388 -0.8795 -0.6725
 2021TIP3    H2 6028   2.307   0.687   1.472 -0.3273 -0.3849  2.5187
 2022TIP3   OH2 6029   2.139   1.478   0.319  0.1413 -0.7530 -0.2675
 2022TIP3    H1 6030   2.095   1.514   0.242  0.0905  1.4691  0.7258
 2022TIP3    H2 6031   2.072   1.480   0.388  1.6062  2.8801  1.3328
 2023TIP3   OH2 6032   5.492   3.883   5.323  0.5774  0.0339 -0.0168
 2023TIP3    H1 6033   5.491   3.810   5.384  0.0497  0.7023  0.8052
 2023TIP3    H2 6034   5.455   3.956   5.373 -1.1338  0.2786 -1.5147
 2024TIP3   OH2 6035   2.212   3.581   1.733  0.3125 -0.8512  0.7549
 2024TIP3    H1 6036   2.186   3.493   1.763  0.7844 -1.4421 -0.5378
 2024TIP3    H2 6037   2.304   3.573   1.711  0.1197 -0.2970 -0.3211
 2025TIP3   OH2 6038   2.241   3.664   5.043 -0.2176  0.4695 -0.2847
 2025TIP3    H1 6039   2.192   3.620   5.112  2.4364 -0.8784  0.9055
 2025TIP3    H2 6040   2.188   3.740   5.019 -1.9530  0.1017  2.1405
 2026TIP3   OH2 6041   1.443   0.578   3.464  0.2339 -0.2776  0.7276
 2026TIP3    H1 6042   1.495   0.598   3.541 -1.7101  1.1660  1.7564
 2026TIP3    H2 6043   1.391   0.501   3.489  2.9147 -2.8129 -0.8876
 2027TIP3   OH2 6044   4.817   1.530   2.520  0.5879  0.3953  0.1523
 2027TIP3    H1 6045   4.901   1.576   2.516  1.7054 -1.5209 -3.0585
 2027TIP3    H2 6046   4.823   1.476   2.598  2.0359  0.8590  0.4060
 2028TIP3   OH2 6047   6.632   5.496   2.835 -0.2920 -0.3090 -0.4784
 2028TIP3    H1 6048   6.658   5.423   2.891  0.5313 -0.4910 -1.0681
 2028TIP3    H2 6049   6.677   5.572   2.873  0.7667 -0.5391 -1.2156
 2029TIP3   OH2 6050   4.359   2.317   3.513 -0.5719  0.2039 -0.4490
 2029TIP3    H1 6051   4.314   2.273   3.586  0.0436 -0.9439 -0.7324
 2029TIP3    H2 6052   4.390   2.399   3.551  0.6929 -0.8482  0.9457
 2030TIP3   OH2 6053   5.227   0.790   4.981 -0.2108 -0.2408  0.1994
 2030TIP3    H1 6054   5.132   0.786   4.996 -0.5518  0.2631 -1.5717
 2030TIP3    H2 6055   5.265   0.793   5.069 -1.9175  1.0358  0.9597
 2031TIP3   OH2 6056   5.891   0.621   4.535 -0.5052  0.0038  0.5890
 2031TIP3    H1 6057   5.821   0.671   4.578 -0.6146 -0.5773  1.0871
 2031TIP3    H2 6058   5.854   0.534   4.521 -0.3599  0.0825 -0.4025
 2032TIP3   OH2 6059   1.506   0.993   3.783  0.0726  0.1718 -0.2960
 2032TIP3    H1 6060   1.448   0.917   3.780  0.6409 -0.3242  0.5522
 2032TIP3    H2 6061   1.476   1.043   3.860  1.4917 -0.7289  0.8965
 2033TIP3   OH2 6062   6.457   3.845   5.660 -0.5949 -0.0156  0.6104
 2033TIP3    H1 6063   6.490   3.812   5.744  0.4474  1.3008  0.7399
 2033TIP3    H2 6064   6.434   3.766   5.611  0.6568 -0.8968  1.3866
 2034TIP3   OH2 6065   3.864   0.342   1.717  0.2717 -0.0583 -0.0709
 2034TIP3    H1 6066   3.864   0.293   1.800 -0.5150  0.1017  0.0242
 2034TIP3    H2 6067   3.886   0.431   1.743 -2.2577  0.5251  0.3061
 2035TIP3   OH2 6068   3.668   4.009   0.166  0.6055 -0.2694  0.2985
 2035TIP3    H1 6069   3.702   3.965   0.245  0.9238 -1.1010 -0.2809
 2035TIP3    H2 6070   3.632   4.092   0.198 -0.2130 -1.0412  1.4752
 2036TIP3   OH2 6071   5.526   5.055   1.834 -0.2710 -0.3629 -0.1317
 2036TIP3    H1 6072   5.457   5.046   1.899 -0.0682 -0.3515  0.0857
 2036TIP3    H2 6073   5.521   4.974   1.783 -1.6709  0.4124 -1.3309
 2037TIP3   OH2 6074   6.380   2.853   1.250 -0.4542  0.2398  0.7618
 2037TIP3    H1 6075   6.472   2.850   1.275 -0.6054  1.7851  1.6534
 2037TIP3    H2 6076   6.371   2.786   1.183  0.7271 -1.8168  2.5138
 2038TIP3   OH2 6077   2.713   6.053   5.193  0.7457 -0.8694  0.1695
 2038TIP3    H1 6078   2.809   6.057   5.188  0.8522 -0.9454  1.6140
 2038TIP3    H2 6079   2.686   6.143   5.206  0.6458 -0.8737 -0.0154
 2039TIP3   OH2 6080   1.903   5.895   1.279  0.0922  0.2774  0.2959
 2039TIP3    H1 6081   1.853   5.968   1.316  1.4067  1.6237 -0.5090
 2039TIP3    H2 6082   1.921   5.920   1.189  2.4890  0.0178  0.6355
 2040TIP3   OH2 6083   6.658   6.552   5.381  0.8908  0.1604 -0.0739
 2040TIP3    H1 6084   6.602   6.592   5.447 -0.6444 -2.3250  0.2766
 2040TIP3    H2 6085   6.718   6.497   5.430  0.8521 -0.4031 -0.6325
 2041TIP3   OH2 6086   5.466   2.682   2.993  0.0801  0.5403 -0.3084
 2041TIP3    H1 6087   5.489   2.749   3.057  1.3359 -0.0728 -0.0822
 2041TIP3    H2 6088   5.513   2.708   2.914  1.3727 -0.5666  0.0663
 2042TIP3   OH2 6089   1.847   1.694   4.948  0.2255  0.0189 -0.1756
 2042TIP3    H1 6090   1.871   1.680   5.040  0.1940  0.6157 -0.0755
 2042TIP3    H2 6091   1.845   1.789   4.937  1.9082 -0.0320 -1.2405
 2043TIP3   OH2 6092   1.466   1.474   2.249 -0.1669 -0.3761 -0.0236
 2043TIP3    H1 6093   1.494   1.393   2.207 -1.9041 -1.2836  0.5243
 2043TIP3    H2 6094   1.541   1.499   2.304  0.6524 -1.2204 -0.7227
 2044TIP3   OH2 6095   5.716   0.084   2.664  0.2744 -0.4512 -0.0103
 2044TIP3    H1 6096   5.701  -0.010   2.668 -2.6362 -0.3347 -3.2862
 2044TIP3    H2 6097   5.644   0.123   2.713 -1.7161 -0.0375 -2.9751
 2045TIP3   OH2 6098   4.488   1.919   0.749 -0.1584  0.7100 -0.3957
 2045TIP3    H1 6099   4.564   1.935   0.804 -0.4709  1.1580 -0.0820
 2045TIP3    H2 6100   4.524   1.908   0.661  0.3239  0.2046 -0.1403
 2046TIP3   OH2 6101   3.202   3.404   4.998  0.5243  0.4130 -0.3759
 2046TIP3    H1 6102   3.252   3.325   4.977  0.0310 -0.4517  1.5138
 2046TIP3    H2 6103   3.155   3.382   5.079 -2.9819  1.1569 -2.0247
 2047TIP3   OH2 6104   7.144   6.261   4.572  0.0159  0.5861 -0.0762
 2047TIP3    H1 6105   7.115   6.312   4.496  0.2488 -0.8370 -1.1549
 2047TIP3    H2 6106   7.065   6.249   4.624 -1.2603 -2.3348 -2.4375
 2048TIP3   OH2 6107   0.165   1.011   4.470  0.0489 -0.2580 -0.0169
 2048TIP3    H1 6108   0.096   1.072   4.496 -1.5131 -1.9919  0.0620
 2048TIP3    H2 6109   0.140   0.927   4.509  1.2783 -1.3538 -1.4565
 2049TIP3   OH2 6110   5.616   3.789   2.988  0.2079  0.1464  0.3081
 2049TIP3    H1 6111   5.554   3.717   3.000 -0.3596  0.5213 -0.3243
 2049TIP3    H2 6112   5.583   3.838   2.912  0.8285  0.8196  0.4543
 2050TIP3   OH2 6113   1.605   5.698   2.030 -0.1985 -0.2246 -0.0827
 2050TIP3    H1 6114   1.590   5.672   2.121 -1.1368 -0.5633 -0.3221
 2050TIP3    H2 6115   1.520   5.685   1.988  0.2710 -0.2072 -1.0429
 2051TIP3   OH2 6116   1.588   4.246   1.669 -0.3126 -0.7835  0.2904
 2051TIP3    H1 6117   1.651   4.175   1.683  0.2472 -0.4870 -0.6571
 2051TIP3    H2 6118   1.643   4.324   1.659 -0.8025 -0.5800 -0.9197
 2052TIP3   OH2 6119   0.855   3.449   5.130  0.1641  0.1232 -0.0304
 2052TIP3    H1 6120   0.787   3.512   5.153  1.2912  1.0831  0.8336
 2052TIP3    H2 6121   0.810   3.381   5.081 -1.1281  1.5476 -0.9037
 2053TIP3   OH2 6122   3.297   0.994   5.116  0.4526 -0.3900  0.3336
 2053TIP3    H1 6123   3.237   0.933   5.159  1.0044 -0.5372  0.9142
 2053TIP3    H2 6124   3.301   0.964   5.025  1.3298 -1.7349  0.7728
 2054TIP3   OH2 6125   4.710   5.577   0.360  0.8436 -0.7464  0.4904
 2054TIP3    H1 6126   4.715   5.665   0.321 -0.0213 -0.6489  0.5790
 2054TIP3    H2 6127   4.757   5.521   0.299  1.2661 -0.2520  0.3496
 2055TIP3   OH2 6128   1.257   0.943   2.747 -0.4813  0.1574 -0.0262
 2055TIP3    H1 6129   1.338   0.936   2.797 -0.1468  0.2819 -0.5437
 2055TIP3    H2 6130   1.283   0.924   2.657 -1.0443  0.1193 -0.1831
 2056TIP3   OH2 6131   3.215   4.410   2.866 -0.0878  0.2432  0.0265
 2056TIP3    H1 6132   3.159   4.469   2.917  0.3829  1.7627 -1.1522
 2056TIP3    H2 6133   3.283   4.467   2.830  1.3656 -1.3084  0.2012
 2057TIP3   OH2 6134   1.615   2.206   4.646 -0.3371  0.4290  0.5314
 2057TIP3    H1 6135   1.586   2.194   4.556 -2.5061 -1.1031  1.3284
 2057TIP3    H2 6136   1.708   2.225   4.640  0.0699 -1.8330 -1.9336
 2058TIP3   OH2 6137   3.485   1.638   5.445  0.2015 -0.0512  0.0283
 2058TIP3    H1 6138   3.435   1.560   5.420  0.7443 -0.3627 -0.1008
 2058TIP3    H2 6139   3.576   1.609   5.445  0.3918  0.5358  0.1680
 2059TIP3   OH2 6140   4.275   3.914   2.256 -0.0176  1.1779 -0.3335
 2059TIP3    H1 6141   4.365   3.937   2.232  0.4361 -0.1418  0.0089
 2059TIP3    H2 6142   4.232   3.998   2.272  1.2455  1.8202 -0.1806
 2060TIP3   OH2 6143   1.089   3.482   1.266 -0.0964  0.3703 -0.2449
 2060TIP3    H1 6144   1.021   3.548   1.274 -0.7105 -0.3506  0.9642
 2060TIP3    H2 6145   1.041   3.399   1.262  0.6736 -0.2164  1.4199
 2061TIP3   OH2 6146   6.488   4.758   3.362  0.3169 -0.3725 -0.0073
 2061TIP3    H1 6147   6.466   4.768   3.455 -1.4950  0.7656 -0.5155
 2061TIP3    H2 6148   6.407   4.725   3.322  1.1941 -1.2406 -1.1439
 2062TIP3   OH2 6149   3.533   2.500   4.645  0.1144 -0.3622  0.0178
 2062TIP3    H1 6150   3.554   2.592   4.657  0.3648 -0.4540  0.2857
 2062TIP3    H2 6151   3.604   2.453   4.688 -1.0114 -0.6805  1.6438
 2063TIP3   OH2 6152   0.561   1.750   1.919  0.4175  0.8647 -0.0366
 2063TIP3    H1 6153   0.501   1.738   1.846  0.9112 -1.1712 -0.1641
 2063TIP3    H2 6154   0.646   1.769   1.878  0.3550  1.3766  0.0667
 2064TIP3   OH2 6155   6.247   5.930   3.819  0.3631 -0.0383  0.0780
 2064TIP3    H1 6156   6.164   5.945   3.774  0.2715 -1.6781 -0.3464
 2064TIP3    H2 6157   6.306   5.997   3.783 -0.2057 -0.1826 -1.1528
 2065TIP3   OH2 6158   6.374   4.054   3.489  0.2208  0.2364 -0.0954
 2065TIP3    H1 6159   6.436   4.041   3.417  0.7270 -1.9464  0.6723
 2065TIP3    H2 6160   6.323   3.973   3.493 -0.5306  0.7385  1.3237
 2066TIP3   OH2 6161   0.451   1.720   1.679 -0.0187 -0.1010  0.3320
 2066TIP3    H1 6162   0.359   1.741   1.694  0.6626  3.4621  0.4031
 2066TIP3    H2 6163   0.464   1.736   1.585  0.1802 -2.5338 -0.1228
 2067TIP3   OH2 6164   6.962   3.595   3.987 -0.1637  0.7918 -0.0730
 2067TIP3    H1 6165   6.898   3.613   3.918  1.1801  0.2910 -1.5416
 2067TIP3    H2 6166   7.015   3.523   3.952  2.2454  2.2566  0.2760
 2068TIP3   OH2 6167   3.741   6.298   0.683  0.1435 -0.0425  0.1928
 2068TIP3    H1 6168   3.736   6.345   0.600 -0.4281  0.2325  0.3786
 2068TIP3    H2 6169   3.778   6.361   0.744  0.2660 -0.1426  0.2222
 2069TIP3   OH2 6170   2.613   1.733   4.526  0.3860 -0.5691  0.4866
 2069TIP3    H1 6171   2.551   1.698   4.591 -1.0227  1.1857  0.1653
 2069TIP3    H2 6172   2.560   1.747   4.447  1.1195  1.1927  0.2571
 2070TIP3   OH2 6173   6.105   3.109   0.908 -0.6021  0.5878  0.2565
 2070TIP3    H1 6174   6.065   3.026   0.932 -0.3705  0.7030  1.1063
 2070TIP3    H2 6175   6.175   3.121   0.972  0.4914  0.6162 -0.9018
 2071TIP3   OH2 6176   3.350   1.799   3.096  0.1755  0.9864  0.0246
 2071TIP3    H1 6177   3.304   1.715   3.091 -0.8535  1.5293  0.2685
 2071TIP3    H2 6178   3.443   1.775   3.094 -0.1054 -0.1401 -0.1603
 2072TIP3   OH2 6179   3.865   1.827   1.725  0.3894 -0.2619 -0.1380
 2072TIP3    H1 6180   3.884   1.919   1.703 -0.1920 -0.4544 -1.5419
 2072TIP3    H2 6181   3.911   1.777   1.657  0.8804 -1.0358  0.7488
 2073TIP3   OH2 6182   5.863   0.509   5.342 -0.5349  0.5555  0.4939
 2073TIP3    H1 6183   5.888   0.446   5.410 -2.0912  0.3737  0.9386
 2073TIP3    H2 6184   5.893   0.593   5.376  1.5124  0.1143 -0.0745
 2074TIP3   OH2 6185   7.157   6.099   4.970 -0.1832 -0.2815  0.0623
 2074TIP3    H1 6186   7.195   6.185   4.989  1.0630 -0.6995 -0.3728
 2074TIP3    H2 6187   7.110   6.111   4.887  0.0616 -0.0369 -0.0433
 2075TIP3   OH2 6188   0.575   2.899   4.022 -0.2358 -0.2624 -0.4589
 2075TIP3    H1 6189   0.638   2.927   3.955  0.8445  1.0131  1.0276
 2075TIP3    H2 6190   0.529   2.979   4.047 -0.1856 -0.6013  0.7684
 2076TIP3   OH2 6191   2.298   0.384   3.933 -0.2778  0.1715  0.1788
 2076TIP3    H1 6192   2.308   0.444   4.008 -1.0739  1.6375 -0.8279
 2076TIP3    H2 6193   2.382   0.389   3.888 -0.4477  0.7988 -0.0766
 2077TIP3   OH2 6194   0.318   6.486   3.686  0.4866  0.8558  0.0375
 2077TIP3    H1 6195   0.404   6.514   3.717  0.7970  0.8708 -0.8038
 2077TIP3    H2 6196   0.330   6.393   3.665  0.4602  0.9957 -0.6184
 2078TIP3   OH2 6197   0.099   3.085   5.735  0.1457  0.1825 -0.0276
 2078TIP3    H1 6198   0.111   3.007   5.681 -0.8265  0.0567 -0.0780
 2078TIP3    H2 6199   0.004   3.097   5.740  0.2692  1.2363  0.1591
 2079TIP3   OH2 6200   2.556   0.078   2.044 -0.0739 -0.2554  0.6609
 2079TIP3    H1 6201   2.525  -0.012   2.039  0.3565 -0.4030  0.5910
 2079TIP3    H2 6202   2.485   0.130   2.008 -0.9059 -0.4326  1.9726
 2080TIP3   OH2 6203   6.449   3.163   4.788 -0.0091  0.3308 -0.0413
 2080TIP3    H1 6204   6.433   3.247   4.745 -0.7583  1.0832  1.6350
 2080TIP3    H2 6205   6.541   3.167   4.816 -0.1260  0.6980  0.2834
 2081TIP3   OH2 6206   1.682   4.428   4.434  0.0691 -0.2645  0.3967
 2081TIP3    H1 6207   1.725   4.513   4.437  1.0791 -0.7629  0.4394
 2081TIP3    H2 6208   1.751   4.366   4.408 -1.2378 -0.7135 -2.3955
 2082TIP3   OH2 6209   4.451   5.893   1.146 -0.5287 -0.2591  0.0033
 2082TIP3    H1 6210   4.543   5.911   1.168 -0.1932 -1.1066 -0.6704
 2082TIP3    H2 6211   4.442   5.798   1.156 -1.1310 -0.2827 -0.6716
 2083TIP3   OH2 6212   4.234   0.948   1.648  0.7499  0.2459 -0.3008
 2083TIP3    H1 6213   4.262   1.017   1.588  0.7539  1.8952  1.4957
 2083TIP3    H2 6214   4.138   0.949   1.644  0.7406 -1.5285 -2.2284
 2084TIP3   OH2 6215   4.902   2.747   4.738 -0.5232 -0.7354  0.2164
 2084TIP3    H1 6216   4.897   2.672   4.797 -0.6048  0.0851  1.2889
 2084TIP3    H2 6217   4.874   2.822   4.791  0.8478  0.2855 -0.4312
 2085TIP3   OH2 6218   3.941   1.713   4.424 -0.3021 -0.3870  0.3480
 2085TIP3    H1 6219   3.955   1.713   4.329  0.9676  2.8072  0.4309
 2085TIP3    H2 6220   4.027   1.689   4.460  0.3930  2.2290  0.6439
 2086TIP3   OH2 6221   6.675   3.236   4.893  0.0442 -0.4001  0.3700
 2086TIP3    H1 6222   6.691   3.216   4.985  0.1946 -3.7199 -0.2504
 2086TIP3    H2 6223   6.755   3.209   4.848 -1.0638 -1.5871 -1.0004
 2087TIP3   OH2 6224   6.679   1.487   4.258  0.2329  0.4445 -0.0839
 2087TIP3    H1 6225   6.622   1.518   4.329  0.7168 -1.6466  1.3185
 2087TIP3    H2 6226   6.768   1.507   4.288  0.5633 -2.1911  0.9150
 2088TIP3   OH2 6227   5.512   0.222   4.297 -0.0629 -0.3767 -0.3949
 2088TIP3    H1 6228   5.473   0.141   4.263  0.2309 -0.9139  0.5105
 2088TIP3    H2 6229   5.598   0.196   4.330 -0.2385  0.1632  0.5313
 2089TIP3   OH2 6230   6.270   5.872   5.071  0.3487  0.4974 -0.3262
 2089TIP3    H1 6231   6.226   5.854   5.155 -1.3300 -0.5432 -1.3647
 2089TIP3    H2 6232   6.237   5.958   5.045 -1.3838 -0.3914 -1.2269
 2090TIP3   OH2 6233   5.529   0.675   3.940 -0.2969 -0.2198  0.4455
 2090TIP3    H1 6234   5.569   0.711   4.018  0.5705  0.1258 -0.1510
 2090TIP3    H2 6235   5.602   0.651   3.883 -0.8402 -2.1419  0.4580
 2091TIP3   OH2 6236   1.895   6.243   4.048 -0.5194  0.0339 -0.4618
 2091TIP3    H1 6237   1.878   6.182   4.120  0.6823 -1.1148 -1.1109
 2091TIP3    H2 6238   1.808   6.261   4.011 -1.0382 -0.1485  0.6375
 2092TIP3   OH2 6239   3.104   1.958   3.218  0.5880  0.5124 -0.2513
 2092TIP3    H1 6240   3.050   2.032   3.246 -0.1125  0.4959 -1.5240
 2092TIP3    H2 6241   3.189   1.997   3.198  0.3244  0.9196 -0.5897
 2093TIP3   OH2 6242   1.259   3.236   4.884  0.1073  0.2980 -0.2705
 2093TIP3    H1 6243   1.166   3.218   4.897  0.0025  0.7964 -0.2972
 2093TIP3    H2 6244   1.295   3.244   4.973 -0.8036  4.6879 -0.0679
 2094TIP3   OH2 6245   2.349   6.671   5.818 -0.0622  0.0750  0.1928
 2094TIP3    H1 6246   2.311   6.700   5.735  1.9662 -0.4314 -0.9761
 2094TIP3    H2 6247   2.396   6.747   5.852  0.2318 -0.0971  0.1819
 2095TIP3   OH2 6248   1.753   3.253   2.730 -0.7568 -0.4073  0.2615
 2095TIP3    H1 6249   1.762   3.317   2.800  2.0558  1.5831 -1.6680
 2095TIP3    H2 6250   1.661   3.256   2.704 -1.1209  1.2804  1.6476
 2096TIP3   OH2 6251   5.828   5.038   4.533 -0.3570  0.0163 -0.2725
 2096TIP3    H1 6252   5.762   5.107   4.529  0.0880  0.5252  0.9867
 2096TIP3    H2 6253   5.900   5.075   4.585 -0.6085 -1.7805  1.4714
 2097TIP3   OH2 6254   5.439   3.147   1.505 -0.1682 -0.2666  0.2653
 2097TIP3    H1 6255   5.371   3.197   1.550 -0.7556 -0.5718 -0.2780
 2097TIP3    H2 6256   5.415   3.055   1.519  0.0603 -0.3741 -0.0327
 2098TIP3   OH2 6257   1.980   0.479   4.168 -0.2295 -0.0316  0.0540
 2098TIP3    H1 6258   1.975   0.460   4.075 -2.2744  2.3649 -0.4257
 2098TIP3    H2 6259   1.995   0.394   4.209 -0.3575 -1.3073 -2.3705
 2099TIP3   OH2 6260   6.622   5.003   3.328 -0.3820 -0.1626 -0.0178
 2099TIP3    H1 6261   6.711   4.989   3.295 -0.5046 -0.6133 -0.1580
 2099TIP3    H2 6262   6.602   4.924   3.376 -1.3752 -0.8420 -1.4792
 2100TIP3   OH2 6263   5.876   0.305   4.432  0.0514  0.5026  0.1166
 2100TIP3    H1 6264   5.831   0.224   4.408  1.0791  0.2465 -1.0376
 2100TIP3    H2 6265   5.815   0.349   4.491 -0.4922 -1.1436  0.8497
 2101TIP3   OH2 6266   1.208   0.872   3.330  0.4448 -0.1415 -0.0962
 2101TIP3    H1 6267   1.132   0.841   3.281  0.4536  1.1074 -0.9421
 2101TIP3    H2 6268   1.266   0.795   3.336 -0.2776 -0.7394 -0.6305
 2102TIP3   OH2 6269   4.905   1.227   3.086  0.1436  0.5651  0.7893
 2102TIP3    H1 6270   4.988   1.180   3.095  0.1820  0.7008  1.1723
 2102TIP3    H2 6271   4.929   1.319   3.089  0.1492  0.6369 -0.6984
 2103TIP3   OH2 6272   3.134   2.227   3.059  0.0299  0.1605  0.4985
 2103TIP3    H1 6273   3.207   2.172   3.088  1.0543  1.4350  0.4020
 2103TIP3    H2 6274   3.139   2.223   2.963  0.1633  0.4951  0.4915
 2104TIP3   OH2 6275   7.203   0.395   0.684 -0.2946  0.2674 -0.5510
 2104TIP3    H1 6276   7.202   0.484   0.718 -3.1589 -0.2057  0.9173
 2104TIP3    H2 6277   7.138   0.395   0.615  0.0323 -0.5851 -0.8725
 2105TIP3   OH2 6278   6.452   3.895   0.174 -0.3356  0.0604 -0.8281
 2105TIP3    H1 6279   6.427   3.828   0.110 -1.9674 -0.7965  0.6156
 2105TIP3    H2 6280   6.386   3.964   0.164 -1.7302 -0.9073  1.0728
 2106TIP3   OH2 6281   1.917   6.531   2.428  0.8852  0.1302 -0.1350
 2106TIP3    H1 6282   1.907   6.517   2.334  0.7841  0.3281 -0.1542
 2106TIP3    H2 6283   1.845   6.482   2.468  1.6966 -1.0489 -0.0748
 2107TIP3   OH2 6284   0.410   5.444   1.071 -0.7246  0.1642  0.1232
 2107TIP3    H1 6285   0.326   5.398   1.064 -0.8221  0.0869  1.5744
 2107TIP3    H2 6286   0.474   5.381   1.038 -1.2639  0.4085 -1.4761
 2108TIP3   OH2 6287   6.466   2.531   1.902 -0.0004 -0.7937  0.0851
 2108TIP3    H1 6288   6.459   2.461   1.966 -2.2357 -0.0106  0.8027
 2108TIP3    H2 6289   6.382   2.531   1.857  0.6338  0.2557 -1.1580
 2109TIP3   OH2 6290   5.844   5.457   0.314  0.2449 -0.3269  0.8586
 2109TIP3    H1 6291   5.759   5.456   0.271  0.7218  0.0218 -0.1371
 2109TIP3    H2 6292   5.864   5.550   0.327  1.8718 -0.1905 -1.8851
 2110TIP3   OH2 6293   5.349   1.531   2.314 -0.2156  0.4910 -0.0467
 2110TIP3    H1 6294   5.418   1.504   2.253  0.7621 -0.5785  1.4600
 2110TIP3    H2 6295   5.269   1.495   2.276  0.2189  0.6319 -1.1561
 2111TIP3   OH2 6296   4.839   1.823   5.486  0.1432 -0.3488  0.2966
 2111TIP3    H1 6297   4.842   1.801   5.393 -0.6510 -0.3085  0.2597
 2111TIP3    H2 6298   4.845   1.738   5.530 -1.4201 -0.5471  0.1721
 2112TIP3   OH2 6299   6.763   4.665   4.214  0.1463 -0.5049  0.2876
 2112TIP3    H1 6300   6.691   4.632   4.268  0.2290  1.1645  1.4740
 2112TIP3    H2 6301   6.752   4.620   4.130  0.2513 -3.4847  1.7522
 2113TIP3   OH2 6302   6.388   0.431   0.023  0.2756  0.5524 -0.3099
 2113TIP3    H1 6303   6.439   0.352   0.007  0.7054  0.5708  0.9062
 2113TIP3    H2 6304   6.310   0.401   0.069  1.8870  1.0982  3.0372
 2114TIP3   OH2 6305   3.701   1.414   2.595  0.2711  0.5675  0.5419
 2114TIP3    H1 6306   3.626   1.387   2.543  0.6745 -0.5617  0.5223
 2114TIP3    H2 6307   3.664   1.467   2.665 -0.7893 -1.4203  1.5631
 2115TIP3   OH2 6308   3.494   1.568  -0.020 -0.1800 -0.5316 -0.3205
 2115TIP3    H1 6309   3.516   1.510   0.052  2.2085 -0.9633 -1.2945
 2115TIP3    H2 6310   3.409   1.606   0.004 -0.2844 -1.9779  1.8350
 2116TIP3   OH2 6311   2.963   2.384   1.382  0.3134 -0.0611  0.7567
 2116TIP3    H1 6312   2.933   2.357   1.469 -0.0702  1.0676  0.9824
 2116TIP3    H2 6313   3.021   2.459   1.398 -0.6771  0.8995 -0.0208
 2117TIP3   OH2 6314   5.525   1.197   4.909  0.0615  0.1132  0.1908
 2117TIP3    H1 6315   5.601   1.254   4.895 -0.0910  0.6418  1.4104
 2117TIP3    H2 6316   5.546   1.118   4.859  2.0588 -0.3105  1.5576
 2118TIP3   OH2 6317   0.451   0.534   0.699  0.2908  0.5480  0.6091
 2118TIP3    H1 6318   0.397   0.535   0.620  0.4435  0.6786  0.5062
 2118TIP3    H2 6319   0.512   0.607   0.688 -0.5266  1.3875  1.4335
 2119TIP3   OH2 6320   6.369   2.281   1.548 -0.6352 -0.1588  0.3120
 2119TIP3    H1 6321   6.407   2.230   1.476 -0.7381  1.3229 -0.8527
 2119TIP3    H2 6322   6.319   2.218   1.599  1.0043 -1.6195  0.1976
 2120TIP3   OH2 6323   1.756   3.274   0.912 -0.0088  0.8672 -0.3121
 2120TIP3    H1 6324   1.740   3.356   0.866  0.1900  1.2952  0.3762
 2120TIP3    H2 6325   1.796   3.300   0.995  0.6581  0.0403 -0.3631
 2121TIP3   OH2 6326   3.016   0.215   3.898  0.6770  0.0668  0.1213
 2121TIP3    H1 6327   2.965   0.169   3.964 -1.7304  1.9531 -0.2539
 2121TIP3    H2 6328   2.959   0.287   3.870  1.5973 -0.5162 -3.8926
 2122TIP3   OH2 6329   7.007   6.293   5.595  0.4256 -0.0663 -0.4666
 2122TIP3    H1 6330   7.098   6.315   5.613 -0.0015  0.4393  1.2601
 2122TIP3    H2 6331   7.005   6.198   5.592  0.6333 -0.2221  2.0986
 2123TIP3   OH2 6332   1.820   3.446   5.792  0.2652  0.0099 -0.1035
 2123TIP3    H1 6333   1.908   3.420   5.822  1.0879 -0.1027 -2.4338
 2123TIP3    H2 6334   1.778   3.363   5.768 -0.4953  0.0708  0.9554
 2124TIP3   OH2 6335   1.352   0.690   1.347  0.0351  0.3645 -0.4629
 2124TIP3    H1 6336   1.374   0.617   1.290 -1.1894 -3.2613  3.1564
 2124TIP3    H2 6337   1.421   0.690   1.414 -1.0859  1.0799  0.7596
 2125TIP3   OH2 6338   3.308   0.542   3.555 -0.2792 -0.1989  0.2638
 2125TIP3    H1 6339   3.237   0.565   3.495  1.0643  2.2262 -0.5236
 2125TIP3    H2 6340   3.340   0.457   3.523 -0.5463  0.3417 -1.5784
 2126TIP3   OH2 6341   5.992   0.912   0.516 -0.0332 -0.0603  0.3717
 2126TIP3    H1 6342   5.936   0.912   0.437 -0.1616  1.9468  0.4041
 2126TIP3    H2 6343   6.062   0.973   0.495  0.2211  0.0947  1.6206
 2127TIP3   OH2 6344   2.721   0.904   0.296 -0.1725  0.4021  0.2036
 2127TIP3    H1 6345   2.761   0.970   0.240  0.5649 -0.7181 -0.6349
 2127TIP3    H2 6346   2.627   0.919   0.289 -0.0908  4.3551  3.7229
 2128TIP3   OH2 6347   5.470   3.639   3.524 -0.5017  0.0992 -0.2469
 2128TIP3    H1 6348   5.414   3.683   3.588  0.6759 -0.3853  1.1666
 2128TIP3    H2 6349   5.523   3.709   3.486 -0.7115  0.2926 -0.1846
 2129TIP3   OH2 6350   5.569   6.285   0.522 -0.0478 -0.0765  0.0964
 2129TIP3    H1 6351   5.507   6.251   0.457  0.0117  0.0281 -0.0150
 2129TIP3    H2 6352   5.545   6.377   0.532  0.0856 -0.0380  0.0583
 2130TIP3   OH2 6353   1.663   1.177   3.325 -0.1074 -0.0689 -0.0538
 2130TIP3    H1 6354   1.683   1.271   3.318  1.0545 -0.1682  1.3681
 2130TIP3    H2 6355   1.653   1.162   3.419 -2.2281 -1.0245 -0.3832
 2131TIP3   OH2 6356   3.387   6.555   0.503 -0.3485 -0.6162  0.0995
 2131TIP3    H1 6357   3.297   6.531   0.521  0.1962 -0.7770  3.0877
 2131TIP3    H2 6358   3.408   6.621   0.569  0.6873  2.1711 -2.7502
 2132TIP3   OH2 6359   7.040   5.215   3.783  0.4534  0.5540  0.4394
 2132TIP3    H1 6360   7.076   5.236   3.696  1.1272  1.3982  0.9103
 2132TIP3    H2 6361   7.031   5.119   3.782 -2.1787  0.6983 -1.5607
 2133TIP3   OH2 6362   1.291   4.228   4.533 -0.3875 -0.4511 -0.1381
 2133TIP3    H1 6363   1.322   4.149   4.578 -2.4169 -0.7771  0.8286
 2133TIP3    H2 6364   1.211   4.252   4.581 -1.1332  0.7941 -1.9154
 2134TIP3   OH2 6365   4.177   6.164   4.028 -0.2140  0.3911 -0.5830
 2134TIP3    H1 6366   4.120   6.240   4.017 -0.5082  0.3971  0.9051
 2134TIP3    H2 6367   4.117   6.090   4.037 -0.0160  0.4273  1.2248
 2135TIP3   OH2 6368   5.642   2.934   4.658 -0.5448  0.4101 -0.5782
 2135TIP3    H1 6369   5.679   2.846   4.646 -0.8931 -0.0016  1.1674
 2135TIP3    H2 6370   5.714   2.985   4.694 -0.9107  0.2901  0.3449
 2136TIP3   OH2 6371   3.706   0.736   2.645  0.2745 -0.2689 -0.0864
 2136TIP3    H1 6372   3.727   0.646   2.669  0.3514 -0.0378  0.7495
 2136TIP3    H2 6373   3.766   0.757   2.573  0.0660 -0.9706 -0.4725
 2137TIP3   OH2 6374   5.292   6.066   3.775 -0.5590  0.1215 -0.4011
 2137TIP3    H1 6375   5.197   6.064   3.762 -1.0586  0.6347  2.5309
 2137TIP3    H2 6376   5.305   6.032   3.864  1.6427  3.3683  0.6792
 2138TIP3   OH2 6377   4.959   4.669   4.700  0.1840 -0.2427 -0.4140
 2138TIP3    H1 6378   4.872   4.707   4.713  0.5223  0.3505  0.2114
 2138TIP3    H2 6379   4.954   4.582   4.740  0.9424  1.2065  3.2452
 2139TIP3   OH2 6380   0.073   3.237   3.246  0.4729 -0.1094  0.0535
 2139TIP3    H1 6381   0.123   3.315   3.270  1.5854 -0.4069 -1.1758
 2139TIP3    H2 6382   0.137   3.178   3.207 -0.5996 -1.0804 -0.3049
 2140TIP3   OH2 6383   1.688   5.893   4.880 -0.7574  0.1256  0.3164
 2140TIP3    H1 6384   1.751   5.883   4.809 -1.0304  0.0670  0.0842
 2140TIP3    H2 6385   1.689   5.987   4.900 -0.0675  0.0256  0.7982
 2141TIP3   OH2 6386   5.226   4.327   3.048  0.0738 -0.2880  0.2447
 2141TIP3    H1 6387   5.225   4.234   3.029  0.9118 -0.2483 -0.0426
 2141TIP3    H2 6388   5.181   4.367   2.973 -0.6501 -0.4874  0.5678
 2142TIP3   OH2 6389   5.607   2.559   4.048  0.5237 -0.0728 -0.7046
 2142TIP3    H1 6390   5.598   2.467   4.021  0.4822  0.0374 -1.0665
 2142TIP3    H2 6391   5.702   2.571   4.057  0.5105 -0.2662 -0.2426
 2143TIP3   OH2 6392   2.788   0.863   4.330 -0.1561  0.6393  0.6520
 2143TIP3    H1 6393   2.828   0.899   4.409  0.1375  2.5336 -0.3056
 2143TIP3    H2 6394   2.782   0.937   4.270 -3.0924 -0.0563 -0.0771
 2144TIP3   OH2 6395   3.471   5.951   0.240  0.0942  0.3808  0.3089
 2144TIP3    H1 6396   3.533   6.022   0.219  1.1259 -0.6874 -0.3633
 2144TIP3    H2 6397   3.527   5.877   0.264 -0.9744 -0.2072  1.0465
 2145TIP3   OH2 6398   5.548   1.992   5.175  0.5666  0.8887 -0.8475
 2145TIP3    H1 6399   5.563   2.072   5.225 -1.4686  0.6022  0.3592
 2145TIP3    H2 6400   5.458   2.001   5.143  0.0433 -1.1547 -0.1146
 2146TIP3   OH2 6401   2.255   0.554   2.283 -0.2800 -0.0894  0.1735
 2146TIP3    H1 6402   2.216   0.537   2.197  1.0211  2.1863 -0.9739
 2146TIP3    H2 6403   2.184   0.537   2.345 -1.3959 -1.3785 -1.3576
 2147TIP3   OH2 6404   5.240   4.693   0.644  0.0826  0.2750  0.0732
 2147TIP3    H1 6405   5.326   4.729   0.626  0.2902  0.4794  1.4115
 2147TIP3    H2 6406   5.205   4.747   0.715  0.4224 -2.0968  2.1684
 2148TIP3   OH2 6407   3.388   5.584   4.721  0.2949 -0.0604 -0.0360
 2148TIP3    H1 6408   3.420   5.645   4.655 -1.2252  0.2609 -0.5144
 2148TIP3    H2 6409   3.299   5.613   4.740  0.7610  0.0310  2.3827
 2149TIP3   OH2 6410   6.304   1.943   2.838  0.6120  0.3271  0.4785
 2149TIP3    H1 6411   6.325   2.029   2.875 -0.7018  0.8415  0.0870
 2149TIP3    H2 6412   6.348   1.942   2.753  0.1361  0.8728  0.2195
 2150TIP3   OH2 6413   0.252   4.653   0.062 -0.0637 -0.0994 -0.4937
 2150TIP3    H1 6414   0.216   4.663  -0.026  0.6233  0.4047 -0.7285
 2150TIP3    H2 6415   0.345   4.633   0.048 -0.8448 -5.7745 -0.1029
 2151TIP3   OH2 6416   1.592   6.023   1.682  0.5483  0.3171  0.0368
 2151TIP3    H1 6417   1.518   6.062   1.636 -0.2694  0.4838  1.4280
 2151TIP3    H2 6418   1.582   5.929   1.668 -0.1296  0.3130  0.4779
 2152TIP3   OH2 6419   5.120   2.610   4.231 -0.3436  0.2700 -0.1819
 2152TIP3    H1 6420   5.061   2.585   4.302 -2.8146 -0.0237 -2.1565
 2152TIP3    H2 6421   5.136   2.528   4.184 -1.4153  0.9080 -1.7482
 2153TIP3   OH2 6422   4.102   4.644   0.355  0.3865  0.2843  0.4280
 2153TIP3    H1 6423   4.128   4.567   0.405  0.5538  0.5104  0.6957
 2153TIP3    H2 6424   4.021   4.620   0.312 -2.0968  1.4013  4.0422
 2154TIP3   OH2 6425   6.678   6.436   4.901  0.1679 -0.1606 -0.2088
 2154TIP3    H1 6426   6.723   6.384   4.835 -0.4413 -0.9705 -0.0132
 2154TIP3    H2 6427   6.744   6.454   4.968  0.8191  0.7762 -1.0799
 2155TIP3   OH2 6428   3.658   3.195   0.542 -0.2027  0.2089  0.3594
 2155TIP3    H1 6429   3.706   3.116   0.518  0.2757  0.7441 -0.4973
 2155TIP3    H2 6430   3.568   3.165   0.554  0.3033 -0.8057  1.9538
 2156TIP3   OH2 6431   2.961   1.782   2.520 -0.0221  0.5455  0.6248
 2156TIP3    H1 6432   2.989   1.693   2.501 -0.9895  0.3056  0.2483
 2156TIP3    H2 6433   3.028   1.838   2.481 -0.8834  0.0232 -1.7910
 2157TIP3   OH2 6434   5.469   2.891   3.841  0.3966  0.1962  0.6937
 2157TIP3    H1 6435   5.544   2.831   3.851 -0.1040 -0.8602 -1.2462
 2157TIP3    H2 6436   5.469   2.943   3.921  2.1810 -0.9313  1.5024
 2158TIP3   OH2 6437   6.821   5.700   0.446  0.4135  0.6331  0.0934
 2158TIP3    H1 6438   6.808   5.672   0.537 -1.7232  0.2734 -0.2821
 2158TIP3    H2 6439   6.757   5.771   0.434  0.2545  0.2658 -1.3052
 2159TIP3   OH2 6440   2.167   5.023   2.579 -0.4350  0.0809 -0.2892
 2159TIP3    H1 6441   2.108   5.059   2.513 -0.2054  0.8523 -0.0877
 2159TIP3    H2 6442   2.157   5.081   2.654  0.1546 -0.1104 -0.0561
 2160TIP3   OH2 6443   1.739   5.160   2.304  0.5810  0.5978 -0.0748
 2160TIP3    H1 6444   1.735   5.240   2.357 -3.9033  0.8767 -0.4516
 2160TIP3    H2 6445   1.723   5.089   2.367  0.0713  0.4697 -0.3416
 2161TIP3   OH2 6446   6.819   5.724   2.481 -0.3742 -0.0343 -0.3651
 2161TIP3    H1 6447   6.913   5.724   2.496 -0.0938  0.2353 -1.8880
 2161TIP3    H2 6448   6.790   5.637   2.507 -0.1123  0.5728  2.1771
 2162TIP3   OH2 6449   2.791   0.376   4.185  0.5748  0.3776 -0.1928
 2162TIP3    H1 6450   2.732   0.446   4.214 -0.3042  0.0718 -1.1629
 2162TIP3    H2 6451   2.827   0.340   4.266 -0.8070  0.3797  0.4536
 2163TIP3   OH2 6452   3.630   0.991   1.032  0.6622  0.2748 -0.2785
 2163TIP3    H1 6453   3.634   0.962   1.123  1.9100 -0.5681 -0.5774
 2163TIP3    H2 6454   3.596   1.080   1.037  1.0163  0.3590  1.0492
 2164TIP3   OH2 6455   1.642   2.801   1.695  0.3025  0.0109 -0.1575
 2164TIP3    H1 6456   1.551   2.795   1.725  0.5236 -0.0083  0.5204
 2164TIP3    H2 6457   1.637   2.847   1.611 -0.4617 -1.0674 -0.7369
 2165TIP3   OH2 6458   1.623   3.472   5.349 -0.5012  0.1664 -0.1850
 2165TIP3    H1 6459   1.558   3.409   5.381 -0.7583 -0.1465 -1.2722
 2165TIP3    H2 6460   1.704   3.448   5.394 -0.3012 -1.7475 -1.4420
 2166TIP3   OH2 6461   1.216   0.887   4.308 -0.2487 -0.2276 -0.0225
 2166TIP3    H1 6462   1.282   0.868   4.375  1.2311  2.6757 -0.4965
 2166TIP3    H2 6463   1.132   0.874   4.353  0.6904  1.0347  2.2862
 2167TIP3   OH2 6464   6.811   0.436   0.954 -0.3177  0.4552  0.3280
 2167TIP3    H1 6465   6.904   0.430   0.978  0.0730  0.7130 -1.0462
 2167TIP3    H2 6466   6.765   0.405   1.031  0.9603 -0.7916  0.6397
 2168TIP3   OH2 6467   3.336   4.884   2.844 -0.0212  0.5944  0.5471
 2168TIP3    H1 6468   3.342   4.882   2.939  0.5056  2.6838  0.6167
 2168TIP3    H2 6469   3.421   4.916   2.815  1.0504 -3.0299 -0.9163
 2169TIP3   OH2 6470   3.716   0.788   3.228 -0.2256  0.1465  0.0991
 2169TIP3    H1 6471   3.758   0.709   3.194 -0.6835  0.3710 -1.0215
 2169TIP3    H2 6472   3.781   0.826   3.287 -0.8392 -2.2843  2.5738
 2170TIP3   OH2 6473   0.184   0.031   3.274  0.0676  0.4147 -0.3999
 2170TIP3    H1 6474   0.205   0.051   3.183 -1.9207  0.3991 -0.8985
 2170TIP3    H2 6475   0.236  -0.047   3.294  0.7773  0.6132 -1.3889
 2171TIP3   OH2 6476   4.726   6.142   2.867 -0.5726  0.3282  0.0087
 2171TIP3    H1 6477   4.669   6.206   2.825 -0.5221 -0.3124 -1.0588
 2171TIP3    H2 6478   4.679   6.059   2.860 -0.8802  0.2870  1.8507
 2172TIP3   OH2 6479   6.822   2.280   0.014  0.3110  0.3669 -0.0685
 2172TIP3    H1 6480   6.819   2.278   0.110 -0.1049 -1.6900 -0.0798
 2172TIP3    H2 6481   6.809   2.372  -0.008  0.1633  0.8525  1.8356
 2173TIP3   OH2 6482   2.905   4.937   0.426 -0.3273  0.2047  0.3716
 2173TIP3    H1 6483   2.881   4.965   0.514 -1.7937 -0.9890  0.3982
 2173TIP3    H2 6484   2.821   4.930   0.379  0.4047  0.5918 -1.0577
 2174TIP3   OH2 6485   5.987   1.511   0.602 -0.3210  0.4173  0.1735
 2174TIP3    H1 6486   6.027   1.424   0.599 -1.1493  0.0284  0.2272
 2174TIP3    H2 6487   6.054   1.566   0.643 -0.0645 -0.3445  0.8073
 2175TIP3   OH2 6488   0.668   0.091   4.243  0.1950 -0.3410  0.1097
 2175TIP3    H1 6489   0.685   0.000   4.216  2.8200  0.3391 -0.7611
 2175TIP3    H2 6490   0.607   0.124   4.177 -0.4632 -1.3389  0.1988
 2176TIP3   OH2 6491   3.563   1.347   3.622 -0.5260 -0.5693  0.3090
 2176TIP3    H1 6492   3.572   1.252   3.630  1.8646 -0.2885  2.2089
 2176TIP3    H2 6493   3.611   1.369   3.542  0.9796 -0.7806  1.1293
 2177TIP3   OH2 6494   2.182   3.858   0.905  0.0363 -0.2251  0.9755
 2177TIP3    H1 6495   2.258   3.915   0.909  1.0365 -1.4079 -0.2579
 2177TIP3    H2 6496   2.197   3.793   0.974 -0.1346 -0.1411  1.0930
 2178TIP3   OH2 6497   5.698   6.439   2.757  0.3276  0.1586  0.1171
 2178TIP3    H1 6498   5.647   6.420   2.679 -0.0758 -1.2915  0.6860
 2178TIP3    H2 6499   5.656   6.515   2.797 -1.2748 -0.8464  0.4396
 2179TIP3   OH2 6500   4.075   3.361   4.766  0.3290  0.3607 -0.6919
 2179TIP3    H1 6501   4.080   3.435   4.704 -0.7969  1.7371  0.7582
 2179TIP3    H2 6502   4.088   3.401   4.852 -0.7267 -1.0562  0.1796
 2180TIP3   OH2 6503   1.063   6.388   3.000 -0.1156 -0.2433  0.4624
 2180TIP3    H1 6504   1.033   6.302   3.030  0.6770 -0.0543  1.8746
 2180TIP3    H2 6505   1.015   6.450   3.054  0.0351  0.1834  0.1129
 2181TIP3   OH2 6506   1.582   6.105   5.807 -0.3725  0.1477  0.2984
 2181TIP3    H1 6507   1.672   6.134   5.821 -1.1434  3.1534 -0.2541
 2181TIP3    H2 6508   1.566   6.042   5.878  1.9884 -0.1938  0.6258
 2182TIP3   OH2 6509   3.047   6.648   4.886  0.6057  0.3992  0.2573
 2182TIP3    H1 6510   2.961   6.609   4.877 -0.8094  3.0926  0.9010
 2182TIP3    H2 6511   3.065   6.687   4.800  1.2040 -0.1562  0.1228
 2183TIP3   OH2 6512   2.753   0.629   2.517  0.0415 -0.8739 -0.4199
 2183TIP3    H1 6513   2.668   0.672   2.520  0.8050  0.6223  1.8919
 2183TIP3    H2 6514   2.739   0.544   2.559  0.0546  0.2334  1.9991
 2184TIP3   OH2 6515   6.249   4.170   2.426  0.3188 -0.0373 -0.0466
 2184TIP3    H1 6516   6.258   4.097   2.365  0.4426 -0.5319  0.5546
 2184TIP3    H2 6517   6.156   4.192   2.425  0.4554  0.5585 -1.0929
 2185TIP3   OH2 6518   0.703   5.286   3.067  0.1474 -0.3070 -0.1807
 2185TIP3    H1 6519   0.760   5.355   3.034  0.4624 -0.2503  0.4568
 2185TIP3    H2 6520   0.619   5.329   3.082 -0.0673 -0.3874 -1.1078
 2186TIP3   OH2 6521   0.056   2.259   4.696  0.1581  0.3046  0.5651
 2186TIP3    H1 6522   0.038   2.180   4.746  0.6602 -0.2753 -0.1384
 2186TIP3    H2 6523   0.064   2.328   4.761  1.2052 -0.5060  1.3237
 2187TIP3   OH2 6524   7.068   4.896   4.040  0.6020  0.2560  0.0354
 2187TIP3    H1 6525   7.023   4.979   4.024  1.9282  0.8147 -1.0039
 2187TIP3    H2 6526   7.042   4.871   4.128 -0.9793  1.0248 -0.1764
 2188TIP3   OH2 6527   7.032   1.401   0.004  0.0457 -0.1785  0.2480
 2188TIP3    H1 6528   7.053   1.492   0.024 -0.1217 -0.0287 -0.2322
 2188TIP3    H2 6529   7.066   1.351   0.078  1.1553  0.1651 -0.0030
 2189TIP3   OH2 6530   2.233   4.639   0.573 -0.2174 -0.1200  0.6524
 2189TIP3    H1 6531   2.288   4.588   0.513  0.9233 -1.2734  2.5354
 2189TIP3    H2 6532   2.168   4.576   0.604  0.2490 -0.0449  1.8409
 2190TIP3   OH2 6533   1.342   6.389   5.739  0.1411  0.5146 -0.3629
 2190TIP3    H1 6534   1.395   6.357   5.665 -0.6143 -0.7600 -0.3831
 2190TIP3    H2 6535   1.399   6.453   5.783  2.4704 -2.0583  0.6685
 2191TIP3   OH2 6536   3.742   0.642   4.181 -0.0037  0.6050  0.5510
 2191TIP3    H1 6537   3.673   0.623   4.118  0.1344 -1.5677  0.9937
 2191TIP3    H2 6538   3.816   0.589   4.152  0.3155  0.1852  2.0701
 2192TIP3   OH2 6539   2.307   6.377   5.262  0.6463 -0.7344 -0.0803
 2192TIP3    H1 6540   2.243   6.377   5.191 -0.8003 -0.5784  1.1762
 2192TIP3    H2 6541   2.258   6.406   5.339  1.7584 -2.4081  1.3350
 2193TIP3   OH2 6542   4.173   4.876   0.090  0.0860  0.4250  0.5340
 2193TIP3    H1 6543   4.095   4.919   0.123  0.0904 -0.2723  1.4774
 2193TIP3    H2 6544   4.140   4.803   0.038  0.0847  1.3788 -0.8718
 2194TIP3   OH2 6545   2.692   5.881   2.972  0.4375 -0.1050  0.6048
 2194TIP3    H1 6546   2.687   5.806   2.913 -0.4061  0.5946 -0.2290
 2194TIP3    H2 6547   2.605   5.886   3.011  0.0591  1.2421 -0.3610
 2195TIP3   OH2 6548   1.421   4.280   5.509  0.2187  0.7024 -0.0345
 2195TIP3    H1 6549   1.469   4.206   5.545 -0.9975 -1.0365 -1.8035
 2195TIP3    H2 6550   1.481   4.318   5.444  0.0081 -0.1904 -0.7701
 2196TIP3   OH2 6551   3.283   1.296   1.565 -0.0679  0.4183  0.6905
 2196TIP3    H1 6552   3.211   1.325   1.621  0.3387  2.4745  0.2326
 2196TIP3    H2 6553   3.315   1.376   1.524  2.0765 -0.5376  0.3845
 2197TIP3   OH2 6554   1.932   5.947   5.227 -0.0977  0.4722 -0.3441
 2197TIP3    H1 6555   1.975   6.029   5.251 -0.7818  0.6572  0.2974
 2197TIP3    H2 6556   1.838   5.966   5.238 -0.4002  0.2321 -2.1491
 2198TIP3   OH2 6557   1.153   6.585   1.559 -0.9226  0.5030 -0.4676
 2198TIP3    H1 6558   1.143   6.499   1.602 -1.0625  0.2445 -1.0129
 2198TIP3    H2 6559   1.201   6.638   1.623 -1.7464  0.3435  0.3061
 2199TIP3   OH2 6560   2.077   3.188   1.277  0.6222  1.0582 -0.3532
 2199TIP3    H1 6561   2.096   3.124   1.209 -0.9546  1.0204 -0.7915
 2199TIP3    H2 6562   2.156   3.242   1.282  0.4413  1.6699 -2.8744
 2200TIP3   OH2 6563   1.873   5.065   4.501  0.0997  0.1908  0.7754
 2200TIP3    H1 6564   1.927   4.987   4.516  2.7546  1.2491 -2.2200
 2200TIP3    H2 6565   1.789   5.031   4.472  0.3111 -1.5265  2.0230
 2201TIP3   OH2 6566   6.570   6.366   1.735  0.0499 -0.1583  0.5274
 2201TIP3    H1 6567   6.511   6.422   1.685 -1.1155 -0.2243  1.7705
 2201TIP3    H2 6568   6.596   6.420   1.810  0.6156 -0.5550  0.6247
 2202TIP3   OH2 6569   5.897   6.418   1.339  0.5256 -0.2633  0.3386
 2202TIP3    H1 6570   5.884   6.459   1.425 -0.6134 -0.9744  0.5333
 2202TIP3    H2 6571   5.957   6.345   1.356 -0.6432 -1.1608  0.8051
 2203TIP3   OH2 6572   3.224   5.000   3.986 -0.0468 -0.5210  0.1169
 2203TIP3    H1 6573   3.266   4.920   4.017  0.8816  0.1828  0.7604
 2203TIP3    H2 6574   3.275   5.071   4.027 -0.1122  0.4149 -1.3547
 2204TIP3   OH2 6575   4.902   1.911   0.671  0.2782  0.8671  0.8421
 2204TIP3    H1 6576   4.861   1.881   0.590  1.4676  0.5750  0.3234
 2204TIP3    H2 6577   4.990   1.872   0.669  0.0639  0.1646  2.6717
 2205TIP3   OH2 6578   1.934   2.967   2.210  0.1247 -0.3484  0.5604
 2205TIP3    H1 6579   1.879   2.934   2.138 -0.9290  1.3008  0.5599
 2205TIP3    H2 6580   1.929   3.062   2.202  0.8496 -0.1485  2.1984
 2206TIP3   OH2 6581   1.927   6.747   1.778  0.4898  0.4755 -0.4118
 2206TIP3    H1 6582   1.902   6.833   1.744 -0.5297 -0.4334 -2.0452
 2206TIP3    H2 6583   1.945   6.694   1.701 -2.2424 -1.7753  0.3198
 2207TIP3   OH2 6584   7.139   3.621   2.492  0.4971 -0.0236 -0.0894
 2207TIP3    H1 6585   7.081   3.566   2.545  0.8568  0.3025  0.6608
 2207TIP3    H2 6586   7.226   3.588   2.510  0.5020 -1.1498 -1.9705
 2208TIP3   OH2 6587   3.821   6.817   1.624  0.2098 -0.0378  0.3810
 2208TIP3    H1 6588   3.764   6.807   1.700 -1.5108  1.1141 -0.6856
 2208TIP3    H2 6589   3.855   6.729   1.608 -0.8519 -0.6599  1.3688
 2209TIP3   OH2 6590   2.013   2.420   3.763  0.1363  0.2499 -0.6898
 2209TIP3    H1 6591   2.027   2.341   3.711 -0.3472  1.2283 -2.3941
 2209TIP3    H2 6592   2.099   2.461   3.768  0.3799 -0.3353  0.1613
 2210TIP3   OH2 6593   3.034   3.459   0.300  0.1450 -0.0960 -0.3814
 2210TIP3    H1 6594   3.014   3.370   0.271  0.3135  0.2558 -1.6465
 2210TIP3    H2 6595   3.129   3.459   0.309 -0.0040 -0.5789  1.5367
 2211TIP3   OH2 6596   3.357   6.617   5.804 -0.0044 -0.0275 -0.3183
 2211TIP3    H1 6597   3.327   6.680   5.738  0.9471  0.6818 -0.1042
 2211TIP3    H2 6598   3.280   6.565   5.824 -0.6957  0.7485 -0.8728
 2212TIP3   OH2 6599   4.924   5.635   4.322 -0.1043 -0.2317 -0.3205
 2212TIP3    H1 6600   4.856   5.571   4.346 -1.3147  0.7411 -1.0504
 2212TIP3    H2 6601   4.993   5.583   4.282 -1.0106 -1.1169 -0.7758
 2213TIP3   OH2 6602   1.830   5.665   1.455 -0.6780 -0.2702  0.2117
 2213TIP3    H1 6603   1.905   5.614   1.424 -0.3049  0.2985  0.1624
 2213TIP3    H2 6604   1.825   5.739   1.394  0.4538  1.2156  1.8462
 2214TIP3   OH2 6605   7.143   1.245   0.205  0.4399 -0.2577  0.0382
 2214TIP3    H1 6606   7.224   1.194   0.208  0.3064 -0.4448  0.5816
 2214TIP3    H2 6607   7.164   1.326   0.252  0.4165 -0.1562 -0.1273
 2215TIP3   OH2 6608   1.993   3.148   0.074  0.1788 -0.3274 -0.5529
 2215TIP3    H1 6609   2.000   3.184   0.162  1.4720  1.8853 -1.4966
 2215TIP3    H2 6610   1.916   3.191   0.036  1.0685  0.6591 -1.3023
 2216TIP3   OH2 6611   5.489   4.334   1.389 -0.4467 -0.4488  0.9445
 2216TIP3    H1 6612   5.441   4.267   1.340 -1.1835  0.4424  0.3986
 2216TIP3    H2 6613   5.496   4.407   1.327  1.0609 -0.3123  1.2465
 2217TIP3   OH2 6614   1.939   3.140   1.970 -0.0939  0.0010 -0.1730
 2217TIP3    H1 6615   1.946   3.143   1.875  1.6594  1.6772 -0.0671
 2217TIP3    H2 6616   1.869   3.077   1.988 -0.2514 -0.5734 -2.5392
 2218TIP3   OH2 6617   2.158   4.333   3.422 -0.1861 -0.1468 -0.1964
 2218TIP3    H1 6618   2.159   4.258   3.362 -1.1545  0.5487 -1.1165
 2218TIP3    H2 6619   2.112   4.300   3.500 -0.3615 -0.5924 -0.4809
 2219TIP3   OH2 6620   1.118   0.619   4.861 -0.2143 -0.0192 -0.3171
 2219TIP3    H1 6621   1.108   0.524   4.867  0.7757 -0.0602  1.2946
 2219TIP3    H2 6622   1.032   0.651   4.835 -0.6479 -1.3279 -0.5547
 2220TIP3   OH2 6623   2.029   6.662   5.744  0.1483  0.2608  0.6017
 2220TIP3    H1 6624   2.066   6.668   5.656 -0.6758 -0.2725  0.2009
 2220TIP3    H2 6625   2.068   6.584   5.782 -1.1108 -0.7606 -0.1157
 2221TIP3   OH2 6626   5.428   5.958   5.665 -0.1375  0.5374 -0.1998
 2221TIP3    H1 6627   5.500   5.895   5.656 -0.0436  0.6305 -0.1064
 2221TIP3    H2 6628   5.463   6.038   5.625 -0.5384  0.3108 -1.0411
 2222TIP3   OH2 6629   6.964   0.700   0.387 -0.0742  0.0256 -0.2521
 2222TIP3    H1 6630   6.979   0.767   0.320 -1.0115  1.1069  0.5786
 2222TIP3    H2 6631   7.039   0.642   0.379  0.1069  0.4268 -1.8767
 2223TIP3   OH2 6632   3.437   4.712   3.844 -0.2104 -0.3323  0.1268
 2223TIP3    H1 6633   3.465   4.621   3.847  0.1766 -0.2175  0.0254
 2223TIP3    H2 6634   3.381   4.722   3.921  0.7790 -0.3189  0.8648
 2224TIP3   OH2 6635   4.212   5.234   2.306 -0.6487  0.0714  0.2494
 2224TIP3    H1 6636   4.172   5.283   2.235 -0.9539 -0.1963  0.2345
 2224TIP3    H2 6637   4.293   5.281   2.325  0.2160 -0.7024 -1.3036
 2225TIP3   OH2 6638   6.982   2.728   0.095  0.4593 -0.4598  0.0111
 2225TIP3    H1 6639   7.028   2.645   0.084  2.2092  0.5244 -0.5068
 2225TIP3    H2 6640   6.957   2.730   0.187  0.0635 -1.7046 -0.0528
 2226TIP3   OH2 6641   5.406   3.672   5.733  0.0141 -0.1809  0.3667
 2226TIP3    H1 6642   5.501   3.673   5.746  0.1546 -1.3431 -0.3656
 2226TIP3    H2 6643   5.391   3.739   5.667  0.1423  0.9185  1.4170
 2227TIP3   OH2 6644   2.562   0.148   4.053 -0.0381 -0.0336  0.0658
 2227TIP3    H1 6645   2.496   0.091   4.015 -0.8407  0.9219 -0.0091
 2227TIP3    H2 6646   2.566   0.223   3.993  1.4877 -0.2967 -0.2130
 2228TIP3   OH2 6647   4.800   0.153   0.194 -0.1055 -0.0738  0.3610
 2228TIP3    H1 6648   4.747   0.177   0.270  1.1572 -0.4194  1.3912
 2228TIP3    H2 6649   4.756   0.076   0.157 -0.5204 -0.1364  0.9712
 2229TIP3   OH2 6650   0.364   4.509   3.035  0.7809  0.3259 -0.0481
 2229TIP3    H1 6651   0.353   4.450   3.110  1.4974 -0.4482 -0.5347
 2229TIP3    H2 6652   0.287   4.494   2.981  1.6737 -1.3171 -0.9239
 2230TIP3   OH2 6653   3.743   4.000   5.542 -0.3505 -0.3270  0.1622
 2230TIP3    H1 6654   3.712   3.920   5.501 -2.4988  0.2740  0.5037
 2230TIP3    H2 6655   3.709   4.070   5.487 -0.1107  0.3951  0.9153
 2231TIP3   OH2 6656   2.034   3.561   2.696 -0.5414 -0.4502 -0.0649
 2231TIP3    H1 6657   2.028   3.653   2.673 -1.7444 -0.0110  1.8241
 2231TIP3    H2 6658   2.029   3.559   2.791 -0.0473 -2.4413 -0.0336
 2232TIP3   OH2 6659   3.856   5.920   5.779  0.5066  0.2153 -0.5431
 2232TIP3    H1 6660   3.814   5.974   5.846  0.5188  1.5250 -1.5588
 2232TIP3    H2 6661   3.785   5.865   5.746  0.0348  0.9595 -0.8042
 2233TIP3   OH2 6662   0.260   3.235   4.207 -0.4983 -0.6924 -0.2531
 2233TIP3    H1 6663   0.169   3.240   4.237 -0.6896 -0.2102 -0.9000
 2233TIP3    H2 6664   0.304   3.184   4.275 -0.8406  0.6669  1.0641
 2234TIP3   OH2 6665   5.962   3.333   0.888  0.9096  0.0991  0.0587
 2234TIP3    H1 6666   6.008   3.367   0.965 -0.5023  0.0271  0.9729
 2234TIP3    H2 6667   6.007   3.250   0.869  0.7023 -0.3591  1.4008
 2235TIP3   OH2 6668   0.301   4.719   0.768  0.3967 -0.0983 -0.3798
 2235TIP3    H1 6669   0.291   4.808   0.734  2.1370  0.1986 -0.2396
 2235TIP3    H2 6670   0.396   4.705   0.767  0.8248  0.2708  5.0615
 2236TIP3   OH2 6671   4.939   2.228   5.822 -0.0783  0.2546 -0.2910
 2236TIP3    H1 6672   4.873   2.185   5.875  0.5112  0.6578  0.8027
 2236TIP3    H2 6673   4.946   2.174   5.744 -2.5194  0.8293 -1.0052
 2237TIP3   OH2 6674   3.249   2.498   5.649  0.0825 -0.0751  1.0513
 2237TIP3    H1 6675   3.277   2.441   5.577 -0.9689 -0.3980  0.8826
 2237TIP3    H2 6676   3.330   2.523   5.693  0.6799 -0.4457  0.1776
 2238TIP3   OH2 6677   0.161   5.251   4.385 -0.3238 -0.9651 -0.3764
 2238TIP3    H1 6678   0.146   5.333   4.433  1.5508 -1.3428  0.9311
 2238TIP3    H2 6679   0.248   5.261   4.347 -0.2477 -2.2135 -0.5568
 2239TIP3   OH2 6680   0.390   5.886   1.127 -0.0372  0.1560  0.2044
 2239TIP3    H1 6681   0.434   5.955   1.175  1.5224 -0.1998 -0.6165
 2239TIP3    H2 6682   0.403   5.807   1.181  2.1336 -0.3429 -0.8921
 2240TIP3   OH2 6683   7.029   6.213   4.177 -0.2002 -0.5522 -0.0277
 2240TIP3    H1 6684   7.071   6.135   4.214 -0.4344 -0.5045  0.3456
 2240TIP3    H2 6685   6.935   6.197   4.189 -0.2729 -0.4896 -0.5167
 2241TIP3   OH2 6686   3.951   0.460   0.367 -0.3017  0.2868  0.7798
 2241TIP3    H1 6687   3.939   0.470   0.273 -1.0779  0.0977  0.8477
 2241TIP3    H2 6688   3.957   0.365   0.380  1.0409  0.3598  0.7896
 2242TIP3   OH2 6689   3.998   5.077   2.013 -0.4074  0.1091 -0.2072
 2242TIP3    H1 6690   3.928   5.021   1.980 -1.5268  2.1334 -1.4551
 2242TIP3    H2 6691   3.953   5.155   2.046  1.1104  0.4327  1.2630
 2243TIP3   OH2 6692   1.812   5.264   3.701  0.6092  0.4328 -0.1025
 2243TIP3    H1 6693   1.733   5.312   3.727 -1.5499 -2.4764 -0.6316
 2243TIP3    H2 6694   1.820   5.195   3.767  1.0587 -0.9390 -1.5266
 2244TIP3   OH2 6695   2.226   6.614   0.817  0.1097  0.1645 -0.2261
 2244TIP3    H1 6696   2.311   6.612   0.773  1.0675  3.1767  1.2672
 2244TIP3    H2 6697   2.241   6.569   0.901 -0.1449 -0.3767 -0.4609
 2245TIP3   OH2 6698   4.711   3.052   2.872  0.3942  0.2106 -0.1689
 2245TIP3    H1 6699   4.784   2.997   2.900 -0.0483 -0.3125 -0.0211
 2245TIP3    H2 6700   4.706   3.121   2.937  1.0859  0.5496 -0.4690
 2246TIP3   OH2 6701   0.259   6.633   0.886  0.2038  0.5597 -0.2000
 2246TIP3    H1 6702   0.182   6.613   0.940 -0.0117  0.3378 -0.5787
 2246TIP3    H2 6703   0.272   6.727   0.896 -0.5393  0.7210 -0.6690
 2247TIP3   OH2 6704   1.504   1.178   5.063  0.5067  0.4716  0.4658
 2247TIP3    H1 6705   1.542   1.203   5.147  1.4773 -2.6414  1.0729
 2247TIP3    H2 6706   1.421   1.136   5.085  1.3505 -1.5087  0.0628
 2248TIP3   OH2 6707   6.456   4.391   4.309 -0.2585 -0.4994  0.4480
 2248TIP3    H1 6708   6.387   4.328   4.287  0.0980 -1.0401  0.8237
 2248TIP3    H2 6709   6.441   4.412   4.401  0.8908 -1.7267  0.9634
 2249TIP3   OH2 6710   0.868   0.828   3.975  0.0107  0.6939 -0.4718
 2249TIP3    H1 6711   0.862   0.857   3.884 -0.0657  1.2615 -0.2883
 2249TIP3    H2 6712   0.783   0.850   4.013  0.8675  2.7263  0.3886
 2250TIP3   OH2 6713   1.923   4.881   3.783  0.1401  0.0323  0.1882
 2250TIP3    H1 6714   1.981   4.941   3.735 -0.5571 -0.4124 -1.2745
 2250TIP3    H2 6715   1.976   4.802   3.796  1.0797  0.9455  2.1736
 2251TIP3   OH2 6716   5.063   2.201   5.318  0.4583  0.1606 -0.0929
 2251TIP3    H1 6717   5.106   2.181   5.235  0.2126  1.4619 -0.5510
 2251TIP3    H2 6718   4.972   2.219   5.294  0.8199  2.6073  0.1339
 2252TIP3   OH2 6719   1.407   6.643   1.701  0.1706 -0.6866  0.1386
 2252TIP3    H1 6720   1.408   6.547   1.707 -1.5070 -0.7326  0.2264
 2252TIP3    H2 6721   1.448   6.662   1.617 -2.6472 -1.7327 -1.5915
 2253TIP3   OH2 6722   4.531   2.717   2.763  0.1053 -0.2796  0.3565
 2253TIP3    H1 6723   4.438   2.738   2.765  0.0770 -0.3258 -0.3858
 2253TIP3    H2 6724   4.548   2.680   2.849 -0.1428  1.4564  1.2030
 2254TIP3   OH2 6725   1.783   2.605   0.905  0.1462  0.1194 -0.0337
 2254TIP3    H1 6726   1.731   2.679   0.934 -0.4252  0.9446 -2.8098
 2254TIP3    H2 6727   1.724   2.556   0.847  1.9399  0.2651 -2.1039
 2255TIP3   OH2 6728   2.215   2.146   2.132  0.3818 -0.2074 -0.3438
 2255TIP3    H1 6729   2.202   2.060   2.092  2.5716 -0.5434 -0.4531
 2255TIP3    H2 6730   2.274   2.130   2.207 -0.6548  0.9431  0.7773
 2256TIP3   OH2 6731   4.088   1.194   5.143  0.4663  0.3743  0.0625
 2256TIP3    H1 6732   4.002   1.224   5.172  0.9218  0.0680  1.8127
 2256TIP3    H2 6733   4.110   1.122   5.201  1.3367 -0.4672 -1.2386
 2257TIP3   OH2 6734   3.268   3.049   0.029 -0.0003 -0.6003 -0.0271
 2257TIP3    H1 6735   3.193   2.992   0.043  0.2441 -1.0542 -0.5456
 2257TIP3    H2 6736   3.254   3.087  -0.058  1.4138 -2.3339 -1.0692
 2258TIP3   OH2 6737   6.633   4.547   5.537 -0.1546  0.6141  0.8459
 2258TIP3    H1 6738   6.578   4.593   5.473  0.6546  3.5311  2.1150
 2258TIP3    H2 6739   6.587   4.558   5.620  0.8085  0.3830  1.4243
 2259TIP3   OH2 6740   2.489   5.089   4.074 -0.2284  0.4341 -0.0729
 2259TIP3    H1 6741   2.442   5.031   4.013  0.2228  0.7707 -0.7494
 2259TIP3    H2 6742   2.458   5.062   4.160 -2.4846  1.3313 -0.5235
 2260TIP3   OH2 6743   1.856   3.419   2.012 -0.2819 -0.0366  0.3003
 2260TIP3    H1 6744   1.848   3.479   2.085  0.7370 -0.0358  0.4307
 2260TIP3    H2 6745   1.780   3.361   2.020 -1.2828  1.2109  0.1603
 2261TIP3   OH2 6746   2.168   6.233   1.242  0.3713  0.9286 -0.0632
 2261TIP3    H1 6747   2.169   6.307   1.302  2.5759  0.9713 -0.0961
 2261TIP3    H2 6748   2.218   6.165   1.286  0.6648  0.4043 -1.1599
 2262TIP3   OH2 6749   0.898   2.685   2.095  0.2907  0.1485 -1.0962
 2262TIP3    H1 6750   0.825   2.670   2.156  2.3184 -0.6409  1.3100
 2262TIP3    H2 6751   0.857   2.684   2.008 -2.5135 -0.4258  0.1105
 2263TIP3   OH2 6752   1.515   0.879   4.849 -0.7294  0.5754 -0.0146
 2263TIP3    H1 6753   1.439   0.932   4.827 -1.8279 -1.4305 -1.3632
 2263TIP3    H2 6754   1.513   0.806   4.786  1.3864 -0.4135  0.9414
 2264TIP3   OH2 6755   2.836   4.156   0.157  0.3144 -0.3350  0.0850
 2264TIP3    H1 6756   2.879   4.071   0.144 -1.6248 -1.2669 -0.5612
 2264TIP3    H2 6757   2.768   4.139   0.222 -0.0274  0.7698  0.0412
 2265TIP3   OH2 6758   0.537   2.155   5.079  0.1989  0.1233 -0.0413
 2265TIP3    H1 6759   0.443   2.159   5.062  0.4030  1.0036 -1.0258
 2265TIP3    H2 6760   0.575   2.115   5.001  0.7255  0.5210 -0.0004
 2266TIP3   OH2 6761   3.345   2.604   1.913  0.2677 -0.5080  0.1691
 2266TIP3    H1 6762   3.421   2.603   1.970 -0.3131  0.6156  0.9935
 2266TIP3    H2 6763   3.378   2.576   1.827  2.2754  2.7996 -0.2882
 2267TIP3   OH2 6764   4.127   5.390   2.112 -0.4665  0.3429  0.2880
 2267TIP3    H1 6765   4.037   5.413   2.092 -0.7092  0.2298  1.2046
 2267TIP3    H2 6766   4.180   5.460   2.073 -0.7543 -0.6933 -2.2027
 2268TIP3   OH2 6767   4.844   3.269   0.995  0.0720  0.4060 -0.9266
 2268TIP3    H1 6768   4.826   3.320   0.916 -3.2231  2.1028  0.7193
 2268TIP3    H2 6769   4.760   3.231   1.019  1.2521 -1.1491  1.0559
 2269TIP3   OH2 6770   2.818   2.358   1.618 -0.4908 -0.8890 -0.1614
 2269TIP3    H1 6771   2.881   2.295   1.654 -0.9941 -2.1666 -1.4235
 2269TIP3    H2 6772   2.808   2.424   1.687 -1.4464 -3.2303  2.0866
 2270TIP3   OH2 6773   2.267   5.040   3.420  0.3697  0.1294 -0.4204
 2270TIP3    H1 6774   2.288   5.131   3.399  1.4805  0.0076  0.1102
 2270TIP3    H2 6775   2.171   5.036   3.412  0.2793  1.3908 -0.2649
 2271TIP3   OH2 6776   7.200   2.231   0.023  0.1929  0.3054 -0.6066
 2271TIP3    H1 6777   7.190   2.187   0.107  0.3003  0.2772 -0.6092
 2271TIP3    H2 6778   7.139   2.185  -0.035  1.3511 -0.8125 -0.9929
 2272TIP3   OH2 6779   2.993   0.069   4.705  0.7235 -0.3117 -0.3237
 2272TIP3    H1 6780   3.012   0.091   4.796  0.4134  0.2412 -0.3879
 2272TIP3    H2 6781   2.980  -0.026   4.706 -2.1893 -0.0258  0.7774
 2273TIP3   OH2 6782   1.475   2.681   2.838  0.0793 -0.3033  0.3241
 2273TIP3    H1 6783   1.542   2.746   2.857  1.0039 -0.9398 -0.6542
 2273TIP3    H2 6784   1.506   2.636   2.759  0.7194 -3.5434  2.2064
 2274TIP3   OH2 6785   2.146   5.636   3.876 -0.2215 -0.0377  0.1283
 2274TIP3    H1 6786   2.170   5.720   3.837  0.4001 -0.1020  0.3676
 2274TIP3    H2 6787   2.119   5.582   3.802 -0.4993  0.3288 -0.0431
 2275TIP3   OH2 6788   3.778   3.991   3.317 -0.6000  0.5985  0.0133
 2275TIP3    H1 6789   3.784   3.896   3.325  0.7422  0.4885 -1.8679
 2275TIP3    H2 6790   3.687   4.011   3.341 -1.0845 -1.2224 -0.1839
 2276TIP3   OH2 6791   2.275   2.185   3.941  0.1805  0.2555  0.4797
 2276TIP3    H1 6792   2.367   2.196   3.965 -0.2660  0.5716  2.1036
 2276TIP3    H2 6793   2.228   2.249   3.995 -0.9167  0.7915 -1.0375
 2277TIP3   OH2 6794   6.129   2.174   1.255  0.3643  0.1032  0.6211
 2277TIP3    H1 6795   6.131   2.261   1.214 -0.7779 -1.0340 -2.0210
 2277TIP3    H2 6796   6.107   2.192   1.346 -0.8031  2.5255 -0.0483
 2278TIP3   OH2 6797   2.757   3.777   0.369  0.0330 -0.0183 -0.6514
 2278TIP3    H1 6798   2.673   3.775   0.413  1.0702 -4.0747  1.6406
 2278TIP3    H2 6799   2.820   3.797   0.438  1.1697  0.8772 -1.8864
 2279TIP3   OH2 6800   1.788   0.827   2.824  0.1646  0.2613  0.6807
 2279TIP3    H1 6801   1.779   0.885   2.899  0.9195 -0.7885  1.6211
 2279TIP3    H2 6802   1.875   0.844   2.789 -0.8175  2.0346 -1.1396
 2280TIP3   OH2 6803   2.625   0.295   5.288 -0.1191  0.2071 -0.6034
 2280TIP3    H1 6804   2.714   0.312   5.257 -0.1996  2.4395  0.2025
 2280TIP3    H2 6805   2.636   0.232   5.359  0.9776  1.3460  0.2799
 2281TIP3   OH2 6806   6.228   2.517   5.310  0.2059 -0.0872 -0.3964
 2281TIP3    H1 6807   6.232   2.478   5.222 -0.3230 -0.9011 -0.0666
 2281TIP3    H2 6808   6.181   2.453   5.363  2.6850 -0.7908  1.1304
 2282TIP3   OH2 6809   5.573   2.001   3.829 -0.9712 -0.0863 -0.0261
 2282TIP3    H1 6810   5.500   2.051   3.794 -0.4607  0.5122 -0.2521
 2282TIP3    H2 6811   5.634   1.994   3.756 -0.4938  0.0212  0.3564
 2283TIP3   OH2 6812   1.741   0.488   5.579 -0.3289  0.4877 -0.2794
 2283TIP3    H1 6813   1.753   0.569   5.530  0.2043  0.9691  0.6103
 2283TIP3    H2 6814   1.687   0.514   5.654  0.3977  0.1832  0.3679
 2284TIP3   OH2 6815   3.673   2.921   4.893 -1.0025  0.1313  0.1567
 2284TIP3    H1 6816   3.671   2.885   4.804  0.6070  1.1095 -0.3140
 2284TIP3    H2 6817   3.656   2.846   4.949 -0.3697 -0.8553 -0.9193
 2285TIP3   OH2 6818   0.885   6.036   5.325  0.2859  1.0582  0.2129
 2285TIP3    H1 6819   0.960   6.021   5.381 -0.3877  2.1365  1.4341
 2285TIP3    H2 6820   0.818   6.073   5.382 -1.3099 -0.1580 -0.7525
 2286TIP3   OH2 6821   2.495   3.019   1.999 -0.6945 -0.6479  0.3058
 2286TIP3    H1 6822   2.432   2.996   1.931  0.7517 -0.9727 -0.9612
 2286TIP3    H2 6823   2.497   3.115   1.999  1.6385 -0.5591 -2.4661
 2287TIP3   OH2 6824   1.485   6.726   1.950 -0.4696  0.2357  0.0314
 2287TIP3    H1 6825   1.580   6.715   1.946 -0.4938  0.0872 -0.1603
 2287TIP3    H2 6826   1.458   6.731   1.858 -0.6205  0.5068  0.0903
 2288TIP3   OH2 6827   3.192   5.500   0.936  0.1310  0.0093 -0.1642
 2288TIP3    H1 6828   3.179   5.406   0.934  1.0675 -0.1695  0.9001
 2288TIP3    H2 6829   3.213   5.519   1.028  0.4047  1.1838 -0.4553
 2289TIP3   OH2 6830   1.434   2.397   1.450 -0.0828 -0.0376  0.6030
 2289TIP3    H1 6831   1.384   2.478   1.459  0.0629  0.3090 -1.2624
 2289TIP3    H2 6832   1.389   2.348   1.382  0.8720 -0.7014  0.4240
 2290TIP3   OH2 6833   4.882   0.209   2.125 -0.0316 -0.4334  0.4368
 2290TIP3    H1 6834   4.823   0.170   2.189 -0.7473 -0.0469  0.0253
 2290TIP3    H2 6835   4.883   0.303   2.147 -2.1985  0.1490 -1.5423
 2291TIP3   OH2 6836   6.329   6.498   4.183  0.1361 -0.3366  0.2887
 2291TIP3    H1 6837   6.238   6.511   4.158  0.7851  1.5402 -1.3326
 2291TIP3    H2 6838   6.375   6.490   4.100  1.5672 -0.5111  1.0708
 2292TIP3   OH2 6839   0.069   5.123   2.859  0.0338  0.6075 -0.3848
 2292TIP3    H1 6840   0.113   5.176   2.926 -0.9690  0.4069  0.4501
 2292TIP3    H2 6841   0.011   5.185   2.815 -2.5491 -0.0606  1.8164
 2293TIP3   OH2 6842   0.899   3.508   4.679  0.0314 -0.6221 -0.5632
 2293TIP3    H1 6843   0.807   3.524   4.701  0.0064  0.8452 -1.5865
 2293TIP3    H2 6844   0.946   3.527   4.760 -0.5593 -1.7642  0.0877
 2294TIP3   OH2 6845   4.787   4.546   5.176  0.1289  0.2497 -0.5471
 2294TIP3    H1 6846   4.751   4.604   5.109 -0.9279  1.0390  0.6586
 2294TIP3    H2 6847   4.824   4.605   5.241 -0.2932 -0.4492  0.3367
 2295TIP3   OH2 6848   2.163   5.086   5.287 -0.0036 -0.4131  0.0487
 2295TIP3    H1 6849   2.151   5.006   5.339  0.8471 -1.0362 -0.6781
 2295TIP3    H2 6850   2.231   5.063   5.224 -0.3313  0.6358 -0.7096
 2296TIP3   OH2 6851   5.301   0.555   3.590  0.2335  0.1779  0.9146
 2296TIP3    H1 6852   5.231   0.504   3.549 -0.5418  1.2969  0.8091
 2296TIP3    H2 6853   5.319   0.509   3.672 -0.2477 -0.4232  0.6922
 2297TIP3   OH2 6854   6.343   3.849   1.926  0.2382 -0.2985  0.0761
 2297TIP3    H1 6855   6.346   3.840   1.831 -0.3665 -0.8812  0.1037
 2297TIP3    H2 6856   6.432   3.828   1.954  0.4180 -0.1334 -0.3588
 2298TIP3   OH2 6857   3.654   5.797   1.811 -0.4874  0.1164  0.1014
 2298TIP3    H1 6858   3.619   5.803   1.900 -0.4931  0.2864  0.0865
 2298TIP3    H2 6859   3.638   5.883   1.772 -1.4794 -0.3026 -0.4327
 2299TIP3   OH2 6860   7.179   1.273   3.025  0.3779 -0.2903  0.1161
 2299TIP3    H1 6861   7.252   1.212   3.041  1.2044  0.4910 -0.6314
 2299TIP3    H2 6862   7.108   1.217   2.994  1.9015 -0.6601 -3.0303
 2300TIP3   OH2 6863   2.390   1.651   3.549 -0.6394  0.0331  0.3495
 2300TIP3    H1 6864   2.454   1.677   3.483 -1.6525 -1.3144 -1.2191
 2300TIP3    H2 6865   2.382   1.729   3.605  1.4506  0.6449 -0.0884
 2301TIP3   OH2 6866   1.847   6.491   1.148 -0.3289 -0.3920  0.3310
 2301TIP3    H1 6867   1.782   6.442   1.198  0.1553 -0.3256  1.0432
 2301TIP3    H2 6868   1.838   6.581   1.178 -1.5175  0.0620 -1.2987
 2302TIP3   OH2 6869   0.737   0.841   5.816  0.0786  0.2223  0.1407
 2302TIP3    H1 6870   0.680   0.915   5.841 -0.0476  0.2004 -0.0838
 2302TIP3    H2 6871   0.763   0.803   5.900  0.4018  0.7170  0.2696
 2303TIP3   OH2 6872   3.710   6.615   5.128  0.1204 -0.5512  0.3060
 2303TIP3    H1 6873   3.738   6.597   5.217  0.3495  1.1260  0.6083
 2303TIP3    H2 6874   3.786   6.655   5.086 -0.7518  0.9913  0.1411
 2304TIP3   OH2 6875   2.525   4.648   1.430  0.0940  0.3574  0.1190
 2304TIP3    H1 6876   2.607   4.681   1.469 -0.0146  0.0698  0.6038
 2304TIP3    H2 6877   2.501   4.715   1.366 -0.7111  1.8167  1.8407
 2305TIP3   OH2 6878   3.544   2.450   2.100  0.1665  0.4073  0.5057
 2305TIP3    H1 6879   3.556   2.480   2.191 -1.1488 -1.0768  1.2041
 2305TIP3    H2 6880   3.456   2.413   2.098 -0.4839  1.8440 -1.8339
 2306TIP3   OH2 6881   3.409   3.138   1.764  0.0356 -0.0852  0.0985
 2306TIP3    H1 6882   3.357   3.199   1.713 -1.4827  0.2942  1.9675
 2306TIP3    H2 6883   3.495   3.178   1.770  0.4108 -0.3539 -2.4314
 2307TIP3   OH2 6884   0.369   3.375   4.707  0.1156 -0.8896 -0.2664
 2307TIP3    H1 6885   0.284   3.379   4.752  0.8333  1.7820  1.0193
 2307TIP3    H2 6886   0.357   3.306   4.642 -3.0772 -0.6133 -0.1671
 2308TIP3   OH2 6887   0.161   3.532   1.722  0.2200 -0.0902 -0.0331
 2308TIP3    H1 6888   0.225   3.466   1.749  2.1672  1.1192 -1.3454
 2308TIP3    H2 6889   0.125   3.566   1.804  0.3040 -1.6976  0.6967
 2309TIP3   OH2 6890   3.717   5.304   0.191 -0.3118  0.1247 -0.4155
 2309TIP3    H1 6891   3.666   5.377   0.158 -0.8873 -0.2593 -0.3923
 2309TIP3    H2 6892   3.740   5.329   0.281 -0.6723  0.1921 -0.3419
 2310TIP3   OH2 6893   5.089   4.832   5.626 -0.1439 -0.5236  0.0248
 2310TIP3    H1 6894   5.058   4.746   5.598  0.1616 -0.7438  0.3545
 2310TIP3    H2 6895   5.099   4.882   5.545  0.0394 -0.9202 -0.1959
 2311TIP3   OH2 6896   2.551   4.764   2.037 -0.3753 -0.2435 -0.5869
 2311TIP3    H1 6897   2.502   4.737   1.959 -0.3717 -1.1422 -0.2785
 2311TIP3    H2 6898   2.549   4.689   2.095 -1.2735  0.7640  0.7517
 2312TIP3   OH2 6899   5.873   5.053   2.175 -0.3133 -0.3089 -0.3444
 2312TIP3    H1 6900   5.929   5.027   2.102  1.0089  1.0439  0.1120
 2312TIP3    H2 6901   5.901   4.997   2.248 -1.0504 -1.0842 -0.6464
 2313TIP3   OH2 6902   6.582   0.648   0.037 -0.0270  0.2237  0.0510
 2313TIP3    H1 6903   6.500   0.603   0.060  0.1212  0.1142  0.3745
 2313TIP3    H2 6904   6.644   0.577   0.022 -0.1626  0.2924 -0.8532
 2314TIP3   OH2 6905   2.445   4.083   1.856  0.8678 -0.3080 -0.2151
 2314TIP3    H1 6906   2.401   4.148   1.802  0.8304 -0.8972 -0.9094
 2314TIP3    H2 6907   2.515   4.048   1.800 -0.6560 -2.6407 -0.7990
 2315TIP3   OH2 6908   5.442   3.135   5.303 -0.3447  0.1045  0.3780
 2315TIP3    H1 6909   5.369   3.162   5.359 -0.6659 -0.1800  0.1015
 2315TIP3    H2 6910   5.417   3.165   5.216 -1.4654 -2.4080 -0.2523
 2316TIP3   OH2 6911   6.633   0.535   0.281 -0.3110 -0.1401 -0.3224
 2316TIP3    H1 6912   6.673   0.618   0.258 -0.4841 -0.7689 -3.2992
 2316TIP3    H2 6913   6.552   0.559   0.326  0.3061  1.2531  0.0809
 2317TIP3   OH2 6914   6.403   5.027   5.573  0.3574 -0.1571 -0.2466
 2317TIP3    H1 6915   6.437   4.969   5.641  1.1067  1.2289  0.5982
 2317TIP3    H2 6916   6.339   5.082   5.618 -0.0330 -0.0263 -0.9451
 2318TIP3   OH2 6917   6.006   3.208   3.152 -0.5060 -0.1103  0.6674
 2318TIP3    H1 6918   6.041   3.282   3.201 -1.0431  0.6223 -0.0289
 2318TIP3    H2 6919   6.081   3.151   3.137 -0.2567 -0.1836  2.0018
 2319TIP3   OH2 6920   5.647   3.718   0.036  0.4888 -0.0232  0.0385
 2319TIP3    H1 6921   5.651   3.640   0.091 -2.2285 -0.6186 -0.4579
 2319TIP3    H2 6922   5.622   3.788   0.095 -0.4427 -0.2580 -0.0587
 2320TIP3   OH2 6923   2.520   0.750   1.734  0.6405  0.2324  0.2188
 2320TIP3    H1 6924   2.615   0.738   1.726  0.5683 -0.4824  0.3317
 2320TIP3    H2 6925   2.485   0.717   1.651  0.5556  1.4549 -0.2490
 2321TIP3   OH2 6926   5.657   5.164   4.260  0.0017  0.4808 -0.0134
 2321TIP3    H1 6927   5.567   5.162   4.291  0.2528  0.3801  0.7552
 2321TIP3    H2 6928   5.701   5.096   4.312  0.7312  1.2068  0.3375
 2322TIP3   OH2 6929   5.563   1.663   3.656  0.5162  0.1699  0.0540
 2322TIP3    H1 6930   5.528   1.666   3.567  1.4698  0.4262 -0.3301
 2322TIP3    H2 6931   5.546   1.573   3.686  0.9392 -0.1717 -0.7052
 2323TIP3   OH2 6932   5.929   0.860   2.506  0.3389 -0.1004 -0.3972
 2323TIP3    H1 6933   5.869   0.842   2.579  0.9886  1.7520  0.6540
 2323TIP3    H2 6934   5.890   0.936   2.462  0.7307 -0.3027 -1.0972
 2324TIP3   OH2 6935   6.139   2.856   3.490  0.5722 -0.4369 -0.1022
 2324TIP3    H1 6936   6.217   2.840   3.542  0.5924 -0.6075 -0.1843
 2324TIP3    H2 6937   6.074   2.887   3.554  0.8180  0.0686 -0.0958
 2325TIP3   OH2 6938   7.059   1.154   0.930 -0.0302  0.5658 -0.1042
 2325TIP3    H1 6939   7.118   1.114   0.993  1.3513 -1.6477 -2.5996
 2325TIP3    H2 6940   7.106   1.231   0.898  0.6293 -0.0371 -0.6084
 2326TIP3   OH2 6941   6.361   4.671   4.491  0.6356  0.3267 -0.0893
 2326TIP3    H1 6942   6.424   4.735   4.526 -0.2200  1.1515 -0.0184
 2326TIP3    H2 6943   6.291   4.669   4.556  1.2993 -1.8012  0.6660
 2327TIP3   OH2 6944   3.399   3.389   0.741 -0.2153 -0.4628 -0.0507
 2327TIP3    H1 6945   3.400   3.338   0.660 -2.4080 -0.7890  0.0681
 2327TIP3    H2 6946   3.385   3.324   0.810 -1.0709  0.0782  0.3005
 2328TIP3   OH2 6947   5.225   3.953   1.427 -0.3648 -0.0495  0.9794
 2328TIP3    H1 6948   5.189   3.866   1.443 -0.6948  0.0489  0.7651
 2328TIP3    H2 6949   5.320   3.940   1.430 -0.3458 -0.9086 -1.5617
 2329TIP3   OH2 6950   3.501   3.341   1.265 -0.1945  0.6033  0.2005
 2329TIP3    H1 6951   3.443   3.264   1.258  1.3276 -0.4933 -1.0221
 2329TIP3    H2 6952   3.486   3.389   1.184  1.8626 -0.6677 -1.0135
 2330TIP3   OH2 6953   6.990   0.956   4.392 -0.3900 -0.3084  0.4446
 2330TIP3    H1 6954   7.037   1.020   4.445 -1.9712  0.4667  0.9532
 2330TIP3    H2 6955   7.046   0.877   4.395  2.0714  1.2315 -0.9665
 2331TIP3   OH2 6956   0.052   2.278   5.829 -0.3768  0.2141  0.4695
 2331TIP3    H1 6957   0.040   2.267   5.735  1.8798 -0.8088  0.2257
 2331TIP3    H2 6958   0.040   2.190   5.865  0.7176  0.1937  0.8365
 2332TIP3   OH2 6959   3.237   5.029   2.027  0.0620  0.0012 -0.3357
 2332TIP3    H1 6960   3.205   4.939   2.035  0.2909 -0.0157  0.4725
 2332TIP3    H2 6961   3.159   5.081   2.010 -0.1232 -0.2977 -0.4121
 2333TIP3   OH2 6962   5.729   5.953   5.745  0.0466 -0.4627 -0.3006
 2333TIP3    H1 6963   5.798   5.944   5.810 -0.0965  1.4645  0.1870
 2333TIP3    H2 6964   5.673   5.876   5.758  1.6523 -1.6655 -0.2100
 2334TIP3   OH2 6965   1.067   5.973   3.382 -0.5226  0.4246 -0.0393
 2334TIP3    H1 6966   0.991   5.944   3.332  0.4934  1.1454 -2.1145
 2334TIP3    H2 6967   1.055   6.067   3.391 -0.0469  0.4929 -0.0993
 2335TIP3   OH2 6968   6.728   5.005   1.012 -0.1997 -0.0010  0.3329
 2335TIP3    H1 6969   6.695   4.995   1.101 -0.6145  0.2572  0.2072
 2335TIP3    H2 6970   6.685   5.083   0.978 -1.8333 -1.3740 -0.8876
 2336TIP3   OH2 6971   3.947   4.690   2.996  0.0619 -0.1444 -0.7115
 2336TIP3    H1 6972   3.854   4.668   3.006  0.1110 -0.0986 -0.1307
 2336TIP3    H2 6973   3.955   4.717   2.905 -0.6990  0.8004 -0.5200
 2337TIP3   OH2 6974   1.227   1.609   0.296 -0.1601 -0.3992 -0.3616
 2337TIP3    H1 6975   1.309   1.560   0.290 -0.3571 -0.8273  0.3660
 2337TIP3    H2 6976   1.187   1.600   0.209  1.0392  0.6835 -1.0561
 2338TIP3   OH2 6977   3.569   6.162   2.813  0.0472  0.1038  0.3869
 2338TIP3    H1 6978   3.503   6.124   2.871 -0.6671  0.7123 -0.0105
 2338TIP3    H2 6979   3.626   6.089   2.790 -0.3423 -0.3775  0.9317
 2339TIP3   OH2 6980   1.898   0.375   3.156  0.0374 -0.3633  0.2142
 2339TIP3    H1 6981   1.867   0.437   3.090 -1.0322 -0.6960  0.3868
 2339TIP3    H2 6982   1.835   0.384   3.229 -0.4304 -1.9812  0.0481
 2340TIP3   OH2 6983   2.219   4.855   2.089  0.2595 -0.0616  0.0766
 2340TIP3    H1 6984   2.172   4.795   2.148 -0.0350 -1.1464 -1.2089
 2340TIP3    H2 6985   2.300   4.876   2.136 -0.9460  0.8860  1.8172
 2341TIP3   OH2 6986   2.136   1.712   1.047  0.0641  0.8066 -0.4781
 2341TIP3    H1 6987   2.189   1.789   1.027 -1.1294  1.2787 -2.0674
 2341TIP3    H2 6988   2.173   1.643   0.993 -1.1646  1.2592 -1.9686
 2342TIP3   OH2 6989   2.751   0.167   0.456 -0.2107  0.3859  0.1833
 2342TIP3    H1 6990   2.819   0.197   0.396 -0.0696  0.1435  0.2187
 2342TIP3    H2 6991   2.771   0.210   0.539 -1.4730  2.1837 -0.3916
 2343TIP3   OH2 6992   3.343   2.741   0.186  0.1123 -0.1845  0.6759
 2343TIP3    H1 6993   3.262   2.780   0.156  0.7023 -0.5382 -1.5811
 2343TIP3    H2 6994   3.403   2.815   0.200  0.8120 -0.0934 -2.2737
 2344TIP3   OH2 6995   5.217   5.680   4.843 -0.5711  0.1426  0.5048
 2344TIP3    H1 6996   5.246   5.726   4.922  0.3901 -0.6207  0.6103
 2344TIP3    H2 6997   5.197   5.591   4.873 -1.0929  0.1017  0.0504
 2345TIP3   OH2 6998   2.194   4.005   4.121  0.3877 -0.4313 -0.4723
 2345TIP3    H1 6999   2.235   4.091   4.128 -0.9154  0.3349 -1.6758
 2345TIP3    H2 7000   2.193   3.985   4.027  1.6346 -2.2851 -0.1480
 2346TIP3   OH2 7001   7.205   4.337   2.320 -0.0067 -0.5630  0.4265
 2346TIP3    H1 7002   7.262   4.261   2.310 -0.0246 -0.2999 -2.4530
 2346TIP3    H2 7003   7.142   4.312   2.386  1.1236 -2.3199  0.9009
 2347TIP3   OH2 7004   1.007   4.776   3.159  0.0908  0.0621  0.1496
 2347TIP3    H1 7005   1.014   4.869   3.137 -0.7024 -0.0790 -0.7513
 2347TIP3    H2 7006   0.970   4.735   3.081  1.1074 -1.1401  0.2748
 2348TIP3   OH2 7007   3.116   2.420   1.808 -0.2180 -0.2645 -0.2470
 2348TIP3    H1 7008   3.046   2.368   1.849 -0.1065 -0.2016  0.0244
 2348TIP3    H2 7009   3.129   2.494   1.868  0.7030 -0.7457  0.1693
 2349TIP3   OH2 7010   1.263   4.290   0.034 -0.3282 -0.3671  0.3914
 2349TIP3    H1 7011   1.209   4.237   0.092 -1.2777  0.1942  0.0376
 2349TIP3    H2 7012   1.348   4.294   0.077 -0.7003 -0.8610  1.1936
 2350TIP3   OH2 7013   5.607   6.605   3.786  0.2272 -0.4699  0.2753
 2350TIP3    H1 7014   5.535   6.604   3.722  0.2143 -0.5975  0.2905
 2350TIP3    H2 7015   5.633   6.513   3.794  2.1418 -0.1862 -1.6962
 2351TIP3   OH2 7016   2.778   2.378   5.503 -0.1890 -0.0063  0.4763
 2351TIP3    H1 7017   2.742   2.345   5.420  0.8125  2.1918 -0.9242
 2351TIP3    H2 7018   2.840   2.310   5.530 -2.2249 -1.8781  0.7499
 2352TIP3   OH2 7019   2.613   5.215   5.608 -0.3502 -0.5102 -0.1502
 2352TIP3    H1 7020   2.595   5.182   5.696 -1.2800 -1.7365 -0.7662
 2352TIP3    H2 7021   2.680   5.156   5.574  1.6893  1.3333  0.5131
 2353TIP3   OH2 7022   2.544   5.179   1.179 -0.2038  0.0844 -0.2947
 2353TIP3    H1 7023   2.553   5.210   1.088  0.3615 -0.3434 -0.3873
 2353TIP3    H2 7024   2.450   5.172   1.192 -0.2919 -2.2729 -1.6820
 2354TIP3   OH2 7025   6.569   2.719   0.755  0.0423 -0.3897  0.5487
 2354TIP3    H1 7026   6.503   2.664   0.798 -1.9423  1.2784 -0.1494
 2354TIP3    H2 7027   6.617   2.759   0.826 -0.6298 -0.6052  1.1397
 2355TIP3   OH2 7028   3.565   2.781   4.119 -0.2179  0.8789  0.3953
 2355TIP3    H1 7029   3.543   2.789   4.026  1.7548  0.9779 -0.1078
 2355TIP3    H2 7030   3.574   2.687   4.133  2.0513  0.9172 -0.2476
 2356TIP3   OH2 7031   1.425   0.941   0.221 -0.2764  0.2191 -0.1068
 2356TIP3    H1 7032   1.425   1.018   0.277 -0.6688  0.3898 -0.3435
 2356TIP3    H2 7033   1.509   0.945   0.175  0.1274 -0.0189  0.5954
 2357TIP3   OH2 7034   4.563   5.731   4.387  0.5025 -0.2367 -0.4076
 2357TIP3    H1 7035   4.521   5.716   4.302  0.5185 -0.0776 -0.4433
 2357TIP3    H2 7036   4.510   5.681   4.449 -0.1788  0.5610 -0.3335
 2358TIP3   OH2 7037   0.674   3.467   5.625 -0.1437  1.0231 -0.8281
 2358TIP3    H1 7038   0.623   3.453   5.546 -1.4984  0.1143  0.1569
 2358TIP3    H2 7039   0.765   3.473   5.595 -0.5446 -0.1297 -2.3441
 2359TIP3   OH2 7040   5.438   2.885   2.384 -0.4482  0.0850 -0.0899
 2359TIP3    H1 7041   5.469   2.936   2.309 -0.9937 -0.1418 -0.4803
 2359TIP3    H2 7042   5.515   2.837   2.414 -0.5778 -1.1808 -1.6121
 2360TIP3   OH2 7043   2.290   2.148   3.071  0.0959 -1.0735  0.4070
 2360TIP3    H1 7044   2.258   2.158   3.160 -0.8459  1.0952 -0.1245
 2360TIP3    H2 7045   2.245   2.069   3.039  1.0051 -2.3170  2.0208
 2361TIP3   OH2 7046   0.154   5.935   0.656  0.4829 -0.2613 -0.0988
 2361TIP3    H1 7047   0.157   5.874   0.730  1.1575  1.3859  1.3256
 2361TIP3    H2 7048   0.197   6.014   0.690 -1.7233  1.5749 -1.3127
 2362TIP3   OH2 7049   4.914   0.733   4.772  0.4148 -0.4838  0.4210
 2362TIP3    H1 7050   4.906   0.660   4.834 -0.6814  0.4448  1.4211
 2362TIP3    H2 7051   4.933   0.809   4.826 -0.0080  0.2556 -0.4473
 2363TIP3   OH2 7052   5.910   4.033   1.393 -0.2598  0.9478  0.2736
 2363TIP3    H1 7053   5.846   4.050   1.462 -0.0927 -1.0417  0.9741
 2363TIP3    H2 7054   5.922   3.938   1.393  2.8046  1.2104  0.2982
 2364TIP3   OH2 7055   2.019   0.961   4.435 -0.1669  0.3441 -0.4722
 2364TIP3    H1 7056   2.112   0.967   4.417 -0.2044  1.8763 -0.2621
 2364TIP3    H2 7057   1.977   1.019   4.371 -1.0432 -0.8087 -0.9775
 2365TIP3   OH2 7058   0.850   6.279   4.437  0.4403  0.5575 -0.0968
 2365TIP3    H1 7059   0.907   6.214   4.478 -0.2841  0.9056  1.5376
 2365TIP3    H2 7060   0.772   6.281   4.492  0.0298  2.1077 -0.6784
 2366TIP3   OH2 7061   6.582   3.650   1.673  0.6833  0.3899  0.3160
 2366TIP3    H1 7062   6.612   3.656   1.764 -1.0588 -1.2705  1.0449
 2366TIP3    H2 7063   6.525   3.574   1.671 -0.3511  1.1447 -1.9012
 2367TIP3   OH2 7064   2.803   4.283   1.328 -0.3502  0.1261 -0.0537
 2367TIP3    H1 7065   2.710   4.305   1.324 -1.0855 -1.9133  2.9051
 2367TIP3    H2 7066   2.805   4.189   1.343  2.2081  0.1232 -0.0305
 2368TIP3   OH2 7067   2.369   0.582   3.496 -0.3980 -0.3769 -0.5066
 2368TIP3    H1 7068   2.285   0.546   3.467 -0.8594 -0.4377  0.8296
 2368TIP3    H2 7069   2.345   0.656   3.552  0.4790  0.3375 -1.0346
 2369TIP3   OH2 7070   6.190   4.169   3.277 -0.6697  0.2934 -0.6258
 2369TIP3    H1 7071   6.236   4.230   3.334  1.4551 -0.6392 -1.2397
 2369TIP3    H2 7072   6.235   4.177   3.193 -2.1626 -0.1174 -1.4978
 2370TIP3   OH2 7073   5.602   4.333   5.035  0.0030  0.1288 -0.1767
 2370TIP3    H1 7074   5.697   4.319   5.032  0.2891  1.8977 -1.1587
 2370TIP3    H2 7075   5.592   4.417   5.081 -0.9131  0.9394 -1.7470
 2371TIP3   OH2 7076   2.653   4.043   3.158 -0.3449 -0.1975 -0.7044
 2371TIP3    H1 7077   2.663   3.948   3.165 -2.3834 -0.4368 -0.1990
 2371TIP3    H2 7078   2.742   4.078   3.169  0.4109 -2.0236 -0.6880
 2372TIP3   OH2 7079   3.705   2.159   3.522  0.3386 -0.3019 -0.5622
 2372TIP3    H1 7080   3.612   2.164   3.497  0.6819  0.5016 -1.7681
 2372TIP3    H2 7081   3.749   2.126   3.444  1.1681  0.0877 -0.2690
 2373TIP3   OH2 7082   4.399   5.964   4.178 -0.0384 -0.0466  0.2437
 2373TIP3    H1 7083   4.372   5.916   4.256  1.7118 -1.1556  0.1987
 2373TIP3    H2 7084   4.325   5.956   4.118 -1.3373  0.6713  1.6890
 2374TIP3   OH2 7085   0.739   5.479   5.772  0.5830  0.0727  0.8068
 2374TIP3    H1 7086   0.662   5.435   5.807  0.6653  0.5209  1.5924
 2374TIP3    H2 7087   0.736   5.462   5.678 -2.4768  2.9944  0.1713
 2375TIP3   OH2 7088   5.308   2.525   0.606  0.1317 -0.1702  0.5780
 2375TIP3    H1 7089   5.277   2.456   0.664  1.0977 -1.0052  0.1342
 2375TIP3    H2 7090   5.371   2.574   0.658 -0.6615  0.4937  0.9408
 2376TIP3   OH2 7091   3.323   2.356   4.921 -0.6461 -0.2518  0.3112
 2376TIP3    H1 7092   3.240   2.310   4.932 -1.2267  1.1557  2.3530
 2376TIP3    H2 7093   3.301   2.435   4.871 -0.4512 -0.0911  0.4768
 2377TIP3   OH2 7094   2.255   0.916   4.287  0.0247 -0.1358 -0.2261
 2377TIP3    H1 7095   2.214   0.847   4.235 -1.1061 -0.0461  0.4970
 2377TIP3    H2 7096   2.319   0.870   4.342 -0.2228 -0.5101 -0.2524
 2378TIP3   OH2 7097   0.091   0.373   5.454  0.3140  0.0687 -0.0831
 2378TIP3    H1 7098   0.108   0.297   5.510  0.8429  0.5992  0.4938
 2378TIP3    H2 7099   0.081   0.336   5.366 -1.3000 -0.8616  0.4462
 2379TIP3   OH2 7100   2.551   2.362   0.600  0.4771  0.1061 -0.1333
 2379TIP3    H1 7101   2.466   2.394   0.630  0.7273  0.7463 -0.0945
 2379TIP3    H2 7102   2.586   2.433   0.545  0.3465 -0.7349 -1.3628
 2380TIP3   OH2 7103   5.428   2.480   3.577  0.2420  0.5482 -0.2007
 2380TIP3    H1 7104   5.465   2.462   3.663  0.4075 -0.0375 -0.3864
 2380TIP3    H2 7105   5.469   2.562   3.549  0.7671  0.3396 -0.0487
 2381TIP3   OH2 7106   3.513   0.800   5.393 -0.3503  0.2826 -0.5756
 2381TIP3    H1 7107   3.463   0.725   5.424  2.1028 -0.9178  0.8526
 2381TIP3    H2 7108   3.544   0.775   5.306 -0.8480  0.3373 -0.7706
 2382TIP3   OH2 7109   4.571   4.710   0.320 -0.3282  0.0608 -0.1384
 2382TIP3    H1 7110   4.625   4.789   0.313 -0.1819  0.2228  2.1549
 2382TIP3    H2 7111   4.482   4.743   0.333 -0.4237 -0.1610 -0.2269
 2383TIP3   OH2 7112   3.211   6.083   5.282  0.3175 -0.5180  0.4129
 2383TIP3    H1 7113   3.270   6.070   5.208 -1.4283 -0.2995 -1.1000
 2383TIP3    H2 7114   3.186   6.175   5.276  0.2683 -0.4554  1.3928
 2384TIP3   OH2 7115   3.177   4.202   3.110 -0.8588  0.5033 -0.4582
 2384TIP3    H1 7116   3.230   4.166   3.181 -0.5389  0.1525 -0.8644
 2384TIP3    H2 7117   3.223   4.174   3.030  0.1216  2.8523 -0.8081
 2385TIP3   OH2 7118   4.658   2.003   0.942 -0.0405  0.3870 -0.5415
 2385TIP3    H1 7119   4.625   1.957   1.019 -2.1078  0.6196 -1.2196
 2385TIP3    H2 7120   4.746   2.031   0.966 -0.9453  1.2558  2.0857
 2386TIP3   OH2 7121   3.236   0.288   4.777 -0.4007  0.3630  0.9997
 2386TIP3    H1 7122   3.273   0.206   4.742  0.7103  1.1493  0.2670
 2386TIP3    H2 7123   3.158   0.260   4.825 -2.5401 -0.7656 -2.7159
 2387TIP3   OH2 7124   2.729   1.030   1.931  0.0980  0.1101 -0.1755
 2387TIP3    H1 7125   2.735   0.993   2.019 -0.6765  1.7609  0.6173
 2387TIP3    H2 7126   2.640   1.009   1.902  0.4830 -0.7865 -0.7629
 2388TIP3   OH2 7127   2.667   0.337   4.480  0.2374  0.6624 -0.3693
 2388TIP3    H1 7128   2.692   0.428   4.464 -0.5338  1.4958  2.5763
 2388TIP3    H2 7129   2.680   0.324   4.574 -1.2989 -1.7391 -0.3826
 2389TIP3   OH2 7130   2.614   0.682   4.158 -0.4431 -0.0134 -0.1623
 2389TIP3    H1 7131   2.594   0.774   4.177 -2.1957 -0.2953 -0.5274
 2389TIP3    H2 7132   2.607   0.675   4.063  1.7028 -0.1047 -0.3555
 2390TIP3   OH2 7133   0.089   0.987   0.838  0.0667  0.2035  0.5952
 2390TIP3    H1 7134   0.118   0.938   0.761  1.4132 -1.9675  2.3830
 2390TIP3    H2 7135   0.143   1.067   0.837  1.1967 -0.5362  0.1096
 2391TIP3   OH2 7136   6.673   3.837   4.104 -0.3747  0.3684 -0.2500
 2391TIP3    H1 7137   6.621   3.777   4.050  0.4112 -0.9554  0.4024
 2391TIP3    H2 7138   6.613   3.867   4.172 -0.3812 -1.0235  0.4061
 2392TIP3   OH2 7139   1.587   6.466   4.170 -0.1160 -0.8355  0.4874
 2392TIP3    H1 7140   1.495   6.465   4.195 -0.7623 -0.2964 -1.6901
 2392TIP3    H2 7141   1.629   6.522   4.236 -1.9747  1.7246 -0.3740
 2393TIP3   OH2 7142   3.339   5.273   1.656  0.0758  0.6694 -0.2262
 2393TIP3    H1 7143   3.410   5.226   1.698 -1.2498 -0.3362  0.9918
 2393TIP3    H2 7144   3.320   5.221   1.577  0.1719  0.4879 -0.1312
 2394TIP3   OH2 7145   4.000   4.074   1.681 -0.2592  0.0845  0.2219
 2394TIP3    H1 7146   3.924   4.019   1.660  0.3527  0.1654 -2.5610
 2394TIP3    H2 7147   4.014   4.060   1.775 -2.1752 -1.8674  0.3055
 2395TIP3   OH2 7148   6.690   0.156   0.950  0.1886  0.3649 -0.3601
 2395TIP3    H1 7149   6.650   0.198   0.874  0.6029  0.8493 -0.3226
 2395TIP3    H2 7150   6.652   0.202   1.026  0.2981  0.3605 -0.3020
 2396TIP3   OH2 7151   4.512   0.820   4.603 -0.3809 -0.5935  0.0657
 2396TIP3    H1 7152   4.561   0.877   4.663 -0.2231 -0.6336 -0.0262
 2396TIP3    H2 7153   4.577   0.759   4.569 -0.6302 -1.0945  0.4797
 2397TIP3   OH2 7154   2.766   0.317   2.889 -0.0640  0.0413 -0.6551
 2397TIP3    H1 7155   2.789   0.302   2.797 -0.4065  1.2406 -0.9519
 2397TIP3    H2 7156   2.732   0.406   2.891 -1.0461 -0.3413  0.4618
 2398TIP3   OH2 7157   0.778   0.904   5.116  0.0788 -0.0217 -0.5534
 2398TIP3    H1 7158   0.705   0.907   5.055  0.0869  1.0731 -0.5242
 2398TIP3    H2 7159   0.738   0.882   5.200 -0.2028  0.4630 -0.5588
 2399TIP3   OH2 7160   4.301   2.631   1.546 -0.1029  0.2525  0.2205
 2399TIP3    H1 7161   4.353   2.553   1.525  0.7137  0.3342  1.8160
 2399TIP3    H2 7162   4.294   2.631   1.641 -1.9573  0.9702  0.1378
 2400TIP3   OH2 7163   0.104   1.630   5.478 -0.0165  0.2249 -0.4768
 2400TIP3    H1 7164   0.099   1.535   5.470 -0.2071  0.1974 -0.0933
 2400TIP3    H2 7165   0.041   1.651   5.547  1.0995  0.4658  0.5137
 2401TIP3   OH2 7166   6.129   4.492   0.353 -0.4923 -0.0170 -0.7723
 2401TIP3    H1 7167   6.122   4.487   0.258 -0.0862  0.7999 -0.8596
 2401TIP3    H2 7168   6.223   4.507   0.369 -0.9656  3.4641 -0.4738
 2402TIP3   OH2 7169   6.023   0.437   2.219 -0.3710 -0.4779 -0.4094
 2402TIP3    H1 7170   6.115   0.416   2.233  0.0334  0.3823 -1.5843
 2402TIP3    H2 7171   5.997   0.481   2.300  0.2439 -0.7400 -0.0577
 2403TIP3   OH2 7172   5.534   1.023   2.709  0.2933  0.5890 -0.4309
 2403TIP3    H1 7173   5.601   0.955   2.713  0.3429  0.6533 -0.1360
 2403TIP3    H2 7174   5.455   0.978   2.679 -0.0944  0.0620  1.2607
 2404TIP3   OH2 7175   2.537   3.531   0.144  0.6182  0.2768 -0.2500
 2404TIP3    H1 7176   2.560   3.453   0.094 -0.8643 -0.8440  0.7148
 2404TIP3    H2 7177   2.577   3.517   0.230  0.6203  0.7517 -0.1667
 2405TIP3   OH2 7178   5.649   2.124   4.822  0.1125 -0.4311 -0.7665
 2405TIP3    H1 7179   5.572   2.071   4.803 -0.6991  0.5377 -0.2460
 2405TIP3    H2 7180   5.720   2.060   4.834 -0.4960 -1.3060 -1.7164
 2406TIP3   OH2 7181   4.534   3.375   2.477 -0.2736 -0.4753 -0.1896
 2406TIP3    H1 7182   4.624   3.387   2.446 -0.1312  1.2586  0.7450
 2406TIP3    H2 7183   4.541   3.311   2.548  0.0632 -1.0918 -0.7720
 2407TIP3   OH2 7184   4.352   2.004   1.442 -0.5502  0.1267 -0.6335
 2407TIP3    H1 7185   4.364   2.067   1.372  0.6399  0.8320  0.1668
 2407TIP3    H2 7186   4.259   2.009   1.464 -0.3049  2.3840  0.1083
 2408TIP3   OH2 7187   5.175   5.809   5.728  0.8937  0.0860 -0.1473
 2408TIP3    H1 7188   5.116   5.876   5.692  0.9691  0.9590  1.2898
 2408TIP3    H2 7189   5.263   5.845   5.713  0.9299  0.3952  0.7586
 2409TIP3   OH2 7190   7.179   5.782   2.059 -0.0972  0.2362  0.3042
 2409TIP3    H1 7191   7.274   5.794   2.068 -0.0122 -0.2449  0.0569
 2409TIP3    H2 7192   7.160   5.813   1.970 -0.4482  1.9648  0.9294
 2410TIP3   OH2 7193   2.023   2.576   3.430  0.0645 -0.6113  0.4530
 2410TIP3    H1 7194   1.959   2.506   3.414  1.0839 -1.5722  0.4301
 2410TIP3    H2 7195   2.001   2.643   3.366 -1.6328 -0.3993  1.1951
 2411TIP3   OH2 7196   4.056   0.931   1.339 -0.1172 -0.4737 -0.1806
 2411TIP3    H1 7197   4.138   0.968   1.371 -0.3750 -1.5790  1.9299
 2411TIP3    H2 7198   3.995   1.004   1.338 -0.2446 -0.4711  2.5406
 2412TIP3   OH2 7199   1.389   2.996   0.092  0.0644  0.1329 -0.1084
 2412TIP3    H1 7200   1.388   2.987   0.187  1.0604 -1.5852 -0.2281
 2412TIP3    H2 7201   1.310   3.046   0.072 -0.0508  0.7117  1.6195
 2413TIP3   OH2 7202   4.686   6.290   3.325  0.5745 -0.5003  0.4642
 2413TIP3    H1 7203   4.669   6.197   3.338  2.0750 -0.8050  0.3682
 2413TIP3    H2 7204   4.629   6.333   3.389 -0.0203 -1.4746  0.6159
 2414TIP3   OH2 7205   4.958   6.350   4.930 -0.0290 -0.1676  0.6032
 2414TIP3    H1 7206   4.907   6.417   4.975 -2.1652 -0.9725 -0.5138
 2414TIP3    H2 7207   4.895   6.305   4.874  2.2123 -0.2274 -2.0412
 2415TIP3   OH2 7208   6.591   3.976   3.344  0.2219 -0.6660 -0.3397
 2415TIP3    H1 7209   6.666   3.957   3.400  0.3875  1.7845  0.3781
 2415TIP3    H2 7210   6.604   4.067   3.317 -2.8334  0.0761  0.3741
 2416TIP3   OH2 7211   4.306   5.834   5.068  0.1955 -0.6418  0.4991
 2416TIP3    H1 7212   4.371   5.779   5.024  1.4711  1.7254 -0.8141
 2416TIP3    H2 7213   4.358   5.901   5.113 -1.2285 -1.2142  3.1737
 2417TIP3   OH2 7214   2.763   1.946   5.694 -0.3772  0.3964  0.0061
 2417TIP3    H1 7215   2.850   1.954   5.733 -0.6717  0.7895  0.5976
 2417TIP3    H2 7216   2.727   1.866   5.730 -0.2103  0.1613 -0.3451
 2418TIP3   OH2 7217   2.865   4.933   2.280  0.2121 -0.0206 -0.4510
 2418TIP3    H1 7218   2.843   4.845   2.310  0.4519 -0.2718 -1.0018
 2418TIP3    H2 7219   2.941   4.921   2.224 -0.9028  0.2807 -2.0959
 2419TIP3   OH2 7220   3.335   6.539   2.092 -0.1685  0.3099  0.1223
 2419TIP3    H1 7221   3.247   6.577   2.096  0.5775  2.0280  1.4489
 2419TIP3    H2 7222   3.376   6.566   2.174  1.3125 -1.2471 -0.0523
 2420TIP3   OH2 7223   5.458   3.931   2.795  0.2023 -0.3813  0.4315
 2420TIP3    H1 7224   5.370   3.962   2.815  0.1253 -1.4444  1.9647
 2420TIP3    H2 7225   5.516   3.993   2.839  0.1548 -0.6853  0.9246
 2421TIP3   OH2 7226   4.500   4.548   0.527 -0.0750  0.3119 -0.4289
 2421TIP3    H1 7227   4.533   4.587   0.608 -1.5359  0.8372 -0.0594
 2421TIP3    H2 7228   4.533   4.605   0.458  0.7704  0.1423 -0.1760
 2422TIP3   OH2 7229   4.418   5.994   4.850  0.1100  0.1313  0.5558
 2422TIP3    H1 7230   4.369   5.912   4.859 -0.3914  0.6115  2.8259
 2422TIP3    H2 7231   4.490   5.985   4.912  1.0969  0.7320 -0.4569
 2423TIP3   OH2 7232   0.843   5.668   0.641  0.3402 -0.6778  0.3961
 2423TIP3    H1 7233   0.771   5.605   0.644  1.2091 -1.6445  1.1561
 2423TIP3    H2 7234   0.859   5.681   0.547 -2.7437  1.8475  0.0124
 2424TIP3   OH2 7235   6.362   6.570   0.369  0.3781 -0.1703  0.0627
 2424TIP3    H1 7236   6.339   6.573   0.462 -0.6818 -2.3192 -0.0674
 2424TIP3    H2 7237   6.278   6.576   0.324  0.8421  0.3761 -0.7551
 2425TIP3   OH2 7238   1.434   4.246   2.553 -0.5585  0.7706  0.6300
 2425TIP3    H1 7239   1.468   4.158   2.568 -0.1671  0.7288 -0.4092
 2425TIP3    H2 7240   1.513   4.300   2.546 -0.7334  0.8895 -0.5328
 2426TIP3   OH2 7241   4.246   1.260   0.670  0.1008  0.1411  1.0411
 2426TIP3    H1 7242   4.250   1.224   0.758  1.8066  0.8043  1.2515
 2426TIP3    H2 7243   4.309   1.332   0.669 -0.9473  1.1095 -0.2961
 2427TIP3   OH2 7244   5.877   1.485   4.375 -0.4597 -0.2241  0.6086
 2427TIP3    H1 7245   5.944   1.423   4.347 -0.6280 -0.3920  0.5720
 2427TIP3    H2 7246   5.795   1.437   4.364 -0.8514  0.8870 -1.9640
 2428TIP3   OH2 7247   0.397   1.356   4.924  0.2727 -0.3272  0.2127
 2428TIP3    H1 7248   0.386   1.265   4.898  0.3963  0.1714 -1.7511
 2428TIP3    H2 7249   0.322   1.401   4.885  0.7994  0.5751  0.2212
 2429TIP3   OH2 7250   0.901   3.178   2.987  0.2654 -0.4119 -0.1719
 2429TIP3    H1 7251   0.995   3.168   2.974  0.1147 -1.9155 -0.2444
 2429TIP3    H2 7252   0.887   3.273   2.987  1.6219 -0.1807 -1.1892
 2430TIP3   OH2 7253   3.570   4.731   2.161 -0.4107 -0.5858 -0.4176
 2430TIP3    H1 7254   3.538   4.821   2.167 -1.1520 -0.9159  1.0172
 2430TIP3    H2 7255   3.547   4.704   2.072  0.4234  0.8351 -1.1114
 2431TIP3   OH2 7256   6.388   2.583   3.806 -0.2481 -0.2694  0.4143
 2431TIP3    H1 7257   6.437   2.501   3.797  0.0104 -0.0448 -0.3012
 2431TIP3    H2 7258   6.392   2.603   3.899  1.4314 -0.0214  0.3240
 2432TIP3   OH2 7259   3.786   1.763   3.721  0.9527  0.6208  1.2517
 2432TIP3    H1 7260   3.697   1.733   3.737  0.1823  0.1074 -2.7890
 2432TIP3    H2 7261   3.779   1.858   3.716  0.0743  0.5012 -1.0570
 2433TIP3   OH2 7262   7.139   4.391   3.330  0.0142 -0.3987  0.0532
 2433TIP3    H1 7263   7.174   4.479   3.314 -0.0452 -0.4558 -0.3891
 2433TIP3    H2 7264   7.045   4.399   3.313  0.0836 -0.6618 -0.4465
 2434TIP3   OH2 7265   2.484   5.913   3.329 -0.5037  0.3443  0.3431
 2434TIP3    H1 7266   2.511   6.005   3.321 -1.0933  0.3599 -2.7083
 2434TIP3    H2 7267   2.566   5.865   3.338 -0.0839  1.0455  0.3366
 2435TIP3   OH2 7268   0.823   0.639   2.080  0.0355  0.6355  0.7224
 2435TIP3    H1 7269   0.834   0.550   2.047 -0.1531  0.1701  1.8398
 2435TIP3    H2 7270   0.881   0.643   2.156 -1.1597  0.9109  1.6622
 2436TIP3   OH2 7271   3.186   0.910   3.456  0.4384 -0.1657 -0.9322
 2436TIP3    H1 7272   3.246   0.965   3.505  0.2915  0.9589 -1.9655
 2436TIP3    H2 7273   3.130   0.870   3.522  0.0272  1.5630 -0.1886
 2437TIP3   OH2 7274   0.544   3.950   5.478  0.4307 -0.5343 -0.3091
 2437TIP3    H1 7275   0.551   3.951   5.574 -1.2509 -1.5410 -0.1459
 2437TIP3    H2 7276   0.498   4.032   5.458  1.4397  0.0482 -0.3591
 2438TIP3   OH2 7277   5.070   2.893   5.268  0.4040 -0.8963 -0.0287
 2438TIP3    H1 7278   5.121   2.879   5.348 -0.0116  1.3313  0.6936
 2438TIP3    H2 7279   5.103   2.976   5.234 -1.0786 -0.6259 -0.8653
 2439TIP3   OH2 7280   3.315   4.667   0.246 -0.2906 -0.4586  0.3634
 2439TIP3    H1 7281   3.313   4.573   0.263  0.3376 -0.2973  1.4465
 2439TIP3    H2 7282   3.347   4.705   0.328  0.2704  0.6249 -0.3401
 2440TIP3   OH2 7283   7.123   4.791   1.927 -0.0805  0.2660  0.2975
 2440TIP3    H1 7284   7.119   4.803   1.832  0.8923  1.2875  0.3620
 2440TIP3    H2 7285   7.055   4.727   1.946  0.3640 -0.7162 -1.2134
 2441TIP3   OH2 7286   6.901   0.131   0.695 -0.5174 -0.1563  0.0912
 2441TIP3    H1 7287   6.818   0.085   0.703 -0.7572  0.5046  1.7497
 2441TIP3    H2 7288   6.968   0.063   0.705 -0.8444 -0.6123 -0.7443
 2442TIP3   OH2 7289   0.700   5.082   2.871 -0.1903 -0.1939 -0.5776
 2442TIP3    H1 7290   0.755   5.006   2.889 -1.3401 -1.2231 -1.2486
 2442TIP3    H2 7291   0.712   5.139   2.947  1.7390 -0.3851 -0.6772
 2443TIP3   OH2 7292   4.234   6.601   5.525 -0.3527 -0.7138 -0.0629
 2443TIP3    H1 7293   4.302   6.668   5.512 -1.0542  0.4755  1.8996
 2443TIP3    H2 7294   4.223   6.596   5.620 -1.2771 -2.6902 -0.2243
 2444TIP3   OH2 7295   0.887   5.103   3.157  0.1274  0.2986  0.2948
 2444TIP3    H1 7296   0.821   5.170   3.139  0.7636  0.2878 -2.6857
 2444TIP3    H2 7297   0.949   5.145   3.217 -1.0395  1.2921  0.8448
 2445TIP3   OH2 7298   7.165   0.297   2.465 -0.3570 -0.3155 -0.0245
 2445TIP3    H1 7299   7.089   0.240   2.463 -0.6112  0.0382 -1.0139
 2445TIP3    H2 7300   7.129   0.386   2.469 -0.0519 -0.1000 -1.3683
 2446TIP3   OH2 7301   1.147   2.449   2.901  0.5597  0.5794  0.0900
 2446TIP3    H1 7302   1.158   2.355   2.892 -0.2705  0.4897 -0.0885
 2446TIP3    H2 7303   1.170   2.467   2.992 -0.3726  0.0306  0.4433
 2447TIP3   OH2 7304   0.392   2.534   0.567  0.1054 -0.3313  0.0630
 2447TIP3    H1 7305   0.389   2.500   0.657  0.8351 -1.3677 -0.2915
 2447TIP3    H2 7306   0.307   2.510   0.530  0.4453 -1.4060 -0.0449
 2448TIP3   OH2 7307   5.381   1.724   1.554  0.0878 -0.0998 -0.1012
 2448TIP3    H1 7308   5.302   1.678   1.526  0.3697 -0.2183 -0.7230
 2448TIP3    H2 7309   5.452   1.663   1.538  0.2802 -0.1102  0.7534
 2449TIP3   OH2 7310   5.860   4.585   1.509  0.5043 -0.1410 -0.0462
 2449TIP3    H1 7311   5.880   4.678   1.522  0.6628 -0.2283  0.3522
 2449TIP3    H2 7312   5.904   4.563   1.427  1.0788 -0.0390  0.2286
 2450TIP3   OH2 7313   3.078   4.983   4.641 -0.2077  0.4606  0.1356
 2450TIP3    H1 7314   3.086   4.888   4.641 -2.5942  0.2134  0.1354
 2450TIP3    H2 7315   3.096   5.009   4.731 -1.2819 -0.1977  0.5528
 2451TIP3   OH2 7316   2.788   0.848   3.473 -0.1380 -0.1150  0.3887
 2451TIP3    H1 7317   2.729   0.778   3.446  1.2446 -0.5949 -1.6165
 2451TIP3    H2 7318   2.757   0.925   3.426 -0.3463  0.1168  0.8957
 2452TIP3   OH2 7319   7.152   4.360   1.170  0.3969  0.2557  0.1048
 2452TIP3    H1 7320   7.076   4.321   1.128 -1.3568  2.4510  1.0148
 2452TIP3    H2 7321   7.125   4.450   1.189  2.5205  0.5504  2.2125
 2453TIP3   OH2 7322   5.776   1.926   2.065  0.2478  0.0842  0.6347
 2453TIP3    H1 7323   5.843   1.971   2.117  3.0718  0.3706 -2.8539
 2453TIP3    H2 7324   5.706   1.990   2.056  0.0934  0.3631  3.1128
 2454TIP3   OH2 7325   5.740   2.131   0.344  0.8550  0.1898  0.3478
 2454TIP3    H1 7326   5.653   2.155   0.312  0.9499  1.3286  0.8979
 2454TIP3    H2 7327   5.764   2.202   0.403  3.2409  1.2673 -1.7396
 2455TIP3   OH2 7328   1.006   1.000   1.539  0.9415 -0.0232  0.3353
 2455TIP3    H1 7329   0.978   0.960   1.622  0.2953  0.4026  0.3267
 2455TIP3    H2 7330   1.092   0.961   1.522  1.6076  0.7361  1.7959
 2456TIP3   OH2 7331   2.744   5.364   0.854 -0.7031 -0.2225  0.6553
 2456TIP3    H1 7332   2.672   5.379   0.915 -1.1468  1.1407 -0.1645
 2456TIP3    H2 7333   2.743   5.440   0.796  1.1098 -0.3975  0.3288
 2457TIP3   OH2 7334   3.771   5.116   5.421  0.4799 -0.9253 -0.3284
 2457TIP3    H1 7335   3.678   5.134   5.410  0.0772 -0.9168  2.2684
 2457TIP3    H2 7336   3.815   5.170   5.356 -1.2942 -0.2580 -1.0270
 2458TIP3   OH2 7337   4.865   2.484   1.816  0.0020 -0.0327 -0.2997
 2458TIP3    H1 7338   4.827   2.469   1.902  0.6443 -0.9622 -0.1681
 2458TIP3    H2 7339   4.796   2.458   1.755 -0.5067  0.7665 -0.0803
 2459TIP3   OH2 7340   3.791   3.349   3.488 -0.2025  0.1428 -0.3709
 2459TIP3    H1 7341   3.699   3.350   3.462  0.3274 -1.1573 -2.5581
 2459TIP3    H2 7342   3.832   3.286   3.428  1.6955 -1.0705  2.0370
 2460TIP3   OH2 7343   1.941   3.743   3.775  0.4087 -0.2653 -0.2927
 2460TIP3    H1 7344   1.873   3.682   3.804  2.3804 -2.8661 -0.7201
 2460TIP3    H2 7345   1.967   3.711   3.689  1.2437  1.4898 -0.7420
 2461TIP3   OH2 7346   4.085   1.731   1.540  0.5210  0.0055 -0.9662
 2461TIP3    H1 7347   4.044   1.804   1.493  1.3407  0.5325 -0.8838
 2461TIP3    H2 7348   4.162   1.710   1.488  0.2693 -0.8455 -1.0114
 2462TIP3   OH2 7349   1.367   4.855   4.861  0.0611  0.3210 -0.0060
 2462TIP3    H1 7350   1.367   4.924   4.927 -0.0736 -0.5457  0.9297
 2462TIP3    H2 7351   1.450   4.810   4.874 -0.5030 -0.6240  0.4148
 2463TIP3   OH2 7352   1.673   1.025   2.594 -0.3089 -0.2429 -0.0660
 2463TIP3    H1 7353   1.678   1.056   2.685 -2.1772  2.0936 -0.6598
 2463TIP3    H2 7354   1.623   0.943   2.599 -3.0425  1.3466  0.8350
 2464TIP3   OH2 7355   6.319   5.696   3.567  0.2119 -0.2917 -0.4749
 2464TIP3    H1 7356   6.378   5.623   3.587  0.3141  0.2436  1.2884
 2464TIP3    H2 7357   6.364   5.773   3.602 -0.6224  0.4054 -0.9053
 2465TIP3   OH2 7358   0.709   2.278   3.602  0.0954  0.6979  0.1883
 2465TIP3    H1 7359   0.748   2.357   3.566  0.9824 -0.2854 -1.1020
 2465TIP3    H2 7360   0.688   2.224   3.526 -1.0945 -0.0515  1.0015
 2466TIP3   OH2 7361   6.435   1.137   1.318  0.1935  0.2263  0.5564
 2466TIP3    H1 7362   6.488   1.064   1.350 -1.2979 -1.1537 -0.0199
 2466TIP3    H2 7363   6.353   1.130   1.367  0.0535  1.6009  0.5642
 2467TIP3   OH2 7364   0.621   5.580   4.952  0.1181 -0.1635  0.1877
 2467TIP3    H1 7365   0.564   5.657   4.946  0.0781 -0.3238 -2.6497
 2467TIP3    H2 7366   0.698   5.612   4.999 -1.0723  0.8125  1.5699
 2468TIP3   OH2 7367   1.106   4.770   0.707  0.2243 -0.0975  0.1694
 2468TIP3    H1 7368   1.030   4.755   0.650  0.6610  0.6568 -0.6370
 2468TIP3    H2 7369   1.169   4.703   0.681  0.6637  0.6355 -0.6859
 2469TIP3   OH2 7370   1.513   5.437   0.751 -0.0648 -0.0026 -0.3986
 2469TIP3    H1 7371   1.561   5.520   0.755 -0.3530  0.1357  2.0426
 2469TIP3    H2 7372   1.580   5.370   0.753  0.1268  0.1653 -1.0227
 2470TIP3   OH2 7373   5.355   3.261   5.082 -0.7774 -0.2042  0.4552
 2470TIP3    H1 7374   5.301   3.338   5.061  0.2986  0.4311 -0.0615
 2470TIP3    H2 7375   5.372   3.220   4.997  1.5246  0.9770  0.2520
 2471TIP3   OH2 7376   2.836   2.676   4.551 -0.2526 -0.5157  0.9616
 2471TIP3    H1 7377   2.802   2.592   4.583 -0.8127 -0.8377 -0.4238
 2471TIP3    H2 7378   2.918   2.653   4.507 -0.7418 -0.4461 -0.0080
 2472TIP3   OH2 7379   0.614   4.005   1.846 -0.0546  0.1437 -0.0917
 2472TIP3    H1 7380   0.686   3.999   1.784  0.6545 -0.0459  0.7348
 2472TIP3    H2 7381   0.540   3.962   1.801  0.4841 -0.1254 -0.7324
 2473TIP3   OH2 7382   2.030   0.212   2.673 -0.0283 -0.4039 -0.1201
 2473TIP3    H1 7383   1.983   0.197   2.591 -1.7028  0.3424  0.6565
 2473TIP3    H2 7384   1.981   0.162   2.738  1.2152 -0.8989  0.4609
 2474TIP3   OH2 7385   5.800   3.111   3.335 -0.0836 -0.2511  0.2177
 2474TIP3    H1 7386   5.869   3.155   3.284  1.6845 -1.4219  1.4748
 2474TIP3    H2 7387   5.827   3.020   3.339 -0.5948 -0.3714  2.4888
 2475TIP3   OH2 7388   5.862   3.072   4.743  0.2814 -0.1352 -0.4825
 2475TIP3    H1 7389   5.924   3.131   4.701 -1.5787  0.7497 -2.1487
 2475TIP3    H2 7390   5.834   3.118   4.822  0.3289  0.2835 -0.7114
 2476TIP3   OH2 7391   6.052   4.023   4.133 -0.2582 -0.6546 -0.0026
 2476TIP3    H1 7392   5.994   4.096   4.112  0.1585 -0.3470 -0.1016
 2476TIP3    H2 7393   6.011   3.980   4.208  0.2412  0.5518  0.9903
 2477TIP3   OH2 7394   2.130   6.120   5.403 -0.0322  0.4888 -0.4315
 2477TIP3    H1 7395   2.174   6.037   5.386  0.7741  0.8466 -0.1404
 2477TIP3    H2 7396   2.199   6.186   5.393 -0.2420  0.9779  1.0422
 2478TIP3   OH2 7397   1.098   5.000   5.840 -0.3919  0.0476 -0.4423
 2478TIP3    H1 7398   1.030   5.059   5.874  0.2649  0.1293  0.7675
 2478TIP3    H2 7399   1.069   4.913   5.866  0.6728  0.2029  1.3692
 2479TIP3   OH2 7400   3.718   0.230   1.948 -0.4088  0.0744  0.0053
 2479TIP3    H1 7401   3.778   0.186   2.009 -0.2987 -1.1834 -0.9667
 2479TIP3    H2 7402   3.642   0.253   2.001 -0.1291 -0.5963  0.7149
 2480TIP3   OH2 7403   5.180   3.472   5.038  0.1990 -0.4663  0.2117
 2480TIP3    H1 7404   5.150   3.469   4.948  1.6408  0.0780 -0.3222
 2480TIP3    H2 7405   5.104   3.446   5.090 -0.4953 -1.3312 -1.1780
 2481TIP3   OH2 7406   0.568   5.626   4.110 -0.2064 -0.3611 -0.1297
 2481TIP3    H1 7407   0.642   5.579   4.147 -0.2126  0.1625  0.5669
 2481TIP3    H2 7408   0.494   5.601   4.165 -0.3396 -0.0645 -0.1721
 2482TIP3   OH2 7409   4.142   1.338   5.890 -0.2265  0.1270 -0.2199
 2482TIP3    H1 7410   4.160   1.248   5.915 -0.8220  0.6174  2.2250
 2482TIP3    H2 7411   4.052   1.337   5.859 -0.5442  0.0244  0.6900
 2483TIP3   OH2 7412   6.941   5.300   2.414  0.3818 -0.7658 -0.1456
 2483TIP3    H1 7413   6.938   5.349   2.333 -2.0488  0.0572  0.3759
 2483TIP3    H2 7414   6.876   5.231   2.403 -0.5099 -0.2037  1.3317
 2484TIP3   OH2 7415   1.026   1.412   5.737 -0.2222  0.3043  0.7697
 2484TIP3    H1 7416   0.955   1.458   5.692 -0.4488 -1.3730 -0.6740
 2484TIP3    H2 7417   0.984   1.368   5.811 -0.6704 -0.5472  0.0157
 2485TIP3   OH2 7418   0.992   0.348   1.695  0.1390  0.5051 -0.0808
 2485TIP3    H1 7419   0.928   0.277   1.695  0.2839  0.3720  0.1689
 2485TIP3    H2 7420   1.077   0.303   1.701  0.2620  0.6746 -0.5071
 2486TIP3   OH2 7421   0.098   4.542   2.950  0.8770 -0.2445  0.1205
 2486TIP3    H1 7422   0.056   4.456   2.941  2.4698 -1.0354 -0.2202
 2486TIP3    H2 7423   0.123   4.565   2.861 -0.3464  1.0431  0.0800
 2487TIP3   OH2 7424   2.726   0.265   3.368 -0.4445 -0.0264  0.0621
 2487TIP3    H1 7425   2.635   0.292   3.354 -0.2922  0.0797 -0.7723
 2487TIP3    H2 7426   2.773   0.297   3.290  0.2696 -0.2414  0.3965
 2488TIP3   OH2 7427   4.455   3.740   5.064 -0.2491 -0.2305  0.2087
 2488TIP3    H1 7428   4.452   3.762   5.157  2.0590  0.3451  0.2234
 2488TIP3    H2 7429   4.433   3.821   5.019 -1.0347 -0.4203  0.2442
 2489TIP3   OH2 7430   4.367   1.137   5.339  0.1676 -0.5048  0.7054
 2489TIP3    H1 7431   4.360   1.197   5.413 -0.3369 -0.2218  0.4293
 2489TIP3    H2 7432   4.278   1.104   5.326  0.3305 -0.8623  0.4797
 2490TIP3   OH2 7433   2.223   6.760   2.696 -0.3346 -0.2761  0.5719
 2490TIP3    H1 7434   2.290   6.716   2.747  0.6339 -1.3121 -1.4764
 2490TIP3    H2 7435   2.226   6.718   2.610  0.5789  3.6273 -1.5732
 2491TIP3   OH2 7436   1.459   1.246   4.776  0.2398 -0.0503  0.4412
 2491TIP3    H1 7437   1.398   1.259   4.704  0.3599 -1.3419  0.0778
 2491TIP3    H2 7438   1.420   1.177   4.829  0.4800  0.4210  1.2480
 2492TIP3   OH2 7439   6.157   5.576   2.651 -0.2803  0.2414  0.0226
 2492TIP3    H1 7440   6.094   5.621   2.707  0.0893  0.7995 -0.0046
 2492TIP3    H2 7441   6.112   5.568   2.567 -0.4081  0.4278  0.0726
 2493TIP3   OH2 7442   3.958   3.742   1.923 -0.1566  0.4431  0.2732
 2493TIP3    H1 7443   3.885   3.786   1.966  0.1085  1.5838 -0.4106
 2493TIP3    H2 7444   4.035   3.790   1.952  0.2454 -0.1614  0.2359
 2494TIP3   OH2 7445   3.418   2.027   2.891  0.3796 -0.5112  0.3268
 2494TIP3    H1 7446   3.354   1.963   2.859  1.0892 -0.1360 -1.9613
 2494TIP3    H2 7447   3.486   1.973   2.932 -0.8261 -0.9595  1.8689
 2495TIP3   OH2 7448   1.456   3.049   0.906  0.8302  0.1827 -0.3112
 2495TIP3    H1 7449   1.413   3.125   0.945  2.5881  0.9695  0.1961
 2495TIP3    H2 7450   1.471   3.075   0.815  0.7714  0.1441 -0.3321
 2496TIP3   OH2 7451   6.567   4.368   2.378 -0.4523 -0.2833 -0.0595
 2496TIP3    H1 7452   6.522   4.337   2.457  2.2498 -2.2669  0.8672
 2496TIP3    H2 7453   6.523   4.323   2.306 -0.3610 -1.6857  0.7378
 2497TIP3   OH2 7454   6.880   6.597   0.924  0.5022 -0.2938  0.5927
 2497TIP3    H1 7455   6.864   6.613   0.831  0.7113 -0.1374  0.5819
 2497TIP3    H2 7456   6.881   6.684   0.963 -1.2638 -0.4319  1.0307
 2498TIP3   OH2 7457   0.769   0.358   0.586 -0.4648  0.5692 -0.2794
 2498TIP3    H1 7458   0.747   0.451   0.594 -2.2154  0.0870  0.9972
 2498TIP3    H2 7459   0.707   0.325   0.521 -0.4273  0.1128 -0.0831
 2499TIP3   OH2 7460   1.265   5.857   1.447  0.0423 -0.5450  0.5812
 2499TIP3    H1 7461   1.329   5.804   1.401 -1.1430 -0.2101 -1.5662
 2499TIP3    H2 7462   1.188   5.857   1.390 -1.6546 -0.3976  2.7419
 2500TIP3   OH2 7463   0.754   1.801   4.852 -0.0375 -0.1972  0.5871
 2500TIP3    H1 7464   0.700   1.790   4.931  1.1341 -2.9684  1.1233
 2500TIP3    H2 7465   0.709   1.750   4.785  1.4698 -2.0280  0.8779
 2501TIP3   OH2 7466   0.247   4.889   1.464 -0.3344  0.1614 -0.3681
 2501TIP3    H1 7467   0.221   4.897   1.372  0.3335  0.7462 -0.5140
 2501TIP3    H2 7468   0.218   4.801   1.489  1.6801 -1.0185 -1.8651
 2502TIP3   OH2 7469   6.901   2.138   1.812 -0.0391 -0.5701  0.1028
 2502TIP3    H1 7470   6.849   2.063   1.783  0.6362 -0.6336 -1.0172
 2502TIP3    H2 7471   6.886   2.204   1.744 -1.5839  0.7937  1.6788
 2503TIP3   OH2 7472   1.432   5.211   4.687  0.7328 -0.5274 -0.3156
 2503TIP3    H1 7473   1.474   5.205   4.602 -1.4172 -0.3348 -1.4762
 2503TIP3    H2 7474   1.359   5.272   4.674 -0.0070 -0.9427  1.4913
 2504TIP3   OH2 7475   7.186   3.788   5.039 -0.2175  0.2507  0.0792
 2504TIP3    H1 7476   7.178   3.869   5.090  0.7232 -0.0196  0.6794
 2504TIP3    H2 7477   7.206   3.818   4.950  1.7276  0.6629  0.6215
 2505TIP3   OH2 7478   5.456   2.551   1.604  0.3615 -0.1917  0.6141
 2505TIP3    H1 7479   5.370   2.554   1.644 -0.1610  3.7807 -0.3830
 2505TIP3    H2 7480   5.440   2.529   1.513  0.2667  1.1381  0.2896
 2506TIP3   OH2 7481   1.118   3.052   1.555  0.4475  0.1870  0.2656
 2506TIP3    H1 7482   1.029   3.079   1.531  0.3374 -1.0925 -0.8861
 2506TIP3    H2 7483   1.159   3.030   1.472  1.4585 -0.3619  0.8989
 2507TIP3   OH2 7484   2.626   3.365   0.988  0.1847  0.5611  0.2086
 2507TIP3    H1 7485   2.704   3.370   1.043 -0.2859  3.3182  0.7599
 2507TIP3    H2 7486   2.585   3.282   1.012  0.6987  1.0485  3.0651
 2508TIP3   OH2 7487   0.974   3.589   0.921  0.2534 -0.0492 -0.4407
 2508TIP3    H1 7488   0.904   3.651   0.903  0.9234  0.6568 -0.6883
 2508TIP3    H2 7489   0.944   3.540   0.997  0.7930  2.3649  1.4554
 2509TIP3   OH2 7490   1.553   3.919   1.497  0.4824  0.3448 -1.0573
 2509TIP3    H1 7491   1.645   3.892   1.501  0.1994 -0.6713 -1.2519
 2509TIP3    H2 7492   1.547   3.973   1.418  0.8105  0.0149 -1.3085
 2510TIP3   OH2 7493   3.887   6.609   0.178 -0.0385 -0.2664  0.0404
 2510TIP3    H1 7494   3.825   6.677   0.204 -1.3407 -1.9036  1.5294
 2510TIP3    H2 7495   3.951   6.606   0.250 -0.7965 -1.4750  0.7166
 2511TIP3   OH2 7496   4.444   3.303   3.374 -0.0300  0.3327  0.0028
 2511TIP3    H1 7497   4.423   3.307   3.281 -0.3554 -0.4723  0.0418
 2511TIP3    H2 7498   4.460   3.395   3.398 -1.2918  0.7166 -0.5302
 2512TIP3   OH2 7499   6.835   0.703   2.644 -0.2631 -0.4548  0.5800
 2512TIP3    H1 7500   6.759   0.721   2.700 -0.7105 -0.9321  0.1396
 2512TIP3    H2 7501   6.829   0.609   2.626 -1.5533  0.0674 -2.2927
 2513TIP3   OH2 7502   6.837   5.065   5.654 -0.5136 -0.5342 -0.2213
 2513TIP3    H1 7503   6.902   5.051   5.585  0.6735  1.0108  0.5190
 2513TIP3    H2 7504   6.889   5.079   5.733 -1.8260 -1.6512  0.9021
 2514TIP3   OH2 7505   5.366   5.157   2.507 -0.3555  0.8613  0.6696
 2514TIP3    H1 7506   5.405   5.213   2.440  1.5902 -0.3983  0.6959
 2514TIP3    H2 7507   5.332   5.081   2.459 -0.0597  0.5304  0.9788
 2515TIP3   OH2 7508   5.445   3.040   0.118 -0.5860  0.0593 -0.4511
 2515TIP3    H1 7509   5.534   3.017   0.144 -1.4424 -2.6145  0.4173
 2515TIP3    H2 7510   5.419   2.971   0.058 -2.4295  0.1859  0.1359
 2516TIP3   OH2 7511   2.864   3.888   3.021 -0.4761  0.6978  0.1187
 2516TIP3    H1 7512   2.908   3.954   2.968  1.0148 -0.7820 -0.5881
 2516TIP3    H2 7513   2.791   3.858   2.967  0.2474  0.1397 -0.5797
 2517TIP3   OH2 7514   2.778   1.955   2.989 -0.2266  0.3454  0.5939
 2517TIP3    H1 7515   2.768   1.904   2.908 -0.6847  1.4010 -0.0262
 2517TIP3    H2 7516   2.791   1.888   3.057  1.8117 -0.5307 -0.5517
 2518TIP3   OH2 7517   4.056   1.513   5.577  0.2726  0.2158  0.2012
 2518TIP3    H1 7518   3.987   1.496   5.513 -0.8185 -2.3484  1.8630
 2518TIP3    H2 7519   4.017   1.575   5.638  0.5666  1.0819 -0.4773
 2519TIP3   OH2 7520   1.913   1.627   5.209  0.0537  0.1578  0.2850
 2519TIP3    H1 7521   1.897   1.693   5.276 -0.3704  0.3650 -0.0247
 2519TIP3    H2 7522   1.878   1.546   5.248 -2.7517  0.7597 -0.7630
 2520TIP3   OH2 7523   3.431   5.250   3.522 -0.1010 -0.0936 -0.6174
 2520TIP3    H1 7524   3.445   5.295   3.439  0.8699  0.9276  0.0674
 2520TIP3    H2 7525   3.430   5.157   3.499  2.3977  0.0118 -1.5396
 2521TIP3   OH2 7526   7.230   1.632   0.628 -0.6536  0.3039  0.5547
 2521TIP3    H1 7527   7.251   1.581   0.706 -0.6122  0.2682  0.5200
 2521TIP3    H2 7528   7.162   1.693   0.658 -1.9137 -0.8753  0.2133
 2522TIP3   OH2 7529   3.010   0.775   1.757  0.3642  1.0321 -0.0244
 2522TIP3    H1 7530   3.091   0.782   1.707  0.9144 -1.0943  0.4630
 2522TIP3    H2 7531   3.031   0.807   1.844  0.7315  0.3935  0.1276
 2523TIP3   OH2 7532   2.935   4.686   2.792  0.4720 -0.4547  0.3177
 2523TIP3    H1 7533   3.026   4.690   2.821  0.1302 -0.5524  1.4337
 2523TIP3    H2 7534   2.884   4.724   2.863 -0.1290  2.5739 -1.5520
 2524TIP3   OH2 7535   4.293   0.319   3.480 -0.0318 -0.0458 -0.4005
 2524TIP3    H1 7536   4.275   0.402   3.524  0.4083 -0.6063  0.8814
 2524TIP3    H2 7537   4.385   0.325   3.455 -0.1260  0.0321 -0.7401
 2525TIP3   OH2 7538   1.678   6.410   4.691 -0.5115 -0.0300 -0.1315
 2525TIP3    H1 7539   1.673   6.496   4.650 -1.4420  0.6964  1.4440
 2525TIP3    H2 7540   1.678   6.427   4.785 -1.6371 -1.7732  0.2403
 2526TIP3   OH2 7541   4.389   0.343   2.009 -0.5164  0.0062  0.5634
 2526TIP3    H1 7542   4.467   0.289   2.006 -0.8973 -0.6159 -3.3179
 2526TIP3    H2 7543   4.422   0.432   2.024  1.1253 -0.1238 -1.7143
 2527TIP3   OH2 7544   5.028   6.024   5.636 -0.7710  0.3610  0.2422
 2527TIP3    H1 7545   5.054   6.084   5.566 -0.6742  1.7789  1.4666
 2527TIP3    H2 7546   4.933   6.023   5.633 -0.7811  0.8065  0.4066
 2528TIP3   OH2 7547   2.268   1.494   1.843 -0.2664  0.1214  0.0297
 2528TIP3    H1 7548   2.179   1.461   1.853 -0.3664  0.8439  2.0023
 2528TIP3    H2 7549   2.323   1.426   1.880 -0.1552  0.4041  0.3957
 2529TIP3   OH2 7550   2.222   5.146   3.962 -0.3589 -0.1201 -0.0668
 2529TIP3    H1 7551   2.302   5.157   4.013 -1.3664  0.4727  1.4851
 2529TIP3    H2 7552   2.237   5.068   3.909  0.4109 -1.4032  1.9005
 2530TIP3   OH2 7553   5.706   3.826   0.687  0.0206 -0.9434  0.1633
 2530TIP3    H1 7554   5.695   3.879   0.767 -0.4522 -2.6518  1.2797
 2530TIP3    H2 7555   5.797   3.839   0.662 -0.5896  2.1875 -0.9731
 2531TIP3   OH2 7556   1.565   2.890   3.640  0.0494  0.7625 -0.1382
 2531TIP3    H1 7557   1.495   2.826   3.648 -2.9232  3.9294  2.4095
 2531TIP3    H2 7558   1.564   2.916   3.547 -1.5334  0.0819 -0.3274
 2532TIP3   OH2 7559   6.973   4.217   1.049  0.3903  0.3239  0.1617
 2532TIP3    H1 7560   6.992   4.123   1.042 -0.4127  0.2265 -0.9384
 2532TIP3    H2 7561   6.893   4.221   1.100 -0.0767  0.3433 -0.5590
 2533TIP3   OH2 7562   1.200   1.708   3.771 -0.2795  0.2338 -0.1203
 2533TIP3    H1 7563   1.158   1.650   3.835 -1.4027  0.8168 -0.3015
 2533TIP3    H2 7564   1.293   1.703   3.791 -0.5682  0.0259  1.2467
 2534TIP3   OH2 7565   3.189   5.514   3.732  0.0067  0.1071  0.4097
 2534TIP3    H1 7566   3.252   5.575   3.770 -1.4596  1.1567  1.2778
 2534TIP3    H2 7567   3.138   5.483   3.806 -1.0325 -0.0590 -0.3425
 2535TIP3   OH2 7568   2.734   6.362   1.733  0.6841  0.3078  0.6582
 2535TIP3    H1 7569   2.773   6.314   1.806  0.9475 -0.6405 -0.0882
 2535TIP3    H2 7570   2.640   6.346   1.742  0.7152  0.2015  0.8036
 2536TIP3   OH2 7571   6.693   3.028   4.421 -0.3283 -0.5587 -0.0434
 2536TIP3    H1 7572   6.715   2.980   4.341 -1.0348 -0.8151 -0.0874
 2536TIP3    H2 7573   6.652   2.963   4.478  0.0113 -0.3351  0.4642
 2537TIP3   OH2 7574   2.831   0.111   0.024  0.2512 -0.2215 -0.2214
 2537TIP3    H1 7575   2.908   0.159  -0.006 -0.1609  0.7811  0.3094
 2537TIP3    H2 7576   2.857   0.019   0.017  1.7369  0.1092  0.5906
 2538TIP3   OH2 7577   7.085   0.693   2.748  0.0119  0.1332 -0.2654
 2538TIP3    H1 7578   7.013   0.722   2.692  0.2670  0.7615 -0.2760
 2538TIP3    H2 7579   7.096   0.763   2.812  1.2494  0.5111 -0.8559
 2539TIP3   OH2 7580   2.451   4.605   3.835 -0.0522  0.7537 -0.3644
 2539TIP3    H1 7581   2.378   4.593   3.895 -0.0873 -0.5859 -0.6586
 2539TIP3    H2 7582   2.412   4.596   3.747  0.6080 -1.1129 -0.5142
 2540TIP3   OH2 7583   2.380   6.088  -0.002  0.2172  1.0503 -0.2258
 2540TIP3    H1 7584   2.416   6.003   0.024 -2.8461 -0.4625 -0.4801
 2540TIP3    H2 7585   2.437   6.152   0.041  2.9455 -1.0519 -0.4341
 2541TIP3   OH2 7586   2.866   4.315   4.544 -0.7301 -0.0779 -0.0556
 2541TIP3    H1 7587   2.837   4.226   4.524  1.3634 -0.5178 -1.4226
 2541TIP3    H2 7588   2.803   4.371   4.498 -0.0836 -0.9673 -2.1448
 2542TIP3   OH2 7589   6.751   6.432   1.108 -0.4528  0.2157  0.1352
 2542TIP3    H1 7590   6.809   6.421   1.183  0.2345  0.1902 -0.3869
 2542TIP3    H2 7591   6.800   6.488   1.048 -1.1893  0.6340 -0.0937
 2543TIP3   OH2 7592   0.642   5.027   4.252  0.2980  0.3885  0.1469
 2543TIP3    H1 7593   0.657   5.025   4.346  1.5155  1.7108  0.0218
 2543TIP3    H2 7594   0.693   4.953   4.218 -1.4305 -1.0845  0.6387
 2544TIP3   OH2 7595   1.536   3.804   3.629 -0.2779  0.4661 -0.1212
 2544TIP3    H1 7596   1.457   3.771   3.671  0.1529  1.7827  1.8828
 2544TIP3    H2 7597   1.508   3.830   3.542 -1.3667 -1.7660 -0.5074
 2545TIP3   OH2 7598   1.934   2.159   3.277 -0.8822 -0.0859  0.2125
 2545TIP3    H1 7599   1.859   2.101   3.287 -1.6596  1.0025  0.8454
 2545TIP3    H2 7600   1.919   2.204   3.194 -0.8865  0.0692  0.2973
 2546TIP3   OH2 7601   2.864   3.486   3.414 -0.5359 -0.1456 -0.4384
 2546TIP3    H1 7602   2.913   3.405   3.426 -0.6837 -0.5857 -2.3860
 2546TIP3    H2 7603   2.805   3.491   3.490  0.7020 -0.9303  0.6034
 2547TIP3   OH2 7604   2.247   2.434   4.036  0.4819 -0.6349 -0.1373
 2547TIP3    H1 7605   2.237   2.525   4.007 -0.5225 -0.2558  1.3057
 2547TIP3    H2 7606   2.339   2.428   4.064  0.1636  0.4173  1.2500
 2548TIP3   OH2 7607   0.412   4.575   2.221  0.1380 -0.1337  1.2326
 2548TIP3    H1 7608   0.325   4.607   2.245  0.2156 -0.2809  1.7278
 2548TIP3    H2 7609   0.413   4.484   2.252 -0.4834 -1.0157 -1.1471
 2549TIP3   OH2 7610   4.666   5.055   5.693 -1.0184  0.0684  0.4677
 2549TIP3    H1 7611   4.756   5.055   5.726 -0.5450 -0.9775 -0.7071
 2549TIP3    H2 7612   4.620   4.992   5.748 -0.0035 -2.3855 -1.2661
 2550TIP3   OH2 7613   4.602   4.935   1.420 -0.1980 -0.2300 -0.5588
 2550TIP3    H1 7614   4.551   5.012   1.395  0.3146  0.3801  0.2085
 2550TIP3    H2 7615   4.674   4.933   1.356 -0.6573 -0.5568 -1.0769
 2551TIP3   OH2 7616   6.289   5.638   2.917  0.0379 -0.0111 -0.1182
 2551TIP3    H1 7617   6.196   5.617   2.904  0.1294  0.2749 -1.4132
 2551TIP3    H2 7618   6.323   5.565   2.969 -0.6839 -0.6668 -0.5384
 2552TIP3   OH2 7619   2.288   0.620   2.599 -0.0267 -0.1336 -0.7280
 2552TIP3    H1 7620   2.214   0.578   2.555 -0.2447  0.2801 -0.7647
 2552TIP3    H2 7621   2.346   0.548   2.623 -0.1920 -0.4130 -1.1641
 2553TIP3   OH2 7622   2.341   6.377   3.023  0.3855  0.3853  0.0997
 2553TIP3    H1 7623   2.303   6.325   3.093 -1.7411 -1.3423 -2.1538
 2553TIP3    H2 7624   2.277   6.446   3.007  2.0731  2.3863  1.4620
 2554TIP3   OH2 7625   0.952   1.683   0.223 -0.8525 -0.0870  0.0452
 2554TIP3    H1 7626   0.994   1.757   0.180 -1.4583  1.7238  2.3720
 2554TIP3    H2 7627   1.017   1.651   0.285 -1.7532  0.7560  1.4768
 2555TIP3   OH2 7628   5.002   6.689   5.575  0.3477 -0.1037  0.4094
 2555TIP3    H1 7629   5.092   6.677   5.544 -0.0242  1.5553 -1.5411
 2555TIP3    H2 7630   4.953   6.618   5.535 -0.0949  1.9135 -3.0650
 2556TIP3   OH2 7631   6.240   5.126   2.238  0.5125  0.0069 -0.1543
 2556TIP3    H1 7632   6.327   5.106   2.273  0.8368  1.0817 -0.3079
 2556TIP3    H2 7633   6.248   5.215   2.205 -1.0665  0.7217  1.2343
 2557TIP3   OH2 7634   4.169   0.672   1.687 -0.0031  0.1628 -0.0033
 2557TIP3    H1 7635   4.208   0.758   1.670 -1.5836  0.6928 -1.1410
 2557TIP3    H2 7636   4.207   0.615   1.620 -0.2148  0.3625 -0.2909
 2558TIP3   OH2 7637   1.841   5.084   0.179 -0.3554  0.7424 -0.6835
 2558TIP3    H1 7638   1.871   5.172   0.154 -0.0416  0.5983 -0.8161
 2558TIP3    H2 7639   1.799   5.097   0.264  1.5245  0.6970  0.3197
 2559TIP3   OH2 7640   0.054   1.370   5.380 -0.3481 -0.1206 -0.2461
 2559TIP3    H1 7641   0.039   1.377   5.286  0.7720  2.3844 -0.3109
 2559TIP3    H2 7642  -0.034   1.362   5.418 -0.7804 -1.7431 -1.4802
 2560TIP3   OH2 7643   1.989   1.140   4.819  0.1282 -0.0008 -0.1544
 2560TIP3    H1 7644   1.952   1.054   4.838 -0.0681 -0.2295 -1.5149
 2560TIP3    H2 7645   1.926   1.182   4.761  0.2550  1.0518  0.4357
 2561TIP3   OH2 7646   6.308   0.135   4.887  0.1087 -0.1020 -0.0541
 2561TIP3    H1 7647   6.241   0.150   4.953  0.1062  1.9324 -0.4450
 2561TIP3    H2 7648   6.276   0.181   4.809  1.3479 -0.1649 -0.6268
 2562TIP3   OH2 7649   2.725   2.645   5.202  0.0579  0.0055  0.1824
 2562TIP3    H1 7650   2.759   2.560   5.230 -2.1307 -1.0517 -0.1219
 2562TIP3    H2 7651   2.664   2.624   5.131  1.6731  2.1348 -1.9865
 2563TIP3   OH2 7652   0.841  -0.000   1.064  0.0301 -0.2289  0.1985
 2563TIP3    H1 7653   0.850   0.095   1.060 -1.6271 -0.0697 -0.3938
 2563TIP3    H2 7654   0.843  -0.021   1.157  1.0698  0.2892  0.3104
 2564TIP3   OH2 7655   1.429   5.663   1.002  0.1037  0.7097  1.2032
 2564TIP3    H1 7656   1.495   5.624   0.945  0.8828  1.2357  1.7441
 2564TIP3    H2 7657   1.392   5.735   0.950 -0.1192  0.3622  0.8694
 2565TIP3   OH2 7658   5.075   2.563   3.588 -0.1940 -0.7862 -0.5265
 2565TIP3    H1 7659   4.985   2.566   3.554  0.1024 -1.1920 -1.3458
 2565TIP3    H2 7660   5.121   2.631   3.539 -0.5570  1.0307  1.4599
 2566TIP3   OH2 7661   7.166   5.681   5.237 -0.0448 -0.2801 -0.0146
 2566TIP3    H1 7662   7.073   5.703   5.236 -0.1849 -0.6438  1.6563
 2566TIP3    H2 7663   7.200   5.723   5.316  0.6580 -2.1431  0.7300
 2567TIP3   OH2 7664   6.694   4.298   2.989 -0.4669 -0.1030  0.6152
 2567TIP3    H1 7665   6.685   4.385   3.027  0.5381  0.8648 -1.2481
 2567TIP3    H2 7666   6.645   4.301   2.907 -1.2336 -1.6189  0.9735
 2568TIP3   OH2 7667   4.281   3.081   3.396  0.1017  0.1516 -0.4256
 2568TIP3    H1 7668   4.318   3.023   3.329  0.4553  1.2642 -1.2226
 2568TIP3    H2 7669   4.338   3.157   3.396 -2.1134  1.9269 -1.6897
 2569TIP3   OH2 7670   2.277   4.229   5.623 -0.1785 -0.6552 -0.5076
 2569TIP3    H1 7671   2.262   4.201   5.533 -0.6491  0.3880 -0.7641
 2569TIP3    H2 7672   2.266   4.324   5.621  1.2924 -0.4375  0.3529
 2570TIP3   OH2 7673   0.327   3.530   5.230  0.1592 -0.2003  0.3351
 2570TIP3    H1 7674   0.298   3.619   5.209  3.2049  0.8996  0.3788
 2570TIP3    H2 7675   0.382   3.540   5.307  3.7523 -1.4137 -1.8330
 2571TIP3   OH2 7676   0.632   5.247   1.284  0.2457  0.0440  0.2484
 2571TIP3    H1 7677   0.668   5.320   1.234 -0.3957 -0.9723 -1.8081
 2571TIP3    H2 7678   0.672   5.169   1.246 -0.5644 -0.8022  1.0628
 2572TIP3   OH2 7679   0.180   1.529   1.816  0.2042  0.2152 -0.2536
 2572TIP3    H1 7680   0.092   1.562   1.802 -0.5333 -0.7049  1.8889
 2572TIP3    H2 7681   0.196   1.540   1.910  2.2280  0.0163 -0.5235
 2573TIP3   OH2 7682   3.359   4.761   5.189  0.5177  0.2602  0.6466
 2573TIP3    H1 7683   3.405   4.690   5.234  0.6227 -0.1469 -0.0971
 2573TIP3    H2 7684   3.322   4.720   5.111 -1.4958  0.4586  1.4212
 2574TIP3   OH2 7685   7.045   0.396   1.111  0.3015  0.5031 -0.1381
 2574TIP3    H1 7686   7.010   0.358   1.192 -0.8023  1.1423 -0.3002
 2574TIP3    H2 7687   7.113   0.456   1.141 -0.8857  1.6139  0.4241
 2575TIP3   OH2 7688   6.622   6.432   4.027 -0.3999 -0.7463  0.1799
 2575TIP3    H1 7689   6.574   6.479   3.959  0.0495 -0.1869  0.2527
 2575TIP3    H2 7690   6.605   6.339   4.008  0.3488 -0.6293 -1.1557
 2576TIP3   OH2 7691   6.700   6.747   3.571  0.2833  0.3378 -0.5058
 2576TIP3    H1 7692   6.761   6.714   3.505  0.5625 -0.2568  0.0379
 2576TIP3    H2 7693   6.629   6.683   3.572  1.2559 -0.8130  1.1862
 2577TIP3   OH2 7694   3.454   3.990   3.809 -0.0284 -0.8943 -0.2180
 2577TIP3    H1 7695   3.425   3.941   3.732 -1.9042 -0.8477  0.4063
 2577TIP3    H2 7696   3.458   3.926   3.879 -0.8904 -0.4819  0.2254
 2578TIP3   OH2 7697   5.102   0.819   4.546  0.1359  0.0374  0.0241
 2578TIP3    H1 7698   5.163   0.755   4.582  0.3830  0.2408 -0.0359
 2578TIP3    H2 7699   5.035   0.829   4.614  1.2060  1.2885  0.9334
 2579TIP3   OH2 7700   3.844   5.620   0.476  0.0846 -0.0611  0.5590
 2579TIP3    H1 7701   3.810   5.531   0.471 -0.1585  0.0577  0.1314
 2579TIP3    H2 7702   3.849   5.638   0.570 -1.8875  0.2522  0.6462
 2580TIP3   OH2 7703   3.279   0.444   3.239  0.1378 -0.5658  0.6791
 2580TIP3    H1 7704   3.325   0.360   3.240  0.7722 -0.2639 -1.0299
 2580TIP3    H2 7705   3.348   0.510   3.246 -0.2213 -0.1526  0.3579
 2581TIP3   OH2 7706   1.396   3.486   2.067 -0.4399  0.5741 -0.6835
 2581TIP3    H1 7707   1.333   3.431   2.113  0.2845  0.2544 -0.0467
 2581TIP3    H2 7708   1.345   3.528   1.998 -1.7156  1.6204  0.8246
 2582TIP3   OH2 7709   3.910   1.032   3.354  0.0748  0.1857 -0.0017
 2582TIP3    H1 7710   3.936   1.102   3.415 -1.1123  0.2754  0.4168
 2582TIP3    H2 7711   3.856   1.076   3.288  1.6565  0.1680 -1.3923
 2583TIP3   OH2 7712   3.454   2.702   1.020 -0.3049  0.0845 -0.9191
 2583TIP3    H1 7713   3.507   2.631   0.983  1.8475  0.7546  0.6133
 2583TIP3    H2 7714   3.377   2.658   1.056 -0.3057 -1.1080 -2.2818
 2584TIP3   OH2 7715   2.839   3.253   1.138  0.2940 -0.0762 -0.1572
 2584TIP3    H1 7716   2.928   3.248   1.173  0.6818  1.0126 -0.9575
 2584TIP3    H2 7717   2.823   3.166   1.102  1.2447 -0.1121 -0.5119
 2585TIP3   OH2 7718   0.565   3.920   1.508  0.5835 -0.7773 -0.2036
 2585TIP3    H1 7719   0.490   3.871   1.472 -0.1089 -0.4492  0.7472
 2585TIP3    H2 7720   0.529   4.006   1.529  1.1192 -0.7633  0.6903
 2586TIP3   OH2 7721   1.163   6.342   4.371 -0.0860  0.3169  0.5981
 2586TIP3    H1 7722   1.099   6.413   4.384 -1.5029 -1.2619  3.0110
 2586TIP3    H2 7723   1.112   6.262   4.384  1.6422 -1.1520 -1.2267
 2587TIP3   OH2 7724   5.538   0.090   0.645 -0.0258 -0.4275  0.2209
 2587TIP3    H1 7725   5.575   0.027   0.583 -0.7640 -0.1687 -0.4930
 2587TIP3    H2 7726   5.444   0.088   0.629 -0.1797  0.0077  0.9973
 2588TIP3   OH2 7727   0.025   0.857   2.924  0.0299 -0.3140  0.6857
 2588TIP3    H1 7728  -0.025   0.934   2.950  1.2694  0.4823  0.8114
 2588TIP3    H2 7729   0.018   0.798   2.998  0.1943  0.2612  1.1692
 2589TIP3   OH2 7730   3.238   6.307   4.833 -0.3582 -0.2030 -0.4717
 2589TIP3    H1 7731   3.153   6.336   4.800 -1.2170 -0.1155  1.6058
 2589TIP3    H2 7732   3.219   6.277   4.922  2.0548  1.4269  0.6947
 2590TIP3   OH2 7733   5.943   4.885   4.838  0.4768  0.0978 -0.3659
 2590TIP3    H1 7734   5.948   4.975   4.806 -0.1704  0.5790  0.8227
 2590TIP3    H2 7735   5.951   4.892   4.933  0.2980 -1.0941 -0.2391
 2591TIP3   OH2 7736   3.003   6.657   0.114 -0.2162 -0.0664 -0.2610
 2591TIP3    H1 7737   3.000   6.741   0.069  1.9772 -0.3179 -0.9732
 2591TIP3    H2 7738   2.994   6.592   0.045  0.6303 -0.4393 -0.0214
 2592TIP3   OH2 7739   2.620   0.137   5.554  0.0527  0.6614 -0.0686
 2592TIP3    H1 7740   2.530   0.165   5.535 -1.2563 -2.0314  1.4701
 2592TIP3    H2 7741   2.647   0.190   5.629 -0.6263  0.8704  0.0328
 2593TIP3   OH2 7742   1.381   4.523   3.418 -0.3602  0.0097  0.4123
 2593TIP3    H1 7743   1.323   4.560   3.352 -0.0838 -1.2266 -0.5700
 2593TIP3    H2 7744   1.405   4.596   3.474  0.2161  1.3128 -1.4593
 2594TIP3   OH2 7745   2.300   2.694   3.953  0.6577  0.4433 -0.0047
 2594TIP3    H1 7746   2.390   2.723   3.940  1.2793 -0.2505  2.3186
 2594TIP3    H2 7747   2.247   2.759   3.906  2.3451  0.4161 -2.1173
 2595TIP3   OH2 7748   3.594   5.595   1.473  0.6102 -0.1528 -0.1300
 2595TIP3    H1 7749   3.688   5.611   1.485  0.4993  0.9564 -0.6084
 2595TIP3    H2 7750   3.557   5.603   1.561  0.8334  0.4598 -0.0809
 2596TIP3   OH2 7751   5.197   4.981   4.615  0.8699 -0.4133 -0.3153
 2596TIP3    H1 7752   5.264   5.035   4.573  0.0028 -1.3285 -3.0547
 2596TIP3    H2 7753   5.218   4.892   4.589  0.4134 -1.0868  1.4818
 2597TIP3   OH2 7754   0.517   0.085   3.776  0.2638 -0.3197 -0.5543
 2597TIP3    H1 7755   0.468   0.071   3.857 -0.3967  1.1206 -0.6843
 2597TIP3    H2 7756   0.599   0.126   3.804 -0.1773  0.6451 -0.6355
 2598TIP3   OH2 7757   1.679   3.270   3.708  0.0680  0.2654 -0.2783
 2598TIP3    H1 7758   1.727   3.250   3.788 -1.0028 -2.5723 -0.2205
 2598TIP3    H2 7759   1.589   3.286   3.737 -0.0764  0.4571 -0.8084
 2599TIP3   OH2 7760   0.716   3.784   3.233 -0.3907 -0.0204  0.1144
 2599TIP3    H1 7761   0.642   3.740   3.276 -0.1273  1.1485  1.8614
 2599TIP3    H2 7762   0.676   3.858   3.188 -0.3651  0.2809  0.5801
 2600TIP3   OH2 7763   4.158   5.405   3.663  0.1486 -0.4219  1.0065
 2600TIP3    H1 7764   4.078   5.353   3.669 -0.5075  0.4618  0.1578
 2600TIP3    H2 7765   4.216   5.353   3.609 -1.1146  0.4202 -1.2770
 2601TIP3   OH2 7766   3.935   4.675   1.847 -0.3100 -0.3108  0.6934
 2601TIP3    H1 7767   3.942   4.749   1.786 -0.4150  0.5585  1.7165
 2601TIP3    H2 7768   3.972   4.601   1.798  1.3201  0.7544  0.2118
 2602TIP3   OH2 7769   1.916   3.748   5.240 -0.2357  0.4865  0.3539
 2602TIP3    H1 7770   1.985   3.725   5.303  1.7893  1.3920 -1.3931
 2602TIP3    H2 7771   1.916   3.844   5.238  0.8130  0.5177 -1.9790
 2603TIP3   OH2 7772   3.590   0.240   5.419  0.0687 -0.2170  0.1385
 2603TIP3    H1 7773   3.544   0.167   5.379  0.7594 -0.5359 -0.0822
 2603TIP3    H2 7774   3.610   0.299   5.347  0.7984 -0.5120  0.0929
 2604TIP3   OH2 7775   6.695   4.259   4.256 -0.0426  0.4757 -0.2800
 2604TIP3    H1 7776   6.687   4.196   4.185  0.0775 -0.3907  0.4521
 2604TIP3    H2 7777   6.605   4.285   4.276 -0.3667 -1.5773  1.2292
 2605TIP3   OH2 7778   6.265   4.213   4.177  0.3946  0.0844 -0.2483
 2605TIP3    H1 7779   6.297   4.157   4.248 -1.1030 -0.1820  0.2550
 2605TIP3    H2 7780   6.176   4.184   4.162 -0.8925  3.0098  0.8220
 2606TIP3   OH2 7781   2.854   2.280   2.487  0.0709  0.1730 -0.2328
 2606TIP3    H1 7782   2.803   2.224   2.545  0.3179 -0.2472 -0.4049
 2606TIP3    H2 7783   2.869   2.360   2.536 -1.8264  0.8241 -0.6603
 2607TIP3   OH2 7784   2.310   0.928   4.680 -0.3946  0.0905 -0.5871
 2607TIP3    H1 7785   2.250   0.905   4.751  0.1764  0.8805  0.1715
 2607TIP3    H2 7786   2.397   0.906   4.715 -0.0655  0.9625 -0.8425
 2608TIP3   OH2 7787   1.078   4.042   3.692  0.1167 -0.6248 -0.3259
 2608TIP3    H1 7788   1.021   4.008   3.761  0.8857 -3.7503 -1.0569
 2608TIP3    H2 7789   1.045   4.002   3.612  0.6498  1.0962 -1.4606
 2609TIP3   OH2 7790   6.112   4.577   1.017  0.4593  0.1982  0.2670
 2609TIP3    H1 7791   6.033   4.622   0.985  0.7170  0.7911  0.4450
 2609TIP3    H2 7792   6.182   4.609   0.959  0.7298  0.4041  0.7055
 2610TIP3   OH2 7793   4.739   2.811   4.261 -0.0240 -0.5313  0.2083
 2610TIP3    H1 7794   4.815   2.787   4.314 -0.3539 -0.5806  0.6612
 2610TIP3    H2 7795   4.713   2.898   4.293  0.3807 -0.1224 -0.5498
 2611TIP3   OH2 7796   6.951   1.598   4.251 -0.0196 -0.5417 -0.3901
 2611TIP3    H1 7797   6.954   1.503   4.237 -2.4648 -0.5357 -1.3632
 2611TIP3    H2 7798   7.034   1.630   4.214  0.4036 -2.1940 -0.9626
 2612TIP3   OH2 7799   1.308   4.202   4.952  0.5913  0.0473  0.3009
 2612TIP3    H1 7800   1.250   4.148   5.006  0.8799  0.2851  0.8597
 2612TIP3    H2 7801   1.249   4.253   4.897  0.2986 -0.3443  0.2499
 2613TIP3   OH2 7802   2.584   4.410   0.999 -0.2796  0.2667 -0.0335
 2613TIP3    H1 7803   2.637   4.470   1.051 -0.0697  0.3778 -0.3769
 2613TIP3    H2 7804   2.523   4.466   0.952 -0.9488  0.1182  0.6261
 2614TIP3   OH2 7805   2.285   3.661   3.260  0.5811 -0.0354  0.3085
 2614TIP3    H1 7806   2.195   3.627   3.256 -0.2201  1.8516  1.0923
 2614TIP3    H2 7807   2.340   3.583   3.259 -1.0935 -1.2795  0.5536
 2615TIP3   OH2 7808   6.342   6.733   4.350  0.1444  0.0051 -0.6219
 2615TIP3    H1 7809   6.341   6.644   4.314 -1.3728 -0.2195 -0.1148
 2615TIP3    H2 7810   6.404   6.781   4.295  1.8737 -1.6293 -0.2159
 2616TIP3   OH2 7811   3.052   3.361   0.645  0.0217 -0.1279 -0.1981
 2616TIP3    H1 7812   3.094   3.402   0.721  1.5336 -3.1539  0.7568
 2616TIP3    H2 7813   3.105   3.387   0.570  0.4177  0.3505  0.2444
 2617TIP3   OH2 7814   2.043   4.902   0.720 -0.3720  0.1935  0.1336
 2617TIP3    H1 7815   2.026   4.986   0.763  0.5206  0.1863  0.5326
 2617TIP3    H2 7816   2.124   4.917   0.671 -0.9933 -0.0123 -0.9801
 2618TIP3   OH2 7817   5.556   2.987   5.834  0.0517 -0.0814 -0.4364
 2618TIP3    H1 7818   5.552   2.895   5.809  2.3698 -0.6317  0.9422
 2618TIP3    H2 7819   5.595   3.031   5.758  0.2882 -0.4825 -0.5466
 2619TIP3   OH2 7820   0.142   1.562   0.922  0.0628  0.2605  0.0028
 2619TIP3    H1 7821   0.230   1.541   0.954 -0.3440 -0.3232  0.7739
 2619TIP3    H2 7822   0.139   1.658   0.922  0.1565  0.2853  1.5542
 2620TIP3   OH2 7823   3.427   5.633   3.788  0.6423 -0.1585 -0.2969
 2620TIP3    H1 7824   3.520   5.657   3.793  0.4666  0.5262 -0.2122
 2620TIP3    H2 7825   3.416   5.598   3.699  0.9145  0.0644 -0.4209
 2621TIP3   OH2 7826   4.741   0.502   3.001 -0.8402 -0.0482 -0.3263
 2621TIP3    H1 7827   4.756   0.592   3.030 -0.6636 -0.1802 -0.0071
 2621TIP3    H2 7828   4.762   0.504   2.907 -0.8082  0.2360 -0.3141
 2622TIP3   OH2 7829   3.236   0.396  -0.013  0.2960  0.2343  0.2873
 2622TIP3    H1 7830   3.239   0.490   0.005 -0.9423 -0.0193  2.2704
 2622TIP3    H2 7831   3.244   0.355   0.074  0.5270 -1.4739 -0.4968
 2623TIP3   OH2 7832   6.765   4.783   5.456 -0.2522  0.0034 -0.2147
 2623TIP3    H1 7833   6.712   4.713   5.496  0.3221 -1.0102 -1.1670
 2623TIP3    H2 7834   6.703   4.853   5.438 -0.9405 -0.4646  0.2925
 2624TIP3   OH2 7835   1.048   3.021   4.052 -0.0317  0.5987 -0.7041
 2624TIP3    H1 7836   1.102   3.073   4.112 -0.3334  1.1799 -0.9250
 2624TIP3    H2 7837   1.081   3.042   3.965 -0.1083  0.3584 -0.7931
 2625TIP3   OH2 7838   3.609   5.851   4.695 -0.1447  0.2478  0.1365
 2625TIP3    H1 7839   3.577   5.915   4.759 -3.6180 -1.0382 -0.0937
 2625TIP3    H2 7840   3.599   5.894   4.610 -0.7046  0.1112  0.1240
 2626TIP3   OH2 7841   2.844   6.182   2.877  0.1834 -0.2597 -0.1423
 2626TIP3    H1 7842   2.889   6.103   2.907 -0.7676 -0.3276  1.1745
 2626TIP3    H2 7843   2.757   6.151   2.852  0.3035  0.1366 -1.0882
 2627TIP3   OH2 7844   4.044   0.731   4.264  0.9450  0.4383 -1.2349
 2627TIP3    H1 7845   4.080   0.654   4.307  1.3274  2.0454  1.6137
 2627TIP3    H2 7846   4.114   0.762   4.207  1.8277  0.1492 -0.3406
 2628TIP3   OH2 7847   6.211   0.638   2.035  0.0429  0.4683 -0.2525
 2628TIP3    H1 7848   6.123   0.658   2.001  0.6195  1.5858 -1.1740
 2628TIP3    H2 7849   6.202   0.552   2.076 -0.9561 -0.5201 -2.3794
 2629TIP3   OH2 7850   3.966   6.805   4.642  0.0604 -0.5348 -0.3125
 2629TIP3    H1 7851   3.975   6.861   4.719 -1.1990  0.8428 -1.1227
 2629TIP3    H2 7852   3.900   6.740   4.667 -0.9182  0.3747 -0.4390
 2630TIP3   OH2 7853   3.935   6.600   5.803  0.3895 -0.2674 -0.2599
 2630TIP3    H1 7854   3.893   6.685   5.814  1.7692  0.3823  0.3022
 2630TIP3    H2 7855   3.870   6.536   5.833 -0.7520  0.5520 -0.9204
 2631TIP3   OH2 7856   4.331   0.077   5.584 -0.1381 -0.2367  0.2342
 2631TIP3    H1 7857   4.325   0.001   5.641  0.1681 -0.0850  0.4709
 2631TIP3    H2 7858   4.422   0.106   5.591  0.3058 -1.1037 -1.4922
 2632TIP3   OH2 7859   3.383   2.954   4.854  0.0357 -0.0866 -0.5657
 2632TIP3    H1 7860   3.361   2.910   4.772 -0.7781 -0.4697 -0.1590
 2632TIP3    H2 7861   3.351   2.894   4.922 -1.0114  1.0699 -0.0001
 2633TIP3   OH2 7862   3.306   5.151   5.734  0.0641 -0.8699 -0.6234
 2633TIP3    H1 7863   3.377   5.211   5.754 -1.2876  0.8734 -0.8503
 2633TIP3    H2 7864   3.336   5.105   5.655 -0.0910  1.7687 -2.3509
 2634TIP3   OH2 7865   1.386   4.175   0.840 -0.0782 -0.2040 -0.2998
 2634TIP3    H1 7866   1.319   4.193   0.906 -0.5646  0.0728 -0.8589
 2634TIP3    H2 7867   1.390   4.080   0.834 -0.4276 -0.2217 -0.2687
 2635TIP3   OH2 7868   2.355   4.495   3.297  0.2758  0.2669  0.5282
 2635TIP3    H1 7869   2.394   4.417   3.257 -0.1089 -0.0342  0.7301
 2635TIP3    H2 7870   2.285   4.461   3.352  0.2353  0.7447  0.7768
 2636TIP3   OH2 7871   2.691   1.347   3.302  0.2672 -0.3255  0.3308
 2636TIP3    H1 7872   2.676   1.398   3.223 -1.6431  0.5154  1.1704
 2636TIP3    H2 7873   2.784   1.362   3.323  0.6253 -0.0107 -1.3175
 2637TIP3   OH2 7874   4.442   1.703   4.431 -0.1626 -0.3313  0.3810
 2637TIP3    H1 7875   4.525   1.751   4.438 -0.9482  0.8625  2.0975
 2637TIP3    H2 7876   4.432   1.660   4.516 -1.6779  0.2169  0.5140
 2638TIP3   OH2 7877   4.623   0.414   5.268 -0.4535  0.0490  0.4573
 2638TIP3    H1 7878   4.617   0.321   5.245 -2.2102  0.3426 -0.4214
 2638TIP3    H2 7879   4.608   0.459   5.185  1.9665  1.1630  0.5368
 2639TIP3   OH2 7880   1.892   1.987   3.873  0.2575  0.2441  0.0148
 2639TIP3    H1 7881   1.843   1.909   3.849 -1.1155  0.4601  1.9184
 2639TIP3    H2 7882   1.826   2.051   3.899  1.4662  0.6597  2.3562
 2640TIP3   OH2 7883   6.578   3.720   5.875  0.7646 -0.2017 -0.0051
 2640TIP3    H1 7884   6.596   3.633   5.839 -0.3557  0.2984 -1.9106
 2640TIP3    H2 7885   6.662   3.747   5.914  1.7543 -1.2720 -1.2868
 2641TIP3   OH2 7886   5.951   2.258   1.461 -0.4071 -0.3446  0.1527
 2641TIP3    H1 7887   5.961   2.353   1.455 -0.9578 -0.1948  1.3288
 2641TIP3    H2 7888   5.858   2.244   1.476 -0.2127 -1.0136  0.8156
 2642TIP3   OH2 7889   5.829   4.515   2.754 -0.1354  0.1324 -0.0857
 2642TIP3    H1 7890   5.792   4.573   2.687  0.9590  2.6936  1.3788
 2642TIP3    H2 7891   5.776   4.436   2.750 -1.6421  1.1652 -2.2931
 2643TIP3   OH2 7892   0.508   3.576   2.685  0.0715 -0.0317 -0.2629
 2643TIP3    H1 7893   0.499   3.511   2.616 -1.9291 -1.2162  0.9852
 2643TIP3    H2 7894   0.596   3.563   2.720 -0.1030 -1.7435 -0.3950
 2644TIP3   OH2 7895   3.596   6.052   1.741 -0.2473 -1.1044 -0.6290
 2644TIP3    H1 7896   3.609   6.122   1.677  1.7787 -0.1604  0.7415
 2644TIP3    H2 7897   3.515   6.076   1.787 -0.4480 -0.5548 -1.2604
 2645TIP3   OH2 7898   0.690   5.315   2.400  0.0980 -0.2743 -0.1470
 2645TIP3    H1 7899   0.752   5.266   2.346 -0.3649 -0.7860 -0.2190
 2645TIP3    H2 7900   0.704   5.407   2.375  1.3244 -0.3019  0.3528
 2646TIP3   OH2 7901   4.439   0.281   1.426  0.0512 -0.3817 -0.4181
 2646TIP3    H1 7902   4.501   0.223   1.471  2.1399  0.6873 -1.7610
 2646TIP3    H2 7903   4.465   0.277   1.334 -1.3671  0.7719 -0.8934
 2647TIP3   OH2 7904   1.798   4.882   0.934 -0.1483 -0.1775  0.1622
 2647TIP3    H1 7905   1.737   4.953   0.950  0.1998 -0.0498  0.9411
 2647TIP3    H2 7906   1.881   4.925   0.914 -0.6799 -0.2773 -2.8199
 2648TIP3   OH2 7907   4.814   2.299   5.238 -0.1731 -0.5938 -0.2410
 2648TIP3    H1 7908   4.759   2.276   5.314  0.8512 -0.1650  0.6576
 2648TIP3    H2 7909   4.827   2.393   5.245  2.3619 -0.9378  0.7904
 2649TIP3   OH2 7910   3.670   2.297   5.586 -0.1148  0.5307 -0.6428
 2649TIP3    H1 7911   3.625   2.297   5.670  1.1101 -1.9053  0.0852
 2649TIP3    H2 7912   3.600   2.305   5.521 -1.7554 -3.2055  0.4320
 2650TIP3   OH2 7913   6.137   5.865   2.659  0.3685  0.2860  0.1164
 2650TIP3    H1 7914   6.091   5.844   2.740  0.1987  0.5591  0.0909
 2650TIP3    H2 7915   6.209   5.803   2.656 -0.1175 -0.2874  0.0531
 2651TIP3   OH2 7916   1.136   5.728   5.598 -0.1973 -0.1812  0.0947
 2651TIP3    H1 7917   1.133   5.711   5.503 -0.6621 -0.1153  0.0961
 2651TIP3    H2 7918   1.123   5.642   5.638 -1.3567 -0.0186  0.0978
 2652TIP3   OH2 7919   0.170   2.824   4.239 -0.0814 -0.5917 -0.5920
 2652TIP3    H1 7920   0.179   2.846   4.332  0.4247  1.8371 -1.1377
 2652TIP3    H2 7921   0.256   2.790   4.215  0.6423  1.1624 -0.6787
 2653TIP3   OH2 7922   0.217   4.054   4.596  0.0900 -0.2093  0.1048
 2653TIP3    H1 7923   0.161   4.028   4.522  2.1586 -1.1915 -1.1954
 2653TIP3    H2 7924   0.258   4.135   4.567 -1.7918  1.4227  1.7309
 2654TIP3   OH2 7925   2.127   0.749   0.263 -0.1930 -0.2203  0.6892
 2654TIP3    H1 7926   2.112   0.656   0.281 -1.8371 -0.0999  0.1061
 2654TIP3    H2 7927   2.206   0.751   0.208  0.3180 -1.1868  1.3605
 2655TIP3   OH2 7928   5.213   4.024   2.412  0.5230 -0.5158 -0.1815
 2655TIP3    H1 7929   5.302   4.007   2.441  0.8852  0.3675 -0.7269
 2655TIP3    H2 7930   5.166   4.048   2.492  0.7607 -1.0266  0.1142
 2656TIP3   OH2 7931   2.618   6.306   5.276 -0.3529 -0.1021  0.0417
 2656TIP3    H1 7932   2.545   6.342   5.225  0.7856  0.2515 -1.4229
 2656TIP3    H2 7933   2.655   6.382   5.320 -0.2419 -0.1108 -0.0375
 2657TIP3   OH2 7934   2.897   1.210   4.558 -0.6522 -0.6738  0.0470
 2657TIP3    H1 7935   2.922   1.229   4.467 -1.4131 -2.5310 -0.6091
 2657TIP3    H2 7936   2.867   1.119   4.556 -1.4810 -0.5003  2.0075
 2658TIP3   OH2 7937   3.742   6.382   0.067  0.1717  0.4245  0.6571
 2658TIP3    H1 7938   3.809   6.445   0.092  0.6434  0.5612 -0.8551
 2658TIP3    H2 7939   3.669   6.435   0.035  0.7985  0.2449 -1.1808
 2659TIP3   OH2 7940   4.365   6.527   5.245  0.1865 -0.2791 -0.0770
 2659TIP3    H1 7941   4.363   6.434   5.224  0.3238 -0.1029 -0.9416
 2659TIP3    H2 7942   4.289   6.541   5.301 -0.8996 -0.5913 -1.4228
 2660TIP3   OH2 7943   5.211   6.265   2.923  0.3349 -0.1430 -0.0642
 2660TIP3    H1 7944   5.131   6.225   2.886  0.5556  1.0391 -1.9578
 2660TIP3    H2 7945   5.273   6.192   2.928 -0.1714 -0.6391 -0.7035
 2661TIP3   OH2 7946   6.019   5.206   3.551  0.0889 -0.2776 -0.2272
 2661TIP3    H1 7947   5.954   5.206   3.622  2.4400 -0.9721  2.1267
 2661TIP3    H2 7948   6.022   5.116   3.521 -0.1942 -0.1893 -0.5302
 2662TIP3   OH2 7949   0.733   5.137   1.530 -0.2899  0.4350 -0.2260
 2662TIP3    H1 7950   0.708   5.196   1.459 -0.8654  0.8845  0.3327
 2662TIP3    H2 7951   0.807   5.180   1.572 -0.7956  0.8438  0.2662
 2663TIP3   OH2 7952   0.783   1.548   1.997 -0.0200  0.1286 -0.4745
 2663TIP3    H1 7953   0.825   1.624   1.957  0.4781  0.2904  0.3440
 2663TIP3    H2 7954   0.726   1.514   1.928  0.4881  0.6614 -1.1779
 2664TIP3   OH2 7955   2.821   6.641   5.198 -0.4886  0.6442  1.0269
 2664TIP3    H1 7956   2.864   6.630   5.283 -0.7908 -0.5600  1.0435
 2664TIP3    H2 7957   2.748   6.579   5.200  0.2840 -0.3743 -0.6222
 2665TIP3   OH2 7958   2.622   5.486   2.384 -0.1591 -0.3038 -0.0859
 2665TIP3    H1 7959   2.632   5.529   2.299  2.5197  1.9015  1.1812
 2665TIP3    H2 7960   2.585   5.554   2.441  1.6003 -0.4515  1.3391
 2666TIP3   OH2 7961   2.040   2.500   0.037 -0.6340  0.2866  0.8131
 2666TIP3    H1 7962   2.054   2.491   0.131 -1.3319  0.0572  0.8953
 2666TIP3    H2 7963   2.004   2.416   0.010  2.3298 -0.8019 -0.2049
 2667TIP3   OH2 7964   4.587   3.699   4.612 -0.5481 -0.0743  0.3038
 2667TIP3    H1 7965   4.517   3.637   4.593 -0.4355 -0.5267  1.2958
 2667TIP3    H2 7966   4.552   3.784   4.587 -0.6057 -0.5549 -1.3175
 2668TIP3   OH2 7967   1.127   4.373   5.182 -0.8592 -0.1486  0.5062
 2668TIP3    H1 7968   1.196   4.406   5.125 -1.1393 -1.1473 -0.4437
 2668TIP3    H2 7969   1.170   4.305   5.234 -1.3628 -1.6296 -0.9404
 2669TIP3   OH2 7970   6.911   2.446   1.036 -0.1061  0.3588 -0.5546
 2669TIP3    H1 7971   6.940   2.363   1.076 -0.4734  0.3082 -0.3917
 2669TIP3    H2 7972   6.985   2.505   1.048  1.2866 -0.7103 -3.0905
 2670TIP3   OH2 7973   2.473   3.991   0.864 -0.3373 -0.0800 -0.0911
 2670TIP3    H1 7974   2.565   4.016   0.867 -0.2691 -0.3436  1.8489
 2670TIP3    H2 7975   2.434   4.035   0.940 -1.2028 -2.0872  0.7103
 2671TIP3   OH2 7976   2.781   5.103   3.997  0.1154  0.1099 -0.1893
 2671TIP3    H1 7977   2.829   5.154   4.062 -0.5928  0.7356 -0.1509
 2671TIP3    H2 7978   2.729   5.041   4.048 -0.8289  0.9395 -0.1195
 2672TIP3   OH2 7979   0.146   6.190   4.355  0.1348 -0.3349  0.1570
 2672TIP3    H1 7980   0.085   6.213   4.424  0.9172 -1.1820  1.1551
 2672TIP3    H2 7981   0.230   6.228   4.382  1.4640 -3.9051  1.8219
 2673TIP3   OH2 7982   6.920   5.230   3.225 -0.1448 -0.0485 -0.2869
 2673TIP3    H1 7983   6.966   5.153   3.191  0.4005 -0.3194  0.9914
 2673TIP3    H2 7984   6.876   5.199   3.304 -1.7086  0.4634 -0.9165
 2674TIP3   OH2 7985   1.094   4.962   4.117 -0.8509 -0.2276  0.9291
 2674TIP3    H1 7986   1.189   4.967   4.105 -0.8105 -1.0282  0.8038
 2674TIP3    H2 7987   1.073   4.871   4.097 -1.8152  0.2316 -0.2226
 2675TIP3   OH2 7988   2.439   5.636   2.543  0.5321 -0.1631 -0.2411
 2675TIP3    H1 7989   2.374   5.569   2.522 -0.3688  0.1734  1.3429
 2675TIP3    H2 7990   2.431   5.648   2.638  1.3173  1.5382 -0.3648
 2676TIP3   OH2 7991   1.115   6.714   0.169  0.5449 -0.4515 -0.0535
 2676TIP3    H1 7992   1.065   6.753   0.241  0.2604 -0.3510 -0.3019
 2676TIP3    H2 7993   1.185   6.665   0.212 -0.0475 -0.9785  0.3180
 2677TIP3   OH2 7994   5.373   0.393   4.506 -0.1306  0.5556  0.8709
 2677TIP3    H1 7995   5.429   0.366   4.433 -1.0900  1.2123 -0.1690
 2677TIP3    H2 7996   5.424   0.459   4.552 -0.3149  1.7700 -0.5629
 2678TIP3   OH2 7997   2.043   3.810   4.300 -0.0024  0.7069  0.6181
 2678TIP3    H1 7998   2.080   3.890   4.262  1.9869  0.6130  2.2249
 2678TIP3    H2 7999   1.997   3.840   4.379  0.5647  0.3036  1.1058
 2679TIP3   OH2 8000   2.382   5.688   1.267  0.7683  0.0514 -0.2277
 2679TIP3    H1 8001   2.286   5.678   1.266  0.5842  1.6995 -1.1547
 2679TIP3    H2 8002   2.414   5.600   1.287 -0.8943 -0.8795 -1.3655
 2680TIP3   OH2 8003   0.467   5.440   3.194 -0.3880  0.3168  0.0612
 2680TIP3    H1 8004   0.414   5.471   3.121 -0.7142  1.0713  0.6100
 2680TIP3    H2 8005   0.453   5.504   3.263  0.7237  0.1758  0.4432
 2681TIP3   OH2 8006   0.559   4.572   0.090 -0.2118  0.1918 -0.2498
 2681TIP3    H1 8007   0.555   4.479   0.068  1.4572 -0.4338  1.7498
 2681TIP3    H2 8008   0.564   4.574   0.186  0.1182  2.3389 -0.2524
 2682TIP3   OH2 8009   2.772   5.445   1.435 -0.1217 -0.0498  0.1703
 2682TIP3    H1 8010   2.746   5.522   1.386 -0.2294 -0.3822 -0.3053
 2682TIP3    H2 8011   2.689   5.408   1.467 -0.2179 -0.7786 -0.8468
 2683TIP3   OH2 8012   2.587   5.446   3.153 -0.0496  0.1255 -0.5282
 2683TIP3    H1 8013   2.566   5.362   3.112  0.1262 -0.1614 -0.0428
 2683TIP3    H2 8014   2.503   5.479   3.185  0.0214 -0.3818  0.2251
 2684TIP3   OH2 8015   4.657   3.141   2.135  0.3611  0.3822  0.3425
 2684TIP3    H1 8016   4.700   3.111   2.216  2.0831  0.6415 -0.4339
 2684TIP3    H2 8017   4.701   3.223   2.113 -0.2725  0.4591 -0.7160
 2685TIP3   OH2 8018   6.389   3.006   0.982  0.2221 -0.4089 -0.0138
 2685TIP3    H1 8019   6.387   2.962   1.067  0.9509 -1.4056 -0.4872
 2685TIP3    H2 8020   6.482   3.005   0.957  0.1812  0.9649 -0.2791
 2686TIP3   OH2 8021   4.006   3.659   3.213  0.1434 -0.3546 -0.7898
 2686TIP3    H1 8022   3.947   3.584   3.223 -0.8138  0.3256 -1.2033
 2686TIP3    H2 8023   4.009   3.699   3.299  0.1173 -0.4739 -0.7336
 2687TIP3   OH2 8024   3.443   0.648   4.271 -0.1965  0.1457 -0.0023
 2687TIP3    H1 8025   3.487   0.606   4.197 -2.6132 -0.2162 -1.3486
 2687TIP3    H2 8026   3.479   0.605   4.349  0.3709 -1.5053 -1.1340
 2688TIP3   OH2 8027   1.952   2.993   3.106  0.2841 -0.4467 -0.3504
 2688TIP3    H1 8028   2.032   3.032   3.071  1.4282 -1.3730  1.1618
 2688TIP3    H2 8029   1.894   2.988   3.030  2.2707 -1.3528 -1.9122
 2689TIP3   OH2 8030   7.181   6.183   1.147 -0.1115  0.2249  0.8018
 2689TIP3    H1 8031   7.168   6.093   1.119 -0.1805 -0.1103  1.8560
 2689TIP3    H2 8032   7.269   6.205   1.117 -0.6272  0.3315 -0.7548
 2690TIP3   OH2 8033   3.822   6.032   1.366 -0.3136 -0.1545 -0.2843
 2690TIP3    H1 8034   3.893   6.047   1.304 -0.7653  1.0535 -0.5376
 2690TIP3    H2 8035   3.753   5.991   1.313 -0.0666 -0.6933 -0.1920
 2691TIP3   OH2 8036   3.822   1.328   5.223 -0.6431 -0.2738 -0.0847
 2691TIP3    H1 8037   3.774   1.246   5.233 -0.4296 -0.3354  0.4701
 2691TIP3    H2 8038   3.767   1.381   5.165 -0.8190 -0.7743 -0.3810
 2692TIP3   OH2 8039   7.116   2.930   4.794  0.1618 -0.7822  0.6122
 2692TIP3    H1 8040   7.091   2.942   4.703  1.6918 -0.2258  0.2429
 2692TIP3    H2 8041   7.035   2.946   4.843 -0.7773 -1.5073 -0.6463
 2693TIP3   OH2 8042   0.191   3.966   0.015  0.1863  0.1572 -0.9768
 2693TIP3    H1 8043   0.183   4.058  -0.009  0.2832  0.3452 -0.3103
 2693TIP3    H2 8044   0.127   3.954   0.085  0.0554 -0.3264 -1.1772
 2694TIP3   OH2 8045   3.801   5.512   2.964 -0.2314  0.0048 -0.2761
 2694TIP3    H1 8046   3.713   5.550   2.972 -0.1990 -0.1158  0.9102
 2694TIP3    H2 8047   3.787   5.418   2.977  0.0891  0.0071  0.1035
 2695TIP3   OH2 8048   6.713   1.430   1.767  0.0039  0.3073 -0.0857
 2695TIP3    H1 8049   6.672   1.399   1.847  1.3557 -0.0702  0.4912
 2695TIP3    H2 8050   6.698   1.359   1.703  1.0584 -0.5239  0.5590
 2696TIP3   OH2 8051   5.495   0.600   4.661  0.0704 -0.1577 -0.0460
 2696TIP3    H1 8052   5.407   0.638   4.660 -0.4100 -1.2426 -0.5218
 2696TIP3    H2 8053   5.546   0.660   4.714 -0.8829  0.6650 -0.0271
 2697TIP3   OH2 8054   0.677   2.210   3.107  0.0190 -0.3089  0.5935
 2697TIP3    H1 8055   0.645   2.300   3.102  0.8048  0.0596  1.8237
 2697TIP3    H2 8056   0.773   2.219   3.105  0.0946 -1.1498  0.2674
 2698TIP3   OH2 8057   0.115   0.583   5.267 -0.1842 -0.3529  0.4659
 2698TIP3    H1 8058   0.118   0.521   5.340 -0.6005  0.4939  1.2262
 2698TIP3    H2 8059   0.022   0.590   5.245  0.0293 -1.4190 -0.8891
 2699TIP3   OH2 8060   5.758   3.195   4.972  0.0548  0.2100 -0.3409
 2699TIP3    H1 8061   5.743   3.227   5.061  0.7033  1.5143 -0.6777
 2699TIP3    H2 8062   5.686   3.233   4.921  0.5538  0.7555 -0.6518
 2700TIP3   OH2 8063   1.845   4.191   3.191 -0.1308  0.4115 -0.6860
 2700TIP3    H1 8064   1.880   4.111   3.151 -2.2296 -0.0067 -1.8414
 2700TIP3    H2 8065   1.890   4.262   3.145  2.1926 -0.0422  0.7635
 2701TIP3   OH2 8066   3.481   1.449   1.954 -0.3138  0.0817  0.1061
 2701TIP3    H1 8067   3.523   1.370   1.988 -1.0501 -0.4464 -0.1828
 2701TIP3    H2 8068   3.397   1.418   1.919 -0.6001  0.9910 -0.0273
 2702TIP3   OH2 8069   1.377   6.340   3.246  0.4613 -0.6183  0.4592
 2702TIP3    H1 8070   1.366   6.289   3.166 -1.6605  1.1745 -0.4744
 2702TIP3    H2 8071   1.463   6.313   3.279  0.6933 -2.6043 -1.5065
 2703TIP3   OH2 8072   5.321   0.503   0.220 -0.1512 -0.2506 -0.1175
 2703TIP3    H1 8073   5.227   0.520   0.210  0.1146  1.1611 -0.3475
 2703TIP3    H2 8074   5.329   0.465   0.308 -0.9661 -0.6402 -0.2007
 2704TIP3   OH2 8075   4.653   5.287   4.949 -0.1387 -0.2339  0.1548
 2704TIP3    H1 8076   4.740   5.267   4.984  0.8079  0.3538 -1.7506
 2704TIP3    H2 8077   4.615   5.349   5.012  2.0242  1.8116 -0.4185
 2705TIP3   OH2 8078   6.591   0.190   4.554  0.6768  0.2236 -0.8443
 2705TIP3    H1 8079   6.662   0.195   4.618 -0.2736  0.3467  0.2323
 2705TIP3    H2 8080   6.574   0.096   4.544 -0.1823  0.2304  0.2802
 2706TIP3   OH2 8081   7.215   3.493   5.013  0.2276 -0.2767 -0.2620
 2706TIP3    H1 8082   7.238   3.584   4.995 -0.1188 -0.6265 -2.7850
 2706TIP3    H2 8083   7.122   3.497   5.038 -0.3484 -0.0879 -2.2987
 2707TIP3   OH2 8084   2.505   6.038   1.110 -0.2603 -0.1285 -0.1512
 2707TIP3    H1 8085   2.596   6.064   1.127  0.0309 -1.4082  0.4228
 2707TIP3    H2 8086   2.494   6.050   1.016  0.1131  1.1699 -0.0468
 2708TIP3   OH2 8087   2.948   3.212   0.224  0.4010  0.5236  0.1953
 2708TIP3    H1 8088   2.931   3.195   0.131  1.0468 -0.6089  0.2626
 2708TIP3    H2 8089   2.949   3.125   0.264  0.5551  0.9724  1.1823
 2709TIP3   OH2 8090   5.433   3.919   3.145 -0.2335  0.3160 -0.1690
 2709TIP3    H1 8091   5.516   3.954   3.112  0.2591 -0.4231  0.2407
 2709TIP3    H2 8092   5.366   3.958   3.089  0.3922  0.9112 -0.5181
 2710TIP3   OH2 8093   6.075   0.864   2.735 -0.0700  0.1074 -0.9809
 2710TIP3    H1 8094   6.045   0.777   2.762 -2.1080  0.8522 -0.6255
 2710TIP3    H2 8095   6.024   0.883   2.656  0.2339  1.0217 -0.9690
 2711TIP3   OH2 8096   1.895   4.048   2.738  0.2840 -0.4296  0.2615
 2711TIP3    H1 8097   1.867   4.025   2.827  0.7023  1.5416  0.9655
 2711TIP3    H2 8098   1.939   4.132   2.749 -0.2777  0.1939 -1.9386
 2712TIP3   OH2 8099   1.154   1.607   3.524  0.1479 -0.0232  0.2190
 2712TIP3    H1 8100   1.123   1.639   3.609 -0.8247  0.6366 -0.3629
 2712TIP3    H2 8101   1.138   1.513   3.527  0.5688 -0.0797  0.9442
 2713TIP3   OH2 8102   0.709   0.341   3.622 -0.2227 -0.1773  0.0876
 2713TIP3    H1 8103   0.697   0.306   3.710  0.4002 -0.7446 -0.0435
 2713TIP3    H2 8104   0.804   0.349   3.612 -0.3165  0.5949 -0.2617
 2714TIP3   OH2 8105   2.936   2.792   5.293 -0.6190 -0.0933  0.0262
 2714TIP3    H1 8106   2.849   2.773   5.259 -0.3422 -0.6402 -0.4022
 2714TIP3    H2 8107   2.922   2.858   5.361 -1.2340  0.6723 -0.8213
 2715TIP3   OH2 8108   7.004   3.306   3.238  0.4015  0.3464  0.0388
 2715TIP3    H1 8109   6.982   3.289   3.146  1.3629  1.3639 -0.4074
 2715TIP3    H2 8110   7.099   3.294   3.243  0.6167  1.9261  0.4831
 2716TIP3   OH2 8111   5.592   2.631   2.460  0.3415 -0.1585 -0.2989
 2716TIP3    H1 8112   5.671   2.577   2.459  0.7416  0.3927 -2.2607
 2716TIP3    H2 8113   5.545   2.608   2.380 -1.5848 -0.5467  0.8746
 2717TIP3   OH2 8114   5.865   5.677   1.981  0.3059  0.4766 -0.3836
 2717TIP3    H1 8115   5.861   5.766   1.947 -1.1307  1.4447  2.0360
 2717TIP3    H2 8116   5.912   5.686   2.064  1.4242 -1.3168 -0.7666
 2718TIP3   OH2 8117   6.836   4.981   1.739  0.0693 -0.1977  0.0854
 2718TIP3    H1 8118   6.921   4.960   1.700  1.8881  0.1063  3.4991
 2718TIP3    H2 8119   6.790   4.897   1.743  2.0782 -1.3271  2.0727
 2719TIP3   OH2 8120   1.024   5.187   1.616  0.2856 -0.0983 -0.1904
 2719TIP3    H1 8121   1.118   5.198   1.601  0.2326  2.0636  0.6991
 2719TIP3    H2 8122   1.019   5.136   1.697  0.6936 -0.3606 -0.3286
 2720TIP3   OH2 8123   2.023   4.917   4.182  0.2982 -0.1251 -0.1186
 2720TIP3    H1 8124   2.047   4.860   4.255  0.0430  0.2277  0.2479
 2720TIP3    H2 8125   2.071   4.882   4.107  0.5172 -0.5277  0.2055
 2721TIP3   OH2 8126   2.912   1.139   3.465  0.7862  0.6562 -0.2133
 2721TIP3    H1 8127   2.964   1.078   3.412  1.2082  0.8254  0.0058
 2721TIP3    H2 8128   2.821   1.116   3.444  0.9431  0.6862 -0.9772
 2722TIP3   OH2 8129   0.499   6.061   5.469 -0.7532  0.5138  0.2035
 2722TIP3    H1 8130   0.587   6.032   5.495 -1.3292 -2.0751 -0.4546
 2722TIP3    H2 8131   0.506   6.157   5.463  1.2990  0.6328  2.6793
 2723TIP3   OH2 8132   1.673   1.509   2.577  0.2186 -0.2524  0.5920
 2723TIP3    H1 8133   1.590   1.463   2.576  1.8227 -3.4354  0.5866
 2723TIP3    H2 8134   1.716   1.479   2.657  2.3346 -0.7117 -0.6380
 2724TIP3   OH2 8135   3.306   1.330   2.665 -0.0998  0.5250 -0.0400
 2724TIP3    H1 8136   3.259   1.413   2.668 -2.7066 -0.8435  1.3334
 2724TIP3    H2 8137   3.247   1.268   2.710  1.5333 -2.1429 -1.3235
 2725TIP3   OH2 8138   6.812   1.068   3.649 -0.0066  0.7061 -0.1692
 2725TIP3    H1 8139   6.828   1.046   3.557  1.6016 -2.2357  0.6819
 2725TIP3    H2 8140   6.726   1.030   3.668  0.1582  0.3234 -0.1817
 2726TIP3   OH2 8141   3.868   4.594   0.220  1.1603 -0.4995  0.1034
 2726TIP3    H1 8142   3.787   4.601   0.271  0.4646 -0.3844 -0.9874
 2726TIP3    H2 8143   3.842   4.617   0.131  2.7765  1.3571  0.0494
 2727TIP3   OH2 8144   4.908   5.455   0.200 -0.4204 -0.2026  0.2023
 2727TIP3    H1 8145   4.901   5.471   0.105  0.3018  2.6866  0.5386
 2727TIP3    H2 8146   4.909   5.360   0.208  1.2658 -0.5816 -2.8560
 2728TIP3   OH2 8147   4.057   1.556   0.422  0.0363  0.6085  0.2691
 2728TIP3    H1 8148   4.134   1.610   0.404  0.1450  0.8150  1.2993
 2728TIP3    H2 8149   4.005   1.608   0.483  0.5422 -0.7576  1.9504
 2729TIP3   OH2 8150   5.855   5.744   3.388  0.8119 -0.0941  0.4612
 2729TIP3    H1 8151   5.858   5.685   3.464  0.3491 -1.3940 -0.5081
 2729TIP3    H2 8152   5.809   5.822   3.421 -2.4289 -1.9392  0.7039
 2730TIP3   OH2 8153   1.253   4.534   4.716 -0.0506  0.2145 -0.2283
 2730TIP3    H1 8154   1.188   4.533   4.646 -0.3872  0.9993  0.0546
 2730TIP3    H2 8155   1.292   4.622   4.712  0.7070 -0.1094 -0.1310
 2731TIP3   OH2 8156   6.097   0.989   4.701  0.3362 -0.7214 -0.4476
 2731TIP3    H1 8157   6.182   0.961   4.668  0.9236 -1.5361  1.6561
 2731TIP3    H2 8158   6.110   1.079   4.730  1.7633 -2.0303  3.6853
 2732TIP3   OH2 8159   5.363   4.731   2.854 -0.0499  0.0492  0.6856
 2732TIP3    H1 8160   5.417   4.792   2.803 -0.0465  0.1967  0.8625
 2732TIP3    H2 8161   5.273   4.760   2.840  0.0202  0.8919  1.7694
 2733TIP3   OH2 8162   3.931   5.379   1.519 -0.2870 -0.4797 -0.1685
 2733TIP3    H1 8163   3.976   5.403   1.438  0.3479 -2.1384 -0.3376
 2733TIP3    H2 8164   3.901   5.463   1.555  0.5960  0.4149 -1.4216
 2734TIP3   OH2 8165   5.268   5.501   0.664 -0.3170  0.1473  0.3824
 2734TIP3    H1 8166   5.332   5.572   0.654  0.8790 -1.0420 -1.0572
 2734TIP3    H2 8167   5.282   5.446   0.586 -1.0745 -1.7547  1.5260
 2735TIP3   OH2 8168   4.507   3.934   4.811  0.1727  0.1610  0.3229
 2735TIP3    H1 8169   4.563   3.862   4.782 -1.1650 -0.5931 -0.4897
 2735TIP3    H2 8170   4.508   3.996   4.738  1.2713  0.9724  0.9951
 2736TIP3   OH2 8171   6.961   0.231   0.059  0.3259 -0.6581 -0.6909
 2736TIP3    H1 8172   6.938   0.191  -0.025  0.7999  0.9509 -1.6231
 2736TIP3    H2 8173   7.013   0.308   0.036 -1.1037  0.9042  0.9956
 2737TIP3   OH2 8174   5.567   2.780   1.162 -0.6668  0.1465 -0.3554
 2737TIP3    H1 8175   5.601   2.831   1.236  1.1838  0.2792 -1.2528
 2737TIP3    H2 8176   5.559   2.844   1.091  0.2134 -0.4854 -1.0429
 2738TIP3   OH2 8177   1.761   3.421   2.497  0.7288 -0.0444 -1.1358
 2738TIP3    H1 8178   1.806   3.379   2.570 -1.4155  1.3509  1.1799
 2738TIP3    H2 8179   1.676   3.377   2.493 -0.2413  1.6899 -0.8742
 2739TIP3   OH2 8180   3.750   2.052   3.779 -0.0210  0.1197 -0.2560
 2739TIP3    H1 8181   3.752   2.087   3.690  0.6140 -1.6499 -0.9712
 2739TIP3    H2 8182   3.830   2.086   3.820 -0.8182  1.7921  0.0460
 2740TIP3   OH2 8183   0.412   1.063   3.641  0.0060 -0.1036 -0.3982
 2740TIP3    H1 8184   0.376   1.139   3.688  0.1430 -0.2043 -0.1254
 2740TIP3    H2 8185   0.504   1.085   3.627  0.6755 -1.1878  1.7818
 2741TIP3   OH2 8186   7.022   6.657   1.941  0.7250 -1.1033  0.7096
 2741TIP3    H1 8187   7.117   6.657   1.932  0.6001  0.6093 -1.2785
 2741TIP3    H2 8188   6.994   6.738   1.898 -1.7405 -2.2917 -0.0961
 2742TIP3   OH2 8189   1.639   2.182   4.347  0.2050 -0.1382 -0.0818
 2742TIP3    H1 8190   1.545   2.197   4.332  0.1207 -1.6237 -1.2911
 2742TIP3    H2 8191   1.653   2.090   4.322  1.1560 -1.3696  4.2026
 2743TIP3   OH2 8192   5.812   0.888   0.729 -0.7013  0.4630  0.1904
 2743TIP3    H1 8193   5.757   0.904   0.652 -0.1574  1.0839 -0.0839
 2743TIP3    H2 8194   5.901   0.904   0.698  0.0747 -3.6086 -0.2851
 2744TIP3   OH2 8195   2.984   6.025   5.117 -0.0665 -0.2734  0.2511
 2744TIP3    H1 8196   3.053   6.008   5.182 -0.2085  0.7813  0.6899
 2744TIP3    H2 8197   3.030   6.029   5.034  0.3516  0.0044  0.4905
 2745TIP3   OH2 8198   5.754   4.121   5.366 -0.2508 -0.0778 -0.3088
 2745TIP3    H1 8199   5.725   4.035   5.396 -1.4094  0.0322 -1.0602
 2745TIP3    H2 8200   5.801   4.158   5.441  1.3016 -1.8123 -0.3689
 2746TIP3   OH2 8201   1.945   0.900   0.149  0.8352  0.7542 -0.6573
 2746TIP3    H1 8202   1.951   0.876   0.056 -1.2512 -2.5050 -0.1289
 2746TIP3    H2 8203   2.016   0.851   0.191  0.3426  0.3427 -0.2882
 2747TIP3   OH2 8204   4.139   0.263   3.185 -0.2375 -0.2599 -0.0595
 2747TIP3    H1 8205   4.151   0.271   3.091 -0.6799 -0.3523 -0.1284
 2747TIP3    H2 8206   4.201   0.195   3.212 -0.0196 -0.1412 -0.2612
 2748TIP3   OH2 8207   5.109   1.416   0.234  0.1680  0.4249  0.2982
 2748TIP3    H1 8208   5.150   1.364   0.165  2.1603  0.2727  1.5129
 2748TIP3    H2 8209   5.101   1.356   0.308 -0.4334  0.9994  0.7125
 2749TIP3   OH2 8210   1.713   5.014   3.395  0.3127  0.4380  0.3890
 2749TIP3    H1 8211   1.654   5.043   3.326  1.6269  1.4312 -0.3758
 2749TIP3    H2 8212   1.661   5.016   3.475 -1.2065 -0.5855 -0.5239
 2750TIP3   OH2 8213   6.287   0.259   2.543  0.2660 -0.4494  0.1821
 2750TIP3    H1 8214   6.226   0.189   2.564  0.4816 -0.7048 -0.0340
 2750TIP3    H2 8215   6.268   0.282   2.452 -0.6301  0.6212  0.6206
 2751TIP3   OH2 8216   2.806   5.519   4.091 -0.4216  0.5234 -0.1974
 2751TIP3    H1 8217   2.739   5.451   4.087 -0.6799  0.6889  0.9820
 2751TIP3    H2 8218   2.870   5.485   4.154  0.6837  0.3166 -1.3797
 2752TIP3   OH2 8219   2.110   1.323   3.988  0.6318 -0.0877  0.1479
 2752TIP3    H1 8220   2.185   1.272   4.018 -0.4384 -0.1270  3.0402
 2752TIP3    H2 8221   2.095   1.293   3.898  1.8086 -2.7782  0.7625
 2753TIP3   OH2 8222   3.472   2.768   4.400 -0.5280 -0.0231 -0.6758
 2753TIP3    H1 8223   3.555   2.770   4.447 -0.6458  1.2146 -0.4900
 2753TIP3    H2 8224   3.491   2.811   4.316 -0.8747 -0.1335 -0.8119
 2754TIP3   OH2 8225   6.252   6.136   0.610  0.2935 -0.0322  0.0078
 2754TIP3    H1 8226   6.298   6.110   0.690  0.3035 -1.4363 -0.4304
 2754TIP3    H2 8227   6.160   6.116   0.628  0.2010  0.2808 -0.1010
 2755TIP3   OH2 8228   1.876   2.350   1.444 -0.1583  0.1445 -0.8667
 2755TIP3    H1 8229   1.918   2.429   1.476 -0.3775  0.5710 -1.6181
 2755TIP3    H2 8230   1.921   2.279   1.490  0.1558  0.6905 -0.3181
 2756TIP3   OH2 8231   5.515   6.572   0.543 -0.1900  0.1487 -0.0742
 2756TIP3    H1 8232   5.603   6.560   0.577 -0.9691 -0.5227  1.8296
 2756TIP3    H2 8233   5.512   6.664   0.516  1.0822  0.1600 -0.2220
 2757TIP3   OH2 8234   0.483   6.493   1.747  0.1631 -0.0231 -0.0146
 2757TIP3    H1 8235   0.433   6.418   1.716  0.0801  0.1398 -0.2737
 2757TIP3    H2 8236   0.508   6.470   1.837 -2.3596  0.8620  0.9891
 2758TIP3   OH2 8237   2.563   2.042   4.404 -1.0130 -0.4330  0.0058
 2758TIP3    H1 8238   2.531   1.967   4.354 -1.1555 -0.3648 -0.0066
 2758TIP3    H2 8239   2.558   2.014   4.495  0.4083 -1.0129 -0.0639
 2759TIP3   OH2 8240   2.034   3.860   4.922 -0.5549  0.0579  0.2415
 2759TIP3    H1 8241   1.966   3.799   4.894  0.2003 -0.5705 -0.2744
 2759TIP3    H2 8242   2.019   3.939   4.871 -1.5559  0.3350  0.9284
 2760TIP3   OH2 8243   6.047   3.647   1.360 -0.4387  0.3122 -0.0131
 2760TIP3    H1 8244   5.961   3.676   1.331  0.0483  0.7166 -1.0956
 2760TIP3    H2 8245   6.041   3.648   1.456 -1.5547  0.5607 -0.0717
 2761TIP3   OH2 8246   3.859   5.592   3.244 -0.0520  0.4003 -0.5094
 2761TIP3    H1 8247   3.819   5.589   3.157 -1.0940 -0.2221 -0.0265
 2761TIP3    H2 8248   3.874   5.686   3.260 -2.0477  0.7341 -0.3978
 2762TIP3   OH2 8249   0.755   2.300   2.464  0.0537 -0.6760  0.0773
 2762TIP3    H1 8250   0.845   2.272   2.481  1.3418  2.9027 -0.0828
 2762TIP3    H2 8251   0.729   2.349   2.542 -0.1438  1.7732 -1.4001
 2763TIP3   OH2 8252   3.819   5.185   0.610  0.2165 -0.5269  0.2718
 2763TIP3    H1 8253   3.904   5.201   0.652 -0.0300 -1.5195  1.1896
 2763TIP3    H2 8254   3.804   5.091   0.622  0.2590 -0.9339 -2.3132
 2764TIP3   OH2 8255   4.918   1.875   2.010 -0.1994 -0.4572 -0.1667
 2764TIP3    H1 8256   4.934   1.969   2.012  0.5928 -0.5947  0.6689
 2764TIP3    H2 8257   4.842   1.865   1.952 -0.3524  0.6931 -0.1954
 2765TIP3   OH2 8258   1.268   1.352   1.712  0.4544  0.2114  0.0959
 2765TIP3    H1 8259   1.289   1.432   1.760  1.4435 -1.9134  3.5972
 2765TIP3    H2 8260   1.210   1.303   1.770 -1.9144 -0.7959 -2.8463
 2766TIP3   OH2 8261   4.312   2.396   3.910 -0.0201 -0.3552  0.1499
 2766TIP3    H1 8262   4.344   2.328   3.851  1.2201  0.5412 -0.2591
 2766TIP3    H2 8263   4.332   2.478   3.865 -2.5445  0.3149  0.0713
 2767TIP3   OH2 8264   6.596   4.994   5.378 -0.7401 -0.3950 -0.4788
 2767TIP3    H1 8265   6.508   4.991   5.415 -1.2367  0.2236 -1.5743
 2767TIP3    H2 8266   6.616   5.087   5.372 -0.1324 -0.5248 -0.5065
 2768TIP3   OH2 8267   2.806   4.781   1.969  0.1124 -0.0484  0.7001
 2768TIP3    H1 8268   2.833   4.694   2.001  1.7532  0.8855  2.0533
 2768TIP3    H2 8269   2.714   4.787   1.992 -0.1760 -1.6217  0.0988
 2769TIP3   OH2 8270   2.259   1.433   2.152  0.5796 -0.1041  0.1157
 2769TIP3    H1 8271   2.330   1.459   2.211 -0.0251  2.2176 -0.0919
 2769TIP3    H2 8272   2.301   1.379   2.086  1.9570  0.3505  0.5859
 2770TIP3   OH2 8273   4.499   4.441   1.135  0.0202 -0.3839  0.0093
 2770TIP3    H1 8274   4.509   4.526   1.178 -1.5699 -0.0765 -0.1709
 2770TIP3    H2 8275   4.430   4.397   1.184 -0.8276 -0.5953 -1.3278
 2771TIP3   OH2 8276   3.283   5.054   0.043 -0.3002 -0.1547  0.0255
 2771TIP3    H1 8277   3.222   5.071   0.114  0.5068  1.4029  0.4052
 2771TIP3    H2 8278   3.369   5.073   0.081  0.3545 -1.5323 -0.7135
 2772TIP3   OH2 8279   1.735   1.942   0.022  0.3462 -0.2445  0.4465
 2772TIP3    H1 8280   1.788   1.896  -0.043 -0.1909 -1.0712  0.5869
 2772TIP3    H2 8281   1.658   1.887   0.035 -1.0427  1.3950 -0.4428
 2773TIP3   OH2 8282   3.643   2.718   1.359  0.3280  0.1770 -0.4973
 2773TIP3    H1 8283   3.626   2.636   1.314 -1.7176  1.5655 -2.4710
 2773TIP3    H2 8284   3.710   2.761   1.306 -0.8161  1.0616 -1.2615
 2774TIP3   OH2 8285   6.484   3.897   4.305 -0.3007 -0.7778 -0.1203
 2774TIP3    H1 8286   6.420   3.959   4.341 -0.1932 -1.4089  1.2205
 2774TIP3    H2 8287   6.541   3.876   4.379  1.4016 -0.3373 -1.2442
 2775TIP3   OH2 8288   3.306   0.614   2.017 -0.0210 -0.9948 -0.0734
 2775TIP3    H1 8289   3.328   0.683   1.955 -0.5888 -0.3807  0.3833
 2775TIP3    H2 8290   3.221   0.581   1.987 -0.3593 -0.6081  0.4314
 2776TIP3   OH2 8291   3.011   5.243   2.087 -0.5398 -0.1106 -0.3098
 2776TIP3    H1 8292   2.963   5.161   2.101 -1.5271  0.5329  0.2506
 2776TIP3    H2 8293   2.952   5.310   2.122  0.3699  0.8080 -0.5186
 2777TIP3   OH2 8294   5.572   6.728   1.511 -0.1478  0.5109  0.1717
 2777TIP3    H1 8295   5.609   6.640   1.508  0.8728  0.8611  1.4969
 2777TIP3    H2 8296   5.477   6.714   1.512 -0.1803 -0.4063 -3.1437
 2778TIP3   OH2 8297   3.844   5.225   3.463 -0.1944  0.5394 -0.0511
 2778TIP3    H1 8298   3.816   5.254   3.550  0.3210  1.2748 -0.1149
 2778TIP3    H2 8299   3.763   5.211   3.414 -0.4988  2.4740 -0.1933
 2779TIP3   OH2 8300   4.570   2.691   1.995 -0.1827 -0.6726 -0.5487
 2779TIP3    H1 8301   4.577   2.781   1.963 -1.3498 -1.2755 -2.7566
 2779TIP3    H2 8302   4.543   2.699   2.086 -0.0996  1.2074 -0.6496
 2780TIP3   OH2 8303   6.799   3.666   2.167  0.4998 -0.5603 -0.2664
 2780TIP3    H1 8304   6.875   3.608   2.171 -0.3851 -1.8039 -0.6195
 2780TIP3    H2 8305   6.725   3.610   2.190 -0.2275  0.8397  1.0084
 2781TIP3   OH2 8306   4.403   0.549   4.760 -0.4854 -0.1637  0.3343
 2781TIP3    H1 8307   4.386   0.590   4.844  3.6947  1.6314  0.5639
 2781TIP3    H2 8308   4.451   0.615   4.710  0.9948 -2.6260 -1.7556
 2782TIP3   OH2 8309   4.290   5.015   5.293  0.1250  0.2563  0.0941
 2782TIP3    H1 8310   4.339   4.971   5.363  1.1912  0.2350 -0.6340
 2782TIP3    H2 8311   4.263   4.945   5.234 -0.2448  0.3389  0.1627
 2783TIP3   OH2 8312   0.446   3.071   4.947  0.1748 -0.1033  0.4422
 2783TIP3    H1 8313   0.365   3.025   4.970  0.4201 -0.5129  0.4832
 2783TIP3    H2 8314   0.423   3.164   4.953 -0.0809 -0.2063  1.2311
 2784TIP3   OH2 8315   5.929   1.889   1.430 -0.4680 -0.2026  0.4292
 2784TIP3    H1 8316   5.839   1.896   1.462 -0.2604 -0.5017  1.0807
 2784TIP3    H2 8317   5.971   1.970   1.458 -0.6582  0.1508 -0.2869
 2785TIP3   OH2 8318   5.057   1.446   3.169  0.8437 -0.4797  0.1390
 2785TIP3    H1 8319   5.098   1.530   3.190 -1.2702  0.3981  1.0012
 2785TIP3    H2 8320   5.091   1.386   3.236  0.4074  0.3327  1.1151
 2786TIP3   OH2 8321   5.354   2.883   1.492  0.1040 -0.1545 -0.1136
 2786TIP3    H1 8322   5.404   2.867   1.571 -1.0544  1.2631  0.9730
 2786TIP3    H2 8323   5.350   2.798   1.448  2.2630 -0.5868  0.4139
 2787TIP3   OH2 8324   6.566   0.966   3.783  0.4431 -0.6580 -0.0145
 2787TIP3    H1 8325   6.534   1.013   3.861 -1.6226 -1.0529 -0.5509
 2787TIP3    H2 8326   6.536   0.876   3.795  1.5914 -1.1261 -0.4984
 2788TIP3   OH2 8327   2.294   0.701   4.530 -0.6516  0.4984 -0.2861
 2788TIP3    H1 8328   2.349   0.635   4.572 -0.2533  1.2614  0.3947
 2788TIP3    H2 8329   2.307   0.781   4.581 -0.9372  1.1833 -1.2513
 2789TIP3   OH2 8330   3.916   0.988   2.606  0.3090 -0.4012  0.0663
 2789TIP3    H1 8331   3.825   1.017   2.611  0.4422 -0.1301  1.0983
 2789TIP3    H2 8332   3.954   1.042   2.536 -0.1323  0.0278  0.1465
 2790TIP3   OH2 8333   6.646   5.239   4.035  0.5206  0.2685  0.3784
 2790TIP3    H1 8334   6.601   5.243   4.119 -0.2056 -0.0679  0.0132
 2790TIP3    H2 8335   6.733   5.205   4.055  0.1566 -0.3511  0.9190
 2791TIP3   OH2 8336   5.668   2.352   1.229  0.0535  0.0344 -0.1233
 2791TIP3    H1 8337   5.650   2.358   1.323  3.0604 -0.7538  0.6084
 2791TIP3    H2 8338   5.605   2.288   1.197 -1.2906  0.6004  1.2319
 2792TIP3   OH2 8339   4.558   4.232   4.421  0.3581 -0.8369 -0.7421
 2792TIP3    H1 8340   4.487   4.286   4.457 -0.4333 -2.0958 -0.3465
 2792TIP3    H2 8341   4.638   4.272   4.455 -0.2924 -1.0436  1.1547
 2793TIP3   OH2 8342   5.659   0.543   1.301  0.6211 -0.0581  0.5415
 2793TIP3    H1 8343   5.693   0.612   1.245  2.9778 -1.1578  0.5071
 2793TIP3    H2 8344   5.594   0.498   1.248  3.1519 -1.4068 -1.6462
 2794TIP3   OH2 8345   5.904   5.337   2.185  0.1562  0.3249 -0.0043
 2794TIP3    H1 8346   5.873   5.247   2.177  1.5291 -0.3326  1.5596
 2794TIP3    H2 8347   5.831   5.384   2.226 -0.8296  0.1186 -1.4607
 2795TIP3   OH2 8348   5.706   4.227   0.932 -0.2968 -0.2224 -0.1634
 2795TIP3    H1 8349   5.695   4.217   1.026 -2.5306  1.9294 -0.0873
 2795TIP3    H2 8350   5.799   4.245   0.920 -0.3783  2.1060  1.9769
 2796TIP3   OH2 8351   5.600   1.205   2.471  0.4242 -0.2536 -0.1806
 2796TIP3    H1 8352   5.518   1.224   2.517 -0.9466 -0.8962 -2.1733
 2796TIP3    H2 8353   5.597   1.111   2.456  0.6610 -0.0497 -1.7284
 2797TIP3   OH2 8354   4.536   4.343   3.424  0.1594 -0.1489  0.0366
 2797TIP3    H1 8355   4.613   4.318   3.374  2.4116  1.6570  2.3558
 2797TIP3    H2 8356   4.561   4.423   3.470 -1.8379 -1.2981  3.5517
 2798TIP3   OH2 8357   6.901   4.217   0.176  0.1370  0.4689 -0.2006
 2798TIP3    H1 8358   6.910   4.219   0.271 -0.5867  2.9515 -0.1176
 2798TIP3    H2 8359   6.948   4.294   0.145 -2.7337  1.8541 -1.4665
 2799TIP3   OH2 8360   6.109   3.838   3.784  0.4340 -0.9753 -0.0623
 2799TIP3    H1 8361   6.016   3.830   3.763  0.0825  0.5175  0.7755
 2799TIP3    H2 8362   6.122   3.781   3.860 -0.0706 -0.3108  0.5325
 2800TIP3   OH2 8363   4.022   0.651   5.231  0.7110  0.1408 -0.0967
 2800TIP3    H1 8364   4.117   0.641   5.237  1.1396  2.4709 -1.5944
 2800TIP3    H2 8365   4.005   0.666   5.138 -0.9464  1.1520  0.3187
 2801TIP3   OH2 8366   1.246   1.495   5.884 -0.0682 -0.0346 -0.5073
 2801TIP3    H1 8367   1.192   1.462   5.812 -0.4026  1.4623 -0.9685
 2801TIP3    H2 8368   1.336   1.483   5.853 -0.0418 -2.8660  0.4094
 2802TIP3   OH2 8369   0.849   0.542   2.861  0.0480 -0.2021  0.2204
 2802TIP3    H1 8370   0.912   0.491   2.809  1.5155  1.3530  0.3532
 2802TIP3    H2 8371   0.819   0.611   2.801 -0.1814  0.1073  0.6854
 2803TIP3   OH2 8372   0.939   5.069   4.361  0.6182 -0.3342  0.7394
 2803TIP3    H1 8373   1.016   5.094   4.412  2.8121  2.3752 -3.3424
 2803TIP3    H2 8374   0.975   5.030   4.282 -2.0313  1.6618 -1.6510
 2804TIP3   OH2 8375   4.024   3.241   0.095 -0.1592 -0.2071 -0.0154
 2804TIP3    H1 8376   3.937   3.213   0.064 -0.9396  0.1239  1.7365
 2804TIP3    H2 8377   4.068   3.159   0.118 -0.4627 -0.3176  0.1918
 2805TIP3   OH2 8378   6.425   5.412   2.657 -0.4368  0.1967 -0.2682
 2805TIP3    H1 8379   6.363   5.468   2.610 -0.3041  2.8688  2.3936
 2805TIP3    H2 8380   6.462   5.469   2.725  1.4887 -2.5631  1.2197
 2806TIP3   OH2 8381   4.910   0.646   3.217 -0.0123 -0.2082  0.0761
 2806TIP3    H1 8382   4.889   0.710   3.148 -0.4779 -0.1620  0.2594
 2806TIP3    H2 8383   5.002   0.663   3.237  0.0182  0.0417 -0.2606
 2807TIP3   OH2 8384   6.794   4.129   1.238  0.5550 -0.4261  0.3488
 2807TIP3    H1 8385   6.819   4.170   1.321  3.5553 -0.3886 -0.4552
 2807TIP3    H2 8386   6.835   4.043   1.241 -1.9167 -1.7115  0.1230
 2808TIP3   OH2 8387   1.688   1.208   1.308 -0.6771  0.6865  0.5189
 2808TIP3    H1 8388   1.776   1.173   1.326 -0.2413  2.0086  1.0803
 2808TIP3    H2 8389   1.681   1.205   1.213 -0.4941 -0.4908  0.5198
 2809TIP3   OH2 8390   1.302   2.014   4.865  0.0645  0.1589 -0.5880
 2809TIP3    H1 8391   1.250   1.939   4.895  0.0040  0.2276 -0.5240
 2809TIP3    H2 8392   1.340   1.984   4.782  2.5243 -1.1140  0.8744
 2810TIP3   OH2 8393   3.009   5.669   4.446 -0.2647 -0.5586 -0.3353
 2810TIP3    H1 8394   2.931   5.723   4.462  0.1382  0.7266 -2.4015
 2810TIP3    H2 8395   2.977   5.595   4.394 -0.4527 -1.2760  0.7540
 2811TIP3   OH2 8396   4.036   5.490   4.831 -0.1184 -0.0135 -0.4644
 2811TIP3    H1 8397   4.065   5.499   4.921 -0.6712 -0.2003 -0.2640
 2811TIP3    H2 8398   3.962   5.429   4.835  0.2168 -0.4767 -1.1149
 2812TIP3   OH2 8399   0.554   1.528   4.351  0.4055 -0.3144 -0.8793
 2812TIP3    H1 8400   0.585   1.442   4.378  0.1194  0.0129  0.6436
 2812TIP3    H2 8401   0.487   1.550   4.416  0.2330  0.8992 -1.4426
 2813TIP3   OH2 8402   2.995   6.078   1.561  0.4085 -0.8561  0.0795
 2813TIP3    H1 8403   2.941   5.999   1.564 -1.0515  0.0993  0.0274
 2813TIP3    H2 8404   2.935   6.147   1.533  2.1690 -0.1315 -2.2473
 2814TIP3   OH2 8405   4.007   6.439   4.630 -1.1323  0.4827  0.4362
 2814TIP3    H1 8406   4.078   6.462   4.690 -0.3048  2.2163 -1.1244
 2814TIP3    H2 8407   3.933   6.494   4.657 -1.6235 -0.6045  1.4269
 2815TIP3   OH2 8408   6.396   6.536   3.901  0.1212  0.2527 -0.1761
 2815TIP3    H1 8409   6.343   6.612   3.923 -0.9387  0.6868 -3.6805
 2815TIP3    H2 8410   6.435   6.557   3.816  1.1355 -2.4474 -0.4994
 2816TIP3   OH2 8411   6.170   0.327   1.153  0.2305 -0.2961  0.4912
 2816TIP3    H1 8412   6.091   0.366   1.190  1.0524  0.7718  1.1877
 2816TIP3    H2 8413   6.185   0.375   1.072 -1.0275 -1.9910 -0.8403
 2817TIP3   OH2 8414   5.474   2.207   5.746  0.0158  0.3435 -0.3172
 2817TIP3    H1 8415   5.449   2.279   5.688 -0.0405  0.9032  0.3883
 2817TIP3    H2 8416   5.514   2.250   5.822  0.4518 -0.3968 -0.1187
 2818TIP3   OH2 8417   7.115   4.773   2.839  0.1539 -0.0331 -0.1290
 2818TIP3    H1 8418   7.190   4.828   2.859  0.5716 -0.5842 -0.1506
 2818TIP3    H2 8419   7.074   4.757   2.924 -0.6630  1.2625 -0.2487
 2819TIP3   OH2 8420   3.043   1.462   5.553  0.1147 -0.0050 -0.0797
 2819TIP3    H1 8421   3.069   1.431   5.466 -0.0795 -0.0399 -0.1257
 2819TIP3    H2 8422   2.997   1.545   5.536 -2.6366 -1.4620 -0.3166
 2820TIP3   OH2 8423   0.600   3.205   5.742 -0.2607  0.2449 -0.3236
 2820TIP3    H1 8424   0.613   3.286   5.693  2.2615 -0.6774 -1.3490
 2820TIP3    H2 8425   0.517   3.171   5.711 -0.9242  1.9635 -0.5397
 2821TIP3   OH2 8426   5.911   3.492   3.890  0.5443  0.2213  0.7899
 2821TIP3    H1 8427   5.913   3.518   3.798  1.1961 -0.8723  0.4867
 2821TIP3    H2 8428   5.964   3.558   3.935  3.2765 -1.2155 -0.1498
 2822TIP3   OH2 8429   6.048   2.680   2.159 -0.0200 -0.1543 -0.6562
 2822TIP3    H1 8430   6.070   2.773   2.158 -1.0383  0.1435  0.7150
 2822TIP3    H2 8431   5.959   2.677   2.124  0.4243 -0.7717 -1.7749
 2823TIP3   OH2 8432   4.875   0.261   3.916  0.1709  0.2468 -0.3493
 2823TIP3    H1 8433   4.794   0.227   3.954 -0.4542  2.3427  0.3143
 2823TIP3    H2 8434   4.920   0.183   3.884 -1.1832 -1.1798  1.0146
 2824TIP3   OH2 8435   5.720   5.513   2.581  0.0154 -0.2535  0.0417
 2824TIP3    H1 8436   5.810   5.483   2.572  0.2984  0.7587 -0.7128
 2824TIP3    H2 8437   5.675   5.478   2.504  0.2271  0.7721 -0.5723
 2825TIP3   OH2 8438   1.203   3.493   0.801  0.7431  0.1070 -0.3154
 2825TIP3    H1 8439   1.130   3.543   0.837 -0.2194 -1.3866 -0.0817
 2825TIP3    H2 8440   1.162   3.421   0.753  2.0565 -0.1479 -1.1242
 2826TIP3   OH2 8441   1.401   5.696   1.799  0.3222 -0.3222 -0.6732
 2826TIP3    H1 8442   1.485   5.692   1.752  0.4071 -0.3231 -0.5208
 2826TIP3    H2 8443   1.335   5.692   1.729  0.4390 -0.9821 -0.7518
 2827TIP3   OH2 8444   3.662   0.982   4.238 -0.7611 -0.3406 -0.1447
 2827TIP3    H1 8445   3.579   0.954   4.199 -1.1232  0.1224  0.2678
 2827TIP3    H2 8446   3.695   1.048   4.177 -0.4059 -0.9281 -0.6005
 2828TIP3   OH2 8447   4.048   3.649   0.977 -0.2787 -0.8536  0.5836
 2828TIP3    H1 8448   4.140   3.674   0.973 -0.1889 -1.3182 -0.6127
 2828TIP3    H2 8449   4.010   3.710   1.040  0.1617  1.4983 -1.2783
 2829TIP3   OH2 8450   2.368   5.104   1.474 -0.3853  0.4888 -0.5052
 2829TIP3    H1 8451   2.363   5.032   1.411  1.2742 -0.5745  0.4982
 2829TIP3    H2 8452   2.457   5.139   1.463 -0.0614  0.2837  1.2159
 2830TIP3   OH2 8453   5.955   6.336   5.782  0.3039 -0.1016 -0.2220
 2830TIP3    H1 8454   6.018   6.337   5.854 -1.1611  0.0729  1.1203
 2830TIP3    H2 8455   5.901   6.414   5.796 -1.0762 -0.9576 -0.5115
 2831TIP3   OH2 8456   3.489   6.619   5.282 -1.0008 -0.2889 -0.5277
 2831TIP3    H1 8457   3.538   6.598   5.203 -0.2776  1.4446 -0.5834
 2831TIP3    H2 8458   3.550   6.601   5.354 -1.8150 -2.3193 -0.2840
 2832TIP3   OH2 8459   3.844   0.220   3.100  0.2156  0.1069  0.0198
 2832TIP3    H1 8460   3.926   0.225   3.149  0.4913 -1.6023 -0.2232
 2832TIP3    H2 8461   3.870   0.204   3.010 -0.3940 -0.5604 -0.0442
 2833TIP3   OH2 8462   1.146   1.909   1.133  0.0143 -0.0852  0.2865
 2833TIP3    H1 8463   1.166   1.890   1.225  0.9872  0.6690  0.2410
 2833TIP3    H2 8464   1.062   1.954   1.136  0.8208  1.4350  0.9700
 2834TIP3   OH2 8465   2.217   6.310   0.825  0.1599  0.0331  0.6532
 2834TIP3    H1 8466   2.147   6.355   0.873 -0.4042  2.4341 -2.1515
 2834TIP3    H2 8467   2.287   6.300   0.889 -0.3747  3.3972  1.9838
 2835TIP3   OH2 8468   4.849   6.605   3.033  0.8225  0.1848  0.0381
 2835TIP3    H1 8469   4.780   6.571   2.977  0.0086  0.8123  0.6438
 2835TIP3    H2 8470   4.807   6.622   3.117  1.6948  0.6151  0.4090
 2836TIP3   OH2 8471   6.484   4.197   1.833 -0.0051  0.8191 -0.1246
 2836TIP3    H1 8472   6.390   4.175   1.834  0.3617 -0.9512  1.5427
 2836TIP3    H2 8473   6.500   4.238   1.918  1.2315 -1.5008  0.8417
 2837TIP3   OH2 8474   2.992   2.207   5.591 -0.3728 -0.0652  0.0482
 2837TIP3    H1 8475   2.983   2.241   5.680 -0.9195  2.5268 -0.9063
 2837TIP3    H2 8476   3.086   2.212   5.573 -0.4719  1.4698 -0.2046
 2838TIP3   OH2 8477   7.155   1.103   1.185 -0.4798 -0.4123 -0.1681
 2838TIP3    H1 8478   7.218   1.091   1.257 -2.3078 -1.9589  1.3014
 2838TIP3    H2 8479   7.121   1.191   1.199  2.0272  0.8980 -1.6475
 2839TIP3   OH2 8480   2.030   3.171   5.370 -0.2407  0.3419 -0.1625
 2839TIP3    H1 8481   2.096   3.102   5.360 -1.4811 -1.1574  1.3548
 2839TIP3    H2 8482   1.967   3.154   5.299 -1.6562 -1.5092  1.4228
 2840TIP3   OH2 8483   6.136   4.512   4.026 -0.4093  0.1319 -0.1328
 2840TIP3    H1 8484   6.210   4.561   4.061 -1.2498  1.4514 -0.1660
 2840TIP3    H2 8485   6.082   4.577   3.980 -1.1126 -0.9588 -0.9241
 2841TIP3   OH2 8486   2.090   4.753   0.944 -0.3625 -0.4892  0.0002
 2841TIP3    H1 8487   2.093   4.806   0.865  1.3395  0.2271  0.4889
 2841TIP3    H2 8488   2.150   4.680   0.926  0.2159 -0.1973  0.6836
 2842TIP3   OH2 8489   5.830   5.411   0.991  0.1171  0.1214  0.0419
 2842TIP3    H1 8490   5.770   5.336   0.991 -0.8580  0.8744 -0.2090
 2842TIP3    H2 8491   5.822   5.448   1.079 -1.6910  1.6424 -0.6716
 2843TIP3   OH2 8492   5.262   0.710   4.317  0.5566  0.0210 -0.0871
 2843TIP3    H1 8493   5.295   0.626   4.285 -0.2755 -0.7388  0.9487
 2843TIP3    H2 8494   5.335   0.747   4.366  0.4459 -0.8668  0.7906
 2844TIP3   OH2 8495   6.499   5.092   2.189  0.0428  0.1834 -0.1824
 2844TIP3    H1 8496   6.479   5.034   2.115 -1.2129 -1.7281  1.5417
 2844TIP3    H2 8497   6.493   5.180   2.152 -1.1609 -0.6695 -2.2319
 2845TIP3   OH2 8498   5.391   1.102   0.746 -0.1444 -0.3251  0.2092
 2845TIP3    H1 8499   5.306   1.073   0.780 -1.0553  0.6283 -1.1752
 2845TIP3    H2 8500   5.369   1.155   0.670  1.7280 -0.3425 -0.3682
 2846TIP3   OH2 8501   6.941   3.649   2.711  0.2398  0.3419 -0.2910
 2846TIP3    H1 8502   6.975   3.563   2.687  0.8728  0.2363  0.9131
 2846TIP3    H2 8503   6.992   3.674   2.788  0.1233  1.8335 -0.6661
 2847TIP3   OH2 8504   6.569   6.264   5.278 -0.0165 -0.5707  0.0986
 2847TIP3    H1 8505   6.531   6.195   5.224 -1.0890 -0.7172  0.9872
 2847TIP3    H2 8506   6.653   6.228   5.308  0.1989 -0.8117 -0.7841
 2848TIP3   OH2 8507   4.896   5.096   3.746  0.1463  0.3834  0.5758
 2848TIP3    H1 8508   4.881   5.190   3.758  1.1645  0.6110  0.1529
 2848TIP3    H2 8509   4.885   5.058   3.834  0.2272  0.9720  0.8422
 2849TIP3   OH2 8510   4.103   2.668   5.337 -0.1114 -0.6369 -0.4034
 2849TIP3    H1 8511   4.141   2.710   5.414 -1.4685 -1.1851  0.6204
 2849TIP3    H2 8512   4.105   2.736   5.269  1.2939 -0.2084  0.0308
 2850TIP3   OH2 8513   2.471   3.361   4.772  0.7122 -0.2737 -0.0409
 2850TIP3    H1 8514   2.427   3.327   4.850 -2.1920  1.0220 -0.9732
 2850TIP3    H2 8515   2.461   3.456   4.778  3.1594  0.1066 -0.5547
 2851TIP3   OH2 8516   2.890   2.303   2.218  0.0613 -0.0198 -0.1501
 2851TIP3    H1 8517   2.800   2.274   2.203 -0.1213 -0.4107  1.5566
 2851TIP3    H2 8518   2.896   2.314   2.313  1.1417  2.2381 -0.4255
 2852TIP3   OH2 8519   4.414   0.012   2.938  0.0040  0.0584 -0.0676
 2852TIP3    H1 8520   4.467   0.079   2.980 -1.0538  0.4896  0.5927
 2852TIP3    H2 8521   4.461  -0.008   2.857  1.0346  0.6097  0.3803
 2853TIP3   OH2 8522   2.092   5.530   5.701  0.0847  0.6119 -0.3785
 2853TIP3    H1 8523   2.117   5.601   5.643  0.2591 -0.1955 -1.3201
 2853TIP3    H2 8524   2.057   5.573   5.779 -3.1629  1.8048 -2.2753
 2854TIP3   OH2 8525   3.696   4.574   3.026  0.6219 -1.1188 -0.0373
 2854TIP3    H1 8526   3.704   4.479   3.022 -3.4087 -1.6214 -0.8070
 2854TIP3    H2 8527   3.648   4.597   2.947  0.1864  1.3793  0.8606
 2855TIP3   OH2 8528   4.663   2.477   3.796  0.4342  0.0282  0.5748
 2855TIP3    H1 8529   4.721   2.403   3.778  1.1938  0.6643  0.3538
 2855TIP3    H2 8530   4.692   2.510   3.881 -1.2138 -1.1363  1.6534
 2856TIP3   OH2 8531   6.227   0.684   3.060 -0.1311 -0.8200 -0.6104
 2856TIP3    H1 8532   6.266   0.770   3.071  0.1620 -0.9180 -0.8735
 2856TIP3    H2 8533   6.296   0.631   3.020  0.0245 -1.4485  0.4474
 2857TIP3   OH2 8534   1.985   0.477   5.757 -0.2415 -0.3180 -0.2422
 2857TIP3    H1 8535   1.923   0.444   5.693 -1.4455  0.2006  0.6205
 2857TIP3    H2 8536   1.943   0.556   5.793  1.3268  0.5921 -0.2987
 2858TIP3   OH2 8537   2.344   1.325   0.086 -0.3220  0.0644 -0.9780
 2858TIP3    H1 8538   2.419   1.377   0.114 -0.5200  0.4140 -1.0807
 2858TIP3    H2 8539   2.382   1.251   0.038 -0.0701  0.7289 -1.8221
 2859TIP3   OH2 8540   3.428   6.362   5.128 -0.0029 -0.2290  0.1122
 2859TIP3    H1 8541   3.439   6.415   5.049 -1.6096 -2.6412 -1.8776
 2859TIP3    H2 8542   3.518   6.335   5.150  0.3786 -0.9137 -1.9949
 2860TIP3   OH2 8543   3.247   4.569   1.787  0.0201  0.0644 -0.4355
 2860TIP3    H1 8544   3.274   4.484   1.823  3.1751  0.3181 -1.9434
 2860TIP3    H2 8545   3.183   4.546   1.719  0.5663 -1.1135 -0.5888
 2861TIP3   OH2 8546   4.569   5.904   1.491  0.3959 -0.1075  0.0347
 2861TIP3    H1 8547   4.494   5.889   1.435  0.5684 -1.1061  0.0516
 2861TIP3    H2 8548   4.579   6.000   1.494  0.9602 -0.0464 -2.3922
 2862TIP3   OH2 8549   6.574   0.552   1.344  0.9230 -0.0310 -0.5661
 2862TIP3    H1 8550   6.542   0.620   1.285  0.3844 -0.5485 -0.8818
 2862TIP3    H2 8551   6.525   0.566   1.425  0.8695  0.0089 -0.6047
 2863TIP3   OH2 8552   3.291   0.735   2.282 -0.2488  0.3824  0.4213
 2863TIP3    H1 8553   3.241   0.813   2.304 -1.8270 -0.3403 -0.3501
 2863TIP3    H2 8554   3.280   0.726   2.187  1.5899  0.3131  0.1838
 2864TIP3   OH2 8555   6.432   0.713   4.808  0.1703 -0.1401 -0.6533
 2864TIP3    H1 8556   6.339   0.732   4.823 -0.3011 -1.5263 -1.6928
 2864TIP3    H2 8557   6.453   0.759   4.727  0.3022 -0.1498 -0.6247
 2865TIP3   OH2 8558   5.569   4.906   2.961  0.6358  0.3974 -0.5496
 2865TIP3    H1 8559   5.658   4.940   2.976 -0.2120  2.2924  0.5186
 2865TIP3    H2 8560   5.538   4.953   2.884  0.2105  0.4571 -0.3418
 2866TIP3   OH2 8561   2.708   0.952   2.189 -0.2578 -0.3481 -0.0823
 2866TIP3    H1 8562   2.770   0.958   2.262  0.7366  0.1065 -0.9311
 2866TIP3    H2 8563   2.693   0.858   2.178  0.5095 -0.4873 -0.0358
 2867TIP3   OH2 8564   3.194   2.899   5.256 -0.1290  0.1357  0.2549
 2867TIP3    H1 8565   3.107   2.869   5.233 -0.5493  3.1652 -3.0013
 2867TIP3    H2 8566   3.249   2.875   5.181  1.4838 -0.2513  1.4903
 2868TIP3   OH2 8567   6.837   4.359   2.137  0.0322 -0.2690  0.4123
 2868TIP3    H1 8568   6.930   4.348   2.117  0.8547  1.3945  2.8175
 2868TIP3    H2 8569   6.818   4.290   2.201 -0.3143 -0.4652  0.0936
 2869TIP3   OH2 8570   6.610   4.559   4.689  0.1238 -0.0678  0.6005
 2869TIP3    H1 8571   6.531   4.543   4.638  1.0911  1.4825 -1.5231
 2869TIP3    H2 8572   6.583   4.623   4.755 -0.5909 -0.2212  0.4595
 2870TIP3   OH2 8573   2.439   4.134   0.095  0.0118 -0.3318  0.1858
 2870TIP3    H1 8574   2.497   4.128   0.170  2.3971  0.4216 -1.4749
 2870TIP3    H2 8575   2.459   4.056   0.042 -1.0668 -0.4632 -0.0595
 2871TIP3   OH2 8576   5.519   2.697   4.953 -0.3161  0.1700  0.5340
 2871TIP3    H1 8577   5.487   2.614   4.989 -1.3322  0.7600  1.0297
 2871TIP3    H2 8578   5.614   2.684   4.943 -0.0930 -0.2439  2.8157
 2872TIP3   OH2 8579   5.936   4.677   2.448 -0.3745 -0.6927  0.2500
 2872TIP3    H1 8580   5.969   4.739   2.382  0.8956 -1.5409  0.0523
 2872TIP3    H2 8581   5.857   4.719   2.483 -0.3434  0.3708 -0.8883
 2873TIP3   OH2 8582   0.514   3.247   1.865  0.2246  0.2298  0.2828
 2873TIP3    H1 8583   0.420   3.262   1.865  0.5418  2.5436  0.4143
 2873TIP3    H2 8584   0.548   3.305   1.933  1.8565  0.3860 -0.6008
 2874TIP3   OH2 8585   4.083   2.155   1.603 -0.2065  0.2781  0.2782
 2874TIP3    H1 8586   4.066   2.231   1.659  0.2684  0.4527  0.1886
 2874TIP3    H2 8587   4.003   2.145   1.552 -0.9248 -0.3289  1.5017
 2875TIP3   OH2 8588   7.196   3.251   2.836 -0.1826 -0.2351 -0.7663
 2875TIP3    H1 8589   7.244   3.330   2.862 -1.5042  0.2140  0.4294
 2875TIP3    H2 8590   7.110   3.260   2.878  0.1829 -3.0780  0.8512
 2876TIP3   OH2 8591   5.885   5.750   0.381  0.2270 -0.0095 -0.5619
 2876TIP3    H1 8592   5.821   5.742   0.451 -0.3335 -1.3743 -1.1842
 2876TIP3    H2 8593   5.905   5.843   0.376  0.7570  0.0569  1.8031
 2877TIP3   OH2 8594   4.043   3.580   1.699 -0.3474 -0.5466 -0.2579
 2877TIP3    H1 8595   3.996   3.498   1.685 -0.3641 -0.4102 -1.0454
 2877TIP3    H2 8596   4.008   3.615   1.781  0.0300 -1.5776  0.3691
 2878TIP3   OH2 8597   5.973   5.749   4.559 -0.2393 -0.3479  0.7092
 2878TIP3    H1 8598   5.932   5.707   4.483  0.6245  2.3858 -1.4417
 2878TIP3    H2 8599   6.034   5.684   4.592 -0.2579 -1.4648 -1.2710
 2879TIP3   OH2 8600   0.305   4.550   2.721  0.7623 -0.3417  0.7852
 2879TIP3    H1 8601   0.234   4.502   2.679 -0.6391  1.7368  0.6101
 2879TIP3    H2 8602   0.382   4.494   2.710 -0.7519 -2.5414  0.7154
 2880TIP3   OH2 8603   5.457   3.542   3.085  0.5506 -0.1472 -0.2665
 2880TIP3    H1 8604   5.406   3.546   3.003  1.1000  0.5581 -0.5811
 2880TIP3    H2 8605   5.427   3.461   3.127 -1.9999  0.9965  0.3172
 2881TIP3   OH2 8606   0.180   4.278   1.050 -0.2351  0.4441  0.2641
 2881TIP3    H1 8607   0.091   4.309   1.066 -0.1408  0.7683  0.1654
 2881TIP3    H2 8608   0.214   4.335   0.980 -0.3322 -0.3800 -0.4787
 2882TIP3   OH2 8609   1.062   4.670   4.090  0.0462 -0.0281  0.1085
 2882TIP3    H1 8610   1.058   4.683   3.995  1.3377 -0.9403 -0.0993
 2882TIP3    H2 8611   1.043   4.577   4.103  1.0357 -0.1718  0.6293
 2883TIP3   OH2 8612   0.275   1.950   2.538  0.6139  0.2750 -0.0837
 2883TIP3    H1 8613   0.268   2.041   2.567  1.2575  0.3245 -0.0720
 2883TIP3    H2 8614   0.230   1.900   2.607 -0.2341  0.6215 -0.3687
 2884TIP3   OH2 8615   4.966   0.195   3.079 -0.3934 -0.5162  0.4262
 2884TIP3    H1 8616   5.042   0.155   3.036  0.2753  0.3609  0.7469
 2884TIP3    H2 8617   4.898   0.128   3.076  0.2814 -1.1910 -0.1919
 2885TIP3   OH2 8618   3.172   2.776   1.687 -0.2157 -0.0744  0.0203
 2885TIP3    H1 8619   3.135   2.749   1.771 -2.3072 -0.8872 -1.0950
 2885TIP3    H2 8620   3.264   2.794   1.706 -0.8029  0.5280  2.6275
 2886TIP3   OH2 8621   6.833   2.684   0.350 -0.3962 -0.2095  0.5522
 2886TIP3    H1 8622   6.771   2.635   0.403  0.5533 -1.7807  0.2918
 2886TIP3    H2 8623   6.885   2.734   0.413 -0.5406 -0.5451  0.9399
 2887TIP3   OH2 8624   0.180   4.185   2.632 -0.0664 -0.0640 -0.6542
 2887TIP3    H1 8625   0.157   4.141   2.550 -0.4354 -1.2456  0.0659
 2887TIP3    H2 8626   0.250   4.131   2.668  0.2323  0.5692 -0.2786
 2888TIP3   OH2 8627   2.510   2.091   0.525  0.7511 -0.3276 -0.4166
 2888TIP3    H1 8628   2.540   2.181   0.522 -0.8969  0.2682 -0.2629
 2888TIP3    H2 8629   2.448   2.089   0.598 -0.3809 -1.1978 -1.3628
 2889TIP3   OH2 8630   4.145   5.396   0.424  0.1337 -0.1638  0.6129
 2889TIP3    H1 8631   4.134   5.303   0.409  2.8587 -0.5912  0.8023
 2889TIP3    H2 8632   4.175   5.402   0.515 -1.8616  1.1055  1.2528
 2890TIP3   OH2 8633   2.406   4.889   1.299 -0.0780 -0.3387  0.0617
 2890TIP3    H1 8634   2.330   4.836   1.321 -0.6556 -0.0172 -1.0973
 2890TIP3    H2 8635   2.429   4.863   1.210  0.1667  0.7127 -0.2053
 2891TIP3   OH2 8636   0.946   6.593   3.572 -0.2554 -0.1040  0.0253
 2891TIP3    H1 8637   0.920   6.577   3.481  0.4609  0.1463 -0.2345
 2891TIP3    H2 8638   1.015   6.529   3.588 -2.4184 -2.2333  1.4016
 2892TIP3   OH2 8639   2.554   1.458   0.189  0.0968 -0.3303 -0.4667
 2892TIP3    H1 8640   2.574   1.458   0.283  0.6029 -0.1932 -0.5706
 2892TIP3    H2 8641   2.637   1.481   0.147  1.1803 -4.8207 -1.2419
 2893TIP3   OH2 8642   2.478   5.471   0.895 -0.2546  0.4034 -0.0339
 2893TIP3    H1 8643   2.490   5.420   0.816  2.2096  1.2322 -0.2863
 2893TIP3    H2 8644   2.390   5.450   0.925 -0.4199 -1.6167 -1.7605
 2894TIP3   OH2 8645   1.816   1.238   0.725 -0.2090 -0.6486 -0.6506
 2894TIP3    H1 8646   1.727   1.248   0.757 -0.5160 -1.5705 -1.2017
 2894TIP3    H2 8647   1.840   1.325   0.693  0.6070  0.7558  3.1844
 2895TIP3   OH2 8648   6.234   6.083   3.124  0.2697  0.0230  0.1056
 2895TIP3    H1 8649   6.205   6.001   3.163  0.1192  0.6902  1.4602
 2895TIP3    H2 8650   6.154   6.134   3.112  0.3825  0.0542 -0.5219
 2896TIP3   OH2 8651   1.728   4.317   0.927 -0.0714  0.6008  0.0973
 2896TIP3    H1 8652   1.779   4.389   0.964  0.2455  0.9668 -1.0111
 2896TIP3    H2 8653   1.645   4.358   0.902  0.0495  0.5468 -0.3905
 2897TIP3   OH2 8654   6.585   5.185   2.881  0.0147  0.4048 -0.1467
 2897TIP3    H1 8655   6.500   5.206   2.919  0.9861  0.0141  2.4278
 2897TIP3    H2 8656   6.565   5.130   2.805 -1.9904 -0.0720  0.6825
 2898TIP3   OH2 8657   3.539   5.287   1.381 -0.0112  0.7182 -0.4607
 2898TIP3    H1 8658   3.553   5.231   1.457 -0.4955 -1.6459 -2.0058
 2898TIP3    H2 8659   3.624   5.331   1.367  0.1816  0.9025  1.1656
 2899TIP3   OH2 8660   0.290   1.591   1.216  0.0680 -0.5292  0.9415
 2899TIP3    H1 8661   0.365   1.615   1.162 -0.6515 -0.1765  0.0710
 2899TIP3    H2 8662   0.327   1.576   1.303  0.8354  2.1242  1.1799
 2900TIP3   OH2 8663   4.267   2.538   0.319  0.5930 -0.1322 -0.3751
 2900TIP3    H1 8664   4.340   2.566   0.264  2.5656 -0.6522  1.8028
 2900TIP3    H2 8665   4.300   2.461   0.365 -1.4408 -0.5415  0.4875
 2901TIP3   OH2 8666   0.589   5.120   5.472 -0.2140  0.3042 -0.3146
 2901TIP3    H1 8667   0.677   5.139   5.505 -0.6223 -0.2484  1.1874
 2901TIP3    H2 8668   0.548   5.206   5.463  0.4386  0.5588 -0.9381
 2902TIP3   OH2 8669   1.347   0.488   5.839  0.1369  0.3113  0.3714
 2902TIP3    H1 8670   1.313   0.502   5.927  1.4312 -0.8361  1.0913
 2902TIP3    H2 8671   1.440   0.509   5.845  0.7025 -1.7722 -0.1543
 2903TIP3   OH2 8672   3.623   4.845   3.691  0.0662  0.6637  0.5044
 2903TIP3    H1 8673   3.553   4.806   3.743 -0.6077  1.0086 -0.1180
 2903TIP3    H2 8674   3.676   4.771   3.661  0.7506  0.4994  2.0613
 2904TIP3   OH2 8675   6.576   2.828   3.982 -0.2709 -0.3106 -0.1928
 2904TIP3    H1 8676   6.511   2.880   3.935  0.5814  1.0114  0.0306
 2904TIP3    H2 8677   6.524   2.769   4.038 -1.2643 -0.6283 -1.4081
 2905TIP3   OH2 8678   4.882   4.837   3.041  0.4983  0.2486 -0.3371
 2905TIP3    H1 8679   4.796   4.806   3.015  1.7119 -3.0926 -0.7998
 2905TIP3    H2 8680   4.886   4.927   3.007 -2.5292  0.3287 -0.7814
 2906TIP3   OH2 8681   2.059   0.119   1.893 -0.3517  0.1981  0.9060
 2906TIP3    H1 8682   2.011   0.069   1.828 -3.0015 -0.0479  2.8646
 2906TIP3    H2 8683   1.991   0.157   1.949  1.7086  1.9515  2.3961
 2907TIP3   OH2 8684   3.804   3.926   0.856 -0.1443  0.5943 -0.4566
 2907TIP3    H1 8685   3.845   3.887   0.934 -0.4644  0.6073 -0.2801
 2907TIP3    H2 8686   3.731   3.867   0.835  1.5312 -0.9628 -2.3814
 2908TIP3   OH2 8687   1.440   5.585   4.751  0.4964  0.0869 -0.0669
 2908TIP3    H1 8688   1.402   5.530   4.821  0.9956  0.5644  0.5937
 2908TIP3    H2 8689   1.518   5.538   4.723  0.6959  0.2414  0.2131
 2909TIP3   OH2 8690   3.611   2.926   5.325 -0.5789 -0.3261 -0.4085
 2909TIP3    H1 8691   3.653   3.011   5.341  0.5248 -0.9946  0.3825
 2909TIP3    H2 8692   3.680   2.862   5.343 -1.2736 -1.3806 -1.4151
 2910TIP3   OH2 8693   4.662   1.167   2.438 -0.6030 -0.4771 -0.5983
 2910TIP3    H1 8694   4.644   1.231   2.369 -1.6392 -0.6467 -0.4912
 2910TIP3    H2 8695   4.605   1.093   2.418 -0.6965 -0.6487  0.2689
 2911TIP3   OH2 8696   0.390   4.444   3.630  0.3936 -0.4150  0.8399
 2911TIP3    H1 8697   0.347   4.478   3.551  0.1657 -0.1412  1.0796
 2911TIP3    H2 8698   0.462   4.506   3.646  0.4858 -0.5128  0.8018
 2912TIP3   OH2 8699   6.958   1.854   5.883  0.0012 -0.3585  0.2018
 2912TIP3    H1 8700   6.912   1.909   5.820 -0.1902  0.0169  0.6602
 2912TIP3    H2 8701   6.944   1.765   5.852  0.6788 -0.1259 -0.7851
 2913TIP3   OH2 8702   5.469   2.778   3.576 -0.6800  0.5471  0.2007
 2913TIP3    H1 8703   5.440   2.849   3.519  0.5543  1.3247  0.4926
 2913TIP3    H2 8704   5.452   2.809   3.665 -0.5073  0.3163  0.3172
 2914TIP3   OH2 8705   6.113   5.896   1.965 -0.4046  1.0108 -0.3647
 2914TIP3    H1 8706   6.168   5.843   2.022 -1.0711  1.1038  0.3985
 2914TIP3    H2 8707   6.168   5.917   1.890 -0.0418 -0.5151 -0.5589
 2915TIP3   OH2 8708   1.541   2.330   0.370  0.0554  0.5111  0.3935
 2915TIP3    H1 8709   1.514   2.307   0.281  0.9364 -1.1021  0.4945
 2915TIP3    H2 8710   1.569   2.421   0.363 -1.0262  0.7935 -0.6998
 2916TIP3   OH2 8711   2.692   1.896   1.605  0.3565  0.4291 -0.0967
 2916TIP3    H1 8712   2.690   1.966   1.671  0.3498 -0.0420  0.4083
 2916TIP3    H2 8713   2.636   1.928   1.534 -2.0334 -0.2771  1.3632
 2917TIP3   OH2 8714   1.553   2.121   1.515  0.2196  0.2148 -0.0778
 2917TIP3    H1 8715   1.559   2.080   1.429  0.4621  1.7145 -0.8101
 2917TIP3    H2 8716   1.500   2.061   1.567  0.7957 -1.1303 -1.0069
 2918TIP3   OH2 8717   7.070   3.985   0.186  0.2659  0.1164  0.2552
 2918TIP3    H1 8718   7.154   4.031   0.195 -0.3636  1.5050 -0.6700
 2918TIP3    H2 8719   7.005   4.045   0.222 -0.6295  0.1592 -1.3111
 2919TIP3   OH2 8720   1.323   0.618   2.615 -0.7442  0.0700 -0.0835
 2919TIP3    H1 8721   1.323   0.648   2.524  2.6984  0.0711 -0.2208
 2919TIP3    H2 8722   1.363   0.690   2.664 -2.2025 -0.0745  1.4453
 2920TIP3   OH2 8723   6.969   3.522   5.091  0.5613  0.1097  0.1100
 2920TIP3    H1 8724   6.948   3.495   5.180  0.3482  2.6912  0.9044
 2920TIP3    H2 8725   6.906   3.591   5.071  1.1765  0.1929 -1.7046
 2921TIP3   OH2 8726   2.146   4.123   4.556 -0.2778 -0.4179  0.0253
 2921TIP3    H1 8727   2.196   4.064   4.499 -0.8745 -0.1792 -0.7581
 2921TIP3    H2 8728   2.137   4.204   4.506 -1.0807 -0.3115  0.3284
 2922TIP3   OH2 8729   4.922   2.336   2.445 -0.8328  0.0895  0.3392
 2922TIP3    H1 8730   4.939   2.264   2.384 -0.4481 -0.3344  0.9374
 2922TIP3    H2 8731   4.882   2.404   2.391 -1.2848 -0.6038 -0.2196
 2923TIP3   OH2 8732   3.759   4.554   4.962 -0.2531  0.1616 -0.4236
 2923TIP3    H1 8733   3.690   4.487   4.955  0.1175 -0.0876 -1.9357
 2923TIP3    H2 8734   3.766   4.592   4.875  1.5051  0.2083 -0.3055
 2924TIP3   OH2 8735   2.842   5.446   3.399 -0.1703  0.1062 -0.0244
 2924TIP3    H1 8736   2.896   5.526   3.398  0.0412 -0.0124  0.8617
 2924TIP3    H2 8737   2.899   5.380   3.440 -0.7795 -0.1784  0.3688
 2925TIP3   OH2 8738   1.026   5.488   5.679  0.2487  0.1532 -0.4276
 2925TIP3    H1 8739   0.938   5.519   5.660  0.5123  1.0265 -0.2810
 2925TIP3    H2 8740   1.017   5.431   5.755 -0.1108  0.6809 -0.0756
 2926TIP3   OH2 8741   5.604   2.175   2.847 -0.1557  0.1030  0.5393
 2926TIP3    H1 8742   5.540   2.243   2.867  0.2886  0.2728  1.4913
 2926TIP3    H2 8743   5.678   2.195   2.905  0.3040 -0.7246  0.2543
 2927TIP3   OH2 8744   1.478   6.490   2.960  0.5011  0.2809 -0.3228
 2927TIP3    H1 8745   1.476   6.548   3.037  1.3024 -0.6485  0.4325
 2927TIP3    H2 8746   1.435   6.410   2.990  2.9676 -1.0126  0.0052
 2928TIP3   OH2 8747   1.381   4.237   1.259 -0.0186 -0.1165 -0.8260
 2928TIP3    H1 8748   1.375   4.316   1.205 -0.2787  0.2548 -0.2529
 2928TIP3    H2 8749   1.378   4.268   1.349 -0.0279 -0.7726 -0.5924
 2929TIP3   OH2 8750   2.136   5.351   0.684 -0.4581  0.1603 -0.0114
 2929TIP3    H1 8751   2.217   5.401   0.670  0.9731 -2.0571 -0.2578
 2929TIP3    H2 8752   2.137   5.285   0.614 -2.5217  0.0853 -0.0124
 2930TIP3   OH2 8753   3.513   1.699   4.093 -0.0911 -0.0593  0.6120
 2930TIP3    H1 8754   3.443   1.640   4.121 -1.9240  2.9274  2.9928
 2930TIP3    H2 8755   3.480   1.739   4.013 -1.0206  1.0939  1.5460
 2931TIP3   OH2 8756   3.979   3.780   0.406 -0.0404 -0.3688 -0.0265
 2931TIP3    H1 8757   4.038   3.755   0.477 -1.3133 -0.5344  1.0195
 2931TIP3    H2 8758   3.907   3.717   0.412  0.2378 -0.9472 -2.0529
 2932TIP3   OH2 8759   3.434   1.573   0.596  0.3500  0.0800 -0.7073
 2932TIP3    H1 8760   3.511   1.621   0.623  0.5897 -0.4734 -0.3824
 2932TIP3    H2 8761   3.361   1.632   0.615  0.6985  0.6984 -1.2349
 2933TIP3   OH2 8762   4.406   5.348   4.650 -0.6255  0.6010 -0.1035
 2933TIP3    H1 8763   4.494   5.311   4.648 -1.3766 -1.4385 -3.0106
 2933TIP3    H2 8764   4.358   5.292   4.711 -0.1276  1.1881  0.8378
 2934TIP3   OH2 8765   6.312   3.253   1.968 -0.0602  0.2062  0.0482
 2934TIP3    H1 8766   6.256   3.239   2.044 -1.1836  0.2768 -0.7498
 2934TIP3    H2 8767   6.378   3.316   1.998 -0.0210 -0.3440  1.1748
 2935TIP3   OH2 8768   3.607   5.147   4.741  0.4519  0.2137 -0.3624
 2935TIP3    H1 8769   3.570   5.199   4.670 -1.1218 -0.6932 -0.2423
 2935TIP3    H2 8770   3.683   5.197   4.771  0.8878  0.8189 -2.3836
 2936TIP3   OH2 8771   5.277   6.500   0.373  0.5004  0.0822 -0.2351
 2936TIP3    H1 8772   5.271   6.405   0.368 -0.1686  0.0970  0.2076
 2936TIP3    H2 8773   5.357   6.516   0.423  1.0846 -0.2270 -1.0507
 2937TIP3   OH2 8774   4.860   3.503   0.010 -0.3324  0.0827 -0.5841
 2937TIP3    H1 8775   4.794   3.511   0.078  2.1927  1.6397  1.9218
 2937TIP3    H2 8776   4.858   3.588  -0.035  0.0912  0.2330 -0.3279
 2938TIP3   OH2 8777   6.865   4.399   5.563 -0.0335  0.3604  0.7401
 2938TIP3    H1 8778   6.835   4.381   5.652 -0.4395 -0.7948  0.3903
 2938TIP3    H2 8779   6.796   4.453   5.525  0.3729  1.2764  1.2639
 2939TIP3   OH2 8780   2.367   5.839   5.021 -0.4122  0.1825 -1.0137
 2939TIP3    H1 8781   2.457   5.805   5.021 -0.1945  0.4563  1.7422
 2939TIP3    H2 8782   2.376   5.928   5.055 -1.7660 -0.0188 -0.0733
 2940TIP3   OH2 8783   4.495   3.339   0.695  0.2894 -0.1666  0.1029
 2940TIP3    H1 8784   4.547   3.259   0.686 -1.4199 -1.4777  1.1358
 2940TIP3    H2 8785   4.521   3.393   0.620  1.7011 -1.5558 -0.4782
 2941TIP3   OH2 8786   4.003   4.862   1.647  0.0720 -0.2102  0.2383
 2941TIP3    H1 8787   3.980   4.841   1.556 -0.6019 -1.2553  0.6288
 2941TIP3    H2 8788   3.962   4.947   1.663 -1.2655 -0.8086  0.0778
 2942TIP3   OH2 8789   5.546   5.184   2.193  0.1390  0.6173  0.3685
 2942TIP3    H1 8790   5.483   5.243   2.153  0.6433  0.2240 -1.0696
 2942TIP3    H2 8791   5.542   5.104   2.140 -0.1125 -0.4456  1.9062
 2943TIP3   OH2 8792   0.233   1.217   0.827  0.1524 -0.0791 -0.3987
 2943TIP3    H1 8793   0.297   1.258   0.886 -1.6703  0.2517  1.4396
 2943TIP3    H2 8794   0.185   1.290   0.790 -0.0655 -0.3759 -0.7045
 2944TIP3   OH2 8795   6.967   0.880   1.621  0.1971 -0.0054 -0.1794
 2944TIP3    H1 8796   6.962   0.971   1.590  0.2913  0.5373  1.3316
 2944TIP3    H2 8797   7.048   0.877   1.672 -0.3334 -0.6450  0.6492
 2945TIP3   OH2 8798   6.250   2.771   3.249 -0.7113  0.0244 -0.3632
 2945TIP3    H1 8799   6.201   2.786   3.329 -0.3010 -1.8455  0.2794
 2945TIP3    H2 8800   6.329   2.725   3.277  1.6800  3.1903 -1.3141
 2946TIP3   OH2 8801   0.069   2.954   3.604  0.0808  0.6555  0.5399
 2946TIP3    H1 8802   0.139   2.969   3.541  0.7702 -0.7417  0.9326
 2946TIP3    H2 8803   0.092   3.007   3.680  0.7546  0.1727  0.6807
 2947TIP3   OH2 8804   4.813   1.053   4.952 -0.0759 -0.4186  0.5628
 2947TIP3    H1 8805   4.856   1.115   4.893 -1.3210 -0.5742 -0.5792
 2947TIP3    H2 8806   4.785   1.106   5.027 -1.8877  0.6493 -0.7834
 2948TIP3   OH2 8807   6.107   4.489   0.637 -0.2005  0.0201 -0.1416
 2948TIP3    H1 8808   6.112   4.476   0.542  0.0843 -1.4136  0.0510
 2948TIP3    H2 8809   6.129   4.581   0.650 -2.3307  0.8284 -1.6244
 2949TIP3   OH2 8810   6.711   2.850   0.967 -0.3740 -0.4671  0.1313
 2949TIP3    H1 8811   6.798   2.888   0.979 -1.3641  1.3254  2.4972
 2949TIP3    H2 8812   6.703   2.788   1.039 -1.2747 -0.1207  0.3406
 2950TIP3   OH2 8813   1.404   6.336   0.896  0.0774 -0.3312  0.1934
 2950TIP3    H1 8814   1.358   6.299   0.820 -0.0948  0.4899 -0.1048
 2950TIP3    H2 8815   1.490   6.361   0.862  0.1674 -0.3813  0.3804
 2951TIP3   OH2 8816   0.268   0.294   4.478  0.3116  0.0404 -0.2479
 2951TIP3    H1 8817   0.272   0.343   4.396  0.0001 -1.8109 -1.4360
 2951TIP3    H2 8818   0.347   0.239   4.477 -1.0413 -1.9980 -0.6858
 2952TIP3   OH2 8819   3.946   3.899   2.824 -0.3730  0.2965  0.0128
 2952TIP3    H1 8820   4.031   3.873   2.788 -0.9126 -0.8805 -0.4733
 2952TIP3    H2 8821   3.882   3.858   2.765 -1.2701  0.3168  0.9492
 2953TIP3   OH2 8822   1.926   0.164   4.624  0.2292  0.4833 -0.7625
 2953TIP3    H1 8823   1.941   0.255   4.647 -0.6530  0.7423 -1.1838
 2953TIP3    H2 8824   1.912   0.120   4.708  0.6392  0.7344 -0.5609
 2954TIP3   OH2 8825   3.350   3.446   3.997 -0.1968  0.3793 -0.1540
 2954TIP3    H1 8826   3.288   3.376   4.018 -0.8592  0.4770 -1.6459
 2954TIP3    H2 8827   3.366   3.490   4.080 -1.8643  0.1272  0.3348
 2955TIP3   OH2 8828   4.237   0.168   5.003  0.4031  0.0048 -0.0132
 2955TIP3    H1 8829   4.234   0.166   5.098  2.4274  1.3809  0.1376
 2955TIP3    H2 8830   4.190   0.247   4.978  0.9467  0.3145 -0.0679
 2956TIP3   OH2 8831   5.770   0.633   3.820 -0.3725 -0.3756 -0.1430
 2956TIP3    H1 8832   5.806   0.668   3.739 -0.1848 -0.3871 -0.0650
 2956TIP3    H2 8833   5.846   0.617   3.876 -0.3638 -1.7505 -0.5001
 2957TIP3   OH2 8834   1.703   5.504   0.329  0.3542  0.0020 -0.9340
 2957TIP3    H1 8835   1.629   5.541   0.281 -2.1042 -1.1059  1.7018
 2957TIP3    H2 8836   1.718   5.566   0.401  0.0011 -1.1716  0.1961
 2958TIP3   OH2 8837   3.350   5.876   1.060  0.0763  0.4953 -0.6578
 2958TIP3    H1 8838   3.322   5.967   1.062  0.6966  0.7071 -1.0772
 2958TIP3    H2 8839   3.320   5.839   1.143  0.5835  1.3220 -0.0871
 2959TIP3   OH2 8840   3.923   0.262   5.468 -0.5459 -0.2079  0.2676
 2959TIP3    H1 8841   3.902   0.304   5.552  0.6981  1.7529 -0.3227
 2959TIP3    H2 8842   3.951   0.173   5.492  0.7379  0.6088  2.0757
 2960TIP3   OH2 8843   2.983   1.034   1.160 -0.4195  0.2552  0.4696
 2960TIP3    H1 8844   2.944   0.992   1.237 -0.8350 -1.8116 -0.7776
 2960TIP3    H2 8845   2.931   1.003   1.087  2.5652 -1.5156 -1.1331
 2961TIP3   OH2 8846   4.431   3.379   1.870 -0.8978 -0.3181  0.2433
 2961TIP3    H1 8847   4.399   3.445   1.808 -0.8049  0.4352  0.9758
 2961TIP3    H2 8848   4.353   3.332   1.898 -0.9988 -0.3541 -0.0911
 2962TIP3   OH2 8849   2.143   2.702   5.102  0.4906  1.1369 -0.0761
 2962TIP3    H1 8850   2.082   2.687   5.029 -0.1463 -0.0974  0.6612
 2962TIP3    H2 8851   2.126   2.792   5.129 -0.6834  0.9770 -0.2025
 2963TIP3   OH2 8852   4.317   3.843   3.472  0.2883  0.8490  0.5843
 2963TIP3    H1 8853   4.304   3.917   3.413  1.7289  2.2036  1.8816
 2963TIP3    H2 8854   4.231   3.802   3.478 -0.0002  0.8922 -2.0865
 2964TIP3   OH2 8855   1.649   0.546   5.829  0.2326  0.4749  0.0220
 2964TIP3    H1 8856   1.656   0.489   5.905 -1.9677 -0.1203 -0.1674
 2964TIP3    H2 8857   1.655   0.634   5.865  2.4704  0.2259  0.4478
 2965TIP3   OH2 8858   1.822   4.486   2.729 -0.4251  0.4234 -0.2206
 2965TIP3    H1 8859   1.913   4.505   2.753 -0.1156 -0.8476 -0.3056
 2965TIP3    H2 8860   1.771   4.554   2.773  0.5263  0.9387  0.1281
 2966TIP3   OH2 8861   7.141   2.698   3.259 -0.1178  0.1017 -0.0934
 2966TIP3    H1 8862   7.163   2.787   3.288 -4.0233  1.5623 -0.9822
 2966TIP3    H2 8863   7.088   2.711   3.181 -1.9158 -2.9503  0.4882
 2967TIP3   OH2 8864   1.895   0.760   4.009 -0.6003  0.3430 -0.1262
 2967TIP3    H1 8865   1.987   0.756   4.034 -0.3508 -1.0374 -1.1555
 2967TIP3    H2 8866   1.873   0.670   3.984 -1.9948  0.8118 -0.6665
 2968TIP3   OH2 8867   0.510   3.854   5.148  0.4895  0.1792 -0.4587
 2968TIP3    H1 8868   0.524   3.948   5.137  0.2504  0.2883  0.0946
 2968TIP3    H2 8869   0.421   3.839   5.117  0.6752  0.0577 -0.9417
 2969TIP3   OH2 8870   0.228   4.818   1.864  0.4596 -0.4288  0.0572
 2969TIP3    H1 8871   0.174   4.892   1.889  1.0060 -0.4055  1.2322
 2969TIP3    H2 8872   0.314   4.856   1.846  0.8584 -0.8134  1.0918
 2970TIP3   OH2 8873   1.204   0.681   0.792  0.0898  0.1282 -0.0974
 2970TIP3    H1 8874   1.114   0.704   0.770 -0.1046 -0.2456  0.2767
 2970TIP3    H2 8875   1.199   0.651   0.883  0.5228 -0.2712 -0.2010
 2971TIP3   OH2 8876   0.117   0.097   2.072  0.2675  0.0372 -0.3543
 2971TIP3    H1 8877   0.095   0.154   1.998  0.7663 -0.0815 -0.6021
 2971TIP3    H2 8878   0.211   0.113   2.087  0.5635 -1.1478 -0.8145
 2972TIP3   OH2 8879   0.053   2.730   1.352  0.4842 -0.5663  0.2217
 2972TIP3    H1 8880   0.146   2.746   1.340  0.7123  0.6905  2.7894
 2972TIP3    H2 8881   0.049   2.660   1.418 -0.3487 -0.3273  0.4427
 2973TIP3   OH2 8882   4.549   4.517   4.433  0.0272  0.7490 -0.1345
 2973TIP3    H1 8883   4.578   4.541   4.520  1.7645 -0.6256 -0.2891
 2973TIP3    H2 8884   4.457   4.493   4.444  0.0858  1.0641  1.2012
 2974TIP3   OH2 8885   4.103   5.656   3.525  0.6936 -0.0535  0.3957
 2974TIP3    H1 8886   4.008   5.648   3.533  0.6030  1.7672  1.8838
 2974TIP3    H2 8887   4.137   5.578   3.569 -0.1514  0.6749  2.4975
 2975TIP3   OH2 8888   6.682   3.708   1.380  0.9427 -0.6536  0.7006
 2975TIP3    H1 8889   6.657   3.799   1.367 -1.0611 -1.1442  0.7266
 2975TIP3    H2 8890   6.665   3.691   1.473 -0.3412 -1.4684  0.3510
 2976TIP3   OH2 8891   5.390   4.133   1.869  0.3418  0.3464  0.1473
 2976TIP3    H1 8892   5.393   4.038   1.877  0.7624  0.3491  0.0507
 2976TIP3    H2 8893   5.375   4.149   1.776 -2.2412  0.3489  0.4896
 2977TIP3   OH2 8894   5.051   2.258   4.445  1.0621  0.0035  0.0536
 2977TIP3    H1 8895   5.118   2.315   4.482  1.2119 -0.4688  0.5131
 2977TIP3    H2 8896   5.004   2.314   4.383  2.3952  0.1371 -0.9019
 2978TIP3   OH2 8897   0.809   1.539   4.936  0.4676 -0.4175 -0.1844
 2978TIP3    H1 8898   0.810   1.446   4.913 -3.3494 -0.4065 -1.0607
 2978TIP3    H2 8899   0.720   1.555   4.967  0.9139  3.0075 -0.3162
 2979TIP3   OH2 8900   1.919   3.039   0.922 -0.1424  0.8291  0.0543
 2979TIP3    H1 8901   1.894   3.131   0.920 -0.8718  0.8224  3.2638
 2979TIP3    H2 8902   1.879   3.005   1.002 -0.4469 -2.4773 -1.3428
 2980TIP3   OH2 8903   5.094   2.180   2.589 -0.0755 -0.3644 -0.0588
 2980TIP3    H1 8904   5.068   2.255   2.536  1.2347 -1.1005 -1.8531
 2980TIP3    H2 8905   5.021   2.118   2.583 -1.1487  0.6735  1.4073
 2981TIP3   OH2 8906   1.296   4.584   0.609 -0.1272 -0.1501  0.1380
 2981TIP3    H1 8907   1.358   4.511   0.610 -0.1659 -0.1967 -0.4223
 2981TIP3    H2 8908   1.254   4.579   0.523 -0.3270  0.3679  0.1985
 2982TIP3   OH2 8909   6.579   0.407   3.993  0.3971  0.0783  0.4719
 2982TIP3    H1 8910   6.674   0.390   3.995  0.3685 -0.1581  0.0481
 2982TIP3    H2 8911   6.540   0.329   4.033  0.3216 -0.3930 -0.4931
 2983TIP3   OH2 8912   6.152   6.679   2.744  0.6469  0.0376  0.1449
 2983TIP3    H1 8913   6.160   6.668   2.650  0.0509 -0.7863  0.1702
 2983TIP3    H2 8914   6.093   6.608   2.771 -0.0361  0.8894  0.9833
 2984TIP3   OH2 8915   4.877   3.294   0.368  0.7738  0.0759 -0.1396
 2984TIP3    H1 8916   4.916   3.278   0.454 -1.0039 -0.3196  0.6325
 2984TIP3    H2 8917   4.952   3.314   0.311  2.0400 -0.2521  1.3463
 2985TIP3   OH2 8918   6.217   6.487   1.477  0.0416  0.2079 -0.4263
 2985TIP3    H1 8919   6.227   6.508   1.384 -1.0009 -0.6584 -0.7449
 2985TIP3    H2 8920   6.127   6.511   1.497  0.1550  0.0460  0.2814
 2986TIP3   OH2 8921   2.587   5.804   5.237 -0.1731  0.3337 -0.0737
 2986TIP3    H1 8922   2.568   5.771   5.324 -0.8634  0.4394 -0.1783
 2986TIP3    H2 8923   2.617   5.894   5.251  2.2584 -0.4428  0.2606
 2987TIP3   OH2 8924   6.828   6.320   2.233  0.1870 -0.9760  0.3009
 2987TIP3    H1 8925   6.814   6.408   2.270  1.1988 -0.3520 -0.7326
 2987TIP3    H2 8926   6.854   6.337   2.143 -0.0417 -2.3770 -0.0374
 2988TIP3   OH2 8927   2.853   4.771   3.040  0.2252 -0.2187  0.0223
 2988TIP3    H1 8928   2.768   4.764   3.081 -0.6077  1.5809 -1.2747
 2988TIP3    H2 8929   2.891   4.852   3.074  1.2214 -0.7354  0.2016
 2989TIP3   OH2 8930   4.799   3.108   4.275 -0.2566 -0.4306 -0.4088
 2989TIP3    H1 8931   4.746   3.186   4.258  0.4849 -0.0217 -0.8518
 2989TIP3    H2 8932   4.796   3.097   4.370  1.6496  1.5851 -0.0422
 2990TIP3   OH2 8933   4.207   4.203   2.140 -0.1662  0.0347 -0.2734
 2990TIP3    H1 8934   4.274   4.253   2.094 -0.1812  0.2045 -0.1154
 2990TIP3    H2 8935   4.220   4.225   2.233 -0.0758 -0.3787 -0.1897
 2991TIP3   OH2 8936   1.262   5.044   1.628 -0.0768  0.0693 -0.3946
 2991TIP3    H1 8937   1.220   4.965   1.593  0.7555 -0.2907 -0.6159
 2991TIP3    H2 8938   1.249   5.038   1.722 -2.0318  0.8642 -0.5820
 2992TIP3   OH2 8939   0.306   5.731   3.955 -0.3005  0.8077  0.5146
 2992TIP3    H1 8940   0.298   5.798   4.022  0.3424 -0.5976  2.0408
 2992TIP3    H2 8941   0.398   5.703   3.958 -0.6829 -0.5685  0.3649
 2993TIP3   OH2 8942   6.880   4.936   3.239 -0.1779  0.1467 -0.0199
 2993TIP3    H1 8943   6.938   4.905   3.308 -1.4832  0.0095  1.0528
 2993TIP3    H2 8944   6.906   4.886   3.161  1.8087  0.8439  0.1519
 2994TIP3   OH2 8945   6.117   6.268   3.648 -0.1468 -0.1422 -0.0701
 2994TIP3    H1 8946   6.098   6.212   3.573  0.5931  0.0539 -0.4167
 2994TIP3    H2 8947   6.212   6.264   3.658  0.0160  1.5867 -0.5426
 2995TIP3   OH2 8948   5.562   2.960   1.691 -0.0320 -0.1348  0.5737
 2995TIP3    H1 8949   5.644   2.910   1.685  0.8175  0.9118  2.7158
 2995TIP3    H2 8950   5.590   3.050   1.708 -1.6232  0.5044 -0.0519
 2996TIP3   OH2 8951   3.220   5.777   5.306 -0.1961  0.1610 -0.5019
 2996TIP3    H1 8952   3.208   5.698   5.359  1.3306  0.2359 -0.0009
 2996TIP3    H2 8953   3.314   5.781   5.290 -0.1401  2.2274  0.0367
 2997TIP3   OH2 8954   7.101   4.379   2.080 -0.4834  0.8575  0.0218
 2997TIP3    H1 8955   7.119   4.353   2.170  0.0399 -0.6331 -0.4810
 2997TIP3    H2 8956   7.177   4.432   2.054  0.5169 -0.6533 -0.2601
 2998TIP3   OH2 8957   4.959   4.741   4.160  0.5854  0.1259  0.6051
 2998TIP3    H1 8958   5.042   4.787   4.175 -0.2960  1.5936  1.1257
 2998TIP3    H2 8959   4.941   4.697   4.243  0.8999 -0.3271  0.4410
 2999TIP3   OH2 8960   1.379   1.331   5.284  0.5223  0.2851 -0.1599
 2999TIP3    H1 8961   1.291   1.312   5.253 -0.4836  2.2733  1.3019
 2999TIP3    H2 8962   1.403   1.413   5.241  2.2142 -0.8054 -1.4738
 3000TIP3   OH2 8963   5.164   3.659   5.443  0.1588 -0.4220 -0.1665
 3000TIP3    H1 8964   5.173   3.730   5.380  0.3108 -0.8333 -0.6165
 3000TIP3    H2 8965   5.130   3.701   5.522 -2.4823 -0.2515 -1.2874
 3001TIP3   OH2 8966   6.165   2.087   3.610  0.3647  0.0384 -0.4989
 3001TIP3    H1 8967   6.231   2.144   3.649  0.6151 -0.4748 -0.1573
 3001TIP3    H2 8968   6.214   2.011   3.579 -0.1302 -0.6278  0.3062
 3002TIP3   OH2 8969   3.248   3.986   2.478 -0.0481  0.1741 -0.6885
 3002TIP3    H1 8970   3.266   4.076   2.450 -0.1313  1.8664  3.8401
 3002TIP3    H2 8971   3.153   3.984   2.493 -0.0489 -0.6790 -0.7449
 3003TIP3   OH2 8972   5.395   1.401   5.218  0.1068  0.1118 -0.5021
 3003TIP3    H1 8973   5.342   1.454   5.278  0.5927 -0.9867  0.9549
 3003TIP3    H2 8974   5.457   1.463   5.179  1.3593  0.5193  1.9569
 3004TIP3   OH2 8975   3.385   4.386   4.408 -0.2602 -0.3717  0.0134
 3004TIP3    H1 8976   3.291   4.371   4.400 -0.4954 -0.3575  2.1679
 3004TIP3    H2 8977   3.408   4.351   4.494  1.8270 -0.8866 -0.6774
 3005TIP3   OH2 8978   2.118   1.092   5.391  0.1348 -0.0493  0.3239
 3005TIP3    H1 8979   2.036   1.075   5.438  0.1560 -3.2589 -0.5441
 3005TIP3    H2 8980   2.090   1.135   5.310 -0.4430  0.8536  0.9915
 3006TIP3   OH2 8981   1.108   0.285   0.987 -0.3589  0.5688 -0.1432
 3006TIP3    H1 8982   1.074   0.278   0.898  0.6050  0.2280 -0.5029
 3006TIP3    H2 8983   1.033   0.266   1.043 -1.3646  2.3087 -0.8161
 3007TIP3   OH2 8984   2.064   0.787   3.711  0.1431  0.5649 -0.3689
 3007TIP3    H1 8985   2.048   0.705   3.757 -0.2128  0.3714 -0.8310
 3007TIP3    H2 8986   2.103   0.761   3.628  1.3243  0.9383  0.0409
 3008TIP3   OH2 8987   5.885   0.147   0.236  0.6873 -0.2780 -0.5110
 3008TIP3    H1 8988   5.804   0.099   0.218  0.5677 -0.4500  0.4335
 3008TIP3    H2 8989   5.946   0.116   0.169  0.4790 -1.4034 -0.2055
 3009TIP3   OH2 8990   1.567   1.861   5.645 -0.0706 -0.4206 -0.2669
 3009TIP3    H1 8991   1.584   1.955   5.638  0.7860 -0.4140  1.3063
 3009TIP3    H2 8992   1.506   1.854   5.719  1.1317 -1.1752  0.7000
 3010TIP3   OH2 8993   6.321   6.756   2.301  0.0018 -0.4207 -0.6557
 3010TIP3    H1 8994   6.279   6.709   2.373 -0.1702  0.8875  0.1298
 3010TIP3    H2 8995   6.251   6.771   2.238 -0.6020  1.1800  0.3533
 3011TIP3   OH2 8996   5.112   0.404   0.706  0.1524  0.0277 -0.0329
 3011TIP3    H1 8997   5.164   0.397   0.786 -0.8958 -0.2480  0.6533
 3011TIP3    H2 8998   5.052   0.329   0.710 -1.8710  1.5713  0.4100
 3012TIP3   OH2 8999   2.928   3.790   2.309 -0.0525 -0.1471  0.4660
 3012TIP3    H1 9000   2.888   3.716   2.265  1.5023 -0.0485 -1.2349
 3012TIP3    H2 9001   3.022   3.769   2.312  0.7527  2.4410 -1.7830
 3013TIP3   OH2 9002   4.267   6.434   2.070 -0.8498  0.0536  0.1782
 3013TIP3    H1 9003   4.202   6.405   2.134 -0.9089 -3.0349 -1.0969
 3013TIP3    H2 9004   4.349   6.397   2.101 -0.7454 -0.8312 -1.0550
 3014TIP3   OH2 9005   4.468   4.059   1.816  0.2685  0.0622 -0.4396
 3014TIP3    H1 9006   4.403   4.080   1.748 -1.4137 -1.4278  0.6114
 3014TIP3    H2 9007   4.523   3.991   1.777 -0.5087 -0.5805 -0.4483
 3015TIP3   OH2 9008   1.290   6.417   4.143  0.1160  0.0850  0.2932
 3015TIP3    H1 9009   1.248   6.376   4.219 -1.6847  0.0563 -0.6710
 3015TIP3    H2 9010   1.276   6.355   4.072  0.6037  0.7268 -0.3717
 3016TIP3   OH2 9011   3.993   4.909   4.576  0.5258  0.3971  0.1085
 3016TIP3    H1 9012   4.020   4.892   4.486  0.2405  1.3859 -0.1873
 3016TIP3    H2 9013   4.011   5.003   4.589  1.4450  0.0809  1.3975
 3017TIP3   OH2 9014   4.868   5.963   0.602  0.0838  0.4010 -0.2332
 3017TIP3    H1 9015   4.792   5.910   0.626  0.2075  0.6267  0.7097
 3017TIP3    H2 9016   4.933   5.944   0.670  0.4020  1.1862 -0.3077
 3018TIP3   OH2 9017   4.764   5.469   1.593  1.0128  0.7462  0.1080
 3018TIP3    H1 9018   4.703   5.422   1.649  3.1516 -0.1615  1.8224
 3018TIP3    H2 9019   4.741   5.441   1.504  0.4409 -1.4015  0.8731
 3019TIP3   OH2 9020   3.358   4.176   2.836 -0.1291 -0.2749 -0.3076
 3019TIP3    H1 9021   3.337   4.265   2.865  0.8350 -0.0203 -0.3630
 3019TIP3    H2 9022   3.406   4.188   2.754 -1.4751 -0.9267 -1.2245
 3020TIP3   OH2 9023   0.031   0.649   3.142 -0.1704 -0.5450  0.2228
 3020TIP3    H1 9024   0.120   0.615   3.134  0.4954  0.8864  1.1304
 3020TIP3    H2 9025   0.037   0.715   3.211 -1.4222  1.2539 -1.2943
 3021TIP3   OH2 9026   3.497   6.286   0.441  0.0618  0.1238  0.0628
 3021TIP3    H1 9027   3.582   6.326   0.459 -0.5293  1.7835 -0.6249
 3021TIP3    H2 9028   3.433   6.351   0.470 -1.0005 -1.1244  0.6279
 3022TIP3   OH2 9029   0.841   1.034   2.360  0.2848  0.2242 -0.1261
 3022TIP3    H1 9030   0.785   1.045   2.437  0.4450  1.7017 -0.2044
 3022TIP3    H2 9031   0.779   1.031   2.287  0.2399  0.5907 -0.1021
 3023TIP3   OH2 9032   0.703   5.993   4.846 -0.4899  0.5793 -0.0573
 3023TIP3    H1 9033   0.669   6.044   4.920 -1.7005 -0.8753  0.4197
 3023TIP3    H2 9034   0.637   5.926   4.830  0.5282 -0.1491 -1.4182
 3024TIP3   OH2 9035   2.519   3.575   2.086  0.4300 -0.0041 -0.4306
 3024TIP3    H1 9036   2.497   3.660   2.048  0.9509  0.8172  1.0458
 3024TIP3    H2 9037   2.434   3.535   2.106  0.1919  0.7165  0.0208
 3025TIP3   OH2 9038   4.293   1.365   1.783 -0.0731  0.7979  0.5027
 3025TIP3    H1 9039   4.241   1.446   1.779  0.3892  1.1018  0.5238
 3025TIP3    H2 9040   4.242   1.301   1.733  0.1088  1.4221 -0.5032
 3026TIP3   OH2 9041   1.437   2.900   2.436  0.1220  0.0454  0.2731
 3026TIP3    H1 9042   1.443   2.816   2.392  0.2721  0.5352 -0.6738
 3026TIP3    H2 9043   1.513   2.903   2.495  0.0717 -0.4981  0.3707
 3027TIP3   OH2 9044   6.405   6.005   2.187  0.5066  0.3342 -0.0295
 3027TIP3    H1 9045   6.432   6.062   2.114  0.4392 -0.2005 -0.4762
 3027TIP3    H2 9046   6.444   6.046   2.264 -1.2164  2.1723 -0.0369
 3028TIP3   OH2 9047   0.007   1.980   1.137  0.5000  0.3387 -0.0872
 3028TIP3    H1 9048   0.010   1.966   1.232 -1.3064  0.1435 -0.0236
 3028TIP3    H2 9049   0.020   2.074   1.126  0.5826  0.3815  0.3554
 3029TIP3   OH2 9050   4.959   3.254   2.016 -0.2537  0.0492  0.0646
 3029TIP3    H1 9051   4.952   3.331   2.073  1.6690 -0.2957  0.8229
 3029TIP3    H2 9052   4.900   3.274   1.942 -1.0002  1.5277  1.0098
 3030TIP3   OH2 9053   5.607   1.492   0.977  0.0702  0.0713 -0.7368
 3030TIP3    H1 9054   5.610   1.557   1.048 -2.3293 -0.5125 -0.0233
 3030TIP3    H2 9055   5.699   1.478   0.954  1.0598 -0.3598  2.8632
 3031TIP3   OH2 9056   2.491   5.084   0.142 -0.1190  0.1522  0.1464
 3031TIP3    H1 9057   2.548   5.092   0.218 -0.1385 -0.5096  0.2375
 3031TIP3    H2 9058   2.549   5.097   0.067 -0.0523  0.5562  0.2667
 3032TIP3   OH2 9059   5.794   4.106   3.956 -0.1330  0.1422  0.0232
 3032TIP3    H1 9060   5.727   4.163   3.918  1.3473  1.8726 -0.1450
 3032TIP3    H2 9061   5.860   4.099   3.888 -1.3123 -3.9303 -0.9630
 3033TIP3   OH2 9062   3.406   6.298   0.185 -0.4389 -0.0249  0.2949
 3033TIP3    H1 9063   3.326   6.349   0.175 -0.0448  0.4488 -0.4940
 3033TIP3    H2 9064   3.414   6.284   0.279 -1.6273 -0.3762  0.3599
 3034TIP3   OH2 9065   0.503   4.701   5.127  0.0544  0.1786 -0.2364
 3034TIP3    H1 9066   0.580   4.679   5.076 -0.9116 -1.4880 -1.0469
 3034TIP3    H2 9067   0.472   4.783   5.089 -0.8598 -1.2166 -2.6747
 3035TIP3   OH2 9068   6.420   5.122   0.683 -0.2277  0.2797  0.2959
 3035TIP3    H1 9069   6.412   5.114   0.588  0.1885  0.2290  0.2636
 3035TIP3    H2 9070   6.406   5.033   0.716  0.4437  0.1437  0.2216
 3036TIP3   OH2 9071   3.143   6.187   1.791 -0.0432  0.3814  0.4628
 3036TIP3    H1 9072   3.108   6.150   1.710  0.5541 -1.7962  1.1215
 3036TIP3    H2 9073   3.143   6.282   1.776 -1.1000  0.1251 -1.5864
 3037TIP3   OH2 9074   4.545   2.385   2.949  0.1662 -0.0949  0.6729
 3037TIP3    H1 9075   4.550   2.449   3.020  0.2285 -0.8669  1.3822
 3037TIP3    H2 9076   4.613   2.413   2.887 -2.1157  2.5962 -0.8285
 3038TIP3   OH2 9077   2.163   5.878   1.838 -0.3448 -0.4700 -0.2105
 3038TIP3    H1 9078   2.083   5.857   1.788  0.5022  0.9697 -2.2975
 3038TIP3    H2 9079   2.164   5.813   1.908 -2.1278 -2.0265 -1.5000
 3039TIP3   OH2 9080   4.813   4.617   4.419 -0.1424  0.6043  0.2915
 3039TIP3    H1 9081   4.854   4.546   4.468 -0.9160  1.0214  1.5833
 3039TIP3    H2 9082   4.726   4.585   4.398 -0.5180  1.1656  0.9327
 3040TIP3   OH2 9083   5.248   6.383   2.666 -0.2143 -0.4011  0.1355
 3040TIP3    H1 9084   5.211   6.337   2.591 -0.8035 -1.2664  0.9503
 3040TIP3    H2 9085   5.231   6.326   2.741 -2.3140  1.7608  1.4414
 3041TIP3   OH2 9086   6.485   2.564   1.187 -0.3003 -0.2793 -0.5921
 3041TIP3    H1 9087   6.407   2.600   1.143  0.2383 -0.1234 -1.4524
 3041TIP3    H2 9088   6.457   2.550   1.277 -1.2813 -0.0759 -0.8465
 3042TIP3   OH2 9089   1.590   6.456   0.559  0.0985  0.2591 -0.7488
 3042TIP3    H1 9090   1.499   6.473   0.532  0.5559 -0.0099 -2.6257
 3042TIP3    H2 9091   1.626   6.542   0.579 -1.0681  0.2240  1.9556
 3043TIP3   OH2 9092   3.299   2.918   4.581  0.7438 -0.5845  0.1109
 3043TIP3    H1 9093   3.340   2.999   4.550 -0.2964  0.2662  0.8728
 3043TIP3    H2 9094   3.340   2.849   4.528  2.2517  0.3330  0.0111
 3044TIP3   OH2 9095   3.194   5.190   0.986  0.3899 -0.3281  0.0609
 3044TIP3    H1 9096   3.242   5.117   0.948  1.9765  0.6232  0.1477
 3044TIP3    H2 9097   3.255   5.228   1.049 -1.0178  0.0660  1.2377
 3045TIP3   OH2 9098   2.412   3.621   4.814  0.5711  0.5171  0.6781
 3045TIP3    H1 9099   2.453   3.705   4.797 -1.3176  1.4879  0.7106
 3045TIP3    H2 9100   2.362   3.633   4.895  1.9156 -1.2738  1.8514
 3046TIP3   OH2 9101   4.359   6.134   1.070  0.2399  0.2522  0.5160
 3046TIP3    H1 9102   4.398   6.057   1.113 -0.5993  0.2037  1.2081
 3046TIP3    H2 9103   4.399   6.209   1.115 -0.4208  0.2030  1.1963
 3047TIP3   OH2 9104   4.431   0.471   1.020 -0.2517 -0.0308 -0.2350
 3047TIP3    H1 9105   4.402   0.445   0.933 -1.0787 -1.7686  0.5034
 3047TIP3    H2 9106   4.473   0.392   1.055  1.6010  1.1604  0.3228
 3048TIP3   OH2 9107   6.872   1.828   4.396 -0.1859  0.0848  0.6006
 3048TIP3    H1 9108   6.893   1.750   4.344  1.2265  1.2738 -0.6854
 3048TIP3    H2 9109   6.793   1.863   4.357  0.0894  0.1992  0.1483
 3049TIP3   OH2 9110   2.052   1.103   1.619 -0.3008 -0.5199 -0.3259
 3049TIP3    H1 9111   2.043   1.010   1.642 -2.1283 -0.4947 -0.7844
 3049TIP3    H2 9112   2.144   1.123   1.635 -0.7835 -1.0662  4.7662
 3050TIP3   OH2 9113   4.680   3.974   2.903 -0.3893  0.4325 -0.0827
 3050TIP3    H1 9114   4.728   4.053   2.932 -2.0515  0.9460  1.4511
 3050TIP3    H2 9115   4.729   3.902   2.942 -0.7890  0.9518  1.4866
 3051TIP3   OH2 9116   2.253   2.484   3.538  0.0822 -0.1228  0.1154
 3051TIP3    H1 9117   2.167   2.524   3.521 -1.0240 -1.1440  2.7944
 3051TIP3    H2 9118   2.233   2.394   3.562  2.0538 -0.7478 -0.4652
 3052TIP3   OH2 9119   0.557   1.260   0.556  0.2412  0.6517 -0.2227
 3052TIP3    H1 9120   0.559   1.176   0.511  0.2875  1.1255 -1.1428
 3052TIP3    H2 9121   0.607   1.246   0.637 -2.7514 -1.1703  1.4739
 3053TIP3   OH2 9122   2.549   4.546   2.205 -0.3804 -0.0043 -0.3099
 3053TIP3    H1 9123   2.540   4.474   2.142 -0.9826 -0.4055  0.2152
 3053TIP3    H2 9124   2.459   4.564   2.234 -0.0022 -1.0626  1.7530
 3054TIP3   OH2 9125   4.322   1.784   5.172 -0.5189  0.5182 -0.0701
 3054TIP3    H1 9126   4.306   1.740   5.256  0.2640 -1.4359 -0.8973
 3054TIP3    H2 9127   4.415   1.807   5.175 -0.2380 -0.4548 -0.7678
 3055TIP3   OH2 9128   0.367   1.416   0.987 -0.4553  0.4455  0.2037
 3055TIP3    H1 9129   0.376   1.431   1.081 -2.2504 -1.0754  0.6796
 3055TIP3    H2 9130   0.455   1.430   0.951  0.8153 -1.2162  2.4500
 3056TIP3   OH2 9131   0.739   6.720   0.144 -0.0717 -0.1945 -0.7447
 3056TIP3    H1 9132   0.704   6.686   0.226 -0.3286  0.5327 -0.5431
 3056TIP3    H2 9133   0.803   6.655   0.117 -1.7199 -1.6755 -1.2517
 3057TIP3   OH2 9134   6.998   1.045   2.981  0.4170  0.1438  0.5556
 3057TIP3    H1 9135   6.967   0.956   2.996 -0.0048  0.6418  3.0821
 3057TIP3    H2 9136   6.918   1.095   2.960  0.4930  0.1501  0.2765
 3058TIP3   OH2 9137   5.161   2.000   2.909  0.5679  0.1101 -0.5968
 3058TIP3    H1 9138   5.239   1.995   2.853  0.0144  0.6418 -1.4213
 3058TIP3    H2 9139   5.184   1.945   2.985  1.0294 -1.2905 -1.6953
 3059TIP3   OH2 9140   7.070   1.281   5.811 -0.2940  0.3842  0.4516
 3059TIP3    H1 9141   6.996   1.331   5.776  0.3431  0.8337 -0.2915
 3059TIP3    H2 9142   7.057   1.193   5.777  0.3968  0.8457 -1.1122
 3060TIP3   OH2 9143   5.994   2.988   5.647  0.2920 -0.7879  0.4171
 3060TIP3    H1 9144   6.035   2.905   5.622  2.7813  0.5406 -0.2759
 3060TIP3    H2 9145   6.056   3.055   5.618 -0.7145  1.2481  2.6213
 3061TIP3   OH2 9146   2.325   2.543   1.288 -0.1684  0.2676  0.3475
 3061TIP3    H1 9147   2.419   2.528   1.286 -0.0856  0.5207 -3.2074
 3061TIP3    H2 9148   2.286   2.464   1.252 -1.2456  0.6041  0.7106
 3062TIP3   OH2 9149   0.039   6.637   5.845  0.4738 -1.1318  0.1845
 3062TIP3    H1 9150   0.061   6.726   5.873 -0.6980 -0.8818  0.3824
 3062TIP3    H2 9151   0.118   6.604   5.803  0.9294 -0.0018  0.1338
 3063TIP3   OH2 9152   5.928   5.109   1.698 -0.1046  0.2258 -0.0508
 3063TIP3    H1 9153   5.976   5.037   1.739  0.9921  0.8764 -0.1679
 3063TIP3    H2 9154   5.875   5.146   1.769  0.4234  0.2145  0.3509
 3064TIP3   OH2 9155   1.460   5.276   3.010  0.0877 -0.0688 -0.1019
 3064TIP3    H1 9156   1.462   5.263   3.105 -1.4173 -0.1439 -0.0492
 3064TIP3    H2 9157   1.473   5.188   2.974  0.9137 -0.0047  0.0081
 3065TIP3   OH2 9158   6.824   5.820   3.360 -0.0136  0.2725 -0.0882
 3065TIP3    H1 9159   6.896   5.863   3.314  1.2528 -0.4014  1.1848
 3065TIP3    H2 9160   6.858   5.734   3.383 -0.9255  0.2557  1.3042
 3066TIP3   OH2 9161   2.028   3.554   4.822 -0.0607 -0.3397 -0.4833
 3066TIP3    H1 9162   1.953   3.575   4.878 -1.1165 -0.5831 -1.7798
 3066TIP3    H2 9163   2.022   3.460   4.807  2.0944 -0.9297  1.5976
 3067TIP3   OH2 9164   3.052   3.054   3.901 -0.5569  0.3439 -0.1281
 3067TIP3    H1 9165   3.040   2.986   3.835 -0.4352  0.4224 -0.2292
 3067TIP3    H2 9166   2.979   3.115   3.886 -2.3618 -1.1983  1.7303
 3068TIP3   OH2 9167   2.000   1.556   1.456  0.1535  0.0870  0.3434
 3068TIP3    H1 9168   2.051   1.588   1.531  0.6724 -0.5422  0.2638
 3068TIP3    H2 9169   2.064   1.511   1.401 -0.4524 -0.5450  0.1470
 3069TIP3   OH2 9170   0.735   0.780   2.639  0.1369 -0.2351  0.0549
 3069TIP3    H1 9171   0.692   0.850   2.589  0.4222  0.0298  0.1745
 3069TIP3    H2 9172   0.808   0.824   2.683  0.5022 -0.6764 -0.1094
 3070TIP3   OH2 9173   2.873   1.993   0.530  0.0659  0.2795 -0.3730
 3070TIP3    H1 9174   2.844   2.064   0.587 -1.7416  0.9513 -2.0295
 3070TIP3    H2 9175   2.958   2.020   0.498 -0.3700  1.4630 -0.5630
 3071TIP3   OH2 9176   2.154   3.259   3.669  0.7155 -0.0083 -0.0545
 3071TIP3    H1 9177   2.154   3.349   3.636 -0.7600  1.1477  2.7123
 3071TIP3    H2 9178   2.067   3.225   3.649  1.0974 -0.6818 -0.6414
 3072TIP3   OH2 9179   6.440   0.577   0.486 -0.5626 -0.5437  0.4635
 3072TIP3    H1 9180   6.345   0.569   0.473 -0.2570 -2.6714 -1.0011
 3072TIP3    H2 9181   6.453   0.563   0.579 -1.6427 -0.9273  0.5698
 3073TIP3   OH2 9182   1.288   1.148   4.261  0.2280 -0.1492 -0.1700
 3073TIP3    H1 9183   1.367   1.138   4.208 -0.4874 -0.5172 -1.1940
 3073TIP3    H2 9184   1.253   1.059   4.268  0.9443 -0.3208  1.9599
 3074TIP3   OH2 9185   3.024   2.555   5.120  0.3846 -0.2153 -0.9330
 3074TIP3    H1 9186   2.964   2.593   5.184  0.6951  0.6133 -1.1210
 3074TIP3    H2 9187   3.092   2.621   5.109  0.3172 -0.3212 -2.1360
 3075TIP3   OH2 9188   0.550   0.540   5.625  0.3325  1.1259  0.1809
 3075TIP3    H1 9189   0.585   0.499   5.704 -0.4521 -0.0147 -0.0454
 3075TIP3    H2 9190   0.617   0.526   5.558 -0.6652 -1.4838 -0.3818
 3076TIP3   OH2 9191   0.480   4.353   5.292  0.1276  0.0532 -0.3924
 3076TIP3    H1 9192   0.448   4.281   5.347  1.5957  0.3093  0.8481
 3076TIP3    H2 9193   0.464   4.432   5.344  1.2197  0.3308 -0.4615
 3077TIP3   OH2 9194   6.890   6.362   1.706 -0.2554 -0.3975  0.2728
 3077TIP3    H1 9195   6.813   6.395   1.659 -0.8862 -2.3570 -0.1464
 3077TIP3    H2 9196   6.963   6.383   1.649 -0.7131 -0.3511 -0.3073
 3078TIP3   OH2 9197   7.088   3.612   2.969 -0.3831 -0.4041  0.0566
 3078TIP3    H1 9198   7.183   3.622   2.958 -0.2027  0.7117  2.1827
 3078TIP3    H2 9199   7.060   3.694   3.008 -1.9361 -1.4165  1.1757
 3079TIP3   OH2 9200   6.312   2.414   4.196 -1.0944  0.0935 -0.1035
 3079TIP3    H1 9201   6.336   2.322   4.201  0.0221  0.4081  0.6736
 3079TIP3    H2 9202   6.294   2.440   4.286  1.5350  1.3500  0.1498
 3080TIP3   OH2 9203   3.406   0.508   4.860 -0.2629  0.3072  0.1180
 3080TIP3    H1 9204   3.388   0.457   4.939  0.2102 -0.4087 -0.2236
 3080TIP3    H2 9205   3.335   0.485   4.800  0.3807 -0.6035 -0.3291
 3081TIP3   OH2 9206   1.057   5.976   4.812  0.2573  0.1251 -0.4015
 3081TIP3    H1 9207   1.122   5.918   4.852  0.3455  0.9196  0.6425
 3081TIP3    H2 9208   1.013   6.017   4.887  0.6516  1.9127 -1.1064
 3082TIP3   OH2 9209   0.673   3.218   4.379  0.1877  0.5694 -0.5245
 3082TIP3    H1 9210   0.707   3.307   4.385  3.2359 -0.4370 -1.0838
 3082TIP3    H2 9211   0.664   3.202   4.285  1.3496 -0.2408 -0.5174
 3083TIP3   OH2 9212   0.606   4.386   2.939 -0.4786  0.2122 -0.0409
 3083TIP3    H1 9213   0.522   4.431   2.954 -0.9725 -0.4677 -0.7212
 3083TIP3    H2 9214   0.615   4.383   2.844  0.2603  0.1513  0.0240
 3084TIP3   OH2 9215   4.353   3.061   2.925 -0.2963  0.3919 -0.3277
 3084TIP3    H1 9216   4.356   3.050   2.830  0.4777 -0.9342 -0.1639
 3084TIP3    H2 9217   4.443   3.048   2.954 -0.4982  0.9107  0.5926
 3085TIP3   OH2 9218   0.132   0.212   4.691  0.1782  0.0440  0.3705
 3085TIP3    H1 9219   0.175   0.247   4.613  0.0762 -0.3897  0.1145
 3085TIP3    H2 9220   0.205   0.187   4.748  0.2478  1.0168  0.7184
 3086TIP3   OH2 9221   1.762   3.384   2.988 -0.5269  0.1065 -0.0933
 3086TIP3    H1 9222   1.696   3.443   3.023  0.8532  0.9502  1.1987
 3086TIP3    H2 9223   1.766   3.312   3.050  0.7040  0.7498  0.6160
 3087TIP3   OH2 9224   6.418   4.096   3.122 -0.5290 -0.0459 -0.6503
 3087TIP3    H1 9225   6.508   4.062   3.123 -0.4433  0.0795 -2.0406
 3087TIP3    H2 9226   6.422   4.170   3.061 -1.1671  1.1912  0.7492
 3088TIP3   OH2 9227   1.230   2.412   3.447  0.1524  0.1233  0.2274
 3088TIP3    H1 9228   1.320   2.441   3.460  0.1868 -0.6825  2.2023
 3088TIP3    H2 9229   1.179   2.467   3.506 -0.6939  0.6852 -0.9954
 3089TIP3   OH2 9230   5.530   1.689   3.981  0.0137 -0.1626  1.1349
 3089TIP3    H1 9231   5.589   1.718   3.912  0.5267  0.3987  1.7868
 3089TIP3    H2 9232   5.560   1.601   4.003 -0.3813 -0.4870  0.4082
 3090TIP3   OH2 9233   2.042   0.501   5.391 -0.2673  0.2547  0.1959
 3090TIP3    H1 9234   1.952   0.495   5.360 -0.1467 -0.1803 -0.0798
 3090TIP3    H2 9235   2.086   0.556   5.326 -0.0034 -0.6961 -0.4401
 3091TIP3   OH2 9236   6.514   5.293   1.356  0.1142 -0.3785  0.8066
 3091TIP3    H1 9237   6.586   5.240   1.323 -0.0625 -0.0530 -0.1273
 3091TIP3    H2 9238   6.448   5.230   1.384 -1.4448 -0.8289 -3.1646
 3092TIP3   OH2 9239   3.964   5.167   3.796 -0.6502  0.5098 -0.4540
 3092TIP3    H1 9240   3.895   5.106   3.769  1.9538 -2.3655 -1.2317
 3092TIP3    H2 9241   3.920   5.230   3.853 -3.7917 -1.4332 -0.5001
 3093TIP3   OH2 9242   2.904   1.727   0.253 -0.1496 -0.4081 -0.2989
 3093TIP3    H1 9243   2.808   1.726   0.253 -0.1536 -0.0716 -0.4558
 3093TIP3    H2 9244   2.928   1.775   0.174  0.1721 -2.1908 -1.3498
 3094TIP3   OH2 9245   1.617   0.283   5.224  0.3107 -0.0207 -0.0327
 3094TIP3    H1 9246   1.532   0.322   5.204  0.7672  2.6697  2.5946
 3094TIP3    H2 9247   1.598   0.220   5.294  0.5044  0.7975  0.7613
 3095TIP3   OH2 9248   4.962   5.612   1.705  0.5320 -0.5738  0.5763
 3095TIP3    H1 9249   4.918   5.655   1.778  1.0399 -1.9517  1.7269
 3095TIP3    H2 9250   4.891   5.574   1.653  0.1715  0.3667  0.3520
 3096TIP3   OH2 9251   3.255   2.290   2.549  0.5929  0.4796 -0.7915
 3096TIP3    H1 9252   3.282   2.377   2.521  0.8942  0.6518 -0.0032
 3096TIP3    H2 9253   3.278   2.233   2.475  2.2466  0.7663 -0.5558
 3097TIP3   OH2 9254   1.556   2.663   4.124  0.0151 -0.0255 -0.5697
 3097TIP3    H1 9255   1.601   2.744   4.147  0.1313 -0.6956  1.7955
 3097TIP3    H2 9256   1.473   2.668   4.170 -0.0515 -1.1692 -0.5441
 3098TIP3   OH2 9257   3.058   6.002   0.211  0.2731 -0.0813  0.0315
 3098TIP3    H1 9258   3.087   5.913   0.191  1.3421  0.2162  0.1897
 3098TIP3    H2 9259   3.109   6.058   0.152 -0.4484  0.4325 -0.1274
 3099TIP3   OH2 9260   4.048   5.837   1.470 -0.4707  0.4990 -0.2906
 3099TIP3    H1 9261   4.052   5.862   1.377 -0.9525  0.0869 -0.4266
 3099TIP3    H2 9262   3.965   5.873   1.501  0.5970  2.4320  0.5334
 3100TIP3   OH2 9263   3.563   5.903   3.539  0.1774 -1.0674  0.7121
 3100TIP3    H1 9264   3.573   5.908   3.634  2.0879  0.9640  0.4700
 3100TIP3    H2 9265   3.510   5.980   3.516  2.4639  0.3536 -0.1149
 3101TIP3   OH2 9266   5.176   6.387   1.853  0.3410 -0.2616  0.7589
 3101TIP3    H1 9267   5.192   6.374   1.759 -2.2134  0.3356  0.1586
 3101TIP3    H2 9268   5.203   6.477   1.869 -1.7486  0.6069 -0.1412
 3102TIP3   OH2 9269   0.341   1.300   1.448 -0.5370  0.4695 -0.1782
 3102TIP3    H1 9270   0.369   1.328   1.535 -0.4790  0.1385 -0.0880
 3102TIP3    H2 9271   0.418   1.257   1.411 -0.3280  1.2533 -0.6838
 3103TIP3   OH2 9272   4.659   5.189   3.060  0.3809 -0.0615  0.4603
 3103TIP3    H1 9273   4.650   5.206   3.154  0.2197  0.2817  0.3820
 3103TIP3    H2 9274   4.747   5.152   3.051 -0.1250 -1.4366  0.9383
 3104TIP3   OH2 9275   0.249   6.345   3.140 -0.2876 -0.1483  0.8469
 3104TIP3    H1 9276   0.188   6.418   3.125 -0.4018 -0.4220 -0.0267
 3104TIP3    H2 9277   0.307   6.377   3.209 -1.3046  0.1841  1.5737
 3105TIP3   OH2 9278   2.113   0.996   2.547  0.1222 -0.0840 -0.1258
 3105TIP3    H1 9279   2.159   0.915   2.524 -0.3509 -0.1861 -0.7551
 3105TIP3    H2 9280   2.044   1.003   2.481 -0.3494  0.4072  0.4136
 3106TIP3   OH2 9281   5.671   6.069   1.686  0.2687  0.0847  0.4748
 3106TIP3    H1 9282   5.613   6.126   1.737 -0.3638  0.9664 -1.1481
 3106TIP3    H2 9283   5.625   5.985   1.683 -0.4988  0.5139 -0.0274
 3107TIP3   OH2 9284   4.984   2.150   2.000 -0.3564 -0.4156  0.2888
 3107TIP3    H1 9285   4.971   2.245   1.997 -0.7218 -0.4859 -1.0698
 3107TIP3    H2 9286   5.023   2.129   1.915 -0.0717 -1.4581  0.6673
 3108TIP3   OH2 9287   6.119   5.244   1.565  0.2422  0.2200  0.2045
 3108TIP3    H1 9288   6.045   5.190   1.592  0.3454 -0.3519 -0.6127
 3108TIP3    H2 9289   6.169   5.258   1.645  0.6215 -1.5500  0.3233
 3109TIP3   OH2 9290   1.594   2.043   4.879  0.2066  0.2073 -0.4185
 3109TIP3    H1 9291   1.562   2.104   4.812 -1.0003  2.0442  1.6709
 3109TIP3    H2 9292   1.526   1.976   4.883 -0.5815  1.0073  0.0843
 3110TIP3   OH2 9293   3.329   1.881   0.492 -0.9243 -0.4007 -0.0288
 3110TIP3    H1 9294   3.247   1.901   0.447  0.1824  2.3358 -1.0518
 3110TIP3    H2 9295   3.326   1.936   0.571 -0.3816 -0.8330  0.2988
 3111TIP3   OH2 9296   7.149   2.467   0.779  0.6107  0.1902  0.5150
 3111TIP3    H1 9297   7.130   2.552   0.740  1.5718 -0.7688 -2.3063
 3111TIP3    H2 9298   7.203   2.487   0.855  0.4250  2.1199  0.1915
 3112TIP3   OH2 9299   2.232   4.560   5.745  0.1468 -0.0715 -0.0885
 3112TIP3    H1 9300   2.319   4.570   5.706 -0.6521  0.7552 -1.7454
 3112TIP3    H2 9301   2.218   4.641   5.793  0.0371  0.0595 -0.3421
 3113TIP3   OH2 9302   1.332   4.567   4.358  0.1692  0.3644  0.2569
 3113TIP3    H1 9303   1.258   4.564   4.418 -2.1901 -0.6953 -2.4744
 3113TIP3    H2 9304   1.366   4.478   4.356  0.4434  0.4663  0.2613
 3114TIP3   OH2 9305   0.963   0.731   4.380  0.0520  0.6103 -0.2205
 3114TIP3    H1 9306   0.997   0.645   4.408  0.9476  0.3234 -2.0044
 3114TIP3    H2 9307   0.894   0.751   4.443  2.1044  0.2202  2.3670
 3115TIP3   OH2 9308   3.250   5.834   4.542  0.8433  0.5475 -0.6752
 3115TIP3    H1 9309   3.176   5.789   4.501 -0.3154  2.1756 -0.4510
 3115TIP3    H2 9310   3.327   5.792   4.504 -0.1891  0.3627 -2.7130
 3116TIP3   OH2 9311   2.049   4.370   5.215 -0.2446 -0.3048  0.3352
 3116TIP3    H1 9312   2.047   4.450   5.268 -0.6092  0.4806 -0.8205
 3116TIP3    H2 9313   2.009   4.303   5.271  1.0893  0.0280  1.7437
 3117TIP3   OH2 9314   3.561   5.756   2.311  0.5922  0.0711 -0.3225
 3117TIP3    H1 9315   3.629   5.709   2.359  0.7517  0.9271  0.3011
 3117TIP3    H2 9316   3.482   5.743   2.363  0.6572  0.5823 -0.0996
 3118TIP3   OH2 9317   6.112   0.322   4.304  0.5724 -0.4855  0.1323
 3118TIP3    H1 9318   6.179   0.306   4.370  0.7255 -0.5219 -0.0319
 3118TIP3    H2 9319   6.030   0.328   4.354  0.3818 -2.4852  0.1382
 3119TIP3   OH2 9320   1.300   6.580   3.421 -0.5238 -0.6210  0.4588
 3119TIP3    H1 9321   1.348   6.507   3.383  0.7686 -0.0754  0.9962
 3119TIP3    H2 9322   1.231   6.539   3.473 -0.6740 -1.4143 -0.3368
 3120TIP3   OH2 9323   1.022   2.268   1.938 -0.1054 -0.2414  0.0820
 3120TIP3    H1 9324   0.953   2.305   1.992  0.1153 -0.9174  0.8430
 3120TIP3    H2 9325   1.089   2.336   1.934 -0.0660 -0.2376  0.7753
 3121TIP3   OH2 9326   5.972   2.525   1.419 -0.3998 -0.0065  0.4308
 3121TIP3    H1 9327   6.028   2.599   1.443  0.3736 -0.8425  1.2879
 3121TIP3    H2 9328   5.889   2.565   1.393  0.6521  1.2774 -1.1447
 3122TIP3   OH2 9329   0.718   1.240   2.700 -0.2124 -0.5306  0.3195
 3122TIP3    H1 9330   0.651   1.235   2.768 -0.9754  2.0660 -0.0994
 3122TIP3    H2 9331   0.793   1.281   2.743 -0.5854  0.8271 -0.2351
 3123TIP3   OH2 9332   0.125   4.005   2.427  0.0296  0.3017  0.6909
 3123TIP3    H1 9333   0.220   4.004   2.428  0.0662  1.5701  2.0456
 3123TIP3    H2 9334   0.100   3.933   2.369  1.8057  0.5535 -0.4546
 3124TIP3   OH2 9335   5.128   1.051   1.527 -0.7550  0.0940  0.1976
 3124TIP3    H1 9336   5.154   1.133   1.570 -0.8498 -0.4851  1.4158
 3124TIP3    H2 9337   5.189   1.042   1.454 -1.8918  2.1568 -1.0958
 3125TIP3   OH2 9338   2.085   1.982   1.949 -0.0220 -0.3688 -0.2284
 3125TIP3    H1 9339   2.007   1.937   1.981  1.2825 -3.8362 -1.4613
 3125TIP3    H2 9340   2.139   1.912   1.912  2.0162  2.3545 -2.8341
 3126TIP3   OH2 9341   2.155   2.245   4.246 -0.9239  0.1362  0.1864
 3126TIP3    H1 9342   2.074   2.266   4.293 -0.7088 -0.9337  1.0937
 3126TIP3    H2 9343   2.162   2.312   4.178 -2.1141  0.7566  0.6461
 3127TIP3   OH2 9344   6.211   5.647   0.214  0.1368 -0.1087 -0.0444
 3127TIP3    H1 9345   6.220   5.694   0.297 -0.3526  0.3241 -0.2304
 3127TIP3    H2 9346   6.301   5.630   0.186  0.3109  0.1356  0.3515
 3128TIP3   OH2 9347   6.606   3.535   4.444  0.4273 -0.1023 -0.0872
 3128TIP3    H1 9348   6.597   3.587   4.364  1.0169  0.5078  0.2313
 3128TIP3    H2 9349   6.678   3.474   4.425  0.9590  0.4374  0.1788
 3129TIP3   OH2 9350   7.164   5.598   4.752  0.7086  0.1237  0.0696
 3129TIP3    H1 9351   7.106   5.607   4.677  1.2593  0.7343 -0.3016
 3129TIP3    H2 9352   7.134   5.665   4.814  1.2772  0.7438 -0.3094
 3130TIP3   OH2 9353   2.460   6.627   2.788 -0.5127 -0.5159  0.2403
 3130TIP3    H1 9354   2.415   6.544   2.774 -0.7801 -0.3692  0.2077
 3130TIP3    H2 9355   2.547   6.614   2.752 -0.5891 -0.7465  0.1362
 3131TIP3   OH2 9356   7.179   4.899   4.892  0.0782 -0.4598  0.3265
 3131TIP3    H1 9357   7.180   4.994   4.882  0.2946 -0.5274 -0.3322
 3131TIP3    H2 9358   7.204   4.885   4.983  1.6576  0.0713  0.0121
 3132TIP3   OH2 9359   2.648   6.592   0.061  0.4186  0.5829 -0.7935
 3132TIP3    H1 9360   2.617   6.538  -0.012  0.1801  0.3603 -0.5295
 3132TIP3    H2 9361   2.688   6.668   0.019  0.2848  0.4558 -1.1568
 3133TIP3   OH2 9362   0.946   4.311   5.756  0.1063  0.5963 -0.3556
 3133TIP3    H1 9363   1.038   4.286   5.759 -0.1521 -0.7251 -1.9988
 3133TIP3    H2 9364   0.898   4.229   5.767 -0.8581  1.0842 -0.7487
 3134TIP3   OH2 9365   3.167   1.461   1.105  0.0416 -0.0475  0.1996
 3134TIP3    H1 9366   3.162   1.369   1.131  2.8866 -0.9241 -1.8565
 3134TIP3    H2 9367   3.132   1.462   1.015  1.2345  0.5918 -0.2777
 3135TIP3   OH2 9368   6.858   1.977   2.210 -0.4024  0.0343 -0.7867
 3135TIP3    H1 9369   6.851   1.962   2.304 -1.3411 -0.5214 -0.9288
 3135TIP3    H2 9370   6.790   2.042   2.191  0.1368  0.5405 -1.0017
 3136TIP3   OH2 9371   0.828   0.309   2.266 -0.5259  0.3908  0.2826
 3136TIP3    H1 9372   0.822   0.380   2.330  1.9944 -0.7181  1.9138
 3136TIP3    H2 9373   0.774   0.239   2.303  0.2382  0.0610  0.8108
 3137TIP3   OH2 9374   3.923   1.656   5.785 -0.2338  0.7140  0.7977
 3137TIP3    H1 9375   3.828   1.652   5.786 -0.2415 -0.5105 -0.6507
 3137TIP3    H2 9376   3.949   1.641   5.876 -1.3586 -2.7032  0.6684
 3138TIP3   OH2 9377   5.664   1.645   5.908 -0.8305  0.1432 -0.1459
 3138TIP3    H1 9378   5.623   1.567   5.945 -3.3298  1.2821 -0.3298
 3138TIP3    H2 9379   5.652   1.636   5.813  1.1949 -0.4333 -0.3923
 3139TIP3   OH2 9380   3.079   4.082   4.884 -0.2545 -0.2962  0.1107
 3139TIP3    H1 9381   3.075   3.987   4.895 -1.4134 -0.2058  0.6217
 3139TIP3    H2 9382   3.144   4.095   4.816  2.2693 -1.2756  2.1420
 3140TIP3   OH2 9383   5.648   3.963   0.915 -0.0256  0.2140  0.2668
 3140TIP3    H1 9384   5.670   4.056   0.915 -0.4965  0.3285  0.6479
 3140TIP3    H2 9385   5.652   3.938   1.007 -1.5999  0.2752  0.3660
 3141TIP3   OH2 9386   1.829   6.093   1.834  0.0547 -0.2203  0.0881
 3141TIP3    H1 9387   1.903   6.111   1.776  0.5924 -2.4374  0.0010
 3141TIP3    H2 9388   1.755   6.075   1.774 -0.9079  2.8793  0.1636
 3142TIP3   OH2 9389   5.401   1.509   5.847 -0.3698  0.0396  0.1687
 3142TIP3    H1 9390   5.386   1.455   5.770 -2.3199  0.3499  0.2901
 3142TIP3    H2 9391   5.391   1.599   5.815 -1.5848  0.1587  0.8206
 3143TIP3   OH2 9392   5.306   3.507   4.385  0.4184 -0.1589  0.1502
 3143TIP3    H1 9393   5.236   3.449   4.355 -0.1879  1.4205 -1.7387
 3143TIP3    H2 9394   5.263   3.566   4.447  0.3995 -0.0221  0.0056
 3144TIP3   OH2 9395   6.656   5.833   1.236  0.0631 -0.4440  0.0416
 3144TIP3    H1 9396   6.621   5.917   1.208 -1.3692 -0.0132  2.7790
 3144TIP3    H2 9397   6.739   5.855   1.278  0.9959 -0.7831 -1.5493
 3145TIP3   OH2 9398   4.261   5.402   1.405 -0.4269 -0.2901  0.2769
 3145TIP3    H1 9399   4.166   5.399   1.392 -0.3335  0.8912 -0.9529
 3145TIP3    H2 9400   4.279   5.494   1.423  0.7344  0.0073 -2.0249
 3146TIP3   OH2 9401   4.891   3.435   5.711 -0.1896 -0.2637 -0.3514
 3146TIP3    H1 9402   4.940   3.380   5.772 -0.4574  0.8729  0.9547
 3146TIP3    H2 9403   4.805   3.395   5.705 -0.0049 -0.6566 -0.3669
 3147TIP3   OH2 9404   6.999   5.463   0.432  0.7415  0.3988  0.2781
 3147TIP3    H1 9405   7.028   5.554   0.422  1.4876  0.2348  0.8273
 3147TIP3    H2 9406   7.081   5.412   0.434  0.3269 -0.3066 -0.2247
 3148TIP3   OH2 9407   4.838   1.467   1.795  0.2914  0.1106 -0.0483
 3148TIP3    H1 9408   4.796   1.402   1.851  2.3133 -0.6123  0.7514
 3148TIP3    H2 9409   4.813   1.551   1.833  0.5223 -0.3303  1.1341
 3149TIP3   OH2 9410   5.330   5.762   3.025 -0.1467 -0.1688  0.1567
 3149TIP3    H1 9411   5.292   5.689   2.975 -0.0203 -0.3815  0.3710
 3149TIP3    H2 9412   5.326   5.734   3.116 -0.3038  0.1886  0.2625
 3150TIP3   OH2 9413   2.670   6.837   3.421  0.3672  0.0457 -0.6841
 3150TIP3    H1 9414   2.700   6.755   3.461  0.7385  0.1276 -0.7887
 3150TIP3    H2 9415   2.594   6.812   3.369  0.9444 -0.3808 -1.3484
 3151TIP3   OH2 9416   2.809   3.496   1.344  0.4945 -0.2344  0.5463
 3151TIP3    H1 9417   2.888   3.444   1.358  0.3580 -0.5703  0.1075
 3151TIP3    H2 9418   2.816   3.526   1.254  0.6219  0.6031  0.8325
 3152TIP3   OH2 9419   4.587   0.223   3.949 -0.0206 -0.0509 -0.4178
 3152TIP3    H1 9420   4.604   0.315   3.969 -2.7161  0.7856 -1.4691
 3152TIP3    H2 9421   4.546   0.188   4.029  1.1296 -0.4210  0.0313
 3153TIP3   OH2 9422   3.935   0.373   2.205  0.0412 -0.2193  0.2162
 3153TIP3    H1 9423   3.855   0.392   2.254 -0.4337 -0.0020 -0.6191
 3153TIP3    H2 9424   3.937   0.278   2.197 -0.2726 -0.2102  0.0188
 3154TIP3   OH2 9425   6.072   6.073   5.504  0.3166 -0.3232 -0.8253
 3154TIP3    H1 9426   6.053   6.053   5.595  2.2580 -2.3312 -0.7854
 3154TIP3    H2 9427   6.129   6.150   5.507 -0.9834  0.6482 -0.4826
 3155TIP3   OH2 9428   1.416   0.007   1.364  0.2298 -0.2214 -0.1294
 3155TIP3    H1 9429   1.509   0.008   1.385  0.1596  2.7635  0.5330
 3155TIP3    H2 9430   1.412  -0.015   1.271  1.7725  1.2893 -0.6074
 3156TIP3   OH2 9431   0.258   1.011   1.141  0.2817  0.2285  0.3612
 3156TIP3    H1 9432   0.178   0.971   1.107  0.0553 -0.6215  1.7861
 3156TIP3    H2 9433   0.325   0.990   1.076 -0.7113  1.3964 -1.1144
 3157TIP3   OH2 9434   6.971   6.761   3.061 -0.1221 -0.2260 -0.1835
 3157TIP3    H1 9435   7.013   6.743   2.977  0.4623 -1.2921  0.3194
 3157TIP3    H2 9436   6.918   6.839   3.045  0.2494 -0.2121 -1.4459
 3158TIP3   OH2 9437   2.013   5.636   4.132 -1.0925  0.7944 -0.0800
 3158TIP3    H1 9438   1.931   5.675   4.161 -1.4850  0.4216 -0.6602
 3158TIP3    H2 9439   2.031   5.676   4.047 -0.0092  1.7968  0.5960
 3159TIP3   OH2 9440   5.533   4.483   0.495 -0.3110 -0.3240  0.1877
 3159TIP3    H1 9441   5.601   4.473   0.562  1.4916 -0.1161 -1.4888
 3159TIP3    H2 9442   5.540   4.404   0.442 -0.9087  0.0174 -0.4152
 3160TIP3   OH2 9443   0.506   4.571   4.472  0.2787 -0.3391  0.0449
 3160TIP3    H1 9444   0.459   4.568   4.389  0.5556 -0.8503 -0.1004
 3160TIP3    H2 9445   0.453   4.627   4.528 -0.1927 -0.4300 -0.3052
 3161TIP3   OH2 9446   2.802   2.712   3.810 -0.1767  0.0162  0.1903
 3161TIP3    H1 9447   2.882   2.755   3.841 -0.2545 -0.6895  1.4376
 3161TIP3    H2 9448   2.760   2.777   3.754  1.7487  0.0498 -1.3218
 3162TIP3   OH2 9449   0.680   1.219   5.606  0.2152  0.3695 -0.2362
 3162TIP3    H1 9450   0.761   1.170   5.617  0.0461 -0.3923 -2.1061
 3162TIP3    H2 9451   0.615   1.168   5.655  0.5817  0.2273  0.1050
 3163TIP3   OH2 9452   7.144   1.615   5.702 -0.1801 -0.8045  0.3406
 3163TIP3    H1 9453   7.176   1.703   5.721  0.7860 -1.0607 -0.0457
 3163TIP3    H2 9454   7.134   1.574   5.788 -0.5176 -0.3632  0.5135
 3164TIP3   OH2 9455   4.950   2.561   4.989  0.5618 -0.2118  0.6044
 3164TIP3    H1 9456   4.880   2.558   5.054  0.3461  2.2598  0.5774
 3164TIP3    H2 9457   4.990   2.474   4.992 -2.5000 -1.7373  0.5831
 3165TIP3   OH2 9458   1.446   3.228   4.535  0.1530 -0.4735 -0.5689
 3165TIP3    H1 9459   1.436   3.305   4.479  0.1120  0.3300  0.5136
 3165TIP3    H2 9460   1.521   3.248   4.590 -0.2825 -0.9088  0.2021
 3166TIP3   OH2 9461   2.038   5.188   2.422  0.1357  0.7168 -0.0565
 3166TIP3    H1 9462   1.962   5.151   2.376  0.9611  0.5521 -1.3360
 3166TIP3    H2 9463   2.091   5.227   2.352  0.7753  1.6566  0.9266
 3167TIP3   OH2 9464   0.439   6.376   4.775 -0.1035 -0.2698 -0.2229
 3167TIP3    H1 9465   0.382   6.391   4.850  0.0981 -0.4316 -0.0381
 3167TIP3    H2 9466   0.383   6.330   4.712  0.3377 -2.2551  0.7347
 3168TIP3   OH2 9467   0.617   4.404   0.639 -0.7336  0.2505 -0.8977
 3168TIP3    H1 9468   0.588   4.396   0.730  0.9555  2.9034  0.0112
 3168TIP3    H2 9469   0.626   4.314   0.608 -0.1353 -0.7890  1.9901
 3169TIP3   OH2 9470   2.178   3.677   1.995 -0.1870 -0.4599 -0.3552
 3169TIP3    H1 9471   2.189   3.663   1.901 -1.4422  0.3523 -0.6586
 3169TIP3    H2 9472   2.167   3.590   2.032 -0.1440 -0.7585 -1.0396
 3170TIP3   OH2 9473   4.589   1.715   2.514  0.3110 -0.0355  0.4923
 3170TIP3    H1 9474   4.661   1.662   2.548  0.3811 -0.4365 -0.2484
 3170TIP3    H2 9475   4.578   1.685   2.423  0.0869  0.9387  0.1810
 3171TIP3   OH2 9476   4.502   5.633   2.756  0.2094  0.6508  0.5543
 3171TIP3    H1 9477   4.535   5.659   2.670 -0.0629 -0.9388 -0.0703
 3171TIP3    H2 9478   4.423   5.583   2.738  1.0884 -1.2153  1.5876
 3172TIP3   OH2 9479   6.138   6.078   3.467  0.0413  0.4871  0.3455
 3172TIP3    H1 9480   6.206   6.054   3.529 -1.2304  1.3226  2.1421
 3172TIP3    H2 9481   6.080   6.002   3.464  0.6100  0.0675 -0.6139
 3173TIP3   OH2 9482   2.254   4.880   4.596 -0.6924  0.5088  0.5790
 3173TIP3    H1 9483   2.257   4.974   4.579  0.6799  0.3532 -0.1982
 3173TIP3    H2 9484   2.343   4.850   4.578 -1.9351 -1.5774 -3.0626
 3174TIP3   OH2 9485   4.326   5.674   1.443 -0.2120 -0.2026 -0.3044
 3174TIP3    H1 9486   4.313   5.761   1.404  2.5512  0.8792  0.8785
 3174TIP3    H2 9487   4.410   5.644   1.409  0.6986 -0.6842  2.1027
 3175TIP3   OH2 9488   3.645   0.902   4.509 -0.0576  0.8805 -0.1918
 3175TIP3    H1 9489   3.559   0.889   4.550 -0.2858  3.1056  0.1846
 3175TIP3    H2 9490   3.626   0.950   4.428  0.5489 -1.9668 -2.1757
 3176TIP3   OH2 9491   5.896   1.530   0.878 -0.3148  0.1636 -0.0744
 3176TIP3    H1 9492   5.978   1.561   0.838  0.0535 -0.0117  0.5359
 3176TIP3    H2 9493   5.848   1.490   0.805  0.1944  0.1583 -0.4158
 3177TIP3   OH2 9494   7.121   5.973   0.519 -0.6715 -0.2621  0.1358
 3177TIP3    H1 9495   7.208   5.979   0.558 -0.1102  1.0624 -1.2348
 3177TIP3    H2 9496   7.110   6.056   0.472 -1.9252 -1.1592 -1.2475
 3178TIP3   OH2 9497   7.152   1.182   0.535  0.0247 -0.2994  0.1758
 3178TIP3    H1 9498   7.209   1.116   0.496  0.2390  0.5491 -1.0204
 3178TIP3    H2 9499   7.088   1.132   0.586  0.2784 -1.4137 -0.5637
 3179TIP3   OH2 9500   4.331   0.782   2.438 -0.0385  0.1558 -0.2445
 3179TIP3    H1 9501   4.281   0.809   2.515  0.4967  1.4420 -0.3145
 3179TIP3    H2 9502   4.271   0.794   2.365  0.1341  1.0472 -0.2532
 3180TIP3   OH2 9503   3.305   6.319   5.693  0.1121 -0.2707  0.3052
 3180TIP3    H1 9504   3.250   6.356   5.763  0.3807  0.0377  0.3540
 3180TIP3    H2 9505   3.309   6.388   5.627 -2.0055 -1.3627 -1.0735
 3181TIP3   OH2 9506   0.603   0.761   0.748  0.4144 -0.5168  0.4686
 3181TIP3    H1 9507   0.679   0.753   0.805 -0.7819 -0.5804  2.1215
 3181TIP3    H2 9508   0.602   0.852   0.719  1.3819 -0.6427  0.0112
 3182TIP3   OH2 9509   3.835   3.235   2.007 -0.1233  0.5740  0.3758
 3182TIP3    H1 9510   3.902   3.172   1.981 -1.1144 -0.2431 -0.2708
 3182TIP3    H2 9511   3.861   3.263   2.095  0.2734 -0.8342  0.7231
 3183TIP3   OH2 9512   3.992   3.488   2.124 -0.0195  0.1971  0.7452
 3183TIP3    H1 9513   4.005   3.450   2.211 -0.4485  1.0415  1.1836
 3183TIP3    H2 9514   4.024   3.577   2.131  1.9837 -0.3511 -0.5824
 3184TIP3   OH2 9515   4.081   3.452   1.204  0.2701  0.0144  0.7963
 3184TIP3    H1 9516   4.115   3.491   1.124  0.9346 -2.0413  0.0142
 3184TIP3    H2 9517   4.032   3.375   1.175 -0.8143  0.1005  2.2740
 3185TIP3   OH2 9518   2.638   6.550   0.790 -0.1372 -0.0705  0.1165
 3185TIP3    H1 9519   2.609   6.575   0.878 -0.7095  0.8518 -0.3238
 3185TIP3    H2 9520   2.729   6.524   0.802 -0.0094  0.6835  0.8753
 3186TIP3   OH2 9521   5.582   2.372   4.926 -0.1593  0.2952 -0.4491
 3186TIP3    H1 9522   5.490   2.368   4.951 -0.0366  0.9956  0.1293
 3186TIP3    H2 9523   5.601   2.284   4.891 -0.7621 -0.1872  0.3970
 3187TIP3   OH2 9524   6.465   5.853   2.754  0.0213 -0.0222 -0.2973
 3187TIP3    H1 9525   6.473   5.820   2.664  0.8951 -0.6669 -0.0038
 3187TIP3    H2 9526   6.473   5.774   2.808  2.1588  0.6123  0.4362
 3188TIP3   OH2 9527   6.300   2.544   0.803  0.2338 -0.1317 -0.1826
 3188TIP3    H1 9528   6.332   2.455   0.819 -1.3246 -1.0208 -1.6350
 3188TIP3    H2 9529   6.302   2.553   0.708 -2.6589  0.1539 -0.2977
 3189TIP3   OH2 9530   1.900   1.376   3.067  0.2954 -0.3283 -0.6365
 3189TIP3    H1 9531   1.947   1.305   3.023  1.3919  0.7118 -1.1916
 3189TIP3    H2 9532   1.925   1.368   3.159  3.1257  1.2784 -1.1453
 3190TIP3   OH2 9533   2.382   6.756   1.175  0.1528  0.4323  0.3181
 3190TIP3    H1 9534   2.358   6.670   1.208  0.4483  0.2268  0.0071
 3190TIP3    H2 9535   2.301   6.794   1.142 -0.1370  0.6156  1.2119
 3191TIP3   OH2 9536   2.629   6.758   4.577  0.0152 -0.0428  0.2145
 3191TIP3    H1 9537   2.682   6.826   4.618 -0.3153  0.0135  0.5480
 3191TIP3    H2 9538   2.553   6.749   4.634  0.5295 -1.3934  0.7204
 3192TIP3   OH2 9539   4.154   4.650   2.622  0.6768  0.4700 -0.2481
 3192TIP3    H1 9540   4.066   4.671   2.651  0.2141  0.3341 -1.4767
 3192TIP3    H2 9541   4.210   4.717   2.661  0.0076  0.6574  0.3940
 3193TIP3   OH2 9542   6.160   5.344   3.952  1.1151 -0.2001 -0.2828
 3193TIP3    H1 9543   6.117   5.359   3.868  0.1422 -2.0436 -0.1768
 3193TIP3    H2 9544   6.118   5.406   4.012 -1.2798 -1.7224 -0.2651
 3194TIP3   OH2 9545   4.901   5.454   2.714  0.0026  0.1888 -0.0002
 3194TIP3    H1 9546   4.937   5.533   2.674  0.2317  0.1524  0.1351
 3194TIP3    H2 9547   4.912   5.385   2.649  0.5335  0.0906  0.1937
 3195TIP3   OH2 9548   3.983   4.944   5.546 -0.4503 -0.7596 -0.2756
 3195TIP3    H1 9549   3.972   4.851   5.525 -0.2367 -0.9261  0.3413
 3195TIP3    H2 9550   3.927   4.989   5.482  0.1812 -1.2472 -1.1899
 3196TIP3   OH2 9551   3.605   5.628   1.163 -0.0116  0.4096  0.6880
 3196TIP3    H1 9552   3.524   5.664   1.128 -0.9400 -1.7066  0.4997
 3196TIP3    H2 9553   3.582   5.597   1.250  1.0326  1.2030  1.2712
 3197TIP3   OH2 9554   6.309   3.810   2.396 -0.4035 -0.0944 -0.4710
 3197TIP3    H1 9555   6.283   3.892   2.354 -1.4372 -1.0983 -1.8757
 3197TIP3    H2 9556   6.404   3.813   2.397 -0.3923  2.2225  1.8276
 3198TIP3   OH2 9557   2.893   3.637   0.175 -0.7695  0.1833 -0.0452
 3198TIP3    H1 9558   2.827   3.651   0.243  0.4245  1.6168  0.8711
 3198TIP3    H2 9559   2.954   3.574   0.214  0.9631  2.4063  1.0832
 3199TIP3   OH2 9560   5.473   3.993   2.467  0.1237  0.2251  0.1905
 3199TIP3    H1 9561   5.534   3.994   2.540  0.6403 -0.9874 -0.2013
 3199TIP3    H2 9562   5.492   4.073   2.418  0.9816  0.1576  0.4033
 3200TIP3   OH2 9563   4.309   0.560   0.309  0.2395  0.0099  0.0934
 3200TIP3    H1 9564   4.271   0.540   0.395  3.2019  4.4975  2.9110
 3200TIP3    H2 9565   4.383   0.500   0.301 -1.1523 -1.7267 -0.3935
 3201TIP3   OH2 9566   5.449   2.304   3.989 -0.4166  0.0200  0.0132
 3201TIP3    H1 9567   5.452   2.219   4.031 -0.0306  0.6573  1.3250
 3201TIP3    H2 9568   5.491   2.290   3.903 -0.8851 -1.2122 -0.0256
 3202TIP3   OH2 9569   6.953   5.630   3.872 -0.5387 -1.0784 -0.1927
 3202TIP3    H1 9570   7.001   5.562   3.918  1.1658  0.4807  0.4551
 3202TIP3    H2 9571   7.016   5.666   3.809 -1.6388 -0.6302 -1.0724
 3203TIP3   OH2 9572   5.403   1.980   2.756  0.1894 -0.7169 -0.2104
 3203TIP3    H1 9573   5.434   1.930   2.681  1.0213 -0.3527 -0.1157
 3203TIP3    H2 9574   5.475   2.038   2.779 -0.2425 -0.4557  0.5522
 3204TIP3   OH2 9575   5.448   5.156   3.631 -0.2848 -0.2553 -0.3738
 3204TIP3    H1 9576   5.361   5.152   3.591 -0.3043 -1.3801 -0.2314
 3204TIP3    H2 9577   5.495   5.220   3.577 -0.9372 -0.2427 -0.9559
 3205TIP3   OH2 9578   4.551   3.506   0.471  0.2503 -0.4923  0.1272
 3205TIP3    H1 9579   4.526   3.552   0.551 -0.0681 -2.0228  0.9499
 3205TIP3    H2 9580   4.482   3.527   0.408 -0.5357 -0.7966  0.8696
 3206TIP3   OH2 9581   2.658   2.163   3.449  0.2336 -0.1871  0.2002
 3206TIP3    H1 9582   2.623   2.187   3.535 -0.3127 -0.9841  0.2098
 3206TIP3    H2 9583   2.604   2.089   3.422  1.3700 -0.8814 -0.1821
 3207TIP3   OH2 9584   2.213   0.699   1.092 -0.0514 -0.0600  0.2015
 3207TIP3    H1 9585   2.272   0.704   1.016  0.3506 -1.8923  0.3463
 3207TIP3    H2 9586   2.128   0.727   1.058  0.1300 -0.8142 -0.9398
 3208TIP3   OH2 9587   4.660   2.251   5.467 -0.0157  0.3300 -0.8182
 3208TIP3    H1 9588   4.587   2.189   5.463 -0.2349  0.4685  0.7094
 3208TIP3    H2 9589   4.670   2.272   5.560  3.8399 -1.8932 -0.5307
 3209TIP3   OH2 9590   3.472   2.747   2.499  0.1515 -0.4655  0.0655
 3209TIP3    H1 9591   3.559   2.785   2.488 -0.2341  0.5593  0.4718
 3209TIP3    H2 9592   3.425   2.771   2.419 -0.7816  1.8869  1.2162
 3210TIP3   OH2 9593   5.858   1.902   0.390 -0.8028 -0.3500 -0.4131
 3210TIP3    H1 9594   5.924   1.906   0.321  0.0476 -0.3926  0.3635
 3210TIP3    H2 9595   5.805   1.980   0.379 -0.4540 -0.1808 -0.9004
 3211TIP3   OH2 9596   5.521   5.036   0.700  0.1903 -0.5182 -0.3197
 3211TIP3    H1 9597   5.450   5.029   0.636  1.8969 -1.0711 -2.2563
 3211TIP3    H2 9598   5.543   5.129   0.702 -1.7747 -0.0053  1.7622
 3212TIP3   OH2 9599   2.718   3.825   3.623 -0.2209 -0.6541  0.2336
 3212TIP3    H1 9600   2.625   3.837   3.604 -0.8212 -1.5869  2.2519
 3212TIP3    H2 9601   2.721   3.808   3.717  1.9365 -1.3019  0.1017
 3213TIP3   OH2 9602   7.071   1.373   1.990 -0.3308 -0.0664  0.1841
 3213TIP3    H1 9603   7.013   1.428   1.936 -0.0682 -0.1691 -0.2114
 3213TIP3    H2 9604   7.069   1.414   2.076 -0.4046  0.3723 -0.0193
 3214TIP3   OH2 9605   1.323   5.700   2.307  0.7879 -0.4665  0.4533
 3214TIP3    H1 9606   1.324   5.789   2.271 -1.5432 -0.6139 -0.1188
 3214TIP3    H2 9607   1.345   5.712   2.400 -0.2204  0.8161  0.5550
 3215TIP3   OH2 9608   4.609   0.152   5.158 -0.0947  0.1885  0.0617
 3215TIP3    H1 9609   4.592   0.178   5.067  0.7117 -1.8145 -0.7298
 3215TIP3    H2 9610   4.523   0.145   5.198 -0.6668 -1.2110 -1.2865
 3216TIP3   OH2 9611   3.175   0.465   3.938 -0.1869 -0.2124 -0.1409
 3216TIP3    H1 9612   3.146   0.493   4.024  0.5058 -1.0906  0.3995
 3216TIP3    H2 9613   3.128   0.382   3.923 -0.9398  0.3478 -0.9783
 3217TIP3   OH2 9614   1.226   3.071   4.601  0.0249  0.0012 -0.0661
 3217TIP3    H1 9615   1.222   3.099   4.693 -1.3274 -1.6195  0.4281
 3217TIP3    H2 9616   1.297   3.122   4.563 -0.1286  1.5309  1.5948
 3218TIP3   OH2 9617   3.352   0.999   1.004 -0.1064  0.1792  0.4374
 3218TIP3    H1 9618   3.445   0.979   1.004  0.0078  0.6641 -0.2031
 3218TIP3    H2 9619   3.310   0.918   0.975  0.1412  0.0570  0.4176
 3219TIP3   OH2 9620   6.803   2.673   5.053  0.0819  0.4551  0.1587
 3219TIP3    H1 9621   6.746   2.715   4.989 -0.5978 -0.0066  0.4516
 3219TIP3    H2 9622   6.882   2.650   5.003 -0.1498  0.7315 -0.3440
 3220TIP3   OH2 9623   4.295   1.292   4.600  0.2549 -0.2513 -0.2905
 3220TIP3    H1 9624   4.294   1.236   4.678 -0.6326  0.0971 -0.0366
 3220TIP3    H2 9625   4.241   1.367   4.624  0.2422  0.0214 -1.1338
 3221TIP3   OH2 9626   7.014   3.412   2.607  0.4565  0.3472  0.3217
 3221TIP3    H1 9627   6.926   3.401   2.571  1.1920  0.7797 -1.7387
 3221TIP3    H2 9628   7.045   3.322   2.622  0.4694  0.0966 -1.0741
 3222TIP3   OH2 9629   3.848   5.953   1.621  0.5833 -0.3710 -0.2240
 3222TIP3    H1 9630   3.842   5.988   1.532  1.6605 -1.1790 -0.6362
 3222TIP3    H2 9631   3.758   5.954   1.654 -0.2043 -2.2338 -2.1682
 3223TIP3   OH2 9632   4.620   5.610   0.612 -0.7098  0.9399  0.1982
 3223TIP3    H1 9633   4.614   5.705   0.619  4.2130  1.4796  0.9049
 3223TIP3    H2 9634   4.638   5.593   0.520 -0.2574  0.8811  0.2929
 3224TIP3   OH2 9635   0.129   5.481   0.992 -0.3571 -0.2373  0.1088
 3224TIP3    H1 9636   0.093   5.483   0.903 -0.1854 -1.2758  0.0036
 3224TIP3    H2 9637   0.126   5.389   1.016  1.3756 -0.2167  0.4599
 3225TIP3   OH2 9638   4.655   5.244   2.115  0.1103  0.9251  0.4019
 3225TIP3    H1 9639   4.628   5.267   2.203 -2.2345  1.4032 -0.3791
 3225TIP3    H2 9640   4.598   5.295   2.058  0.8904 -0.1204 -1.4003
 3226TIP3   OH2 9641   6.455   2.363   5.657 -0.3635 -0.2783 -0.2282
 3226TIP3    H1 9642   6.482   2.390   5.745 -0.1219 -1.0530 -0.0519
 3226TIP3    H2 9643   6.407   2.281   5.671  2.1629 -2.0209 -1.0223
 3227TIP3   OH2 9644   3.421   5.261   0.432  0.6001 -0.3458 -0.5156
 3227TIP3    H1 9645   3.395   5.225   0.347 -0.4703  0.0947 -0.3834
 3227TIP3    H2 9646   3.342   5.256   0.486  1.6931 -2.2757  1.0596
 3228TIP3   OH2 9647   5.163   5.529   3.578 -0.2131 -0.0788  0.4188
 3228TIP3    H1 9648   5.136   5.529   3.486  2.4052 -0.3883 -0.4063
 3228TIP3    H2 9649   5.158   5.621   3.603 -1.9511 -0.1099  0.3450
 3229TIP3   OH2 9650   3.086   4.866   1.573  0.4323  0.6254 -0.9394
 3229TIP3    H1 9651   3.044   4.800   1.628  2.4205  1.2615  1.5080
 3229TIP3    H2 9652   3.066   4.949   1.616  2.9818  1.0406 -0.4400
 3230TIP3   OH2 9653   6.962   4.766   5.760 -0.3459  0.4762  0.1236
 3230TIP3    H1 9654   6.974   4.832   5.829  0.6808 -1.8277  2.3207
 3230TIP3    H2 9655   6.963   4.683   5.807  0.9086 -1.2791 -2.7590
 3231TIP3   OH2 9656   5.986   4.928   2.629 -0.0879  0.2538  0.0069
 3231TIP3    H1 9657   6.012   4.918   2.538  0.4259  0.1210  0.1702
 3231TIP3    H2 9658   5.939   5.012   2.631 -0.8994 -0.1775 -0.5528
 3232TIP3   OH2 9659   1.050   5.051   2.161  0.2816  0.6613 -0.5891
 3232TIP3    H1 9660   1.079   5.119   2.222  3.8793 -0.9163 -0.3020
 3232TIP3    H2 9661   0.954   5.054   2.166  0.3656  2.8192  2.5934
 3233TIP3   OH2 9662   4.962   6.077   2.435  0.5182  0.0791 -0.1236
 3233TIP3    H1 9663   5.015   6.000   2.457  0.6489  0.3248  0.4422
 3233TIP3    H2 9664   4.907   6.091   2.512 -1.3609 -0.9724 -1.2093
 3234TIP3   OH2 9665   2.164   2.657   4.428  0.0815 -0.1179  0.3825
 3234TIP3    H1 9666   2.233   2.718   4.401  0.9433 -0.7681  1.0712
 3234TIP3    H2 9667   2.104   2.655   4.353 -0.2496  1.9526  0.5370
 3235TIP3   OH2 9668   0.189   5.353   4.911 -0.3779  0.1523  0.4164
 3235TIP3    H1 9669   0.284   5.343   4.909 -0.3533  0.4419  0.1954
 3235TIP3    H2 9670   0.173   5.422   4.975 -0.4681 -0.2550  0.8347
 3236TIP3   OH2 9671   2.566   3.252   3.321  0.2560  0.0358 -0.6939
 3236TIP3    H1 9672   2.633   3.196   3.361  0.9408  0.6742 -0.9086
 3236TIP3    H2 9673   2.484   3.226   3.363  0.6513 -0.7058 -0.3640
 3237TIP3   OH2 9674   0.426   5.176   2.859 -0.0270  0.2863 -1.0943
 3237TIP3    H1 9675   0.413   5.102   2.801  0.1054 -2.3546  1.9759
 3237TIP3    H2 9676   0.511   5.161   2.900  0.2143  2.4147 -0.6814
 3238TIP3   OH2 9677   1.932   5.588   2.102  0.1148 -0.0630  0.9282
 3238TIP3    H1 9678   1.861   5.652   2.114 -0.8687 -0.8062 -0.6208
 3238TIP3    H2 9679   1.888   5.510   2.068  1.8887  0.2063 -2.3615
 3239TIP3   OH2 9680   6.413   6.320   0.959  0.0456  0.2863  0.2277
 3239TIP3    H1 9681   6.367   6.331   0.875  0.0305  0.7078  0.2870
 3239TIP3    H2 9682   6.496   6.279   0.936 -0.3869 -0.5570  0.1253
 3240TIP3   OH2 9683   2.529   3.171   4.414  0.2945 -0.1323  0.9619
 3240TIP3    H1 9684   2.536   3.245   4.354 -0.6387 -2.2765 -2.0195
 3240TIP3    H2 9685   2.436   3.164   4.434  0.4580 -0.1406  1.7813
 3241TIP3   OH2 9686   1.326   4.686   4.115 -0.0597 -0.5108  0.0586
 3241TIP3    H1 9687   1.231   4.690   4.100 -0.1127 -2.7359 -0.6101
 3241TIP3    H2 9688   1.335   4.651   4.203  0.0652 -2.3324 -0.6324
 3242TIP3   OH2 9689   4.861   4.503   2.059  0.2798 -0.6373  0.0466
 3242TIP3    H1 9690   4.925   4.493   1.989 -0.5779 -3.6023 -0.4460
 3242TIP3    H2 9691   4.912   4.494   2.140  1.2529  2.6803 -0.0753
 3243TIP3   OH2 9692   2.571   5.744   5.503  0.3038  0.2064  0.1033
 3243TIP3    H1 9693   2.527   5.771   5.584 -1.5588 -1.4499 -0.2614
 3243TIP3    H2 9694   2.606   5.657   5.523 -0.5039 -0.3846 -0.9310
 3244TIP3   OH2 9695   1.342   3.851   2.797  0.2638 -0.0712 -0.3722
 3244TIP3    H1 9696   1.393   3.782   2.838  0.2370 -1.1408 -2.0387
 3244TIP3    H2 9697   1.404   3.922   2.782  0.3462  0.2040  1.1405
 3245TIP3   OH2 9698   1.833   0.222   2.053  0.1895  0.3769 -0.2453
 3245TIP3    H1 9699   1.778   0.199   2.128 -0.7533  0.1731 -0.9664
 3245TIP3    H2 9700   1.884   0.297   2.082  0.0893  0.0808  0.7114
 3246TIP3   OH2 9701   2.560   3.954   1.176 -0.1796  0.6514  0.1982
 3246TIP3    H1 9702   2.495   3.905   1.227  0.1335 -1.5921 -1.4121
 3246TIP3    H2 9703   2.514   4.035   1.151 -0.6234  1.4515  3.1597
 3247TIP3   OH2 9704   6.602   1.776   4.633 -0.4484  0.0833 -0.3409
 3247TIP3    H1 9705   6.579   1.761   4.725  1.0191 -0.4720 -0.0247
 3247TIP3    H2 9706   6.650   1.859   4.634  2.5514 -1.5067  0.0254
 3248TIP3   OH2 9707   5.233   1.603   4.864  0.5629  0.5900  0.3799
 3248TIP3    H1 9708   5.324   1.625   4.880  1.2168  0.5058 -2.5794
 3248TIP3    H2 9709   5.230   1.508   4.870  0.0628  0.7004  2.8355
 3249TIP3   OH2 9710   6.800   5.465   5.800  0.3241 -0.0415  0.0655
 3249TIP3    H1 9711   6.838   5.537   5.850 -0.4895  0.5591 -0.1504
 3249TIP3    H2 9712   6.737   5.508   5.742  0.7932 -0.7852 -1.0301
 3250TIP3   OH2 9713   6.797   2.933   4.155 -0.6704  0.5205  0.1653
 3250TIP3    H1 9714   6.848   2.856   4.182  1.7131  1.4013 -1.5110
 3250TIP3    H2 9715   6.730   2.897   4.096  0.3300 -0.2946 -0.5022
 3251TIP3   OH2 9716   6.319   5.261   3.470  0.4056 -0.1912  0.4472
 3251TIP3    H1 9717   6.380   5.286   3.539  0.1407  1.9495 -0.0252
 3251TIP3    H2 9718   6.235   5.296   3.499  0.3305  0.9438 -1.0190
 3252TIP3   OH2 9719   1.452   0.537   2.074  0.0669  0.5445  0.1353
 3252TIP3    H1 9720   1.497   0.466   2.029 -1.2942  0.2341 -0.7939
 3252TIP3    H2 9721   1.522   0.597   2.100  1.1713 -0.7583  0.2878
 3253TIP3   OH2 9722   7.173   0.307   3.258 -0.1357  0.6531  0.0579
 3253TIP3    H1 9723   7.098   0.342   3.306  0.9020  0.1583  2.1557
 3253TIP3    H2 9724   7.160   0.212   3.261  0.7981  0.5333  0.8998
 3254TIP3   OH2 9725   0.279   2.289   1.567  0.5008 -0.1136  0.3051
 3254TIP3    H1 9726   0.343   2.292   1.495  0.3659  0.2723  0.1992
 3254TIP3    H2 9727   0.277   2.378   1.601 -2.4452  0.7806 -1.8597
 3255TIP3   OH2 9728   5.906   3.570   2.032 -0.1546 -0.4817 -0.3255
 3255TIP3    H1 9729   5.873   3.590   1.944  1.5746 -0.4549 -1.0003
 3255TIP3    H2 9730   5.999   3.590   2.028 -0.5492  3.0398  2.5412
 3256TIP3   OH2 9731   1.694   5.793   0.050 -0.0939 -0.1960 -0.5299
 3256TIP3    H1 9732   1.669   5.862   0.111 -0.4749 -2.1410  1.6667
 3256TIP3    H2 9733   1.771   5.753   0.090 -2.4045 -3.8494  0.7544
 3257TIP3   OH2 9734   1.744   6.766   2.989  0.1778 -0.2109 -0.2271
 3257TIP3    H1 9735   1.668   6.821   2.973 -0.2883  0.2782  2.9245
 3257TIP3    H2 9736   1.817   6.812   2.948 -0.5915  1.4977  0.2480
 3258TIP3   OH2 9737   0.394   3.832   1.775  0.4123 -0.0124 -0.2500
 3258TIP3    H1 9738   0.353   3.898   1.719 -0.4003 -0.9157 -0.7549
 3258TIP3    H2 9739   0.333   3.820   1.847  0.8430  0.2224  0.1528
 3259TIP3   OH2 9740   4.107   5.245   1.771  0.5385  0.0919  0.0041
 3259TIP3    H1 9741   4.061   5.200   1.701 -0.5095  0.9729  0.0968
 3259TIP3    H2 9742   4.126   5.177   1.835 -1.1323 -0.2357  0.2039
 3260TIP3   OH2 9743   3.714   4.308   3.042 -0.7275  0.0156  0.0384
 3260TIP3    H1 9744   3.785   4.246   3.059 -1.8292 -2.0837 -2.3150
 3260TIP3    H2 9745   3.675   4.324   3.127 -0.3606 -2.5875  0.7903
 3261TIP3   OH2 9746   0.522   3.519   3.981  0.4791 -0.7304  0.4886
 3261TIP3    H1 9747   0.517   3.535   3.887  2.3283  2.3659  0.7691
 3261TIP3    H2 9748   0.614   3.499   3.997  0.4502  0.0289  1.7383
 3262TIP3   OH2 9749   5.996   0.784   1.230 -0.4855  0.5519 -0.2528
 3262TIP3    H1 9750   5.969   0.814   1.143 -0.8712 -0.4990 -0.5079
 3262TIP3    H2 9751   6.073   0.837   1.251 -2.0999  2.9123  0.0655
 3263TIP3   OH2 9752   3.924   5.286   2.658 -0.4487  0.4811  0.4664
 3263TIP3    H1 9753   3.868   5.297   2.735 -0.3001  1.7384  0.4129
 3263TIP3    H2 9754   4.010   5.263   2.693 -0.8889 -1.1477  0.5609
 3264TIP3   OH2 9755   1.833   6.242   5.144  0.6074  0.5589 -0.0129
 3264TIP3    H1 9756   1.757   6.206   5.100  1.6730  0.6252 -2.0332
 3264TIP3    H2 9757   1.799   6.315   5.197 -1.1523 -1.5269  1.8966
 3265TIP3   OH2 9758   4.331   1.338   2.777 -0.0858 -0.1665 -0.1263
 3265TIP3    H1 9759   4.274   1.265   2.798 -0.9190  0.2780 -0.7593
 3265TIP3    H2 9760   4.316   1.402   2.847 -0.6586  0.1001 -0.4812
 3266TIP3   OH2 9761   0.559   3.711   5.373  0.1759 -0.2091 -1.0314
 3266TIP3    H1 9762   0.537   3.766   5.298  0.1079  1.6707  0.3001
 3266TIP3    H2 9763   0.540   3.765   5.450  0.6980 -1.8790  0.3542
 3267TIP3   OH2 9764   1.611   5.610   3.296 -0.0572  0.1164 -0.0903
 3267TIP3    H1 9765   1.579   5.673   3.360  1.0528  0.9235 -0.3046
 3267TIP3    H2 9766   1.603   5.654   3.212  0.5170 -0.1024 -0.2670
 3268TIP3   OH2 9767   6.332   1.505   0.639  0.2100  0.6258 -0.4724
 3268TIP3    H1 9768   6.361   1.504   0.731  2.8381  0.0507 -1.1984
 3268TIP3    H2 9769   6.261   1.441   0.636 -1.2257  1.9990  1.4561
 3269TIP3   OH2 9770   5.766   1.827   3.727 -0.9541 -0.3179 -0.2335
 3269TIP3    H1 9771   5.821   1.797   3.654  0.2446  0.1741  0.4276
 3269TIP3    H2 9772   5.688   1.772   3.723  0.0681 -1.8217 -0.5564
 3270TIP3   OH2 9773   4.006   5.838   1.193 -0.4114  0.0980  0.1810
 3270TIP3    H1 9774   3.931   5.830   1.133  0.4152  0.3738 -0.9210
 3270TIP3    H2 9775   4.082   5.817   1.139  0.5356  1.9734  0.6779
 3271TIP3   OH2 9776   2.623   5.320   4.144 -0.3475 -0.1420 -0.2636
 3271TIP3    H1 9777   2.589   5.236   4.112  0.8362 -0.4193 -0.8604
 3271TIP3    H2 9778   2.709   5.299   4.179 -0.7667  0.5332  1.2473
 3272TIP3   OH2 9779   4.554   4.978   2.784 -0.3038  0.0377  0.1383
 3272TIP3    H1 9780   4.557   5.072   2.801  0.5388 -0.0304  0.4213
 3272TIP3    H2 9781   4.602   4.967   2.702 -1.8662  0.0310 -0.8187
 3273TIP3   OH2 9782   1.252   5.935   4.215 -0.0044  0.1054 -0.2437
 3273TIP3    H1 9783   1.335   5.890   4.196 -0.0490 -0.1040  0.0567
 3273TIP3    H2 9784   1.235   5.916   4.307 -0.5150 -0.0628 -0.3727
 3274TIP3   OH2 9785   5.655   1.634   5.623  0.2707 -0.0376  0.7790
 3274TIP3    H1 9786   5.606   1.701   5.574 -0.6105 -0.0611  1.6082
 3274TIP3    H2 9787   5.632   1.552   5.579  0.0038  0.0127  0.8217
 3275TIP3   OH2 9788   6.238   4.138   0.541  0.4008 -0.0185 -0.3582
 3275TIP3    H1 9789   6.319   4.164   0.498  0.6806  0.3187  0.3578
 3275TIP3    H2 9790   6.240   4.042   0.541  1.3899 -0.0161  0.7127
 3276TIP3   OH2 9791   4.925   6.172   5.160  0.1005 -0.8420  0.0774
 3276TIP3    H1 9792   4.919   6.224   5.081 -1.1727  0.9792  1.2876
 3276TIP3    H2 9793   4.952   6.085   5.130  0.0223 -0.1155 -2.2745
 3277TIP3   OH2 9794   6.521   0.394   2.896 -0.3274 -0.5138  0.4611
 3277TIP3    H1 9795   6.559   0.332   2.835 -1.6942 -0.7473 -0.1941
 3277TIP3    H2 9796   6.487   0.340   2.968 -0.0679 -0.3740  0.6910
 3278TIP3   OH2 9797   3.823   5.863   3.382 -0.3525  0.3549 -0.2038
 3278TIP3    H1 9798   3.739   5.883   3.424 -0.2045 -0.2738  0.4112
 3278TIP3    H2 9799   3.887   5.914   3.430 -0.0633 -1.0159  0.9453
 3279TIP3   OH2 9800   1.765   1.097   0.497  0.4267  0.4609  0.3791
 3279TIP3    H1 9801   1.757   1.003   0.512  0.5492  0.5040  0.7221
 3279TIP3    H2 9802   1.779   1.134   0.584 -3.9895  1.2690  1.0133
 3280TIP3   OH2 9803   5.985   2.578   0.990  0.2214 -0.1185  0.4317
 3280TIP3    H1 9804   5.890   2.564   0.999  0.2807 -1.7995 -0.9992
 3280TIP3    H2 9805   5.994   2.624   0.906  0.6878 -0.0821  0.5009
 3281TIP3   OH2 9806   0.991   2.766   4.951 -0.0410 -0.2684  0.3502
 3281TIP3    H1 9807   0.939   2.843   4.973  1.4989  0.8179  0.3908
 3281TIP3    H2 9808   0.927   2.699   4.927 -1.4084  1.3694 -0.8396
 3282TIP3   OH2 9809   6.748   4.675   5.002 -0.1216 -0.8716  0.1822
 3282TIP3    H1 9810   6.690   4.614   5.048  0.0880 -1.5796 -0.4718
 3282TIP3    H2 9811   6.790   4.621   4.935  0.1529 -0.0260 -0.3309
 3283TIP3   OH2 9812   3.315   6.366   4.411 -0.0474 -0.3364 -0.1186
 3283TIP3    H1 9813   3.263   6.319   4.345  1.5640 -0.7670 -1.1559
 3283TIP3    H2 9814   3.353   6.296   4.465 -1.4443  0.0173  1.3921
 3284TIP3   OH2 9815   0.411   0.140   3.451  0.8731 -0.3737 -0.3989
 3284TIP3    H1 9816   0.359   0.198   3.396  1.0128  1.1891  1.0478
 3284TIP3    H2 9817   0.353   0.065   3.468  0.7517 -0.8048 -2.4058
 3285TIP3   OH2 9818   6.160   5.579   4.717 -0.2415  0.5261  0.2193
 3285TIP3    H1 9819   6.218   5.648   4.749  1.2892 -0.0504 -1.1791
 3285TIP3    H2 9820   6.191   5.500   4.761  1.6637 -0.2126 -2.2135
 3286TIP3   OH2 9821   6.429   0.166   4.129  0.5763 -0.0516  0.0364
 3286TIP3    H1 9822   6.500   0.109   4.158 -0.6001 -1.8159 -0.4578
 3286TIP3    H2 9823   6.389   0.197   4.210 -0.2028 -1.7821  0.3476
 3287TIP3   OH2 9824   0.782   3.914   2.103  0.1976 -0.1147  0.3943
 3287TIP3    H1 9825   0.803   4.006   2.122 -0.3691 -0.1064  1.0342
 3287TIP3    H2 9826   0.690   3.915   2.078  0.5897 -0.3138 -1.1609
 3288TIP3   OH2 9827   2.529   3.501   1.461 -0.5162  0.0207  0.0056
 3288TIP3    H1 9828   2.517   3.511   1.555 -0.2227  0.3377  0.0125
 3288TIP3    H2 9829   2.624   3.509   1.448 -0.5396 -0.1876 -0.2948
 3289TIP3   OH2 9830   5.733   0.393   0.099 -0.0291 -0.0662 -0.4271
 3289TIP3    H1 9831   5.683   0.386   0.018  0.7311  0.5243 -0.9658
 3289TIP3    H2 9832   5.682   0.345   0.164 -0.4965 -0.8060 -1.3266
 3290TIP3   OH2 9833   0.774   6.687   3.785  0.6488  0.2591  0.3085
 3290TIP3    H1 9834   0.707   6.619   3.792  0.1209  0.6545 -0.7937
 3290TIP3    H2 9835   0.836   6.653   3.721 -0.1243  1.1971 -0.9885
 3291TIP3   OH2 9836   0.353   3.799   2.162 -0.2572  0.2141 -0.2110
 3291TIP3    H1 9837   0.274   3.829   2.118 -0.0768  0.5830 -0.2887
 3291TIP3    H2 9838   0.338   3.706   2.179 -1.6220  0.7485  1.7666
 3292TIP3   OH2 9839   1.052   3.028   4.376 -0.7839  0.4101 -0.1132
 3292TIP3    H1 9840   1.139   3.030   4.335 -0.4360 -0.4444  0.5624
 3292TIP3    H2 9841   1.065   3.069   4.462 -1.0225  0.1821  0.0335
 3293TIP3   OH2 9842   4.779   3.056   1.521  0.2053 -0.2441 -0.2727
 3293TIP3    H1 9843   4.839   3.128   1.541 -0.1601 -0.6644  2.7964
 3293TIP3    H2 9844   4.835   2.990   1.479  1.8620 -0.3604  1.9033
 3294TIP3   OH2 9845   3.537   5.151   0.715  0.0750 -0.1070 -0.5847
 3294TIP3    H1 9846   3.632   5.147   0.707  0.1937  2.3255 -1.1570
 3294TIP3    H2 9847   3.506   5.174   0.627 -1.3923 -3.6626 -1.2000
 3295TIP3   OH2 9848   1.231   5.177   4.927 -0.4103 -0.0981 -0.6076
 3295TIP3    H1 9849   1.259   5.144   5.012  1.5038  0.6372 -0.9045
 3295TIP3    H2 9850   1.191   5.102   4.884  0.5668 -1.0704  0.1254
 3296TIP3   OH2 9851   6.505   6.382   0.200  0.0411  0.6772  0.3518
 3296TIP3    H1 9852   6.441   6.434   0.248  0.6795  1.7631  0.0472
 3296TIP3    H2 9853   6.563   6.345   0.268 -0.6451  0.0204  0.5940
 3297TIP3   OH2 9854   5.045   1.384   1.637  0.0386  0.3234 -0.9181
 3297TIP3    H1 9855   4.977   1.402   1.702 -0.9942 -0.3826 -1.7809
 3297TIP3    H2 9856   5.099   1.315   1.677 -0.5717 -0.0931 -0.8015
 3298TIP3   OH2 9857   1.748   3.120   0.647  0.8075 -0.4280  0.4922
 3298TIP3    H1 9858   1.734   3.060   0.720  0.1385 -0.3270  0.4531
 3298TIP3    H2 9859   1.659   3.139   0.615  1.1134 -2.2164 -1.7365
 3299TIP3   OH2 9860   2.425   4.273   5.349  0.1232 -0.0379  0.1220
 3299TIP3    H1 9861   2.469   4.239   5.271  2.0835  0.0315  1.1256
 3299TIP3    H2 9862   2.342   4.226   5.353  1.4144 -2.4738 -0.2077
 3300TIP3   OH2 9863   3.690   5.646   3.762  1.0139 -0.2705 -0.0184
 3300TIP3    H1 9864   3.763   5.658   3.824 -0.0591  0.1871  1.2073
 3300TIP3    H2 9865   3.723   5.681   3.679  1.6257  1.5395  0.9290
 3301TIP3   OH2 9866   4.725   5.357   5.202 -0.4037 -0.0377 -0.5527
 3301TIP3    H1 9867   4.785   5.431   5.193 -0.4077  0.2052  1.1190
 3301TIP3    H2 9868   4.672   5.378   5.279 -1.6862 -0.9137 -1.1588
 3302TIP3   OH2 9869   4.943   2.114   2.276  0.1889 -0.0822 -0.2324
 3302TIP3    H1 9870   4.975   2.121   2.186  1.8126 -1.1512  0.2165
 3302TIP3    H2 9871   4.872   2.049   2.271 -0.7892  0.9980 -0.9565
 3303TIP3   OH2 9872   4.550   1.220   0.356  0.1728 -0.1279 -0.5548
 3303TIP3    H1 9873   4.572   1.305   0.317  1.0430  1.2109  2.5256
 3303TIP3    H2 9874   4.604   1.216   0.435 -1.2629 -2.7352  0.3962
 3304TIP3   OH2 9875   0.364   4.329   4.613 -0.1770  0.1457  0.0541
 3304TIP3    H1 9876   0.356   4.350   4.520 -0.7956  2.0518  0.4920
 3304TIP3    H2 9877   0.457   4.314   4.626  0.0145  0.5843 -0.7273
 3305TIP3   OH2 9878   0.722   0.235   3.895 -0.5972  0.5363 -0.2612
 3305TIP3    H1 9879   0.786   0.171   3.926 -1.9903 -0.3563  0.9552
 3305TIP3    H2 9880   0.700   0.287   3.972  0.0924  2.1726 -1.1119
 3306TIP3   OH2 9881   0.866   5.383   1.769 -0.0759  0.5923  0.4257
 3306TIP3    H1 9882   0.905   5.372   1.682 -0.8574 -0.4630  0.1840
 3306TIP3    H2 9883   0.936   5.356   1.829  0.7268  2.0462  0.1841
 3307TIP3   OH2 9884   1.722   2.942   2.009 -0.0071  0.0737 -0.0517
 3307TIP3    H1 9885   1.656   2.874   1.996 -1.8055  1.6072  0.7401
 3307TIP3    H2 9886   1.683   3.021   1.973  0.7726  1.3474  1.7497
 3308TIP3   OH2 9887   6.989   5.405   1.253  0.2107 -0.4495  0.4061
 3308TIP3    H1 9888   7.085   5.410   1.248  0.2533  0.1504  1.4257
 3308TIP3    H2 9889   6.965   5.480   1.308 -0.6974 -1.6092  1.6688
 3309TIP3   OH2 9890   5.505   4.527   5.208 -0.5811 -0.4087  0.2489
 3309TIP3    H1 9891   5.511   4.476   5.289 -1.0499 -0.7616  0.0638
 3309TIP3    H2 9892   5.586   4.578   5.206  0.2538 -1.7026  0.0630
 3310TIP3   OH2 9893   4.444   3.836   3.944 -0.2235 -0.1513  0.5981
 3310TIP3    H1 9894   4.509   3.899   3.911  1.1343 -2.0668 -0.6114
 3310TIP3    H2 9895   4.490   3.789   4.014 -1.3901  0.4728  1.8238
 3311TIP3   OH2 9896   4.066   1.220   4.344  0.1425  0.1770 -0.1550
 3311TIP3    H1 9897   4.073   1.291   4.281 -0.7243  0.4541  0.0409
 3311TIP3    H2 9898   4.049   1.263   4.428 -1.1016 -0.2562 -0.1514
 3312TIP3   OH2 9899   2.602   4.618   0.482 -0.1485  0.4512 -0.4872
 3312TIP3    H1 9900   2.603   4.627   0.577 -1.3101  0.3931 -0.4579
 3312TIP3    H2 9901   2.511   4.600   0.460 -0.6726  4.0694 -1.9520
 3313TIP3   OH2 9902   4.443   4.709   0.070  0.2098 -0.3680  0.0831
 3313TIP3    H1 9903   4.480   4.674   0.151 -1.2688  0.6585  1.2722
 3313TIP3    H2 9904   4.353   4.731   0.093  0.5324  2.5813 -0.9922
 3314TIP3   OH2 9905   1.871   3.963   3.012  0.4707  0.4735  0.3301
 3314TIP3    H1 9906   1.776   3.957   3.027  0.5300  0.3108  0.6482
 3314TIP3    H2 9907   1.904   3.875   3.031  0.5877  0.3267 -0.5132
 3315TIP3   OH2 9908   6.595   6.675   0.436  0.1225 -0.0106  0.2649
 3315TIP3    H1 9909   6.565   6.701   0.523  0.7039  0.1549  0.4135
 3315TIP3    H2 9910   6.544   6.596   0.417 -1.7746  1.2541 -0.2616
 3316TIP3   OH2 9911   1.368   6.086   4.887  0.5082 -0.3297  0.2486
 3316TIP3    H1 9912   1.329   6.000   4.877  0.8295 -0.5344  0.7205
 3316TIP3    H2 9913   1.326   6.139   4.819  1.0575 -1.1104 -0.7229
 3317TIP3   OH2 9914   0.368   1.970   1.514 -0.6032 -0.1059 -0.5249
 3317TIP3    H1 9915   0.340   2.058   1.537 -1.0800  0.1028 -1.7867
 3317TIP3    H2 9916   0.433   1.946   1.580 -0.9173  0.9471  0.1775
 3318TIP3   OH2 9917   0.380   4.207   4.880 -0.4377  0.0483  0.1000
 3318TIP3    H1 9918   0.405   4.145   4.811  0.3965  0.3592  0.1133
 3318TIP3    H2 9919   0.314   4.263   4.839  0.5234  0.6506 -0.6738
 3319TIP3   OH2 9920   3.456   2.788   3.175 -0.0567 -0.0481  0.4997
 3319TIP3    H1 9921   3.515   2.757   3.105 -0.3786  1.0690 -0.3000
 3319TIP3    H2 9922   3.491   2.749   3.255  1.1766 -0.2231 -0.0992
 3320TIP3   OH2 9923   6.729   1.954   4.215 -0.0435  0.0166  0.2415
 3320TIP3    H1 9924   6.651   1.929   4.164 -0.3800  0.9124  0.2880
 3320TIP3    H2 9925   6.802   1.944   4.154 -0.3082 -0.0089 -0.0731
 3321TIP3   OH2 9926   0.138   4.962   0.871  0.4421 -0.4355 -0.2499
 3321TIP3    H1 9927   0.197   4.959   0.795  0.1067  0.6837 -0.5741
 3321TIP3    H2 9928   0.072   5.027   0.847 -0.4779 -1.0927  0.4350
 3322TIP3   OH2 9929   4.759   1.445   1.401 -0.5536  0.1079  0.2841
 3322TIP3    H1 9930   4.821   1.474   1.335  0.1595 -1.2874  0.2919
 3322TIP3    H2 9931   4.691   1.512   1.402 -0.0537  0.6672 -1.1332
 3323TIP3   OH2 9932   4.613   1.081   1.712 -0.1189  0.1590 -0.3690
 3323TIP3    H1 9933   4.679   1.144   1.683  0.5614 -0.3497  0.0487
 3323TIP3    H2 9934   4.593   1.030   1.634  0.9914 -0.5735 -0.1831
 3324TIP3   OH2 9935   4.866   3.490   1.683  0.1857 -0.5111  0.3117
 3324TIP3    H1 9936   4.810   3.513   1.609  0.3721 -0.2112  0.2647
 3324TIP3    H2 9937   4.896   3.574   1.718 -0.8319 -0.5987  1.4470
 3325TIP3   OH2 9938   2.149   2.406   2.662  0.3022  0.0783 -0.0808
 3325TIP3    H1 9939   2.243   2.406   2.677  0.3063 -1.0731  0.0409
 3325TIP3    H2 9940   2.136   2.349   2.586 -0.2735  0.3561 -0.1988
 3326TIP3   OH2 9941   0.275   6.303   1.678 -0.0358  0.3975  0.0623
 3326TIP3    H1 9942   0.237   6.273   1.761 -1.9983  2.0547 -0.1753
 3326TIP3    H2 9943   0.222   6.260   1.611 -0.4756  1.4524 -0.2850
 3327TIP3   OH2 9944   0.328   2.122   4.645  0.0557 -0.1778  0.1681
 3327TIP3    H1 9945   0.319   2.217   4.651  0.0520 -0.2564  1.8989
 3327TIP3    H2 9946   0.412   2.109   4.600 -0.2260  0.6167 -0.6237
 3328TIP3   OH2 9947   5.165   5.052   3.268  0.2098  0.0506 -0.2510
 3328TIP3    H1 9948   5.131   5.139   3.244  0.1613  0.2917  0.6722
 3328TIP3    H2 9949   5.114   5.027   3.345  1.7476  0.1862  0.8401
 3329TIP3   OH2 9950   1.430   4.589   3.868  0.1107 -0.3612  0.1052
 3329TIP3    H1 9951   1.399   4.605   3.957  1.5487 -0.7577  0.7075
 3329TIP3    H2 9952   1.518   4.626   3.866 -0.5099  1.1723 -1.6929
 3330TIP3   OH2 9953   3.861   0.621   4.500 -0.0799  0.0675  0.3696
 3330TIP3    H1 9954   3.820   0.552   4.449 -1.8795  1.8506 -0.7220
 3330TIP3    H2 9955   3.936   0.578   4.542 -0.2057 -2.1377 -1.4720
 3331TIP3   OH2 9956   6.066   5.975   0.417  0.0783  0.4679 -0.7134
 3331TIP3    H1 9957   6.039   6.055   0.372 -1.5961  0.9338  0.9857
 3331TIP3    H2 9958   6.089   5.914   0.347  0.0219  1.9789 -2.0869
 3332TIP3   OH2 9959   6.801   0.010   1.146  0.2982 -0.3844 -0.5252
 3332TIP3    H1 9960   6.760   0.055   1.071  0.2717 -1.1182 -0.9590
 3332TIP3    H2 9961   6.872  -0.040   1.108 -0.4763 -1.7478 -0.2501
 3333TIP3   OH2 9962   6.400   5.144   1.095 -0.0842 -0.6923  0.0562
 3333TIP3    H1 9963   6.398   5.171   1.187  0.8623  1.7508 -0.5660
 3333TIP3    H2 9964   6.311   5.159   1.063 -0.4880 -1.7999  0.5833
 3334TIP3   OH2 9965   0.924   1.681   5.675 -0.1090 -0.0713  0.0340
 3334TIP3    H1 9966   0.895   1.675   5.766 -1.1698 -2.4382 -0.3859
 3334TIP3    H2 9967   0.844   1.681   5.623  0.4930  0.7852 -0.9364
 3335TIP3   OH2 9968   5.693   0.593   4.891  0.0579 -0.1074 -0.3450
 3335TIP3    H1 9969   5.673   0.521   4.831 -2.3881  1.4638 -1.6023
 3335TIP3    H2 9970   5.620   0.593   4.954  1.3894 -0.3015  1.2592
 3336TIP3   OH2 9971   4.440   3.268   0.124 -0.4882 -0.0065 -0.8139
 3336TIP3    H1 9972   4.517   3.243   0.175 -0.3076 -0.1378 -1.1442
 3336TIP3    H2 9973   4.470   3.266   0.033 -0.1017  2.6837 -0.8173
 3337TIP3   OH2 9974   1.868   4.751   1.548 -0.0179 -0.1437  0.4641
 3337TIP3    H1 9975   1.951   4.742   1.595 -0.7686 -0.3873  1.7723
 3337TIP3    H2 9976   1.875   4.688   1.475  1.5679  0.9743 -0.4097
 3338TIP3   OH2 9977   6.499   1.582   4.450 -0.6579  0.3201 -0.5063
 3338TIP3    H1 9978   6.409   1.605   4.427 -1.1826 -0.6166  0.4958
 3338TIP3    H2 9979   6.534   1.660   4.492  0.0775  1.8091 -3.5748
 3339TIP3   OH2 9980   1.972   0.486   0.679 -0.7347 -0.0293  0.2045
 3339TIP3    H1 9981   2.033   0.551   0.713 -0.8507 -0.9685  2.3461
 3339TIP3    H2 9982   1.917   0.534   0.617  1.1339  1.1775 -0.6255
 3340TIP3   OH2 9983   1.302   3.989   5.123  0.5020  0.6749  0.7017
 3340TIP3    H1 9984   1.328   3.956   5.037  1.2676  1.5062  0.6046
 3340TIP3    H2 9985   1.333   3.923   5.184 -2.0261 -1.0978  0.2531
 3341TIP3   OH2 9986   5.126   3.397   3.404 -0.4050  0.3184  0.1225
 3341TIP3    H1 9987   5.060   3.340   3.446 -1.3047 -0.5375 -2.2917
 3341TIP3    H2 9988   5.209   3.370   3.443 -1.1189 -0.8058  0.9416
 3342TIP3   OH2 9989   4.410   6.766   3.230  0.3729  0.7211 -0.3308
 3342TIP3    H1 9990   4.363   6.848   3.223  0.0348  0.4636 -1.2120
 3342TIP3    H2 9991   4.387   6.718   3.150  0.6693 -0.1689  0.1038
 3343TIP3   OH2 9992   4.964   5.613   5.765  0.0112 -0.0037  0.4294
 3343TIP3    H1 9993   4.903   5.630   5.694  1.9962 -1.0887 -1.6628
 3343TIP3    H2 9994   5.042   5.665   5.744 -0.4728  2.3355  3.6761
 3344TIP3   OH2 9995   6.323   5.323   5.557 -0.3751 -0.0539 -0.2623
 3344TIP3    H1 9996   6.393   5.333   5.622 -0.5987 -0.4539  0.0453
 3344TIP3    H2 9997   6.243   5.313   5.609 -0.7180  0.7753 -0.6171
 3345TIP3   OH2 9998   3.506   5.550   1.734 -0.0656  0.5085 -0.2883
 3345TIP3    H1 9999   3.549   5.618   1.786  2.3592 -0.5633 -0.7407
 3345TIP3    H210000   3.426   5.530   1.783  1.1156  0.9425  2.0077
 3346TIP3   OH210001   7.124   1.556   3.056 -0.1741  0.1543 -0.1961
 3346TIP3    H110002   7.171   1.474   3.040  0.0754  0.6300 -2.0493
 3346TIP3    H210003   7.031   1.532   3.046 -0.3385 -0.5175  2.2755
 3347TIP3   OH210004   2.123   0.725   3.452  0.1759  0.2880 -0.2104
 3347TIP3    H110005   2.047   0.677   3.417  1.4863 -1.1608 -1.1992
 3347TIP3    H210006   2.136   0.797   3.390 -0.2781  0.4423 -0.1335
 3348TIP3   OH210007   0.865   2.120   1.679 -0.0170  0.5465  0.5978
 3348TIP3    H110008   0.886   2.088   1.767 -1.0242 -1.1260  0.2737
 3348TIP3    H210009   0.938   2.091   1.625 -0.3360 -0.1518  0.5344
 3349TIP3   OH210010   4.185   0.220   1.484  0.0674 -0.4780 -0.1805
 3349TIP3    H110011   4.273   0.248   1.458 -0.7122  2.4258  0.0668
 3349TIP3    H210012   4.183   0.232   1.579 -0.7034 -0.2390 -0.2240
 3350TIP3   OH210013   4.467   2.825   5.228  0.2719  0.1968 -0.1986
 3350TIP3    H110014   4.463   2.731   5.213  0.9982  0.0591  0.3917
 3350TIP3    H210015   4.442   2.835   5.320  1.3764  0.4579  0.0819
 3351TIP3   OH210016   3.386   4.338   2.000 -0.0583 -0.2358 -0.0954
 3351TIP3    H110017   3.367   4.300   2.086  0.1262  1.1133  0.5630
 3351TIP3    H210018   3.470   4.299   1.974 -0.6344 -1.4737 -0.1838
 3352TIP3   OH210019   4.659   1.498   3.427 -0.0842  0.0450 -0.2368
 3352TIP3    H110020   4.669   1.585   3.466  1.5179 -0.4253  0.4936
 3352TIP3    H210021   4.701   1.504   3.342 -0.3181  0.0757 -0.3525
 3353TIP3   OH210022   0.888   0.202   4.345 -0.0846 -0.4575 -0.0033
 3353TIP3    H110023   0.852   0.195   4.433 -1.5498 -1.5253 -0.6476
 3353TIP3    H210024   0.823   0.158   4.289  1.1736 -0.4682 -1.5119
 3354TIP3   OH210025   1.919   3.237   2.236 -0.3021 -0.2866  0.5478
 3354TIP3    H110026   1.946   3.236   2.144  1.1540 -1.7026  0.9404
 3354TIP3    H210027   1.919   3.329   2.260  1.7554 -0.0200 -0.2393
 3355TIP3   OH210028   3.623   4.208   1.954 -0.4967 -0.6085 -0.2640
 3355TIP3    H110029   3.598   4.117   1.964 -0.2472 -0.5795  0.7447
 3355TIP3    H210030   3.713   4.212   1.986 -0.9645  0.2330  1.0597
 3356TIP3   OH210031   1.090   0.986   0.470 -0.4951  0.2095 -0.0272
 3356TIP3    H110032   1.054   1.044   0.402  1.3426  2.0468  0.4731
 3356TIP3    H210033   1.120   0.908   0.422  1.3749  1.7429 -1.5037
 3357TIP3   OH210034   5.087   4.082   3.798  0.2897 -0.1897  0.9923
 3357TIP3    H110035   5.007   4.126   3.828  0.2812  0.5542 -0.0785
 3357TIP3    H210036   5.107   4.123   3.714  2.1717  0.0753  1.5383
 3358TIP3   OH210037   2.987   0.078   1.333  0.5335 -0.3886 -0.5164
 3358TIP3    H110038   2.940   0.041   1.408 -0.7890  0.0684 -1.0929
 3358TIP3    H210039   3.064   0.022   1.323 -0.2166 -1.5545  0.0581
 3359TIP3   OH210040   6.571   5.514   5.334 -0.0846  0.7678  0.1328
 3359TIP3    H110041   6.652   5.489   5.290 -0.9674  0.3370 -1.2865
 3359TIP3    H210042   6.504   5.512   5.266 -1.3881  0.6845  1.3611
 3360TIP3   OH210043   1.295   4.256   2.218  0.4843  0.0493 -0.2605
 3360TIP3    H110044   1.372   4.207   2.247 -0.5564 -0.9884  0.9133
 3360TIP3    H210045   1.244   4.269   2.298 -0.1010  1.5757 -0.8499
 3361TIP3   OH210046   1.235   0.183   1.682 -0.4069  0.2182  0.3832
 3361TIP3    H110047   1.261   0.242   1.611 -0.0677 -0.6295 -0.2277
 3361TIP3    H210048   1.309   0.183   1.743  0.6616 -1.3558 -0.8087
 3362TIP3   OH210049   4.202   6.690   4.512  0.2369 -0.0546  0.2520
 3362TIP3    H110050   4.116   6.702   4.553  0.4355  0.6290  0.4678
 3362TIP3    H210051   4.257   6.653   4.581  0.5712  1.0959  0.6109
 3363TIP3   OH210052   1.290   5.288   0.763  0.2829  0.5191  0.1514
 3363TIP3    H110053   1.280   5.193   0.758 -1.1020  0.5236  1.9245
 3363TIP3    H210054   1.383   5.303   0.743  0.6312 -1.2267  0.2665
 3364TIP3   OH210055   6.578   6.406   3.673  0.1550 -0.1138 -0.1308
 3364TIP3    H110056   6.537   6.320   3.684 -0.6173  0.3624  0.9496
 3364TIP3    H210057   6.671   6.390   3.688 -0.0445 -0.6872  0.6104
 3365TIP3   OH210058   5.422   5.735   0.689  0.2347  0.1857 -0.3409
 3365TIP3    H110059   5.461   5.730   0.776  1.8409  2.6656 -0.8321
 3365TIP3    H210060   5.388   5.824   0.683 -1.6816 -0.5512 -1.5744
 3366TIP3   OH210061   2.515   2.616   2.236  0.2305 -0.5349  0.5874
 3366TIP3    H110062   2.567   2.637   2.158 -0.4559  2.5102  0.8328
 3366TIP3    H210063   2.472   2.533   2.215  1.6314 -0.8226 -1.4323
 3367TIP3   OH210064   6.272   1.861   4.490 -0.3954  0.2229  0.7952
 3367TIP3    H110065   6.248   1.942   4.446  1.1663  0.4338  0.2483
 3367TIP3    H210066   6.365   1.872   4.509  0.0212 -1.7088  0.0935
 3368TIP3   OH210067   0.905   1.492   0.025  0.2910  0.5409  0.1757
 3368TIP3    H110068   0.933   1.573  -0.016  0.0854  0.0759 -0.9439
 3368TIP3    H210069   0.883   1.516   0.115 -0.1005  1.7934 -0.2335
 3369TIP3   OH210070   6.492   6.480   5.111  0.7030 -0.0201 -0.4762
 3369TIP3    H110071   6.538   6.436   5.183 -0.5128 -1.0949 -0.3151
 3369TIP3    H210072   6.527   6.441   5.032  1.8063  0.9302 -0.4900
 3370TIP3   OH210073   0.802   1.598   5.439 -0.6057 -0.3931  0.8991
 3370TIP3    H110074   0.720   1.560   5.472 -0.7956 -0.1412  0.7170
 3370TIP3    H210075   0.859   1.523   5.424 -0.7863 -0.5661  1.0763
 3371TIP3   OH210076   5.422   2.980   4.124  0.5020 -0.2202  0.0485
 3371TIP3    H110077   5.354   3.047   4.126 -0.2109 -0.8757 -1.1263
 3371TIP3    H210078   5.378   2.901   4.156  0.4739 -0.8225 -1.3929
 3372TIP3   OH210079   5.348   2.991   3.448  0.4775 -0.0116  0.6167
 3372TIP3    H110080   5.385   3.061   3.394 -0.9833  0.2988 -0.0282
 3372TIP3    H210081   5.292   3.035   3.511  1.0022 -0.4902  1.4479
 3373TIP3   OH210082   6.042   0.327   5.516  0.0026 -0.1802  0.6729
 3373TIP3    H110083   6.037   0.389   5.589 -2.1836 -0.8597  1.1768
 3373TIP3    H210084   6.102   0.368   5.454 -0.9947  2.2260  1.1853
 3374TIP3   OH210085   4.597   3.101   5.137  0.1510 -0.4385 -0.1813
 3374TIP3    H110086   4.548   3.021   5.158 -1.1244  0.7301  1.6415
 3374TIP3    H210087   4.539   3.150   5.079 -0.3901  0.4281  1.0493
 3375TIP3   OH210088   5.652   6.541   0.966  0.9603 -0.0192 -0.1443
 3375TIP3    H110089   5.635   6.630   0.997  0.0325 -0.7657  1.6456
 3375TIP3    H210090   5.743   6.524   0.991  0.9646  0.2266  0.0161
 3376TIP3   OH210091   0.801   4.590   1.951  0.0676 -0.4938 -0.3742
 3376TIP3    H110092   0.716   4.623   1.922  0.2350  0.0073 -0.2933
 3376TIP3    H210093   0.854   4.668   1.964 -0.0067 -0.6810  1.3333
 3377TIP3   OH210094   0.266   6.145   0.783  0.0197 -0.2973  0.0931
 3377TIP3    H110095   0.337   6.162   0.845  1.3868 -0.3245 -1.4109
 3377TIP3    H210096   0.219   6.228   0.777  0.4478 -0.0215  0.4762
 3378TIP3   OH210097   6.426   0.762   1.236  0.0105 -0.4786 -0.1177
 3378TIP3    H110098   6.348   0.816   1.225  0.0631 -0.2016  0.7900
 3378TIP3    H210099   6.499   0.824   1.242  0.0072 -0.6028  1.4830
 3379TIP3   OH210100   1.281   6.670   2.793 -0.0413  0.4188 -0.6859
 3379TIP3    H110101   1.354   6.609   2.799 -0.5144 -0.3365 -2.0721
 3379TIP3    H210102   1.287   6.724   2.872  1.3952 -0.2974 -0.2849
 3380TIP3   OH210103   2.582   5.481   3.856 -0.0836  0.3372 -0.2226
 3380TIP3    H110104   2.541   5.503   3.772  0.0233 -0.3125 -0.4513
 3380TIP3    H210105   2.510   5.480   3.918 -0.6755 -1.9973 -0.8418
 3381TIP3   OH210106   0.389   5.966   5.780  0.2916 -0.1358  0.0871
 3381TIP3    H110107   0.398   6.054   5.816  1.5662 -0.1010 -0.2724
 3381TIP3    H210108   0.450   5.912   5.830  0.6690 -0.4854 -0.7272
 3382TIP3   OH210109   2.823   0.022   2.074 -0.2963 -0.1383 -0.0855
 3382TIP3    H110110   2.730   0.016   2.052 -0.1145 -0.5572 -0.7754
 3382TIP3    H210111   2.868   0.009   1.990  0.3902 -0.3935  0.3167
 3383TIP3   OH210112   0.790   2.219   5.168  0.9765  0.6257 -0.1480
 3383TIP3    H110113   0.699   2.211   5.139 -0.0331  3.4072  1.8055
 3383TIP3    H210114   0.791   2.181   5.255  1.6072  0.9652 -0.0043
 3384TIP3   OH210115   3.639   2.082   4.113  0.3184 -0.2683 -0.5671
 3384TIP3    H110116   3.578   2.099   4.040 -3.0840  2.1141  2.4743
 3384TIP3    H210117   3.698   2.158   4.112 -0.2137  0.1533 -0.4056
 3385TIP3   OH210118   7.042   5.386   2.167 -0.0223  0.6422  0.1105
 3385TIP3    H110119   7.001   5.362   2.084 -1.8211 -0.7379  1.3220
 3385TIP3    H210120   7.031   5.481   2.173 -0.2305  0.6998 -1.0195
 3386TIP3   OH210121   5.138   6.121   4.932  0.2269  0.2922  0.8010
 3386TIP3    H110122   5.218   6.102   4.884 -1.6296 -2.2758 -1.5829
 3386TIP3    H210123   5.106   6.203   4.894  0.6292  0.1998  0.2562
 3387TIP3   OH210124   6.727   4.025   2.746 -0.3944  0.0656  0.1793
 3387TIP3    H110125   6.748   3.945   2.697  1.9212  1.0723 -0.5730
 3387TIP3    H210126   6.771   4.013   2.830  1.5355  1.2778 -0.6095
 3388TIP3   OH210127   1.884   2.326   4.363  0.2042  0.0059  0.0213
 3388TIP3    H110128   1.892   2.292   4.452 -2.6350 -0.5577  0.1387
 3388TIP3    H210129   1.796   2.302   4.335  1.0943 -0.1029 -3.0901
 3389TIP3   OH210130   6.078   3.644   0.674 -0.3724 -0.5173  0.2306
 3389TIP3    H110131   6.001   3.588   0.678  0.1698 -1.2271  1.0997
 3389TIP3    H210132   6.127   3.611   0.598 -0.4774 -0.6525  0.2204
 3390TIP3   OH210133   1.088   0.921   1.089  0.4864 -0.0593 -0.4350
 3390TIP3    H110134   1.079   0.837   1.135  0.2040 -0.8021 -1.8019
 3390TIP3    H210135   1.179   0.946   1.102  1.0101 -1.3875 -1.3198
 3391TIP3   OH210136   7.143   2.384   1.727  0.5318  0.2492  0.1601
 3391TIP3    H110137   7.197   2.353   1.799 -0.9678 -0.8480  0.8710
 3391TIP3    H210138   7.122   2.475   1.750 -0.9277 -0.4453  1.7746
 3392TIP3   OH210139   5.138   4.827   4.868 -0.2369  0.5203  0.0207
 3392TIP3    H110140   5.090   4.774   4.805 -2.6848  0.5166  1.7585
 3392TIP3    H210141   5.159   4.908   4.820 -0.3583 -0.2320 -1.3402
 3393TIP3   OH210142   2.864   2.457   2.970 -0.3252  0.0027  0.7369
 3393TIP3    H110143   2.940   2.404   2.945  0.7760  1.3899  1.0125
 3393TIP3    H210144   2.829   2.414   3.048  0.1271 -0.6888  0.5703
 3394TIP3   OH210145   1.945   1.341   4.406  0.6481  0.5866  0.1379
 3394TIP3    H110146   1.918   1.254   4.375 -0.0959  0.2248  1.6960
 3394TIP3    H210147   1.954   1.393   4.326  1.6338 -1.0509 -0.8699
 3395TIP3   OH210148   1.838   3.638   5.000  0.0890  0.1841 -0.4276
 3395TIP3    H110149   1.877   3.676   5.079  0.5775  0.8592 -0.9783
 3395TIP3    H210150   1.814   3.550   5.026 -0.5234  0.6648  0.7188
 3396TIP3   OH210151   6.694   4.396   0.942 -0.4822  0.0009 -1.0092
 3396TIP3    H110152   6.613   4.346   0.952 -1.1599  1.0183 -1.2622
 3396TIP3    H210153   6.682   4.445   0.861 -0.1404  1.1006 -0.4128
 3397TIP3   OH210154   2.024   1.753   4.166 -0.6844  0.5071  0.1976
 3397TIP3    H110155   2.092   1.816   4.191 -1.1241  0.3302  1.9587
 3397TIP3    H210156   2.069   1.692   4.108  0.5713  0.6346  0.9969
 3398TIP3   OH210157   4.009   5.883   0.267 -0.0038 -0.7513  0.0365
 3398TIP3    H110158   3.935   5.888   0.328 -1.2712 -0.3673 -1.4644
 3398TIP3    H210159   4.054   5.802   0.291 -1.5702 -1.5935  0.2953
 3399TIP3   OH210160   0.424   4.155   0.998  0.5759  0.0593  0.1851
 3399TIP3    H110161   0.330   4.165   1.014  0.1776 -1.6356 -0.8443
 3399TIP3    H210162   0.458   4.119   1.080  0.0533 -0.6811  0.0910
 3400TIP3   OH210163   1.364   1.987   1.007 -0.3058  0.0224  0.0189
 3400TIP3    H110164   1.284   1.966   1.056 -1.5533  0.5623 -1.6686
 3400TIP3    H210165   1.362   1.928   0.932 -0.0228  1.1374 -0.9057
 3401TIP3   OH210166   0.493   5.844   4.964 -0.6784 -0.1696  0.1909
 3401TIP3    H110167   0.399   5.852   4.980 -0.6251 -0.4240  0.6450
 3401TIP3    H210168   0.534   5.880   5.043 -0.4035 -0.6899  0.2921
 3402TIP3   OH210169   6.666   3.606   4.750 -0.2696  0.2502  0.4954
 3402TIP3    H110170   6.591   3.666   4.757  0.0986  0.6377  1.1749
 3402TIP3    H210171   6.627   3.524   4.721 -1.3137 -0.1960  2.8825
 3403TIP3   OH210172   1.554   4.674   3.605 -0.0711 -0.7114  0.4677
 3403TIP3    H110173   1.641   4.677   3.566 -0.2722  0.8140  0.0851
 3403TIP3    H210174   1.570   4.676   3.699  0.2987 -0.6168  0.4035
 3404TIP3   OH210175   4.526   3.560   3.503  0.4656  0.4042 -0.0343
 3404TIP3    H110176   4.553   3.523   3.587  1.3034  0.4796 -0.2705
 3404TIP3    H210177   4.589   3.629   3.485  0.5757  0.0770 -0.9533
 3405TIP3   OH210178   0.520   5.733   5.564 -0.3177 -0.4214  0.4224
 3405TIP3    H110179   0.518   5.819   5.607  1.7290 -0.4202  0.6168
 3405TIP3    H210180   0.456   5.681   5.613 -1.3859  0.8763  0.4920
 3406TIP3   OH210181   3.018   1.027   2.478 -0.3146 -0.1015  0.3584
 3406TIP3    H110182   3.074   0.950   2.489  0.4933  0.7434  3.0386
 3406TIP3    H210183   2.929   0.993   2.489 -0.2008 -1.0391 -1.2936
 3407TIP3   OH210184   1.286   1.842   5.279  0.1639  0.0246  0.6514
 3407TIP3    H110185   1.317   1.865   5.192 -0.3767  0.1998  0.5005
 3407TIP3    H210186   1.361   1.801   5.322 -0.2941 -2.4819 -0.7716
 3408TIP3   OH210187   3.501   4.541   1.489  0.3788  0.2542 -0.1429
 3408TIP3    H110188   3.539   4.499   1.566  2.1222  2.3939  0.2893
 3408TIP3    H210189   3.450   4.614   1.523  0.7322  0.9130 -0.9766
 3409TIP3   OH210190   5.452   6.261   5.160  0.0855  0.2637 -0.5004
 3409TIP3    H110191   5.542   6.234   5.181  0.3764  0.0590 -1.9498
 3409TIP3    H210192   5.450   6.353   5.183  0.5738  0.1970 -0.1552
 3410TIP3   OH210193   1.641   3.447   1.396 -0.4640  0.1145 -0.5411
 3410TIP3    H110194   1.733   3.469   1.379 -0.5117  1.0196  0.2614
 3410TIP3    H210195   1.601   3.442   1.309  0.9294 -3.2321 -1.1375
 3411TIP3   OH210196   0.908   4.429   5.350 -0.3693 -0.1461  0.1821
 3411TIP3    H110197   0.847   4.425   5.276 -1.3422  0.7966  0.9100
 3411TIP3    H210198   0.995   4.430   5.309 -0.8584  4.3639 -1.2717
 3412TIP3   OH210199   3.584   1.094   4.872 -0.8644  0.0177  0.5570
 3412TIP3    H110200   3.566   1.018   4.928 -1.7801 -0.4909 -0.4079
 3412TIP3    H210201   3.498   1.131   4.854 -0.5456  0.4110 -0.1887
 3413TIP3   OH210202   4.518   3.311   4.568  0.7871  0.3248  0.1085
 3413TIP3    H110203   4.456   3.264   4.622  0.8327 -2.1526 -1.8079
 3413TIP3    H210204   4.485   3.401   4.565 -1.8118 -0.5629  0.4066
 3414TIP3   OH210205   6.188   2.700   1.396  0.3101  0.0297 -0.0497
 3414TIP3    H110206   6.250   2.764   1.359  0.7423 -0.0313  0.5489
 3414TIP3    H210207   6.102   2.729   1.366  0.5637  0.5401 -0.2906
 3415TIP3   OH210208   3.016   2.469   5.803 -0.8357  0.1003 -0.3923
 3415TIP3    H110209   3.024   2.386   5.851 -1.2807  0.3784  0.1723
 3415TIP3    H210210   3.092   2.470   5.745 -0.4457 -0.3804  0.0975
 3416TIP3   OH210211   7.033   6.812   4.453 -0.2864 -0.7121  0.2387
 3416TIP3    H110212   7.059   6.763   4.531 -1.4052 -0.3390  0.8614
 3416TIP3    H210213   6.963   6.761   4.414 -0.8585 -0.0735  0.4039
 3417TIP3   OH210214   7.099   3.070   0.395  0.6658 -0.3398 -0.2258
 3417TIP3    H110215   7.161   3.042   0.328 -0.0781  0.9824 -1.5527
 3417TIP3    H210216   7.064   2.989   0.432  1.4704 -1.0993 -1.0913
 3418TIP3   OH210217   3.870   2.274   5.356  0.1939 -0.1868  0.2789
 3418TIP3    H110218   3.870   2.179   5.342 -1.8835 -0.0458 -1.1526
 3418TIP3    H210219   3.827   2.285   5.441  0.1436 -0.5175  0.3005
 3419TIP3   OH210220   3.714   6.001   1.119  0.3262 -0.0573 -0.0064
 3419TIP3    H110221   3.651   5.964   1.057 -0.4931  1.3744 -0.0692
 3419TIP3    H210222   3.676   6.086   1.144  1.6111  0.2670  0.9367
 3420TIP3   OH210223   0.073   3.866   3.786 -0.2739 -0.1611 -0.1034
 3420TIP3    H110224   0.055   3.960   3.787 -0.3082 -0.1669 -0.2174
 3420TIP3    H210225   0.022   3.831   3.859  0.1038 -0.0241  0.2364
 3421TIP3   OH210226   4.691   5.557   4.640 -0.2293  0.0197 -0.3236
 3421TIP3    H110227   4.609   5.526   4.676  0.0615 -0.3784  0.0078
 3421TIP3    H210228   4.714   5.494   4.572 -0.4482  0.4114 -0.7723
 3422TIP3   OH210229   0.278   5.182   5.767 -0.4260  0.0219 -0.2505
 3422TIP3    H110230   0.200   5.136   5.799 -0.2033 -1.3643 -1.5512
 3422TIP3    H210231   0.260   5.195   5.673  0.2982  0.9851 -0.2599
 3423TIP3   OH210232   2.262   6.724   5.574 -0.8072 -0.2930 -0.0771
 3423TIP3    H110233   2.251   6.815   5.548 -1.0024 -0.8486 -2.1178
 3423TIP3    H210234   2.239   6.673   5.496 -0.9253 -2.1094  1.0593
 3424TIP3   OH210235   0.287   0.655   5.628 -0.0067  0.1590 -0.2967
 3424TIP3    H110236   0.376   0.621   5.640  0.1319  0.4176 -0.5747
 3424TIP3    H210237   0.289   0.697   5.541 -0.5054 -0.1755 -0.4727
 3425TIP3   OH210238   4.411   1.618   4.683  0.1918 -0.1676 -0.0989
 3425TIP3    H110239   4.348   1.569   4.737  0.1830  0.9538  0.9661
 3425TIP3    H210240   4.468   1.661   4.747  0.4184  0.9058 -1.0006
 3426TIP3   OH210241   6.004   2.310   3.713  0.1534 -0.4881 -0.6106
 3426TIP3    H110242   6.074   2.338   3.772 -0.9420  0.2682  0.3961
 3426TIP3    H210243   6.022   2.218   3.695  1.6735 -0.1711 -0.7904
 3427TIP3   OH210244   5.279   0.493   4.974 -0.6925  0.7016 -0.4348
 3427TIP3    H110245   5.340   0.556   5.012 -1.8801  2.2341 -0.9505
 3427TIP3    H210246   5.230   0.458   5.048 -0.3800  0.7846 -0.1897
 3428TIP3   OH210247   0.101   5.025   0.453  0.3187 -0.1436 -0.2267
 3428TIP3    H110248   0.012   5.036   0.489  0.0366 -2.1324 -0.2017
 3428TIP3    H210249   0.132   5.115   0.439 -1.7098  0.6104 -0.2838
 3429TIP3   OH210250   3.254   4.699   4.937  0.2877 -0.0899 -0.3905
 3429TIP3    H110251   3.189   4.675   5.004 -1.0595 -2.5540 -2.3719
 3429TIP3    H210252   3.217   4.776   4.895  0.6526  0.8753  0.9813
 3430TIP3   OH210253   1.469   5.774   5.416  0.2315 -0.2788 -0.0950
 3430TIP3    H110254   1.562   5.765   5.394  0.6068  1.5896  0.5832
 3430TIP3    H210255   1.464   5.750   5.508  0.1573  0.1782  0.0229
 3431TIP3   OH210256   1.475   5.693   3.885  0.1922 -0.3201  0.2734
 3431TIP3    H110257   1.395   5.646   3.909  0.3811 -1.8022 -1.8189
 3431TIP3    H210258   1.444   5.781   3.861 -0.3958  0.0767  2.2268
 3432TIP3   OH210259   7.075   4.484   5.148  0.2728  0.2283 -0.1094
 3432TIP3    H110260   7.149   4.483   5.209 -0.6256 -2.8108  1.1305
 3432TIP3    H210261   7.080   4.400   5.103 -0.0061  1.7674 -3.2343
 3433TIP3   OH210262   0.550   5.686   1.290 -0.1320  0.0515  0.1724
 3433TIP3    H110263   0.591   5.602   1.270  0.5941  0.7354 -1.3517
 3433TIP3    H210264   0.607   5.725   1.356  1.0677  0.4860 -1.0815
 3434TIP3   OH210265   5.014   0.103   5.760  0.6012 -0.0207 -0.7021
 3434TIP3    H110266   4.927   0.119   5.797  1.0143  0.4956  0.0806
 3434TIP3    H210267   5.036   0.184   5.714  1.0714  0.2340 -0.0518
 3435TIP3   OH210268   3.851   5.248   4.840  0.5258  0.2056  0.0118
 3435TIP3    H110269   3.909   5.205   4.778 -0.8144  0.6589 -1.6257
 3435TIP3    H210270   3.874   5.210   4.925  3.3666  0.5682 -0.4923
 3436TIP3   OH210271   3.015   3.302   3.045 -0.5102  0.1195  0.1122
 3436TIP3    H110272   3.055   3.315   2.959 -0.6951  0.9751  0.1457
 3436TIP3    H210273   3.089   3.293   3.105 -0.3289  2.1337  0.2389
 3437TIP3   OH210274   6.600   4.744   2.919 -0.3021 -0.0939  0.2064
 3437TIP3    H110275   6.662   4.776   2.854 -1.4561  0.9244 -0.4308
 3437TIP3    H210276   6.609   4.803   2.993  0.0103 -0.3983  0.4134
 3438TIP3   OH210277   3.301   4.754   4.088 -0.1426  0.2861 -0.4736
 3438TIP3    H110278   3.376   4.776   4.144 -1.0174  2.1216  0.0710
 3438TIP3    H210279   3.233   4.724   4.150 -0.6806  1.0767 -0.6629
 3439TIP3   OH210280   1.828   4.472   0.546 -0.2058  0.1368  0.1657
 3439TIP3    H110281   1.876   4.487   0.465 -0.4912  1.5311  0.2381
 3439TIP3    H210282   1.837   4.554   0.595 -0.2569 -0.5846  1.4320
 3440TIP3   OH210283   4.093   5.972   3.154 -0.4143  0.3560 -0.4348
 3440TIP3    H110284   4.026   5.948   3.090  0.8187  0.2303 -1.7234
 3440TIP3    H210285   4.065   6.057   3.187 -1.6290 -0.0587 -0.3276
 3441TIP3   OH210286   0.956   2.101   1.401  0.1089  0.2301 -0.1856
 3441TIP3    H110287   0.891   2.032   1.418 -1.5582  1.9983  1.1072
 3441TIP3    H210288   1.040   2.061   1.426 -0.3022 -2.3177 -2.4445
 3442TIP3   OH210289   3.488   6.270   1.913 -0.0275 -0.0034  0.5954
 3442TIP3    H110290   3.578   6.296   1.932 -0.3009  0.1372  1.8274
 3442TIP3    H210291   3.435   6.343   1.944 -0.5652  0.0128 -0.3215
 3443TIP3   OH210292   6.535   3.210   1.560  0.4274  0.0428  0.0997
 3443TIP3    H110293   6.516   3.144   1.627  2.6995 -0.1441  0.6438
 3443TIP3    H210294   6.524   3.294   1.605 -1.2330  0.0626 -0.2533
 3444TIP3   OH210295   5.818   2.027   0.098 -0.4337 -0.3557  0.3035
 3444TIP3    H110296   5.785   2.062   0.181  0.2080 -0.4611  0.6061
 3444TIP3    H210297   5.912   2.020   0.111 -0.4762 -1.6656  0.0496
 3445TIP3   OH210298   4.811   1.719   0.484  0.3245 -0.5510  0.4457
 3445TIP3    H110299   4.834   1.688   0.396 -0.0906 -2.9841  1.1247
 3445TIP3    H210300   4.867   1.670   0.543  0.2774  0.7173  1.6080
 3446TIP3   OH210301   5.914   5.729   1.644  0.1287 -0.1948  0.4606
 3446TIP3    H110302   5.978   5.668   1.679  0.0741  0.1926  1.2663
 3446TIP3    H210303   5.849   5.674   1.599  0.7388 -0.6225  0.0884
 3447TIP3   OH210304   2.720   1.754   3.539 -0.2266  0.3705  0.5014
 3447TIP3    H110305   2.784   1.822   3.560 -0.3561  0.3806  0.8749
 3447TIP3    H210306   2.726   1.744   3.444  1.9581 -1.2364  0.7345
 3448TIP3   OH210307   1.175   3.951   3.018 -0.0839  0.0284 -0.0900
 3448TIP3    H110308   1.221   4.032   3.039  0.0136  0.1269 -0.6859
 3448TIP3    H210309   1.227   3.911   2.948 -0.2486 -0.4434  0.0557
 3449TIP3   OH210310   5.782   3.852   4.826  0.2609  0.0633 -0.2672
 3449TIP3    H110311   5.855   3.914   4.829  1.6653 -1.5581  1.0089
 3449TIP3    H210312   5.710   3.899   4.867  1.0321  1.1775 -0.1347
 3450TIP3   OH210313   3.921   4.922   4.128  0.3663  0.6148 -0.0491
 3450TIP3    H110314   3.931   5.010   4.164  1.9019 -0.3532  2.0872
 3450TIP3    H210315   3.832   4.896   4.151  0.9853  0.4028  2.2949
 3451TIP3   OH210316   7.225   3.672   4.527  0.3140 -0.4532 -0.1845
 3451TIP3    H110317   7.194   3.667   4.437  0.7832 -2.0044 -0.2894
 3451TIP3    H210318   7.166   3.733   4.570 -0.8754 -0.8880 -1.1582
 3452TIP3   OH210319   5.533   4.807   5.712 -0.4904  0.5472 -0.1026
 3452TIP3    H110320   5.509   4.774   5.625  0.5071  0.6505 -0.4313
 3452TIP3    H210321   5.628   4.815   5.709 -0.3133 -0.5266  1.3862
 3453TIP3   OH210322   5.662   6.694   5.738 -0.1848 -0.0364 -0.2666
 3453TIP3    H110323   5.749   6.714   5.704 -0.1290  1.5982  0.7284
 3453TIP3    H210324   5.602   6.744   5.683 -0.3746 -0.0556 -0.0794
 3454TIP3   OH210325   4.589   3.913   0.198 -0.4532 -0.3588  0.3332
 3454TIP3    H110326   4.558   3.956   0.119 -1.8279 -0.6034  0.7136
 3454TIP3    H210327   4.510   3.878   0.239  0.2894 -0.6832  1.5454
 3455TIP3   OH210328   0.371   6.692   3.318 -0.1896  0.1854 -0.1373
 3455TIP3    H110329   0.335   6.732   3.397 -1.2036  1.5171 -1.2203
 3455TIP3    H210330   0.346   6.600   3.324 -0.5217  0.3280  0.9199
 3456TIP3   OH210331   0.472   5.268   1.626  0.1938  0.5643  0.1657
 3456TIP3    H110332   0.541   5.229   1.572  1.2094 -0.0611  1.8333
 3456TIP3    H210333   0.400   5.205   1.621  0.5014  0.2172  0.0042
 3457TIP3   OH210334   0.719   6.299   5.776 -0.4571 -0.1221 -0.3536
 3457TIP3    H110335   0.781   6.365   5.748  0.8247 -1.3900 -0.6377
 3457TIP3    H210336   0.705   6.244   5.698 -1.2905 -0.3366 -0.0642
 3458TIP3   OH210337   1.200   3.615   1.903 -0.3918 -0.0327  0.1417
 3458TIP3    H110338   1.154   3.686   1.947  1.6799  2.4150 -1.3188
 3458TIP3    H210339   1.200   3.640   1.810  2.1017 -0.8312 -0.1671
 3459TIP3   OH210340   2.614   4.238   3.570 -0.1548  0.2581  0.3866
 3459TIP3    H110341   2.701   4.203   3.551 -0.5387  0.1893 -1.4314
 3459TIP3    H210342   2.554   4.166   3.549 -0.7570  0.9339 -0.2687
 3460TIP3   OH210343   4.695   6.169   1.177 -0.3983  0.0131 -0.2568
 3460TIP3    H110344   4.630   6.175   1.247 -0.6122  1.9145 -0.5382
 3460TIP3    H210345   4.768   6.121   1.214 -1.5743 -1.3298  0.3844
 3461TIP3   OH210346   4.006   6.104   0.093 -0.0417  0.5867  0.0282
 3461TIP3    H110347   4.014   6.039   0.163 -3.0634 -0.3376 -0.3718
 3461TIP3    H210348   3.922   6.086   0.053  0.3230  2.9547 -2.0141
 3462TIP3   OH210349   3.783   3.889   4.034 -0.1376  0.1604 -0.0429
 3462TIP3    H110350   3.793   3.973   3.988  1.5412  0.3528  0.6121
 3462TIP3    H210351   3.791   3.823   3.965  2.7396  0.4247 -0.0699
 3463TIP3   OH210352   4.948   4.300   3.210 -0.1461  0.2418 -0.3567
 3463TIP3    H110353   5.030   4.348   3.215 -1.2083  2.0297  1.1664
 3463TIP3    H210354   4.946   4.247   3.290 -0.4879  0.2353 -0.3658
 3464TIP3   OH210355   4.441   6.743   3.502 -0.2853 -0.4543  0.4232
 3464TIP3    H110356   4.376   6.680   3.535 -0.6321 -0.6138 -0.5230
 3464TIP3    H210357   4.414   6.759   3.411  1.8080 -1.5965 -0.4640
 3465TIP3   OH210358   5.421   2.156   2.462  0.5808  0.6401  0.6460
 3465TIP3    H110359   5.363   2.097   2.414  0.7059  1.9915 -1.2768
 3465TIP3    H210360   5.509   2.130   2.436  0.6365  1.6473 -0.2390
 3466TIP3   OH210361   2.231   2.979   1.441 -0.1778  0.3684 -0.3426
 3466TIP3    H110362   2.170   2.907   1.425 -0.4752  0.3765  0.7257
 3466TIP3    H210363   2.235   3.026   1.357 -1.9700  0.6292 -0.3185
 3467TIP3   OH210364   0.532   0.675   1.116 -0.0500 -0.1474 -0.3694
 3467TIP3    H110365   0.499   0.743   1.175 -0.1118 -1.7575  1.5341
 3467TIP3    H210366   0.626   0.670   1.133  0.2870  0.6419 -1.8081
 3468TIP3   OH210367   3.380   1.253   5.141 -0.6635  0.2515  0.6578
 3468TIP3    H110368   3.343   1.167   5.120 -0.7305  0.3777  0.2513
 3468TIP3    H210369   3.362   1.306   5.064  1.5784 -0.0561 -0.1586
 3469TIP3   OH210370   1.763   3.659   5.569  0.5722  0.4619 -0.0935
 3469TIP3    H110371   1.813   3.583   5.541 -0.5924  0.4624 -2.4336
 3469TIP3    H210372   1.809   3.733   5.529  0.3589  0.7542  0.2000
 3470TIP3   OH210373   1.115   2.324   4.836  0.4648  0.5823  0.1623
 3470TIP3    H110374   1.171   2.302   4.911  1.7363  1.3902 -0.5041
 3470TIP3    H210375   1.177   2.333   4.763 -0.7265 -0.0762 -0.9653
 3471TIP3   OH210376   0.169   5.725   1.748  0.3959 -0.4711  0.6120
 3471TIP3    H110377   0.210   5.809   1.727  0.9849 -0.6705  0.9466
 3471TIP3    H210378   0.116   5.704   1.671  0.6425 -0.0383  0.3226
 3472TIP3   OH210379   2.290   6.598   4.960 -0.5296 -0.0088 -0.2114
 3472TIP3    H110380   2.248   6.530   5.013 -0.1389 -1.0705 -1.2350
 3472TIP3    H210381   2.243   6.596   4.876 -1.6312  2.1545  0.2687
 3473TIP3   OH210382   3.802   3.899   1.717  0.6884 -0.1995  0.7036
 3473TIP3    H110383   3.847   3.849   1.786  0.5064 -1.3948 -0.0135
 3473TIP3    H210384   3.709   3.891   1.739  0.6982  0.6106  1.0852
 3474TIP3   OH210385   2.095   0.460   2.515  0.6353 -0.0268  0.3046
 3474TIP3    H110386   2.098   0.376   2.560 -0.4013 -0.4545 -0.3801
 3474TIP3    H210387   2.001   0.479   2.506  0.6996 -0.7181 -3.0066
 3475TIP3   OH210388   0.908   5.805   4.062 -0.0078 -0.2768  0.1329
 3475TIP3    H110389   0.846   5.812   4.134  0.6329  1.0474  0.6062
 3475TIP3    H210390   0.978   5.748   4.095 -0.3399 -0.7180  0.0751
 3476TIP3   OH210391   3.656   3.941   1.137 -0.0797 -0.4789 -0.5773
 3476TIP3    H110392   3.632   3.904   1.222 -0.0474  1.8961  0.5305
 3476TIP3    H210393   3.624   4.031   1.139  0.6095 -0.1151 -2.7947
 3477TIP3   OH210394   2.386   2.951   5.609 -0.1807 -0.5913 -0.4197
 3477TIP3    H110395   2.379   2.863   5.573  0.2495 -0.5623 -0.5772
 3477TIP3    H210396   2.295   2.978   5.624 -0.3485 -0.7254 -1.1791
 3478TIP3   OH210397   5.355   1.055   0.463  0.1738  0.3497  0.1408
 3478TIP3    H110398   5.267   1.077   0.432  0.9729  0.9327 -1.8465
 3478TIP3    H210399   5.414   1.100   0.402  1.8665  0.4258  1.7459
 3479TIP3   OH210400   0.715   6.565   5.334 -0.2753 -0.2795  0.1174
 3479TIP3    H110401   0.643   6.594   5.278  0.8336  1.0576 -0.6804
 3479TIP3    H210402   0.720   6.631   5.403  2.5684  1.9754 -1.9689
 3480TIP3   OH210403   4.481   5.248   2.883 -0.3621 -0.2964  0.1532
 3480TIP3    H110404   4.543   5.216   2.947  2.3843  1.1241 -1.5801
 3480TIP3    H210405   4.454   5.334   2.916  0.7603  0.2722 -0.3684
 3481TIP3   OH210406   4.687   4.216   1.098 -0.2872 -0.6017  0.1606
 3481TIP3    H110407   4.617   4.279   1.107  0.7018  0.8909 -1.8211
 3481TIP3    H210408   4.644   4.137   1.065 -1.1756 -0.0504 -0.0310
 3482TIP3   OH210409   3.299   1.364   0.815  0.4208 -0.0594 -0.4049
 3482TIP3    H110410   3.228   1.355   0.752  0.9775 -1.3470 -0.8822
 3482TIP3    H210411   3.351   1.437   0.781 -0.2291  0.3884 -0.4701
 3483TIP3   OH210412   0.556   4.674   3.199 -0.3161  0.0719  0.0319
 3483TIP3    H110413   0.481   4.732   3.206  0.5059  1.0996  0.6678
 3483TIP3    H210414   0.584   4.681   3.108 -0.5531  0.2528 -0.0282
 3484TIP3   OH210415   5.456   3.113   4.833 -0.3482 -0.2793 -0.4039
 3484TIP3    H110416   5.423   3.033   4.873  0.7724 -0.3819  0.3636
 3484TIP3    H210417   5.508   3.084   4.759  0.7334 -0.3322  0.3564
 3485TIP3   OH210418   4.872   3.626   4.606 -0.2754  1.1653  0.0096
 3485TIP3    H110419   4.829   3.541   4.619  0.5571  0.6230 -0.6752
 3485TIP3    H210420   4.806   3.690   4.631 -0.5058  0.3064  1.8065
 3486TIP3   OH210421   1.531   3.300   4.203 -0.0847  0.4408 -0.2867
 3486TIP3    H110422   1.546   3.377   4.259  0.4178 -1.8662  3.1032
 3486TIP3    H210423   1.450   3.262   4.236  2.3637 -3.3794  2.2417
 3487TIP3   OH210424   0.805   3.337   3.720 -0.1606  0.3377  0.0126
 3487TIP3    H110425   0.788   3.375   3.807 -0.5661 -0.4491  0.2890
 3487TIP3    H210426   0.765   3.250   3.724  1.9450 -0.6880 -0.1367
 3488TIP3   OH210427   3.100   2.595   4.451 -0.5611 -0.0034 -0.3830
 3488TIP3    H110428   3.145   2.628   4.373 -1.9270  0.9780 -0.8017
 3488TIP3    H210429   3.110   2.500   4.446  1.0165  0.1569 -0.7060
 3489TIP3   OH210430   0.611   5.769   2.590  0.2371  0.1154  0.2270
 3489TIP3    H110431   0.612   5.865   2.595 -0.4753  0.1965 -0.9121
 3489TIP3    H210432   0.659   5.741   2.668  0.7000  1.3986  0.4298
 3490TIP3   OH210433   2.900   4.290   5.898 -0.3278  0.4424  0.7293
 3490TIP3    H110434   2.969   4.342   5.857 -0.1875 -0.6894 -0.5565
 3490TIP3    H210435   2.929   4.199   5.885 -0.5601  0.0146  2.8775
 3491TIP3   OH210436   5.055   0.856   1.701 -0.6275 -0.3238  0.4581
 3491TIP3    H110437   5.004   0.889   1.774  0.3208  0.1347  0.9318
 3491TIP3    H210438   5.082   0.934   1.653  0.5388 -0.4574  0.8488
 3492TIP3   OH210439   0.022   5.274   3.547  0.2330 -0.2579  0.2225
 3492TIP3    H110440   0.074   5.354   3.546  1.2716 -0.8879  1.6149
 3492TIP3    H210441   0.082   5.206   3.517 -0.6876 -0.5164 -1.1088
 3493TIP3   OH210442   1.940   2.447   4.026 -0.2206 -0.5647 -0.9307
 3493TIP3    H110443   1.980   2.534   4.016 -0.7684 -0.2422 -0.4320
 3493TIP3    H210444   1.968   2.398   3.949  1.3003 -0.4238 -0.4844
 3494TIP3   OH210445   1.816   5.554   2.802  0.1530 -0.6582  0.2244
 3494TIP3    H110446   1.791   5.581   2.714  0.5193  0.4497  0.4478
 3494TIP3    H210447   1.737   5.511   2.837 -0.1907 -0.5649 -0.4170
 3495TIP3   OH210448   5.814   6.484   5.009 -0.2796  0.3666  0.2041
 3495TIP3    H110449   5.722   6.511   5.010 -1.0346 -1.8594 -1.8776
 3495TIP3    H210450   5.812   6.391   4.987  2.5263  0.7028 -2.0923
 3496TIP3   OH210451   2.430   0.635   0.865  0.0416  0.4000  0.0241
 3496TIP3    H110452   2.520   0.604   0.858 -0.4332 -1.1099  0.1785
 3496TIP3    H210453   2.376   0.556   0.853 -1.2471  1.1974  0.3125
 3497TIP3   OH210454   6.904   6.438   0.300 -0.7800 -0.2869 -0.5631
 3497TIP3    H110455   6.908   6.529   0.330 -0.3615 -0.3456 -0.4415
 3497TIP3    H210456   6.910   6.444   0.205 -0.9076 -0.1780 -0.5647
 3498TIP3   OH210457   6.301   4.090   4.432  0.0136  0.0311 -0.8613
 3498TIP3    H110458   6.341   4.136   4.506 -0.4105 -0.3783 -0.3631
 3498TIP3    H210459   6.212   4.072   4.461  0.0339 -0.6898 -1.2205
 3499TIP3   OH210460   1.073   2.770   0.604  0.3982  0.7308  0.4493
 3499TIP3    H110461   1.013   2.766   0.530 -2.0945  3.2521  2.1444
 3499TIP3    H210462   1.106   2.680   0.612 -0.9312 -0.1272 -2.2889
 3500TIP3   OH210463   5.888   4.923   0.016 -0.1652 -0.3594  0.1825
 3500TIP3    H110464   5.856   4.952   0.102 -3.3606 -1.2455 -0.5882
 3500TIP3    H210465   5.915   4.833   0.030 -0.7573 -0.5294  0.2483
 3501TIP3   OH210466   1.486   0.994   5.751  0.3867  0.2992 -0.1766
 3501TIP3    H110467   1.400   0.997   5.792  0.7680  2.2067  0.5711
 3501TIP3    H210468   1.474   0.936   5.676 -1.4430  0.2180  0.1238
 3502TIP3   OH210469   1.841   1.348   4.664  0.1897 -0.1370 -0.1376
 3502TIP3    H110470   1.754   1.370   4.631 -0.0631 -0.8262  0.0465
 3502TIP3    H210471   1.898   1.350   4.587  0.1837  1.1305 -0.1255
 3503TIP3   OH210472   6.409   4.077   3.766 -0.3805 -0.4549  0.2614
 3503TIP3    H110473   6.351   4.111   3.698  1.4445  0.6601 -0.8079
 3503TIP3    H210474   6.412   4.147   3.832 -0.1604 -0.4659  0.2633
 3504TIP3   OH210475   3.243   1.110   5.850 -0.7982 -0.4985  0.6834
 3504TIP3    H110476   3.233   1.167   5.774 -1.1828 -0.7815  0.5142
 3504TIP3    H210477   3.247   1.021   5.813 -1.8098 -0.7035  1.0327
 3505TIP3   OH210478   3.745   4.615   3.534 -0.6441  0.9701  0.6645
 3505TIP3    H110479   3.835   4.647   3.525 -1.1703  2.0355 -1.3903
 3505TIP3    H210480   3.709   4.619   3.445 -2.1745 -1.1914  1.1081
 3506TIP3   OH210481   1.906   0.633   1.754 -0.0693 -0.1298  0.1623
 3506TIP3    H110482   1.994   0.598   1.769 -0.1217 -1.0078 -1.3487
 3506TIP3    H210483   1.900   0.708   1.813  2.3431  0.9852 -0.8638
 3507TIP3   OH210484   0.210   6.338   1.105  0.2909 -0.0250  0.2611
 3507TIP3    H110485   0.299   6.374   1.103  0.0852  0.5086  0.4219
 3507TIP3    H210486   0.153   6.414   1.093 -0.1394 -0.3968 -0.0816
 3508TIP3   OH210487   3.636   4.585   4.090  0.7073 -0.0020 -0.4205
 3508TIP3    H110488   3.658   4.532   4.013 -0.8755 -0.0007 -0.9137
 3508TIP3    H210489   3.650   4.676   4.062  1.8248 -0.0641 -0.1114
 3509TIP3   OH210490   5.953   5.501   3.038  0.1852  0.2255  0.0431
 3509TIP3    H110491   5.881   5.523   3.097 -0.0648  0.0400 -0.1853
 3509TIP3    H210492   5.989   5.420   3.074  1.3285  1.1533  1.0808
 3510TIP3   OH210493   4.207   4.557   4.006  0.4032 -0.2521  0.5365
 3510TIP3    H110494   4.183   4.646   4.030  1.2750  0.9466 -2.5569
 3510TIP3    H210495   4.126   4.518   3.973  0.1896 -0.3640  1.1811
 3511TIP3   OH210496   7.063   6.778   2.552  0.0509 -0.8601  0.6420
 3511TIP3    H110497   7.021   6.716   2.492  2.3351 -1.8518 -0.0414
 3511TIP3    H210498   7.032   6.752   2.638 -1.0393 -1.2796  0.1397
 3512TIP3   OH210499   7.157   5.040   1.345  0.7843  0.9096 -0.1507
 3512TIP3    H110500   7.207   5.117   1.373  1.9115  0.3027 -0.4605
 3512TIP3    H210501   7.220   4.986   1.298  0.2528 -0.6536  0.8716
 3513TIP3   OH210502   2.516   4.648   4.811 -0.5728  0.4745 -0.1331
 3513TIP3    H110503   2.589   4.590   4.836  0.2645  2.1539  1.4927
 3513TIP3    H210504   2.440   4.590   4.809 -0.3718 -0.3282  4.3961
 3514TIP3   OH210505   2.975   3.860   5.140  0.4549  0.8329  0.3536
 3514TIP3    H110506   3.004   3.809   5.216  0.9393  1.5563  0.6669
 3514TIP3    H210507   3.029   3.829   5.068  1.0590  1.1957  0.6395
 3515TIP3   OH210508   0.523   0.174   0.872 -0.5027 -0.0741 -0.2692
 3515TIP3    H110509   0.592   0.109   0.860 -1.0737 -0.4478 -1.7637
 3515TIP3    H210510   0.569   0.254   0.898  0.3451 -0.6477  0.0431
 3516TIP3   OH210511   6.474   5.681   5.066  0.2330 -0.2102 -0.6097
 3516TIP3    H110512   6.567   5.693   5.085  0.4939 -0.5589 -1.6149
 3516TIP3    H210513   6.434   5.764   5.089  0.5752 -0.4808  1.0912
 3517TIP3   OH210514   3.595   1.556   4.784  0.3489 -0.1681 -0.3638
 3517TIP3    H110515   3.631   1.542   4.872 -0.2397 -1.1827 -0.2769
 3517TIP3    H210516   3.662   1.609   4.739  0.4693  0.7151  0.8138
 3518TIP3   OH210517   4.274   3.683   4.297  0.1597 -0.4157 -0.2582
 3518TIP3    H110518   4.274   3.730   4.214 -0.6018 -0.9637 -0.5796
 3518TIP3    H210519   4.266   3.591   4.272  1.4230 -0.7269  0.3649
 3519TIP3   OH210520   5.137   3.653   4.539  0.0975 -0.6336  0.6292
 3519TIP3    H110521   5.060   3.643   4.594 -1.0206  2.2810 -0.2367
 3519TIP3    H210522   5.180   3.733   4.571  0.1500  0.3880 -1.7565
 3520TIP3   OH210523   5.639   2.261   1.504  0.0728 -0.1398  0.0280
 3520TIP3    H110524   5.547   2.287   1.508  0.5160  2.4613 -2.9168
 3520TIP3    H210525   5.683   2.319   1.568 -0.0225  0.5089 -0.4862
 3521TIP3   OH210526   1.760   5.160   1.590 -0.2915 -0.1044  0.3597
 3521TIP3    H110527   1.815   5.158   1.668 -0.5957  1.0941  0.6177
 3521TIP3    H210528   1.801   5.097   1.531  0.7770  0.0362  0.9235
 3522TIP3   OH210529   1.403  -0.013   3.917 -0.7592 -0.1698 -0.0315
 3522TIP3    H110530   1.336  -0.006   3.985 -0.2317 -0.1255  0.4862
 3522TIP3    H210531   1.363   0.027   3.840 -1.1379  0.3221  0.4129
 3523TIP3   OH210532   2.673   2.759   4.312  0.0576  0.4336  0.4091
 3523TIP3    H110533   2.738   2.807   4.365  1.1727 -1.6956  1.0746
 3523TIP3    H210534   2.709   2.671   4.304 -1.1465  0.0835 -2.1134
 3524TIP3   OH210535   0.632   5.895   0.972  0.2698 -0.2443 -0.1444
 3524TIP3    H110536   0.548   5.884   1.017  0.3711 -0.0143  0.1047
 3524TIP3    H210537   0.609   5.927   0.885  0.0345 -1.2663 -0.4749
 3525TIP3   OH210538   0.713   5.636   2.813 -0.0136  0.3174 -0.6510
 3525TIP3    H110539   0.640   5.582   2.782 -1.1412  1.2454  0.3191
 3525TIP3    H210540   0.764   5.577   2.868 -1.5478  0.3275  0.8689
 3526TIP3   OH210541   0.237   0.129   3.693 -0.1519  0.6145  0.9751
 3526TIP3    H110542   0.327   0.106   3.718 -0.5766 -0.3617  1.6422
 3526TIP3    H210543   0.214   0.201   3.751 -0.5153 -0.4963  2.2400
 3527TIP3   OH210544   5.525   6.538   5.070 -0.0796  0.2277  0.0113
 3527TIP3    H110545   5.476   6.538   4.988 -1.4410 -0.9551  0.7801
 3527TIP3    H210546   5.541   6.631   5.089 -1.9350  0.6560 -0.3429
 3528TIP3   OH210547   7.072   2.110   2.005  0.4752  0.1040  0.5531
 3528TIP3    H110548   7.026   2.162   2.071  0.0936 -0.1171  0.4645
 3528TIP3    H210549   7.016   2.114   1.927  2.1133  2.4968 -0.6504
 3529TIP3   OH210550   1.111   2.721   4.717 -0.8094  0.2052 -0.2611
 3529TIP3    H110551   1.100   2.709   4.811 -0.9352  0.8390 -0.1912
 3529TIP3    H210552   1.028   2.758   4.687 -0.5016  0.7167 -0.4912
 3530TIP3   OH210553   2.105   2.972   5.136  0.3451  0.0276 -0.4491
 3530TIP3    H110554   2.186   2.996   5.090  0.1869  0.2733 -0.6051
 3530TIP3    H210555   2.037   3.023   5.092  0.1855  0.2358  0.0310
 3531TIP3   OH210556   2.670   6.707   1.315 -0.1927  0.3191 -0.2562
 3531TIP3    H110557   2.612   6.655   1.371  2.3662 -2.7713 -0.1500
 3531TIP3    H210558   2.749   6.719   1.368  0.0582  2.6725 -1.0809
 3532TIP3   OH210559   4.351   3.394   5.757  0.0831 -0.2673 -0.2304
 3532TIP3    H110560   4.273   3.427   5.802  1.0515 -1.5479  2.6080
 3532TIP3    H210561   4.422   3.450   5.788  0.5428 -0.0242 -1.6626
 3533TIP3   OH210562   4.293   5.833   3.943 -0.3150 -0.2235  0.1369
 3533TIP3    H110563   4.243   5.873   3.872 -0.1594 -1.2870 -0.5944
 3533TIP3    H210564   4.383   5.860   3.927  0.0887 -2.2561 -1.4249
 3534TIP3   OH210565   2.850   0.558   0.636  0.0428  0.2452 -0.2879
 3534TIP3    H110566   2.810   0.617   0.571 -0.6157 -1.0267 -1.0902
 3534TIP3    H210567   2.820   0.471   0.609  0.9582 -0.4468  0.8904
 3535TIP3   OH210568   5.985   2.565   3.614 -0.6246 -0.2731  0.8016
 3535TIP3    H110569   5.979   2.470   3.629  0.1970 -0.1243  2.3525
 3535TIP3    H210570   6.036   2.597   3.688 -0.4645  1.3319  0.0392
 3536TIP3   OH210571   0.344   1.100   4.854 -0.2606 -0.3529 -0.2012
 3536TIP3    H110572   0.266   1.052   4.882  0.8045 -1.6913  0.6009
 3536TIP3    H210573   0.416   1.040   4.871  1.2276  1.7622  1.4844
 3537TIP3   OH210574   4.442   2.813   0.622  0.0501  0.0994 -0.0172
 3537TIP3    H110575   4.516   2.767   0.582 -0.7096 -1.8210  0.6874
 3537TIP3    H210576   4.421   2.883   0.559 -0.9053 -2.5892 -2.9678
 3538TIP3   OH210577   3.283   0.206   3.730 -0.0108  0.3586  0.5653
 3538TIP3    H110578   3.269   0.185   3.637  2.5859 -1.4795  0.4699
 3538TIP3    H210579   3.354   0.271   3.729  0.6305 -0.3187  1.2748
 3539TIP3   OH210580   0.689   2.045   2.037  0.3325 -0.5626 -0.0127
 3539TIP3    H110581   0.649   1.973   2.086 -0.3637  0.6070  1.2180
 3539TIP3    H210582   0.783   2.026   2.040  0.3195 -0.5546  1.8228
 3540TIP3   OH210583   3.172   1.769   4.141  0.7087  0.4851 -0.1672
 3540TIP3    H110584   3.121   1.690   4.125 -0.1756  1.4193 -2.4792
 3540TIP3    H210585   3.217   1.785   4.058  0.6789  2.5010  0.1607
 3541TIP3   OH210586   3.353   2.088   3.150  0.2246  0.2722 -0.4233
 3541TIP3    H110587   3.429   2.139   3.122  1.4177  0.0854  2.1354
 3541TIP3    H210588   3.351   2.013   3.090  0.1520  1.7985 -2.4443
 3542TIP3   OH210589   1.674   0.954   0.066 -0.3047  0.3501  0.3886
 3542TIP3    H110590   1.711   1.032   0.024  0.3136  0.6880  1.5186
 3542TIP3    H210591   1.746   0.918   0.118 -0.1090 -1.8995 -1.3154
 3543TIP3   OH210592   4.178   0.632   0.080 -0.1580 -0.2166 -0.1357
 3543TIP3    H110593   4.245   0.639   0.012  1.0288 -1.1584  0.8834
 3543TIP3    H210594   4.227   0.627   0.162 -1.4967 -0.7471  0.6712
 3544TIP3   OH210595   5.187   5.377   1.894 -0.0467 -0.0351  0.0894
 3544TIP3    H110596   5.095   5.367   1.869 -0.5510  0.8479  1.4641
 3544TIP3    H210597   5.235   5.327   1.828 -1.5214 -0.7327 -0.5128
 3545TIP3   OH210598   2.177   4.768   1.370 -0.1822  0.2098  0.2384
 3545TIP3    H110599   2.139   4.692   1.326  0.6698  1.7338 -3.5003
 3545TIP3    H210600   2.175   4.745   1.463 -1.2972 -3.7191 -0.5672
 3546TIP3   OH210601   3.077   1.022   4.843  0.1993 -0.1470 -0.0788
 3546TIP3    H110602   3.013   0.966   4.886 -0.1061 -0.2981 -0.7065
 3546TIP3    H210603   3.071   0.997   4.750  0.8881  0.1107 -0.1972
 3547TIP3   OH210604   1.087   1.156   1.847 -0.2278 -0.2593 -0.0084
 3547TIP3    H110605   1.009   1.195   1.808 -1.5499 -1.8665  0.9508
 3547TIP3    H210606   1.091   1.068   1.811  2.0057  0.2222 -1.1518
 3548TIP3   OH210607   6.826   1.032   0.180  0.1530 -0.3068 -0.2134
 3548TIP3    H110608   6.904   1.087   0.187  0.1391 -0.4844  2.0344
 3548TIP3    H210609   6.754   1.094   0.168  0.5177 -0.0949 -1.4568
 3549TIP3   OH210610   1.815   6.009   2.858 -0.0655  0.2585 -0.2027
 3549TIP3    H110611   1.894   6.004   2.804 -0.4972 -0.9601 -0.7484
 3549TIP3    H210612   1.826   5.940   2.923 -1.2402 -0.8037 -1.0796
 3550TIP3   OH210613   3.766   2.524   1.973  0.4229  0.2896 -0.3682
 3550TIP3    H110614   3.827   2.494   2.040  0.2015  0.3283 -0.1468
 3550TIP3    H210615   3.680   2.500   2.007  0.1708  1.7848  0.1584
 3551TIP3   OH210616   2.748   5.727   0.371  0.5039  0.2799  0.4562
 3551TIP3    H110617   2.709   5.813   0.387  1.0611  0.5286  0.4989
 3551TIP3    H210618   2.767   5.693   0.458  0.0656  0.0071  0.4486
 3552TIP3   OH210619   2.557   6.104   0.831 -0.6106 -0.5913 -0.2198
 3552TIP3    H110620   2.518   6.142   0.752 -1.2382  1.4187  0.9965
 3552TIP3    H210621   2.649   6.091   0.808 -0.6883  0.3552 -1.1468
 3553TIP3   OH210622   3.507   3.800   3.634  0.3405 -0.0459  0.2839
 3553TIP3    H110623   3.427   3.748   3.634  0.4908 -0.3829 -1.9798
 3553TIP3    H210624   3.573   3.741   3.597  1.0020  1.0417 -0.3242
 3554TIP3   OH210625   0.019   6.155   3.116  0.6175 -0.9140  0.2935
 3554TIP3    H110626   0.096   6.197   3.154  2.2656 -2.9427 -0.5956
 3554TIP3    H210627  -0.003   6.209   3.040  1.1690 -0.3249  0.5373
 3555TIP3   OH210628   2.412   6.141   1.465 -0.1236  0.2111 -0.7111
 3555TIP3    H110629   2.393   6.063   1.414  0.2482 -0.5763  0.3198
 3555TIP3    H210630   2.379   6.122   1.552  1.5000  0.4826  0.0125
 3556TIP3   OH210631   5.766   3.611   1.810  0.0424  0.4473  0.6984
 3556TIP3    H110632   5.671   3.600   1.802  0.2609 -0.3516 -1.4172
 3556TIP3    H210633   5.789   3.671   1.739  1.0987  0.8252  1.3466
 3557TIP3   OH210634   0.914   4.395   4.966 -0.6834  0.1117 -0.1940
 3557TIP3    H110635   0.860   4.437   5.032  0.9573  2.2826 -0.1128
 3557TIP3    H210636   0.946   4.315   5.008 -3.2029 -0.8955 -0.0330
 3558TIP3   OH210637   6.022   3.366   1.703 -0.1157  0.7074 -0.0619
 3558TIP3    H110638   5.950   3.304   1.700 -1.5550  2.3426 -1.5291
 3558TIP3    H210639   6.101   3.312   1.705 -1.3353 -1.1235  1.2193
 3559TIP3   OH210640   2.099   5.992   4.469  0.0599  0.8023 -0.0277
 3559TIP3    H110641   2.065   5.944   4.545 -1.5723  0.9922 -0.6095
 3559TIP3    H210642   2.184   6.027   4.499  2.0951 -3.5153 -0.0032
 3560TIP3   OH210643   3.019   2.119   1.591 -0.4510 -0.0555 -0.7326
 3560TIP3    H110644   3.109   2.103   1.561 -0.6123 -0.3327 -1.0818
 3560TIP3    H210645   2.977   2.033   1.586 -0.5611 -0.0485  0.0395
 3561TIP3   OH210646   0.179   2.268   2.353  0.2432 -0.4648  0.2916
 3561TIP3    H110647   0.138   2.354   2.364  0.4698 -0.3977  0.6192
 3561TIP3    H210648   0.233   2.257   2.431 -0.6863 -1.4006  0.8316
 3562TIP3   OH210649   0.007   6.009   3.522  0.0668  0.1592  0.2261
 3562TIP3    H110650  -0.066   6.028   3.581 -1.6643 -2.3590 -0.9280
 3562TIP3    H210651   0.072   5.966   3.577 -0.1549  0.6563  0.8883
 3563TIP3   OH210652   6.169   6.601   0.183  0.3147 -0.5149 -0.9443
 3563TIP3    H110653   6.162   6.515   0.144  1.1658 -1.0083 -0.0464
 3563TIP3    H210654   6.108   6.655   0.133 -3.6067 -2.5932  1.1090
 3564TIP3   OH210655   3.004   5.599   1.369 -0.0961 -0.1675 -0.4600
 3564TIP3    H110656   3.078   5.540   1.385 -0.5605 -0.1195  2.3606
 3564TIP3    H210657   2.938   5.573   1.434 -1.9436  0.8462 -1.8389
 3565TIP3   OH210658   1.828   3.637   4.556  0.4174 -0.4408  0.3619
 3565TIP3    H110659   1.917   3.605   4.543  0.0930 -0.8428 -1.1387
 3565TIP3    H210660   1.834   3.731   4.538  0.4058 -0.6080 -0.5847
 3566TIP3   OH210661   0.831   3.054   4.629  0.1672 -0.4024  0.8296
 3566TIP3    H110662   0.746   3.097   4.624  0.0320 -0.4642  2.2087
 3566TIP3    H210663   0.893   3.122   4.603 -0.2476 -0.1349  0.5282
 3567TIP3   OH210664   5.237   4.192   3.987 -0.1203 -0.4175  0.3687
 3567TIP3    H110665   5.176   4.152   3.925 -0.4677  1.1836 -0.3628
 3567TIP3    H210666   5.221   4.286   3.980  1.9821  0.0061  0.6559
 3568TIP3   OH210667   6.696   1.724   3.005 -0.1798  0.9115 -0.1819
 3568TIP3    H110668   6.646   1.697   3.082 -0.9319  0.3789 -0.8420
 3568TIP3    H210669   6.690   1.819   3.004  2.9514  1.3274  2.4804
 3569TIP3   OH210670   5.975   6.180   4.276 -0.1584 -0.0437  0.2170
 3569TIP3    H110671   6.026   6.248   4.320 -0.9328 -0.3403  1.6425
 3569TIP3    H210672   5.983   6.200   4.183  1.0985  0.9296  0.5065
 3570TIP3   OH210673   0.206   2.834   0.687 -0.4574 -0.3452  0.5781
 3570TIP3    H110674   0.285   2.812   0.638 -0.4714  2.1228 -0.7032
 3570TIP3    H210675   0.237   2.849   0.776  0.2647 -0.8174  0.4210
 3571TIP3   OH210676   2.233   0.845   4.961 -0.2048  0.0371 -0.0992
 3571TIP3    H110677   2.158   0.786   4.967  0.4158 -0.8447 -0.7292
 3571TIP3    H210678   2.284   0.827   5.040 -0.3507  0.2072  0.0342
 3572TIP3   OH210679   6.351   5.306   4.511 -0.6068 -0.3470  0.3703
 3572TIP3    H110680   6.391   5.278   4.593 -0.8671 -0.5306  0.4364
 3572TIP3    H210681   6.285   5.239   4.492 -0.9576  0.0079  0.3183
 3573TIP3   OH210682   1.865   3.389   5.485 -0.3698  0.5170  0.0669
 3573TIP3    H110683   1.935   3.340   5.443  0.1284  0.8153  0.5427
 3573TIP3    H210684   1.853   3.347   5.570 -0.8065  0.4351 -0.0295
 3574TIP3   OH210685   5.899   6.225   2.701 -0.1880 -0.2455  0.0375
 3574TIP3    H110686   5.941   6.153   2.748 -3.2295 -0.6947  2.4029
 3574TIP3    H210687   5.835   6.182   2.644 -0.1317  0.5169 -0.6168
 3575TIP3   OH210688   1.375   0.679   4.738 -0.0044 -0.1924  0.2694
 3575TIP3    H110689   1.347   0.719   4.656  0.6585  0.4109  0.3324
 3575TIP3    H210690   1.293   0.656   4.782 -0.3866  0.6369  0.0047
 3576TIP3   OH210691   1.608   0.649   4.009  0.0182  0.2521 -0.1527
 3576TIP3    H110692   1.530   0.686   4.050 -0.7443 -0.0424 -1.2884
 3576TIP3    H210693   1.679   0.707   4.037 -0.7454  1.0737  0.1457
 3577TIP3   OH210694   2.561   4.288   0.567  0.5994  0.3328 -0.5217
 3577TIP3    H110695   2.630   4.316   0.628  0.2560 -0.3346  0.1906
 3577TIP3    H210696   2.511   4.222   0.616 -0.3527  0.5734 -1.1384
 3578TIP3   OH210697   2.854   6.720   4.428 -0.5805  0.2579  0.0818
 3578TIP3    H110698   2.773   6.743   4.474 -0.4857 -0.3329  0.5523
 3578TIP3    H210699   2.876   6.633   4.460  0.2309  0.4045 -0.0562
 3579TIP3   OH210700   5.082   4.518   1.878 -0.3962  0.1711  0.6699
 3579TIP3    H110701   5.140   4.466   1.932 -0.1192 -0.6405 -0.3786
 3579TIP3    H210702   5.132   4.534   1.798 -2.1527 -1.9999 -0.9854
 3580TIP3   OH210703   3.874   1.298   2.155 -0.0721 -0.3770 -0.1293
 3580TIP3    H110704   3.889   1.346   2.074  1.5581 -0.7076 -0.0610
 3580TIP3    H210705   3.838   1.363   2.216  0.6400  0.3790 -0.4989
 3581TIP3   OH210706   2.937   5.436   4.642  0.1793  0.1260 -0.2386
 3581TIP3    H110707   2.947   5.447   4.548  0.9276  1.4067 -0.0274
 3581TIP3    H210708   2.847   5.406   4.654 -0.7974  2.4812 -1.1833
 3582TIP3   OH210709   3.893   2.163   3.302 -0.0589  0.3514  0.0615
 3582TIP3    H110710   3.986   2.145   3.285  0.0298 -0.0665  0.9612
 3582TIP3    H210711   3.868   2.225   3.233  0.7199 -0.0219 -0.5742
 3583TIP3   OH210712   5.215   0.028   0.849 -0.4603 -0.5227 -0.4936
 3583TIP3    H110713   5.175   0.067   0.927 -0.7495  0.0911 -0.9339
 3583TIP3    H210714   5.251  -0.055   0.879 -0.3257 -0.1669  0.3495
 3584TIP3   OH210715   7.098   3.958   2.837  0.5117  0.8230 -0.2804
 3584TIP3    H110716   7.184   3.918   2.849 -0.3925 -1.1510  0.1537
 3584TIP3    H210717   7.053   3.943   2.920 -0.9766 -0.1980 -1.2215
 3585TIP3   OH210718   2.463   3.752   0.400 -0.0799 -0.4751 -0.1886
 3585TIP3    H110719   2.431   3.787   0.317  0.3540 -0.6796 -0.4430
 3585TIP3    H210720   2.411   3.798   0.467 -2.1334 -2.0230 -0.6191
 3586TIP3   OH210721   4.022   3.318   0.712 -0.1809  0.4525  0.0984
 3586TIP3    H110722   4.030   3.380   0.639 -1.3667  0.1866 -0.2904
 3586TIP3    H210723   3.928   3.300   0.716  0.2204 -1.9900 -0.3382
 3587TIP3   OH210724   1.271   1.671   2.572 -0.0825 -0.5923  0.4083
 3587TIP3    H110725   1.213   1.745   2.587  1.6797  0.4791  2.5776
 3587TIP3    H210726   1.309   1.687   2.485 -0.8160  0.2594  0.2333
 3588TIP3   OH210727   6.744   0.559   4.543 -0.0250  0.1409 -0.6541
 3588TIP3    H110728   6.760   0.501   4.468 -0.5277 -0.5359 -0.2540
 3588TIP3    H210729   6.656   0.534   4.573 -0.9563  2.2149 -1.4565
 3589TIP3   OH210730   5.795   4.579   5.013 -0.2647 -0.5824  0.8859
 3589TIP3    H110731   5.769   4.605   4.925  0.1760  1.7149  1.3859
 3589TIP3    H210732   5.858   4.508   5.000  1.5958  1.2503 -0.7895
 3590TIP3   OH210733   4.587   2.953   3.184  0.4258 -0.3637 -0.2946
 3590TIP3    H110734   4.615   3.025   3.240 -1.8137  0.5766 -0.2767
 3590TIP3    H210735   4.667   2.925   3.139  2.5397 -1.7043  3.8232
 3591TIP3   OH210736   2.383   4.399   3.620  0.9338  0.4456  0.2454
 3591TIP3    H110737   2.453   4.338   3.600  0.5290  0.2073 -0.4719
 3591TIP3    H210738   2.321   4.389   3.548  2.2872  3.9109 -1.6497
 3592TIP3   OH210739   2.305   2.056   0.765  0.3931  0.1913 -0.2383
 3592TIP3    H110740   2.262   2.141   0.759  0.4915  0.1790 -1.2639
 3592TIP3    H210741   2.359   2.062   0.844  0.1675  0.9645 -0.1349
 3593TIP3   OH210742   3.517   2.467   0.518  0.0269  0.4667 -0.0553
 3593TIP3    H110743   3.583   2.530   0.543  0.3232 -0.8883  2.9800
 3593TIP3    H210744   3.547   2.384   0.554 -2.6612 -0.4707  0.2995
 3594TIP3   OH210745   7.103   1.064   2.200 -0.3642 -0.2662 -0.2474
 3594TIP3    H110746   7.013   1.071   2.167 -0.7303 -1.3585  0.4747
 3594TIP3    H210747   7.095   1.014   2.282  0.3600  3.1931  2.1605
 3595TIP3   OH210748   3.205   0.281   1.529  1.2976  0.7587 -0.4876
 3595TIP3    H110749   3.124   0.311   1.571  2.8041  0.6765  2.7336
 3595TIP3    H210750   3.196   0.186   1.526  1.2373  0.7529 -0.1765
 3596TIP3   OH210751   3.935   3.009   4.877  0.4563 -0.5189  0.6002
 3596TIP3    H110752   3.914   3.060   4.799 -0.9870 -1.5827  0.2538
 3596TIP3    H210753   3.855   2.961   4.897  1.1774 -1.1997  2.0282
 3597TIP3   OH210754   5.179   2.024   4.515  0.2249 -0.2264 -0.1347
 3597TIP3    H110755   5.268   2.054   4.494  0.3870  0.0568  0.9006
 3597TIP3    H210756   5.123   2.096   4.486  0.3857 -0.1241 -0.1993
 3598TIP3   OH210757   4.490   5.014   0.881 -0.1695 -0.6281  0.0350
 3598TIP3    H110758   4.483   4.996   0.975 -0.1990 -1.0605 -0.0517
 3598TIP3    H210759   4.558   4.955   0.850 -1.1648 -1.5410 -0.4936
 3599TIP3   OH210760   0.685   2.883   0.190  0.1361 -0.5144 -0.1983
 3599TIP3    H110761   0.750   2.951   0.209  0.8236 -1.0480 -0.5895
 3599TIP3    H210762   0.665   2.844   0.275 -0.1266  0.0505  0.0026
 3600TIP3   OH210763   3.467   1.772   2.373 -0.2746  0.3379 -0.1534
 3600TIP3    H110764   3.560   1.790   2.358 -0.3875  1.4592  0.3931
 3600TIP3    H210765   3.423   1.810   2.297 -0.4169  1.4459  0.4547
 3601TIP3   OH210766   1.035   3.133   5.219 -0.2487  0.1127 -0.5188
 3601TIP3    H110767   1.069   3.075   5.287  2.6253  2.7130  0.4974
 3601TIP3    H210768   0.944   3.146   5.242 -0.1949 -1.6091  0.9022
 3602TIP3   OH210769   1.876   4.880   3.125 -0.0424 -0.0060 -0.4550
 3602TIP3    H110770   1.809   4.915   3.066  0.2050 -1.4791 -1.6996
 3602TIP3    H210771   1.908   4.956   3.173 -2.6197  0.7570  0.2377
 3603TIP3   OH210772   3.573   1.572   1.694 -0.9778  0.8538  0.6836
 3603TIP3    H110773   3.529   1.553   1.611  0.2557 -2.1068  0.5845
 3603TIP3    H210774   3.515   1.537   1.761 -0.1009 -0.5469  0.7411
 3604TIP3   OH210775   3.555   5.039   5.840 -0.4095 -0.3851  0.2151
 3604TIP3    H110776   3.629   4.983   5.862  0.1807 -0.1262 -0.9844
 3604TIP3    H210777   3.535   5.016   5.749  0.0069  1.4729 -0.3899
 3605TIP3   OH210778   6.703   2.086   3.898 -0.1327 -0.3390  0.1958
 3605TIP3    H110779   6.677   2.130   3.817  1.6535 -0.1179 -0.2943
 3605TIP3    H210780   6.729   1.998   3.870  2.8664  0.4762  0.0434
 3606TIP3   OH210781   3.443   1.694   1.245 -0.1415 -0.5874 -0.0524
 3606TIP3    H110782   3.528   1.737   1.235 -0.5017  0.1295 -0.0364
 3606TIP3    H210783   3.407   1.691   1.157 -0.3001 -0.4932  0.0101
 3607TIP3   OH210784   1.184   4.032   0.478  0.6579  0.1568 -0.2818
 3607TIP3    H110785   1.230   4.112   0.504 -1.3304  1.3814 -0.3158
 3607TIP3    H210786   1.100   4.037   0.523  0.2721 -1.6891 -0.6977
 3608TIP3   OH210787   3.464   1.980   1.554  0.3955  0.0032 -0.2734
 3608TIP3    H110788   3.376   1.948   1.535  0.3658 -0.5521  0.7321
 3608TIP3    H210789   3.481   1.952   1.644  0.8923  1.6843  0.2031
 3609TIP3   OH210790   0.899   5.940   0.648 -0.0741 -0.0244 -0.2726
 3609TIP3    H110791   0.989   5.929   0.616 -0.4332  1.2872 -1.8797
 3609TIP3    H210792   0.859   5.854   0.640  1.1709 -0.7671  1.0013
 3610TIP3   OH210793   6.462   3.888   1.635  0.7314 -0.1368  0.1406
 3610TIP3    H110794   6.497   3.942   1.565  1.6251 -0.5562  0.2492
 3610TIP3    H210795   6.522   3.813   1.640 -1.4341 -2.0843 -1.2066
 3611TIP3   OH210796   4.978   0.613   4.195 -0.0688  0.1895 -0.1809
 3611TIP3    H110797   4.884   0.596   4.186 -0.3268  1.3310  0.1715
 3611TIP3    H210798   5.018   0.563   4.124 -1.0924  0.9747 -1.3564
 3612TIP3   OH210799   3.515   2.321   3.940  0.0565  0.1946  0.0916
 3612TIP3    H110800   3.432   2.336   3.985 -0.0732 -0.8113  0.1941
 3612TIP3    H210801   3.497   2.248   3.881  0.7432  0.2802 -0.2271
 3613TIP3   OH210802   2.936   3.775   1.790 -0.3985  0.2716  0.1347
 3613TIP3    H110803   2.984   3.844   1.835 -2.5952  0.5960  2.1773
 3613TIP3    H210804   2.980   3.694   1.815  0.5620  0.7127 -0.0764
 3614TIP3   OH210805   0.533   5.757   5.303 -0.4541 -0.7920 -0.1721
 3614TIP3    H110806   0.461   5.816   5.281  0.6820  0.7722  0.1501
 3614TIP3    H210807   0.526   5.744   5.397  2.1845  3.0460  0.7888
 3615TIP3   OH210808   6.446   1.734   1.871 -0.0923  0.0065 -0.6005
 3615TIP3    H110809   6.415   1.810   1.822 -1.8753  0.2790  0.8343
 3615TIP3    H210810   6.370   1.675   1.874 -0.0097 -0.0897  1.5616
 3616TIP3   OH210811   3.647   4.462   1.150  0.7516 -0.1587 -0.3550
 3616TIP3    H110812   3.670   4.473   1.242  0.0041 -1.4092 -0.0029
 3616TIP3    H210813   3.658   4.549   1.112  1.8002  0.2128  0.7400
 3617TIP3   OH210814   2.120   5.138   2.845  0.2611  0.2158  0.1750
 3617TIP3    H110815   2.135   5.114   2.937  0.2090  0.7933  0.3359
 3617TIP3    H210816   2.075   5.222   2.849 -0.0165  0.0971 -0.3774
 3618TIP3   OH210817   3.180   6.446   1.756  0.3347 -0.1969  0.1750
 3618TIP3    H110818   3.218   6.501   1.825  0.8000  1.0859 -1.0531
 3618TIP3    H210819   3.111   6.500   1.717  0.5575 -0.6075 -0.8287
 3619TIP3   OH210820   5.593   5.604   1.986 -0.3442 -0.1651 -0.1564
 3619TIP3    H110821   5.684   5.606   2.013 -0.3419  1.4714 -0.2015
 3619TIP3    H210822   5.544   5.629   2.064 -0.5670  1.2221 -0.7007
 3620TIP3   OH210823   2.134   6.468   4.262  0.2497 -0.1559 -0.1513
 3620TIP3    H110824   2.192   6.402   4.225 -0.9391 -1.0981 -0.3842
 3620TIP3    H210825   2.055   6.420   4.287 -0.2954  1.0320  0.4889
 3621TIP3   OH210826   6.915   5.248   3.515 -0.8403  0.4619  0.0139
 3621TIP3    H110827   6.910   5.333   3.560 -1.1417  0.6973 -0.4501
 3621TIP3    H210828   7.000   5.249   3.472 -0.6745  0.3612  0.3438
 3622TIP3   OH210829   0.204   4.383   0.067  0.6562 -0.1356 -0.1874
 3622TIP3    H110830   0.234   4.474   0.066  0.5727 -0.0853  0.8705
 3622TIP3    H210831   0.187   4.365   0.159  0.9458 -1.3171 -0.3571
 3623TIP3   OH210832   1.630   1.287   2.101 -0.1226 -0.1077  0.1682
 3623TIP3    H110833   1.661   1.226   2.168 -1.2215 -0.2530  0.5580
 3623TIP3    H210834   1.577   1.233   2.043 -0.4742  0.3313  0.0793
 3624TIP3   OH210835   0.635   4.103   2.369 -0.3500 -0.1260 -0.4119
 3624TIP3    H110836   0.677   4.020   2.394  0.6681  0.7348  0.8311
 3624TIP3    H210837   0.650   4.110   2.275  0.6270 -0.7653 -0.3176
 3625TIP3   OH210838   4.851   6.729   4.125 -0.0184 -0.2843 -0.0761
 3625TIP3    H110839   4.884   6.785   4.195 -0.6442  0.2420 -0.1990
 3625TIP3    H210840   4.825   6.789   4.055 -0.6830 -0.7162 -0.2145
 3626TIP3   OH210841   1.909   0.714   5.865  0.7772  0.5248  0.1972
 3626TIP3    H110842   1.966   0.783   5.830 -0.1368  0.1407 -2.2412
 3626TIP3    H210843   1.831   0.761   5.897  0.7808  0.7304 -0.0972
 3627TIP3   OH210844   3.755   1.298   5.568  0.4388  0.4436 -0.0666
 3627TIP3    H110845   3.829   1.241   5.544 -0.9986 -1.0711 -1.1035
 3627TIP3    H210846   3.682   1.238   5.581 -1.1888  2.0435 -1.3222
 3628TIP3   OH210847   6.532   1.306   4.541  0.8632  0.3089  0.4371
 3628TIP3    H110848   6.440   1.329   4.556  1.3202  1.7585  1.2525
 3628TIP3    H210849   6.570   1.385   4.503  2.2405  0.5586  2.1713
 3629TIP3   OH210850   0.850   1.783   1.819 -0.6766  0.4283 -0.5859
 3629TIP3    H110851   0.904   1.719   1.774 -0.4879 -0.7278  1.2071
 3629TIP3    H210852   0.898   1.865   1.810  0.1412 -0.0930 -1.0976
 3630TIP3   OH210853   0.664   4.371   4.320  0.1820 -0.4704  0.5735
 3630TIP3    H110854   0.673   4.455   4.276  1.9290 -0.6797  0.4724
 3630TIP3    H210855   0.571   4.366   4.344 -0.0066  1.3383  0.3179
 3631TIP3   OH210856   6.169   3.914   3.295  0.3247  0.3681 -0.0980
 3631TIP3    H110857   6.081   3.901   3.331  0.6879 -0.8237  0.4245
 3631TIP3    H210858   6.182   4.009   3.298 -1.7992  0.8330 -2.3262
 3632TIP3   OH210859   2.312   5.235   3.691  0.0769 -0.0964  0.0389
 3632TIP3    H110860   2.396   5.192   3.707  0.5646  0.6016 -0.6236
 3632TIP3    H210861   2.330   5.328   3.699 -0.5730  0.0755 -0.4259
 3633TIP3   OH210862   5.698   5.284   4.564 -0.0765  0.2789  0.6844
 3633TIP3    H110863   5.688   5.348   4.494  1.4983 -0.4244 -0.2618
 3633TIP3    H210864   5.762   5.322   4.623  0.3362 -0.1017  0.4923
 3634TIP3   OH210865   5.959   6.452   2.166  0.2950  0.1167 -0.4580
 3634TIP3    H110866   6.038   6.491   2.127  0.2030 -0.8812 -1.7113
 3634TIP3    H210867   5.990   6.375   2.213  0.4801  1.6116  2.0499
 3635TIP3   OH210868   1.314   3.584   2.383 -0.2801 -0.0684  0.2113
 3635TIP3    H110869   1.401   3.570   2.344  0.8298  2.6155  1.5219
 3635TIP3    H210870   1.281   3.663   2.340 -1.6086 -0.3883  0.5905
 3636TIP3   OH210871   6.218   1.041   4.335 -0.2949 -0.1279 -0.1895
 3636TIP3    H110872   6.301   1.051   4.381  0.0905  0.4796 -0.9821
 3636TIP3    H210873   6.206   0.947   4.326 -0.5610 -0.2672  1.4490
 3637TIP3   OH210874   0.896   5.105   0.980 -0.8945  0.0743 -0.4365
 3637TIP3    H110875   0.947   5.184   0.961  3.1006 -2.7048 -2.6608
 3637TIP3    H210876   0.891   5.059   0.896 -1.0734 -3.0740  1.1474
 3638TIP3   OH210877   5.734   4.274   2.444  0.3769 -0.5741 -0.0793
 3638TIP3    H110878   5.661   4.314   2.396  0.5543  0.5881  0.5837
 3638TIP3    H210879   5.706   4.276   2.536  0.2969 -2.2297 -0.0367
 3639TIP3   OH210880   0.346   2.258   2.129  0.1799  0.0334  0.4150
 3639TIP3    H110881   0.288   2.247   2.204  2.8472 -1.8662  2.3818
 3639TIP3    H210882   0.414   2.317   2.160  0.3082  0.7961 -1.2331
 3640TIP3   OH210883   6.702   0.448   4.886  0.5112  0.2832 -0.3537
 3640TIP3    H110884   6.676   0.471   4.797  1.9463 -0.1075 -0.9109
 3640TIP3    H210885   6.637   0.384   4.914  1.0938 -1.0660 -1.8844
 3641TIP3   OH210886   5.153   1.816   0.719  0.0820 -0.5159  0.1456
 3641TIP3    H110887   5.233   1.786   0.675  1.1078  1.3702  0.6237
 3641TIP3    H210888   5.172   1.806   0.813  1.1283  2.8988  0.4285
 3642TIP3   OH210889   5.040   1.796   4.299 -0.1486 -0.6423 -0.4218
 3642TIP3    H110890   5.001   1.823   4.216  1.0251 -2.3886 -1.5971
 3642TIP3    H210891   5.094   1.870   4.326 -1.6476  0.5136 -0.4121
 3643TIP3   OH210892   1.171   3.208   2.888 -0.2003  0.4094  0.6506
 3643TIP3    H110893   1.182   3.145   2.816 -0.6921  1.3170 -0.2454
 3643TIP3    H210894   1.256   3.209   2.932  1.1092  1.9144 -1.6849
 3644TIP3   OH210895   3.252   1.748   0.752 -0.4807  0.1177 -0.0448
 3644TIP3    H110896   3.272   1.841   0.764 -1.7868  0.1905  2.1203
 3644TIP3    H210897   3.165   1.747   0.712  0.3387 -0.2172 -1.9252
 3645TIP3   OH210898   1.253   6.547   2.478 -0.1321 -0.1620  0.6400
 3645TIP3    H110899   1.174   6.502   2.445 -2.1967  3.3944  0.2074
 3645TIP3    H210900   1.233   6.563   2.571 -0.1251  1.1085  0.4286
 3646TIP3   OH210901   0.334   5.593   0.115  0.2152  0.0449 -0.0044
 3646TIP3    H110902   0.316   5.618   0.025  1.9703 -0.9827 -0.6990
 3646TIP3    H210903   0.318   5.673   0.166 -0.9685  0.5910 -1.1771
 3647TIP3   OH210904   2.141   2.048   4.799 -0.1114  0.1955  0.5539
 3647TIP3    H110905   2.183   2.087   4.722  1.5104 -0.0129  1.3037
 3647TIP3    H210906   2.156   1.954   4.789  0.6803  0.2153  1.4333
 3648TIP3   OH210907   5.326   5.224   1.722  0.0263 -0.2254 -0.1476
 3648TIP3    H110908   5.410   5.179   1.728  0.2356 -0.2825 -2.4345
 3648TIP3    H210909   5.289   5.193   1.639 -1.7892  0.5955  0.3094
 3649TIP3   OH210910   3.217   5.683   4.146 -0.4635  0.3971  0.3392
 3649TIP3    H110911   3.237   5.592   4.123 -1.7066 -0.1075  1.1776
 3649TIP3    H210912   3.303   5.726   4.151  0.1037 -0.6176 -0.4900
 3650TIP3   OH210913   5.995   4.773   4.006 -0.3914  0.1273 -0.4512
 3650TIP3    H110914   5.908   4.733   4.009  0.0064 -0.8014 -0.9284
 3650TIP3    H210915   6.014   4.795   4.097 -0.4977 -1.0565 -0.1363
 3651TIP3   OH210916   0.792   6.503   0.770 -0.4444  0.3652  0.0519
 3651TIP3    H110917   0.863   6.507   0.835  0.5504 -1.3935 -0.8407
 3651TIP3    H210918   0.727   6.445   0.810  0.2159 -0.8041 -0.5038
 3652TIP3   OH210919   5.172   5.797   3.623  0.0404 -0.2578  0.0268
 3652TIP3    H110920   5.174   5.798   3.718 -1.7218  1.1276  0.0957
 3652TIP3    H210921   5.153   5.887   3.598  0.3197 -0.6242 -1.6393
 3653TIP3   OH210922   4.876   1.506   5.855 -0.4832  0.1159 -0.3432
 3653TIP3    H110923   4.798   1.507   5.911  0.4393 -1.4850  1.0958
 3653TIP3    H210924   4.924   1.428   5.884  2.3056  1.7471 -0.2353
 3654TIP3   OH210925   1.664   0.791   0.373 -0.9613 -0.0282  1.3140
 3654TIP3    H110926   1.593   0.851   0.397 -1.3683  0.3363 -0.6600
 3654TIP3    H210927   1.620   0.719   0.327  0.0155  1.1207 -1.6764
 3655TIP3   OH210928   2.695   2.351   5.242 -0.6151  0.0099 -0.0780
 3655TIP3    H110929   2.612   2.306   5.257 -0.2144 -1.4149 -1.8090
 3655TIP3    H210930   2.687   2.387   5.154  0.2331  0.7425  0.1286
 3656TIP3   OH210931   5.273   5.051   1.966  0.3974 -0.4746  0.2561
 3656TIP3    H110932   5.227   4.990   1.908  0.3195  0.0080 -0.1879
 3656TIP3    H210933   5.272   5.134   1.920  1.4358 -0.3833  0.3933
 3657TIP3   OH210934   4.583   0.074   1.942  0.2092 -0.0626  0.6457
 3657TIP3    H110935   4.521   0.011   1.905  1.5832 -1.3176  0.3726
 3657TIP3    H210936   4.618   0.121   1.866 -0.0047  0.2700  0.7503
 3658TIP3   OH210937   4.027   2.784   0.416  0.1227  0.4411  0.0348
 3658TIP3    H110938   4.061   2.836   0.489  1.7346 -1.4603  0.7325
 3658TIP3    H210939   3.993   2.705   0.457 -1.0774  0.3249 -1.1133
 3659TIP3   OH210940   7.032   6.455   3.179 -0.2416 -0.1980 -0.0318
 3659TIP3    H110941   6.950   6.431   3.136 -0.5811 -1.4037  1.2256
 3659TIP3    H210942   7.036   6.399   3.257  1.5371  0.1903  0.1975
 3660TIP3   OH210943   1.003   0.416   4.003  0.2607 -0.3718 -0.0695
 3660TIP3    H110944   1.035   0.499   4.039  0.0073 -0.2917 -0.0259
 3660TIP3    H210945   1.018   0.424   3.909 -0.8942  0.2493 -0.2318
 3661TIP3   OH210946   1.653   2.857   0.076 -0.2281 -0.5144  0.1415
 3661TIP3    H110947   1.689   2.858   0.164  0.7121  1.0881 -0.2283
 3661TIP3    H210948   1.580   2.919   0.078 -1.0929 -1.5097  0.1273
 3662TIP3   OH210949   7.153   3.467   5.471  0.3911  0.2936 -0.2210
 3662TIP3    H110950   7.151   3.558   5.439 -1.1218  0.8438  1.2621
 3662TIP3    H210951   7.228   3.428   5.426  1.1769  2.3062 -0.8115
 3663TIP3   OH210952   4.798   1.751   5.211 -0.4950  0.3430  0.0206
 3663TIP3    H110953   4.810   1.657   5.199 -0.9991  0.3870 -0.9279
 3663TIP3    H210954   4.870   1.791   5.161  0.2488  0.4635  1.1441
 3664TIP3   OH210955   0.393   6.681   0.302  0.7727 -0.0914  0.1214
 3664TIP3    H110956   0.485   6.655   0.312  0.5174 -1.1055 -0.0643
 3664TIP3    H210957   0.348   6.639   0.375  0.3046 -0.3987 -0.3380
 3665TIP3   OH210958   5.861   0.453   5.691  0.0723 -0.2864  0.0931
 3665TIP3    H110959   5.800   0.394   5.735 -0.4787 -2.2020 -2.9475
 3665TIP3    H210960   5.908   0.496   5.762 -0.9241 -2.8704  2.5112
 3666TIP3   OH210961   1.765   3.522   0.082 -0.1556  0.2058 -0.4722
 3666TIP3    H110962   1.678   3.563   0.084  0.1452  0.8228  0.9513
 3666TIP3    H210963   1.800   3.547  -0.004 -1.1652  0.3988 -0.8492
 3667TIP3   OH210964   2.014   3.469   1.478 -0.0921 -0.8716 -0.6600
 3667TIP3    H110965   2.025   3.507   1.391  0.5300  0.0706 -0.2030
 3667TIP3    H210966   2.055   3.533   1.537  1.8833 -2.6761  0.0838
 3668TIP3   OH210967   4.118   6.250   0.505  0.3905  0.5336 -0.1042
 3668TIP3    H110968   4.025   6.247   0.487  0.1446 -2.7280  1.0546
 3668TIP3    H210969   4.128   6.321   0.569 -1.1964  1.1634 -0.5088
 3669TIP3   OH210970   2.198   2.067   5.292 -0.3542  0.0557 -0.1017
 3669TIP3    H110971   2.121   2.115   5.259 -0.9384 -0.3534  0.6249
 3669TIP3    H210972   2.179   1.975   5.271 -0.3471 -0.1122  0.5927
 3670TIP3   OH210973   0.241   2.071   4.009  0.0879 -0.2604  0.2855
 3670TIP3    H110974   0.259   2.154   3.965 -1.7972 -0.5634 -1.1911
 3670TIP3    H210975   0.282   2.005   3.953 -1.0755 -0.5370 -0.2732
 3671TIP3   OH210976   0.625   2.391   0.670 -0.0235 -0.0541 -0.2517
 3671TIP3    H110977   0.706   2.409   0.622  0.4937  0.1031  0.6550
 3671TIP3    H210978   0.555   2.402   0.605  0.6537  0.1755 -0.9517
 3672TIP3   OH210979   2.066   2.442   0.307 -0.2719  0.2666  0.5787
 3672TIP3    H110980   1.999   2.498   0.344 -0.6349  0.2755 -0.0813
 3672TIP3    H210981   2.074   2.369   0.369 -0.7031  0.3964  0.7875
 3673TIP3   OH210982   2.842   1.099   4.188  0.5231 -0.6571  0.4325
 3673TIP3    H110983   2.770   1.161   4.196  0.3210 -0.5452 -1.6084
 3673TIP3    H210984   2.852   1.087   4.093  4.5222  0.9518  0.4506
 3674TIP3   OH210985   0.757   3.801   0.569 -0.3378  0.4716 -0.7316
 3674TIP3    H110986   0.718   3.715   0.578 -1.6789  1.0810 -0.5649
 3674TIP3    H210987   0.755   3.838   0.657 -0.9932  1.1802 -1.0363
 3675TIP3   OH210988   1.102   5.940   2.138 -0.4847  0.0553  0.4561
 3675TIP3    H110989   1.185   5.906   2.107  0.0135  1.0706  0.6339
 3675TIP3    H210990   1.047   5.862   2.152 -0.1165 -0.5206 -1.1889
 3676TIP3   OH210991   0.501   3.270   3.303 -0.0112  0.1156 -0.0736
 3676TIP3    H110992   0.472   3.237   3.388 -0.0189  2.2746  0.8242
 3676TIP3    H210993   0.438   3.234   3.240 -0.8001 -0.4418  1.0115
 3677TIP3   OH210994   0.892   2.917   3.174 -0.2079  0.3905 -0.0205
 3677TIP3    H110995   0.895   3.013   3.174 -0.3285  0.4014 -0.5890
 3677TIP3    H210996   0.809   2.897   3.130 -0.4267  0.0267  0.5451
 3678TIP3   OH210997   1.672   3.375   3.432  0.9307  0.9150 -0.0348
 3678TIP3    H110998   1.630   3.358   3.517  1.7612  0.6963  0.3446
 3678TIP3    H210999   1.601   3.407   3.376  0.0596 -0.3746  0.2885
 3679TIP3   OH211000   6.195   0.035   3.876 -0.3224  0.5313 -0.1117
 3679TIP3    H111001   6.252   0.111   3.861 -1.2994  1.2046 -0.5048
 3679TIP3    H211002   6.119   0.071   3.921 -0.1565 -0.4691  1.0322
 3680TIP3   OH211003   0.328   0.610   3.696  0.2482 -0.3552 -0.7611
 3680TIP3    H111004   0.375   0.526   3.698  0.1759 -0.3905  0.8161
 3680TIP3    H211005   0.254   0.594   3.637 -0.1193 -1.6207 -0.0041
 3681TIP3   OH211006   3.463   0.339   3.457 -0.1900 -0.3816  0.4766
 3681TIP3    H111007   3.558   0.333   3.449  0.0481 -1.3407  2.9533
 3681TIP3    H211008   3.430   0.267   3.404  0.5806 -0.9400  0.7343
 3682TIP3   OH211009   3.387   4.101   3.283 -0.6944 -0.2851  0.0014
 3682TIP3    H111010   3.340   4.027   3.322  1.1226 -1.1219  0.7015
 3682TIP3    H211011   3.419   4.067   3.199  0.5599 -0.4897  0.5427
 3683TIP3   OH211012   6.940   3.509   4.453  0.1099  0.3836  0.2197
 3683TIP3    H111013   6.959   3.527   4.545 -0.4595  0.4628  0.3260
 3683TIP3    H211014   6.871   3.443   4.455 -0.1471  0.6342 -0.1427
 3684TIP3   OH211015   4.774   4.327   4.555  0.5863  0.5664  0.2441
 3684TIP3    H111016   4.869   4.330   4.552  0.5487  2.0939 -0.7533
 3684TIP3    H211017   4.753   4.297   4.643  1.9734 -1.3724 -0.0249
 3685TIP3   OH211018   4.626   5.670   0.900  0.0172  0.1262  0.2218
 3685TIP3    H111019   4.721   5.663   0.890  0.2821 -0.6077  2.5487
 3685TIP3    H211020   4.591   5.653   0.813  1.9702 -1.1646 -0.3855
 3686TIP3   OH211021   1.199   0.092   3.252  0.2631  0.0083  0.7416
 3686TIP3    H111022   1.187   0.064   3.161 -0.8128  0.6489  0.6673
 3686TIP3    H211023   1.110   0.095   3.287  0.6482  0.0730  1.7300
 3687TIP3   OH211024   3.624   4.048   4.324  0.5325  0.2600  0.0904
 3687TIP3    H111025   3.679   4.102   4.268 -0.2588  1.3961  0.3638
 3687TIP3    H211026   3.654   3.958   4.310  1.3437  0.6916 -0.9873
 3688TIP3   OH211027   1.447   5.334   3.282  0.0074  0.2865 -0.7232
 3688TIP3    H111028   1.405   5.364   3.363 -1.0339  2.6270 -2.0089
 3688TIP3    H211029   1.513   5.401   3.264  1.0319 -0.8324 -1.2368
 3689TIP3   OH211030   6.709   5.833   5.673 -0.7234  0.4765  0.1510
 3689TIP3    H111031   6.746   5.759   5.722  1.2458  0.2807 -1.4976
 3689TIP3    H211032   6.634   5.860   5.725  0.6224 -0.3691  2.7363
 3690TIP3   OH211033   1.357   3.489   4.413 -0.8895  0.3203 -0.3885
 3690TIP3    H111034   1.379   3.572   4.454  0.3630  1.3402 -2.9121
 3690TIP3    H211035   1.272   3.504   4.372 -0.1703  0.8142 -1.7904
 3691TIP3   OH211036   4.059   5.578   5.802  0.0177 -0.4464  0.4429
 3691TIP3    H111037   4.046   5.650   5.863 -1.2591  0.0264 -0.3532
 3691TIP3    H211038   4.086   5.504   5.857 -0.6017  0.1000  1.5025
 3692TIP3   OH211039   3.847   5.908   2.964  0.7804  0.9211  0.1832
 3692TIP3    H111040   3.810   5.955   3.039  1.2625  1.4793  0.0818
 3692TIP3    H211041   3.880   5.827   3.001 -0.5419  0.4007  0.2749
 3693TIP3   OH211042   2.302   0.777   2.021 -0.1527  0.2537  0.8214
 3693TIP3    H111043   2.254   0.706   1.978  0.2837  0.0834  0.6129
 3693TIP3    H211044   2.237   0.820   2.076 -0.7010  0.4243  0.0549
 3694TIP3   OH211045   0.078   5.095   4.590 -0.1009  0.3350  0.2449
 3694TIP3    H111046   0.007   5.144   4.631 -1.1783 -0.0686 -1.0542
 3694TIP3    H211047   0.112   5.153   4.522  1.7304  1.0353  1.6900
 3695TIP3   OH211048   0.915   2.309   3.212 -0.0881 -0.4298  0.2801
 3695TIP3    H111049   0.971   2.236   3.240  0.3337 -0.7901 -1.3849
 3695TIP3    H211050   0.963   2.387   3.240  2.0894 -0.6688 -2.2813
 3696TIP3   OH211051   3.254   6.763   5.298 -0.1582 -0.0480  0.4498
 3696TIP3    H111052   3.339   6.719   5.292 -1.2034 -2.0714 -0.4325
 3696TIP3    H211053   3.195   6.708   5.246 -2.3339  0.4978  2.2022
 3697TIP3   OH211054   1.037   3.977   4.621  0.3789 -0.0461 -0.2275
 3697TIP3    H111055   1.106   4.029   4.662 -1.1803  1.5603  0.4986
 3697TIP3    H211056   1.058   3.886   4.645  1.6080  0.5006  0.9102
 3698TIP3   OH211057   2.513   2.477   3.622 -0.0855 -0.3993  0.4198
 3698TIP3    H111058   2.548   2.457   3.536 -0.5881 -0.1631  0.1536
 3698TIP3    H211059   2.418   2.470   3.612 -0.1733  0.0533  0.8404
 3699TIP3   OH211060   1.966   0.789   5.025  0.3605  0.4759 -0.2937
 3699TIP3    H111061   1.905   0.786   4.951  0.7249 -0.5548 -0.5759
 3699TIP3    H211062   1.915   0.824   5.097 -0.1626  0.9661 -0.8890
 3700TIP3   OH211063   2.605   6.638   1.058  0.4377 -0.1582  0.5299
 3700TIP3    H111064   2.659   6.668   1.131 -2.9388  0.4235  3.0284
 3700TIP3    H211065   2.524   6.687   1.066 -1.7058 -3.1161 -1.0658
 3701TIP3   OH211066   1.009   2.597   1.609  0.0429  0.3955  0.1393
 3701TIP3    H111067   0.955   2.663   1.652 -0.8177  0.2229 -0.6592
 3701TIP3    H211068   1.024   2.631   1.521  1.7469  0.7201  0.5081
 3702TIP3   OH211069   4.955   1.194   2.230 -0.2661  0.0456  0.1602
 3702TIP3    H111070   4.987   1.104   2.220 -1.0468 -0.4725  1.9433
 3702TIP3    H211071   4.975   1.217   2.321  1.0763  2.1762 -0.6221
 3703TIP3   OH211072   6.151   1.570   1.371 -0.1228  0.3367  0.0600
 3703TIP3    H111073   6.150   1.602   1.461 -0.4365 -2.9289  1.3505
 3703TIP3    H211074   6.241   1.582   1.343  0.0098  1.2986  0.8300
 3704TIP3   OH211075   0.186   2.398   2.824  0.1979  0.2709 -0.6631
 3704TIP3    H111076   0.271   2.414   2.864  0.5611 -1.8046 -0.5126
 3704TIP3    H211077   0.129   2.371   2.896  0.8477 -3.4550 -1.3312
 3705TIP3   OH211078   4.194   4.555   5.798 -0.0450 -0.2636 -0.2252
 3705TIP3    H111079   4.212   4.643   5.766  0.1881 -0.0017  0.6066
 3705TIP3    H211080   4.188   4.501   5.719  1.9545  0.0988 -0.6737
 3706TIP3   OH211081   1.452   5.402   2.004 -0.3009 -0.2597 -0.1998
 3706TIP3    H111082   1.496   5.369   1.926 -0.3353 -1.9239  0.4406
 3706TIP3    H211083   1.488   5.349   2.076 -1.5017  0.0657  0.6772
 3707TIP3   OH211084   3.360   3.480   5.813  0.2910 -0.6449 -1.0420
 3707TIP3    H111085   3.376   3.404   5.756  2.5583 -0.5552 -0.6445
 3707TIP3    H211086   3.412   3.550   5.774  0.1429  0.0298 -0.0635
 3708TIP3   OH211087   1.891   0.149   3.751 -0.2203  0.5905  0.0834
 3708TIP3    H111088   1.809   0.197   3.752 -0.9417 -0.6152 -0.0408
 3708TIP3    H211089   1.873   0.070   3.700  0.7268 -0.1776  0.8951
 3709TIP3   OH211090   6.973   3.890   1.900 -0.1452 -0.0490  0.4679
 3709TIP3    H111091   6.889   3.930   1.921  0.1127 -0.0685  1.6278
 3709TIP3    H211092   7.028   3.909   1.976  0.4669 -1.2304  0.3483
 3710TIP3   OH211093   6.293   4.393   3.429 -0.0879 -0.0880 -0.3310
 3710TIP3    H111094   6.367   4.360   3.480  0.5276  0.2357 -1.0037
 3710TIP3    H211095   6.328   4.470   3.384 -1.3221  1.1665  0.7596
 3711TIP3   OH211096   4.737   1.120   5.552  0.1495 -1.0586 -0.3462
 3711TIP3    H111097   4.674   1.183   5.587  1.2988  0.4142 -0.8477
 3711TIP3    H211098   4.793   1.171   5.494  2.0177 -2.2385  0.3245
 3712TIP3   OH211099   2.275   4.754   3.262  0.2191  0.3800  0.0294
 3712TIP3    H111100   2.298   4.661   3.269  0.7803  0.4571 -0.6971
 3712TIP3    H211101   2.277   4.785   3.353  1.5747  0.0265  0.1508
 3713TIP3   OH211102   7.055   1.092   1.843  0.2500 -0.7193 -0.3506
 3713TIP3    H111103   7.067   1.176   1.886  0.0344 -0.4289 -0.8437
 3713TIP3    H211104   7.040   1.030   1.915  1.2840 -0.5067  0.0673
 3714TIP3   OH211105   5.983   6.399   4.711 -0.5212  0.6188 -0.3280
 3714TIP3    H111106   6.009   6.435   4.626 -0.8724  1.4795 -0.0795
 3714TIP3    H211107   6.059   6.347   4.739  0.5961  2.3231 -0.0443
 3715TIP3   OH211108   0.008   0.664   0.767  0.4320  0.1667  0.2608
 3715TIP3    H111109   0.044   0.726   0.704 -0.4271  1.1726  0.7136
 3715TIP3    H211110   0.064   0.673   0.844  0.4557  0.2013  0.2398
 3716TIP3   OH211111   6.316   4.465   1.234  0.2533 -0.1160 -0.2350
 3716TIP3    H111112   6.273   4.380   1.227  0.9576 -0.5104  0.1286
 3716TIP3    H211113   6.334   4.491   1.144 -0.7806  0.0850 -0.3975
 3717TIP3   OH211114   3.994   0.665   1.319  0.1941 -0.3427 -0.2118
 3717TIP3    H111115   4.013   0.623   1.403 -0.3695  0.9742  0.6148
 3717TIP3    H211116   4.026   0.755   1.329 -0.2909 -0.0360 -1.2387
 3718TIP3   OH211117   4.292   4.371   0.459  0.4721  0.2560 -0.0084
 3718TIP3    H111118   4.305   4.296   0.518 -0.0699 -0.4772 -0.8036
 3718TIP3    H211119   4.364   4.431   0.480 -0.3536  0.5689  2.2329
 3719TIP3   OH211120   2.367   1.212   3.645  0.1455 -0.2127 -0.0412
 3719TIP3    H111121   2.461   1.227   3.647  0.5561 -2.3045 -0.5400
 3719TIP3    H211122   2.359   1.120   3.620 -2.0265 -0.1899  0.4085
 3720TIP3   OH211123   1.616   2.545   2.579 -0.2989 -0.1232  0.1552
 3720TIP3    H111124   1.535   2.542   2.529 -1.4160 -0.3605  1.8917
 3720TIP3    H211125   1.680   2.499   2.525 -0.5389  2.3390 -2.4916
 3721TIP3   OH211126   4.493   2.245   1.233  0.2182 -0.0178  0.1018
 3721TIP3    H111127   4.574   2.206   1.266  0.8497 -0.8345 -2.2021
 3721TIP3    H211128   4.522   2.313   1.171 -0.8899  1.2676  0.9355
 3722TIP3   OH211129   5.297   0.483   2.056  0.6580 -0.1312  0.2334
 3722TIP3    H111130   5.240   0.521   1.988 -0.6396  1.7471  2.2378
 3722TIP3    H211131   5.269   0.392   2.063 -1.1551  0.3764  0.1523
 3723TIP3   OH211132   4.397   1.103   1.194 -0.1438  0.3443 -0.2445
 3723TIP3    H111133   4.365   1.048   1.266  0.7846  0.2102  0.0821
 3723TIP3    H211134   4.327   1.167   1.180 -0.3840  0.3202  0.7288
 3724TIP3   OH211135   5.239   4.944   0.809 -0.0067  0.0125 -0.0989
 3724TIP3    H111136   5.145   4.945   0.823  0.3981  0.1154  3.9867
 3724TIP3    H211137   5.255   5.018   0.750 -2.3008  1.7833  1.3091
 3725TIP3   OH211138   6.754   3.373   0.174  0.2299  0.6920  0.1850
 3725TIP3    H111139   6.675   3.338   0.214 -0.4203  0.3556 -1.3184
 3725TIP3    H211140   6.778   3.448   0.229 -0.0557 -0.2934  1.7204
 3726TIP3   OH211141   4.622   5.470   3.957 -0.3405 -0.3232  0.0786
 3726TIP3    H111142   4.639   5.501   4.045 -1.5405  0.3655  0.0868
 3726TIP3    H211143   4.595   5.548   3.908  2.0322 -0.3395 -1.4000
 3727TIP3   OH211144   4.461   3.919   1.437  0.6537  0.3770  0.4499
 3727TIP3    H111145   4.533   3.859   1.417  1.4227  1.9130 -1.6571
 3727TIP3    H211146   4.504   3.997   1.471 -0.3230 -0.0357  2.8674
 3728TIP3   OH211147   7.216   2.078   4.921 -0.0339 -0.5033  0.4386
 3728TIP3    H111148   7.238   1.987   4.942 -3.5120 -1.8873 -1.0814
 3728TIP3    H211149   7.121   2.082   4.933  0.0309  3.0428  0.5982
 3729TIP3   OH211150   1.576   5.732   3.059 -0.4053  0.1949  0.4056
 3729TIP3    H111151   1.642   5.801   3.073 -0.4997  0.5059 -0.6202
 3729TIP3    H211152   1.527   5.761   2.982 -1.2801 -0.3961  0.7286
 3730TIP3   OH211153   5.544   0.265   0.271 -0.4857  0.0293  0.6572
 3730TIP3    H111154   5.483   0.295   0.339 -0.3459 -1.5322  1.5263
 3730TIP3    H211155   5.581   0.184   0.307  0.7403 -0.0171 -0.6439
 3731TIP3   OH211156   5.634   0.071   1.910 -0.5737  0.3954  0.2663
 3731TIP3    H111157   5.685   0.137   1.958  0.2966 -1.3851  1.9533
 3731TIP3    H211158   5.547   0.074   1.950 -1.3767  2.2500 -1.4504
 3732TIP3   OH211159   7.122   3.631   4.272 -0.1592  0.3213  0.3169
 3732TIP3    H111160   7.066   3.599   4.343  0.3284  1.7279  1.3978
 3732TIP3    H211161   7.071   3.617   4.193 -1.0363 -0.6158  1.0161
 3733TIP3   OH211162   1.277   1.349   3.511 -0.1093  0.1840 -0.0192
 3733TIP3    H111163   1.192   1.307   3.520  0.5007 -0.7669  1.9846
 3733TIP3    H211164   1.303   1.332   3.421 -1.5652 -0.4483 -0.3440
 3734TIP3   OH211165   5.681   6.192   5.332  0.7152 -0.2645  0.5524
 3734TIP3    H111166   5.733   6.133   5.277  1.4832  1.7068 -0.9820
 3734TIP3    H211167   5.725   6.191   5.417  1.6622 -0.6823  0.0746
 3735TIP3   OH211168   1.845   4.644   4.208 -0.2133 -0.6515 -0.0245
 3735TIP3    H111169   1.872   4.644   4.300  1.7025  0.6208 -0.5207
 3735TIP3    H211170   1.914   4.594   4.163 -0.0259  0.4593 -1.0144
 3736TIP3   OH211171   4.514   6.443   3.076 -0.3359  0.6069 -0.1951
 3736TIP3    H111172   4.567   6.442   3.156  0.6499 -0.4516 -0.8403
 3736TIP3    H211173   4.575   6.469   3.007 -1.2878  1.9851 -0.5564
 3737TIP3   OH211174   6.525   6.363   5.805  0.0468 -0.5985  0.0922
 3737TIP3    H111175   6.612   6.379   5.770 -0.6450  0.3982 -1.2482
 3737TIP3    H211176   6.541   6.319   5.888  1.7826 -1.6671 -0.7547
 3738TIP3   OH211177   3.989   2.861   5.857 -0.2046  0.2690 -0.1986
 3738TIP3    H111178   3.896   2.874   5.876  0.1893  0.9514  1.4686
 3738TIP3    H211179   4.034   2.890   5.937  1.1758 -5.4331  1.5618
 3739TIP3   OH211180   1.960   1.674   4.673  0.7988 -0.0116  0.6520
 3739TIP3    H111181   1.884   1.672   4.731  1.3505 -1.1315  1.3950
 3739TIP3    H211182   1.944   1.603   4.610  0.5181  0.7614 -0.1695
 3740TIP3   OH211183   0.703   5.723   0.106 -0.2833 -0.3469 -0.1949
 3740TIP3    H111184   0.753   5.786   0.158 -1.9718  1.4312 -0.6129
 3740TIP3    H211185   0.657   5.670   0.170  0.9183 -1.0040  0.1576
 3741TIP3   OH211186   1.325   5.852   5.193 -0.2060  0.6948 -0.0825
 3741TIP3    H111187   1.348   5.817   5.279 -0.9226  0.3114 -0.0456
 3741TIP3    H211188   1.253   5.913   5.209  1.6200  3.0060 -0.0038
 3742TIP3   OH211189   0.633   0.527   3.818  0.3465  0.4098 -0.0102
 3742TIP3    H111190   0.571   0.464   3.784  1.4239 -1.2407  0.9266
 3742TIP3    H211191   0.635   0.597   3.753 -0.8739 -0.5139 -1.0915
 3743TIP3   OH211192   2.365   0.213   3.107  0.8055  0.2830 -0.2595
 3743TIP3    H111193   2.273   0.190   3.117  0.0384  3.5879  2.2323
 3743TIP3    H211194   2.411   0.129   3.099 -2.2495 -1.5330 -0.0662
 3744TIP3   OH211195   0.106   4.917   5.587 -0.6150 -0.6372  0.2461
 3744TIP3    H111196   0.060   4.960   5.659 -1.7428 -0.5943 -0.4660
 3744TIP3    H211197   0.152   4.988   5.542 -0.9441 -0.4674  0.1759
 3745TIP3   OH211198   6.167   0.584   5.437 -0.0787 -0.1711 -0.0738
 3745TIP3    H111199   6.160   0.652   5.505  0.3591 -0.5102  0.3196
 3745TIP3    H211200   6.254   0.598   5.399  0.5390 -1.3150  0.8862
 3746TIP3   OH211201   4.250   1.512   3.876 -0.4494 -0.4928 -0.3224
 3746TIP3    H111202   4.327   1.522   3.820 -1.0457 -0.3714 -1.1269
 3746TIP3    H211203   4.194   1.586   3.854 -0.1582  0.2572  1.3276
 3747TIP3   OH211204   7.084   2.025   0.864 -0.0107 -0.6637 -0.0077
 3747TIP3    H111205   7.158   2.045   0.808 -0.1736  3.2974  0.9254
 3747TIP3    H211206   7.120   2.028   0.953 -0.8187 -1.1949  0.3457
 3748TIP3   OH211207   0.686   3.832   2.429 -0.5012 -0.3021  0.5361
 3748TIP3    H111208   0.770   3.839   2.474  0.3923  2.2654 -1.2815
 3748TIP3    H211209   0.681   3.741   2.401  1.0216 -0.8199  1.8362
 3749TIP3   OH211210   6.916   2.274   2.587 -0.5748 -0.3429  0.0955
 3749TIP3    H111211   6.831   2.230   2.594 -0.8495 -0.0466 -1.1837
 3749TIP3    H211212   6.936   2.273   2.493  1.9077 -2.4217  0.5156
 3750TIP3   OH211213   3.609   4.337   0.471 -0.7353 -0.4408 -0.3468
 3750TIP3    H111214   3.526   4.289   0.461 -1.8132  0.9809  1.1602
 3750TIP3    H211215   3.655   4.289   0.540 -1.6729  0.4288  0.9342
 3751TIP3   OH211216   2.316   3.478   2.965 -0.0338  0.0172 -0.1184
 3751TIP3    H111217   2.250   3.426   3.012  0.8307 -1.3436 -0.3380
 3751TIP3    H211218   2.267   3.551   2.928 -1.4093 -0.8983 -0.2000
 3752TIP3   OH211219   6.102   1.276   3.911 -0.2948  0.4555  0.0992
 3752TIP3    H111220   6.108   1.367   3.943  0.0135  0.4619  0.0320
 3752TIP3    H211221   6.033   1.236   3.964 -0.3240  0.6865  0.2374
 3753TIP3   OH211222   2.769   6.531   4.803 -0.0709  0.4762  0.3089
 3753TIP3    H111223   2.726   6.576   4.730  1.5693  0.6466 -0.6081
 3753TIP3    H211224   2.702   6.526   4.871 -0.9516  2.4060 -0.3389
 3754TIP3   OH211225   2.766   1.465   1.044 -0.0675  0.3943 -0.0721
 3754TIP3    H111226   2.709   1.504   0.979  0.7646  2.5635  0.4128
 3754TIP3    H211227   2.853   1.468   1.005  0.1783  0.0660  0.4369
 3755TIP3   OH211228   2.942   1.759   3.080 -0.3525 -0.4508  0.3707
 3755TIP3    H111229   2.951   1.782   2.988  0.0612  0.5802  0.6479
 3755TIP3    H211230   2.993   1.826   3.126 -0.4180 -1.0416  1.3387
 3756TIP3   OH211231   5.376   6.603   1.832 -0.0867  0.2735 -0.3059
 3756TIP3    H111232   5.351   6.603   1.740  0.7555  1.6782 -0.5533
 3756TIP3    H211233   5.470   6.585   1.832  0.2027  1.6898  0.1736
 3757TIP3   OH211234   0.524   2.622   0.878 -0.0574 -0.2517 -0.2053
 3757TIP3    H111235   0.592   2.660   0.823  0.3085 -0.3416  0.1823
 3757TIP3    H211236   0.569   2.556   0.931 -0.2955  0.1718  0.5491
 3758TIP3   OH211237   4.600   1.190   2.732 -0.9001 -0.0158  0.0638
 3758TIP3    H111238   4.602   1.192   2.637 -1.5503 -2.8126 -0.0698
 3758TIP3    H211239   4.520   1.239   2.755 -0.9718  0.2968 -0.8194
 3759TIP3   OH211240   6.101   5.900   4.306 -0.4567  0.0017  0.2121
 3759TIP3    H111241   6.081   5.860   4.390  1.7142 -2.2086 -0.2077
 3759TIP3    H211242   6.056   5.985   4.309 -1.1700 -0.3495  3.2005
 3760TIP3   OH211243   5.314   0.814   0.014 -0.2127  0.0145 -0.2899
 3760TIP3    H111244   5.340   0.903  -0.011 -1.4738  0.5461  0.1799
 3760TIP3    H211245   5.241   0.827   0.075 -1.6538 -1.3708 -1.6247
 3761TIP3   OH211246   3.128   3.535   1.793  0.4000 -0.0065  0.0867
 3761TIP3    H111247   3.172   3.608   1.750 -0.0517  0.4120  0.3207
 3761TIP3    H211248   3.194   3.467   1.798  0.4631 -0.0768 -1.2776
 3762TIP3   OH211249   4.567   0.965   1.474  0.1497  0.3564 -0.3361
 3762TIP3    H111250   4.488   0.936   1.428 -1.0568  0.6544  1.4685
 3762TIP3    H211251   4.619   0.885   1.484 -0.6387 -0.1527 -0.1860
 3763TIP3   OH211252   2.398   6.284   1.043 -0.8346  0.1787 -0.4201
 3763TIP3    H111253   2.405   6.194   1.074 -1.4551 -0.1597 -1.2249
 3763TIP3    H211254   2.487   6.318   1.050 -0.5126 -0.6230 -0.4774
 3764TIP3   OH211255   1.888   2.838   0.312  0.2781 -0.3396  0.0943
 3764TIP3    H111256   1.836   2.918   0.316 -0.1349 -0.6480  2.6500
 3764TIP3    H211257   1.976   2.867   0.288 -0.0817  0.7548  0.0551
 3765TIP3   OH211258   0.594   5.133   0.409 -0.2662  0.2660 -0.2369
 3765TIP3    H111259   0.578   5.085   0.328 -1.5496  1.5706 -0.8105
 3765TIP3    H211260   0.676   5.181   0.393 -0.1652  0.0017 -0.5058
 3766TIP3   OH211261   3.875   6.015   5.492  0.3930  0.2817  0.5641
 3766TIP3    H111262   3.913   6.026   5.579 -1.5552 -1.4134  1.7312
 3766TIP3    H211263   3.787   6.051   5.500  0.0288 -0.3222 -0.5468
 3767TIP3   OH211264   0.031   3.168   4.627 -0.4626 -0.4976  0.6699
 3767TIP3    H111265   0.002   3.212   4.708  1.0307  1.6409  0.1146
 3767TIP3    H211266   0.114   3.127   4.651  0.3676  0.7738  0.0961
 3768TIP3   OH211267   6.174   3.654   2.068 -0.2174 -0.5413 -0.5562
 3768TIP3    H111268   6.211   3.716   2.007 -0.3605 -0.1275 -0.2257
 3768TIP3    H211269   6.132   3.708   2.135 -0.9403 -0.9923 -0.6343
 3769TIP3   OH211270   2.400   2.382   0.999  0.5446 -0.5411 -0.2128
 3769TIP3    H111271   2.359   2.340   0.923  0.3441 -0.8016  0.0369
 3769TIP3    H211272   2.344   2.358   1.073  1.0128 -0.7014  0.0943
 3770TIP3   OH211273   1.283   2.426   3.167  0.4452  0.4680 -0.0941
 3770TIP3    H111274   1.227   2.444   3.243  2.0959 -0.7576  1.4882
 3770TIP3    H211275   1.329   2.509   3.151 -0.5039  0.9662 -0.2989
 3771TIP3   OH211276   5.030   0.991   5.336  0.0967 -0.1811 -0.4762
 3771TIP3    H111277   5.100   0.972   5.399 -0.3173  0.4487  0.1887
 3771TIP3    H211278   4.974   0.914   5.337  0.4710 -0.4587 -0.5982
 3772TIP3   OH211279   5.404   1.916   3.513 -0.1535  0.3490 -0.2458
 3772TIP3    H111280   5.360   1.988   3.467 -2.2063 -0.0578  0.9441
 3772TIP3    H211281   5.357   1.838   3.484  0.5093 -0.2404  0.2579
 3773TIP3   OH211282   5.951   1.317   0.090  0.0942  0.1844  0.1486
 3773TIP3    H111283   6.046   1.323   0.085 -0.0160  1.8461 -0.9256
 3773TIP3    H211284   5.926   1.259   0.018  0.2504  0.6817 -0.3174
 3774TIP3   OH211285   4.269   0.319   5.707 -0.2237  0.1497  0.0487
 3774TIP3    H111286   4.332   0.304   5.777 -0.8100  0.3451  0.6269
 3774TIP3    H211287   4.269   0.238   5.657  2.5929  1.0638 -1.7228
 3775TIP3   OH211288   5.738   1.137   2.997  0.5881 -0.1097 -0.3966
 3775TIP3    H111289   5.722   1.199   2.926 -0.6134 -1.6398 -1.5278
 3775TIP3    H211290   5.819   1.092   2.972  1.9555  1.5238  0.8647
 3776TIP3   OH211291   6.188   2.411   0.198 -0.5123 -0.0030 -0.4110
 3776TIP3    H111292   6.134   2.415   0.278 -0.0037 -1.2661  0.0172
 3776TIP3    H211293   6.139   2.354   0.139 -0.3332 -0.0040 -0.5587
 3777TIP3   OH211294   2.176   5.638   2.008 -0.4033  0.6586 -0.4125
 3777TIP3    H111295   2.243   5.647   2.076 -0.2761  0.7390 -0.5489
 3777TIP3    H211296   2.094   5.629   2.056 -0.2868  0.4883 -0.2428
 3778TIP3   OH211297   5.922   3.226   4.514 -0.1624  0.1362  0.1423
 3778TIP3    H111298   5.864   3.197   4.444  0.5034 -1.5214  0.2422
 3778TIP3    H211299   5.922   3.321   4.506  0.5900 -0.0047 -2.6988
 3779TIP3   OH211300   2.201   1.657   1.625  0.2835  0.2049 -0.4492
 3779TIP3    H111301   2.225   1.620   1.711 -1.1365 -2.0489 -0.9354
 3779TIP3    H211302   2.283   1.661   1.577  0.8847  0.2044  0.5458
 3780TIP3   OH211303   7.066  -0.013   2.183  0.0598 -0.7018  0.4150
 3780TIP3    H111304   6.987   0.038   2.195 -0.2840 -0.4509 -2.2751
 3780TIP3    H211305   7.128   0.048   2.143  0.9019 -1.4469  0.5528
 3781TIP3   OH211306   5.723   1.425   0.690 -0.8036  0.0120 -0.3263
 3781TIP3    H111307   5.637   1.461   0.668 -1.3429  0.1171  1.7270
 3781TIP3    H211308   5.778   1.446   0.615 -2.0728  1.7642 -0.8295
 3782TIP3   OH211309   4.039   4.117   3.365 -0.3736  0.1407 -0.5428
 3782TIP3    H111310   3.975   4.047   3.355  0.4858 -0.6825 -0.4577
 3782TIP3    H211311   3.988   4.193   3.394 -1.0748 -0.9813  1.3584
 3783TIP3   OH211312   0.216   1.396   3.965 -0.2031  0.1353  0.1084
 3783TIP3    H111313   0.155   1.390   4.038 -1.7161  2.1924 -0.8729
 3783TIP3    H211314   0.266   1.476   3.983 -0.5110  0.5930 -1.0138
 3784TIP3   OH211315   5.928   1.600   1.891 -0.0590 -0.0303 -0.6318
 3784TIP3    H111316   5.832   1.599   1.893 -0.0711  0.3242 -0.9328
 3784TIP3    H211317   5.951   1.693   1.883  0.3454  0.0059  0.6661
 3785TIP3   OH211318   4.065   3.545   4.566 -0.0923  0.0302 -0.7495
 3785TIP3    H111319   4.067   3.624   4.621 -1.8044 -0.6822  0.4248
 3785TIP3    H211320   4.037   3.577   4.480  1.1282  0.9453 -0.8434
 3786TIP3   OH211321   5.437   0.971   2.989 -0.1944 -0.1705 -0.8902
 3786TIP3    H111322   5.514   1.000   2.941  0.1726  0.3714 -0.0149
 3786TIP3    H211323   5.457   0.881   3.015 -1.1599 -1.1426 -3.2556
 3787TIP3   OH211324   2.808   3.547   3.084 -0.4422  0.0877 -0.4570
 3787TIP3    H111325   2.876   3.487   3.114  0.8436  1.2003 -1.0299
 3787TIP3    H211326   2.728   3.495   3.084  0.2250 -1.0097  1.1120
 3788TIP3   OH211327   1.932   0.663   2.379 -0.2184 -0.5281 -0.1416
 3788TIP3    H111328   1.919   0.750   2.342  1.6602 -0.4378 -0.6518
 3788TIP3    H211329   1.970   0.612   2.308  1.7232 -0.8585  1.0705
 3789TIP3   OH211330   2.216   4.057   3.842  0.4460 -0.0685 -0.5998
 3789TIP3    H111331   2.204   4.035   3.750 -0.5266  2.1528 -1.0561
 3789TIP3    H211332   2.184   4.147   3.850  0.4263 -0.2302  1.9291
 3790TIP3   OH211333   4.427   1.123   4.436  0.4725 -0.0251 -0.1492
 3790TIP3    H111334   4.402   1.033   4.454  2.3909 -0.4392  0.7085
 3790TIP3    H211335   4.375   1.176   4.496 -1.7854 -0.3618 -1.6818
 3791TIP3   OH211336   5.943   3.920   0.544 -0.3981 -0.4292 -0.5570
 3791TIP3    H111337   5.931   3.904   0.450 -1.4739 -0.4895 -0.4128
 3791TIP3    H211338   6.017   3.865   0.568  0.8671  0.6946 -1.6650
 3792TIP3   OH211339   3.608   6.426   4.551  0.0284 -0.0674 -0.4393
 3792TIP3    H111340   3.600   6.362   4.621  0.5102  0.0164 -0.3024
 3792TIP3    H211341   3.534   6.409   4.493  0.8201 -1.5716 -1.0668
 3793TIP3   OH211342   5.288   3.659   2.186 -0.3382 -0.2174 -0.0842
 3793TIP3    H111343   5.253   3.739   2.146 -0.4718  0.1670  0.7886
 3793TIP3    H211344   5.270   3.591   2.121  1.2957  0.7135 -1.6206
 3794TIP3   OH211345   4.352   6.211   3.171 -0.6188  0.5707 -0.5541
 3794TIP3    H111346   4.417   6.280   3.153 -0.7002 -0.1054 -4.1207
 3794TIP3    H211347   4.294   6.251   3.235  0.3878  3.1735 -1.0961
 3795TIP3   OH211348   0.516   0.825   5.560 -0.1619 -0.6105 -0.1586
 3795TIP3    H111349   0.514   0.743   5.610 -2.9966  1.0057  2.8077
 3795TIP3    H211350   0.450   0.813   5.492  0.2659 -1.1439 -0.4949
 3796TIP3   OH211351   1.857   4.607   4.486  0.7199 -0.0021 -0.3126
 3796TIP3    H111352   1.934   4.550   4.495 -0.2792 -1.1485  1.7767
 3796TIP3    H211353   1.887   4.692   4.517  0.6797 -0.9739  2.7919
 3797TIP3   OH211354   6.737   0.958   4.892 -0.7633  0.1883  0.2716
 3797TIP3    H111355   6.710   0.881   4.843  0.7592  0.7458 -1.5764
 3797TIP3    H211356   6.830   0.968   4.872 -1.0997  3.0112 -0.3566
 3798TIP3   OH211357   0.814   1.079   1.953  0.4431  0.6113  0.6857
 3798TIP3    H111358   0.795   0.992   1.917  1.6445 -0.4508  2.4390
 3798TIP3    H211359   0.754   1.088   2.027  1.5623  0.4204  1.6615
 3799TIP3   OH211360   2.231   4.049   2.294 -0.0515 -0.8376  0.3260
 3799TIP3    H111361   2.233   4.005   2.379  2.0514 -0.9248  0.2741
 3799TIP3    H211362   2.300   4.115   2.300 -0.1015 -0.6261 -1.2083
 3800TIP3   OH211363   0.733   1.862   3.785 -0.1633 -0.0199  0.1573
 3800TIP3    H111364   0.795   1.926   3.753 -1.0833  0.9661  0.2983
 3800TIP3    H211365   0.776   1.823   3.861  0.3141  0.5732  0.1974
 3801TIP3   OH211366   3.430   1.821   5.641  0.0544  0.1055  0.0053
 3801TIP3    H111367   3.422   1.784   5.553 -0.0956 -0.6080  0.3143
 3801TIP3    H211368   3.500   1.887   5.633  0.9679 -0.8786 -0.3431
 3802TIP3   OH211369   3.565   3.521   0.332  0.7015  0.4755  0.3381
 3802TIP3    H111370   3.655   3.490   0.335 -0.0796 -1.9878  0.0138
 3802TIP3    H211371   3.544   3.525   0.238 -0.0638 -0.6904  0.4490
 3803TIP3   OH211372   4.876   2.438   0.906  0.0109 -0.4537 -0.7205
 3803TIP3    H111373   4.812   2.368   0.890  1.9446 -2.7514  1.0077
 3803TIP3    H211374   4.871   2.455   1.000  1.8539 -0.6222 -0.5655
 3804TIP3   OH211375   4.919   1.910   2.807  0.4756  0.1518  0.5299
 3804TIP3    H111376   4.902   1.941   2.719 -0.7581 -0.0678  0.6617
 3804TIP3    H211377   5.003   1.949   2.832  0.4125  0.9083 -0.4134
 3805TIP3   OH211378   0.236   5.540   4.228  0.1439  0.2149  0.4996
 3805TIP3    H111379   0.210   5.460   4.184 -0.5716  0.2264  0.8865
 3805TIP3    H211380   0.163   5.600   4.214  0.6262  0.7762  0.2967
 3806TIP3   OH211381   1.317   6.237   2.393  0.1122  0.1498 -0.3476
 3806TIP3    H111382   1.237   6.198   2.358 -0.3359  1.1462 -0.4643
 3806TIP3    H211383   1.335   6.310   2.335  1.5711 -0.5312 -0.7949
 3807TIP3   OH211384   4.328   2.673   4.439 -0.1313 -0.3033 -0.0785
 3807TIP3    H111385   4.401   2.683   4.379 -0.1665 -0.4048 -0.1385
 3807TIP3    H211386   4.262   2.625   4.389 -0.3058 -0.0631 -0.0795
 3808TIP3   OH211387   1.454   2.822   4.897 -0.3243  0.1456 -0.1896
 3808TIP3    H111388   1.434   2.841   4.805  2.1101  0.0159 -0.8131
 3808TIP3    H211389   1.539   2.863   4.913 -1.4552  1.6878  2.5637
 3809TIP3   OH211390   3.781   1.621   0.115  0.2568  0.7258  0.0604
 3809TIP3    H111391   3.771   1.540   0.164 -0.7462 -0.0207 -1.2801
 3809TIP3    H211392   3.753   1.598   0.026 -2.9769  3.1968  0.2442
 3810TIP3   OH211393   0.442   3.520   0.066  0.3130  0.2840 -0.2728
 3810TIP3    H111394   0.391   3.467   0.005 -0.3068 -0.3338  0.7426
 3810TIP3    H211395   0.433   3.610   0.035 -0.6531  0.0696 -0.6207
 3811TIP3   OH211396   2.370   2.912   0.648 -0.2435 -0.3076 -0.1458
 3811TIP3    H111397   2.299   2.857   0.616 -0.5259 -1.0118  1.6166
 3811TIP3    H211398   2.326   2.987   0.687 -0.3083 -2.0777  3.5604
 3812TIP3   OH211399   3.468   2.166   4.524  0.1871 -0.4187 -0.0518
 3812TIP3    H111400   3.474   2.176   4.619 -1.5830 -1.5031  0.2260
 3812TIP3    H211401   3.557   2.144   4.497  0.5878 -0.8282  1.4694
 3813TIP3   OH211402   5.062   3.869   3.515  0.1802  0.1728 -0.2782
 3813TIP3    H111403   5.029   3.798   3.459 -0.5996  0.7642 -0.5889
 3813TIP3    H211404   5.058   3.947   3.459  0.4523  0.5744  0.2537
 3814TIP3   OH211405   1.655   2.332   2.770  0.2512 -0.2585  0.0266
 3814TIP3    H111406   1.744   2.301   2.748  0.6303  0.1162  0.9817
 3814TIP3    H211407   1.630   2.387   2.696 -0.2936 -2.4744 -1.5635
 3815TIP3   OH211408   0.083   0.926   2.003  0.1862  0.5851 -0.3448
 3815TIP3    H111409   0.051   0.968   2.082  0.1282 -0.4164  0.1728
 3815TIP3    H211410   0.146   0.862   2.033 -0.5141 -0.4600 -1.0197
 3816TIP3   OH211411   6.641   6.403   0.682 -0.0183 -0.2865 -0.3083
 3816TIP3    H111412   6.554   6.419   0.717  0.8486  1.5001  1.1852
 3816TIP3    H211413   6.684   6.348   0.748 -0.1877 -1.7285 -1.3548
 3817TIP3   OH211414   4.056   3.638   4.046 -0.1107  0.6349  0.5155
 3817TIP3    H111415   4.116   3.582   4.095  1.6421  1.5745 -0.4867
 3817TIP3    H211416   3.987   3.579   4.017  0.8377 -0.6808  0.8334
 3818TIP3   OH211417   4.350   3.489   1.333 -0.2980  0.5214  0.3880
 3818TIP3    H111418   4.275   3.478   1.275 -0.4061 -1.7592  0.8724
 3818TIP3    H211419   4.315   3.537   1.408 -0.8333  0.9544 -0.1184
 3819TIP3   OH211420   0.336   5.557   1.919 -0.2227  0.3045  0.8571
 3819TIP3    H111421   0.329   5.598   2.005 -1.8203 -1.0712  1.4273
 3819TIP3    H211422   0.296   5.620   1.859  2.6888  2.2111  0.6809
 3820TIP3   OH211423   2.844   5.023   3.564  0.5320 -0.3826 -0.5405
 3820TIP3    H111424   2.817   4.987   3.649 -0.3712 -0.2250 -0.7539
 3820TIP3    H211425   2.845   4.948   3.505  3.5755 -0.9983  0.1050
 3821TIP3   OH211426   3.106   2.019   3.791  0.2286 -0.9631 -0.4593
 3821TIP3    H111427   3.172   1.953   3.812  1.0801 -0.0457 -0.1411
 3821TIP3    H211428   3.146   2.071   3.721 -1.1395 -1.8270 -1.9495
 3822TIP3   OH211429   6.643   5.143   1.850  0.4469  0.0276  0.4455
 3822TIP3    H111430   6.718   5.117   1.798 -0.1635  0.3744 -0.6498
 3822TIP3    H211431   6.653   5.238   1.861 -0.6957  0.3809 -1.2077
 3823TIP3   OH211432   6.883   3.165   2.332 -0.5260  0.0893  0.1920
 3823TIP3    H111433   6.860   3.222   2.260  0.3178 -0.9710 -0.9722
 3823TIP3    H211434   6.825   3.089   2.323  0.2531 -0.5015 -0.0051
 3824TIP3   OH211435   2.411   3.296   4.176 -0.0256 -0.1653 -0.5670
 3824TIP3    H111436   2.381   3.218   4.129  0.6530  0.4331 -2.0488
 3824TIP3    H211437   2.338   3.317   4.235  0.0708 -2.3328  0.4574
 3825TIP3   OH211438   5.280   1.671   2.992  0.1274 -0.1973  0.1446
 3825TIP3    H111439   5.335   1.595   3.009  0.3660 -0.0632 -0.0186
 3825TIP3    H211440   5.318   1.740   3.047  0.4362  0.0342 -0.3556
 3826TIP3   OH211441   0.259   0.060   0.514  0.0312  0.7315  0.5358
 3826TIP3    H111442   0.281   0.013   0.434 -0.1452  0.3839  0.6885
 3826TIP3    H211443   0.211   0.137   0.484  0.1325  0.7020  0.2964
 3827TIP3   OH211444   5.573   4.887   5.012 -0.4919  0.3128 -0.0698
 3827TIP3    H111445   5.523   4.895   5.093 -0.1358  0.6546  0.1225
 3827TIP3    H211446   5.603   4.977   4.994  2.1600 -0.2260  1.1768
 3828TIP3   OH211447   3.014   5.787   5.583 -0.4164  0.0848  0.7020
 3828TIP3    H111448   3.008   5.700   5.623  1.2433  0.3752  1.6716
 3828TIP3    H211449   2.966   5.844   5.643 -0.3967  0.0455  0.7554
 3829TIP3   OH211450   5.178   0.368   0.963 -0.3730  0.0115  0.1616
 3829TIP3    H111451   5.274   0.370   0.974 -0.2548 -0.9446 -0.6012
 3829TIP3    H211452   5.145   0.362   1.053  0.3101 -0.2253  0.4128
 3830TIP3   OH211453   2.341   5.027   0.913  0.1325 -0.4203 -0.8027
 3830TIP3    H111454   2.301   5.113   0.923  0.0924 -0.5097 -0.0995
 3830TIP3    H211455   2.330   5.005   0.821 -1.9488 -0.6889 -0.5378
 3831TIP3   OH211456   6.737   5.103   2.351  0.3810  0.2539  0.0809
 3831TIP3    H111457   6.669   5.110   2.285 -0.9471 -2.0586  1.0739
 3831TIP3    H211458   6.695   5.129   2.432  0.9916 -0.1606  0.5406
 3832TIP3   OH211459   0.371   2.395   4.297  0.1978 -0.3256 -0.1475
 3832TIP3    H111460   0.460   2.360   4.303  0.4560  0.3226 -0.0609
 3832TIP3    H211461   0.368   2.463   4.364  0.1139  0.6649 -1.1257
 3833TIP3   OH211462   5.370   0.374  -0.022  0.6897  0.3158  0.2575
 3833TIP3    H111463   5.355   0.465  -0.049 -0.9722  0.0219  0.0851
 3833TIP3    H211464   5.356   0.375   0.073  1.3694  0.3490  0.3672
 3834TIP3   OH211465   1.456   2.250   5.671 -0.2386 -0.6659 -0.0525
 3834TIP3    H111466   1.452   2.282   5.761 -1.2285 -0.5618 -0.1257
 3834TIP3    H211467   1.517   2.177   5.674  0.1713 -0.3068  0.5904
 3835TIP3   OH211468   6.231   0.057   5.458 -0.3714 -0.3967 -0.2116
 3835TIP3    H111469   6.295   0.112   5.504 -0.6822  1.2533 -1.6198
 3835TIP3    H211470   6.166   0.034   5.525  0.6398 -0.4075  0.7819
 3836TIP3   OH211471   5.258   5.693   5.421 -0.2683  0.4212 -0.1709
 3836TIP3    H111472   5.174   5.704   5.465 -0.4341 -0.4870 -0.2486
 3836TIP3    H211473   5.303   5.625   5.470  0.5588  1.1081  0.0549
 3837TIP3   OH211474   3.910   5.743   0.733  0.0140 -0.3361 -0.0848
 3837TIP3    H111475   3.864   5.727   0.815  0.4736  0.6043  0.3696
 3837TIP3    H211476   3.866   5.819   0.695 -0.2737 -0.8369 -0.7824
 3838TIP3   OH211477   3.197   5.391   5.644  0.7875 -0.0736  0.3691
 3838TIP3    H111478   3.241   5.306   5.653  0.3960 -0.2982  0.1993
 3838TIP3    H211479   3.220   5.420   5.556  0.6563 -0.1577  0.3066
 3839TIP3   OH211480   1.966   5.336   4.493 -0.6665 -0.1967 -0.6337
 3839TIP3    H111481   1.963   5.353   4.399 -2.0197 -1.7517 -0.9184
 3839TIP3    H211482   1.957   5.241   4.501  1.7201 -0.3858  1.0080
 3840TIP3   OH211483   5.150   1.092   3.177 -0.7207  0.1263  0.0755
 3840TIP3    H111484   5.181   1.030   3.243  0.6679 -1.0083 -1.5360
 3840TIP3    H211485   5.216   1.161   3.176  0.5300 -1.0198 -1.6313
 3841TIP3   OH211486   5.137   1.854   5.518  0.3252 -0.3612  0.1404
 3841TIP3    H111487   5.145   1.930   5.575  0.2483 -0.2727  0.0359
 3841TIP3    H211488   5.043   1.847   5.500  0.2372 -0.9580  0.7839
 3842TIP3   OH211489   4.314   1.770   2.289  0.0283  0.4342  0.3130
 3842TIP3    H111490   4.282   1.680   2.290 -0.5923  0.5441 -2.4506
 3842TIP3    H211491   4.401   1.764   2.250 -0.0902  1.0454 -0.0537
 3843TIP3   OH211492   3.448   0.524   2.390  0.3368  0.7093  0.4712
 3843TIP3    H111493   3.456   0.456   2.322 -0.1625  0.2499  0.8617
 3843TIP3    H211494   3.395   0.592   2.349  0.1625  0.5032  0.3509
 3844TIP3   OH211495   5.306   4.121   5.769  0.5568 -0.3220  0.0886
 3844TIP3    H111496   5.379   4.182   5.763  1.0407 -0.8868  0.1113
 3844TIP3    H211497   5.296   4.105   5.863  3.2011 -3.4740  0.0340
 3845TIP3   OH211498   5.968   1.243   3.297  0.5495 -0.3693 -0.1031
 3845TIP3    H111499   6.048   1.228   3.347  0.9323  2.1200  0.1866
 3845TIP3    H211500   5.997   1.297   3.223 -0.6566 -0.6161 -0.7805
 3846TIP3   OH211501   5.776   4.512   4.226  0.6053  0.4890  0.1321
 3846TIP3    H111502   5.816   4.425   4.230 -0.5479 -0.0609  0.1345
 3846TIP3    H211503   5.797   4.553   4.309 -1.6309 -1.0817  1.5907
 3847TIP3   OH211504   4.675   3.289   5.706  0.1925  0.7488  0.2706
 3847TIP3    H111505   4.731   3.212   5.715 -0.3589  0.2539 -0.4192
 3847TIP3    H211506   4.586   3.254   5.705 -0.1312  1.4914  0.9883
 3848TIP3   OH211507   0.171   6.384   1.409  0.0621 -0.2929  0.6206
 3848TIP3    H111508   0.177   6.474   1.377 -2.8217  0.7760  2.6048
 3848TIP3    H211509   0.188   6.330   1.332  1.7832  1.9102 -0.6719
 3849TIP3   OH211510   4.564   5.872   0.565  0.0583  0.0749 -0.2115
 3849TIP3    H111511   4.477   5.841   0.542  0.5021 -1.0108 -0.4761
 3849TIP3    H211512   4.549   5.932   0.638 -0.8303 -0.8169  0.3734
 3850TIP3   OH211513   0.997   2.349   3.798  0.6059 -0.4726 -0.4233
 3850TIP3    H111514   1.032   2.426   3.753  1.4481  0.7590  2.1352
 3850TIP3    H211515   0.907   2.372   3.818  0.4711 -0.6951 -0.7663
 3851TIP3   OH211516   1.634   6.340   0.335 -0.0103  0.4120  0.3597
 3851TIP3    H111517   1.565   6.275   0.347  0.2545  0.0202 -0.1670
 3851TIP3    H211518   1.632   6.393   0.414 -0.0338 -0.4267  0.9336
 3852TIP3   OH211519   4.050   4.919   0.904  0.1505  0.1639  0.0606
 3852TIP3    H111520   4.071   4.961   0.821 -2.7502  1.0399 -0.3492
 3852TIP3    H211521   3.989   4.979   0.947  0.7693 -0.7553  2.3870
 3853TIP3   OH211522   5.203   6.446   4.956 -0.7786 -0.4012  0.3650
 3853TIP3    H111523   5.269   6.412   4.895 -1.2490  0.7316 -0.8169
 3853TIP3    H211524   5.123   6.399   4.933 -0.5917 -1.1840  1.2558
 3854TIP3   OH211525   2.317   6.792   4.341  0.0355  0.2978 -0.5547
 3854TIP3    H111526   2.255   6.764   4.408  0.2295  1.3385  0.0794
 3854TIP3    H211527   2.398   6.747   4.364  0.3977  1.4550  0.5734
 3855TIP3   OH211528   0.285   0.795   5.390 -0.2869  0.7682 -0.7611
 3855TIP3    H111529   0.224   0.732   5.352 -1.0600  2.2971 -2.1982
 3855TIP3    H211530   0.274   0.874   5.336  0.3496  2.2611  1.1875
 3856TIP3   OH211531   2.607   2.269   1.485  0.1775  0.1532 -0.3189
 3856TIP3    H111532   2.675   2.323   1.527  0.8849 -1.0023  0.0632
 3856TIP3    H211533   2.598   2.307   1.398  1.7613 -0.0296 -0.5937
 3857TIP3   OH211534   0.058   4.085   0.378 -0.2371 -0.0770  0.3813
 3857TIP3    H111535   0.102   4.005   0.408 -0.0631 -0.2779 -0.3853
 3857TIP3    H211536   0.010   4.116   0.455  1.7034  0.5002  1.4245
 3858TIP3   OH211537   3.178   3.247   5.275  0.5123 -0.2815  0.2677
 3858TIP3    H111538   3.103   3.307   5.275 -1.2762 -2.3982  0.3109
 3858TIP3    H211539   3.154   3.178   5.213  2.8748 -0.5571 -0.4547
 3859TIP3   OH211540   0.236   5.244   2.039 -0.2628  0.3708 -0.7392
 3859TIP3    H111541   0.165   5.268   2.097  1.1342  0.1713  1.1615
 3859TIP3    H211542   0.268   5.160   2.073  1.3119  0.7937 -1.0774
 3860TIP3   OH211543   6.103   3.430   2.380  0.0400  0.6466  0.3152
 3860TIP3    H111544   6.165   3.393   2.443  0.1608  0.5271  0.1310
 3860TIP3    H211545   6.115   3.524   2.386  0.6709  0.5998 -0.1452
 3861TIP3   OH211546   0.160   2.460   5.203 -0.1929 -0.2671 -0.0569
 3861TIP3    H111547   0.087   2.427   5.256 -0.1192  1.0030  0.8913
 3861TIP3    H211548   0.238   2.424   5.246 -0.1705  0.1475  0.2590
 3862TIP3   OH211549   7.012   4.369   0.825  0.7169  0.0182 -0.0235
 3862TIP3    H111550   6.920   4.384   0.849  0.7516  1.7885 -0.8240
 3862TIP3    H211551   7.051   4.329   0.902 -1.2110 -2.9871 -0.4295
 3863TIP3   OH211552   2.370   4.880   3.897 -0.4712  0.1596 -0.5374
 3863TIP3    H111553   2.346   4.823   3.825  0.5971  0.6358 -1.3027
 3863TIP3    H211554   2.421   4.825   3.956 -1.1276 -0.1643 -0.2660
 3864TIP3   OH211555   5.326   0.646   5.616 -0.2523 -0.3671 -0.2895
 3864TIP3    H111556   5.279   0.722   5.651 -0.0364 -0.6129  0.5537
 3864TIP3    H211557   5.357   0.675   5.530  0.4896  0.7633  0.3437
 3865TIP3   OH211558   0.124   3.159   3.788  0.3114 -0.5187 -0.1440
 3865TIP3    H111559   0.103   3.159   3.881  2.0309 -1.8887  0.2946
 3865TIP3    H211560   0.193   3.225   3.779 -0.2899  0.0707 -0.5940
 3866TIP3   OH211561   7.175   2.718   2.547 -0.2819  0.1587 -0.1120
 3866TIP3    H111562   7.236   2.715   2.621 -0.0368  3.2652 -0.0545
 3866TIP3    H211563   7.093   2.747   2.586 -1.0326 -1.1767 -0.6477
 3867TIP3   OH211564   5.669   3.408   2.527 -0.1534  0.1692 -0.2909
 3867TIP3    H111565   5.691   3.456   2.607  0.0231  0.3690 -0.4590
 3867TIP3    H211566   5.686   3.471   2.457  1.0686 -0.4727 -0.5925
 3868TIP3   OH211567   5.486   4.784   1.750  0.4775 -0.3003 -0.3925
 3868TIP3    H111568   5.521   4.743   1.671 -0.4652  1.0614 -1.5714
 3868TIP3    H211569   5.489   4.715   1.817  1.6064 -1.3829 -1.5178
 3869TIP3   OH211570   1.874   3.216   1.479 -0.6794  0.4139 -0.1165
 3869TIP3    H111571   1.946   3.204   1.417 -0.7509  0.2673 -0.1700
 3869TIP3    H211572   1.880   3.309   1.505 -0.6236  0.4634 -0.3069
 3870TIP3   OH211573   5.577   5.495   4.391 -0.0767  0.0706  0.2134
 3870TIP3    H111574   5.515   5.425   4.371  0.3585 -0.4890  0.7648
 3870TIP3    H211575   5.531   5.553   4.451  0.3678 -1.0909  1.7386
 3871TIP3   OH211576   5.710   2.685   0.449  0.6025 -0.6106  0.0540
 3871TIP3    H111577   5.741   2.773   0.426 -0.5104  0.0039  0.7799
 3871TIP3    H211578   5.721   2.634   0.369  1.3120  0.1767 -0.3706
 3872TIP3   OH211579   0.149   2.747   5.271 -0.4147 -0.1879  0.6038
 3872TIP3    H111580   0.189   2.767   5.186 -1.5853  0.1175  0.1054
 3872TIP3    H211581   0.211   2.687   5.313  2.0579  2.5538  1.1598
 3873TIP3   OH211582   0.627   3.100   2.360  0.1450 -0.1287 -0.3454
 3873TIP3    H111583   0.592   3.188   2.352  1.0813  0.3535  0.6647
 3873TIP3    H211584   0.661   3.080   2.273 -0.8906  0.1285 -0.8269
 3874TIP3   OH211585   6.239   6.634   0.610 -0.3335  0.5402  0.0216
 3874TIP3    H111586   6.148   6.605   0.620 -0.2972 -0.0550 -1.1344
 3874TIP3    H211587   6.242   6.721   0.650 -1.7919  1.2086 -1.2237
 3875TIP3   OH211588   6.936   1.806   4.815 -0.1991  0.3571  0.1529
 3875TIP3    H111589   6.884   1.726   4.805  0.7503 -0.1395 -1.1931
 3875TIP3    H211590   6.991   1.789   4.892  0.2224 -0.4479 -0.3067
 3876TIP3   OH211591   1.518   4.739   1.071  0.4599 -0.2602 -0.3354
 3876TIP3    H111592   1.523   4.779   0.984 -0.4719 -0.5210 -0.5220
 3876TIP3    H211593   1.524   4.812   1.132 -2.6741  0.4509 -0.6762
 3877TIP3   OH211594   6.640   3.557   0.587  0.7999 -0.1713  0.0040
 3877TIP3    H111595   6.643   3.639   0.637  1.7158 -0.8533  1.1006
 3877TIP3    H211596   6.564   3.568   0.529 -0.9738  0.2216  2.2636
 3878TIP3   OH211597   0.978   0.317   0.754  0.2087 -0.4129 -0.6410
 3878TIP3    H111598   1.030   0.368   0.692  0.3269 -0.3822 -0.5182
 3878TIP3    H211599   0.887   0.329   0.726 -0.1939  2.9439  1.5500
 3879TIP3   OH211600   4.239   5.501   2.760  0.2705 -0.0343 -0.1426
 3879TIP3    H111601   4.225   5.409   2.782  2.1579 -0.4238 -0.3665
 3879TIP3    H211602   4.225   5.506   2.665 -1.6654  0.3313  0.1285
 3880TIP3   OH211603   5.734   0.558   1.572  0.3366 -0.1260  0.0940
 3880TIP3    H111604   5.819   0.601   1.558  1.0041 -1.2335  0.6192
 3880TIP3    H211605   5.687   0.571   1.490  0.2740  2.0922  0.4125
 3881TIP3   OH211606   6.904   5.643   0.198  0.1075  0.7164 -0.6338
 3881TIP3    H111607   6.818   5.642   0.156 -0.8177  2.2798  1.1083
 3881TIP3    H211608   6.886   5.638   0.291  2.0626 -1.3495 -0.2624
 3882TIP3   OH211609   2.202   3.671   3.813  0.0186  0.4019 -0.5223
 3882TIP3    H111610   2.138   3.741   3.826  1.1815  1.2443  0.9172
 3882TIP3    H211611   2.196   3.619   3.894  0.1090 -0.4098 -1.0229
 3883TIP3   OH211612   2.494   6.719   3.052 -0.1981 -0.5190  0.3064
 3883TIP3    H111613   2.581   6.684   3.067 -0.6237 -1.6334  0.2905
 3883TIP3    H211614   2.473   6.696   2.962 -0.3868  0.0291  0.2037
 3884TIP3   OH211615   4.620   6.243   0.254  0.4078  0.3845  0.2405
 3884TIP3    H111616   4.566   6.253   0.332  0.8762 -0.5769  0.6983
 3884TIP3    H211617   4.684   6.175   0.277 -0.9140 -1.6827 -1.7547
 3885TIP3   OH211618   1.297   4.969   4.629 -0.2126  0.2186 -0.1221
 3885TIP3    H111619   1.356   5.040   4.651  0.5302 -0.8206  1.4224
 3885TIP3    H211620   1.290   4.917   4.709 -1.8915 -0.6436 -0.7553
 3886TIP3   OH211621   6.072   0.680   1.727 -0.2006  0.3232  0.6924
 3886TIP3    H111622   6.144   0.618   1.724 -0.7981 -0.3397 -1.2653
 3886TIP3    H211623   6.014   0.647   1.797 -0.3139 -1.1152 -0.0551
 3887TIP3   OH211624   5.057   0.452   3.986  0.2610  0.4889 -0.4430
 3887TIP3    H111625   4.995   0.383   3.964  0.2726 -0.0218  1.0463
 3887TIP3    H211626   5.138   0.426   3.943  0.0359  0.0077 -0.5835
 3888TIP3   OH211627   1.483   1.591   4.134  0.0465 -0.1696 -0.0387
 3888TIP3    H111628   1.446   1.543   4.059 -0.1171 -1.3322  0.7582
 3888TIP3    H211629   1.492   1.681   4.103 -1.0195 -0.4030 -1.1055
 3889TIP3   OH211630   5.420   1.692   0.083 -0.1138 -0.1564  0.0643
 3889TIP3    H111631   5.478   1.691   0.159 -1.6208  0.2504  1.2756
 3889TIP3    H211632   5.361   1.618   0.097 -0.4481 -0.0428 -0.6860
 3890TIP3   OH211633   5.610   3.403   1.508 -0.3902  0.2533 -0.0902
 3890TIP3    H111634   5.620   3.309   1.523  0.7630  0.0652 -1.7944
 3890TIP3    H211635   5.518   3.413   1.482 -0.9658 -0.1298  1.6307
 3891TIP3   OH211636   1.984   4.817   4.620  0.4099  0.0606  0.2018
 3891TIP3    H111637   2.075   4.841   4.635 -0.1337  1.7510  0.9748
 3891TIP3    H211638   1.953   4.785   4.705 -0.1807  1.1281  0.4019
 3892TIP3   OH211639   3.921   3.852   1.138 -0.2758  0.2829 -0.0055
 3892TIP3    H111640   3.832   3.888   1.142  0.7357  2.8344  3.0729
 3892TIP3    H211641   3.917   3.771   1.188 -1.0063 -0.0780 -0.6259
 3893TIP3   OH211642   5.189   1.863   3.759 -0.1893 -0.5559  0.3226
 3893TIP3    H111643   5.281   1.884   3.743  0.1582  0.0897  2.7755
 3893TIP3    H211644   5.191   1.788   3.818 -1.2898 -1.1134 -0.3121
 3894TIP3   OH211645   3.120   2.293   0.163  0.1806  0.4127 -0.3708
 3894TIP3    H111646   3.137   2.387   0.163 -0.4906  0.5371  0.0569
 3894TIP3    H211647   3.087   2.274   0.075 -0.3095  0.6929 -0.2467
 3895TIP3   OH211648   3.909   2.323   3.588  0.3586 -0.8091 -0.4991
 3895TIP3    H111649   3.949   2.366   3.512 -1.3840  0.3917 -0.7866
 3895TIP3    H211650   3.827   2.286   3.554 -1.3217  1.2497  1.1092
 3896TIP3   OH211651   3.479   3.500   5.007 -0.2465  0.1707 -0.4726
 3896TIP3    H111652   3.497   3.451   4.927 -0.4295 -3.1236  1.3147
 3896TIP3    H211653   3.384   3.506   5.011 -0.2487  0.0896 -0.3904
 3897TIP3   OH211654   2.039   4.467   4.150 -0.5780  0.0683 -0.3994
 3897TIP3    H111655   2.076   4.435   4.233  2.4235  0.1725 -1.5884
 3897TIP3    H211656   1.992   4.392   4.114 -0.4206 -0.5093  0.5635
 3898TIP3   OH211657   3.684   5.478   2.419  0.3846 -0.0225 -0.2502
 3898TIP3    H111658   3.771   5.481   2.379  0.2300  2.2777 -0.5216
 3898TIP3    H211659   3.692   5.530   2.498 -0.5174 -0.6055  0.2339
 3899TIP3   OH211660   5.997   6.712   1.121 -0.7604  0.7108  0.2546
 3899TIP3    H111661   5.924   6.734   1.180 -1.3160  1.7313 -0.7824
 3899TIP3    H211662   5.995   6.780   1.054  1.2625  0.8656  0.2792
 3900TIP3   OH211663   0.348   1.960   3.369  0.0755 -0.7849 -0.1879
 3900TIP3    H111664   0.276   2.016   3.341 -0.6705 -0.4253  2.2153
 3900TIP3    H211665   0.329   1.875   3.329 -1.6883 -0.6763  0.3168
 3901TIP3   OH211666   4.216   6.468   3.057  0.0661  0.5519 -0.0760
 3901TIP3    H111667   4.309   6.449   3.071  0.0162  1.0498  1.0279
 3901TIP3    H211668   4.204   6.458   2.963  0.9499 -0.7904 -0.0838
 3902TIP3   OH211669   6.685   5.776   3.861 -0.0775  0.2441 -0.3057
 3902TIP3    H111670   6.729   5.777   3.946  1.2128  1.2518 -0.9596
 3902TIP3    H211671   6.677   5.683   3.839 -0.8628 -0.0623  1.1048
 3903TIP3   OH211672   4.929   4.937   0.574  0.9405  0.5085 -0.2959
 3903TIP3    H111673   5.020   4.960   0.594  0.3220  1.4009  1.8225
 3903TIP3    H211674   4.883   5.021   0.569 -0.2521  0.0326  1.4815
 3904TIP3   OH211675   6.573   1.032   4.209 -0.1444  0.4098  0.0278
 3904TIP3    H111676   6.530   0.960   4.165 -0.8305  1.2992 -0.8086
 3904TIP3    H211677   6.557   1.108   4.153 -0.0454  1.3547  1.2206
 3905TIP3   OH211678   1.759   1.942   4.223  0.2414  0.0946  0.1723
 3905TIP3    H111679   1.739   1.925   4.131 -1.2068 -1.4878  0.7335
 3905TIP3    H211680   1.843   1.898   4.238 -0.6229 -1.6617  0.1240
 3906TIP3   OH211681   1.596   5.367   3.837  0.2692 -0.0937 -0.0098
 3906TIP3    H111682   1.538   5.291   3.843 -0.7419  0.7397  1.3384
 3906TIP3    H211683   1.639   5.371   3.922  1.8292 -0.2924 -0.7579
 3907TIP3   OH211684   1.088   4.114   4.160 -0.2327 -0.1869  0.0608
 3907TIP3    H111685   1.118   4.163   4.083 -0.4017  0.9945  0.7275
 3907TIP3    H211686   1.169   4.081   4.199 -0.1377 -0.7156 -0.5530
 3908TIP3   OH211687   0.499   4.996   1.820 -0.0042 -0.1632 -0.2288
 3908TIP3    H111688   0.564   5.064   1.837  1.0186 -0.7387 -1.6404
 3908TIP3    H211689   0.433   5.039   1.767  0.7394 -0.2962 -1.2843
 3909TIP3   OH211690   7.140   0.810   5.423 -0.0627 -0.0639 -0.1687
 3909TIP3    H111691   7.044   0.811   5.426 -0.0318  0.6837  2.4375
 3909TIP3    H211692   7.165   0.735   5.477  0.8192  1.0076  0.9684
 3910TIP3   OH211693   0.965   5.674   2.694  0.2214 -0.9609  0.0902
 3910TIP3    H111694   0.883   5.650   2.737 -0.0463 -1.1400 -0.5068
 3910TIP3    H211695   0.938   5.713   2.611  0.7350 -0.8496 -0.0282
 3911TIP3   OH211696   5.302   2.760   4.426  0.1692  0.2225  0.0524
 3911TIP3    H111697   5.371   2.759   4.360  1.5962  0.6410  1.4667
 3911TIP3    H211698   5.245   2.687   4.402  1.2544 -0.3106 -1.0125
 3912TIP3   OH211699   4.592   5.237   1.712  0.1662 -0.1002  0.7378
 3912TIP3    H111700   4.583   5.306   1.778 -1.5186  0.9096 -0.4460
 3912TIP3    H211701   4.576   5.156   1.760  1.6137  0.3389  2.0468
 3913TIP3   OH211702   0.121   4.933   2.614 -0.5465 -1.0624  0.5125
 3913TIP3    H111703   0.125   4.962   2.705 -0.4480 -1.1099  0.5223
 3913TIP3    H211704   0.097   5.012   2.565  2.5057 -0.2187  0.1622
 3914TIP3   OH211705   2.167   1.173   4.622 -0.5198  0.1408  0.0638
 3914TIP3    H111706   2.220   1.095   4.608  0.3737  0.9474 -1.2273
 3914TIP3    H211707   2.109   1.150   4.695 -0.8895 -2.0129 -0.8566
 3915TIP3   OH211708   7.133   6.718   2.831 -0.1518 -0.0215 -0.3766
 3915TIP3    H111709   7.187   6.716   2.910 -0.1231 -0.7696 -0.4025
 3915TIP3    H211710   7.183   6.666   2.768 -1.7454 -2.3741  0.1780
 3916TIP3   OH211711   2.340   1.212   4.107 -0.4893  0.6849  0.0341
 3916TIP3    H111712   2.424   1.257   4.104 -0.4866  0.6901  0.1503
 3916TIP3    H211713   2.309   1.228   4.197 -0.4825  0.4448  0.0789
 3917TIP3   OH211714   0.869   4.054   5.739  0.0212  0.2210 -0.4704
 3917TIP3    H111715   0.879   3.960   5.754  1.2610  0.3509 -0.4216
 3917TIP3    H211716   0.895   4.068   5.648 -0.5774  0.4621 -0.6113
 3918TIP3   OH211717   2.279   3.054   4.132  0.4350 -0.0302 -0.0398
 3918TIP3    H111718   2.323   2.970   4.148 -0.7033 -0.3193  1.7817
 3918TIP3    H211719   2.186   3.034   4.141  0.0253  1.0943 -1.3892
 3919TIP3   OH211720   4.987   1.623   2.063  0.4600  0.3066  0.3201
 3919TIP3    H111721   4.920   1.604   2.129 -0.8424  0.5925 -0.8665
 3919TIP3    H211722   4.966   1.711   2.032  2.3309  1.0456  0.9744
 3920TIP3   OH211723   3.693   2.724   5.110 -0.1440 -0.2035 -0.4407
 3920TIP3    H111724   3.736   2.641   5.091 -2.7664 -1.7166 -0.2619
 3920TIP3    H211725   3.716   2.743   5.201  0.6334 -0.6095 -0.5471
 3921TIP3   OH211726   4.790   5.400   4.450  0.4430  0.5067 -0.4011
 3921TIP3    H111727   4.874   5.354   4.456 -0.1595 -0.5113  0.9345
 3921TIP3    H211728   4.735   5.343   4.397  0.9457  1.8259 -2.4509
 3922TIP3   OH211729   3.805   4.157   3.618 -0.0534 -0.2061 -0.2782
 3922TIP3    H111730   3.752   4.236   3.612  0.0820 -0.1089 -0.2035
 3922TIP3    H211731   3.757   4.092   3.566 -1.1077 -0.5987  1.1143
 3923TIP3   OH211732   6.239   5.772   1.550  0.0200 -0.5426  0.0217
 3923TIP3    H111733   6.231   5.691   1.601 -0.5645  0.2200  1.2104
 3923TIP3    H211734   6.299   5.751   1.479  1.4021 -1.4976  1.4100
 3924TIP3   OH211735   2.962   3.384   5.283 -0.7118 -0.0524  0.2532
 3924TIP3    H111736   2.898   3.384   5.354 -2.2124  0.8818 -1.0126
 3924TIP3    H211737   2.909   3.378   5.204  0.8093  0.3103 -0.8421
 3925TIP3   OH211738   5.404   6.089   4.053  0.0624  0.0640 -0.3047
 3925TIP3    H111739   5.482   6.068   4.003 -0.7372  1.3596 -2.2442
 3925TIP3    H211740   5.404   6.028   4.127  2.1604 -0.8409 -1.0027
 3926TIP3   OH211741   1.827   0.407   3.441 -0.2439  0.2885  0.0786
 3926TIP3    H111742   1.881   0.428   3.518 -0.7041  1.1262  0.1871
 3926TIP3    H211743   1.835   0.484   3.385 -3.9115  2.0259  1.5807
 3927TIP3   OH211744   2.015   6.177   1.641 -0.6069 -0.3493 -0.0783
 3927TIP3    H111745   2.083   6.234   1.676 -1.9064  0.4464  1.3223
 3927TIP3    H211746   2.062   6.105   1.600  1.0619  0.2281  0.7216
 3928TIP3   OH211747   7.197   2.011   5.872  0.2497  0.0355 -0.4686
 3928TIP3    H111748   7.112   1.969   5.861  0.1375  0.5491 -1.7814
 3928TIP3    H211749   7.256   1.962   5.816  0.6727  0.1094 -0.0981
 3929TIP3   OH211750   1.241   1.912   1.996  0.1849  0.0373  0.1837
 3929TIP3    H111751   1.325   1.943   2.030  1.7347 -3.5570  0.1547
 3929TIP3    H211752   1.264   1.855   1.923 -2.0220 -2.5595  1.2929
 3930TIP3   OH211753   3.451   3.178   0.924  0.6018 -0.4242 -0.4019
 3930TIP3    H111754   3.360   3.148   0.930  0.1280  1.2340  2.1180
 3930TIP3    H211755   3.499   3.126   0.988  0.2614  2.2063  2.1766
 3931TIP3   OH211756   4.957   5.247   1.831  0.0733  0.2642 -0.2688
 3931TIP3    H111757   4.923   5.253   1.741  0.5136  0.2229 -0.4384
 3931TIP3    H211758   4.903   5.180   1.872  0.2170 -0.1009 -0.6632
 3932TIP3   OH211759   2.443   5.750   1.005 -0.0284  0.2243  0.1617
 3932TIP3    H111760   2.437   5.762   1.100 -2.5733 -0.1496  0.1208
 3932TIP3    H211761   2.431   5.656   0.993  1.0553  0.1619 -0.5087
 3933TIP3   OH211762   3.971   3.377   2.423 -0.1336  0.2226  0.0345
 3933TIP3    H111763   4.053   3.345   2.460 -0.2648  0.3754  0.4715
 3933TIP3    H211764   3.947   3.451   2.479 -0.5056  0.2527 -0.1627
 3934TIP3   OH211765   6.075   0.301   1.473 -0.3840 -0.3772 -0.0164
 3934TIP3    H111766   6.144   0.367   1.473 -1.0665  0.3663  0.4813
 3934TIP3    H211767   6.009   0.336   1.412 -1.2240 -0.0569  1.0400
 3935TIP3   OH211768   1.579   0.521   4.677  0.0710  0.4869 -0.2580
 3935TIP3    H111769   1.508   0.579   4.707  1.9226  2.1806  1.1154
 3935TIP3    H211770   1.614   0.563   4.599 -0.4340 -0.3956 -0.9874
 3936TIP3   OH211771   2.315   3.833   5.862  0.0466 -0.9848  0.0005
 3936TIP3    H111772   2.281   3.922   5.867  1.7490 -0.2772 -0.1670
 3936TIP3    H211773   2.410   3.844   5.864  0.2930 -2.8429  0.5626
 3937TIP3   OH211774   6.840   4.112   1.617 -0.3667 -0.0996  0.3664
 3937TIP3    H111775   6.840   4.201   1.582  2.4241 -0.1675 -0.0838
 3937TIP3    H211776   6.933   4.087   1.619 -1.0599 -3.0711  0.3297
 3938TIP3   OH211777   5.701   5.442   2.861 -0.3510  0.1888 -0.0698
 3938TIP3    H111778   5.716   5.456   2.768 -0.6541 -1.0635 -0.3359
 3938TIP3    H211779   5.746   5.360   2.880 -0.1993  0.4888  0.9185
 3939TIP3   OH211780   5.264   2.164   4.791 -0.1199  0.0641  0.2582
 3939TIP3    H111781   5.267   2.247   4.838 -0.6192  0.1258  0.1890
 3939TIP3    H211782   5.250   2.189   4.699  1.2895 -0.0364 -0.0082
 3940TIP3   OH211783   4.073   3.019   2.495  0.7178 -0.2821 -0.3058
 3940TIP3    H111784   4.057   2.925   2.498 -1.5966  0.0421 -0.6532
 3940TIP3    H211785   4.028   3.049   2.416  0.5904  1.2617  0.3138
 3941TIP3   OH211786   0.807   1.965   0.714  0.0181 -0.6947  0.7839
 3941TIP3    H111787   0.845   2.040   0.668 -1.1313 -0.3412  0.3660
 3941TIP3    H211788   0.873   1.897   0.707  0.4174 -0.2253 -0.2526
 3942TIP3   OH211789   2.672   5.815   3.562  0.5774 -0.0224  0.1896
 3942TIP3    H111790   2.710   5.774   3.640 -1.4799  0.8628  1.7328
 3942TIP3    H211791   2.658   5.906   3.587 -1.4235 -0.0468 -0.7116
 3943TIP3   OH211792   6.600   0.352   1.120 -0.3257 -0.1705 -0.1899
 3943TIP3    H111793   6.555   0.291   1.179  0.3479 -0.0363  0.4703
 3943TIP3    H211794   6.556   0.435   1.133 -0.0437 -0.0946  0.2777
 3944TIP3   OH211795   3.387   6.144   4.589  0.3330 -0.4491  0.1868
 3944TIP3    H111796   3.336   6.076   4.545  1.1444 -1.3588  0.6369
 3944TIP3    H211797   3.325   6.184   4.650  0.1197 -1.4925  0.6751
 3945TIP3   OH211798   4.358   6.769   2.947 -0.7648 -0.4896  0.1420
 3945TIP3    H111799   4.301   6.828   2.898 -1.6709 -0.0158  1.6891
 3945TIP3    H211800   4.341   6.683   2.909 -2.2210 -0.2892  0.2741
 3946TIP3   OH211801   0.384   1.436   4.546  0.2531  0.3037  0.8551
 3946TIP3    H111802   0.416   1.478   4.626 -1.0740 -0.4753  1.8387
 3946TIP3    H211803   0.391   1.342   4.564  1.6487  0.0732 -0.6802
 3947TIP3   OH211804   1.479   1.304   2.601 -0.1007  0.4167  0.5021
 3947TIP3    H111805   1.471   1.218   2.641  0.4282  0.2769  0.3225
 3947TIP3    H211806   1.410   1.356   2.641 -1.0256 -0.3432 -0.0544
 3948TIP3   OH211807   4.474   5.695   3.413 -0.6013  0.1237  0.4682
 3948TIP3    H111808   4.404   5.749   3.377 -0.0283  0.3447 -0.3406
 3948TIP3    H211809   4.534   5.681   3.340  1.1375  1.4482  1.5832
 3949TIP3   OH211810   5.897   2.559   1.855  0.0175  0.0405 -0.1262
 3949TIP3    H111811   5.955   2.486   1.834 -0.0159 -0.3538  1.0463
 3949TIP3    H211812   5.874   2.545   1.947 -3.0605 -0.5862 -0.8691
 3950TIP3   OH211813   5.295   2.420   5.843 -0.6798 -0.8276  0.1052
 3950TIP3    H111814   5.224   2.441   5.905 -1.2148 -2.8636  0.2682
 3950TIP3    H211815   5.367   2.393   5.899  0.2519  1.1166 -0.0696
 3951TIP3   OH211816   7.134   3.253   3.614 -0.2277 -0.0847  0.8561
 3951TIP3    H111817   7.195   3.224   3.682 -0.9675  1.0644  2.0461
 3951TIP3    H211818   7.112   3.343   3.638  0.7058  0.9458 -1.7820
 3952TIP3   OH211819   5.306   0.805   1.968 -0.3904  0.7546  0.6952
 3952TIP3    H111820   5.329   0.897   1.962  0.3747  0.5525  0.4937
 3952TIP3    H211821   5.326   0.769   1.882  0.8387  0.0613  1.2469
 3953TIP3   OH211822   5.385   5.588   0.005 -0.3237 -0.0474  0.2183
 3953TIP3    H111823   5.439   5.513  -0.019 -1.2874 -0.0287 -2.4326
 3953TIP3    H211824   5.315   5.552   0.058  0.3284 -0.6553  0.6800
 3954TIP3   OH211825   0.623   4.221   4.661 -0.0394 -0.5789  0.2114
 3954TIP3    H111826   0.694   4.185   4.714  0.4445  0.6140  0.4041
 3954TIP3    H211827   0.618   4.163   4.585  0.6978 -1.0689  0.5295
 3955TIP3   OH211828   0.387   2.876   3.697 -0.5911 -0.2234  0.2227
 3955TIP3    H111829   0.422   2.793   3.728 -1.4914 -0.9853 -0.7526
 3955TIP3    H211830   0.292   2.866   3.703 -0.7943 -0.1799 -2.1155
 3956TIP3   OH211831   7.186   2.980   3.340 -0.4006 -0.3375 -0.4796
 3956TIP3    H111832   7.192   2.967   3.435 -0.8623 -0.9413 -0.5257
 3956TIP3    H211833   7.219   3.068   3.326  1.9020 -1.0515 -0.0110
 3957TIP3   OH211834   0.582   4.014   5.747 -0.3916 -0.0684 -0.3857
 3957TIP3    H111835   0.674   4.013   5.773 -0.8508 -0.4011  1.3376
 3957TIP3    H211836   0.549   4.098   5.777 -0.4594  0.4468 -1.8198
 3958TIP3   OH211837   2.425   1.670   1.466  0.1137 -0.0385  1.0053
 3958TIP3    H111838   2.511   1.628   1.458 -0.1098 -0.8229  2.3530
 3958TIP3    H211839   2.406   1.701   1.377  2.3363  1.3147  0.9124
 3959TIP3   OH211840   1.996   4.680   4.848 -0.0776 -0.3596 -0.4276
 3959TIP3    H111841   1.932   4.631   4.900  1.6524 -0.8436  1.3689
 3959TIP3    H211842   2.070   4.620   4.840  1.1656  1.0984 -0.2085
 3960TIP3   OH211843   4.068   4.668   1.222 -0.0817  0.3703  0.1213
 3960TIP3    H111844   4.059   4.578   1.253 -1.9188  0.3815 -0.3134
 3960TIP3    H211845   4.123   4.661   1.144  0.7606 -0.2052  0.7392
 3961TIP3   OH211846   1.725   5.051   3.880  0.4088 -1.0201  0.1699
 3961TIP3    H111847   1.764   5.069   3.966  2.2747  1.4204 -1.0382
 3961TIP3    H211848   1.785   4.989   3.839  0.1788 -1.2447  0.1697
 3962TIP3   OH211849   3.339   3.766   0.169 -0.0730  0.0011 -0.3375
 3962TIP3    H111850   3.284   3.694   0.140 -2.7027  2.1863 -1.2190
 3962TIP3    H211851   3.385   3.795   0.090  1.1504 -0.8079  0.0597
 3963TIP3   OH211852   0.461   2.936   0.762  0.2763 -0.4830  0.0690
 3963TIP3    H111853   0.546   2.892   0.763  0.9080  0.6761 -0.1938
 3963TIP3    H211854   0.416   2.905   0.840  0.8711 -1.2479  0.1100
 3964TIP3   OH211855   4.372   5.724   4.689 -0.2528  0.2958  0.5807
 3964TIP3    H111856   4.397   5.685   4.773  2.0978 -1.7418 -0.9208
 3964TIP3    H211857   4.295   5.674   4.661  0.9444 -1.3234  0.0601
 3965TIP3   OH211858   2.534   0.536   2.249  0.7421  0.3922  0.4540
 3965TIP3    H111859   2.466   0.468   2.241  0.8976  0.1157  1.3426
 3965TIP3    H211860   2.492   0.605   2.302  0.7965  0.7084  0.0872
 3966TIP3   OH211861   5.697   1.281   5.152  0.1643 -0.3661  0.1075
 3966TIP3    H111862   5.625   1.339   5.129  0.4630 -1.0443 -3.0161
 3966TIP3    H211863   5.656   1.211   5.204 -0.9622  0.3961  0.2804
 3967TIP3   OH211864   0.697   2.397   2.724  0.2879 -0.0004 -0.2864
 3967TIP3    H111865   0.638   2.456   2.772  0.9928  0.3347  0.1843
 3967TIP3    H211866   0.784   2.419   2.756  0.7106 -0.2364 -1.2476
 3968TIP3   OH211867   2.626   3.506   4.164  0.1653 -0.2163  0.3446
 3968TIP3    H111868   2.635   3.533   4.072 -0.0501  0.1181  0.4226
 3968TIP3    H211869   2.563   3.434   4.162 -0.3846  0.2666  0.3189
 3969TIP3   OH211870   5.970   4.117   4.823  0.2258 -0.0429  0.3546
 3969TIP3    H111871   5.923   4.163   4.754 -0.5520  1.0452  1.5705
 3969TIP3    H211872   6.059   4.105   4.787 -0.7260 -1.6120 -1.7282
 3970TIP3   OH211873   3.357   0.665   2.673  0.4007 -0.7328  0.6479
 3970TIP3    H111874   3.375   0.572   2.659 -1.3253 -1.6097  3.4696
 3970TIP3    H211875   3.417   0.691   2.743 -1.4838 -0.7382  2.3442
 3971TIP3   OH211876   2.478   5.567   4.749  0.3942 -0.0082  0.3476
 3971TIP3    H111877   2.449   5.598   4.664  2.4236  2.3083  0.3664
 3971TIP3    H211878   2.548   5.505   4.730 -1.1721 -1.8639  0.3634
 3972TIP3   OH211879   4.519   5.269   5.613  0.0409  0.3638 -0.4459
 3972TIP3    H111880   4.567   5.188   5.629 -0.6030  0.0310 -0.1625
 3972TIP3    H211881   4.485   5.294   5.698  0.1031  0.8507 -0.5629
 3973TIP3   OH211882   5.033   6.571   2.091 -0.4682  0.9705  0.0105
 3973TIP3    H111883   5.080   6.652   2.074 -0.5047  0.8509 -0.6811
 3973TIP3    H211884   5.100   6.511   2.123 -0.1144  0.7562 -1.1153
 3974TIP3   OH211885   4.227   1.944   3.726 -0.1054  0.6946  0.2597
 3974TIP3    H111886   4.306   1.960   3.778  1.1789  1.2751 -1.7601
 3974TIP3    H211887   4.259   1.911   3.642 -2.0048  0.9935 -0.6425
 3975TIP3   OH211888   4.874   6.259   3.092 -0.4810 -0.2612  0.0964
 3975TIP3    H111889   4.840   6.216   3.014 -1.0917  0.7457 -0.2134
 3975TIP3    H211890   4.798   6.275   3.146 -0.1806 -0.1307  0.4855
 3976TIP3   OH211891   0.150   2.507   3.574  0.3629 -0.0993 -0.3515
 3976TIP3    H111892   0.233   2.529   3.532  0.2325 -0.0399 -0.5835
 3976TIP3    H211893   0.165   2.422   3.615  0.6170  0.0352 -0.1705
 3977TIP3   OH211894   6.672   1.330   2.529  0.2276  0.1417 -0.2166
 3977TIP3    H111895   6.578   1.345   2.516  0.3228  0.2976 -0.7510
 3977TIP3    H211896   6.677   1.280   2.610 -0.2870  0.5398  0.0656
 3978TIP3   OH211897   1.771   2.292   0.166  0.4731  0.4442 -0.9158
 3978TIP3    H111898   1.745   2.230   0.233  0.5667 -1.9188 -2.9001
 3978TIP3    H211899   1.867   2.292   0.169  0.4691  0.8266 -0.6664
 3979TIP3   OH211900   1.667   0.504   0.962  0.4226 -0.7909  0.0378
 3979TIP3    H111901   1.731   0.568   0.995  1.0799 -1.7900  0.7357
 3979TIP3    H211902   1.656   0.527   0.870 -0.8919  1.6021  0.6948
 3980TIP3   OH211903   1.691   1.414   3.506 -0.1484 -0.1362  0.2692
 3980TIP3    H111904   1.775   1.373   3.523 -0.7191 -0.3891  2.8817
 3980TIP3    H211905   1.712   1.505   3.484  0.9571 -1.0646 -2.9821
 3981TIP3   OH211906   3.241   5.837   3.694  0.0047 -0.0701  0.3838
 3981TIP3    H111907   3.272   5.771   3.756  1.1230  2.2765  2.5001
 3981TIP3    H211908   3.278   5.810   3.610  2.1657 -1.0489  1.5601
 3982TIP3   OH211909   4.111   4.494   1.426 -0.3005  0.1056  0.7477
 3982TIP3    H111910   4.194   4.481   1.472 -0.2896 -0.7994  0.4899
 3982TIP3    H211911   4.116   4.435   1.351  1.0800  3.8113 -2.3890
 3983TIP3   OH211912   6.694   1.343   1.086  0.1515  0.4853 -0.4149
 3983TIP3    H111913   6.735   1.389   1.013  0.9206  0.1346 -0.2101
 3983TIP3    H211914   6.616   1.303   1.048 -0.9469  2.5401 -0.4382
 3984TIP3   OH211915   3.227   1.874   1.473  0.0086  0.1106 -0.0425
 3984TIP3    H111916   3.146   1.835   1.507  0.1324 -0.0427  0.0825
 3984TIP3    H211917   3.241   1.832   1.389 -0.6261  0.9352 -0.5737
 3985TIP3   OH211918   3.960   5.174   4.217 -0.2969  0.1178 -0.2804
 3985TIP3    H111919   3.942   5.228   4.294 -0.5375 -1.3483  0.7372
 3985TIP3    H211920   3.975   5.237   4.146 -3.9118  1.5676  0.0236
 3986TIP3   OH211921   0.423   3.775   2.936  0.6599  0.7965 -0.6753
 3986TIP3    H111922   0.469   3.692   2.951  1.3119  0.9652 -1.5924
 3986TIP3    H211923   0.392   3.769   2.846  0.2297  1.3310 -0.5678
 3987TIP3   OH211924   0.005   6.362   5.027 -0.4898  0.2472 -0.2442
 3987TIP3    H111925   0.057   6.426   4.979 -0.8540  0.3362 -0.5246
 3987TIP3    H211926  -0.031   6.411   5.101 -1.2619  0.5273 -0.7945
 3988TIP3   OH211927   6.508   0.879   0.164  0.7142  0.3903  0.1917
 3988TIP3    H111928   6.531   0.862   0.255 -1.4643 -1.6310  0.4772
 3988TIP3    H211929   6.550   0.809   0.115  3.0529  2.2465 -0.6769
 3989TIP3   OH211930   6.715   3.202   4.095  0.2893  0.1944 -0.2606
 3989TIP3    H111931   6.748   3.112   4.093 -0.9918 -0.3356  0.6002
 3989TIP3    H211932   6.747   3.238   4.177 -1.0567 -0.2751  0.5096
 3990TIP3   OH211933   3.700   3.531   4.122 -0.0351 -0.3812  0.2445
 3990TIP3    H111934   3.636   3.470   4.157 -0.6947  1.6224  2.8832
 3990TIP3    H211935   3.772   3.530   4.186  0.8741  0.1116 -0.7280
 3991TIP3   OH211936   0.304   0.606   3.289  0.1815  0.8235 -0.5239
 3991TIP3    H111937   0.396   0.591   3.266 -0.1056 -0.1926 -1.0400
 3991TIP3    H211938   0.307   0.683   3.346  1.2934  1.1498 -0.9815
 3992TIP3   OH211939   1.611   2.913   2.630 -0.1987 -0.1932  0.2695
 3992TIP3    H111940   1.661   2.859   2.692 -0.7242 -0.8481  0.1431
 3992TIP3    H211941   1.661   2.994   2.622 -0.7418  0.4184  2.4878
 3993TIP3   OH211942   5.954   2.335   0.601 -0.0362  0.5898  0.2088
 3993TIP3    H111943   5.914   2.407   0.651 -2.6820 -0.7784  0.2799
 3993TIP3    H211944   5.943   2.259   0.657 -0.4387 -0.4647 -1.2446
 3994TIP3   OH211945   5.236   4.237   0.838  0.4335 -0.3340  0.1504
 3994TIP3    H111946   5.274   4.323   0.822  0.0965 -0.1422  0.3872
 3994TIP3    H211947   5.223   4.199   0.751 -0.2003  0.1931  0.0093
 3995TIP3   OH211948   6.017   4.121   3.793 -0.9637 -0.3426 -0.1913
 3995TIP3    H111949   6.041   4.030   3.778 -1.2412 -0.2179 -1.4864
 3995TIP3    H211950   6.094   4.171   3.764 -1.1357 -0.1297 -0.2834
 3996TIP3   OH211951   4.795   1.279   1.995  0.4996 -0.0374  0.0366
 3996TIP3    H111952   4.841   1.248   2.073  0.2244 -0.9275 -0.1526
 3996TIP3    H211953   4.706   1.298   2.026  0.4156 -0.3032 -0.0415
 3997TIP3   OH211954   1.975   6.257   4.374 -0.1267 -0.0522  0.5659
 3997TIP3    H111955   2.006   6.167   4.367 -0.7201 -0.1434 -1.9059
 3997TIP3    H211956   1.900   6.252   4.433 -0.4046 -1.2738  0.1423
 3998TIP3   OH211957   6.416   0.183   0.436 -0.1078 -0.0089 -0.4748
 3998TIP3    H111958   6.411   0.159   0.344  1.4031 -1.5011 -0.1984
 3998TIP3    H211959   6.495   0.237   0.443  0.0215 -0.2619  0.0275
 3999TIP3   OH211960   0.906   5.781   2.438 -0.1483  0.2832 -0.1189
 3999TIP3    H111961   0.893   5.876   2.433 -0.5789  0.4113  2.3187
 3999TIP3    H211962   0.840   5.745   2.379 -3.5375  1.3967  2.6149
 4000TIP3   OH211963   5.787   3.323   0.053  0.4210  0.3831 -0.4049
 4000TIP3    H111964   5.746   3.395   0.101  0.3206 -0.1329  0.3031
 4000TIP3    H211965   5.798   3.356  -0.036 -1.5006  0.5578 -0.6225
 4001TIP3   OH211966   2.143   6.305   4.712 -0.2843 -0.7188  0.3771
 4001TIP3    H111967   2.207   6.250   4.667 -1.4897 -1.5161 -0.4128
 4001TIP3    H211968   2.063   6.252   4.716 -1.2115  0.6191  0.4250
 4002TIP3   OH211969   4.934   3.705   1.998 -0.4796 -0.9000  0.0864
 4002TIP3    H111970   4.991   3.758   1.942 -0.4619 -0.7499  0.2466
 4002TIP3    H211971   4.874   3.767   2.039  0.3928 -0.8190  1.3008
 4003TIP3   OH211972   0.801  -0.014   2.160  0.7306 -0.6077 -0.2342
 4003TIP3    H111973   0.836   0.038   2.088  1.2298  0.7222  0.9417
 4003TIP3    H211974   0.707   0.007   2.161  0.4970 -1.5079 -1.1820
 4004TIP3   OH211975   3.116   4.122   3.676  0.6089 -0.0849 -0.3273
 4004TIP3    H111976   3.152   4.050   3.625 -0.6041 -0.9769  0.0528
 4004TIP3    H211977   3.186   4.146   3.737  0.5171 -1.9162  0.5354
 4005TIP3   OH211978   4.530   6.698   1.742  0.9602  0.2689  0.1440
 4005TIP3    H111979   4.597   6.682   1.809  1.0083  0.3981  0.1280
 4005TIP3    H211980   4.502   6.788   1.759  0.9941  0.3113 -0.0295
 4006TIP3   OH211981   4.461   2.904   4.505  0.6980  0.1212  0.1123
 4006TIP3    H111982   4.509   2.864   4.578  2.3870 -0.5655 -1.3217
 4006TIP3    H211983   4.379   2.854   4.501  1.3009 -0.9364  0.5159
 4007TIP3   OH211984   5.455   2.373   4.289 -0.8124 -0.2467 -0.2245
 4007TIP3    H111985   5.479   2.455   4.246 -1.5146 -0.3574 -0.8492
 4007TIP3    H211986   5.530   2.351   4.343 -0.7510  0.9896  0.2173
 4008TIP3   OH211987   2.931   3.771   4.019  0.5727 -0.3683  0.1249
 4008TIP3    H111988   2.921   3.861   4.050  0.8220  0.1918 -1.3563
 4008TIP3    H211989   3.015   3.771   3.973 -0.1971 -0.9360 -1.3166
 4009TIP3   OH211990   0.050   6.516   3.042 -0.2069  0.2472 -0.5483
 4009TIP3    H111991   0.048   6.452   2.970 -0.4931 -0.6133  0.2039
 4009TIP3    H211992  -0.026   6.493   3.096  0.6035  0.1900  0.6038
 4010TIP3   OH211993   4.024   0.471   3.312  0.6268  0.2240  0.1113
 4010TIP3    H111994   4.087   0.528   3.355  0.2865  0.5490  0.1782
 4010TIP3    H211995   4.076   0.396   3.282  0.9071  0.0908  0.8939
 4011TIP3   OH211996   2.545   0.983   1.019 -0.5538 -0.0666  0.2501
 4011TIP3    H111997   2.479   1.049   1.043 -0.2599 -0.3257  1.9240
 4011TIP3    H211998   2.560   0.934   1.100 -0.6516 -2.1223 -0.9064
 4012TIP3   OH211999   3.063   2.957   3.103  0.3523  0.6097 -0.3831
 4012TIP3    H112000   3.126   2.950   3.032 -0.7451 -1.4829 -1.2581
 4012TIP3    H212001   3.009   3.033   3.081  0.0205 -0.0188 -1.8268
 4013TIP3   OH212002   4.706   2.361   2.636 -0.0848 -0.2525  0.0804
 4013TIP3    H112003   4.759   2.386   2.712 -0.9292  1.9976  0.0014
 4013TIP3    H212004   4.768   2.316   2.578  1.2195  0.3517  0.9420
 4014TIP3   OH212005   3.619   0.821   0.790  0.2720 -0.6424 -0.0884
 4014TIP3    H112006   3.568   0.740   0.791  1.9507 -1.7563  1.2908
 4014TIP3    H212007   3.621   0.849   0.881  0.0355  0.7729 -0.4967
 4015TIP3   OH212008   4.182   0.513   1.177 -0.0898  0.6325  0.2303
 4015TIP3    H112009   4.172   0.586   1.237 -1.8723 -0.3534  1.1957
 4015TIP3    H212010   4.277   0.508   1.161  0.0857  3.0608  0.1759
 4016TIP3   OH212011   4.017   2.925   0.681  0.3631 -0.0766  0.0814
 4016TIP3    H112012   3.994   2.990   0.747  0.1151 -0.5969  0.5175
 4016TIP3    H212013   4.069   2.860   0.728  0.1463 -0.4744 -0.2149
 4017TIP3   OH212014   2.892   2.228  -0.000  0.4129 -0.2209 -0.1898
 4017TIP3    H112015   2.858   2.218   0.088  0.4619 -0.3082 -0.1806
 4017TIP3    H212016   2.844   2.302  -0.037  2.8128  2.1459  1.1130
 4018TIP3   OH212017   0.199   4.102   1.248  0.2467  0.0551 -0.4696
 4018TIP3    H112018   0.290   4.077   1.233 -0.1243 -0.5026 -1.9979
 4018TIP3    H212019   0.183   4.172   1.185  0.2178  1.6930  1.2898
 4019TIP3   OH212020   1.849   2.236   3.038  0.0494 -0.3648  0.3085
 4019TIP3    H112021   1.762   2.247   3.077  0.5354 -0.8572  1.5925
 4019TIP3    H212022   1.835   2.251   2.944 -1.4174 -0.4370  0.4812
 4020TIP3   OH212023   2.109   3.474   5.251 -0.2595  0.3624 -0.3338
 4020TIP3    H112024   2.098   3.389   5.294  0.1071 -0.0019 -0.9534
 4020TIP3    H212025   2.086   3.537   5.319 -1.7638 -0.2478 -0.2268
 4021TIP3   OH212026   1.275   5.183   5.693 -0.1282 -0.7126 -0.0025
 4021TIP3    H112027   1.261   5.145   5.606  2.0602 -0.8338 -0.3622
 4021TIP3    H212028   1.210   5.140   5.748 -2.3050  0.1447 -1.7246
 4022TIP3   OH212029   0.251   4.240   5.690  0.0121 -0.1451 -0.7943
 4022TIP3    H112030   0.228   4.331   5.702 -2.6914 -0.6259 -1.7333
 4022TIP3    H212031   0.257   4.204   5.778 -0.5208  0.5730 -0.4620
 4023TIP3   OH212032   2.018   2.049   1.112  0.2033  0.3823 -0.5142
 4023TIP3    H112033   2.044   1.983   1.177  0.2541 -0.7536 -1.6658
 4023TIP3    H212034   1.995   2.126   1.165 -1.8123 -1.1494  1.0338
 4024TIP3   OH212035   1.379   5.694   2.602 -0.1866 -0.0801 -0.0800
 4024TIP3    H112036   1.402   5.786   2.590  2.1467 -0.6707 -0.6480
 4024TIP3    H212037   1.321   5.694   2.679  0.6758  1.7497  0.6447
 4025TIP3   OH212038   1.429   2.947   5.654  0.0694  0.0935  0.5936
 4025TIP3    H112039   1.436   2.961   5.749 -1.4403  0.4864  0.6731
 4025TIP3    H212040   1.399   3.032   5.620 -2.1612 -0.8036  0.1473
 4026TIP3   OH212041   6.043   4.912   3.766 -0.2961 -0.6253 -0.2894
 4026TIP3    H112042   6.129   4.950   3.780  0.7078 -1.4685 -3.4287
 4026TIP3    H212043   6.036   4.844   3.833  0.9131  0.2698  0.7950
 4027TIP3   OH212044   7.245   5.052   1.824  0.2534  0.5237  0.2216
 4027TIP3    H112045   7.177   5.117   1.806  0.1943 -0.4562 -4.0298
 4027TIP3    H212046   7.216   5.009   1.905 -1.6590  3.1737  1.1036
 4028TIP3   OH212047   0.429   3.384   0.621  0.3120  0.2935 -0.5506
 4028TIP3    H112048   0.503   3.339   0.661  0.6263  0.2598 -1.1509
 4028TIP3    H212049   0.400   3.447   0.687 -0.8184 -1.4640  0.7406
 4029TIP3   OH212050   3.673   0.386  -0.007  0.4122  0.1290 -0.6088
 4029TIP3    H112051   3.655   0.469   0.036  1.8032 -0.1147  0.4839
 4029TIP3    H212052   3.764   0.367   0.012 -0.1230 -2.1356  0.0114
 4030TIP3   OH212053   1.756   3.075   4.437 -0.1367 -0.2213 -0.6502
 4030TIP3    H112054   1.795   2.997   4.395  2.3634  0.9115 -0.6005
 4030TIP3    H212055   1.706   3.116   4.367 -0.8330 -1.4235 -0.8942
 4031TIP3   OH212056   7.183   3.982   5.274 -0.1861 -0.2467 -0.3814
 4031TIP3    H112057   7.225   3.924   5.337  0.2308  0.4916  0.0382
 4031TIP3    H212058   7.190   4.069   5.313 -1.0235  0.0563 -0.8785
 4032TIP3   OH212059   6.977   4.064   3.697 -0.0397  0.2846 -0.3884
 4032TIP3    H112060   7.035   4.072   3.773 -0.8182  2.5037  0.0461
 4032TIP3    H212061   6.899   4.021   3.731  1.2106 -2.7645 -0.9863
 4033TIP3   OH212062   2.128   5.312   2.186  0.5273 -0.1255  0.4391
 4033TIP3    H112063   2.067   5.363   2.134 -1.4378 -1.8700  0.8541
 4033TIP3    H212064   2.215   5.341   2.159 -0.4628  1.1706 -1.5339
 4034TIP3   OH212065   1.188   5.531   0.349  0.5265 -0.3328 -0.3713
 4034TIP3    H112066   1.241   5.574   0.416 -0.1631  0.5144 -0.3571
 4034TIP3    H212067   1.201   5.437   0.365  0.1999 -0.1575  1.0907
 4035TIP3   OH212068   0.080   2.033   4.443  0.2424 -0.8197 -0.4953
 4035TIP3    H112069   0.135   2.079   4.507 -0.9108 -2.1594  1.5407
 4035TIP3    H212070   0.110   2.067   4.359  1.0304  1.9175  0.7515
 4036TIP3   OH212071   0.180   6.685   1.302  0.4446 -0.2033 -0.0369
 4036TIP3    H112072   0.149   6.774   1.291  0.4893 -0.4612 -3.0319
 4036TIP3    H212073   0.249   6.692   1.368  0.3421  1.9455 -0.0795
 4037TIP3   OH212074   6.262   2.534   0.498 -0.2340 -0.7536 -0.4787
 4037TIP3    H112075   6.345   2.566   0.462 -0.2763 -0.7224 -0.5478
 4037TIP3    H212076   6.258   2.442   0.473 -0.6517 -0.5269 -1.2626
 4038TIP3   OH212077   4.803   4.933   4.816  0.1910 -0.0068  0.1742
 4038TIP3    H112078   4.894   4.949   4.843 -0.0159 -1.1442  1.6461
 4038TIP3    H212079   4.783   5.006   4.757  2.5623 -0.5709 -1.4698
 4039TIP3   OH212080   3.728   0.399   2.387  0.0805  0.6954  0.4855
 4039TIP3    H112081   3.771   0.342   2.450 -1.1961  1.8886  2.5341
 4039TIP3    H212082   3.655   0.439   2.435  0.8390  4.0096 -0.8015
 4040TIP3   OH212083   4.020   0.681   4.938 -0.0939  0.6719 -0.3464
 4040TIP3    H112084   4.080   0.713   4.870  0.6102  0.9189  0.3788
 4040TIP3    H212085   3.934   0.682   4.896  0.4583 -0.1407 -1.5629
 4041TIP3   OH212086   0.182   4.270   3.491  0.3119  0.6820  0.1257
 4041TIP3    H112087   0.097   4.230   3.475  0.1805  0.5912  1.0069
 4041TIP3    H212088   0.164   4.364   3.496 -0.0526  0.5467  2.0882
 4042TIP3   OH212089   3.680   5.355   0.451 -0.2995 -0.0158 -0.1130
 4042TIP3    H112090   3.584   5.349   0.451 -0.5158  2.2331  1.1572
 4042TIP3    H212091   3.708   5.296   0.521 -1.0662  1.6717  1.7241
 4043TIP3   OH212092   2.922   6.371   3.926  0.4974  0.4665 -0.1671
 4043TIP3    H112093   2.851   6.348   3.865 -0.4799  0.6231  0.8897
 4043TIP3    H212094   2.952   6.287   3.961  0.2605  0.4561  0.0126
 4044TIP3   OH212095   5.207   4.461   3.910  0.0578 -0.7465  0.4732
 4044TIP3    H112096   5.183   4.462   3.818  0.3975  0.7513  0.3675
 4044TIP3    H212097   5.280   4.522   3.916  0.7820 -1.6816  1.5566
 4045TIP3   OH212098   1.081   1.864   4.641  0.1741 -0.2117 -0.0345
 4045TIP3    H112099   1.147   1.851   4.573  1.3085  0.2837  0.9584
 4045TIP3    H212100   1.034   1.943   4.614  0.2031 -0.3672 -0.5524
 4046TIP3   OH212101   2.127   2.615   5.658  0.3522 -1.3266 -0.2625
 4046TIP3    H112102   2.132   2.574   5.571  1.0532 -0.6639 -0.5377
 4046TIP3    H212103   2.125   2.709   5.640  1.7594 -1.1354  0.4808
 4047TIP3   OH212104   7.017   2.057   4.396  0.3816 -0.4604 -0.6457
 4047TIP3    H112105   6.963   1.979   4.411  1.1934 -0.7058  1.4137
 4047TIP3    H212106   7.107   2.023   4.395  0.8364  0.5275  1.4195
 4048TIP3   OH212107   3.849   6.328   4.435  0.2230  0.9321 -0.0185
 4048TIP3    H112108   3.770   6.318   4.488 -0.7506  2.7642 -1.0359
 4048TIP3    H212109   3.918   6.346   4.498 -0.0532 -1.0643  0.9198
 4049TIP3   OH212110   1.124   4.115   0.209 -0.0633  0.2522  0.7989
 4049TIP3    H112111   1.034   4.092   0.232  0.1807  0.8947  2.5734
 4049TIP3    H212112   1.174   4.096   0.288  1.2155  0.7638  0.1421
 4050TIP3   OH212113   4.911   6.322   1.961 -0.2645 -0.3554 -0.0809
 4050TIP3    H112114   4.955   6.355   1.883 -1.3742  0.5791 -0.3379
 4050TIP3    H212115   4.943   6.377   2.032 -0.8011  0.1433 -0.2222
 4051TIP3   OH212116   2.089   2.564   2.216 -0.5445 -0.0563 -0.1888
 4051TIP3    H112117   2.045   2.598   2.139 -1.4045  0.1181  0.3671
 4051TIP3    H212118   2.057   2.474   2.225  0.3249 -0.4198 -0.6029
 4052TIP3   OH212119   3.712   4.481   2.257 -0.2383  0.0994  0.1208
 4052TIP3    H112120   3.677   4.541   2.190 -1.5354 -0.9704 -0.1947
 4052TIP3    H212121   3.793   4.448   2.218  0.3911  1.4527  0.2070
 4053TIP3   OH212122   5.627   0.279   2.160 -0.8499  0.7429  0.1843
 4053TIP3    H112123   5.711   0.313   2.128 -1.5112  0.4862 -1.9743
 4053TIP3    H212124   5.644   0.257   2.252  1.3295  1.0822 -0.0749
 4054TIP3   OH212125   4.822   0.497   0.990 -0.2853 -0.4988 -0.0679
 4054TIP3    H112126   4.900   0.553   0.996 -0.0948 -0.7866  0.1404
 4054TIP3    H212127   4.812   0.460   1.077 -1.4250  0.5509  0.2670
 4055TIP3   OH212128   3.926   5.714   4.729 -0.4797  0.2825  0.0409
 4055TIP3    H112129   3.979   5.643   4.767  1.7952  1.4921 -0.6519
 4055TIP3    H212130   3.915   5.776   4.801 -1.9699 -0.4671  0.4879
 4056TIP3   OH212131   0.650   1.607   3.694  0.2967  0.3103  0.1063
 4056TIP3    H112132   0.604   1.592   3.776  0.2233  0.5566  0.1115
 4056TIP3    H212133   0.682   1.697   3.701  1.1043  0.0218  0.2637
 4057TIP3   OH212134   5.519   0.571   3.433 -0.1663 -0.1211 -0.0901
 4057TIP3    H112135   5.435   0.573   3.479  0.3029  0.8037  0.7423
 4057TIP3    H212136   5.533   0.660   3.402  1.6488  0.3567  1.9076
 4058TIP3   OH212137   3.135   1.614   5.052 -0.1596 -0.1230  0.1480
 4058TIP3    H112138   3.073   1.679   5.085 -1.5653 -1.5405  0.3746
 4058TIP3    H212139   3.081   1.540   5.024  1.2805 -0.6073 -1.5866
 4059TIP3   OH212140   1.195   6.214   4.698 -0.2041  0.4289 -0.3707
 4059TIP3    H112141   1.243   6.180   4.622  0.0625  1.5936 -0.7357
 4059TIP3    H212142   1.138   6.141   4.724 -0.5011  0.0826 -1.8542
 4060TIP3   OH212143   5.069   2.015   0.045 -0.2801 -0.2868  1.1220
 4060TIP3    H112144   5.037   1.952  -0.019  0.9874  1.0374 -0.9252
 4060TIP3    H212145   4.995   2.028   0.105 -1.6875 -1.2317 -0.3291
 4061TIP3   OH212146   3.600   0.894   2.032  0.1762 -0.6378 -0.2162
 4061TIP3    H112147   3.681   0.895   2.082  0.1337  0.8728 -0.1306
 4061TIP3    H212148   3.566   0.805   2.042  0.2928 -0.4698  2.2494
 4062TIP3   OH212149   7.051   3.562   2.227 -0.2709  0.3641 -0.0081
 4062TIP3    H112150   7.137   3.566   2.183 -0.0277  2.3684  0.5246
 4062TIP3    H212151   7.072   3.566   2.320 -0.9369  2.1570  0.1037
 4063TIP3   OH212152   2.331   5.956   1.302  0.0198 -0.1881  0.1485
 4063TIP3    H112153   2.365   5.867   1.307  0.9686  0.1987  0.7927
 4063TIP3    H212154   2.369   5.991   1.221 -1.9507 -0.9812 -1.2129
 4064TIP3   OH212155   4.534   5.988   3.949 -0.2505  0.6069  0.1218
 4064TIP3    H112156   4.605   6.051   3.934  0.4111 -0.1794 -0.0810
 4064TIP3    H212157   4.526   5.983   4.044 -0.0466  0.7085  0.1439
 4065TIP3   OH212158   6.467   4.489   3.856 -0.3181  0.1520 -0.3324
 4065TIP3    H112159   6.407   4.414   3.858  0.7922 -0.7498  1.2702
 4065TIP3    H212160   6.413   4.563   3.882 -0.9058 -0.5300  0.4581
 4066TIP3   OH212161   3.498   4.066   0.854 -0.0892 -0.6204 -0.3390
 4066TIP3    H112162   3.565   4.111   0.801  2.2944 -3.6038 -0.1171
 4066TIP3    H212163   3.529   4.075   0.944  0.0775 -2.0571 -0.2312
 4067TIP3   OH212164   1.232   2.243   1.616  0.2135 -0.6172  0.2459
 4067TIP3    H112165   1.211   2.312   1.679  0.0507 -0.6349  0.2113
 4067TIP3    H212166   1.319   2.265   1.584 -0.2112  0.0727 -0.4519
 4068TIP3   OH212167   5.365   4.455   0.746  0.0658 -0.3552 -0.4100
 4068TIP3    H112168   5.417   4.523   0.789 -1.7578  0.0747  1.2515
 4068TIP3    H212169   5.355   4.486   0.656  0.2861  0.9966  0.0114
 4069TIP3   OH212170   1.648   4.323   5.350 -0.0751 -0.2620 -0.3317
 4069TIP3    H112171   1.618   4.246   5.303  0.5017 -1.2239  0.8143
 4069TIP3    H212172   1.730   4.296   5.392  0.9088  1.4132 -1.0466
 4070TIP3   OH212173   6.864   1.693   5.543 -0.7670  0.2154  0.0641
 4070TIP3    H112174   6.938   1.648   5.583  0.3624  1.1299 -0.9101
 4070TIP3    H212175   6.863   1.663   5.452 -1.0700  0.8301 -0.1480
 4071TIP3   OH212176   0.859   3.231   2.159 -0.1970  0.0232 -0.3986
 4071TIP3    H112177   0.813   3.191   2.085  0.8423 -0.8335 -0.6049
 4071TIP3    H212178   0.899   3.310   2.122  0.7975 -0.7061 -0.9058
 4072TIP3   OH212179   5.734   4.507   1.057  0.3972 -0.0806 -0.0377
 4072TIP3    H112180   5.669   4.455   1.011 -0.4919 -0.9592  2.0669
 4072TIP3    H212181   5.792   4.443   1.099  0.4698  0.6256  0.9869
 4073TIP3   OH212182   5.573   4.544   3.845 -0.0625  0.1374 -0.4262
 4073TIP3    H112183   5.519   4.524   3.769  0.9676  2.5012 -1.9406
 4073TIP3    H212184   5.573   4.640   3.849  2.6939  0.1942  0.4081
 4074TIP3   OH212185   3.602   0.415   3.060 -0.6218 -0.0371  0.1289
 4074TIP3    H112186   3.560   0.474   3.123  1.9288  2.2686 -0.1453
 4074TIP3    H212187   3.685   0.390   3.102 -0.3990 -1.1995 -0.9366
 4075TIP3   OH212188   1.132   0.543   4.543 -0.4802  0.7058 -0.5619
 4075TIP3    H112189   1.076   0.481   4.589  0.2138  1.9991  2.2606
 4075TIP3    H212190   1.186   0.489   4.486 -0.5564 -1.1943  1.0721
 4076TIP3   OH212191   4.838   0.023   5.247  0.3736  0.2834  0.1220
 4076TIP3    H112192   4.759   0.052   5.202 -1.1180 -2.2352  0.9256
 4076TIP3    H212193   4.904   0.016   5.178 -1.1766 -1.1568 -1.3149
 4077TIP3   OH212194   4.249   5.457   1.750  0.0713 -0.0062  0.2631
 4077TIP3    H112195   4.282   5.413   1.671  0.2612 -0.6739  0.7073
 4077TIP3    H212196   4.177   5.402   1.779  0.1768  0.0901  0.7077
 4078TIP3   OH212197   3.467   2.774   2.777 -0.0531 -0.5904  0.0462
 4078TIP3    H112198   3.378   2.777   2.813  0.0715  0.6028  0.2785
 4078TIP3    H212199   3.454   2.769   2.682 -0.3675 -1.6768  0.1371
 4079TIP3   OH212200   3.283   4.584   2.127 -0.2369  0.8165  0.1676
 4079TIP3    H112201   3.356   4.536   2.087  1.9976  2.8197  1.5117
 4079TIP3    H212202   3.285   4.558   2.219 -1.0393  1.1077  0.2747
 4080TIP3   OH212203   5.649   6.039   2.883  0.5180 -0.3235 -0.4724
 4080TIP3    H112204   5.713   5.968   2.879 -0.6364 -1.7297  2.7831
 4080TIP3    H212205   5.688   6.104   2.942 -0.5472 -0.7043  0.6939
 4081TIP3   OH212206   2.706   0.609   0.879 -0.3819 -0.4240 -0.3824
 4081TIP3    H112207   2.728   0.695   0.915  0.3088 -0.9330  0.4593
 4081TIP3    H212208   2.746   0.609   0.792  2.0296 -0.8499  0.6312
 4082TIP3   OH212209   3.511   2.170   2.140  0.1237  0.4175  0.0367
 4082TIP3    H112210   3.563   2.241   2.177 -0.0708  0.4259  0.2979
 4082TIP3    H212211   3.505   2.190   2.047 -1.1779  1.5468  0.3226
 4083TIP3   OH212212   7.088   5.290   4.615  0.2131  0.7908 -0.7382
 4083TIP3    H112213   7.180   5.312   4.600  1.0933 -1.8836  0.0030
 4083TIP3    H212214   7.065   5.336   4.695  1.1155  1.0438 -0.6073
 4084TIP3   OH212215   0.366   2.265   3.372 -0.2489  0.0462 -0.2207
 4084TIP3    H112216   0.438   2.204   3.390  1.9397  2.3345 -0.6248
 4084TIP3    H212217   0.368   2.326   3.445 -2.5280 -0.3847  0.2796
 4085TIP3   OH212218   1.771   1.489   3.888  0.7194  0.2600 -0.1968
 4085TIP3    H112219   1.854   1.519   3.851  0.8453  0.6998  0.4187
 4085TIP3    H212220   1.705   1.519   3.826  1.0879 -1.1122 -1.3053
 4086TIP3   OH212221   3.807   2.909   2.143 -0.2826  0.1138 -0.2675
 4086TIP3    H112222   3.895   2.878   2.164 -0.8236 -0.1754  1.7334
 4086TIP3    H212223   3.809   3.003   2.161 -0.6393 -0.0677  0.7981
 4087TIP3   OH212224   2.510   1.902   5.027  0.4025 -0.5094  0.0719
 4087TIP3    H112225   2.500   1.855   5.110  1.5840 -1.6841 -0.4054
 4087TIP3    H212226   2.442   1.969   5.028  0.0332 -0.8803  1.7307
 4088TIP3   OH212227   2.750   0.341   2.512  0.1972  0.4473  0.0224
 4088TIP3    H112228   2.828   0.304   2.555 -0.2191  0.9523  1.2362
 4088TIP3    H212229   2.776   0.350   2.421  1.0828 -0.7191  0.1248
 4089TIP3   OH212230   6.910   6.309   2.766  0.8524 -0.2217  0.3180
 4089TIP3    H112231   6.824   6.313   2.808  1.8006 -1.2823  2.5323
 4089TIP3    H212232   6.904   6.235   2.705 -0.1071  0.3956 -0.3549
 4090TIP3   OH212233   4.135   5.265   3.115 -0.0311  0.2040 -0.0783
 4090TIP3    H112234   4.219   5.226   3.142  1.0991  1.2812 -1.8253
 4090TIP3    H212235   4.094   5.293   3.197  2.4461  1.8067  0.7466
 4091TIP3   OH212236   6.787   4.902   0.413  0.4316 -0.3889 -0.3948
 4091TIP3    H112237   6.760   4.863   0.330 -0.3166 -0.6790 -0.0278
 4091TIP3    H212238   6.774   4.996   0.402  1.9389 -0.2371 -1.1748
 4092TIP3   OH212239   3.765   6.626   4.640 -0.4812  0.2737  0.0116
 4092TIP3    H112240   3.709   6.550   4.625  0.1834 -0.3779  0.7376
 4092TIP3    H212241   3.705   6.700   4.640 -1.2338 -0.3194 -0.0122
 4093TIP3   OH212242   2.354   3.917   3.269  0.2094  0.1088  0.7054
 4093TIP3    H112243   2.335   3.825   3.282 -0.9102  0.3923  1.1815
 4093TIP3    H212244   2.433   3.918   3.213 -0.6784 -1.1236 -0.6387
 4094TIP3   OH212245   0.873   5.425   4.620  0.2986 -0.3456 -0.0248
 4094TIP3    H112246   0.917   5.408   4.704 -2.5589  0.9465  1.8835
 4094TIP3    H212247   0.838   5.339   4.594  1.4848 -0.8219 -0.1420
 4095TIP3   OH212248   3.832   1.475   1.738  0.1144  0.2025 -0.3776
 4095TIP3    H112249   3.863   1.505   1.652  2.4753  0.3473  0.4579
 4095TIP3    H212250   3.742   1.507   1.743  0.4033  1.4879 -2.1949
 4096TIP3   OH212251   0.589   3.371   5.293  0.4277  0.5757 -0.0299
 4096TIP3    H112252   0.508   3.378   5.344  0.3890 -0.0791  0.0046
 4096TIP3    H212253   0.596   3.455   5.248 -0.0533  0.7927  0.2913
 4097TIP3   OH212254   6.090   3.422   1.097  0.2050 -0.6480  0.1102
 4097TIP3    H112255   6.154   3.356   1.122  1.4352 -0.6873 -2.7966
 4097TIP3    H212256   6.135   3.506   1.112 -0.7127 -0.4561  2.1171
 4098TIP3   OH212257   0.029   1.753   3.360 -0.0680 -0.4644 -0.4273
 4098TIP3    H112258   0.008   1.836   3.402 -1.2475 -0.0104 -1.8405
 4098TIP3    H212259   0.038   1.775   3.267 -4.1008 -2.4265 -1.4943
 4099TIP3   OH212260   1.736   5.707   5.391 -0.1384 -0.2353  0.5362
 4099TIP3    H112261   1.760   5.721   5.482  1.4548 -1.8893  0.4284
 4099TIP3    H212262   1.816   5.727   5.342  0.9897 -4.8113  0.0601
 4100TIP3   OH212263   5.227   6.001   1.635 -0.4293  0.7214  0.3837
 4100TIP3    H112264   5.290   6.059   1.593 -1.0965  0.5017 -0.9689
 4100TIP3    H212265   5.279   5.950   1.697  1.1592 -0.8946 -2.0882
 4101TIP3   OH212266   3.193   5.113   0.320  0.0949  0.3787  0.0141
 4101TIP3    H112267   3.198   5.021   0.345 -1.0925  0.4095  0.4717
 4101TIP3    H212268   3.178   5.159   0.403 -1.7945  0.7101 -0.4504
 4102TIP3   OH212269   0.097   4.141   1.953 -0.2447 -0.1649  0.5597
 4102TIP3    H112270   0.185   4.162   1.983 -0.0741 -1.9086  1.3687
 4102TIP3    H212271   0.109   4.116   1.861 -0.0432  0.4262  0.4173
 4103TIP3   OH212272   5.656   5.959   3.399  0.0529  0.2780  0.0797
 4103TIP3    H112273   5.672   6.042   3.444  0.4433  0.5694 -0.5880
 4103TIP3    H212274   5.563   5.962   3.376  0.3260  1.0915 -1.0295
 4104TIP3   OH212275   0.634   4.852   0.479  0.5494  0.0930  0.2778
 4104TIP3    H112276   0.627   4.855   0.384  0.3392  2.6717  0.2982
 4104TIP3    H212277   0.554   4.895   0.511  0.2914 -1.3205  1.6680
 4105TIP3   OH212278   6.570   1.310   5.596  0.1598 -0.1903  0.0421
 4105TIP3    H112279   6.529   1.386   5.637  0.0418 -0.0997 -0.2359
 4105TIP3    H212280   6.515   1.292   5.519  0.0219 -0.7349  0.2675
 4106TIP3   OH212281   3.417   0.212   1.736 -0.0100 -0.5653  0.0820
 4106TIP3    H112282   3.400   0.170   1.820  0.0080  1.2235  1.0220
 4106TIP3    H212283   3.330   0.227   1.698 -0.0415 -0.7952  0.0592
 4107TIP3   OH212284   6.290   0.069   3.001  0.0004  0.2150 -0.6942
 4107TIP3    H112285   6.228   0.039   2.935  0.2517 -0.1141 -0.7843
 4107TIP3    H212286   6.293  -0.002   3.066  1.9512 -0.8348 -1.8168
 4108TIP3   OH212287   5.563   3.185   0.696  0.3477 -0.2555 -0.6765
 4108TIP3    H112288   5.597   3.225   0.777 -0.6097  0.4939 -0.6295
 4108TIP3    H212289   5.637   3.190   0.635  0.6594  0.4036 -0.2629
 4109TIP3   OH212290   2.153   6.452   5.480 -0.0921 -0.3410  0.4636
 4109TIP3    H112291   2.062   6.448   5.449  0.1798  1.9558 -0.9323
 4109TIP3    H212292   2.153   6.402   5.561 -2.1553 -2.0321 -0.4736
 4110TIP3   OH212293   6.367   4.343   2.589 -0.6266 -0.4098  0.3135
 4110TIP3    H112294   6.304   4.415   2.591 -2.7197 -2.1202  0.1863
 4110TIP3    H212295   6.328   4.279   2.528  1.6221 -1.2524 -0.3337
 4111TIP3   OH212296   4.846   0.901   4.352 -0.6021 -0.0450  0.1220
 4111TIP3    H112297   4.849   0.940   4.439 -2.9127 -0.8604  0.6272
 4111TIP3    H212298   4.753   0.895   4.331 -0.1390 -0.9267 -1.9323
 4112TIP3   OH212299   3.030   4.319   5.520 -0.6157  0.5800 -0.1290
 4112TIP3    H112300   3.012   4.320   5.614  0.9708  1.2278  0.1998
 4112TIP3    H212301   3.005   4.231   5.491 -0.6890  0.2264  0.9869
 4113TIP3   OH212302   5.993   3.091   0.080  0.0449 -0.5232 -0.0786
 4113TIP3    H112303   6.006   3.185   0.074  0.4591 -0.5998 -0.3653
 4113TIP3    H212304   5.993   3.060  -0.010  1.0218 -0.9462  0.0566
 4114TIP3   OH212305   3.051   4.534   3.044 -0.7347  0.1538  0.3086
 4114TIP3    H112306   2.980   4.470   3.034 -0.9296  0.4211 -0.0283
 4114TIP3    H212307   3.006   4.617   3.060 -0.4732 -0.0929  2.6713
 4115TIP3   OH212308   5.236   4.966   2.381 -0.1406 -0.2024 -0.9027
 4115TIP3    H112309   5.185   4.894   2.343 -0.3843  0.2226 -1.3959
 4115TIP3    H212310   5.191   5.045   2.352  1.3996  0.2255 -2.2611
 4116TIP3   OH212311   3.539   0.820   5.833  0.0825  0.7620 -0.3524
 4116TIP3    H112312   3.609   0.779   5.781 -0.8475  0.0265 -1.0633
 4116TIP3    H212313   3.490   0.746   5.869  0.0509  1.2759  0.6781
 4117TIP3   OH212314   5.898   2.810   1.316 -0.4965 -0.0605 -0.2354
 4117TIP3    H112315   5.903   2.894   1.361  0.5641 -0.5171  0.5349
 4117TIP3    H212316   5.828   2.762   1.360 -1.4967  0.6028 -1.0448
 4118TIP3   OH212317   5.424   5.309   5.250 -0.0909 -0.4324 -0.5110
 4118TIP3    H112318   5.422   5.213   5.249  1.8390 -0.5439 -1.9404
 4118TIP3    H212319   5.488   5.331   5.317 -0.9636 -0.1038  0.2235
 4119TIP3   OH212320   2.718   1.331   1.558 -0.5801  0.0867 -0.2542
 4119TIP3    H112321   2.732   1.320   1.652 -2.9536  0.5331  0.2073
 4119TIP3    H212322   2.732   1.425   1.543 -3.5771  0.7342  0.3959
 4120TIP3   OH212323   2.463   5.815   5.732 -0.4729 -0.2724 -0.0222
 4120TIP3    H112324   2.444   5.763   5.810 -0.4571  0.2122  0.3093
 4120TIP3    H212325   2.400   5.887   5.735 -0.6138 -0.3687 -0.5739
 4121TIP3   OH212326   4.945   3.783   1.421 -0.8310 -0.4828  0.2696
 4121TIP3    H112327   4.928   3.778   1.515 -0.5891  0.5104  0.3813
 4121TIP3    H212328   5.031   3.744   1.409 -0.3396  0.4423  0.6468
 4122TIP3   OH212329   6.691   2.348   1.759  0.4835 -0.1686 -0.1043
 4122TIP3    H112330   6.757   2.353   1.689  2.2656  1.3847  1.5523
 4122TIP3    H212331   6.661   2.438   1.770 -0.5860 -0.5735  0.4094
 4123TIP3   OH212332   1.459   1.990   1.277  0.2982 -0.0281  0.0110
 4123TIP3    H112333   1.552   1.970   1.271  0.5681  1.3991 -1.0510
 4123TIP3    H212334   1.436   2.026   1.192 -0.6777  1.7975  0.9830
 4124TIP3   OH212335   4.032   6.686   0.459 -0.1895  0.0376 -0.3859
 4124TIP3    H112336   4.103   6.697   0.523 -1.4353 -0.7579  1.2068
 4124TIP3    H212337   4.018   6.774   0.424 -0.3000  0.7768  1.3943
 4125TIP3   OH212338   5.034   0.360   4.729  0.2362 -0.4635 -0.1984
 4125TIP3    H112339   4.981   0.307   4.789 -0.4515  1.1877  0.7082
 4125TIP3    H212340   4.983   0.439   4.715  0.9907 -0.2573 -1.9751
 4126TIP3   OH212341   3.244   3.894   3.358 -0.0281 -0.1938 -0.0500
 4126TIP3    H112342   3.202   3.881   3.443 -0.3816  1.3977  0.0445
 4126TIP3    H212343   3.193   3.839   3.298 -1.5110  0.7409  0.2977
 4127TIP3   OH212344   2.302   5.834   2.743 -1.0823  0.2607  0.5543
 4127TIP3    H112345   2.255   5.798   2.668  1.3988  0.1054 -1.0285
 4127TIP3    H212346   2.314   5.759   2.802  2.4834 -1.3746 -1.9012
 4128TIP3   OH212347   0.830   3.036   0.597  0.2301 -0.0619  0.2235
 4128TIP3    H112348   0.742   3.064   0.621 -0.6927 -2.5425  0.0774
 4128TIP3    H212349   0.881   3.047   0.677 -1.1008 -1.7763  1.3812
 4129TIP3   OH212350   1.124   4.539   2.203  0.4197 -1.0385 -0.1809
 4129TIP3    H112351   1.042   4.509   2.242 -1.0354  2.5398 -0.1397
 4129TIP3    H212352   1.176   4.570   2.277 -0.6598  1.9308 -0.5172
 4130TIP3   OH212353   5.287   6.258   0.841  0.0593  1.0049  0.0475
 4130TIP3    H112354   5.216   6.219   0.893  0.6803  1.6540  1.4293
 4130TIP3    H212355   5.249   6.267   0.754 -1.0032 -0.1732  0.3381
 4131TIP3   OH212356   1.868   5.662   5.128 -0.3397  0.4891  0.3182
 4131TIP3    H112357   1.956   5.629   5.110 -0.5902 -1.0746  1.7447
 4131TIP3    H212358   1.873   5.755   5.106  0.8351 -0.0840 -2.3668
 4132TIP3   OH212359   6.768   6.357   3.139 -0.3871 -0.1848  0.0201
 4132TIP3    H112360   6.716   6.366   3.060 -0.0524 -0.9976 -0.2954
 4132TIP3    H212361   6.713   6.395   3.208 -1.0336 -0.2564 -0.4478
 4133TIP3   OH212362   6.652   1.611   3.658 -0.1676 -0.5792  0.5385
 4133TIP3    H112363   6.698   1.536   3.620 -1.5184 -1.6858  1.0179
 4133TIP3    H212364   6.633   1.584   3.748  1.3447  1.2681  1.5029
 4134TIP3   OH212365   6.836   0.539   2.299  0.2851  0.3154  0.3638
 4134TIP3    H112366   6.903   0.512   2.236  0.3050 -0.7141  0.8138
 4134TIP3    H212367   6.885   0.582   2.369  0.0563  5.4983 -2.1070
 4135TIP3   OH212368   5.671   6.662   5.347  0.2131 -0.0867  0.3042
 4135TIP3    H112369   5.586   6.623   5.328 -1.2818  0.7064  4.2912
 4135TIP3    H212370   5.720   6.593   5.391  1.5278 -0.3615 -1.4769
 4136TIP3   OH212371   6.908   5.721   5.275  0.5489  0.0858 -0.3183
 4136TIP3    H112372   6.884   5.658   5.343 -0.8940  1.7826  0.8213
 4136TIP3    H212373   6.826   5.742   5.231  0.9058  1.5215 -0.3466
 4137TIP3   OH212374   3.082   6.610   5.161 -0.4809 -0.1898  0.0148
 4137TIP3    H112375   2.988   6.625   5.168 -0.4841  0.6724 -1.3396
 4137TIP3    H212376   3.096   6.587   5.069  0.7792  1.1392 -0.1780
 4138TIP3   OH212377   5.480   1.689   4.905 -0.0370 -0.2790 -0.2526
 4138TIP3    H112378   5.554   1.693   4.845  1.8583  0.1143  1.9454
 4138TIP3    H212379   5.457   1.781   4.921 -0.3983 -0.3702 -0.2399
 4139TIP3   OH212380   2.818   1.128   2.901  0.3851 -0.6184  0.5510
 4139TIP3    H112381   2.880   1.194   2.931  0.2697  0.5846 -1.6787
 4139TIP3    H212382   2.740   1.143   2.953  0.9734 -0.1933  1.3298
 4140TIP3   OH212383   3.159   5.522   2.697 -0.3045  0.2276 -0.2437
 4140TIP3    H112384   3.224   5.462   2.659  0.9054  0.4813  1.2996
 4140TIP3    H212385   3.156   5.596   2.637 -0.5587 -0.6171 -1.2948
 4141TIP3   OH212386   1.206   1.156   0.697 -0.2773  0.2854  0.0322
 4141TIP3    H112387   1.166   1.242   0.683 -2.6420 -0.3501  1.9930
 4141TIP3    H212388   1.172   1.102   0.625  0.6831  0.8020 -0.8279
 4142TIP3   OH212389   5.868   0.812   3.150 -0.0810 -0.0741 -0.2255
 4142TIP3    H112390   5.893   0.866   3.075 -0.2160 -0.8252 -0.8209
 4142TIP3    H212391   5.818   0.871   3.206  0.7862  0.7358 -0.2825
 4143TIP3   OH212392   6.321   0.324   5.533 -0.0117  0.3004 -0.8005
 4143TIP3    H112393   6.293   0.329   5.625  1.1275  0.4106 -0.4372
 4143TIP3    H212394   6.329   0.415   5.506  0.8316  0.2927 -0.6132
 4144TIP3   OH212395   5.338   0.451   4.221  0.0737 -0.0913  0.0694
 4144TIP3    H112396   5.333   0.429   4.128  1.5888 -0.3978  0.0236
 4144TIP3    H212397   5.397   0.385   4.258 -0.1543  0.2928  1.1554
 4145TIP3   OH212398   1.554   0.262   5.511  0.5372 -0.5305  0.0318
 4145TIP3    H112399   1.604   0.241   5.590  2.8487 -1.0270 -1.4561
 4145TIP3    H212400   1.578   0.353   5.492 -1.2590  0.1261  0.7154
 4146TIP3   OH212401   0.424   2.031   1.202 -0.2692  0.1402 -0.3590
 4146TIP3    H112402   0.381   2.005   1.283  0.9584 -1.0465 -0.0305
 4146TIP3    H212403   0.518   2.030   1.223  0.0737 -0.1080 -1.7540
 4147TIP3   OH212404   6.481   6.318   4.353 -0.1189  0.2360  0.0160
 4147TIP3    H112405   6.484   6.227   4.325  0.8113  0.1788  0.2591
 4147TIP3    H212406   6.460   6.367   4.274  1.1767 -0.0380 -0.5230
 4148TIP3   OH212407   3.851   0.572   3.117  0.8027  0.4580 -0.0518
 4148TIP3    H112408   3.903   0.582   3.037  1.9503 -0.7712  0.5061
 4148TIP3    H212409   3.909   0.526   3.178 -0.3937  0.4920  1.1628
 4149TIP3   OH212410   4.521   2.119   0.402  0.2777 -0.2829  0.5824
 4149TIP3    H112411   4.441   2.172   0.397  0.7678  0.3719 -0.7208
 4149TIP3    H212412   4.586   2.177   0.441  0.9582  0.3075 -1.3354
 4150TIP3   OH212413   5.874   3.860   1.946 -0.1356 -0.5075 -0.1324
 4150TIP3    H112414   5.943   3.836   1.885  0.7361  1.3589  0.0403
 4150TIP3    H212415   5.919   3.878   2.028 -0.5504  2.2558 -0.4177
 4151TIP3   OH212416   1.108   2.426   5.698 -0.4820  0.1523 -0.2010
 4151TIP3    H112417   1.050   2.381   5.637  1.3663 -1.1550 -1.1232
 4151TIP3    H212418   1.102   2.375   5.779 -1.0938  0.4140 -0.0797
 4152TIP3   OH212419   5.725   3.060   0.131  0.4852  0.0827  0.2643
 4152TIP3    H112420   5.752   3.150   0.113 -0.3244  0.5729  1.4120
 4152TIP3    H212421   5.808   3.013   0.144  0.9053  0.6873 -0.1489
 4153TIP3   OH212422   0.031   2.811   2.105 -0.2100  0.7171 -0.5906
 4153TIP3    H112423   0.079   2.743   2.151  0.8957  1.3331 -0.7908
 4153TIP3    H212424   0.071   2.814   2.017  0.5578  2.3558 -0.2327
 4154TIP3   OH212425   3.114   0.066   5.290 -0.3514  0.6951 -0.4280
 4154TIP3    H112426   3.063   0.110   5.358  0.2502 -0.1716  0.6247
 4154TIP3    H212427   3.050   0.013   5.243 -0.3795 -1.0782  1.4416
 4155TIP3   OH212428   3.789   2.393   4.677  0.1993  0.1054  0.5160
 4155TIP3    H112429   3.793   2.368   4.585  2.3842 -2.2144  1.1308
 4155TIP3    H212430   3.863   2.453   4.689 -0.1517  0.4982  0.7560
 4156TIP3   OH212431   3.861   0.652   2.028 -0.6922  0.1704 -0.4683
 4156TIP3    H112432   3.869   0.703   2.109 -0.4501  0.6807 -0.8070
 4156TIP3    H212433   3.767   0.640   2.016 -0.8244  1.5083 -0.9620
 4157TIP3   OH212434   1.302   3.373   1.458  0.1262 -0.1019 -0.2037
 4157TIP3    H112435   1.278   3.372   1.551  0.5259  2.0260 -0.0288
 4157TIP3    H212436   1.219   3.388   1.412 -0.3975 -3.0711 -0.4006
 4158TIP3   OH212437   3.949   1.180   1.347 -0.4128  0.1086  0.1712
 4158TIP3    H112438   3.972   1.192   1.439 -0.9527  1.2486  0.1725
 4158TIP3    H212439   3.853   1.174   1.346 -0.3318 -1.8502 -0.1275
 4159TIP3   OH212440   5.471   3.857   1.488  0.2461  0.1911 -0.1063
 4159TIP3    H112441   5.488   3.806   1.409 -0.0400 -1.0305  0.5897
 4159TIP3    H212442   5.530   3.932   1.481  1.2513 -0.6281 -0.8076
 4160TIP3   OH212443   2.928   5.042   2.703  0.6504  0.3682 -0.7558
 4160TIP3    H112444   2.890   5.077   2.783  0.6827  1.9963 -1.4244
 4160TIP3    H212445   2.852   5.025   2.646  0.7363  0.9060 -1.0336
 4161TIP3   OH212446   5.684   0.493   1.817 -0.4798 -0.0250 -0.4084
 4161TIP3    H112447   5.716   0.509   1.728  0.0596 -2.5188 -0.7199
 4161TIP3    H212448   5.760   0.507   1.873 -0.6849  1.0001 -0.3568
 4162TIP3   OH212449   1.841   4.177   0.159  0.0641 -1.1367 -0.0118
 4162TIP3    H112450   1.894   4.100   0.140  1.0182 -0.7318  0.8720
 4162TIP3    H212451   1.877   4.210   0.242 -1.3140 -0.6133  0.3970
 4163TIP3   OH212452   2.745   4.615   5.429  0.2096  0.1270  0.2980
 4163TIP3    H112453   2.675   4.587   5.370  0.7855  1.0653 -0.8764
 4163TIP3    H212454   2.825   4.583   5.388  0.7351  1.9628 -0.2137
 4164TIP3   OH212455   5.997   5.784   4.077 -0.5853 -0.4690  0.1352
 4164TIP3    H112456   6.013   5.689   4.074 -2.7945 -0.9190  0.1800
 4164TIP3    H212457   6.034   5.812   4.161 -1.3630 -1.6470  0.9116
 4165TIP3   OH212458   0.511   6.060   1.306 -0.3624 -0.6437  0.0427
 4165TIP3    H112459   0.509   6.155   1.316  1.5850 -0.0469 -3.4352
 4165TIP3    H212460   0.601   6.036   1.328 -0.6036 -1.5574  0.0385
 4166TIP3   OH212461   0.147   6.790   3.092 -0.1907  0.0931  0.1658
 4166TIP3    H112462   0.128   6.697   3.088 -0.4671  0.1978 -1.6594
 4166TIP3    H212463   0.240   6.796   3.113 -0.5868 -0.5248  2.3425
 4167TIP3   OH212464   4.638   2.301   4.284  0.3740  0.0721 -0.0335
 4167TIP3    H112465   4.551   2.336   4.266  0.0275 -0.3750  0.7323
 4167TIP3    H212466   4.631   2.207   4.266 -0.0500 -0.4435  2.4516
 4168TIP3   OH212467   5.873   0.355   3.720  0.0675 -0.2566  0.1658
 4168TIP3    H112468   5.809   0.422   3.742  2.8138  2.1632  1.3580
 4168TIP3    H212469   5.858   0.286   3.786  0.1048  1.2729  1.8547
 4169TIP3   OH212470   3.140   2.671   2.516 -0.7459 -0.3209  0.0083
 4169TIP3    H112471   3.153   2.680   2.611 -0.4995  1.9048 -0.1844
 4169TIP3    H212472   3.052   2.705   2.500 -0.0029  1.3304 -0.7766
 4170TIP3   OH212473   1.013   4.161   2.005 -0.3594 -0.1236  0.4055
 4170TIP3    H112474   1.104   4.139   2.025  0.7581  1.5227 -2.3732
 4170TIP3    H212475   1.014   4.254   1.986 -2.6897 -0.0520  0.3546
 4171TIP3   OH212476   0.348   0.462   1.282 -0.2626  0.5234 -0.1100
 4171TIP3    H112477   0.296   0.383   1.298  0.7957 -0.5104 -1.5055
 4171TIP3    H212478   0.291   0.518   1.229  0.3135 -1.0359 -2.5170
 4172TIP3   OH212479   3.069   3.717   5.741  0.0621 -0.0032 -0.0848
 4172TIP3    H112480   3.041   3.630   5.712  1.1064  0.2364 -2.0278
 4172TIP3    H212481   3.018   3.778   5.687 -1.6310  0.7100  2.1612
 4173TIP3   OH212482   1.209   5.088   2.529 -0.1529 -0.2118  0.4953
 4173TIP3    H112483   1.202   5.129   2.442  1.9533 -0.4861  0.1503
 4173TIP3    H212484   1.139   5.022   2.529 -1.2259  0.8629 -0.3489
 4174TIP3   OH212485   2.921   2.723   0.904  0.2534  0.1412 -0.0136
 4174TIP3    H112486   2.909   2.818   0.901  0.6565  0.1748 -1.8362
 4174TIP3    H212487   2.870   2.690   0.831 -0.1106 -1.0959  0.7736
 4175TIP3   OH212488   6.215   2.739   2.855 -0.3966  0.3385  0.3201
 4175TIP3    H112489   6.255   2.736   2.942 -0.0151 -1.4169  0.1054
 4175TIP3    H212490   6.287   2.758   2.796 -0.4884  0.5627  0.2789
 4176TIP3   OH212491   5.672   6.146   4.168 -0.3991  0.1369 -0.2109
 4176TIP3    H112492   5.733   6.079   4.199  0.9269  1.3316 -0.1369
 4176TIP3    H212493   5.650   6.119   4.079  1.7041  0.6154 -0.9320
 4177TIP3   OH212494   3.453   1.105   1.842  0.3848 -0.2778  0.2884
 4177TIP3    H112495   3.501   1.032   1.802  2.0668  1.0358 -0.2147
 4177TIP3    H212496   3.495   1.116   1.928  0.0615  0.0200  0.4095
 4178TIP3   OH212497   7.067   3.325   1.683  0.4690 -0.6932 -0.3503
 4178TIP3    H112498   7.019   3.242   1.680 -0.5510 -0.1032 -0.7308
 4178TIP3    H212499   7.043   3.364   1.767 -0.2115 -0.1201 -0.8004
 4179TIP3   OH212500   6.120   4.293   3.619 -0.8270 -0.0923  0.2505
 4179TIP3    H112501   6.186   4.301   3.551 -0.2179  0.6107  0.8996
 4179TIP3    H212502   6.060   4.365   3.603 -2.5078 -1.7711 -1.4230
 4180TIP3   OH212503   5.308   1.883   3.200  0.2110  0.3985  0.4015
 4180TIP3    H112504   5.278   1.963   3.243  1.0243  0.2789  1.2438
 4180TIP3    H212505   5.404   1.888   3.205  0.3153  0.1180 -0.9533
 4181TIP3   OH212506   4.023   5.681   2.970 -0.0607 -0.0737  0.5102
 4181TIP3    H112507   4.070   5.638   3.042  0.5798 -0.5990 -0.1990
 4181TIP3    H212508   3.955   5.619   2.945 -0.2838  0.1089  0.6617
 4182TIP3   OH212509   5.731   2.946   0.387 -0.0138  0.2598  0.2380
 4182TIP3    H112510   5.746   2.901   0.304  0.3064 -2.3224  1.5803
 4182TIP3    H212511   5.666   3.014   0.367 -0.9408 -1.1445 -1.8443
 4183TIP3   OH212512   3.751   5.827   5.187 -0.5811  0.0635  0.2814
 4183TIP3    H112513   3.788   5.899   5.238  1.2083 -0.7364  0.1750
 4183TIP3    H212514   3.807   5.821   5.109 -2.4036  0.3413 -1.1100
 4184TIP3   OH212515   3.156   3.683   4.995  0.3202  0.4765  0.3306
 4184TIP3    H112516   3.243   3.710   4.968  1.1835 -1.3498  1.1653
 4184TIP3    H212517   3.142   3.599   4.952 -0.9048  0.5913  0.4692
 4185TIP3   OH212518   1.976   5.949   0.524  0.2665 -0.3415  0.0608
 4185TIP3    H112519   1.974   5.972   0.432 -0.0394  1.2145  0.4258
 4185TIP3    H212520   2.049   5.999   0.560  0.1979 -0.6989  0.7046
 4186TIP3   OH212521   6.543   5.985   4.726  0.2495  0.0556  0.0837
 4186TIP3    H112522   6.483   5.911   4.715  1.4913 -0.8203 -1.1979
 4186TIP3    H212523   6.504   6.055   4.673  0.9059 -0.8979 -1.7668
 4187TIP3   OH212524   4.169   6.304   3.334  0.2298 -0.7467  0.0056
 4187TIP3    H112525   4.138   6.347   3.254 -0.3302 -1.1048  0.0219
 4187TIP3    H212526   4.192   6.375   3.393 -2.5116 -0.3897  0.7695
 4188TIP3   OH212527   3.078   4.236   5.166  0.3247 -0.3230 -0.1437
 4188TIP3    H112528   3.108   4.304   5.106 -0.0306  0.2446  0.3060
 4188TIP3    H212529   3.034   4.172   5.111 -1.9657  1.2811 -0.2927
 4189TIP3   OH212530   0.643   5.008   2.606 -0.2118 -0.0680  0.1855
 4189TIP3    H112531   0.644   5.020   2.701 -1.4106 -0.3437  0.2532
 4189TIP3    H212532   0.730   5.034   2.577 -0.2198  1.1833  1.2197
 4190TIP3   OH212533   0.334   3.425   5.858  0.2268  0.3845 -0.3864
 4190TIP3    H112534   0.296   3.465   5.780  1.7237  0.8657 -0.8890
 4190TIP3    H212535   0.360   3.499   5.913 -0.5205  0.0528  0.4377
 4191TIP3   OH212536   6.482   3.576   0.940  0.2078  0.3991 -0.2056
 4191TIP3    H112537   6.565   3.529   0.939  0.0195  0.0482  0.3331
 4191TIP3    H212538   6.419   3.514   0.904  0.1410  0.6007 -0.4411
 4192TIP3   OH212539   4.736   6.528   2.179  0.0649  0.1686 -0.0057
 4192TIP3    H112540   4.689   6.611   2.176  0.0806  0.1998  0.5214
 4192TIP3    H212541   4.829   6.552   2.172  0.2857  0.4457  2.8326
 4193TIP3   OH212542   0.347   5.571   5.715  0.0125 -0.1060  0.3736
 4193TIP3    H112543   0.272   5.626   5.693  0.3888  0.2152 -0.1165
 4193TIP3    H212544   0.328   5.540   5.804 -1.5906 -1.5510 -0.4058
 4194TIP3   OH212545   0.387   1.545   2.442 -0.2428 -0.1233 -0.6497
 4194TIP3    H112546   0.297   1.578   2.451 -1.0740 -2.3879  0.0448
 4194TIP3    H212547   0.441   1.624   2.441 -2.0414  1.2736  1.3490
 4195TIP3   OH212548   6.485   4.930   2.739 -0.3085  0.6591 -0.0216
 4195TIP3    H112549   6.392   4.936   2.759 -0.5207 -1.9454  0.0829
 4195TIP3    H212550   6.520   4.869   2.804  1.3252  0.9731 -0.5598
 4196TIP3   OH212551   4.420   6.342   1.237 -0.3283 -0.2636  0.1642
 4196TIP3    H112552   4.327   6.348   1.261 -0.7159 -1.8069 -0.7584
 4196TIP3    H212553   4.466   6.389   1.306 -1.9281  2.7438 -0.6221
 4197TIP3   OH212554   5.631   6.514   4.548  0.4374  0.2626 -0.3503
 4197TIP3    H112555   5.671   6.433   4.516  0.9203  0.5297 -0.4345
 4197TIP3    H212556   5.547   6.519   4.503  0.8045  0.2771 -1.0456
 4198TIP3   OH212557   3.500   6.274   3.747 -0.2391 -0.2050  0.3801
 4198TIP3    H112558   3.432   6.320   3.699 -0.4615 -1.8339 -0.9918
 4198TIP3    H212559   3.537   6.339   3.806 -3.4307  0.5655  1.6981
 4199TIP3   OH212560   1.091   6.603   5.580 -0.1850 -0.0016  0.5909
 4199TIP3    H112561   1.184   6.622   5.572 -0.5377  1.1089 -1.9251
 4199TIP3    H212562   1.058   6.669   5.641  0.3834  0.8313  0.0166
 4200TIP3   OH212563   2.692   3.614   2.327  0.1490 -0.5331  0.1825
 4200TIP3    H112564   2.691   3.579   2.238 -1.6622 -1.0917  0.3832
 4200TIP3    H212565   2.615   3.671   2.331  0.2820 -0.4117  1.3596
 4201TIP3   OH212566   1.132   0.891   5.338  0.0491 -0.2930  0.4802
 4201TIP3    H112567   1.196   0.890   5.409  1.9788  1.5659 -1.0971
 4201TIP3    H212568   1.163   0.824   5.278  0.5644  0.5883 -0.2698
 4202TIP3   OH212569   1.788   0.390   1.717 -0.5004  0.0996  0.3766
 4202TIP3    H112570   1.828   0.476   1.716 -1.8654  0.7861 -1.9944
 4202TIP3    H212571   1.821   0.347   1.638  0.7401 -1.9096  1.8767
 4203TIP3   OH212572   4.243   4.235   2.627  0.1739  0.3427 -0.4061
 4203TIP3    H112573   4.215   4.276   2.708 -2.1973 -1.2559 -0.3138
 4203TIP3    H212574   4.328   4.196   2.647 -0.8115 -0.8801  1.6688
 4204TIP3   OH212575   5.004   3.014   0.735 -0.2435  0.0939 -0.0740
 4204TIP3    H112576   5.099   3.009   0.720 -0.5387 -0.2109 -2.2467
 4204TIP3    H212577   4.985   2.942   0.795  0.8722  0.0443  0.2447
 4205TIP3   OH212578   2.384   2.814   4.210 -0.0722  0.7076 -0.0229
 4205TIP3    H112579   2.358   2.738   4.156  0.3588  1.5229 -1.4190
 4205TIP3    H212580   2.425   2.775   4.287 -0.6234 -0.4990 -0.3075
 4206TIP3   OH212581   2.955   6.087   5.875 -0.3434 -0.1170 -0.3630
 4206TIP3    H112582   3.001   6.079   5.791 -0.8074 -1.6475 -0.5101
 4206TIP3    H212583   2.997   6.022   5.931 -0.3095  0.6163  0.4702
 4207TIP3   OH212584   5.176   0.896   0.845  0.0526 -0.4198  0.4521
 4207TIP3    H112585   5.129   0.813   0.847 -1.2813  0.2994  0.4977
 4207TIP3    H212586   5.113   0.958   0.808  1.1081  0.5237  0.1688
 4208TIP3   OH212587   6.929   5.628   1.405 -0.2290 -0.2420  0.2670
 4208TIP3    H112588   6.852   5.657   1.454  0.2063 -2.5555  2.5614
 4208TIP3    H212589   6.992   5.700   1.414 -1.2956  0.7197  0.2891
 4209TIP3   OH212590   2.674   6.615   5.678  0.2571 -0.1404 -0.9254
 4209TIP3    H112591   2.628   6.692   5.713 -0.5758 -0.2458 -1.7720
 4209TIP3    H212592   2.736   6.592   5.747 -1.2429 -0.2531  0.4561
 4210TIP3   OH212593   5.932   1.328   1.043  0.0247  0.1002  0.2026
 4210TIP3    H112594   5.930   1.417   1.009  0.7522  0.3211  0.7390
 4210TIP3    H212595   5.873   1.279   0.985  1.0902  0.5059 -1.2604
 4211TIP3   OH212596   3.102   4.586   4.352 -0.0994 -0.6308  1.1668
 4211TIP3    H112597   3.181   4.624   4.389 -0.2504 -0.7590  1.6366
 4211TIP3    H212598   3.105   4.494   4.378  0.2328 -0.9349  0.0967
 4212TIP3   OH212599   2.804   3.227   4.923 -0.0877  0.5767  0.0742
 4212TIP3    H112600   2.892   3.206   4.893  0.1552  2.1314 -0.4113
 4212TIP3    H212601   2.750   3.222   4.844 -0.2061  0.7456  0.1417
 4213TIP3   OH212602   6.426   3.069   4.395 -0.1973  0.2934 -0.6997
 4213TIP3    H112603   6.391   3.017   4.467 -1.4592  1.7684 -0.1958
 4213TIP3    H212604   6.513   3.096   4.425  0.0522 -0.6319 -0.5435
 4214TIP3   OH212605   2.353   2.647   3.342 -0.3013 -0.2826 -0.2464
 4214TIP3    H112606   2.425   2.584   3.341  0.4905  0.5932  0.3315
 4214TIP3    H212607   2.277   2.596   3.371  0.0582 -1.2282 -0.9111
 4215TIP3   OH212608   2.123   1.155   0.449  0.3085 -0.4557  0.0447
 4215TIP3    H112609   2.073   1.231   0.477 -2.8770 -1.5509 -2.0871
 4215TIP3    H212610   2.198   1.192   0.402  0.1348  1.3022  1.0664
 4216TIP3   OH212611   1.927   1.348   3.369  0.6021  0.3159  0.6645
 4216TIP3    H112612   2.015   1.312   3.387  0.0136 -0.5734  1.9265
 4216TIP3    H212613   1.942   1.441   3.352  1.8505  0.0706  0.2894
 4217TIP3   OH212614   3.629   5.550   2.101 -0.1720  0.2427 -0.4314
 4217TIP3    H112615   3.602   5.617   2.164  1.3827 -1.1101  1.8097
 4217TIP3    H212616   3.561   5.484   2.105  0.3320 -0.2418  0.5346
 4218TIP3   OH212617   5.656   2.934   5.076  0.3520 -0.1685  0.4506
 4218TIP3    H112618   5.695   3.006   5.027 -0.0565  0.5272  1.1274
 4218TIP3    H212619   5.609   2.882   5.010 -0.3146  0.8337  0.1117
 4219TIP3   OH212620   4.876   2.665   3.417  0.0507  0.1725 -0.3290
 4219TIP3    H112621   4.964   2.699   3.400  0.0919  1.0719  1.4415
 4219TIP3    H212622   4.826   2.742   3.445 -0.7078 -0.6793  0.7751
 4220TIP3   OH212623   1.983   2.177   0.861  0.1301  0.0986 -0.3903
 4220TIP3    H112624   1.977   2.134   0.947  0.3006 -1.1312 -0.9817
 4220TIP3    H212625   1.910   2.239   0.861 -0.0633 -0.1103  0.5287
 4221TIP3   OH212626   0.164   6.407   0.781  0.0753  0.0539  0.4457
 4221TIP3    H112627   0.223   6.482   0.773  0.5808 -0.4662 -0.8514
 4221TIP3    H212628   0.100   6.435   0.847 -1.1047  2.5300 -1.5941
 4222TIP3   OH212629   1.938   1.529   0.135  0.0324 -0.0471  0.4996
 4222TIP3    H112630   1.998   1.541   0.061 -2.7477  3.3355 -1.5330
 4222TIP3    H212631   1.920   1.434   0.137  1.4171 -0.4448 -2.1388
 4223TIP3   OH212632   6.045   1.238   4.329 -0.4162 -0.0091  0.1625
 4223TIP3    H112633   6.088   1.153   4.334  1.5004  0.7438 -1.8264
 4223TIP3    H212634   5.959   1.219   4.293 -0.6073 -1.2245  1.1883
 4224TIP3   OH212635   2.884   6.546   5.460  0.2560 -0.4689  0.5448
 4224TIP3    H112636   2.907   6.497   5.538 -1.9327  0.3857  1.7970
 4224TIP3    H212637   2.808   6.599   5.485  0.7080  1.3609 -1.5720
 4225TIP3   OH212638   2.875   0.050   3.705  0.1951  0.0427 -0.2598
 4225TIP3    H112639   2.921   0.130   3.734  1.0367 -0.8939  1.1213
 4225TIP3    H212640   2.943  -0.001   3.661 -0.3622  0.1087 -1.2153
 4226TIP3   OH212641   3.362   4.863   3.120 -0.0438 -0.1585 -0.1353
 4226TIP3    H112642   3.280   4.872   3.168  0.1985  0.3188  0.2003
 4226TIP3    H212643   3.389   4.772   3.136 -0.3182 -0.2084  0.0583
 4227TIP3   OH212644   0.298   1.729   4.518  0.0977  0.3338  0.1007
 4227TIP3    H112645   0.217   1.734   4.568 -1.9019 -2.4853 -2.4847
 4227TIP3    H212646   0.346   1.656   4.556  2.0963  2.5730  2.2451
 4228TIP3   OH212647   7.076   0.291   0.310  0.2219 -0.2680 -0.0694
 4228TIP3    H112648   7.025   0.321   0.385 -0.0347 -1.4446  0.2424
 4228TIP3    H212649   7.017   0.301   0.236  0.6800  1.4862 -0.2598
 4229TIP3   OH212650   1.448   3.619   3.382 -0.0810 -0.6652  0.1614
 4229TIP3    H112651   1.394   3.564   3.324  1.6279 -2.4143  0.1183
 4229TIP3    H212652   1.406   3.610   3.468 -0.8042 -0.6508 -0.1779
 4230TIP3   OH212653   4.477   3.254   4.957  0.1190 -0.0113  0.1654
 4230TIP3    H112654   4.479   3.332   4.903 -0.1053 -0.3283 -0.3084
 4230TIP3    H212655   4.385   3.227   4.956  0.3224 -0.7216 -0.3230
 4231TIP3   OH212656   4.124   4.229   3.091  0.0603 -0.1239  0.1598
 4231TIP3    H112657   4.130   4.193   3.180 -1.9281  0.7518  0.7113
 4231TIP3    H212658   4.062   4.171   3.047 -0.1689  0.3629 -0.1583
 4232TIP3   OH212659   5.177   4.984   5.107  0.0949 -0.2798  0.2284
 4232TIP3    H112660   5.221   5.065   5.083  2.5253 -1.9039 -1.1884
 4232TIP3    H212661   5.178   4.931   5.028  0.5141 -2.4919  1.6146
 4233TIP3   OH212662   3.418   0.868   4.138  0.1816 -0.5018 -0.1578
 4233TIP3    H112663   3.424   0.780   4.175  0.5746 -0.2235  0.4567
 4233TIP3    H212664   3.331   0.872   4.099 -1.1247 -0.1132  2.5842
 4234TIP3   OH212665   6.571   3.507   2.251 -0.3052  0.3266  0.7148
 4234TIP3    H112666   6.484   3.508   2.210  0.3991  1.0001 -0.8574
 4234TIP3    H212667   6.554   3.485   2.343 -2.0572 -0.3072  0.2836
 4235TIP3   OH212668   3.865   5.630   1.591 -0.2748  0.1384 -0.6005
 4235TIP3    H112669   3.940   5.660   1.540  0.0865 -0.5017 -0.4440
 4235TIP3    H212670   3.846   5.704   1.649 -0.1182  0.5175 -1.0190
 4236TIP3   OH212671   4.904   4.098   1.408  0.1567  0.8736  0.2103
 4236TIP3    H112672   4.931   4.158   1.339  1.8243  0.0577  0.0872
 4236TIP3    H212673   4.933   4.012   1.378 -2.5596 -0.1159  0.1720
 4237TIP3   OH212674   0.716   3.255   1.302  0.1859 -0.0925 -0.4193
 4237TIP3    H112675   0.661   3.177   1.293 -1.4614  0.6006  2.2554
 4237TIP3    H212676   0.669   3.322   1.253  0.4488 -0.2710 -0.9197
 4238TIP3   OH212677   0.801   4.878   4.865  0.0290  0.2873  0.6871
 4238TIP3    H112678   0.843   4.863   4.950  0.1245  2.4478  1.0780
 4238TIP3    H212679   0.716   4.834   4.872  0.4205 -0.3694  1.5313
 4239TIP3   OH212680   2.780   2.434   4.672  0.0104  0.4158  0.3936
 4239TIP3    H112681   2.803   2.445   4.764 -1.6385 -2.3641  1.2501
 4239TIP3    H212682   2.821   2.352   4.646 -0.8481  0.3620 -0.8815
 4240TIP3   OH212683   4.234   0.238   2.713  0.3672 -0.4340  0.0675
 4240TIP3    H112684   4.279   0.156   2.693 -0.0371 -1.1655  1.9215
 4240TIP3    H212685   4.246   0.292   2.635  2.6157 -1.3962 -0.3307
 4241TIP3   OH212686   0.664   3.339   1.663  0.5697 -0.4770 -0.1231
 4241TIP3    H112687   0.672   3.431   1.691  0.9143 -0.0202 -1.6072
 4241TIP3    H212688   0.615   3.296   1.733  0.0894  0.9218  0.4326
 4242TIP3   OH212689   1.808   4.978   4.814  0.2262  0.2957 -0.1317
 4242TIP3    H112690   1.870   4.927   4.866 -1.7086 -1.1063  0.9015
 4242TIP3    H212691   1.793   4.924   4.736  0.7398  0.9212 -0.6751
 4243TIP3   OH212692   2.045   1.991  -0.022  0.3271 -0.1882 -0.2741
 4243TIP3    H112693   2.115   1.950   0.029 -0.7489  0.4165  1.7849
 4243TIP3    H212694   1.989   2.033   0.043 -3.4795 -2.7927 -1.5342
 4244TIP3   OH212695   5.539   5.618   3.259  0.3556 -0.0552  0.3090
 4244TIP3    H112696   5.600   5.680   3.219  1.8258 -1.2684  0.5460
 4244TIP3    H212697   5.553   5.628   3.353  1.2902 -1.3422  0.3343
 4245TIP3   OH212698   5.084   6.129   0.937 -0.0189  0.6778 -0.0479
 4245TIP3    H112699   5.019   6.102   1.002  1.7912  1.4603  2.1958
 4245TIP3    H212700   5.102   6.050   0.887 -0.5088 -0.2926  1.2586
 4246TIP3   OH212701   5.886   3.307   1.308  0.4031  0.0929  0.5615
 4246TIP3    H112702   5.927   3.382   1.264 -0.7261  1.6384  2.0000
 4246TIP3    H212703   5.813   3.346   1.357 -0.8394 -2.1152  0.5610
 4247TIP3   OH212704   3.892   0.191   0.382  0.9019  0.6142  0.2155
 4247TIP3    H112705   3.908   0.198   0.476 -1.6603 -0.4156  0.8090
 4247TIP3    H212706   3.858   0.103   0.369  0.2873  1.0539 -1.5122
 4248TIP3   OH212707   6.165   1.766   3.001  0.5887  0.1049  0.0201
 4248TIP3    H112708   6.095   1.711   2.964 -0.5154  0.9617  0.7483
 4248TIP3    H212709   6.189   1.825   2.929 -0.4959  0.7758  0.1740
 4249TIP3   OH212710   6.587   2.304   1.142  0.0878  0.6227  0.1375
 4249TIP3    H112711   6.549   2.390   1.123 -1.5982 -0.5322 -2.3271
 4249TIP3    H212712   6.636   2.281   1.064  1.3046 -0.2835  1.1300
 4250TIP3   OH212713   4.622   2.375   4.728  0.2311  0.2239  0.1361
 4250TIP3    H112714   4.596   2.375   4.820 -0.9646  0.0391 -0.1895
 4250TIP3    H212715   4.540   2.378   4.679  0.7137 -1.9077 -0.9484
 4251TIP3   OH212716   4.620   3.218   2.684  0.0469 -0.5601  0.4635
 4251TIP3    H112717   4.665   3.153   2.738  0.4225 -0.5908  0.1143
 4251TIP3    H212718   4.571   3.271   2.747  0.7185 -0.4068  0.8665
 4252TIP3   OH212719   0.827   0.276   1.055  0.0135 -0.8096 -0.1537
 4252TIP3    H112720   0.795   0.350   1.003  1.6760 -0.9117 -1.4031
 4252TIP3    H212721   0.763   0.267   1.125  0.5115  2.8416  1.0077
 4253TIP3   OH212722   5.640   6.227   1.456  0.2223 -0.2313  0.1208
 4253TIP3    H112723   5.650   6.153   1.517  2.1379  1.2372  1.7091
 4253TIP3    H212724   5.684   6.198   1.376  0.9236 -0.8356  0.7096
 4254TIP3   OH212725   6.608   4.975   1.450 -0.6933  0.8243  0.3961
 4254TIP3    H112726   6.622   4.948   1.541  1.6803  0.3229 -0.0505
 4254TIP3    H212727   6.658   5.056   1.441  0.2568  0.1395 -0.7890
 4255TIP3   OH212728   2.559   3.929   5.872  0.1262 -0.0118  0.6183
 4255TIP3    H112729   2.580   3.928   5.778  0.2091  1.4204  0.5989
 4255TIP3    H212730   2.566   4.021   5.897 -3.0229  0.1494  1.3378
 4256TIP3   OH212731   4.682   4.162   5.101  0.0396 -0.6771  0.3805
 4256TIP3    H112732   4.641   4.240   5.139  0.2989 -1.0099  1.3733
 4256TIP3    H212733   4.649   4.159   5.011  0.2536  0.7343  0.2310
 4257TIP3   OH212734   2.246   2.705   3.034  0.1756 -0.4927 -0.1237
 4257TIP3    H112735   2.340   2.696   3.049  0.3931  2.8843  1.4922
 4257TIP3    H212736   2.239   2.757   2.955 -0.1917  0.9519  0.8170
 4258TIP3   OH212737   1.673   0.568   5.036  0.2555 -0.3832 -0.1642
 4258TIP3    H112738   1.603   0.633   5.025 -0.6530 -1.4609 -0.9727
 4258TIP3    H212739   1.637   0.488   4.998  2.4162 -0.6505 -1.8211
 4259TIP3   OH212740   0.899   3.755   1.694  0.4763  0.6872  0.3883
 4259TIP3    H112741   0.823   3.700   1.673 -0.7310  2.6522 -0.7177
 4259TIP3    H212742   0.861   3.834   1.733  2.0558  1.2435  0.8578
 4260TIP3   OH212743   3.114   4.132   4.232  0.3253 -0.0025 -0.1548
 4260TIP3    H112744   3.156   4.049   4.256 -0.2906 -0.4049 -0.4479
 4260TIP3    H212745   3.049   4.108   4.166 -1.4722  0.3670  1.4139
 4261TIP3   OH212746   4.177   4.970   3.064 -0.8003  0.0015  0.1352
 4261TIP3    H112747   4.162   4.878   3.039  1.0150  0.2610 -2.3729
 4261TIP3    H212748   4.137   5.020   2.993 -0.0050  1.0697  0.4214
 4262TIP3   OH212749   4.702   0.086   2.372  0.8390  0.2833 -0.2503
 4262TIP3    H112750   4.737   0.121   2.454 -0.7427 -2.0544  1.5704
 4262TIP3    H212751   4.608   0.098   2.379  0.6432 -0.3976 -1.5133
 4263TIP3   OH212752   4.789   3.287   3.020 -0.2764 -0.1409  0.1133
 4263TIP3    H112753   4.862   3.288   3.082  1.3953 -1.1164 -1.7295
 4263TIP3    H212754   4.828   3.311   2.936 -2.4492  1.0365 -0.6461
 4264TIP3   OH212755   3.464   3.437   5.540  0.1610  0.0284  0.2805
 4264TIP3    H112756   3.526   3.451   5.612  0.1077  0.8403  0.1786
 4264TIP3    H212757   3.505   3.369   5.486 -0.5480 -1.7833  1.9182
 4265TIP3   OH212758   6.968   2.209   1.143 -0.3018 -0.4194 -0.3159
 4265TIP3    H112759   6.902   2.190   1.209 -0.6067 -1.8194 -0.9775
 4265TIP3    H212760   6.945   2.152   1.069  0.9577 -0.0799 -1.0017
 4266TIP3   OH212761   5.282   2.987   0.717  0.1768 -0.1671  0.1462
 4266TIP3    H112762   5.321   3.074   0.714 -0.9879  0.3727 -2.3476
 4266TIP3    H212763   5.349   2.932   0.757  0.4901  2.0107  2.9902
 4267TIP3   OH212764   2.106   5.699   1.189  0.1261 -0.0246  0.3184
 4267TIP3    H112765   2.039   5.693   1.121  0.7548  1.6121 -0.4932
 4267TIP3    H212766   2.086   5.780   1.236  0.2250 -0.6791  1.5406
 4268TIP3   OH212767   2.692   5.211   4.968  0.1193 -0.1244 -0.3555
 4268TIP3    H112768   2.703   5.145   4.900 -1.5976  0.4158 -1.2160
 4268TIP3    H212769   2.601   5.201   4.997  0.2030  1.0419  0.3808
 4269TIP3   OH212770   2.913   3.026   5.552  0.3313 -0.5159 -0.5823
 4269TIP3    H112771   2.903   3.110   5.597 -0.3939 -0.0294 -1.6160
 4269TIP3    H212772   3.004   3.025   5.522 -0.1482  0.8018 -2.2470
 4270TIP3   OH212773   6.194   4.648   3.386  0.5745  0.0722 -0.6603
 4270TIP3    H112774   6.170   4.557   3.402 -1.1654  1.0139  3.1218
 4270TIP3    H212775   6.126   4.681   3.328 -0.9366 -0.1613  0.9210
 4271TIP3   OH212776   0.688   5.941   2.076 -0.3330 -0.1973  0.1429
 4271TIP3    H112777   0.594   5.923   2.069  0.1109 -2.8229  0.0083
 4271TIP3    H212778   0.728   5.893   2.003  1.0237  2.3113 -0.9034
 4272TIP3   OH212779   4.014   6.646   5.376  0.1630  0.2044  0.2357
 4272TIP3    H112780   3.998   6.735   5.407 -1.8378 -0.3403  0.9867
 4272TIP3    H212781   4.089   6.615   5.427  1.2474  1.6104 -0.4412
 4273TIP3   OH212782   0.447   5.164   2.456 -0.2919 -0.1634 -0.3579
 4273TIP3    H112783   0.523   5.222   2.449  0.5623 -0.9630  1.6403
 4273TIP3    H212784   0.480   5.085   2.499 -2.0733 -0.8927 -0.2337
 4274TIP3   OH212785   4.433   3.402   2.786 -0.0097  0.0396 -0.1542
 4274TIP3    H112786   4.342   3.374   2.802 -1.1158  2.0711 -2.3447
 4274TIP3    H212787   4.450   3.468   2.853  0.1044 -0.7840  0.6475
 4275TIP3   OH212788   2.303   2.801   2.103  0.1007  0.2650  0.1639
 4275TIP3    H112789   2.390   2.761   2.110  0.7978  1.0100 -2.7475
 4275TIP3    H212790   2.256   2.745   2.041 -0.1988  1.7861 -1.0475
 4276TIP3   OH212791   3.788   2.391   0.238 -0.1223 -0.4375  0.0229
 4276TIP3    H112792   3.844   2.389   0.315 -0.5611 -0.9242  0.3366
 4276TIP3    H212793   3.751   2.302   0.232 -1.8879  0.2119  0.5950
 4277TIP3   OH212794   2.623   4.762   3.595  0.2928 -0.6352 -0.3108
 4277TIP3    H112795   2.708   4.761   3.639  0.3809 -0.8907 -0.4891
 4277TIP3    H212796   2.635   4.819   3.520  0.6720 -1.6970 -1.0696
 4278TIP3   OH212797   6.764   4.747   2.293 -0.1790  0.0069 -0.6797
 4278TIP3    H112798   6.788   4.819   2.351 -1.9754 -0.6210  0.9722
 4278TIP3    H212799   6.734   4.789   2.212  0.5610  1.0071 -0.4415
 4279TIP3   OH212800   7.105   2.478   3.441  0.0138  0.7131 -0.1096
 4279TIP3    H112801   7.196   2.480   3.472 -0.0398  0.7695  0.0476
 4279TIP3    H212802   7.096   2.558   3.390  0.4787 -0.0079 -1.3735
 4280TIP3   OH212803   5.750   0.010   3.636  0.5313 -0.0056 -0.0097
 4280TIP3    H112804   5.748   0.098   3.598 -1.4864  0.1585  0.3392
 4280TIP3    H212805   5.800   0.021   3.717  0.0463  0.9227  0.1903
 4281TIP3   OH212806   5.396   0.771   1.678  0.6910 -0.0673 -0.3967
 4281TIP3    H112807   5.390   0.766   1.582 -0.4739 -0.3321 -0.3302
 4281TIP3    H212808   5.450   0.848   1.695  0.7237  0.1125 -1.2706
 4282TIP3   OH212809   2.155   1.560   2.863  0.2897  0.5603 -0.4902
 4282TIP3    H112810   2.154   1.517   2.778  0.7215 -0.4366 -0.0102
 4282TIP3    H212811   2.075   1.612   2.865 -0.0960  0.0054 -1.2131
 4283TIP3   OH212812   5.209   0.625   4.714  0.5427  0.2134 -0.3037
 4283TIP3    H112813   5.158   0.549   4.686  0.7121 -0.1449  0.3436
 4283TIP3    H212814   5.199   0.627   4.809  1.4272  0.3562 -0.2071
 4284TIP3   OH212815   6.227   3.194   1.618  1.0138  0.2005 -0.3615
 4284TIP3    H112816   6.242   3.240   1.535 -1.8031 -0.2153 -1.2028
 4284TIP3    H212817   6.269   3.109   1.606 -0.0575 -0.1792 -1.7610
 4285TIP3   OH212818   3.115   6.085   4.575 -0.1868  0.3929  0.1580
 4285TIP3    H112819   3.138   5.992   4.580  0.1306  0.5123  0.9810
 4285TIP3    H212820   3.063   6.092   4.495  2.3410  0.0488 -1.6485
 4286TIP3   OH212821   2.270   2.362   5.154 -0.1226  0.0445  0.1183
 4286TIP3    H112822   2.358   2.400   5.162 -0.4861  1.2305 -1.2169
 4286TIP3    H212823   2.226   2.417   5.090 -2.0006 -0.2655  1.0753
 4287TIP3   OH212824   4.978   3.061   4.046  0.1341  0.5373 -0.1913
 4287TIP3    H112825   4.934   3.072   4.131  0.4518  0.3094  0.0039
 4287TIP3    H212826   5.051   3.002   4.064  0.2520  0.5526 -0.6090
 4288TIP3   OH212827   2.049   4.664   2.198 -0.2782 -0.1219  0.3942
 4288TIP3    H112828   1.978   4.625   2.146  0.1304  0.1517 -0.3836
 4288TIP3    H212829   2.005   4.705   2.272 -1.1893  1.8906 -1.1541
 4289TIP3   OH212830   1.279   2.834   5.100 -1.1127 -0.1207 -0.5234
 4289TIP3    H112831   1.193   2.844   5.059 -0.3410  2.3989 -1.6669
 4289TIP3    H212832   1.340   2.823   5.028 -0.1401  1.0092  0.0889
 4290TIP3   OH212833   4.270   3.620   3.649  0.2974  0.0369 -0.6583
 4290TIP3    H112834   4.234   3.686   3.709  2.6587 -0.9228  2.0569
 4290TIP3    H212835   4.319   3.670   3.584 -1.7510  1.0754 -1.5019
 4291TIP3   OH212836   2.808   5.879   0.073  0.5875  0.2858  0.1412
 4291TIP3    H112837   2.805   5.965   0.115 -0.2695  0.0092  0.6610
 4291TIP3    H212838   2.881   5.834   0.116 -0.9345 -0.3911  2.1652
 4292TIP3   OH212839   3.314   5.521   1.488 -0.1606  1.0050 -0.2471
 4292TIP3    H112840   3.406   5.540   1.472 -0.3340  1.2805 -0.9310
 4292TIP3    H212841   3.315   5.450   1.553  0.5472 -0.2199 -1.5523
 4293TIP3   OH212842   4.341   3.170   0.438  0.2238 -0.6454  0.0917
 4293TIP3    H112843   4.292   3.192   0.517  0.3461  1.3781 -0.3516
 4293TIP3    H212844   4.428   3.144   0.470 -0.1494 -1.1957  0.6846
 4294TIP3   OH212845   2.845   5.211   2.914  0.0737  0.2490  0.0460
 4294TIP3    H112846   2.931   5.253   2.907  0.8516 -1.4276 -1.4456
 4294TIP3    H212847   2.784   5.282   2.930  1.6830  1.5553  0.6441
 4295TIP3   OH212848   5.489   5.607   3.565 -0.5762 -0.1700 -0.1260
 4295TIP3    H112849   5.487   5.657   3.646  0.8975  0.7312 -0.6044
 4295TIP3    H212850   5.407   5.558   3.565 -0.4879 -0.4224  2.0392
 4296TIP3   OH212851   5.364   4.226   5.094  0.1246  0.0071 -0.0539
 4296TIP3    H112852   5.458   4.232   5.108 -0.2864  1.5205  2.6422
 4296TIP3    H212853   5.347   4.133   5.083  2.1464 -0.1513 -3.2114
 4297TIP3   OH212854   1.936   0.260   5.526 -0.0387  0.6131 -0.6451
 4297TIP3    H112855   1.989   0.338   5.514  0.7341  0.1966 -0.0568
 4297TIP3    H212856   1.856   0.292   5.568  1.0198  0.8835  1.2626
 4298TIP3   OH212857   6.431   0.841   4.105  0.3704 -0.0209  0.1439
 4298TIP3    H112858   6.401   0.785   4.176  0.2527  0.9199  0.8558
 4298TIP3    H212859   6.457   0.780   4.035 -0.5324 -0.9204  0.5751
 4299TIP3   OH212860   0.828   5.147   4.811 -0.0224  0.4914  0.0420
 4299TIP3    H112861   0.810   5.053   4.813  1.0945  0.2702  0.4074
 4299TIP3    H212862   0.793   5.179   4.894  1.2682  0.0471  0.7953
 4300TIP3   OH212863   5.628   5.977   1.170  0.5886  0.1278 -0.2276
 4300TIP3    H112864   5.635   6.071   1.152  0.4236  0.5755  1.7825
 4300TIP3    H212865   5.558   5.946   1.112  1.3213  1.0079 -1.6397
 4301TIP3   OH212866   7.189   3.817   4.076 -0.0338  0.1159  0.1479
 4301TIP3    H112867   7.193   3.776   4.162 -2.2369 -0.1625  0.1785
 4301TIP3    H212868   7.125   3.765   4.027  0.6068  0.7241 -1.4150
 4302TIP3   OH212869   5.766   6.551   0.683  0.3239  0.0137  0.3523
 4302TIP3    H112870   5.779   6.636   0.725 -0.3750 -0.1877  1.0045
 4302TIP3    H212871   5.715   6.500   0.747 -1.4049 -0.0771 -1.0220
 4303TIP3   OH212872   2.834   1.459   0.698 -0.1738  0.0843  0.0489
 4303TIP3    H112873   2.752   1.442   0.745 -0.1440  2.5617  1.1602
 4303TIP3    H212874   2.807   1.502   0.617 -0.0408 -0.4058 -0.2548
 4304TIP3   OH212875   4.430   3.810   3.142  0.5725 -1.0696 -0.6874
 4304TIP3    H112876   4.338   3.835   3.136  0.2813 -2.2863 -1.5989
 4304TIP3    H212877   4.473   3.887   3.178 -0.7761 -0.4285 -0.3884
 4305TIP3   OH212878   1.124   2.916   5.715  0.1294  0.3540  0.3744
 4305TIP3    H112879   1.088   2.850   5.657  1.1947  1.5740 -1.7822
 4305TIP3    H212880   1.208   2.879   5.744  0.2497  0.3271 -0.0066
 4306TIP3   OH212881   7.232   0.562   4.120 -0.0108  0.0332 -0.4121
 4306TIP3    H112882   7.248   0.515   4.038  2.2070  1.0183 -0.5986
 4306TIP3    H212883   7.162   0.512   4.162 -0.5945 -1.0058 -2.4869
 4307TIP3   OH212884   0.654   6.568   4.554  0.1917  0.3199 -0.4746
 4307TIP3    H112885   0.676   6.635   4.489 -1.8685  1.8854  0.3130
 4307TIP3    H212886   0.565   6.540   4.531 -1.2922  2.1116  2.4616
 4308TIP3   OH212887   5.212   4.705   4.583 -0.0860 -0.1523 -0.2798
 4308TIP3    H112888   5.119   4.704   4.607  0.0348 -0.8552  0.1935
 4308TIP3    H212889   5.234   4.613   4.572  0.5502  0.0166 -0.4150
 4309TIP3   OH212890   0.431   1.499   2.006 -0.5099  0.0070 -0.0743
 4309TIP3    H112891   0.340   1.510   2.031 -0.3821  3.4892 -0.6524
 4309TIP3    H212892   0.465   1.588   1.998  2.6340 -1.1324 -1.0552
 4310TIP3   OH212893   6.272   6.692   5.255  0.0594  0.7583 -0.1502
 4310TIP3    H112894   6.250   6.777   5.215 -3.1667 -0.4981 -1.3965
 4310TIP3    H212895   6.235   6.697   5.343  0.6017  0.9240  0.0700
 4311TIP3   OH212896   0.636   2.671   3.330  0.1528  0.1460 -0.2224
 4311TIP3    H112897   0.674   2.691   3.244 -0.8291 -0.2300 -0.7631
 4311TIP3    H212898   0.585   2.749   3.353 -1.8084 -0.7308 -1.2783
 4312TIP3   OH212899   5.854   3.118   1.753 -0.3179 -0.2487  0.1269
 4312TIP3    H112900   5.919   3.082   1.814  1.7836  3.2539  0.2030
 4312TIP3    H212901   5.773   3.119   1.803  0.2342 -1.8450  1.1461
 4313TIP3   OH212902   1.370   0.531   0.133  0.0204  0.4020 -0.0772
 4313TIP3    H112903   1.333   0.596   0.074 -1.9296 -1.1379 -0.6939
 4313TIP3    H212904   1.409   0.465   0.075  0.1814  0.0261  0.4457
 4314TIP3   OH212905   0.050   4.780   1.657  0.1764 -0.4362 -0.0718
 4314TIP3    H112906   0.008   4.695   1.646 -1.0250  0.0194  0.7837
 4314TIP3    H212907   0.141   4.760   1.680 -0.0794 -1.4785  0.0615
 4315TIP3   OH212908   2.581   4.480   2.804  0.2248  0.0528 -0.6591
 4315TIP3    H112909   2.643   4.423   2.758 -0.5202  0.2699 -1.9646
 4315TIP3    H212910   2.599   4.464   2.897  1.1561 -1.0649 -1.0071
 4316TIP3   OH212911   1.566   2.372   5.298 -0.3236  0.6593  0.3706
 4316TIP3    H112912   1.655   2.393   5.326 -0.5124  1.3951  0.4477
 4316TIP3    H212913   1.578   2.314   5.222  0.2420  1.7582 -0.4072
 4317TIP3   OH212914   5.609   4.101   1.487 -0.9137  0.5951  0.1176
 4317TIP3    H112915   5.676   4.106   1.554  1.2580  0.0071 -1.8694
 4317TIP3    H212916   5.585   4.193   1.469  0.1283  0.8794  0.1473
 4318TIP3   OH212917   7.026   3.879   5.510 -0.1894 -0.2096 -0.0204
 4318TIP3    H112918   6.949   3.860   5.564 -0.6563 -3.0357 -1.4961
 4318TIP3    H212919   7.022   3.974   5.496 -3.3205 -0.2052  0.1015
 4319TIP3   OH212920   1.008   2.274   2.247  0.2885  0.2149  0.2974
 4319TIP3    H112921   1.062   2.218   2.191  1.7580 -0.0013  1.8537
 4319TIP3    H212922   0.941   2.216   2.283 -0.3939  0.2626 -0.8472
 4320TIP3   OH212923   6.297   2.240   4.729  0.9158  0.0895  0.3359
 4320TIP3    H112924   6.277   2.313   4.788  2.7314  0.1458  0.9711
 4320TIP3    H212925   6.375   2.270   4.682  1.6849 -1.4071  0.5984
 4321TIP3   OH212926   3.831   5.354   1.187 -0.2353  0.3914  0.6804
 4321TIP3    H112927   3.854   5.283   1.247 -0.5351 -0.0937  0.2303
 4321TIP3    H212928   3.847   5.433   1.237 -1.0682 -0.0164  1.6335
 4322TIP3   OH212929   2.349   4.378   0.157  0.2892 -0.1818 -0.3635
 4322TIP3    H112930   2.390   4.297   0.127  1.8996 -0.3346  2.0059
 4322TIP3    H212931   2.403   4.448   0.119  0.3938 -0.2822 -0.3992
 4323TIP3   OH212932   4.986   4.520   5.647 -0.1831 -0.2078  0.2119
 4323TIP3    H112933   5.077   4.537   5.626 -0.1844  1.0255  1.0689
 4323TIP3    H212934   4.966   4.436   5.605  1.8105 -1.3294  1.3731
 4324TIP3   OH212935   6.475   3.048   2.222 -0.2279 -0.1756 -0.5095
 4324TIP3    H112936   6.474   3.119   2.287 -0.1506 -1.5744  1.1141
 4324TIP3    H212937   6.567   3.027   2.211 -0.3161 -1.0506  0.2572
 4325TIP3   OH212938   0.773   3.993   5.356  0.2875 -0.4179 -0.0955
 4325TIP3    H112939   0.808   4.053   5.422  0.7011  0.2895 -0.9432
 4325TIP3    H212940   0.687   3.967   5.391  0.0268  0.7923  0.2077
 4326TIP3   OH212941   6.230   4.118   1.937  0.2338  0.3755  0.1546
 4326TIP3    H112942   6.190   4.038   1.905  1.6356  0.0223 -0.8117
 4326TIP3    H212943   6.179   4.188   1.897 -0.5815 -0.0338  0.4714
 4327TIP3   OH212944   2.050   4.241   2.152  0.2168  0.0285 -0.3587
 4327TIP3    H112945   2.018   4.206   2.069  0.7205  1.1045 -1.0327
 4327TIP3    H212946   2.095   4.168   2.194 -1.9525 -1.1753  0.0489
 4328TIP3   OH212947   4.850   0.161   1.323  0.1829  0.1703 -0.0334
 4328TIP3    H112948   4.912   0.125   1.388  1.9693  0.2154 -1.6169
 4328TIP3    H212949   4.856   0.101   1.249 -1.1342  0.6090 -0.5113
 4329TIP3   OH212950   6.731   2.381   3.225  0.2010  0.3226 -0.1992
 4329TIP3    H112951   6.670   2.310   3.242  0.6056  0.0645  0.2131
 4329TIP3    H212952   6.802   2.367   3.288  0.5126  0.8178 -0.4319
 4330TIP3   OH212953   3.084   4.259   2.695  0.5299  0.0027 -0.2441
 4330TIP3    H112954   3.148   4.314   2.741 -0.7609  0.3491  1.2358
 4330TIP3    H212955   3.093   4.173   2.735 -1.0603  0.4630  1.2747
 4331TIP3   OH212956   3.090   5.374   2.920 -0.2119  0.1306  0.6697
 4331TIP3    H112957   3.126   5.419   2.996  2.0820 -1.5295  0.6626
 4331TIP3    H212958   3.110   5.432   2.846  0.3211  0.3377  0.9715
 4332TIP3   OH212959   2.060   6.641   5.173  0.3071 -0.1251  0.0644
 4332TIP3    H112960   2.028   6.570   5.117  0.8801  0.5717 -1.1702
 4332TIP3    H212961   2.099   6.704   5.113  1.8143  0.1978  1.3270
 4333TIP3   OH212962   3.926   4.616   5.795  0.2961  0.6931  0.2746
 4333TIP3    H112963   4.002   4.563   5.772 -0.3312 -0.8713  1.5814
 4333TIP3    H212964   3.946   4.650   5.883  0.8372  2.9846 -0.6714
 4334TIP3   OH212965   1.133   3.687   3.619  0.3699  0.0237 -0.0375
 4334TIP3    H112966   1.173   3.773   3.628 -0.3309  0.4990 -1.2420
 4334TIP3    H212967   1.069   3.682   3.691  0.7301  0.3219  0.3036
 4335TIP3   OH212968   4.020   3.972   5.599  0.3682 -0.5904 -0.3664
 4335TIP3    H112969   3.937   3.945   5.560  0.3505 -0.6545 -0.2854
 4335TIP3    H212970   3.995   4.035   5.667  0.5035  0.6629 -1.4547
 4336TIP3   OH212971   6.102   3.121   5.900 -0.0814  0.1022  0.5556
 4336TIP3    H112972   6.041   3.102   5.828  2.8967  0.8603 -2.4314
 4336TIP3    H212973   6.146   3.037   5.917 -1.7411 -0.4247  2.6375
 4337TIP3   OH212974   4.773   1.910   1.320 -0.5694 -0.2321 -0.1350
 4337TIP3    H112975   4.734   1.843   1.376  0.7689 -1.5263 -0.6706
 4337TIP3    H212976   4.868   1.898   1.332 -0.2167 -0.9031 -3.0229
 4338TIP3   OH212977   2.480   0.282   4.286  0.7563 -0.4151  0.1635
 4338TIP3    H112978   2.563   0.297   4.330  0.9097 -0.8820  0.0475
 4338TIP3    H212979   2.503   0.228   4.210  0.4540  0.0993 -0.3026
 4339TIP3   OH212980   3.082   0.490   1.926  0.0721  0.1512  0.3795
 4339TIP3    H112981   3.010   0.549   1.948  1.6206  1.6773  1.6051
 4339TIP3    H212982   3.100   0.508   1.834  1.9531  3.4303  1.2025
 4340TIP3   OH212983   5.260   2.728   0.384 -0.0092 -0.4513 -0.3773
 4340TIP3    H112984   5.331   2.699   0.440 -0.4854 -1.2116 -0.1458
 4340TIP3    H212985   5.182   2.726   0.441 -0.2696  0.0747 -0.7040
 4341TIP3   OH212986   5.210   4.276   3.597  0.4691  0.5809  0.6421
 4341TIP3    H112987   5.209   4.310   3.508  1.5354 -1.0309 -0.0328
 4341TIP3    H212988   5.121   4.291   3.630 -0.4906 -0.4062 -1.3384
 4342TIP3   OH212989   0.667   6.247   4.658  0.3205  0.2549  0.0228
 4342TIP3    H112990   0.600   6.310   4.683 -1.1905 -0.4553 -1.9195
 4342TIP3    H212991   0.676   6.189   4.734 -1.3877  0.2964  0.2942
 4343TIP3   OH212992   6.706   2.630   1.783  0.0607 -0.0541 -0.2086
 4343TIP3    H112993   6.624   2.616   1.831  0.3442 -0.2267  0.2357
 4343TIP3    H212994   6.754   2.694   1.836  1.1134 -1.4865  0.6853
 4344TIP3   OH212995   2.679   0.505   4.835  0.3081  0.1472 -0.5180
 4344TIP3    H112996   2.717   0.567   4.896  0.5248  0.2180 -0.7265
 4344TIP3    H212997   2.733   0.427   4.843 -0.7770 -0.5279  0.7681
 4345TIP3   OH212998   2.644   3.185   1.556 -0.0312 -0.7234  0.3731
 4345TIP3    H112999   2.622   3.213   1.467 -0.1585 -2.2644 -0.0958
 4345TIP3    H213000   2.606   3.253   1.612  1.5261  1.1953 -0.7776
 4346TIP3   OH213001   3.751   3.759   3.028  0.3462 -0.2201 -0.0789
 4346TIP3    H113002   3.815   3.694   3.060  0.4387  0.6992  1.7750
 4346TIP3    H213003   3.679   3.707   2.993  0.5419 -1.3567  1.1056
 4347TIP3   OH213004   1.849   2.476   4.693 -0.0352 -0.3289  0.1498
 4347TIP3    H113005   1.900   2.417   4.637 -0.3704 -1.5508  1.0617
 4347TIP3    H213006   1.803   2.417   4.753 -2.1022  0.7580 -0.2858
 4348TIP3   OH213007   4.876   0.398   1.829 -0.2924  0.1229  0.3020
 4348TIP3    H113008   4.970   0.380   1.823 -0.3509 -0.2331  0.4589
 4348TIP3    H213009   4.857   0.393   1.922  0.3098  4.1501  0.8205
 4349TIP3   OH213010   0.579   1.272   2.036  0.2204 -0.5343  0.0144
 4349TIP3    H113011   0.528   1.353   2.038  1.8875  0.5750  1.7306
 4349TIP3    H213012   0.618   1.270   1.948  0.3340  0.6639  0.0182
 4350TIP3   OH213013   1.508   5.063   0.530 -0.0204  0.0837  0.4040
 4350TIP3    H113014   1.566   5.099   0.463 -1.6685 -1.6660 -2.1785
 4350TIP3    H213015   1.525   4.969   0.528 -3.5407 -0.7001 -1.3389
 4351TIP3   OH213016   5.307   1.209   5.043  0.2146 -0.5564 -0.0306
 4351TIP3    H113017   5.321   1.264   5.120 -0.3108  0.2153 -0.4729
 4351TIP3    H213018   5.392   1.207   4.999  1.6410 -3.9621  2.3700
 4352TIP3   OH213019   5.961   3.857   0.280 -0.1059 -0.3325  0.0434
 4352TIP3    H113020   5.925   3.771   0.261 -2.7716  0.5637  0.6238
 4352TIP3    H213021   5.922   3.914   0.213  1.6118  0.4595 -0.3355
 4353TIP3   OH213022   6.037   2.855   1.643  0.3677 -0.2238 -0.2131
 4353TIP3    H113023   6.045   2.910   1.721 -0.0159  0.8478 -0.9128
 4353TIP3    H213024   6.122   2.861   1.600  0.2230  0.0937 -0.4591
 4354TIP3   OH213025   2.324   3.200   3.431 -0.0003  0.1398 -0.5608
 4354TIP3    H113026   2.312   3.105   3.441 -1.3504  0.2305 -1.1315
 4354TIP3    H213027   2.269   3.238   3.499 -1.0782  0.5420 -1.6350
 4355TIP3   OH213028   6.858   2.015   4.660  0.0852  0.3723 -0.3025
 4355TIP3    H113029   6.899   2.025   4.574 -1.0344  0.2258 -0.8623
 4355TIP3    H213030   6.910   1.947   4.703  0.1476 -0.1524 -1.1850
 4356TIP3   OH213031   6.666   6.330   0.417 -0.1689 -0.4728 -0.7194
 4356TIP3    H113032   6.641   6.346   0.509  0.3582  0.5218 -0.7326
 4356TIP3    H213033   6.756   6.362   0.411  0.0077 -1.0888 -1.4429
 4357TIP3   OH213034   5.244   1.048   3.455  0.0760 -0.2446 -0.3831
 4357TIP3    H113035   5.292   0.974   3.492  0.9997 -0.3736 -1.7870
 4357TIP3    H213036   5.160   1.047   3.502  0.4316 -1.5916  0.2830
 4358TIP3   OH213037   0.954   0.940   2.727  0.0107  0.1438  0.4976
 4358TIP3    H113038   0.929   1.029   2.704 -1.6022 -0.5872 -0.8268
 4358TIP3    H213039   1.049   0.941   2.731 -0.0012  2.0500  1.1735
 4359TIP3   OH213040   2.042   2.521   0.686  0.3334 -0.5506  0.5865
 4359TIP3    H113041   2.083   2.602   0.655 -0.9430 -0.5666 -1.2737
 4359TIP3    H213042   1.956   2.520   0.645 -0.9659 -1.3205  3.0780
 4360TIP3   OH213043   0.787   3.520   2.731  0.0324  0.1568  0.1878
 4360TIP3    H113044   0.851   3.559   2.671 -0.7450  0.4099 -0.5060
 4360TIP3    H213045   0.790   3.426   2.713 -0.3828  0.2599 -0.4524
 4361TIP3   OH213046   5.647   2.501   0.219  0.0167  0.1916 -0.0579
 4361TIP3    H113047   5.647   2.433   0.151 -2.0212  0.2805 -0.1889
 4361TIP3    H213048   5.655   2.583   0.171  2.2947  0.1332  0.0910
 4362TIP3   OH213049   1.828   3.943   3.929 -0.4948 -0.0315 -0.1079
 4362TIP3    H113050   1.828   4.005   3.857  1.6639  2.2300  1.6513
 4362TIP3    H213051   1.901   3.884   3.911 -0.3044  0.1874 -0.0561
 4363TIP3   OH213052   0.918   3.687   1.215 -0.1762 -0.2802  0.3117
 4363TIP3    H113053   0.953   3.774   1.199  0.0644 -0.5449 -0.6073
 4363TIP3    H213054   0.825   3.702   1.234 -0.4615  0.0561 -1.2466
 4364TIP3   OH213055   1.883   1.837   2.054  0.2307  0.1447 -0.5288
 4364TIP3    H113056   1.919   1.751   2.074 -1.0219 -0.3851 -0.4796
 4364TIP3    H213057   1.790   1.821   2.036 -0.0783  1.5118 -0.2647
 4365TIP3   OH213058   1.826   5.258   2.730  0.4727 -0.1792  0.1583
 4365TIP3    H113059   1.757   5.323   2.720  0.0143 -0.9275 -2.1287
 4365TIP3    H213060   1.785   5.174   2.708  1.7572 -0.8490  0.1722
 4366TIP3   OH213061   5.173   4.105   4.440 -0.6604  0.4679  0.7299
 4366TIP3    H113062   5.238   4.142   4.381 -1.1862  1.8651  0.9890
 4366TIP3    H213063   5.204   4.016   4.459  0.6454  0.7808  0.0952
 4367TIP3   OH213064   6.741   1.415   5.321 -1.0048 -0.0585  0.2254
 4367TIP3    H113065   6.741   1.506   5.290 -0.4699 -0.0726  0.1721
 4367TIP3    H213066   6.831   1.399   5.349 -1.0348 -0.6564 -0.0036
 4368TIP3   OH213067   4.853   6.276   5.902 -0.2172  0.7542  0.1675
 4368TIP3    H113068   4.791   6.348   5.910 -0.3698  0.6048  0.3362
 4368TIP3    H213069   4.879   6.277   5.810 -0.4478  0.8377  0.1021
 4369TIP3   OH213070   1.879   0.651   3.054  0.4809 -0.0618 -0.4382
 4369TIP3    H113071   1.936   0.623   2.982  0.0472  2.4118 -1.8605
 4369TIP3    H213072   1.791   0.633   3.022  0.2854  1.0197 -0.5304
 4370TIP3   OH213073   5.520   0.327   3.749 -0.3424 -0.1668 -0.0573
 4370TIP3    H113074   5.607   0.308   3.714 -0.6742 -1.3296 -0.2858
 4370TIP3    H213075   5.473   0.244   3.743 -0.8232 -0.0836  1.9557
 4371TIP3   OH213076   1.254   6.149   5.899 -0.0143 -0.3214  0.1098
 4371TIP3    H113077   1.302   6.066   5.894  0.5244 -0.0112  0.0580
 4371TIP3    H213078   1.297   6.205   5.835 -1.6852 -0.6381 -1.3781
 4372TIP3   OH213079   4.860   1.388   0.911  0.2971 -0.3207  0.1391
 4372TIP3    H113080   4.872   1.325   0.982  3.0513  1.0388  0.9797
 4372TIP3    H213081   4.944   1.390   0.866 -0.3190  1.3851 -1.0336
 4373TIP3   OH213082   1.921   0.304   5.108  0.1491  0.0736  0.4915
 4373TIP3    H113083   1.879   0.285   5.024 -2.3774 -0.3515  1.7475
 4373TIP3    H213084   1.862   0.365   5.152  1.4575  0.3860  1.9134
 4374TIP3   OH213085   5.425   1.517   0.789 -0.5880 -0.0402  0.8682
 4374TIP3    H113086   5.435   1.609   0.764 -0.1908 -0.4800 -0.6937
 4374TIP3    H213087   5.481   1.507   0.866 -0.5566  0.9910  0.9942
 4375TIP3   OH213088   1.125   6.385   3.583  0.1848  0.1219  0.1834
 4375TIP3    H113089   1.195   6.321   3.570 -0.2780 -0.2931 -0.3209
 4375TIP3    H213090   1.066   6.344   3.646 -1.0785 -0.7849 -1.4981
 4376TIP3   OH213091   1.079   0.428   1.320 -0.1948  0.6315  0.2785
 4376TIP3    H113092   1.127   0.417   1.402 -0.0131  3.1483  0.6088
 4376TIP3    H213093   0.998   0.378   1.332 -0.3032  1.1849  2.1369
 4377TIP3   OH213094   0.094   0.125   5.642 -0.9848 -0.8320 -0.4429
 4377TIP3    H113095  -0.000   0.140   5.633 -0.8999 -0.6691 -1.1789
 4377TIP3    H213096   0.114   0.056   5.578 -0.3548  0.2645 -1.4882
 4378TIP3   OH213097   4.533   6.238   5.664  0.2015 -0.3943  0.7086
 4378TIP3    H113098   4.481   6.265   5.739 -0.7844  0.0954 -0.1186
 4378TIP3    H213099   4.515   6.144   5.655  0.9591 -0.6265  1.5562
 4379TIP3   OH213100   1.527   4.326   0.123 -0.1062  0.3956  0.5965
 4379TIP3    H113101   1.578   4.311   0.043 -0.5266  0.1064  0.3757
 4379TIP3    H213102   1.577   4.282   0.192  0.9030  1.6914  0.7325
 4380TIP3   OH213103   6.642   4.968   3.055  0.3523 -0.5027  0.1507
 4380TIP3    H113104   6.652   4.994   3.146 -1.5564 -0.8897  0.5003
 4380TIP3    H213105   6.626   5.050   3.008  0.8579 -0.3616  0.2107
 4381TIP3   OH213106   5.270   0.973   5.482 -0.0471 -0.0323  0.1948
 4381TIP3    H113107   5.244   0.977   5.574 -0.0314  0.5754  0.1745
 4381TIP3    H213108   5.359   1.009   5.481  0.5389 -1.3850  0.1531
 4382TIP3   OH213109   4.944   3.717   1.050  0.3697 -0.0301 -0.1895
 4382TIP3    H113110   4.901   3.717   1.136  0.3753 -1.2731 -0.1699
 4382TIP3    H213111   5.032   3.751   1.068  0.0532  0.6532  0.1151
 4383TIP3   OH213112   5.416   0.101   3.864 -0.0792 -0.0272 -0.2292
 4383TIP3    H113113   5.492   0.110   3.922  0.8722 -2.4798 -0.9510
 4383TIP3    H213114   5.399   0.007   3.862 -3.8610  0.4887  0.7169
 4384TIP3   OH213115   5.787   4.702   0.382  0.1508  0.1179  0.4390
 4384TIP3    H113116   5.787   4.635   0.450 -0.3276  1.4552  1.8351
 4384TIP3    H213117   5.732   4.666   0.312  0.8107 -1.3707  0.6466
 4385TIP3   OH213118   0.386   2.443   2.494 -0.1385  0.5751  0.6538
 4385TIP3    H113119   0.401   2.521   2.547 -0.6386  0.7317  0.5743
 4385TIP3    H213120   0.366   2.374   2.557  2.3295 -0.0326  0.8881
 4386TIP3   OH213121   1.386   6.735   4.719 -0.4614 -0.0504  0.4315
 4386TIP3    H113122   1.298   6.748   4.683 -0.4082 -0.1261  0.2753
 4386TIP3    H213123   1.375   6.664   4.782 -0.0594 -1.7544 -1.3204
 4387TIP3   OH213124   5.707   2.629   1.442 -0.1076 -0.2350 -0.3039
 4387TIP3    H113125   5.620   2.663   1.461 -0.5203 -1.0585 -0.7007
 4387TIP3    H213126   5.711   2.547   1.491  0.0398 -0.7426 -1.1682
 4388TIP3   OH213127   5.355   0.435   3.943 -0.2673  0.2002 -0.3471
 4388TIP3    H113128   5.390   0.380   3.873  0.9594 -1.5825  1.5726
 4388TIP3    H213129   5.412   0.512   3.945  0.1285 -0.0816 -0.8141
 4389TIP3   OH213130   3.231   6.574   2.456  0.0127 -0.0645 -0.3929
 4389TIP3    H113131   3.176   6.593   2.532  0.3657  0.8373 -0.3581
 4389TIP3    H213132   3.200   6.488   2.426  0.3315 -0.7677  1.1655
 4390TIP3   OH213133   6.905   2.355   0.764  0.0887  0.2413 -0.2717
 4390TIP3    H113134   6.883   2.388   0.851 -0.8121 -0.3528 -0.2568
 4390TIP3    H213135   6.993   2.387   0.748  0.8021 -0.7642  1.4261
 4391TIP3   OH213136   2.088   5.610   5.000 -0.6174 -0.0978  0.1117
 4391TIP3    H113137   2.126   5.669   5.065 -3.1189  1.8355 -0.0038
 4391TIP3    H213138   2.139   5.625   4.921  0.2677  0.1532  0.7164
 4392TIP3   OH213139   2.518   1.680   3.291  0.0388 -0.2538  0.6081
 4392TIP3    H113140   2.457   1.607   3.303  2.7600 -2.6278  1.0537
 4392TIP3    H213141   2.593   1.642   3.246  1.8166  2.1713  1.2812
 4393TIP3   OH213142   6.090   2.782   4.430 -0.0349 -0.5601 -0.3138
 4393TIP3    H113143   6.075   2.875   4.448  1.4131 -0.3964  0.2065
 4393TIP3    H213144   6.053   2.736   4.505  4.0544 -0.0081  2.3721
 4394TIP3   OH213145   0.942   4.858   4.625  0.1953  0.4948 -0.4966
 4394TIP3    H113146   0.864   4.885   4.577 -0.2393 -0.3138 -0.2644
 4394TIP3    H213147   0.911   4.841   4.714  1.1207  2.7327  0.3282
 4395TIP3   OH213148   4.764   6.615   1.902  0.2221  0.1769 -0.5189
 4395TIP3    H113149   4.819   6.574   1.970 -1.5941 -0.6414  0.5276
 4395TIP3    H213150   4.820   6.684   1.865  1.9281 -0.5738  0.5158
 4396TIP3   OH213151   5.303   4.240   1.621 -0.0833  0.5266 -0.5809
 4396TIP3    H113152   5.238   4.202   1.561  0.6218 -0.0942 -0.9721
 4396TIP3    H213153   5.371   4.274   1.563 -0.3976  1.8481 -0.2034
 4397TIP3   OH213154   3.973   4.044   5.131 -0.1179 -0.3125 -0.4218
 4397TIP3    H113155   3.923   4.104   5.186 -1.5191 -1.7995  0.0227
 4397TIP3    H213156   4.058   4.036   5.174 -0.5067  0.0593  0.4247
 4398TIP3   OH213157   2.215   1.488   5.217 -0.1260  0.0640  0.1278
 4398TIP3    H113158   2.153   1.559   5.199 -0.4780 -0.1131  0.6197
 4398TIP3    H213159   2.194   1.421   5.152 -0.0304  0.2601 -0.1083
 4399TIP3   OH213160   5.547   2.723   2.736  0.3161 -0.6394  0.1299
 4399TIP3    H113161   5.517   2.667   2.664  0.7950 -1.8888  0.8539
 4399TIP3    H213162   5.635   2.750   2.711  0.4000 -0.8944  0.1497
 4400TIP3   OH213163   4.945   2.696   2.046 -0.2138 -0.1925  0.1490
 4400TIP3    H113164   4.966   2.780   2.005  0.4899 -0.3112  0.2594
 4400TIP3    H213165   4.890   2.720   2.121  2.5925  0.5340  2.1665
 4401TIP3   OH213166   0.742   5.132   1.869 -0.3886  0.1874  0.8507
 4401TIP3    H113167   0.786   5.140   1.953 -0.6853 -0.3857  1.0672
 4401TIP3    H213168   0.747   5.220   1.830 -1.0737  0.6833  1.8669
 4402TIP3   OH213169   1.589   5.755   5.692 -0.0214  0.3861 -0.1579
 4402TIP3    H113170   1.660   5.815   5.669  0.4197 -0.6587 -1.6819
 4402TIP3    H213171   1.629   5.691   5.751  0.3111 -0.1981 -1.0107
 4403TIP3   OH213172   4.096   4.984   4.830 -0.6125  0.4099  0.3728
 4403TIP3    H113173   4.051   4.960   4.750  1.7874 -2.7216 -0.2238
 4403TIP3    H213174   4.029   4.982   4.898 -2.1833  0.5209 -1.1321
 4404TIP3   OH213175   6.457   6.308   3.161  0.5504 -0.4533 -0.5811
 4404TIP3    H113176   6.421   6.219   3.165  0.9832 -0.6150 -0.3227
 4404TIP3    H213177   6.460   6.337   3.253 -3.9650  1.5948 -0.8009
 4405TIP3   OH213178   2.830   1.508   5.213  0.3876 -0.0494  0.0170
 4405TIP3    H113179   2.743   1.485   5.179  0.5137 -0.9485  0.2768
 4405TIP3    H213180   2.818   1.593   5.256  0.3270  1.4136 -2.6710
 4406TIP3   OH213181   7.007   1.148   1.583  0.4206 -0.2502 -0.7750
 4406TIP3    H113182   7.030   1.143   1.676 -0.6412  1.0181 -0.4196
 4406TIP3    H213183   7.057   1.223   1.551 -1.5250  1.2464 -0.4715
 4407TIP3   OH213184   3.142   3.542   4.715 -0.6332 -0.1900  0.8446
 4407TIP3    H113185   3.173   3.477   4.779  2.3839 -0.3518 -0.5866
 4407TIP3    H213186   3.101   3.490   4.646 -1.3849 -0.2473  1.3258
 4408TIP3   OH213187   3.736   0.976   5.454 -0.2256  0.0199 -0.3903
 4408TIP3    H113188   3.669   0.908   5.457  1.2634 -1.4694  1.2122
 4408TIP3    H213189   3.721   1.020   5.370 -2.2415 -1.2209 -0.7557
 4409TIP3   OH213190   2.835   2.000   3.696 -0.5227 -0.3732 -0.2033
 4409TIP3    H113191   2.921   2.019   3.658  0.1877 -2.2559  0.3207
 4409TIP3    H213192   2.844   2.022   3.788 -0.9329  0.3820 -0.3433
 4410TIP3   OH213193   1.551   3.619   4.226  0.2510 -0.2998 -0.2482
 4410TIP3    H113194   1.481   3.627   4.162 -1.5062  1.8023  1.7737
 4410TIP3    H213195   1.517   3.559   4.293  0.7336  0.0622  0.3340
 4411TIP3   OH213196   7.200   5.385   5.820 -0.2886 -1.1752  0.0207
 4411TIP3    H113197   7.158   5.462   5.858  0.2043 -1.2243  0.6996
 4411TIP3    H213198   7.242   5.417   5.741  1.2090 -0.3757  1.0808
 4412TIP3   OH213199   0.282   0.910   5.842  0.5378  0.2772  0.5377
 4412TIP3    H113200   0.350   0.858   5.885  3.2788  0.6609 -2.8944
 4412TIP3    H213201   0.241   0.849   5.780 -0.2076  0.7927  0.5097
 4413TIP3   OH213202   6.595   1.796   0.632  0.0764 -0.5743 -0.6785
 4413TIP3    H113203   6.507   1.761   0.640 -0.2926  0.2127 -1.1352
 4413TIP3    H213204   6.606   1.810   0.538  0.6785 -0.6310 -0.6199
 4414TIP3   OH213205   0.636   0.171   1.222 -0.4831  0.3234  0.2602
 4414TIP3    H113206   0.541   0.179   1.215 -0.4227  0.6218 -0.3193
 4414TIP3    H213207   0.650   0.080   1.247 -0.8373 -0.6002 -2.4987
 4415TIP3   OH213208   2.818   6.162   0.195 -0.5427  0.0049 -0.1464
 4415TIP3    H113209   2.790   6.168   0.287 -1.6807  0.0803 -0.4734
 4415TIP3    H213210   2.907   6.128   0.199  0.2799  2.0945  1.0981
 4416TIP3   OH213211   5.926   2.455   0.336  0.3777  0.0304  0.2498
 4416TIP3    H113212   5.937   2.410   0.419  4.8048  1.1297  0.4761
 4416TIP3    H213213   5.969   2.540   0.347 -1.8550  1.6921 -2.2006
 4417TIP3   OH213214   3.996   0.230   0.634  0.2578 -0.3723  0.1935
 4417TIP3    H113215   3.955   0.230   0.720 -0.4256 -2.3450 -0.0870
 4417TIP3    H213216   4.074   0.175   0.644 -0.9051 -2.3193 -0.8665
 4418TIP3   OH213217   7.098   6.208   5.311 -0.2218 -0.7571  0.4362
 4418TIP3    H113218   7.049   6.289   5.323 -0.7470 -0.7907 -1.2258
 4418TIP3    H213219   7.188   6.231   5.331 -0.1442  0.6076 -1.2448
 4419TIP3   OH213220   2.944   0.575   3.681 -0.3644 -0.1139  0.2018
 4419TIP3    H113221   2.864   0.550   3.635 -0.0678 -0.3923 -0.1756
 4419TIP3    H213222   2.928   0.551   3.772 -0.4885 -0.7107  0.0267
 4420TIP3   OH213223   0.893   2.550   2.853  0.1073 -0.1382 -0.0060
 4420TIP3    H113224   0.905   2.639   2.820  0.1140  0.2566  1.0227
 4420TIP3    H213225   0.981   2.514   2.858  0.0365 -0.5863 -1.3796
 4421TIP3   OH213226   5.425   1.736   1.986 -0.2577 -0.9476 -0.1855
 4421TIP3    H113227   5.430   1.741   2.081  1.6886 -0.4429 -0.2719
 4421TIP3    H213228   5.364   1.664   1.969 -0.6509 -1.0373  1.4232
 4422TIP3   OH213229   3.397   0.694   0.493  0.0593  0.1158  0.1684
 4422TIP3    H113230   3.338   0.738   0.554 -0.1760 -1.2379  0.9582
 4422TIP3    H213231   3.349   0.692   0.411 -0.2120  0.6918  0.3055
 4423TIP3   OH213232   3.474   2.089   1.278  0.5319  0.1998  0.1598
 4423TIP3    H113233   3.466   2.064   1.370  1.9036 -0.4496  0.1303
 4423TIP3    H213234   3.482   2.184   1.280  1.0834  0.1533  0.7725
 4424TIP3   OH213235   6.743   2.480   4.238 -0.1915 -0.3751  0.2631
 4424TIP3    H113236   6.672   2.490   4.175  0.0863 -1.0135 -0.1517
 4424TIP3    H213237   6.734   2.390   4.270  1.6948 -1.2111 -1.3536
 4425TIP3   OH213238   2.112   0.240   0.692 -0.1082  0.1297 -0.3185
 4425TIP3    H113239   2.046   0.305   0.716  1.1778  0.7264  1.8793
 4425TIP3    H213240   2.110   0.238   0.596 -1.3101  2.2279 -0.3909
 4426TIP3   OH213241   1.051   0.347   2.957 -0.5213 -0.1555  0.2418
 4426TIP3    H113242   0.984   0.314   2.898  0.2744 -2.0430  0.3259
 4426TIP3    H213243   1.131   0.300   2.933  0.0415 -0.3219  2.2063
 4427TIP3   OH213244   4.058   2.944   1.559  0.3787  0.0081  0.1586
 4427TIP3    H113245   4.072   2.856   1.524 -0.8741  0.1941 -0.8811
 4427TIP3    H213246   4.087   3.002   1.489  0.6530  0.4129  0.6088
 4428TIP3   OH213247   6.223   2.102   0.015  0.3161 -0.7793  0.5568
 4428TIP3    H113248   6.292   2.148   0.062 -0.9269 -0.0969  1.7944
 4428TIP3    H213249   6.176   2.170  -0.033 -1.0585 -0.7998  1.7895
 4429TIP3   OH213250   5.157   3.498   1.190  0.2535  0.4762  0.5957
 4429TIP3    H113251   5.061   3.497   1.193  0.2657  0.7235  1.1017
 4429TIP3    H213252   5.178   3.577   1.141  0.1904 -0.0398 -0.2979
 4430TIP3   OH213253   6.037   1.605   5.809 -0.0112 -0.6753 -0.8229
 4430TIP3    H113254   5.973   1.666   5.844  0.3136 -1.5181  1.3666
 4430TIP3    H213255   5.986   1.530   5.779 -0.0761 -1.7312  1.7319
 4431TIP3   OH213256   7.035   0.545   5.201 -0.2917 -0.3736 -0.0888
 4431TIP3    H113257   7.040   0.465   5.149 -2.6304 -1.1599  0.7565
 4431TIP3    H213258   7.002   0.611   5.141 -1.6149 -0.9318 -0.0288
 4432TIP3   OH213259   3.275   5.485   1.191  0.3952 -0.3854 -0.0334
 4432TIP3    H113260   3.275   5.392   1.215 -0.1354 -0.6132 -0.8892
 4432TIP3    H213261   3.288   5.531   1.274 -1.4916 -1.1460  0.7208
 4433TIP3   OH213262   6.840   5.906   4.064 -0.4795  0.2781  0.3717
 4433TIP3    H113263   6.890   5.826   4.082  0.1118  1.1025  2.8143
 4433TIP3    H213264   6.824   5.944   4.151 -0.7907  2.7794 -0.7043
 4434TIP3   OH213265   2.004   2.004   2.644  0.6151 -0.2727  0.1678
 4434TIP3    H113266   2.058   2.004   2.565 -0.5614  0.0744 -0.6739
 4434TIP3    H213267   1.926   1.954   2.619  0.7823 -1.2761  1.5301
 4435TIP3   OH213268   2.756   2.599   1.281 -0.2768  0.3985 -0.0577
 4435TIP3    H113269   2.838   2.581   1.326  1.1170 -1.5202 -3.0477
 4435TIP3    H213270   2.770   2.684   1.239 -0.4947  0.8475  0.7557
 4436TIP3   OH213271   5.813   5.511   0.668 -0.5543 -0.1902  0.0438
 4436TIP3    H113272   5.854   5.540   0.749  1.5348 -1.4291 -0.5025
 4436TIP3    H213273   5.864   5.553   0.599 -1.5787 -0.0633 -0.6539
 4437TIP3   OH213274   4.351   0.668   4.995  0.1907 -0.0513  0.4471
 4437TIP3    H113275   4.284   0.640   5.056  0.6972 -0.5183  0.8006
 4437TIP3    H213276   4.430   0.622   5.023  1.0147  1.6031  0.9436
 4438TIP3   OH213277   5.283   1.161   3.727  0.5150 -0.3991  0.1144
 4438TIP3    H113278   5.333   1.232   3.686 -0.1981 -0.0482 -0.1670
 4438TIP3    H213279   5.278   1.094   3.659 -1.1942  0.4325 -0.6313
 4439TIP3   OH213280   1.299   0.567   2.959  0.2416 -0.0756 -0.0956
 4439TIP3    H113281   1.270   0.508   2.889 -1.6685  3.6843 -2.8504
 4439TIP3    H213282   1.220   0.587   3.009  0.4454  1.3683 -0.2977
 4440TIP3   OH213283   3.085   0.818   3.704 -0.0595 -0.2532 -0.2698
 4440TIP3    H113284   3.028   0.742   3.691 -1.5133  0.3283  2.1332
 4440TIP3    H213285   3.145   0.792   3.774  0.2086  0.3979 -0.2501
 4441TIP3   OH213286   0.881   4.015   0.359  0.4084 -0.3561 -0.3619
 4441TIP3    H113287   0.918   4.069   0.429  0.7162 -0.6097 -0.3257
 4441TIP3    H213288   0.816   3.960   0.403  0.2092 -0.1308 -0.3717
 4442TIP3   OH213289   5.509   2.716   0.693  0.0508  0.4406 -0.1650
 4442TIP3    H113290   5.505   2.765   0.776 -0.8810 -0.1065  0.1363
 4442TIP3    H213291   5.592   2.742   0.654  0.2649  1.1204  0.6927
 4443TIP3   OH213292   4.252   2.276   4.451  0.6162 -0.0730 -0.7494
 4443TIP3    H113293   4.291   2.252   4.367  0.7136 -0.9510 -0.4722
 4443TIP3    H213294   4.184   2.210   4.466  1.3334 -0.6047  0.3605
 4444TIP3   OH213295   1.426   2.696   0.419 -0.1136  0.8799 -0.2558
 4444TIP3    H113296   1.434   2.657   0.506  0.7836  1.3039 -0.1265
 4444TIP3    H213297   1.494   2.653   0.368 -0.6943  0.5742 -0.7700
 4445TIP3   OH213298   1.516   4.468   2.945 -0.4261  0.0856 -0.0134
 4445TIP3    H113299   1.574   4.479   3.021  1.2175  1.4424 -1.3888
 4445TIP3    H213300   1.473   4.553   2.934 -1.6409 -0.4876  0.1330
 4446TIP3   OH213301   4.313   1.690   4.183  0.3088 -0.4397 -0.3049
 4446TIP3    H113302   4.395   1.669   4.137  0.8420  0.0927  0.3686
 4446TIP3    H213303   4.341   1.708   4.273 -0.1325  2.5256 -0.6653
 4447TIP3   OH213304   1.084   0.974   2.303  0.1210 -1.0605  0.1113
 4447TIP3    H113305   1.003   1.007   2.344  0.2610 -1.2285  0.5336
 4447TIP3    H213306   1.150   1.038   2.327 -0.2213  0.0647 -1.7576
 4448TIP3   OH213307   4.660   3.136   3.364 -0.9666 -0.4752  0.1587
 4448TIP3    H113308   4.717   3.213   3.355  0.3646 -1.2357  1.5678
 4448TIP3    H213309   4.575   3.172   3.390 -0.6918  0.5889 -0.3607
 4449TIP3   OH213310   6.824   0.937   3.408 -0.3584 -0.0240 -0.2201
 4449TIP3    H113311   6.875   0.859   3.427 -1.5264 -0.5965  0.6953
 4449TIP3    H213312   6.871   0.980   3.336  0.7453 -1.1256 -0.1832
 4450TIP3   OH213313   4.276   2.192   0.338  0.1232 -0.2840  0.6737
 4450TIP3    H113314   4.269   2.197   0.434  1.1506 -0.4458  0.7744
 4450TIP3    H213315   4.225   2.115   0.314  0.2524 -0.5199  1.1462
 4451TIP3   OH213316   2.265   1.859   2.983 -0.3393 -0.2441  0.0655
 4451TIP3    H113317   2.222   1.807   2.915  0.1765 -1.2222  0.4516
 4451TIP3    H213318   2.336   1.905   2.937  0.7230 -1.7651  0.0838
 4452TIP3   OH213319   0.915   5.304   0.598  0.8550  0.1261 -0.2235
 4452TIP3    H113320   0.885   5.390   0.569 -2.2275 -1.3875 -1.9328
 4452TIP3    H213321   0.985   5.282   0.537  1.2997  1.1547 -0.1119
 4453TIP3   OH213322   1.516   1.566   5.233  0.1943  0.2085  0.1791
 4453TIP3    H113323   1.494   1.646   5.280  0.7555  1.0749 -0.9612
 4453TIP3    H213324   1.548   1.596   5.148 -2.5081 -1.3277 -1.5440
 4454TIP3   OH213325   3.344   1.338   4.373 -0.3892 -0.0679  0.2946
 4454TIP3    H113326   3.340   1.243   4.360  1.0979 -0.0139 -0.7656
 4454TIP3    H213327   3.396   1.349   4.452 -1.3302 -0.1553  0.9293
 4455TIP3   OH213328   2.513   6.477   3.241 -0.1677 -0.0956  0.3704
 4455TIP3    H113329   2.507   6.540   3.169  2.6680  0.4669  0.5111
 4455TIP3    H213330   2.456   6.405   3.215 -1.2518  1.2360 -1.1664
 4456TIP3   OH213331   4.819   1.777   3.317  0.2459 -0.3699 -0.5779
 4456TIP3    H113332   4.905   1.753   3.282  0.7016  2.3734 -1.5746
 4456TIP3    H213333   4.839   1.829   3.395 -0.5523 -0.5731 -0.2314
 4457TIP3   OH213334   1.210   5.827   4.465  0.1342 -0.0988  0.7173
 4457TIP3    H113335   1.246   5.847   4.552  0.2462  1.6205  0.3091
 4457TIP3    H213336   1.145   5.760   4.481  0.1270  0.2112  2.1483
 4458TIP3   OH213337   6.807   5.455   3.662 -0.7066  0.3663 -0.4134
 4458TIP3    H113338   6.848   5.506   3.732  0.1132 -1.3479  0.4058
 4458TIP3    H213339   6.716   5.445   3.690 -0.5832  0.3803 -0.0033
 4459TIP3   OH213340   5.036   5.847   4.488 -0.1159  0.1683 -0.1052
 4459TIP3    H113341   4.954   5.834   4.535  1.1540 -1.1098  1.9539
 4459TIP3    H213342   5.047   5.766   4.437  1.1610 -1.0279  1.9038
 4460TIP3   OH213343   1.908   4.251   2.511 -0.2234  0.2386  0.2730
 4460TIP3    H113344   1.904   4.182   2.577 -0.8811  1.5131  1.6164
 4460TIP3    H213345   1.993   4.292   2.523  0.8929 -1.3140 -1.6342
 4461TIP3   OH213346   4.034   6.073   3.468  0.5738  0.7561 -0.6922
 4461TIP3    H113347   4.088   6.038   3.539  0.3292  1.7003 -0.0307
 4461TIP3    H213348   4.087   6.143   3.429  0.5310  0.5271 -1.1736
 4462TIP3   OH213349   6.724   2.171   5.235 -0.1166  0.0412  0.0583
 4462TIP3    H113350   6.814   2.141   5.221  0.1040  1.0656 -0.8935
 4462TIP3    H213351   6.674   2.091   5.252  0.9726 -0.5422  0.6145
 4463TIP3   OH213352   0.524   2.299   1.396  0.2496  0.1093  0.1382
 4463TIP3    H113353   0.547   2.206   1.387  1.6048  0.4851 -0.3461
 4463TIP3    H213354   0.607   2.344   1.406 -0.4509  1.1822  1.4263
 4464TIP3   OH213355   0.863   2.025   1.050  0.9082  0.3224  0.7006
 4464TIP3    H113356   0.783   1.973   1.056  0.3893  1.0611  0.2903
 4464TIP3    H213357   0.838   2.103   1.001  2.1261  0.0920 -0.3486
 4465TIP3   OH213358   4.043   3.773   4.702 -0.2683  0.5383 -0.1064
 4465TIP3    H113359   4.010   3.775   4.791 -0.1504 -0.5294 -0.0223
 4465TIP3    H213360   4.021   3.859   4.666 -1.3084  0.5794  0.5879
 4466TIP3   OH213361   1.688   1.155   1.046 -0.0032  0.5726  0.0344
 4466TIP3    H113362   1.647   1.070   1.030 -2.1669  1.3085  1.1676
 4466TIP3    H213363   1.640   1.215   0.989  1.4856  1.0816 -0.7348
 4467TIP3   OH213364   6.806   4.154   4.458 -0.1480 -0.1868  0.0962
 4467TIP3    H113365   6.782   4.213   4.387 -0.2317 -0.6694 -0.2792
 4467TIP3    H213366   6.835   4.213   4.528  0.1770  0.2807 -0.4205
 4468TIP3   OH213367   1.677   0.852   1.229  0.1828  0.4740 -0.0122
 4468TIP3    H113368   1.690   0.795   1.154 -0.1785  1.9453 -1.2560
 4468TIP3    H213369   1.648   0.794   1.300  1.0491 -1.0169 -0.8409
 4469TIP3   OH213370   0.598   4.138   0.537  0.1004  0.4835  0.4214
 4469TIP3    H113371   0.513   4.093   0.537 -0.8431  2.1435  1.9281
 4469TIP3    H213372   0.659   4.072   0.569 -0.3130 -1.1429 -1.8553
 4470TIP3   OH213373   4.943   4.218   1.650 -0.1473  0.0468  0.3102
 4470TIP3    H113374   4.926   4.308   1.621 -0.9306  1.0523  3.4607
 4470TIP3    H213375   4.915   4.163   1.577 -2.9286  2.2506 -0.4657
 4471TIP3   OH213376   0.186   1.890   2.782  0.2961 -0.5079 -0.1419
 4471TIP3    H113377   0.159   1.967   2.831 -0.4200 -1.3556  0.8395
 4471TIP3    H213378   0.265   1.859   2.827 -0.1582 -1.0771  0.2947
 4472TIP3   OH213379   6.282   3.377   2.831 -0.0208  0.3778  0.4645
 4472TIP3    H113380   6.334   3.447   2.870 -0.4125  0.9400 -0.0106
 4472TIP3    H213381   6.204   3.371   2.887 -0.0305  0.3803  0.4508
 4473TIP3   OH213382   3.355   0.161   3.250  0.2585 -0.3963  0.1187
 4473TIP3    H113383   3.419   0.090   3.239 -0.1839 -0.7869  0.0310
 4473TIP3    H213384   3.310   0.140   3.332  0.3005 -0.0761  0.2246
 4474TIP3   OH213385   3.331   0.543   0.250  0.1036  0.4859  0.2563
 4474TIP3    H113386   3.380   0.487   0.309  2.6378  1.0527 -1.1360
 4474TIP3    H213387   3.242   0.544   0.285  0.1148 -3.6099  0.8318
 4475TIP3   OH213388   1.087   2.351   1.360  0.0503 -0.0808 -0.0543
 4475TIP3    H113389   1.076   2.278   1.420 -1.1165 -1.4641 -1.8311
 4475TIP3    H213390   1.008   2.404   1.372  0.1335  0.0097  0.0960
 4476TIP3   OH213391   3.101   4.909   5.745 -0.8521  0.1715 -0.4720
 4476TIP3    H113392   3.171   4.905   5.810 -1.0382 -0.9102 -0.3227
 4476TIP3    H213393   3.093   5.002   5.724  1.7367  0.2234 -1.6781
 4477TIP3   OH213394   4.558   1.402   4.124 -0.3728 -0.0714 -0.6516
 4477TIP3    H113395   4.534   1.367   4.210 -0.9611  0.0810 -0.7490
 4477TIP3    H213396   4.575   1.325   4.070 -2.2110 -0.2726 -1.0279
 4478TIP3   OH213397   1.934   5.515   3.730  0.1088 -0.2002 -0.3411
 4478TIP3    H113398   1.881   5.454   3.677  0.9710  0.9292 -2.6588
 4478TIP3    H213399   1.982   5.566   3.665  0.3601  2.1191  1.5703
 4479TIP3   OH213400   1.648   2.256   1.229  0.2122 -0.4774 -0.1454
 4479TIP3    H113401   1.595   2.235   1.152 -1.7027  1.0318  0.6697
 4479TIP3    H213402   1.738   2.247   1.199 -0.4757 -1.3364 -2.1504
 4480TIP3   OH213403   4.826   5.591   1.296  0.0862 -0.0720  0.7065
 4480TIP3    H113404   4.858   5.545   1.217 -0.5310  1.7402 -0.6608
 4480TIP3    H213405   4.902   5.591   1.355  0.8684 -0.6380 -0.2573
 4481TIP3   OH213406   1.030   5.362   0.898  0.2035 -0.5735  0.1372
 4481TIP3    H113407   1.014   5.450   0.864 -1.3928 -0.7115  0.4346
 4481TIP3    H213408   1.111   5.334   0.856 -0.5793  0.0671 -1.9554
 4482TIP3   OH213409   3.253   5.632   0.382  0.0303 -0.0562  0.7567
 4482TIP3    H113410   3.169   5.622   0.427 -0.2131 -0.7166  0.1750
 4482TIP3    H213411   3.315   5.654   0.451 -0.8435  1.7257  1.0308
 4483TIP3   OH213412   3.130   5.751   2.888  0.4090  0.2895 -1.1665
 4483TIP3    H113413   3.216   5.731   2.925  0.4197  1.5830 -0.4284
 4483TIP3    H213414   3.112   5.678   2.829  1.6808 -0.3767 -0.7784
 4484TIP3   OH213415   1.511   1.911   4.291 -0.5946 -0.2226 -0.1630
 4484TIP3    H113416   1.496   1.912   4.197 -1.2522 -0.3705 -0.0627
 4484TIP3    H213417   1.606   1.901   4.300 -0.2761  1.7418 -0.8212
 4485TIP3   OH213418   6.624   4.910   4.850 -0.5704  0.4124  0.1567
 4485TIP3    H113419   6.546   4.937   4.898  1.4055  2.3257  2.5374
 4485TIP3    H213420   6.658   4.836   4.899  0.0486  0.6816  0.1334
 4486TIP3   OH213421   1.121   3.635   5.583 -0.0248  0.2236 -0.7757
 4486TIP3    H113422   1.120   3.720   5.538  1.5663 -0.1004 -1.5040
 4486TIP3    H213423   1.029   3.615   5.600 -0.4434  1.9354 -0.8857
 4487TIP3   OH213424   3.279   4.239   2.231 -0.3678  0.0630 -0.0228
 4487TIP3    H113425   3.197   4.284   2.249 -0.1172  0.9397 -0.9724
 4487TIP3    H213426   3.261   4.185   2.154 -0.5182 -1.0832  0.7951
 4488TIP3   OH213427   0.828   6.568   5.759 -0.0135 -0.1919 -0.0139
 4488TIP3    H113428   0.744   6.603   5.788  0.2822  0.6424 -0.1135
 4488TIP3    H213429   0.892   6.606   5.820  0.3572 -0.2842 -0.3405
 4489TIP3   OH213430   5.884   1.083   5.023 -0.3138  0.7996  0.2513
 4489TIP3    H113431   5.834   1.118   5.096  0.1246 -0.6140  1.2518
 4489TIP3    H213432   5.845   0.998   5.004 -0.5089  1.1871 -1.2731
 4490TIP3   OH213433   6.097   3.042   0.367  0.7292  0.0821 -0.1483
 4490TIP3    H113434   6.163   2.972   0.365  0.7334  0.0124  1.2884
 4490TIP3    H213435   6.060   3.042   0.279  1.5150 -0.9713 -0.5084
 4491TIP3   OH213436   5.220   6.171   1.214  0.0888 -0.3055 -0.1507
 4491TIP3    H113437   5.167   6.092   1.205  0.7796 -0.6812 -1.0872
 4491TIP3    H213438   5.157   6.241   1.231 -0.7327 -0.6972 -1.5055
 4492TIP3   OH213439   3.947   5.140   1.298  0.7414  0.3464 -0.4395
 4492TIP3    H113440   3.901   5.108   1.376 -0.3701  0.6671 -0.9534
 4492TIP3    H213441   4.021   5.080   1.288 -2.0606 -3.1289 -2.2694
 4493TIP3   OH213442   4.020   6.575   1.977  0.1459  0.0803 -0.2285
 4493TIP3    H113443   4.045   6.522   2.053  0.6818 -1.2875 -1.3348
 4493TIP3    H213444   3.978   6.514   1.917  0.1867  1.0434 -1.2727
 4494TIP3   OH213445   0.984   1.987   5.078  0.0909 -0.1372 -0.4148
 4494TIP3    H113446   0.899   2.028   5.093 -0.0021 -0.5106  0.1155
 4494TIP3    H213447   1.037   2.013   5.154  0.1368 -0.7147 -0.2489
 4495TIP3   OH213448   4.987   3.792   4.953 -1.0781 -0.4355  0.1875
 4495TIP3    H113449   4.977   3.852   5.027 -1.9542 -0.8397  0.4067
 4495TIP3    H213450   4.902   3.794   4.910 -0.6562 -0.4122 -0.6590
 4496TIP3   OH213451   3.462   6.736   1.831  0.8205  0.3078 -0.9098
 4496TIP3    H113452   3.370   6.760   1.831  0.1908 -1.8493 -0.2188
 4496TIP3    H213453   3.497   6.773   1.750 -0.7238  0.9015 -1.3331
 4497TIP3   OH213454   0.968   3.274   4.546  0.1941  0.6182 -0.8343
 4497TIP3    H113455   0.981   3.319   4.463 -0.7476  0.9896 -0.7894
 4497TIP3    H213456   0.947   3.344   4.608 -0.7642  0.1770 -0.6448
 4498TIP3   OH213457   1.699   4.877   5.481  0.1305  0.6374  0.1307
 4498TIP3    H113458   1.746   4.902   5.401 -1.4451 -1.9753 -1.8035
 4498TIP3    H213459   1.758   4.817   5.526  0.4103  0.8736  0.0767
 4499TIP3   OH213460   2.935   2.475   3.707 -0.5452 -0.5570  0.0842
 4499TIP3    H113461   2.903   2.560   3.736 -3.3728 -1.6393  0.4469
 4499TIP3    H213462   2.916   2.473   3.614  0.2015 -0.5452 -0.0771
 4500TIP3   OH213463   1.960   5.442   0.272 -0.0539  0.5354 -0.2301
 4500TIP3    H113464   2.023   5.466   0.339  0.7089 -1.4716 -0.1608
 4500TIP3    H213465   1.875   5.459   0.312  0.3661 -1.2615  1.5688
 4501TIP3   OH213466   3.508   4.470   3.718 -0.1686  0.0273  0.4286
 4501TIP3    H113467   3.602   4.490   3.719 -0.2492  0.4757 -0.4592
 4501TIP3    H213468   3.492   4.433   3.631 -1.1901  1.8514 -0.2025
 4502TIP3   OH213469   1.129   2.507   4.335 -0.6426 -0.1760  0.5225
 4502TIP3    H113470   1.191   2.503   4.408 -0.1142 -0.6991  0.0630
 4502TIP3    H213471   1.162   2.579   4.280 -1.4280  0.6623  1.1317
 4503TIP3   OH213472   6.302   3.154   3.269 -0.5104 -0.6659 -0.2354
 4503TIP3    H113473   6.376   3.112   3.313 -0.0198 -0.6130 -0.9778
 4503TIP3    H213474   6.251   3.194   3.339  0.0745 -0.8604  0.3051
 4504TIP3   OH213475   0.719   6.280   4.977  0.0633  0.1831 -0.1647
 4504TIP3    H113476   0.780   6.323   5.037  0.1021 -1.0131  0.6966
 4504TIP3    H213477   0.667   6.352   4.940  1.9845  1.2208 -0.9549
 4505TIP3   OH213478   1.917   6.749   2.200  0.3007  0.3745 -0.1074
 4505TIP3    H113479   2.000   6.705   2.179 -0.3081 -0.5550 -0.6446
 4505TIP3    H213480   1.855   6.716   2.135 -1.6397 -2.5357  2.8448
 4506TIP3   OH213481   6.781   0.516   0.680 -0.3936 -0.3554 -0.5782
 4506TIP3    H113482   6.699   0.486   0.640 -1.1957  0.0599  0.7108
 4506TIP3    H213483   6.773   0.493   0.772 -0.2733  2.1507  0.1304
 4507TIP3   OH213484   0.211   0.954   1.582  0.7073  0.4911 -0.3189
 4507TIP3    H113485   0.178   1.019   1.520  1.0530 -0.0014 -1.0215
 4507TIP3    H213486   0.272   0.901   1.532  0.8189 -0.0605  0.3832
 4508TIP3   OH213487   1.872   0.672   3.332 -0.0778 -0.0292  0.4505
 4508TIP3    H113488   1.907   0.653   3.245 -1.8093 -1.3771 -0.0102
 4508TIP3    H213489   1.818   0.750   3.319 -0.5426 -0.3782  0.2305
 4509TIP3   OH213490   1.038   4.448   0.073 -0.0704 -0.3828 -0.2209
 4509TIP3    H113491   1.122   4.404   0.058 -1.0889 -2.2066 -0.9057
 4509TIP3    H213492   1.050   4.536   0.038  1.1198 -1.0600 -1.6274
 4510TIP3   OH213493   0.490   4.744   3.911  0.3649 -0.1009  0.0050
 4510TIP3    H113494   0.468   4.823   3.961 -2.8244 -1.8018  1.6654
 4510TIP3    H213495   0.426   4.742   3.840 -0.0909 -1.4581  0.4035
 4511TIP3   OH213496   1.355   5.442   1.534 -0.6195 -0.3206 -0.1508
 4511TIP3    H113497   1.300   5.486   1.468 -0.0260 -0.4945 -0.7665
 4511TIP3    H213498   1.324   5.477   1.618 -0.2997  1.1234 -0.6134
 4512TIP3   OH213499   2.977   5.324   5.342  0.3192  0.5566 -0.0255
 4512TIP3    H113500   2.914   5.383   5.300  0.2925  0.1336 -0.5972
 4512TIP3    H213501   3.001   5.262   5.273  3.1667  2.1050 -0.5734
 4513TIP3   OH213502   1.489   3.256   5.451  0.1106 -0.2491  0.3864
 4513TIP3    H113503   1.467   3.187   5.388  0.4118 -0.1677  0.1857
 4513TIP3    H213504   1.420   3.252   5.517 -1.6110  1.2860 -1.2267
 4514TIP3   OH213505   1.429   6.690   5.471 -0.0670  0.1758 -0.1596
 4514TIP3    H113506   1.510   6.740   5.483  0.7972 -1.0769 -0.6573
 4514TIP3    H213507   1.453   6.600   5.491 -1.5901 -0.0776  0.6532
 4515TIP3   OH213508   3.120   6.473   5.827 -0.0046 -0.0198 -0.0205
 4515TIP3    H113509   3.085   6.524   5.899  0.7445 -1.8440  1.7356
 4515TIP3    H213510   3.046   6.422   5.796 -0.7265  1.9208 -1.7047
 4516TIP3   OH213511   5.240   1.475   4.570 -0.1508  0.6590 -0.0921
 4516TIP3    H113512   5.228   1.418   4.645  0.0540 -1.0708 -1.3199
 4516TIP3    H213513   5.249   1.563   4.608 -0.8740 -0.0408  1.8214
 4517TIP3   OH213514   5.431   2.141   4.474  0.5349  0.0650 -0.1446
 4517TIP3    H113515   5.516   2.108   4.442  1.4975  0.6949  1.6245
 4517TIP3    H213516   5.438   2.236   4.466 -0.8101  0.0610 -1.8104
 4518TIP3   OH213517   6.408   6.097   2.860 -0.3169 -0.5681  0.0496
 4518TIP3    H113518   6.426   6.081   2.952  3.0038  2.2793  0.0993
 4518TIP3    H213519   6.436   6.017   2.816  0.2723 -1.0904  1.3208
 4519TIP3   OH213520   4.577   3.950   3.530 -0.1698 -0.2325  0.2655
 4519TIP3    H113521   4.485   3.926   3.514 -0.6809 -1.6178  4.2142
 4519TIP3    H213522   4.627   3.877   3.493 -0.5366  0.5521 -1.9550
 4520TIP3   OH213523   1.156   3.116   0.050 -0.3996 -0.0613  0.4255
 4520TIP3    H113524   1.106   3.045   0.091 -0.9428  0.8605  1.4203
 4520TIP3    H213525   1.090   3.174   0.013  0.0740 -0.6361 -1.4304
 4521TIP3   OH213526   4.678   0.012   0.566  0.3216  0.6434 -0.4040
 4521TIP3    H113527   4.760   0.059   0.578  0.0396  1.1034 -0.2444
 4521TIP3    H213528   4.617   0.077   0.531 -0.3349  0.6408  0.6936
 4522TIP3   OH213529   0.227   4.323   0.346 -0.0202  0.0220  0.3092
 4522TIP3    H113530   0.160   4.257   0.362  0.0875  0.0363  0.8388
 4522TIP3    H213531   0.264   4.340   0.432  1.9091 -1.3068 -0.1826
 4523TIP3   OH213532   2.226   2.455   4.891 -0.1149 -0.5952 -0.1532
 4523TIP3    H113533   2.260   2.415   4.811 -2.2386  0.9058 -1.9410
 4523TIP3    H213534   2.218   2.548   4.870 -0.1136 -0.0361  2.0682
 4524TIP3   OH213535   2.270   3.381   0.352  0.5297  0.0619  0.4010
 4524TIP3    H113536   2.308   3.356   0.268 -0.6138 -0.6677  0.0839
 4524TIP3    H213537   2.345   3.408   0.405  1.2441  0.7594 -0.9210
 4525TIP3   OH213538   4.179   3.251   2.827 -0.2473 -0.1251  0.0263
 4525TIP3    H113539   4.097   3.244   2.778  0.8992  0.6196 -2.1394
 4525TIP3    H213540   4.204   3.160   2.846 -0.5183 -0.4547 -1.1531
 4526TIP3   OH213541   4.439   0.571   0.011 -0.2059 -0.4239 -0.8110
 4526TIP3    H113542   4.515   0.627   0.024 -1.2533  1.0949 -0.9034
 4526TIP3    H213543   4.467   0.484   0.040  1.5158  0.1101 -0.7786
 4527TIP3   OH213544   1.245   6.666   3.995 -0.1072  0.4197 -0.2491
 4527TIP3    H113545   1.286   6.584   4.022 -0.5355  0.6026  1.0206
 4527TIP3    H213546   1.312   6.732   4.011 -1.3637  1.0093  3.7290
 4528TIP3   OH213547   3.108   3.554   2.687 -0.3135 -0.6814 -0.4159
 4528TIP3    H113548   3.060   3.587   2.763  0.5212 -0.9331  0.2460
 4528TIP3    H213549   3.046   3.560   2.614 -1.2544 -0.7773  0.3538
 4529TIP3   OH213550   5.630   2.701   3.341 -0.2912 -0.3287 -0.1587
 4529TIP3    H113551   5.718   2.667   3.352  0.0200  0.0878 -1.1834
 4529TIP3    H213552   5.595   2.709   3.429  0.3613 -1.3598  0.2072
 4530TIP3   OH213553   3.212   0.185   2.814  0.2511 -0.1377 -0.2517
 4530TIP3    H113554   3.298   0.205   2.851 -0.2799  1.7556  0.0698
 4530TIP3    H213555   3.216   0.091   2.793  1.7229 -0.5174  1.4790
 4531TIP3   OH213556   4.205   5.250   2.845 -0.2629  0.2288  0.0213
 4531TIP3    H113557   4.168   5.248   2.934  0.0671 -0.7949  0.1483
 4531TIP3    H213558   4.290   5.208   2.853 -0.6735 -0.8403 -0.9730
 4532TIP3   OH213559   3.803   2.322   4.145 -0.4471  0.1980 -0.2400
 4532TIP3    H113560   3.815   2.351   4.055  0.6290  1.3997  0.2489
 4532TIP3    H213561   3.887   2.283   4.169 -0.6740  0.0263  0.2782
 4533TIP3   OH213562   1.447   0.846   5.544  0.1706 -0.0802 -0.2108
 4533TIP3    H113563   1.413   0.760   5.520 -3.9048  1.4778 -0.8741
 4533TIP3    H213564   1.508   0.868   5.474  0.4480 -1.9366 -0.6049
 4534TIP3   OH213565   7.030   3.401   1.110  0.0779 -0.2069 -0.4405
 4534TIP3    H113566   7.046   3.413   1.016 -0.0324  1.6409 -0.2727
 4534TIP3    H213567   7.095   3.458   1.152 -2.7456  2.6657  0.4282
 4535TIP3   OH213568   5.744   0.670   0.864 -0.6764  0.0110  0.0501
 4535TIP3    H113569   5.690   0.668   0.942  0.5796  2.3024  1.0970
 4535TIP3    H213570   5.723   0.754   0.822  0.0558 -0.3040 -1.0004
 4536TIP3   OH213571   6.242   3.630   1.114 -0.4910  0.8235  0.0762
 4536TIP3    H113572   6.235   3.713   1.161  0.5606  0.1372  1.5239
 4536TIP3    H213573   6.321   3.638   1.061  0.2647  0.3709  1.0928
 4537TIP3   OH213574   1.384   6.633   0.680  0.3350 -0.3091 -0.4727
 4537TIP3    H113575   1.417   6.570   0.744 -1.1024 -0.4998  0.1177
 4537TIP3    H213576   1.327   6.691   0.730  0.0783  0.2426 -1.3678
 4538TIP3   OH213577   4.642   4.400   1.462 -0.0504  0.2670 -0.4227
 4538TIP3    H113578   4.724   4.430   1.501  0.6181 -0.3300 -1.3503
 4538TIP3    H213579   4.623   4.463   1.393 -0.9530  1.0107  0.4599
 4539TIP3   OH213580   5.103   3.562   2.870 -0.3207 -0.4387  0.3170
 4539TIP3    H113581   5.079   3.607   2.951 -0.6361  1.0882 -0.5947
 4539TIP3    H213582   5.122   3.472   2.898 -0.5220  0.0181  2.0607
 4540TIP3   OH213583   4.229   2.773   2.447  0.1047 -0.2582 -0.0817
 4540TIP3    H113584   4.215   2.707   2.515 -0.1449 -0.0163  0.1009
 4540TIP3    H213585   4.322   2.765   2.425  0.3672  0.1601  0.8135
 4541TIP3   OH213586   0.356   4.590   1.566 -0.5677 -0.0762  0.5381
 4541TIP3    H113587   0.328   4.593   1.474 -0.8474  1.9864  0.6556
 4541TIP3    H213588   0.423   4.658   1.573  0.1133 -0.8384  1.6701
 4542TIP3   OH213589   5.573   1.592   2.774  0.4326 -0.3073 -0.0781
 4542TIP3    H113590   5.515   1.530   2.729 -0.8712  0.5053  0.4330
 4542TIP3    H213591   5.558   1.575   2.867  0.1007  0.7437  0.0660
 4543TIP3   OH213592   4.085   4.219   4.469 -0.4867  0.3613  0.7570
 4543TIP3    H113593   3.995   4.247   4.485 -0.0070  1.5495  1.4317
 4543TIP3    H213594   4.093   4.221   4.373 -1.5011 -0.8685  0.6130
 4544TIP3   OH213595   5.836   6.237   4.873 -0.3390  0.5614  0.1658
 4544TIP3    H113596   5.875   6.292   4.804 -1.2433  0.1067 -0.7500
 4544TIP3    H213597   5.907   6.222   4.935  0.2918  1.6569 -0.2512
 4545TIP3   OH213598   0.857   6.312   4.166 -0.1553  0.0649 -0.3959
 4545TIP3    H113599   0.902   6.231   4.141 -0.4480  0.0318 -0.8167
 4545TIP3    H213600   0.846   6.304   4.261  1.5348  0.4847 -0.1414
 4546TIP3   OH213601   2.756   6.600   2.983 -0.1818  0.0193  0.0524
 4546TIP3    H113602   2.827   6.661   3.000  1.5905 -0.9705 -3.0350
 4546TIP3    H213603   2.763   6.535   3.053  0.4237  1.1577  1.0965
 4547TIP3   OH213604   1.983   1.937   4.508 -0.2386  0.0233  0.7017
 4547TIP3    H113605   1.989   1.855   4.558 -1.7401 -0.1507  0.6649
 4547TIP3    H213606   1.902   1.927   4.457  0.3495  0.9166 -0.4432
 4548TIP3   OH213607   0.731   4.524   4.600 -0.5812  0.2177 -0.4914
 4548TIP3    H113608   0.792   4.462   4.561  0.3878  1.6307 -1.3312
 4548TIP3    H213609   0.661   4.533   4.536  0.2141  1.3424 -1.2464
 4549TIP3   OH213610   2.542   0.799   1.205  0.0516  0.1493 -0.1561
 4549TIP3    H113611   2.617   0.794   1.264  1.0580  0.3578 -1.3742
 4549TIP3    H213612   2.509   0.709   1.200  0.7683 -0.1182 -0.2721
 4550TIP3   OH213613   6.795   6.419   4.229  0.1278 -0.1836  0.2360
 4550TIP3    H113614   6.727   6.435   4.164 -0.2694 -2.6879 -0.0508
 4550TIP3    H213615   6.877   6.435   4.182 -0.1989  0.9271  0.0181
 4551TIP3   OH213616   6.413   2.165   4.230  0.6147 -0.0838 -0.2742
 4551TIP3    H113617   6.441   2.080   4.194  1.1099 -0.7394  1.5758
 4551TIP3    H213618   6.366   2.143   4.310 -0.3133  1.3520 -0.3826
 4552TIP3   OH213619   4.500   6.509   2.536 -0.2421  0.9702 -0.0384
 4552TIP3    H113620   4.429   6.465   2.489 -1.2656  1.6909  0.7852
 4552TIP3    H213621   4.576   6.497   2.480 -0.3119 -2.2643  0.3364
 4553TIP3   OH213622   3.057   1.578   4.451  0.0838 -0.1258 -0.2044
 4553TIP3    H113623   3.063   1.532   4.367  0.8632 -0.8798  0.2517
 4553TIP3    H213624   3.128   1.642   4.447 -0.1870  0.1712 -0.3108
 4554TIP3   OH213625   3.007   1.531   1.467  0.3938 -0.8687 -0.5137
 4554TIP3    H113626   2.966   1.458   1.420 -3.2771  0.9501 -0.5061
 4554TIP3    H213627   3.032   1.593   1.398  0.9858 -0.9488 -0.3756
 4555TIP3   OH213628   6.798   2.375   0.275  0.0158  0.0340 -0.0867
 4555TIP3    H113629   6.812   2.465   0.303  0.9795 -0.7099  2.0916
 4555TIP3    H213630   6.703   2.364   0.277 -0.0249  0.4323  1.7614
 4556TIP3   OH213631   5.146   1.696   3.287  0.4476 -0.0408 -0.5472
 4556TIP3    H113632   5.196   1.751   3.228  0.2467 -0.3815 -1.0366
 4556TIP3    H213633   5.212   1.660   3.347  0.3844  2.1036  0.9306
 4557TIP3   OH213634   4.806   5.070   1.966 -0.2224 -0.0774  0.1543
 4557TIP3    H113635   4.730   5.092   2.019  0.1393 -0.0237  0.6572
 4557TIP3    H213636   4.848   4.998   2.012  0.2237  0.1213  0.0649
 4558TIP3   OH213637   1.601   3.880   5.131  0.0934  0.1442 -0.0614
 4558TIP3    H113638   1.678   3.915   5.176 -0.8713  1.7973  0.4141
 4558TIP3    H213639   1.617   3.896   5.038 -0.1283  1.5020  0.1166
 4559TIP3   OH213640   0.517   2.024   0.708  0.1344  0.4869  0.2234
 4559TIP3    H113641   0.470   1.941   0.704  0.3700  0.3705 -0.2668
 4559TIP3    H213642   0.609   2.000   0.699  0.0825  0.9350 -2.2261
 4560TIP3   OH213643   2.488   1.678   2.762 -0.1588  0.7848  0.3609
 4560TIP3    H113644   2.424   1.743   2.790 -0.3841  0.5329  0.4391
 4560TIP3    H213645   2.436   1.599   2.744  0.2247  0.2908  1.3386
 4561TIP3   OH213646   1.228   5.021   1.896 -0.0012  0.4413  0.2861
 4561TIP3    H113647   1.319   5.050   1.890 -0.0745  0.4474 -1.1339
 4561TIP3    H213648   1.203   5.039   1.987  1.1700  1.1491  0.4898
 4562TIP3   OH213649   2.959   0.488   4.682 -0.2070  0.7870 -0.3602
 4562TIP3    H113650   2.898   0.417   4.704 -0.5626  0.9734 -0.7189
 4562TIP3    H213651   2.985   0.524   4.766 -1.2998  1.2845 -0.2137
 4563TIP3   OH213652   1.522   4.333   4.762  0.2727 -0.5131 -0.3163
 4563TIP3    H113653   1.463   4.371   4.697  1.0250 -0.2614 -0.8599
 4563TIP3    H213654   1.466   4.274   4.813 -0.5673  0.1314 -0.4662
 4564TIP3   OH213655   0.100   1.836   5.681  0.5470  0.3779 -0.0882
 4564TIP3    H113656   0.181   1.791   5.707  1.3560  1.9024  0.1342
 4564TIP3    H213657   0.128   1.900   5.616 -0.3680  1.3714  0.4589
 4565TIP3   OH213658   0.955   3.049   0.341  0.6523  0.0052  0.0922
 4565TIP3    H113659   0.916   3.048   0.428 -1.7278  0.1299 -0.8825
 4565TIP3    H213660   0.992   2.962   0.330  0.6034 -0.1522  1.0608
 4566TIP3   OH213661   3.979   3.360   3.680 -0.4698  0.5204  0.6233
 4566TIP3    H113662   3.909   3.342   3.617 -2.1561  0.8806  2.2905
 4566TIP3    H213663   4.059   3.357   3.629 -1.6896 -0.0496 -1.3560
 4567TIP3   OH213664   1.241   0.858   1.554 -0.0122 -0.0430  0.5305
 4567TIP3    H113665   1.301   0.791   1.521  0.5684  0.0430  1.3614
 4567TIP3    H213666   1.271   0.874   1.644 -0.3248  1.1133  0.4451
 4568TIP3   OH213667   1.578   4.041   5.482  0.6127 -1.0085  0.4666
 4568TIP3    H113668   1.664   4.011   5.512  1.0714  0.2216  0.4463
 4568TIP3    H213669   1.516   3.978   5.518  1.1865  0.0035  3.4521
 4569TIP3   OH213670   5.185   6.647   4.755  0.1388 -0.2053  0.1939
 4569TIP3    H113671   5.173   6.580   4.821  0.6585 -0.2696  0.2292
 4569TIP3    H213672   5.278   6.641   4.731 -0.2219 -0.7274 -1.1226
 4570TIP3   OH213673   6.757   0.686   5.695  0.1437 -0.0761 -0.0165
 4570TIP3    H113674   6.833   0.703   5.640  0.5751 -0.0650  0.5779
 4570TIP3    H213675   6.692   0.752   5.668  0.3254 -0.1174 -0.5530
 4571TIP3   OH213676   4.655   5.575   5.487  0.0325  0.1371 -1.2277
 4571TIP3    H113677   4.574   5.596   5.440  0.1223  3.3590 -0.2124
 4571TIP3    H213678   4.634   5.593   5.579  1.4761 -0.5498 -0.7410
 4572TIP3   OH213679   6.609   0.397   2.243 -0.1100  0.0236 -0.4182
 4572TIP3    H113680   6.605   0.398   2.148 -2.9914  1.4970 -0.3798
 4572TIP3    H213681   6.686   0.450   2.265  0.7589 -0.5804 -1.8777
 4573TIP3   OH213682   5.479   1.488   3.009 -0.0416  0.9946  0.0043
 4573TIP3    H113683   5.448   1.398   3.021  3.0591 -0.0263  1.5953
 4573TIP3    H213684   5.538   1.503   3.083  1.1592  3.6137 -1.3437
 4574TIP3   OH213685   1.878   6.059   3.313 -0.0500  0.3301 -0.5419
 4574TIP3    H113686   1.971   6.075   3.296 -0.6595  4.8194 -0.7574
 4574TIP3    H213687   1.842   6.034   3.227  0.9221 -2.0877 -0.3322
 4575TIP3   OH213688   4.120   4.113   4.737  0.1898  0.3284  0.5696
 4575TIP3    H113689   4.119   4.160   4.654 -0.4460 -3.3469 -1.7140
 4575TIP3    H213690   4.039   4.139   4.780 -0.1991  1.2013 -0.6471
 4576TIP3   OH213691   6.891   6.553   3.852 -0.5832  0.1405  0.2625
 4576TIP3    H113692   6.890   6.644   3.823  0.3644 -0.3912 -1.5522
 4576TIP3    H213693   6.898   6.559   3.948 -0.3502  1.9504  0.1723
 4577TIP3   OH213694   0.296   6.225   3.617 -0.5875  0.4520 -0.2467
 4577TIP3    H113695   0.343   6.154   3.572  0.6464  0.3585  1.1053
 4577TIP3    H213696   0.207   6.219   3.584 -0.5642 -1.8462 -0.0804
 4578TIP3   OH213697   6.288   3.882   3.001 -0.1759  0.2470 -0.0058
 4578TIP3    H113698   6.312   3.968   3.035  1.1959 -0.2460  0.3508
 4578TIP3    H213699   6.327   3.879   2.914  0.9958 -0.5110  0.5195
 4579TIP3   OH213700   5.957   1.065   1.796 -0.3039 -0.0697  0.0103
 4579TIP3    H113701   5.981   1.158   1.803 -1.4970  0.1516  1.8826
 4579TIP3    H213702   5.861   1.065   1.804 -0.1803 -1.6018  2.4664
 4580TIP3   OH213703   0.208   0.864   3.777  0.4691 -0.0888 -0.1908
 4580TIP3    H113704   0.277   0.798   3.770 -0.2800 -0.8016 -1.1789
 4580TIP3    H213705   0.160   0.840   3.856  1.5424  0.6182  0.6966
 4581TIP3   OH213706   3.835   0.124   4.495 -0.2069 -0.2668  0.6574
 4581TIP3    H113707   3.874   0.084   4.573  2.1179 -0.0362 -0.2853
 4581TIP3    H213708   3.787   0.053   4.453  0.2398 -0.9392  1.2627
 4582TIP3   OH213709   1.458   2.132   3.312  0.0553 -0.2427 -0.3179
 4582TIP3    H113710   1.394   2.135   3.240  0.6044  0.9612 -0.7988
 4582TIP3    H213711   1.416   2.080   3.380 -0.2613 -1.8954 -1.7120
 4583TIP3   OH213712   2.033   0.393   3.635  0.2963  0.3665  0.2565
 4583TIP3    H113713   2.100   0.358   3.576  2.4156  1.7747  1.6636
 4583TIP3    H213714   1.980   0.318   3.660  0.0842 -0.4688 -2.4172
 4584TIP3   OH213715   2.795   3.672   5.556 -0.1678  0.5646  0.4740
 4584TIP3    H113716   2.740   3.698   5.482  0.5148  0.2167 -0.1779
 4584TIP3    H213717   2.819   3.581   5.537  1.9454  1.1840 -0.1234
 4585TIP3   OH213718   4.282   0.064   3.301  0.3814 -0.1728  0.1131
 4585TIP3    H113719   4.210   0.002   3.308  1.0909 -0.9130  1.3246
 4585TIP3    H213720   4.289   0.103   3.389 -0.0191  1.6127 -0.6048
 4586TIP3   OH213721   2.713   4.618   1.106 -0.1908  0.9933  0.2659
 4586TIP3    H113722   2.809   4.618   1.098 -0.3397  0.8707 -2.9341
 4586TIP3    H213723   2.688   4.710   1.096 -0.4491  0.7609 -1.8173
 4587TIP3   OH213724   4.371   0.324   0.770 -0.2749 -0.2864 -0.1285
 4587TIP3    H113725   4.348   0.244   0.723  0.0376 -0.9386  0.8010
 4587TIP3    H213726   4.323   0.393   0.724  0.1700 -0.8613 -1.5137
 4588TIP3   OH213727   1.559   0.278   0.862  0.7850  0.7787  0.5554
 4588TIP3    H113728   1.631   0.316   0.912  0.5309  0.8924  0.8361
 4588TIP3    H213729   1.507   0.354   0.834 -0.3961  0.6033  2.1199
 4589TIP3   OH213730   5.172   1.568   1.468  1.1872  1.0436 -0.6303
 4589TIP3    H113731   5.122   1.498   1.509  3.3612 -0.1279  0.1649
 4589TIP3    H213732   5.188   1.537   1.379  2.5684  0.2531 -0.1305
 4590TIP3   OH213733   0.380   4.763   3.671 -0.0449  0.2490 -0.6042
 4590TIP3    H113734   0.303   4.760   3.615  0.1186  0.2731 -0.8293
 4590TIP3    H213735   0.454   4.750   3.612  0.1264  0.2512 -0.3930
 4591TIP3   OH213736   3.599   6.674   5.639  0.5829 -0.1598  0.3836
 4591TIP3    H113737   3.524   6.616   5.653 -0.4291  0.7414 -1.0176
 4591TIP3    H213738   3.568   6.760   5.667  0.5750  0.4915 -1.5110
 4592TIP3   OH213739   6.773   4.727   1.217  0.0511 -0.4899 -0.1570
 4592TIP3    H113740   6.678   4.731   1.226  0.1558 -0.0163  0.9150
 4592TIP3    H213741   6.793   4.634   1.213 -0.4421 -0.5958 -0.2396
 4593TIP3   OH213742   2.338   3.271   0.888 -0.2804 -0.2446  0.1288
 4593TIP3    H113743   2.337   3.350   0.835  0.4960 -0.6717 -0.5569
 4593TIP3    H213744   2.293   3.295   0.969 -1.1972  0.5089 -0.5925
 4594TIP3   OH213745   2.462   6.551   4.379 -0.1399  0.0432  0.5655
 4594TIP3    H113746   2.390   6.518   4.434  0.4162  0.2703  1.4510
 4594TIP3    H213747   2.537   6.556   4.439  0.5244  0.1388 -0.2664
 4595TIP3   OH213748   4.983   2.263   4.972 -0.1531  0.0309  0.0368
 4595TIP3    H113749   5.017   2.178   4.999  0.2708  0.4381  0.7907
 4595TIP3    H213750   4.932   2.243   4.893 -0.1982 -0.9452  0.2901
 4596TIP3   OH213751   0.581   1.534   3.299 -0.2064 -0.6340  0.3012
 4596TIP3    H113752   0.578   1.628   3.316 -0.2496 -0.5293 -0.2562
 4596TIP3    H213753   0.625   1.527   3.214 -0.9742 -1.0511 -0.0733
 4597TIP3   OH213754   4.201   5.064   4.263 -0.1967  0.2964 -0.3395
 4597TIP3    H113755   4.109   5.084   4.243  0.0030  1.2310 -0.3903
 4597TIP3    H213756   4.213   4.974   4.233 -0.9086  0.4055 -1.0006
 4598TIP3   OH213757   4.607   2.681   3.015 -0.0157 -0.1655  0.4975
 4598TIP3    H113758   4.596   2.663   3.109  1.5688 -2.7076  0.2743
 4598TIP3    H213759   4.690   2.728   3.010 -0.2573  0.2524  0.3792
 4599TIP3   OH213760   1.437   6.147   0.358 -0.4397  0.2864  0.3389
 4599TIP3    H113761   1.454   6.055   0.375 -0.5360  0.3259  0.6533
 4599TIP3    H213762   1.345   6.149   0.329  0.6093 -0.2321 -3.6360
 4600TIP3   OH213763   0.433   6.513   0.575 -0.2026 -0.9274  0.1146
 4600TIP3    H113764   0.482   6.595   0.578 -1.4815 -0.1899  2.2125
 4600TIP3    H213765   0.469   6.460   0.646 -1.2907 -1.0395  0.6031
 4601TIP3   OH213766   0.037   3.786   2.277 -0.5110 -0.5740  0.6315
 4601TIP3    H113767   0.015   3.745   2.361 -1.4375 -0.8220  0.2845
 4601TIP3    H213768  -0.021   3.743   2.215 -0.1904 -0.0236 -0.0521
 4602TIP3   OH213769   4.997   4.546   0.029 -0.0074  0.1028  0.3824
 4602TIP3    H113770   4.908   4.511   0.043  0.1401 -0.4160  0.0496
 4602TIP3    H213771   5.054   4.482   0.071  0.2812 -0.1654 -0.4111
 4603TIP3   OH213772   3.560   5.872   2.049 -0.2507 -0.7614  0.4289
 4603TIP3    H113773   3.612   5.951   2.038 -1.3426 -0.1323 -0.4575
 4603TIP3    H213774   3.590   5.834   2.131  1.5689 -0.4178 -0.0428
 4604TIP3   OH213775   7.148   4.390   0.250 -0.1962 -0.3757  0.1096
 4604TIP3    H113776   7.121   4.395   0.341 -0.2056 -1.3773  0.1688
 4604TIP3    H213777   7.194   4.472   0.234  1.3060 -0.8887  1.5125
 4605TIP3   OH213778   3.521   5.492   2.952  0.1909 -0.5220 -0.0143
 4605TIP3    H113779   3.495   5.401   2.960 -0.9277 -0.2344 -0.2081
 4605TIP3    H213780   3.475   5.537   3.023  0.9074 -0.1381  0.2179
 4606TIP3   OH213781   5.638   5.968   2.030  0.0793  0.3706 -0.0705
 4606TIP3    H113782   5.690   6.027   2.082  0.8798 -0.2618 -0.1354
 4606TIP3    H213783   5.691   5.949   1.953  0.0625 -0.7996  0.1730
 4607TIP3   OH213784   6.584   3.684   3.506  0.0603 -0.2091 -0.3105
 4607TIP3    H113785   6.640   3.747   3.552 -1.5787  1.0987  0.0109
 4607TIP3    H213786   6.621   3.599   3.527  1.5125  0.5669  0.4293
 4608TIP3   OH213787   0.006   0.507   1.420 -0.4768 -0.1739 -0.6041
 4608TIP3    H113788   0.043   0.468   1.341  3.0114 -0.0348  0.7835
 4608TIP3    H213789  -0.024   0.594   1.392  2.1476  0.5137 -1.5300
 4609TIP3   OH213790   6.774   2.027   2.696  0.1009 -0.0683 -0.2856
 4609TIP3    H113791   6.783   1.938   2.660  1.5642  0.0709 -0.3359
 4609TIP3    H213792   6.745   2.014   2.786 -0.0568 -0.5877 -0.4099
 4610TIP3   OH213793   3.590   0.151   1.323 -0.0652 -0.1012  0.0306
 4610TIP3    H113794   3.616   0.167   1.414  3.4815 -1.6571 -0.5417
 4610TIP3    H213795   3.599   0.236   1.280  1.4757  0.0165  0.5242
 4611TIP3   OH213796   5.337   1.075   1.297  0.5382  0.0922  0.0730
 4611TIP3    H113797   5.260   1.070   1.240  0.0259  0.9112  0.6591
 4611TIP3    H213798   5.399   1.131   1.250  0.3162  0.3591  0.0968
 4612TIP3   OH213799   7.066   5.444   5.116 -0.1073  0.4395 -0.1193
 4612TIP3    H113800   7.071   5.410   5.206 -0.7153 -1.2038 -0.6734
 4612TIP3    H213801   7.124   5.520   5.116  0.5225 -0.0022  1.4683
 4613TIP3   OH213802   2.486   1.001   3.148 -0.3114 -0.3130  0.0772
 4613TIP3    H113803   2.466   1.056   3.072  0.8440 -1.3163 -1.0038
 4613TIP3    H213804   2.445   0.917   3.127  2.2727 -1.4632 -0.7920
 4614TIP3   OH213805   2.396   2.156   0.125 -0.1663  0.2473 -0.7034
 4614TIP3    H113806   2.470   2.192   0.076 -0.0993 -1.1467 -1.6936
 4614TIP3    H213807   2.328   2.222   0.116  1.0882  1.8109  0.6823
 4615TIP3   OH213808   3.676   0.066   1.058 -0.2266  0.5489 -0.6120
 4615TIP3    H113809   3.673   0.074   1.153 -1.5885 -0.3510 -0.5336
 4615TIP3    H213810   3.718  -0.019   1.043  2.2344  1.7381 -0.9436
 4616TIP3   OH213811   5.268   0.039   1.527  0.1003 -0.1447 -0.3380
 4616TIP3    H113812   5.336   0.097   1.493  1.5534 -1.5393  0.1119
 4616TIP3    H213813   5.284   0.036   1.621 -0.2236 -0.9219 -0.3014
 4617TIP3   OH213814   5.638   2.061   3.516  0.1332 -0.1110 -0.3139
 4617TIP3    H113815   5.562   2.007   3.540  0.6621 -1.7232 -2.0603
 4617TIP3    H213816   5.601   2.138   3.473 -0.5383 -0.4380 -0.3298
 4618TIP3   OH213817   3.116   4.419   5.810  0.6434 -0.0572  0.0235
 4618TIP3    H113818   3.192   4.399   5.864  0.8703 -3.7595 -1.3948
 4618TIP3    H213819   3.142   4.497   5.760  2.2278  0.5850  1.7657
 4619TIP3   OH213820   3.605   6.189   0.893  0.1782  0.4495 -0.0587
 4619TIP3    H113821   3.641   6.226   0.812  0.7215  0.4692  0.1899
 4619TIP3    H213822   3.654   6.108   0.906 -1.4082 -0.7158 -0.9306
 4620TIP3   OH213823   6.197   5.168   0.128  0.1449 -0.4135  0.8344
 4620TIP3    H113824   6.168   5.250   0.167 -0.3297 -0.3603  0.3673
 4620TIP3    H213825   6.130   5.146   0.064 -0.0538 -1.4901  1.3900
 4621TIP3   OH213826   4.304   3.535   1.679 -0.2747 -0.2471 -0.4172
 4621TIP3    H113827   4.213   3.520   1.653  0.1444 -0.0630 -2.1296
 4621TIP3    H213828   4.309   3.628   1.698 -0.5319 -0.3395  0.1360
 4622TIP3   OH213829   1.492   2.891   4.640 -0.3430 -0.1234 -0.2710
 4622TIP3    H113830   1.529   2.973   4.607 -0.6175  0.0275 -0.2084
 4622TIP3    H213831   1.399   2.897   4.617 -0.2396 -0.7214 -0.8801
 4623TIP3   OH213832   3.885   2.137   1.902  0.2158 -0.0928  0.0732
 4623TIP3    H113833   3.878   2.211   1.841 -0.6213  0.0289  0.3065
 4623TIP3    H213834   3.857   2.172   1.986 -0.9433 -0.8568  0.0280
 4624TIP3   OH213835   3.638   3.651   3.483 -0.3601  0.1963  0.6431
 4624TIP3    H113836   3.720   3.603   3.472  1.4381  3.2496 -0.5264
 4624TIP3    H213837   3.604   3.663   3.395  0.6034  3.0320  0.5398
 4625TIP3   OH213838   3.147   5.843   2.240  0.2374  0.0910  0.3488
 4625TIP3    H113839   3.053   5.824   2.244  0.7092 -2.3702  1.3097
 4625TIP3    H213840   3.157   5.924   2.290 -1.6364  1.8975 -1.9372
 4626TIP3   OH213841   5.920   0.722   1.487  0.0213  0.2146 -0.2879
 4626TIP3    H113842   5.990   0.706   1.550 -0.6610 -2.7278 -0.1036
 4626TIP3    H213843   5.966   0.744   1.406  0.9890  1.5977  0.6000
 4627TIP3   OH213844   3.712   1.885   2.354  0.1762 -0.1043  0.1113
 4627TIP3    H113845   3.747   1.847   2.434 -0.1495  1.7218  1.1746
 4627TIP3    H213846   3.788   1.895   2.297  0.5123 -0.8289  0.4168
 4628TIP3   OH213847   1.159   2.109   2.732 -0.6146 -0.4752 -0.0557
 4628TIP3    H113848   1.165   2.052   2.809 -1.4579  1.9891  1.9789
 4628TIP3    H213849   1.250   2.121   2.705 -0.2076 -0.6224  1.1712
 4629TIP3   OH213850   4.356   4.090   2.946 -0.6673  0.2846  0.4507
 4629TIP3    H113851   4.332   3.998   2.948 -0.3812  0.2148  1.5053
 4629TIP3    H213852   4.273   4.137   2.954 -1.0771  0.2099 -2.3603
 4630TIP3   OH213853   6.847   3.939   2.232  0.1931 -0.6423  0.0058
 4630TIP3    H113854   6.805   3.854   2.214  0.2476 -0.1241 -3.1012
 4630TIP3    H213855   6.935   3.930   2.196  0.4995  0.4629  0.4491
 4631TIP3   OH213856   5.377   3.951   4.021 -0.0081 -0.5657 -0.2190
 4631TIP3    H113857   5.316   4.025   4.031  0.1353 -0.3652 -0.7432
 4631TIP3    H213858   5.403   3.955   3.928 -0.8681 -1.9612 -0.5402
 4632TIP3   OH213859   0.374   3.866   2.443  0.6809  0.1606  0.1504
 4632TIP3    H113860   0.460   3.907   2.434  1.4667 -1.6369 -1.2966
 4632TIP3    H213861   0.347   3.848   2.353 -0.1266 -1.3835  0.6717
 4633TIP3   OH213862   1.582   6.297   2.049  0.2016  0.4289  0.2524
 4633TIP3    H113863   1.514   6.361   2.070 -1.5154 -1.0262 -0.6273
 4633TIP3    H213864   1.628   6.282   2.132 -0.0613  1.9777  0.7020
 4634TIP3   OH213865   6.826   4.139   2.433 -0.8223 -0.5509  0.1003
 4634TIP3    H113866   6.866   4.078   2.372 -2.2187 -2.3996  0.9364
 4634TIP3    H213867   6.847   4.105   2.520  0.3715  1.5311  0.7107
 4635TIP3   OH213868   6.364   2.851   1.883  0.4711  0.0165  0.2510
 4635TIP3    H113869   6.299   2.887   1.943  0.6917  1.4158 -0.3082
 4635TIP3    H213870   6.423   2.800   1.938  0.0558  0.3888  1.0578
 4636TIP3   OH213871   7.053   0.457   4.323  0.1537 -0.3930  0.4532
 4636TIP3    H113872   7.028   0.372   4.287 -0.8097 -0.4115  1.1252
 4636TIP3    H213873   7.093   0.437   4.407 -0.0513 -0.1945  0.6001
 4637TIP3   OH213874   5.982   5.368   1.373 -0.5720 -0.6009 -0.2737
 4637TIP3    H113875   6.035   5.322   1.438 -0.4154 -3.1048 -2.0441
 4637TIP3    H213876   6.043   5.430   1.332 -0.6477  0.9441  1.7845
 4638TIP3   OH213877   4.316   0.263   3.776 -0.0924 -0.2600  0.2587
 4638TIP3    H113878   4.279   0.327   3.716 -0.6874 -0.2227  0.6652
 4638TIP3    H213879   4.324   0.309   3.859  4.0108  0.8645 -0.5015
 4639TIP3   OH213880   5.808   1.957   5.024  0.1264 -0.2125  0.4334
 4639TIP3    H113881   5.800   1.870   4.985  0.4922 -0.5735  1.1342
 4639TIP3    H213882   5.720   1.978   5.054  0.1712 -0.6515  0.8875
 4640TIP3   OH213883   3.868   6.614   3.126  0.3316 -0.2398 -0.3017
 4640TIP3    H113884   3.803   6.605   3.056  2.2789 -1.0631 -2.1004
 4640TIP3    H213885   3.841   6.551   3.192 -0.9328 -0.2397 -0.7896
 4641TIP3   OH213886   1.953   0.255   0.206  0.0666  0.6815 -0.1442
 4641TIP3    H113887   1.973   0.283   0.117 -1.9272  1.6507 -0.3492
 4641TIP3    H213888   1.917   0.166   0.196 -0.3939  0.8861 -0.3598
 4642TIP3   OH213889   5.039   2.979   3.198 -0.1433 -0.0309 -0.6329
 4642TIP3    H113890   5.120   2.973   3.148 -0.0880 -1.5051 -0.4254
 4642TIP3    H213891   5.030   3.072   3.219  1.5496  0.1515 -0.5670
 4643TIP3   OH213892   4.824   0.967   3.645 -0.0256 -0.2191 -0.4212
 4643TIP3    H113893   4.789   0.918   3.571 -1.7647  1.6853 -0.9440
 4643TIP3    H213894   4.887   1.028   3.607  0.4117 -0.4395 -0.0708
 4644TIP3   OH213895   5.823   1.625   5.358 -0.2377  0.1418 -0.8101
 4644TIP3    H113896   5.834   1.551   5.300  0.8331  0.2936 -0.8161
 4644TIP3    H213897   5.767   1.593   5.429  1.5167 -1.1675  0.0404
 4645TIP3   OH213898   3.633   1.121   5.224  0.0918 -0.6407  0.2358
 4645TIP3    H113899   3.573   1.183   5.183  0.0963  0.7319  2.1750
 4645TIP3    H213900   3.586   1.038   5.226 -0.3222 -0.4782 -1.4540
 4646TIP3   OH213901   1.673   4.262   2.824  0.1416 -0.0166 -0.1309
 4646TIP3    H113902   1.593   4.299   2.861 -0.4431 -1.6183  0.2874
 4646TIP3    H213903   1.714   4.335   2.778 -2.0180  0.6490 -1.1441
 4647TIP3   OH213904   4.037   1.823   3.004 -0.7421  0.0828  0.4825
 4647TIP3    H113905   4.020   1.916   3.016 -1.8272 -0.0011 -0.3003
 4647TIP3    H213906   3.961   1.790   2.956  0.6983 -0.7448 -1.3508
 4648TIP3   OH213907   6.001   6.735   5.380  0.7523  0.2849  0.2281
 4648TIP3    H113908   5.952   6.745   5.461  0.0855  0.3249 -0.1762
 4648TIP3    H213909   6.078   6.791   5.392  1.1523 -0.4434  1.2044
 4649TIP3   OH213910   6.509   5.519   0.691  0.4616 -0.3509  0.0706
 4649TIP3    H113911   6.495   5.466   0.769  0.7388 -1.1642 -0.4277
 4649TIP3    H213912   6.603   5.535   0.688  0.3841  0.1710  0.2114
 4650TIP3   OH213913   4.485   2.850   2.366 -0.1008 -0.6782  0.1421
 4650TIP3    H113914   4.535   2.872   2.445 -0.0566  0.4627 -0.1892
 4650TIP3    H213915   4.485   2.930   2.314 -0.7662 -1.1935 -0.6838
 4651TIP3   OH213916   0.436   2.494   2.930 -0.4946  0.0040  0.0816
 4651TIP3    H113917   0.401   2.449   3.006 -1.0073  2.1721  1.2195
 4651TIP3    H213918   0.433   2.587   2.953 -0.9564  0.7907 -2.7015
 4652TIP3   OH213919   3.612   0.390   5.197 -0.1446 -0.0858  0.4121
 4652TIP3    H113920   3.525   0.358   5.177  0.1753 -0.1250 -1.0768
 4652TIP3    H213921   3.650   0.410   5.111  1.4641 -0.4991  0.9936
 4653TIP3   OH213922   6.111   2.471   2.844  0.8389  0.1410  0.1907
 4653TIP3    H113923   6.066   2.464   2.760  0.4700  0.6896  0.3352
 4653TIP3    H213924   6.153   2.557   2.842  0.8100  0.1693  0.5705
 4654TIP3   OH213925   2.321   0.476   0.533  0.3179  0.2022 -0.6006
 4654TIP3    H113926   2.230   0.457   0.509  0.4681 -2.8096  0.7091
 4654TIP3    H213927   2.314   0.514   0.621  0.3100  0.0890 -0.5518
 4655TIP3   OH213928   4.742   6.525   4.445 -0.8141  0.4855 -0.2725
 4655TIP3    H113929   4.718   6.449   4.499 -1.4957  1.2629  0.5473
 4655TIP3    H213930   4.813   6.567   4.494 -0.1853  0.1763 -0.9105
 4656TIP3   OH213931   0.799   3.419   3.991  0.5367 -0.2734  0.0498
 4656TIP3    H113932   0.834   3.486   4.050  0.3985  0.6222 -0.8660
 4656TIP3    H213933   0.754   3.358   4.049  0.3564  0.6159  0.8677
 4657TIP3   OH213934   0.464   3.134   5.299  0.3734  0.5228  0.6543
 4657TIP3    H113935   0.468   3.229   5.305 -0.2613  0.5347  0.9534
 4657TIP3    H213936   0.545   3.110   5.253  1.5882  1.0190  2.4460
 4658TIP3   OH213937   6.498   3.115   2.683 -0.5188 -0.0813  0.5905
 4658TIP3    H113938   6.554   3.167   2.741 -0.6163 -0.1645  0.7606
 4658TIP3    H213939   6.455   3.052   2.741 -1.1474  0.2863  0.5359
 4659TIP3   OH213940   4.516   0.585   2.429 -0.3199  0.1105  0.7231
 4659TIP3    H113941   4.503   0.508   2.373  1.9441  1.2742 -1.5913
 4659TIP3    H213942   4.430   0.626   2.435 -0.8789 -0.7546 -0.8669
 4660TIP3   OH213943   0.970   5.006   2.716  0.4080 -0.1484  0.0425
 4660TIP3    H113944   0.905   5.069   2.686  1.2844  1.1945  0.8856
 4660TIP3    H213945   0.969   4.937   2.649  1.0032  1.8269 -2.1175
 4661TIP3   OH213946   1.953   3.939   0.618  0.0129  0.1740 -0.8451
 4661TIP3    H113947   1.871   3.908   0.658  0.5236 -2.1028 -1.4199
 4661TIP3    H213948   1.994   3.860   0.584  1.9925  1.4087 -1.4694
 4662TIP3   OH213949   5.259   3.832   0.647  0.1649  0.3471  0.1844
 4662TIP3    H113950   5.178   3.788   0.670  0.1714  0.4059  0.3214
 4662TIP3    H213951   5.231   3.908   0.597  0.1569  0.1557 -0.1035
 4663TIP3   OH213952   4.316   4.862   2.734  0.3455  0.4735  0.0067
 4663TIP3    H113953   4.272   4.928   2.680  0.5170  0.8215  0.2867
 4663TIP3    H213954   4.403   4.900   2.751  0.5157  0.0864  0.0069
 4664TIP3   OH213955   6.967   6.461   5.381 -0.7679 -0.1679  0.4947
 4664TIP3    H113956   6.918   6.461   5.463 -1.1531  2.3903  0.3505
 4664TIP3    H213957   7.054   6.493   5.405 -0.2453 -1.2736  0.1654
 4665TIP3   OH213958   0.090   1.429   1.500 -0.0154  0.2040 -0.6998
 4665TIP3    H113959   0.169   1.384   1.467  0.7517  1.2960 -0.4211
 4665TIP3    H213960   0.110   1.449   1.591 -1.4014 -1.1746 -0.0485
 4666TIP3   OH213961   2.949   5.802   0.627 -0.4403  0.1592  0.2734
 4666TIP3    H113962   3.031   5.852   0.631 -0.2590 -0.1835  1.2048
 4666TIP3    H213963   2.947   5.754   0.710 -0.4071 -1.6843 -0.7485
 4667TIP3   OH213964   1.939   4.645   3.256  0.3589  0.9498 -0.4157
 4667TIP3    H113965   2.000   4.660   3.328  2.8111  1.1516 -2.4049
 4667TIP3    H213966   1.923   4.732   3.220  0.3855  0.6970 -1.0491
 4668TIP3   OH213967   1.426   3.814   0.738 -0.1346 -0.9219 -0.4281
 4668TIP3    H113968   1.354   3.754   0.756 -0.7232  0.1152  0.8461
 4668TIP3    H213969   1.457   3.842   0.825 -1.4779  2.4353 -0.8534
 4669TIP3   OH213970   1.529   5.013   1.860  0.1431 -0.2272 -0.1489
 4669TIP3    H113971   1.594   5.038   1.925 -0.4036  1.7433 -0.3094
 4669TIP3    H213972   1.513   5.093   1.809 -2.2527 -0.6747 -0.2399
 4670TIP3   OH213973   1.613   1.994   0.547  0.1361  0.1885 -0.0530
 4670TIP3    H113974   1.641   2.015   0.458  0.5624 -0.4337 -0.0710
 4670TIP3    H213975   1.519   2.013   0.548  0.1305  0.1944 -0.6327
 4671TIP3   OH213976   0.643   6.584   0.361 -0.7798 -0.0575  0.2517
 4671TIP3    H113977   0.693   6.502   0.358 -0.5363  0.0107  1.6340
 4671TIP3    H213978   0.678   6.630   0.438 -2.0884  0.5635  0.4986
 4672TIP3   OH213979   3.767   2.333   1.748 -0.0859 -0.5276  0.0376
 4672TIP3    H113980   3.758   2.401   1.815  1.4321 -0.2173 -0.0535
 4672TIP3    H213981   3.716   2.365   1.674 -0.0283  0.1456  0.2799
 4673TIP3   OH213982   2.100   4.642   1.650  0.3116 -0.1520  0.0303
 4673TIP3    H113983   2.173   4.590   1.617 -0.3834  1.0975 -4.0273
 4673TIP3    H213984   2.137   4.693   1.722  2.4281 -2.1128  0.4133
 4674TIP3   OH213985   6.900   2.609   3.592  0.2726  0.4096  0.1419
 4674TIP3    H113986   6.920   2.702   3.602  0.5135  0.2830  0.9371
 4674TIP3    H213987   6.964   2.578   3.527  2.4934  0.1185  2.2989
 4675TIP3   OH213988   2.092   0.920   1.256  0.0200  0.3379 -0.6191
 4675TIP3    H113989   2.091   0.828   1.231  1.6282  0.5050 -1.3414
 4675TIP3    H213990   2.031   0.925   1.330 -0.6619 -1.1474 -1.0553
 4676TIP3   OH213991   5.041   1.716   2.520 -0.6093  0.0151 -0.3379
 4676TIP3    H113992   5.121   1.724   2.572 -0.9154  1.3869 -0.0357
 4676TIP3    H213993   5.005   1.805   2.518 -0.7985 -0.0529 -2.5807
 4677TIP3   OH213994   0.033   1.306   4.762 -0.2941 -0.2451 -0.2632
 4677TIP3    H113995  -0.060   1.327   4.765 -0.2036  0.2041 -0.4119
 4677TIP3    H213996   0.059   1.324   4.671  0.1265  0.5184 -0.0044
 4678TIP3   OH213997   0.545   1.186   3.183  0.2214 -0.5901 -0.2006
 4678TIP3    H113998   0.625   1.195   3.235  0.5655  0.1038 -0.8359
 4678TIP3    H213999   0.529   1.274   3.150 -0.0803 -0.9996 -1.1555
 4679TIP3   OH214000   2.009   1.230   1.293 -0.3010  0.1589  0.1291
 4679TIP3    H114001   1.965   1.147   1.311  1.0478 -0.9016 -1.2141
 4679TIP3    H214002   2.082   1.233   1.355  0.0934 -0.0494 -0.3121
 4680TIP3   OH214003   2.222   2.743   2.389 -0.2648  0.2404  1.1540
 4680TIP3    H114004   2.205   2.667   2.333  1.0642 -0.1211  1.2137
 4680TIP3    H214005   2.270   2.708   2.464  0.2764  1.1248  1.2386
 4681TIP3   OH214006   6.269   1.430   2.278  0.5991  0.2053  0.0723
 4681TIP3    H114007   6.189   1.428   2.331 -0.2562  1.7456 -1.0682
 4681TIP3    H214008   6.338   1.407   2.340 -0.4966  0.7162  1.5793
 4682TIP3   OH214009   7.012   0.538   3.048 -0.2616  0.0052 -0.1365
 4682TIP3    H114010   7.024   0.509   2.957  1.2064  0.3031 -0.0671
 4682TIP3    H214011   7.097   0.576   3.072 -1.2393  1.8139  0.6914
 4683TIP3   OH214012   1.123   3.505   5.156 -0.4738 -0.5461 -0.6229
 4683TIP3    H114013   1.036   3.487   5.121 -0.4898  1.1546 -1.5621
 4683TIP3    H214014   1.124   3.462   5.242 -2.1573 -0.7507 -0.6745
 4684TIP3   OH214015   0.915   5.848   3.688 -0.0236 -0.3217 -0.0934
 4684TIP3    H114016   0.973   5.781   3.722 -0.5668 -1.3122 -1.0726
 4684TIP3    H214017   0.920   5.919   3.752  2.2794 -0.3392 -0.1803
 4685TIP3   OH214018   6.573   3.529   2.772  0.3514 -0.2913 -0.4508
 4685TIP3    H114019   6.553   3.571   2.856 -0.0630 -1.7565  0.2239
 4685TIP3    H214020   6.627   3.453   2.796  0.4523 -0.5723 -1.5388
 4686TIP3   OH214021   2.560   0.661   2.007 -0.5988 -0.1939  0.4070
 4686TIP3    H114022   2.562   0.611   2.088  0.0400  0.0789  0.5641
 4686TIP3    H214023   2.477   0.709   2.011 -1.2118 -1.1912  0.2671
 4687TIP3   OH214024   2.398   6.675   4.688 -0.1263 -0.6591 -0.1471
 4687TIP3    H114025   2.409   6.580   4.683 -0.9004 -0.7064 -2.3294
 4687TIP3    H214026   2.315   6.691   4.643 -1.1407  0.9008  2.1287
 4688TIP3   OH214027   3.495   3.962   4.581 -0.1694 -0.3791  0.1363
 4688TIP3    H114028   3.556   3.970   4.655  0.5348 -0.2810 -0.4459
 4688TIP3    H214029   3.549   3.980   4.504 -0.7915 -0.9704 -0.4400
 4689TIP3   OH214030   4.948   4.486   4.047 -0.2714  0.4296  0.1487
 4689TIP3    H114031   4.956   4.579   4.070 -0.6695  1.1141 -2.1997
 4689TIP3    H214032   5.023   4.469   3.989 -0.6208 -0.4981 -0.0538
 4690TIP3   OH214033   1.596   0.515   0.688  0.1198 -0.1364  0.0389
 4690TIP3    H114034   1.526   0.471   0.639  1.2590 -1.2293 -0.6675
 4690TIP3    H214035   1.638   0.572   0.624 -0.6827  1.2374  0.6937
 4691TIP3   OH214036   6.330   6.186   5.542  0.2532 -0.1499  0.2673
 4691TIP3    H114037   6.312   6.229   5.626  0.2559  1.2219 -0.3964
 4691TIP3    H214038   6.396   6.242   5.501 -3.1124  2.1212 -2.7089
 4692TIP3   OH214039   4.686   6.710   0.711  0.1156  1.2083  0.0804
 4692TIP3    H114040   4.755   6.670   0.765 -0.8427  1.7504  1.7799
 4692TIP3    H214041   4.612   6.649   0.718 -1.4607  3.2356  2.9334
 4693TIP3   OH214042   3.848   0.218   2.546 -0.1159 -0.1902 -0.0178
 4693TIP3    H114043   3.919   0.154   2.548  0.2172  0.0849 -1.7063
 4693TIP3    H214044   3.781   0.182   2.605  1.1772 -0.7071  1.2040
 4694TIP3   OH214045   0.959   3.746   3.809 -0.4798 -0.4628  0.3852
 4694TIP3    H114046   0.888   3.737   3.746 -1.1139 -0.3060  1.0579
 4694TIP3    H214047   0.925   3.809   3.874  0.9877  1.0859 -0.2727
 4695TIP3   OH214048   6.165   3.885   1.219  0.3143 -0.1330  0.1380
 4695TIP3    H114049   6.211   3.951   1.270  0.0523 -0.6499  1.0591
 4695TIP3    H214050   6.121   3.830   1.284 -0.9641 -0.1248 -0.6876
 4696TIP3   OH214051   6.942   0.122   4.027 -0.2950 -0.0625 -0.1856
 4696TIP3    H114052   7.034   0.119   3.999 -0.2102  0.5392  0.0208
 4696TIP3    H214053   6.947   0.138   4.121 -0.5592 -2.6308  0.3460
 4697TIP3   OH214054   3.372   0.120   2.578  0.0956 -0.1875  1.0418
 4697TIP3    H114055   3.365   0.026   2.566  1.1752 -0.0736 -0.7765
 4697TIP3    H214056   3.304   0.157   2.522  2.2083  0.1894 -1.4660
 4698TIP3   OH214057   1.241   4.837   2.950  0.2489 -0.2642  0.5068
 4698TIP3    H114058   1.233   4.931   2.966  0.1683 -0.1342 -0.2780
 4698TIP3    H214059   1.195   4.822   2.868  1.3977 -0.7607 -0.0801
 4699TIP3   OH214060   3.121   2.013   0.107  0.3780 -0.3785  0.2223
 4699TIP3    H114061   3.035   2.005   0.067  0.9947 -1.0245 -1.0337
 4699TIP3    H214062   3.128   2.105   0.131 -0.5525 -0.2698  0.1076
 4700TIP3   OH214063   3.173   3.763   1.548  0.0837 -0.2280 -0.2215
 4700TIP3    H114064   3.193   3.710   1.471 -0.2231  1.1713 -1.3105
 4700TIP3    H214065   3.241   3.830   1.550 -1.2236  1.1663 -0.6709
 4701TIP3   OH214066   1.281   0.392   1.506  0.3797  0.4859 -0.2802
 4701TIP3    H114067   1.283   0.478   1.549  0.4823  1.3874 -2.0070
 4701TIP3    H214068   1.371   0.379   1.475  0.6906 -0.8745  1.0904
 4702TIP3   OH214069   0.311   2.654   0.127 -0.2232  0.0678 -0.2165
 4702TIP3    H114070   0.394   2.683   0.088 -0.3283  0.4738 -0.1344
 4702TIP3    H214071   0.244   2.696   0.074 -0.3941 -0.7678 -0.6849
 4703TIP3   OH214072   0.403   6.079   0.346 -0.3956  0.6642 -0.1361
 4703TIP3    H114073   0.481   6.040   0.385 -0.7629 -0.9703 -0.9434
 4703TIP3    H214074   0.437   6.141   0.281  0.2601 -0.3414 -0.7846
 4704TIP3   OH214075   6.498   1.231   5.160  0.6445 -0.0507  0.6520
 4704TIP3    H114076   6.586   1.268   5.167  0.8401 -0.4405  0.2638
 4704TIP3    H214077   6.454   1.285   5.094  1.1334 -0.8861 -0.3823
 4705TIP3   OH214078   0.104   6.592   1.947  0.0299  0.6987 -0.1720
 4705TIP3    H114079   0.177   6.538   1.977 -1.7311 -2.2117 -0.7582
 4705TIP3    H214080   0.135   6.629   1.864  1.0473 -0.0303 -0.1372
 4706TIP3   OH214081   0.420   1.880   4.781 -0.0624  0.0659  0.0526
 4706TIP3    H114082   0.379   1.925   4.707 -1.5431  0.1455  0.8730
 4706TIP3    H214083   0.488   1.939   4.811 -1.3268  1.3551  0.5014
 4707TIP3   OH214084   4.213   2.178   0.598  0.1574  0.0296  0.4015
 4707TIP3    H114085   4.133   2.188   0.650 -0.3376  0.4813 -0.4239
 4707TIP3    H214086   4.284   2.195   0.659 -0.3666 -0.5527  1.1931
 4708TIP3   OH214087   1.693   3.348   0.289 -0.4117  0.2506 -0.1536
 4708TIP3    H114088   1.707   3.418   0.225 -3.1945  1.8474  0.8075
 4708TIP3    H214089   1.755   3.367   0.359 -1.0903  1.8196  0.0746
 4709TIP3   OH214090   5.877   1.272   5.430  0.2996 -0.1847 -0.0972
 4709TIP3    H114091   5.949   1.259   5.368  0.5227 -2.2975  0.5280
 4709TIP3    H214092   5.812   1.323   5.381  1.4476  0.2258 -1.2578
 4710TIP3   OH214093   0.131   2.998   4.917  0.3021 -0.6677  0.2293
 4710TIP3    H114094   0.191   2.986   4.844 -0.3387  1.6991 -0.8019
 4710TIP3    H214095   0.044   2.983   4.880 -0.0535  0.8215  0.3795
 4711TIP3   OH214096   2.915   0.235   4.378 -0.4460  0.6589 -0.6703
 4711TIP3    H114097   2.845   0.232   4.444 -0.1967  1.3396 -0.3616
 4711TIP3    H214098   2.996   0.227   4.429 -0.2256  1.7445 -0.8165
 4712TIP3   OH214099   2.373   6.091   2.699 -0.3879 -0.1715 -0.1303
 4712TIP3    H114100   2.327   6.014   2.732 -0.4772  0.0610  0.2915
 4712TIP3    H214101   2.362   6.086   2.604  2.2832 -2.4104 -0.4457
 4713TIP3   OH214102   3.206   4.999   4.871  0.1980  0.2906  0.3047
 4713TIP3    H114103   3.193   5.035   4.959 -0.9145  2.1730 -0.5729
 4713TIP3    H214104   3.301   4.992   4.862  0.3613  1.1297  1.2639
 4714TIP3   OH214105   2.063   0.206   3.422 -0.4600  0.8631 -0.0579
 4714TIP3    H114106   2.091   0.115   3.408  2.0252  1.5765 -0.1568
 4714TIP3    H214107   1.968   0.204   3.408 -0.4442 -1.6601 -0.2736
 4715TIP3   OH214108   3.642   0.872   1.736  0.1629  0.3060 -0.6879
 4715TIP3    H114109   3.622   0.785   1.703  0.1487  0.1535 -0.2890
 4715TIP3    H214110   3.631   0.865   1.831  2.3269  0.1552 -0.4102
 4716TIP3   OH214111   5.152   0.987   5.733  0.0296 -0.2723 -0.3782
 4716TIP3    H114112   5.236   0.971   5.776  0.0123 -0.6233 -0.4718
 4716TIP3    H214113   5.086   0.966   5.800 -0.0233 -1.8547 -0.8907
 4717TIP3   OH214114   6.941   1.676   2.638 -0.2588 -0.6042 -0.4414
 4717TIP3    H114115   6.952   1.750   2.578 -0.9558  0.1610  0.3466
 4717TIP3    H214116   7.029   1.657   2.669  0.0115 -0.5221 -1.1347
 4718TIP3   OH214117   4.627   1.989   4.399 -0.5270 -0.3066 -0.2988
 4718TIP3    H114118   4.634   1.936   4.320  1.1193  0.1559 -0.5149
 4718TIP3    H214119   4.663   1.934   4.468  0.7761  0.3057 -0.4441
 4719TIP3   OH214120   5.217   5.730   1.768 -0.3068 -0.0181  0.1804
 4719TIP3    H114121   5.192   5.778   1.847 -0.3210  1.6654 -0.7997
 4719TIP3    H214122   5.135   5.694   1.735 -0.1501 -1.7357  1.5062
 4720TIP3   OH214123   0.048   0.300   1.858 -1.1458 -0.0412  0.6757
 4720TIP3    H114124   0.102   0.335   1.786  0.3766  0.4987  2.0275
 4720TIP3    H214125   0.012   0.378   1.900 -0.9469 -0.2866  1.3032
 4721TIP3   OH214126   2.018   1.803   1.297  0.3342  0.0164 -0.0831
 4721TIP3    H114127   2.041   1.789   1.205  1.4895 -1.6072  0.4037
 4721TIP3    H214128   2.005   1.714   1.332  2.5863  0.3765  1.9568
 4722TIP3   OH214129   3.034   6.543   2.207  0.0436 -0.3946  0.1450
 4722TIP3    H114130   3.067   6.628   2.235  0.7900 -0.6310  0.0283
 4722TIP3    H214131   2.939   6.553   2.203  0.1384  0.4790 -0.0455
 4723TIP3   OH214132   2.125   6.375   5.029  0.0245 -0.4305  0.0724
 4723TIP3    H114133   2.055   6.310   5.028  0.9620 -1.4784 -0.5183
 4723TIP3    H214134   2.122   6.415   4.942  0.0168 -0.3299  0.1198
 4724TIP3   OH214135   4.278   4.598   2.207  0.4947 -0.2146  0.5086
 4724TIP3    H114136   4.248   4.544   2.280  1.5888  1.0290  1.9421
 4724TIP3    H214137   4.198   4.638   2.172  0.0627  0.0427  1.7540
 4725TIP3   OH214138   5.826   3.336   2.863 -0.1621  0.2733 -0.0201
 4725TIP3    H114139   5.847   3.251   2.823 -1.8097  0.3381 -1.1375
 4725TIP3    H214140   5.758   3.372   2.806 -2.2409  0.6588  2.5204
 4726TIP3   OH214141   6.630   2.209   3.668  0.3675  0.3811  0.1320
 4726TIP3    H114142   6.679   2.290   3.685 -0.5408  1.1332 -0.7122
 4726TIP3    H214143   6.621   2.206   3.573 -1.2899  0.3261  0.2628
 4727TIP3   OH214144   2.952   5.628   3.642 -0.2336  0.1059 -0.1611
 4727TIP3    H114145   3.026   5.568   3.647  0.0303  0.4440 -0.0017
 4727TIP3    H214146   2.958   5.680   3.722  0.2290  1.1532 -0.8600
 4728TIP3   OH214147   1.404   3.841   0.473  0.3366  0.4578  0.1890
 4728TIP3    H114148   1.328   3.899   0.468 -0.9157 -1.1751 -0.7427
 4728TIP3    H214149   1.415   3.823   0.567 -1.1743 -0.1760  0.2731
 4729TIP3   OH214150   5.413   0.821   1.384  0.5627 -0.2109 -0.2222
 4729TIP3    H114151   5.399   0.896   1.326 -0.6012  0.0969  0.4349
 4729TIP3    H214152   5.508   0.820   1.399  0.5692  1.2925 -0.0391
 4730TIP3   OH214153   5.623   6.538   3.462  0.0572  0.0580 -0.0630
 4730TIP3    H114154   5.574   6.504   3.387  0.5458  1.4216 -1.0289
 4730TIP3    H214155   5.557   6.585   3.514  0.0204  0.5165 -0.5161
 4731TIP3   OH214156   0.872   1.769   3.461 -0.4608 -1.0989 -0.5743
 4731TIP3    H114157   0.939   1.809   3.517  1.0993 -1.3967 -2.1374
 4731TIP3    H214158   0.877   1.675   3.480 -0.0804 -1.1760 -1.0415
 4732TIP3   OH214159   2.339   4.528   2.904  0.0405  0.4330  0.7926
 4732TIP3    H114160   2.321   4.611   2.949 -0.9634  0.2251  0.8085
 4732TIP3    H214161   2.428   4.538   2.871  0.4691  0.9622  2.0133
 4733TIP3   OH214162   4.677   4.113   4.046  0.1228  0.2335  0.1251
 4733TIP3    H114163   4.769   4.139   4.048  0.2558 -0.1033 -0.8008
 4733TIP3    H214164   4.672   4.053   3.971 -0.1804 -2.2933  2.0280
 4734TIP3   OH214165   2.854   4.402   3.736  0.3013 -0.1650  0.5228
 4734TIP3    H114166   2.790   4.464   3.769 -0.0510 -0.0535 -0.3567
 4734TIP3    H214167   2.920   4.456   3.692 -1.4304 -0.4798 -2.7468
 4735TIP3   OH214168   5.442   5.396   0.889  0.1244 -0.1925 -0.2416
 4735TIP3    H114169   5.467   5.457   0.958 -0.1914 -2.1918  1.7290
 4735TIP3    H214170   5.358   5.429   0.857 -0.9820 -0.5820  2.1059
 4736TIP3   OH214171   1.978   0.793   1.012  0.3674  0.3412 -0.2838
 4736TIP3    H114172   1.888   0.792   0.981  0.6496  0.4852 -1.1426
 4736TIP3    H214173   1.996   0.886   1.029 -0.3339  0.1274  2.0607
 4737TIP3   OH214174   0.860   0.701   5.317 -0.4201 -0.0197  0.0451
 4737TIP3    H114175   0.913   0.775   5.287 -4.1129  2.4633 -1.1264
 4737TIP3    H214176   0.849   0.716   5.411 -1.1840  1.0692 -0.1889
 4738TIP3   OH214177   6.875   1.125   2.080 -0.6104  0.1739  0.2439
 4738TIP3    H114178   6.875   1.147   2.174 -0.2925  0.7574  0.1114
 4738TIP3    H214179   6.864   1.209   2.036  0.6251  0.0904 -0.2704
 4739TIP3   OH214180   1.238   5.590   3.971 -0.3411  0.0608 -0.0256
 4739TIP3    H114181   1.190   5.507   3.970  1.0214 -0.8122  1.6478
 4739TIP3    H214182   1.207   5.635   4.049 -0.1485  0.5455 -0.2277
 4740TIP3   OH214183   6.184   2.159   5.058  0.4039 -0.3652 -0.0528
 4740TIP3    H114184   6.193   2.065   5.069 -0.4858 -0.2930  1.7776
 4740TIP3    H214185   6.091   2.176   5.071  0.0380  0.5152 -3.0705
 4741TIP3   OH214186   2.850   5.972   3.299 -0.2257  0.1814  0.4899
 4741TIP3    H114187   2.822   6.046   3.245 -2.4984 -0.0037  1.3217
 4741TIP3    H214188   2.794   5.899   3.270  1.8710 -1.2532 -0.2291
 4742TIP3   OH214189   2.000   2.880   3.537  0.3382 -0.5218  0.3033
 4742TIP3    H114190   1.982   2.883   3.443 -0.8390  2.4353  0.5313
 4742TIP3    H214191   1.945   2.809   3.570 -0.2236 -0.7526 -1.0572
 4743TIP3   OH214192   4.731   5.141   0.581 -0.4093  0.1423  0.0044
 4743TIP3    H114193   4.651   5.122   0.533 -0.1223  0.3217 -0.5623
 4743TIP3    H214194   4.777   5.206   0.527  2.1805 -3.0408 -1.9829
 4744TIP3   OH214195   4.300   3.438   5.448  0.2272  0.3562 -0.3477
 4744TIP3    H114196   4.351   3.443   5.366  1.2650  1.5806  0.3375
 4744TIP3    H214197   4.366   3.439   5.517 -0.6849  0.8172  0.5403
 4745TIP3   OH214198   2.337   1.104   2.351 -0.0087  0.2074 -0.5227
 4745TIP3    H114199   2.408   1.157   2.388  0.1862  1.5997 -2.7468
 4745TIP3    H214200   2.365   1.013   2.364  0.8452  0.6656  1.0937
 4746TIP3   OH214201   4.210   2.028   4.764 -0.4732 -0.0968 -0.3714
 4746TIP3    H114202   4.166   1.992   4.687 -0.3744 -0.2159 -0.3712
 4746TIP3    H214203   4.188   1.969   4.835  0.8277 -0.9513 -0.6466
 4747TIP3   OH214204   1.967   6.235   2.184  0.6252  0.2252  0.6471
 4747TIP3    H114205   1.990   6.258   2.274 -2.3576  0.7223  1.3883
 4747TIP3    H214206   1.878   6.200   2.190  0.7766 -0.8648 -1.9880
 4748TIP3   OH214207   2.612   2.107   3.132 -0.2041 -0.2672  0.4166
 4748TIP3    H114208   2.556   2.051   3.186  1.0864 -1.0258  1.0159
 4748TIP3    H214209   2.671   2.047   3.087  1.1672  0.5578  1.0069
 4749TIP3   OH214210   6.510   5.584   0.308 -0.3503 -0.0288  0.0210
 4749TIP3    H114211   6.469   5.621   0.386  1.5244 -1.8575  2.0297
 4749TIP3    H214212   6.566   5.514   0.342  1.2058 -0.3548 -2.9088
 4750TIP3   OH214213   7.095   1.065   5.503  0.0598 -0.2788 -0.6738
 4750TIP3    H114214   7.074   1.051   5.595  2.2182 -0.1529 -0.1077
 4750TIP3    H214215   7.116   0.978   5.470 -1.9043 -0.5261 -1.4480
 4751TIP3   OH214216   0.733   3.486   4.422 -0.2417  0.0501 -0.3375
 4751TIP3    H114217   0.820   3.486   4.381  0.0678 -0.2990  0.3123
 4751TIP3    H214218   0.678   3.534   4.360  0.2512 -0.3409 -1.0986
 4752TIP3   OH214219   0.037   4.044   4.392 -0.4658  0.4435 -0.1553
 4752TIP3    H114220  -0.028   3.974   4.402  0.1841 -0.1267  0.2022
 4752TIP3    H214221   0.015   4.086   4.310 -0.8403 -0.2227 -0.4059
 4753TIP3   OH214222   5.161   5.904   2.447 -0.7076 -0.1552  0.3849
 4753TIP3    H114223   5.174   5.812   2.422 -0.0123 -0.1796  0.8181
 4753TIP3    H214224   5.237   5.950   2.412 -2.2331  0.7206 -2.0116
 4754TIP3   OH214225   3.854   0.617   0.913 -0.0599  0.2556  0.4485
 4754TIP3    H114226   3.897   0.628   0.829  1.0927 -0.4047  0.9361
 4754TIP3    H214227   3.810   0.532   0.907  1.3120 -0.5294  1.0300
 4755TIP3   OH214228   4.062   5.548   0.993 -0.0780  0.0995  0.0284
 4755TIP3    H114229   4.147   5.506   1.003  0.2250  0.7301  0.1524
 4755TIP3    H214230   4.009   5.486   0.943  1.7107  1.3787 -3.8086
 4756TIP3   OH214231   4.118   1.914   5.013  0.2046  0.1339  0.7223
 4756TIP3    H114232   4.167   1.882   5.089  0.6771 -0.7878  0.0450
 4756TIP3    H214233   4.026   1.911   5.041  0.3492 -0.5280  1.1421
 4757TIP3   OH214234   1.990   2.240   5.203 -0.0667 -0.2365 -0.8941
 4757TIP3    H114235   1.927   2.305   5.171  0.7427  0.9966 -0.0509
 4757TIP3    H214236   2.073   2.265   5.163  0.7843  0.8054  1.3658
 4758TIP3   OH214237   2.387   1.681   0.351 -0.0362  0.6031 -0.0065
 4758TIP3    H114238   2.455   1.698   0.285 -0.2461 -1.5690 -0.8525
 4758TIP3    H214239   2.324   1.624   0.307 -0.9650  0.2905  1.6369
 4759TIP3   OH214240   2.199   6.212   4.178 -0.0097 -0.4964 -0.2466
 4759TIP3    H114241   2.130   6.146   4.187 -1.1817  0.7369  0.1912
 4759TIP3    H214242   2.209   6.223   4.084 -1.5843  0.4581 -0.3281
 4760TIP3   OH214243   2.382   5.264   2.733 -0.0037 -0.4070 -0.0872
 4760TIP3    H114244   2.339   5.319   2.798  1.2520  2.2388 -1.3450
 4760TIP3    H214245   2.357   5.175   2.757 -1.7608  0.6270  2.3608
 4761TIP3   OH214246   2.089   0.098   5.692 -0.2070 -0.1832  0.1168
 4761TIP3    H114247   2.040   0.132   5.617  0.5015 -0.1675 -0.3419
 4761TIP3    H214248   2.065   0.156   5.765 -1.3648 -0.5624  0.0533
 4762TIP3   OH214249   2.851   4.090   3.557 -0.3775  0.8711  0.3589
 4762TIP3    H114250   2.810   4.006   3.578 -0.5605  0.9964  0.5074
 4762TIP3    H214251   2.918   4.102   3.626  0.7987  0.0616 -0.6027
 4763TIP3   OH214252   5.576   3.268   1.218 -0.1245 -0.4172  0.0586
 4763TIP3    H114253   5.508   3.305   1.274  1.5580  0.5201  1.6468
 4763TIP3    H214254   5.609   3.192   1.267  0.0008 -0.8235 -0.6453
 4764TIP3   OH214255   5.861   4.286   4.638 -0.1921 -0.0845  0.1443
 4764TIP3    H114256   5.881   4.268   4.546  0.3060 -0.8425  0.3888
 4764TIP3    H214257   5.794   4.354   4.635  1.3181  1.4519 -0.7501
 4765TIP3   OH214258   0.829   5.812   3.312  0.3056  0.0308 -0.5442
 4765TIP3    H114259   0.839   5.769   3.397  1.5843 -0.0286 -0.7065
 4765TIP3    H214260   0.747   5.861   3.319 -1.1076 -2.2362 -0.2817
 4766TIP3   OH214261   5.762   2.112   5.795 -0.2080 -0.3483 -0.4970
 4766TIP3    H114262   5.670   2.105   5.769  0.0382  0.0880 -1.5536
 4766TIP3    H214263   5.811   2.093   5.714  0.6845 -2.7663  0.5139
 4767TIP3   OH214264   3.734   0.451   4.964  0.0031  0.2263  0.4534
 4767TIP3    H114265   3.753   0.520   4.901  0.3076  1.2744  1.6684
 4767TIP3    H214266   3.784   0.375   4.933  2.1586  1.4475  0.7913
 4768TIP3   OH214267   4.866   6.138   4.341  0.0201  0.1492 -0.5202
 4768TIP3    H114268   4.885   6.044   4.342  0.6886  0.2802  0.4139
 4768TIP3    H214269   4.775   6.145   4.371 -0.0075 -0.1946 -0.5257
 4769TIP3   OH214270   1.501   6.375   0.079  0.3367  0.3622 -0.2142
 4769TIP3    H114271   1.548   6.313   0.024 -0.5256  1.2265 -2.0187
 4769TIP3    H214272   1.553   6.382   0.159  1.1125 -1.6720 -0.5112
 4770TIP3   OH214273   4.823   5.352   5.503  0.3581  0.1408 -0.1560
 4770TIP3    H114274   4.844   5.289   5.573  0.8484  0.3382 -0.1254
 4770TIP3    H214275   4.753   5.406   5.540 -0.0494 -0.3615 -0.1695
 4771TIP3   OH214276   5.749   5.774   5.509  0.3450  0.1163 -0.3019
 4771TIP3    H114277   5.756   5.849   5.567 -0.4227 -0.6658  0.8459
 4771TIP3    H214278   5.818   5.714   5.540  2.2557  1.0761 -2.4233
 4772TIP3   OH214279   3.676   5.332   1.825  0.1035  0.0458 -0.0313
 4772TIP3    H114280   3.610   5.376   1.880 -1.1931 -0.4309 -1.1526
 4772TIP3    H214281   3.669   5.375   1.740  1.1405 -0.1366 -0.2211
 4773TIP3   OH214282   1.397   0.111   0.676 -0.6187 -0.2716  0.3188
 4773TIP3    H114283   1.349   0.169   0.616 -0.9614 -0.7163  0.1528
 4773TIP3    H214284   1.475   0.161   0.700  0.0869 -0.4937 -1.3554
 4774TIP3   OH214285   6.653   2.863   1.358 -0.0153  0.1246 -0.3176
 4774TIP3    H114286   6.698   2.801   1.301  1.9218  0.2826  0.9318
 4774TIP3    H214287   6.623   2.810   1.432  0.5214  0.4550  0.1436
 4775TIP3   OH214288   3.208   1.457   5.858  0.2595  0.0672 -0.3218
 4775TIP3    H114289   3.203   1.405   5.777 -0.9413 -0.9214  0.3513
 4775TIP3    H214290   3.299   1.486   5.863  1.6150 -3.7814  0.3795
 4776TIP3   OH214291   3.174   5.676   2.485  0.5771  0.1902  0.1094
 4776TIP3    H114292   3.255   5.725   2.503  1.5114 -1.1063 -0.4222
 4776TIP3    H214293   3.167   5.676   2.389 -0.9952  1.7221  0.1796
 4777TIP3   OH214294   4.101   0.897   4.723  0.4884 -0.0005 -0.2472
 4777TIP3    H114295   4.116   0.961   4.793  1.6717 -0.8148  0.2685
 4777TIP3    H214296   4.007   0.901   4.708  0.1920  0.1970  1.3963
 4778TIP3   OH214297   2.214   1.183   3.324 -0.6199  0.3844  0.2664
 4778TIP3    H114298   2.198   1.228   3.241 -0.7628 -0.1880 -0.0216
 4778TIP3    H214299   2.284   1.234   3.366 -2.0134  1.9782  0.8084
 4779TIP3   OH214300   3.196   2.371   2.165 -0.0152 -0.4098  0.3353
 4779TIP3    H114301   3.103   2.382   2.185  0.0792  1.1303  0.0660
 4779TIP3    H214302   3.242   2.417   2.235  0.5617 -1.3544  0.5911
 4780TIP3   OH214303   7.175   3.912   1.690 -0.4086 -0.3578 -0.4040
 4780TIP3    H114304   7.167   4.008   1.691  2.7572  0.0324  1.3388
 4780TIP3    H214305   7.106   3.881   1.748 -0.1417  1.0878  0.7388
 4781TIP3   OH214306   2.459   2.998   2.751 -0.3363  0.5404 -0.0614
 4781TIP3    H114307   2.523   3.065   2.772  0.8062 -0.4431 -0.2996
 4781TIP3    H214308   2.471   2.980   2.658  2.4826 -2.9875  0.7449
 4782TIP3   OH214309   4.348   3.761   5.808  0.1381 -0.3948  0.4319
 4782TIP3    H114310   4.268   3.709   5.817  0.1203 -0.4512 -0.0176
 4782TIP3    H214311   4.341   3.799   5.721  0.5796 -0.3599  0.4121
 4783TIP3   OH214312   4.080   2.587   4.197  0.2631  0.0113 -0.4613
 4783TIP3    H114313   4.039   2.625   4.119  0.1550 -1.1906 -1.0097
 4783TIP3    H214314   4.103   2.498   4.171  2.5109  0.3611  0.0893
 4784TIP3   OH214315   5.131   4.392   1.380  0.5062  0.1294 -0.6000
 4784TIP3    H114316   5.196   4.328   1.352 -0.2605 -1.0890  0.3275
 4784TIP3    H214317   5.062   4.387   1.313  0.4693  0.0170 -0.5534
 4785TIP3   OH214318   0.333   5.261   0.769  0.2890  0.5782  0.2118
 4785TIP3    H114319   0.337   5.257   0.865  1.3815  1.9602  0.2459
 4785TIP3    H214320   0.422   5.282   0.742 -0.1602  0.8919 -1.0741
 4786TIP3   OH214321   0.349   2.278   3.893  0.3680  0.8424  0.1928
 4786TIP3    H114322   0.388   2.301   3.808 -0.4826  0.9137 -0.1840
 4786TIP3    H214323   0.342   2.361   3.939  2.1333  0.6354  0.9141
 4787TIP3   OH214324   0.426   6.391   3.379  0.4895  0.4050  0.3458
 4787TIP3    H114325   0.517   6.385   3.409  0.8427 -1.1743 -0.8893
 4787TIP3    H214326   0.374   6.363   3.454  1.0145  1.0521  0.9711
 4788TIP3   OH214327   5.884   3.309   5.762  0.4707  0.0619 -0.3181
 4788TIP3    H114328   5.916   3.311   5.852  0.6955  0.0513 -0.3977
 4788TIP3    H214329   5.958   3.338   5.709  0.0667  0.9440 -0.4262
 4789TIP3   OH214330   3.591   3.788   5.839 -0.1767 -0.0302  0.4414
 4789TIP3    H114331   3.509   3.804   5.792  0.7410  0.6429 -1.0108
 4789TIP3    H214332   3.581   3.837   5.920 -0.7699  1.0202 -0.2343
 4790TIP3   OH214333   0.521   6.246   0.135  0.0673 -0.1086 -0.0990
 4790TIP3    H114334   0.572   6.326   0.121  1.9696 -1.2432 -0.0470
 4790TIP3    H214335   0.500   6.215   0.047 -1.5480  0.9335 -0.1141
 4791TIP3   OH214336   3.093   0.473   2.462 -0.1856 -0.1855 -0.3364
 4791TIP3    H114337   3.148   0.547   2.486 -0.6901  0.0830  0.0092
 4791TIP3    H214338   3.030   0.508   2.399  0.4866 -0.6591 -1.2985
 4792TIP3   OH214339   6.617   1.584   5.112 -0.2564 -0.2003 -0.0351
 4792TIP3    H114340   6.563   1.530   5.055 -2.7577  2.4729 -0.4207
 4792TIP3    H214341   6.666   1.641   5.053 -0.0505  0.0931  0.4070
 4793TIP3   OH214342   1.588   5.782   5.104  0.4072  0.4774 -0.0104
 4793TIP3    H114343   1.523   5.846   5.133 -1.1899 -0.5003 -1.3251
 4793TIP3    H214344   1.624   5.819   5.023 -0.2031 -0.0580 -0.5356
 4794TIP3   OH214345   6.506   5.319   4.283  0.0581  0.1405  0.0391
 4794TIP3    H114346   6.448   5.312   4.358 -0.5167  1.9717 -0.1809
 4794TIP3    H214347   6.593   5.331   4.322 -0.1902  0.7504  0.4224
 4795TIP3   OH214348   3.421   4.475   5.050 -0.2846 -0.2295 -0.7512
 4795TIP3    H114349   3.484   4.419   5.006 -1.1898 -1.8543 -0.0795
 4795TIP3    H214350   3.339   4.463   5.002 -1.1396 -1.5809  0.9101
 4796TIP3   OH214351   3.325   1.649   0.277 -0.1218  0.5007 -0.1365
 4796TIP3    H114352   3.307   1.670   0.185  1.0041  1.5246 -0.1414
 4796TIP3    H214353   3.333   1.734   0.319  3.1638  0.1720  0.1469
 4797TIP3   OH214354   5.495   4.983   2.713  0.2313 -0.0671 -0.3845
 4797TIP3    H114355   5.421   5.039   2.688 -0.2601 -0.1574  0.7972
 4797TIP3    H214356   5.548   4.978   2.634 -0.3372  1.0838 -0.8754
 4798TIP3   OH214357   0.535   1.577   3.948 -0.1408 -0.1680 -0.1972
 4798TIP3    H114358   0.599   1.586   4.018 -0.2801  2.7480 -0.3216
 4798TIP3    H214359   0.450   1.585   3.991 -0.2335  1.3729 -0.6126
 4799TIP3   OH214360   4.846   2.522   3.969  0.0702  0.0361 -0.2604
 4799TIP3    H114361   4.857   2.616   3.985 -5.0397  1.0299 -1.1581
 4799TIP3    H214362   4.904   2.504   3.894  1.4156  2.3073  0.1212
 4800TIP3   OH214363   5.182   3.557   1.742  0.5369 -0.3411 -0.3176
 4800TIP3    H114364   5.212   3.501   1.813  0.1595  0.0468  0.1573
 4800TIP3    H214365   5.198   3.646   1.773 -1.6380 -0.0832  0.2278
 4801TIP3   OH214366   1.845   0.917   2.326  0.5532  0.0977  0.0226
 4801TIP3    H114367   1.801   0.912   2.411  0.1029 -1.8182 -0.2709
 4801TIP3    H214368   1.775   0.908   2.261  1.0984 -0.4580 -0.5048
 4802TIP3   OH214369   2.272   3.841   0.204 -0.1378 -0.1622  0.2327
 4802TIP3    H114370   2.253   3.928   0.239 -0.7492  0.1168 -0.7690
 4802TIP3    H214371   2.343   3.856   0.142 -0.5854 -0.2946 -0.3128
 4803TIP3   OH214372   0.727   5.678   4.632  0.3130  0.0352 -0.4195
 4803TIP3    H114373   0.757   5.588   4.620  0.1397 -0.3880  1.7981
 4803TIP3    H214374   0.632   5.673   4.622  0.2017 -0.2465  0.6640
 4804TIP3   OH214375   6.210   0.420   2.793  0.2556 -0.2708  0.3857
 4804TIP3    H114376   6.229   0.364   2.717 -1.3312 -0.1232 -0.1571
 4804TIP3    H214377   6.284   0.405   2.852  0.1774 -2.5211  0.0253
 4805TIP3   OH214378   6.387   6.764   0.134 -0.2983 -0.1294  0.2008
 4805TIP3    H114379   6.339   6.839   0.169 -0.2083  0.0315 -0.0176
 4805TIP3    H214380   6.344   6.688   0.173 -0.9259 -0.0031 -0.2269
 4806TIP3   OH214381   1.589   4.718   2.104  0.8562 -0.2254  0.5312
 4806TIP3    H114382   1.559   4.797   2.149  0.5379  0.1300 -0.2853
 4806TIP3    H214383   1.542   4.646   2.146 -1.5171  0.3337 -0.9599
 4807TIP3   OH214384   2.449   4.541   5.362  0.3865 -0.0465  0.5600
 4807TIP3    H114385   2.426   4.449   5.367 -0.6534  0.0599 -1.3503
 4807TIP3    H214386   2.425   4.568   5.273  0.4934  2.1040  1.1088
 4808TIP3   OH214387   1.856   6.404   5.407 -0.2505  0.7239 -0.0193
 4808TIP3    H114388   1.764   6.402   5.431  0.2990  0.9585  2.3676
 4808TIP3    H214389   1.885   6.313   5.417  0.4056  1.1063  2.3519
 4809TIP3   OH214390   0.317   5.942   5.263 -0.7319 -0.3973  0.1111
 4809TIP3    H114391   0.347   6.010   5.324  0.0108 -0.3495 -0.2968
 4809TIP3    H214392   0.227   5.968   5.241 -0.4108  0.5531 -0.1552
 4810TIP3   OH214393   1.106   5.655   4.184  0.4185 -0.3252  0.1854
 4810TIP3    H114394   1.090   5.597   4.259 -0.5667  0.0188  0.2678
 4810TIP3    H214395   1.130   5.739   4.223 -0.3637 -0.0682  0.1439
 4811TIP3   OH214396   4.727   3.610   3.759 -0.1956  0.1808  0.4084
 4811TIP3    H114397   4.726   3.544   3.828  0.1907 -1.2327 -0.8644
 4811TIP3    H214398   4.783   3.680   3.793  3.1166 -2.1044  0.2106
 4812TIP3   OH214399   6.821   4.361   4.650 -0.1319  0.1898  0.0495
 4812TIP3    H114400   6.735   4.329   4.679  0.5080 -0.0410  1.8239
 4812TIP3    H214401   6.806   4.453   4.628 -0.5650  0.6052  1.8626
 4813TIP3   OH214402   0.696   3.266   4.970  0.7447 -0.2651 -0.4243
 4813TIP3    H114403   0.682   3.201   5.040 -2.1829  1.8054  1.1063
 4813TIP3    H214404   0.643   3.235   4.897 -1.6193  0.8919  0.7229
 4814TIP3   OH214405   2.193   2.101   3.363 -0.9475  0.5246 -0.1669
 4814TIP3    H114406   2.223   2.170   3.421 -0.0429 -0.3728  0.4662
 4814TIP3    H214407   2.104   2.126   3.339 -0.7473  1.7323  0.2945
 4815TIP3   OH214408   3.440   0.414   2.625 -0.7390 -0.0680 -0.2304
 4815TIP3    H114409   3.415   0.426   2.533  0.7129 -2.0363 -0.9485
 4815TIP3    H214410   3.420   0.322   2.643 -1.2792  0.3723  1.5327
 4816TIP3   OH214411   5.610   3.009   1.304 -0.0737  0.3912 -0.5133
 4816TIP3    H114412   5.702   3.028   1.322  0.1058 -0.4727 -0.5058
 4816TIP3    H214413   5.565   3.036   1.385  0.4975 -1.6252  0.5432
 4817TIP3   OH214414   3.274   5.269   4.659  0.6931 -0.4662 -0.0939
 4817TIP3    H114415   3.359   5.290   4.622  0.0826  0.6153 -0.9293
 4817TIP3    H214416   3.235   5.207   4.596 -0.1183  0.9442 -1.0258
 4818TIP3   OH214417   0.044   5.307   3.172  0.0728  0.4639  0.1796
 4818TIP3    H114418  -0.011   5.230   3.166 -1.5928  1.6941 -1.5109
 4818TIP3    H214419   0.013   5.354   3.249  1.7118 -0.9279  1.7688
 4819TIP3   OH214420   1.808   6.430   3.629 -0.0127 -0.0514 -0.2493
 4819TIP3    H114421   1.793   6.453   3.721 -1.3150 -0.3811 -0.3619
 4819TIP3    H214422   1.793   6.335   3.625  2.2823 -0.4551 -0.3842
 4820TIP3   OH214423   6.512   2.895   0.555 -0.7131 -0.2631  0.1411
 4820TIP3    H114424   6.565   2.938   0.489 -0.8807  0.1293  0.2593
 4820TIP3    H214425   6.567   2.824   0.588 -0.4785 -0.2070 -0.1330
 4821TIP3   OH214426   4.444   2.080   5.340  0.0859 -0.3191 -0.2662
 4821TIP3    H114427   4.458   1.996   5.296  0.6392  0.0655 -0.8445
 4821TIP3    H214428   4.393   2.131   5.276  0.5422  0.1025 -0.2918
 4822TIP3   OH214429   5.262   2.286   1.967  0.4628 -0.8292  0.0688
 4822TIP3    H114430   5.185   2.315   2.017  0.2351 -0.0431 -0.7082
 4822TIP3    H214431   5.267   2.192   1.983 -2.0648 -1.3749 -1.6932
 4823TIP3   OH214432   3.491   2.929   0.327 -0.3833  0.0540  0.1263
 4823TIP3    H114433   3.574   2.899   0.364  0.3909  0.7582 -0.9758
 4823TIP3    H214434   3.431   2.931   0.402  1.5229  2.9419  1.7876
 4824TIP3   OH214435   6.706   0.137   4.227 -0.3310 -0.0635  0.3546
 4824TIP3    H114436   6.795   0.157   4.256 -0.1749  0.3811 -0.4022
 4824TIP3    H214437   6.693   0.046   4.251 -0.0680  0.1759  1.4538
 4825TIP3   OH214438   1.966   4.372   1.628  0.0557  0.0214  0.3616
 4825TIP3    H114439   1.974   4.466   1.614  0.6443 -0.0847 -0.0865
 4825TIP3    H214440   1.895   4.345   1.570  0.8690 -0.0307 -0.6427
 4826TIP3   OH214441   3.524   6.320   4.785 -0.7335  0.0125 -0.6787
 4826TIP3    H114442   3.434   6.289   4.795 -0.8657  0.6732  0.3901
 4826TIP3    H214443   3.527   6.400   4.839  0.1656  0.6477 -1.6365
 4827TIP3   OH214444   5.590   5.598   4.128 -0.3516 -0.3617 -0.1044
 4827TIP3    H114445   5.613   5.562   4.213  1.6388 -0.8234 -0.7767
 4827TIP3    H214446   5.518   5.659   4.146 -1.3084 -1.9020  1.5773
 4828TIP3   OH214447   6.765   3.125   1.397 -0.1962  0.2735  0.2024
 4828TIP3    H114448   6.727   3.178   1.466  0.2744  0.1954  0.5270
 4828TIP3    H214449   6.732   3.037   1.413  0.0354  0.2267  0.4160
 4829TIP3   OH214450   5.718   6.064   2.582 -0.4443  0.0437 -0.2979
 4829TIP3    H114451   5.709   5.979   2.624 -1.5597 -0.2263 -1.0456
 4829TIP3    H214452   5.643   6.114   2.612 -0.9916  0.0089 -1.5509
 4830TIP3   OH214453   4.607   2.943   1.323 -0.3514  0.6278 -0.1888
 4830TIP3    H114454   4.677   2.879   1.314 -2.4694 -1.7895 -0.3558
 4830TIP3    H214455   4.634   2.997   1.397  1.3071 -0.7362  0.2580
 4831TIP3   OH214456   1.360   4.074   1.682  0.1034 -0.1821 -0.4194
 4831TIP3    H114457   1.402   3.989   1.666  1.0628  0.4081 -1.2157
 4831TIP3    H214458   1.432   4.137   1.672 -0.6969  0.7548 -0.3286
 4832TIP3   OH214459   4.268   0.096   0.657 -0.1698 -0.1145  0.0923
 4832TIP3    H114460   4.288   0.022   0.714 -0.8761  0.9282  1.7824
 4832TIP3    H214461   4.227   0.056   0.580 -1.3046 -1.4602  1.3236
 4833TIP3   OH214462   5.582   2.461   3.190  0.6026 -0.1854 -0.1760
 4833TIP3    H114463   5.522   2.461   3.115  1.2976 -0.0204 -0.7487
 4833TIP3    H214464   5.583   2.552   3.220  1.7331  0.1658 -1.1568
 4834TIP3   OH214465   3.157   4.640   5.653  0.2467 -0.3537 -0.1969
 4834TIP3    H114466   3.153   4.735   5.664 -1.4972 -0.5640  1.6043
 4834TIP3    H214467   3.223   4.627   5.585  0.4354  2.1367 -0.6090
 4835TIP3   OH214468   3.787   6.256   3.508 -0.1623 -0.4219  0.2789
 4835TIP3    H114469   3.775   6.315   3.583  0.6828  1.4789 -0.9845
 4835TIP3    H214470   3.872   6.215   3.525  0.3507  0.5157  0.0680
 4836TIP3   OH214471   4.834   5.535   3.534  0.9553 -0.3123 -0.1817
 4836TIP3    H114472   4.801   5.614   3.490  2.3516  0.6991  0.5300
 4836TIP3    H214473   4.759   5.475   3.534 -0.8535  1.7962  1.1905
 4837TIP3   OH214474   6.520   2.353   3.951  0.2840 -0.5951 -0.1387
 4837TIP3    H114475   6.547   2.269   3.989  0.1461 -1.4291 -1.8302
 4837TIP3    H214476   6.600   2.388   3.912  0.3280  0.0605  0.5120
 4838TIP3   OH214477   5.939   2.167   5.124  0.2202 -0.0339  0.2043
 4838TIP3    H114478   5.868   2.229   5.139  0.4024  0.8433 -2.1331
 4838TIP3    H214479   5.896   2.089   5.088  0.2504 -0.3222  0.7777
 4839TIP3   OH214480   0.883   4.012   3.878  0.2675  0.0394  0.8194
 4839TIP3    H114481   0.809   4.043   3.826  0.0566 -1.4294  0.2016
 4839TIP3    H214482   0.853   4.020   3.969 -0.3502  0.1845  0.6099
 4840TIP3   OH214483   4.980   3.198   5.352 -0.1542 -0.3133 -0.5454
 4840TIP3    H114484   5.043   3.185   5.282  0.5264 -0.9222  0.1632
 4840TIP3    H214485   5.007   3.281   5.393  0.9935 -1.1957  0.5546
 4841TIP3   OH214486   4.244   5.791   3.325  0.2312  0.0298 -0.1608
 4841TIP3    H114487   4.197   5.764   3.404  1.5182 -0.9941  0.2833
 4841TIP3    H214488   4.188   5.860   3.286  1.3180  3.4366  3.6337
 4842TIP3   OH214489   6.183   0.494   0.410 -0.2299  0.0401  0.4093
 4842TIP3    H114490   6.184   0.408   0.452  0.2850  0.3044  0.9483
 4842TIP3    H214491   6.189   0.475   0.317 -0.8718 -0.5353  0.4736
 4843TIP3   OH214492   6.620   6.424   3.379 -0.1823 -0.7109 -0.1295
 4843TIP3    H114493   6.623   6.437   3.474  0.0988  0.1019 -0.2363
 4843TIP3    H214494   6.555   6.489   3.349 -0.8759 -1.5199 -0.4093
 4844TIP3   OH214495   4.244   3.933   4.512 -0.2866  0.0190  0.5254
 4844TIP3    H114496   4.174   3.950   4.575 -0.1609 -0.2994  0.7490
 4844TIP3    H214497   4.221   3.849   4.473  0.3621 -0.4327  1.1177
 4845TIP3   OH214498   6.590   3.121   0.856 -0.0641  0.3296  0.0260
 4845TIP3    H114499   6.585   3.050   0.792 -0.6053  0.2475  0.1592
 4845TIP3    H214500   6.643   3.189   0.813  2.8401 -1.2072  0.8898
 4846TIP3   OH214501   1.157   3.742   4.727 -0.3434  0.3074  0.5609
 4846TIP3    H114502   1.088   3.694   4.774 -1.6738  1.0155 -0.5861
 4846TIP3    H214503   1.220   3.674   4.701 -0.4089 -0.3060  1.9460
 4847TIP3   OH214504   6.590   5.300   0.526 -0.5822 -0.3210 -0.1022
 4847TIP3    H114505   6.540   5.369   0.570 -1.2020 -0.3305 -0.7627
 4847TIP3    H214506   6.615   5.240   0.596 -0.4326  0.3338  0.4157
 4848TIP3   OH214507   2.825   6.731   2.280 -0.2591  0.1252 -0.3005
 4848TIP3    H114508   2.899   6.767   2.329 -0.3829  0.3346 -0.2649
 4848TIP3    H214509   2.748   6.760   2.328 -0.3916  0.6020 -0.7914
 4849TIP3   OH214510   2.813   2.677   2.215 -0.3532  0.4830 -0.3209
 4849TIP3    H114511   2.754   2.646   2.284 -2.2394  2.8421 -0.7862
 4849TIP3    H214512   2.883   2.722   2.263  0.6998 -1.5738  0.1872
 4850TIP3   OH214513   4.189   3.332   2.024  0.2932  0.2995 -0.2038
 4850TIP3    H114514   4.115   3.390   2.042  1.4254  1.4888  0.8213
 4850TIP3    H214515   4.250   3.349   2.096  1.7227 -0.3941 -1.2193
 4851TIP3   OH214516   1.790   2.936   3.855  0.0788 -0.1452 -0.5246
 4851TIP3    H114517   1.738   2.918   3.777 -1.4656  0.1287  0.3958
 4851TIP3    H214518   1.790   3.031   3.862  2.1224 -0.0301 -1.3893
 4852TIP3   OH214519   2.615   1.165   1.370 -0.2036 -0.0604  0.5618
 4852TIP3    H114520   2.645   1.208   1.450  1.0923 -0.1394  0.1414
 4852TIP3    H214521   2.558   1.229   1.329  1.2003  1.0602  0.2542
 4853TIP3   OH214522   0.063   2.910   1.833 -0.5211  0.1601  0.3108
 4853TIP3    H114523  -0.006   2.942   1.891 -0.1736  1.9314 -0.2151
 4853TIP3    H214524   0.066   2.972   1.761 -0.1739 -1.3835 -1.0689
 4854TIP3   OH214525   2.526   4.915   5.346 -0.5813 -0.5281  0.2258
 4854TIP3    H114526   2.489   4.927   5.434 -2.6671  1.9215 -0.8429
 4854TIP3    H214527   2.450   4.912   5.288  0.7812 -0.2059 -1.6876
 4855TIP3   OH214528   3.181   5.087   0.667  0.0698  0.5345  0.1029
 4855TIP3    H114529   3.224   5.164   0.630  0.6172  0.6838  1.0234
 4855TIP3    H214530   3.252   5.038   0.710 -0.4638  0.1198  0.5253
 4856TIP3   OH214531   3.797   6.695   0.631 -0.8799  0.2590  0.1054
 4856TIP3    H114532   3.865   6.670   0.569 -0.2440 -1.5023  1.4188
 4856TIP3    H214533   3.845   6.732   0.705 -1.3588 -0.5701  0.8528
 4857TIP3   OH214534   5.200   1.299   4.809 -0.2839  0.5238 -0.1595
 4857TIP3    H114535   5.223   1.263   4.895  0.6007  2.4930  0.5032
 4857TIP3    H214536   5.238   1.238   4.746  0.3981 -0.1424  0.8712
 4858TIP3   OH214537   2.390   4.043   5.081  0.2108 -0.1059 -0.2762
 4858TIP3    H114538   2.433   4.120   5.044 -0.2912  0.2525 -0.1322
 4858TIP3    H214539   2.453   3.972   5.069  0.4410  0.2013 -0.9466
 4859TIP3   OH214540   6.178   2.977   2.726  0.5171 -0.3154 -0.1767
 4859TIP3    H114541   6.170   3.009   2.817  1.2252 -1.2122  0.2145
 4859TIP3    H214542   6.169   2.882   2.733  0.4562 -0.3808 -1.0708
 4860TIP3   OH214543   5.885   2.344   3.428  0.6352 -0.0269  0.3120
 4860TIP3    H114544   5.793   2.319   3.433 -0.0228  1.6355 -1.9641
 4860TIP3    H214545   5.931   2.262   3.407 -0.5349 -0.5516 -0.2685
 4861TIP3   OH214546   6.080   0.060   3.339 -0.9084 -0.1911 -0.1227
 4861TIP3    H114547   6.143   0.129   3.324  0.5766 -1.1162  1.4467
 4861TIP3    H214548   5.996   0.105   3.349 -0.2060  1.2371 -0.4702
 4862TIP3   OH214549   5.452   6.534   2.118  0.3341 -0.0341  0.4901
 4862TIP3    H114550   5.391   6.595   2.077  0.2245  0.5953  1.5435
 4862TIP3    H214551   5.504   6.588   2.178  0.5847 -0.8924  1.0705
 4863TIP3   OH214552   1.790   4.032   1.715 -0.0865 -0.0509  0.5002
 4863TIP3    H114553   1.794   3.947   1.671  1.2401  0.1648  0.1373
 4863TIP3    H214554   1.880   4.046   1.746 -0.0067  1.6926 -0.3823
 4864TIP3   OH214555   0.428   3.512   0.362 -0.4231 -0.5274 -0.0920
 4864TIP3    H114556   0.474   3.428   0.359  0.5569  0.0044 -0.5234
 4864TIP3    H214557   0.416   3.536   0.270 -0.2464  0.0431  0.0328
 4865TIP3   OH214558   5.581   1.177   0.337  0.6923 -0.4521 -0.7581
 4865TIP3    H114559   5.624   1.137   0.261 -0.4948 -0.6531 -1.3416
 4865TIP3    H214560   5.653   1.202   0.394  1.6446  0.1795 -2.1756
 4866TIP3   OH214561   6.388   4.783   5.735  0.3888  0.3831 -0.2813
 4866TIP3    H114562   6.481   4.788   5.713  0.1969  2.0882 -0.8007
 4866TIP3    H214563   6.378   4.698   5.778  1.7332 -0.8899 -2.3165
 4867TIP3   OH214564   3.368   0.028   4.764  0.2752  0.8745  0.3750
 4867TIP3    H114565   3.433  -0.040   4.749 -0.3041  0.4790 -0.3755
 4867TIP3    H214566   3.363   0.035   4.859 -0.7458 -1.1928  0.5226
 4868TIP3   OH214567   3.000   6.108   4.036  0.3583  0.3311 -0.1211
 4868TIP3    H114568   2.942   6.053   4.088  1.3906 -0.9620 -0.2893
 4868TIP3    H214569   3.007   6.063   3.952  0.4406  1.2473 -0.6168
 4869TIP3   OH214570   4.578   3.566   5.853 -0.5487 -0.3428 -0.5038
 4869TIP3    H114571   4.634   3.519   5.914 -1.3397 -0.6400  0.0035
 4869TIP3    H214572   4.561   3.650   5.895 -0.6353 -0.3253 -0.5719
 4870TIP3   OH214573   2.932   1.875   0.948  0.1106 -0.5919 -0.0188
 4870TIP3    H114574   2.913   1.968   0.936  0.5165 -0.4193  0.6050
 4870TIP3    H214575   3.021   1.873   0.983  0.6643 -1.2976 -1.4127
 4871TIP3   OH214576   1.278   1.138   2.435 -0.0274 -0.0086  0.3783
 4871TIP3    H114577   1.330   1.218   2.431 -0.8122  0.5792  1.3442
 4871TIP3    H214578   1.233   1.143   2.520 -0.8231 -1.0087  0.0372
 4872TIP3   OH214579   6.146   5.450   5.805  0.0502 -0.2017 -0.0855
 4872TIP3    H114580   6.077   5.392   5.837 -0.5761  0.7690  0.3704
 4872TIP3    H214581   6.112   5.539   5.821  1.5886  0.3072  0.5860
 4873TIP3   OH214582   6.151   5.264   2.795  0.2025  0.5939 -0.2862
 4873TIP3    H114583   6.193   5.313   2.724  2.3968 -0.7135  0.0085
 4873TIP3    H214584   6.222   5.245   2.856 -1.1603 -0.3996  1.0584
 4874TIP3   OH214585   4.267   6.768   2.034 -0.2649  0.4824  0.3219
 4874TIP3    H114586   4.278   6.818   1.953  0.6677  0.4073  0.3877
 4874TIP3    H214587   4.213   6.693   2.008  1.9609 -0.8467 -0.8471
 4875TIP3   OH214588   0.279   5.167   3.171  0.4075  0.3183 -0.1029
 4875TIP3    H114589   0.348   5.233   3.183  0.6956 -0.3622  2.8374
 4875TIP3    H214590   0.199   5.219   3.158  1.0972  1.1641 -1.1035
 4876TIP3   OH214591   5.882   6.708   0.239  0.3613 -0.2807 -0.0866
 4876TIP3    H114592   5.891   6.786   0.293  1.3019 -0.2438 -0.2883
 4876TIP3    H214593   5.815   6.731   0.175  0.4582  0.2706  0.0065
 4877TIP3   OH214594   4.579   5.717   3.836 -0.5113 -0.2120 -0.6270
 4877TIP3    H114595   4.518   5.737   3.765 -0.8636  0.4865 -0.1411
 4877TIP3    H214596   4.609   5.802   3.867  0.5649 -0.5393 -0.7155
 4878TIP3   OH214597   2.426   2.461   5.504  0.4300  0.0704  0.1440
 4878TIP3    H114598   2.459   2.547   5.479 -0.1249  0.6239  1.2575
 4878TIP3    H214599   2.468   2.400   5.443  2.3446  0.8999  0.5897
 4879TIP3   OH214600   2.645   0.682   0.513 -0.8891  0.2477  0.0304
 4879TIP3    H114601   2.594   0.674   0.432 -0.1746  0.5596 -0.4700
 4879TIP3    H214602   2.590   0.734   0.571 -0.3432  2.3442 -1.2270
 4880TIP3   OH214603   1.158   0.880   2.024  0.2391 -0.2793  0.5554
 4880TIP3    H114604   1.117   0.935   2.090 -0.9092  1.7749 -1.7404
 4880TIP3    H214605   1.091   0.866   1.958  1.6054 -1.4940 -0.6657
 4881TIP3   OH214606   6.058   4.267   2.717  0.2487 -0.7361 -0.3596
 4881TIP3    H114607   6.074   4.332   2.649 -0.6796 -0.6626 -0.5196
 4881TIP3    H214608   6.036   4.318   2.794 -0.3087 -0.8528 -0.4390
 4882TIP3   OH214609   3.539   5.142   4.041 -0.0572 -0.2186 -0.2115
 4882TIP3    H114610   3.480   5.160   4.114 -0.0403  0.4591 -0.3553
 4882TIP3    H214611   3.586   5.224   4.028  1.5515 -0.9822  0.4583
 4883TIP3   OH214612   0.372   0.740   2.482  0.3533  0.2668  0.6180
 4883TIP3    H114613   0.388   0.799   2.556  0.7651 -1.1998  1.7460
 4883TIP3    H214614   0.286   0.701   2.500  0.1750  0.3500 -0.0116
 4884TIP3   OH214615   0.723   3.781   4.546  0.0472  0.1579  0.2487
 4884TIP3    H114616   0.688   3.816   4.628  0.1352 -0.0764  0.3906
 4884TIP3    H214617   0.685   3.693   4.540  0.9141 -0.2559  0.6108
 4885TIP3   OH214618   3.606   6.557   1.505  0.3505 -0.1350  0.0266
 4885TIP3    H114619   3.677   6.621   1.503 -0.0492  0.3060 -0.2734
 4885TIP3    H214620   3.584   6.543   1.413 -1.3062  1.2616  0.1780
 4886TIP3   OH214621   4.883   0.002   1.963  0.4714  0.5896 -0.4902
 4886TIP3    H114622   4.978   0.018   1.962  0.4381  0.7827 -0.6267
 4886TIP3    H214623   4.849   0.063   2.028  0.4467  0.4879 -0.4078
 4887TIP3   OH214624   1.861   5.818   5.613 -0.2428 -0.0860 -0.8257
 4887TIP3    H114625   1.926   5.761   5.570 -0.4249  0.5021 -1.9159
 4887TIP3    H214626   1.913   5.881   5.661  0.0072  0.2036 -1.4608
 4888TIP3   OH214627   6.641   5.786   1.843 -0.1242 -0.4470 -0.6448
 4888TIP3    H114628   6.592   5.714   1.882  1.4919 -0.5400  1.4143
 4888TIP3    H214629   6.578   5.857   1.837 -1.2862 -1.4729 -0.9924
 4889TIP3   OH214630   1.573   3.570   5.718 -0.0553  0.4901 -0.0929
 4889TIP3    H114631   1.643   3.549   5.781 -2.1487  0.7566  2.4974
 4889TIP3    H214632   1.618   3.579   5.634  3.0429  0.8410  1.4673
 4890TIP3   OH214633   5.879   5.383   3.808  0.0515 -0.2088 -0.4745
 4890TIP3    H114634   5.875   5.291   3.835 -1.2987 -0.0203  0.0133
 4890TIP3    H214635   5.796   5.421   3.837  0.2470  0.9771 -1.3758
 4891TIP3   OH214636   2.182   3.522   3.571 -0.0998 -0.0016  0.2549
 4891TIP3    H114637   2.196   3.575   3.650  0.9361 -3.3414  2.5252
 4891TIP3    H214638   2.257   3.543   3.515 -1.0066  2.6486 -0.1123
 4892TIP3   OH214639   5.193   0.175   4.609  0.6065 -0.4508  0.1864
 4892TIP3    H114640   5.255   0.224   4.555  0.3064 -0.0233  0.2234
 4892TIP3    H214641   5.138   0.242   4.649  1.7551 -0.6710  2.2195
 4893TIP3   OH214642   3.857   1.272   5.820  0.1067  0.2104  0.3068
 4893TIP3    H114643   3.831   1.320   5.741  0.5148 -1.2303 -0.7474
 4893TIP3    H214644   3.797   1.197   5.823  0.8204 -0.3575  0.7267
 4894TIP3   OH214645   2.634   2.219   2.153  0.0513  0.3619 -0.0920
 4894TIP3    H114646   2.559   2.232   2.096  0.2966  0.6735 -0.3465
 4894TIP3    H214647   2.600   2.169   2.227 -0.5368  0.9858  0.0701
 4895TIP3   OH214648   2.529   4.297   5.066 -0.5303 -0.2281 -0.2417
 4895TIP3    H114649   2.477   4.371   5.096  0.2506 -0.0353  0.6888
 4895TIP3    H214650   2.619   4.321   5.087 -0.3358 -1.8432  0.9888
 4896TIP3   OH214651   4.276   4.149   1.572  0.4545 -0.1242 -0.4699
 4896TIP3    H114652   4.234   4.192   1.498 -0.8184 -0.7061 -0.1014
 4896TIP3    H214653   4.205   4.124   1.630  1.5170  1.9983  1.9397
 4897TIP3   OH214654   2.998   3.101   5.120  0.1770 -0.3079  0.2167
 4897TIP3    H114655   2.912   3.106   5.162  0.1376 -1.2566  0.2495
 4897TIP3    H214656   2.991   3.028   5.059  0.6701  0.2026 -0.4579
 4898TIP3   OH214657   0.015   5.877   3.029  0.7092 -0.4075  0.0392
 4898TIP3    H114658   0.085   5.875   2.963  2.9918 -1.8505  2.3189
 4898TIP3    H214659   0.014   5.967   3.060 -1.0954  0.5626 -2.5197
 4899TIP3   OH214660   3.807   6.001   1.947  0.2144 -0.3244  0.2409
 4899TIP3    H114661   3.774   6.037   1.865 -1.0701 -0.0344  0.8636
 4899TIP3    H214662   3.833   5.912   1.926 -0.2111 -0.2853 -0.4597
 4900TIP3   OH214663   6.699   5.938   2.631  0.3523 -0.0604 -0.1402
 4900TIP3    H114664   6.710   5.879   2.556 -0.6446  0.7327 -0.9404
 4900TIP3    H214665   6.634   5.894   2.686  0.0986 -0.0300 -0.4104
 4901TIP3   OH214666   0.496   2.580   4.946  0.2984  0.4588 -0.2180
 4901TIP3    H114667   0.416   2.532   4.927  1.1132 -1.0165 -0.0559
 4901TIP3    H214668   0.484   2.665   4.904 -2.2027  1.0958  1.5440
 4902TIP3   OH214669   3.492   2.157   4.811  0.0486  0.3999  0.7117
 4902TIP3    H114670   3.457   2.237   4.851  0.9602  1.1041  0.1338
 4902TIP3    H214671   3.568   2.135   4.865  0.5030  0.6088  0.1607
 4903TIP3   OH214672   0.874   6.703   0.585 -0.1642  0.6103  0.0189
 4903TIP3    H114673   0.832   6.758   0.651 -1.7540 -0.4570 -0.0359
 4903TIP3    H214674   0.851   6.613   0.610 -1.7099  0.2117 -2.4970
 4904TIP3   OH214675   0.369   3.128   3.094 -0.1579  0.5989 -0.6528
 4904TIP3    H114676   0.454   3.106   3.057  0.3587  1.6426 -0.1512
 4904TIP3    H214677   0.312   3.055   3.071  0.1915  1.0416 -3.2679
 4905TIP3   OH214678   1.025   6.703   0.995  0.2582  0.4090  0.7495
 4905TIP3    H114679   1.052   6.676   0.908 -1.2210 -0.8469  0.6341
 4905TIP3    H214680   1.098   6.678   1.052 -0.3455 -2.4640  0.4069
 4906TIP3   OH214681   5.195   1.683   5.767  0.0332 -0.6780  0.4814
 4906TIP3    H114682   5.209   1.740   5.842  2.3756 -1.0552  0.3961
 4906TIP3    H214683   5.117   1.718   5.724  0.9980  2.0280  0.7978
 4907TIP3   OH214684   2.674   0.354   1.217 -0.2541  0.9844  0.1351
 4907TIP3    H114685   2.759   0.377   1.255 -0.6201  2.1956  0.2622
 4907TIP3    H214686   2.686   0.366   1.123 -0.0309  0.2862  0.0723
 4908TIP3   OH214687   1.271   1.916   4.404  0.0833 -0.0662  0.4108
 4908TIP3    H114688   1.348   1.918   4.347  0.3670  1.6590  0.7979
 4908TIP3    H214689   1.217   1.989   4.374 -1.3825 -1.2060  0.2066
 4909TIP3   OH214690   7.179   5.054   3.208  0.0087  0.3423 -0.8373
 4909TIP3    H114691   7.245   4.995   3.170 -0.4746  1.4778 -3.6514
 4909TIP3    H214692   7.154   5.011   3.290  1.6886 -1.9146 -1.3909
 4910TIP3   OH214693   4.383   1.430   3.478  0.4005  0.0743 -0.1013
 4910TIP3    H114694   4.349   1.382   3.552  1.6214  1.0068  1.1131
 4910TIP3    H214695   4.426   1.364   3.423  1.9776 -0.2809  1.4843
 4911TIP3   OH214696   4.905   2.870   1.390 -0.1937  0.2636  0.0471
 4911TIP3    H114697   4.908   2.790   1.442  0.3726 -0.0323 -0.4327
 4911TIP3    H214698   4.961   2.852   1.314  0.6610  1.4081  0.3728
 4912TIP3   OH214699   5.181   4.191   5.418  0.0543  0.5353 -0.0932
 4912TIP3    H114700   5.272   4.181   5.448 -0.1208  0.4945  0.4414
 4912TIP3    H214701   5.185   4.259   5.351  0.8141 -0.9396 -1.6139
 4913TIP3   OH214702   1.951   2.788   0.778 -0.0181 -0.1868 -0.1000
 4913TIP3    H114703   1.922   2.712   0.830  0.6456  0.5014  1.3467
 4913TIP3    H214704   1.943   2.862   0.838 -0.6674  0.9234 -1.4941
 4914TIP3   OH214705   5.760   5.784   3.946  0.4738  0.2607 -0.4283
 4914TIP3    H114706   5.710   5.741   4.015 -0.9418  2.6373  0.1132
 4914TIP3    H214707   5.850   5.786   3.980 -0.0638  0.7537  1.0527
 4915TIP3   OH214708   2.686   3.198   2.783 -0.2167 -0.0077  0.2619
 4915TIP3    H114709   2.744   3.197   2.860 -0.7237 -1.9039  0.6781
 4915TIP3    H214710   2.640   3.281   2.789  0.4877  0.3294  1.4488
 4916TIP3   OH214711   4.221   3.242   3.956 -0.0398  0.2698  0.2398
 4916TIP3    H114712   4.243   3.249   3.863 -0.8854 -1.2949 -0.0966
 4916TIP3    H214713   4.292   3.189   3.993  0.7009  1.5148  0.6682
 4917TIP3   OH214714   4.835   6.073   0.354  0.0475  0.0622 -0.3185
 4917TIP3    H114715   4.841   6.029   0.439  0.1521  0.0294 -0.3420
 4917TIP3    H214716   4.900   6.028   0.299 -1.4875 -1.3762 -1.0640
 4918TIP3   OH214717   4.727   1.736   4.502 -0.0688 -1.1617  0.6495
 4918TIP3    H114718   4.817   1.731   4.535 -0.2010 -1.2654  0.9953
 4918TIP3    H214719   4.723   1.669   4.434 -0.4607 -2.5633  2.0097
 4919TIP3   OH214720   4.703   6.299   4.644 -0.1146 -0.1039  0.3395
 4919TIP3    H114721   4.686   6.367   4.710 -0.0196  0.4772 -0.2257
 4919TIP3    H214722   4.746   6.229   4.693  1.6648  1.0784  0.5824
 4920TIP3   OH214723   6.151   0.737   0.257 -0.3805  0.3144 -0.1055
 4920TIP3    H114724   6.089   0.678   0.300  0.7070 -0.7644  0.0369
 4920TIP3    H214725   6.211   0.765   0.327 -1.4002  2.3663  0.0367
 4921TIP3   OH214726   3.293   2.565   0.390 -0.1293  0.3233  0.7788
 4921TIP3    H114727   3.376   2.523   0.412 -0.1657  0.3963  1.0577
 4921TIP3    H214728   3.318   2.648   0.349 -0.0678  0.4763  1.1261
 4922TIP3   OH214729   1.430   4.028   2.348  0.3387 -0.0036  0.4111
 4922TIP3    H114730   1.518   4.060   2.328 -0.2147  2.2277  1.2578
 4922TIP3    H214731   1.445   3.945   2.394  1.8746 -0.8991 -1.5688
 4923TIP3   OH214732   2.236   6.730   2.148  0.0104 -0.7897  0.2334
 4923TIP3    H114733   2.269   6.785   2.219  1.5998  0.8587 -1.6718
 4923TIP3    H214734   2.227   6.789   2.073 -2.6567 -2.2318 -0.7124
 4924TIP3   OH214735   0.358   4.875   4.930  0.0546  0.1506  0.4230
 4924TIP3    H114736   0.276   4.839   4.894  1.2955 -0.8870 -1.5764
 4924TIP3    H214737   0.390   4.933   4.862  1.1860  0.2230  1.0017
 4925TIP3   OH214738   5.684   1.715   1.859 -0.0609  0.4500 -0.2192
 4925TIP3    H114739   5.589   1.708   1.867  0.1223 -0.4800  2.2095
 4925TIP3    H214740   5.702   1.809   1.868 -0.7663  0.6739 -1.0828
 4926TIP3   OH214741   6.277   5.529   4.372 -0.1191  0.5737 -0.0138
 4926TIP3    H114742   6.315   5.596   4.430  1.8239  0.5800 -1.2336
 4926TIP3    H214743   6.299   5.446   4.413 -1.5116  0.6084  0.8779
 4927TIP3   OH214744   3.750   3.832   2.639  0.3106 -0.4035  0.2355
 4927TIP3    H114745   3.678   3.891   2.662 -0.2329 -0.9254 -0.0997
 4927TIP3    H214746   3.771   3.854   2.548  0.1156 -0.7134  0.1140
 4928TIP3   OH214747   2.550   3.290   2.046 -0.2520  0.2499 -0.3574
 4928TIP3    H114748   2.535   3.331   2.131  0.2234  0.4137 -0.3461
 4928TIP3    H214749   2.645   3.291   2.036 -0.3588  1.6435 -1.5701
 4929TIP3   OH214750   4.400   2.832   4.007  0.3857  0.2700  0.3395
 4929TIP3    H114751   4.416   2.921   4.039  2.4643 -0.4328  1.4142
 4929TIP3    H214752   4.396   2.841   3.912 -0.9253  1.6952  0.4968
 4930TIP3   OH214753   2.835   2.901   1.921 -0.4155 -0.0152  0.5535
 4930TIP3    H114754   2.882   2.975   1.883  3.9613 -1.6161  2.2094
 4930TIP3    H214755   2.794   2.936   2.000 -1.4262  1.3141 -0.5299
 4931TIP3   OH214756   1.455   2.229   1.019 -0.4332  0.2873  0.4774
 4931TIP3    H114757   1.407   2.149   0.998  0.0732 -0.2637  1.4129
 4931TIP3    H214758   1.394   2.280   1.073  0.0504 -0.4509  1.7389
 4932TIP3   OH214759   6.016   4.735   2.164 -0.2648 -0.2045 -0.7562
 4932TIP3    H114760   6.062   4.817   2.178 -1.6543  0.5718 -0.5716
 4932TIP3    H214761   6.050   4.702   2.080  0.6578  0.2957 -0.5889
 4933TIP3   OH214762   1.195   0.041   0.882 -0.1597 -0.0958  0.1910
 4933TIP3    H114763   1.189   0.129   0.919 -1.2686 -0.3868  0.7319
 4933TIP3    H214764   1.230   0.055   0.794  1.4902  0.7062  0.9193
 4934TIP3   OH214765   5.604   0.514   5.321  0.6658 -0.0799  0.5399
 4934TIP3    H114766   5.699   0.518   5.332  0.8363 -1.2564 -0.3648
 4934TIP3    H214767   5.583   0.421   5.323 -0.6163  0.1921  1.7862
 4935TIP3   OH214768   1.353   4.167   3.442  0.4779  0.7388 -0.6497
 4935TIP3    H114769   1.409   4.192   3.368  0.1082  0.1586 -1.1379
 4935TIP3    H214770   1.264   4.173   3.407  0.3821 -2.0102 -1.0798
 4936TIP3   OH214771   6.683   0.190   2.779 -0.1944 -0.1252  0.4326
 4936TIP3    H114772   6.777   0.204   2.779 -0.3733  1.2496 -0.7333
 4936TIP3    H214773   6.662   0.164   2.689 -0.7811 -1.6755  0.9762
 4937TIP3   OH214774   3.113   6.107   3.385 -0.5817 -0.1225  0.2374
 4937TIP3    H114775   3.107   6.058   3.303  1.0049  0.8921 -0.5433
 4937TIP3    H214776   3.040   6.169   3.382  0.4502  1.0960 -1.2820
 4938TIP3   OH214777   1.927   4.148   0.968 -0.4257  0.0845  0.0796
 4938TIP3    H114778   1.844   4.191   0.950 -1.1797 -0.6263  1.6151
 4938TIP3    H214779   1.905   4.055   0.973  0.8071 -0.3111 -1.2217
 4939TIP3   OH214780   1.530   4.016   1.215 -0.4333 -0.2539 -0.1678
 4939TIP3    H114781   1.483   4.099   1.217  0.1715  0.0959 -0.2361
 4939TIP3    H214782   1.535   3.993   1.123 -0.9361 -0.5648 -0.1211
 4940TIP3   OH214783   1.092   6.681   1.312  0.4833 -0.4674 -0.3002
 4940TIP3    H114784   1.105   6.776   1.305  2.1815 -0.8273 -3.2281
 4940TIP3    H214785   1.125   6.659   1.399  2.6732  1.2766 -0.6153
 4941TIP3   OH214786   2.084   0.473   4.458 -0.2293 -0.3159 -0.2824
 4941TIP3    H114787   2.125   0.388   4.475 -1.0097 -0.3384  1.7468
 4941TIP3    H214788   2.155   0.536   4.470 -0.3313 -0.4801  1.4900
 4942TIP3   OH214789   1.790   4.622   3.481  0.2419 -0.2256  0.0006
 4942TIP3    H114790   1.814   4.648   3.392  0.6199 -0.9601 -0.1276
 4942TIP3    H214791   1.777   4.527   3.475  0.0137 -0.2419  0.6723
 4943TIP3   OH214792   3.886   0.879   0.308  0.1569  0.0137  0.0123
 4943TIP3    H114793   3.856   0.885   0.398  0.6057 -1.2067  0.2655
 4943TIP3    H214794   3.971   0.835   0.314 -0.0257 -0.5292 -1.0283
 4944TIP3   OH214795   3.543   6.021   2.524 -0.3963 -0.3188 -0.2556
 4944TIP3    H114796   3.615   6.007   2.587  1.2724 -0.9227 -2.1908
 4944TIP3    H214797   3.549   6.113   2.501  1.0443 -0.7503 -1.8047
 4945TIP3   OH214798   5.194   6.240   2.430  0.2173  0.0682 -0.2383
 4945TIP3    H114799   5.268   6.184   2.450 -0.0845 -0.9573 -1.7639
 4945TIP3    H214800   5.119   6.180   2.425 -1.2268  1.3023  3.2926
 4946TIP3   OH214801   0.550   0.146   0.169  0.0900 -0.0123  0.0168
 4946TIP3    H114802   0.483   0.187   0.114 -0.0099  0.7088  0.6665
 4946TIP3    H214803   0.506   0.068   0.204 -0.3528  0.3516  0.2875
 4947TIP3   OH214804   4.637   6.497   0.114  0.0755 -0.6903 -0.0817
 4947TIP3    H114805   4.611   6.579   0.156 -1.0006 -0.3678 -1.3059
 4947TIP3    H214806   4.613   6.429   0.177 -0.4165 -0.1570  0.3126
 4948TIP3   OH214807   2.766   1.612   1.647  0.2287  0.2173 -0.3082
 4948TIP3    H114808   2.785   1.621   1.740 -1.1817 -0.1672  0.0276
 4948TIP3    H214809   2.734   1.698   1.620  3.1312  1.1741 -1.1046
 4949TIP3   OH214810   2.700   3.830   2.046 -0.4018  0.5236  0.6407
 4949TIP3    H114811   2.634   3.841   1.978  0.6980  2.8368 -0.1497
 4949TIP3    H214812   2.651   3.834   2.128 -1.4727 -0.0519  0.0591
 4950TIP3   OH214813   5.578   0.481   0.617 -0.2308  0.5200  0.6141
 4950TIP3    H114814   5.601   0.574   0.610 -0.3595  0.7996  3.0677
 4950TIP3    H214815   5.642   0.437   0.561  0.2646  2.0200 -0.0679
 4951TIP3   OH214816   4.113   3.641   5.424  0.1945  0.1141 -0.1671
 4951TIP3    H114817   4.147   3.658   5.336  0.8692 -1.7744 -0.3112
 4951TIP3    H214818   4.178   3.583   5.464  0.0867  1.2075  1.7318
 4952TIP3   OH214819   0.538   5.280   5.785 -0.2118 -0.2162  0.6252
 4952TIP3    H114820   0.565   5.223   5.857  0.1967  1.3718  1.7823
 4952TIP3    H214821   0.455   5.243   5.755 -0.9906 -0.2696  2.6954
 4953TIP3   OH214822   7.171   2.631   0.325 -0.3357  0.3567  0.1556
 4953TIP3    H114823   7.129   2.585   0.253  0.1529  1.6522 -1.0198
 4953TIP3    H214824   7.237   2.570   0.358 -2.1591 -1.1678  1.1319
 4954TIP3   OH214825   5.709   4.841   3.978  0.5582  0.3866  0.3200
 4954TIP3    H114826   5.669   4.870   3.895  1.5687 -0.4642 -0.4987
 4954TIP3    H214827   5.650   4.874   4.046  0.2637  2.0475 -0.6705
 4955TIP3   OH214828   1.886   3.532   2.275  0.3563 -0.0977  0.3828
 4955TIP3    H114829   1.879   3.627   2.277 -3.7022 -0.1326 -1.3557
 4955TIP3    H214830   1.849   3.503   2.359 -1.8488 -0.0764 -0.5222
 4956TIP3   OH214831   2.198   5.537   0.962  0.3507  0.2276  0.1220
 4956TIP3    H114832   2.149   5.580   0.892  0.3051  0.6343  0.4015
 4956TIP3    H214833   2.207   5.604   1.030  0.8386 -0.0050  0.2917
 4957TIP3   OH214834   3.749   0.573   3.817  0.1786  0.0293  0.1706
 4957TIP3    H114835   3.658   0.592   3.838  0.2916 -0.6915  1.3998
 4957TIP3    H214836   3.745   0.511   3.744 -0.2200  2.6670 -2.2329
 4958TIP3   OH214837   4.493   0.935   1.985  0.0640 -0.3085 -0.0867
 4958TIP3    H114838   4.560   0.930   1.916  2.2252  1.0350  1.7869
 4958TIP3    H214839   4.485   1.029   2.003 -0.0389 -0.6503  1.8358
 4959TIP3   OH214840   0.029   0.565   1.148 -0.4439  0.4171 -0.2558
 4959TIP3    H114841   0.111   0.563   1.100 -0.1536 -2.2472  0.2322
 4959TIP3    H214842  -0.003   0.655   1.136  0.8499  0.5933 -3.2341
 4960TIP3   OH214843   4.061   1.592   4.148  0.4654  0.2667  0.2500
 4960TIP3    H114844   4.145   1.615   4.188  0.0155  0.9796  0.8112
 4960TIP3    H214845   4.084   1.555   4.063  1.3905 -0.3568  0.7486
 4961TIP3   OH214846   4.542   0.102   3.176 -0.7438  0.4601 -0.0755
 4961TIP3    H114847   4.453   0.116   3.207 -1.0374  0.6308 -0.9725
 4961TIP3    H214848   4.595   0.098   3.256 -1.4185  1.2882  0.4245
 4962TIP3   OH214849   4.605   3.170   1.106 -0.5599 -0.0516  0.5958
 4962TIP3    H114850   4.517   3.144   1.079 -0.4156  0.7255 -0.7420
 4962TIP3    H214851   4.593   3.209   1.192 -1.4317 -0.5303  0.7011
 4963TIP3   OH214852   0.600   2.843   4.843 -0.4070 -0.0641 -0.2207
 4963TIP3    H114853   0.543   2.914   4.870  0.0828 -0.7443  3.0567
 4963TIP3    H214854   0.687   2.869   4.874  0.2418 -0.9651 -1.2361
 4964TIP3   OH214855   3.798   6.154   3.795 -0.0106 -0.2626 -0.1474
 4964TIP3    H114856   3.795   6.246   3.772  0.6579 -0.1460  0.2000
 4964TIP3    H214857   3.720   6.116   3.755  1.0453 -0.0689 -2.5535
 4965TIP3   OH214858   1.036   0.559   0.133 -0.0782 -0.1722  0.2795
 4965TIP3    H114859   1.037   0.577   0.039 -0.3370 -0.5140  0.2094
 4965TIP3    H214860   1.028   0.645   0.174  0.7235  0.0458  0.0149
 4966TIP3   OH214861   1.576   0.603   4.377 -0.0404  0.6135 -0.5244
 4966TIP3    H114862   1.667   0.629   4.361 -0.0896  0.1937 -1.5507
 4966TIP3    H214863   1.575   0.509   4.359 -0.8414  0.7583 -1.3005
 4967TIP3   OH214864   0.329   1.460   5.198  0.2990 -0.1164  0.2209
 4967TIP3    H114865   0.257   1.440   5.139 -0.2122 -0.6031  0.9896
 4967TIP3    H214866   0.307   1.414   5.279  1.5178 -0.3307  0.4439
 4968TIP3   OH214867   1.107   2.562   3.635 -0.4133 -0.3092 -0.3301
 4968TIP3    H114868   1.194   2.599   3.621  0.3080 -1.6483  0.3802
 4968TIP3    H214869   1.048   2.637   3.632  0.8162  0.6882 -0.3795
 4969TIP3   OH214870   2.568   0.579   2.847 -0.5456  0.0713  0.3902
 4969TIP3    H114871   2.548   0.610   2.758 -0.7926  0.5351  0.6009
 4969TIP3    H214872   2.504   0.510   2.863 -0.0786 -0.4610 -0.0367
 4970TIP3   OH214873   3.144   2.470   3.267  0.6577  0.3413 -0.1553
 4970TIP3    H114874   3.193   2.539   3.223  1.0251 -0.4450 -1.0035
 4970TIP3    H214875   3.117   2.411   3.197  1.1181 -0.8516  0.6419
 4971TIP3   OH214876   1.459   1.124   1.752 -0.7106 -0.7406 -0.5040
 4971TIP3    H114877   1.422   1.126   1.840 -0.2675 -1.1223 -0.3103
 4971TIP3    H214878   1.412   1.193   1.705  0.3775  0.7884  0.5517
 4972TIP3   OH214879   0.057   6.381   5.646  0.0377  0.5867  0.5010
 4972TIP3    H114880   0.096   6.468   5.638 -0.0299  0.4815 -1.4954
 4972TIP3    H214881   0.100   6.342   5.722  0.3260  2.2146  1.2137
 4973TIP3   OH214882   0.826   0.128   5.883  0.1299  0.4473  0.1499
 4973TIP3    H114883   0.876   0.047   5.873 -1.5119 -1.0667  2.8892
 4973TIP3    H214884   0.736   0.103   5.861 -0.3802  1.5407  0.8967
 4974TIP3   OH214885   4.463   0.056   4.897  0.1112 -0.0505 -0.1051
 4974TIP3    H114886   4.457  -0.034   4.864  0.1533 -0.4517  0.9645
 4974TIP3    H214887   4.379   0.072   4.939  0.0811  0.4438 -0.3438
 4975TIP3   OH214888   6.241   4.969   3.508  0.0177  0.2349 -0.1370
 4975TIP3    H114889   6.245   5.065   3.512 -0.0019  0.2239  0.1980
 4975TIP3    H214890   6.152   4.950   3.479 -0.3495  0.3014  0.8883
 4976TIP3   OH214891   6.291   1.947   4.787 -0.4296 -0.1071 -0.1769
 4976TIP3    H114892   6.241   1.902   4.719  0.1539 -0.5210 -0.3439
 4976TIP3    H214893   6.234   1.946   4.864 -0.8698 -0.1345 -0.5021
 4977TIP3   OH214894   2.453   2.683   4.464 -0.4632 -0.0259  0.8580
 4977TIP3    H114895   2.456   2.595   4.500 -0.1562 -0.6721 -0.6809
 4977TIP3    H214896   2.540   2.696   4.424 -0.7658  0.6681  0.3910
 4978TIP3   OH214897   2.812   4.205   4.908  0.0371 -0.5543 -0.3412
 4978TIP3    H114898   2.901   4.196   4.873  0.5988  1.0679  0.5376
 4978TIP3    H214899   2.818   4.167   4.996 -0.0478 -0.1998 -0.1788
 4979TIP3   OH214900   6.546   0.070   1.638  0.2050 -0.2901 -0.0171
 4979TIP3    H114901   6.522  -0.023   1.647 -0.5027 -0.1967 -0.8561
 4979TIP3    H214902   6.510   0.096   1.554 -0.0185  0.8819  0.4264
 4980TIP3   OH214903   2.942   1.069   1.563 -0.2350 -0.0552  0.4024
 4980TIP3    H114904   2.895   1.149   1.538  0.2621  0.2726  0.5091
 4980TIP3    H214905   2.918   1.055   1.654 -2.2840 -1.4139 -0.2678
 4981TIP3   OH214906   3.187   2.760   2.775 -0.1916 -0.4097  0.2184
 4981TIP3    H114907   3.097   2.751   2.807 -0.3542 -1.4204 -0.5108
 4981TIP3    H214908   3.199   2.855   2.766 -1.7085 -0.2942 -1.1252
 4982TIP3   OH214909   1.264   0.290   2.181 -0.0731  0.2246 -0.6696
 4982TIP3    H114910   1.261   0.211   2.127  4.7532 -0.6756 -0.0684
 4982TIP3    H214911   1.293   0.359   2.121 -0.1927  0.5365 -0.3716
 4983TIP3   OH214912   5.302   4.138   0.289  0.5956 -0.2932  0.2206
 4983TIP3    H114913   5.211   4.107   0.282 -0.2074  1.7758  0.7873
 4983TIP3    H214914   5.348   4.090   0.220 -1.5836  0.7588 -2.1506
 4984TIP3   OH214915   6.372   2.026   3.913 -0.6174  0.3619  0.4851
 4984TIP3    H114916   6.407   2.004   3.827 -0.5090  0.6411  0.4564
 4984TIP3    H214917   6.294   2.080   3.895 -0.3766  0.7399  0.5659
 4985TIP3   OH214918   1.205   0.709   5.134 -0.6157  0.3563  0.0675
 4985TIP3    H114919   1.180   0.707   5.042  1.4384  0.9372 -0.5658
 4985TIP3    H214920   1.212   0.617   5.160 -1.6898  0.1957 -0.2016
 4986TIP3   OH214921   5.958   4.519   3.678  0.0612  0.0515 -0.5368
 4986TIP3    H114922   5.907   4.511   3.759  1.5828  3.3896  0.9467
 4986TIP3    H214923   6.026   4.583   3.699  0.1950  1.5273 -4.6322
 4987TIP3   OH214924   3.226   2.158   4.697  0.0472  0.5079  0.3080
 4987TIP3    H114925   3.305   2.113   4.727 -0.0547  1.0848  1.4957
 4987TIP3    H214926   3.252   2.249   4.686 -0.0354  0.3981 -0.9814
 4988TIP3   OH214927   4.538   4.874   5.844 -0.1894 -0.1266 -0.2350
 4988TIP3    H114928   4.601   4.836   5.906  1.1806  0.5406 -1.1700
 4988TIP3    H214929   4.487   4.799   5.813 -0.4944 -0.5576  1.2050
 4989TIP3   OH214930   2.773   6.117   1.864  0.0288 -0.1992  0.5160
 4989TIP3    H114931   2.865   6.109   1.892 -0.6810 -1.5506  2.7037
 4989TIP3    H214932   2.724   6.121   1.946 -2.2239 -4.0669 -0.4364
 4990TIP3   OH214933   2.545   6.774   2.444  0.6901  0.3573  0.0754
 4990TIP3    H114934   2.516   6.834   2.513 -0.7687  0.2385 -0.4115
 4990TIP3    H214935   2.469   6.764   2.387  1.2801 -1.0282 -0.5103
 4991TIP3   OH214936   2.506   3.449   2.743 -0.4482 -0.0902  0.0336
 4991TIP3    H114937   2.455   3.502   2.682 -1.5704 -0.5592  0.5269
 4991TIP3    H214938   2.451   3.444   2.821  0.6604 -0.0637  0.8411
 4992TIP3   OH214939   1.036   0.351   4.714  0.0716 -0.5228 -0.1476
 4992TIP3    H114940   0.974   0.355   4.787 -0.9761 -0.1588 -1.0347
 4992TIP3    H214941   1.063   0.259   4.710 -1.4999 -0.9925 -0.6078
 4993TIP3   OH214942   0.511   0.300   4.900 -0.8324  0.5077  0.4867
 4993TIP3    H114943   0.500   0.369   4.835 -1.1733  0.2958  0.3137
 4993TIP3    H214944   0.423   0.264   4.912 -0.6539  0.0706  0.5316
 4994TIP3   OH214945   1.687  -0.007   1.384  0.3650  0.3524 -0.0236
 4994TIP3    H114946   1.712   0.027   1.470  0.7496 -0.3586  0.1610
 4994TIP3    H214947   1.759   0.017   1.326  0.8638 -0.5161  0.2093
 4995TIP3   OH214948   2.604   1.147   0.732 -0.5188  0.4957  0.0059
 4995TIP3    H114949   2.615   1.082   0.801  0.1724  0.7853  0.1731
 4995TIP3    H214950   2.509   1.164   0.729 -0.6825 -0.3904  0.0650
 4996TIP3   OH214951   4.749   1.355   5.382 -0.0376 -0.3555 -0.0890
 4996TIP3    H114952   4.744   1.382   5.291  3.2087 -0.9615 -0.5689
 4996TIP3    H214953   4.682   1.406   5.426 -0.8098  0.9313 -2.5716
 4997TIP3   OH214954   0.042   4.313   1.424 -0.5727 -0.0817 -0.5464
 4997TIP3    H114955   0.126   4.272   1.401 -0.4924  0.0802 -0.5422
 4997TIP3    H214956  -0.010   4.308   1.345  0.2470  1.8760 -1.2621
 4998TIP3   OH214957   1.239   1.475   2.749  0.1334  0.5747 -0.0269
 4998TIP3    H114958   1.180   1.499   2.820  2.2178  0.8682  1.7065
 4998TIP3    H214959   1.239   1.551   2.690 -2.4801 -0.1144 -1.0510
 4999TIP3   OH214960   5.553   0.919   3.800 -0.2185  0.5731 -0.4382
 4999TIP3    H114961   5.531   0.849   3.861 -0.1155  1.4339  0.6118
 4999TIP3    H214962   5.479   0.924   3.740 -0.1468 -0.5370 -0.6373
 5000TIP3   OH214963   4.109   4.801   3.972 -0.3898 -0.4223 -0.4638
 5000TIP3    H114964   4.066   4.875   4.015  0.4259 -0.6458  0.7871
 5000TIP3    H214965   4.064   4.794   3.888 -1.1690  0.8494 -0.1976
 5001TIP3   OH214966   4.782   6.069   4.753  0.3679  0.2714 -0.1061
 5001TIP3    H114967   4.779   5.998   4.689  2.4411  0.4536 -0.4504
 5001TIP3    H214968   4.736   6.034   4.829 -0.4946 -0.6306 -1.0018
 5002TIP3   OH214969   3.295   5.743   0.826  0.0411  0.3536 -0.2890
 5002TIP3    H114970   3.335   5.790   0.899 -0.1084 -0.4506  0.3304
 5002TIP3    H214971   3.253   5.667   0.867 -0.9445  0.4501 -1.0931
 5003TIP3   OH214972   0.538   4.998   3.715  0.1614  0.1323 -0.6249
 5003TIP3    H114973   0.610   4.959   3.764  0.5188 -0.3603 -1.5137
 5003TIP3    H214974   0.465   4.937   3.726  0.1511  0.1737 -0.4653
 5004TIP3   OH214975   1.073   2.526   2.230  0.3645  0.0464 -0.5150
 5004TIP3    H114976   1.043   2.435   2.235 -0.7501  0.3439 -1.5384
 5004TIP3    H214977   1.006   2.571   2.179  0.6109  1.5790  0.4595
 5005TIP3   OH214978   1.724   6.714   4.242 -0.0048  0.1323  0.6817
 5005TIP3    H114979   1.660   6.733   4.173  0.3673 -0.3583  0.1940
 5005TIP3    H214980   1.671   6.693   4.319 -0.4847 -2.1896 -0.2213
 5006TIP3   OH214981   1.424   5.061   3.276  0.5017 -0.3042 -0.2830
 5006TIP3    H114982   1.373   5.040   3.354 -0.4582 -1.2897 -1.1368
 5006TIP3    H214983   1.421   5.156   3.271  1.1314 -0.1767  1.2201
 5007TIP3   OH214984   3.381   3.001   4.235  0.6113 -0.1411  0.0640
 5007TIP3    H114985   3.285   3.000   4.238  0.5620  1.8179  1.0959
 5007TIP3    H214986   3.407   3.035   4.321  2.2152 -0.2254 -0.3610
 5008TIP3   OH214987   0.097   0.615   3.870  0.6000  0.5663  0.2085
 5008TIP3    H114988   0.143   0.637   3.789  1.0476 -1.4141 -0.1098
 5008TIP3    H214989   0.138   0.535   3.901 -1.1849 -0.0752  1.0869
 5009TIP3   OH214990   2.068   4.247   2.763 -0.3246  0.5258  0.2218
 5009TIP3    H114991   2.021   4.310   2.818 -0.3936  1.1706 -0.5422
 5009TIP3    H214992   2.159   4.254   2.791 -0.5326 -0.0331  1.0634
 5010TIP3   OH214993   2.919   4.057   2.261  0.8325 -0.3505 -0.0637
 5010TIP3    H114994   2.970   4.113   2.319 -1.0840  0.7286  0.6788
 5010TIP3    H214995   2.931   3.968   2.295 -0.3060  0.2679  2.0995
 5011TIP3   OH214996   4.817   1.202   1.550  0.0578 -0.1064 -0.2742
 5011TIP3    H114997   4.780   1.267   1.490  0.2291  1.2813  1.0520
 5011TIP3    H214998   4.900   1.240   1.578 -0.6236 -0.0307  1.8443
 5012TIP3   OH214999   4.264   3.341   3.655  0.3703 -0.3957  0.6487
 5012TIP3    H115000   4.338   3.307   3.604 -0.1954  0.2914 -0.6710
 5012TIP3    H215001   4.276   3.436   3.655 -0.6467 -0.2544  0.1877
 5013TIP3   OH215002   3.026   3.068   4.271 -0.0044 -0.0239 -0.3423
 5013TIP3    H115003   2.992   3.067   4.361  1.3379 -0.8432  0.1805
 5013TIP3    H215004   3.007   3.157   4.240 -0.5472  0.2517  0.7253
 5014TIP3   OH215005   1.836   3.973   5.557  0.0798 -0.1243 -0.6653
 5014TIP3    H115006   1.853   3.969   5.651  0.3943  4.5490 -0.3153
 5014TIP3    H215007   1.921   3.955   5.516  0.5143  0.2488  0.0606
 5015TIP3   OH215008   7.083   2.610   1.182 -0.4320 -0.6312  0.6325
 5015TIP3    H115009   7.074   2.539   1.245 -0.8835 -0.3000  0.9444
 5015TIP3    H215010   7.149   2.668   1.219 -0.9073 -0.2853  0.9486
 5016TIP3   OH215011   4.385   1.718   3.153 -0.5231 -0.0157  0.0253
 5016TIP3    H115012   4.438   1.790   3.186  0.6606 -1.7736  2.3019
 5016TIP3    H215013   4.334   1.689   3.229 -0.6326 -1.8213 -0.6919
 5017TIP3   OH215014   2.380   6.106   5.107 -0.2645  0.1246 -0.1794
 5017TIP3    H115015   2.311   6.158   5.066  0.1645  1.5942  0.8820
 5017TIP3    H215016   2.439   6.171   5.146 -1.1370 -1.0933  3.5789
 5018TIP3   OH215017   3.390   2.269   0.277 -0.0550  0.0121 -0.0377
 5018TIP3    H115018   3.406   2.181   0.241  2.4763 -0.2693  1.4585
 5018TIP3    H215019   3.338   2.253   0.356 -1.5434  0.1348 -0.9675
 5019TIP3   OH215020   5.055   0.370   0.415 -0.0698 -0.3924  0.3156
 5019TIP3    H115021   5.116   0.405   0.480  0.7830  1.5395 -1.3803
 5019TIP3    H215022   4.973   0.357   0.462  0.1664  2.0552  1.5482
 5020TIP3   OH215023   2.963   5.642   0.844 -0.3370  0.0717 -0.3694
 5020TIP3    H115024   3.041   5.586   0.837  0.1126  0.4986  1.0036
 5020TIP3    H215025   2.948   5.652   0.938 -0.7327  1.7986 -0.5802
 5021TIP3   OH215026   1.641   5.192   4.885 -0.4183  0.4023 -0.1852
 5021TIP3    H115027   1.690   5.111   4.869 -0.7934  0.2008 -0.3196
 5021TIP3    H215028   1.558   5.180   4.839 -1.6568 -0.3280  2.0847
 5022TIP3   OH215029   5.816   4.404   2.131 -0.0526 -0.2998 -0.3357
 5022TIP3    H115030   5.785   4.313   2.126  0.5423 -0.5115 -0.3381
 5022TIP3    H215031   5.895   4.405   2.076  0.5719 -0.0574  0.5347
 5023TIP3   OH215032   3.218   1.949   2.504 -0.2806  0.8028 -0.3844
 5023TIP3    H115033   3.201   2.031   2.458  3.2946  1.3485 -1.0445
 5023TIP3    H215034   3.289   1.909   2.455  1.2075 -0.4205  2.5432
 5024TIP3   OH215035   1.629   6.135   4.968  0.0735 -0.5825 -0.3246
 5024TIP3    H115036   1.544   6.092   4.961 -0.2255 -0.0426 -0.0270
 5024TIP3    H215037   1.615   6.224   4.937  0.2709 -0.1667  0.7431
 5025TIP3   OH215038   6.300   6.341   2.780  0.7529  0.2146 -0.6095
 5025TIP3    H115039   6.339   6.353   2.694 -0.2966 -1.3967 -1.3467
 5025TIP3    H215040   6.359   6.282   2.826  2.0802  2.1817  0.3731
 5026TIP3   OH215041   0.191   1.511   4.848 -0.3704 -0.0946 -0.4350
 5026TIP3    H115042   0.132   1.439   4.824  0.9275 -1.1291 -0.6357
 5026TIP3    H215043   0.169   1.581   4.788 -0.2577 -1.0615 -1.6381
 5027TIP3   OH215044   6.794   3.700   1.135  0.1038  0.1867 -0.1519
 5027TIP3    H115045   6.743   3.703   1.216 -1.2610  1.8574 -1.0162
 5027TIP3    H215046   6.773   3.615   1.096  0.4727 -0.4644  1.0152
 5028TIP3   OH215047   1.008   3.287   3.374 -0.0653  0.1619  0.4315
 5028TIP3    H115048   1.069   3.255   3.307 -0.4531 -3.6023  1.6130
 5028TIP3    H215049   0.927   3.305   3.326  0.2446 -0.5412 -0.3856
 5029TIP3   OH215050   5.896   4.664   0.069 -0.3545 -0.4820 -0.2239
 5029TIP3    H115051   5.818   4.636   0.021 -0.5517 -0.2141 -0.0567
 5029TIP3    H215052   5.946   4.583   0.081 -0.7268 -0.6972 -0.1084
 5030TIP3   OH215053   6.930   6.203   1.257 -0.3823 -0.2423  0.4886
 5030TIP3    H115054   6.956   6.230   1.345  2.1865  2.1107 -0.8266
 5030TIP3    H215055   7.011   6.207   1.207 -1.8857 -0.8347 -2.1509
 5031TIP3   OH215056   0.315   4.618   1.207 -0.1329 -1.1182 -0.1341
 5031TIP3    H115057   0.399   4.631   1.250 -0.4729 -0.6143  0.3994
 5031TIP3    H215058   0.298   4.700   1.161 -1.2723 -0.4201  1.4446
 5032TIP3   OH215059   0.978   0.512   3.456  0.2098  0.5529 -0.5038
 5032TIP3    H115060   0.956   0.432   3.503 -1.5170  0.6757 -1.0369
 5032TIP3    H215061   0.993   0.484   3.366 -0.5324  0.8317 -0.7206
 5033TIP3   OH215062   2.434   1.718   0.613  0.6270  0.4816 -0.1382
 5033TIP3    H115063   2.522   1.682   0.609  1.0668  1.5447 -0.4544
 5033TIP3    H215064   2.403   1.718   0.523 -0.7283 -2.2199  0.2146
 5034TIP3   OH215065   2.091   3.605   5.684 -0.0603 -0.4039  0.1589
 5034TIP3    H115066   2.123   3.524   5.643 -0.5057 -1.1524  1.2532
 5034TIP3    H215067   2.055   3.656   5.611  3.2993  0.3813 -1.1408
 5035TIP3   OH215068   6.988   2.291   3.755  0.0509  0.0786 -0.1995
 5035TIP3    H115069   6.963   2.231   3.825 -1.1848 -1.3229 -1.7582
 5035TIP3    H215070   7.082   2.305   3.767  0.4252 -2.3216  0.1641
 5036TIP3   OH215071   4.769   6.773   2.693 -0.0021 -0.2380 -0.1515
 5036TIP3    H115072   4.803   6.839   2.754  1.6694 -1.3690  0.2222
 5036TIP3    H215073   4.847   6.726   2.664 -1.0224 -1.2098 -1.4238
 5037TIP3   OH215074   0.819   4.886   5.802  0.2644 -0.6084  0.6332
 5037TIP3    H115075   0.735   4.877   5.758 -0.1148  1.3069  0.8395
 5037TIP3    H215076   0.875   4.818   5.764 -1.2116 -1.5764  0.1241
 5038TIP3   OH215077   3.679   0.147   1.593 -0.4904  0.2655 -0.1190
 5038TIP3    H115078   3.724   0.208   1.652  0.0711  0.5083 -0.7892
 5038TIP3    H215079   3.593   0.135   1.633  0.5683 -1.2410  1.9284
 5039TIP3   OH215080   5.883   2.398   5.847  0.2590 -0.3083  0.0035
 5039TIP3    H115081   5.809   2.437   5.801 -0.7740  0.2457  2.0041
 5039TIP3    H215082   5.881   2.305   5.821  0.5009  0.1915 -1.9706
 5040TIP3   OH215083   6.003   3.520   4.271  0.0043 -0.0792 -0.5461
 5040TIP3    H115084   6.005   3.442   4.215 -3.3741  1.4908 -3.2143
 5040TIP3    H215085   5.935   3.500   4.336  0.1493  0.1036 -0.3407
 5041TIP3   OH215086   5.345   1.937   4.930 -0.2241  0.3721  0.9050
 5041TIP3    H115087   5.344   2.013   4.871  1.4901  1.0235  1.6296
 5041TIP3    H215088   5.255   1.930   4.963 -0.7555  1.1543 -0.3205
 5042TIP3   OH215089   5.364   3.543   4.096 -0.0476  0.2709 -0.4228
 5042TIP3    H115090   5.436   3.605   4.107  0.4961 -0.4270 -0.0681
 5042TIP3    H215091   5.345   3.512   4.184 -0.3150 -0.0755 -0.6024
 5043TIP3   OH215092   5.670   5.667   4.698  0.1532 -0.1181  0.1629
 5043TIP3    H115093   5.689   5.671   4.792 -0.5158  2.1940  0.2498
 5043TIP3    H215094   5.575   5.660   4.694 -0.2824  3.7696 -0.2372
 5044TIP3   OH215095   0.686   4.016   4.399  0.0943 -0.3774 -0.3363
 5044TIP3    H115096   0.698   3.941   4.457  1.4205  0.8947  1.1295
 5044TIP3    H215097   0.772   4.057   4.395 -0.5995  1.0714 -1.0712
 5045TIP3   OH215098   1.902   2.871   5.315  0.4780  0.3442  0.1927
 5045TIP3    H115099   1.875   2.794   5.266  0.2996 -0.3829  1.3907
 5045TIP3    H215100   1.964   2.916   5.257  0.4235 -0.5804 -0.6038
 5046TIP3   OH215101   1.349   0.872   2.465  0.4849 -0.2864  0.4021
 5046TIP3    H115102   1.432   0.852   2.422  2.0376  3.1381  1.4493
 5046TIP3    H215103   1.320   0.953   2.424 -1.8395 -0.8339  0.8338
 5047TIP3   OH215104   5.653   1.286   2.743 -0.0382 -0.3540 -0.0911
 5047TIP3    H115105   5.632   1.196   2.717 -1.4141  0.1696 -0.8895
 5047TIP3    H215106   5.570   1.332   2.738  0.4618  0.7591  1.2648
 5048TIP3   OH215107   4.809   4.366   0.415 -0.0178 -0.2576 -0.3445
 5048TIP3    H115108   4.814   4.449   0.463  1.1504 -1.2651  1.3870
 5048TIP3    H215109   4.718   4.339   0.423 -0.2565  0.5368 -0.3476
 5049TIP3   OH215110   6.466   6.091   4.202 -0.3377 -0.7199  0.0051
 5049TIP3    H115111   6.441   6.126   4.116 -1.1906 -1.7935 -0.1927
 5049TIP3    H215112   6.411   6.014   4.214  0.9096 -1.5135  0.8135
 5050TIP3   OH215113   5.503   5.742   3.811  0.3172 -0.5618 -0.4466
 5050TIP3    H115114   5.583   5.789   3.835  0.3193  0.1992 -1.8286
 5050TIP3    H215115   5.443   5.811   3.783 -0.7218 -1.1505  0.2729
 5051TIP3   OH215116   5.644   6.365   0.226  0.0157 -0.1041  0.6247
 5051TIP3    H115117   5.691   6.354   0.143  0.0241  0.4634  0.5501
 5051TIP3    H215118   5.555   6.391   0.199 -0.1786 -0.5807  0.7814
 5052TIP3   OH215119   6.966   3.324   4.903 -0.1951 -0.1047 -0.2407
 5052TIP3    H115120   6.956   3.354   4.994 -4.4195  0.1346 -0.5515
 5052TIP3    H215121   6.951   3.402   4.850 -1.0076 -0.8078 -1.0893
 5053TIP3   OH215122   6.992   4.854   2.445 -0.1514 -0.6890 -0.1055
 5053TIP3    H115123   7.007   4.948   2.459 -0.0489 -0.8701  1.1561
 5053TIP3    H215124   7.043   4.833   2.367 -1.1468  0.5391 -1.1327
 5054TIP3   OH215125   1.637   2.058   0.269 -0.6163 -0.1970  0.0887
 5054TIP3    H115126   1.570   1.992   0.252  0.5422 -1.2389 -0.5681
 5054TIP3    H215127   1.717   2.023   0.230  0.1264  1.4352  0.0288
 5055TIP3   OH215128   4.307   3.694   1.015  0.0580  0.2498  0.0680
 5055TIP3    H115129   4.346   3.757   1.076  0.9361  0.9160 -1.1305
 5055TIP3    H215130   4.381   3.640   0.987  0.0722  1.2223 -1.8866
 5056TIP3   OH215131   4.858   3.553   5.098  0.3675 -0.0485 -0.4665
 5056TIP3    H115132   4.801   3.587   5.166  1.3616 -0.8605  0.8184
 5056TIP3    H215133   4.930   3.616   5.092 -0.0743  0.4073 -1.3250
 5057TIP3   OH215134   0.363   0.174   1.265 -0.2813 -0.1749 -0.2487
 5057TIP3    H115135   0.301   0.169   1.192 -2.0998  0.9352  1.1298
 5057TIP3    H215136   0.321   0.123   1.335  0.2285  0.8036  0.8051
 5058TIP3   OH215137   2.677   5.189   3.309 -0.3051  0.2487  0.4159
 5058TIP3    H115138   2.586   5.196   3.279 -0.0698 -0.0783 -0.4221
 5058TIP3    H215139   2.709   5.279   3.309 -0.5492  0.3363  0.4330
 5059TIP3   OH215140   1.157   2.640   1.984  0.5032  0.5432 -0.0907
 5059TIP3    H115141   1.075   2.675   2.018  0.8353 -0.0488  1.4432
 5059TIP3    H215142   1.196   2.713   1.935 -0.7563  0.9326 -0.5462
 5060TIP3   OH215143   6.049   6.445   0.670  0.3452  0.4474  0.4574
 5060TIP3    H115144   6.034   6.354   0.695 -0.0589  0.1349 -0.8041
 5060TIP3    H215145   5.961   6.481   0.659  0.4432  0.1716 -1.7200
 5061TIP3   OH215146   3.636   2.796   2.963 -0.0477 -0.0049  0.3335
 5061TIP3    H115147   3.576   2.791   2.889 -1.7523  0.1861  1.6524
 5061TIP3    H215148   3.685   2.877   2.949  1.6944 -1.3543 -2.0156
 5062TIP3   OH215149   6.917   4.952   1.222 -0.6075  0.5176 -0.2938
 5062TIP3    H115150   6.851   4.883   1.234 -1.4764  1.4324  0.4313
 5062TIP3    H215151   7.001   4.907   1.232 -1.1606 -0.2470  1.3567
 5063TIP3   OH215152   2.897   1.365   4.780 -0.5302  0.0087  0.0975
 5063TIP3    H115153   2.815   1.332   4.817 -0.0619  0.1700  1.3217
 5063TIP3    H215154   2.908   1.316   4.698 -0.7135 -1.6768  1.0227
 5064TIP3   OH215155   3.385   4.733   3.420 -0.4312  0.4519 -0.0942
 5064TIP3    H115156   3.405   4.706   3.510  0.2316  2.0341  0.2672
 5064TIP3    H215157   3.369   4.651   3.374 -0.0481 -0.4444  1.2863
 5065TIP3   OH215158   3.261   0.178   4.125 -0.0726 -0.4396 -0.0355
 5065TIP3    H115159   3.329   0.148   4.186 -1.2908  0.3703  1.8143
 5065TIP3    H215160   3.236   0.264   4.158 -0.9583 -0.0714 -1.5834
 5066TIP3   OH215161   0.952   5.726   1.447  0.4770  0.2433  0.1745
 5066TIP3    H115162   0.872   5.689   1.485  0.6643 -0.5610 -0.1970
 5066TIP3    H215163   0.962   5.811   1.490  0.4573 -0.4576  1.6278
 5067TIP3   OH215164   1.844   5.326   1.359  0.1514  0.4142  0.2809
 5067TIP3    H115165   1.852   5.315   1.454  1.5375  1.1062  0.2627
 5067TIP3    H215166   1.754   5.297   1.340 -0.2554  0.5271  1.8291
 5068TIP3   OH215167   2.935   4.842   5.427 -0.0898 -0.3786  0.4032
 5068TIP3    H115168   2.911   4.926   5.465  0.5929 -0.9450  2.1975
 5068TIP3    H215169   2.855   4.790   5.430 -0.0821 -0.3610  0.9085
 5069TIP3   OH215170   1.425   6.525   1.361 -0.0827  0.0973  0.4536
 5069TIP3    H115171   1.448   6.613   1.391  0.1963  0.2190 -0.1041
 5069TIP3    H215172   1.509   6.481   1.348 -0.0731  0.6534 -1.9242
 5070TIP3   OH215173   6.655   5.283   4.573  0.0551  0.0162 -0.5933
 5070TIP3    H115174   6.643   5.278   4.668  0.8922 -1.7870 -0.5359
 5070TIP3    H215175   6.630   5.372   4.550 -0.2210  0.4702  1.3144
 5071TIP3   OH215176   0.704   2.459   0.025 -0.0563  0.7329 -0.2279
 5071TIP3    H115177   0.730   2.383  -0.027 -1.6725  0.7946 -1.1820
 5071TIP3    H215178   0.677   2.422   0.109  0.9411  0.4619 -0.0116
 5072TIP3   OH215179   5.234   3.317   1.580 -0.3172  0.2444 -0.3811
 5072TIP3    H115180   5.230   3.404   1.620  1.1856  0.9779 -1.6802
 5072TIP3    H215181   5.245   3.335   1.486  2.2228 -1.2771 -0.4588
 5073TIP3   OH215182   2.387   2.366   4.334 -0.4309 -0.2797 -0.5845
 5073TIP3    H115183   2.397   2.427   4.261 -2.5267  0.8854  0.0299
 5073TIP3    H215184   2.317   2.307   4.305 -0.6140 -0.4034  0.1046
 5074TIP3   OH215185   6.273   1.184   4.847 -0.2463  0.3641  0.1041
 5074TIP3    H115186   6.353   1.144   4.813  0.5938  1.2502  0.9688
 5074TIP3    H215187   6.268   1.152   4.937 -1.1463 -0.0801 -0.0998
 5075TIP3   OH215188   2.543   5.486   5.031 -0.1714  1.0024 -0.2351
 5075TIP3    H115189   2.476   5.534   4.981 -1.0499 -0.0113 -0.0717
 5075TIP3    H215190   2.620   5.486   4.974 -1.0746  0.0886 -1.5152
 5076TIP3   OH215191   3.719   4.411   4.364 -0.3150 -0.1157 -0.3936
 5076TIP3    H115192   3.775   4.475   4.409 -0.7377 -0.2403  0.3359
 5076TIP3    H215193   3.737   4.328   4.408 -1.7123  0.0056  0.4648
 5077TIP3   OH215194   0.027   3.292   0.543  0.5850 -0.0443  0.1956
 5077TIP3    H115195   0.085   3.231   0.589  2.1607 -0.0664 -1.6824
 5077TIP3    H215196  -0.033   3.236   0.494  0.1734 -0.0299  0.6696
 5078TIP3   OH215197   1.786   4.038   1.229  0.1231  0.2349 -0.4318
 5078TIP3    H115198   1.804   3.973   1.161 -0.0465  0.1222 -0.3697
 5078TIP3    H215199   1.691   4.046   1.231 -0.1339 -1.9588  1.7920
 5079TIP3   OH215200   5.194   5.237   3.512  0.6724  0.3264  0.3593
 5079TIP3    H115201   5.102   5.258   3.492  0.8126  1.0536  0.4683
 5079TIP3    H215202   5.242   5.316   3.487  1.3666 -0.3199 -0.4042
 5080TIP3   OH215203   5.101   0.580   2.242 -0.1334 -0.2564  0.5628
 5080TIP3    H115204   5.117   0.674   2.253 -1.6990 -0.1156  2.1818
 5080TIP3    H215205   5.169   0.551   2.182 -1.9747  2.7059 -3.4200
 5081TIP3   OH215206   0.796   1.710   2.826  0.3292  0.7909  0.3502
 5081TIP3    H115207   0.737   1.723   2.900  0.2074 -0.0233  0.4122
 5081TIP3    H215208   0.742   1.663   2.761  0.8708  0.1282  0.3690
 5082TIP3   OH215209   2.327   5.549   0.591 -0.1068 -0.1082  0.5085
 5082TIP3    H115210   2.405   5.494   0.579 -0.0526  0.4108 -2.1735
 5082TIP3    H215211   2.362   5.633   0.620  0.0745 -0.5725  1.6972
 5083TIP3   OH215212   1.356   1.223   1.120  0.3339 -0.8679 -0.5797
 5083TIP3    H115213   1.374   1.130   1.137  1.8106 -0.7781 -1.5008
 5083TIP3    H215214   1.347   1.229   1.025  0.2704 -0.0698 -0.5300
 5084TIP3   OH215215   1.137   3.386   5.425 -0.1787 -0.9041  0.6077
 5084TIP3    H115216   1.166   3.462   5.477 -2.6632  0.9547 -0.5194
 5084TIP3    H215217   1.060   3.354   5.471  0.0265 -1.9041  0.2816
 5085TIP3   OH215218   6.048   5.856   3.168 -0.2185  0.5398 -0.0444
 5085TIP3    H115219   6.096   5.774   3.181  0.3661  0.8859  0.0146
 5085TIP3    H215220   5.995   5.865   3.247 -0.1937  0.2803  0.0053
 5086TIP3   OH215221   4.312   4.310   5.259 -0.3925 -0.3095  0.5288
 5086TIP3    H115222   4.396   4.354   5.257  0.1370 -1.2724  0.8671
 5086TIP3    H215223   4.282   4.311   5.168 -0.0911  0.1673  0.4324
 5087TIP3   OH215224   2.740   5.845   5.758 -0.9287  0.0798  0.1494
 5087TIP3    H115225   2.646   5.838   5.743 -0.6280  1.0612 -2.8844
 5087TIP3    H215226   2.748   5.894   5.839 -3.0688  1.0268 -0.1506
 5088TIP3   OH215227   4.401   6.028   4.575 -0.2943  0.0589  0.0559
 5088TIP3    H115228   4.381   5.941   4.543 -1.5441  0.1043  0.6463
 5088TIP3    H215229   4.423   6.015   4.668 -0.2103  0.3302  0.0765
 5089TIP3   OH215230   1.009   3.831   5.095  0.7315 -0.3216 -0.9455
 5089TIP3    H115231   1.100   3.830   5.125  0.8629 -0.3736 -1.3490
 5089TIP3    H215232   0.958   3.804   5.172  0.7991  2.4086  0.1948
 5090TIP3   OH215233   3.405   5.258   4.946 -0.3466  0.4556 -0.4597
 5090TIP3    H115234   3.430   5.350   4.932 -0.7923  0.4964 -1.0161
 5090TIP3    H215235   3.374   5.228   4.860  2.9245 -1.2177 -1.2360
 5091TIP3   OH215236   3.644   4.924   5.605 -0.1161  0.2992 -0.6631
 5091TIP3    H115237   3.701   4.848   5.603  0.4794  0.6776  0.8014
 5091TIP3    H215238   3.691   4.991   5.555  0.4256  0.4052 -0.0211
 5092TIP3   OH215239   1.098   0.708   1.263 -0.0319  0.4025 -0.0761
 5092TIP3    H115240   1.075   0.623   1.300  0.0570  0.1764 -0.5371
 5092TIP3    H215241   1.185   0.726   1.298  0.6112 -0.4191 -1.2099
 5093TIP3   OH215242   1.742   5.743   3.936 -0.5038  0.4094 -0.4683
 5093TIP3    H115243   1.650   5.739   3.911 -0.9007 -1.9709  1.0958
 5093TIP3    H215244   1.744   5.796   4.016 -0.8620 -1.1314  0.6093
 5094TIP3   OH215245   4.728   3.329   1.869  0.5622  0.5944  0.3890
 5094TIP3    H115246   4.761   3.393   1.807  0.4881  0.6842  0.4421
 5094TIP3    H215247   4.633   3.327   1.855  0.7278 -0.6891 -0.7401
 5095TIP3   OH215248   0.332   4.726   0.371  0.2797  0.3459  0.4965
 5095TIP3    H115249   0.243   4.698   0.353  0.4153  1.2652 -1.8854
 5095TIP3    H215250   0.377   4.645   0.398 -0.8556 -0.4472  0.0882
 5096TIP3   OH215251   5.167   2.827   1.863  0.0687 -0.1239 -0.4576
 5096TIP3    H115252   5.132   2.885   1.930  0.2671 -0.5083 -0.0090
 5096TIP3    H215253   5.096   2.817   1.799 -1.2681 -2.0774  1.1731
 5097TIP3   OH215254   3.205   5.846   4.872  0.2575 -0.8077 -0.1972
 5097TIP3    H115255   3.161   5.772   4.830 -1.1006 -0.6574  0.8782
 5097TIP3    H215256   3.149   5.921   4.851  1.1462 -0.2148 -0.5336
 5098TIP3   OH215257   4.652   5.968   4.989 -0.1313 -0.6840  0.1460
 5098TIP3    H115258   4.644   5.985   5.083  2.2251  1.0577  0.1176
 5098TIP3    H215259   4.706   5.889   4.984  0.1940 -0.4730  0.2731
 5099TIP3   OH215260   3.739   3.613   2.785  0.3251 -0.1259  0.5395
 5099TIP3    H115261   3.653   3.646   2.808  0.6901  2.2494 -1.0848
 5099TIP3    H215262   3.780   3.685   2.736  2.7476 -1.6323  0.1689
 5100TIP3   OH215263   5.024   3.133   2.836  0.1565  0.3299 -0.9608
 5100TIP3    H115264   4.962   3.193   2.793 -0.1176 -0.1721 -1.2714
 5100TIP3    H215265   5.040   3.065   2.771 -1.2526 -1.1618  0.1810
 5101TIP3   OH215266   2.180   0.563   3.007 -0.8488  0.0206  0.0858
 5101TIP3    H115267   2.236   0.497   2.967 -2.2481 -0.8441 -0.5431
 5101TIP3    H215268   2.159   0.623   2.935  0.3061  1.1100  0.6205
 5102TIP3   OH215269   0.326   0.626   4.494 -0.4216  0.0143 -0.0283
 5102TIP3    H115270   0.322   0.567   4.418  1.3065 -1.1811  0.7418
 5102TIP3    H215271   0.389   0.693   4.469 -1.7145  1.0628 -0.5586
 5103TIP3   OH215272   6.168   6.346   4.402  0.7883 -0.6189 -0.2515
 5103TIP3    H115273   6.236   6.344   4.334 -0.2500 -2.1559 -1.3019
 5103TIP3    H215274   6.146   6.439   4.411  0.8514 -0.3681 -2.1471
 5104TIP3   OH215275   1.064   2.086   0.651  0.4285 -0.1232 -0.0205
 5104TIP3    H115276   1.057   2.017   0.717 -0.8550 -0.5736 -0.5908
 5104TIP3    H215277   1.085   2.040   0.570  2.5934  0.4800  0.1312
 5105TIP3   OH215278   4.085   6.076   2.207 -0.0818 -0.1638  0.5619
 5105TIP3    H115279   4.117   6.120   2.286 -1.3665  3.0058 -0.5061
 5105TIP3    H215280   4.044   6.146   2.156 -0.4036 -2.3001 -2.3654
 5106TIP3   OH215281   6.557   6.225   2.630 -0.6200  0.0291 -0.0170
 5106TIP3    H115282   6.606   6.181   2.560 -0.5501  0.4499 -0.2365
 5106TIP3    H215283   6.525   6.154   2.685 -0.0332 -0.2722 -0.0517
 5107TIP3   OH215284   6.597   0.394   1.968  0.0430 -0.5121 -0.1329
 5107TIP3    H115285   6.640   0.420   1.886 -0.5233  0.2474 -0.2021
 5107TIP3    H215286   6.523   0.340   1.940  0.0313 -0.5084 -0.1092
 5108TIP3   OH215287   2.012   2.892   2.670  0.2306  0.1847 -0.1353
 5108TIP3    H115288   2.088   2.855   2.715 -1.1688 -0.4184  1.8426
 5108TIP3    H215289   1.977   2.819   2.618 -1.0693 -0.6616  1.8176
 5109TIP3   OH215290   4.297   0.896   0.591 -0.2891 -0.2150 -0.9256
 5109TIP3    H115291   4.324   0.978   0.632 -1.1118 -1.3688  2.2584
 5109TIP3    H215292   4.340   0.828   0.644 -0.3828 -1.8828 -2.8757
 5110TIP3   OH215293   6.331   1.958   1.741  0.0805 -0.2230 -0.0264
 5110TIP3    H115294   6.407   2.015   1.756  1.3692 -1.9330  0.1684
 5110TIP3    H215295   6.261   2.019   1.717  1.2095  1.5029  0.8314
 5111TIP3   OH215296   5.294   6.578   5.210  0.2286 -0.3017  0.0252
 5111TIP3    H115297   5.230   6.538   5.151 -0.7698  1.3484 -0.0807
 5111TIP3    H215298   5.368   6.601   5.153 -0.2017  0.1519 -0.3564
 5112TIP3   OH215299   4.898   5.202   0.322  0.4857  0.1407  0.3447
 5112TIP3    H115300   4.984   5.186   0.284 -0.0807  1.3859 -1.6021
 5112TIP3    H215301   4.847   5.124   0.300  0.8457 -0.2027  0.7094
 5113TIP3   OH215302   0.020   1.628   1.265  0.0121 -0.2815 -0.4136
 5113TIP3    H115303   0.099   1.641   1.213 -0.8604 -0.6235 -1.8897
 5113TIP3    H215304   0.041   1.556   1.324  1.4081  0.8696  0.5382
 5114TIP3   OH215305   4.046   1.283   0.298 -0.1741 -0.2226 -0.0862
 5114TIP3    H115306   4.115   1.225   0.328 -1.7533 -0.8345  2.7643
 5114TIP3    H215307   4.044   1.354   0.363 -0.0281  1.6459 -2.0161
 5115TIP3   OH215308   1.217   2.138   0.038 -0.2143  0.2312 -0.5418
 5115TIP3    H115309   1.258   2.171  -0.042 -1.1572  1.2962 -0.6175
 5115TIP3    H215310   1.269   2.061   0.062 -0.2152 -0.4030 -2.4322
 5116TIP3   OH215311   1.732   3.756   3.473  0.3634 -0.7345 -0.0618
 5116TIP3    H115312   1.689   3.755   3.558 -2.4734  1.4655 -1.2621
 5116TIP3    H215313   1.688   3.687   3.423  0.7581 -0.8287 -0.2861
 5117TIP3   OH215314   0.891   1.732   3.968 -0.1857  0.1637  0.2947
 5117TIP3    H115315   0.934   1.783   4.037  0.6628  0.0614 -0.1453
 5117TIP3    H215316   0.938   1.648   3.968 -0.2942  0.0982 -0.2908
 5118TIP3   OH215317   1.982   1.398   0.521 -0.2345  0.3015  0.3587
 5118TIP3    H115318   1.889   1.414   0.534 -0.1253  1.0115  0.2800
 5118TIP3    H215319   2.021   1.408   0.608 -0.3742 -1.0726  0.6016
 5119TIP3   OH215320   6.389   2.922   5.406  0.1813  0.4213 -0.8287
 5119TIP3    H115321   6.428   2.985   5.467 -0.3091 -0.0578  0.0042
 5119TIP3    H215322   6.422   2.947   5.320  1.9159  0.3524 -0.2240
 5120TIP3   OH215323   5.976   3.573   0.247 -0.2257  0.3544 -0.0042
 5120TIP3    H115324   6.019   3.495   0.282  0.5098  0.9825  0.5457
 5120TIP3    H215325   6.038   3.608   0.183 -0.4809  0.5692 -0.1325
 5121TIP3   OH215326   3.148   0.059   1.682 -0.1572 -0.2851 -0.0178
 5121TIP3    H115327   3.153   0.044   1.776 -3.4333 -2.8701 -0.0936
 5121TIP3    H215328   3.194  -0.015   1.643  0.2427  0.1909 -0.4603
 5122TIP3   OH215329   2.701   6.130   3.132 -0.3720 -0.3342  0.1826
 5122TIP3    H115330   2.660   6.060   3.082  0.2304 -0.4883 -0.0996
 5122TIP3    H215331   2.709   6.202   3.070 -1.2074  0.0737  0.5355
 5123TIP3   OH215332   1.994   4.530   0.301 -0.3530  0.6011 -0.1981
 5123TIP3    H115333   1.941   4.561   0.227 -0.0187  2.7319  0.3775
 5123TIP3    H215334   2.072   4.585   0.298 -0.7382  1.4016  2.2488
 5124TIP3   OH215335   5.303   5.122   5.517  0.0567 -0.6256  0.5664
 5124TIP3    H115336   5.376   5.110   5.456 -0.1286  1.0951 -0.0798
 5124TIP3    H215337   5.328   5.075   5.596  1.0406 -1.5643 -0.2863
 5125TIP3   OH215338   6.024   0.192   0.489  0.1968  0.2354  0.6467
 5125TIP3    H115339   5.984   0.168   0.406 -1.5702  2.8439  0.6216
 5125TIP3    H215340   5.951   0.220   0.544  1.1137 -2.6214  3.6494
 5126TIP3   OH215341   0.454   3.363   1.458 -0.1074  0.1069 -0.2039
 5126TIP3    H115342   0.524   3.321   1.508  0.2706  2.7635  1.7459
 5126TIP3    H215343   0.499   3.401   1.382  0.8038  2.2754  1.3247
 5127TIP3   OH215344   0.285   4.136   0.613  0.0384 -0.0647 -0.5516
 5127TIP3    H115345   0.194   4.105   0.617  0.0090 -0.0801 -1.1723
 5127TIP3    H215346   0.278   4.230   0.633 -0.1631  0.0081 -0.9418
 5128TIP3   OH215347   2.106   5.896   5.016  0.5120 -0.3335 -0.7536
 5128TIP3    H115348   2.068   5.887   5.103  0.9399 -1.1512 -0.6416
 5128TIP3    H215349   2.197   5.868   5.026  0.5803 -0.3799 -1.4495
 5129TIP3   OH215350   4.876   1.993   2.549  0.3423  0.0856  0.4473
 5129TIP3    H115351   4.792   1.984   2.594  0.8767 -1.1909  1.2628
 5129TIP3    H215352   4.853   2.004   2.457 -0.7373  0.6848  0.7689
 5130TIP3   OH215353   3.880   5.209   0.010  0.1212 -0.1170  0.1491
 5130TIP3    H115354   3.827   5.255   0.075  0.5455 -0.3366  0.6541
 5130TIP3    H215355   3.970   5.232   0.031  0.2536 -0.0413 -0.4786
 5131TIP3   OH215356   6.389   0.660   5.085  0.6546  0.5907  0.2060
 5131TIP3    H115357   6.441   0.730   5.125  1.6291 -1.0015  1.8482
 5131TIP3    H215358   6.385   0.683   4.992  0.8224  2.8771  0.7059
 5132TIP3   OH215359   2.261   4.258   4.133  0.2429  0.1115 -0.1464
 5132TIP3    H115360   2.214   4.306   4.201  0.5799  0.5992 -0.2519
 5132TIP3    H215361   2.223   4.288   4.051 -0.3273 -0.6561 -0.1686
 5133TIP3   OH215362   0.558   4.254   0.254  0.2548  0.3448  0.4697
 5133TIP3    H115363   0.465   4.234   0.254 -0.0212  1.4986  1.0317
 5133TIP3    H215364   0.593   4.207   0.330  0.4380 -1.2616 -0.5652
 5134TIP3   OH215365   1.004   0.867   1.797 -0.3778  0.1214  0.1864
 5134TIP3    H115366   1.022   0.786   1.750  0.9984  0.0800  0.7534
 5134TIP3    H215367   0.912   0.859   1.825 -0.2689 -1.2165  0.1959
 5135TIP3   OH215368   6.885   4.464   3.257  0.5572  0.1268  0.2591
 5135TIP3    H115369   6.824   4.478   3.185  0.9416 -0.8413 -0.2694
 5135TIP3    H215370   6.839   4.499   3.334  0.2278  1.3571 -0.4604
 5136TIP3   OH215371   5.432   0.306   3.381 -0.5313 -0.2212  0.4498
 5136TIP3    H115372   5.465   0.387   3.420 -0.4293 -0.0865  0.0878
 5136TIP3    H215373   5.385   0.263   3.452  0.2173 -0.3029  0.9143
 5137TIP3   OH215374   2.955   1.742   3.805 -0.5712 -0.2237 -0.2113
 5137TIP3    H115375   2.994   1.829   3.801 -1.0973  0.0538  0.4775
 5137TIP3    H215376   3.029   1.683   3.817 -0.2768  0.2073  0.1335
 5138TIP3   OH215377   6.843   0.023   2.606 -0.2475  0.0687  0.0121
 5138TIP3    H115378   6.908   0.068   2.660  0.5681  0.7669 -1.4615
 5138TIP3    H215379   6.891  -0.050   2.566 -1.1075 -1.0802  1.0145
 5139TIP3   OH215380   2.303   1.180   2.683  0.1083 -0.4653 -0.3111
 5139TIP3    H115381   2.246   1.113   2.646 -0.1451 -0.4469  0.0421
 5139TIP3    H215382   2.298   1.254   2.622 -2.3224  0.5694  1.0085
 5140TIP3   OH215383   4.761   4.475   2.502 -0.1402 -0.5748  0.1539
 5140TIP3    H115384   4.730   4.492   2.591  1.5382 -0.4746  0.7620
 5140TIP3    H215385   4.751   4.380   2.490  0.4719 -0.7286  0.8055
 5141TIP3   OH215386   6.698   3.290   5.545  0.5820 -1.0511 -0.0646
 5141TIP3    H115387   6.631   3.359   5.536  1.5665 -0.2369 -1.5476
 5141TIP3    H215388   6.732   3.301   5.634 -0.6649 -0.9654  0.4340
 5142TIP3   OH215389   2.143   0.604   1.881  0.4888  0.2295 -0.0689
 5142TIP3    H115390   2.192   0.539   1.831 -2.1652 -1.1938 -1.0759
 5142TIP3    H215391   2.095   0.553   1.946 -0.3948  1.3869  0.2270
 5143TIP3   OH215392   7.187   4.676   5.622  0.2355  0.0559  0.0223
 5143TIP3    H115393   7.228   4.753   5.584 -0.0444  0.4137  0.4348
 5143TIP3    H215394   7.112   4.710   5.671  0.9014 -0.3267  1.3623
 5144TIP3   OH215395   0.244   2.910   0.953  0.1609 -0.2307  0.3429
 5144TIP3    H115396   0.241   2.826   0.998 -1.8216 -0.4587 -0.1366
 5144TIP3    H215397   0.189   2.968   1.006 -0.5255  0.0646 -0.6748
 5145TIP3   OH215398   3.470   4.224   1.370 -0.5798 -0.5012 -0.4756
 5145TIP3    H115399   3.477   4.316   1.396 -1.1402 -0.8603  1.0838
 5145TIP3    H215400   3.486   4.175   1.451  1.4544 -1.8595 -1.6262
 5146TIP3   OH215401   0.559   2.392   2.272  0.5143 -0.1455 -0.4539
 5146TIP3    H115402   0.527   2.424   2.356  0.4285 -0.2596 -0.4429
 5146TIP3    H215403   0.626   2.327   2.294  0.0459 -0.6386 -0.4650
 5147TIP3   OH215404   5.223   2.709   3.899  0.4989  0.6488 -0.1463
 5147TIP3    H115405   5.291   2.757   3.852  1.8082  0.1583  1.1747
 5147TIP3    H215406   5.256   2.620   3.904  0.0141  0.5188  0.9875
 5148TIP3   OH215407   3.315   3.066   3.820 -0.1722  0.2334  0.5554
 5148TIP3    H115408   3.225   3.041   3.839 -0.0584  0.3959  1.3290
 5148TIP3    H215409   3.309   3.115   3.738 -0.7037 -0.2531  0.2927
 5149TIP3   OH215410   4.222   5.560   3.914  0.0681  0.2229  0.9342
 5149TIP3    H115411   4.218   5.654   3.932  0.9350  0.3755  0.3949
 5149TIP3    H215412   4.195   5.552   3.823  1.9044  0.1930  0.3534
 5150TIP3   OH215413   2.975   3.112   0.717  0.4334 -0.3140 -0.1491
 5150TIP3    H115414   2.941   3.076   0.635 -0.4287  2.1391 -0.9367
 5150TIP3    H215415   2.986   3.205   0.700  0.0838  0.3009  2.5888
 5151TIP3   OH215416   1.713   1.196   4.897 -0.2623 -0.3796 -0.0628
 5151TIP3    H115417   1.665   1.220   4.818  0.9599  0.0955 -0.6814
 5151TIP3    H215418   1.645   1.172   4.960 -1.2454 -1.4837 -1.4750
 5152TIP3   OH215419   0.244   3.560   4.104  0.7322 -0.5248 -0.2537
 5152TIP3    H115420   0.334   3.541   4.079  0.2531 -1.1116 -1.6399
 5152TIP3    H215421   0.249   3.583   4.197  2.2064 -1.2035 -0.1379
 5153TIP3   OH215422   3.626   4.600   0.408 -0.4753 -0.2422 -0.0801
 5153TIP3    H115423   3.614   4.505   0.416 -0.0878 -0.4980 -2.0407
 5153TIP3    H215424   3.543   4.638   0.436 -1.5333 -1.3095 -1.6329
 5154TIP3   OH215425   4.813   2.967   4.894  0.2592 -0.1667  0.6552
 5154TIP3    H115426   4.876   3.038   4.880  1.3137 -1.1531  0.2421
 5154TIP3    H215427   4.730   3.003   4.864  0.2271  1.7587  2.7288
 5155TIP3   OH215428   1.478   5.834   4.657  0.2402 -0.1256 -0.3335
 5155TIP3    H115429   1.566   5.838   4.695  0.9301 -0.9827 -1.7482
 5155TIP3    H215430   1.440   5.754   4.693 -0.5343  0.9497  1.3624
 5156TIP3   OH215431   3.042   5.421   3.943  0.2883 -0.1146  0.0896
 5156TIP3    H115432   2.984   5.480   3.992 -1.2952 -0.4776 -1.2493
 5156TIP3    H215433   2.985   5.383   3.875  2.1010 -0.5622 -1.2377
 5157TIP3   OH215434   4.854   0.789   5.299  0.5965  0.0496  0.2482
 5157TIP3    H115435   4.860   0.697   5.324 -0.2680  0.4833  2.2696
 5157TIP3    H215436   4.763   0.801   5.271  0.8242  0.1895 -0.4359
 5158TIP3   OH215437   3.288   5.731   2.024  0.0609 -0.0279  0.0071
 5158TIP3    H115438   3.222   5.772   2.079  1.8438 -0.3056  2.5043
 5158TIP3    H215439   3.364   5.788   2.031  0.6472 -0.5862 -1.4584
 5159TIP3   OH215440   6.832   5.955   4.512 -0.1282 -0.5912  0.1320
 5159TIP3    H115441   6.793   5.874   4.480 -0.6155 -0.2027 -0.2781
 5159TIP3    H215442   6.783   6.024   4.467 -0.1240 -0.0582  0.9217
 5160TIP3   OH215443   4.947   0.376   5.695  0.0821 -0.5964  0.7791
 5160TIP3    H115444   4.983   0.398   5.781 -1.2569 -1.1813  1.5198
 5160TIP3    H215445   5.021   0.386   5.635  1.6568 -2.2515  2.2960
 5161TIP3   OH215446   2.360   4.995   4.295  0.0146 -0.0233 -0.2617
 5161TIP3    H115447   2.268   5.009   4.315  0.4475  0.5380  1.5036
 5161TIP3    H215448   2.405   5.006   4.379  1.7176 -0.0287 -1.1291
 5162TIP3   OH215449   2.981   1.758   5.637 -0.4239  0.9461  0.3914
 5162TIP3    H115450   2.887   1.744   5.638 -0.0913 -2.0676  0.0448
 5162TIP3    H215451   3.005   1.751   5.544  0.2979  0.0891  0.6277
 5163TIP3   OH215452   6.054   5.425   0.122 -0.2318 -0.2787  0.2479
 5163TIP3    H115453   5.968   5.433   0.164  0.0714  1.4956  0.5961
 5163TIP3    H215454   6.105   5.497   0.157  0.4589  0.5048 -2.1498
 5164TIP3   OH215455   0.696   2.209   0.895 -0.0021 -0.0837 -0.3866
 5164TIP3    H115456   0.701   2.258   0.812 -0.5693 -1.4911 -1.2901
 5164TIP3    H215457   0.645   2.131   0.873 -2.8026  0.9184  2.0030
 5165TIP3   OH215458   1.772   3.530   3.839 -0.1126 -0.1802  0.1369
 5165TIP3    H115459   1.688   3.501   3.875 -0.2223  1.2141  1.1343
 5165TIP3    H215460   1.786   3.475   3.762 -2.1329 -0.1897 -0.2926
 5166TIP3   OH215461   7.102   1.427   3.916 -0.0437 -0.3402 -0.0205
 5166TIP3    H115462   7.159   1.358   3.881  1.1269 -0.3111  1.7007
 5166TIP3    H215463   7.037   1.379   3.967 -0.8196 -0.2931 -0.9382
 5167TIP3   OH215464   1.635   2.143   1.914 -0.6202  0.4801 -0.4519
 5167TIP3    H115465   1.559   2.198   1.932 -0.0171  1.4652 -0.8725
 5167TIP3    H215466   1.671   2.178   1.832  0.1024 -0.1832 -0.4294
 5168TIP3   OH215467   5.408   5.814   2.770  1.0458  0.2192 -0.0990
 5168TIP3    H115468   5.344   5.885   2.772 -2.4100 -2.6060 -0.8547
 5168TIP3    H215469   5.413   5.783   2.860  1.1866  0.3026 -0.0780
 5169TIP3   OH215470   5.630   4.254   3.809 -0.4042  0.3212 -0.6236
 5169TIP3    H115471   5.638   4.302   3.727  1.7857  1.0282 -0.0591
 5169TIP3    H215472   5.621   4.322   3.876 -0.1150 -0.1676 -0.0785
 5170TIP3   OH215473   5.131   2.844   4.109  0.3806 -0.1612  0.0622
 5170TIP3    H115474   5.157   2.795   4.031  0.9112  0.9419 -0.4789
 5170TIP3    H215475   5.114   2.777   4.175 -1.2583 -1.1868 -1.3204
 5171TIP3   OH215476   4.500   4.581   5.558 -0.0837  0.0779  0.3852
 5171TIP3    H115477   4.472   4.567   5.648 -2.4684 -0.3546 -0.3544
 5171TIP3    H215478   4.596   4.578   5.562 -0.1454 -1.0504  2.7033
 5172TIP3   OH215479   2.045   1.595   2.136  0.7625  0.0783 -0.2498
 5172TIP3    H115480   2.112   1.653   2.099  0.0054  0.1680 -1.5248
 5172TIP3    H215481   2.095   1.519   2.168  1.5603  0.5415 -0.3515
 5173TIP3   OH215482   4.717   3.526   0.246 -0.2535  0.3282 -0.7448
 5173TIP3    H115483   4.635   3.576   0.248  0.3785  1.4704  1.9744
 5173TIP3    H215484   4.721   3.483   0.332  2.3407  0.9851 -0.4443
 5174TIP3   OH215485   3.740   2.790   2.506 -0.4712  0.1515 -0.3753
 5174TIP3    H115486   3.757   2.884   2.514 -2.1826  0.4230  0.4380
 5174TIP3    H215487   3.808   2.749   2.559 -0.4485  1.0067  0.2761
 5175TIP3   OH215488   6.216   1.573   1.932 -0.2661  0.5504 -0.1455
 5175TIP3    H115489   6.227   1.489   1.976 -0.2640  0.7157  0.1822
 5175TIP3    H215490   6.121   1.585   1.926 -0.2662  0.4567 -0.3251
 5176TIP3   OH215491   1.584   4.040   2.697 -0.2033  0.0502  0.5402
 5176TIP3    H115492   1.617   4.122   2.735  1.6429 -0.4824  0.2104
 5176TIP3    H215493   1.662   3.997   2.662 -1.2517 -1.4703 -0.0451
 5177TIP3   OH215494   3.539   4.015   2.132 -0.4856  0.3644 -0.2877
 5177TIP3    H115495   3.539   4.056   2.219 -2.0711  0.7775 -0.4508
 5177TIP3    H215496   3.493   3.932   2.145  1.1504 -0.5941 -0.3308
 5178TIP3   OH215497   4.175   3.499   4.985  0.3986 -0.3152 -0.1168
 5178TIP3    H115498   4.104   3.563   4.991  2.3582  2.0976 -1.0227
 5178TIP3    H215499   4.162   3.441   5.060 -1.6514  0.9464  0.5682
 5179TIP3   OH215500   5.407   1.126   3.995  0.2535  0.2873 -0.2959
 5179TIP3    H115501   5.324   1.122   3.948 -0.0150 -0.8976  0.2378
 5179TIP3    H215502   5.474   1.116   3.927 -0.0609  0.6088 -0.6555
 5180TIP3   OH215503   0.612   6.328   4.034 -0.2435  0.4279 -0.2184
 5180TIP3    H115504   0.546   6.389   4.067 -1.0728  0.5329 -1.9474
 5180TIP3    H215505   0.682   6.330   4.099 -2.3430 -0.4249  2.2217
 5181TIP3   OH215506   5.321   2.937   4.967  0.1723 -0.1834 -0.1215
 5181TIP3    H115507   5.236   2.913   4.931  0.9476 -1.2124 -1.3750
 5181TIP3    H215508   5.366   2.853   4.981  0.8125  0.3119  1.0023
 5182TIP3   OH215509   4.037   2.022   5.538  0.0783 -0.5932 -0.5774
 5182TIP3    H115510   3.963   1.978   5.580 -0.9295 -0.7703 -2.4146
 5182TIP3    H215511   4.036   2.111   5.573  1.0376 -1.4421  1.8372
 5183TIP3   OH215512   2.651   3.941   4.350  0.0833 -0.0019  0.0682
 5183TIP3    H115513   2.601   4.000   4.406 -0.2007 -0.5529  0.3956
 5183TIP3    H215514   2.618   3.854   4.371 -1.8424 -0.0809 -2.7058
 5184TIP3   OH215515   3.378   1.058   5.399 -0.3133  0.2550  0.4589
 5184TIP3    H115516   3.370   1.101   5.313  0.2875  0.0803  0.3138
 5184TIP3    H215517   3.419   0.974   5.380  0.6408  0.5778  1.0198
 5185TIP3   OH215518   2.591   5.221   3.620  0.3936 -0.3878  0.2294
 5185TIP3    H115519   2.630   5.159   3.557 -0.0106  0.4695 -0.8947
 5185TIP3    H215520   2.657   5.229   3.688  1.6466  0.0141 -0.9769
 5186TIP3   OH215521   0.241   0.752   2.229  0.3418 -0.1142  0.3128
 5186TIP3    H115522   0.283   0.706   2.302  0.6323 -1.7850 -0.8620
 5186TIP3    H215523   0.314   0.795   2.184  0.4175 -0.6196 -0.0533
 5187TIP3   OH215524   0.508   5.231   3.933 -0.1558 -0.2345 -0.0250
 5187TIP3    H115525   0.418   5.218   3.906 -0.7814 -0.1742  1.8415
 5187TIP3    H215526   0.548   5.282   3.863 -2.6406  3.1264  0.7940
 5188TIP3   OH215527   1.709   1.792   3.148  0.6302 -0.4972  0.0258
 5188TIP3    H115528   1.802   1.815   3.154  0.3901  0.1806  1.4171
 5188TIP3    H215529   1.690   1.795   3.054  1.8579 -0.0163 -0.2277
 5189TIP3   OH215530   4.254   4.938   2.305 -0.1283  0.3707 -0.1811
 5189TIP3    H115531   4.215   5.026   2.310 -0.3156  0.4880 -2.5390
 5189TIP3    H215532   4.248   4.914   2.213  1.3587 -1.4963  0.1348
 5190TIP3   OH215533   4.190   0.791   1.960  0.1363  0.7761 -0.7312
 5190TIP3    H115534   4.154   0.879   1.953 -0.5802  0.4549 -1.2379
 5190TIP3    H215535   4.189   0.758   1.870  1.2658  0.5815 -0.6914
 5191TIP3   OH215536   4.127   0.557   2.328  0.6474 -0.3559  0.4277
 5191TIP3    H115537   4.059   0.525   2.269 -0.7318 -1.2744  2.4243
 5191TIP3    H215538   4.129   0.652   2.313  0.8310 -0.6361 -1.5479
 5192TIP3   OH215539   5.618   2.341   3.768 -0.8601  0.2957  0.4861
 5192TIP3    H115540   5.635   2.271   3.705 -1.9628  0.0243  0.4701
 5192TIP3    H215541   5.670   2.415   3.736 -1.4355  0.1751 -0.7645
 5193TIP3   OH215542   6.727   0.582   3.704 -0.0640  0.6602  0.6309
 5193TIP3    H115543   6.799   0.635   3.668  0.1485  0.5004  0.8184
 5193TIP3    H215544   6.675   0.558   3.627  1.4254 -1.2626  0.1187
 5194TIP3   OH215545   2.353   3.305   2.347  0.0695  0.1997  0.1622
 5194TIP3    H115546   2.440   3.309   2.386 -0.7291 -1.6280  2.3633
 5194TIP3    H215547   2.301   3.370   2.394 -0.0501  0.5289 -0.4043
 5195TIP3   OH215548   5.858   6.462   3.328 -0.0317  0.3145  0.2876
 5195TIP3    H115549   5.920   6.526   3.364 -1.9564  2.6409 -0.2756
 5195TIP3    H215550   5.774   6.487   3.367 -1.2656 -0.3579 -1.8250
 5196TIP3   OH215551   0.917   4.669   1.391 -0.0648  0.3868  0.1903
 5196TIP3    H115552   0.847   4.699   1.449 -0.5007  0.6824 -0.4686
 5196TIP3    H215553   0.969   4.609   1.444 -1.4311 -0.6638  0.3974
 5197TIP3   OH215554   4.446   4.491   3.810 -0.3172 -0.2032 -0.2928
 5197TIP3    H115555   4.357   4.509   3.780 -0.5396 -0.7847 -0.0169
 5197TIP3    H215556   4.454   4.538   3.892 -0.5699 -0.5952 -0.0389
 5198TIP3   OH215557   5.035   6.261   0.041  0.3709  0.1576  0.0988
 5198TIP3    H115558   5.123   6.262   0.004  1.3278  0.2698  2.1922
 5198TIP3    H215559   5.020   6.169   0.064 -0.6574 -0.1020 -1.4688
 5199TIP3   OH215560   0.919   2.090   4.551 -0.0846  0.5717  0.8627
 5199TIP3    H115561   0.852   2.028   4.519  0.3608 -0.7965  2.4464
 5199TIP3    H215562   0.887   2.117   4.637 -0.0527  2.2789  0.3768
 5200TIP3   OH215563   0.378   4.035   0.318 -0.4108  0.5670  1.0959
 5200TIP3    H115564   0.310   4.080   0.368 -1.4905 -0.8539  1.0003
 5200TIP3    H215565   0.341   3.948   0.301  1.1083  0.0333  0.3100
 5201TIP3   OH215566   4.542   1.705   1.178  0.2064 -0.0191  0.4129
 5201TIP3    H115567   4.602   1.655   1.122 -1.1086 -0.8883 -0.2505
 5201TIP3    H215568   4.588   1.710   1.262  1.4944 -0.0915 -0.2507
 5202TIP3   OH215569   5.515   4.570   1.573  0.3168  0.0149  0.2085
 5202TIP3    H115570   5.581   4.503   1.555 -1.3504 -1.2661 -1.5744
 5202TIP3    H215571   5.505   4.616   1.490 -1.4160 -0.2148  0.2561
 5203TIP3   OH215572   6.264   3.194   0.027 -0.0530  0.6372 -0.2918
 5203TIP3    H115573   6.337   3.164   0.082 -0.9708  0.3826  0.8337
 5203TIP3    H215574   6.268   3.289   0.032  1.4441  0.7079 -1.9528
 5204TIP3   OH215575   0.110   1.390   2.768 -0.1353  0.0548 -0.2000
 5204TIP3    H115576   0.145   1.402   2.857 -0.3847  0.7797 -0.1895
 5204TIP3    H215577   0.103   1.295   2.758 -1.3277 -0.0251  1.0354
 5205TIP3   OH215578   6.644   2.072   0.531 -0.2273 -0.1334  0.1574
 5205TIP3    H115579   6.573   2.073   0.467 -0.2971 -1.1590  0.2053
 5205TIP3    H215580   6.613   2.013   0.601  0.8334 -0.9362 -0.0290
 5206TIP3   OH215581   4.434   2.215   4.967 -0.2386 -0.0655  0.0333
 5206TIP3    H115582   4.366   2.234   5.032 -0.9841  0.5620 -0.8947
 5206TIP3    H215583   4.514   2.203   5.018 -0.6552  1.1541  1.0265
 5207TIP3   OH215584   1.814   3.890   2.423 -0.3088 -0.1741 -0.2555
 5207TIP3    H115585   1.818   3.970   2.371 -1.4660  0.0559 -0.0076
 5207TIP3    H215586   1.753   3.833   2.375 -0.8014 -0.2506  0.4495
 5208TIP3   OH215587   7.177   4.674   4.456  0.7522  0.1696  0.1986
 5208TIP3    H115588   7.112   4.700   4.521  0.6077  0.1655  0.0557
 5208TIP3    H215589   7.229   4.753   4.439 -0.4491  0.7165 -1.1362
 5209TIP3   OH215590   1.778   2.729   3.045 -0.3475  0.0408 -0.2537
 5209TIP3    H115591   1.859   2.682   3.067  0.5117  1.5870  0.0464
 5209TIP3    H215592   1.773   2.725   2.950  0.9253  1.2041 -0.3993
 5210TIP3   OH215593   4.429   6.313   4.953  0.5584 -0.9434 -0.7050
 5210TIP3    H115594   4.400   6.308   5.044  3.3176 -0.8332  0.2858
 5210TIP3    H215595   4.372   6.251   4.907 -2.4634  0.7041  0.5556
 5211TIP3   OH215596   6.937   4.451   2.698  0.3466 -0.0311 -0.2601
 5211TIP3    H115597   7.002   4.512   2.662 -0.3102  1.2012  0.5455
 5211TIP3    H215598   6.860   4.464   2.643 -0.9353  2.4553  1.8823
 5212TIP3   OH215599   6.695   5.365   0.081 -0.0447 -0.3219 -0.0266
 5212TIP3    H115600   6.782   5.359   0.042  0.3734 -0.2510  0.8714
 5212TIP3    H215601   6.707   5.333   0.170 -0.9260 -0.2342  0.1298
 5213TIP3   OH215602   7.168   6.742   1.567 -0.5235  0.3221  0.3527
 5213TIP3    H115603   7.218   6.665   1.593  0.2933  1.1681  1.3770
 5213TIP3    H215604   7.214   6.816   1.608 -0.7080  1.4694 -1.3999
 5214TIP3   OH215605   6.356   1.704   0.188  0.3353  0.6632 -0.8955
 5214TIP3    H115606   6.266   1.685   0.160 -0.4142  2.6115 -0.0010
 5214TIP3    H215607   6.398   1.740   0.110 -0.0309  0.8639 -1.0034
 5215TIP3   OH215608   6.968   6.642   5.748  0.7943 -0.2163 -0.1752
 5215TIP3    H115609   6.944   6.731   5.722  0.3785 -0.3321 -0.2002
 5215TIP3    H215610   7.058   6.649   5.779  0.7127  0.2372 -0.0418
 5216TIP3   OH215611   1.712   6.165   2.277  0.1242 -0.3014 -0.0840
 5216TIP3    H115612   1.727   6.124   2.362 -1.0496 -4.1713 -1.5005
 5216TIP3    H215613   1.643   6.112   2.237  1.8368  0.1412 -4.0964
 5217TIP3   OH215614   6.377   4.698   1.404 -0.1940  0.2075 -0.0484
 5217TIP3    H115615   6.329   4.616   1.394 -0.5860  0.5915 -1.7735
 5217TIP3    H215616   6.392   4.728   1.314  0.2845  1.8243  0.5239
 5218TIP3   OH215617   3.416   2.788   5.071  0.0005 -0.1620  0.1087
 5218TIP3    H115618   3.504   2.793   5.109  0.2399 -0.7835 -0.3352
 5218TIP3    H215619   3.387   2.699   5.091  0.0927 -0.4693 -1.0489
 5219TIP3   OH215620   6.328   1.839   0.641  0.0650 -0.0203  0.0446
 5219TIP3    H115621   6.328   1.902   0.569  0.0619  1.3533  1.2100
 5219TIP3    H215622   6.255   1.781   0.622  0.4254 -0.0409 -1.3548
 5220TIP3   OH215623   4.501   0.559   3.275  0.4848  0.3255  0.4717
 5220TIP3    H115624   4.512   0.482   3.220  0.8752  1.2969 -0.8355
 5220TIP3    H215625   4.461   0.525   3.355 -0.5585 -1.0542 -0.5863
 5221TIP3   OH215626   2.139   3.866   1.342 -0.0445  0.2431 -0.2093
 5221TIP3    H115627   2.115   3.957   1.328  0.6196  0.2813 -1.2109
 5221TIP3    H215628   2.139   3.855   1.437  0.3561  1.4141 -0.0624
 5222TIP3   OH215629   6.573   6.036   4.999 -0.3242 -0.2064  0.3687
 5222TIP3    H115630   6.579   6.012   4.906  1.0382  0.4762  0.2588
 5222TIP3    H215631   6.493   6.088   5.005  0.0009  0.4211 -0.5881
 5223TIP3   OH215632   2.563   0.324   1.493  0.0365  0.2000  0.1742
 5223TIP3    H115633   2.499   0.393   1.507  0.3241  0.8236 -1.4176
 5223TIP3    H215634   2.582   0.327   1.399  0.2540 -1.8668  0.0923
 5224TIP3   OH215635   1.365   0.272   3.633  0.2500  0.5540  0.6243
 5224TIP3    H115636   1.351   0.301   3.723  0.6358  2.9495 -0.0422
 5224TIP3    H215637   1.330   0.182   3.632 -0.4609  0.7344  2.9458
 5225TIP3   OH215638   1.048   5.604   4.453  0.3419 -0.6516 -0.1780
 5225TIP3    H115639   0.989   5.541   4.412 -1.8514 -0.1527  1.9745
 5225TIP3    H215640   1.045   5.584   4.546  1.0607  1.4312  0.3645
 5226TIP3   OH215641   4.741   3.021   4.533 -0.4720 -0.5866  0.3136
 5226TIP3    H115642   4.768   2.930   4.544  2.9842  0.3818  1.0221
 5226TIP3    H215643   4.709   3.048   4.619 -1.0232 -0.9791  0.2339
 5227TIP3   OH215644   1.310   0.176   2.587  0.0988  0.2713  0.3092
 5227TIP3    H115645   1.284   0.163   2.496  0.1547  0.6736  0.2334
 5227TIP3    H215646   1.405   0.164   2.587  0.4646  2.6453 -0.1549
 5228TIP3   OH215647   0.254   1.167   0.198  0.1376 -0.6397  0.0049
 5228TIP3    H115648   0.233   1.237   0.136 -0.5762 -0.7882  0.0727
 5228TIP3    H215649   0.348   1.175   0.212 -0.0500  0.7509  0.5535
 5229TIP3   OH215650   4.800   1.378   3.826 -0.1141 -0.9108 -0.5028
 5229TIP3    H115651   4.875   1.319   3.826  0.8452  0.2615  0.4234
 5229TIP3    H215652   4.835   1.462   3.795 -0.4652  0.2883  2.1315
 5230TIP3   OH215653   6.369   4.840   3.120 -0.5496 -0.4750  0.0432
 5230TIP3    H115654   6.374   4.899   3.196  1.1515  1.3620 -1.3851
 5230TIP3    H215655   6.461   4.826   3.096 -1.0745  0.2090 -2.5615
 5231TIP3   OH215656   6.132   2.721   4.916 -0.1974 -0.5952  0.3402
 5231TIP3    H115657   6.227   2.711   4.915 -0.3117 -1.9693 -0.4802
 5231TIP3    H215658   6.102   2.662   4.985 -0.4650 -0.2642  0.5122
 5232TIP3   OH215659   3.878   2.586   0.053 -0.2419  0.7547  0.3130
 5232TIP3    H115660   3.961   2.557   0.089 -0.2353 -0.5895 -0.7007
 5232TIP3    H215661   3.812   2.554   0.115 -0.1340 -0.2477 -0.0636
 5233TIP3   OH215662   2.593   1.217   2.152  0.6408  0.0881 -0.5730
 5233TIP3    H115663   2.617   1.126   2.168  1.6795  0.2506 -1.0977
 5233TIP3    H215664   2.601   1.260   2.237 -0.1145 -0.3593 -0.2710
 5234TIP3   OH215665   2.030   1.652   2.574 -0.5440  0.3674  0.0751
 5234TIP3    H115666   1.999   1.714   2.507 -2.4456 -0.2439  0.3295
 5234TIP3    H215667   1.973   1.667   2.649  0.5917 -0.0054  1.0544
 5235TIP3   OH215668   1.994   0.035   4.890  0.0520 -0.0697  0.6139
 5235TIP3    H115669   1.935  -0.004   4.955 -2.0175  1.5856 -0.1806
 5235TIP3    H215670   2.061   0.080   4.943 -0.9691  0.3258  1.5963
 5236TIP3   OH215671   3.340   2.809   2.277 -0.2532 -0.1261  0.5190
 5236TIP3    H115672   3.267   2.772   2.227  0.5617 -2.2379  0.7862
 5236TIP3    H215673   3.414   2.807   2.216  0.3488 -1.1712  1.2440
 5237TIP3   OH215674   2.225   2.294   1.175  0.2497  0.0253  0.2147
 5237TIP3    H115675   2.210   2.221   1.236 -3.7304  1.7770  1.7044
 5237TIP3    H215676   2.151   2.289   1.114 -1.0160  3.4124  1.2263
 5238TIP3   OH215677   2.174   5.081   1.694  0.1804  0.1613  0.2177
 5238TIP3    H115678   2.255   5.030   1.686 -0.4440 -0.8152 -0.0066
 5238TIP3    H215679   2.194   5.164   1.651  1.1166 -0.0036  0.3079
 5239TIP3   OH215680   6.977   5.762   1.102 -0.2536  0.0290  0.5199
 5239TIP3    H115681   6.949   5.797   1.187 -1.5836 -1.8879  0.9338
 5239TIP3    H215682   7.072   5.779   1.100 -0.2490  0.4181  2.2282
 5240TIP3   OH215683   5.851   1.259   0.480  0.0615 -0.6586 -0.1163
 5240TIP3    H115684   5.940   1.264   0.515 -0.0101  0.7191 -0.1035
 5240TIP3    H215685   5.799   1.220   0.551  0.6220 -1.4194 -0.1063
 5241TIP3   OH215686   3.629   5.625   4.913 -0.0020 -0.0034  0.5311
 5241TIP3    H115687   3.621   5.717   4.886 -1.2082 -0.1069  0.4639
 5241TIP3    H215688   3.635   5.576   4.831 -1.3405 -0.1284  0.4853
 5242TIP3   OH215689   2.852   2.089   2.753  0.4065 -0.1776 -0.6415
 5242TIP3    H115690   2.839   2.074   2.847  2.8657 -1.5602 -0.4485
 5242TIP3    H215691   2.775   2.049   2.712 -0.3823 -0.1394  0.7236
 5243TIP3   OH215692   4.459   1.060   3.387  0.5710  0.0379 -0.3503
 5243TIP3    H115693   4.497   1.116   3.320  1.4992 -0.5633 -0.3406
 5243TIP3    H215694   4.450   0.975   3.344 -0.1596 -0.0040 -0.1407
 5244TIP3   OH215695   2.495   1.712   5.574  0.2254 -0.5525 -0.1388
 5244TIP3    H115696   2.419   1.654   5.586  1.0572 -1.8063 -0.7175
 5244TIP3    H215697   2.458   1.800   5.575 -0.9246 -0.9806  2.1127
 5245TIP3   OH215698   4.160   0.337   2.484 -0.0842  0.6360  0.2749
 5245TIP3    H115699   4.120   0.417   2.450 -2.3572 -0.2883  0.5693
 5245TIP3    H215700   4.128   0.268   2.426 -0.5187 -0.4138  1.7002
 5246TIP3   OH215701   6.451   4.443   3.185  0.3034  0.0310  0.1244
 5246TIP3    H115702   6.391   4.403   3.123 -0.6516  0.4618  0.7556
 5246TIP3    H215703   6.495   4.368   3.227 -1.0208 -0.3544  0.8591
 5247TIP3   OH215704   1.568   5.989   2.747 -0.3089 -0.0360  0.3553
 5247TIP3    H115705   1.583   5.990   2.653  1.2870 -1.3531  0.5570
 5247TIP3    H215706   1.653   6.009   2.785 -1.0111  0.8286  1.5383
 5248TIP3   OH215707   1.919   0.321   1.469 -0.2682  0.1501 -0.2143
 5248TIP3    H115708   1.940   0.373   1.391  0.4463 -1.5048 -1.1893
 5248TIP3    H215709   1.971   0.241   1.458  1.3241  0.6179  2.8989
 5249TIP3   OH215710   2.860   5.075   1.650  0.1446  0.2651 -0.6296
 5249TIP3    H115711   2.777   5.033   1.671 -0.0577 -0.0256 -1.9309
 5249TIP3    H215712   2.902   5.089   1.735 -0.8774 -0.3094 -0.0118
 5250TIP3   OH215713   3.679   4.353   2.763  0.0410  0.2782 -0.2053
 5250TIP3    H115714   3.768   4.331   2.734 -0.5464  0.1410 -1.9956
 5250TIP3    H215715   3.669   4.307   2.846  0.5135 -2.3439 -1.5187
 5251TIP3   OH215716   6.899   4.889   5.089  0.5959 -0.1495  0.3765
 5251TIP3    H115717   6.985   4.877   5.050  0.4642  0.4098 -0.1157
 5251TIP3    H215718   6.844   4.821   5.051 -0.0294  1.5580 -1.9987
 5252TIP3   OH215719   0.343   3.949   3.827  0.3823 -0.3457 -0.0731
 5252TIP3    H115720   0.341   3.942   3.922  3.0537  0.8656  0.1640
 5252TIP3    H215721   0.276   3.888   3.797 -1.2357 -0.0383  2.5801
 5253TIP3   OH215722   6.720   6.093   1.513 -0.3564  0.1029 -0.0359
 5253TIP3    H115723   6.639   6.064   1.554  1.2481 -2.7209  1.4356
 5253TIP3    H215724   6.738   6.028   1.445  1.4065 -0.2018  0.6742
 5254TIP3   OH215725   1.016   4.240   0.503 -0.1578  0.2744 -0.0423
 5254TIP3    H115726   1.000   4.270   0.593  2.3368  2.4240 -0.2053
 5254TIP3    H215727   0.981   4.310   0.448  0.1161 -0.0853 -0.6791
 5255TIP3   OH215728   3.669  -0.004   3.039 -0.2580  0.0966  0.3424
 5255TIP3    H115729   3.611  -0.038   3.107  1.8243 -0.3037  2.0356
 5255TIP3    H215730   3.701   0.079   3.074 -1.5189  1.4821 -1.5916
 5256TIP3   OH215731   2.154   0.482   3.289  0.4690  0.3796 -0.4945
 5256TIP3    H115732   2.079   0.427   3.267 -0.1388  0.9303  0.1772
 5256TIP3    H215733   2.186   0.514   3.204 -0.7452  1.0429 -0.7192
 5257TIP3   OH215734   2.393   2.336   1.638  0.2642 -0.2059  0.2626
 5257TIP3    H115735   2.420   2.428   1.636 -0.1497 -0.0108  1.8308
 5257TIP3    H215736   2.459   2.290   1.587  1.2900  0.7941  0.6490
 5258TIP3   OH215737   1.224   5.932   3.627 -1.0197  0.3193 -0.0681
 5258TIP3    H115738   1.162   5.947   3.556 -0.6319 -0.5371 -0.6168
 5258TIP3    H215739   1.203   5.844   3.659  0.5522 -0.4275 -0.9647
 5259TIP3   OH215740   4.876   0.989   1.377  0.3294 -0.0479  0.0181
 5259TIP3    H115741   4.850   1.057   1.440 -0.4550  0.0814 -0.4375
 5259TIP3    H215742   4.965   0.965   1.404  0.8135  1.4826 -0.0849
 5260TIP3   OH215743   6.094   1.903   4.992  0.3601 -0.4763 -0.2622
 5260TIP3    H115744   6.001   1.921   5.002  0.1375 -1.2339 -0.7855
 5260TIP3    H215745   6.103   1.811   5.017  0.9474 -0.4432 -0.3373
 5261TIP3   OH215746   0.860   4.392   3.990 -0.4610  0.4347 -0.0123
 5261TIP3    H115747   0.808   4.312   3.988 -0.2272  0.2852 -1.7019
 5261TIP3    H215748   0.948   4.362   4.014 -0.9141  0.5706  1.9612
 5262TIP3   OH215749   1.435   6.113   1.465 -0.1995  0.2437  0.2141
 5262TIP3    H115750   1.373   6.048   1.498  0.2024  0.1866  0.8678
 5262TIP3    H215751   1.380   6.174   1.416 -0.6806 -0.1902  0.2033
 5263TIP3   OH215752   0.093   3.110   1.096  0.3771  0.3157  0.6698
 5263TIP3    H115753   0.068   3.167   1.023 -2.5062  1.4376  2.3421
 5263TIP3    H215754   0.150   3.164   1.151 -1.0109  1.1068  1.4015
 5264TIP3   OH215755   4.681   6.090   2.542  0.1608 -0.0701 -0.4142
 5264TIP3    H115756   4.688   5.995   2.542  0.1870 -0.0714  0.2453
 5264TIP3    H215757   4.646   6.112   2.629  1.1824  0.5913 -0.1502
 5265TIP3   OH215758   5.560   1.813   3.139  0.0097  0.4086 -0.5484
 5265TIP3    H115759   5.628   1.825   3.072  2.1324 -0.1558  1.3763
 5265TIP3    H215760   5.579   1.727   3.177  0.3040  1.6146  2.2715
 5266TIP3   OH215761   6.112   3.843   5.078  0.1335 -0.3296 -0.1025
 5266TIP3    H115762   6.083   3.762   5.122  2.3396 -0.0875  2.0033
 5266TIP3    H215763   6.130   3.903   5.150 -0.0255  1.5694 -1.5859
 5267TIP3   OH215764   6.788   1.552   0.612  0.1476 -0.3385 -0.4598
 5267TIP3    H115765   6.717   1.519   0.557  0.1959 -0.0432 -0.7046
 5267TIP3    H215766   6.803   1.642   0.581 -0.4704  0.1753  0.6793
 5268TIP3   OH215767   1.840   3.190   5.651  0.0179 -0.5442 -0.3528
 5268TIP3    H115768   1.808   3.117   5.598 -1.2721 -0.0917 -0.2353
 5268TIP3    H215769   1.791   3.184   5.733  1.3557 -0.7104  0.4560
 5269TIP3   OH215770   4.912   6.682   0.285  0.4169 -0.0971 -0.0672
 5269TIP3    H115771   4.853   6.622   0.331  0.0408  0.2465 -0.0964
 5269TIP3    H215772   4.855   6.751   0.251  0.6974 -0.3259 -1.0207
 5270TIP3   OH215773   6.681   6.690   2.591 -0.4311  1.0020  0.1462
 5270TIP3    H115774   6.709   6.771   2.549  0.2698  0.3115 -0.7526
 5270TIP3    H215775   6.762   6.646   2.617 -0.7865  0.4705  0.3893
 5271TIP3   OH215776   1.580   4.930   1.265  0.5608  0.3583  0.0468
 5271TIP3    H115777   1.671   4.958   1.263  0.7591 -0.2342  0.4789
 5271TIP3    H215778   1.555   4.938   1.357  0.6194 -0.8397  0.1840
 5272TIP3   OH215779   5.716   4.788   2.531 -0.1431 -0.0076  0.0094
 5272TIP3    H115780   5.627   4.792   2.497 -0.4184 -3.2513  0.0218
 5272TIP3    H215781   5.750   4.877   2.522 -3.2784  1.2806 -0.1867
 5273TIP3   OH215782   1.028   1.886   0.874 -0.0244 -0.0944 -0.5113
 5273TIP3    H115783   1.099   1.838   0.916 -0.0622 -2.0672 -2.5243
 5273TIP3    H215784   0.974   1.918   0.947  1.7880 -0.3170  0.9847
 5274TIP3   OH215785   0.168   5.575   5.115  0.0036  0.0117  0.3068
 5274TIP3    H115786   0.102   5.595   5.182  1.0456  1.2678  0.9985
 5274TIP3    H215787   0.247   5.553   5.164  0.8961  1.3205 -0.4741
 5275TIP3   OH215788   2.028   6.578   3.531  0.0726  0.0383  0.8400
 5275TIP3    H115789   1.965   6.506   3.533 -0.8685  0.3878 -4.1732
 5275TIP3    H215790   1.986   6.648   3.582 -1.0698 -1.4482  2.0063
 5276TIP3   OH215791   0.533   2.195   1.889 -0.5047  0.1316  1.2528
 5276TIP3    H115792   0.568   2.139   1.958 -1.6042  0.0392  1.7476
 5276TIP3    H215793   0.456   2.236   1.927 -1.0561  0.1838  0.1204
 5277TIP3   OH215794   5.372   5.498   5.064 -0.1268 -0.0611 -0.2963
 5277TIP3    H115795   5.403   5.443   5.136  1.9624 -2.0206 -2.5080
 5277TIP3    H215796   5.429   5.575   5.067 -1.0431  0.6012  0.9743
 5278TIP3   OH215797   1.911   4.228   4.047 -0.6740  0.1394 -0.2042
 5278TIP3    H115798   1.958   4.151   4.076  0.0890 -0.0974 -1.9150
 5278TIP3    H215799   1.835   4.233   4.104 -0.0609 -1.1177  0.7741
 5279TIP3   OH215800   2.557   6.197   3.373  0.1337  0.0044  0.5162
 5279TIP3    H115801   2.632   6.199   3.314 -0.3726 -2.0966 -0.2718
 5279TIP3    H215802   2.487   6.239   3.324  0.1765 -0.1527  0.3198
 5280TIP3   OH215803   0.196   2.135   5.264  0.1531 -0.1733 -0.3995
 5280TIP3    H115804   0.111   2.177   5.251  0.3566  0.5103  0.3994
 5280TIP3    H215805   0.257   2.208   5.274  0.8837 -0.6496 -1.1741
 5281TIP3   OH215806   2.085   4.424   0.670 -0.6021 -0.7768  0.1440
 5281TIP3    H115807   1.994   4.423   0.639 -0.4754 -1.5540 -0.2287
 5281TIP3    H215808   2.102   4.334   0.699  0.6831 -1.1962 -1.7325
 5282TIP3   OH215809   6.773   2.941   0.131 -0.3505  1.0824  0.2273
 5282TIP3    H115810   6.836   2.874   0.104 -1.0786  1.1075 -1.7006
 5282TIP3    H215811   6.825   3.021   0.140  0.0684  0.8753 -0.2895
 5283TIP3   OH215812   0.928   3.903   3.465 -0.7185 -0.7127  0.5321
 5283TIP3    H115813   0.998   3.839   3.480  0.4139  0.5496  0.8106
 5283TIP3    H215814   0.938   3.928   3.373  0.0208  0.3741  0.8869
 5284TIP3   OH215815   2.092   3.731   0.544  0.7780  0.4064  0.4339
 5284TIP3    H115816   2.100   3.641   0.577 -1.1736  0.6673  1.8090
 5284TIP3    H215817   2.077   3.721   0.450 -2.2055 -0.9423  0.9638
 5285TIP3   OH215818   4.278   1.741   1.150 -0.2838  0.3131  0.3086
 5285TIP3    H115819   4.284   1.816   1.091 -0.2127 -0.8626 -1.2458
 5285TIP3    H215820   4.367   1.708   1.157 -0.2947  0.4279  1.0673
 5286TIP3   OH215821   5.190   0.312   1.696 -0.5329  0.2869 -0.1226
 5286TIP3    H115822   5.192   0.239   1.757 -1.5850  1.2405  1.0934
 5286TIP3    H215823   5.272   0.360   1.712 -0.9824  0.7482  0.8218
 5287TIP3   OH215824   1.487   3.259   3.208  0.1532 -0.6590  0.3742
 5287TIP3    H115825   1.512   3.340   3.164 -0.9807 -0.3588  0.2542
 5287TIP3    H215826   1.448   3.205   3.139  1.3953 -1.5491  0.3331
 5288TIP3   OH215827   0.382   5.487   2.352 -0.0314  0.1467 -0.3274
 5288TIP3    H115828   0.386   5.392   2.351  0.0602  0.1545 -0.6782
 5288TIP3    H215829   0.322   5.508   2.424  0.6202 -0.1540  0.3228
 5289TIP3   OH215830   2.590   3.001   4.199  0.0936  0.4362  0.1537
 5289TIP3    H115831   2.596   3.058   4.275  1.1221  0.7448 -0.1533
 5289TIP3    H215832   2.599   2.912   4.235  2.3560  0.6431  0.2429
 5290TIP3   OH215833   4.754   4.882   4.488  0.7131 -0.4317 -0.1501
 5290TIP3    H115834   4.809   4.898   4.564  2.6218 -1.1706 -1.2968
 5290TIP3    H215835   4.769   4.790   4.466 -0.7452 -0.5668 -0.7047
 5291TIP3   OH215836   6.526   4.640   2.335 -0.0493  0.6998 -0.0048
 5291TIP3    H115837   6.528   4.545   2.318  0.9246  0.6694  0.2497
 5291TIP3    H215838   6.617   4.667   2.333 -0.3270  1.6738 -0.2166
 5292TIP3   OH215839   2.791   4.075   5.142 -0.3286  0.6887  0.3035
 5292TIP3    H115840   2.854   4.007   5.168  0.4844  0.8847 -1.0229
 5292TIP3    H215841   2.706   4.033   5.151  0.0580  0.0335  1.0525
 5293TIP3   OH215842   0.316   3.779   2.691 -0.2110 -0.2687 -0.0634
 5293TIP3    H115843   0.324   3.820   2.605 -1.3167 -1.9805 -1.0508
 5293TIP3    H215844   0.363   3.696   2.682  0.5697 -0.0039  1.3408
 5294TIP3   OH215845   7.042   5.096   0.531  0.0084 -0.1906 -0.1824
 5294TIP3    H115846   7.045   5.166   0.597 -1.0122 -0.3138  0.0148
 5294TIP3    H215847   6.957   5.107   0.488 -0.2152 -1.3544 -0.0885
 5295TIP3   OH215848   5.318   5.602   0.354  0.3085  0.7621  0.7784
 5295TIP3    H115849   5.355   5.516   0.376  2.5744  1.4092 -0.2239
 5295TIP3    H215850   5.250   5.582   0.290  1.4570 -0.2438 -0.1828
 5296TIP3   OH215851   6.817   2.038   0.957 -0.4700 -0.4744  0.4544
 5296TIP3    H115852   6.897   2.015   0.910 -0.8967  0.2579 -0.7077
 5296TIP3    H215853   6.768   1.956   0.964  0.1891 -0.8370  0.7712
 5297TIP3   OH215854   0.773   3.307   3.237 -0.2466  0.3406  0.0561
 5297TIP3    H115855   0.753   3.353   3.155 -0.7572 -1.9998 -1.2294
 5297TIP3    H215856   0.688   3.281   3.272  0.0471 -0.4083  0.2416
 5298TIP3   OH215857   5.544   5.259   1.377  0.3327 -0.4595 -0.8575
 5298TIP3    H115858   5.554   5.293   1.466 -0.7063  0.8467 -1.2129
 5298TIP3    H215859   5.578   5.170   1.382  2.2859  0.2782  0.3483
 5299TIP3   OH215860   5.175   0.137   5.171 -0.4657 -0.1563 -0.1908
 5299TIP3    H115861   5.125   0.067   5.215 -0.5921  0.4465  0.6413
 5299TIP3    H215862   5.228   0.091   5.106  0.1036 -1.1380  0.9268
 5300TIP3   OH215863   0.142   5.399   4.639  0.0590 -0.5298 -0.2237
 5300TIP3    H115864   0.174   5.390   4.729  0.6062  0.5426 -0.2921
 5300TIP3    H215865   0.089   5.479   4.640 -3.2942 -2.5604  0.0444
 5301TIP3   OH215866   4.012   5.374   3.327  0.2380 -0.1004 -0.0858
 5301TIP3    H115867   3.937   5.433   3.331 -2.4456 -3.0500 -2.0366
 5301TIP3    H215868   3.986   5.299   3.381  1.4050 -1.5233 -1.4109
 5302TIP3   OH215869   4.370   2.957   1.550  0.5516  0.3000 -0.0922
 5302TIP3    H115870   4.390   2.868   1.577  1.1723  1.1332  2.4099
 5302TIP3    H215871   4.321   2.995   1.623 -0.7743  1.6856 -1.5916
 5303TIP3   OH215872   6.778   3.448   3.271  0.4523 -0.1056 -0.3602
 5303TIP3    H115873   6.762   3.474   3.180  1.4983  1.3473 -0.1676
 5303TIP3    H215874   6.862   3.401   3.268 -0.2618 -1.4242 -0.3464
 5304TIP3   OH215875   6.430   2.910   3.083  0.3850 -0.0031 -0.2284
 5304TIP3    H115876   6.358   2.887   3.142 -0.0718 -0.5954 -0.9869
 5304TIP3    H215877   6.510   2.889   3.132  0.0162 -0.4854  0.1762
 5305TIP3   OH215878   6.368   1.877   0.932  0.2514 -0.4189 -0.1449
 5305TIP3    H115879   6.287   1.910   0.971  0.7576  1.0710 -0.2990
 5305TIP3    H215880   6.353   1.883   0.838 -0.0608 -1.7197 -0.1966
 5306TIP3   OH215881   5.125   3.939   0.177 -0.1556  0.1780  0.3551
 5306TIP3    H115882   5.062   3.880   0.218 -1.0449  0.8090 -0.0749
 5306TIP3    H215883   5.073   4.013   0.147  1.0762  1.6531  1.7109
 5307TIP3   OH215884   4.606   3.694   4.152 -0.1211  0.5733  0.3434
 5307TIP3    H115885   4.586   3.666   4.241  1.7643 -0.5635  0.4725
 5307TIP3    H215886   4.694   3.731   4.157  0.3988 -0.3391 -1.1771
 5308TIP3   OH215887   3.578   2.015   0.495  0.2978  0.1540  0.2070
 5308TIP3    H115888   3.493   1.982   0.465  0.0301  0.8474  0.1834
 5308TIP3    H215889   3.556   2.083   0.559  0.8546 -0.6553  1.2897
 5309TIP3   OH215890   2.155   0.723   0.689 -0.4491  0.5633 -0.3178
 5309TIP3    H115891   2.188   0.789   0.751  0.5723 -0.2057 -0.0011
 5309TIP3    H215892   2.147   0.769   0.606  1.5165  0.8155 -0.4224
 5310TIP3   OH215893   5.302   6.698   1.589  0.4259 -0.2238 -0.3078
 5310TIP3    H115894   5.254   6.700   1.506  1.9656  0.1617 -1.2467
 5310TIP3    H215895   5.253   6.756   1.647 -0.3500 -0.0073 -1.1551
 5311TIP3   OH215896   4.338   3.959   2.597  0.9239 -0.0192 -0.4660
 5311TIP3    H115897   4.396   3.883   2.588  0.7966 -0.0485 -1.0913
 5311TIP3    H215898   4.370   4.022   2.533  1.9292  1.0601  1.0300
 5312TIP3   OH215899   4.923   5.604   2.320  0.0389  0.4183 -0.0069
 5312TIP3    H115900   4.966   5.646   2.394  1.4189  0.0989 -0.6018
 5312TIP3    H215901   4.957   5.650   2.243 -3.0462  2.2942 -0.4315
 5313TIP3   OH215902   2.577   2.382   0.171 -0.2254 -0.4489  0.5104
 5313TIP3    H115903   2.507   2.374   0.236 -0.1046 -0.7982  0.6022
 5313TIP3    H215904   2.558   2.463   0.124 -0.8459 -0.6947  0.3430
 5314TIP3   OH215905   0.134   2.438   0.457 -0.0441  0.3664  0.1405
 5314TIP3    H115906   0.055   2.404   0.499  0.2300 -0.0097  0.3640
 5314TIP3    H215907   0.171   2.362   0.412 -1.1809  1.0824 -2.1679
 5315TIP3   OH215908   5.620   2.746   0.103  0.5840  0.0084  0.0880
 5315TIP3    H115909   5.710   2.758   0.132 -0.4313  2.8212  2.6711
 5315TIP3    H215910   5.606   2.817   0.040 -0.1578  0.4987  0.7801
 5316TIP3   OH215911   4.513   3.668   0.709 -0.2216  0.5082  0.0273
 5316TIP3    H115912   4.480   3.754   0.684  2.6651  1.3051 -1.5028
 5316TIP3    H215913   4.596   3.686   0.754  0.2228 -1.4333  0.0888
 5317TIP3   OH215914   0.745   1.180   0.176 -0.5701 -0.1219  0.2336
 5317TIP3    H115915   0.678   1.178   0.107  0.3095 -0.0566 -0.6540
 5317TIP3    H215916   0.734   1.265   0.218  0.8660  1.2565 -1.9287
 5318TIP3   OH215917   4.317   0.632   5.281  0.3077 -0.3688  0.3432
 5318TIP3    H115918   4.304   0.540   5.305  0.3027 -0.7374 -1.0169
 5318TIP3    H215919   4.348   0.673   5.362 -1.9138 -1.0487  1.6513
 5319TIP3   OH215920   7.030   5.154   1.082 -0.5282  0.2947 -0.0931
 5319TIP3    H115921   7.076   5.218   1.136  0.3660 -0.7671  0.4366
 5319TIP3    H215922   6.981   5.100   1.144  0.1080 -0.6180 -0.3645
 5320TIP3   OH215923   5.122   0.334   3.737 -0.0828  0.5886  0.6362
 5320TIP3    H115924   5.053   0.276   3.706 -1.1183  1.5208  1.1392
 5320TIP3    H215925   5.203   0.289   3.713 -0.8336 -1.2525  1.3352
 5321TIP3   OH215926   1.498   4.984   2.995  0.2831 -0.6599 -0.2225
 5321TIP3    H115927   1.438   4.910   2.989 -0.1537 -0.5458  1.9193
 5321TIP3    H215928   1.504   5.002   3.089 -0.3412  2.5924 -0.7001
 5322TIP3   OH215929   5.063   0.040   3.873  0.0193 -0.1381  0.9300
 5322TIP3    H115930   5.084  -0.031   3.934 -0.4127 -0.6529  0.4926
 5322TIP3    H215931   5.142   0.094   3.871 -0.0082 -0.0276  2.0495
 5323TIP3   OH215932   0.195   3.553   0.454 -0.0012 -0.3139  0.5924
 5323TIP3    H115933   0.283   3.522   0.434  0.1875  0.5238  0.0572
 5323TIP3    H215934   0.137   3.482   0.427  0.4527 -0.4845  0.0567
 5324TIP3   OH215935   2.405   2.848   0.991  0.0135  0.0257  0.2576
 5324TIP3    H115936   2.361   2.813   1.068 -0.5540 -0.6161 -0.3493
 5324TIP3    H215937   2.335   2.883   0.937  0.3477 -0.0640 -0.2413
 5325TIP3   OH215938   5.825   5.186   2.929  0.0444  0.1214  0.2060
 5325TIP3    H115939   5.911   5.196   2.970 -0.3313  0.5702  0.8880
 5325TIP3    H215940   5.798   5.097   2.953  1.4326 -1.0572 -2.1774
 5326TIP3   OH215941   0.215   4.364   4.157  0.1687  0.2143 -0.1517
 5326TIP3    H115942   0.246   4.453   4.137 -0.8259  0.8596  1.0333
 5326TIP3    H215943   0.120   4.372   4.159 -0.0487 -1.3134 -1.8559
 5327TIP3   OH215944   3.704   6.333   5.190 -0.0487 -0.1963 -0.2132
 5327TIP3    H115945   3.729   6.394   5.260  0.5875 -0.8902  0.1835
 5327TIP3    H215946   3.776   6.338   5.128 -0.0968 -0.3772 -0.2844
 5328TIP3   OH215947   4.647   1.152   3.148  0.8534 -0.0582  0.4742
 5328TIP3    H115948   4.630   1.236   3.107  0.1790 -0.9719 -1.2211
 5328TIP3    H215949   4.741   1.153   3.166  1.8101 -0.5321 -3.5382
 5329TIP3   OH215950   6.120   2.118   1.650  0.5203 -0.4726  0.0892
 5329TIP3    H115951   6.040   2.083   1.690  0.9756 -4.1935 -1.7626
 5329TIP3    H215952   6.089   2.186   1.589 -1.2556 -1.6163 -0.3804
 5330TIP3   OH215953   5.323   2.537   5.247  0.1268  0.1214 -0.4876
 5330TIP3    H115954   5.280   2.532   5.333  1.4672 -0.3584  0.1938
 5330TIP3    H215955   5.353   2.628   5.241  0.2663  0.0867 -0.3224
 5331TIP3   OH215956   2.915   1.337   1.291  0.5309  0.0525 -0.2969
 5331TIP3    H115957   2.881   1.412   1.241  2.2822  1.4134  0.4219
 5331TIP3    H215958   2.927   1.268   1.227 -0.0226  0.7704 -1.1991
 5332TIP3   OH215959   7.079   1.032   4.921 -0.5085  0.3860 -0.5120
 5332TIP3    H115960   7.082   1.127   4.934  0.7557  0.2683  0.2308
 5332TIP3    H215961   7.096   0.995   5.008 -1.0391 -0.5311 -0.7813
 5333TIP3   OH215962   2.255   0.999   3.970  0.2631  0.1233 -0.6813
 5333TIP3    H115963   2.291   1.071   4.022  1.3606  0.0024 -1.2384
 5333TIP3    H215964   2.278   0.920   4.017 -0.8473  0.1128 -0.1276
 5334TIP3   OH215965   5.794   3.263   3.552 -0.4681 -0.9102 -0.2838
 5334TIP3    H115966   5.799   3.340   3.496 -0.3043 -1.3010 -0.8197
 5334TIP3    H215967   5.784   3.190   3.491  0.6310 -1.4371  0.1338
 5335TIP3   OH215968   1.853   5.352  -0.004 -0.3174 -0.4148  0.4162
 5335TIP3    H115969   1.759   5.338   0.010 -0.5486  0.0073 -0.5513
 5335TIP3    H215970   1.884   5.395   0.075 -1.0241 -0.2523  0.6073
 5336TIP3   OH215971   3.666   1.122   2.648 -0.4374 -0.0669  0.4251
 5336TIP3    H115972   3.696   1.207   2.616  0.6789 -1.2318 -1.9471
 5336TIP3    H215973   3.581   1.109   2.606  0.0966 -0.7379 -0.4847
 5337TIP3   OH215974   4.267   5.388   1.105  0.0541 -0.2644 -0.0980
 5337TIP3    H115975   4.273   5.359   1.196  2.0401 -0.1326 -0.1551
 5337TIP3    H215976   4.255   5.308   1.055 -1.1700 -0.3280  0.2538
 5338TIP3   OH215977   2.501   3.377   1.782  0.4963  0.2660  0.4779
 5338TIP3    H115978   2.493   3.317   1.856 -2.1773  0.7460  0.6493
 5338TIP3    H215979   2.534   3.458   1.820 -0.1954  0.2930  1.0400
 5339TIP3   OH215980   1.079   6.120   4.079 -0.1322 -0.6093  0.3439
 5339TIP3    H115981   1.118   6.051   4.133  1.8684 -0.1342 -0.4078
 5339TIP3    H215982   1.154   6.167   4.042 -1.4429  1.2934 -0.0378
 5340TIP3   OH215983   4.401   3.642   0.257 -0.2987  0.1076  0.2356
 5340TIP3    H115984   4.326   3.584   0.250 -0.8428  0.7915  0.2802
 5340TIP3    H215985   4.363   3.729   0.271  0.4588  0.6421 -0.8499
 5341TIP3   OH215986   3.984   2.183   0.740 -0.0796 -0.1953  0.0945
 5341TIP3    H115987   3.915   2.237   0.700  1.3620  0.7063 -1.2905
 5341TIP3    H215988   3.983   2.209   0.833 -1.3498  0.0723  0.0206
 5342TIP3   OH215989   3.905   3.433   3.941 -0.4484 -0.3504  0.1866
 5342TIP3    H115990   3.944   3.416   3.855  2.0367  0.7452  0.9749
 5342TIP3    H215991   3.846   3.359   3.957 -1.4133 -0.2880 -2.6461
 5343TIP3   OH215992   6.752   2.131   1.432  0.0716  0.0831  0.1393
 5343TIP3    H115993   6.779   2.040   1.439  0.7116  0.1788 -0.8966
 5343TIP3    H215994   6.657   2.127   1.420  0.3788 -0.6576 -2.7881
 5344TIP3   OH215995   0.075   2.539   1.525 -0.6471 -0.4931  0.3161
 5344TIP3    H115996   0.031   2.456   1.542 -1.1378 -0.0801  1.1133
 5344TIP3    H215997   0.151   2.537   1.582  0.7696 -1.4679 -1.4890
 5345TIP3   OH215998   2.785   1.284   1.818  1.3541 -0.1484  0.5987
 5345TIP3    H115999   2.769   1.357   1.877 -2.8274  0.1599 -0.5666
 5345TIP3    H216000   2.749   1.208   1.864  0.8508 -0.4683 -0.2994
 5346TIP3   OH216001   0.189   5.283   0.399  0.1320 -0.4941 -0.1814
 5346TIP3    H116002   0.184   5.300   0.305 -1.0464  1.4294  0.1763
 5346TIP3    H216003   0.242   5.355   0.434  1.4171 -1.7296  0.5416
 5347TIP3   OH216004   5.815   2.309   4.714  0.1711 -0.0457 -0.3783
 5347TIP3    H116005   5.751   2.251   4.755  0.6174 -0.8836 -0.8532
 5347TIP3    H216006   5.897   2.289   4.758  0.6574 -0.9574 -1.6600
 5348TIP3   OH216007   7.133   4.167   1.651 -0.5167  0.3822  0.2666
 5348TIP3    H116008   7.099   4.240   1.704  1.1601  0.9559  0.6039
 5348TIP3    H216009   7.173   4.210   1.575  1.1466 -0.1088  0.8356
 5349TIP3   OH216010   7.112   2.116   0.271 -0.6470  0.5573  0.2824
 5349TIP3    H116011   7.141   2.183   0.333  0.8833 -0.5737  0.8305
 5349TIP3    H216012   7.168   2.040   0.288 -1.2369 -0.3287 -1.4211
 5350TIP3   OH216013   5.688   0.860   1.359 -0.3783 -0.3909 -0.5660
 5350TIP3    H116014   5.766   0.819   1.397 -0.6240  0.2977  0.7407
 5350TIP3    H216015   5.722   0.910   1.284  0.1524 -1.5501 -1.1291
 5351TIP3   OH216016   5.740   0.249   3.514  0.2916 -0.0140  0.6384
 5351TIP3    H116017   5.747   0.279   3.423  0.8000 -1.6949  0.0877
 5351TIP3    H216018   5.798   0.307   3.563  0.0716  0.8637 -0.1132
 5352TIP3   OH216019   1.459   2.968   4.121  0.4280  0.7654 -0.0141
 5352TIP3    H116020   1.396   2.913   4.167  1.9363  0.1162  1.3623
 5352TIP3    H216021   1.421   2.981   4.034 -1.2176 -0.2290  0.5220
 5353TIP3   OH216022   6.365   0.914   3.116 -0.6160  0.6296  0.2270
 5353TIP3    H116023   6.430   0.912   3.187 -0.2765 -0.6111 -0.0876
 5353TIP3    H216024   6.303   0.983   3.142 -0.8062 -0.1494  2.0243
 5354TIP3   OH216025   5.458   4.496   1.153 -0.3868 -0.1067  0.4613
 5354TIP3    H116026   5.531   4.544   1.116 -1.4052  1.6563  0.6068
 5354TIP3    H216027   5.424   4.444   1.081  0.6783 -0.5553  0.2684
 5355TIP3   OH216028   5.509   5.732   5.079  0.0470 -0.7431 -0.1870
 5355TIP3    H116029   5.493   5.794   5.008  1.2216 -0.5767 -0.3194
 5355TIP3    H216030   5.547   5.786   5.149 -1.4121 -0.8326  0.7215
 5356TIP3   OH216031   2.999   2.728   0.365 -0.1359  0.1394 -0.1745
 5356TIP3    H116032   3.029   2.659   0.424 -0.8528 -2.1485 -2.3120
 5356TIP3    H216033   2.905   2.737   0.383 -0.4234 -0.7965 -1.1449
 5357TIP3   OH216034   6.933   2.137   3.043  0.4911 -0.2597 -0.0641
 5357TIP3    H116035   6.939   2.044   3.066 -1.1120 -0.2324  0.6267
 5357TIP3    H216036   6.977   2.182   3.115  0.0552 -0.4296  0.3149
 5358TIP3   OH216037   3.253   6.047   4.285 -0.8143  0.5464 -0.3033
 5358TIP3    H116038   3.308   6.012   4.215  0.8593 -0.5062  1.4442
 5358TIP3    H216039   3.175   5.992   4.285 -0.4938  0.0826 -0.8498
 5359TIP3   OH216040   0.579   0.058   5.487  0.2794 -0.1421 -0.0071
 5359TIP3    H116041   0.512  -0.009   5.499  0.3542  0.0795  1.9727
 5359TIP3    H216042   0.535   0.140   5.509  1.4533 -0.1291  2.7514
 5360TIP3   OH216043   5.200   5.442   0.151  0.3177  0.1167 -0.5798
 5360TIP3    H116044   5.182   5.348   0.150 -0.0131  0.1778 -0.5819
 5360TIP3    H216045   5.122   5.481   0.113  0.0025  0.4581  0.3754
 5361TIP3   OH216046   6.968   5.853   2.942 -0.5905 -0.3905 -0.2376
 5361TIP3    H116047   6.943   5.943   2.962 -1.0339 -0.6229  0.2674
 5361TIP3    H216048   7.057   5.844   2.977 -0.3688 -0.0207 -0.6866
 5362TIP3   OH216049   5.141   1.296   4.169 -0.1463 -0.1278  0.1583
 5362TIP3    H116050   5.225   1.333   4.142 -1.5380  1.6038 -2.0805
 5362TIP3    H216051   5.104   1.361   4.228  0.0702 -0.9102  1.1773
 5363TIP3   OH216052   2.074   5.098   3.670 -0.5157  0.2177 -0.6309
 5363TIP3    H116053   2.169   5.110   3.675 -0.2771 -1.7316  0.2609
 5363TIP3    H216054   2.038   5.186   3.684  1.0594  0.4747  2.5522
 5364TIP3   OH216055   1.863   1.671   4.378 -0.4043 -0.1411  0.1401
 5364TIP3    H116056   1.915   1.718   4.314 -1.1774 -0.2848 -0.6118
 5364TIP3    H216057   1.822   1.600   4.328 -1.1589 -0.1426  0.7497
 5365TIP3   OH216058   0.332   3.932   4.801 -0.2428 -0.1917  0.3388
 5365TIP3    H116059   0.289   3.961   4.881 -0.0374 -0.4167  0.5336
 5365TIP3    H216060   0.284   3.974   4.731  0.6849  1.4417  0.6421
 5366TIP3   OH216061   2.398   5.218   2.307  0.3182 -0.1119  0.2637
 5366TIP3    H116062   2.436   5.146   2.256 -1.3511 -1.3619  0.6792
 5366TIP3    H216063   2.426   5.201   2.397 -0.9207 -0.8748  0.5255
 5367TIP3   OH216064   6.847   5.095   4.762 -0.1312 -0.1712 -0.0044
 5367TIP3    H116065   6.878   5.137   4.843  0.4923  0.8583 -0.7468
 5367TIP3    H216066   6.777   5.037   4.790  0.1784  0.0575  1.2988
 5368TIP3   OH216067   0.389   2.594   4.522  0.0618  0.3110 -0.4098
 5368TIP3    H116068   0.349   2.680   4.515 -0.9874 -0.1834 -0.5885
 5368TIP3    H216069   0.483   2.612   4.532 -0.4124  1.5831  2.5429
 5369TIP3   OH216070   0.709   6.313   3.122 -0.6741  0.1927 -0.3691
 5369TIP3    H116071   0.786   6.256   3.124 -0.6012  0.2760 -0.7837
 5369TIP3    H216072   0.740   6.396   3.159 -0.0297  0.8697 -2.3250
 5370TIP3   OH216073   2.944   4.498   5.303  0.0759 -0.5045  0.1805
 5370TIP3    H116074   2.995   4.442   5.362  2.3906  1.7629  0.5276
 5370TIP3    H216075   2.889   4.438   5.253  0.7806 -2.8261  2.0500
 5371TIP3   OH216076   2.968   4.318   3.466  0.3778  0.0614 -0.2474
 5371TIP3    H116077   2.935   4.236   3.502  0.4863  0.3997  0.6473
 5371TIP3    H216078   2.891   4.375   3.461  0.3585  0.0086 -0.5870
 5372TIP3   OH216079   1.552   3.150   2.272  0.0125  0.0364 -0.5080
 5372TIP3    H116080   1.479   3.129   2.330  0.5574  1.7230  0.8407
 5372TIP3    H216081   1.630   3.139   2.326  0.6622  0.0457 -1.4122
 5373TIP3   OH216082   1.110   3.442   2.758  0.0846 -0.5210  0.3116
 5373TIP3    H116083   1.117   3.367   2.817 -0.0967 -0.3372  0.5678
 5373TIP3    H216084   1.042   3.417   2.696  0.3086 -0.7339  0.1494
 5374TIP3   OH216085   1.549   2.635   5.138 -0.4063 -0.4983  0.0095
 5374TIP3    H116086   1.630   2.586   5.120 -0.4859 -0.4294 -0.5562
 5374TIP3    H216087   1.497   2.624   5.058 -0.4554  0.4436 -0.0973
 5375TIP3   OH216088   4.033   2.384   1.735  0.0282 -0.2012  0.1663
 5375TIP3    H116089   4.051   2.476   1.754 -1.0368 -0.1161  0.8363
 5375TIP3    H216090   3.944   2.384   1.698 -0.0814 -0.9851  0.4205
 5376TIP3   OH216091   5.506   2.593   2.153 -0.0067 -0.6621 -0.4767
 5376TIP3    H116092   5.522   2.540   2.075  0.4881 -0.1469 -0.7354
 5376TIP3    H216093   5.465   2.673   2.120  0.8806 -0.1211 -0.3062
 5377TIP3   OH216094   2.374   5.311   3.414 -0.0717 -0.4424 -0.0544
 5377TIP3    H116095   2.419   5.293   3.496 -1.2516 -0.9102  0.5022
 5377TIP3    H216096   2.341   5.400   3.424  2.0904  0.5516 -1.1216
 5378TIP3   OH216097   2.332   1.473   3.265  0.2179 -0.1576 -0.0740
 5378TIP3    H116098   2.363   1.467   3.175 -0.6689 -1.5955 -0.3191
 5378TIP3    H216099   2.242   1.506   3.257  0.4318  0.5554  0.3617
 5379TIP3   OH216100   0.839   5.766   4.947 -0.4725  0.3951  0.4162
 5379TIP3    H116101   0.786   5.757   4.868 -0.5363  1.3696  0.3328
 5379TIP3    H216102   0.839   5.860   4.965  0.4527  0.3058  0.9448
 5380TIP3   OH216103   4.592   4.824   1.784 -0.1551 -0.3031  0.7830
 5380TIP3    H116104   4.590   4.739   1.829 -0.9293 -0.2746  0.8163
 5380TIP3    H216105   4.525   4.817   1.716  0.5794 -0.1218  0.0232
 5381TIP3   OH216106   4.474   5.638   4.937  0.6239  0.1638 -0.7342
 5381TIP3    H116107   4.559   5.681   4.928 -0.5593  2.5123 -1.3718
 5381TIP3    H216108   4.487   5.576   5.009  2.0632  2.7130  1.4039
 5382TIP3   OH216109   1.791   1.826   2.591  0.1971  0.1939  0.1015
 5382TIP3    H116110   1.758   1.791   2.674 -2.7530  0.7195 -0.7187
 5382TIP3    H216111   1.766   1.760   2.526 -1.0845  1.5391 -0.8267
 5383TIP3   OH216112   4.522   2.084   3.437 -0.5186 -0.2459  0.2190
 5383TIP3    H116113   4.499   2.162   3.488 -1.2910 -0.1171 -0.3241
 5383TIP3    H216114   4.447   2.026   3.445 -0.3257 -0.5526 -0.1403
 5384TIP3   OH216115   0.020   5.731   1.116 -0.1818  0.5130 -0.0896
 5384TIP3    H116116   0.099   5.752   1.166 -0.5838  0.9595  0.3685
 5384TIP3    H216117   0.046   5.659   1.059  1.1770  2.0768 -1.5460
 5385TIP3   OH216118   2.550   4.949   0.501  0.4623 -0.1036 -0.4800
 5385TIP3    H116119   2.505   5.016   0.450  0.2947 -0.4814 -0.8397
 5385TIP3    H216120   2.588   4.891   0.435 -0.6029 -1.1676 -0.1860
 5386TIP3   OH216121   3.892   3.177   4.673  0.0011  0.2506 -0.1131
 5386TIP3    H116122   3.939   3.154   4.593  1.5164  0.1550  0.7719
 5386TIP3    H216123   3.936   3.256   4.705 -1.9011  1.5155 -0.4269
 5387TIP3   OH216124   1.636   4.653   4.926  0.6201  0.0728 -0.5426
 5387TIP3    H116125   1.623   4.567   4.966  0.4461  0.2678 -0.1704
 5387TIP3    H216126   1.627   4.638   4.832  1.3981 -0.4634 -0.5420
 5388TIP3   OH216127   5.475   0.855   4.414  0.2680  0.3150 -0.2929
 5388TIP3    H116128   5.477   0.887   4.504  0.1572 -0.6767  0.0784
 5388TIP3    H216129   5.502   0.930   4.361  1.0984  0.6911  0.6290
 5389TIP3   OH216130   1.906   1.693   2.844  0.6907 -0.1175 -0.0064
 5389TIP3    H116131   1.901   1.755   2.918 -1.3834  0.3011 -0.4254
 5389TIP3    H216132   1.832   1.634   2.858  2.4642 -2.3928  0.2169
 5390TIP3   OH216133   2.236   6.697   4.069 -0.6840  0.2413 -0.2754
 5390TIP3    H116134   2.315   6.645   4.083 -2.9426 -3.1543  1.2639
 5390TIP3    H216135   2.245   6.772   4.128  2.2176  1.2421 -1.7698
 5391TIP3   OH216136   0.108   4.879   4.394 -0.2868  0.9028 -0.0695
 5391TIP3    H116137   0.140   4.911   4.309 -1.5340  1.3721 -0.3822
 5391TIP3    H216138   0.126   4.951   4.455  0.9541  0.4209  0.1753
 5392TIP3   OH216139   4.119   3.338   5.197  0.5609 -0.3644 -0.0826
 5392TIP3    H116140   4.030   3.340   5.232  0.6948 -1.0985  0.3212
 5392TIP3    H216141   4.175   3.337   5.275  0.9480  0.7162 -0.3330
 5393TIP3   OH216142   5.639   6.804   3.971 -0.1063 -0.3415  0.3179
 5393TIP3    H116143   5.643   6.737   3.903  1.0220  0.9716 -0.9610
 5393TIP3    H216144   5.688   6.767   4.045  2.4189 -0.1627 -1.1406
 5394TIP3   OH216145   1.469   0.798   5.099 -0.3246 -0.7216 -0.4019
 5394TIP3    H116146   1.377   0.775   5.114 -0.0849 -0.9321  0.7742
 5394TIP3    H216147   1.467   0.850   5.018 -1.6302  0.3132  0.2501
 5395TIP3   OH216148   4.465   0.189   1.157 -0.5860  0.6563 -0.4389
 5395TIP3    H116149   4.496   0.136   1.083 -1.4478 -0.9166  0.2703
 5395TIP3    H216150   4.369   0.187   1.149 -0.7243 -0.1347  1.0875
 5396TIP3   OH216151   2.802   0.356   0.155  0.3163  0.0193 -0.1041
 5396TIP3    H116152   2.877   0.345   0.214 -0.0333  1.9936  0.7825
 5396TIP3    H216153   2.806   0.280   0.097  1.1110 -1.6300  1.9885
 5397TIP3   OH216154   0.503   3.032   0.485  0.6045 -0.2354 -0.3289
 5397TIP3    H116155   0.528   2.939   0.485 -3.0368 -1.3932  0.6289
 5397TIP3    H216156   0.526   3.063   0.572 -0.5525 -1.0912  0.3174
 5398TIP3   OH216157   5.757   4.746   1.827  0.1910  0.5478 -0.1773
 5398TIP3    H116158   5.798   4.660   1.814 -0.0535  0.2898  0.7081
 5398TIP3    H216159   5.724   4.744   1.917 -1.2799  0.9542 -0.6719
 5399TIP3   OH216160   4.920   1.274   5.710 -0.3565  0.2361 -0.1629
 5399TIP3    H116161   4.892   1.194   5.664  0.4475 -1.0234  1.4650
 5399TIP3    H216162   4.838   1.313   5.740 -0.7360 -0.1785 -0.6276
 5400TIP3   OH216163   4.549   0.505   2.719 -0.2158 -0.0965 -0.0474
 5400TIP3    H116164   4.558   0.414   2.747 -0.5160  0.5544  2.4292
 5400TIP3    H216165   4.455   0.522   2.720 -0.1897  0.1585 -0.8718
 5401TIP3   OH216166   7.116   5.860   1.438  1.0703 -0.7213  0.6555
 5401TIP3    H116167   7.174   5.796   1.479  1.9339 -0.9636 -0.8441
 5401TIP3    H216168   7.145   5.944   1.472  2.6224 -0.7997 -0.3539
 5402TIP3   OH216169   4.254   2.135   1.157 -0.4713  0.5555  0.4646
 5402TIP3    H116170   4.264   2.087   1.074 -2.0085 -0.0213  0.5732
 5402TIP3    H216171   4.343   2.161   1.181  0.8715 -4.1292  1.5276
 5403TIP3   OH216172   3.469   4.954   4.867  0.2592  0.2457 -0.2825
 5403TIP3    H116173   3.535   4.999   4.814  1.4385  1.1573  1.8380
 5403TIP3    H216174   3.518   4.915   4.939 -1.5663  2.5394  2.4746
 5404TIP3   OH216175   5.760   5.527   3.589 -0.6377 -0.4315  0.3474
 5404TIP3    H116176   5.665   5.529   3.580 -0.6898  0.0089  0.9679
 5404TIP3    H216177   5.776   5.471   3.665 -0.4018 -0.4604  0.2777
 5405TIP3   OH216178   4.661   0.705   1.538  0.5048 -0.8545  0.3613
 5405TIP3    H116179   4.655   0.702   1.633 -3.1323 -2.1439  0.2472
 5405TIP3    H216180   4.719   0.632   1.516  0.3081 -1.3996  1.5624
 5406TIP3   OH216181   5.469   5.461   3.031  0.7206  0.0069 -0.2046
 5406TIP3    H116182   5.505   5.525   3.093  1.1928  0.4518 -0.9194
 5406TIP3    H216183   5.544   5.439   2.975  0.5651 -1.1874  0.0417
 5407TIP3   OH216184   4.357   0.394   2.294 -0.2090 -0.0458  0.3577
 5407TIP3    H116185   4.345   0.367   2.203 -0.4786  0.0359  0.3685
 5407TIP3    H216186   4.288   0.458   2.309 -1.3764 -1.4382  1.1925
 5408TIP3   OH216187   5.194   1.349   3.391 -0.4946  0.5399  0.0290
 5408TIP3    H116188   5.273   1.402   3.400 -0.6740  1.0173 -0.9934
 5408TIP3    H216189   5.216   1.265   3.432  0.7458  0.4641 -0.7415
 5409TIP3   OH216190   7.039   0.846   2.347  0.0918  0.3000  0.0561
 5409TIP3    H116191   6.948   0.856   2.375  0.2915  0.6324  0.6000
 5409TIP3    H216192   7.033   0.836   2.252 -0.3705  2.6947 -0.2321
 5410TIP3   OH216193   4.956   2.147   3.241  0.3270  0.0028 -0.1340
 5410TIP3    H116194   4.990   2.224   3.194 -1.6342 -0.1569 -1.9399
 5410TIP3    H216195   4.915   2.094   3.174 -1.2523 -1.0220  1.5620
 5411TIP3   OH216196   4.817   3.350   3.356 -0.4264 -0.4404 -0.1445
 5411TIP3    H116197   4.890   3.324   3.300  0.1698  0.2945  0.2764
 5411TIP3    H216198   4.857   3.403   3.425 -1.4781  0.9535 -0.5500
 5412TIP3   OH216199   1.816   5.089   4.132 -0.5542  0.3056 -0.6945
 5412TIP3    H116200   1.903   5.064   4.103 -0.5374 -1.3909  0.6670
 5412TIP3    H216201   1.770   5.006   4.145 -1.3708  1.0240  1.5370
 5413TIP3   OH216202   2.939   6.600   0.930  0.2375  0.0048  0.0244
 5413TIP3    H116203   3.000   6.589   1.003  0.8059 -0.5710 -0.5239
 5413TIP3    H216204   2.912   6.511   0.908 -0.2418  0.2061 -0.2067
 5414TIP3   OH216205   1.232   3.436   0.281  0.0121  0.0228  0.8556
 5414TIP3    H116206   1.140   3.416   0.266 -0.7133  3.5242 -0.4930
 5414TIP3    H216207   1.233   3.475   0.369  0.2335 -0.1494  0.9295
 5415TIP3   OH216208   2.486   4.250   3.856  0.1520  0.4812 -0.2068
 5415TIP3    H116209   2.464   4.310   3.785  0.1000  0.3914 -0.2671
 5415TIP3    H216210   2.428   4.275   3.928 -1.2389 -0.7160 -0.8504
 5416TIP3   OH216211   5.618   0.842   4.731  0.3373  0.1752 -0.2411
 5416TIP3    H116212   5.678   0.817   4.802 -1.0257 -0.4176  0.7367
 5416TIP3    H216213   5.676   0.869   4.660  1.7576  1.1620  1.2109
 5417TIP3   OH216214   0.468   0.778   2.025 -0.0865 -1.1365  0.3182
 5417TIP3    H116215   0.540   0.742   1.973  0.1198 -0.6635  0.2688
 5417TIP3    H216216   0.428   0.843   1.968 -0.8921 -1.7673  0.1464
 5418TIP3   OH216217   5.025   4.235   5.121  0.3322  0.1319 -0.3605
 5418TIP3    H116218   4.990   4.236   5.032 -0.7810 -2.1962 -0.0236
 5418TIP3    H216219   5.120   4.228   5.110  0.1536 -0.8842 -1.3950
 5419TIP3   OH216220   0.780   2.959   4.389 -0.5556  0.2144  0.1347
 5419TIP3    H116221   0.725   3.037   4.393 -0.0550  0.6462 -1.0725
 5419TIP3    H216222   0.869   2.994   4.382 -0.3768 -0.4520 -1.0531
 5420TIP3   OH216223   4.160   3.806   3.866 -0.1026 -0.1317 -0.3612
 5420TIP3    H116224   4.117   3.742   3.923  0.1394 -1.9764 -2.1107
 5420TIP3    H216225   4.252   3.800   3.889 -0.1806  0.2331  0.0585
 5421TIP3   OH216226   3.440   3.180   2.645  0.0268 -0.0742 -0.1680
 5421TIP3    H116227   3.430   3.201   2.552  0.9296  0.0125 -0.2535
 5421TIP3    H216228   3.429   3.085   2.650 -0.3449 -0.0418 -0.3108
 5422TIP3   OH216229   1.478   1.787   1.472 -0.1699 -0.0874  0.3470
 5422TIP3    H116230   1.573   1.782   1.460 -0.1506  2.2462 -0.9322
 5422TIP3    H216231   1.446   1.837   1.397 -2.5631 -1.4941  0.3044
 5423TIP3   OH216232   0.890   5.462   3.004  0.1498 -0.0767 -0.0120
 5423TIP3    H116233   0.981   5.432   2.999  0.9058  2.2630 -1.9873
 5423TIP3    H216234   0.889   5.522   3.079  0.8964  1.6986 -1.3550
 5424TIP3   OH216235   2.287   2.416   0.037  0.1728  0.2112 -0.2165
 5424TIP3    H116236   2.342   2.488   0.067 -0.8233  0.5925  0.7432
 5424TIP3    H216237   2.202   2.456   0.018 -0.5648 -0.7799  0.8555
 5425TIP3   OH216238   5.221   5.818   4.263 -0.1395  0.0894  0.8883
 5425TIP3    H116239   5.309   5.855   4.269 -0.0799 -0.1773  1.8120
 5425TIP3    H216240   5.177   5.849   4.343 -0.9115  0.2872  0.4017
 5426TIP3   OH216241   7.114   2.253   3.256  0.4359 -0.2197 -0.2241
 5426TIP3    H116242   7.096   2.307   3.333 -4.1506 -0.4549 -0.9043
 5426TIP3    H216243   7.159   2.176   3.291 -0.4657  0.2204  2.0554
 5427TIP3   OH216244   5.374   5.537   5.651  0.3608 -0.5510  0.7080
 5427TIP3    H116245   5.304   5.475   5.633 -0.5978  0.5388  0.5270
 5427TIP3    H216246   5.348   5.579   5.733 -0.0884  1.0455 -0.2147
 5428TIP3   OH216247   5.897   6.026   2.145  0.2644 -0.0920  0.1480
 5428TIP3    H116248   5.924   5.935   2.129  1.2255  0.1045  0.5951
 5428TIP3    H216249   5.979   6.076   2.143 -0.2625  0.7754 -0.1315
 5429TIP3   OH216250   5.206   4.835   1.771  0.2794 -0.4009 -0.5928
 5429TIP3    H116251   5.300   4.822   1.764  0.3766  1.0873 -3.5530
 5429TIP3    H216252   5.169   4.787   1.697 -1.0441  0.8178 -0.7655
 5430TIP3   OH216253   1.821   0.278   0.717  0.0874  0.2324  0.2137
 5430TIP3    H116254   1.851   0.367   0.699  0.8869 -0.4235 -2.1258
 5430TIP3    H216255   1.725   0.284   0.716  0.1335  1.0900  0.2673
 5431TIP3   OH216256   3.339   2.504   2.385 -0.4058 -0.3248 -0.7012
 5431TIP3    H116257   3.421   2.552   2.393  1.1796 -3.0300  0.6265
 5431TIP3    H216258   3.275   2.558   2.433  1.1378  0.6619  0.3265
 5432TIP3   OH216259   1.120   1.627   0.986 -0.5034  0.2823  0.1426
 5432TIP3    H116260   1.051   1.640   1.051  0.0277 -0.4527  0.8918
 5432TIP3    H216261   1.202   1.638   1.035 -0.0633  1.5274 -0.8080
 5433TIP3   OH216262   4.854   2.654   0.769 -0.4857  0.0632  0.1561
 5433TIP3    H116263   4.890   2.719   0.829  2.3741 -0.0538 -1.2691
 5433TIP3    H216264   4.873   2.570   0.811 -1.3384  0.0419  0.5204
 5434TIP3   OH216265   6.835   3.317   2.103 -0.4643 -0.4265  0.6977
 5434TIP3    H116266   6.834   3.240   2.046 -2.1978 -0.7482  1.1087
 5434TIP3    H216267   6.908   3.370   2.070 -0.3307 -1.4152 -0.7040
 5435TIP3   OH216268   2.237   3.576   0.098 -0.2632 -0.0650 -0.3405
 5435TIP3    H116269   2.239   3.671   0.098 -1.8824  0.0182  1.1290
 5435TIP3    H216270   2.317   3.550   0.144  0.9266  0.4928 -2.0077
 5436TIP3   OH216271   6.871   6.526   3.434 -0.6267 -0.0732 -0.2032
 5436TIP3    H116272   6.931   6.493   3.501  0.0450  1.3237 -0.0885
 5436TIP3    H216273   6.829   6.447   3.399  0.8609 -1.0456  0.0955
 5437TIP3   OH216274   0.705   0.425   5.396 -0.1465  0.0763  0.2188
 5437TIP3    H116275   0.669   0.372   5.325  0.4570 -1.4033  0.9938
 5437TIP3    H216276   0.764   0.486   5.352  0.6561 -1.1939 -0.5254
 5438TIP3   OH216277   5.145   6.766   3.941 -0.3217 -0.0941  0.3988
 5438TIP3    H116278   5.076   6.772   3.875  1.0288  0.9872 -0.9914
 5438TIP3    H216279   5.188   6.683   3.923  0.7972  0.7315 -0.9208
 5439TIP3   OH216280   1.969   1.538   3.704 -0.0695  0.0543  0.1033
 5439TIP3    H116281   2.004   1.449   3.704  2.1314  0.8518  1.6214
 5439TIP3    H216282   2.014   1.581   3.632 -0.0148  0.3489  0.3141
 5440TIP3   OH216283   6.054   6.477   3.816 -0.2277 -0.1800 -0.1329
 5440TIP3    H116284   6.095   6.410   3.762 -0.7163  0.3917 -1.2382
 5440TIP3    H216285   6.111   6.554   3.806  0.7040 -0.5680  1.6515
 5441TIP3   OH216286   0.131   0.009   1.782  0.4894  0.0475  0.1405
 5441TIP3    H116287   0.091   0.086   1.822 -0.2981 -0.7097  0.8465
 5441TIP3    H216288   0.198  -0.018   1.845  0.0841 -0.4213  0.3796
 5442TIP3   OH216289   4.980   1.182   3.572 -0.3768  0.0617 -0.1238
 5442TIP3    H116290   4.979   1.187   3.668 -3.1335 -0.9369 -0.0158
 5442TIP3    H216291   4.928   1.257   3.544 -0.3907 -0.1908 -0.7859
 5443TIP3   OH216292   5.480   4.147   5.461  0.2892  0.3463  0.5155
 5443TIP3    H116293   5.560   4.179   5.421  0.5334 -0.8507 -0.0037
 5443TIP3    H216294   5.503   4.131   5.553  1.1905 -1.6030  0.0179
 5444TIP3   OH216295   1.299   3.882   3.878 -0.6011  0.2219  0.3727
 5444TIP3    H116296   1.276   3.947   3.811  0.5103  1.3758  1.0609
 5444TIP3    H216297   1.376   3.920   3.922  0.1463 -1.6230  0.7293
 5445TIP3   OH216298   3.627   4.658   3.280  0.3160  0.0308 -0.0939
 5445TIP3    H116299   3.647   4.647   3.187 -0.2799  0.0554 -0.2281
 5445TIP3    H216300   3.638   4.752   3.296  0.1442  0.0721 -0.2093
 5446TIP3   OH216301   0.541   5.482   1.743 -0.4033 -0.2528 -0.0505
 5446TIP3    H116302   0.468   5.498   1.802  1.3780  0.0693  2.2256
 5446TIP3    H216303   0.519   5.401   1.698 -0.6794 -2.2018  3.2255
 5447TIP3   OH216304   2.908   5.033   3.111 -0.2744  0.7371  0.1995
 5447TIP3    H116305   2.892   5.068   3.198 -0.4184 -0.9597  0.8914
 5447TIP3    H216306   2.904   5.109   3.053  0.4119  1.9840  1.7244
 5448TIP3   OH216307   3.522   2.675   5.474 -0.1599  0.4362  0.3823
 5448TIP3    H116308   3.587   2.738   5.444 -0.7241 -0.0941 -2.2459
 5448TIP3    H216309   3.438   2.721   5.464 -0.4357 -0.0798  0.2719
 5449TIP3   OH216310   6.631   1.191   3.330 -0.2117 -0.1881 -0.2187
 5449TIP3    H116311   6.621   1.278   3.291 -0.7855  0.4291  1.2444
 5449TIP3    H216312   6.725   1.173   3.322 -0.2105  0.1920 -1.2757
 5450TIP3   OH216313   1.722   1.657   1.329  0.1128  0.4438  0.2191
 5450TIP3    H116314   1.656   1.599   1.368 -0.1362  1.4906  1.4061
 5450TIP3    H216315   1.798   1.601   1.316 -0.7280 -0.6021 -0.4575
 5451TIP3   OH216316   5.092   4.182   0.026  0.4084 -0.1274  0.5485
 5451TIP3    H116317   5.058   4.237   0.097 -1.4942 -0.1198 -0.3106
 5451TIP3    H216318   5.180   4.217   0.009 -0.4310  2.1712  0.5589
 5452TIP3   OH216319   2.930   6.304   5.333  0.9901  0.4972  0.3898
 5452TIP3    H116320   2.938   6.390   5.375 -0.2607  1.5699 -1.4377
 5452TIP3    H216321   2.994   6.306   5.263  0.3309  0.2981 -0.2265
 5453TIP3   OH216322   4.901   1.177   1.085 -1.0837  0.2025  0.2712
 5453TIP3    H116323   4.846   1.134   1.150  0.7004 -1.9132  0.5068
 5453TIP3    H216324   4.983   1.127   1.086  0.8692  3.1145 -0.0876
 5454TIP3   OH216325   5.927   4.236   4.368 -0.1248 -0.0991 -0.0711
 5454TIP3    H116326   5.897   4.147   4.352 -1.5459  0.1621  0.8863
 5454TIP3    H216327   5.945   4.272   4.281 -0.6496 -0.9562 -0.5437
 5455TIP3   OH216328   1.233   3.206   0.932  0.3167  0.2771 -0.7745
 5455TIP3    H116329   1.154   3.156   0.953  0.3841  0.7003  0.5180
 5455TIP3    H216330   1.230   3.216   0.837  0.6066 -2.7118 -1.2146
 5456TIP3   OH216331   3.749   4.094   1.497  0.2266  0.0992 -0.0655
 5456TIP3    H116332   3.703   4.058   1.421  0.7146  0.5731 -0.5923
 5456TIP3    H216333   3.712   4.047   1.572 -1.7968  1.1210 -0.3599
 5457TIP3   OH216334   4.241   6.429   0.312 -0.3907  0.0730  0.4543
 5457TIP3    H116335   4.242   6.358   0.377  0.5952 -0.6257 -0.2899
 5457TIP3    H216336   4.186   6.396   0.241 -1.5222  0.8627  0.9469
 5458TIP3   OH216337   3.957   4.401   2.183  0.7776  0.1412 -0.4073
 5458TIP3    H116338   3.988   4.403   2.092 -1.5399  0.8534 -1.2597
 5458TIP3    H216339   4.004   4.473   2.226  2.8321 -0.9816 -0.6539
 5459TIP3   OH216340   4.855   5.396   1.087 -0.3857  0.2626 -0.1006
 5459TIP3    H116341   4.834   5.335   1.016 -0.0428 -0.8068  0.7007
 5459TIP3    H216342   4.856   5.342   1.166 -0.4624  1.3849  0.6878
 5460TIP3   OH216343   4.091   3.847   2.561  0.2471  0.1058 -0.0126
 5460TIP3    H116344   4.079   3.752   2.562 -0.1961  0.1651  0.3412
 5460TIP3    H216345   4.186   3.859   2.567  0.2541 -0.2988  0.8502
 5461TIP3   OH216346   1.195   6.477   4.817 -0.2513 -0.5683  0.0326
 5461TIP3    H116347   1.147   6.403   4.782 -1.0342 -0.9581  1.7826
 5461TIP3    H216348   1.241   6.442   4.893  0.1162  0.5242  0.3364
 5462TIP3   OH216349   5.216   2.400   4.082  0.1934  0.2961 -0.2534
 5462TIP3    H116350   5.305   2.369   4.067  0.5781  1.0461  0.3840
 5462TIP3    H216351   5.173   2.392   3.997  0.8051 -0.2510 -0.5245
 5463TIP3   OH216352   1.329   4.331   2.809 -0.3210 -0.4440 -0.2596
 5463TIP3    H116353   1.401   4.387   2.838 -2.0079  1.3329  0.7528
 5463TIP3    H216354   1.353   4.304   2.720  0.1022  2.9245 -1.3199
 5464TIP3   OH216355   4.192   2.599   0.005 -0.8315 -0.6922  0.1352
 5464TIP3    H116356   4.276   2.621   0.045 -0.2735 -0.3359 -1.1942
 5464TIP3    H216357   4.135   2.673   0.026 -0.2055  0.0458 -0.6944
 5465TIP3   OH216358   0.246   2.769   2.366  0.5080  0.0414  0.6425
 5465TIP3    H116359   0.186   2.843   2.355  0.6049  0.2673  1.5377
 5465TIP3    H216360   0.263   2.766   2.460 -0.9537 -2.2726  0.9126
 5466TIP3   OH216361   4.998   2.615   4.478  0.1848 -0.6534 -0.2776
 5466TIP3    H116362   4.923   2.556   4.472  0.0660 -0.5988  0.5530
 5466TIP3    H216363   5.012   2.627   4.572  1.2068 -0.6251 -0.4187
 5467TIP3   OH216364   0.430   6.519   2.026  0.4052 -0.5070 -0.0324
 5467TIP3    H116365   0.412   6.488   2.115 -1.2647  1.7262  0.4989
 5467TIP3    H216366   0.455   6.611   2.036  0.5236 -0.2943 -1.8500
 5468TIP3   OH216367   4.973   4.231   0.916  0.5443  0.5598  0.4078
 5468TIP3    H116368   5.067   4.216   0.927  0.0128 -2.5982  2.1477
 5468TIP3    H216369   4.946   4.271   0.999  0.1747 -0.0099  0.5736
 5469TIP3   OH216370   4.908   5.113   4.361 -0.4730  0.1432  0.3766
 5469TIP3    H116371   4.912   5.088   4.453  1.3202 -0.2731  0.2133
 5469TIP3    H216372   4.999   5.115   4.332 -0.8017  2.6351 -0.7777
 5470TIP3   OH216373   6.422   3.707   4.615 -0.3422  0.4944  0.4586
 5470TIP3    H116374   6.353   3.743   4.559  1.8208  1.7981 -1.5966
 5470TIP3    H216375   6.483   3.666   4.553  1.2116  0.2554  2.0765
 5471TIP3   OH216376   0.430   0.144   4.121 -0.2697  0.2636 -0.3828
 5471TIP3    H116377   0.375   0.214   4.086 -1.2713 -0.2607  0.1134
 5471TIP3    H216378   0.388   0.063   4.093 -0.1545 -0.1519  0.5976
 5472TIP3   OH216379   0.236   5.128   3.457 -0.3329 -0.2551 -0.1096
 5472TIP3    H116380   0.293   5.198   3.488 -2.2132  1.2875  0.0387
 5472TIP3    H216381   0.254   5.123   3.363  1.1861 -0.9331  0.1935
 5473TIP3   OH216382   3.423   1.144   0.576  0.1222  0.1596 -0.0274
 5473TIP3    H116383   3.352   1.143   0.640  1.0758  1.7013  1.1459
 5473TIP3    H216384   3.453   1.235   0.575  2.5905 -0.5686  0.1574
 5474TIP3   OH216385   7.069   5.396   4.016  0.4885  0.8408  0.1770
 5474TIP3    H116386   7.130   5.381   4.088 -0.5541 -1.1229  0.7035
 5474TIP3    H216387   7.113   5.358   3.940  0.6769  1.0400  0.1834
 5475TIP3   OH216388   2.190   5.236   5.030 -0.1145  0.1198 -0.1302
 5475TIP3    H116389   2.277   5.253   5.065 -0.1591  1.2747 -0.5467
 5475TIP3    H216390   2.130   5.274   5.093 -0.3733 -1.1864  0.4558
 5476TIP3   OH216391   5.752   1.232   4.523 -0.8554 -0.1017  0.6142
 5476TIP3    H116392   5.665   1.231   4.483 -1.3534 -0.8186  1.6602
 5476TIP3    H216393   5.735   1.231   4.617  0.2876  0.3846  0.8423
 5477TIP3   OH216394   1.776   6.085   0.073 -0.0174 -0.0789  0.3919
 5477TIP3    H116395   1.815   6.010   0.028  0.8688  0.0757  0.8816
 5477TIP3    H216396   1.704   6.113   0.016 -1.4086 -2.2686  0.9397
 5478TIP3   OH216397   3.546   0.519   4.030  0.1942  0.1855  0.1051
 5478TIP3    H116398   3.487   0.522   3.954  0.6416 -0.2479 -0.2657
 5478TIP3    H216399   3.569   0.427   4.039  0.2895  0.2621  0.6586
 5479TIP3   OH216400   6.982   1.887   2.485 -0.0373  0.1221  0.3759
 5479TIP3    H116401   6.933   1.961   2.523 -0.3527 -0.8531  1.9565
 5479TIP3    H216402   7.053   1.929   2.435 -2.3276  1.5958 -1.9117
 5480TIP3   OH216403   5.783   1.209   4.802  0.1515 -0.3001  0.0555
 5480TIP3    H116404   5.808   1.138   4.861  1.7462 -1.7925 -2.2474
 5480TIP3    H216405   5.863   1.260   4.791  0.1392 -0.5286 -1.3521
 5481TIP3   OH216406   2.544   2.788   3.210  0.0596 -0.0110  0.1956
 5481TIP3    H116407   2.573   2.841   3.284  1.4506 -0.0641 -0.2868
 5481TIP3    H216408   2.474   2.733   3.246 -0.9126  1.5955  0.8865
 5482TIP3   OH216409   0.383   1.794   0.308  0.0604  0.0098 -0.3989
 5482TIP3    H116410   0.306   1.743   0.285  1.4350 -2.2907 -0.1471
 5482TIP3    H216411   0.439   1.790   0.230  1.6864 -1.9256  0.7702
 5483TIP3   OH216412   4.210   2.704   5.780  0.2449  0.0665 -0.3880
 5483TIP3    H116413   4.126   2.707   5.826 -0.1445 -2.3435 -0.7803
 5483TIP3    H216414   4.203   2.626   5.724  3.4933 -1.4847  1.1028
 5484TIP3   OH216415   5.030   5.565   0.414  0.7015 -0.2825 -0.2746
 5484TIP3    H116416   4.989   5.533   0.333 -0.3144 -0.9779  0.4940
 5484TIP3    H216417   5.097   5.500   0.435  1.3115  0.1616 -0.8164
 5485TIP3   OH216418   5.023   0.739   1.168  0.4170  0.3730  0.5795
 5485TIP3    H116419   4.929   0.755   1.170  0.7098  2.3232  3.3171
 5485TIP3    H216420   5.035   0.661   1.223  0.3264 -1.0688 -1.3167
 5486TIP3   OH216421   5.158   5.120   2.896  0.3304  0.0335 -0.3869
 5486TIP3    H116422   5.174   5.186   2.829  0.1482 -0.1583 -0.6210
 5486TIP3    H216423   5.234   5.124   2.954  0.7895 -0.2397 -0.9653
 5487TIP3   OH216424   1.652   1.835   2.894  0.1179 -0.0432  0.4870
 5487TIP3    H116425   1.583   1.792   2.844  0.1858  0.1087  0.2602
 5487TIP3    H216426   1.627   1.928   2.896  0.3070  0.0107  0.4170
 5488TIP3   OH216427   6.440   0.721   2.178 -0.6522  0.0392  0.7127
 5488TIP3    H116428   6.359   0.671   2.167 -0.1806 -0.7632  0.8056
 5488TIP3    H216429   6.428   0.798   2.122 -1.4357 -0.1157  0.6529
 5489TIP3   OH216430   4.755   0.811   1.210 -0.1944  0.1221 -0.1848
 5489TIP3    H116431   4.697   0.765   1.271  0.4882  0.1969  0.5270
 5489TIP3    H216432   4.792   0.883   1.261  1.5221 -0.6803 -0.2348
 5490TIP3   OH216433   0.284   4.124   1.702 -0.3769 -0.1865  0.1065
 5490TIP3    H116434   0.230   4.202   1.711  0.2645  0.3132 -0.2982
 5490TIP3    H216435   0.359   4.153   1.651 -0.1877 -1.0978 -0.1455
 5491TIP3   OH216436   0.601   2.772   0.435 -0.5511  0.0628 -0.1536
 5491TIP3    H116437   0.526   2.722   0.468  0.3008 -0.1192  1.6718
 5491TIP3    H216438   0.677   2.725   0.468  0.3784  0.3193 -1.8543
 5492TIP3   OH216439   4.764   2.445   0.478  0.1979 -0.2156 -0.2145
 5492TIP3    H116440   4.848   2.488   0.467 -0.1542  0.5135 -0.1391
 5492TIP3    H216441   4.785   2.359   0.514  0.9898 -0.5814 -1.5015
 5493TIP3   OH216442   5.460   2.782   1.908 -0.3607 -0.1611 -0.2795
 5493TIP3    H116443   5.507   2.815   1.831 -2.7707 -0.8406 -2.1778
 5493TIP3    H216444   5.376   2.827   1.905 -1.2374 -1.6528  0.8458
 5494TIP3   OH216445   4.723   2.774   2.243  0.4485  0.6406  0.3430
 5494TIP3    H116446   4.771   2.855   2.258  0.9604  0.2507  0.9223
 5494TIP3    H216447   4.633   2.794   2.269  0.2101  1.4698 -1.0476
 5495TIP3   OH216448   4.257   2.396   3.265 -0.3297 -0.0231  0.3715
 5495TIP3    H116449   4.310   2.350   3.331  0.1380 -0.9013 -0.5878
 5495TIP3    H216450   4.175   2.415   3.310 -0.1997 -1.0365  1.0822
 5496TIP3   OH216451   5.636   3.945   5.062  0.3730  0.3411 -0.2486
 5496TIP3    H116452   5.635   3.972   5.153  1.3074 -1.4118  0.3227
 5496TIP3    H216453   5.551   3.973   5.027 -0.4371  0.0671  1.4414
 5497TIP3   OH216454   2.269   2.811   2.760 -0.3163  0.5873  0.4643
 5497TIP3    H116455   2.338   2.746   2.775 -0.2388 -0.2016 -2.5705
 5497TIP3    H216456   2.317   2.891   2.739 -0.2216 -0.0270 -1.9048
 5498TIP3   OH216457   7.140   5.514   0.059 -0.6292 -0.2774  0.1126
 5498TIP3    H116458   7.100   5.440   0.013 -1.1174 -0.3213  0.6042
 5498TIP3    H216459   7.070   5.550   0.113 -0.7738  1.4119 -1.1378
 5499TIP3   OH216460   3.939   3.200   2.674  0.1859  0.1481  0.3466
 5499TIP3    H116461   3.988   3.151   2.608 -0.9337  1.2066 -1.3537
 5499TIP3    H216462   3.851   3.164   2.670  0.1612  0.0355  1.5062
 5500TIP3   OH216463   5.365   6.345   1.633  0.3824 -0.0238  0.2575
 5500TIP3    H116464   5.393   6.270   1.581  2.6204  1.2413 -0.4798
 5500TIP3    H216465   5.404   6.331   1.719  1.7719  0.7943 -0.2093
 5501TIP3   OH216466   4.263   4.384   0.175 -0.6717  0.6432 -0.0054
 5501TIP3    H116467   4.274   4.366   0.268 -1.7941  0.7610  0.1665
 5501TIP3    H216468   4.351   4.378   0.138 -0.2351  0.4891  1.0425
 5502TIP3   OH216469   3.969   5.558   5.323 -0.4527  0.3621  0.3924
 5502TIP3    H116470   4.021   5.527   5.249 -1.2701 -0.2544  0.0703
 5502TIP3    H216471   4.010   5.641   5.348 -0.2656  0.6490 -0.8332
 5503TIP3   OH216472   4.496   6.483   1.460  0.2513  0.1304  0.2465
 5503TIP3    H116473   4.554   6.559   1.452  0.3674  0.0461  0.2810
 5503TIP3    H216474   4.467   6.485   1.551 -0.3353  0.5584  0.0578
 5504TIP3   OH216475   6.960   6.104   1.679 -0.1243 -0.4296 -0.2134
 5504TIP3    H116476   6.942   6.195   1.703 -1.3115 -0.6414 -0.2571
 5504TIP3    H216477   6.880   6.074   1.636  0.0663 -1.6474  0.2484
 5505TIP3   OH216478   1.204   3.805   2.274 -0.1352 -0.0541  0.1877
 5505TIP3    H116479   1.230   3.894   2.299  0.9054 -0.4019  0.4311
 5505TIP3    H216480   1.145   3.816   2.201 -0.7363  0.8770  0.7981
 5506TIP3   OH216481   3.501   5.308   5.642  0.2576 -0.2163  0.8806
 5506TIP3    H116482   3.529   5.400   5.642 -1.4471  0.3400  0.7559
 5506TIP3    H216483   3.516   5.278   5.553  1.5932 -0.3250  1.1296
 5507TIP3   OH216484   5.491   4.880   3.445  0.3349 -0.4835 -0.0851
 5507TIP3    H116485   5.529   4.825   3.514  0.2044 -0.4172  0.0396
 5507TIP3    H216486   5.398   4.882   3.464  0.5901  1.6414  1.2549
 5508TIP3   OH216487   0.689   4.208   4.066  0.1229  0.1730 -0.9883
 5508TIP3    H116488   0.596   4.229   4.054 -0.3241 -1.1463 -0.0318
 5508TIP3    H216489   0.710   4.239   4.154  0.3656 -0.2817 -0.8836
 5509TIP3   OH216490   2.635   0.859   4.733  0.3615 -0.0802  0.4366
 5509TIP3    H116491   2.584   0.938   4.754 -1.0031 -0.7019 -0.4043
 5509TIP3    H216492   2.621   0.801   4.807 -1.3517 -0.7936 -0.3970
 5510TIP3   OH216493   4.615   5.205   3.606 -0.0716 -0.6642  0.3303
 5510TIP3    H116494   4.667   5.252   3.671  0.3704 -2.1139  1.0704
 5510TIP3    H216495   4.567   5.274   3.559  1.7820  0.6309  0.2475
 5511TIP3   OH216496   3.579   2.504   4.202 -0.4378  0.0692 -0.2867
 5511TIP3    H116497   3.527   2.469   4.274 -0.5906  1.9222  0.5482
 5511TIP3    H216498   3.635   2.430   4.175 -0.0248 -0.5388  2.0446
 5512TIP3   OH216499   5.897   1.593   3.572  0.0467 -0.0896  0.1113
 5512TIP3    H116500   5.886   1.580   3.478 -1.8038  0.7027  0.1699
 5512TIP3    H216501   5.843   1.524   3.612 -1.3531  1.1956  0.5240
 5513TIP3   OH216502   3.494   0.891   2.507  0.0455  0.1400 -0.4197
 5513TIP3    H116503   3.467   0.800   2.491  1.5176 -0.1186 -1.6556
 5513TIP3    H216504   3.529   0.890   2.596 -1.4102 -0.1162  0.1831
 5514TIP3   OH216505   5.789   2.892   2.765 -0.1367 -0.1663 -0.0707
 5514TIP3    H116506   5.836   2.975   2.753 -1.3919  0.3532 -1.7401
 5514TIP3    H216507   5.813   2.864   2.854  2.2898  0.6965 -0.3819
 5515TIP3   OH216508   0.828   3.074   5.767 -1.1105 -0.0927 -0.1211
 5515TIP3    H116509   0.752   3.125   5.740 -0.1171  1.5367  0.0239
 5515TIP3    H216510   0.809   3.050   5.858 -1.3261  0.5492  0.0086
 5516TIP3   OH216511   1.058   1.286   4.206  0.1125  0.0164 -0.3761
 5516TIP3    H116512   1.012   1.221   4.153  1.0458 -1.5284  0.6141
 5516TIP3    H216513   1.146   1.251   4.216  0.4456  1.1010  0.7756
 5517TIP3   OH216514   5.502   2.137   5.434  0.2548 -0.5727  0.3248
 5517TIP3    H116515   5.512   2.072   5.503  0.5131  0.8406  1.6669
 5517TIP3    H216516   5.489   2.220   5.480  0.6024  0.4468 -1.3223
 5518TIP3   OH216517   2.386   0.888   2.773 -0.5325 -0.2617  0.1483
 5518TIP3    H116518   2.334   0.943   2.714  1.3989  0.4106 -1.0467
 5518TIP3    H216519   2.343   0.896   2.858 -0.7076  2.6948 -0.0952
 5519TIP3   OH216520   4.965   6.309   3.443  0.1803 -0.2877  0.3196
 5519TIP3    H116521   4.874   6.293   3.418  1.0152 -0.3663 -3.2574
 5519TIP3    H216522   4.964   6.394   3.486 -1.7082 -0.9199  1.6670
 5520TIP3   OH216523   5.579   1.598   0.291  0.0649 -0.3032  0.3255
 5520TIP3    H116524   5.660   1.571   0.248 -0.8242  0.6213 -2.0745
 5520TIP3    H216525   5.608   1.661   0.357  1.2703  0.3814 -0.8092
 5521TIP3   OH216526   3.975   6.553   4.320  0.0572  0.4221  0.3657
 5521TIP3    H116527   4.060   6.552   4.363  0.1737  0.0261  0.1306
 5521TIP3    H216528   3.923   6.489   4.369  0.2640 -0.2051 -0.2254
 5522TIP3   OH216529   5.558   6.766   2.543  0.2363  0.0733 -0.3204
 5522TIP3    H116530   5.572   6.787   2.635 -1.1895 -0.9173  0.1598
 5522TIP3    H216531   5.621   6.820   2.496 -1.0563  2.9346  1.0151
 5523TIP3   OH216532   1.612   3.315   2.072  0.3424 -0.1330  0.1318
 5523TIP3    H116533   1.525   3.355   2.060  0.7881  0.7926 -0.1084
 5523TIP3    H216534   1.596   3.242   2.132 -0.8716 -0.9921 -1.1724
 5524TIP3   OH216535   4.536   0.799   1.028  0.0509 -0.1347 -1.1084
 5524TIP3    H116536   4.604   0.816   1.093 -0.5204  0.4636 -0.6590
 5524TIP3    H216537   4.538   0.876   0.971 -0.5296  0.0915 -0.8358
 5525TIP3   OH216538   0.763   5.611   3.911 -0.2531  0.2537  0.2756
 5525TIP3    H116539   0.684   5.611   3.965  0.1573  0.5390  0.8735
 5525TIP3    H216540   0.818   5.679   3.948  0.4544 -0.2269  0.1173
 5526TIP3   OH216541   3.800   4.584   3.874 -0.2256 -0.2612 -0.0039
 5526TIP3    H116542   3.868   4.523   3.901  0.6323  1.4002  1.9185
 5526TIP3    H216543   3.847   4.656   3.832 -1.0267 -0.1360 -0.7028
 5527TIP3   OH216544   0.602   2.593   5.557  0.6010  0.3644  0.1687
 5527TIP3    H116545   0.531   2.632   5.507  2.4944  2.4016 -1.0782
 5527TIP3    H216546   0.638   2.525   5.500  1.4068  1.2557 -0.4188
 5528TIP3   OH216547   5.975   3.712   4.031 -0.2977  0.4490  0.3019
 5528TIP3    H116548   5.981   3.683   4.122 -1.5706 -1.7691 -0.2580
 5528TIP3    H216549   5.901   3.772   4.029 -0.6651  0.0170  0.6507
 5529TIP3   OH216550   1.392   4.561   0.188 -0.1255  0.4234 -0.1441
 5529TIP3    H116551   1.438   4.482   0.160 -1.0602  0.5988 -2.4140
 5529TIP3    H216552   1.456   4.609   0.241  0.7264 -1.4324  0.5756
 5530TIP3   OH216553   4.390  -0.011   3.923  0.3024  0.2101  0.0295
 5530TIP3    H116554   4.456  -0.036   3.988  0.0508  2.5060  1.2836
 5530TIP3    H216555   4.426   0.068   3.883 -0.3052 -0.2723 -1.5181
 5531TIP3   OH216556   3.647   3.562   5.687  0.1358  0.6650  0.2557
 5531TIP3    H116557   3.730   3.563   5.640 -0.4078 -0.7635 -0.8018
 5531TIP3    H216558   3.639   3.650   5.724  2.4084  0.6295  0.9455
 5532TIP3   OH216559   1.154   3.030   1.284 -0.8664 -0.2225  0.0932
 5532TIP3    H116560   1.175   2.993   1.199  0.2932 -1.6329  0.9463
 5532TIP3    H216561   1.120   3.117   1.265 -1.9735 -1.0331 -1.8760
 5533TIP3   OH216562   4.551   0.932   2.498 -0.1510  0.0942 -0.1268
 5533TIP3    H116563   4.498   0.860   2.463 -3.4341  0.9772  2.5660
 5533TIP3    H216564   4.617   0.889   2.552 -0.6901 -0.9636 -0.2825
 5534TIP3   OH216565   4.939   3.946   5.178  0.0103 -0.2846 -0.3762
 5534TIP3    H116566   4.860   3.909   5.218  0.1595  0.2628  0.4396
 5534TIP3    H216567   4.916   4.037   5.160  1.0660  0.4276  1.6364
 5535TIP3   OH216568   6.872   2.993   5.161  0.1524  0.3680  0.9234
 5535TIP3    H116569   6.960   3.023   5.182  0.1040  1.8084 -0.7843
 5535TIP3    H216570   6.884   2.927   5.093 -0.0606  0.0251  1.2117
 5536TIP3   OH216571   0.652   3.062   2.982 -0.8593 -0.8300 -0.0982
 5536TIP3    H116572   0.743   3.091   2.981 -0.9544 -0.4627 -2.0830
 5536TIP3    H216573   0.657   2.967   2.995 -0.2039 -0.8034 -0.1346
 5537TIP3   OH216574   2.849   4.773   4.736 -0.3290 -0.3468 -0.1381
 5537TIP3    H116575   2.935   4.743   4.766  0.9483  1.3485 -1.8338
 5537TIP3    H216576   2.838   4.732   4.650 -0.0178  1.3737 -1.0445
 5538TIP3   OH216577   1.417   2.338   3.836  0.3447  0.3425 -0.3096
 5538TIP3    H116578   1.441   2.407   3.774 -1.0026  0.3283 -0.8769
 5538TIP3    H216579   1.466   2.360   3.916  5.2238 -1.7396 -2.3320
 5539TIP3   OH216580   7.026   4.899   1.553 -0.3908  0.3915  0.3746
 5539TIP3    H116581   7.058   4.954   1.482 -1.1827 -0.4199 -0.6449
 5539TIP3    H216582   7.099   4.840   1.572 -1.3014 -1.9100 -2.4034
 5540TIP3   OH216583   3.229   5.856   0.586  0.0205  0.6126 -0.4200
 5540TIP3    H116584   3.292   5.926   0.568 -0.0402  0.9562  0.6264
 5540TIP3    H216585   3.261   5.816   0.667 -0.3663 -0.0820 -0.6095
 5541TIP3   OH216586   4.661   0.274   1.726 -0.2903 -0.2620 -0.2778
 5541TIP3    H116587   4.735   0.319   1.767  0.7251 -1.2287 -0.9718
 5541TIP3    H216588   4.588   0.335   1.734  0.3485  0.3530  1.2391
 5542TIP3   OH216589   5.913   0.761   3.576  0.0579 -0.3917 -0.1718
 5542TIP3    H116590   5.910   0.735   3.484 -0.4127 -2.8064  0.4740
 5542TIP3    H216591   5.996   0.727   3.608  1.0244  1.8806 -0.0250
 5543TIP3   OH216592   0.909   2.331   0.600 -0.1469 -0.0703 -0.0661
 5543TIP3    H116593   0.932   2.360   0.512  1.1513  1.5221  0.7563
 5543TIP3    H216594   0.963   2.252   0.613 -1.1171 -0.9356 -1.0307
 5544TIP3   OH216595   6.915   1.910   4.018 -0.4126  0.3800 -0.4201
 5544TIP3    H116596   6.927   1.827   3.973 -1.1094 -0.3209  0.6318
 5544TIP3    H216597   7.003   1.943   4.033  0.3018 -2.5122  3.2985
 5545TIP3   OH216598   2.571   2.129   2.631 -0.0689 -0.1607  0.1704
 5545TIP3    H116599   2.526   2.098   2.552 -0.1747 -0.3193  0.2916
 5545TIP3    H216600   2.528   2.212   2.652 -1.7207 -1.2798  1.4580
 5546TIP3   OH216601   1.275   2.152   3.104  0.0189 -0.0675  0.3731
 5546TIP3    H116602   1.181   2.137   3.098  0.0637  0.0657 -0.9954
 5546TIP3    H216603   1.284   2.242   3.134 -0.2940  0.0480  0.1165
 5547TIP3   OH216604   1.827   6.664   4.615  0.2049  0.3696 -0.2413
 5547TIP3    H116605   1.765   6.711   4.670 -1.7697 -0.3369 -1.7468
 5547TIP3    H216606   1.877   6.732   4.570 -0.2326  0.9641  0.1659
 5548TIP3   OH216607   6.025   1.845   1.866 -0.0695  0.1729 -0.7267
 5548TIP3    H116608   5.975   1.920   1.832  0.0466 -0.0784 -1.4601
 5548TIP3    H216609   6.082   1.883   1.933 -1.6473  0.3828  0.5666
 5549TIP3   OH216610   6.170   1.206   1.115 -0.1970  0.2324 -0.3359
 5549TIP3    H116611   6.095   1.262   1.097  0.2502  0.2891 -2.2757
 5549TIP3    H216612   6.244   1.266   1.120 -0.4630  0.4893  4.0564
 5550TIP3   OH216613   1.204   1.804   3.326 -0.2365 -0.3251  0.1556
 5550TIP3    H116614   1.160   1.747   3.390  2.5476 -1.5880  1.1223
 5550TIP3    H216615   1.228   1.882   3.376  0.4522 -0.5767  0.2316
 5551TIP3   OH216616   0.611   0.929   1.590 -0.0084 -0.0624 -0.7425
 5551TIP3    H116617   0.615   0.959   1.499  0.0789 -0.6589 -0.9405
 5551TIP3    H216618   0.543   0.861   1.589  0.2746 -0.3524 -0.4471
 5552TIP3   OH216619   4.879   4.673   0.548 -0.1984 -0.1883 -0.3572
 5552TIP3    H116620   4.810   4.689   0.612  0.0986 -0.5193  0.0575
 5552TIP3    H216621   4.917   4.759   0.531 -0.4846 -0.0549 -0.3285
 5553TIP3   OH216622   3.451   2.884   1.696 -0.1791 -0.2827 -0.7550
 5553TIP3    H116623   3.445   2.980   1.692 -1.4633 -0.2700  0.6708
 5553TIP3    H216624   3.493   2.866   1.780  1.6385 -0.9665 -1.7633
 5554TIP3   OH216625   0.771   1.975   2.593 -0.0677 -0.1113  0.2951
 5554TIP3    H116626   0.756   1.881   2.599 -0.6460 -0.1013 -0.7563
 5554TIP3    H216627   0.803   1.989   2.504  1.0074  0.5747  0.7625
 5555TIP3   OH216628   5.086   1.302   5.450 -0.2308 -0.0296 -0.7160
 5555TIP3    H116629   5.107   1.209   5.460 -1.1449 -0.0130  2.3900
 5555TIP3    H216630   5.085   1.316   5.355  3.0038 -2.3951 -1.2754
 5556TIP3   OH216631   4.560   4.647   4.000 -0.1496  0.2921 -0.2556
 5556TIP3    H116632   4.487   4.707   4.015  0.5089  0.5077  2.5933
 5556TIP3    H216633   4.636   4.704   3.994  0.1930 -0.1207  0.1621
 5557TIP3   OH216634   4.468   2.554   2.225  0.5336 -0.0286 -0.0360
 5557TIP3    H116635   4.398   2.492   2.247 -1.5122  2.4842  0.9096
 5557TIP3    H216636   4.500   2.586   2.309  1.4413  0.3505 -0.5133
 5558TIP3   OH216637   2.566   0.656   3.872 -0.3086  0.0748 -0.1693
 5558TIP3    H116638   2.492   0.679   3.816  0.4297 -0.1573 -1.2543
 5558TIP3    H216639   2.643   0.691   3.827  0.3927 -0.8950  0.2291
 5559TIP3   OH216640   4.123   5.916   5.709 -0.1289 -0.5423  0.1993
 5559TIP3    H116641   4.156   5.998   5.745  1.1615 -1.5258  1.3204
 5559TIP3    H216642   4.033   5.910   5.742 -1.2894  1.7041 -2.1369
 5560TIP3   OH216643   0.302   3.232   5.606  0.1126 -0.8190 -0.2324
 5560TIP3    H116644   0.227   3.225   5.664 -0.0972  0.4362 -0.3197
 5560TIP3    H216645   0.329   3.141   5.590  0.1002 -1.1914  1.6913
 5561TIP3   OH216646   3.185   3.093   0.904  0.4214 -0.0908  0.2981
 5561TIP3    H116647   3.135   3.067   0.827 -0.1959 -0.0075  0.6710
 5561TIP3    H216648   3.165   3.026   0.970  3.7383 -2.3385 -0.6631
 5562TIP3   OH216649   4.563   3.974   1.061 -0.3660 -0.2279 -0.7860
 5562TIP3    H116650   4.477   3.944   1.090 -0.8885  0.7098 -1.3264
 5562TIP3    H216651   4.623   3.942   1.128 -1.3421  0.5207  0.5114
 5563TIP3   OH216652   2.820   1.794   1.311  0.0637 -0.3343 -0.5151
 5563TIP3    H116653   2.912   1.775   1.296  0.4412  0.9448  0.0371
 5563TIP3    H216654   2.783   1.710   1.339  0.9253 -0.9879 -1.2727
 5564TIP3   OH216655   5.056   4.647   2.957  0.3357  0.0520  0.1383
 5564TIP3    H116656   5.054   4.696   2.875  0.5351  0.0568  0.1345
 5564TIP3    H216657   5.012   4.703   3.020  0.0051 -0.0384 -0.0115
 5565TIP3   OH216658   5.752   6.579   4.122 -0.1556  0.1108 -0.0672
 5565TIP3    H116659   5.815   6.603   4.190 -0.5407 -0.1849  0.3969
 5565TIP3    H216660   5.782   6.495   4.089 -0.6181 -0.3072  0.5520
 5566TIP3   OH216661   6.908   1.782   0.524  0.5128  0.3446 -0.5127
 5566TIP3    H116662   6.895   1.877   0.530 -1.1498  0.2143 -1.5857
 5566TIP3    H216663   6.948   1.758   0.608  1.9540  2.1213 -0.6138
 5567TIP3   OH216664   3.273   1.752   4.444 -0.1671  0.1926 -0.6091
 5567TIP3    H116665   3.333   1.729   4.373 -1.6480 -0.9764 -1.5545
 5567TIP3    H216666   3.326   1.749   4.523  0.9167 -1.4094 -1.3424
 5568TIP3   OH216667   3.778   4.296   0.250  0.2930 -0.3739 -0.2516
 5568TIP3    H116668   3.812   4.383   0.272  2.4345 -0.9592 -0.9761
 5568TIP3    H216669   3.741   4.264   0.332 -0.0995  1.0071  0.1480
 5569TIP3   OH216670   3.887   0.340   5.217  0.2306  0.5382 -0.0523
 5569TIP3    H116671   3.808   0.393   5.231 -0.3706 -0.3242 -0.0719
 5569TIP3    H216672   3.912   0.309   5.304  0.1970  0.3285 -0.1160
 5570TIP3   OH216673   6.478   1.184   1.016  0.2131  0.2601  0.0186
 5570TIP3    H116674   6.431   1.262   1.045  1.1713  1.0535 -0.4688
 5570TIP3    H216675   6.468   1.122   1.087 -2.1815  0.1031 -0.3658
 5571TIP3   OH216676   6.652   2.594   0.532  0.5474 -0.2314 -0.2867
 5571TIP3    H116677   6.622   2.618   0.619  1.7598 -0.9107  0.3471
 5571TIP3    H216678   6.629   2.501   0.524 -0.9018  0.1851 -1.3004
 5572TIP3   OH216679   6.670   4.611   0.734 -0.2123 -0.2100  0.1074
 5572TIP3    H116680   6.601   4.606   0.668 -0.0608  1.0690 -0.1792
 5572TIP3    H216681   6.745   4.649   0.687 -0.7395  2.7340  1.4554
 5573TIP3   OH216682   6.552   4.526   5.125 -0.4266  0.2803 -0.2911
 5573TIP3    H116683   6.512   4.560   5.205 -0.6420  0.6360 -0.5474
 5573TIP3    H216684   6.632   4.483   5.154 -0.1373  1.0337  0.0341
 5574TIP3   OH216685   7.011   4.330   1.822 -0.5242 -0.0122  0.0520
 5574TIP3    H116686   6.924   4.349   1.856  0.3106  0.6058  1.9746
 5574TIP3    H216687   7.065   4.315   1.900  1.7054  2.3287 -0.8563
 5575TIP3   OH216688   6.091   4.058   1.683  0.1689 -0.3006  0.2366
 5575TIP3    H116689   6.120   4.124   1.620 -1.6031  0.0509 -0.2541
 5575TIP3    H216690   6.110   3.974   1.640 -1.6432 -0.0702 -1.1227
 5576TIP3   OH216691   5.716   3.843   2.346  0.0316 -0.0425 -0.4602
 5576TIP3    H116692   5.633   3.876   2.380 -0.3251 -0.8510 -0.5223
 5576TIP3    H216693   5.783   3.883   2.401 -0.4846 -0.5569  0.5589
 5577TIP3   OH216694   2.642   1.310   3.627  0.2305  0.1955 -0.3456
 5577TIP3    H116695   2.591   1.389   3.649  0.3317  0.4614 -1.0389
 5577TIP3    H216696   2.723   1.344   3.590  0.7544 -0.2358  0.4000
 5578TIP3   OH216697   1.016   2.712   5.225  0.3600 -0.0689 -0.4607
 5578TIP3    H116698   1.017   2.718   5.130 -0.5181  0.5964 -0.4350
 5578TIP3    H216699   1.072   2.784   5.254 -0.2260  0.3855 -0.4512
 5579TIP3   OH216700   4.288   1.862   0.090 -0.2661 -0.0970 -0.4215
 5579TIP3    H116701   4.333   1.915   0.024 -0.8685 -0.7546 -1.3935
 5579TIP3    H216702   4.232   1.924   0.136 -0.4075  0.2452 -1.0423
 5580TIP3   OH216703   0.825   4.654   2.653  0.2827 -0.0905  0.1253
 5580TIP3    H116704   0.732   4.675   2.641 -0.1562 -0.2407  2.6696
 5580TIP3    H216705   0.841   4.582   2.593 -1.5199 -0.6463  0.2549
 5581TIP3   OH216706   4.645   6.325   1.861 -0.4280  0.6153 -0.4297
 5581TIP3    H116707   4.736   6.354   1.868 -0.5266  0.5018  2.4221
 5581TIP3    H216708   4.615   6.318   1.952 -1.5293 -4.8180 -0.8590
 5582TIP3   OH216709   1.732   0.637   2.018 -0.2203 -0.6146  0.2416
 5582TIP3    H116710   1.793   0.569   2.047 -0.8937 -0.9836  0.7929
 5582TIP3    H216711   1.709   0.611   1.929  0.7675 -0.2271 -0.1476
 5583TIP3   OH216712   0.954   1.325   1.119  0.3627  0.2289 -0.0790
 5583TIP3    H116713   1.032   1.329   1.173 -0.6903  2.1097  1.4499
 5583TIP3    H216714   0.882   1.345   1.180 -1.0397  0.8854 -1.8560
 5584TIP3   OH216715   0.568   4.873   2.066  0.2545  0.3828 -0.4066
 5584TIP3    H116716   0.493   4.925   2.095  0.5579  0.5097  0.1505
 5584TIP3    H216717   0.580   4.897   1.974 -1.8078 -1.2943 -1.2020
 5585TIP3   OH216718   3.747   6.586   1.799 -0.2123 -0.1288 -0.8383
 5585TIP3    H116719   3.662   6.568   1.757 -0.5681 -1.1137  0.2519
 5585TIP3    H216720   3.795   6.504   1.792 -0.1582 -0.2175  0.3788
 5586TIP3   OH216721   1.607   0.283   2.762  0.6781  0.2573  0.1049
 5586TIP3    H116722   1.592   0.194   2.796  0.4133 -0.4971 -1.8876
 5586TIP3    H216723   1.559   0.339   2.823 -2.4434 -1.2967 -0.7245
 5587TIP3   OH216724   5.582   4.340   1.807  0.4569  0.2746 -0.6819
 5587TIP3    H116725   5.491   4.367   1.818  0.9034  1.2061  1.1985
 5587TIP3    H216726   5.595   4.269   1.870  1.4121  1.2040  0.2102
 5588TIP3   OH216727   6.420   4.298   0.984  0.5744 -0.3699 -0.0785
 5588TIP3    H116728   6.331   4.288   0.950 -0.3216  0.5003  1.8716
 5588TIP3    H216729   6.433   4.222   1.040 -0.6133  1.4592  2.9316
 5589TIP3   OH216730   3.380   1.266   3.014 -0.0150  0.6795 -0.0398
 5589TIP3    H116731   3.337   1.183   3.035  0.8334  0.3046  0.2519
 5589TIP3    H216732   3.460   1.240   2.970  0.3001  1.3492  0.1379
 5590TIP3   OH216733   0.502   6.192   0.938  0.2113 -0.1043 -0.0907
 5590TIP3    H116734   0.532   6.161   1.024 -3.5428  1.2560  1.9581
 5590TIP3    H216735   0.548   6.275   0.925  1.8499 -0.9775 -0.1538
 5591TIP3   OH216736   5.347   6.785   2.227 -0.5570 -0.4340 -0.3219
 5591TIP3    H116737   5.272   6.841   2.210  0.1725  0.7939  0.3351
 5591TIP3    H216738   5.325   6.741   2.310 -0.5819 -0.1135 -0.1554
 5592TIP3   OH216739   3.474   3.930   2.648  0.0200  0.3508  0.0993
 5592TIP3    H116740   3.468   4.025   2.635  0.2710  0.4975  0.9834
 5592TIP3    H216741   3.415   3.893   2.582  0.7508  1.0588 -0.9869
 5593TIP3   OH216742   4.064   3.591   2.651  0.0609  0.3151 -0.1345
 5593TIP3    H116743   4.156   3.585   2.678 -0.4811 -0.1121  1.7406
 5593TIP3    H216744   4.016   3.542   2.717 -1.4734 -0.1377 -1.5113
 5594TIP3   OH216745   6.510   4.069   1.137 -0.2692 -0.2336  0.0478
 5594TIP3    H116746   6.542   3.981   1.114  1.1004  0.5693 -1.3245
 5594TIP3    H216747   6.590   4.120   1.149 -1.0537  0.7888  1.0634
 5595TIP3   OH216748   4.182   1.822   4.566  0.1650  0.2771 -0.0309
 5595TIP3    H116749   4.234   1.742   4.576  0.4148  0.5660  1.2138
 5595TIP3    H216750   4.110   1.812   4.628 -1.3852 -0.1731 -1.8218
 5596TIP3   OH216751   5.288   1.701   0.442 -0.2731  0.3272 -0.3107
 5596TIP3    H116752   5.348   1.640   0.399 -0.9278 -1.4410  1.1166
 5596TIP3    H216753   5.224   1.724   0.375  0.4734  0.1118 -1.1074
 5597TIP3   OH216754   4.293   4.258   5.543 -0.0076 -0.2670  0.2587
 5597TIP3    H116755   4.226   4.319   5.576 -0.1908 -0.7225  0.7528
 5597TIP3    H216756   4.295   4.273   5.449  0.8330  1.3796  0.5212
 5598TIP3   OH216757   2.288   6.031   5.716  0.3048  0.4339 -0.1827
 5598TIP3    H116758   2.316   6.082   5.640  1.4115  0.4664  0.2218
 5598TIP3    H216759   2.300   6.090   5.790 -1.0684  0.5137  0.0131
 5599TIP3   OH216760   6.964   4.087   3.981  0.7888  0.1132 -0.9197
 5599TIP3    H116761   6.936   4.176   3.960 -0.2499 -0.2121 -0.9549
 5599TIP3    H216762   7.003   4.094   4.068 -1.9310  0.1469  0.4167
 5600TIP3   OH216763   0.429   4.046   2.730  0.0883  0.3201  0.1215
 5600TIP3    H116764   0.418   4.064   2.824  1.6873  1.0828  0.2074
 5600TIP3    H216765   0.418   3.951   2.723  1.2870  0.0412  1.3437
 5601TIP3   OH216766   5.126   4.758   2.004  0.4294  0.9488  0.5851
 5601TIP3    H116767   5.091   4.681   1.959 -0.5968  1.4803  0.4374
 5601TIP3    H216768   5.179   4.802   1.939  1.8706 -0.1528  0.9671
 5602TIP3   OH216769   2.849   6.099   2.243  0.4339 -0.3107  0.0951
 5602TIP3    H116770   2.901   6.105   2.163 -1.4907  1.5643 -1.1506
 5602TIP3    H216771   2.910   6.121   2.313  1.5619  0.8564 -1.1789
 5603TIP3   OH216772   3.219   1.246   1.891 -0.8923 -0.0700  0.0213
 5603TIP3    H116773   3.174   1.273   1.811 -0.8810  1.6246  0.5504
 5603TIP3    H216774   3.298   1.200   1.860 -1.7241 -0.9279 -0.9080
 5604TIP3   OH216775   3.468   5.365   3.283 -0.0078 -0.4089  0.3688
 5604TIP3    H116776   3.535   5.309   3.242  0.4141  0.0439  0.4330
 5604TIP3    H216777   3.469   5.445   3.231 -2.0676 -1.2063 -1.0432
 5605TIP3   OH216778   2.077   4.652   3.821  0.0656  0.1863 -0.2924
 5605TIP3    H116779   2.141   4.639   3.891 -1.6112  0.1784  1.2887
 5605TIP3    H216780   2.040   4.565   3.806  0.3956  0.1918 -1.2039
 5606TIP3   OH216781   2.542   4.727   2.508  0.3641 -0.1258 -0.1299
 5606TIP3    H116782   2.562   4.703   2.599  1.9964  0.0635 -0.3993
 5606TIP3    H216783   2.449   4.750   2.509  0.7581  1.7866  1.9144
 5607TIP3   OH216784   2.599   0.017   0.144 -0.0147  0.9603  0.3225
 5607TIP3    H116785   2.672   0.059   0.100  0.2942  1.0001  0.8645
 5607TIP3    H216786   2.640  -0.043   0.207 -0.4471 -0.0050 -0.2997
 5608TIP3   OH216787   5.729   0.653   2.959 -0.4507 -0.5402  0.5033
 5608TIP3    H116788   5.784   0.672   3.035  0.1584 -0.1923 -0.0186
 5608TIP3    H216789   5.749   0.562   2.937  0.1087 -0.3390  0.1644
 5609TIP3   OH216790   2.455   4.781   2.988 -0.2696  0.7802  0.2835
 5609TIP3    H116791   2.402   4.859   2.972 -1.8082 -0.3452 -0.4037
 5609TIP3    H216792   2.530   4.792   2.930 -2.2496  0.1502 -2.6513
 5610TIP3   OH216793   6.493   1.057   4.763 -0.1539  0.3587  0.2058
 5610TIP3    H116794   6.555   1.032   4.832 -3.0460 -0.0058  2.9459
 5610TIP3    H216795   6.495   0.984   4.701  0.0661 -1.0588  1.8078
 5611TIP3   OH216796   2.727   0.385   1.692 -0.1399  0.8559 -0.4396
 5611TIP3    H116797   2.720   0.329   1.770 -0.1523 -0.7720 -1.5600
 5611TIP3    H216798   2.677   0.339   1.625 -1.7866  3.1984 -0.9352
 5612TIP3   OH216799   6.045   3.679   2.349 -0.1385 -0.2963 -0.3627
 5612TIP3    H116800   6.133   3.713   2.364 -0.2096 -0.5358  0.6684
 5612TIP3    H216801   5.986   3.744   2.388 -0.4563  0.0265 -1.3285
 5613TIP3   OH216802   3.980   2.736   3.251 -0.1597 -0.6515 -0.3356
 5613TIP3    H116803   3.885   2.738   3.262  0.0516 -0.0817  1.7937
 5613TIP3    H216804   3.999   2.812   3.196 -0.9017 -0.7005 -0.6824
 5614TIP3   OH216805   1.206   6.109   1.145 -0.8759  0.6028 -0.2290
 5614TIP3    H116806   1.301   6.105   1.130 -1.3136 -0.7110 -3.2238
 5614TIP3    H216807   1.197   6.170   1.218  2.3821 -0.6744  1.4829
 5615TIP3   OH216808   5.061   3.332   4.342 -0.0260  0.2022  0.0255
 5615TIP3    H116809   5.088   3.315   4.252 -0.4047 -2.7656  0.3886
 5615TIP3    H216810   4.986   3.391   4.334  0.2499  0.3651 -1.5593
 5616TIP3   OH216811   4.314   3.285   1.057  0.1865  0.1019  0.0387
 5616TIP3    H116812   4.383   3.338   1.016  0.2892  0.4277  0.6243
 5616TIP3    H216813   4.256   3.261   0.985  0.0363  1.1701 -0.2148
 5617TIP3   OH216814   0.205   2.095   3.173 -0.3073  0.0834 -0.3579
 5617TIP3    H116815   0.271   2.141   3.120 -1.3127  1.2337 -0.6520
 5617TIP3    H216816   0.141   2.064   3.109 -0.8654  0.3605  0.0650
 5618TIP3   OH216817   4.486   0.486   1.729  0.0993  0.3877 -0.6815
 5618TIP3    H116818   4.447   0.545   1.664  0.5831  2.1796  0.5661
 5618TIP3    H216819   4.457   0.522   1.813 -2.1995 -3.0185  0.1785
 5619TIP3   OH216820   5.931   3.409   5.386  0.2125  0.2498  0.2524
 5619TIP3    H116821   5.931   3.412   5.482 -0.3622 -1.1087  0.3203
 5619TIP3    H216822   5.947   3.317   5.365  2.0105  0.7989 -1.0020
 5620TIP3   OH216823   2.511   2.636   2.519 -0.1782  0.1104 -0.2966
 5620TIP3    H116824   2.522   2.729   2.540  0.5261 -0.0867  0.2366
 5620TIP3    H216825   2.529   2.630   2.425  0.4836  0.3993 -0.1879
 5621TIP3   OH216826   5.603   0.966   2.336  0.4589  0.1873  0.0057
 5621TIP3    H116827   5.696   0.958   2.355  0.2268 -0.8717  0.8060
 5621TIP3    H216828   5.566   0.881   2.360 -0.3497 -0.2617 -2.4926
 5622TIP3   OH216829   3.397   2.799   1.435  0.0465 -0.0416 -0.5658
 5622TIP3    H116830   3.378   2.842   1.519 -1.2249 -0.4065 -0.6430
 5622TIP3    H216831   3.481   2.755   1.448  0.1941  0.4767  0.2871
 5623TIP3   OH216832   3.576   5.892   0.914 -0.7010 -0.1396  0.3258
 5623TIP3    H116833   3.562   5.881   0.820 -0.4304  2.6456 -0.1246
 5623TIP3    H216834   3.493   5.866   0.954 -1.0820 -0.6185 -0.7407
 5624TIP3   OH216835   2.317   1.976   3.610  0.1158  0.1452 -0.1584
 5624TIP3    H116836   2.404   1.999   3.643 -0.3962 -0.4691  1.7610
 5624TIP3    H216837   2.265   1.961   3.689 -1.5096 -0.3464 -1.2733
 5625TIP3   OH216838   6.518   3.270   1.292 -0.1325 -0.1371 -0.1199
 5625TIP3    H116839   6.611   3.279   1.272 -0.0413  1.7911  0.8948
 5625TIP3    H216840   6.515   3.218   1.372 -0.0421 -1.3927 -0.9092
 5626TIP3   OH216841   7.083   6.241   0.382  0.2779 -0.0808  0.7536
 5626TIP3    H116842   7.170   6.283   0.385  0.8330 -0.8716 -1.6698
 5626TIP3    H216843   7.023   6.313   0.361  0.7587  0.0861 -0.1285
 5627TIP3   OH216844   2.459   6.149   5.457  0.0117  0.0804 -0.0350
 5627TIP3    H116845   2.543   6.104   5.453  0.4151  0.7729  0.5044
 5627TIP3    H216846   2.462   6.213   5.386 -0.4660 -0.5767 -0.6522
 5628TIP3   OH216847   6.000   5.337   5.601  0.2058  0.2059  0.1274
 5628TIP3    H116848   5.972   5.261   5.549  2.5926  0.2761 -1.4064
 5628TIP3    H216849   5.960   5.412   5.558 -2.9057 -0.0883  2.1686
 5629TIP3   OH216850   5.992   0.595   2.441 -0.1660 -0.2142 -0.3391
 5629TIP3    H116851   6.080   0.614   2.472  0.3958  0.5359 -2.2163
 5629TIP3    H216852   5.950   0.681   2.433 -1.5226 -0.6248  1.6186
 5630TIP3   OH216853   4.593   5.439   1.896  0.5039  0.3263 -0.3343
 5630TIP3    H116854   4.627   5.527   1.880  0.4772  0.5787  0.9675
 5630TIP3    H216855   4.499   5.452   1.912  0.4401  0.0222 -0.4488
 5631TIP3   OH216856   1.268   3.491   4.678 -0.8309 -0.3694 -0.3469
 5631TIP3    H116857   1.257   3.436   4.600  0.7919  2.0459 -2.4389
 5631TIP3    H216858   1.256   3.431   4.752 -0.5423 -3.1932 -2.4363
 5632TIP3   OH216859   6.325   6.615   1.848 -0.6515 -0.8670  0.8909
 5632TIP3    H116860   6.319   6.520   1.860 -0.1383 -0.8703  1.1546
 5632TIP3    H216861   6.358   6.626   1.759 -4.1887 -0.8477 -0.5817
 5633TIP3   OH216862   6.316   6.216   0.354 -0.4639 -0.7422 -0.5156
 5633TIP3    H116863   6.285   6.191   0.441  0.7902  2.2973  0.9456
 5633TIP3    H216864   6.236   6.239   0.307 -1.1140 -1.9017 -0.0377
 5634TIP3   OH216865   4.300   0.045   3.577 -0.4969  0.1675  0.7832
 5634TIP3    H116866   4.219   0.088   3.605  0.1074  1.8858  0.0708
 5634TIP3    H216867   4.369   0.095   3.622  0.3812  1.7219 -2.0855
 5635TIP3   OH216868   1.144   2.251   0.868  0.1843 -0.1476 -0.5388
 5635TIP3    H116869   1.119   2.212   0.785  1.3125  1.2686 -1.5847
 5635TIP3    H216870   1.061   2.271   0.911 -0.4332  0.2622 -1.8780
 5636TIP3   OH216871   5.414   2.098   1.301  0.4963 -0.3219  0.5306
 5636TIP3    H116872   5.417   2.170   1.364  3.6781  0.3199 -0.1491
 5636TIP3    H216873   5.352   2.126   1.234  0.1087  0.8120  1.3376
 5637TIP3   OH216874   1.414   3.789   1.028  0.0454 -0.5684  0.3792
 5637TIP3    H116875   1.402   3.807   1.121 -0.6973  0.5820  0.0820
 5637TIP3    H216876   1.366   3.707   1.014  0.9231 -1.2413  1.1714
 5638TIP3   OH216877   7.090   4.867   3.395 -0.5032  0.3144 -0.1529
 5638TIP3    H116878   7.144   4.793   3.423 -1.0883 -0.9716 -2.2227
 5638TIP3    H216879   7.063   4.909   3.477 -0.4807 -1.9921  1.1302
 5639TIP3   OH216880   1.353   2.302   4.720 -0.0825 -0.7711  0.2231
 5639TIP3    H116881   1.401   2.334   4.796 -2.2203  1.2493  0.8452
 5639TIP3    H216882   1.399   2.223   4.693  1.4968 -0.8252  2.8216
 5640TIP3   OH216883   5.985   5.410   5.298 -0.2217 -0.3449  0.2730
 5640TIP3    H116884   6.056   5.465   5.331  1.4680 -1.6268 -1.0432
 5640TIP3    H216885   5.915   5.471   5.277  0.9035  1.1011  0.6001
 5641TIP3   OH216886   1.887   4.261   4.396  0.1044  0.7762 -0.1664
 5641TIP3    H116887   1.977   4.289   4.403  1.0970 -2.4224  2.9475
 5641TIP3    H216888   1.885   4.205   4.318  1.2528 -0.2805  0.5344
 5642TIP3   OH216889   0.074   5.239   1.487  0.0570  0.1746 -0.1810
 5642TIP3    H116890   0.098   5.219   1.578  0.5326  0.0058 -0.3395
 5642TIP3    H216891   0.153   5.277   1.449 -0.8629  2.6064  0.1635
 5643TIP3   OH216892   0.477   1.692   5.571  0.3482  0.2269  0.2684
 5643TIP3    H116893   0.433   1.713   5.488  0.3991 -1.1731 -0.1285
 5643TIP3    H216894   0.501   1.600   5.563  2.4279  0.6759  0.9148
 5644TIP3   OH216895   0.106   6.775   0.462 -0.0176 -0.6124 -0.3438
 5644TIP3    H116896   0.178   6.830   0.433 -0.6952  0.2603 -0.3986
 5644TIP3    H216897   0.141   6.686   0.457  1.0664 -0.2023 -0.3171
 5645TIP3   OH216898   3.167   2.976   2.002 -0.0324 -0.4096 -0.0322
 5645TIP3    H116899   3.257   3.001   2.023 -0.4462 -0.2382  1.6100
 5645TIP3    H216900   3.158   2.887   2.034 -0.8933  0.1063  1.2371
 5646TIP3   OH216901   4.928   0.662   0.537 -0.5999  0.4796 -0.2686
 5646TIP3    H116902   5.020   0.657   0.513 -0.5668 -1.4332  0.0635
 5646TIP3    H216903   4.887   0.713   0.468  0.2744 -0.8966 -1.8836
 5647TIP3   OH216904   2.994   2.679   1.863 -0.4078  0.2212 -0.2441
 5647TIP3    H116905   2.932   2.660   1.793 -1.4591 -0.5964  0.8521
 5647TIP3    H216906   2.954   2.751   1.912 -0.5547 -0.3510  0.5046
 5648TIP3   OH216907   1.555   2.071   5.330 -0.3683 -0.0388 -0.7018
 5648TIP3    H116908   1.557   2.096   5.237 -1.2605  2.1825 -0.1776
 5648TIP3    H216909   1.647   2.057   5.353 -0.1284 -0.5827 -1.8819
 5649TIP3   OH216910   4.950   0.578   2.697 -0.5190 -0.0169 -0.1889
 5649TIP3    H116911   4.886   0.632   2.745 -0.2208 -0.0983  0.3108
 5649TIP3    H216912   5.015   0.555   2.763  0.5046  0.7958 -0.8894
 5650TIP3   OH216913   2.451   1.365   1.392 -0.3022  0.2339  0.0191
 5650TIP3    H116914   2.458   1.366   1.487 -0.0645  1.2362  0.0023
 5650TIP3    H216915   2.382   1.429   1.373  1.6065  2.2168 -0.6016
 5651TIP3   OH216916   2.417   3.891   3.931 -0.3994  0.0737 -0.4028
 5651TIP3    H116917   2.348   3.957   3.935  0.0134  0.4925  2.6882
 5651TIP3    H216918   2.415   3.849   4.018  1.3457 -1.8981 -1.2189
 5652TIP3   OH216919   1.514   3.884   3.320 -0.4027  0.8409  0.1482
 5652TIP3    H116920   1.466   3.802   3.310 -1.8421  1.5500  0.9152
 5652TIP3    H216921   1.599   3.858   3.355 -0.4160 -0.4067 -0.6829
 5653TIP3   OH216922   3.698   5.209   3.204 -0.3484 -0.5217 -0.3065
 5653TIP3    H116923   3.677   5.116   3.205  0.0676 -0.6637 -2.0734
 5653TIP3    H216924   3.763   5.219   3.135 -1.5348  1.3010 -1.2489
 5654TIP3   OH216925   4.433   2.530   3.680  0.2097  0.7118  0.0940
 5654TIP3    H116926   4.517   2.499   3.714 -0.1668 -0.3640  0.0821
 5654TIP3    H216927   4.443   2.625   3.673  0.7939  0.8052  1.8250
 5655TIP3   OH216928   1.734   2.350   5.543  0.0878 -0.0118  0.2439
 5655TIP3    H116929   1.821   2.313   5.553  0.5282  1.3153  1.8115
 5655TIP3    H216930   1.682   2.309   5.612 -1.2831 -2.5746 -2.0812
 5656TIP3   OH216931   2.114   5.596   0.423  0.3735 -0.1485 -0.3158
 5656TIP3    H116932   2.109   5.669   0.484  0.1135  0.0159 -0.5344
 5656TIP3    H216933   2.196   5.552   0.446 -0.8170 -1.4603  1.6758
 5657TIP3   OH216934   2.689   1.935   0.359  0.4700  0.0711 -0.3416
 5657TIP3    H116935   2.624   1.981   0.411  1.7192 -0.8780  2.2721
 5657TIP3    H216936   2.766   1.930   0.416  3.1042  1.6379 -3.4571
 5658TIP3   OH216937   1.701   1.188   5.258  0.7053  0.2350  0.6046
 5658TIP3    H116938   1.698   1.123   5.328  0.8383  1.6129  1.9393
 5658TIP3    H216939   1.778   1.163   5.206  0.3113 -1.0996  0.6242
 5659TIP3   OH216940   5.765   5.072   3.341 -0.1344  0.0701  0.3601
 5659TIP3    H116941   5.671   5.092   3.340 -0.0029  0.9039  2.2439
 5659TIP3    H216942   5.783   5.041   3.252 -2.2982 -0.6263  0.1033
 5660TIP3   OH216943   1.076   1.536   4.016  0.3493 -0.3051  0.1855
 5660TIP3    H116944   1.119   1.466   3.968  2.1303  0.8073  0.0642
 5660TIP3    H216945   1.086   1.512   4.109  0.5726 -0.4295  0.1303
 5661TIP3   OH216946   5.619   2.201   1.912  0.4201  0.9441 -0.0859
 5661TIP3    H116947   5.575   2.242   1.838  0.3674 -1.1620 -1.2892
 5661TIP3    H216948   5.550   2.191   1.978  0.5163  3.0278  0.4201
 5662TIP3   OH216949   1.946   2.282   4.867  0.0546  0.3640 -0.1933
 5662TIP3    H116950   1.888   2.325   4.930  0.2153 -0.2202  0.3757
 5662TIP3    H216951   2.033   2.289   4.906  0.2231  0.4029 -0.5763
 5663TIP3   OH216952   1.665   2.448   3.995  0.6578  0.4617  0.2537
 5663TIP3    H116953   1.607   2.521   4.016  1.1677  1.4246 -1.5035
 5663TIP3    H216954   1.747   2.468   4.040  1.1592  1.5820 -1.0890
 5664TIP3   OH216955   0.846   4.523   3.764  0.0670 -0.1313  0.1109
 5664TIP3    H116956   0.820   4.461   3.696 -0.6252  1.4742 -1.1583
 5664TIP3    H216957   0.832   4.476   3.846 -2.2431 -1.0405 -0.7168
 5665TIP3   OH216958   3.479   5.925   3.030  0.3773 -0.0758 -0.0984
 5665TIP3    H116959   3.559   5.953   3.075  1.9035 -3.1148 -0.7010
 5665TIP3    H216960   3.439   5.861   3.089 -0.6580  0.0879 -0.6000
 5666TIP3   OH216961   4.180   6.642   0.912  0.1833 -1.1035 -0.1011
 5666TIP3    H116962   4.255   6.583   0.920  1.5044  0.4710 -0.4727
 5666TIP3    H216963   4.177   6.688   0.996 -0.4850 -1.2836 -0.0244
 5667TIP3   OH216964   1.570   2.096   2.929  0.2571 -0.1422 -0.2860
 5667TIP3    H116965   1.554   2.122   2.839 -0.3937  1.2730  0.2083
 5667TIP3    H216966   1.525   2.162   2.982 -1.1624 -2.0843  1.0833
 5668TIP3   OH216967   7.078  -0.028   0.177  0.4415  0.1188  0.4582
 5668TIP3    H116968   7.002   0.004   0.225  0.2015  0.1169  0.0878
 5668TIP3    H216969   7.084   0.030   0.101  0.7777  0.0832  0.4579
 5669TIP3   OH216970   2.065   3.841   3.171 -0.3307  0.2611  0.2542
 5669TIP3    H116971   2.143   3.791   3.148 -0.3130  1.0452 -1.5731
 5669TIP3    H216972   2.094   3.932   3.171 -0.5073  0.3671  2.8836
 5670TIP3   OH216973   6.123   4.053   0.944  0.1479  0.2115  0.4064
 5670TIP3    H116974   6.088   4.110   0.876 -1.6918  0.0198  1.1175
 5670TIP3    H216975   6.166   3.982   0.897 -0.9630  0.1592 -0.5800
 5671TIP3   OH216976   4.708   2.148   5.029  0.1355 -0.3351  0.2175
 5671TIP3    H116977   4.740   2.238   5.037  0.8210 -0.5106 -0.3544
 5671TIP3    H216978   4.788   2.094   5.032 -0.2436 -0.8991  0.2825
 5672TIP3   OH216979   5.021   0.734   3.876 -0.0677  0.2143  0.0128
 5672TIP3    H116980   5.015   0.644   3.909 -0.4983  0.9970  2.2824
 5672TIP3    H216981   4.981   0.730   3.789  2.5682 -2.3127 -1.2455
 5673TIP3   OH216982   1.261   6.182   1.972 -0.6365 -0.7112 -0.3401
 5673TIP3    H116983   1.178   6.146   1.942 -0.1580 -0.4096 -2.1926
 5673TIP3    H216984   1.326   6.115   1.949  0.1620  0.8399 -3.0825
 5674TIP3   OH216985   4.013   1.044   2.125 -0.4004  0.2284  0.5233
 5674TIP3    H116986   4.050   1.066   2.040 -0.0442  0.6708  0.7876
 5674TIP3    H216987   3.954   1.117   2.145  1.6207  1.5859  1.9038
 5675TIP3   OH216988   4.453   3.934   0.600  0.1735  0.2230  0.4381
 5675TIP3    H116989   4.397   3.998   0.556  1.2096  1.0001  0.2050
 5675TIP3    H216990   4.536   3.980   0.614  0.0158 -0.0707  2.9359
 5676TIP3   OH216991   4.854   5.683   3.809 -0.3705 -0.5486  0.0241
 5676TIP3    H116992   4.763   5.711   3.813 -0.3207 -0.4415  3.0778
 5676TIP3    H216993   4.871   5.668   3.716 -2.7037  1.9119 -0.9251
 5677TIP3   OH216994   5.132   1.794   5.020  0.8679 -0.1412  0.0190
 5677TIP3    H116995   5.158   1.724   4.960  3.0557  0.3642  0.2686
 5677TIP3    H216996   5.170   1.769   5.104  2.2584  1.5728 -0.0227
 5678TIP3   OH216997   2.460   0.254   5.056 -0.2515  0.1661 -0.1559
 5678TIP3    H116998   2.467   0.333   5.002  0.1928  0.3703  0.1958
 5678TIP3    H216999   2.518   0.271   5.130 -1.0397 -0.0228  0.5071
 5679TIP3   OH217000   3.417   2.753   3.575  0.2134  0.2995 -0.2949
 5679TIP3    H117001   3.512   2.742   3.586 -0.1037 -1.2060  1.3662
 5679TIP3    H217002   3.379   2.674   3.611 -1.6429 -0.2973 -3.2114
 5680TIP3   OH217003   6.189   0.655  -0.006 -0.4078 -0.2601  0.3928
 5680TIP3    H117004   6.185   0.673   0.088 -1.6791  0.6073  0.1895
 5680TIP3    H217005   6.274   0.612  -0.018 -0.3010 -0.5552  1.9580
 5681TIP3   OH217006   0.381   5.347   3.543 -0.3658 -0.6030  0.0399
 5681TIP3    H117007   0.402   5.433   3.507 -1.3361 -1.0261 -1.6140
 5681TIP3    H217008   0.442   5.337   3.617  2.3263 -0.0407 -1.9441
 5682TIP3   OH217009   2.569   3.374   3.077 -0.2217 -0.4217 -0.0854
 5682TIP3    H117010   2.581   3.316   3.152 -1.0051  1.7959  1.9108
 5682TIP3    H217011   2.475   3.371   3.059 -0.1260 -0.4778 -0.6044
 5683TIP3   OH217012   3.536   2.183   0.720  0.2104  0.6901 -0.5206
 5683TIP3    H117013   3.524   2.113   0.784 -0.0943 -1.1023 -2.4005
 5683TIP3    H217014   3.530   2.264   0.770  1.6215 -0.6200  1.9251
 5684TIP3   OH217015   1.665   4.844   4.165  0.3548  0.3564 -0.1845
 5684TIP3    H117016   1.599   4.835   4.234  0.0950 -0.0341 -0.4739
 5684TIP3    H217017   1.729   4.776   4.184 -1.0689 -1.5789 -1.7828
 5685TIP3   OH217018   3.746   5.848   4.343 -0.7452 -0.0517  0.1132
 5685TIP3    H117019   3.708   5.897   4.416  0.1713 -0.1252  0.6646
 5685TIP3    H217020   3.725   5.900   4.265 -2.3312 -0.3201  0.3308
 5686TIP3   OH217021   4.621   6.598   2.885 -0.1426  0.2865 -0.6630
 5686TIP3    H117022   4.668   6.640   2.813 -0.2632  1.9043  0.1421
 5686TIP3    H217023   4.550   6.658   2.905 -0.3226 -0.3100  0.5693
 5687TIP3   OH217024   3.884   5.998   0.626  0.8960 -0.4488  0.2128
 5687TIP3    H117025   3.917   6.019   0.713 -0.6660  0.5603  0.6094
 5687TIP3    H217026   3.878   6.082   0.582  0.5034 -0.8053 -0.4318
 5688TIP3   OH217027   4.584   5.765   1.949 -0.1084  0.5801  0.0551
 5688TIP3    H117028   4.575   5.763   1.854 -1.2212 -2.4971  0.1076
 5688TIP3    H217029   4.523   5.832   1.978  0.2078  1.5256 -1.3711
 5689TIP3   OH217030   1.711   5.983   4.606 -0.4531  0.1043 -0.1134
 5689TIP3    H117031   1.652   6.031   4.547 -0.1850 -1.2957 -1.5973
 5689TIP3    H217032   1.779   6.047   4.629 -1.2184  1.0211 -0.3666
 5690TIP3   OH217033   5.089   2.243   3.002  0.3922 -0.1760 -0.3403
 5690TIP3    H117034   5.129   2.171   2.952 -1.0340 -1.3500  0.1332
 5690TIP3    H217035   5.006   2.259   2.957  0.9153  1.5598 -0.7340
 5691TIP3   OH217036   6.013   6.571   4.444 -0.2597  0.6241  0.7377
 5691TIP3    H117037   5.924   6.604   4.427 -0.5771 -0.4433  0.2424
 5691TIP3    H217038   6.069   6.647   4.429 -0.8729  0.7132 -1.4271
 5692TIP3   OH217039   0.200   3.772   5.219 -0.0662  0.8839  0.9539
 5692TIP3    H117040   0.172   3.783   5.310 -1.8952 -1.6961  0.7993
 5692TIP3    H217041   0.121   3.789   5.168 -0.3160 -2.1054  0.1975
 5693TIP3   OH217042   2.617   2.905   3.430 -0.1971 -0.2474  0.1637
 5693TIP3    H117043   2.549   2.893   3.497  0.3153  0.8745  0.9109
 5693TIP3    H217044   2.671   2.977   3.464  0.3579  0.0118 -1.2341
 5694TIP3   OH217045   1.460   1.472   3.019  0.2095  0.3361 -0.3184
 5694TIP3    H117046   1.487   1.428   3.100  0.4399  0.3784 -0.3721
 5694TIP3    H217047   1.427   1.557   3.049  0.4935  0.4368 -0.2879
 5695TIP3   OH217048   1.292   5.209   2.765  0.2307  0.2779  0.0550
 5695TIP3    H117049   1.244   5.170   2.838  1.1373  1.0372  1.0722
 5695TIP3    H217050   1.266   5.156   2.689 -1.0005 -0.2983  0.8470
 5696TIP3   OH217051   3.213   4.403   1.420  0.4209  0.0728 -0.1207
 5696TIP3    H117052   3.247   4.355   1.495  0.1210  0.8053  0.4883
 5696TIP3    H217053   3.213   4.338   1.349  0.5465 -0.6701  0.5414
 5697TIP3   OH217054   5.824   6.003   5.199  0.4153  0.0810  0.4807
 5697TIP3    H117055   5.864   5.970   5.118  0.6679  0.7410  0.3317
 5697TIP3    H217056   5.753   5.941   5.217 -0.9897  1.0338 -1.3796
 5698TIP3   OH217057   1.763   5.496   1.695 -0.1208  0.6881  0.0259
 5698TIP3    H117058   1.855   5.502   1.718  0.4849 -1.4037 -1.5606
 5698TIP3    H217059   1.747   5.571   1.637  1.5132 -0.7419 -2.3960
 5699TIP3   OH217060   6.395   0.940   0.868  0.0200  0.1008 -0.1558
 5699TIP3    H117061   6.425   0.999   0.800  1.0678  0.0083  0.2073
 5699TIP3    H217062   6.474   0.915   0.915 -0.4750 -1.0941  0.0927
 5700TIP3   OH217063   5.445   4.238   2.333  0.3012 -0.2043  0.1033
 5700TIP3    H117064   5.434   4.299   2.407  0.3480 -1.5096  1.2338
 5700TIP3    H217065   5.356   4.208   2.314  0.3709 -0.4070  0.0992
 5701TIP3   OH217066   3.211   1.586   2.680 -0.5617  0.4617  0.2409
 5701TIP3    H117067   3.226   1.668   2.728 -0.5283  0.1209  0.8140
 5701TIP3    H217068   3.195   1.615   2.590  0.0510  1.0609  0.3146
 5702TIP3   OH217069   3.276   2.167   5.728  0.1097 -0.0088 -0.6131
 5702TIP3    H117070   3.213   2.098   5.710  0.0841  0.3186 -1.8220
 5702TIP3    H217071   3.274   2.224   5.651  0.7390  0.8810 -0.0052
 5703TIP3   OH217072   4.814   0.885   0.341 -0.3155 -0.8105  0.6590
 5703TIP3    H117073   4.823   0.978   0.319  2.1652 -0.5373  2.3583
 5703TIP3    H217074   4.720   0.871   0.348 -0.7799  1.4165 -0.2244
 5704TIP3   OH217075   1.899   3.456   0.455 -0.1663  0.0336  0.0574
 5704TIP3    H117076   1.956   3.489   0.525  1.0936  2.3362 -1.8987
 5704TIP3    H217077   1.819   3.508   0.463  0.8914  2.0528 -1.5431
 5705TIP3   OH217078   3.338   0.376   4.321 -0.2135  0.2369 -0.1075
 5705TIP3    H117079   3.255   0.417   4.295 -0.1272  1.2489  1.1460
 5705TIP3    H217080   3.365   0.423   4.400  1.5648 -0.0838 -0.4790
 5706TIP3   OH217081   3.983   4.672   5.405  0.3599 -0.6754  0.0232
 5706TIP3    H117082   4.013   4.735   5.339  1.0906 -2.4102 -1.3653
 5706TIP3    H217083   3.912   4.624   5.362  2.2712 -3.3212 -0.3875
 5707TIP3   OH217084   1.159   2.684   5.549  0.1438 -0.1528 -0.0854
 5707TIP3    H117085   1.163   2.590   5.566 -0.1716 -0.2001 -0.2818
 5707TIP3    H217086   1.244   2.704   5.508  0.9345 -0.0347  1.5341
 5708TIP3   OH217087   4.883   3.735   2.673  0.4257 -0.1423 -0.5129
 5708TIP3    H117088   4.833   3.716   2.753  0.3800  0.1579 -0.4695
 5708TIP3    H217089   4.974   3.737   2.701  0.7081 -2.9297 -0.9809
 5709TIP3   OH217090   4.458   6.066   3.635 -0.4244  0.1150  0.2088
 5709TIP3    H117091   4.394   6.097   3.700 -0.8784  0.7953 -0.5369
 5709TIP3    H217092   4.537   6.116   3.654  0.2758 -1.5113  1.8334
 5710TIP3   OH217093   2.368   5.444   2.118 -0.4272 -0.1371 -0.1215
 5710TIP3    H117094   2.433   5.514   2.118 -0.7568  0.1960  1.2069
 5710TIP3    H217095   2.393   5.389   2.192 -0.6346 -1.0040 -0.6793
 5711TIP3   OH217096   1.592   2.918   2.961 -0.4616 -0.1697 -0.0047
 5711TIP3    H117097   1.660   2.949   2.902 -2.0984  1.3968 -1.1533
 5711TIP3    H217098   1.635   2.851   3.014  2.2062  1.3734 -0.0614
 5712TIP3   OH217099   2.234   5.278   0.918  0.1499 -0.4377 -0.2409
 5712TIP3    H117100   2.191   5.293   0.834  1.3947  1.7555 -0.5592
 5712TIP3    H217101   2.219   5.358   0.967  0.5515 -1.1871  1.1552
 5713TIP3   OH217102   2.985   6.781   2.994  0.2461 -0.0877  0.1871
 5713TIP3    H117103   3.027   6.710   3.043  0.0588 -0.3896 -0.0865
 5713TIP3    H217104   2.950   6.839   3.062  1.2451  0.2605  0.4182
 5714TIP3   OH217105   2.398   3.618   2.532 -0.5162  0.4152 -0.0629
 5714TIP3    H117106   2.309   3.610   2.497 -0.5514  1.1713 -0.1763
 5714TIP3    H217107   2.447   3.663   2.463 -0.2923  0.8818  0.3936
 5715TIP3   OH217108   1.521   6.003   1.165 -0.3139 -0.3444 -0.0613
 5715TIP3    H117109   1.590   6.065   1.141  0.7909 -1.8195 -0.9061
 5715TIP3    H217110   1.497   6.027   1.255  1.0374  0.4385  0.1212
 5716TIP3   OH217111   0.805   4.733   1.133 -0.1765 -0.1173 -0.5975
 5716TIP3    H117112   0.850   4.705   1.212 -0.0750  0.4091 -0.4607
 5716TIP3    H217113   0.850   4.688   1.062  0.7858  0.6396 -0.4948
 5717TIP3   OH217114   1.373   2.240   4.324 -0.0354  0.1537  0.4616
 5717TIP3    H117115   1.359   2.332   4.299  2.3084  0.9213  1.6491
 5717TIP3    H217116   1.286   2.201   4.320 -1.0541  2.3044 -0.5117
 5718TIP3   OH217117   7.130   0.054   4.731  0.6658  0.0580  0.1389
 5718TIP3    H117118   7.203   0.114   4.713 -0.3851  1.3781  0.0676
 5718TIP3    H217119   7.144  -0.019   4.671  1.1611  0.9713 -0.9097
 5719TIP3   OH217120   4.724   4.181   2.166 -0.1952 -0.5865 -0.2763
 5719TIP3    H117121   4.676   4.257   2.134 -1.8190 -2.3453 -2.3143
 5719TIP3    H217122   4.740   4.200   2.259 -1.5333  1.7152 -0.4484
 5720TIP3   OH217123   7.181   5.944   3.965  0.6334 -0.0843 -0.1476
 5720TIP3    H117124   7.112   5.958   4.030  1.1796 -0.0006  0.4191
 5720TIP3    H217125   7.201   6.031   3.932  0.1288 -0.1604 -0.6742
 5721TIP3   OH217126   2.704   5.747   3.886 -0.0714 -0.2462 -0.7307
 5721TIP3    H117127   2.668   5.658   3.887  2.9167 -1.5447 -0.1977
 5721TIP3    H217128   2.797   5.736   3.903  0.5416  2.9652 -1.3589
 5722TIP3   OH217129   5.698   6.243   1.118  0.4044  1.0223 -0.0670
 5722TIP3    H117130   5.627   6.307   1.121  0.2594  0.8342  1.8837
 5722TIP3    H217131   5.773   6.291   1.082 -0.6898  1.1873 -2.2676
 5723TIP3   OH217132   2.473   1.798   0.944 -0.2194  0.1634  0.0393
 5723TIP3    H117133   2.489   1.889   0.970  1.0869  0.3429 -1.2637
 5723TIP3    H217134   2.439   1.804   0.855  0.4238 -0.6379 -0.2786
 5724TIP3   OH217135   5.592   3.812   3.348  0.3873  0.0643 -0.0792
 5724TIP3    H117136   5.583   3.903   3.378  2.4688  0.9185 -1.7636
 5724TIP3    H217137   5.567   3.814   3.256 -1.3657 -1.5279  0.2995
 5725TIP3   OH217138   4.626   1.712   1.477  0.0115 -0.2489 -0.3211
 5725TIP3    H117139   4.592   1.770   1.546  1.0652  0.9149 -0.7337
 5725TIP3    H217140   4.715   1.690   1.507  0.3708  0.0378 -1.1451
 5726TIP3   OH217141   3.370   3.790   2.141 -0.1424 -0.2262 -0.6139
 5726TIP3    H117142   3.326   3.852   2.082  0.1440 -3.0750 -4.1764
 5726TIP3    H217143   3.299   3.749   2.191 -0.5760  1.1126 -0.0969
 5727TIP3   OH217144   6.463   3.898   0.767 -0.0072 -0.5732 -0.1098
 5727TIP3    H117145   6.497   3.907   0.856 -0.3479  0.2450 -0.0560
 5727TIP3    H217146   6.371   3.872   0.779  0.6199 -3.1095 -0.2547
 5728TIP3   OH217147   6.748   5.409   1.816  0.0301 -0.2741  0.8208
 5728TIP3    H117148   6.772   5.486   1.868 -1.6414  0.6980  0.2186
 5728TIP3    H217149   6.815   5.403   1.749  1.4631 -0.7474  2.2210
 5729TIP3   OH217150   5.199   1.771   2.283 -0.4651 -0.4314 -0.2127
 5729TIP3    H117151   5.108   1.739   2.283 -0.7639  0.3619  0.4127
 5729TIP3    H217152   5.252   1.693   2.299 -0.8790 -1.2408 -2.4249
 5730TIP3   OH217153   6.879   3.152   4.687  0.0373 -0.3784  0.5115
 5730TIP3    H117154   6.845   3.133   4.599  1.6446 -2.9504  0.3602
 5730TIP3    H217155   6.929   3.232   4.676 -0.4712 -0.1969 -0.7198
 5731TIP3   OH217156   5.356   0.227   2.650  0.0929 -0.0436  0.3631
 5731TIP3    H117157   5.418   0.221   2.722  0.3471  0.0054  0.1471
 5731TIP3    H217158   5.323   0.317   2.654  0.0019 -0.0830  0.5044
 5732TIP3   OH217159   5.359   4.207   4.248  0.5213  0.3391  0.1473
 5732TIP3    H117160   5.421   4.269   4.286 -0.4729  1.0354  0.6844
 5732TIP3    H217161   5.365   4.221   4.154  1.8143 -0.2318  0.1326
 5733TIP3   OH217162   0.289   2.175   4.916 -0.3898 -0.2433  0.4027
 5733TIP3    H117163   0.301   2.164   4.822  0.2732  1.8927  0.1829
 5733TIP3    H217164   0.197   2.153   4.931 -0.7928  0.4173 -0.9396
 5734TIP3   OH217165   5.794   6.216   5.605 -0.3079 -0.6546  0.1261
 5734TIP3    H117166   5.828   6.249   5.688 -1.5081 -1.2428  0.8726
 5734TIP3    H217167   5.796   6.120   5.615  2.8519 -0.9624 -1.8871
 5735TIP3   OH217168   3.214   3.219   3.580 -0.3770 -0.5671  0.3189
 5735TIP3    H117169   3.297   3.266   3.586 -0.1844 -0.9397  0.6795
 5735TIP3    H217170   3.237   3.135   3.539 -0.8240 -0.1080 -0.9417
 5736TIP3   OH217171   4.513   5.943   0.837 -0.1533  0.2376 -0.0361
 5736TIP3    H117172   4.596   5.983   0.863  0.3489  0.2102 -1.4916
 5736TIP3    H217173   4.513   5.857   0.878  0.7588  0.0581 -0.4124
 5737TIP3   OH217174   5.364   5.949   5.373  0.1010 -0.2911  0.3274
 5737TIP3    H117175   5.327   5.861   5.385  1.7326 -1.0111  0.2398
 5737TIP3    H217176   5.303   5.992   5.312  0.5737 -2.2087 -1.6032
 5738TIP3   OH217177   1.661   5.225   0.339 -1.3380 -0.5881 -0.2587
 5738TIP3    H117178   1.710   5.306   0.352 -1.8565 -0.4964  1.2987
 5738TIP3    H217179   1.590   5.250   0.280 -0.3346 -0.4016 -1.4167
 5739TIP3   OH217180   1.711   5.702   4.437 -0.1445  0.0882 -0.4470
 5739TIP3    H117181   1.677   5.636   4.497 -0.6410  0.5867 -0.1715
 5739TIP3    H217182   1.764   5.759   4.491  0.0361  0.0975 -0.6309
 5740TIP3   OH217183   4.704   6.008   1.762 -0.3262  0.0314  0.2083
 5740TIP3    H117184   4.693   5.913   1.750  1.4510 -0.3582  1.3447
 5740TIP3    H217185   4.615   6.043   1.753 -1.0592 -1.7547 -0.0451
 5741TIP3   OH217186   4.137   6.072   2.695  0.3369  0.2663  0.2251
 5741TIP3    H117187   4.149   5.980   2.717  2.7961  0.8924  1.9284
 5741TIP3    H217188   4.068   6.101   2.755 -1.9316 -0.8404 -1.7149
 5742TIP3   OH217189   4.576   1.868   0.250  0.0188 -0.3368  0.3324
 5742TIP3    H117190   4.533   1.832   0.327  0.3508  1.3453  1.3559
 5742TIP3    H217191   4.549   1.960   0.248  1.9741  0.2756 -0.1274
 5743TIP3   OH217192   3.391   3.172   0.580 -0.5019 -0.6600 -0.0451
 5743TIP3    H117193   3.339   3.123   0.516  0.3031 -1.7293  0.0809
 5743TIP3    H217194   3.401   3.111   0.654  0.0852 -0.1125  0.3362
 5744TIP3   OH217195   6.415   2.671   4.953 -0.5907 -0.0541  0.0231
 5744TIP3    H117196   6.427   2.603   5.019 -0.1600 -1.5268 -1.5009
 5744TIP3    H217197   6.474   2.741   4.979 -0.1681 -0.7555  0.9864
 5745TIP3   OH217198   1.896   6.134   5.503 -0.0392  0.0805  0.0577
 5745TIP3    H117199   1.856   6.048   5.487 -1.6771  1.2862 -3.1827
 5745TIP3    H217200   1.980   6.129   5.455 -1.1754  0.9382 -2.1581
 5746TIP3   OH217201   4.453   0.513   3.926  0.2220 -0.1254 -0.7374
 5746TIP3    H117202   4.467   0.608   3.920  0.6208 -0.2352 -1.7241
 5746TIP3    H217203   4.423   0.499   4.016  2.3475  0.6803  0.1654
 5747TIP3   OH217204   2.512   2.716   5.473 -0.3074  0.2813 -0.0592
 5747TIP3    H117205   2.471   2.730   5.388  0.3245 -0.3038 -0.4644
 5747TIP3    H217206   2.596   2.761   5.468 -1.0324  1.8750  0.9362
 5748TIP3   OH217207   1.092   5.764   0.259  0.6850 -0.6682  0.2018
 5748TIP3    H117208   1.117   5.673   0.279  0.5551 -0.7862 -0.1569
 5748TIP3    H217209   1.120   5.776   0.168 -0.8748 -0.9190 -0.3375
 5749TIP3   OH217210   5.221   1.529   1.923 -0.0181  0.2347  0.0452
 5749TIP3    H117211   5.146   1.555   1.977  0.8247  0.4666  1.1471
 5749TIP3    H217212   5.206   1.573   1.839 -1.7492 -0.7397 -0.2039
 5750TIP3   OH217213   4.858   3.276   5.095 -0.5970  0.1722 -0.0182
 5750TIP3    H117214   4.939   3.238   5.061 -1.0500  0.9475 -2.1191
 5750TIP3    H217215   4.865   3.369   5.073 -1.3947  0.5520  1.2048
 5751TIP3   OH217216   3.399   0.033   5.293  0.0084 -0.1278 -0.5051
 5751TIP3    H117217   3.308   0.024   5.319  0.1571 -1.9537 -0.5314
 5751TIP3    H217218   3.446  -0.033   5.344  1.0226 -0.5077 -1.8807
 5752TIP3   OH217219   0.426   2.980   5.537 -0.1033  0.2041 -0.6028
 5752TIP3    H117220   0.413   3.003   5.445  0.6055 -0.9632 -1.0256
 5752TIP3    H217221   0.521   2.966   5.544 -0.0965  0.7205  0.4160
 5753TIP3   OH217222   6.610   3.773   1.963  0.0814  0.2126  0.1349
 5753TIP3    H117223   6.692   3.731   1.988  0.0299 -1.2601 -1.8916
 5753TIP3    H217224   6.637   3.846   1.907  0.0506  0.0324 -0.1201
 5754TIP3   OH217225   0.197   3.522   1.427 -0.4456  0.0476  0.2805
 5754TIP3    H117226   0.281   3.478   1.413 -0.3940  0.5124 -0.9952
 5754TIP3    H217227   0.199   3.547   1.520  1.4951  1.3313 -0.0337
 5755TIP3   OH217228   4.092   4.051   1.204 -0.3122 -0.0115 -0.1433
 5755TIP3    H117229   4.022   3.992   1.177 -2.6599  2.9365 -1.0141
 5755TIP3    H217230   4.058   4.096   1.281  1.7840 -0.3663  1.0636
 5756TIP3   OH217231   0.599   0.847   4.099  0.4748  0.0156 -0.2484
 5756TIP3    H117232   0.538   0.774   4.091 -0.1151  0.3181  1.1156
 5756TIP3    H217233   0.550   0.924   4.071  0.5203  0.1242 -0.0380
 5757TIP3   OH217234   5.166   5.784   0.510 -0.3818  0.0346 -0.1972
 5757TIP3    H117235   5.086   5.733   0.495 -0.0057 -0.7282  0.3174
 5757TIP3    H217236   5.237   5.725   0.486  0.0338  1.0082 -1.5143
 5758TIP3   OH217237   1.858   1.360   2.294  0.0756  0.2422  0.1789
 5758TIP3    H117238   1.943   1.316   2.286  0.7261  0.5700  3.6095
 5758TIP3    H217239   1.801   1.295   2.335 -0.1455  1.2165  1.4913
 5759TIP3   OH217240   1.793   1.995   2.281  0.9961  0.0812  0.2140
 5759TIP3    H117241   1.816   1.939   2.207  1.1944 -0.1571  0.4551
 5759TIP3    H217242   1.768   2.079   2.241  2.0896  0.2860 -0.0694
 5760TIP3   OH217243   2.816   5.912   1.332  0.4569  0.3146  0.4059
 5760TIP3    H117244   2.889   5.938   1.275 -0.2865  1.5352 -0.0413
 5760TIP3    H217245   2.808   5.984   1.394 -0.8187  0.5665 -0.0188
 5761TIP3   OH217246   0.036   5.467   1.254 -0.1418  0.1329  0.1245
 5761TIP3    H117247   0.090   5.508   1.186  1.1828  1.0282  1.6254
 5761TIP3    H217248   0.095   5.404   1.297  0.0027  1.5848  2.2196
 5762TIP3   OH217249   1.898   2.731   3.986 -0.0802  0.0930  0.1323
 5762TIP3    H117250   1.908   2.769   4.074 -0.0766  0.7508 -0.1497
 5762TIP3    H217251   1.854   2.799   3.935 -1.3824 -0.8085 -0.0081
 5763TIP3   OH217252   7.196   0.079   3.899  0.2585  0.1055 -0.1785
 5763TIP3    H117253   7.259   0.151   3.897 -1.2803  1.5677  0.8533
 5763TIP3    H217254   7.147   0.087   3.817  0.2775  0.0519 -0.1953
 5764TIP3   OH217255   2.710   5.753   3.230  0.1123  0.0358 -0.2357
 5764TIP3    H117256   2.688   5.674   3.279 -0.4924  0.8754  0.8883
 5764TIP3    H217257   2.752   5.721   3.150 -0.2515 -1.4166  0.1325
 5765TIP3   OH217258   6.351   6.189   5.096  0.2714  0.9141 -0.4703
 5765TIP3    H117259   6.304   6.227   5.171 -0.2452  2.9043 -1.7194
 5765TIP3    H217260   6.319   6.238   5.021  0.1251 -1.6125 -2.1576
 5766TIP3   OH217261   4.382   4.811   3.816 -0.5420  0.0435  0.4599
 5766TIP3    H117262   4.313   4.745   3.810 -0.4835  0.0539 -0.5077
 5766TIP3    H217263   4.337   4.892   3.835 -0.8683  0.1368 -0.6133
 5767TIP3   OH217264   3.737   1.176   1.468 -0.1195 -0.0335  0.4744
 5767TIP3    H117265   3.680   1.146   1.539  0.7186  0.2683  1.2990
 5767TIP3    H217266   3.754   1.269   1.488  0.2519  0.0131 -0.0286
 5768TIP3   OH217267   2.857   5.395   2.269  0.0553  0.0930  0.1173
 5768TIP3    H117268   2.772   5.412   2.310 -0.4962 -3.0901  0.5649
 5768TIP3    H217269   2.903   5.340   2.331  0.3444 -2.5037 -2.1981
 5769TIP3   OH217270   6.018   0.459   5.090 -0.3177  0.5436  0.4708
 5769TIP3    H117271   5.958   0.455   5.164 -1.6427 -0.9903 -0.6098
 5769TIP3    H217272   6.048   0.550   5.088 -0.6966  0.7517  2.5118
 5770TIP3   OH217273   1.652   0.128   4.101  0.3985 -0.1905 -0.6081
 5770TIP3    H117274   1.616   0.216   4.101 -1.0603 -0.6874  2.1674
 5770TIP3    H217275   1.597   0.079   4.039  0.1413  0.4643 -0.8972
 5771TIP3   OH217276   4.312   4.103   3.374  0.0813  0.2608 -0.1333
 5771TIP3    H117277   4.319   4.124   3.467 -1.5390  1.2995 -0.1955
 5771TIP3    H217278   4.219   4.086   3.360  0.3737 -0.3962 -1.4736
 5772TIP3   OH217279   4.581   1.410   4.653 -0.0921  0.2706  0.3500
 5772TIP3    H117280   4.511   1.474   4.659  1.6681  2.1736  2.8304
 5772TIP3    H217281   4.549   1.335   4.702 -0.4303  1.1446  1.5135
 5773TIP3   OH217282   4.463   3.047   5.435  0.2992 -0.1067 -0.2490
 5773TIP3    H117283   4.471   3.095   5.518  0.3180 -0.5173 -0.0123
 5773TIP3    H217284   4.553   3.031   5.408  0.2910 -0.5609 -0.0072
 5774TIP3   OH217285   4.141   5.790   2.756  0.0979  0.0827  0.2564
 5774TIP3    H117286   4.202   5.719   2.736 -0.9325 -0.8191  0.2315
 5774TIP3    H217287   4.096   5.762   2.836 -1.5633 -0.1620 -0.7064
 5775TIP3   OH217288   6.955   3.491   0.840  0.0414  0.6130 -0.2933
 5775TIP3    H117289   6.991   3.496   0.752  1.3443 -0.1692  0.1673
 5775TIP3    H217290   6.981   3.573   0.882  1.5287 -0.0252  0.0967
 5776TIP3   OH217291   0.964   3.408   4.307 -0.1629  0.1857  0.0138
 5776TIP3    H117292   0.923   3.363   4.233 -1.9513 -0.1570  1.1360
 5776TIP3    H217293   1.024   3.471   4.266 -2.0283  0.9297 -1.8288
 5777TIP3   OH217294   3.432   0.116   2.183  0.0520  0.4342 -0.1978
 5777TIP3    H117295   3.471   0.202   2.200 -0.5456  0.4996  0.9756
 5777TIP3    H217296   3.503   0.054   2.202  0.0473  0.6157  0.4431
 5778TIP3   OH217297   6.138   1.272   0.638 -0.1695 -0.0382 -0.1156
 5778TIP3    H117298   6.130   1.209   0.710 -0.9554 -0.0949 -0.2448
 5778TIP3    H217299   6.156   1.218   0.561 -2.7536 -0.3621 -0.6076
 5779TIP3   OH217300   0.566   4.450   2.655  0.6313  0.2120  0.1845
 5779TIP3    H117301   0.539   4.378   2.598  1.0550 -0.3210  0.6430
 5779TIP3    H217302   0.586   4.522   2.595 -1.2330  0.4587 -0.2068
 5780TIP3   OH217303   0.799   2.056   5.381 -0.1271 -0.6628 -0.1349
 5780TIP3    H117304   0.753   2.036   5.462 -0.7162 -0.9013 -0.5221
 5780TIP3    H217305   0.866   1.988   5.373  1.8335  0.9057  1.5611
 5781TIP3   OH217306   3.635   5.869   0.613  0.7627  0.2230  0.4313
 5781TIP3    H117307   3.723   5.893   0.582  0.0934  1.2375 -0.8081
 5781TIP3    H217308   3.577   5.932   0.570 -0.5001  0.1394  1.9270
 5782TIP3   OH217309   6.649   5.694   0.091  0.4660  0.0073 -0.1299
 5782TIP3    H117310   6.590   5.633   0.046  0.5149  0.4084 -0.7429
 5782TIP3    H217311   6.625   5.686   0.183 -0.1297 -0.2830 -0.3020
 5783TIP3   OH217312   0.270   3.278   2.646  0.3637 -0.2194 -0.4643
 5783TIP3    H117313   0.270   3.182   2.643  1.6213 -0.3543  1.6179
 5783TIP3    H217314   0.306   3.299   2.732  0.0076  2.1474 -0.8224
 5784TIP3   OH217315   4.616   5.084   3.980  0.2866  0.4554 -0.0765
 5784TIP3    H117316   4.524   5.068   3.956  0.5221  1.6634 -2.0697
 5784TIP3    H217317   4.614   5.169   4.025  0.4354  0.6455 -0.4188
 5785TIP3   OH217318   5.827   4.442   0.508 -0.0834 -0.4913 -0.2725
 5785TIP3    H117319   5.880   4.419   0.584 -0.4596 -0.8450 -0.1118
 5785TIP3    H217320   5.889   4.446   0.435  0.0146 -2.0234 -0.3061
 5786TIP3   OH217321   5.614   5.781   0.493 -0.3932 -0.2776  0.6162
 5786TIP3    H117322   5.598   5.785   0.398  1.0504 -0.3103  0.3463
 5786TIP3    H217323   5.532   5.750   0.530 -1.4346  1.0322 -0.4827
 5787TIP3   OH217324   2.105   5.953   1.492 -0.3477  0.1190 -0.2932
 5787TIP3    H117325   2.125   5.983   1.403  0.0224  1.0181  0.0772
 5787TIP3    H217326   2.038   5.885   1.480  0.7173 -0.7848 -1.3443
 5788TIP3   OH217327   0.959   5.520   5.095 -0.2435  0.2123  0.0402
 5788TIP3    H117328   0.909   5.592   5.057 -0.5426 -0.5112 -0.9634
 5788TIP3    H217329   0.894   5.464   5.137 -0.4053 -1.0186 -1.7322
 5789TIP3   OH217330   6.179   1.529   2.637  1.0308  0.2734 -0.0965
 5789TIP3    H117331   6.154   1.578   2.715  2.5048  0.4485  0.2967
 5789TIP3    H217332   6.195   1.596   2.570  3.3425  0.4337  0.5260
 5790TIP3   OH217333   1.311   3.831   1.331 -0.5724 -0.0362 -0.2211
 5790TIP3    H117334   1.362   3.910   1.350  1.6953 -1.0503 -1.6148
 5790TIP3    H217335   1.330   3.772   1.404 -1.6701  0.3882  0.4367
 5791TIP3   OH217336   0.580   4.401   4.910  0.0977  0.8245 -0.4736
 5791TIP3    H117337   0.521   4.325   4.911 -1.0177  1.6760  0.1136
 5791TIP3    H217338   0.630   4.391   4.829  0.6445 -1.0258  0.0367
 5792TIP3   OH217339   0.692   6.311   3.428 -0.1320  0.0713  0.5335
 5792TIP3    H117340   0.727   6.300   3.516 -0.3247  0.4560  0.6608
 5792TIP3    H217341   0.750   6.375   3.386 -0.0217 -0.1339  0.3677
 5793TIP3   OH217342   5.985   3.036   0.607 -0.1398 -0.2967 -0.2892
 5793TIP3    H117343   6.072   3.009   0.637  0.2870  0.9917 -0.3192
 5793TIP3    H217344   5.993   3.041   0.511 -0.6289 -1.4218 -0.4050
 5794TIP3   OH217345   7.082   0.057   3.253  0.0151 -0.6580 -0.3650
 5794TIP3    H117346   7.003   0.005   3.237 -1.4286  1.0374  0.8348
 5794TIP3    H217347   7.115   0.023   3.336 -0.4980 -0.2086  0.0349
 5795TIP3   OH217348   4.232   4.138   3.870  0.2309  0.7508 -0.0333
 5795TIP3    H117349   4.202   4.184   3.792 -0.8512 -1.0146 -0.7194
 5795TIP3    H217350   4.297   4.076   3.838 -0.4612 -0.2182  0.3879
 5796TIP3   OH217351   3.087   3.686   0.898 -0.2198 -0.8008 -0.3719
 5796TIP3    H117352   3.176   3.720   0.909 -0.4442  0.1008 -1.2599
 5796TIP3    H217353   3.094   3.594   0.925  1.2992 -1.1142 -1.6613
 5797TIP3   OH217354   6.014   0.944   2.041  0.5783  0.1194  0.3465
 5797TIP3    H117355   5.936   0.895   2.066 -0.0553  1.5714  1.3979
 5797TIP3    H217356   6.009   0.951   1.946 -0.1320 -0.5111  0.3294
 5798TIP3   OH217357   3.944   3.592   5.097  0.6004 -0.0401  0.2863
 5798TIP3    H117358   3.982   3.667   5.141 -0.6399  0.5399  0.4167
 5798TIP3    H217359   3.911   3.536   5.168 -1.2125  0.7947  0.1560
 5799TIP3   OH217360   5.750   3.767   4.564  0.0013 -0.0238  0.1273
 5799TIP3    H117361   5.739   3.810   4.649 -0.8098 -0.2534  0.1453
 5799TIP3    H217362   5.660   3.747   4.536  0.3790 -2.7580  0.6512
 5800TIP3   OH217363   0.422   0.219   2.451 -0.0992  0.3419  0.5554
 5800TIP3    H117364   0.333   0.201   2.483  0.2751 -0.2372  1.3018
 5800TIP3    H217365   0.418   0.197   2.358 -0.0832 -2.3032  1.0848
 5801TIP3   OH217366   1.464   1.728   3.794  0.0195  0.0599 -0.3742
 5801TIP3    H117367   1.549   1.684   3.801 -0.3454 -0.5579  0.2171
 5801TIP3    H217368   1.430   1.701   3.709 -0.7342 -1.7886  0.4640
 5802TIP3   OH217369   4.394   1.110   2.247  0.5478 -0.2142 -0.0082
 5802TIP3    H117370   4.358   1.112   2.336 -0.3391  2.5960 -0.3407
 5802TIP3    H217371   4.334   1.053   2.199 -1.7127  1.8117  0.2168
 5803TIP3   OH217372   0.904   4.872   5.496 -0.1201 -0.0350 -0.3803
 5803TIP3    H117373   0.950   4.807   5.549 -1.5751  0.3063  1.3914
 5803TIP3    H217374   0.900   4.832   5.409 -0.2041 -1.9484  0.4398
 5804TIP3   OH217375   6.246   4.875   1.664 -0.4900  0.0043  0.0500
 5804TIP3    H117376   6.178   4.876   1.731  0.6141  1.0419  1.2112
 5804TIP3    H217377   6.198   4.885   1.582 -1.9175 -1.7129  0.5869
 5805TIP3   OH217378   4.034   3.163   3.246 -0.4069 -0.3812 -0.0837
 5805TIP3    H117379   4.031   3.254   3.218 -0.1080  0.2108  1.6615
 5805TIP3    H217380   4.126   3.146   3.264 -0.3673 -1.2529 -1.0283
 5806TIP3   OH217381   5.664   1.222   0.880 -0.1156 -0.5730 -0.2461
 5806TIP3    H117382   5.607   1.154   0.842 -0.5100  0.6298 -1.9408
 5806TIP3    H217383   5.670   1.289   0.811  0.2966  1.1021  1.3541
 5807TIP3   OH217384   1.595   3.703   2.247  0.2600 -0.0034  0.1966
 5807TIP3    H117385   1.524   3.766   2.249 -0.2751 -0.6031  0.6101
 5807TIP3    H217386   1.598   3.672   2.157 -1.1987 -1.2786  0.5405
 5808TIP3   OH217387   2.396   2.490   0.332 -0.4831  0.2580 -0.0159
 5808TIP3    H117388   2.398   2.553   0.405  0.2795 -1.4325  1.5096
 5808TIP3    H217389   2.302   2.473   0.319 -0.6184 -0.1048  1.2442
 5809TIP3   OH217390   4.035   5.810   5.421 -0.3930  0.5068 -0.0728
 5809TIP3    H117391   4.096   5.794   5.493  0.9156  1.0752 -1.0121
 5809TIP3    H217392   3.977   5.879   5.454  0.1981  0.7768  0.4343
 5810TIP3   OH217393   1.077   5.356   3.927  0.3158 -0.3122  0.1393
 5810TIP3    H117394   1.126   5.310   3.859  1.5592  0.8318  0.2445
 5810TIP3    H217395   1.074   5.293   4.000  1.5006 -0.4636  0.0776
 5811TIP3   OH217396   5.120   3.510   0.506  0.4638 -0.1761 -0.3615
 5811TIP3    H117397   5.028   3.524   0.488  0.4259 -0.8400 -0.6898
 5811TIP3    H217398   5.136   3.559   0.587 -0.7765 -2.0882  1.1213
 5812TIP3   OH217399   5.637   0.288   3.070  0.2727 -0.5460  0.3467
 5812TIP3    H117400   5.709   0.288   3.133  1.6773 -1.1404 -1.1575
 5812TIP3    H217401   5.578   0.357   3.100  2.2712  1.0679  0.8081
 5813TIP3   OH217402   2.347   6.398   5.761 -0.0411 -0.3900 -0.4307
 5813TIP3    H117403   2.340   6.490   5.787 -0.3482  0.0492 -1.9457
 5813TIP3    H217404   2.260   6.362   5.778  0.2143 -0.5211  0.6001
 5814TIP3   OH217405   5.278   6.541   2.946  0.3561 -0.0003  0.0525
 5814TIP3    H117406   5.299   6.449   2.931  2.1758  0.3237  0.3927
 5814TIP3    H217407   5.238   6.543   3.032 -0.1057 -0.5129 -0.1437
 5815TIP3   OH217408   6.089   4.858   1.423 -0.1810 -0.2925  0.5414
 5815TIP3    H117409   6.028   4.863   1.350  0.1755  0.5042  0.2817
 5815TIP3    H217410   6.150   4.788   1.399 -1.8444 -2.1626  1.5001
 5816TIP3   OH217411   2.325   2.435   2.176  0.0419 -0.1424 -0.0677
 5816TIP3    H117412   2.239   2.477   2.171  0.3812  0.7950  1.3281
 5816TIP3    H217413   2.314   2.352   2.130 -0.6773  1.3964 -2.9328
 5817TIP3   OH217414   5.959   4.329   0.912  0.2307 -0.6690 -0.1263
 5817TIP3    H117415   6.018   4.401   0.934 -2.0763  1.7608 -1.2560
 5817TIP3    H217416   5.994   4.292   0.832 -0.6227  1.9689 -1.8420
 5818TIP3   OH217417   3.696   6.462   0.452 -0.2389 -0.1677  0.6112
 5818TIP3    H117418   3.757   6.523   0.494  0.0577 -0.5655  0.7708
 5818TIP3    H217419   3.651   6.514   0.386 -0.4728  0.3851  1.1963
 5819TIP3   OH217420   4.728   4.132   4.757 -0.2015 -0.2159  0.8326
 5819TIP3    H117421   4.700   4.041   4.765 -0.5741 -0.0521  1.4974
 5819TIP3    H217422   4.810   4.128   4.708 -0.8128 -0.7988 -0.1752
 5820TIP3   OH217423   4.475   2.612   1.750 -0.3481  0.0686  0.6142
 5820TIP3    H117424   4.511   2.640   1.834  0.8314  2.0681 -0.4881
 5820TIP3    H217425   4.542   2.554   1.714 -1.3272 -1.6680  1.4515
 5821TIP3   OH217426   6.780   1.792   1.170 -0.4077 -0.3236  0.0575
 5821TIP3    H117427   6.736   1.763   1.090 -0.6985 -0.7261  0.3601
 5821TIP3    H217428   6.873   1.771   1.155 -0.6769 -2.0525  0.5221
 5822TIP3   OH217429   4.901   2.528   3.162  0.0831  0.2518 -0.6817
 5822TIP3    H117430   4.878   2.570   3.245  1.3311 -0.6417  0.1428
 5822TIP3    H217431   4.996   2.526   3.161  0.1999  2.1461 -3.1535
 5823TIP3   OH217432   0.570   5.935   4.280 -0.4466 -0.0764 -0.8024
 5823TIP3    H117433   0.582   5.967   4.369  0.3470  2.5502 -1.7341
 5823TIP3    H217434   0.638   5.869   4.269 -0.8770 -0.7994  0.6670
 5824TIP3   OH217435   3.355   4.660   2.683  0.4448  0.5321  0.4609
 5824TIP3    H117436   3.321   4.743   2.716  1.4337  1.1649 -0.0810
 5824TIP3    H217437   3.446   4.678   2.661  0.0341  0.0098 -2.0238
 5825TIP3   OH217438   0.072   1.437   2.304 -0.4507  0.0193 -0.1524
 5825TIP3    H117439  -0.015   1.440   2.265 -0.0530  0.3771 -1.0429
 5825TIP3    H217440   0.063   1.488   2.385 -1.1591 -0.2820 -0.0302
 5826TIP3   OH217441   4.391   2.440   4.593 -0.0441  0.3517 -0.1391
 5826TIP3    H117442   4.376   2.513   4.534 -0.2494  0.1077 -0.3938
 5826TIP3    H217443   4.344   2.367   4.554 -0.5318  0.2886  0.5426
 5827TIP3   OH217444   3.717   2.795   0.759  0.3366 -0.0238  0.5246
 5827TIP3    H117445   3.722   2.745   0.840  2.2155  0.3043  0.6610
 5827TIP3    H217446   3.746   2.883   0.783 -1.0799  0.6366 -0.0995
 5828TIP3   OH217447   7.192   1.704   1.831 -0.9342 -0.4601 -0.0270
 5828TIP3    H117448   7.111   1.657   1.848 -0.3913 -1.4450 -0.0443
 5828TIP3    H217449   7.199   1.769   1.901 -2.1870  0.2773 -0.5603
 5829TIP3   OH217450   6.168   1.018   3.920 -0.5453  0.0158 -0.6616
 5829TIP3    H117451   6.161   1.106   3.881 -0.1437  0.0872 -0.5718
 5829TIP3    H217452   6.258   1.012   3.950  1.0680 -2.2307 -5.0489
 5830TIP3   OH217453   1.895   5.492   0.663  0.4354  0.2291 -0.2929
 5830TIP3    H117454   1.987   5.469   0.656  0.4158  0.4673 -1.5983
 5830TIP3    H217455   1.852   5.414   0.697  1.2960  0.5766  1.7237
 5831TIP3   OH217456   2.565   5.256   2.552 -0.0679 -0.7099  0.3412
 5831TIP3    H117457   2.568   5.332   2.494  1.0574 -0.8262  0.2153
 5831TIP3    H217458   2.493   5.273   2.612 -0.9666 -0.3687 -0.8015
 5832TIP3   OH217459   6.762   5.859   0.926 -0.1627 -0.6065 -0.8497
 5832TIP3    H117460   6.839   5.826   0.972 -1.3521 -1.0459  0.9144
 5832TIP3    H217461   6.797   5.897   0.845  1.8945 -0.7356 -0.0814
 5833TIP3   OH217462   3.795   4.360   1.492 -0.1786 -0.6234  0.3233
 5833TIP3    H117463   3.830   4.363   1.581 -1.6790 -0.4371  0.9257
 5833TIP3    H217464   3.739   4.282   1.490 -0.9247 -0.0831 -0.1659
 5834TIP3   OH217465   5.003   5.819   4.777 -0.7270  0.7648 -0.6214
 5834TIP3    H117466   5.044   5.875   4.711  0.7335  0.4419 -0.0405
 5834TIP3    H217467   5.075   5.765   4.810 -2.0057 -1.1380 -0.8301
 5835TIP3   OH217468   2.589   6.078   3.615  0.0152  0.1340  0.1288
 5835TIP3    H117469   2.683   6.100   3.618  0.1041 -0.1803 -0.3835
 5835TIP3    H217470   2.559   6.113   3.532 -0.2343 -0.1407  0.1057
 5836TIP3   OH217471   4.944   6.308   0.787 -0.5952 -0.5190 -0.8427
 5836TIP3    H117472   4.988   6.285   0.705 -0.5261  0.1833 -1.0038
 5836TIP3    H217473   4.990   6.257   0.853  0.5714  0.2947 -0.9881
 5837TIP3   OH217474   2.812   3.798   1.532  0.1600 -0.8637 -0.1430
 5837TIP3    H117475   2.848   3.800   1.621 -2.2359 -2.7467  0.9752
 5837TIP3    H217476   2.825   3.708   1.503  0.4352 -0.3972 -1.5446
 5838TIP3   OH217477   5.721   3.034   5.339 -0.2541 -0.1525 -0.7770
 5838TIP3    H117478   5.719   2.979   5.260 -2.0479  0.6509 -1.3411
 5838TIP3    H217479   5.644   3.090   5.331 -0.0859  0.4362  1.2229
 5839TIP3   OH217480   0.314   5.702   2.534 -0.5376  0.5775 -0.2334
 5839TIP3    H117481   0.219   5.713   2.520 -0.9635 -0.1153  1.8452
 5839TIP3    H217482   0.352   5.782   2.497 -1.8152  0.4488 -1.9626
 5840TIP3   OH217483   6.622   1.474   4.805  0.5000 -0.3094  0.3396
 5840TIP3    H117484   6.609   1.399   4.863 -2.0456 -0.3640 -0.1928
 5840TIP3    H217485   6.573   1.452   4.726  2.7112  0.3977 -1.3234
 5841TIP3   OH217486   0.303   2.396   0.783  0.2904 -0.8182  0.4394
 5841TIP3    H117487   0.332   2.419   0.871  2.1960 -0.4325 -0.2403
 5841TIP3    H217488   0.208   2.387   0.791  0.1687  1.0646  2.1429
 5842TIP3   OH217489   3.420   1.073   1.533 -0.3378  0.3585 -0.6115
 5842TIP3    H117490   3.366   1.004   1.569  0.5771  0.2316  0.5878
 5842TIP3    H217491   3.372   1.154   1.551 -0.0062  0.2758  0.7227
 5843TIP3   OH217492   3.782   3.655   1.554 -0.0885  0.0139  0.2376
 5843TIP3    H117493   3.831   3.715   1.610  0.2830 -1.0972  1.1252
 5843TIP3    H217494   3.754   3.585   1.612  1.8079 -2.0798 -1.2232
 5844TIP3   OH217495   4.417   0.925   5.065 -0.2870 -0.3209 -0.3033
 5844TIP3    H117496   4.339   0.977   5.084 -0.3525 -0.3755 -0.4189
 5844TIP3    H217497   4.383   0.844   5.026 -0.0955  0.5233 -2.3510
 5845TIP3   OH217498   5.739   1.062   3.268  0.3171 -0.1234  0.3435
 5845TIP3    H117499   5.816   1.113   3.294 -1.8074  2.4746  2.2037
 5845TIP3    H217500   5.714   1.098   3.183  0.5913 -0.2515  0.2100
 5846TIP3   OH217501   4.627   0.761   2.765  0.3129 -0.0129  0.3649
 5846TIP3    H117502   4.603   0.679   2.722  1.9665 -0.4800  0.2473
 5846TIP3    H217503   4.616   0.743   2.858  1.6531 -0.7592  0.4091
 5847TIP3   OH217504   2.931   1.175   0.303  0.1866 -0.2106  0.3001
 5847TIP3    H117505   3.014   1.151   0.343  0.6353  0.0528 -0.4580
 5847TIP3    H217506   2.881   1.214   0.374  1.5498  1.6685  0.3124
 5848TIP3   OH217507   2.018   5.949   0.940  0.5246  0.3009 -0.2107
 5848TIP3    H117508   2.112   5.936   0.949  0.9118  0.4156 -3.0276
 5848TIP3    H217509   2.003   6.040   0.966  0.5642 -0.5347  3.2675
 5849TIP3   OH217510   1.010   3.918   1.503  0.2669  1.0549 -0.8522
 5849TIP3    H117511   1.040   3.991   1.556  2.8287 -0.2614 -0.3102
 5849TIP3    H217512   0.990   3.849   1.567  1.9511 -0.0588 -1.4668
 5850TIP3   OH217513   1.676   2.480   3.191  0.2134  0.3321 -0.5175
 5850TIP3    H117514   1.589   2.459   3.159  0.0778 -0.1044  0.1267
 5850TIP3    H217515   1.716   2.531   3.120 -0.3726  0.0898 -1.0286
 5851TIP3   OH217516   4.217   2.710   2.022 -0.1254  0.0889 -0.1678
 5851TIP3    H117517   4.160   2.680   2.094  0.9826 -0.1074  0.6475
 5851TIP3    H217518   4.306   2.695   2.054  0.4463  2.2980 -0.5690
 5852TIP3   OH217519   2.303   0.803   2.352 -0.0954 -0.2535 -0.3720
 5852TIP3    H117520   2.235   0.850   2.304 -0.5424 -0.1858  0.3138
 5852TIP3    H217521   2.305   0.716   2.312 -1.3443 -0.6142  0.3002
 5853TIP3   OH217522   3.285   3.363   2.272  0.4892  0.5158 -0.3336
 5853TIP3    H117523   3.193   3.354   2.297 -0.0011 -1.3708 -2.4487
 5853TIP3    H217524   3.292   3.452   2.237 -0.5172  0.7239 -0.0280
 5854TIP3   OH217525   6.271   2.933   0.749 -0.2488  0.0730 -0.0473
 5854TIP3    H117526   6.282   2.985   0.828 -2.1252 -0.3836  0.5555
 5854TIP3    H217527   6.342   2.962   0.692  1.2911  0.2601  1.8497
 5855TIP3   OH217528   3.505   0.228   0.139 -0.2192 -0.1522 -0.0440
 5855TIP3    H117529   3.541   0.300   0.087  0.3457 -1.2752 -1.2628
 5855TIP3    H217530   3.572   0.160   0.136 -0.5028 -0.5448  1.5520
 5856TIP3   OH217531   4.647   5.140   4.290  0.2210  0.0726 -1.1397
 5856TIP3    H117532   4.742   5.125   4.299  0.2537  1.3130  2.3110
 5856TIP3    H217533   4.609   5.091   4.363 -1.4867  1.7426 -0.8474
 5857TIP3   OH217534   5.088   5.617   2.030  0.3106 -0.8359  0.4311
 5857TIP3    H117535   5.120   5.548   1.972  2.1334  1.1828 -1.1395
 5857TIP3    H217536   5.009   5.649   1.987  1.2789  0.1879 -0.6795
 5858TIP3   OH217537   4.796   4.384   2.968 -0.1373  0.1440  0.4157
 5858TIP3    H117538   4.849   4.460   2.993  2.5326 -1.6065  0.4629
 5858TIP3    H217539   4.796   4.328   3.046  1.2932 -1.6232 -0.7670
 5859TIP3   OH217540   2.643   5.033   1.374  0.1033  0.0560 -0.0595
 5859TIP3    H117541   2.655   5.108   1.315  0.5650  0.5598  0.6626
 5859TIP3    H217542   2.569   4.985   1.337 -0.2226  0.8869 -0.5033
 5860TIP3   OH217543   5.546   6.311   1.850  0.4363 -0.2670 -0.2399
 5860TIP3    H117544   5.488   6.269   1.913  0.5870 -0.0079  0.0768
 5860TIP3    H217545   5.631   6.316   1.894  0.8711 -1.2131 -0.9329
 5861TIP3   OH217546   7.009   6.113   3.670 -0.4737 -0.1173  0.3264
 5861TIP3    H117547   6.958   6.188   3.703  0.8901 -0.1943  2.9191
 5861TIP3    H217548   6.949   6.039   3.677 -1.1764  0.3859 -0.2539
 5862TIP3   OH217549   3.089   2.295   0.661  0.6623 -0.4382  0.2397
 5862TIP3    H117550   3.047   2.250   0.589 -0.2255 -0.8607  1.0133
 5862TIP3    H217551   3.111   2.382   0.625 -1.5268  0.0793  0.0155
 5863TIP3   OH217552   3.332   6.630   2.763 -0.1866  0.4269 -0.2737
 5863TIP3    H117553   3.342   6.613   2.856 -2.5745 -0.1358 -0.0622
 5863TIP3    H217554   3.404   6.581   2.722 -0.1907 -0.8365  1.1461
 5864TIP3   OH217555   5.632   1.603   4.643  0.3215  0.8364 -0.4830
 5864TIP3    H117556   5.568   1.546   4.603 -0.0942  0.4691  0.6609
 5864TIP3    H217557   5.708   1.547   4.660  1.0741  1.3154 -2.0286
 5865TIP3   OH217558   5.033   2.060   3.492 -0.4393  0.1418 -0.0901
 5865TIP3    H117559   5.127   2.072   3.481  0.4153 -2.8531  2.5084
 5865TIP3    H217560   4.998   2.060   3.403  2.2310 -0.2146 -1.2330
 5866TIP3   OH217561   3.752   4.935   0.659 -0.2302  0.1127 -0.7762
 5866TIP3    H117562   3.806   4.863   0.626 -0.5833 -0.7731  0.5112
 5866TIP3    H217563   3.687   4.893   0.715 -0.5025  1.4222 -0.0676
 5867TIP3   OH217564   5.756   3.230   0.493 -0.6178 -0.2626  0.0387
 5867TIP3    H117565   5.778   3.137   0.488  0.1894 -0.2865  2.6699
 5867TIP3    H217566   5.676   3.238   0.441 -0.6142 -2.3699 -0.4102
 5868TIP3   OH217567   4.822   0.833   0.864 -0.6422  0.1809  0.3074
 5868TIP3    H117568   4.814   0.818   0.958 -0.3197 -0.5880  0.2148
 5868TIP3    H217569   4.876   0.760   0.832  1.3088  1.7165 -0.1023
 5869TIP3   OH217570   4.767   3.080   1.784  0.2905 -0.8959 -0.6313
 5869TIP3    H117571   4.778   3.175   1.782  1.5026 -0.9655  1.0532
 5869TIP3    H217572   4.780   3.053   1.693  0.5907  0.4712 -1.0191
 5870TIP3   OH217573   4.064   4.961   3.308 -0.1109  0.1790 -0.6938
 5870TIP3    H117574   4.145   4.932   3.350  0.0081  1.1702 -0.2110
 5870TIP3    H217575   4.087   4.969   3.215  0.3316  0.4058 -0.5663
 5871TIP3   OH217576   1.083   2.839   0.081 -0.3949 -0.2928  0.3244
 5871TIP3    H117577   1.005   2.784   0.073  1.5269 -3.1222 -0.5190
 5871TIP3    H217578   1.119   2.844  -0.008  0.0856  1.5310  0.5698
 5872TIP3   OH217579   0.704   0.468   4.067 -0.4819  0.5126 -0.1861
 5872TIP3    H117580   0.800   0.466   4.070 -0.5048 -0.2073  0.3843
 5872TIP3    H217581   0.684   0.489   3.975  0.2189 -0.2414 -0.5301
 5873TIP3   OH217582   4.498   0.896   5.354  0.0910 -0.0481  0.6078
 5873TIP3    H117583   4.487   0.835   5.281  2.2339 -0.7107  0.7666
 5873TIP3    H217584   4.475   0.981   5.318  0.8586 -0.3991 -0.7928
 5874TIP3   OH217585   1.265   1.935   2.944 -0.0170 -0.2763 -0.0792
 5874TIP3    H117586   1.188   1.979   2.980 -0.0168 -1.4493  1.4752
 5874TIP3    H217587   1.339   1.988   2.973 -0.2108  0.6863 -1.3184
 5875TIP3   OH217588   6.330   4.301   2.953  0.0059  0.0943  0.6092
 5875TIP3    H117589   6.390   4.258   2.892 -1.2530 -0.4521 -0.2681
 5875TIP3    H217590   6.255   4.328   2.900 -0.4127  1.0510  1.6269
 5876TIP3   OH217591   0.153   3.534   3.191 -0.0384 -0.0665 -0.2550
 5876TIP3    H117592   0.157   3.629   3.174 -1.9618  0.0232 -0.4824
 5876TIP3    H217593   0.121   3.497   3.108  0.5583 -0.8969 -0.1151
 5877TIP3   OH217594   3.660   1.666   5.734 -0.5650  0.4924 -0.1708
 5877TIP3    H117595   3.600   1.726   5.689 -0.1394 -0.0067 -1.4652
 5877TIP3    H217596   3.605   1.618   5.795 -1.3815  0.4927 -0.8843
 5878TIP3   OH217597   6.481   3.746   3.256 -0.4338 -0.1422  0.5309
 5878TIP3    H117598   6.497   3.698   3.338  1.3593 -0.2023  0.1748
 5878TIP3    H217599   6.527   3.829   3.268  0.6375 -0.5300 -0.7641
 5879TIP3   OH217600   5.389   2.673   4.174  0.4885 -0.2760  0.9670
 5879TIP3    H117601   5.428   2.631   4.097  0.2146 -0.5324  0.9654
 5879TIP3    H217602   5.300   2.639   4.177  0.1467  0.5746  0.7624
 5880TIP3   OH217603   5.085   5.568   3.296  0.3627  0.5277  0.0288
 5880TIP3    H117604   5.001   5.542   3.256 -0.2628 -0.0304  1.6228
 5880TIP3    H217605   5.144   5.496   3.277  0.3593  0.7166 -0.7191
 5881TIP3   OH217606   6.438   3.516   4.194 -0.2604 -0.1168  0.1765
 5881TIP3    H117607   6.529   3.490   4.184 -0.7035 -1.5157 -0.3218
 5881TIP3    H217608   6.392   3.436   4.216 -1.6085  0.2953 -1.0076
 5882TIP3   OH217609   1.350   2.954   0.382 -0.6851  0.3259  0.6863
 5882TIP3    H117610   1.379   2.863   0.388 -1.3558 -0.0239 -0.8875
 5882TIP3    H217611   1.313   2.972   0.469 -1.2950 -1.1801  0.7821
 5883TIP3   OH217612   2.848   6.452   2.480 -0.2125  0.0918 -0.2690
 5883TIP3    H117613   2.794   6.477   2.555 -0.5748  0.7122 -0.7181
 5883TIP3    H217614   2.932   6.426   2.517 -0.8216 -0.9425  0.4555
 5884TIP3   OH217615   7.001   1.005   5.774  0.3478  0.3421  0.1034
 5884TIP3    H117616   7.027   0.915   5.758  0.7266  0.4231  0.2560
 5884TIP3    H217617   6.919   0.998   5.823  1.5454  0.0388  2.1646
 5885TIP3   OH217618   2.036   4.111   1.296 -0.3364  0.7722  0.3981
 5885TIP3    H117619   1.943   4.087   1.296  0.3642 -2.3833  0.6723
 5885TIP3    H217620   2.053   4.141   1.207 -0.8992 -2.2072 -0.8209
 5886TIP3   OH217621   0.294   2.518   1.720 -0.2043 -0.2663 -0.1432
 5886TIP3    H117622   0.253   2.548   1.801  0.1037  2.3560 -0.8740
 5886TIP3    H217623   0.385   2.548   1.728  0.2520 -1.4238 -0.7872
 5887TIP3   OH217624   5.597   1.593   5.123 -0.1825  0.6663  0.1657
 5887TIP3    H117625   5.568   1.627   5.038  0.1220  0.4238 -0.0363
 5887TIP3    H217626   5.684   1.630   5.135 -0.2438  0.7376  0.3963
 5888TIP3   OH217627   1.228   5.414   5.502  0.6041 -0.3859 -0.7604
 5888TIP3    H117628   1.278   5.349   5.552  1.0357 -0.1841 -0.9216
 5888TIP3    H217629   1.157   5.440   5.560 -1.3054 -3.0844 -1.6977
 5889TIP3   OH217630   2.034   3.280   4.865  0.1681 -0.6236  0.5591
 5889TIP3    H117631   2.119   3.298   4.907  0.1080  0.8302  0.1068
 5889TIP3    H217632   2.051   3.205   4.808  1.0804 -0.5386  0.6980
 5890TIP3   OH217633   5.479   4.490   4.189 -0.1539  0.4345  0.1015
 5890TIP3    H117634   5.446   4.532   4.110 -0.0940 -0.5504 -0.4661
 5890TIP3    H217635   5.570   4.519   4.196  0.6199 -1.3663 -1.5907
 5891TIP3   OH217636   3.780   3.046   3.684  0.1558 -0.4599  0.0394
 5891TIP3    H117637   3.837   3.009   3.616 -0.4490  0.8331 -1.2260
 5891TIP3    H217638   3.696   3.056   3.641 -0.6367 -0.9258  1.4354
 5892TIP3   OH217639   2.360   3.481   0.703  0.2864 -0.2354  0.7624
 5892TIP3    H117640   2.391   3.547   0.765  0.1171  0.0213  0.5729
 5892TIP3    H217641   2.433   3.469   0.642 -0.4276  1.3363 -0.4832
 5893TIP3   OH217642   0.197   0.757   1.320  0.3585 -0.3029 -1.1309
 5893TIP3    H117643   0.167   0.833   1.271  0.3543  0.3738 -0.1213
 5893TIP3    H217644   0.123   0.732   1.375  0.6272 -0.5174 -0.8574
 5894TIP3   OH217645   4.655   0.260   3.664  0.1486 -0.7015 -0.1652
 5894TIP3    H117646   4.642   0.166   3.650 -3.1729 -0.6315  1.4408
 5894TIP3    H217647   4.636   0.273   3.757  0.5956  1.5890 -0.3395
 5895TIP3   OH217648   2.842   3.059   1.421 -0.0607  0.3093 -0.0557
 5895TIP3    H117649   2.778   3.092   1.484  0.6291 -0.8513  1.3173
 5895TIP3    H217650   2.927   3.075   1.462  0.4007 -0.5425 -0.6335
 5896TIP3   OH217651   4.847   1.953   0.216  0.2680  0.3862  0.0919
 5896TIP3    H117652   4.808   1.887   0.274 -3.1668  2.0720  0.0063
 5896TIP3    H217653   4.804   1.939   0.131  0.2940  1.9813 -0.2228
 5897TIP3   OH217654   3.219   1.646   4.771  0.5220  0.1729 -0.2768
 5897TIP3    H117655   3.290   1.696   4.731  1.5750  0.7437  2.0844
 5897TIP3    H217656   3.224   1.560   4.730  2.5333  0.2352 -0.2633
 5898TIP3   OH217657   5.748   2.519   2.759 -0.2659 -0.0733  0.4566
 5898TIP3    H117658   5.658   2.548   2.771 -0.6887 -0.8055 -0.7714
 5898TIP3    H217659   5.767   2.465   2.836 -0.6356  0.6471  1.0522
 5899TIP3   OH217660   3.901   2.378   3.895 -0.4258  0.0867  0.0753
 5899TIP3    H117661   3.987   2.378   3.939 -0.9536 -1.2187  1.1856
 5899TIP3    H217662   3.911   2.316   3.823  0.4984  2.3696 -1.9202
 5900TIP3   OH217663   0.409   5.485   5.244  0.1835  0.0677 -0.5833
 5900TIP3    H117664   0.447   5.569   5.219 -0.1683  0.1648 -0.8043
 5900TIP3    H217665   0.466   5.453   5.314  0.5615  0.2924 -0.7819
 5901TIP3   OH217666   5.949   2.788   2.525 -0.4216 -0.4816  0.0463
 5901TIP3    H117667   6.042   2.765   2.532 -0.2033  0.5053  0.4279
 5901TIP3    H217668   5.925   2.822   2.611 -0.8570  0.2666 -0.3566
 5902TIP3   OH217669   4.536   0.019   0.967  0.1092 -0.0696 -0.1374
 5902TIP3    H117670   4.575  -0.049   0.912  0.3309  0.1524 -0.2585
 5902TIP3    H217671   4.568   0.101   0.929 -1.2235  0.1562 -0.8094
 5903TIP3   OH217672   4.226   1.481   4.844 -0.3163  0.1663  0.0561
 5903TIP3    H117673   4.139   1.514   4.866 -0.0321  0.8218  0.2313
 5903TIP3    H217674   4.256   1.436   4.923 -0.6857 -0.4815 -0.1663
 5904TIP3   OH217675   6.152   0.577   4.641 -0.1098 -0.2211  0.6833
 5904TIP3    H117676   6.066   0.570   4.599 -0.7964  0.2375  1.9608
 5904TIP3    H217677   6.215   0.568   4.569 -1.1861 -1.9519 -0.1171
 5905TIP3   OH217678   1.173   1.984   1.666  0.1670  0.2079  0.0257
 5905TIP3    H117679   1.241   1.960   1.730 -1.5369  0.5513  2.0942
 5905TIP3    H217680   1.188   2.077   1.650  0.1375  0.3129  0.5678
 5906TIP3   OH217681   5.884   2.583   3.988  0.3506  0.4051  0.1165
 5906TIP3    H117682   5.925   2.584   4.074  0.8011  1.0789 -0.0910
 5906TIP3    H217683   5.937   2.521   3.937  1.0465  1.1557 -0.1050
 5907TIP3   OH217684   5.702   0.231   1.522  0.8922  0.0112 -0.1881
 5907TIP3    H117685   5.729   0.316   1.557  1.1743 -0.2046  0.1284
 5907TIP3    H217686   5.608   0.227   1.539  0.6444  0.7433 -1.2403
 5908TIP3   OH217687   2.252   1.887   0.125 -0.2390  0.4282  0.5076
 5908TIP3    H117688   2.305   1.810   0.102 -1.4200 -0.2785  0.0422
 5908TIP3    H217689   2.316   1.958   0.135  0.7215 -0.1402 -1.1031
 5909TIP3   OH217690   2.766   0.893   3.803  0.0787  0.1561  0.3479
 5909TIP3    H117691   2.793   0.902   3.712 -1.8616  0.3719 -0.2404
 5909TIP3    H217692   2.765   0.983   3.837 -0.0909  0.1670  0.3136
 5910TIP3   OH217693   2.075   6.725   1.321 -0.4512  0.2541  0.2838
 5910TIP3    H117694   2.132   6.798   1.344 -0.5638  0.8083 -1.0495
 5910TIP3    H217695   2.017   6.761   1.254  0.5625 -1.4565 -1.6364
 5911TIP3   OH217696   5.213   5.823   3.341 -0.1279 -0.1439  0.2277
 5911TIP3    H117697   5.215   5.815   3.436 -0.1267  1.7411  0.4241
 5911TIP3    H217698   5.173   5.741   3.311  1.0639 -1.3460  1.7338
 5912TIP3   OH217699   4.040   2.857   4.302 -0.2195  0.8072 -0.0756
 5912TIP3    H117700   3.955   2.878   4.264  0.1193  1.4666 -0.5173
 5912TIP3    H217701   4.065   2.774   4.262 -0.8039  0.4357  0.3229
 5913TIP3   OH217702   3.167   1.907   4.895 -0.2853  0.2729  0.6087
 5913TIP3    H117703   3.165   1.814   4.871  1.7640  0.1337  0.8076
 5913TIP3    H217704   3.106   1.913   4.970 -0.5274 -0.8818  0.5361
 5914TIP3   OH217705   6.601   5.558   5.660  0.3553  0.4444 -0.1348
 5914TIP3    H117706   6.556   5.541   5.742  0.5426  2.8262  0.5359
 5914TIP3    H217707   6.534   5.595   5.602  0.3631 -0.6523 -0.8842
 5915TIP3   OH217708   6.231   6.375   5.250 -0.4263  0.2625 -0.3588
 5915TIP3    H117709   6.154   6.408   5.297 -0.5731  0.9314 -1.0299
 5915TIP3    H217710   6.280   6.454   5.226 -0.2109 -0.0733 -1.0625
 5916TIP3   OH217711   4.332   4.069   4.261  0.2026 -0.6860  0.3560
 5916TIP3    H117712   4.251   4.058   4.212 -0.5833  0.6355  1.3319
 5916TIP3    H217713   4.309   4.051   4.352  1.3408 -1.7093  0.4852
 5917TIP3   OH217714   6.852   4.527   5.851 -0.5584  0.3265  0.2191
 5917TIP3    H117715   6.853   4.475   5.931 -0.2062  1.3707  0.9228
 5917TIP3    H217716   6.759   4.536   5.829 -0.6597  0.0865  0.5480
 5918TIP3   OH217717   2.949   1.188   0.777  0.0484  0.2124 -0.2909
 5918TIP3    H117718   2.952   1.263   0.717 -0.5760  0.0533 -0.5373
 5918TIP3    H217719   2.869   1.142   0.752 -0.2063  0.1286  0.6481
 5919TIP3   OH217720   6.158   3.316   0.351 -0.1064 -0.4284 -0.8232
 5919TIP3    H117721   6.140   3.223   0.354 -3.0154 -0.0912 -3.0974
 5919TIP3    H217722   6.198   3.330   0.264 -2.2692  0.7034 -1.7084
 5920TIP3   OH217723   1.747   6.439   5.762  0.4314  0.9262 -0.2310
 5920TIP3    H117724   1.716   6.388   5.687 -2.2854 -0.2695  1.5619
 5920TIP3    H217725   1.730   6.530   5.740 -1.0286  0.5307 -0.8073
 5921TIP3   OH217726   4.158   2.509   5.601  0.1543 -0.2208 -0.8214
 5921TIP3    H117727   4.102   2.469   5.667  0.4605  0.8467  0.1276
 5921TIP3    H217728   4.125   2.475   5.517 -1.7638  0.1771 -0.2885
 5922TIP3   OH217729   3.256   1.760   3.357  0.2214 -0.5684  0.2085
 5922TIP3    H117730   3.202   1.814   3.413  0.1477  0.5049 -0.8545
 5922TIP3    H217731   3.262   1.808   3.275  1.9582 -1.1283 -0.0522
 5923TIP3   OH217732   0.409   4.848   2.684 -0.5006  0.3042  0.5977
 5923TIP3    H117733   0.335   4.848   2.623  0.6001  2.9390 -0.9119
 5923TIP3    H217734   0.486   4.853   2.628  0.7451 -0.7063  2.1738
 5924TIP3   OH217735   1.187   6.255   0.228 -0.1077 -0.5272  0.1431
 5924TIP3    H117736   1.103   6.216   0.202 -0.6041 -0.5761  1.7115
 5924TIP3    H217737   1.248   6.227   0.160 -1.2204 -1.0268 -0.6921
 5925TIP3   OH217738   1.687   1.673   4.613 -0.3111 -0.2305  0.0208
 5925TIP3    H117739   1.653   1.592   4.575 -0.2634  0.0205 -0.5719
 5925TIP3    H217740   1.749   1.705   4.547 -0.6399  0.5016  0.0670
 5926TIP3   OH217741   6.381   3.431   0.151 -0.1943  0.4722  0.3675
 5926TIP3    H117742   6.386   3.522   0.180 -2.1307  0.5437  0.5973
 5926TIP3    H217743   6.436   3.383   0.214  0.4443  1.3919  0.5366
 5927TIP3   OH217744   3.587   4.358   1.694 -0.0948 -0.1976 -0.9558
 5927TIP3    H117745   3.495   4.333   1.688  0.0637 -0.6240 -1.7726
 5927TIP3    H217746   3.620   4.308   1.768 -0.2251 -1.0385 -1.4463
 5928TIP3   OH217747   4.463   5.262   5.364  0.1533 -0.1486 -0.6687
 5928TIP3    H117748   4.440   5.170   5.350 -0.1761 -0.0902 -0.5034
 5928TIP3    H217749   4.491   5.266   5.455 -1.0873  0.1727 -0.2931
 5929TIP3   OH217750   6.459   1.032   0.533  0.3329  0.3819  0.4113
 5929TIP3    H117751   6.542   1.021   0.486  0.3690 -0.4598  0.6495
 5929TIP3    H217752   6.484   1.061   0.620  0.2738  1.8047 -0.0218
 5930TIP3   OH217753   1.077   3.844   4.073 -0.0853  0.2015 -0.7925
 5930TIP3    H117754   1.148   3.848   4.010 -1.1351  1.0103 -1.9621
 5930TIP3    H217755   1.062   3.935   4.098  0.8643 -0.1564  1.3100
 5931TIP3   OH217756   4.650   6.158   5.243 -0.4016 -0.2939  0.6093
 5931TIP3    H117757   4.740   6.158   5.211 -0.9571  0.3278 -1.0439
 5931TIP3    H217758   4.652   6.219   5.317  0.4584 -0.0273  0.3828
 5932TIP3   OH217759   5.961   3.939   2.453  0.1813 -0.0503 -0.2808
 5932TIP3    H117760   5.977   4.030   2.429 -0.3219  0.2789  0.5779
 5932TIP3    H217761   5.990   3.932   2.544 -0.7648 -0.4611  0.0090
 5933TIP3   OH217762   2.363   2.584   0.599 -0.3266  0.4623  0.0130
 5933TIP3    H117763   2.277   2.625   0.599 -0.3398  0.4338 -0.5362
 5933TIP3    H217764   2.400   2.607   0.685 -1.2694 -0.3606  0.6614
 5934TIP3   OH217765   7.094   1.649   0.085 -0.5498  0.5998 -0.0043
 5934TIP3    H117766   7.027   1.644   0.153  0.6047  0.3086  1.1310
 5934TIP3    H217767   7.063   1.719   0.027 -2.2560 -0.0871  0.0039
 5935TIP3   OH217768   6.729   4.048   3.072  0.2198 -0.2080 -0.0706
 5935TIP3    H117769   6.728   4.136   3.035  0.6449 -0.0032  0.4071
 5935TIP3    H217770   6.822   4.024   3.074  0.1002 -0.7020 -0.2826
 5936TIP3   OH217771   7.164   0.777   1.413 -0.2367  0.2630 -0.0010
 5936TIP3    H117772   7.141   0.827   1.491 -0.4131 -0.3134  0.3206
 5936TIP3    H217773   7.089   0.789   1.354 -0.9889 -0.8825  0.6916
 5937TIP3   OH217774   2.236   0.623   5.671 -0.2385 -0.2727 -0.4461
 5937TIP3    H117775   2.154   0.576   5.658  0.7361 -1.8149 -1.3591
 5937TIP3    H217776   2.258   0.657   5.584 -0.1703  0.5806 -0.0995
 5938TIP3   OH217777   2.727   5.732   4.541  0.8157  0.1668 -0.2232
 5938TIP3    H117778   2.681   5.648   4.542  1.5283 -0.2706 -1.5441
 5938TIP3    H217779   2.697   5.776   4.462 -1.5395  2.3794  1.7390
 5939TIP3   OH217780   2.639   6.155   2.674 -0.0732  0.5761 -0.5714
 5939TIP3    H117781   2.554   6.115   2.688 -0.6363  2.3026  1.5049
 5939TIP3    H217782   2.635   6.191   2.586 -1.2228  0.0827 -0.7344
 5940TIP3   OH217783   0.242   6.725   4.674  0.0743 -0.6789  0.4597
 5940TIP3    H117784   0.292   6.747   4.595 -1.4277 -1.2061 -0.6835
 5940TIP3    H217785   0.166   6.677   4.641 -2.2254  1.7182  1.9152
 5941TIP3   OH217786   1.106   5.098   2.941  0.0833 -0.4747  0.1656
 5941TIP3    H117787   1.058   5.094   3.024  0.2774 -0.5823  0.2730
 5941TIP3    H217788   1.052   5.047   2.880  0.7310 -1.7416  0.6256
 5942TIP3   OH217789   2.363   2.330   1.902  0.0087  0.0094 -0.0776
 5942TIP3    H117790   2.360   2.270   1.828  0.5288 -0.6164  0.3986
 5942TIP3    H217791   2.451   2.369   1.897  0.7414 -1.3728  1.2253
 5943TIP3   OH217792   5.882   4.710   0.946  0.1407 -0.7787 -0.6626
 5943TIP3    H117793   5.831   4.739   0.871 -0.7020 -1.0226 -0.1929
 5943TIP3    H217794   5.834   4.634   0.980  0.7693 -0.9624 -0.1671
 5944TIP3   OH217795   4.215   6.764   0.661  0.2753  0.1378 -0.4436
 5944TIP3    H117796   4.200   6.719   0.744  1.5430 -0.2766 -0.4202
 5944TIP3    H217797   4.165   6.846   0.669 -1.8174 -1.0643 -0.3668
 5945TIP3   OH217798   5.407   2.229   1.718 -0.0556  0.1154 -0.1522
 5945TIP3    H117799   5.407   2.134   1.711 -1.1151  0.1201 -0.3637
 5945TIP3    H217800   5.346   2.247   1.791 -0.1990  0.6394 -0.3993
 5946TIP3   OH217801   4.089   3.390   3.085  0.4354 -0.2993 -0.7189
 5946TIP3    H117802   4.050   3.388   2.997  1.3471  2.2340 -1.2921
 5946TIP3    H217803   4.090   3.483   3.108  2.7260 -0.6221  0.8000
 5947TIP3   OH217804   5.124   4.825   2.744  0.0953 -0.2961  0.5009
 5947TIP3    H117805   5.040   4.824   2.699  1.1341 -0.5591 -1.5516
 5947TIP3    H217806   5.151   4.917   2.742 -0.2733 -0.1525  1.4806
 5948TIP3   OH217807   0.281   2.750   4.792 -0.6159  0.0618 -0.1831
 5948TIP3    H117808   0.203   2.699   4.813 -0.1164 -0.7992 -0.3695
 5948TIP3    H217809   0.277   2.762   4.697  0.2016 -1.2143 -0.3906
 5949TIP3   OH217810   0.510   2.333   5.528  0.0965 -0.4361 -0.2183
 5949TIP3    H117811   0.427   2.366   5.563  0.0768 -1.9743  1.3139
 5949TIP3    H217812   0.534   2.262   5.586  2.5967  0.0504 -0.5333
 5950TIP3   OH217813   3.438   6.024   0.507  0.2424  0.5360  0.2584
 5950TIP3    H117814   3.466   6.115   0.506 -1.4094  1.1086  1.6516
 5950TIP3    H217815   3.428   6.000   0.415  3.6767  0.7166 -0.2980
 5951TIP3   OH217816   0.105   1.358   4.512 -0.6656  0.0112  0.5794
 5951TIP3    H117817   0.176   1.421   4.522  0.8913 -1.4920 -0.5396
 5951TIP3    H217818   0.116   1.323   4.424 -2.3789 -0.7881  0.6394
 5952TIP3   OH217819   6.384   1.187   1.788  0.8859 -0.0174 -0.3283
 5952TIP3    H117820   6.300   1.140   1.781  0.6164  0.2268  1.0401
 5952TIP3    H217821   6.443   1.138   1.731 -0.2594 -0.0051 -1.5896
 5953TIP3   OH217822   2.013   4.979   4.992  0.4763 -0.3834 -0.2423
 5953TIP3    H117823   2.051   4.891   4.993  0.6894 -0.3046 -1.0814
 5953TIP3    H217824   2.088   5.038   4.982  0.1243 -0.2663 -2.9172
 5954TIP3   OH217825   1.211   3.142   3.263 -0.1748  0.1470 -0.7528
 5954TIP3    H117826   1.293   3.190   3.270  0.1481 -0.4107 -0.7325
 5954TIP3    H217827   1.232   3.064   3.212 -1.0734  0.8933 -2.3582
 5955TIP3   OH217828   6.722   0.502   1.756 -0.0916 -0.3304  0.4980
 5955TIP3    H117829   6.787   0.441   1.719  2.0786  1.9118  0.3688
 5955TIP3    H217830   6.661   0.517   1.685 -0.6734 -2.2753  0.5203
 5956TIP3   OH217831   3.916   3.328   5.543  0.4775  0.4766 -1.0488
 5956TIP3    H117832   3.921   3.282   5.627 -1.2626  0.6825 -0.8056
 5956TIP3    H217833   3.969   3.407   5.555  1.5445 -0.2722 -0.6922
 5957TIP3   OH217834   0.685   2.647   2.264  0.1890 -0.0706  1.0565
 5957TIP3    H117835   0.660   2.555   2.259  0.2071  0.0031 -1.5725
 5957TIP3    H217836   0.608   2.694   2.232  0.1811  0.8807  2.3741
 5958TIP3   OH217837   4.431   3.094   4.063 -0.3485  0.2037 -0.5821
 5958TIP3    H117838   4.516   3.075   4.024 -0.4936 -1.8233 -0.0207
 5958TIP3    H217839   4.447   3.096   4.157 -0.9467 -0.4920 -0.4531
 5959TIP3   OH217840   3.706   3.075   2.520 -0.0983 -0.1689  0.1304
 5959TIP3    H117841   3.760   3.116   2.452  1.1277  0.0379  1.2008
 5959TIP3    H217842   3.627   3.128   2.522  1.8756  3.0747  2.2906
 5960TIP3   OH217843   2.769   1.184   0.524 -0.2218  0.1760 -0.6717
 5960TIP3    H117844   2.716   1.160   0.600  0.7366 -1.6693 -0.5346
 5960TIP3    H217845   2.717   1.250   0.478 -2.1171 -0.7548  0.0466
 5961TIP3   OH217846   4.464   2.500   1.101 -0.6281 -0.1745 -0.1195
 5961TIP3    H117847   4.372   2.524   1.092  0.0372  3.3721  1.0270
 5961TIP3    H217848   4.510   2.552   1.034  0.6843 -0.8240  0.2276
 5962TIP3   OH217849   4.547   0.236   2.744  0.5929 -0.0383 -0.2672
 5962TIP3    H117850   4.590   0.151   2.755 -0.6357 -0.5906  0.5360
 5962TIP3    H217851   4.506   0.231   2.658 -1.0402 -1.0402  0.5118
 5963TIP3   OH217852   7.159   2.241   0.497 -0.1716 -0.1152 -0.0660
 5963TIP3    H117853   7.069   2.217   0.519 -0.3892  1.6605  1.2985
 5963TIP3    H217854   7.212   2.200   0.565  0.0190 -0.7638 -0.5939
 5964TIP3   OH217855   1.339   0.348   4.703  0.0264  0.1516 -0.5037
 5964TIP3    H117856   1.428   0.363   4.673  0.3248 -1.0826 -0.2792
 5964TIP3    H217857   1.285   0.353   4.624  0.3497  0.4134 -0.7089
 5965TIP3   OH217858   3.562   4.045   3.521 -0.2464  0.9453 -0.1778
 5965TIP3    H117859   3.471   4.058   3.494 -0.0317  1.9183 -0.4686
 5965TIP3    H217860   3.563   3.958   3.560 -0.8370 -0.0288 -2.2223
 5966TIP3   OH217861   0.554   1.620   5.021  0.2661 -0.0623 -0.3770
 5966TIP3    H117862   0.578   1.705   5.059 -0.9631  1.1050 -2.0950
 5966TIP3    H217863   0.496   1.580   5.086 -0.9758  1.4440 -0.5089
 5967TIP3   OH217864   0.119   1.812   2.236 -0.4555  0.1910 -0.2828
 5967TIP3    H117865   0.179   1.882   2.209 -0.5133  0.3927  0.1047
 5967TIP3    H217866   0.034   1.838   2.200 -0.6916  0.8451  0.7073
 5968TIP3   OH217867   3.996   5.158   5.734 -0.6961  0.4003  0.2680
 5968TIP3    H117868   3.988   5.080   5.678 -2.4574  1.5884 -1.2716
 5968TIP3    H217869   4.054   5.216   5.685  1.4741 -0.2498  1.8999
 5969TIP3   OH217870   2.707   2.045   1.265 -0.3856  0.7135 -0.2100
 5969TIP3    H117871   2.757   1.964   1.261 -0.6709  0.5895 -1.7565
 5969TIP3    H217872   2.755   2.107   1.211 -1.1678  1.0000 -0.5973
 5970TIP3   OH217873   6.050   5.709   0.589  0.0001  0.7104  0.1269
 5970TIP3    H117874   6.051   5.788   0.644 -2.4316  1.0310 -0.1974
 5970TIP3    H217875   6.063   5.742   0.500  1.5860  0.4242  0.2165
 5971TIP3   OH217876   1.923   0.665   1.435 -0.0214 -0.2702  0.6153
 5971TIP3    H117877   1.839   0.619   1.437  0.3443 -0.9362  1.7911
 5971TIP3    H217878   1.929   0.708   1.521 -0.2440  1.8381 -0.3597
 5972TIP3   OH217879   6.912   4.151   4.874 -0.1742 -0.6985  0.5274
 5972TIP3    H117880   6.884   4.067   4.837  0.7762 -0.7855 -0.0380
 5972TIP3    H217881   6.896   4.215   4.804  1.4912 -0.8384 -0.0254
 5973TIP3   OH217882   0.212   4.635   5.155  0.0527  0.6565 -0.2990
 5973TIP3    H117883   0.297   4.678   5.155  0.5093 -0.0239 -3.0660
 5973TIP3    H217884   0.193   4.619   5.062 -2.1669 -1.0079  0.3387
 5974TIP3   OH217885   2.885   3.559   2.528 -0.6657  0.0266 -0.0752
 5974TIP3    H117886   2.873   3.608   2.609  0.0630  2.4291 -1.3278
 5974TIP3    H217887   2.817   3.592   2.469 -1.4745 -2.0040 -0.3632
 5975TIP3   OH217888   5.888   6.436   0.372  0.1268  0.2569 -0.1974
 5975TIP3    H117889   5.806   6.432   0.323  0.4064  0.9676 -0.7460
 5975TIP3    H217890   5.930   6.516   0.341  1.0737 -0.1504  0.0109
 5976TIP3   OH217891   4.300   2.609   3.101 -0.0427  0.1803 -0.4594
 5976TIP3    H117892   4.391   2.609   3.130 -0.5336 -0.4384  1.2587
 5976TIP3    H217893   4.259   2.539   3.153 -1.7075  1.1661 -0.3859
 5977TIP3   OH217894   0.453   6.164   4.483  0.1014  0.0398 -0.4290
 5977TIP3    H117895   0.434   6.258   4.481 -0.7671 -0.1101  0.1550
 5977TIP3    H217896   0.529   6.156   4.540 -0.3437  0.3188  0.2195
 5978TIP3   OH217897   3.209   0.924   1.609  0.0888 -0.0038  0.3179
 5978TIP3    H117898   3.206   0.910   1.514 -1.0895  0.5942  0.2517
 5978TIP3    H217899   3.123   0.960   1.631 -0.0212 -1.0477  1.7679
 5979TIP3   OH217900   3.837   2.289   2.141 -0.3330  0.3479  0.3696
 5979TIP3    H117901   3.890   2.360   2.178  1.3173 -0.9904  0.7243
 5979TIP3    H217902   3.814   2.235   2.216 -0.5440 -0.1460 -0.0460
 5980TIP3   OH217903   3.644   1.659   2.072  0.2135 -0.5876  0.3656
 5980TIP3    H117904   3.642   1.754   2.055  2.2783 -0.3899  0.9689
 5980TIP3    H217905   3.595   1.621   1.998 -0.8159  0.9252  0.2076
 5981TIP3   OH217906   3.146   4.852   0.462 -0.6899  0.1109 -0.1052
 5981TIP3    H117907   3.128   4.805   0.544 -1.8918 -0.9029 -0.9186
 5981TIP3    H217908   3.061   4.860   0.420 -0.2711  1.7043 -0.7059
 5982TIP3   OH217909   3.113   4.924   1.281  0.1790  0.2519 -0.2543
 5982TIP3    H117910   3.114   4.910   1.376 -0.0969  1.7169 -0.0092
 5982TIP3    H217911   3.052   4.997   1.268 -1.1651 -1.0351 -1.7407
 5983TIP3   OH217912   0.758   6.749   3.140  0.4533  0.6252 -0.0897
 5983TIP3    H117913   0.785   6.670   3.187 -0.2488  0.3355 -0.1610
 5983TIP3    H217914   0.824   6.760   3.071  1.4588  1.0145  0.9043
 5984TIP3   OH217915   1.168   2.613   0.298  0.0438 -0.3740 -0.0712
 5984TIP3    H117916   1.260   2.606   0.324  0.5129 -0.0481 -1.5023
 5984TIP3    H217917   1.165   2.691   0.242 -0.3894 -2.1245 -2.6967
 5985TIP3   OH217918   4.202   6.698   5.790  0.6125  0.2370 -0.1283
 5985TIP3    H117919   4.202   6.756   5.867 -0.6863  0.0135  0.0643
 5985TIP3    H217920   4.110   6.683   5.771  0.9211 -0.5706 -1.1005
 5986TIP3   OH217921   1.331   5.436   4.957 -0.2159 -0.3727  0.2070
 5986TIP3    H117922   1.301   5.349   4.929 -0.8595  0.4828 -1.8798
 5986TIP3    H217923   1.293   5.446   5.045  0.9584 -2.6867  1.0913
 5987TIP3   OH217924   4.313   0.545   1.483  0.4153 -0.3301 -0.1262
 5987TIP3    H117925   4.355   0.591   1.410  0.8625 -0.8114 -0.1771
 5987TIP3    H217926   4.357   0.460   1.487  1.6329  0.3345  1.8327
 5988TIP3   OH217927   7.053   1.752   1.116  0.1003  0.4359  0.1621
 5988TIP3    H117928   7.101   1.694   1.176  0.0021 -2.9379 -2.6631
 5988TIP3    H217929   7.110   1.828   1.105  1.1854  0.0683  2.6443
 5989TIP3   OH217930   1.148   0.529   0.570 -0.1947 -0.0666  0.2891
 5989TIP3    H117931   1.106   0.582   0.502 -0.0585 -1.1340 -0.6635
 5989TIP3    H217932   1.147   0.584   0.648 -1.8624  0.5698 -0.1426
 5990TIP3   OH217933   0.277   2.405   1.309 -0.1202  0.3559  0.5502
 5990TIP3    H117934   0.368   2.411   1.339 -0.4439  0.1138  1.6407
 5990TIP3    H217935   0.232   2.478   1.351 -0.4901  0.3300  0.2112
 5991TIP3   OH217936   1.384   0.026   5.770 -0.3496  0.0570  0.2022
 5991TIP3    H117937   1.349   0.103   5.725 -0.4816 -0.6943 -1.0234
 5991TIP3    H217938   1.441   0.062   5.838 -2.9405  1.3261  1.8855
 5992TIP3   OH217939   7.029   3.645   1.347 -0.0457 -0.1999  0.1483
 5992TIP3    H117940   7.075   3.637   1.431  1.4864 -0.3545 -0.6609
 5992TIP3    H217941   7.093   3.616   1.282 -1.0521  0.3142 -1.1200
 5993TIP3   OH217942   2.421   5.412   1.367 -0.1777 -0.3740 -0.3928
 5993TIP3    H117943   2.460   5.356   1.434  0.4975  1.1635  0.5532
 5993TIP3    H217944   2.352   5.358   1.328  0.4673 -1.8627  0.4436
 5994TIP3   OH217945   5.022   2.417   2.080 -0.0726  0.1495  0.5349
 5994TIP3    H117946   4.985   2.482   2.021 -0.3133  0.4447  1.0077
 5994TIP3    H217947   4.979   2.433   2.164 -0.2437 -0.7133  0.6214
 5995TIP3   OH217948   3.492   2.041   3.895  0.4685 -0.8541 -0.5498
 5995TIP3    H117949   3.578   2.016   3.862  1.9093  0.1184  2.1118
 5995TIP3    H217950   3.439   1.962   3.887  1.9349 -1.8195 -1.2439
 5996TIP3   OH217951   0.669   0.303   2.562  0.6731 -0.1693 -0.5664
 5996TIP3    H117952   0.584   0.261   2.550  0.3880  0.4955 -0.9196
 5996TIP3    H217953   0.649   0.397   2.565  1.2645 -0.0699  0.5031
 5997TIP3   OH217954   3.028   5.250   0.125  0.8330 -0.0549 -0.2394
 5997TIP3    H117955   3.044   5.192   0.051 -2.6226 -2.7109  0.8270
 5997TIP3    H217956   3.057   5.200   0.201 -2.6116 -0.8338  0.7438
 5998TIP3   OH217957   4.901   4.770   3.302 -0.9827 -0.5419 -0.2921
 5998TIP3    H117958   4.902   4.856   3.344  1.8716 -0.2530 -0.7231
 5998TIP3    H217959   4.873   4.787   3.212  0.1101  0.0779 -0.5369
 5999TIP3   OH217960   1.194   0.098   2.000  0.1049  0.3344 -0.0590
 5999TIP3    H117961   1.099   0.092   1.999  0.1170  0.1281  0.0012
 5999TIP3    H217962   1.219   0.102   1.908  0.1462 -1.3740 -0.1353
 6000TIP3   OH217963   5.245   3.439   2.592  0.1611 -0.0038 -0.4696
 6000TIP3    H117964   5.213   3.528   2.578  0.5249  0.0960 -0.6750
 6000TIP3    H217965   5.231   3.395   2.508  2.3853  0.6071 -1.2134
 6001TIP3   OH217966   6.232   5.660   3.271  0.3687  0.4055  0.1825
 6001TIP3    H117967   6.280   5.596   3.220  1.5188  0.8118  0.7185
 6001TIP3    H217968   6.257   5.643   3.362  0.6468  1.5551  0.3398
 6002TIP3   OH217969   1.257   5.023   0.417  0.2512 -0.0455  0.1412
 6002TIP3    H117970   1.340   5.045   0.460  0.3660 -0.0336 -0.0880
 6002TIP3    H217971   1.202   5.100   0.429 -0.0878 -0.4243  1.1822
 6003TIP3   OH217972   3.820   6.460   3.333 -0.1795 -0.5352  0.5164
 6003TIP3    H117973   3.799   6.533   3.391  0.6508  0.6917 -0.6479
 6003TIP3    H217974   3.816   6.382   3.389  0.9096  0.6132  2.2727
 6004TIP3   OH217975   1.906   2.206   4.614 -0.2161  0.1359  0.0682
 6004TIP3    H117976   1.940   2.119   4.594  1.2519  0.5574  0.6000
 6004TIP3    H217977   1.926   2.218   4.707  1.4529  1.8092 -0.4499
 6005TIP3   OH217978   6.768   3.486   3.581 -0.1331  0.4556 -0.3950
 6005TIP3    H117979   6.861   3.467   3.590  0.9908  4.6742 -0.9506
 6005TIP3    H217980   6.724   3.407   3.614  3.5539 -1.7400 -0.1734
 6006TIP3   OH217981   0.123   2.345   5.548  0.2771  0.0150  0.3171
 6006TIP3    H117982   0.204   2.365   5.597  0.0750  1.3515  0.1537
 6006TIP3    H217983   0.104   2.426   5.501 -0.8261 -0.4949 -0.1328
 6007TIP3   OH217984   6.730   6.577   2.301  0.7961 -0.0363  0.2407
 6007TIP3    H117985   6.726   6.583   2.396 -0.6325 -3.3032  0.5132
 6007TIP3    H217986   6.641   6.553   2.274  1.2963  0.2676 -1.8681
 6008TIP3   OH217987   2.419   4.762   4.176 -0.3851  0.1320 -0.0685
 6008TIP3    H117988   2.392   4.848   4.208 -0.4956  0.3167 -0.6585
 6008TIP3    H217989   2.490   4.736   4.235 -0.2741  0.6695  0.0423
 6009TIP3   OH217990   6.433   5.518   3.127  0.4123  0.3537 -0.4158
 6009TIP3    H117991   6.508   5.556   3.172  0.9386  0.3516 -1.2640
 6009TIP3    H217992   6.433   5.426   3.153  0.2491  0.5178  0.1748
 6010TIP3   OH217993   6.526   2.336   2.318 -0.0231  0.3946  0.1511
 6010TIP3    H117994   6.567   2.309   2.401  0.6302 -0.7426 -0.5122
 6010TIP3    H217995   6.559   2.425   2.303 -1.3979  1.2626  1.8784
 6011TIP3   OH217996   2.880   1.744   2.813  0.1213 -0.2200 -0.3521
 6011TIP3    H117997   2.967   1.711   2.791  0.4453  0.0302  0.5238
 6011TIP3    H217998   2.851   1.790   2.734  0.5260 -0.8188 -0.8594
 6012TIP3   OH217999   3.432   4.344   3.439 -0.1266 -0.6664 -0.0460
 6012TIP3    H118000   3.342   4.376   3.431  0.2364  0.1076 -1.1418
 6012TIP3    H218001   3.428   4.253   3.409 -0.3276 -0.2644 -1.2760
 6013TIP3   OH218002   5.350   2.948   2.798 -0.3423  0.5009  0.4125
 6013TIP3    H118003   5.279   2.965   2.735  2.0934  2.0106 -2.1236
 6013TIP3    H218004   5.399   2.876   2.759  0.3272  0.3845  1.4491
 6014TIP3   OH218005   0.491   4.195   1.534  0.4817  0.3909  0.7950
 6014TIP3    H118006   0.567   4.250   1.520 -0.1801  1.0068 -0.5929
 6014TIP3    H218007   0.425   4.228   1.472 -0.7008 -0.5088  1.5155
 6015TIP3   OH218008   4.713   5.542   2.492 -0.8287 -0.4619 -0.1257
 6015TIP3    H118009   4.795   5.539   2.443  0.9850  2.3671  2.3794
 6015TIP3    H218010   4.693   5.450   2.511  1.9236 -1.2458 -0.5928
 6016TIP3   OH218011   4.972   4.989   0.943  0.0423 -0.1088 -0.2723
 6016TIP3    H118012   4.942   4.969   1.032 -3.6148 -0.1666 -1.3756
 6016TIP3    H218013   4.986   5.084   0.944 -1.3053  0.1100  0.0614
 6017TIP3   OH218014   4.868   3.826   5.525 -0.0514  0.3573 -0.2999
 6017TIP3    H118015   4.935   3.894   5.516  0.3889  0.0029  0.2109
 6017TIP3    H218016   4.899   3.772   5.598  0.9571 -1.9318 -2.2963
 6018TIP3   OH218017   6.345   4.809   2.158 -0.6195 -0.1615  0.3307
 6018TIP3    H118018   6.355   4.747   2.086  0.5848 -0.2586  0.5671
 6018TIP3    H218019   6.400   4.775   2.228  1.3068  1.9064 -0.0582
 6019TIP3   OH218020   4.560   2.973   5.926 -0.5959 -0.1950 -0.5926
 6019TIP3    H118021   4.470   2.986   5.896 -0.9762  1.1911  0.9535
 6019TIP3    H218022   4.614   2.999   5.851 -1.4614 -0.6534 -1.4027
 6020TIP3   OH218023   6.467   0.943   2.852 -0.1618  0.4311  0.5370
 6020TIP3    H118024   6.396   0.945   2.788 -0.4948 -1.1126  0.8194
 6020TIP3    H218025   6.423   0.926   2.936  0.4928 -0.2915  0.7480
 6021TIP3   OH218026   4.315   3.903   0.276 -0.3356 -0.1897  0.5228
 6021TIP3    H118027   4.244   3.920   0.215  0.9223  2.5247 -0.3450
 6021TIP3    H218028   4.284   3.941   0.359 -0.8152 -1.1249  0.7803
 6022TIP3   OH218029   2.224   1.267   4.349  0.6760 -0.2018  0.1687
 6022TIP3    H118030   2.139   1.277   4.394  0.8609 -1.4125  0.8387
 6022TIP3    H218031   2.284   1.239   4.418  1.3670 -0.4436 -0.5173
 6023TIP3   OH218032   5.338   2.330   5.036 -0.1479 -0.3104 -0.2221
 6023TIP3    H118033   5.309   2.383   5.111  2.7785 -0.4425  1.1487
 6023TIP3    H218034   5.329   2.240   5.065 -1.5921 -0.4727 -1.1207
 6024TIP3   OH218035   2.243   2.176   0.394  0.0170 -0.0865 -0.3902
 6024TIP3    H118036   2.298   2.186   0.316 -0.7060 -0.8344 -1.0070
 6024TIP3    H218037   2.300   2.133   0.457  0.3383 -0.2828 -0.8068
 6025TIP3   OH218038   5.309   0.253   4.849 -0.0120 -0.4105 -0.1842
 6025TIP3    H118039   5.237   0.273   4.790  1.4826  2.8146 -1.1407
 6025TIP3    H218040   5.314   0.327   4.908  2.7121 -0.2826 -0.4190
 6026TIP3   OH218041   4.302   4.820   0.305 -0.2063  0.2524  0.1621
 6026TIP3    H118042   4.226   4.777   0.345 -0.3194  1.5471  1.3999
 6026TIP3    H218043   4.266   4.865   0.228 -0.5961  0.4373  0.4502
 6027TIP3   OH218044   5.453   3.570   4.893 -0.1868  0.3473  0.5324
 6027TIP3    H118045   5.419   3.484   4.869  1.2493  0.3401 -1.8469
 6027TIP3    H218046   5.548   3.557   4.898  0.0216  1.7139  0.4333
 6028TIP3   OH218047   3.408   0.804   4.625 -0.4410 -0.2108  0.2811
 6028TIP3    H118048   3.342   0.829   4.560  1.1810  0.5801 -1.1475
 6028TIP3    H218049   3.418   0.709   4.615  0.2584 -0.0123 -1.1543
 6029TIP3   OH218050   4.293   3.931   5.600 -0.1503  0.1670 -0.4693
 6029TIP3    H118051   4.338   4.014   5.582 -0.4790  0.2957 -0.7093
 6029TIP3    H218052   4.201   3.956   5.614  0.1010  0.1303  1.6873
 6030TIP3   OH218053   0.831   6.540   1.952 -0.1717 -0.2274 -0.2149
 6030TIP3    H118054   0.823   6.445   1.941  1.4154 -0.5444  1.0014
 6030TIP3    H218055   0.906   6.565   1.898  1.3429 -0.2098  1.7790
 6031TIP3   OH218056   4.800   0.560  -0.029  0.5138 -0.1694 -0.4403
 6031TIP3    H118057   4.861   0.528   0.038  0.9052  0.9998 -0.2183
 6031TIP3    H218058   4.770   0.644   0.004 -0.5972 -0.3426 -0.9521
 6032TIP3   OH218059   6.546   0.633   4.305  0.2930  0.0766 -0.7319
 6032TIP3    H118060   6.599   0.699   4.259 -0.4045  0.6026 -0.7924
 6032TIP3    H218061   6.591   0.550   4.289  0.2812  0.3093 -2.0136
 6033TIP3   OH218062   5.822   6.364   3.943  0.1363 -0.3899  0.6101
 6033TIP3    H118063   5.753   6.302   3.919  0.1907 -0.3607  0.3703
 6033TIP3    H218064   5.886   6.356   3.873  1.2120 -1.6737  1.6949
 6034TIP3   OH218065   7.226   6.789   3.908  0.0756  0.1137  0.0679
 6034TIP3    H118066   7.193   6.731   3.840 -0.9313 -0.5550  1.1045
 6034TIP3    H218067   7.157   6.854   3.920  0.6638  0.8082 -0.2054
 6035TIP3   OH218068   0.153   2.279   3.709 -0.4321  0.5670  0.2963
 6035TIP3    H118069   0.224   2.279   3.773 -0.8344  0.7840  0.7468
 6035TIP3    H218070   0.112   2.192   3.718  0.3797  0.0690 -0.6506
 6036TIP3   OH218071   2.564   0.339   3.840 -0.0558 -0.2495  0.3934
 6036TIP3    H118072   2.653   0.363   3.815  0.2073 -1.5057  0.0775
 6036TIP3    H218073   2.521   0.313   3.758 -0.1778 -1.2823  0.7638
 6037TIP3   OH218074   4.129   6.353   2.742 -0.0059 -0.0835  0.2710
 6037TIP3    H118075   4.059   6.350   2.678  0.1374 -1.4138  0.1460
 6037TIP3    H218076   4.111   6.280   2.801  1.1499 -0.3277  0.3544
 6038TIP3   OH218077   5.753   1.459   3.870  0.2096  0.7017  0.4434
 6038TIP3    H118078   5.835   1.478   3.915  0.0292  1.8127  0.3210
 6038TIP3    H218079   5.689   1.450   3.940  0.7648 -2.2270  0.7018
 6039TIP3   OH218080   4.486   5.964   5.638 -0.0914  0.2393  0.4177
 6039TIP3    H118081   4.471   5.913   5.717  1.7999 -0.2760  0.4884
 6039TIP3    H218082   4.401   5.965   5.594 -0.6824 -1.1924  1.4435
 6040TIP3   OH218083   3.362   0.345   5.067  0.0185  0.2947  0.0785
 6040TIP3    H118084   3.382   0.256   5.040  1.0929  0.8628 -1.0799
 6040TIP3    H218085   3.269   0.343   5.090 -0.1597 -0.9417 -0.6946
 6041TIP3   OH218086   0.892   4.300   3.023  0.0001  0.2047 -0.1796
 6041TIP3    H118087   0.972   4.348   3.000  0.4411 -0.1320  0.6066
 6041TIP3    H218088   0.837   4.306   2.945  0.0834  1.8794 -0.1388
 6042TIP3   OH218089   3.973   3.817   5.832  0.5386  0.4323  0.0187
 6042TIP3    H118090   3.927   3.785   5.755 -0.6893  0.3244  0.7776
 6042TIP3    H218091   4.024   3.892   5.800 -2.1883  2.2535 -0.3847
 6043TIP3   OH218092   6.781   3.418   1.290  0.3791  0.1260 -0.2246
 6043TIP3    H118093   6.855   3.473   1.265  0.4930  0.0373 -0.0874
 6043TIP3    H218094   6.723   3.476   1.340 -0.0787  0.4239 -1.0845
 6044TIP3   OH218095   1.304   3.917   3.524  0.5179  0.1407 -0.2107
 6044TIP3    H118096   1.243   3.893   3.455 -1.1659  1.0603  0.9052
 6044TIP3    H218097   1.337   4.003   3.498 -0.5163  0.7250  0.3599
 6045TIP3   OH218098   6.808   3.405   2.435 -0.1408  0.2232  0.3211
 6045TIP3    H118099   6.798   3.451   2.352  0.3737 -0.2590 -0.0218
 6045TIP3    H218100   6.797   3.312   2.412  0.2898  0.0633  0.7370
 6046TIP3   OH218101   1.517   5.802   4.249  0.5455  0.5798 -0.0454
 6046TIP3    H118102   1.571   5.781   4.325  2.8928 -0.1309 -1.7918
 6046TIP3    H218103   1.508   5.720   4.201 -1.9264  0.7437  0.0194
 6047TIP3   OH218104   6.755   6.134   4.245 -0.1977 -0.0525 -0.3459
 6047TIP3    H118105   6.675   6.121   4.193  0.2474  0.8426 -1.2863
 6047TIP3    H218106   6.750   6.226   4.273 -0.7204 -0.6543  1.7395
 6048TIP3   OH218107   3.718   1.677   4.592 -0.3242  0.3879  0.5907
 6048TIP3    H118108   3.665   1.653   4.516 -0.9250  0.9622  0.8218
 6048TIP3    H218109   3.795   1.719   4.554 -0.8139  1.0432  0.3057
 6049TIP3   OH218110   0.516   6.456   0.843  0.5335 -0.2577 -0.0656
 6049TIP3    H118111   0.561   6.538   0.862 -0.5562  0.6982 -1.4196
 6049TIP3    H218112   0.427   6.469   0.877  0.6560 -1.3003  0.6826
 6050TIP3   OH218113   2.447   3.501   3.417  0.1338  0.0394 -0.5121
 6050TIP3    H118114   2.513   3.441   3.381  1.7908  1.1774  0.4825
 6050TIP3    H218115   2.476   3.517   3.507 -1.5550  0.5469 -0.0247
 6051TIP3   OH218116   5.263   2.400   4.550 -0.5039 -0.8083  0.4634
 6051TIP3    H118117   5.326   2.434   4.612  0.1743 -1.2585  0.0345
 6051TIP3    H218118   5.305   2.411   4.464 -1.3831 -0.2709  0.0732
 6052TIP3   OH218119   3.925   2.264   0.482  0.0546 -0.3320  0.0504
 6052TIP3    H118120   3.865   2.313   0.539  0.3352 -0.1945  0.2294
 6052TIP3    H218121   4.011   2.276   0.522  0.2880 -0.0443 -0.5418
 6053TIP3   OH218122   6.037   2.106   2.239 -0.1297  0.6076 -1.0816
 6053TIP3    H118123   5.986   2.148   2.308  0.7047 -0.4422  0.2297
 6053TIP3    H218124   6.105   2.169   2.216 -0.1127  0.7697 -0.5804
 6054TIP3   OH218125   6.497   0.656   1.625  1.0050 -0.0348  1.2720
 6054TIP3    H118126   6.447   0.721   1.674 -1.0268 -0.1887 -0.4436
 6054TIP3    H218127   6.574   0.702   1.594 -0.3245  1.5790  0.2012
 6055TIP3   OH218128   0.685   1.744   3.110 -0.4697  0.3453 -0.1667
 6055TIP3    H118129   0.776   1.714   3.102 -0.5471 -0.1304  0.6303
 6055TIP3    H218130   0.678   1.775   3.200 -1.6533 -1.5362  0.4404
 6056TIP3   OH218131   2.590   3.191   1.270 -0.6065  0.6952 -0.3622
 6056TIP3    H118132   2.571   3.155   1.183 -0.8881  0.3888 -0.1786
 6056TIP3    H218133   2.682   3.218   1.265  1.1001 -3.8992  0.6904
 6057TIP3   OH218134   4.314   3.055   2.642  0.1234 -0.4312  0.8012
 6057TIP3    H118135   4.237   3.048   2.585  0.4640  0.2767  0.2287
 6057TIP3    H218136   4.381   3.003   2.598  0.2387 -0.2893  0.8048
 6058TIP3   OH218137   4.161   3.059   3.636 -0.2981 -0.1810 -0.0167
 6058TIP3    H118138   4.153   3.150   3.663  2.3468  0.1204  0.0137
 6058TIP3    H218139   4.202   3.063   3.549  0.2563 -1.3182  0.1695
 6059TIP3   OH218140   6.853   0.703   1.040 -0.2094  0.1104  0.5513
 6059TIP3    H118141   6.895   0.738   0.962 -3.2326  2.2095 -0.3372
 6059TIP3    H218142   6.807   0.625   1.009 -2.9014  1.9116 -0.4307
 6060TIP3   OH218143   5.273   3.707   2.449  0.1709  0.1149 -0.4882
 6060TIP3    H118144   5.285   3.801   2.458 -2.4694  0.5113 -0.2912
 6060TIP3    H218145   5.263   3.693   2.355  1.3976 -0.1147 -0.5948
 6061TIP3   OH218146   4.901   0.649   3.653 -0.5568 -0.0517  0.0672
 6061TIP3    H118147   4.848   0.700   3.591  2.8408  1.0435 -2.2042
 6061TIP3    H218148   4.962   0.600   3.599  0.0629 -2.1701  2.4864
 6062TIP3   OH218149   5.053   5.344   5.878  0.1074  0.4663 -0.0317
 6062TIP3    H118150   5.023   5.433   5.862 -0.7064  0.0788 -0.8519
 6062TIP3    H218151   4.997   5.290   5.821  0.2547 -0.6055  0.8028
 6063TIP3   OH218152   1.252   0.407   2.754  0.5468  0.3373 -0.0176
 6063TIP3    H118153   1.245   0.328   2.701  0.9095  0.3318 -0.0593
 6063TIP3    H218154   1.289   0.472   2.695  2.8417 -0.1830  0.7170
 6064TIP3   OH218155   6.467   5.588   1.931 -0.0632 -0.0337 -0.3012
 6064TIP3    H118156   6.443   5.551   1.846  1.8287  1.0416 -1.3575
 6064TIP3    H218157   6.491   5.513   1.985 -0.0504 -0.6312 -1.1361
 6065TIP3   OH218158   6.726   4.063   0.028  0.2870  0.6320  0.5649
 6065TIP3    H118159   6.748   3.970   0.034 -1.3024  0.2914  4.1405
 6065TIP3    H218160   6.792   4.107   0.082  2.2637  1.9966 -2.7194
 6066TIP3   OH218161   6.520   5.991   1.043  0.3378 -0.0074  0.3909
 6066TIP3    H118162   6.582   6.053   1.080  0.6413  0.1751 -0.4016
 6066TIP3    H218163   6.573   5.934   0.988 -0.2295  0.3179 -0.5111
 6067TIP3   OH218164   0.941   1.821   5.353  0.2263  0.1421  0.1174
 6067TIP3    H118165   0.968   1.757   5.287  2.6396  0.5172  0.6450
 6067TIP3    H218166   0.888   1.770   5.415  0.2419 -0.8236 -0.6242
 6068TIP3   OH218167   0.003   2.871   5.483 -0.4106  0.1442  0.3710
 6068TIP3    H118168   0.065   2.839   5.418 -1.8016 -1.0051 -0.4483
 6068TIP3    H218169  -0.032   2.951   5.446 -1.5491 -0.7518 -0.5860
 6069TIP3   OH218170   5.225   3.769   1.110  0.3778  0.3952  0.1529
 6069TIP3    H118171   5.298   3.749   1.169  0.4646  3.5494  1.3397
 6069TIP3    H218172   5.267   3.811   1.034 -0.0601  1.0294  0.2501
 6070TIP3   OH218173   2.658   6.325   5.633  0.1871 -0.2930  0.2179
 6070TIP3    H118174   2.637   6.412   5.667  0.7168  0.9767 -2.4512
 6070TIP3    H218175   2.574   6.287   5.610  0.0816  1.2639 -2.3886
 6071TIP3   OH218176   2.332   3.616   4.545  0.0386  0.0646 -0.3422
 6071TIP3    H118177   2.268   3.683   4.568  0.4179 -0.0931  1.2698
 6071TIP3    H218178   2.364   3.583   4.629  0.6216 -1.4123 -1.1034
 6072TIP3   OH218179   2.173   3.588   2.346  0.3624  0.3527  0.5126
 6072TIP3    H118180   2.139   3.517   2.399 -0.7102 -0.2110 -0.8734
 6072TIP3    H218181   2.167   3.556   2.256 -0.4402  2.2834 -0.1732
 6073TIP3   OH218182   4.027   5.188   4.593  0.2124  0.2976 -0.2927
 6073TIP3    H118183   4.107   5.241   4.593 -0.3203  1.1226 -1.0250
 6073TIP3    H218184   3.976   5.221   4.519  0.8846 -2.7943 -2.3352
 6074TIP3   OH218185   5.528   4.663   0.833 -0.1716 -0.0918 -0.3754
 6074TIP3    H118186   5.601   4.685   0.775 -0.9812  1.1886 -0.9635
 6074TIP3    H218187   5.521   4.738   0.892 -0.1358 -0.8374  0.6070
 6075TIP3   OH218188   6.369   2.943   1.638  0.1196  0.0535 -0.4110
 6075TIP3    H118189   6.363   2.908   1.727 -0.2571  0.5245 -0.2402
 6075TIP3    H218190   6.440   2.895   1.597  0.7453  0.2959  0.3649
 6076TIP3   OH218191   3.208   0.855   0.626 -0.2512 -0.4439 -0.1584
 6076TIP3    H118192   3.115   0.860   0.649  0.2082 -0.2598  1.8585
 6076TIP3    H218193   3.242   0.941   0.651  0.2114  0.0286 -2.2626
 6077TIP3   OH218194   6.520   4.207   0.152  0.7687  0.0748 -0.2754
 6077TIP3    H118195   6.551   4.191   0.241  0.0829 -0.6979 -0.1545
 6077TIP3    H218196   6.594   4.185   0.096  1.1426  0.3813  0.0975
 6078TIP3   OH218197   2.823   4.942   5.761 -0.1996 -0.1392 -0.0589
 6078TIP3    H118198   2.806   4.848   5.760  0.5620 -0.4166  3.1024
 6078TIP3    H218199   2.919   4.948   5.754 -0.0796  0.2314  1.4965
 6079TIP3   OH218200   6.758   0.465   3.076  0.6054 -0.5330  0.3619
 6079TIP3    H118201   6.842   0.481   3.031  1.0202  0.1489  1.3365
 6079TIP3    H218202   6.692   0.474   3.007  1.3089 -0.8766 -0.3834
 6080TIP3   OH218203   4.235   4.646   3.631  0.4005  0.2875 -0.3267
 6080TIP3    H118204   4.157   4.679   3.586 -0.0440 -0.9584 -0.5026
 6080TIP3    H218205   4.302   4.641   3.563 -0.0213 -0.7550 -0.6954
 6081TIP3   OH218206   2.049   5.692   2.844  0.1090  0.1961  0.1829
 6081TIP3    H118207   1.968   5.641   2.850  1.7683 -2.6085  0.4427
 6081TIP3    H218208   2.059   5.709   2.750 -0.1300 -0.5910  0.0068
 6082TIP3   OH218209   4.167   5.533   2.498  0.2503 -0.3940  0.1715
 6082TIP3    H118210   4.088   5.488   2.469  0.0934  1.0322 -1.7884
 6082TIP3    H218211   4.167   5.616   2.450  1.6047  0.7930  2.0915
 6083TIP3   OH218212   4.208   2.680   4.678 -0.0586  0.3196  0.2028
 6083TIP3    H118213   4.289   2.646   4.715 -0.6967 -2.5987 -0.8222
 6083TIP3    H218214   4.228   2.693   4.585 -0.4697  0.6044  0.1502
 6084TIP3   OH218215   1.606   5.113   5.145 -0.2187 -0.1336  0.6306
 6084TIP3    H118216   1.638   5.159   5.068 -1.0761  1.3921  1.1307
 6084TIP3    H218217   1.685   5.080   5.189  0.2860 -0.8383 -0.7433
 6085TIP3   OH218218   0.882   6.157   0.821  0.2894  0.5432  0.7724
 6085TIP3    H118219   0.892   6.086   0.757 -0.8824  1.2134 -0.1904
 6085TIP3    H218220   0.970   6.194   0.829  0.8080 -0.6547  0.8852
 6086TIP3   OH218221   6.415   4.347   4.580 -0.5179  0.1714  0.0981
 6086TIP3    H118222   6.455   4.352   4.666 -0.9926  1.4978  0.2593
 6086TIP3    H218223   6.324   4.321   4.597 -1.2330  2.5585  0.2251
 6087TIP3   OH218224   6.343   2.810   4.317 -0.3647 -0.2993  0.0900
 6087TIP3    H118225   6.263   2.774   4.357 -0.4272 -0.3441 -0.0768
 6087TIP3    H218226   6.341   2.903   4.340 -0.2438 -0.3861  0.4539
 6088TIP3   OH218227   4.925   4.474   1.514 -0.2397  0.4243  0.0828
 6088TIP3    H118228   5.010   4.441   1.486 -0.3880 -0.0779  0.2210
 6088TIP3    H218229   4.927   4.567   1.490  0.2384  0.3558 -0.1635
 6089TIP3   OH218230   0.269   5.064   1.671  0.0094 -0.1674  0.1815
 6089TIP3    H118231   0.272   5.004   1.597  0.9144  1.1454 -0.8832
 6089TIP3    H218232   0.185   5.045   1.713  0.4383 -2.4323  0.1371
 6090TIP3   OH218233   6.177   2.893   4.015  0.4978 -0.1443 -0.7736
 6090TIP3    H118234   6.225   2.961   4.061 -0.6540  1.5382 -1.9496
 6090TIP3    H218235   6.086   2.902   4.045  0.1757 -0.6049 -1.5636
 6091TIP3   OH218236   1.240   0.766   0.323 -0.1476 -0.3917 -0.1017
 6091TIP3    H118237   1.220   0.705   0.252 -1.0659  0.6930 -0.8150
 6091TIP3    H218238   1.313   0.818   0.290  0.7938 -1.2421  0.6019
 6092TIP3   OH218239   0.079   0.855   2.491  0.1565  0.6578  0.2440
 6092TIP3    H118240   0.019   0.917   2.532 -0.1346  1.4588 -1.3009
 6092TIP3    H218241   0.051   0.852   2.399  0.3158 -1.6104  0.2177
 6093TIP3   OH218242   6.857   6.071   4.984  0.1094 -0.3330  0.3606
 6093TIP3    H118243   6.894   6.065   5.072  0.6560  1.4632  0.2987
 6093TIP3    H218244   6.763   6.077   4.997  0.1035 -1.1820  0.7475
 6094TIP3   OH218245   1.500   3.708   5.336  0.8099 -0.2506 -0.3029
 6094TIP3    H118246   1.567   3.640   5.342  2.5824  1.4390  0.2621
 6094TIP3    H218247   1.540   3.776   5.281 -0.1228  1.1446  0.6796
 6095TIP3   OH218248   4.904   5.332   2.173 -0.4230  0.6072 -0.0137
 6095TIP3    H118249   4.891   5.420   2.206  0.5663  0.5812  0.4968
 6095TIP3    H218250   4.831   5.317   2.114 -0.6633  1.7252 -0.0197
 6096TIP3   OH218251   5.024   3.148   2.396 -0.4345  0.3117  0.2027
 6096TIP3    H118252   5.054   3.233   2.365 -0.8756  0.0415 -1.0085
 6096TIP3    H218253   5.102   3.092   2.392  0.0368  0.8136  1.6962
 6097TIP3   OH218254   3.860   0.942   2.927 -0.0049  0.1050  0.6592
 6097TIP3    H118255   3.887   0.955   2.836  0.9085  0.4832  0.9722
 6097TIP3    H218256   3.924   0.879   2.962 -0.6217 -0.3922  0.9222
 6098TIP3   OH218257   5.270   0.823   3.637 -0.2062 -0.0606 -0.1911
 6098TIP3    H118258   5.292   0.735   3.609 -1.7261 -0.3569 -0.5709
 6098TIP3    H218259   5.178   0.817   3.665  0.7555  0.5351  3.5225
 6099TIP3   OH218260   6.524   0.262   5.003  0.0852  0.1502  0.1684
 6099TIP3    H118261   6.498   0.307   5.084  1.5961  0.0525  0.7513
 6099TIP3    H218262   6.444   0.221   4.971 -0.3892 -0.5057  2.0817
 6100TIP3   OH218263   1.137   1.425   3.001 -0.3219  0.6874 -0.0771
 6100TIP3    H118264   1.138   1.332   3.022 -1.1616  0.5394 -0.6290
 6100TIP3    H218265   1.229   1.451   2.998  0.0154 -0.5396 -1.7355
 6101TIP3   OH218266   3.872   1.543   1.448 -0.2842  0.0957  0.1883
 6101TIP3    H118267   3.965   1.561   1.441  0.0100 -1.4948 -0.1681
 6101TIP3    H218268   3.848   1.505   1.364 -1.5779  1.7426 -0.2505
 6102TIP3   OH218269   2.624   2.462   5.013  0.1173 -0.2349  0.1908
 6102TIP3    H118270   2.668   2.523   4.955 -2.9734 -0.2155 -2.4295
 6102TIP3    H218271   2.584   2.397   4.954  0.6411 -2.9994  2.6491
 6103TIP3   OH218272   6.725   2.234   4.321  0.1483  0.1142 -0.0273
 6103TIP3    H118273   6.634   2.225   4.351  0.0043 -0.5816 -0.6556
 6103TIP3    H218274   6.746   2.150   4.280  0.8649  0.4970 -0.4700
 6104TIP3   OH218275   2.686   1.324   4.208 -0.1779  0.2991 -0.1539
 6104TIP3    H118276   2.645   1.374   4.137 -1.6090  0.6353  0.8650
 6104TIP3    H218277   2.717   1.390   4.269 -1.0916  0.0029  0.6610
 6105TIP3   OH218278   0.443   2.581   1.954 -0.4114  0.1999  0.6459
 6105TIP3    H118279   0.526   2.543   1.924 -0.4794 -0.4653  1.2886
 6105TIP3    H218280   0.467   2.633   2.031 -0.5414  0.2570  0.6481
 6106TIP3   OH218281   2.742   0.282   5.782 -0.0175 -0.0107 -0.5119
 6106TIP3    H118282   2.678   0.353   5.779 -0.3454 -0.2105  0.7864
 6106TIP3    H218283   2.762   0.272   5.876  0.8875 -0.8592 -0.7748
 6107TIP3   OH218284   0.299   3.163   2.152  0.8107 -0.2424 -0.2676
 6107TIP3    H118285   0.312   3.074   2.118  0.3244  0.2704 -1.8893
 6107TIP3    H218286   0.204   3.172   2.159  0.8662  0.0939  0.0485
 6108TIP3   OH218287   1.263   4.011   1.957 -0.0815  0.0129  0.4505
 6108TIP3    H118288   1.282   4.022   1.864 -2.3019 -2.2388 -0.3789
 6108TIP3    H218289   1.346   3.982   1.995  0.2055 -2.0229 -1.4832
 6109TIP3   OH218290   2.590   4.219   5.881  0.2044 -0.0811 -0.0576
 6109TIP3    H118291   2.671   4.261   5.911  0.3217  0.8920 -1.6249
 6109TIP3    H218292   2.576   4.255   5.793 -2.0502 -0.0698  0.2629
 6110TIP3   OH218293   2.141   6.765   4.550  0.2121  0.2688  0.4152
 6110TIP3    H118294   2.080   6.778   4.477 -1.5854  1.0198  1.9493
 6110TIP3    H218295   2.126   6.675   4.578  1.2190 -0.1610 -0.3868
 6111TIP3   OH218296   6.711   0.176   3.888 -0.4024 -0.3166  0.3156
 6111TIP3    H118297   6.771   0.236   3.845  0.4775 -1.4622 -0.0979
 6111TIP3    H218298   6.759   0.144   3.964 -1.3561  0.4844  1.2804
 6112TIP3   OH218299   5.401   4.973   4.109  0.5626 -0.0840  0.4384
 6112TIP3    H118300   5.385   5.061   4.076  0.3515 -0.0044  0.7575
 6112TIP3    H218301   5.430   4.985   4.199  2.1698 -0.2379 -0.0236
 6113TIP3   OH218302   1.397   2.626   1.759 -0.1205 -0.5700  0.5664
 6113TIP3    H118303   1.398   2.616   1.664 -0.3057 -0.5766  0.5645
 6113TIP3    H218304   1.318   2.580   1.787 -1.6586  1.8132  0.4442
 6114TIP3   OH218305   0.480   5.301   4.591 -0.0783  0.4202  0.2585
 6114TIP3    H118306   0.442   5.363   4.528 -1.3500 -0.5736  0.0017
 6114TIP3    H218307   0.571   5.290   4.563 -0.2245  1.1099 -0.5094
 6115TIP3   OH218308   1.907   2.860   1.774  0.0913  0.0885 -0.0079
 6115TIP3    H118309   1.901   2.956   1.771 -0.3510  0.2184  2.8869
 6115TIP3    H218310   1.820   2.830   1.748  0.1385  0.4478 -0.6115
 6116TIP3   OH218311   5.908   1.461   5.139 -0.1611 -0.1087 -0.3703
 6116TIP3    H118312   5.834   1.400   5.134  0.0778 -0.5621  1.2378
 6116TIP3    H218313   5.985   1.405   5.137  0.1719  0.3532 -1.8816
 6117TIP3   OH218314   0.352   3.242   0.364  0.7261 -0.2169  0.1451
 6117TIP3    H118315   0.411   3.174   0.397  0.7601 -0.4243 -0.3386
 6117TIP3    H218316   0.368   3.317   0.421 -0.7123 -1.1934  1.9683
 6118TIP3   OH218317   6.339   0.651   5.825  0.3206  0.2761 -0.2557
 6118TIP3    H118318   6.376   0.735   5.799 -1.5724  1.4014  0.4826
 6118TIP3    H218319   6.409   0.608   5.874  0.9554  1.9401  0.3755
 6119TIP3   OH218320   6.127   2.342   5.692  0.1213 -0.1332  0.1423
 6119TIP3    H118321   6.177   2.276   5.739 -0.2991 -0.3522  0.2870
 6119TIP3    H218322   6.080   2.390   5.760 -0.5469 -0.5008 -0.0515
 6120TIP3   OH218323   6.222   3.223   4.920 -0.2664 -0.3045 -0.1123
 6120TIP3    H118324   6.128   3.203   4.923 -0.2322 -1.0591 -2.2118
 6120TIP3    H218325   6.257   3.161   4.856  1.6289  0.1502  0.4353
 6121TIP3   OH218326   0.622   3.154   3.766  0.0878 -0.5706 -0.4225
 6121TIP3    H118327   0.686   3.095   3.806  1.4706 -0.5327 -2.4295
 6121TIP3    H218328   0.551   3.097   3.738  0.8001 -1.1257 -1.1513
 6122TIP3   OH218329   7.050   2.810   0.501 -0.1230 -0.1236  0.4205
 6122TIP3    H118330   7.083   2.738   0.447 -0.8455 -0.1451 -0.0017
 6122TIP3    H218331   7.055   2.777   0.591 -1.3024 -1.0656  0.1672
 6123TIP3   OH218332   2.543   3.847   0.094  0.6228  0.0211  0.4099
 6123TIP3    H118333   2.592   3.774   0.055  1.1703  0.3360  0.5050
 6123TIP3    H218334   2.598   3.877   0.166  0.0713  0.0827  0.8111
 6124TIP3   OH218335   4.164   1.272   1.133  0.6275 -0.0398  0.0650
 6124TIP3    H118336   4.108   1.270   1.211  1.0795  2.1174  0.4952
 6124TIP3    H218337   4.105   1.294   1.061  0.6090  0.4139  0.2160
 6125TIP3   OH218338   0.666   6.172   2.246  0.2719  0.3431 -0.2811
 6125TIP3    H118339   0.665   6.111   2.173  1.3454 -0.0802  0.0365
 6125TIP3    H218340   0.611   6.245   2.218 -1.4886 -1.0084 -0.4343
 6126TIP3   OH218341   4.587   2.954   1.935  0.2158 -0.8087  0.7702
 6126TIP3    H118342   4.609   3.016   2.005 -0.3418 -0.7168  0.8663
 6126TIP3    H218343   4.657   2.966   1.870  1.2899 -1.5795  1.7372
 6127TIP3   OH218344   5.696   5.914   0.048 -0.2722  0.2464  0.3975
 6127TIP3    H118345   5.660   5.843   0.102 -0.7658 -1.6303 -2.2421
 6127TIP3    H218346   5.676   5.994   0.098 -2.7970 -1.1827  1.8645
 6128TIP3   OH218347   5.807   2.255   4.039  0.3946 -0.7748  0.2565
 6128TIP3    H118348   5.898   2.229   4.055 -0.0744 -2.3126  0.6166
 6128TIP3    H218349   5.800   2.260   3.944  1.7823  3.0938  0.1719
 6129TIP3   OH218350   3.203   6.518   5.511 -0.3526 -0.0824 -0.0038
 6129TIP3    H118351   3.147   6.509   5.588  0.3559 -0.0385  0.5226
 6129TIP3    H218352   3.196   6.610   5.486  0.5875  0.2630  0.9260
 6130TIP3   OH218353   3.789   1.451   1.199  0.1363 -0.2746  0.0699
 6130TIP3    H118354   3.725   1.505   1.152  0.0992 -0.1506  0.2627
 6130TIP3    H218355   3.773   1.362   1.167  0.2973 -0.1492 -0.3610
 6131TIP3   OH218356   6.247   0.558   3.890  0.2654 -0.2659 -0.1653
 6131TIP3    H118357   6.326   0.607   3.869 -1.0745  1.3397 -1.7746
 6131TIP3    H218358   6.246   0.554   3.986  1.8345  0.4263 -0.0889
 6132TIP3   OH218359   3.385   6.009   2.270 -0.2249 -0.0142  0.1326
 6132TIP3    H118360   3.375   6.031   2.362  0.6447  2.0791 -0.2344
 6132TIP3    H218361   3.474   5.974   2.262 -0.1584  0.1813  0.0144
 6133TIP3   OH218362   3.014   6.790   2.504 -0.1102  0.4844 -0.2292
 6133TIP3    H118363   2.989   6.857   2.568  0.9382 -0.8361  1.6857
 6133TIP3    H218364   3.003   6.707   2.551  1.0949 -0.5304 -1.6419
 6134TIP3   OH218365   2.009   2.492   0.978 -0.0617  0.1018 -0.2610
 6134TIP3    H118366   1.920   2.525   0.962 -0.0796  0.6166  0.7834
 6134TIP3    H218367   2.049   2.487   0.892 -1.5374 -1.4306 -0.9086
 6135TIP3   OH218368   1.861   4.849   0.459  0.1304  0.2924 -0.4926
 6135TIP3    H118369   1.834   4.769   0.505 -0.7368  0.8917  0.0788
 6135TIP3    H218370   1.949   4.830   0.427  1.3737  0.2976  2.5771
 6136TIP3   OH218371   4.870   5.723   5.487  0.3891 -0.2188  0.2486
 6136TIP3    H118372   4.784   5.682   5.486 -0.1999  0.9613  1.0053
 6136TIP3    H218373   4.926   5.662   5.438 -1.2788 -0.0821 -2.0018
 6137TIP3   OH218374   1.571   5.283   0.011 -0.1869 -0.5479 -0.4191
 6137TIP3    H118375   1.534   5.200   0.040 -0.9828 -0.3195 -0.7597
 6137TIP3    H218376   1.538   5.347   0.074 -0.5311 -0.3165 -0.8312
 6138TIP3   OH218377   5.625   2.660   4.308  0.2106 -0.1374 -0.1777
 6138TIP3    H118378   5.555   2.663   4.242 -1.6162 -0.0731  1.6366
 6138TIP3    H218379   5.679   2.585   4.282  0.5763  0.8850 -2.6358
 6139TIP3   OH218380   5.856   2.185   1.115 -0.2146  0.3603 -0.2599
 6139TIP3    H118381   5.787   2.239   1.154 -0.8312  0.0804 -0.9463
 6139TIP3    H218382   5.934   2.204   1.168 -1.3382 -1.1335  2.0564
 6140TIP3   OH218383   4.712   0.600   4.646  0.1081  0.1946 -0.1585
 6140TIP3    H118384   4.724   0.506   4.631  0.7925  0.3771 -0.8412
 6140TIP3    H218385   4.801   0.633   4.661  0.0194  0.9311 -1.1621
 6141TIP3   OH218386   6.866   4.701   0.593 -0.6235  0.5660  0.1462
 6141TIP3    H118387   6.950   4.743   0.611 -1.1892  1.1467  1.5465
 6141TIP3    H218388   6.817   4.766   0.544 -0.6319  0.6254  0.2333
 6142TIP3   OH218389   1.735   4.595   5.449  0.0553 -0.1432  0.1576
 6142TIP3    H118390   1.692   4.651   5.385 -0.4827 -0.3456  0.3382
 6142TIP3    H218391   1.702   4.507   5.430 -1.6346  0.0430  1.9277
 6143TIP3   OH218392   2.581   0.583   5.357  0.5571  0.3155  0.3847
 6143TIP3    H118393   2.674   0.570   5.340  0.5270  1.1989 -0.5395
 6143TIP3    H218394   2.541   0.498   5.339  1.1889 -0.0949  0.8871
 6144TIP3   OH218395   1.140   3.764   0.181  0.1388  0.4079 -0.0610
 6144TIP3    H118396   1.221   3.812   0.161 -0.3278  0.4546 -2.0093
 6144TIP3    H218397   1.145   3.686   0.126 -1.4604  0.7663 -0.7548
 6145TIP3   OH218398   3.766   1.115   1.753  0.1822 -0.1475 -0.0427
 6145TIP3    H118399   3.716   1.034   1.739  0.3342 -0.2113 -0.2242
 6145TIP3    H218400   3.727   1.154   1.831  1.0993 -1.1808  0.9897
 6146TIP3   OH218401   2.523   6.522   3.646  0.1645 -0.0649 -0.3656
 6146TIP3    H118402   2.468   6.499   3.571 -0.3333 -0.6327  0.1692
 6146TIP3    H218403   2.467   6.575   3.702  0.2990 -0.2923 -0.0175
 6147TIP3   OH218404   2.962   5.227   2.474  0.2925  0.1561  0.7068
 6147TIP3    H118405   2.932   5.142   2.442  1.6241  0.0009 -0.1939
 6147TIP3    H218406   2.942   5.226   2.568  0.5626 -1.2636  0.7625
 6148TIP3   OH218407   5.484   5.093   3.266  0.1334 -0.0652 -0.2060
 6148TIP3    H118408   5.427   5.156   3.310 -0.6797  0.5227 -1.9956
 6148TIP3    H218409   5.500   5.025   3.331 -0.1156  1.2861  1.3208
 6149TIP3   OH218410   0.912   4.546   0.460 -0.3032 -0.3907  0.2414
 6149TIP3    H118411   1.000   4.538   0.423 -0.4259  3.8189 -1.5415
 6149TIP3    H218412   0.855   4.507   0.393 -0.0127  0.5524 -0.5864
 6150TIP3   OH218413   4.769   4.160   2.422  0.1966 -0.1359  0.0695
 6150TIP3    H118414   4.743   4.100   2.492  2.2688 -2.7756 -1.2307
 6150TIP3    H218415   4.863   4.146   2.412  0.7598  3.1946 -0.5638
 6151TIP3   OH218416   0.154   0.144   2.536  0.2208 -0.6596  0.1273
 6151TIP3    H118417   0.149   0.095   2.454  0.5081 -0.0461 -0.2568
 6151TIP3    H218418   0.083   0.208   2.530  0.6135 -0.2278  0.1035
 6152TIP3   OH218419   3.804   2.734   5.361  0.2318  0.0981 -0.0697
 6152TIP3    H118420   3.832   2.703   5.447 -0.2280  1.2504  0.5120
 6152TIP3    H218421   3.873   2.704   5.302  3.1586  3.2748  1.3624
 6153TIP3   OH218422   0.215   4.505   5.712 -0.1859 -0.1149 -0.3365
 6153TIP3    H118423   0.135   4.558   5.710 -0.1356  0.0320  0.9236
 6153TIP3    H218424   0.264   4.538   5.787  1.6030  0.5520 -1.6982
 6154TIP3   OH218425   6.545   3.227   2.432 -0.0804  0.2657 -0.5873
 6154TIP3    H118426   6.517   3.189   2.516  2.3147  0.3168  0.2929
 6154TIP3    H218427   6.573   3.316   2.454  0.7974  0.1998 -1.4068
 6155TIP3   OH218428   1.164  -0.019   1.517  0.2881 -0.0235  0.4357
 6155TIP3    H118429   1.142   0.047   1.582  0.5127 -0.5790  1.0861
 6155TIP3    H218430   1.240   0.017   1.471  0.8443 -0.1291  1.2546
 6156TIP3   OH218431   2.489   1.777   5.279  0.1028 -0.1517 -0.2753
 6156TIP3    H118432   2.488   1.786   5.374 -1.7723  0.9651 -0.3482
 6156TIP3    H218433   2.497   1.683   5.265  0.8563 -0.2978  0.9728
 6157TIP3   OH218434   0.126   3.521   2.889  0.2543 -0.1533  0.1186
 6157TIP3    H118435   0.088   3.545   2.804 -0.0533  1.8952  0.7668
 6157TIP3    H218436   0.210   3.481   2.867 -0.9283 -2.0302 -1.2158
 6158TIP3   OH218437   3.383   4.373   5.867 -0.5507 -0.5709  0.0174
 6158TIP3    H118438   3.460   4.419   5.902 -1.3851  0.8513  0.0799
 6158TIP3    H218439   3.366   4.416   5.783 -1.2196 -0.9368 -0.0410
 6159TIP3   OH218440   5.674   1.984   1.512 -0.1309 -0.1156  0.3278
 6159TIP3    H118441   5.597   1.929   1.500 -0.1896  0.1132 -0.4407
 6159TIP3    H218442   5.649   2.069   1.475  0.9588 -0.4647 -1.3007
 6160TIP3   OH218443   1.715   0.800   0.921 -0.3867 -0.1619 -0.0011
 6160TIP3    H118444   1.620   0.799   0.911 -0.4473  0.2344  0.4928
 6160TIP3    H218445   1.746   0.853   0.848 -0.4938 -0.8377 -0.5396
 6161TIP3   OH218446   6.658   5.911   0.375  0.5273 -0.4597 -0.4784
 6161TIP3    H118447   6.656   5.976   0.446  0.5239 -0.9210 -0.0494
 6161TIP3    H218448   6.604   5.949   0.306 -0.0201 -0.3036  0.0298
 6162TIP3   OH218449   5.156   6.528   3.709  0.3043  0.0466  0.2906
 6162TIP3    H118450   5.141   6.470   3.784  1.6194 -0.3256  0.2810
 6162TIP3    H218451   5.237   6.496   3.670 -0.1304  0.5172 -1.0353
 6163TIP3   OH218452   5.250   1.739   2.709 -0.4350 -0.2686 -0.1881
 6163TIP3    H118453   5.232   1.687   2.787  1.6321 -1.7428 -0.5866
 6163TIP3    H218454   5.290   1.819   2.742  1.1193 -1.1989  0.3059
 6164TIP3   OH218455   0.495   4.021   2.090 -0.4534  0.0997 -0.1518
 6164TIP3    H118456   0.544   4.010   2.009 -0.3468 -0.2845 -0.0382
 6164TIP3    H218457   0.458   3.934   2.108  0.3191 -0.0662  0.7180
 6165TIP3   OH218458   2.639   0.118   4.868  0.1179 -0.1027 -0.0942
 6165TIP3    H118459   2.636   0.043   4.809  2.9122 -0.5708  0.2280
 6165TIP3    H218460   2.555   0.116   4.914 -0.3652 -2.2993 -0.9566
 6166TIP3   OH218461   4.732   4.250   5.551 -0.4272 -0.4167 -0.0097
 6166TIP3    H118462   4.801   4.288   5.496 -2.5317  2.2080 -1.0978
 6166TIP3    H218463   4.713   4.166   5.510  0.2122  0.0909 -1.4284
 6167TIP3   OH218464   4.940   2.342   1.442 -0.3224  0.1425 -0.1230
 6167TIP3    H118465   4.988   2.292   1.376 -1.6107 -2.2657  0.6738
 6167TIP3    H218466   4.991   2.333   1.522 -0.2194  0.6821 -0.1243
 6168TIP3   OH218467   0.327   1.810   3.012 -0.1852  0.4984  0.4198
 6168TIP3    H118468   0.380   1.889   3.023  1.3799 -0.3686 -0.5293
 6168TIP3    H218469   0.362   1.748   3.075 -0.9865  0.3415  0.7198
 6169TIP3   OH218470   1.516   4.919   0.818  0.0739  0.3737 -0.0291
 6169TIP3    H118471   1.428   4.939   0.787  0.0947  1.0746  0.3399
 6169TIP3    H218472   1.551   5.004   0.846  1.7361  0.5332 -2.3284
 6170TIP3   OH218473   1.901   4.465   5.014 -0.1818 -0.4523 -0.1630
 6170TIP3    H118474   1.954   4.413   5.075  1.3099  1.0182 -0.1409
 6170TIP3    H218475   1.905   4.417   4.931  1.9461  0.0162 -0.3905
 6171TIP3   OH218476   1.653   2.199   3.629 -0.5440 -0.6030 -0.0611
 6171TIP3    H118477   1.639   2.285   3.590  1.7304 -0.8569 -1.6311
 6171TIP3    H218478   1.661   2.216   3.723 -0.8777  0.7701 -0.2579
 6172TIP3   OH218479   4.624   2.032   3.791 -0.1968  0.5274 -0.3439
 6172TIP3    H118480   4.608   1.969   3.721 -0.0561 -0.3508  0.3974
 6172TIP3    H218481   4.559   2.012   3.858 -0.5117  1.5407 -0.3232
 6173TIP3   OH218482   5.669   0.248   5.764 -0.6661 -0.4390 -0.9160
 6173TIP3    H118483   5.650   0.216   5.852  0.0996  1.1787 -0.1364
 6173TIP3    H218484   5.604   0.317   5.749 -0.4788 -0.3693 -1.4416
 6174TIP3   OH218485   5.380   3.427   1.029  0.6970 -0.5585 -0.0136
 6174TIP3    H118486   5.291   3.451   1.053 -0.2243 -1.5077 -2.1353
 6174TIP3    H218487   5.376   3.332   1.016  1.7537 -0.4805 -1.0918
 6175TIP3   OH218488   0.838   4.864   1.603  0.0755  0.0175 -0.1012
 6175TIP3    H118489   0.810   4.956   1.603  0.8620  0.2677  0.0955
 6175TIP3    H218490   0.934   4.869   1.605  0.1209 -0.8094 -0.1663
 6176TIP3   OH218491   5.972   2.480   5.530 -0.3197  0.1088 -0.4430
 6176TIP3    H118492   5.883   2.445   5.533  0.2083 -1.4324 -1.6332
 6176TIP3    H218493   6.023   2.419   5.583  0.1317  0.6472 -0.2558
 6177TIP3   OH218494   5.060   4.096   5.646 -0.3784  0.1156  0.5854
 6177TIP3    H118495   5.082   4.127   5.558 -3.0391  2.8546  0.6697
 6177TIP3    H218496   5.130   4.129   5.701  1.4461 -1.8293 -0.4664
 6178TIP3   OH218497   6.925   4.629   2.032  0.1507  0.5838 -0.6708
 6178TIP3    H118498   6.978   4.549   2.045 -0.8637 -0.1500 -0.9175
 6178TIP3    H218499   6.894   4.651   2.119 -1.6718 -0.8144 -0.9107
 6179TIP3   OH218500   4.785   0.494   2.489  0.4799 -0.4332 -0.8423
 6179TIP3    H118501   4.704   0.524   2.531  1.1915  3.3241 -1.7978
 6179TIP3    H218502   4.854   0.511   2.554  0.7958 -1.6129 -0.8345
 6180TIP3   OH218503   6.197   4.244   1.134  0.4375 -0.0575 -0.4802
 6180TIP3    H118504   6.214   4.165   1.186 -0.4474  0.3385  0.4246
 6180TIP3    H218505   6.157   4.210   1.053  1.6849 -0.6574 -0.8783
 6181TIP3   OH218506   5.768   2.690   2.088  0.3093 -0.1165  0.1576
 6181TIP3    H118507   5.722   2.744   2.023 -1.3646 -0.4544  0.9968
 6181TIP3    H218508   5.699   2.663   2.149  1.6794 -0.5689  1.5537
 6182TIP3   OH218509   3.358   4.103   5.067  0.1646 -0.0430 -0.4401
 6182TIP3    H118510   3.298   4.175   5.088 -0.9719 -0.7195 -1.2708
 6182TIP3    H218511   3.439   4.147   5.043  0.8455  0.8422  2.9501
 6183TIP3   OH218512   6.377   3.054   5.166  0.5234 -0.2102 -0.3676
 6183TIP3    H118513   6.434   3.004   5.106 -0.8080 -0.7898 -1.1949
 6183TIP3    H218514   6.309   3.090   5.110  2.3780  4.2759 -0.1789
 6184TIP3   OH218515   0.078   3.744   5.724 -0.0270 -0.1216 -0.2542
 6184TIP3    H118516   0.137   3.708   5.789 -0.8508 -0.1856  0.4824
 6184TIP3    H218517   0.033   3.815   5.769 -0.6330 -0.1869 -0.7385
 6185TIP3   OH218518   4.709   3.536   3.196  0.1265  0.4889 -0.2383
 6185TIP3    H118519   4.693   3.591   3.273 -1.4793  1.3066 -1.0916
 6185TIP3    H218520   4.757   3.461   3.229 -0.2762  0.9651  1.5148
 6186TIP3   OH218521   2.126   6.017   2.124  0.9128  0.1842  0.1685
 6186TIP3    H118522   2.122   5.996   2.031 -1.0892 -1.6480  0.5868
 6186TIP3    H218523   2.076   6.098   2.133  0.6277  0.0643 -0.3123
 6187TIP3   OH218524   4.566   3.238   1.582 -0.3015 -0.1392  0.3242
 6187TIP3    H118525   4.618   3.160   1.600 -0.3131 -0.2217  0.0046
 6187TIP3    H218526   4.477   3.213   1.608 -0.4275 -0.4637 -0.4117
 6188TIP3   OH218527   1.103   3.542   3.928  0.0419  0.1315  0.2348
 6188TIP3    H118528   1.081   3.463   3.878 -0.5311 -0.8547  1.9839
 6188TIP3    H218529   1.030   3.602   3.911  1.1362  0.9111 -2.2157
 6189TIP3   OH218530   4.785   3.046   5.778 -0.2373  0.5719 -0.1710
 6189TIP3    H118531   4.811   2.988   5.707 -1.3216  0.3465 -0.4123
 6189TIP3    H218532   4.829   3.012   5.855 -0.5635 -0.3583 -0.3850
 6190TIP3   OH218533   1.773   6.098   0.350  0.0228  0.2558  0.4202
 6190TIP3    H118534   1.785   6.084   0.257 -0.3807  0.3218  0.3573
 6190TIP3    H218535   1.755   6.192   0.359  0.7525  0.3823  0.6370
 6191TIP3   OH218536   2.109   3.379   1.900  0.0620 -0.0829  0.2366
 6191TIP3    H118537   2.026   3.399   1.943  1.0070 -2.1885  3.3821
 6191TIP3    H218538   2.087   3.312   1.835 -1.0333  1.4189 -1.0237
 6192TIP3   OH218539   4.794   3.690   2.988 -0.2250 -0.1729  0.0853
 6192TIP3    H118540   4.877   3.730   3.010 -0.0839 -0.9696  1.1402
 6192TIP3    H218541   4.764   3.651   3.071 -0.8378 -1.3181 -0.6473
 6193TIP3   OH218542   6.956   1.671   5.266  0.0945 -0.5401 -0.6278
 6193TIP3    H118543   7.047   1.701   5.268 -0.2314  0.4812 -0.6268
 6193TIP3    H218544   6.957   1.595   5.208  0.5614  0.8099 -2.4897
 6194TIP3   OH218545   4.409   5.280   4.217  0.2731 -0.8146 -0.8605
 6194TIP3    H118546   4.485   5.249   4.268  0.2655  0.2417 -0.1826
 6194TIP3    H218547   4.366   5.199   4.188  1.1664 -1.4375 -0.5165
 6195TIP3   OH218548   2.117   6.350   1.981 -0.2658 -0.1404 -0.2456
 6195TIP3    H118549   2.066   6.326   2.059  0.7940 -1.1028  0.1922
 6195TIP3    H218550   2.203   6.374   2.016  0.2699 -0.7382 -1.1263
 6196TIP3   OH218551   5.711   4.824   0.728  0.2098  0.5572 -0.6406
 6196TIP3    H118552   5.643   4.890   0.715 -1.1821 -0.9678 -1.4134
 6196TIP3    H218553   5.774   4.840   0.658  1.4110  2.7869  0.8243
 6197TIP3   OH218554   4.347   4.310   4.099  0.2583  0.1157 -0.0355
 6197TIP3    H118555   4.295   4.280   4.025 -0.2903  0.2822  0.2728
 6197TIP3    H218556   4.366   4.402   4.080 -1.6262  0.7513  0.9714
 6198TIP3   OH218557   5.508   6.335   3.342  0.6182 -0.0629 -0.2231
 6198TIP3    H118558   5.428   6.333   3.291  0.4921  0.7337 -0.0747
 6198TIP3    H218559   5.483   6.306   3.429  0.7771 -1.1531 -0.5320
 6199TIP3   OH218560   1.169   1.472   4.523 -0.0857  0.5147  0.5434
 6199TIP3    H118561   1.206   1.387   4.499 -2.1618  0.1425 -1.6858
 6199TIP3    H218562   1.214   1.535   4.467 -0.8315  0.4074 -0.2051
 6200TIP3   OH218563   4.232   6.150   2.462 -0.4878  0.1318  0.0768
 6200TIP3    H118564   4.205   6.130   2.552  1.4747  0.6859  0.8435
 6200TIP3    H218565   4.244   6.245   2.462 -0.2037  0.0990 -0.6812
 6201TIP3   OH218566   5.201   6.277   3.242 -0.8250  0.3795  1.1626
 6201TIP3    H118567   5.170   6.336   3.173  1.0010  0.0580  0.0110
 6201TIP3    H218568   5.121   6.254   3.291 -2.0078  1.4669 -0.1660
 6202TIP3   OH218569   7.065   3.707   0.197  0.1905 -0.4219 -0.5249
 6202TIP3    H118570   7.048   3.801   0.195 -0.0829 -0.4727 -2.2803
 6202TIP3    H218571   7.053   3.682   0.289 -2.1684  0.8199 -0.4279
 6203TIP3   OH218572   4.204   0.197   1.761  0.6763  0.1129 -0.0325
 6203TIP3    H118573   4.144   0.223   1.830  1.9951 -1.7393  1.9298
 6203TIP3    H218574   4.290   0.228   1.791  1.2250 -0.4083 -1.0203
 6204TIP3   OH218575   2.079   1.544   3.196 -0.0515 -0.3210  0.2655
 6204TIP3    H118576   2.075   1.636   3.170 -0.9800 -0.1408  0.9680
 6204TIP3    H218577   2.026   1.499   3.131  0.1713 -0.3230  0.0832
 6205TIP3   OH218578   0.917   6.336   1.632 -0.2030 -0.0948 -0.2519
 6205TIP3    H118579   0.999   6.309   1.673  0.1996 -0.8343 -1.4803
 6205TIP3    H218580   0.849   6.312   1.695  0.5182  0.5378  0.7881
 6206TIP3   OH218581   2.293   4.513   1.524  0.3767 -0.2048 -0.0024
 6206TIP3    H118582   2.386   4.537   1.526  0.1909  0.5746 -0.6539
 6206TIP3    H218583   2.284   4.461   1.445  0.0690  0.5080 -0.4378
 6207TIP3   OH218584   7.195   1.436   0.420 -0.1068  0.4426 -0.2584
 6207TIP3    H118585   7.175   1.366   0.482  1.9021 -0.5061 -0.6006
 6207TIP3    H218586   7.188   1.516   0.472 -1.3563 -0.0658  0.4177
 6208TIP3   OH218587   3.682   6.724   0.370  0.4558  0.2033 -0.3553
 6208TIP3    H118588   3.590   6.743   0.352  0.3966  0.2372 -0.0163
 6208TIP3    H218589   3.695   6.752   0.460  0.2342 -1.7775  0.3551
 6209TIP3   OH218590   3.537   5.335   4.568 -0.0184 -0.1715  0.2416
 6209TIP3    H118591   3.574   5.414   4.608 -0.6732  0.3462 -0.1389
 6209TIP3    H218592   3.512   5.363   4.479 -1.0293 -0.5687  0.3857
 6210TIP3   OH218593   7.136   0.178   0.973 -0.0604 -0.6958  0.1608
 6210TIP3    H118594   7.101   0.261   1.004  0.5105 -0.3852 -0.0171
 6210TIP3    H218595   7.059   0.123   0.958 -0.5219  0.1728 -0.7989
 6211TIP3   OH218596   0.400   4.171   4.070 -0.6291 -0.1973 -0.8782
 6211TIP3    H118597   0.361   4.084   4.065 -1.0450 -0.2178  1.6798
 6211TIP3    H218598   0.326   4.231   4.068 -0.6001 -0.0833  0.5060
 6212TIP3   OH218599   0.752   1.012   2.987 -0.0559 -0.3121 -0.3034
 6212TIP3    H118600   0.677   1.068   3.005 -1.3721 -2.3618  1.0524
 6212TIP3    H218601   0.729   0.969   2.904 -1.7641 -2.8984  1.3752
 6213TIP3   OH218602   1.001   4.805   1.953  0.0113 -0.3691 -0.1838
 6213TIP3    H118603   1.034   4.858   2.026  1.8976 -1.7099  0.0075
 6213TIP3    H218604   1.012   4.861   1.876 -1.8089  0.9811  0.4516
 6214TIP3   OH218605   6.115   4.204   0.258 -0.0344 -0.8095 -0.1164
 6214TIP3    H118606   6.155   4.153   0.329  0.7177 -0.6160 -0.3911
 6214TIP3    H218607   6.130   4.295   0.282  0.5189 -0.7479 -0.6888
 6215TIP3   OH218608   5.418   6.532   4.404  0.3621 -0.2698  0.5103
 6215TIP3    H118609   5.440   6.580   4.324  0.6292 -2.6294 -0.9183
 6215TIP3    H218610   5.383   6.449   4.373  0.4959 -1.2771  2.8675
 6216TIP3   OH218611   2.148   1.584   3.945 -0.4248  0.2836 -0.5876
 6216TIP3    H118612   2.149   1.491   3.966  3.3105  0.1351 -0.7298
 6216TIP3    H218613   2.131   1.588   3.851  3.3680 -0.7534 -1.5067
 6217TIP3   OH218614   6.609   2.614   2.360  0.6935  0.5073 -0.0818
 6217TIP3    H118615   6.650   2.647   2.440  1.4670 -0.6149  0.0180
 6217TIP3    H218616   6.523   2.656   2.358  1.0095  1.2493  0.8550
 6218TIP3   OH218617   6.678   3.848   5.336  0.0415  0.2494 -0.1594
 6218TIP3    H118618   6.663   3.765   5.382  1.5898  0.8065  1.4988
 6218TIP3    H218619   6.605   3.855   5.274 -2.2913 -0.5403  2.2937
 6219TIP3   OH218620   5.731   0.787   2.687  0.0995  0.2815  0.1719
 6219TIP3    H118621   5.686   0.708   2.657  0.2423 -0.1244  1.0133
 6219TIP3    H218622   5.744   0.773   2.781  0.7670  0.9923  0.1895
 6220TIP3   OH218623   4.264   2.562   2.618 -0.1293  0.2606 -0.6206
 6220TIP3    H118624   4.273   2.581   2.711  1.2907  2.0407 -1.0728
 6220TIP3    H218625   4.312   2.479   2.606  1.8713  1.2876 -0.1493
 6221TIP3   OH218626   4.676   4.910   2.522 -0.2853  0.8642  0.3654
 6221TIP3    H118627   4.599   4.863   2.490  0.1897 -0.2101  0.7444
 6221TIP3    H218628   4.716   4.947   2.443  0.0261 -0.4625 -0.1385
 6222TIP3   OH218629   4.078   6.578  -0.030 -0.8219 -0.3909 -0.3414
 6222TIP3    H118630   4.109   6.494   0.004  0.4928  0.6782  1.2583
 6222TIP3    H218631   4.012   6.607   0.032  0.4125  0.8104  0.4739
 6223TIP3   OH218632   1.108   4.141   1.665 -0.4158  0.1163 -0.1985
 6223TIP3    H118633   1.105   4.236   1.654 -2.2443  0.2756  1.0760
 6223TIP3    H218634   1.200   4.121   1.677  0.0965  1.6164 -1.2954
 6224TIP3   OH218635   1.996   6.120   4.936  0.3063  0.0040 -0.3716
 6224TIP3    H118636   1.940   6.108   5.013  0.3075  0.0165 -0.3689
 6224TIP3    H218637   2.072   6.065   4.954  0.4854  0.3078 -0.1896
 6225TIP3   OH218638   1.353   6.250   5.305  0.1515 -0.4014  0.3481
 6225TIP3    H118639   1.261   6.260   5.327  0.0536 -2.0929  0.8586
 6225TIP3    H218640   1.400   6.294   5.377 -0.2430 -1.1753  1.0949
 6226TIP3   OH218641   5.552   1.413   5.479  0.5642  0.3302  0.2224
 6226TIP3    H118642   5.508   1.335   5.513  2.0010 -1.7807 -2.4104
 6226TIP3    H218643   5.507   1.432   5.397 -0.3257  2.9169  1.2012
 6227TIP3   OH218644   4.046   1.324   3.757 -0.1778 -0.3390  0.4735
 6227TIP3    H118645   3.991   1.389   3.800 -0.1740 -0.2033  0.2776
 6227TIP3    H218646   4.133   1.339   3.791 -0.1005  0.0342  0.1202
 6228TIP3   OH218647   3.029   1.029   3.891 -0.1070  0.0021  0.1294
 6228TIP3    H118648   3.018   0.962   3.823 -2.1303 -0.7864  1.1482
 6228TIP3    H218649   3.016   1.112   3.846  1.1850 -0.3274 -0.9199
 6229TIP3   OH218650   2.901   5.134   0.944  0.0995  0.3035  0.5034
 6229TIP3    H118651   2.992   5.160   0.961  0.3063 -1.0508  1.5927
 6229TIP3    H218652   2.857   5.216   0.922  1.3433  1.1415  1.0100
 6230TIP3   OH218653   3.716   4.861   0.303 -0.2909  0.1733  0.0776
 6230TIP3    H118654   3.663   4.781   0.304  0.0689 -0.1288 -1.5672
 6230TIP3    H218655   3.654   4.930   0.279 -0.2876  0.0919 -0.1781
 6231TIP3   OH218656   6.448   0.267   3.123 -0.0759 -0.3427  0.3833
 6231TIP3    H118657   6.407   0.202   3.066  1.9941 -0.4972 -1.0513
 6231TIP3    H218658   6.527   0.224   3.156  0.5391  0.9120  0.6131
 6232TIP3   OH218659   5.588   6.492   2.464 -0.1777 -0.5416  0.0545
 6232TIP3    H118660   5.566   6.581   2.490 -1.1224 -0.4605 -0.9378
 6232TIP3    H218661   5.657   6.502   2.398 -1.1645 -0.4502 -0.9880
 6233TIP3   OH218662   7.066   2.465   0.131  0.5586 -0.4266  0.0025
 6233TIP3    H118663   6.980   2.434   0.160 -0.7637  2.4909 -0.4176
 6233TIP3    H218664   7.113   2.385   0.107 -0.7657 -2.4321  3.3249
 6234TIP3   OH218665   6.127   4.411   4.465 -0.0516  0.7900  0.1255
 6234TIP3    H118666   6.109   4.495   4.424  1.3760  0.6770 -0.8081
 6234TIP3    H218667   6.066   4.350   4.422 -0.0137  1.0689 -0.3295
 6235TIP3   OH218668   7.235   2.057   2.948  0.0998 -0.2527 -0.2542
 6235TIP3    H118669   7.204   2.111   2.876  0.7734 -0.2741 -0.5678
 6235TIP3    H218670   7.199   1.970   2.931  0.0600 -0.2018 -0.4323
 6236TIP3   OH218671   5.688   3.305   0.957 -0.3620  0.4560  0.2651
 6236TIP3    H118672   5.668   3.226   1.008  0.9530 -0.3955 -0.4573
 6236TIP3    H218673   5.784   3.304   0.950 -0.4149  1.4942 -0.7383
 6237TIP3   OH218674   2.852   1.875   4.673 -0.6674 -0.0563 -0.3460
 6237TIP3    H118675   2.770   1.866   4.624 -0.3623 -0.1019 -0.8638
 6237TIP3    H218676   2.857   1.796   4.727 -0.9802 -0.0343 -0.2841
 6238TIP3   OH218677   4.850   1.469   4.642 -0.1248  0.7843  0.4020
 6238TIP3    H118678   4.755   1.464   4.632 -0.0200  0.4249 -0.4996
 6238TIP3    H218679   4.872   1.560   4.623 -0.2214  0.7164 -0.0448
 6239TIP3   OH218680   0.794   6.066   1.274 -0.2018 -0.3024  0.5648
 6239TIP3    H118681   0.830   5.987   1.235  0.5371 -0.3752  1.3541
 6239TIP3    H218682   0.807   6.134   1.209  1.1077 -0.3961  0.7044
 6240TIP3   OH218683   2.929   2.211   1.908  0.6782  0.0313 -0.0270
 6240TIP3    H118684   2.924   2.237   2.000  2.4368  1.5129 -0.2829
 6240TIP3    H218685   3.001   2.148   1.905 -0.0823 -0.8551 -0.2535
 6241TIP3   OH218686   7.028   3.446   1.926 -0.2921  0.0850  0.4175
 6241TIP3    H118687   6.980   3.527   1.914  0.8375  0.5757 -1.1201
 6241TIP3    H218688   7.105   3.471   1.977 -2.3098 -0.9861  4.3243
 6242TIP3   OH218689   6.514   5.672   4.176 -0.6511 -0.5458 -0.2212
 6242TIP3    H118690   6.459   5.748   4.160 -0.6119 -0.2626  0.9109
 6242TIP3    H218691   6.463   5.598   4.142  0.3334  0.1642 -3.5771
 6243TIP3   OH218692   6.672   0.652   3.282 -0.8721 -0.0331 -0.2072
 6243TIP3    H118693   6.687   0.566   3.244  1.6380  0.4416 -0.4995
 6243TIP3    H218694   6.625   0.635   3.364 -2.7110 -1.3951 -1.4710
 6244TIP3   OH218695   6.344   5.188   5.329 -0.2094 -0.2406  0.0111
 6244TIP3    H118696   6.302   5.117   5.378 -0.5063  0.1299  0.3073
 6244TIP3    H218697   6.350   5.260   5.393  1.6108 -0.5367  0.2177
 6245TIP3   OH218698   4.252   4.875   5.667  0.1289  0.0386  0.1357
 6245TIP3    H118699   4.316   4.918   5.611 -0.1358  2.3585  1.4673
 6245TIP3    H218700   4.173   4.867   5.613  0.9976 -1.3531 -0.9874
 6246TIP3   OH218701   0.161   6.214   0.336  0.4644 -0.4403  0.0105
 6246TIP3    H118702   0.102   6.184   0.405 -0.2886 -2.3475 -1.3822
 6246TIP3    H218703   0.232   6.150   0.335  1.5828  0.7455  0.3722
 6247TIP3   OH218704   5.201   4.808   4.262 -0.5647  0.0662  0.0109
 6247TIP3    H118705   5.243   4.833   4.345  0.5251  1.0741 -0.8109
 6247TIP3    H218706   5.246   4.861   4.196 -1.3623 -0.7796 -1.2410
 6248TIP3   OH218707   1.149   2.016   2.223  0.7122 -0.0699 -0.1312
 6248TIP3    H118708   1.080   1.968   2.268  0.3968  0.5729  0.0853
 6248TIP3    H218709   1.145   1.985   2.132  1.3493 -1.3703  0.2469
 6249TIP3   OH218710   0.042   0.821   3.368 -0.3818 -0.5209 -0.3374
 6249TIP3    H118711  -0.002   0.902   3.341  0.7561 -0.1327 -1.0945
 6249TIP3    H218712   0.135   0.843   3.368 -0.1768 -1.0759  2.0514
 6250TIP3   OH218713   6.455   3.184   3.682  0.1452 -0.0954  1.1348
 6250TIP3    H118714   6.388   3.145   3.739  0.9746 -1.4032  1.2643
 6250TIP3    H218715   6.534   3.134   3.702  0.9446  0.8251  0.3241
 6251TIP3   OH218716   4.659   3.351   4.308 -0.6987 -0.1097 -0.3384
 6251TIP3    H118717   4.608   3.346   4.388 -0.5462 -0.9520 -0.2925
 6251TIP3    H218718   4.730   3.411   4.329 -1.1724  0.3894 -0.1351
 6252TIP3   OH218719   0.989   1.019   3.128 -0.3937  0.3456  0.7110
 6252TIP3    H118720   0.909   1.011   3.076  0.6955 -1.1982 -0.8119
 6252TIP3    H218721   0.985   0.946   3.190  1.6040 -2.3568 -2.0352
 6253TIP3   OH218722   5.393   4.403   4.858  0.0210 -0.2071 -0.1536
 6253TIP3    H118723   5.417   4.332   4.917 -1.2933  0.9680  1.8920
 6253TIP3    H218724   5.432   4.481   4.897 -0.0845  0.4903 -1.3814
 6254TIP3   OH218725   3.923   2.546   2.210  0.2095 -0.2242  0.5158
 6254TIP3    H118726   3.838   2.550   2.254  0.0687  1.3616  0.1494
 6254TIP3    H218727   3.958   2.635   2.217  2.2487 -1.0338  1.4054
 6255TIP3   OH218728   1.451   1.182   3.029  0.1973  0.1278  0.1465
 6255TIP3    H118729   1.464   1.260   2.975  1.4478 -1.3406 -1.7912
 6255TIP3    H218730   1.365   1.150   3.005  0.7086 -0.4641 -0.9390
 6256TIP3   OH218731   0.606   4.875   5.629  0.5140  0.5195 -0.0643
 6256TIP3    H118732   0.587   4.838   5.543  0.6510 -0.8468  0.4766
 6256TIP3    H218733   0.617   4.969   5.612 -2.3671  0.7630 -1.0773
 6257TIP3   OH218734   3.585   3.376   3.301 -0.5018  0.3310  0.6516
 6257TIP3    H118735   3.586   3.442   3.232  0.6615  0.6716  0.9617
 6257TIP3    H218736   3.506   3.395   3.352 -0.1431  1.5533  0.7879
 6258TIP3   OH218737   0.108   5.534   3.657 -0.3021  0.5176 -0.2204
 6258TIP3    H118738   0.166   5.604   3.627 -1.7815  0.8625 -2.5276
 6258TIP3    H218739   0.057   5.573   3.728  0.6690  0.9014  0.2894
 6259TIP3   OH218740   5.415   2.343   0.002  0.2399  0.0993  0.1011
 6259TIP3    H118741   5.510   2.338  -0.004  0.3553  0.3840  1.3730
 6259TIP3    H218742   5.391   2.275   0.065 -0.1381  1.6168  1.6791
 6260TIP3   OH218743   2.906   3.156   4.507  0.1048 -0.6918 -0.2931
 6260TIP3    H118744   2.920   3.062   4.519 -0.5645 -0.9314 -1.3171
 6260TIP3    H218745   2.821   3.172   4.547  0.2474 -0.5037 -0.0628
 6261TIP3   OH218746   6.443   3.362   5.003 -0.3719 -0.3179 -0.1673
 6261TIP3    H118747   6.517   3.303   5.012 -0.4608 -0.3359  0.4650
 6261TIP3    H218748   6.369   3.306   4.978 -0.3196 -0.3844 -0.1711
 6262TIP3   OH218749   1.528   1.617   4.856  0.2734  0.1724 -0.5601
 6262TIP3    H118750   1.584   1.566   4.914 -0.4310 -0.6143 -0.5546
 6262TIP3    H218751   1.584   1.639   4.782  0.1224 -2.2298 -1.4636
 6263TIP3   OH218752   1.795   3.558   4.151 -0.0453 -0.1373  0.3600
 6263TIP3    H118753   1.714   3.605   4.168 -0.1857 -0.4978  0.6963
 6263TIP3    H218754   1.805   3.561   4.056 -0.1422  0.4202  0.3648
 6264TIP3   OH218755   3.272   1.065   4.347 -0.0606 -0.2664  0.1796
 6264TIP3    H118756   3.244   0.984   4.390 -0.4828 -0.4198 -0.3682
 6264TIP3    H218757   3.289   1.039   4.257 -0.5194  0.3223 -0.0806
 6265TIP3   OH218758   0.935   0.449   2.587  0.3604  1.0135 -0.4818
 6265TIP3    H118759   0.945   0.505   2.510 -0.2898  0.1374 -1.2332
 6265TIP3    H218760   1.022   0.412   2.602  0.3547  0.6735 -1.2240
 6266TIP3   OH218761   6.450   5.986   0.196  0.1175  0.8837  0.5614
 6266TIP3    H118762   6.366   5.942   0.180  0.3422  0.5375  0.3194
 6266TIP3    H218763   6.426   6.069   0.238 -0.2809  0.3282  1.4544
 6267TIP3   OH218764   6.808   4.253   5.790  0.0346 -0.3648  0.2746
 6267TIP3    H118765   6.764   4.268   5.873  0.7099  0.8667  0.4281
 6267TIP3    H218766   6.898   4.232   5.813  0.7408  1.8992 -0.1507
 6268TIP3   OH218767   4.412   3.146   5.702  0.2398 -0.0966  0.4032
 6268TIP3    H118768   4.352   3.083   5.742 -0.1409  0.2119  0.3134
 6268TIP3    H218769   4.377   3.232   5.726 -0.1995  0.1063 -0.8921
 6269TIP3   OH218770   0.946   0.788   3.261  0.3462 -0.9000  0.2013
 6269TIP3    H118771   0.879   0.735   3.303  0.4695 -0.3949  1.0604
 6269TIP3    H218772   0.986   0.730   3.196 -1.3740 -0.9995 -0.8305
 6270TIP3   OH218773   0.279   3.374   3.904 -0.2414 -0.4171  0.3620
 6270TIP3    H118774   0.341   3.438   3.871 -1.4099  0.6252  0.1191
 6270TIP3    H218775   0.251   3.410   3.989 -0.3172 -1.0049  0.5896
 6271TIP3   OH218776   3.204   6.434   1.022  0.1123  0.2824 -0.1270
 6271TIP3    H118777   3.172   6.398   1.104 -0.7224  0.7307 -0.2477
 6271TIP3    H218778   3.284   6.482   1.047 -0.2713  0.6247  0.4639
 6272TIP3   OH218779   0.247   5.979   1.706  0.2457 -0.4340  0.0300
 6272TIP3    H118780   0.193   5.998   1.629  1.0938 -0.5181 -0.5997
 6272TIP3    H218781   0.193   6.006   1.780 -0.5322 -0.2191 -0.5969
 6273TIP3   OH218782   1.694   4.738   3.831 -0.1020  0.4179 -0.3036
 6273TIP3    H118783   1.683   4.782   3.915 -0.5355 -0.6346  0.2093
 6273TIP3    H218784   1.760   4.789   3.785  0.4874  0.7312  0.8710
 6274TIP3   OH218785   0.587   1.790   0.090  0.4608  0.3978 -0.3333
 6274TIP3    H118786   0.570   1.784  -0.004  2.5980  0.5873 -0.7783
 6274TIP3    H218787   0.656   1.856   0.098  1.4158 -0.7290  1.2062
 6275TIP3   OH218788   3.840   5.305   4.431  0.0314  0.1236  0.3958
 6275TIP3    H118789   3.753   5.284   4.396 -0.0055  1.5402 -0.4509
 6275TIP3    H218790   3.829   5.390   4.474  1.0216  0.3867  0.1612
 6276TIP3   OH218791   5.395   6.653   3.616 -0.2299 -0.4717 -0.0780
 6276TIP3    H118792   5.309   6.675   3.652  0.3757  0.0959  1.0661
 6276TIP3    H218793   5.421   6.732   3.567 -0.2492 -0.5538 -0.2228
 6277TIP3   OH218794   3.644   0.413   1.402  0.2897  0.0379 -0.6205
 6277TIP3    H118795   3.715   0.351   1.419  1.6688  1.9159  0.8936
 6277TIP3    H218796   3.687   0.492   1.372 -1.4702  0.1916 -3.0466
 6278TIP3   OH218797   3.806   0.949   4.755  0.0205 -0.1885  0.2408
 6278TIP3    H118798   3.789   0.954   4.661  0.8513  1.2314  0.1199
 6278TIP3    H218799   3.755   1.021   4.792  0.2929 -0.2596  0.7642
 6279TIP3   OH218800   0.814   3.553   0.135 -0.7023 -0.3194 -0.0331
 6279TIP3    H118801   0.862   3.470   0.129  0.5037  0.3380  0.0838
 6279TIP3    H218802   0.849   3.595   0.214 -1.6632  0.0786  0.1939
 6280TIP3   OH218803   6.115   4.440   2.244  0.5310  0.3353 -0.0016
 6280TIP3    H118804   6.040   4.486   2.207  0.2756 -0.1786 -0.1294
 6280TIP3    H218805   6.133   4.485   2.326 -0.9082 -0.5107  0.8095
 6281TIP3   OH218806   4.075   3.105   1.948  0.4752  0.0441 -0.5403
 6281TIP3    H118807   4.130   3.046   1.897 -0.8281 -0.6833 -1.1493
 6281TIP3    H218808   4.127   3.184   1.957  0.4864  0.5402 -3.7296
 6282TIP3   OH218809   5.885   5.920   2.967  0.1493 -0.9843  0.0468
 6282TIP3    H118810   5.916   6.010   2.968 -2.4627  0.0345  1.5424
 6282TIP3    H218811   5.938   5.875   3.033 -0.0321  0.0657  0.9226
 6283TIP3   OH218812   0.174   5.174   2.453  0.0829 -0.3018  0.0397
 6283TIP3    H118813   0.264   5.156   2.478 -0.9183 -0.9074  3.8715
 6283TIP3    H218814   0.160   5.266   2.477 -1.1005 -1.0754  2.6584
 6284TIP3   OH218815   2.082   3.476   0.665 -0.1486 -0.4579 -0.4272
 6284TIP3    H118816   2.176   3.460   0.674 -0.5116 -2.7391 -0.1355
 6284TIP3    H218817   2.041   3.398   0.701 -2.2217  1.0156  0.6164
 6285TIP3   OH218818   6.364   0.509   4.455  0.2038  0.3291 -0.1113
 6285TIP3    H118819   6.368   0.440   4.388 -0.7103 -0.1767  0.3301
 6285TIP3    H218820   6.409   0.583   4.415  2.9373 -1.0889  0.1469
 6286TIP3   OH218821   4.689   2.401   2.037 -0.1492  0.4712 -0.1921
 6286TIP3    H118822   4.621   2.468   2.040  0.4856  1.0813  1.4398
 6286TIP3    H218823   4.644   2.320   2.057 -0.5193  0.7825  0.2645
 6287TIP3   OH218824   1.849   4.012   5.255  0.3496  0.0507  0.0816
 6287TIP3    H118825   1.860   4.009   5.350 -1.0073 -0.0385  0.2693
 6287TIP3    H218826   1.926   4.058   5.222 -0.2338  2.1800  1.4561
 6288TIP3   OH218827   4.935   6.035   1.957 -0.1313 -0.4936  0.2713
 6288TIP3    H118828   4.863   6.016   1.897  1.6920  0.0928 -2.2717
 6288TIP3    H218829   4.930   6.129   1.973  0.0681 -0.4525  0.0932
 6289TIP3   OH218830   4.688   3.548   2.785  0.2877  0.0180  0.4445
 6289TIP3    H118831   4.720   3.583   2.868  0.1247  2.5789 -0.4976
 6289TIP3    H218832   4.621   3.484   2.810  1.9292 -1.1052  2.2822
 6290TIP3   OH218833   7.034   0.236   5.614 -0.3586 -0.7312  0.1529
 6290TIP3    H118834   7.017   0.326   5.639 -1.1649 -1.1779  1.2695
 6290TIP3    H218835   7.008   0.231   5.522  0.3833  0.3398 -0.1321
 6291TIP3   OH218836   1.199   3.995  -0.024  0.4826  0.3087  0.0789
 6291TIP3    H118837   1.177   4.031   0.062  0.1406 -2.0674  1.0584
 6291TIP3    H218838   1.289   3.963  -0.015  0.2592 -0.4418 -0.2646
 6292TIP3   OH218839   1.281   2.264   0.498  0.7012  0.2907  0.3656
 6292TIP3    H118840   1.302   2.201   0.567  0.9436  1.4312  1.3714
 6292TIP3    H218841   1.365   2.283   0.457  0.4699 -0.8482 -0.6798
 6293TIP3   OH218842   6.254   1.273   2.759  0.2395 -0.0459  0.6104
 6293TIP3    H118843   6.209   1.357   2.750  0.3525  0.0356  0.7884
 6293TIP3    H218844   6.219   1.235   2.839  1.5540  0.6971  1.5730
 6294TIP3   OH218845   4.196   0.927   2.945 -0.3668  0.0792  0.1260
 6294TIP3    H118846   4.188   0.863   3.015 -3.0944  1.0529  0.8306
 6294TIP3    H218847   4.286   0.917   2.913 -0.3236 -3.2668  0.9263
 6295TIP3   OH218848   4.548   2.585   1.347 -0.3791 -0.8325  0.4078
 6295TIP3    H118849   4.535   2.568   1.254  0.6791 -0.1018  0.1017
 6295TIP3    H218850   4.494   2.662   1.365  0.7194  0.0629 -0.0238
 6296TIP3   OH218851   6.460   5.980   1.557  0.2299  0.1295  0.5886
 6296TIP3    H118852   6.450   5.885   1.558  2.2485 -0.1322  0.9578
 6296TIP3    H218853   6.371   6.014   1.554 -0.5035 -1.7721 -0.9493
 6297TIP3   OH218854   5.062   0.818   0.180 -0.2708 -0.0295 -0.3622
 6297TIP3    H118855   4.983   0.840   0.231 -1.2156  0.2556 -1.8694
 6297TIP3    H218856   5.075   0.725   0.196 -0.1355  0.1939  0.9232
 6298TIP3   OH218857   0.563   2.157   2.716 -0.0977 -0.1314 -0.5343
 6298TIP3    H118858   0.611   2.103   2.653  2.5745  0.3199  0.9661
 6298TIP3    H218859   0.603   2.244   2.708  0.1743 -0.0090  1.5885
 6299TIP3   OH218860   4.158   0.732   3.177  0.6572 -0.8476  0.2324
 6299TIP3    H118861   4.145   0.655   3.122  0.4986  0.3990 -1.5811
 6299TIP3    H218862   4.081   0.735   3.234  0.7673 -2.1153  0.4671
 6300TIP3   OH218863   1.456   5.985   2.471 -0.1863 -0.6059  0.6089
 6300TIP3    H118864   1.434   6.076   2.453  0.6133 -0.4429  0.4195
 6300TIP3    H218865   1.489   5.952   2.387 -2.3866 -1.6751  0.0867
 6301TIP3   OH218866   2.833   0.626   1.984  0.1114  0.2965  0.6131
 6301TIP3    H118867   2.841   0.720   1.967 -0.8222  0.4648  1.0646
 6301TIP3    H218868   2.741   0.606   1.971  0.3588 -0.6322  0.1945
 6302TIP3   OH218869   1.408   6.242   0.637  1.0823  0.1619  0.5212
 6302TIP3    H118870   1.436   6.232   0.546 -1.7155 -0.3669 -0.3857
 6302TIP3    H218871   1.332   6.299   0.632 -0.4712 -1.6224  2.2289
 6303TIP3   OH218872   5.439   1.540   4.353 -0.1787 -0.1911  0.4220
 6303TIP3    H118873   5.353   1.529   4.395 -0.4079 -1.1233 -0.2393
 6303TIP3    H218874   5.442   1.633   4.329 -0.5406  0.0870  1.4175
 6304TIP3   OH218875   0.899   2.682   0.426  0.3254  0.1829  0.0839
 6304TIP3    H118876   0.814   2.649   0.398  1.2153 -0.3304 -2.2027
 6304TIP3    H218877   0.962   2.631   0.376  2.0927 -0.3339  2.6432
 6305TIP3   OH218878   3.676   3.421   2.279 -0.3755  0.5719  0.1866
 6305TIP3    H118879   3.707   3.462   2.360 -1.2182  1.5588  0.0244
 6305TIP3    H218880   3.622   3.488   2.238 -1.2110 -0.4706 -0.4388
 6306TIP3   OH218881   6.646   4.189   3.648 -0.0164 -0.2096 -0.1910
 6306TIP3    H118882   6.583   4.116   3.644  0.2514 -0.4937  0.6058
 6306TIP3    H218883   6.655   4.207   3.741  1.5981 -0.6274 -0.2383
 6307TIP3   OH218884   3.974   6.217   2.004 -0.0707 -0.1517 -0.2306
 6307TIP3    H118885   3.920   6.139   1.996 -0.1010 -0.2683  0.8735
 6307TIP3    H218886   4.038   6.210   1.934 -1.5416  0.0562 -1.6541
 6308TIP3   OH218887   1.866   1.647   0.814 -0.2128  0.5015  0.0487
 6308TIP3    H118888   1.822   1.622   0.733  1.6575 -2.4058 -0.2256
 6308TIP3    H218889   1.795   1.658   0.877 -1.5803 -3.1669 -0.5463
 6309TIP3   OH218890   5.976   5.743   2.224 -0.6421 -0.3068  0.1837
 6309TIP3    H118891   6.067   5.767   2.209 -0.4140 -0.2303  1.6012
 6309TIP3    H218892   5.960   5.764   2.316 -2.0459 -0.4687  0.0008
 6310TIP3   OH218893   0.675   2.069   1.296 -0.1158 -0.1946 -0.3465
 6310TIP3    H118894   0.702   1.992   1.346  1.3008  0.6029  0.2034
 6310TIP3    H218895   0.754   2.095   1.249 -0.3895  1.2424 -0.0702
 6311TIP3   OH218896   0.155   1.209   2.153 -0.3749  0.5204 -0.1597
 6311TIP3    H118897   0.150   1.295   2.196 -1.3847  2.1779 -3.2517
 6311TIP3    H218898   0.063   1.183   2.142 -0.0671 -1.3454  1.3340
 6312TIP3   OH218899   3.679   2.553   3.831  0.5619 -0.5901  0.4870
 6312TIP3    H118900   3.617   2.513   3.892 -0.6648  2.9114  1.8132
 6312TIP3    H218901   3.755   2.495   3.832 -0.9073 -2.6452  2.4000
 6313TIP3   OH218902   5.429   2.579   4.681 -0.3302 -0.4094  0.3398
 6313TIP3    H118903   5.499   2.644   4.679  0.5335 -1.3237  0.0688
 6313TIP3    H218904   5.374   2.606   4.754  0.2001  0.4366  0.4420
 6314TIP3   OH218905   0.254   3.928   4.088 -0.1205 -0.0593  0.5104
 6314TIP3    H118906   0.265   3.919   4.183 -1.3727  3.0934  1.0769
 6314TIP3    H218907   0.166   3.894   4.071 -0.4019  0.5632  0.7088
 6315TIP3   OH218908   6.820   0.435   1.468  0.3847 -0.6284 -0.7559
 6315TIP3    H118909   6.866   0.381   1.404 -3.1768 -1.1078 -3.1723
 6315TIP3    H218910   6.764   0.492   1.416  0.5153  2.1853  1.8829
 6316TIP3   OH218911   3.380   2.865   5.912 -0.4265 -0.0536 -0.3259
 6316TIP3    H118912   3.451   2.815   5.871  1.2156  2.0942 -0.2229
 6316TIP3    H218913   3.334   2.906   5.838  1.4359  2.3749 -0.2355
 6317TIP3   OH218914   6.229   2.425   4.975  0.1540  0.1061 -0.1442
 6317TIP3    H118915   6.143   2.464   4.993  0.4945  0.2361  1.2771
 6317TIP3    H218916   6.212   2.331   4.977  0.1465  0.1166  0.7623
 6318TIP3   OH218917   4.666   6.437   4.882 -0.4039 -0.1538  0.0185
 6318TIP3    H118918   4.592   6.386   4.915  0.4052 -1.2951  0.1099
 6318TIP3    H218919   4.671   6.512   4.941 -1.4966 -0.0376 -0.0101
 6319TIP3   OH218920   1.439   2.614   1.109  0.3691 -0.7197  0.2068
 6319TIP3    H118921   1.476   2.700   1.091 -0.4155 -0.1553  1.2582
 6319TIP3    H218922   1.481   2.586   1.190  1.4579 -1.8455 -0.6946
 6320TIP3   OH218923   6.730   5.732   4.315 -0.0445  0.1069 -0.1186
 6320TIP3    H118924   6.649   5.744   4.266 -0.7665 -0.7047  0.8575
 6320TIP3    H218925   6.792   5.699   4.249 -0.9957 -0.9660 -0.5242
 6321TIP3   OH218926   6.614   1.760   5.642  0.0774  0.2866  0.1726
 6321TIP3    H118927   6.691   1.735   5.590 -0.1510 -1.3796  0.5930
 6321TIP3    H218928   6.649   1.811   5.715  0.6768  0.3157 -0.1309
 6322TIP3   OH218929   2.701   1.634   3.073  0.4417  0.2057 -0.4106
 6322TIP3    H118930   2.790   1.665   3.092 -0.4990  2.5774  0.4757
 6322TIP3    H218931   2.694   1.638   2.978  1.0957  0.6142 -0.4504
 6323TIP3   OH218932   2.010   3.534   2.985  0.1959 -0.3017  0.1961
 6323TIP3    H118933   2.018   3.541   3.080  0.2035 -0.1311  0.1829
 6323TIP3    H218934   1.926   3.490   2.972  0.1564 -0.2512  0.2787
 6324TIP3   OH218935   5.864   5.972   4.688  0.2125 -0.2199 -0.7882
 6324TIP3    H118936   5.952   6.002   4.666 -0.5121  0.6571 -2.7453
 6324TIP3    H218937   5.854   5.889   4.640  0.5803 -1.3209  0.9347
 6325TIP3   OH218938   2.673   5.983   0.457  0.4370  0.6966 -0.3652
 6325TIP3    H118939   2.673   5.958   0.549  0.8685 -2.9033 -1.2104
 6325TIP3    H218940   2.709   6.072   0.456  0.5937  0.7765  2.8816
 6326TIP3   OH218941   1.588   3.125   1.855 -0.1000 -0.4552 -0.0689
 6326TIP3    H118942   1.511   3.119   1.800 -0.3811 -1.6113  0.4166
 6326TIP3    H218943   1.583   3.213   1.894 -0.8967 -0.3355 -0.4223
 6327TIP3   OH218944   5.595   1.947   1.061  0.0150  0.2373 -0.6008
 6327TIP3    H118945   5.558   2.003   1.129 -1.7879 -0.0072 -1.3306
 6327TIP3    H218946   5.539   1.962   0.985  1.3568 -0.2758 -1.7364
 6328TIP3   OH218947   2.172   3.402   1.083  0.1055 -0.5468  0.3782
 6328TIP3    H118948   2.165   3.477   1.025 -1.6537 -0.0001  1.2189
 6328TIP3    H218949   2.223   3.433   1.157  0.5060 -0.5909  0.1233
 6329TIP3   OH218950   3.599   1.645   3.137 -0.4088  0.0770 -0.3840
 6329TIP3    H118951   3.644   1.560   3.135  0.1197  0.2841  1.1014
 6329TIP3    H218952   3.559   1.649   3.224 -0.4540  1.3290 -0.4397
 6330TIP3   OH218953   3.732   2.037   5.348  0.0175  0.6231 -0.0259
 6330TIP3    H118954   3.685   2.091   5.284 -1.0785 -0.1421  0.1142
 6330TIP3    H218955   3.753   1.957   5.300 -0.8879  0.0091  0.5803
 6331TIP3   OH218956   4.606   4.322   5.797  0.4643  0.1564 -0.2162
 6331TIP3    H118957   4.657   4.309   5.717 -0.4029 -0.7304 -0.6520
 6331TIP3    H218958   4.655   4.276   5.865  0.5093 -0.2693 -0.5315
 6332TIP3   OH218959   7.043   2.946   5.855  0.1805  0.1631  0.7901
 6332TIP3    H118960   7.069   2.854   5.849  0.6901  0.3480  0.0528
 6332TIP3    H218961   6.948   2.944   5.849  0.2244 -0.2731 -0.0116
 6333TIP3   OH218962   7.011   5.033   5.444  0.0580  0.0299  0.0811
 6333TIP3    H118963   7.021   4.941   5.419  0.9451  0.3942 -0.9563
 6333TIP3    H218964   7.082   5.078   5.399 -0.4106  1.2467  0.5266
 6334TIP3   OH218965   4.903   2.105   5.590  0.0118 -0.0540  0.3207
 6334TIP3    H118966   4.831   2.061   5.543  0.6142 -0.7856  0.0540
 6334TIP3    H218967   4.960   2.137   5.520  2.4626 -3.6696  0.3618
 6335TIP3   OH218968   6.236   4.151   4.702 -0.2217  0.0604 -0.1199
 6335TIP3    H118969   6.219   4.069   4.748 -3.4783  1.3534  1.2878
 6335TIP3    H218970   6.264   4.212   4.770 -0.1544  0.7317 -0.7311
 6336TIP3   OH218971   3.843   4.095   3.881  0.4735 -0.1401  0.2544
 6336TIP3    H118972   3.820   4.103   3.789 -0.1190 -0.5812  0.3591
 6336TIP3    H218973   3.796   4.167   3.924 -0.4945 -0.8531  0.4231
 6337TIP3   OH218974   0.905   2.379   0.956  0.3906 -0.1865 -0.3209
 6337TIP3    H118975   0.892   2.378   1.051  1.3409 -0.7346 -0.1789
 6337TIP3    H218976   0.838   2.320   0.922 -0.0223  0.0929 -0.0054
 6338TIP3   OH218977   3.928   6.140   4.226 -0.1270 -0.5158  0.2023
 6338TIP3    H118978   3.851   6.183   4.264 -1.1531  0.1203 -2.3474
 6338TIP3    H218979   4.002   6.176   4.275 -1.1825  1.8393  0.2342
 6339TIP3   OH218980   3.227   0.203   0.188 -0.4621 -0.4725 -1.0136
 6339TIP3    H118981   3.187   0.122   0.157  1.2591 -1.6503 -0.3315
 6339TIP3    H218982   3.316   0.200   0.154 -0.2257  0.8983 -0.5628
 6340TIP3   OH218983   5.593   4.655   3.567  0.2219 -0.4165 -0.6105
 6340TIP3    H118984   5.673   4.608   3.543  0.5640 -0.9813  1.4008
 6340TIP3    H218985   5.527   4.586   3.578  0.1981 -0.2627  0.3682
 6341TIP3   OH218986   2.816   2.590   5.678  0.0832 -0.3209 -0.4143
 6341TIP3    H118987   2.784   2.527   5.613  0.3766 -1.1536  0.2341
 6341TIP3    H218988   2.897   2.552   5.711 -0.6178 -0.4574  1.2309
 6342TIP3   OH218989   3.367   6.068   3.875  0.1043 -0.1991  0.2085
 6342TIP3    H118990   3.408   6.116   3.803 -0.5121  0.0327  0.0145
 6342TIP3    H218991   3.337   5.986   3.835 -0.1847 -0.0964  0.2128
 6343TIP3   OH218992   2.067   5.396   1.198 -0.0252  0.4149  0.2080
 6343TIP3    H118993   2.073   5.491   1.207 -1.3874  0.8899 -2.6117
 6343TIP3    H218994   2.003   5.370   1.264  0.1104  1.5073  0.7879
 6344TIP3   OH218995   5.571   3.636   0.863  0.0737 -0.1883  0.0741
 6344TIP3    H118996   5.490   3.687   0.873 -0.3617 -0.6817 -0.8187
 6344TIP3    H218997   5.622   3.684   0.799  0.2207 -0.1947  0.1873
 6345TIP3   OH218998   2.012   6.622   0.297  0.9439 -0.1837  0.2221
 6345TIP3    H118999   2.021   6.644   0.390  0.4036 -1.6383  0.6459
 6345TIP3    H219000   2.070   6.548   0.284  2.2097  0.9767 -1.0005
 6346TIP3   OH219001   2.206   4.506   0.912  0.1375  0.0974 -0.1641
 6346TIP3    H119002   2.192   4.490   0.819 -0.3239 -3.2189  0.3513
 6346TIP3    H219003   2.296   4.539   0.918  1.0932 -2.0336 -1.6550
 6347TIP3   OH219004   6.660   0.315   0.474  0.0743  0.2396  0.0117
 6347TIP3    H119005   6.693   0.381   0.412  2.1047  0.3390  1.1097
 6347TIP3    H219006   6.699   0.233   0.444 -0.5597 -0.0703  0.0155
 6348TIP3   OH219007   4.818   0.858   2.601 -0.2674  0.6173  0.5056
 6348TIP3    H119008   4.811   0.949   2.630 -0.4728  0.3725  1.2363
 6348TIP3    H219009   4.764   0.808   2.663 -1.6482  0.2087 -0.9412
 6349TIP3   OH219010   2.996   3.952   0.108 -0.1647  0.1684 -0.4201
 6349TIP3    H119011   2.993   3.874   0.164  3.2438  0.7395  0.7949
 6349TIP3    H219012   3.070   3.937   0.049  0.4360  2.3569 -0.3149
 6350TIP3   OH219013   0.831   3.308   5.421 -0.4910 -0.4825 -0.3961
 6350TIP3    H119014   0.881   3.380   5.383 -0.9510 -0.4559 -0.9864
 6350TIP3    H219015   0.745   3.314   5.378 -0.6425 -1.1759 -0.2036
 6351TIP3   OH219016   6.706   3.991   1.826  0.6920 -0.2103 -0.3125
 6351TIP3    H119017   6.760   4.033   1.759  0.1252 -0.2338 -0.7942
 6351TIP3    H219018   6.639   4.056   1.848  1.3084  0.0892  0.7939
 6352TIP3   OH219019   1.712   1.482   2.873 -0.6474  0.0444 -0.4174
 6352TIP3    H119020   1.635   1.478   2.931 -1.2017 -0.6835 -1.1793
 6352TIP3    H219021   1.771   1.416   2.907 -0.4530  0.4311  0.0167
 6353TIP3   OH219022   1.129   2.155   4.380  0.1583 -0.2517 -0.2915
 6353TIP3    H119023   1.078   2.115   4.451  1.1566 -0.0824  0.5435
 6353TIP3    H219024   1.075   2.228   4.350 -0.7094 -0.9096 -0.3778
 6354TIP3   OH219025   3.595   5.733   0.340 -0.0738  0.3951  0.3941
 6354TIP3    H119026   3.676   5.724   0.390 -0.7327  0.2447  1.4718
 6354TIP3    H219027   3.527   5.704   0.400 -0.8456 -0.3524 -0.7965
 6355TIP3   OH219028   7.119   4.784   2.230 -0.1615 -0.6202 -0.4053
 6355TIP3    H119029   7.193   4.749   2.281  0.0243  1.5208  0.8828
 6355TIP3    H219030   7.156   4.797   2.142  1.5638  1.9349  0.5993
 6356TIP3   OH219031   0.031   0.230   5.213 -0.1186 -0.4980  0.0219
 6356TIP3    H119032  -0.015   0.176   5.149 -0.3569 -0.1883 -0.0724
 6356TIP3    H219033   0.122   0.205   5.205 -0.3117 -1.3936  0.4735
 6357TIP3   OH219034   0.286   0.114   4.915 -0.4606  0.0732  0.3722
 6357TIP3    H119035   0.260   0.085   5.003 -0.0898 -0.8133  0.1987
 6357TIP3    H219036   0.338   0.042   4.881  2.4121  1.8016  0.7814
 6358TIP3   OH219037   5.589   1.520   1.485 -0.4014  0.1466 -0.2432
 6358TIP3    H119038   5.622   1.434   1.459 -0.7995  0.3817 -1.5949
 6358TIP3    H219039   5.661   1.580   1.467  0.1957  0.0087  1.5232
 6359TIP3   OH219040   2.955   6.571   1.645  0.3134 -0.0825  0.9309
 6359TIP3    H119041   2.877   6.524   1.673 -0.3581  1.5330  1.9136
 6359TIP3    H219042   2.921   6.652   1.607  1.3960 -0.6412 -1.4076
 6360TIP3   OH219043   0.935   1.883   2.359  0.1678 -0.0298  0.1314
 6360TIP3    H119044   0.903   1.802   2.319  1.0806 -1.2222  1.6590
 6360TIP3    H219045   0.964   1.855   2.446  2.3036  1.5893 -0.0060
 6361TIP3   OH219046   3.902   5.637   4.218 -0.4233  0.0219  0.0923
 6361TIP3    H119047   3.866   5.717   4.257  0.8356  0.7678 -0.2051
 6361TIP3    H219048   3.978   5.616   4.272  0.8324  0.5684 -1.3898
 6362TIP3   OH219049   2.786   4.504   2.001 -0.1945 -0.1781  0.2974
 6362TIP3    H119050   2.723   4.442   2.038  1.1130 -2.6679 -1.3959
 6362TIP3    H219051   2.758   4.515   1.910 -1.2781  3.0527  0.8773
 6363TIP3   OH219052   6.422   4.077   5.497 -0.0787 -0.1958  0.2000
 6363TIP3    H119053   6.419   4.029   5.414  3.9679  1.5265 -1.1782
 6363TIP3    H219054   6.472   4.020   5.555  0.5941  0.3225  0.1287
 6364TIP3   OH219055   5.813   3.541   2.286  0.0126 -0.5423 -0.4506
 6364TIP3    H119056   5.824   3.548   2.191 -0.8386  0.2598 -0.5086
 6364TIP3    H219057   5.891   3.584   2.322 -0.4999  0.7739 -0.8212
 6365TIP3   OH219058   4.696   3.174   0.164  0.0003 -0.1148  0.0071
 6365TIP3    H119059   4.755   3.175   0.088 -0.3028 -0.4856 -0.2409
 6365TIP3    H219060   4.733   3.238   0.224 -1.0520  1.9545 -1.4345
 6366TIP3   OH219061   3.130   4.772   2.004 -0.2005  0.4068 -0.9361
 6366TIP3    H119062   3.127   4.717   1.925  0.1708 -0.3746 -0.4208
 6366TIP3    H219063   3.171   4.716   2.070 -0.1577  1.1871 -0.2925
 6367TIP3   OH219064   4.173   3.228   1.650 -0.7074  0.1860  0.1558
 6367TIP3    H119065   4.106   3.230   1.718 -0.7916  0.5832  0.0664
 6367TIP3    H219066   4.126   3.252   1.570 -0.7245 -0.8367 -0.1474
 6368TIP3   OH219067   3.310   5.378   5.202 -0.1070  0.1463 -0.0441
 6368TIP3    H119068   3.303   5.297   5.152 -1.4568 -0.4852  1.0982
 6368TIP3    H219069   3.310   5.447   5.136  1.2080 -0.7567 -1.0476
 6369TIP3   OH219070   1.196   4.732   5.050  0.3297  0.3028 -0.0513
 6369TIP3    H119071   1.260   4.796   5.020 -0.4888  1.3234  0.3193
 6369TIP3    H219072   1.236   4.647   5.031  0.7649  0.8984 -2.0208
 6370TIP3   OH219073   0.809   0.532   5.095 -0.8662  0.1117  0.0800
 6370TIP3    H119074   0.825   0.568   5.182 -1.6221 -1.1522  0.7711
 6370TIP3    H219075   0.888   0.484   5.074 -0.7528  0.2685  0.1455
 6371TIP3   OH219076   1.196   5.733   2.843  0.0902  0.0208  0.1846
 6371TIP3    H119077   1.220   5.660   2.900  2.0777  1.2176  1.0071
 6371TIP3    H219078   1.109   5.711   2.810 -0.7772 -1.1280  3.0064
 6372TIP3   OH219079   3.983   6.095   0.873  0.0005  0.0603  0.2519
 6372TIP3    H119080   4.017   6.148   0.946 -0.1638  0.9325 -0.2928
 6372TIP3    H219081   3.997   6.005   0.901 -0.9383  0.3503  1.8014
 6373TIP3   OH219082   3.753   6.334   2.668  0.4909 -0.5296 -0.1112
 6373TIP3    H119083   3.676   6.299   2.713  0.8275 -0.3841  0.5825
 6373TIP3    H219084   3.734   6.427   2.656 -0.2815 -0.8496 -1.7051
 6374TIP3   OH219085   1.438   0.837   0.548  0.2382 -0.0042  0.1808
 6374TIP3    H119086   1.393   0.816   0.629  0.7737 -2.5760 -0.0855
 6374TIP3    H219087   1.391   0.787   0.481  2.4495 -1.6104 -0.3221
 6375TIP3   OH219088   0.860   5.136   2.513  0.7429 -0.1308 -0.1067
 6375TIP3    H119089   0.843   5.223   2.552 -1.0993  0.1103 -1.2982
 6375TIP3    H219090   0.934   5.150   2.454 -0.6032  1.1302 -1.6121
 6376TIP3   OH219091   6.421   2.095   0.345  0.0016  0.0655 -0.2710
 6376TIP3    H119092   6.339   2.049   0.365  0.3013 -0.6639 -0.6710
 6376TIP3    H219093   6.476   2.028   0.305  0.6328  0.6645 -0.4137
 6377TIP3   OH219094   0.330   4.116   3.261 -0.4337 -0.3018 -0.2663
 6377TIP3    H119095   0.293   4.204   3.272  0.6506  0.0315  0.9996
 6377TIP3    H219096   0.327   4.078   3.349  1.4760 -0.5247 -0.2455
 6378TIP3   OH219097   2.548   6.376   1.370  0.3605  0.0137 -0.1454
 6378TIP3    H119098   2.491   6.308   1.407  0.2589 -0.4686 -1.1713
 6378TIP3    H219099   2.492   6.422   1.307  1.0563 -0.3790 -1.0626
 6379TIP3   OH219100   6.438   2.551   1.466 -0.0879 -0.3179 -0.0246
 6379TIP3    H119101   6.423   2.460   1.493 -1.0926 -0.3452 -0.6350
 6379TIP3    H219102   6.350   2.589   1.459  0.3500  1.0420  1.3195
 6380TIP3   OH219103   0.683   0.543   1.582  0.5068  0.1560 -0.4988
 6380TIP3    H119104   0.668   0.633   1.554  1.1399  0.4697  0.1178
 6380TIP3    H219105   0.662   0.489   1.505  0.7699  0.8766 -1.0833
 6381TIP3   OH219106   6.002   1.340   1.858  0.1521 -0.0560 -0.1817
 6381TIP3    H119107   5.955   1.422   1.875  0.7517  0.4693 -0.9990
 6381TIP3    H219108   6.076   1.342   1.919  0.1983  0.0439 -0.2398
 6382TIP3   OH219109   2.718   6.506   3.470 -0.0334 -0.2559  0.2212
 6382TIP3    H119110   2.653   6.504   3.540 -1.4082  0.4766 -0.9781
 6382TIP3    H219111   2.666   6.502   3.389  1.1733  2.9099 -0.8614
 6383TIP3   OH219112   2.840   0.414   3.144 -0.4486  0.7122  0.6016
 6383TIP3    H119113   2.788   0.494   3.154  1.4738  1.9843  0.9220
 6383TIP3    H219114   2.840   0.397   3.050 -1.2265  0.8200  0.5728
 6384TIP3   OH219115   0.590   1.912   0.992 -0.0184 -0.1516  0.0247
 6384TIP3    H119116   0.523   1.971   1.025  0.2209  1.2318 -1.7956
 6384TIP3    H219117   0.548   1.868   0.918  0.2164 -1.3550  0.5890
 6385TIP3   OH219118   6.784   4.501   2.498  0.7057 -0.4113  0.6765
 6385TIP3    H119119   6.841   4.545   2.435  0.7334  0.3681  1.2347
 6385TIP3    H219120   6.727   4.446   2.444 -1.2193  2.3607 -0.3503
 6386TIP3   OH219121   3.425   6.621   3.414 -0.0257  0.1859  0.2528
 6386TIP3    H119122   3.409   6.705   3.458 -2.4677 -0.6634  1.1771
 6386TIP3    H219123   3.367   6.560   3.458  0.6600 -1.7087 -1.3271
 6387TIP3   OH219124   7.045   4.925   3.746 -0.4248  0.3608 -0.6341
 6387TIP3    H119125   7.092   4.861   3.693  1.4251  0.8168  0.3620
 6387TIP3    H219126   7.046   4.889   3.834 -1.8045  0.4852 -0.5552
 6388TIP3   OH219127   6.742   3.728   0.233  0.2159 -0.1730  0.2358
 6388TIP3    H119128   6.801   3.676   0.287  2.2718  0.9839 -0.7932
 6388TIP3    H219129   6.783   3.730   0.147 -0.3678  2.1649 -0.0684
 6389TIP3   OH219130   3.496   0.022   3.598 -0.0999  0.4989 -0.5183
 6389TIP3    H119131   3.442  -0.057   3.592 -1.9629  1.5929  0.7735
 6389TIP3    H219132   3.457   0.082   3.535  1.4715  0.3470 -1.6857
 6390TIP3   OH219133   1.692   2.268   0.588 -0.3710 -0.0519  0.1230
 6390TIP3    H119134   1.661   2.297   0.502  2.2462 -1.1021 -1.2851
 6390TIP3    H219135   1.652   2.182   0.601  0.9400 -0.8905 -1.1371
 6391TIP3   OH219136   1.018   1.133   0.229  0.7348  0.2480  0.1937
 6391TIP3    H119137   0.925   1.147   0.213  0.4224 -2.6978 -1.1427
 6391TIP3    H219138   1.062   1.182   0.159  0.1629  0.7194  0.1542
 6392TIP3   OH219139   1.289   1.646   4.336 -0.3010  0.2863 -0.3845
 6392TIP3    H119140   1.301   1.741   4.336  0.2409  0.2344  0.8568
 6392TIP3    H219141   1.356   1.614   4.276  1.9960  0.4583  1.9089
 6393TIP3   OH219142   6.919   3.710   3.371 -0.6759 -0.0068 -0.3650
 6393TIP3    H119143   6.862   3.776   3.410 -0.5150  0.0490 -0.2228
 6393TIP3    H219144   6.867   3.630   3.370 -0.8456  0.1057 -0.4684
 6394TIP3   OH219145   0.905   1.479   0.881 -0.4917  0.6568  0.1369
 6394TIP3    H119146   0.970   1.550   0.884  0.4470 -0.1453 -0.3969
 6394TIP3    H219147   0.930   1.422   0.954 -0.1157 -0.0459 -0.5258
 6395TIP3   OH219148   6.464   6.503   5.579 -0.0843  0.3111  0.2808
 6395TIP3    H119149   6.483   6.445   5.653 -2.1252 -0.5660  0.2080
 6395TIP3    H219150   6.457   6.444   5.504  2.8115  1.2824 -0.8638
 6396TIP3   OH219151   4.839   3.856   0.555  0.2191  0.4202  0.0747
 6396TIP3    H119152   4.805   3.905   0.629 -0.2312 -0.8208  0.7226
 6396TIP3    H219153   4.922   3.898   0.533 -0.6543  2.1461 -0.1209
 6397TIP3   OH219154   5.635   1.053   5.291  0.3280 -0.6721 -0.6531
 6397TIP3    H119155   5.587   1.073   5.372 -0.7429 -0.7367 -1.2483
 6397TIP3    H219156   5.689   0.978   5.313  0.0132 -0.7160  0.0022
 6398TIP3   OH219157   3.881   5.243   3.008 -0.0847  0.4804  0.2504
 6398TIP3    H119158   3.962   5.266   3.052 -0.1314 -2.7461  2.3309
 6398TIP3    H219159   3.901   5.161   2.961 -1.7316  0.4600 -0.4961
 6399TIP3   OH219160   6.082   1.720   5.348 -0.2337 -0.4949  0.4416
 6399TIP3    H119161   6.101   1.725   5.441  0.4283 -0.2809  0.2972
 6399TIP3    H219162   5.991   1.689   5.344 -0.7136  0.7389  1.1821
 6400TIP3   OH219163   5.437   3.246   2.707 -0.0418 -0.4765  0.0905
 6400TIP3    H119164   5.360   3.197   2.679 -0.4119 -0.2830  0.7486
 6400TIP3    H219165   5.423   3.334   2.672 -1.0308  0.0594  1.7476
 6401TIP3   OH219166   1.908   3.404   1.113  0.0721  0.4336 -0.1587
 6401TIP3    H119167   1.927   3.475   1.051  0.7571  0.1542 -0.2788
 6401TIP3    H219168   1.989   3.353   1.117  0.1975  0.6937  1.2942
 6402TIP3   OH219169   5.642   4.950   0.333  0.8388  0.3116 -0.5404
 6402TIP3    H119170   5.557   4.934   0.293  0.3514  0.4965  0.3807
 6402TIP3    H219171   5.685   4.864   0.336  0.3517  0.0761 -0.2855
 6403TIP3   OH219172   6.201   4.263   5.124 -0.1404 -0.9488 -0.7532
 6403TIP3    H119173   6.176   4.189   5.179 -0.2363 -0.9497 -0.7987
 6403TIP3    H219174   6.296   4.257   5.118 -0.2644 -1.9276 -1.9731
 6404TIP3   OH219175   2.943   6.623   3.840 -0.3394  0.3643 -0.2689
 6404TIP3    H119176   2.861   6.644   3.885  0.4295 -0.1004  1.3904
 6404TIP3    H219177   2.961   6.532   3.863  2.4116  1.4141  2.3062
 6405TIP3   OH219178   1.130   4.720   0.087  0.1072 -0.0293 -0.2167
 6405TIP3    H119179   1.209   4.665   0.085 -0.7734 -1.3994  0.4617
 6405TIP3    H219180   1.107   4.732  -0.005  0.9281  0.1208 -0.4109
 6406TIP3   OH219181   2.399   1.484   2.989 -0.0427 -0.1719 -0.0004
 6406TIP3    H119182   2.467   1.552   2.993  1.2763 -1.3248 -1.4107
 6406TIP3    H219183   2.323   1.528   2.951  0.7992  0.5242 -0.9289
 6407TIP3   OH219184   3.527   3.039   4.016  0.0353  0.3595  0.3923
 6407TIP3    H119185   3.463   3.015   4.082  0.1724 -1.4070 -0.0450
 6407TIP3    H219186   3.483   3.023   3.932  0.7715 -0.1811  0.0901
 6408TIP3   OH219187   5.126   5.658   0.870 -0.6102  0.3149  0.3153
 6408TIP3    H119188   5.124   5.599   0.945 -0.9507  0.7382  0.6444
 6408TIP3    H219189   5.185   5.615   0.807 -2.1739 -1.2165 -0.1762
 6409TIP3   OH219190   3.804   0.655   4.770  0.1772  0.0671 -0.0033
 6409TIP3    H119191   3.769   0.744   4.759 -2.2141 -0.8456 -0.4564
 6409TIP3    H219192   3.825   0.627   4.680  1.3124  0.2873  0.1795
 6410TIP3   OH219193   1.269   5.790   0.776  0.6280  0.1290 -0.4326
 6410TIP3    H119194   1.231   5.786   0.689  1.2545  0.6626 -0.7384
 6410TIP3    H219195   1.295   5.881   0.787  0.4726  0.0875  0.3476
 6411TIP3   OH219196   6.072   4.464   0.075  0.1165  0.1756 -0.5548
 6411TIP3    H119197   6.026   4.386   0.045  1.1502 -0.3880 -0.7211
 6411TIP3    H219198   6.158   4.432   0.103  0.5387  1.2440 -0.5861
 6412TIP3   OH219199   6.273   2.476   4.468  0.1840  0.6602 -0.0786
 6412TIP3    H119200   6.180   2.471   4.492  0.1586  1.6710  0.0622
 6412TIP3    H219201   6.305   2.554   4.512  0.4018  1.9572 -2.3848
 6413TIP3   OH219202   5.889   1.310   2.571 -0.0308  0.3333 -0.3411
 6413TIP3    H119203   5.804   1.332   2.608  0.3250  1.6336 -0.2299
 6413TIP3    H219204   5.870   1.247   2.501 -1.0535  0.4151 -0.1440
 6414TIP3   OH219205   3.108   0.562   1.368 -0.4274 -0.6259  0.4358
 6414TIP3    H119206   3.092   0.607   1.285  2.2363 -0.5661 -0.1574
 6414TIP3    H219207   3.196   0.526   1.358 -0.0999 -0.7821  3.1868
 6415TIP3   OH219208   3.520   3.530   0.066 -0.3734 -0.1135  0.8574
 6415TIP3    H119209   3.566   3.502  -0.013 -0.0112 -0.2297  1.1073
 6415TIP3    H219210   3.485   3.616   0.045  0.1296  0.0604  0.7352
 6416TIP3   OH219211   5.339   2.514   1.027 -0.2297 -0.1779 -0.3496
 6416TIP3    H119212   5.353   2.586   0.966 -0.1277 -0.0865 -0.2164
 6416TIP3    H219213   5.247   2.521   1.053 -0.3225 -0.3226 -0.6294
 6417TIP3   OH219214   3.611   4.685   2.481 -0.0051 -0.1255  0.2382
 6417TIP3    H119215   3.586   4.776   2.465 -1.0489 -0.4144  0.2057
 6417TIP3    H219216   3.630   4.650   2.394  1.3029  0.2933  0.3207
 6418TIP3   OH219217   4.000   1.571   5.180 -0.1399 -0.0636 -0.1202
 6418TIP3    H119218   3.934   1.530   5.236  0.9747  2.0427  3.0686
 6418TIP3    H219219   3.951   1.633   5.126 -1.0063  0.5253  1.2656
 6419TIP3   OH219220   4.326   5.477   5.598 -0.2036 -0.1334 -0.0186
 6419TIP3    H119221   4.250   5.439   5.553  0.2137  0.7848 -1.5969
 6419TIP3    H219222   4.390   5.406   5.601 -0.9303 -0.7661  0.8675
 6420TIP3   OH219223   6.096   4.824   0.808 -0.1963  0.0327  0.2984
 6420TIP3    H119224   6.026   4.786   0.862 -0.7124  0.1957 -0.2377
 6420TIP3    H219225   6.056   4.901   0.769 -0.0513 -0.4568 -0.8483
 6421TIP3   OH219226   3.443   0.761   3.587  0.4263 -0.1557 -0.3443
 6421TIP3    H119227   3.372   0.799   3.536  1.1136  0.1078 -1.1218
 6421TIP3    H219228   3.417   0.670   3.601 -0.2563  0.0476 -0.2474
 6422TIP3   OH219229   3.331   0.630   5.138 -0.0935  0.3277  0.3322
 6422TIP3    H119230   3.404   0.568   5.141  0.7533  1.2908  0.0844
 6422TIP3    H219231   3.257   0.581   5.174  0.2509 -1.2180 -0.9337
 6423TIP3   OH219232   4.312   2.934   1.845 -0.1418  0.8868  0.6076
 6423TIP3    H119233   4.286   2.864   1.904  1.3096  1.5978  2.1688
 6423TIP3    H219234   4.393   2.969   1.883  1.6463  0.5138 -2.4962
 6424TIP3   OH219235   5.856   3.853   3.112 -0.3466  0.1072 -0.2162
 6424TIP3    H119236   5.773   3.819   3.078 -1.7006 -0.6295  3.3851
 6424TIP3    H219237   5.923   3.799   3.070 -1.5884  0.6887 -3.1804
 6425TIP3   OH219238   2.274   3.440   2.098  0.1452  0.1278  0.1117
 6425TIP3    H119239   2.256   3.414   2.007  2.0423  1.3685 -0.6876
 6425TIP3    H219240   2.284   3.358   2.145 -1.4787 -0.5557 -0.6292
 6426TIP3   OH219241   3.248   4.021   5.541  0.1724  0.4096 -0.1713
 6426TIP3    H119242   3.189   3.954   5.506 -0.5761  1.2575 -0.5787
 6426TIP3    H219243   3.328   4.011   5.490 -0.1526  0.2330 -0.6568
 6427TIP3   OH219244   4.942   1.116   4.529 -0.2804 -0.0276 -0.1690
 6427TIP3    H119245   4.970   1.197   4.486  1.2624  0.1168  1.0055
 6427TIP3    H219246   4.921   1.143   4.619  1.1806 -1.0259  0.5175
 6428TIP3   OH219247   0.177   5.367   0.130  0.2138  0.3105 -0.4325
 6428TIP3    H119248   0.092   5.404   0.104 -0.6282 -0.7340  0.6895
 6428TIP3    H219249   0.239   5.439   0.120 -1.5346  2.5737  3.0743
 6429TIP3   OH219250   5.923   0.405   1.268 -0.1971 -0.2617 -0.4205
 6429TIP3    H119251   5.869   0.335   1.230 -1.2500 -1.1445  2.4590
 6429TIP3    H219252   5.862   0.476   1.285  0.6333  0.9193 -2.0730
 6430TIP3   OH219253   3.243   2.491   2.877 -0.1188 -0.2935  0.3920
 6430TIP3    H119254   3.168   2.441   2.844  0.1833 -0.6118  0.1817
 6430TIP3    H219255   3.226   2.581   2.849 -1.3547 -0.0061  1.9472
 6431TIP3   OH219256   6.845   1.625   1.602  0.6295 -0.0952 -0.0934
 6431TIP3    H119257   6.783   1.561   1.639  2.0536 -3.5220 -3.0017
 6431TIP3    H219258   6.791   1.681   1.547 -0.3341 -0.7929  0.0953
 6432TIP3   OH219259   1.078   3.433   2.356  0.4382  0.6900  0.0856
 6432TIP3    H119260   1.083   3.403   2.266  2.0058 -1.2059  0.7557
 6432TIP3    H219261   1.158   3.483   2.370  0.4138  0.6122  0.5404
 6433TIP3   OH219262   3.702   3.122   4.317  0.0958 -0.5926 -0.3629
 6433TIP3    H119263   3.720   3.033   4.287  2.5878 -1.0710  2.1482
 6433TIP3    H219264   3.777   3.173   4.286 -0.3974  0.2428 -0.2001
 6434TIP3   OH219265   2.755   2.164   0.241  0.1507  0.2466 -0.1257
 6434TIP3    H119266   2.701   2.111   0.300  0.8345 -1.3417 -0.8672
 6434TIP3    H219267   2.703   2.242   0.223 -0.4274  0.3680  1.8803
 6435TIP3   OH219268   0.043   2.515   4.497  0.1069 -0.3324  0.5541
 6435TIP3    H119269  -0.034   2.497   4.442  1.3212 -3.4436 -0.3655
 6435TIP3    H219270   0.052   2.436   4.551  1.4019  0.9006  2.2328
 6436TIP3   OH219271   0.299   6.377   2.213 -0.2442 -0.0723  0.2892
 6436TIP3    H119272   0.327   6.390   2.304 -1.3242  1.2598  0.4529
 6436TIP3    H219273   0.204   6.383   2.216 -0.4874 -2.3523 -0.5980
 6437TIP3   OH219274   0.516   6.690   5.549 -0.2462 -0.0986  0.4361
 6437TIP3    H119275   0.443   6.629   5.542 -0.5701  0.3094  0.1920
 6437TIP3    H219276   0.482   6.772   5.512  1.2674 -0.7114 -2.6089
 6438TIP3   OH219277   1.653   1.905   3.547 -0.1309 -0.1869  0.1241
 6438TIP3    H119278   1.680   1.972   3.609 -0.3261 -1.5278  1.7387
 6438TIP3    H219279   1.695   1.929   3.465  2.1656  0.3324  1.3720
 6439TIP3   OH219280   4.299   6.023   0.668 -0.1875 -0.4859  0.1523
 6439TIP3    H119281   4.354   5.987   0.738  0.9600 -1.1472 -1.0584
 6439TIP3    H219282   4.247   6.091   0.712  0.3332 -1.0365  1.6903
 6440TIP3   OH219283   3.095   2.639   1.090  0.2370 -0.6626  0.2310
 6440TIP3    H119284   3.089   2.716   1.146 -0.2055  0.4350 -1.2475
 6440TIP3    H219285   3.018   2.645   1.032  0.6485 -1.7602 -0.4758
 6441TIP3   OH219286   6.972   5.586   4.214  0.0723  0.4515  0.5213
 6441TIP3    H119287   7.048   5.642   4.200  0.1837  0.2046  0.1373
 6441TIP3    H219288   6.974   5.523   4.142 -0.2242  0.1418  0.7787
 6442TIP3   OH219289   5.982   2.499   5.046 -0.8099 -0.0852  0.0114
 6442TIP3    H119290   5.918   2.455   5.103 -1.3049 -2.0628 -1.9064
 6442TIP3    H219291   5.928   2.553   4.988 -0.8046 -1.5618 -1.4440
 6443TIP3   OH219292   0.152   3.347   5.315 -0.8877  0.0013  0.1803
 6443TIP3    H119293   0.155   3.272   5.256  1.2581  0.8188 -0.8602
 6443TIP3    H219294   0.222   3.405   5.285 -0.2925  0.8985  2.9693
 6444TIP3   OH219295   0.880   0.699   1.447 -0.0690  0.4199  0.2148
 6444TIP3    H119296   0.914   0.781   1.482 -1.2812  0.5966  1.0398
 6444TIP3    H219297   0.905   0.632   1.511  0.0441  0.3074  0.0538
 6445TIP3   OH219298   0.562   0.684   5.124  0.5756 -0.0155  0.1100
 6445TIP3    H119299   0.496   0.615   5.126  1.5395 -0.9980 -0.5896
 6445TIP3    H219300   0.645   0.638   5.138  1.0518  1.3222  2.0747
 6446TIP3   OH219301   0.903   1.067   0.991 -0.1074  0.1162 -1.0265
 6446TIP3    H119302   0.897   1.153   1.032 -2.8797 -0.0372 -0.8945
 6446TIP3    H219303   0.985   1.030   1.025  0.4727  2.1442 -0.0251
 6447TIP3   OH219304   3.826   4.823   2.219  0.1472 -0.6074 -0.3209
 6447TIP3    H119305   3.826   4.919   2.221  0.1755 -0.6154  0.1994
 6447TIP3    H219306   3.735   4.800   2.200 -0.4781 -0.5021  2.2037
 6448TIP3   OH219307   1.157   3.575   4.204 -0.4105  0.1853 -0.4804
 6448TIP3    H119308   1.230   3.565   4.144 -0.5594  1.2306 -0.8740
 6448TIP3    H219309   1.088   3.616   4.151 -0.0057  2.6349  0.7263
 6449TIP3   OH219310   3.791   5.302   5.876  0.1176  0.3349  0.4212
 6449TIP3    H119311   3.828   5.236   5.818 -0.2384  1.0813 -0.6757
 6449TIP3    H219312   3.799   5.384   5.828 -1.6550  0.7263  0.7365
 6450TIP3   OH219313   6.502   6.774   0.983 -0.2520  0.4416  0.2901
 6450TIP3    H119314   6.421   6.809   1.020 -0.3358  0.4961  0.0616
 6450TIP3    H219315   6.503   6.682   1.009 -0.1243  0.5654  0.7358
 6451TIP3   OH219316   6.322   2.601   5.577  0.1408 -0.0602 -0.4731
 6451TIP3    H119317   6.351   2.512   5.600 -0.7662 -0.0711  0.7286
 6451TIP3    H219318   6.304   2.596   5.484  2.8727 -0.3363 -1.0844
 6452TIP3   OH219319   3.297   0.523   2.914  0.0014  0.4908  0.1581
 6452TIP3    H119320   3.267   0.601   2.866  0.7778  3.1366  3.5571
 6452TIP3    H219321   3.392   0.528   2.908  0.0513 -0.4593  0.1184
 6453TIP3   OH219322   1.086   3.125   2.311  0.8205 -0.0438 -0.4176
 6453TIP3    H119323   1.017   3.179   2.272  1.3486  0.1720 -1.0737
 6453TIP3    H219324   1.055   3.035   2.301  1.3399 -0.0630 -2.1785
 6454TIP3   OH219325   4.157   5.563   4.318  0.8543 -0.1160 -0.2903
 6454TIP3    H119326   4.157   5.475   4.280 -0.0282 -0.1765 -0.1801
 6454TIP3    H219327   4.158   5.548   4.413 -0.9746 -0.0837 -0.2138
 6455TIP3   OH219328   1.241   2.809   4.502 -0.0120  0.4562  0.7851
 6455TIP3    H119329   1.223   2.745   4.572 -0.7064  0.0959  0.2961
 6455TIP3    H219330   1.186   2.884   4.524 -1.2261 -0.1574 -0.0395
 6456TIP3   OH219331   5.603   4.096   4.604 -0.4348  0.7207  0.6536
 6456TIP3    H119332   5.639   4.185   4.602 -0.0781  0.6151  1.5594
 6456TIP3    H219333   5.523   4.105   4.655 -1.0951  0.7447 -0.3659
 6457TIP3   OH219334   4.183   1.376   1.491 -0.0567  0.2101  0.2097
 6457TIP3    H119335   4.159   1.428   1.415  0.3217  1.4275  0.8970
 6457TIP3    H219336   4.102   1.366   1.541 -0.1242  0.1579  0.0899
 6458TIP3   OH219337   2.308   1.035   0.602  0.0920  0.5046  0.2800
 6458TIP3    H119338   2.246   1.077   0.542 -0.6946 -0.4099  0.4169
 6458TIP3    H219339   2.264   1.037   0.687  0.9285  1.2270  0.7096
 6459TIP3   OH219340   3.706   4.040   4.783  0.0393  0.1399 -0.3479
 6459TIP3    H119341   3.686   4.108   4.848 -0.9475  0.4888 -1.0115
 6459TIP3    H219342   3.751   3.973   4.834  1.2901  1.3839  0.2792
 6460TIP3   OH219343   3.034   3.170   4.801 -0.3673  0.0155  0.0670
 6460TIP3    H119344   3.105   3.212   4.753 -0.1560 -0.0175  0.3503
 6460TIP3    H219345   2.985   3.122   4.734  0.4174 -0.7271  0.0021
 6461TIP3   OH219346   4.936   4.596   1.081  0.0380 -0.4276  0.5306
 6461TIP3    H119347   4.896   4.679   1.107 -0.9053 -0.4644 -0.7107
 6461TIP3    H219348   5.026   4.619   1.059 -0.4007  0.4441 -0.4905
 6462TIP3   OH219349   4.592   5.204   1.166  0.3966 -0.1498 -0.1578
 6462TIP3    H119350   4.674   5.236   1.204  0.4936 -0.8536  0.2476
 6462TIP3    H219351   4.531   5.201   1.240 -0.1885  0.9501 -0.5726
 6463TIP3   OH219352   0.896   3.224   1.525 -0.0081 -0.0066 -0.0481
 6463TIP3    H119353   0.837   3.273   1.582 -1.6600 -2.0969  0.1460
 6463TIP3    H219354   0.854   3.227   1.439  1.5289  1.5426 -0.8153
 6464TIP3   OH219355   3.151   6.474   0.699  0.3582 -0.7817  0.0492
 6464TIP3    H119356   3.214   6.427   0.753  0.1236  1.8037  2.7920
 6464TIP3    H219357   3.078   6.494   0.758 -0.5194  1.1206 -1.5469
 6465TIP3   OH219358   4.968   1.970   4.730 -0.6194 -0.1587 -0.1763
 6465TIP3    H119359   5.021   1.909   4.679 -0.3651  0.0698 -0.1874
 6465TIP3    H219360   4.973   2.052   4.681  1.9727  0.9075  1.6162
 6466TIP3   OH219361   2.707   4.412   4.788 -0.5869 -0.0504  0.1992
 6466TIP3    H119362   2.692   4.406   4.694  2.2235  0.0503 -0.3519
 6466TIP3    H219363   2.721   4.322   4.816 -2.3173 -0.1863  0.7707
 6467TIP3   OH219364   2.125   0.357   1.099  0.1630  0.1675 -0.5518
 6467TIP3    H119365   2.035   0.332   1.075  0.0048 -2.4218  2.1567
 6467TIP3    H219366   2.113   0.418   1.172  0.6083  0.0878 -0.4140
 6468TIP3   OH219367   6.588   6.055   3.083  0.9473  0.2431  0.2669
 6468TIP3    H119368   6.576   5.963   3.105 -1.0405  0.1452 -0.9500
 6468TIP3    H219369   6.677   6.075   3.112  1.8649 -2.3545 -0.4643
 6469TIP3   OH219370   3.001   5.571   0.499 -0.3523 -0.7215  0.3326
 6469TIP3    H119371   2.985   5.647   0.557 -1.4903  0.1644 -1.0815
 6469TIP3    H219372   2.954   5.499   0.541 -0.6549 -0.2511  0.8200
 6470TIP3   OH219373   1.873   0.861   5.266  0.4824  0.0729  0.4761
 6470TIP3    H119374   1.873   0.809   5.347  0.1621 -0.3623  0.2026
 6470TIP3    H219375   1.897   0.949   5.294  0.0297  0.0071  1.1041
 6471TIP3   OH219376   1.701   1.412   5.405  0.1718  0.0656 -0.2502
 6471TIP3    H119377   1.686   1.337   5.349 -1.3685  0.5208 -0.4974
 6471TIP3    H219378   1.646   1.481   5.368  0.0050  0.7147  1.1439
 6472TIP3   OH219379   4.868   0.455   2.220  0.0157  0.3326  0.0171
 6472TIP3    H119380   4.955   0.494   2.230 -0.0365  0.5727 -0.4786
 6472TIP3    H219381   4.834   0.450   2.310 -0.6599  2.9508 -0.0051
 6473TIP3   OH219382   3.667   2.752   3.340  0.0319  0.1628  0.0118
 6473TIP3    H119383   3.699   2.842   3.329  1.1830 -0.4317 -1.9495
 6473TIP3    H219384   3.690   2.729   3.430 -0.6627  1.9460  0.6918
 6474TIP3   OH219385   3.277   1.530   3.011  0.6475  0.4423  0.0281
 6474TIP3    H119386   3.349   1.467   3.006 -0.4335 -0.7578 -1.3670
 6474TIP3    H219387   3.239   1.529   2.923 -2.3494 -0.5543  1.2294
 6475TIP3   OH219388   3.921   5.120   1.586  0.5607 -0.5676  0.1790
 6475TIP3    H119389   3.917   5.215   1.580 -0.8645 -0.6208 -0.2530
 6475TIP3    H219390   3.829   5.092   1.583  0.9777 -1.9959 -0.4651
 6476TIP3   OH219391   3.676   5.067   3.828  0.2904  0.0580  0.2092
 6476TIP3    H119392   3.653   4.988   3.778 -1.4960  1.0709 -0.6447
 6476TIP3    H219393   3.613   5.070   3.899  1.2259  0.0110  1.0669
 6477TIP3   OH219394   5.366   5.409   3.367 -0.3475 -0.1600 -0.0589
 6477TIP3    H119395   5.441   5.442   3.319  0.2092 -1.5437 -0.1963
 6477TIP3    H219396   5.304   5.380   3.300 -0.7491  0.4113  0.0566
 6478TIP3   OH219397   4.641   5.658   3.208 -0.1102  0.0770 -0.8489
 6478TIP3    H119398   4.691   5.598   3.153  0.0057  0.8374 -1.6105
 6478TIP3    H219399   4.643   5.741   3.160 -0.1840  0.7181  0.2150
 6479TIP3   OH219400   1.787   3.104   2.467 -0.0151  0.4355  0.3125
 6479TIP3    H119401   1.780   3.188   2.510 -1.5425 -0.2381  1.4918
 6479TIP3    H219402   1.838   3.121   2.387 -2.1091  2.9268 -0.6271
 6480TIP3   OH219403   5.985   0.337   1.784 -0.1429 -0.0390 -0.0006
 6480TIP3    H119404   6.068   0.341   1.735 -0.4648  1.6982 -0.4819
 6480TIP3    H219405   5.946   0.254   1.758  0.5193  0.0387 -1.3504
 6481TIP3   OH219406   6.400   1.357   3.725 -0.0661  0.0965 -0.2873
 6481TIP3    H119407   6.337   1.375   3.655 -3.2816 -1.8289  1.8469
 6481TIP3    H219408   6.372   1.414   3.797  1.3051 -0.0803  0.4119
 6482TIP3   OH219409   5.972   1.952   0.692  0.9034  0.4235 -0.2250
 6482TIP3    H119410   5.887   1.923   0.724 -0.1242  1.6414 -1.7086
 6482TIP3    H219411   5.991   2.030   0.744  0.9519  0.3513 -0.1337
 6483TIP3   OH219412   6.119   3.085   4.378 -0.4162  0.0736 -0.2504
 6483TIP3    H119413   6.166   3.158   4.338  1.2764 -0.2997  0.9428
 6483TIP3    H219414   6.058   3.126   4.438 -2.4785  0.6102 -2.5715
 6484TIP3   OH219415   1.112   4.435   2.930  0.7900  0.1088  0.1875
 6484TIP3    H119416   1.171   4.366   2.903  0.1695 -0.4545  0.2451
 6484TIP3    H219417   1.138   4.511   2.878  1.5386 -0.1360  0.2018
 6485TIP3   OH219418   4.887   6.587   0.834 -0.1693 -0.4495  0.8334
 6485TIP3    H119419   4.939   6.599   0.913 -1.0237  0.7400  1.2387
 6485TIP3    H219420   4.899   6.494   0.812  1.6752 -0.3331  1.1948
 6486TIP3   OH219421   6.917   4.547   1.533 -0.0311 -0.4575  0.3968
 6486TIP3    H119422   6.991   4.499   1.571 -1.3226 -1.4567  1.7551
 6486TIP3    H219423   6.954   4.630   1.505  1.3514 -0.3756  2.3211
 6487TIP3   OH219424   5.953   0.008   5.033 -0.0601  0.8470  0.2595
 6487TIP3    H119425   5.963   0.061   5.111 -2.6396 -0.8374  1.8648
 6487TIP3    H219426   6.012  -0.067   5.047  0.5172  1.2337 -0.0811
 6488TIP3   OH219427   6.254   3.063   2.448 -0.0778 -0.7035 -0.0771
 6488TIP3    H119428   6.251   3.029   2.537  0.6247 -1.3409 -0.2858
 6488TIP3    H219429   6.165   3.050   2.414 -0.9354  1.4084  1.1769
 6489TIP3   OH219430   0.705   2.342   1.712  0.1057 -0.1571  0.1043
 6489TIP3    H119431   0.621   2.308   1.745 -1.0827 -1.5546 -3.8617
 6489TIP3    H219432   0.765   2.267   1.719  0.5083  0.2440  1.1072
 6490TIP3   OH219433   2.008   1.384   1.825  0.6625 -0.3100  0.2271
 6490TIP3    H119434   1.972   1.327   1.758 -1.5210  3.0419 -1.7429
 6490TIP3    H219435   1.937   1.394   1.889  0.4880  1.1185 -0.1533
 6491TIP3   OH219436   4.935   1.034   1.857  0.0466 -0.2117 -0.6915
 6491TIP3    H119437   4.962   1.079   1.777  0.0296  1.6421  0.2970
 6491TIP3    H219438   4.914   1.104   1.918 -0.0634 -1.5830  0.9137
 6492TIP3   OH219439   2.458   0.594   0.320  0.2467  0.2143 -0.3293
 6492TIP3    H119440   2.395   0.578   0.390  1.0709 -0.0796  0.3676
 6492TIP3    H219441   2.443   0.524   0.257 -1.1601  1.0365 -0.9534
 6493TIP3   OH219442   5.417   5.268   4.057 -0.1396 -0.1017 -0.2022
 6493TIP3    H119443   5.339   5.272   4.003 -1.4909  1.0599  1.7090
 6493TIP3    H219444   5.463   5.350   4.039 -0.7318  0.4119  0.5772
 6494TIP3   OH219445   3.365   0.471   5.465  0.3103 -0.2794  0.2780
 6494TIP3    H119446   3.352   0.477   5.560 -0.1983 -1.1722  0.2747
 6494TIP3    H219447   3.435   0.407   5.455  1.6027  1.0920  0.0988
 6495TIP3   OH219448   1.731   2.601   2.080 -0.1935  0.5109 -0.0487
 6495TIP3    H119449   1.819   2.635   2.065  0.3766 -1.2404 -0.9802
 6495TIP3    H219450   1.731   2.515   2.039 -1.8536 -0.2212  1.3369
 6496TIP3   OH219451   2.137   1.189   3.030  0.1893  0.0613  0.1673
 6496TIP3    H119452   2.093   1.115   2.989 -0.6515  0.6805 -0.0634
 6496TIP3    H219453   2.227   1.185   2.998 -0.1766 -0.1147 -0.8570
 6497TIP3   OH219454   1.799   0.437   2.600  0.0471 -0.5674 -0.1450
 6497TIP3    H119455   1.770   0.458   2.511  0.2126  2.9462  0.4945
 6497TIP3    H219456   1.732   0.377   2.633 -0.6224 -1.0579 -2.2580
 6498TIP3   OH219457   2.435   0.956   1.413 -0.3473  0.6598  0.4481
 6498TIP3    H119458   2.456   0.901   1.337  0.1434  1.9532 -0.3871
 6498TIP3    H219459   2.499   1.027   1.409 -0.4118  0.8405  2.0087
 6499TIP3   OH219460   3.729   4.622   5.593  0.3158  0.0517  0.5699
 6499TIP3    H119461   3.653   4.570   5.618 -0.2152  0.4294 -0.2365
 6499TIP3    H219462   3.786   4.620   5.671 -0.8986  0.4707  1.4972
 6500TIP3   OH219463   2.982   6.777   4.195 -0.4709  0.3122 -0.5981
 6500TIP3    H119464   2.926   6.772   4.273  0.1808 -0.2358 -0.1574
 6500TIP3    H219465   2.980   6.688   4.159 -0.4306  0.4620 -0.9685
 6501TIP3   OH219466   5.381   5.318   4.337 -0.0174 -0.2909 -0.6311
 6501TIP3    H119467   5.391   5.233   4.381  1.6094 -1.7238 -3.4806
 6501TIP3    H219468   5.403   5.300   4.245 -1.5513  2.8454 -1.7428
 6502TIP3   OH219469   3.211   5.460   3.444  0.5378  0.0400  0.5155
 6502TIP3    H119470   3.238   5.543   3.484  4.3341 -1.2854  1.1627
 6502TIP3    H219471   3.239   5.468   3.353  0.5634 -0.3781  0.4885
 6503TIP3   OH219472   4.031   2.107   4.508  0.3152 -0.1617  0.3214
 6503TIP3    H119473   3.976   2.046   4.559  0.2893  0.8005  1.4880
 6503TIP3    H219474   4.021   2.078   4.417 -2.2029  0.0002  0.4706
 6504TIP3   OH219475   3.214   3.033   2.352 -0.1333 -0.1906 -0.5722
 6504TIP3    H119476   3.258   3.104   2.307 -1.7889  0.9642 -0.4481
 6504TIP3    H219477   3.257   2.953   2.320  1.1640  0.7979 -1.3658
 6505TIP3   OH219478   0.423   1.042   0.705  0.4128  0.1491 -0.5227
 6505TIP3    H119479   0.452   1.053   0.614 -0.4008 -1.0909 -0.9616
 6505TIP3    H219480   0.358   1.110   0.719 -0.6937 -0.6888 -1.4378
 6506TIP3   OH219481   6.448   5.031   0.151  0.2733  0.4957  0.1432
 6506TIP3    H119482   6.395   5.100   0.191 -1.3108  0.3077 -1.5136
 6506TIP3    H219483   6.400   4.950   0.167  0.8851  0.0876 -0.0155
 6507TIP3   OH219484   0.013   0.580   5.601  0.0899  0.0362  0.1756
 6507TIP3    H119485   0.100   0.619   5.611  0.2046 -0.6787  2.5792
 6507TIP3    H219486   0.027   0.507   5.541  1.4329 -0.7338  1.3473
 6508TIP3   OH219487   5.280   3.086   2.494  0.8839 -0.0175  0.4707
 6508TIP3    H119488   5.314   3.003   2.458 -0.4720 -0.4651  0.1720
 6508TIP3    H219489   5.339   3.152   2.459  0.8683 -0.6707 -0.8522
 6509TIP3   OH219490   6.918   0.437   2.027 -0.5388 -0.0674 -0.1800
 6509TIP3    H119491   6.834   0.441   1.982  0.7523  0.5699 -2.7423
 6509TIP3    H219492   6.976   0.493   1.975  1.3837 -0.1581  1.7252
 6510TIP3   OH219493   0.053   5.685   2.384  0.5032  0.0631  0.4886
 6510TIP3    H119494  -0.028   5.668   2.336  0.5879  0.8280  0.0630
 6510TIP3    H219495   0.037   5.766   2.432  0.8499 -0.0375  0.7776
 6511TIP3   OH219496   5.315   2.352   1.416 -0.0603  0.5338  0.2598
 6511TIP3    H119497   5.241   2.326   1.362  0.2571 -1.2564  0.6356
 6511TIP3    H219498   5.276   2.387   1.496 -0.5194  2.7686 -0.8492
 6512TIP3   OH219499   5.174   5.889   1.158  0.0620  0.6605  1.1117
 6512TIP3    H119500   5.203   5.845   1.237 -1.4583 -1.6510  0.4734
 6512TIP3    H219501   5.248   5.881   1.098  0.1847 -0.1317  1.3575
 6513TIP3   OH219502   7.002   1.463   5.082  0.3801  0.5714 -0.1288
 6513TIP3    H119503   6.934   1.488   5.020  0.1173 -0.3094 -0.2060
 6513TIP3    H219504   6.988   1.370   5.097  1.2167  0.5040  0.2957
 6514TIP3   OH219505   0.874   4.399   1.730 -0.2425 -0.1844 -0.8457
 6514TIP3    H119506   0.894   4.448   1.810  0.5485  1.5056 -2.0230
 6514TIP3    H219507   0.803   4.340   1.756  0.2373  0.0456  1.1886
 6515TIP3   OH219508   4.529   2.139   1.822 -1.1487  0.1016 -0.1463
 6515TIP3    H119509   4.572   2.137   1.907 -0.9312 -2.1380 -0.2519
 6515TIP3    H219510   4.452   2.194   1.835 -0.1734  1.2536  0.9923
 6516TIP3   OH219511   6.282   2.685   1.066 -0.1108  0.1661 -0.3733
 6516TIP3    H119512   6.194   2.721   1.072 -1.0672 -2.2175  1.7544
 6516TIP3    H219513   6.285   2.644   0.980 -0.7233  1.0732 -0.8406
 6517TIP3   OH219514   6.811   1.596   4.536  0.6628 -0.3733  0.0492
 6517TIP3    H119515   6.842   1.672   4.487  1.2017 -0.2523  0.5706
 6517TIP3    H219516   6.731   1.626   4.579 -0.4507 -0.8001 -1.6093
 6518TIP3   OH219517   4.748   4.850   3.982 -0.4601  0.0294 -0.4295
 6518TIP3    H119518   4.701   4.931   4.002 -0.4748 -0.0009 -0.3403
 6518TIP3    H219519   4.805   4.836   4.057 -0.3286  0.0510 -0.5245
 6519TIP3   OH219520   3.355   3.516   3.619 -0.1950  0.6371 -0.0822
 6519TIP3    H119521   3.340   3.539   3.528 -1.3569  0.9076  0.1657
 6519TIP3    H219522   3.412   3.439   3.615  1.0920  1.5991 -0.9854
 6520TIP3   OH219523   6.321   3.772   3.559  0.0443  0.0794 -0.1485
 6520TIP3    H119524   6.284   3.756   3.647 -1.1540 -1.8889 -0.9333
 6520TIP3    H219525   6.413   3.749   3.568 -0.1971 -0.7340  0.4877
 6521TIP3   OH219526   6.027   1.321   4.919  0.1015 -0.0500  0.6590
 6521TIP3    H119527   6.099   1.271   4.880 -0.1722 -0.0961  0.2077
 6521TIP3    H219528   5.989   1.261   4.984  0.1414 -0.2134  0.5304
 6522TIP3   OH219529   1.393   3.090   3.004  0.1151 -0.3117 -0.4379
 6522TIP3    H119530   1.468   3.032   3.017 -0.2282 -0.6656  0.0021
 6522TIP3    H219531   1.343   3.050   2.933  0.1328 -0.2954 -0.4594
 6523TIP3   OH219532   6.302   3.286   5.871  0.1219 -0.4534 -0.1303
 6523TIP3    H119533   6.244   3.227   5.919 -0.3337  0.6518  0.7321
 6523TIP3    H219534   6.268   3.285   5.781 -0.4490 -0.7943  0.0832
 6524TIP3   OH219535   1.050   2.601   2.529  0.0417  0.0131  0.6151
 6524TIP3    H119536   0.988   2.533   2.556  0.0283 -0.0096  0.5283
 6524TIP3    H219537   1.081   2.572   2.443 -0.2995  0.3435  0.3826
 6525TIP3   OH219538   3.256   0.723   1.048  0.2241 -0.0620  0.2954
 6525TIP3    H119539   3.345   0.755   1.064 -0.3242  2.2096 -0.7889
 6525TIP3    H219540   3.265   0.668   0.970  0.3814  2.3748 -1.5582
 6526TIP3   OH219541   4.984   0.844   5.045 -0.1033 -0.7852  0.8196
 6526TIP3    H119542   4.934   0.918   5.012  0.4231 -0.8420 -0.1160
 6526TIP3    H219543   4.941   0.822   5.128 -0.8035  0.0022  0.6794
 6527TIP3   OH219544   3.771   5.462   0.929 -0.5584  0.2114 -0.6971
 6527TIP3    H119545   3.793   5.548   0.964  0.4791  0.4632 -1.8867
 6527TIP3    H219546   3.758   5.407   1.007 -2.7480  1.7531  0.1187
 6528TIP3   OH219547   5.300   5.825   1.415 -0.1772  0.7531 -0.9773
 6528TIP3    H119548   5.388   5.787   1.420 -1.1319 -1.7031 -1.4002
 6528TIP3    H219549   5.289   5.872   1.498  0.2257 -2.0303  0.7721
 6529TIP3   OH219550   3.395   5.875   5.862 -0.0307  0.6528 -0.0743
 6529TIP3    H119551   3.331   5.804   5.862  0.7873 -0.1072 -0.1641
 6529TIP3    H219552   3.362   5.938   5.926 -2.4577  1.7857 -2.2637
 6530TIP3   OH219553   1.143   1.301   3.902 -0.1239 -0.2914 -0.2200
 6530TIP3    H119554   1.115   1.214   3.931 -1.8621  1.1598  2.9225
 6530TIP3    H219555   1.133   1.299   3.806  0.8316 -3.7869 -0.3790
 6531TIP3   OH219556   5.497   6.782   0.834 -0.4795  0.2548 -0.2021
 6531TIP3    H119557   5.533   6.777   0.923  0.2786 -0.5427 -0.5318
 6531TIP3    H219558   5.574   6.792   0.778 -0.9480  0.6867 -0.7794
 6532TIP3   OH219559   3.424   4.010   5.318  0.2274  0.5401 -0.2227
 6532TIP3    H119560   3.395   4.069   5.248  2.6088  2.1176  0.0141
 6532TIP3    H219561   3.453   3.931   5.271  0.8510  1.1788 -0.9247
 6533TIP3   OH219562   7.060   3.506   3.671 -0.1418 -0.7576 -0.0216
 6533TIP3    H119563   7.103   3.547   3.595 -1.4891  0.9387  0.0930
 6533TIP3    H219564   7.120   3.523   3.744 -0.7259  1.1748  0.0467
 6534TIP3   OH219565   1.977   2.076   0.247  0.2466 -0.7010 -0.4935
 6534TIP3    H119566   1.963   1.989   0.284 -0.5139 -0.6960 -0.7413
 6534TIP3    H219567   2.064   2.102   0.277 -0.2867 -0.7414  1.1847
 6535TIP3   OH219568   4.759   2.579   5.247 -0.2421 -0.2268  0.5045
 6535TIP3    H119569   4.665   2.568   5.240 -0.1804 -0.1685 -0.6756
 6535TIP3    H219570   4.774   2.673   5.239  0.0090 -0.3677 -0.9577
 6536TIP3   OH219571   6.487   4.144   4.030 -0.1806 -0.4241 -0.1733
 6536TIP3    H119572   6.462   4.051   4.036 -0.3023 -0.3789  0.0024
 6536TIP3    H219573   6.410   4.192   4.059  0.4707 -0.3089  1.4663
 6537TIP3   OH219574   6.156   0.978   2.393  0.1449 -0.2300  0.0103
 6537TIP3    H119575   6.068   0.960   2.426  0.1759 -1.6809 -0.6216
 6537TIP3    H219576   6.209   0.992   2.472 -0.0861 -2.1477  0.5391
 6538TIP3   OH219577   2.754   1.804   4.959 -0.0448 -0.4576  0.2238
 6538TIP3    H119578   2.670   1.844   4.980  0.6677  0.7614  0.8719
 6538TIP3    H219579   2.788   1.858   4.887  0.2376 -0.8753  0.0403
 6539TIP3   OH219580   5.156   2.764   5.564  0.4156  0.0593 -0.0558
 6539TIP3    H119581   5.130   2.673   5.551 -1.1160  0.1543  1.8945
 6539TIP3    H219582   5.074   2.811   5.577  1.1870  1.7572 -1.0174
 6540TIP3   OH219583   5.742   6.438   5.478 -0.0252 -0.1792  0.0836
 6540TIP3    H119584   5.746   6.346   5.507 -2.3320 -0.4719 -0.2874
 6540TIP3    H219585   5.789   6.439   5.395 -0.3096 -1.1236 -0.1026
 6541TIP3   OH219586   6.991   2.920   3.627 -0.3831  0.4146 -0.1592
 6541TIP3    H119587   6.962   2.894   3.714 -0.9290  1.0068 -0.1552
 6541TIP3    H219588   7.016   3.012   3.637 -2.6545  1.2278 -1.0956
 6542TIP3   OH219589   6.913   1.333   4.489 -0.0544  0.0941  0.4307
 6542TIP3    H119590   6.866   1.415   4.503 -0.0561  0.2312 -0.3376
 6542TIP3    H219591   6.961   1.346   4.407 -1.0697 -1.1101 -0.3989
 6543TIP3   OH219592   1.449   1.810   0.233  0.2142 -0.0768  0.6018
 6543TIP3    H119593   1.422   1.813   0.141  2.4429 -0.6881 -0.1371
 6543TIP3    H219594   1.500   1.729   0.240 -0.3282 -0.2968  2.5322
 6544TIP3   OH219595   1.980   5.077   3.393  0.0494  0.4018  0.1017
 6544TIP3    H119596   1.886   5.065   3.402  0.2545 -1.1902  0.3536
 6544TIP3    H219597   2.015   5.063   3.481  0.8265 -2.5775 -0.5802
 6545TIP3   OH219598   1.885   0.063   2.834  0.1451  0.4226  0.3319
 6545TIP3    H119599   1.913  -0.029   2.835  1.7806  0.8751  2.0993
 6545TIP3    H219600   1.793   0.060   2.860 -0.3573 -0.8111 -1.3964
 6546TIP3   OH219601   4.447   1.202   4.830 -0.4119  0.1673  0.1214
 6546TIP3    H119602   4.484   1.113   4.829 -0.1695  0.2638  0.4123
 6546TIP3    H219603   4.448   1.227   4.922 -0.7478  0.3644  0.0735
 6547TIP3   OH219604   4.251   2.781   0.909  0.0305  0.1677 -0.3167
 6547TIP3    H119605   4.325   2.781   0.848  0.5867  0.8148  0.3465
 6547TIP3    H219606   4.271   2.711   0.971  1.1835  1.7101  1.1333
 6548TIP3   OH219607   6.672   2.996   0.390 -0.4028  0.0783 -0.5354
 6548TIP3    H119608   6.689   2.963   0.301 -1.9954  1.8885 -1.5709
 6548TIP3    H219609   6.755   3.036   0.417  0.2323 -0.8944 -0.9938
 6549TIP3   OH219610   3.044   2.867   4.962  0.0481 -0.1181 -0.1675
 6549TIP3    H119611   3.111   2.884   4.896 -0.1791 -0.4895 -0.4985
 6549TIP3    H219612   2.967   2.841   4.912  0.3523 -2.0243  0.2982
 6550TIP3   OH219613   4.252   3.836   1.917 -0.0890 -0.0412 -0.3984
 6550TIP3    H119614   4.268   3.828   1.824  1.6507 -1.0168 -0.0525
 6550TIP3    H219615   4.339   3.844   1.956 -0.8198  1.8347  1.0427
 6551TIP3   OH219616   6.291   5.764   2.119 -0.0014 -0.4487  0.7475
 6551TIP3    H119617   6.348   5.829   2.158  1.4921 -1.5453  0.4705
 6551TIP3    H219618   6.346   5.718   2.056 -1.7392 -0.1952 -1.0714
 6552TIP3   OH219619   3.548   6.218   1.192 -0.3621 -0.0098 -0.4798
 6552TIP3    H119620   3.498   6.287   1.148 -0.4317  0.1715 -0.1213
 6552TIP3    H219621   3.508   6.211   1.279 -0.8567 -1.0280 -0.7660
 6553TIP3   OH219622   0.048   5.701   3.886  0.1184 -0.7718 -0.0037
 6553TIP3    H119623   0.026   5.794   3.885 -0.3698 -0.8773 -1.0548
 6553TIP3    H219624   0.142   5.699   3.903 -0.4099 -0.2807  3.8337
 6554TIP3   OH219625   3.127   2.838   1.321  0.2535 -0.5465 -0.0139
 6554TIP3    H119626   3.097   2.913   1.371 -0.6688 -0.3525 -0.8134
 6554TIP3    H219627   3.183   2.789   1.381  0.9751  0.8417  0.4709
 6555TIP3   OH219628   3.814   1.263   0.610  0.0067  0.0583 -0.4228
 6555TIP3    H119629   3.831   1.190   0.551 -0.7855 -0.5486  0.0900
 6555TIP3    H219630   3.766   1.225   0.682  0.1391  0.9780  0.1639
 6556TIP3   OH219631   5.677   0.135   5.023  0.2697  0.1945 -0.1641
 6556TIP3    H119632   5.642   0.081   4.952  0.2782  0.7564 -0.6025
 6556TIP3    H219633   5.753   0.086   5.055 -0.4250 -0.6345  0.2484
 6557TIP3   OH219634   2.096   1.359   5.702 -0.1170  0.3077  0.2875
 6557TIP3    H119635   2.095   1.280   5.647  1.6029  0.2475  0.2942
 6557TIP3    H219636   2.064   1.329   5.787 -0.5548 -0.1180 -0.0206
 6558TIP3   OH219637   2.668   3.020   5.373 -0.6777  0.4572  0.3718
 6558TIP3    H119638   2.741   3.040   5.431 -0.4583 -0.6328  0.4885
 6558TIP3    H219639   2.675   3.085   5.302  0.5922  0.1586  0.2050
 6559TIP3   OH219640   3.224   0.547   4.620  0.3729 -0.0216 -0.0600
 6559TIP3    H119641   3.144   0.586   4.584 -0.6104 -0.5156  1.4645
 6559TIP3    H219642   3.195   0.463   4.655  1.5858 -0.2291  0.4822
 6560TIP3   OH219643   6.118   4.978   2.050  0.1942 -0.0967 -0.5562
 6560TIP3    H119644   6.171   5.034   2.106  0.4261 -1.2435  0.4149
 6560TIP3    H219645   6.182   4.920   2.007 -0.1523 -0.6864 -0.2985
 6561TIP3   OH219646   5.367   6.576   3.926 -0.3419 -0.0038 -0.4900
 6561TIP3    H119647   5.452   6.596   3.886 -0.8615 -0.5612 -1.9247
 6561TIP3    H219648   5.357   6.482   3.916 -0.9131 -0.0166  0.1496
 6562TIP3   OH219649   6.396   0.173   1.152 -0.3020 -0.0594  0.2950
 6562TIP3    H119650   6.327   0.239   1.145 -0.7420 -0.5776 -0.4248
 6562TIP3    H219651   6.375   0.124   1.231 -0.6783 -0.1267  0.1538
 6563TIP3   OH219652   5.064   1.951   1.336 -0.1719 -0.0332  0.3102
 6563TIP3    H119653   5.140   1.903   1.303  0.1503 -0.3071  1.4203
 6563TIP3    H219654   5.075   2.040   1.301  1.6578  0.4417  1.8988
 6564TIP3   OH219655   3.143   2.153   1.314 -0.1559  0.2308 -1.1514
 6564TIP3    H119656   3.165   2.241   1.284  1.1070 -0.7204 -3.2710
 6564TIP3    H219657   3.056   2.161   1.351  0.0938  2.4424 -0.9245
 6565TIP3   OH219658   6.663   4.243   3.319 -0.2905  0.4743 -0.0011
 6565TIP3    H119659   6.671   4.223   3.412  0.1231  0.1158 -0.1122
 6565TIP3    H219660   6.752   4.264   3.291 -0.3950  0.4747 -0.3415
 6566TIP3   OH219661   1.691   6.435   2.552  0.1444 -0.7126  0.5176
 6566TIP3    H119662   1.620   6.475   2.502  0.7382 -0.8160 -0.4242
 6566TIP3    H219663   1.652   6.416   2.637 -1.2953 -1.7623 -0.3277
 6567TIP3   OH219664   0.467   0.465   3.013  0.2938 -0.2490 -0.6856
 6567TIP3    H119665   0.400   0.405   3.047  0.4325  0.1238  0.2812
 6567TIP3    H219666   0.471   0.445   2.920 -2.4535  0.9317 -1.1516
 6568TIP3   OH219667   5.363   1.222   5.712  0.3944 -0.2190 -0.2899
 6568TIP3    H119668   5.387   1.239   5.803 -0.7129  1.8602 -0.3329
 6568TIP3    H219669   5.278   1.264   5.701 -1.3844 -3.6932 -1.2889
 6569TIP3   OH219670   4.819   2.511   2.251 -0.0523  0.1171 -0.0548
 6569TIP3    H119671   4.789   2.477   2.167 -1.6012 -0.2657  0.6268
 6569TIP3    H219672   4.785   2.601   2.254  0.1342  0.1824  0.1075
 6570TIP3   OH219673   6.959   2.298   5.035 -0.0651  0.0672  0.2814
 6570TIP3    H119674   6.907   2.343   5.101  0.8497 -0.7594  1.6081
 6570TIP3    H219675   6.902   2.228   5.003 -1.2447  1.6728 -1.3037
 6571TIP3   OH219676   1.491   5.199   5.381 -0.1382 -0.0547  0.2842
 6571TIP3    H119677   1.405   5.159   5.393 -1.6103  2.8773  0.4377
 6571TIP3    H219678   1.522   5.164   5.298 -1.4181 -1.2633  0.2692
 6572TIP3   OH219679   2.465   6.522   4.112 -0.0760 -0.0793  0.1456
 6572TIP3    H119680   2.438   6.437   4.076  0.6075 -0.0580 -0.4361
 6572TIP3    H219681   2.448   6.514   4.206 -1.1279 -0.4275 -0.0544
 6573TIP3   OH219682   7.102   5.338   0.668  0.2391  0.0913 -0.3969
 6573TIP3    H119683   7.177   5.395   0.678  1.7727 -1.5296 -1.8563
 6573TIP3    H219684   7.026   5.396   0.669  1.5890  1.9024 -0.0571
 6574TIP3   OH219685   3.880  -0.008   1.407  0.2204 -0.3642  0.1743
 6574TIP3    H119686   3.792   0.000   1.444  0.1862  0.0228  0.0166
 6574TIP3    H219687   3.921   0.077   1.424 -0.4079  0.5237 -2.2168
 6575TIP3   OH219688   4.396   3.108   2.261  0.5561  0.1830 -0.3748
 6575TIP3    H119689   4.397   3.179   2.325  0.0116 -0.6685  0.6153
 6575TIP3    H219690   4.481   3.113   2.217  1.1817  0.4188  0.8356
 6576TIP3   OH219691   0.435   2.096   4.228 -0.2216  0.5080 -0.4964
 6576TIP3    H119692   0.516   2.118   4.183  0.1635  1.0724  0.4362
 6576TIP3    H219693   0.366   2.114   4.165  0.4063 -0.8359 -1.6246
 6577TIP3   OH219694   0.699   3.510   3.551 -0.3278  0.5213 -0.1254
 6577TIP3    H119695   0.740   3.438   3.599 -1.0424 -1.7028 -2.6161
 6577TIP3    H219696   0.721   3.588   3.602  2.8186 -1.0891  1.2897
 6578TIP3   OH219697   5.374   3.886   0.872  0.8562  0.5214  0.3962
 6578TIP3    H119698   5.325   3.877   0.790  0.4125 -0.9369  0.7962
 6578TIP3    H219699   5.461   3.916   0.844  1.1697 -1.3145 -0.7630
 6579TIP3   OH219700   0.112   2.265   1.109 -0.3606  0.4696  0.0848
 6579TIP3    H119701   0.080   2.344   1.065  1.2852  1.3954  0.4913
 6579TIP3    H219702   0.082   2.274   1.199 -0.5189  0.4198  0.0379
 6580TIP3   OH219703   6.472   1.895   4.132 -0.3103 -0.7251 -0.1045
 6580TIP3    H119704   6.428   1.814   4.109 -1.3123 -0.5967  1.2463
 6580TIP3    H219705   6.455   1.953   4.057  1.3560 -2.0533 -1.5964
 6581TIP3   OH219706   5.617   5.246   5.654  0.3294 -0.2782  0.0897
 6581TIP3    H119707   5.532   5.260   5.695  0.2230  0.4348 -0.3632
 6581TIP3    H219708   5.628   5.320   5.594  1.1950 -0.4464  0.0211
 6582TIP3   OH219709   0.627   5.600   2.377 -0.2490 -0.4970  0.0350
 6582TIP3    H119710   0.539   5.566   2.365 -0.6039 -0.0577  1.2432
 6582TIP3    H219711   0.624   5.646   2.461  0.4697  1.5842 -0.9855
 6583TIP3   OH219712   6.147   3.188   2.185  0.0164 -0.1866 -0.4311
 6583TIP3    H119713   6.159   3.186   2.280 -1.9679 -0.5924 -0.1401
 6583TIP3    H219714   6.058   3.222   2.173  0.5388  0.6643 -2.1896
 6584TIP3   OH219715   2.577   1.752   0.167  0.2083 -0.0094  0.3052
 6584TIP3    H119716   2.587   1.819   0.236  1.0339 -0.7988  0.9946
 6584TIP3    H219717   2.609   1.795   0.088 -1.1799  1.0679  0.3010
 6585TIP3   OH219718   5.598   0.709   1.094 -0.3798 -0.3047  0.3534
 6585TIP3    H119719   5.539   0.774   1.132  0.3830  2.5979 -2.8789
 6585TIP3    H219720   5.540   0.641   1.060 -1.5937  0.8054  0.1436
 6586TIP3   OH219721   0.310   4.783   5.718 -0.4570 -0.2560  0.6039
 6586TIP3    H119722   0.236   4.815   5.667 -1.1497  1.0831  2.3471
 6586TIP3    H219723   0.387   4.815   5.671 -1.0417  0.2310 -0.0478
 6587TIP3   OH219724   6.212   0.496   0.948 -0.0852 -0.2333 -0.4764
 6587TIP3    H119725   6.250   0.581   0.973 -0.7301  0.3132 -1.3202
 6587TIP3    H219726   6.136   0.519   0.894 -1.4449 -1.3011  0.8936
 6588TIP3   OH219727   2.795   4.025   1.322 -0.1746 -0.0872  0.0831
 6588TIP3    H119728   2.775   3.947   1.374  0.8671  0.3001  1.1077
 6588TIP3    H219729   2.745   4.013   1.242 -0.1393 -1.7557  0.2673
 6589TIP3   OH219730   3.977   1.087   5.523 -0.1665  0.0182 -0.3626
 6589TIP3    H119731   3.900   1.031   5.511  0.9621 -1.2543 -2.1836
 6589TIP3    H219732   3.989   1.090   5.618 -2.1847 -0.0986 -0.0546
 6590TIP3   OH219733   2.246   4.648   0.214 -0.4153 -0.2716  0.6572
 6590TIP3    H119734   2.313   4.593   0.256 -0.4560 -1.0851 -0.3046
 6590TIP3    H219735   2.233   4.608   0.128  0.0835  1.6928 -0.3791
 6591TIP3   OH219736   4.615   0.649   5.788 -0.0686  0.8850  0.0278
 6591TIP3    H119737   4.632   0.717   5.723  1.3653 -1.1731 -1.8856
 6591TIP3    H219738   4.617   0.696   5.872  1.3910  3.0972 -1.1382
 6592TIP3   OH219739   5.982   6.168   0.722 -0.3916  0.0624 -0.1317
 6592TIP3    H119740   5.925   6.181   0.646 -0.6675 -0.1715  0.0300
 6592TIP3    H219741   5.959   6.081   0.754 -0.7795  0.4353  0.6342
 6593TIP3   OH219742   1.614   1.311   0.133  0.1034  0.0118 -0.1165
 6593TIP3    H119743   1.562   1.328   0.211  1.3665  1.2908  0.4830
 6593TIP3    H219744   1.700   1.283   0.167  0.6436  0.5055 -1.0241
 6594TIP3   OH219745   0.066   1.883   0.371  0.1805 -0.4113 -0.2706
 6594TIP3    H119746   0.094   1.891   0.279  0.5251 -2.9668 -0.4738
 6594TIP3    H219747   0.033   1.793   0.378  0.2412 -0.3090  2.1259
 6595TIP3   OH219748   3.414   3.045   3.127 -0.0165 -0.1177 -0.0911
 6595TIP3    H119749   3.500   3.043   3.084 -0.7645 -0.2510 -1.6410
 6595TIP3    H219750   3.411   2.964   3.177  1.3002  0.5390  1.1425
 6596TIP3   OH219751   0.821   3.619   5.432  0.1057  0.2587  0.1809
 6596TIP3    H119752   0.874   3.697   5.416 -0.3590  0.9080  1.6318
 6596TIP3    H219753   0.743   3.631   5.377  0.5635  0.2441 -0.4782
 6597TIP3   OH219754   4.942   4.335   5.379 -0.8611 -0.3274  0.0619
 6597TIP3    H119755   5.022   4.295   5.413 -0.2674  1.5300  1.0420
 6597TIP3    H219756   4.939   4.309   5.287  1.2423  0.0571 -0.1798
 6598TIP3   OH219757   2.716   0.506   3.581  0.8226  0.0633 -0.2368
 6598TIP3    H119758   2.705   0.561   3.503  1.1640 -0.1877 -0.4695
 6598TIP3    H219759   2.640   0.448   3.579 -1.5794  2.8324  2.0143
 6599TIP3   OH219760   2.014   0.918   5.718  0.7395  0.7144 -0.2342
 6599TIP3    H119761   2.108   0.905   5.704  1.1539  2.1729  0.9874
 6599TIP3    H219762   2.008   0.973   5.796 -1.2078 -1.5159  1.3754
 6600TIP3   OH219763   1.401   2.664   3.356 -0.2517  0.0415 -0.2587
 6600TIP3    H119764   1.449   2.712   3.289  1.2492 -1.2926 -0.1810
 6600TIP3    H219765   1.460   2.594   3.383 -1.6230 -0.6799  1.0106
 6601TIP3   OH219766   5.558   3.363   4.436  0.5005 -0.3048  0.8922
 6601TIP3    H119767   5.571   3.299   4.366 -0.0375 -0.5241  0.9917
 6601TIP3    H219768   5.479   3.410   4.412  1.6817  1.3598  0.0474
 6602TIP3   OH219769   1.723   3.679   2.611  0.3609 -0.4015  0.4855
 6602TIP3    H119770   1.764   3.603   2.570 -0.2541  0.0949 -1.1350
 6602TIP3    H219771   1.789   3.748   2.605  0.0989 -0.1914 -0.1931
 6603TIP3   OH219772   5.405   2.935   5.537 -0.6570  0.0566 -0.5570
 6603TIP3    H119773   5.384   3.028   5.537  1.8105  0.6865 -0.8232
 6603TIP3    H219774   5.333   2.894   5.584 -3.2028  1.6965 -2.7262
 6604TIP3   OH219775   6.945   3.114   2.626  0.1653  0.1924  0.0921
 6604TIP3    H119776   6.921   3.115   2.533  3.3997 -0.0376 -0.9078
 6604TIP3    H219777   6.966   3.022   2.643  1.0446  0.4676  0.5577
 6605TIP3   OH219778   1.906   0.028   5.156 -0.1530 -0.0425  0.2458
 6605TIP3    H119779   1.905   0.124   5.150  0.4345 -0.1352 -2.6829
 6605TIP3    H219780   1.981   0.009   5.212 -0.5814  1.1855  1.3034
 6606TIP3   OH219781   2.194   4.134   5.370  0.0025  0.7147  0.1364
 6606TIP3    H119782   2.170   4.055   5.419 -0.6833  0.4463 -0.6194
 6606TIP3    H219783   2.147   4.127   5.288  0.1962  1.7597 -0.0784
 6607TIP3   OH219784   3.834   5.982   4.975 -0.1395  0.1279  0.0831
 6607TIP3    H119785   3.839   6.006   5.068 -0.2920  1.4225 -0.2179
 6607TIP3    H219786   3.917   5.937   4.957  0.0118  0.1156  0.7776
 6608TIP3   OH219787   5.244   1.305   2.506 -0.1332  0.0424 -0.5205
 6608TIP3    H119788   5.283   1.369   2.446 -0.9817  1.1738  0.1039
 6608TIP3    H219789   5.164   1.276   2.462  0.4789 -0.9703 -1.0108
 6609TIP3   OH219790   2.724   3.427   0.309 -0.3100 -0.3692 -0.1544
 6609TIP3    H119791   2.760   3.452   0.394 -1.5044 -0.5649  0.4356
 6609TIP3    H219792   2.796   3.384   0.264 -0.4585 -3.0377  1.9513
 6610TIP3   OH219793   5.388   6.195   3.573 -0.1568 -0.5239 -0.1036
 6610TIP3    H119794   5.337   6.154   3.643 -0.2163 -0.0402  0.1387
 6610TIP3    H219795   5.364   6.146   3.494  0.8764 -1.9053  0.4137
 6611TIP3   OH219796   0.967   1.658   1.260 -0.0023  0.4068 -0.2780
 6611TIP3    H119797   0.879   1.619   1.259 -0.2765  0.9654  0.6537
 6611TIP3    H219798   0.953   1.746   1.295  0.7121  1.0916 -1.6461
 6612TIP3   OH219799   2.384   0.453   1.860  0.5731 -0.5277  0.5323
 6612TIP3    H119800   2.424   0.536   1.884 -0.0079 -0.0797 -0.0193
 6612TIP3    H219801   2.386   0.452   1.764 -1.6991  0.0061  0.4381
 6613TIP3   OH219802   4.167   1.376   3.055  0.0224  0.4416  0.1070
 6613TIP3    H119803   4.116   1.446   3.095 -0.1358 -2.1016  5.0548
 6613TIP3    H219804   4.258   1.402   3.069  0.0754  1.1971 -1.3790
 6614TIP3   OH219805   0.974   6.534   4.415  0.0467 -0.2738  0.0938
 6614TIP3    H119806   0.913   6.607   4.410  0.9503  0.5296  0.5877
 6614TIP3    H219807   0.923   6.462   4.452 -0.6352  0.3415  0.3573
 6615TIP3   OH219808   3.930   3.913   4.449 -0.4002  0.7528 -0.3112
 6615TIP3    H119809   3.869   3.848   4.413  0.1898 -0.5645  0.9902
 6615TIP3    H219810   4.016   3.884   4.420 -0.1746  1.2421 -0.1395
 6616TIP3   OH219811   3.096   4.444   4.667  0.1748 -0.1391  0.4127
 6616TIP3    H119812   3.108   4.412   4.578 -0.6615 -1.7097  0.8328
 6616TIP3    H219813   3.029   4.387   4.704  0.5285  0.4678  2.0590
 6617TIP3   OH219814   0.855   2.569   0.770 -0.1275 -0.2719  0.1240
 6617TIP3    H119815   0.892   2.543   0.686  0.1345  0.0849  0.1241
 6617TIP3    H219816   0.862   2.491   0.825 -1.4168 -0.8811 -0.5442
 6618TIP3   OH219817   1.361   0.368   0.593 -0.2251  0.2339 -0.0186
 6618TIP3    H119818   1.284   0.423   0.607 -0.2075  0.7000 -1.5416
 6618TIP3    H219819   1.380   0.377   0.500  0.8898 -0.9201  0.0689
 6619TIP3   OH219820   1.653   2.168   3.908 -0.0966 -0.1009 -0.3752
 6619TIP3    H119821   1.682   2.253   3.940 -0.4609  0.3039 -1.0876
 6619TIP3    H219822   1.568   2.155   3.949  0.4148 -0.6100  0.5523
 6620TIP3   OH219823   0.198   1.800   1.683  0.1261  1.0032  0.3165
 6620TIP3    H119824   0.114   1.768   1.715  0.5164 -1.2293 -0.6922
 6620TIP3    H219825   0.196   1.894   1.700 -1.6509  0.6807  2.3224
 6621TIP3   OH219826   5.726   1.766   0.019  0.0381  0.1821  0.1234
 6621TIP3    H119827   5.712   1.841   0.077 -1.0431  0.2245 -0.1804
 6621TIP3    H219828   5.643   1.720   0.018  0.6430 -0.9396  0.1659
 6622TIP3   OH219829   0.184   4.918   4.143 -0.3842 -0.6670 -0.4939
 6622TIP3    H119830   0.274   4.939   4.118 -0.5956  1.0747  0.0323
 6622TIP3    H219831   0.145   4.880   4.064  0.4317 -0.1486 -1.1659
 6623TIP3   OH219832   3.854   4.529   2.560  0.4969  0.4610 -0.3936
 6623TIP3    H119833   3.908   4.462   2.518  0.0887  0.1910 -0.4900
 6623TIP3    H219834   3.775   4.534   2.506  0.4230  0.8495 -0.2526
 6624TIP3   OH219835   4.473   3.616   2.168  0.3755 -0.0269  0.2580
 6624TIP3    H119836   4.550   3.566   2.140  0.0552 -0.5246  0.2505
 6624TIP3    H219837   4.416   3.616   2.092  0.4672  0.5442  0.1880
 6625TIP3   OH219838   3.510   4.545   5.305 -0.6437 -0.1193  0.3002
 6625TIP3    H119839   3.521   4.518   5.214  0.6885 -0.2567  0.4871
 6625TIP3    H219840   3.470   4.469   5.348 -0.2787 -0.4516  0.0554
 6626TIP3   OH219841   3.094   2.119   2.362  0.2947 -0.2079  0.3101
 6626TIP3    H119842   3.033   2.066   2.413  0.8356 -0.2827  0.8898
 6626TIP3    H219843   3.043   2.149   2.286 -0.4669 -0.2186  0.8154
 6627TIP3   OH219844   4.494   0.782   3.947  0.1655  0.1673 -0.0655
 6627TIP3    H119845   4.572   0.816   3.905  0.4526 -0.1120  0.2334
 6627TIP3    H219846   4.451   0.859   3.984  0.8389  0.2101  0.6546
 6628TIP3   OH219847   1.299   3.213   5.641 -0.0619  0.1648 -0.1491
 6628TIP3    H119848   1.302   3.308   5.654 -0.2265  0.2548 -0.7456
 6628TIP3    H219849   1.209   3.195   5.614  0.3458  0.0366 -1.4753
 6629TIP3   OH219850   1.772   5.470   4.042 -0.8030  0.5119 -0.0062
 6629TIP3    H119851   1.759   5.557   4.003 -1.0869 -0.3571 -1.9553
 6629TIP3    H219852   1.852   5.438   4.003 -0.8471 -0.2335  0.4950
 6630TIP3   OH219853   4.154   5.371   4.110  0.5842 -0.3873 -0.2174
 6630TIP3    H119854   4.176   5.447   4.056  1.3637 -0.5193 -0.0926
 6630TIP3    H219855   4.238   5.334   4.136  0.4543  1.7852  4.2121
 6631TIP3   OH219856   4.218   3.878   2.842 -0.0545  0.1233  0.0178
 6631TIP3    H119857   4.234   3.938   2.769 -0.5185  0.1219 -0.0888
 6631TIP3    H219858   4.293   3.818   2.842  0.7067  1.0407  0.4727
 6632TIP3   OH219859   1.903   3.698   1.352 -0.1370 -0.3865 -0.0490
 6632TIP3    H119860   1.970   3.751   1.308 -1.0243  1.0291  0.2219
 6632TIP3    H219861   1.836   3.684   1.286 -1.2788  1.3934  0.6431
 6633TIP3   OH219862   1.950   3.890   0.214 -0.2509  0.0162 -0.3073
 6633TIP3    H119863   2.016   3.935   0.268  1.4157 -1.2626 -1.1748
 6633TIP3    H219864   1.977   3.798   0.215 -1.4656 -0.3819 -1.5070
 6634TIP3   OH219865   2.521   0.839   0.710 -0.1039  0.0628 -0.3032
 6634TIP3    H119866   2.475   0.778   0.766 -0.0774  0.1327 -0.2054
 6634TIP3    H219867   2.458   0.909   0.693  0.0501  0.2878  0.0415
 6635TIP3   OH219868   7.071   3.303   1.393  0.2768 -0.4615 -0.3212
 6635TIP3    H119869   7.100   3.393   1.380 -1.3512 -0.0199 -1.0859
 6635TIP3    H219870   7.048   3.298   1.486  0.0625  0.0056 -0.3498
 6636TIP3   OH219871   4.615   5.591   5.747  0.4883 -0.0874 -0.7719
 6636TIP3    H119872   4.618   5.665   5.807 -0.1995  0.4573 -1.3893
 6636TIP3    H219873   4.570   5.522   5.796 -1.2336  0.7612 -1.0494
 6637TIP3   OH219874   2.255   3.518   4.039 -0.3129 -0.2869  0.1172
 6637TIP3    H119875   2.312   3.464   4.094 -0.2711 -1.2955 -0.8834
 6637TIP3    H219876   2.280   3.608   4.061  1.0315 -0.6946  0.3855
 6638TIP3   OH219877   3.163   1.296   3.199  0.0327 -0.2104 -0.4059
 6638TIP3    H119878   3.196   1.363   3.260  1.2939 -0.4760 -0.7601
 6638TIP3    H219879   3.229   1.293   3.130 -0.4664 -1.1972 -0.8519
 6639TIP3   OH219880   4.126   1.568   1.766  0.4000 -0.5558  0.5763
 6639TIP3    H119881   4.047   1.570   1.819 -1.7157 -1.6268 -2.3135
 6639TIP3    H219882   4.109   1.630   1.695  2.0518 -1.0277 -0.2884
 6640TIP3   OH219883   3.385   5.606   5.020 -0.4311  0.5120  0.4676
 6640TIP3    H119884   3.294   5.634   5.015 -0.7611 -0.7510 -3.1136
 6640TIP3    H219885   3.421   5.625   4.933  1.7116 -2.2195  0.6349
 6641TIP3   OH219886   0.944   4.050   3.148  0.3903  0.2222  0.4031
 6641TIP3    H119887   0.925   4.135   3.107 -0.7636  0.3773  1.1884
 6641TIP3    H219888   0.999   4.004   3.085  0.3851  1.2529 -0.3807
 6642TIP3   OH219889   6.858   5.986   0.672  0.3381  0.4318  0.0094
 6642TIP3    H119890   6.909   5.938   0.607  0.8848 -0.5329  1.1256
 6642TIP3    H219891   6.903   6.070   0.680  2.0763 -0.5705  1.3094
 6643TIP3   OH219892   0.918   5.882   4.545 -0.4079  0.1317 -0.1671
 6643TIP3    H119893   0.841   5.837   4.580  0.1875 -0.3288  0.5815
 6643TIP3    H219894   0.972   5.902   4.622 -1.4848  3.8765 -0.1598
 6644TIP3   OH219895   6.794   0.437   2.583  0.1497  0.2229 -0.0195
 6644TIP3    H119896   6.856   0.389   2.526 -0.3539  1.3285 -1.5779
 6644TIP3    H219897   6.718   0.380   2.589 -0.0607  0.3623 -1.0624
 6645TIP3   OH219898   2.749   4.636   3.845  0.4389  0.4714  0.4992
 6645TIP3    H119899   2.654   4.626   3.846  0.4868 -0.3113 -0.6238
 6645TIP3    H219900   2.763   4.728   3.824 -0.0795  0.4591  0.0768
 6646TIP3   OH219901   3.249   4.422   5.402  0.7604  0.6602  0.0013
 6646TIP3    H119902   3.166   4.409   5.449  1.6857  0.4654  1.6582
 6646TIP3    H219903   3.247   4.356   5.333 -0.7916  1.1685 -0.4918
 6647TIP3   OH219904   2.375   6.662   1.472  0.1352  0.2517  0.4343
 6647TIP3    H119905   2.292   6.697   1.502 -0.5832 -0.1467 -0.9872
 6647TIP3    H219906   2.427   6.651   1.552 -0.7705  1.4913  1.2363
 6648TIP3   OH219907   2.114   4.773   3.043 -0.1153  0.2911 -0.8375
 6648TIP3    H119908   2.032   4.808   3.079  0.2565  0.8411 -0.5146
 6648TIP3    H219909   2.163   4.743   3.119 -0.1174 -0.2700 -1.0530
 6649TIP3   OH219910   6.932   0.720   4.093  0.7566 -0.8242 -0.0303
 6649TIP3    H119911   6.871   0.740   4.163  1.2800 -0.4349  0.3262
 6649TIP3    H219912   6.893   0.646   4.047 -0.3542 -0.1058 -0.2845
 6650TIP3   OH219913   2.808   2.843   4.774 -0.4410  0.3202 -0.4872
 6650TIP3    H119914   2.825   2.807   4.687 -0.6534  1.9350 -1.2363
 6650TIP3    H219915   2.726   2.891   4.765 -0.3960  0.6345  0.5769
 6651TIP3   OH219916   2.281   2.293   2.411  0.0356  0.0248 -0.4079
 6651TIP3    H119917   2.350   2.304   2.476 -0.8429  0.1917  0.5267
 6651TIP3    H219918   2.299   2.361   2.345 -1.0288  2.2557  1.4591
 6652TIP3   OH219919   0.283   5.588   2.980  0.0060 -0.3933 -0.6639
 6652TIP3    H119920   0.191   5.615   2.985 -0.1217 -0.8630 -0.4283
 6652TIP3    H219921   0.286   5.524   2.909 -0.0750 -1.2310  0.0626
 6653TIP3   OH219922   7.189   5.918   4.553  0.1496 -0.6176 -0.0895
 6653TIP3    H119923   7.132   5.946   4.625 -0.5375  1.6124 -1.3646
 6653TIP3    H219924   7.275   5.954   4.574  0.1966 -0.8383  0.0951
 6654TIP3   OH219925   0.049   5.687   2.743  0.0239  0.0246 -0.0354
 6654TIP3    H119926   0.001   5.647   2.816  1.4337 -2.2564 -0.2627
 6654TIP3    H219927   0.141   5.686   2.771  0.4761 -0.0075 -1.4470
 6655TIP3   OH219928   0.595   4.441   1.538  0.0549 -0.1592  0.5373
 6655TIP3    H119929   0.676   4.489   1.517 -0.0594 -0.5268 -0.8751
 6655TIP3    H219930   0.525   4.502   1.517 -0.0759 -0.6917 -0.6444
 6656TIP3   OH219931   2.513   4.850   1.058  0.1329 -0.4861  0.2794
 6656TIP3    H119932   2.566   4.916   1.102  1.4104 -1.5440  0.3943
 6656TIP3    H219933   2.450   4.900   1.006  0.9357  0.8042  0.5108
 6657TIP3   OH219934   1.745   3.218   1.231 -0.0951  0.2727  0.4691
 6657TIP3    H119935   1.796   3.204   1.310  0.3091 -0.8723  0.0179
 6657TIP3    H219936   1.794   3.285   1.183 -1.1109  2.0730  1.8212
 6658TIP3   OH219937   5.438   0.308   1.507  0.6600  0.1702 -0.3118
 6658TIP3    H119938   5.418   0.373   1.439 -0.8182 -1.0081 -1.0643
 6658TIP3    H219939   5.428   0.356   1.590 -0.1504  0.9680 -0.8595
 6659TIP3   OH219940   2.595   4.797   0.721 -0.0776  0.3296 -0.0250
 6659TIP3    H119941   2.589   4.861   0.650  0.4497 -1.4607 -1.7716
 6659TIP3    H219942   2.683   4.762   0.714  0.0359  0.2281  1.6483
 6660TIP3   OH219943   4.860   5.849   3.517 -0.1534  0.1764 -0.3181
 6660TIP3    H119944   4.941   5.899   3.528  0.4465 -0.5887 -1.0839
 6660TIP3    H219945   4.798   5.910   3.478  0.6349  0.2797 -1.4426
 6661TIP3   OH219946   0.733   6.192   2.858  0.6057 -0.2037 -0.0770
 6661TIP3    H119947   0.749   6.281   2.826 -0.1756  0.4932  1.3878
 6661TIP3    H219948   0.739   6.199   2.953  1.8691 -2.0124  0.0202
 6662TIP3   OH219949   1.833   3.827   2.125  0.1743  0.0885 -0.0918
 6662TIP3    H119950   1.772   3.860   2.059  0.2501  1.4339  0.4724
 6662TIP3    H219951   1.916   3.870   2.104  1.0389 -1.9000 -0.9908
 6663TIP3   OH219952   0.561   0.888   4.365 -0.2690  0.5794 -0.4617
 6663TIP3    H119953   0.533   0.979   4.359  0.1392  0.6915 -0.7818
 6663TIP3    H219954   0.569   0.860   4.273 -0.7034  0.1199 -0.3671
 6664TIP3   OH219955   6.429   1.795   1.533  0.4256 -0.4300  0.1548
 6664TIP3    H119956   6.376   1.728   1.576 -1.6375  1.0077 -0.0394
 6664TIP3    H219957   6.382   1.877   1.548  0.9724  0.5056 -2.5993
 6665TIP3   OH219958   4.602   4.021   3.789  0.2280 -0.5294 -1.0051
 6665TIP3    H119959   4.636   3.990   3.705 -1.0959 -1.3486 -1.2552
 6665TIP3    H219960   4.538   4.088   3.766  1.3670  0.7655 -0.5444
 6666TIP3   OH219961   5.258   1.242   0.045  0.2009  0.3016  0.5920
 6666TIP3    H119962   5.225   1.297  -0.026  0.5043 -0.5849 -0.2567
 6666TIP3    H219963   5.345   1.215   0.016  0.1683 -0.3956  1.1233
 6667TIP3   OH219964   6.201   5.481   0.909 -0.4296  0.7997  0.3082
 6667TIP3    H119965   6.259   5.498   0.983 -1.7154  0.8408  1.3292
 6667TIP3    H219966   6.204   5.386   0.897 -1.1446  0.6516  1.2076
 6668TIP3   OH219967   4.639   0.778   0.607 -0.1474  0.6546 -0.0591
 6668TIP3    H119968   4.620   0.726   0.686  1.5983 -0.0768 -0.0709
 6668TIP3    H219969   4.679   0.858   0.640  0.8477  0.2244 -0.1933
 6669TIP3   OH219970   6.394   5.906   5.625 -0.5545  0.1017 -0.1865
 6669TIP3    H119971   6.397   5.916   5.720  0.7086 -1.5301 -0.0075
 6669TIP3    H219972   6.395   5.996   5.591  1.1069  0.6978  1.3244
 6670TIP3   OH219973   4.314   1.519   5.698 -0.6270  0.3372 -0.3491
 6670TIP3    H119974   4.321   1.602   5.745  0.0972  0.6221 -0.9449
 6670TIP3    H219975   4.221   1.511   5.676 -0.5559  1.4309 -1.0831
 6671TIP3   OH219976   5.227   5.183   3.844 -0.1498 -0.5569  0.0187
 6671TIP3    H119977   5.240   5.111   3.782 -0.5752 -0.0364 -0.6976
 6671TIP3    H219978   5.237   5.262   3.790 -1.9604 -0.0996  0.2931
 6672TIP3   OH219979   6.515   4.880   1.190  0.0193  0.0989  0.1179
 6672TIP3    H119980   6.534   4.914   1.277  2.0195  1.1774 -0.6623
 6672TIP3    H219981   6.448   4.938   1.155  0.6593  0.9252  0.2273
 6673TIP3   OH219982   6.154   5.564   1.703  0.1059  0.2418  0.1567
 6673TIP3    H119983   6.082   5.504   1.722 -0.0953  0.5140  0.2675
 6673TIP3    H219984   6.231   5.525   1.745 -0.0315  0.0800  0.2552
 6674TIP3   OH219985   5.540   1.092   5.556 -0.0206  0.1833 -0.0847
 6674TIP3    H119986   5.493   1.161   5.604  1.3123  0.2716  1.1699
 6674TIP3    H219987   5.587   1.044   5.624  0.5691 -0.7790 -1.1452
 6675TIP3   OH219988   3.373   5.208   1.177 -0.4248 -0.2879 -0.1361
 6675TIP3    H119989   3.445   5.173   1.126 -0.2258 -1.1158  0.6765
 6675TIP3    H219990   3.414   5.250   1.252 -0.7630 -3.1577  1.8348
 6676TIP3   OH219991   5.451   6.617   4.742  0.2343  0.4419  0.0625
 6676TIP3    H119992   5.517   6.582   4.683  0.5054 -0.3952  0.8359
 6676TIP3    H219993   5.483   6.704   4.766 -0.8067  1.6084 -2.4576
 6677TIP3   OH219994   0.169   4.399   0.677 -0.4782  0.3552  0.0311
 6677TIP3    H119995   0.216   4.414   0.759 -0.0378  1.9450 -0.4875
 6677TIP3    H219996   0.131   4.483   0.655  0.7301  0.3931 -2.2023
 6678TIP3   OH219997   4.556   1.830   5.593  0.8661  0.2567  0.6099
 6678TIP3    H119998   4.498   1.904   5.575  1.9447  1.1580  0.7182
 6678TIP3    H219999   4.630   1.843   5.534  1.0937 -0.7138  0.6759
 6679TIP3   OH220000   5.299   3.872   4.582  0.8629  0.3567 -0.3024
 6679TIP3    H120001   5.289   3.852   4.675 -0.5759  0.0289 -0.5001
 6679TIP3    H220002   5.373   3.818   4.554  1.4254  0.5838  0.6646
 6680TIP3   OH220003   3.352   3.750   5.704  0.1184 -0.0739 -0.5181
 6680TIP3    H120004   3.359   3.727   5.611  1.9309  0.5924 -0.5974
 6680TIP3    H220005   3.266   3.790   5.712 -0.7568 -1.6489 -1.5443
 6681TIP3   OH220006   3.720   0.388   0.854  0.7026  0.1931 -0.0102
 6681TIP3    H120007   3.661   0.330   0.902 -0.8480  0.0658 -1.9195
 6681TIP3    H220008   3.784   0.330   0.813  0.5591  0.0630 -0.0483
 6682TIP3   OH220009   5.853   2.577   0.657 -0.3754 -0.0004 -0.0711
 6682TIP3    H120010   5.807   2.632   0.593  1.0138 -0.8549 -1.8804
 6682TIP3    H220011   5.939   2.617   0.666 -0.6639  0.3320  1.6418
 6683TIP3   OH220012   1.085   4.291   1.331 -0.0851 -0.2144 -0.7687
 6683TIP3    H120013   1.078   4.361   1.396 -1.3920 -0.3544 -0.7381
 6683TIP3    H220014   1.148   4.230   1.368  0.8047  0.7532 -0.6254
 6684TIP3   OH220015   1.282   6.008   1.686 -0.0382  0.3538 -0.5970
 6684TIP3    H120016   1.246   5.964   1.609 -0.1548  0.5044 -0.6289
 6684TIP3    H220017   1.250   5.957   1.760  2.2984 -1.4753 -0.7161
 6685TIP3   OH220018   3.627   2.446   1.518  0.2380  0.4084  0.3965
 6685TIP3    H120019   3.575   2.391   1.460 -0.2627  0.6478  0.6134
 6685TIP3    H220020   3.678   2.502   1.459 -0.9771  1.3155  0.1857
 6686TIP3   OH220021   0.940   0.787   0.228 -0.3949  0.0623  0.0823
 6686TIP3    H120022   0.974   0.877   0.227 -0.7386  0.2635 -3.1766
 6686TIP3    H220023   0.845   0.798   0.226 -0.4629 -0.4093  0.5750
 6687TIP3   OH220024   2.976   0.243   5.483  0.1919 -0.8995  0.2096
 6687TIP3    H120025   2.983   0.231   5.578  1.1133 -0.0730  0.2512
 6687TIP3    H220026   2.908   0.310   5.473 -0.2607 -1.3443  0.2553
 6688TIP3   OH220027   0.698   4.621   5.819 -0.2599  0.3477 -0.0450
 6688TIP3    H120028   0.746   4.703   5.823  1.0148 -0.2931 -1.2292
 6688TIP3    H220029   0.731   4.578   5.740 -1.7186 -0.8007 -0.0755
 6689TIP3   OH220030   3.793   5.513   5.722 -0.1204 -0.0208  0.1096
 6689TIP3    H120031   3.760   5.552   5.641 -1.8903  1.6158  1.5469
 6689TIP3    H220032   3.888   5.526   5.718 -0.2709  0.8086 -1.2956
 6690TIP3   OH220033   6.475   2.029   4.573 -0.2862  0.1921 -0.2161
 6690TIP3    H120034   6.391   2.033   4.618 -0.4365  0.5876 -0.5220
 6690TIP3    H220035   6.495   2.120   4.549  0.7156  0.2444  0.7202
 6691TIP3   OH220036   1.361   1.514   1.087 -0.0258  0.5492 -0.2395
 6691TIP3    H120037   1.375   1.437   1.142 -2.2491  0.4428  0.2923
 6691TIP3    H220038   1.448   1.535   1.053  0.4962 -3.0627 -1.6286
 6692TIP3   OH220039   5.384   2.145   3.724  0.2701  0.3410  0.1843
 6692TIP3    H120040   5.300   2.129   3.767  0.6243  0.6976  1.0299
 6692TIP3    H220041   5.363   2.203   3.651 -0.6760 -1.9892 -1.5306
 6693TIP3   OH220042   1.288   0.401   4.350 -0.2556 -0.2270 -0.1517
 6693TIP3    H120043   1.383   0.396   4.344 -0.2443 -0.9567  0.5027
 6693TIP3    H220044   1.258   0.398   4.259  0.2777 -1.9689 -0.3160
 6694TIP3   OH220045   1.664   4.522   1.756  0.2368 -0.4272 -0.1098
 6694TIP3    H120046   1.649   4.484   1.843  1.3975  0.3754  0.4668
 6694TIP3    H220047   1.646   4.616   1.768 -0.3673 -0.4284 -0.9442
 6695TIP3   OH220048   3.114   1.419   0.604 -0.3362  0.2119  0.2382
 6695TIP3    H120049   3.071   1.495   0.644  0.6898  1.7259 -1.3955
 6695TIP3    H220050   3.108   1.434   0.510  1.3126 -0.9203 -0.0928
 6696TIP3   OH220051   4.376   2.395   4.198  0.3866 -0.2696  0.2455
 6696TIP3    H120052   4.330   2.390   4.114 -0.9286 -0.1016  0.9236
 6696TIP3    H220053   4.392   2.488   4.212  0.7363 -0.3099  0.1113
 6697TIP3   OH220054   1.202   2.609   3.915 -0.1533  0.5312  0.3485
 6697TIP3    H120055   1.158   2.648   3.990 -0.2052 -0.0450  0.6254
 6697TIP3    H220056   1.137   2.550   3.877 -0.5123  1.6408 -0.8284
 6698TIP3   OH220057   4.827   6.496   1.644 -0.0296 -0.4833 -0.3262
 6698TIP3    H120058   4.832   6.401   1.639 -1.1263 -0.4927 -3.6184
 6698TIP3    H220059   4.811   6.514   1.737  2.4290 -3.2939  0.8035
 6699TIP3   OH220060   0.950   2.424   5.133 -0.2519 -0.1653  1.0217
 6699TIP3    H120061   0.913   2.470   5.058  2.0609 -1.3566 -0.9740
 6699TIP3    H220062   0.909   2.337   5.130  2.7262 -1.6727 -1.5061
 6700TIP3   OH220063   1.251   1.073   3.711  0.5731  0.5306 -0.0937
 6700TIP3    H120064   1.330   1.066   3.658  0.4416 -0.1718 -0.2039
 6700TIP3    H220065   1.181   1.091   3.648  0.1617 -1.7801 -0.3946
 6701TIP3   OH220066   0.248   1.013   5.248  0.2146  0.4355  0.5577
 6701TIP3    H120067   0.340   1.027   5.226  0.9879 -3.3166  0.7572
 6701TIP3    H220068   0.232   1.070   5.324  1.8429  2.3268 -0.4258
 6702TIP3   OH220069   5.876   4.234   3.120 -0.2144  0.2587  0.4966
 6702TIP3    H120070   5.888   4.328   3.109  0.1051  0.2045  0.3636
 6702TIP3    H220071   5.959   4.203   3.156 -0.0052 -0.0977 -0.2566
 6703TIP3   OH220072   4.273   1.173   0.399 -0.3935  0.3373  0.9267
 6703TIP3    H120073   4.368   1.180   0.396 -0.5008  1.9582 -0.4252
 6703TIP3    H220074   4.251   1.182   0.492  0.7906 -1.0721  1.3841
 6704TIP3   OH220075   5.718   2.483   5.641 -0.0098 -0.0056 -0.2981
 6704TIP3    H120076   5.644   2.543   5.634  0.1425  0.0839 -1.4560
 6704TIP3    H220077   5.722   2.440   5.555  0.2129 -1.2828  0.3311
 6705TIP3   OH220078   0.632   2.034   4.845  0.3417 -0.2826 -0.2300
 6705TIP3    H120079   0.677   1.950   4.847  1.6109  0.3641 -0.5969
 6705TIP3    H220080   0.702   2.099   4.835 -0.6937  0.7374 -1.1761
 6706TIP3   OH220081   6.320   1.871   5.641  0.7112  0.5839  0.4320
 6706TIP3    H120082   6.337   1.894   5.732  1.0875 -1.0960  0.8165
 6706TIP3    H220083   6.401   1.831   5.611 -0.1517 -0.9403  0.0615
 6707TIP3   OH220084   6.049   6.205   1.020 -0.3595 -0.1425 -0.2834
 6707TIP3    H120085   6.060   6.157   0.938 -2.6774 -1.1646 -0.0769
 6707TIP3    H220086   6.028   6.294   0.994  3.4770  0.8287 -0.6762
 6708TIP3   OH220087   3.029   4.424   2.128  0.2718 -0.2185 -0.0301
 6708TIP3    H120088   2.951   4.458   2.084 -0.8454 -1.5604  0.8294
 6708TIP3    H220089   3.091   4.497   2.126 -0.4676  0.4357 -1.9707
 6709TIP3   OH220090   0.771   6.650   4.991 -0.2708  0.3690 -0.2467
 6709TIP3    H120091   0.828   6.617   5.060 -1.9740 -0.8747  0.6420
 6709TIP3    H220092   0.805   6.613   4.910  0.2160 -0.2893  0.2575
 6710TIP3   OH220093   3.263   1.379   0.123 -0.2322 -0.1845 -0.0894
 6710TIP3    H120094   3.207   1.380   0.045 -0.5438 -2.4883  0.0364
 6710TIP3    H220095   3.223   1.444   0.181 -1.0939  0.2448 -1.1086
 6711TIP3   OH220096   0.179   1.572   2.080  0.2272  0.0274  0.5457
 6711TIP3    H120097   0.121   1.509   2.123  0.6033 -0.0965  0.8790
 6711TIP3    H220098   0.175   1.650   2.134  0.6779 -0.1186  0.7963
 6712TIP3   OH220099   1.215   4.415   3.734 -0.1275  0.0554  0.7080
 6712TIP3    H120100   1.294   4.463   3.760  0.4887 -0.2865 -0.4391
 6712TIP3    H220101   1.244   4.362   3.659 -1.9250  1.4239 -1.0418
 6713TIP3   OH220102   0.089   4.649   0.613  0.3454 -0.2813  0.7548
 6713TIP3    H120103   0.035   4.728   0.612  0.2874 -0.3322 -0.1668
 6713TIP3    H220104   0.173   4.679   0.649 -0.3011 -0.2357  2.3471
 6714TIP3   OH220105   6.832   6.310   3.774 -0.1000  0.3505  0.3660
 6714TIP3    H120106   6.857   6.394   3.813  1.7184 -0.5499  1.3025
 6714TIP3    H220107   6.797   6.259   3.847  0.9859 -0.4787  0.3455
 6715TIP3   OH220108   3.761   0.518   3.454 -0.3135 -0.5159 -0.1177
 6715TIP3    H120109   3.786   0.534   3.363  2.4372  1.6934  0.8966
 6715TIP3    H220110   3.836   0.472   3.492 -1.5164 -1.6089  1.0166
 6716TIP3   OH220111   2.234   5.665   1.539 -0.2472 -0.7763 -0.5402
 6716TIP3    H120112   2.231   5.761   1.538 -0.9863 -0.7624 -2.9169
 6716TIP3    H220113   2.326   5.644   1.555  0.2035  0.3829 -1.4472
 6717TIP3   OH220114   1.606   5.741   1.566 -0.0295 -0.2485 -0.4742
 6717TIP3    H120115   1.571   5.752   1.478  1.1563 -2.1143 -1.2279
 6717TIP3    H220116   1.695   5.708   1.554 -0.1116 -1.3363  1.4005
 6718TIP3   OH220117   4.670   5.801   2.547 -0.0905  0.6579  0.2673
 6718TIP3    H120118   4.698   5.714   2.518  0.5709  1.4457 -1.6728
 6718TIP3    H220119   4.576   5.804   2.529 -0.2998  0.0451  1.2112
 6719TIP3   OH220120   1.230   1.071   5.094  0.1800  0.0109 -0.3076
 6719TIP3    H120121   1.145   1.042   5.062 -0.4545  0.6471  0.7691
 6719TIP3    H220122   1.233   1.044   5.185  1.3217 -0.3828 -0.4410
 6720TIP3   OH220123   6.288   3.254   1.130 -0.3108  0.6004 -0.5722
 6720TIP3    H120124   6.353   3.246   1.200 -0.2932 -1.5324 -0.7828
 6720TIP3    H220125   6.339   3.277   1.053  0.0086  0.3681 -0.4310
 6721TIP3   OH220126   6.296   4.862   5.277  0.4134  0.2071  0.3081
 6721TIP3    H120127   6.242   4.911   5.340 -0.1887 -0.1407  0.0747
 6721TIP3    H220128   6.345   4.930   5.231 -1.4829  0.7780 -1.0186
 6722TIP3   OH220129   3.009   4.069   5.790  0.3117 -0.3313  0.1931
 6722TIP3    H120130   3.092   4.072   5.743 -0.2433 -0.8361 -0.8659
 6722TIP3    H220131   2.944   4.050   5.722 -0.2536 -3.7257  1.4924
 6723TIP3   OH220132   4.669   2.470   1.574  0.1057  0.0631  0.2229
 6723TIP3    H120133   4.624   2.514   1.502  1.4307  0.8059 -0.1665
 6723TIP3    H220134   4.659   2.376   1.555 -0.3942  0.2379 -0.3924
 6724TIP3   OH220135   6.647   0.889   1.005 -0.4340  0.1006 -0.0815
 6724TIP3    H120136   6.722   0.831   1.020  0.8215  1.4094 -1.0967
 6724TIP3    H220137   6.685   0.973   0.980 -2.2488  0.5880 -1.4372
 6725TIP3   OH220138   4.463   3.579   3.008 -0.4115  0.3496  0.5346
 6725TIP3    H120139   4.448   3.658   3.060 -1.0852  0.5635  0.0317
 6725TIP3    H220140   4.486   3.512   3.071  1.2386  1.1988  0.8923
 6726TIP3   OH220141   6.829   4.039   5.220  0.0770  0.3075  0.3782
 6726TIP3    H120142   6.859   4.093   5.293  0.2522  1.8539 -0.7796
 6726TIP3    H220143   6.774   3.972   5.261 -0.5863  1.6747  1.8578
 6727TIP3   OH220144   4.986   6.425   2.791 -0.3654  0.6813 -0.4758
 6727TIP3    H120145   5.018   6.513   2.775 -0.6032  1.3123  2.0726
 6727TIP3    H220146   5.031   6.397   2.871 -0.2862 -1.5294 -1.2261
 6728TIP3   OH220147   2.919   6.362   1.986 -0.1753 -0.4738  0.1129
 6728TIP3    H120148   2.960   6.283   2.020  0.6534 -0.4066 -0.7064
 6728TIP3    H220149   2.976   6.433   2.016  1.1265 -0.4858 -2.1724
 6729TIP3   OH220150   2.466   3.328   5.261 -0.3591  0.5813  0.0430
 6729TIP3    H120151   2.461   3.371   5.346 -2.3011  0.8710 -0.1755
 6729TIP3    H220152   2.416   3.247   5.271  1.1224 -0.4319 -0.2783
 6730TIP3   OH220153   2.106   5.297   5.783 -0.7060  0.2120 -0.6142
 6730TIP3    H120154   2.057   5.248   5.717  0.7467 -0.1523 -1.4727
 6730TIP3    H220155   2.132   5.378   5.740  0.5876 -0.1990 -0.6756
 6731TIP3   OH220156   5.320   4.546   0.130  0.4165 -0.5647  0.1971
 6731TIP3    H120157   5.308   4.611   0.061  2.4744  0.2298  0.5298
 6731TIP3    H220158   5.292   4.591   0.210  1.0482 -0.3551  0.3076
 6732TIP3   OH220159   5.693   6.094   2.314  0.5218 -0.2535  0.2338
 6732TIP3    H120160   5.767   6.052   2.270 -0.7172 -2.2206 -0.0871
 6732TIP3    H220161   5.709   6.080   2.407  0.5313 -0.7545  0.1615
 6733TIP3   OH220162   3.694   2.321   4.948  0.0537  0.1145 -0.5278
 6733TIP3    H120163   3.772   2.285   4.991 -0.6758 -0.5100  0.3345
 6733TIP3    H220164   3.726   2.360   4.867  1.0967 -1.2557 -0.8094
 6734TIP3   OH220165   0.295   1.284   2.432 -0.0857 -0.0870  0.0422
 6734TIP3    H120166   0.316   1.374   2.459 -2.0584  0.6768 -0.8281
 6734TIP3    H220167   0.216   1.292   2.379  1.8079 -1.8610 -3.4080
 6735TIP3   OH220168   2.472   1.511   2.312 -0.1294  0.0684  0.1167
 6735TIP3    H120169   2.559   1.545   2.333 -0.0964  1.5286 -2.0358
 6735TIP3    H220170   2.416   1.588   2.309 -1.6248 -0.8808  1.7549
 6736TIP3   OH220171   2.135   6.356   3.932 -0.1112  0.0134 -0.3674
 6736TIP3    H120172   2.074   6.350   4.005  1.2720  1.8128  1.0570
 6736TIP3    H220173   2.097   6.421   3.874 -1.5001 -1.8403 -1.6042
 6737TIP3   OH220174   1.187   3.818   3.313  0.3532  0.7817 -0.1245
 6737TIP3    H120175   1.144   3.831   3.228 -0.8280 -0.9236  0.1595
 6737TIP3    H220176   1.225   3.730   3.308 -0.1600  0.4534  1.2778
 6738TIP3   OH220177   4.304   0.946   0.136  1.1252 -0.6012 -0.1651
 6738TIP3    H120178   4.235   0.891   0.175 -1.0319  0.8617 -1.6714
 6738TIP3    H220179   4.299   1.029   0.184 -1.5574  1.2208 -3.1658
 6739TIP3   OH220180   6.978   2.310   4.618 -0.1400  0.0503  0.4265
 6739TIP3    H120181   7.066   2.296   4.654 -0.6236 -1.2690  1.2032
 6739TIP3    H220182   6.980   2.268   4.532  0.7492  2.4017 -0.7718
 6740TIP3   OH220183   5.084   4.765   2.276 -0.1738  0.2639 -0.2328
 6740TIP3    H120184   5.002   4.732   2.312  0.0260 -0.5766 -0.5277
 6740TIP3    H220185   5.084   4.736   2.185  1.1976 -1.2269  0.1982
 6741TIP3   OH220186   7.217   6.346   2.283 -0.4390 -0.4699  0.2767
 6741TIP3    H120187   7.128   6.363   2.252  0.9975  2.3539 -3.0445
 6741TIP3    H220188   7.238   6.421   2.338  0.3955 -0.2470 -0.3276
 6742TIP3   OH220189   2.293   4.398   4.821 -0.3547 -0.0022  0.0044
 6742TIP3    H120190   2.297   4.413   4.916 -0.1645  1.3428 -0.2034
 6742TIP3    H220191   2.201   4.377   4.804 -0.6308  0.8971  0.3364
 6743TIP3   OH220192   6.361   5.770   1.181 -0.1202  0.1661  0.0088
 6743TIP3    H120193   6.418   5.693   1.180  0.8682  0.8767 -0.5201
 6743TIP3    H220194   6.418   5.842   1.153 -1.2985  0.8965 -0.5852
 6744TIP3   OH220195   1.015   1.298   2.372 -0.2320 -0.2024 -0.1720
 6744TIP3    H120196   0.959   1.223   2.356 -2.4486  1.5967 -1.3631
 6744TIP3    H220197   1.034   1.333   2.285  0.8600  0.5868  0.3521
 6745TIP3   OH220198   4.887   4.738   2.603 -0.1042  0.0046  0.2711
 6745TIP3    H120199   4.879   4.657   2.652  2.0901 -0.5503 -0.1564
 6745TIP3    H220200   4.798   4.763   2.582 -1.0056 -0.8001  2.7897
 6746TIP3   OH220201   1.240   3.146   4.196 -0.0410  0.0023 -0.0511
 6746TIP3    H120202   1.317   3.089   4.190  0.0908  0.1235  0.4039
 6746TIP3    H220203   1.252   3.210   4.126 -0.5361 -0.9240 -1.0187
 6747TIP3   OH220204   1.952   2.141   5.669 -0.0202  0.1501 -0.0576
 6747TIP3    H120205   2.024   2.101   5.718  1.7516  1.3848 -1.5515
 6747TIP3    H220206   1.954   2.233   5.694 -1.1125  0.2142 -0.1382
 6748TIP3   OH220207   2.989   4.636   2.514  0.5654 -0.0544 -0.0227
 6748TIP3    H120208   2.920   4.650   2.450  0.6531  0.0298 -0.0995
 6748TIP3    H220209   2.945   4.640   2.599  0.5263  0.3103 -0.0596
 6749TIP3   OH220210   3.236   1.200   0.347 -0.2605 -0.1451 -0.1654
 6749TIP3    H120211   3.302   1.233   0.408  0.0494 -1.2622  0.1170
 6749TIP3    H220212   3.241   1.259   0.272  1.9450 -0.9451 -0.7055
 6750TIP3   OH220213   1.714   4.898   5.763  0.3585 -0.7981  0.1880
 6750TIP3    H120214   1.691   4.941   5.680  1.5117 -1.9200 -0.7553
 6750TIP3    H220215   1.740   4.970   5.821 -1.5249  0.1119 -0.0240
 6751TIP3   OH220216   1.865   1.769   5.450  0.8478  0.2768  0.2741
 6751TIP3    H120217   1.948   1.775   5.499 -0.4229  0.3584  2.5490
 6751TIP3    H220218   1.836   1.859   5.442  0.2474  0.1390  0.8458
 6752TIP3   OH220219   4.313   6.071   0.313 -0.3341 -0.1911 -0.2570
 6752TIP3    H120220   4.342   6.162   0.309  3.9421 -1.2840 -0.0201
 6752TIP3    H220221   4.258   6.066   0.391  0.6116  1.9032  0.6268
 6753TIP3   OH220222   1.339   0.630   4.098 -0.0849 -0.6014  0.4447
 6753TIP3    H120223   1.369   0.637   4.188 -0.1945 -1.7635  0.5813
 6753TIP3    H220224   1.248   0.660   4.101  0.5260  1.4447  0.3025
 6754TIP3   OH220225   6.014   2.436   4.526 -0.3202  0.0358 -0.6420
 6754TIP3    H120226   5.927   2.431   4.566 -0.8059 -1.2739 -1.7745
 6754TIP3    H220227   6.005   2.388   4.443  1.5262 -0.2837 -0.6971
 6755TIP3   OH220228   3.281   0.772   3.884 -0.0505 -0.0706  0.1469
 6755TIP3    H120229   3.333   0.693   3.866 -1.9543 -1.3549 -0.0790
 6755TIP3    H220230   3.330   0.843   3.843  1.0868 -1.3335 -0.7958
 6756TIP3   OH220231   2.138   6.021   3.246 -0.5217 -0.2552  0.1512
 6756TIP3    H120232   2.142   5.979   3.160  2.2143  0.2284 -0.0606
 6756TIP3    H220233   2.165   5.952   3.307  1.8419  0.4753  0.0465
 6757TIP3   OH220234   3.939   2.423   1.368  0.0300 -0.3460 -0.2992
 6757TIP3    H120235   3.880   2.354   1.337  0.1408 -0.3219 -0.5653
 6757TIP3    H220236   4.027   2.389   1.350  0.3055 -1.9872  3.3148
 6758TIP3   OH220237   5.045   3.120   3.478 -0.2512  0.1645  0.0204
 6758TIP3    H120238   5.049   3.097   3.571  0.2311 -1.2844 -0.3460
 6758TIP3    H220239   5.021   3.039   3.434 -0.3422  0.8102 -1.1431
 6759TIP3   OH220240   6.514   3.546   2.502 -0.1478  0.4915  0.8638
 6759TIP3    H120241   6.542   3.548   2.594  1.0660  0.5586  0.5022
 6759TIP3    H220242   6.528   3.635   2.470  1.5918 -0.0428  0.0094
 6760TIP3   OH220243   1.831   4.035   4.219 -0.2904 -0.1721  0.4546
 6760TIP3    H120244   1.758   4.008   4.275  1.8936 -1.1536  3.0439
 6760TIP3    H220245   1.844   3.961   4.160 -1.5622  0.1640 -0.2886
 6761TIP3   OH220246   7.000   0.226   5.347 -0.2552 -0.2908 -0.1408
 6761TIP3    H120247   7.083   0.217   5.300 -0.0075  0.5653  0.1146
 6761TIP3    H220248   6.941   0.267   5.284  0.1147  0.9782  0.3113
 6762TIP3   OH220249   5.274   2.381   0.354 -0.9885  0.1122 -0.2467
 6762TIP3    H120250   5.225   2.440   0.297 -0.2343  0.5748 -0.4230
 6762TIP3    H220251   5.305   2.437   0.425 -0.8904 -0.2256 -0.0205
 6763TIP3   OH220252   6.567   1.944   5.370  0.3757  0.4592  0.7367
 6763TIP3    H120253   6.478   1.979   5.373  0.2913  0.2219  1.0126
 6763TIP3    H220254   6.613   1.990   5.441  0.4260  0.4515  0.7092
 6764TIP3   OH220255   0.588   1.376   2.421  0.1821  0.3873  0.0962
 6764TIP3    H120256   0.621   1.358   2.509  1.2882  0.6813 -0.2308
 6764TIP3    H220257   0.510   1.429   2.434 -0.0745 -0.1667  0.9126
 6765TIP3   OH220258   1.043   1.502   4.757  0.0136 -0.1252  0.1088
 6765TIP3    H120259   1.089   1.475   4.677 -1.8928 -2.6362 -0.2750
 6765TIP3    H220260   1.058   1.429   4.818 -1.7115 -0.0651  0.6546
 6766TIP3   OH220261   4.187   2.485   2.318 -0.1001 -0.9173 -0.5660
 6766TIP3    H120262   4.147   2.470   2.404 -0.9014  2.5424 -0.1588
 6766TIP3    H220263   4.113   2.485   2.257 -0.0726  0.3022 -0.6283
 6767TIP3   OH220264   5.873   1.579   2.912 -0.2132  0.0003  0.2296
 6767TIP3    H120265   5.828   1.663   2.912  0.4386  0.3661  1.3883
 6767TIP3    H220266   5.850   1.540   2.828 -0.7987  1.1840 -0.1832
 6768TIP3   OH220267   5.766   3.176   4.297 -0.3785 -0.1924 -0.1889
 6768TIP3    H120268   5.802   3.179   4.208 -0.1490 -3.3481 -0.3091
 6768TIP3    H220269   5.749   3.083   4.313  0.6255  0.1058  3.4876
 6769TIP3   OH220270   3.367   4.223   0.503 -0.2192 -0.1095  0.0652
 6769TIP3    H120271   3.384   4.134   0.472  0.4381 -0.1280  0.4747
 6769TIP3    H220272   3.314   4.211   0.582  0.9026 -0.1956  0.8226
 6770TIP3   OH220273   6.798   3.771   5.060 -0.0897 -0.1784 -0.1096
 6770TIP3    H120274   6.737   3.715   5.109  0.5890 -0.4949  0.3955
 6770TIP3    H220275   6.815   3.844   5.118  1.6078 -1.1189  0.6554
 6771TIP3   OH220276   7.096   1.844   2.082  0.3052 -0.4567  0.2812
 6771TIP3    H120277   7.100   1.939   2.067 -1.0203 -0.5153 -0.6163
 6771TIP3    H220278   7.008   1.829   2.117  0.8911 -1.2397  1.4966
 6772TIP3   OH220279   2.694   0.596   4.417 -0.1633 -0.5674  0.1652
 6772TIP3    H120280   2.706   0.633   4.330 -1.4257 -0.1284  0.1626
 6772TIP3    H220281   2.665   0.670   4.471 -1.3031 -1.2258  0.4929
 6773TIP3   OH220282   4.529   0.499   3.628  0.3202  0.6301  0.4629
 6773TIP3    H120283   4.536   0.525   3.720 -1.5051  1.2385  0.4772
 6773TIP3    H220284   4.565   0.411   3.625 -0.3695  0.2667  1.9432
 6774TIP3   OH220285   6.933   6.764   5.295 -0.0468  0.4799 -0.2854
 6774TIP3    H120286   6.906   6.736   5.382 -1.4771  1.1526 -0.4817
 6774TIP3    H220287   7.020   6.726   5.283  0.0238  0.0907  1.2888
 6775TIP3   OH220288   2.851   3.575   1.086 -0.5841 -0.4202  0.2887
 6775TIP3    H120289   2.834   3.630   1.009  1.3975  0.3609  0.3565
 6775TIP3    H220290   2.910   3.507   1.055  0.8640  0.3550  1.2393
 6776TIP3   OH220291   3.422   6.389   2.901  0.0328 -0.4969 -0.4774
 6776TIP3    H120292   3.480   6.323   2.864  1.2627 -0.2881  0.9949
 6776TIP3    H220293   3.362   6.339   2.957 -0.9229 -0.6540 -1.6021
 6777TIP3   OH220294   0.648   0.014   5.091  0.4702 -0.1797  0.2390
 6777TIP3    H120295   0.719   0.072   5.118 -0.6382  1.4579 -0.2544
 6777TIP3    H220296   0.572   0.043   5.143  0.2916 -2.4197  1.3709
 6778TIP3   OH220297   0.563   6.720   0.987  0.2282 -0.2373 -0.8421
 6778TIP3    H120298   0.647   6.758   0.963 -0.7141  2.3935 -0.2486
 6778TIP3    H220299   0.498   6.784   0.959 -1.4906 -1.3717  0.3348
 6779TIP3   OH220300   0.658   2.796   3.046  0.6458 -0.0949  0.4707
 6779TIP3    H120301   0.717   2.721   3.040  0.9182  0.1736 -0.4951
 6779TIP3    H220302   0.571   2.758   3.031  0.9438 -0.0216 -1.8263
 6780TIP3   OH220303   5.380   4.540   3.147  0.1575 -0.5867 -0.0141
 6780TIP3    H120304   5.342   4.462   3.107  0.2330  0.1655 -1.6520
 6780TIP3    H220305   5.305   4.586   3.186 -0.2347 -0.4194 -0.9344
 6781TIP3   OH220306   6.386   5.916   3.304  0.3631  0.2922  0.0289
 6781TIP3    H120307   6.355   6.005   3.287 -2.7547 -0.4981  0.8630
 6781TIP3    H220308   6.323   5.860   3.259  2.1383 -1.5431 -0.3043
 6782TIP3   OH220309   4.381   2.978   1.074  0.4668 -0.6377 -0.4857
 6782TIP3    H120310   4.296   3.003   1.038  0.6518  1.7030  0.5489
 6782TIP3    H220311   4.406   2.900   1.024 -1.2278 -0.0501 -2.3806
 6783TIP3   OH220312   4.174   1.072   1.900  0.2716 -0.0276  0.0686
 6783TIP3    H120313   4.195   1.023   1.821  0.8147  0.1689  0.0885
 6783TIP3    H220314   4.241   1.140   1.906  0.0643  0.1482  0.5386
 6784TIP3   OH220315   6.733   3.256   2.757 -0.2407 -0.0503  0.7722
 6784TIP3    H120316   6.806   3.228   2.702 -1.5619  0.4512 -1.3382
 6784TIP3    H220317   6.767   3.252   2.846  2.9437  1.7804 -0.2003
 6785TIP3   OH220318   5.279   6.575   1.070  0.5821  0.4463 -0.0284
 6785TIP3    H120319   5.352   6.523   1.036  0.3306  0.3850 -0.4820
 6785TIP3    H220320   5.247   6.624   0.995  0.6346  1.0463  0.3379
 6786TIP3   OH220321   1.840   2.394   2.497 -0.2901  0.5716 -0.1430
 6786TIP3    H120322   1.850   2.401   2.402  0.7541  0.8108 -0.0230
 6786TIP3    H220323   1.833   2.299   2.513  0.1609  0.4911 -0.4059
 6787TIP3   OH220324   5.568   3.344   4.028 -1.0103  0.3234  0.2866
 6787TIP3    H120325   5.493   3.403   4.028 -2.3272 -1.2793  0.1516
 6787TIP3    H220326   5.556   3.290   3.950  0.7856  0.5987 -0.2376
 6788TIP3   OH220327   3.617   2.658   0.286 -0.0166  0.1546 -0.2220
 6788TIP3    H120328   3.544   2.661   0.225 -0.4332 -0.7573  0.2186
 6788TIP3    H220329   3.624   2.566   0.311  1.5453  0.1538 -0.5728
 6789TIP3   OH220330   0.740   5.801   1.843  0.3972  0.2776 -0.3134
 6789TIP3    H120331   0.664   5.816   1.787  0.4787 -0.9760 -0.7983
 6789TIP3    H220332   0.729   5.712   1.875  0.8327  0.6560  0.9333
 6790TIP3   OH220333   5.863   1.997   5.582 -0.6295  0.2258  0.3230
 6790TIP3    H120334   5.813   1.949   5.517  2.9998  0.0554 -2.7064
 6790TIP3    H220335   5.943   1.945   5.593  0.5856  2.2841  1.9792
 6791TIP3   OH220336   1.328   3.474   5.660  0.5397  0.9127  0.1640
 6791TIP3    H120337   1.421   3.493   5.675  0.6746  0.1271  0.3426
 6791TIP3    H220338   1.293   3.556   5.625  1.2551  1.2810  0.2787
 6792TIP3   OH220339   4.508   0.354   3.067 -0.1370 -0.2254 -0.2391
 6792TIP3    H120340   4.540   0.279   3.117  2.1070  1.2794  0.7248
 6792TIP3    H220341   4.586   0.390   3.025 -1.2315  1.3025 -1.0547
 6793TIP3   OH220342   2.761   2.914   2.825 -0.4465 -0.0889 -0.2894
 6793TIP3    H120343   2.773   2.965   2.745 -3.7648 -0.2386 -1.0193
 6793TIP3    H220344   2.769   2.978   2.896  0.4495  0.4476 -0.8639
 6794TIP3   OH220345   6.867   5.420   1.577  0.0755  0.2520  0.0636
 6794TIP3    H120346   6.916   5.500   1.560  0.1213  0.0713 -0.6969
 6794TIP3    H220347   6.935   5.352   1.584  0.0616  0.3203  1.0384
 6795TIP3   OH220348   5.681   5.808   4.455  0.6348 -0.6644  0.3685
 6795TIP3    H120349   5.740   5.750   4.407  0.2112 -2.0738  1.4578
 6795TIP3    H220350   5.684   5.776   4.545  1.6706  2.1037  1.4316
 6796TIP3   OH220351   3.523   1.823   2.705 -0.3558  0.3365 -0.5098
 6796TIP3    H120352   3.566   1.760   2.763 -0.4218  2.1484  1.6570
 6796TIP3    H220353   3.592   1.850   2.644  0.4415  0.1801  0.2949
 6797TIP3   OH220354   5.992   6.206   0.211 -0.4685  0.4211 -0.0508
 6797TIP3    H120355   5.902   6.204   0.179 -0.3940  0.2638 -0.2523
 6797TIP3    H220356   6.010   6.299   0.226 -0.4846  0.5047 -0.5242
 6798TIP3   OH220357   2.830   0.102   4.078 -0.1984  0.1888 -1.0441
 6798TIP3    H120358   2.761   0.159   4.114 -1.7300 -3.0830  1.6543
 6798TIP3    H220359   2.783   0.045   4.017 -0.0515 -2.2394  1.0030
 6799TIP3   OH220360   2.153   3.817   1.617 -0.3394 -0.2621  0.1519
 6799TIP3    H120361   2.087   3.863   1.670 -1.5316 -1.4678 -0.2076
 6799TIP3    H220362   2.155   3.728   1.653 -1.1498 -1.1091 -1.7159
 6800TIP3   OH220363   1.512   2.381   3.408 -0.7139 -0.4964  0.0848
 6800TIP3    H120364   1.596   2.411   3.373 -0.1405 -1.1484  0.8481
 6800TIP3    H220365   1.505   2.290   3.379 -0.8973 -0.6075  0.4687
 6801TIP3   OH220366   2.683   2.559   2.771  0.4142  0.7487 -0.0412
 6801TIP3    H120367   2.601   2.592   2.806  0.7586 -0.3196  1.9344
 6801TIP3    H220368   2.725   2.516   2.845  2.2533  0.2968 -1.2730
 6802TIP3   OH220369   0.643   3.501   5.890  0.4418  0.0621 -0.1213
 6802TIP3    H120370   0.646   3.488   5.795 -0.6105 -2.1896  0.0856
 6802TIP3    H220371   0.660   3.595   5.902 -0.0303  0.5285 -2.5544
 6803TIP3   OH220372   5.978   4.286   4.118 -0.4390  0.0357 -0.4025
 6803TIP3    H120373   5.935   4.265   4.035  0.9611 -1.7002 -0.7415
 6803TIP3    H220374   6.032   4.362   4.099 -1.8265  1.0345 -0.4705
 6804TIP3   OH220375   6.267   5.323   0.395  0.0687  0.0542  0.3211
 6804TIP3    H120376   6.256   5.380   0.472 -1.3508  1.9300 -1.1704
 6804TIP3    H220377   6.347   5.354   0.354  0.4602 -0.4916  0.6674
 6805TIP3   OH220378   5.486   4.767   4.613 -0.5708  0.5608 -0.3625
 6805TIP3    H120379   5.397   4.735   4.597 -0.7436 -0.2387  1.8334
 6805TIP3    H220380   5.493   4.846   4.559 -3.1334  1.4638  0.4831
 6806TIP3   OH220381   0.250   5.997   4.646  0.6130 -0.1062  0.4817
 6806TIP3    H120382   0.261   5.903   4.658  1.1006 -0.0747  0.3099
 6806TIP3    H220383   0.320   6.022   4.586  1.7279  0.6936  2.0571
 6807TIP3   OH220384   6.400   0.908   3.556 -0.6617  0.4186 -0.1677
 6807TIP3    H120385   6.453   0.908   3.477  1.4140 -0.6455  1.1264
 6807TIP3    H220386   6.460   0.941   3.624 -1.0072 -2.5366  1.7129
 6808TIP3   OH220387   3.584   1.383   0.172 -0.4948  0.5485 -0.1171
 6808TIP3    H120388   3.505   1.393   0.226 -0.5234  0.2810 -0.1081
 6808TIP3    H220389   3.656   1.380   0.235 -0.4399  1.1672 -0.1444
 6809TIP3   OH220390   5.234   6.129   5.201 -0.2708  0.1817 -0.3620
 6809TIP3    H120391   5.172   6.130   5.128 -2.1292  3.0442  1.0747
 6809TIP3    H220392   5.314   6.167   5.166 -0.4944 -0.2537 -1.3735
 6810TIP3   OH220393   4.794   6.456   4.159  0.2134  0.5462  0.3550
 6810TIP3    H120394   4.764   6.448   4.249  0.3899 -0.1402  0.3636
 6810TIP3    H220395   4.842   6.539   4.155  0.6038  0.3529  1.0051
 6811TIP3   OH220396   0.632   3.421   2.027  0.2824  0.4343 -0.1921
 6811TIP3    H120397   0.715   3.457   2.059  0.3356 -0.9213  1.3299
 6811TIP3    H220398   0.581   3.404   2.107 -0.8342 -0.2083 -1.0177
 6812TIP3   OH220399   6.230   6.568   2.491  0.4563  0.3705 -0.3122
 6812TIP3    H120400   6.312   6.537   2.528  0.0682  0.1668  0.3911
 6812TIP3    H220401   6.178   6.488   2.479 -0.1081  0.6157  0.4142
 6813TIP3   OH220402   2.734   6.588   4.021  0.4141 -0.1868 -0.0611
 6813TIP3    H120403   2.741   6.509   3.967 -0.7546 -0.6048  0.3823
 6813TIP3    H220404   2.662   6.570   4.081  0.5406  0.9802  0.4585
 6814TIP3   OH220405   2.126   4.160   1.553 -0.2454  0.0186  0.3996
 6814TIP3    H120406   2.092   4.142   1.466  2.3682  1.3339 -1.0148
 6814TIP3    H220407   2.067   4.225   1.590  0.1754  1.6599 -1.6312
 6815TIP3   OH220408   3.732   3.554   1.917 -0.4579 -0.0550  0.1094
 6815TIP3    H120409   3.815   3.603   1.925  1.1166 -2.1245 -2.2578
 6815TIP3    H220410   3.735   3.492   1.990 -0.1395  0.1234  0.2551
 6816TIP3   OH220411   5.171   5.352   3.174 -0.0374 -0.1754  0.5926
 6816TIP3    H120412   5.114   5.406   3.119 -1.1190  0.0669  1.8870
 6816TIP3    H220413   5.222   5.300   3.112 -0.2776  1.0062 -0.6519
 6817TIP3   OH220414   5.976   0.167   5.262  0.1211  0.0643 -0.2514
 6817TIP3    H120415   5.938   0.118   5.334  1.4816 -1.0560 -0.2566
 6817TIP3    H220416   6.022   0.240   5.304  1.3796 -0.9002  0.0799
 6818TIP3   OH220417   1.243   2.479   5.170 -0.7152 -0.1441  0.8123
 6818TIP3    H120418   1.148   2.471   5.179 -0.9138  0.3484 -0.5208
 6818TIP3    H220419   1.267   2.408   5.110  0.0214 -1.2732  2.3652
 6819TIP3   OH220420   0.927   4.886   3.490  0.2480 -0.3814  0.3604
 6819TIP3    H120421   0.833   4.882   3.468 -0.4573  1.2085  2.7536
 6819TIP3    H220422   0.939   4.972   3.529  2.6866 -0.6925  0.4327
 6820TIP3   OH220423   2.662   1.074   3.362  0.1502 -0.4779 -0.1180
 6820TIP3    H120424   2.622   1.042   3.282  1.9051 -0.7364 -0.9446
 6820TIP3    H220425   2.662   1.169   3.353 -0.5345 -0.4557  0.0450
 6821TIP3   OH220426   3.254   2.490   4.691  0.3621 -0.1228 -0.1164
 6821TIP3    H120427   3.208   2.537   4.621  0.3375  0.2293  0.1339
 6821TIP3    H220428   3.346   2.502   4.671  0.3682 -1.3470 -0.9666
 6822TIP3   OH220429   2.753   0.662   1.354  0.0616 -0.1852 -0.2593
 6822TIP3    H120430   2.775   0.725   1.423 -0.5936  0.3836 -0.5716
 6822TIP3    H220431   2.825   0.670   1.291  0.0764  0.1141 -0.2066
 6823TIP3   OH220432   1.104   3.854   2.690 -0.1689  0.1670 -0.6538
 6823TIP3    H120433   1.073   3.765   2.706  1.2849 -0.6421 -2.0721
 6823TIP3    H220434   1.182   3.863   2.746  0.8446 -0.1865 -1.9729
 6824TIP3   OH220435   6.901   6.571   2.683  0.5434 -0.5252  0.4756
 6824TIP3    H120436   6.962   6.497   2.685 -0.6546 -1.5704 -0.3692
 6824TIP3    H220437   6.848   6.561   2.762  0.7057 -0.2643  0.6205
 6825TIP3   OH220438   6.064   3.117   1.236  0.4325 -0.7020  0.1130
 6825TIP3    H120439   6.152   3.152   1.220  0.7144 -2.0563 -1.6275
 6825TIP3    H220440   6.010   3.194   1.250  2.0106  0.1501  2.0925
 6826TIP3   OH220441   1.627   4.459   4.134 -0.2092 -0.4947  0.4412
 6826TIP3    H120442   1.575   4.442   4.213 -1.3204  0.7991  0.0405
 6826TIP3    H220443   1.702   4.509   4.164 -0.3289 -0.4983  0.7462
 6827TIP3   OH220444   3.227   1.491   3.374 -0.6743  0.7785 -0.3266
 6827TIP3    H120445   3.255   1.581   3.361  1.0272  0.3249 -0.0575
 6827TIP3    H220446   3.150   1.497   3.430  0.9307  1.9777  1.9133
 6828TIP3   OH220447   6.206   1.062   0.458 -0.0859 -0.0276  0.5243
 6828TIP3    H120448   6.217   1.109   0.376 -0.9473 -1.4758 -0.4661
 6828TIP3    H220449   6.294   1.035   0.483  0.3281  1.4446  0.7367
 6829TIP3   OH220450   0.952   4.130   2.656 -0.1349  0.2119  0.4650
 6829TIP3    H120451   0.937   4.100   2.567 -2.3317 -1.0393  1.1863
 6829TIP3    H220452   1.045   4.114   2.672  0.0804 -0.4222 -1.2686
 6830TIP3   OH220453   2.034   6.329   5.695  0.4951  0.1970 -0.6589
 6830TIP3    H120454   1.966   6.368   5.749  0.1580 -0.2528 -0.7568
 6830TIP3    H220455   1.988   6.265   5.640  0.6425  1.4579 -2.3101
 6831TIP3   OH220456   5.434   6.053   2.446 -0.4086  0.1317  0.1438
 6831TIP3    H120457   5.440   6.122   2.513 -0.2391  1.7784 -1.4807
 6831TIP3    H220458   5.521   6.050   2.407 -0.2200 -1.5285  0.6293
 6832TIP3   OH220459   0.920   0.367   3.222  0.1381  0.2498 -0.5395
 6832TIP3    H120460   0.966   0.323   3.150  0.2430  0.8773 -0.8649
 6832TIP3    H220461   0.836   0.321   3.228 -0.0478  0.4616 -1.3516
 6833TIP3   OH220462   5.746   5.206   1.909 -0.0829 -0.1351  0.2284
 6833TIP3    H120463   5.672   5.151   1.882 -0.8973  1.6571 -1.5838
 6833TIP3    H220464   5.784   5.162   1.984 -2.6837 -1.4342  0.8975
 6834TIP3   OH220465   0.144   1.099   2.766  0.4021  0.2028 -0.3753
 6834TIP3    H120466   0.125   1.026   2.825 -1.5304  0.2801 -0.8521
 6834TIP3    H220467   0.226   1.075   2.724  0.2960 -1.2325  0.1880
 6835TIP3   OH220468   7.019   4.760   5.371 -0.2460 -0.0259  0.3095
 6835TIP3    H120469   7.078   4.725   5.438 -0.3829 -1.8974 -0.4927
 6835TIP3    H220470   6.933   4.759   5.412 -0.3325 -1.1871  0.1322
 6836TIP3   OH220471   3.275   2.796   0.808  0.5155  0.5337 -0.2752
 6836TIP3    H120472   3.250   2.806   0.900 -0.4342  0.6509 -0.5300
 6836TIP3    H220473   3.293   2.703   0.797 -0.4498  0.3310 -0.2196
 6837TIP3   OH220474   7.228   6.400   4.078 -0.6196  0.1968 -0.1206
 6837TIP3    H120475   7.173   6.333   4.118 -1.7124  2.0236  1.6250
 6837TIP3    H220476   7.209   6.394   3.985 -2.3573 -0.4866  0.2408
 6838TIP3   OH220477   0.285   5.716   2.207  0.2625  0.0061  0.1486
 6838TIP3    H120478   0.325   5.641   2.251  0.6325 -0.4387 -0.9111
 6838TIP3    H220479   0.206   5.735   2.259  1.5165  0.5544  1.9441
 6839TIP3   OH220480   4.066   6.373   2.233 -0.0429 -0.3570  0.2565
 6839TIP3    H120481   4.013   6.370   2.312 -0.4495 -0.7813 -0.0272
 6839TIP3    H220482   4.013   6.329   2.167  0.6502 -0.7586 -0.0382
 6840TIP3   OH220483   2.117   4.047   5.110  0.5359  0.2882  0.3838
 6840TIP3    H120484   2.209   4.064   5.089 -0.4126  4.1520 -1.6358
 6840TIP3    H220485   2.088   3.984   5.045  1.1694  1.1127 -0.7331
 6841TIP3   OH220486   1.277   6.776   2.303 -0.0982 -0.1330  0.4940
 6841TIP3    H120487   1.255   6.688   2.334 -0.5092 -0.5835 -1.0034
 6841TIP3    H220488   1.296   6.826   2.383  1.3193 -1.8860  1.3215
 6842TIP3   OH220489   6.829   5.623   2.192 -0.2675 -0.3220 -0.2408
 6842TIP3    H120490   6.862   5.685   2.257 -2.6232  0.3512  0.4277
 6842TIP3    H220491   6.852   5.663   2.108 -0.3153  0.6683  0.1958
 6843TIP3   OH220492   2.492   4.256   3.274  0.5787  0.5619 -0.3054
 6843TIP3    H120493   2.479   4.217   3.360  0.5843  0.9766 -0.1153
 6843TIP3    H220494   2.552   4.196   3.229 -1.2300 -0.9096 -0.8817
 6844TIP3   OH220495   3.038   3.681   5.399 -0.3354  0.0023  0.3309
 6844TIP3    H120496   2.997   3.602   5.365 -0.0989  0.1302 -0.2565
 6844TIP3    H220497   3.132   3.666   5.389 -0.3036  1.2586 -1.9381
 6845TIP3   OH220498   6.194   0.516   3.290  0.1233  0.6346 -0.0645
 6845TIP3    H120499   6.217   0.555   3.374 -1.8374  1.4697  0.1283
 6845TIP3    H220500   6.233   0.575   3.225 -0.8487  1.6548  0.2542
 6846TIP3   OH220501   6.482   2.299   4.527 -0.3107 -0.5235 -0.7616
 6846TIP3    H120502   6.561   2.333   4.568 -0.0625 -0.6510 -1.1276
 6846TIP3    H220503   6.426   2.376   4.513 -0.2015 -0.4181 -0.6151
 6847TIP3   OH220504   4.137   5.852   2.072  0.2969  0.2171 -0.3980
 6847TIP3    H120505   4.116   5.930   2.123 -0.8626 -0.3688  0.0750
 6847TIP3    H220506   4.051   5.819   2.043  0.7724 -0.8117 -0.6828
 6848TIP3   OH220507   1.909   0.154   4.015 -0.0261 -0.1576  0.3217
 6848TIP3    H120508   1.916   0.156   3.919  0.4375  2.3639  0.3402
 6848TIP3    H220509   1.815   0.153   4.032 -0.2257  2.5553 -0.2451
 6849TIP3   OH220510   6.367   0.238   3.869 -0.0546  0.5370  0.1289
 6849TIP3    H120511   6.376   0.207   3.959  1.1227 -0.9627 -0.4644
 6849TIP3    H220512   6.410   0.323   3.868  1.6801 -0.2978  0.5682
 6850TIP3   OH220513   6.522   3.453   5.732 -0.1052  0.1436  0.0501
 6850TIP3    H120514   6.514   3.511   5.656  0.4453  1.9206  1.2676
 6850TIP3    H220515   6.431   3.439   5.761 -0.2939 -0.2768 -0.7236
 6851TIP3   OH220516   5.922   5.832   2.487 -0.6162 -0.0370 -0.0350
 6851TIP3    H120517   5.844   5.865   2.532  0.1419  2.1728 -0.2055
 6851TIP3    H220518   5.989   5.897   2.506  0.3010 -0.1321 -2.6337
 6852TIP3   OH220519   0.137   0.947   4.894 -0.0047  0.4826 -0.1780
 6852TIP3    H120520   0.090   0.932   4.975 -0.9759  2.5853 -0.2796
 6852TIP3    H220521   0.073   0.990   4.837  0.6791 -0.8487 -2.0395
 6853TIP3   OH220522   0.569   5.380   0.051 -0.0813  0.0415 -0.0107
 6853TIP3    H120523   0.506   5.424  -0.005  0.3068  0.6356  0.0154
 6853TIP3    H220524   0.517   5.314   0.098 -0.4156 -0.4231 -1.0074
 6854TIP3   OH220525   3.394   3.909   0.418 -0.1466 -0.2009  0.2049
 6854TIP3    H120526   3.383   3.843   0.349 -1.5719  0.7086 -0.4709
 6854TIP3    H220527   3.416   3.857   0.496 -1.7885 -1.5544 -0.1729
 6855TIP3   OH220528   1.284   2.912   1.072 -0.3244 -0.0662 -0.3817
 6855TIP3    H120529   1.249   2.861   1.000  0.4982  1.3309 -1.8462
 6855TIP3    H220530   1.358   2.960   1.034  0.1733  0.6789  1.4033
 6856TIP3   OH220531   4.603   4.659   0.737  0.1855  0.2437 -0.4248
 6856TIP3    H120532   4.646   4.609   0.807 -1.2258  0.4919  0.6641
 6856TIP3    H220533   4.637   4.748   0.747  0.8305  0.0479 -0.7912
 6857TIP3   OH220534   0.097   5.665   1.494  0.0538 -0.0235  0.2661
 6857TIP3    H120535   0.067   5.627   1.411  0.1834  0.9485 -0.2360
 6857TIP3    H220536   0.192   5.653   1.493  0.2503  1.4799 -0.5063
 6858TIP3   OH220537   6.610   0.658   2.376  0.1093  0.0389  0.4051
 6858TIP3    H120538   6.673   0.608   2.322 -2.4189 -2.5064 -0.4397
 6858TIP3    H220539   6.535   0.670   2.318 -1.4776  0.0225  2.3914
 6859TIP3   OH220540   6.092   0.045   0.051  0.4554  0.1808 -0.3030
 6859TIP3    H120541   6.065  -0.046   0.064 -1.7914  0.7219 -0.9155
 6859TIP3    H220542   6.097   0.056  -0.043  0.2893  0.8162 -0.2405
 6860TIP3   OH220543   3.267   2.716   3.904 -0.4563 -0.2271 -0.1577
 6860TIP3    H120544   3.306   2.647   3.850  1.3495  0.0622  0.7029
 6860TIP3    H220545   3.277   2.796   3.853 -0.0025 -0.1669  0.0259
 6861TIP3   OH220546   1.184   4.758   0.355  0.2492  0.3554  0.0648
 6861TIP3    H120547   1.208   4.838   0.401 -2.6878  0.8332  0.9495
 6861TIP3    H220548   1.163   4.786   0.266 -0.1194  0.4795  0.1880
 6862TIP3   OH220549   3.926   4.221   4.921 -0.0801 -0.0414 -0.3620
 6862TIP3    H120550   3.836   4.250   4.932  0.2070  0.1659  2.0324
 6862TIP3    H220551   3.931   4.140   4.973  1.3318  0.4934  0.3866
 6863TIP3   OH220552   5.041   3.152   4.880  0.7752 -0.6268 -0.2523
 6863TIP3    H120553   5.066   3.240   4.853 -1.1723  0.1160  0.1766
 6863TIP3    H220554   5.064   3.097   4.805  1.1095  0.4136 -0.9411
 6864TIP3   OH220555   6.676   0.768   2.857  0.3058 -0.4741 -0.6431
 6864TIP3    H120556   6.704   0.784   2.947 -0.9929 -1.0768 -0.0988
 6864TIP3    H220557   6.607   0.832   2.841  2.3185  1.4696 -2.2047
 6865TIP3   OH220558   4.574   5.883   2.872  0.0035 -0.1085 -0.0513
 6865TIP3    H120559   4.488   5.925   2.873  0.5247  1.0934 -1.4846
 6865TIP3    H220560   4.557   5.793   2.845 -0.9038 -0.1877  0.7408
 6866TIP3   OH220561   6.562   1.292   1.953 -0.7629  0.4363 -0.4917
 6866TIP3    H120562   6.481   1.286   1.901 -1.3534 -1.6195  0.5604
 6866TIP3    H220563   6.557   1.217   2.013  0.3225  2.1675  1.9085
 6867TIP3   OH220564   6.776   3.543   2.996 -0.2299 -0.0748 -0.4206
 6867TIP3    H120565   6.851   3.544   2.937  0.8574  1.1283  0.9063
 6867TIP3    H220566   6.739   3.631   2.991 -1.2416 -0.4919 -0.6489
 6868TIP3   OH220567   1.331   4.495   5.025 -0.6095  0.0504 -0.5943
 6868TIP3    H120568   1.329   4.463   4.935 -0.9607 -1.1331 -0.1788
 6868TIP3    H220569   1.419   4.472   5.056 -1.3762 -2.0538  0.2123
 6869TIP3   OH220570   6.004   3.551   3.649 -0.1052 -0.0220 -0.2188
 6869TIP3    H120571   6.062   3.624   3.629 -1.1351  0.7364 -0.5514
 6869TIP3    H220572   6.053   3.473   3.624  0.2757  0.6754 -1.7535
 6870TIP3   OH220573   4.893   3.359   2.770 -0.9898 -0.6304 -0.3094
 6870TIP3    H120574   4.829   3.426   2.749  0.0204 -0.0966 -1.8728
 6870TIP3    H220575   4.978   3.402   2.758 -0.3287 -1.8572 -0.2093
 6871TIP3   OH220576   6.703   1.474   3.902 -0.1619  0.5533 -0.5566
 6871TIP3    H120577   6.609   1.468   3.918 -0.0340 -0.0800 -0.0010
 6871TIP3    H220578   6.735   1.384   3.908  0.3151  0.6067 -1.8512
 6872TIP3   OH220579   4.874   1.704   4.838  0.4481  0.1574 -0.2618
 6872TIP3    H120580   4.947   1.643   4.841 -0.2714 -0.7062  2.2478
 6872TIP3    H220581   4.912   1.786   4.806  3.1639  0.4950  3.2340
 6873TIP3   OH220582   6.102   4.607   1.929  0.2810 -0.4537  0.0865
 6873TIP3    H120583   6.197   4.606   1.925  0.3650  0.7869  1.3899
 6873TIP3    H220584   6.075   4.547   1.859  1.9360  1.5362 -2.4274
 6874TIP3   OH220585   5.921   3.248   2.471 -0.1213 -0.2314 -0.1552
 6874TIP3    H120586   5.982   3.317   2.448  0.6553 -0.4585  1.1127
 6874TIP3    H220587   5.835   3.289   2.467  0.3181  0.7683  0.4152
 6875TIP3   OH220588   4.631   3.083   0.468  0.2553 -0.7644 -0.3942
 6875TIP3    H120589   4.662   3.167   0.435  0.1878  0.2339  1.8753
 6875TIP3    H220590   4.707   3.025   0.463  0.6733 -0.1897 -0.7608
 6876TIP3   OH220591   4.028   2.447   4.950  0.2470  0.0379  0.0285
 6876TIP3    H120592   3.998   2.380   5.011  1.2836 -0.1911  0.3130
 6876TIP3    H220593   4.058   2.398   4.873 -0.3715  0.2773 -0.3691
 6877TIP3   OH220594   1.072   1.858   2.596 -0.5185 -0.1027  0.5278
 6877TIP3    H120595   1.062   1.788   2.660  5.2916  0.0301  2.1207
 6877TIP3    H220596   1.081   1.938   2.648  1.5231  0.4343 -0.5411
 6878TIP3   OH220597   5.771   0.383   0.452 -0.1758 -0.3792 -0.4980
 6878TIP3    H120598   5.832   0.441   0.405 -1.9605  1.3507 -0.8201
 6878TIP3    H220599   5.742   0.320   0.386  1.2635 -1.2835 -0.3205
 6879TIP3   OH220600   1.748   6.666   1.962 -0.2233  0.2900  0.5163
 6879TIP3    H120601   1.800   6.714   1.898 -1.8641 -1.0057 -1.9382
 6879TIP3    H220602   1.764   6.574   1.942 -2.2262 -0.1398  0.6408
 6880TIP3   OH220603   4.011   1.851   1.974  0.0899 -0.0880  0.0768
 6880TIP3    H120604   3.963   1.844   1.891 -1.6420 -1.2016  1.0892
 6880TIP3    H220605   4.102   1.833   1.951 -0.4460 -1.0411 -1.5036
 6881TIP3   OH220606   5.607   6.068   3.883 -0.1804  0.0625 -0.2223
 6881TIP3    H120607   5.676   6.013   3.846  1.8063 -0.0866  3.2618
 6881TIP3    H220608   5.601   6.142   3.822  1.4466 -1.0264 -1.8216
 6882TIP3   OH220609   6.452   2.379   0.314 -0.7173 -0.3215  0.2622
 6882TIP3    H120610   6.432   2.285   0.321  0.3889 -0.8553 -2.5017
 6882TIP3    H220611   6.387   2.413   0.252 -0.8620  0.6785  0.9400
 6883TIP3   OH220612   2.142   2.999   1.128  0.0213  0.8399 -0.4198
 6883TIP3    H120613   2.159   2.988   1.034 -0.7193 -0.1821 -0.4446
 6883TIP3    H220614   2.141   2.910   1.162 -0.8840  1.1353  0.3506
 6884TIP3   OH220615   3.618   4.975   2.514 -0.2630 -0.2030  0.3414
 6884TIP3    H120616   3.524   4.973   2.498 -0.2828  0.9491  0.2033
 6884TIP3    H220617   3.641   5.068   2.510  0.7359 -0.3901  1.2537
 6885TIP3   OH220618   7.144   1.070   3.336 -0.0372 -0.2662  0.1421
 6885TIP3    H120619   7.202   1.099   3.266 -1.6248  1.1389 -0.6833
 6885TIP3    H220620   7.161   1.131   3.408 -0.7870  0.4664 -0.2785
 6886TIP3   OH220621   6.214   3.806   0.843  0.4977  0.0584 -0.3384
 6886TIP3    H120622   6.160   3.760   0.778  0.9685  0.3478 -0.9454
 6886TIP3    H220623   6.175   3.783   0.927  1.6070 -2.6646 -0.4780
 6887TIP3   OH220624   1.277   0.600   1.699  0.1919  0.4577  0.0379
 6887TIP3    H120625   1.275   0.532   1.767 -2.2497  0.5514  0.1388
 6887TIP3    H220626   1.306   0.679   1.745  0.9513 -0.0202  0.3996
 6888TIP3   OH220627   3.043   1.058   2.209  0.0591 -0.0148 -0.2843
 6888TIP3    H120628   3.064   1.151   2.201 -0.8252  0.3148  0.8916
 6888TIP3    H220629   3.014   1.047   2.300 -1.5637 -1.0726 -0.8603
 6889TIP3   OH220630   2.093   1.468   0.918 -0.5818 -0.4987 -0.0967
 6889TIP3    H120631   2.073   1.397   0.856 -0.4167  0.9912 -1.9333
 6889TIP3    H220632   2.030   1.537   0.896 -0.2131  0.2419  1.1082
 6890TIP3   OH220633   1.320   5.084   4.334  0.4628 -0.0445  0.3944
 6890TIP3    H120634   1.278   5.129   4.261 -0.0548 -0.2721  0.5487
 6890TIP3    H220635   1.268   5.109   4.411 -1.4068 -2.8317  0.1675
 6891TIP3   OH220636   6.388   5.749   4.540  0.6135 -0.3409  0.5911
 6891TIP3    H120637   6.358   5.746   4.631  0.5691  0.2855  0.6033
 6891TIP3    H220638   6.328   5.810   4.497  0.1325 -1.2510 -0.0569
 6892TIP3   OH220639   3.113   4.952   5.229  0.0519  0.1717 -0.6014
 6892TIP3    H120640   3.085   4.920   5.315  2.1538  1.2301  0.5884
 6892TIP3    H220641   3.108   4.876   5.172 -0.0753 -0.9422  0.8243
 6893TIP3   OH220642   2.639   2.223   3.949  0.2316  0.4414  0.4426
 6893TIP3    H120643   2.627   2.318   3.951  0.4543  0.4599  0.8089
 6893TIP3    H220644   2.734   2.211   3.946  0.2120  0.2927 -2.3735
 6894TIP3   OH220645   2.592   6.487   2.069 -0.5821  0.3748  0.0801
 6894TIP3    H120646   2.625   6.398   2.055  0.6719  0.8188  0.1353
 6894TIP3    H220647   2.586   6.496   2.164 -0.3050  0.4942  0.0861
 6895TIP3   OH220648   1.695   5.019   2.677  0.2915  0.3888  0.2593
 6895TIP3    H120649   1.610   4.977   2.688  0.8568 -0.9724 -0.3347
 6895TIP3    H220650   1.714   5.010   2.583  0.8014  1.2740  0.2638
 6896TIP3   OH220651   3.534   5.090   0.135 -0.3803  0.1266  0.2845
 6896TIP3    H120652   3.594   5.043   0.077  0.2302  1.1176  0.0737
 6896TIP3    H220653   3.586   5.162   0.170 -0.6478 -0.6053  2.3283
 6897TIP3   OH220654   7.106   6.702   5.068 -0.4240 -0.1003 -0.0416
 6897TIP3    H120655   7.067   6.788   5.057  0.9989  0.4737 -0.7686
 6897TIP3    H220656   7.171   6.695   4.999  0.0203 -1.4576  0.4703
 6898TIP3   OH220657   2.283   4.943   4.858 -0.0281 -0.4332 -0.4198
 6898TIP3    H120658   2.239   4.906   4.782 -0.1404  0.6601 -0.8968
 6898TIP3    H220659   2.327   5.021   4.825  0.1269 -0.0788  0.5867
 6899TIP3   OH220660   6.268   2.299   2.224  0.0228 -0.1456 -0.0247
 6899TIP3    H120661   6.305   2.295   2.136 -0.2961  0.4734 -0.1965
 6899TIP3    H220662   6.343   2.308   2.282  0.1728  0.7997 -0.3463
 6900TIP3   OH220663   0.590   3.974   3.071  0.1721  0.2154 -0.1299
 6900TIP3    H120664   0.650   4.004   3.003  0.0188  1.6428  0.3397
 6900TIP3    H220665   0.518   3.933   3.023 -0.4442  2.1212 -0.9053
 6901TIP3   OH220666   4.004   6.385   5.639  0.7354 -0.2879 -0.2312
 6901TIP3    H120667   3.910   6.389   5.623  0.9554  1.7381 -1.2919
 6901TIP3    H220668   4.020   6.449   5.707  1.0741 -2.4600  1.8803
 6902TIP3   OH220669   4.761   6.097   4.047 -0.4637 -0.5900 -0.3740
 6902TIP3    H120670   4.732   6.038   4.116 -1.2039 -0.7123 -0.7817
 6902TIP3    H220671   4.777   6.180   4.092 -2.5988 -0.1760 -0.3063
 6903TIP3   OH220672   1.623   4.761   1.831 -0.0280  0.3613 -0.6127
 6903TIP3    H120673   1.567   4.837   1.816 -0.5330  0.1251  0.0256
 6903TIP3    H220674   1.618   4.745   1.925  1.2927  0.4629 -0.4985
 6904TIP3   OH220675   5.505   3.504   2.233 -0.1512  0.0952 -0.2147
 6904TIP3    H120676   5.570   3.574   2.227  0.2411 -0.3399 -1.4756
 6904TIP3    H220677   5.422   3.549   2.246  0.3871  0.6584  1.4147
 6905TIP3   OH220678   1.877   3.141   5.146  0.6268 -0.0411 -0.1341
 6905TIP3    H120679   1.903   3.215   5.092 -0.6914 -0.3941 -1.3208
 6905TIP3    H220680   1.782   3.132   5.132  0.5645 -1.2955  0.8009
 6906TIP3   OH220681   2.896   5.346   0.582 -0.1779  0.4370  0.3072
 6906TIP3    H120682   2.842   5.289   0.528  3.5304 -1.5636 -1.7368
 6906TIP3    H220683   2.877   5.320   0.672 -2.1361 -0.5124 -0.3273
 6907TIP3   OH220684   5.278   0.172   3.555  0.4218  0.2676  0.3705
 6907TIP3    H120685   5.300   0.090   3.599  1.3652  0.3080 -0.0083
 6907TIP3    H220686   5.193   0.154   3.513  1.5236 -1.1921 -1.3704
 6908TIP3   OH220687   6.898   2.563   2.695 -0.4048  0.6256 -0.5188
 6908TIP3    H120688   6.969   2.580   2.758 -0.8494 -0.4819  0.3099
 6908TIP3    H220689   6.920   2.479   2.656 -0.8345  0.6732 -0.8668
 6909TIP3   OH220690   6.579   5.221   2.546 -0.1108 -0.3444 -0.2817
 6909TIP3    H120691   6.495   5.245   2.509 -0.4485 -0.9750  0.0531
 6909TIP3    H220692   6.586   5.273   2.627 -1.4146 -2.2112  1.1203
 6910TIP3   OH220693   0.361   4.357   1.313  0.5800  0.3458  0.6445
 6910TIP3    H120694   0.315   4.423   1.261  1.1655  0.5218  0.3376
 6910TIP3    H220695   0.451   4.389   1.318  1.2451 -1.1463 -0.7620
 6911TIP3   OH220696   0.462   0.497   4.726  0.2123  0.5030 -0.4312
 6911TIP3    H120697   0.405   0.529   4.796  0.5347  0.8909 -0.3413
 6911TIP3    H220698   0.411   0.510   4.646 -0.8102 -1.3919 -0.1705
 6912TIP3   OH220699   1.725   1.939   0.795 -0.0333  0.1489  0.4226
 6912TIP3    H120700   1.682   1.955   0.711 -0.5611 -0.0875  0.6371
 6912TIP3    H220701   1.809   1.900   0.773 -0.8175 -1.4085  0.0225
 6913TIP3   OH220702   4.788   4.174   3.461 -0.3840 -0.1501 -0.6659
 6913TIP3    H120703   4.704   4.177   3.507 -0.8906  1.2792 -1.6295
 6913TIP3    H220704   4.800   4.081   3.439 -0.2993 -0.8362  1.9511
 6914TIP3   OH220705   3.582   2.722   5.773  0.2225 -0.0580  0.2558
 6914TIP3    H120706   3.627   2.638   5.779 -0.6121 -0.5400 -0.0691
 6914TIP3    H220707   3.538   2.720   5.688  2.2731  1.7790 -0.9447
 6915TIP3   OH220708   5.884   2.618   3.362  0.7215 -0.7662  0.1239
 6915TIP3    H120709   5.922   2.585   3.444  2.8070  0.7701 -0.1536
 6915TIP3    H220710   5.915   2.557   3.295 -1.1160 -2.1164  0.4393
 6916TIP3   OH220711   6.653   0.373   4.360 -0.2039  0.4063  0.1875
 6916TIP3    H120712   6.597   0.327   4.423 -1.0319 -1.1431 -1.5770
 6916TIP3    H220713   6.653   0.317   4.282  0.6404  2.3110 -1.2689
 6917TIP3   OH220714   4.854   2.782   4.014 -0.5694 -0.3217  0.3519
 6917TIP3    H120715   4.808   2.793   4.097  0.6798 -0.2413  1.0584
 6917TIP3    H220716   4.931   2.839   4.021 -1.4127  1.1908 -1.6368
 6918TIP3   OH220717   6.656   6.268   2.912  0.8055 -0.2674 -0.0389
 6918TIP3    H120718   6.574   6.317   2.914  0.4237 -0.8907 -0.3302
 6918TIP3    H220719   6.635   6.184   2.953  1.8929  0.4397  2.1485
 6919TIP3   OH220720   3.464   4.226   0.166  0.4758 -0.2694 -0.8850
 6919TIP3    H120721   3.381   4.180   0.179  0.9196 -1.4054 -1.8942
 6919TIP3    H220722   3.445   4.316   0.192 -0.8538 -0.6743 -0.3475
 6920TIP3   OH220723   7.071   3.501   0.533  0.1565  0.4101 -0.1420
 6920TIP3    H120724   7.125   3.579   0.517  0.5460  0.0149 -0.8286
 6920TIP3    H220725   7.134   3.432   0.551 -0.1058 -0.0564 -0.9463
 6921TIP3   OH220726   0.467   6.176   3.164  0.3780 -0.1951 -0.0922
 6921TIP3    H120727   0.544   6.232   3.160  0.9065 -0.8683  0.2760
 6921TIP3    H220728   0.392   6.235   3.159  0.8888  0.3446 -2.4711
 6922TIP3   OH220729   7.157   1.138   3.921 -0.4380 -0.2728 -0.0132
 6922TIP3    H120730   7.152   1.087   3.840 -0.4605 -1.5594  0.7761
 6922TIP3    H220731   7.113   1.084   3.987  2.8235 -1.0894  1.7303
 6923TIP3   OH220732   3.052   1.034   3.242 -0.1886  0.1129 -0.1821
 6923TIP3    H120733   3.096   0.976   3.304  0.3935  0.7248 -0.0098
 6923TIP3    H220734   3.095   1.119   3.253 -0.6811  0.4577 -0.7907
 6924TIP3   OH220735   4.796   5.342   3.781 -0.0367  0.1219  0.2648
 6924TIP3    H120736   4.723   5.380   3.830 -0.0246  1.4876 -0.7144
 6924TIP3    H220737   4.874   5.363   3.833 -0.1740  0.1939  0.4405
 6925TIP3   OH220738   0.786   5.776   4.304  0.1017  0.0442  0.2054
 6925TIP3    H120739   0.787   5.682   4.320 -0.7863  0.0966  0.6431
 6925TIP3    H220740   0.827   5.813   4.383  2.6220 -0.0587 -0.9487
 6926TIP3   OH220741   6.081   6.043   5.774 -0.0709  0.7745 -0.0913
 6926TIP3    H120742   6.047   6.131   5.794  0.9402  0.8104  1.7702
 6926TIP3    H220743   6.158   6.035   5.830 -0.6452 -1.6384  0.4491
 6927TIP3   OH220744   1.172   3.845   4.363 -0.1341 -0.4382  0.2062
 6927TIP3    H120745   1.100   3.825   4.424 -1.2620  0.1072 -0.8966
 6927TIP3    H220746   1.144   3.807   4.280  0.6428  0.2112 -0.3679
 6928TIP3   OH220747   4.826   3.774   0.192  0.3700 -0.1014  0.2258
 6928TIP3    H120748   4.736   3.803   0.207 -0.0336 -1.7675  1.3057
 6928TIP3    H220749   4.832   3.690   0.237  1.9473 -0.9003 -1.3470
 6929TIP3   OH220750   3.407   1.122   0.063  0.0870 -0.0896 -0.0727
 6929TIP3    H120751   3.376   1.213   0.064 -0.6451 -0.3237 -0.2582
 6929TIP3    H220752   3.424   1.102   0.155  2.1431  0.8351 -0.2092
 6930TIP3   OH220753   6.747   0.940   2.347 -0.6782  0.5179 -0.6194
 6930TIP3    H120754   6.678   0.957   2.411 -0.5144 -0.1962 -0.2366
 6930TIP3    H220755   6.738   0.848   2.325 -0.5487  0.6875 -1.4222
 6931TIP3   OH220756   2.239   6.806   3.571 -0.0249  0.6649  0.3758
 6931TIP3    H120757   2.302   6.763   3.628 -1.0049 -0.8321  0.3869
 6931TIP3    H220758   2.211   6.737   3.511  0.3260  1.9737 -1.3714
 6932TIP3   OH220759   0.742   6.423   2.705 -0.4167 -0.1899 -0.0584
 6932TIP3    H120760   0.703   6.411   2.618 -0.5878 -0.7144  0.0856
 6932TIP3    H220761   0.835   6.437   2.688 -0.2340 -1.5425 -0.2659
 6933TIP3   OH220762   4.431   2.001   3.998  0.1379  0.1570  0.3741
 6933TIP3    H120763   4.348   1.952   3.991  0.5608 -0.4888 -0.3041
 6933TIP3    H220764   4.440   2.020   4.091 -0.3924 -0.4589  0.5638
 6934TIP3   OH220765   4.213   3.328   2.515 -0.1757 -0.0944 -0.2041
 6934TIP3    H120766   4.268   3.296   2.587  1.0275 -0.1689 -1.1452
 6934TIP3    H220767   4.270   3.385   2.464 -1.5662  1.5650 -0.0233
 6935TIP3   OH220768   2.412   1.088   5.330 -0.5819 -0.2713  0.4430
 6935TIP3    H120769   2.441   1.161   5.385 -0.2346 -0.1668  0.1253
 6935TIP3    H220770   2.318   1.103   5.318 -0.3676  0.5521 -0.2538
 6936TIP3   OH220771   3.959   0.774   3.350 -0.6326  0.0640 -0.0596
 6936TIP3    H120772   3.937   0.867   3.361 -0.3900 -0.0442  1.6584
 6936TIP3    H220773   3.994   0.748   3.435  0.4053 -1.3169 -0.8668
 6937TIP3   OH220774   5.446   3.216   1.810  0.1602  0.2100  0.2777
 6937TIP3    H120775   5.363   3.181   1.841 -0.0546  1.5607  1.3112
 6937TIP3    H220776   5.505   3.210   1.885  0.6277  0.4018 -0.0649
 6938TIP3   OH220777   0.096   4.646   1.374  0.2804 -0.3762 -0.1456
 6938TIP3    H120778   0.007   4.638   1.339  0.2068  1.5063 -0.5279
 6938TIP3    H220779   0.152   4.619   1.301  0.0414  0.4901 -0.6787
 6939TIP3   OH220780   2.661   1.517   1.300  0.5681 -0.8710  0.8268
 6939TIP3    H120781   2.705   1.499   1.217  0.2839 -0.4598  0.5833
 6939TIP3    H220782   2.593   1.450   1.307 -2.3961  1.6389 -1.4536
 6940TIP3   OH220783   3.065   5.279   4.826 -0.1852  0.0633 -0.1717
 6940TIP3    H120784   3.154   5.295   4.793 -0.0866  2.6805  1.0588
 6940TIP3    H220785   3.009   5.332   4.770 -1.0721 -1.8098 -1.1291
 6941TIP3   OH220786   3.144   6.325   3.608 -0.1577 -0.1048  0.2870
 6941TIP3    H120787   3.218   6.267   3.622  0.8301  1.0906  0.2159
 6941TIP3    H220788   3.170   6.407   3.649 -1.4801  0.3183  0.3214
 6942TIP3   OH220789   4.153   0.934   1.055  0.5162 -0.5102  0.4844
 6942TIP3    H120790   4.126   0.937   1.147  0.7156 -0.6379  0.5488
 6942TIP3    H220791   4.077   0.901   1.008  0.2902 -0.0988  0.5556
 6943TIP3   OH220792   6.987   1.309   4.749 -0.0693 -0.4758 -0.9105
 6943TIP3    H120793   6.947   1.318   4.662  0.1777 -0.0966 -0.9890
 6943TIP3    H220794   6.920   1.266   4.801 -0.5585  0.0739 -1.0645
 6944TIP3   OH220795   2.823   6.076   0.730  0.2784  0.5853 -0.3367
 6944TIP3    H120796   2.894   6.108   0.674  0.5553 -0.3903 -0.5645
 6944TIP3    H220797   2.867   6.021   0.794  0.1115  2.5687  1.5881
 6945TIP3   OH220798   4.030   3.043   4.501 -0.1754  0.2134  0.1960
 6945TIP3    H120799   4.074   3.017   4.582  0.9916 -0.1710 -0.5336
 6945TIP3    H220800   4.032   2.964   4.446  0.8756  1.0003 -0.9675
 6946TIP3   OH220801   0.830   4.275   3.309  0.3501  0.2644 -0.0484
 6946TIP3    H120802   0.888   4.232   3.246  0.2881 -0.6536  0.5018
 6946TIP3    H220803   0.749   4.290   3.260  0.2993 -0.4489 -0.1989
 6947TIP3   OH220804   3.172   6.363   5.224 -0.3132 -0.1384 -0.1901
 6947TIP3    H120805   3.256   6.352   5.178 -2.5548 -0.8826 -4.6456
 6947TIP3    H220806   3.163   6.457   5.236  0.3905  0.1112 -1.4358
 6948TIP3   OH220807   2.951   1.304   2.538 -0.5604  0.0510  0.0998
 6948TIP3    H120808   2.979   1.222   2.498 -2.3150 -0.4830 -0.1164
 6948TIP3    H220809   2.961   1.289   2.632 -1.4026 -0.6486  0.0926
 6949TIP3   OH220810   4.090   2.174   2.566 -0.1260  0.2340  0.2785
 6949TIP3    H120811   4.127   2.085   2.568  0.3436  0.4335  0.6473
 6949TIP3    H220812   4.130   2.218   2.642  0.5549  1.1191 -0.5683
 6950TIP3   OH220813   4.383   4.468   1.576 -0.0560 -1.1308 -0.2141
 6950TIP3    H120814   4.368   4.471   1.671 -0.2441 -1.8878 -0.2091
 6950TIP3    H220815   4.469   4.428   1.566  0.4039 -0.1333 -0.3448
 6951TIP3   OH220816   3.461   0.181   4.560  0.8454 -0.0298  0.4531
 6951TIP3    H120817   3.449   0.115   4.627  1.9630  1.1587  1.9053
 6951TIP3    H220818   3.519   0.246   4.600 -0.6198  2.1211 -0.6857
 6952TIP3   OH220819   0.300   4.690   4.619 -0.0628 -0.2124  0.5762
 6952TIP3    H120820   0.236   4.756   4.590  1.0323  0.5794 -0.1081
 6952TIP3    H220821   0.255   4.642   4.689 -0.4015  2.1703  2.0863
 6953TIP3   OH220822   1.881   1.973   4.959  0.0282 -0.4556  0.2960
 6953TIP3    H120823   1.918   2.051   4.919 -0.5950 -0.3850 -0.1679
 6953TIP3    H220824   1.788   1.975   4.933 -0.0667 -1.1687  0.5579
 6954TIP3   OH220825   3.777   3.052   1.176 -0.1572  0.1093 -0.0845
 6954TIP3    H120826   3.835   2.982   1.206 -0.1739 -0.4055 -1.1997
 6954TIP3    H220827   3.694   3.008   1.159  0.4527 -0.0892 -2.9687
 6955TIP3   OH220828   4.115   2.031   0.197 -0.8105 -1.0703  0.4950
 6955TIP3    H120829   4.096   2.109   0.144  0.3369 -1.2649 -0.2548
 6955TIP3    H220830   4.038   1.975   0.186 -0.7967 -0.9012 -0.6208
 6956TIP3   OH220831   6.251   2.944   2.092  0.3252  0.0542  0.1529
 6956TIP3    H120832   6.340   2.959   2.125  0.2561 -1.1856  0.9445
 6956TIP3    H220833   6.202   3.021   2.121  1.2943  1.1638 -0.9961
 6957TIP3   OH220834   0.390   2.757   3.001 -0.6416 -0.6345 -0.3246
 6957TIP3    H120835   0.314   2.786   3.051  0.9913  0.3979  1.6893
 6957TIP3    H220836   0.405   2.826   2.937 -0.2178  0.2053  0.6458
 6958TIP3   OH220837   1.911   3.208   3.565 -0.2870 -0.7238  0.0639
 6958TIP3    H120838   1.831   3.255   3.587  0.8310  1.2045  0.2564
 6958TIP3    H220839   1.882   3.120   3.541 -2.5124  0.1185 -0.5372
 6959TIP3   OH220840   3.386   4.735   0.505  0.1600  0.8213  0.3037
 6959TIP3    H120841   3.422   4.783   0.580  0.2350  1.1116  0.0823
 6959TIP3    H220842   3.294   4.763   0.501 -0.4684 -0.8625  1.6417
 6960TIP3   OH220843   6.416   3.321   0.868 -0.4192  0.2133  0.1538
 6960TIP3    H120844   6.330   3.315   0.826 -1.1136 -0.6535  1.6112
 6960TIP3    H220845   6.456   3.236   0.854 -0.0843  0.3862  0.0563
 6961TIP3   OH220846   4.335   0.030   0.122  0.0255  0.0109 -0.1487
 6961TIP3    H120847   4.374  -0.038   0.176  0.8353  1.0783  0.6617
 6961TIP3    H220848   4.408   0.065   0.071 -0.5654 -0.3899 -1.2999
 6962TIP3   OH220849   6.038   0.760   5.105 -0.4442  0.6351  0.3784
 6962TIP3    H120850   6.120   0.772   5.152  0.6433 -0.4033 -1.1585
 6962TIP3    H220851   6.061   0.776   5.013 -1.3357 -2.1948 -0.4217
 6963TIP3   OH220852   2.456   6.404   4.671  0.5527 -0.2950 -0.8814
 6963TIP3    H120853   2.442   6.351   4.749  0.9264 -0.9437 -1.2480
 6963TIP3    H220854   2.548   6.391   4.649  0.8840  1.1941 -0.4876
 6964TIP3   OH220855   0.869   4.645   2.936  0.0568  0.6658 -0.7559
 6964TIP3    H120856   0.886   4.641   2.842  1.8812  0.2485 -0.4543
 6964TIP3    H220857   0.819   4.566   2.955 -1.0827  1.1867 -1.4868
 6965TIP3   OH220858   4.854   4.950   1.721 -0.5146  0.4911 -0.1607
 6965TIP3    H120859   4.861   4.991   1.807 -1.5100  1.4778 -0.5221
 6965TIP3    H220860   4.779   4.891   1.728  1.6166 -2.3099  0.7157
 6966TIP3   OH220861   1.782   6.326   1.513  0.1983  0.4893 -0.2298
 6966TIP3    H120862   1.742   6.379   1.583  1.5076  0.2630  0.7391
 6966TIP3    H220863   1.865   6.296   1.551  0.4873 -0.4553 -1.5536
 6967TIP3   OH220864   2.484   0.328   3.584  0.0770 -0.2089 -0.5343
 6967TIP3    H120865   2.444   0.389   3.522 -0.2700 -0.0248 -0.1376
 6967TIP3    H220866   2.430   0.250   3.579  1.3427 -1.0532 -2.0873
 6968TIP3   OH220867   4.492   6.517   0.770 -0.3692 -0.2107  0.3514
 6968TIP3    H120868   4.523   6.469   0.846  0.1034  0.1742  0.4049
 6968TIP3    H220869   4.426   6.460   0.731  0.9431 -1.4129 -0.2012
 6969TIP3   OH220870   0.192   2.671   2.720 -0.2322  0.0816 -0.5944
 6969TIP3    H120871   0.274   2.676   2.672  0.8825  0.1082  1.2139
 6969TIP3    H220872   0.185   2.580   2.748 -0.9353  0.0334 -0.8846
 6970TIP3   OH220873   3.610   0.307   5.696 -0.0187 -0.3056 -0.0347
 6970TIP3    H120874   3.603   0.289   5.602  0.7825  0.0297 -0.1684
 6970TIP3    H220875   3.684   0.254   5.726  0.1807  0.1288  0.2580
 6971TIP3   OH220876   4.602   4.930   1.113  0.4826 -0.5609 -0.0746
 6971TIP3    H120877   4.602   5.026   1.117 -1.8652 -0.5491  0.8605
 6971TIP3    H220878   4.686   4.904   1.151 -0.3353  1.0527  3.0907
 6972TIP3   OH220879   2.251   2.171   5.700  0.6817 -0.1143  0.3550
 6972TIP3    H120880   2.219   2.227   5.630  2.9978 -0.7590 -1.3724
 6972TIP3    H220881   2.237   2.221   5.780 -0.4593  1.4144 -0.7462
 6973TIP3   OH220882   0.331   3.089   4.673  0.1583 -0.0161 -0.1310
 6973TIP3    H120883   0.364   3.024   4.611 -0.9043 -1.7127  1.0001
 6973TIP3    H220884   0.386   3.079   4.750 -1.1846 -0.9696  0.7566
 6974TIP3   OH220885   5.795   3.774   1.366  0.7462  0.0644  0.0801
 6974TIP3    H120886   5.791   3.712   1.439  1.7218  1.7543  1.6661
 6974TIP3    H220887   5.725   3.747   1.307  1.7674 -3.1194  0.1677
 6975TIP3   OH220888   4.809   5.426   0.576  0.4808  0.3443  0.5185
 6975TIP3    H120889   4.869   5.463   0.511  0.1893 -1.4293 -0.8439
 6975TIP3    H220890   4.768   5.502   0.617  0.1178  1.5550 -1.9216
 6976TIP3   OH220891   1.066   2.835   0.909 -0.1747  0.0904  0.1331
 6976TIP3    H120892   1.041   2.802   0.823  0.5650 -0.4269  0.1060
 6976TIP3    H220893   1.007   2.908   0.925  1.7763  2.3583 -2.2433
 6977TIP3   OH220894   2.301   1.391   4.732  0.1325 -0.1642  0.0388
 6977TIP3    H120895   2.231   1.421   4.790 -0.1070 -1.5744  0.5050
 6977TIP3    H220896   2.259   1.327   4.674  1.2272 -1.8479  1.0322
 6978TIP3   OH220897   0.629   6.736   3.467  0.7101 -0.5049  0.1197
 6978TIP3    H120898   0.708   6.697   3.430  0.6583  0.8710 -1.5474
 6978TIP3    H220899   0.579   6.766   3.392  0.3251  1.9380  1.2623
 6979TIP3   OH220900   3.192   3.720   2.344 -0.4184 -0.4051  0.6066
 6979TIP3    H120901   3.204   3.800   2.395 -0.3494 -0.2887  0.4091
 6979TIP3    H220902   3.236   3.652   2.394  0.7387 -0.0627  0.0925
 6980TIP3   OH220903   2.378   2.737   5.246  0.3226  0.3373 -0.0464
 6980TIP3    H120904   2.422   2.812   5.205  0.4202  0.1086 -0.3705
 6980TIP3    H220905   2.304   2.719   5.189  0.6841 -0.2331 -0.3563
 6981TIP3   OH220906   1.024   6.418   2.294  0.5422  0.3318 -0.0833
 6981TIP3    H120907   0.945   6.472   2.290  1.1261  1.2709  0.5537
 6981TIP3    H220908   0.992   6.329   2.308 -0.3889  0.9654  2.5296
 6982TIP3   OH220909   4.814   2.842   5.164  0.2404  0.0475  0.1303
 6982TIP3    H120910   4.819   2.890   5.081  1.0051 -0.9829 -0.4404
 6982TIP3    H220911   4.901   2.850   5.202 -0.0751  0.4188  0.8058
 6983TIP3   OH220912   5.116   0.983   1.122  0.0998 -0.2052 -0.0384
 6983TIP3    H120913   5.161   0.971   1.038 -0.4904 -0.7812 -0.2850
 6983TIP3    H220914   5.081   0.896   1.142  0.2386 -0.0729  0.8133
 6984TIP3   OH220915   2.296   6.250   3.265  0.2353 -0.4151 -0.0881
 6984TIP3    H120916   2.241   6.298   3.328  0.8178  1.1996 -0.7373
 6984TIP3    H220917   2.250   6.168   3.250 -0.7434 -0.1391  1.2245
 6985TIP3   OH220918   4.820   1.014   2.844 -0.7267 -0.2125 -1.4519
 6985TIP3    H120919   4.743   1.051   2.799 -1.0268  0.1353 -0.6688
 6985TIP3    H220920   4.853   1.085   2.897  0.7806 -0.0499 -2.5626
 6986TIP3   OH220921   6.096   0.568   3.670  0.2604  0.5787  0.1762
 6986TIP3    H120922   6.133   0.553   3.757 -1.6104 -0.4945  0.8356
 6986TIP3    H220923   6.065   0.482   3.642 -0.8884  1.2521 -0.7253
 6987TIP3   OH220924   5.776   1.241   4.234 -0.1035 -0.0259 -0.5214
 6987TIP3    H120925   5.807   1.194   4.157 -1.8772 -0.6341 -0.8993
 6987TIP3    H220926   5.750   1.173   4.296  1.1832  0.4537  0.6061
 6988TIP3   OH220927   4.597   0.179   4.719  0.4688 -0.6130 -0.4066
 6988TIP3    H120928   4.557   0.159   4.803 -0.2159  1.6863 -0.1303
 6988TIP3    H220929   4.585   0.099   4.667 -1.5064 -1.1468  0.7756
 6989TIP3   OH220930   5.866   1.816   5.841 -0.1821 -0.3710 -0.0849
 6989TIP3    H120931   5.802   1.762   5.888 -1.3633  1.0986  0.0729
 6989TIP3    H220932   5.820   1.899   5.825  1.1551  0.1557 -1.3932
 6990TIP3   OH220933   5.304   6.691   2.629  0.1112 -0.1397  0.2114
 6990TIP3    H120934   5.308   6.595   2.635 -0.0311 -0.2986 -1.6410
 6990TIP3    H220935   5.389   6.716   2.593  0.2315  0.4620  0.9062
 6991TIP3   OH220936   6.564   5.087   3.816  0.1776 -0.2024  0.2737
 6991TIP3    H120937   6.587   5.130   3.899 -2.3325  1.4670  0.2319
 6991TIP3    H220938   6.601   5.144   3.749  0.1979 -0.2507  0.2441
 6992TIP3   OH220939   2.630   3.932   0.602  0.1488  0.0770  0.3875
 6992TIP3    H120940   2.552   3.888   0.635 -0.9797  0.9460 -0.9914
 6992TIP3    H220941   2.651   3.998   0.668  0.0451 -0.5033  1.0106
 6993TIP3   OH220942   3.064   1.293   4.988 -0.0202  0.1816 -0.1714
 6993TIP3    H120943   3.097   1.212   4.949  0.6608 -0.6774  2.0375
 6993TIP3    H220944   3.007   1.330   4.921  1.0589 -1.1910 -1.9410
 6994TIP3   OH220945   6.300   0.036   0.840 -0.2152 -0.5652 -0.4057
 6994TIP3    H120946   6.288   0.110   0.780 -1.0449  0.1595  0.6197
 6994TIP3    H220947   6.388   0.048   0.875  1.1165 -2.1238 -2.9181
 6995TIP3   OH220948   1.039   2.186   4.022  0.0742  0.3615 -0.6296
 6995TIP3    H120949   0.986   2.236   4.084 -2.6090 -1.5876 -1.1352
 6995TIP3    H220950   1.024   2.228   3.938 -1.2129 -0.4893 -0.8587
 6996TIP3   OH220951   6.660   3.978   1.453  0.3757  0.0240 -0.5117
 6996TIP3    H120952   6.730   3.990   1.517  1.5454 -1.3796 -1.4637
 6996TIP3    H220953   6.645   4.065   1.417  0.4961  0.6233  0.8404
 6997TIP3   OH220954   4.525   4.069   3.207  0.4086  0.1292 -0.2968
 6997TIP3    H120955   4.453   4.071   3.269  0.6114 -0.0753 -0.0552
 6997TIP3    H220956   4.491   4.113   3.129  0.0133  0.0031 -0.1946
 6998TIP3   OH220957   4.984   4.246   0.608  0.2048 -0.1630  0.1011
 6998TIP3    H120958   4.911   4.258   0.546  1.0889  0.4205 -0.8640
 6998TIP3    H220959   4.942   4.222   0.690 -1.0508 -0.3167 -0.5576
 6999TIP3   OH220960   4.705   3.987   0.744 -0.0034 -0.0699  0.1856
 6999TIP3    H120961   4.668   3.942   0.820  0.1494  0.0187  0.3126
 6999TIP3    H220962   4.709   4.079   0.770 -1.6476  0.2555 -0.5839
 7000TIP3   OH220963   0.326   2.067   0.884 -0.0086 -0.5276 -0.2703
 7000TIP3    H120964   0.379   2.077   0.805 -0.4429  0.4313 -0.4530
 7000TIP3    H220965   0.329   2.152   0.926  0.7981 -1.2168  1.1425
 7001TIP3   OH220966   0.156   1.120   1.362  0.2269 -0.4253  0.3665
 7001TIP3    H120967   0.202   1.083   1.287 -0.5700  1.3170 -1.0733
 7001TIP3    H220968   0.213   1.190   1.393  0.0148 -0.3623  0.6157
 7002TIP3   OH220969   1.871   1.036   5.508  0.2808  0.7509  0.2341
 7002TIP3    H120970   1.806   1.090   5.554 -0.6724 -1.4206  1.5905
 7002TIP3    H220971   1.904   0.976   5.575  0.7887 -0.7817 -1.3122
 7003TIP3   OH220972   0.808   2.024   5.870  0.0466 -0.1525 -0.7708
 7003TIP3    H120973   0.745   2.095   5.876  0.6890  0.3457  0.5290
 7003TIP3    H220974   0.755   1.945   5.860 -0.7598  0.3136 -0.2409
 7004TIP3   OH220975   0.150   6.300   0.043  0.4218 -0.1469 -0.0840
 7004TIP3    H120976   0.075   6.271   0.095 -0.3753 -1.2852 -1.7889
 7004TIP3    H220977   0.226   6.280   0.097 -0.2348 -3.3620 -0.1712
 7005TIP3   OH220978   0.296   2.014   2.023 -0.1649  0.3144 -0.0131
 7005TIP3    H120979   0.274   2.030   1.932  0.2240 -0.4896 -0.2605
 7005TIP3    H220980   0.299   2.101   2.063  0.8277  0.7883 -1.0438
 7006TIP3   OH220981   2.963   1.504   3.290  0.0116 -0.0213  0.3657
 7006TIP3    H120982   3.037   1.452   3.259 -1.0188 -1.2227 -0.1629
 7006TIP3    H220983   2.975   1.589   3.248  1.3219 -0.0435  0.6559
 7007TIP3   OH220984   4.108   2.835   5.093  0.3423 -0.0976  0.0976
 7007TIP3    H120985   4.142   2.921   5.118 -0.5240 -0.0104  1.0408
 7007TIP3    H220986   4.042   2.853   5.026 -0.4638  0.0694  0.9166
 7008TIP3   OH220987   4.232   2.195   5.148 -0.2911  0.0771  0.1512
 7008TIP3    H120988   4.164   2.129   5.159 -1.2626  1.0287  0.0411
 7008TIP3    H220989   4.209   2.264   5.209 -0.3982  1.1700 -1.0788
 7009TIP3   OH220990   0.347   1.072   5.604  0.9137  0.1550  0.2441
 7009TIP3    H120991   0.282   1.081   5.674 -1.3691 -1.5755 -1.4549
 7009TIP3    H220992   0.392   0.990   5.623  0.0508 -0.4974 -0.4194
 7010TIP3   OH220993   0.429   0.609   4.056 -0.2298  0.4213 -0.2893
 7010TIP3    H120994   0.473   0.572   3.979 -2.1647 -0.6324 -0.9775
 7010TIP3    H220995   0.476   0.573   4.131  1.8973  1.7132 -0.9256
 7011TIP3   OH220996   4.319   2.249   2.261  0.3094  0.4252  0.1577
 7011TIP3    H120997   4.258   2.320   2.279 -0.1368 -0.0371  0.4795
 7011TIP3    H220998   4.272   2.191   2.201  0.5447  0.2333  0.1567
 7012TIP3   OH220999   6.423   4.286   0.431  0.1168 -0.7291  0.3431
 7012TIP3    H121000   6.433   4.373   0.470 -0.9315 -0.4567  0.0469
 7012TIP3    H221001   6.512   4.261   0.404  0.6978 -0.4868  1.9554
 7013TIP3   OH221002   0.319   1.659   5.813  0.3845  0.3814  0.3015
 7013TIP3    H121003   0.379   1.667   5.739 -0.6234  1.1108 -0.4554
 7013TIP3    H221004   0.354   1.586   5.864  0.0601 -1.4467 -1.8991
 7014TIP3   OH221005   6.658   4.829   5.710  0.3029  0.0246  0.3473
 7014TIP3    H121006   6.727   4.816   5.645  0.7094  0.4366  0.6884
 7014TIP3    H221007   6.680   4.912   5.753 -0.0990 -0.1122  0.8362
 7015TIP3   OH221008   1.295   0.262   5.683 -0.6722 -0.1467  0.0700
 7015TIP3    H121009   1.374   0.270   5.629 -2.0033 -0.1978 -1.9805
 7015TIP3    H221010   1.289   0.346   5.729 -1.5025  1.4857 -2.7877
 7016TIP3   OH221011   4.481   1.452   1.330 -0.1176  0.0258 -0.0105
 7016TIP3    H121012   4.488   1.481   1.239 -0.6119  2.0300  0.5467
 7016TIP3    H221013   4.567   1.415   1.349 -0.0481 -0.5724 -1.3090
 7017TIP3   OH221014   0.243   6.048   5.540 -0.3038 -0.6010 -0.5770
 7017TIP3    H121015   0.334   6.020   5.531 -0.3124 -0.5589 -0.8169
 7017TIP3    H221016   0.219   6.025   5.630  0.1783  0.0793 -0.2713
 7018TIP3   OH221017   5.099   6.020   4.095 -0.1193  0.2175  0.0024
 7018TIP3    H121018   5.126   5.965   4.168  0.2273  0.2142 -0.1235
 7018TIP3    H221019   5.024   6.069   4.128 -0.9290 -0.8906 -0.1383
 7019TIP3   OH221020   6.370   2.803   2.304 -0.3730 -0.0961  0.6068
 7019TIP3    H121021   6.286   2.832   2.270 -0.3413  1.4656  1.7608
 7019TIP3    H221022   6.422   2.883   2.311  0.4455 -0.7153  1.9783
 7020TIP3   OH221023   3.219   2.017   0.753 -0.5842 -0.3219  0.0476
 7020TIP3    H121024   3.205   2.105   0.719  1.7137 -0.1840 -0.7325
 7020TIP3    H221025   3.173   2.016   0.837  0.5596  2.1761  0.8097
 7021TIP3   OH221026   2.106   4.753   4.374 -0.3877 -0.4600  0.1341
 7021TIP3    H121027   2.083   4.802   4.453 -2.4849  0.1715 -0.7822
 7021TIP3    H221028   2.121   4.664   4.405 -1.3574 -0.2658  1.2483
 7022TIP3   OH221029   3.035   1.344   5.250 -0.8448 -0.5018  0.0074
 7022TIP3    H121030   2.955   1.396   5.241 -0.0508  0.5907 -0.9646
 7022TIP3    H221031   3.057   1.318   5.161  1.4628  1.6997 -0.1826
 7023TIP3   OH221032   2.186   4.264   1.044  0.4786  0.2942 -0.1892
 7023TIP3    H121033   2.179   4.351   1.004 -2.8500  1.9210  3.3361
 7023TIP3    H221034   2.105   4.220   1.020  1.1061 -0.9968 -0.0152
 7024TIP3   OH221035   5.307   4.626   0.380  0.7969 -0.3909  0.7863
 7024TIP3    H121036   5.380   4.567   0.403  0.6277 -0.4953  1.0525
 7024TIP3    H221037   5.234   4.597   0.434  0.6251 -0.1247  0.6999
 7025TIP3   OH221038   5.940   5.613   5.645 -0.1055  0.2178  0.4358
 7025TIP3    H121039   5.974   5.665   5.718  1.4895  0.6188 -0.5315
 7025TIP3    H221040   5.997   5.637   5.571 -1.1515 -0.7871 -0.7289
 7026TIP3   OH221041   4.487   1.529   5.211  0.1900  0.4816 -0.3415
 7026TIP3    H121042   4.447   1.555   5.294  1.7021 -1.3973  1.0639
 7026TIP3    H221043   4.413   1.517   5.151 -1.1088 -0.0624  1.3107
 7027TIP3   OH221044   6.943   0.730   0.750  0.1500  0.5536  0.3916
 7027TIP3    H121045   7.030   0.690   0.749 -0.5121 -0.9375 -0.3227
 7027TIP3    H221046   6.883   0.657   0.739 -1.1457  1.7099 -0.5730
 7028TIP3   OH221047   1.851   5.640   1.050  0.5434 -0.2397  0.1592
 7028TIP3    H121048   1.808   5.723   1.031  0.7024 -0.4810 -1.3100
 7028TIP3    H221049   1.781   5.585   1.088  0.3421  0.4036  0.7413
 7029TIP3   OH221050   1.699   1.095   3.595  0.3710 -0.1702  0.3190
 7029TIP3    H121051   1.795   1.087   3.599  0.3791 -0.1313  0.2058
 7029TIP3    H221052   1.670   1.071   3.683  0.6086  1.6171  0.9351
 7030TIP3   OH221053   6.969   0.940   0.555 -0.4724  0.4785  0.0254
 7030TIP3    H121054   6.975   0.932   0.650  2.0395  1.0426 -0.0193
 7030TIP3    H221055   6.970   0.849   0.523 -0.7994  0.3034  0.4964
 7031TIP3   OH221056   6.020   6.747   4.177 -0.5247  0.2398  0.6720
 7031TIP3    H121057   6.053   6.761   4.266  0.2033 -1.2427  0.6676
 7031TIP3    H221058   5.957   6.818   4.163 -0.6272  0.5182  2.3542
 7032TIP3   OH221059   4.019   6.640   5.082 -0.5250  0.3557 -0.4711
 7032TIP3    H121060   4.027   6.665   5.174 -1.0819 -0.9296 -0.0384
 7032TIP3    H221061   4.087   6.689   5.037 -0.1126  0.8567  0.6666
 7033TIP3   OH221062   6.980   5.021   2.737 -0.2802 -0.5680  0.1900
 7033TIP3    H121063   7.030   5.062   2.667  1.6452  0.3557  2.0064
 7033TIP3    H221064   7.028   4.941   2.758 -0.5316 -0.5538  0.8370
 7034TIP3   OH221065   6.349   0.841   4.567  0.1748  0.4294  0.2931
 7034TIP3    H121066   6.376   0.929   4.543 -0.2437  0.5909  0.4226
 7034TIP3    H221067   6.317   0.802   4.486 -1.0310  0.8992  0.5371
 7035TIP3   OH221068   6.207   6.166   4.632  0.4036 -0.4383  0.0133
 7035TIP3    H121069   6.193   6.210   4.548 -0.0248 -0.3886  0.1104
 7035TIP3    H221070   6.292   6.199   4.662  0.0741  0.3425  0.0958
 7036TIP3   OH221071   0.269   4.792   2.430 -0.5883  0.9447  1.0502
 7036TIP3    H121072   0.204   4.831   2.489 -1.0159 -0.8718  1.8465
 7036TIP3    H221073   0.226   4.715   2.394  0.9097  0.0064  1.1760
 7037TIP3   OH221074   3.717   2.156   2.367  0.0229 -0.3538  0.3664
 7037TIP3    H121075   3.665   2.151   2.447 -0.4789  0.9313  0.1446
 7037TIP3    H221076   3.723   2.065   2.337 -2.4636 -0.5358  0.1723
 7038TIP3   OH221077   4.115   1.954   3.222  0.3582  0.0917 -0.5172
 7038TIP3    H121078   4.093   1.889   3.155  0.2045  0.0578 -0.4336
 7038TIP3    H221079   4.154   2.026   3.172  3.0702 -1.1368 -0.3973
 7039TIP3   OH221080   6.459   0.534   0.756  0.1001 -0.0260  0.7825
 7039TIP3    H121081   6.375   0.499   0.785 -1.5006  2.2270 -0.7641
 7039TIP3    H221082   6.501   0.567   0.836 -0.9330 -0.3429  1.4656
 7040TIP3   OH221083   1.053   6.091   4.460 -0.1276  0.1904 -0.0630
 7040TIP3    H121084   0.990   6.024   4.488 -0.8611  0.9881  0.2269
 7040TIP3    H221085   1.127   6.041   4.427 -0.3394 -0.7702  0.8569
 7041TIP3   OH221086   6.163   1.642   0.989  0.2163  0.2822 -0.4920
 7041TIP3    H121087   6.256   1.638   1.012  0.0925 -0.5099 -0.0584
 7041TIP3    H221088   6.118   1.626   1.072 -0.2468 -4.1076 -1.3447
 7042TIP3   OH221089   3.112   4.485   3.937 -0.6304  0.1822  0.1769
 7042TIP3    H121090   3.064   4.421   3.990 -0.9187  0.7081  0.5695
 7042TIP3    H221091   3.048   4.554   3.921 -0.7885 -0.3341 -1.5535
 7043TIP3   OH221092   2.661   4.810   0.285 -0.1896 -0.3201 -0.5426
 7043TIP3    H121093   2.660   4.782   0.194 -0.6541 -0.2339 -0.5680
 7043TIP3    H221094   2.656   4.728   0.335  1.2859 -0.4481 -0.5645
 7044TIP3   OH221095   4.703   6.351   5.487 -0.6687 -0.0848 -0.0937
 7044TIP3    H121096   4.647   6.301   5.547 -0.2332  0.2344  0.5906
 7044TIP3    H221097   4.689   6.442   5.512  0.5280 -0.0235  0.4326
 7045TIP3   OH221098   2.202   4.833   1.828  0.2992 -0.4350  0.0421
 7045TIP3    H121099   2.142   4.904   1.806 -1.7586 -1.7585  1.0506
 7045TIP3    H221100   2.207   4.834   1.924  1.0917 -0.9951  0.0178
 7046TIP3   OH221101   1.651   5.365   2.450 -0.1765 -0.5017  0.2239
 7046TIP3    H121102   1.568   5.345   2.492  0.3711 -1.6979  0.7830
 7046TIP3    H221103   1.684   5.442   2.497 -1.1924  0.3185 -0.3637
 7047TIP3   OH221104   0.692   0.088   3.475  0.1970  0.0708  0.8386
 7047TIP3    H121105   0.724   0.170   3.512  0.2217  0.9636 -1.0380
 7047TIP3    H221106   0.596   0.097   3.478  0.1939  0.0152  0.9231
 7048TIP3   OH221107   1.619   0.328   1.943  0.7046 -0.7059  0.5704
 7048TIP3    H121108   1.693   0.275   1.972  3.0446  0.9043 -1.9689
 7048TIP3    H221109   1.644   0.358   1.855 -2.3759  1.0552  0.1555
 7049TIP3   OH221110   1.125   4.266   4.745 -0.1538  0.4849 -0.2616
 7049TIP3    H121111   1.050   4.242   4.800 -0.7108 -0.9009 -1.5582
 7049TIP3    H221112   1.101   4.350   4.706 -0.8467  0.2582 -0.3269
 7050TIP3   OH221113   1.637   6.737   4.814 -0.0272  0.0287 -0.4707
 7050TIP3    H121114   1.561   6.783   4.778 -0.2674 -1.2723 -1.6974
 7050TIP3    H221115   1.681   6.803   4.868 -0.6017  1.5635 -1.7908
 7051TIP3   OH221116   2.767   6.710   2.007 -0.2371 -0.4040 -0.0923
 7051TIP3    H121117   2.780   6.706   2.102  0.1901 -1.7333 -0.1925
 7051TIP3    H221118   2.711   6.634   1.987  0.6552 -0.8251 -1.0483
 7052TIP3   OH221119   4.212   5.293   4.434 -0.4616  0.1584  1.1471
 7052TIP3    H121120   4.203   5.221   4.372  0.3164  0.9176  0.0938
 7052TIP3    H221121   4.288   5.270   4.487 -0.8208 -0.2546  1.4921
 7053TIP3   OH221122   1.829   3.007   2.851  0.0019  0.2065  0.3633
 7053TIP3    H121123   1.905   2.964   2.812 -0.4360 -0.3258  0.0691
 7053TIP3    H221124   1.830   3.096   2.816  0.3836  0.1447  0.2149
 7054TIP3   OH221125   4.286   5.773   5.553  0.2855  0.7135 -0.0491
 7054TIP3    H121126   4.238   5.820   5.621 -1.2481 -1.3542  0.4180
 7054TIP3    H221127   4.311   5.690   5.594  0.6600  0.0436 -1.5550
 7055TIP3   OH221128   1.235   0.884   3.933  0.3671 -0.0354  0.1688
 7055TIP3    H121129   1.230   0.944   3.858  1.6674  0.2869  0.3290
 7055TIP3    H221130   1.182   0.926   4.000 -1.5411 -0.7436 -0.8117
 7056TIP3   OH221131   1.697   0.515   1.343 -0.2657  0.0485 -0.3507
 7056TIP3    H121132   1.686   0.443   1.405 -0.4753 -1.3639 -1.9793
 7056TIP3    H221133   1.630   0.501   1.277  0.1052  1.3855 -1.0546
 7057TIP3   OH221134   0.393   5.604   1.549 -0.1707  0.1509 -0.1743
 7057TIP3    H121135   0.447   5.550   1.606  0.4379  1.0161  0.0834
 7057TIP3    H221136   0.415   5.694   1.573 -0.3933  0.5278 -1.3190
 7058TIP3   OH221137   3.319   2.991   3.471  0.2859  0.0227  0.3577
 7058TIP3    H121138   3.362   2.916   3.511  1.0435  0.1157 -0.2513
 7058TIP3    H221139   3.234   2.958   3.442 -1.4487  0.5383  4.2482
 7059TIP3   OH221140   2.311   4.289   3.036 -0.0329 -0.2616  0.0996
 7059TIP3    H121141   2.395   4.276   3.080  0.4627 -0.7182 -0.9279
 7059TIP3    H221142   2.324   4.367   2.982 -0.2966 -0.2782  0.0100
 7060TIP3   OH221143   5.406   0.482   1.728  0.1803  0.2481 -0.4526
 7060TIP3    H121144   5.490   0.461   1.771 -1.2734 -0.6701  2.2205
 7060TIP3    H221145   5.408   0.576   1.716  0.2436  0.8151  2.9817
 7061TIP3   OH221146   4.253   0.136   4.593  0.0477  0.2557  0.0722
 7061TIP3    H121147   4.308   0.214   4.587  0.3040  0.2319  1.7218
 7061TIP3    H221148   4.184   0.150   4.528  1.9312  0.3004 -2.0428
 7062TIP3   OH221149   6.114   5.068   4.956 -0.5944 -0.5331  0.7024
 7062TIP3    H121150   6.123   5.066   5.052  0.1620  0.7295  0.6782
 7062TIP3    H221151   6.175   5.002   4.925  0.4168  0.2061  1.0489
 7063TIP3   OH221152   1.187   5.676   3.720  0.4381 -0.3905  0.1468
 7063TIP3    H121153   1.199   5.646   3.811  1.1250 -0.6358 -0.0177
 7063TIP3    H221154   1.213   5.601   3.667  3.7009  0.9055 -0.3030
 7064TIP3   OH221155   2.710   1.630   3.805 -0.4026  0.3743  0.0113
 7064TIP3    H121156   2.803   1.648   3.817 -0.4416 -0.1077  1.2073
 7064TIP3    H221157   2.688   1.670   3.721  0.7448  0.9983 -0.0099
 7065TIP3   OH221158   2.793   5.566   3.038  0.6148 -0.2695 -0.4342
 7065TIP3    H121159   2.730   5.507   3.079  1.2355  0.4649  1.7624
 7065TIP3    H221160   2.877   5.539   3.074  0.9149  1.8783  0.6424
 7066TIP3   OH221161   6.451   1.894   3.644 -0.1379  0.0393  0.3627
 7066TIP3    H121162   6.444   1.932   3.556 -0.5975 -2.2469 -0.6599
 7066TIP3    H221163   6.545   1.885   3.658 -0.0544  0.5690  0.1784
 7067TIP3   OH221164   1.345   3.506   3.631 -0.4197 -0.0222 -0.9230
 7067TIP3    H121165   1.351   3.411   3.623  0.0995 -0.1004  0.1868
 7067TIP3    H221166   1.251   3.524   3.641 -0.5491 -0.3799 -1.4686
 7068TIP3   OH221167   2.657   4.295   2.359  0.8503  0.4800 -0.1080
 7068TIP3    H121168   2.738   4.265   2.399  0.4812 -0.3891 -0.0048
 7068TIP3    H221169   2.682   4.376   2.314  1.0966  1.9989  2.5497
 7069TIP3   OH221170   0.998   5.681   2.114  0.0198 -0.2660 -0.4636
 7069TIP3    H121171   0.935   5.615   2.143  0.4731 -0.9186 -0.9286
 7069TIP3    H221172   1.083   5.642   2.131  0.3018 -0.4920 -2.2196
 7070TIP3   OH221173   5.986   5.390   3.361  0.0358 -0.4757 -0.0280
 7070TIP3    H121174   6.003   5.320   3.424 -0.0289  0.6094  1.2284
 7070TIP3    H221175   5.999   5.471   3.410 -0.0248  0.4120 -1.4111
 7071TIP3   OH221176   2.759   1.800   5.289  0.0851  0.5810 -0.1897
 7071TIP3    H121177   2.736   1.889   5.317 -3.1412 -0.3983  0.8310
 7071TIP3    H221178   2.698   1.780   5.218  2.2127 -0.1393 -1.9304
 7072TIP3   OH221179   6.760   1.924   1.735 -0.0907  0.0130  0.0810
 7072TIP3    H121180   6.763   1.850   1.795  0.9891 -0.0995 -0.0939
 7072TIP3    H221181   6.734   1.886   1.651  0.9127 -0.2621 -0.1194
 7073TIP3   OH221182   4.861   2.539   2.836 -0.1421 -0.2385  0.3639
 7073TIP3    H121183   4.878   2.516   2.927  0.1830  0.9249  0.6062
 7073TIP3    H221184   4.905   2.623   2.823 -2.4642  0.9818 -0.0950
 7074TIP3   OH221185   6.316   6.488   3.609  0.0076 -0.2631 -0.4305
 7074TIP3    H121186   6.390   6.435   3.641 -0.0063  0.1189  0.2380
 7074TIP3    H221187   6.288   6.443   3.529  0.1799 -1.1034 -0.0281
 7075TIP3   OH221188   0.922   4.679   5.030 -0.4800  0.3428  0.4068
 7075TIP3    H121189   1.016   4.684   5.047 -0.3570  1.0431 -0.3605
 7075TIP3    H221190   0.911   4.600   4.977 -0.3828  0.0348  0.8467
 7076TIP3   OH221191   6.692   1.480   1.352 -0.2560  0.0685 -0.4536
 7076TIP3    H121192   6.688   1.447   1.263  0.4762  1.5540 -1.0870
 7076TIP3    H221193   6.740   1.413   1.401  1.3786  0.2395 -1.7211
 7077TIP3   OH221194   6.609   6.532   1.982 -0.3785  0.1332 -0.3497
 7077TIP3    H121195   6.704   6.523   1.992 -0.3344  0.8849  0.0007
 7077TIP3    H221196   6.574   6.512   2.069 -0.5323 -0.0081 -0.4442
 7078TIP3   OH221197   5.950   2.348   0.075 -0.8041 -0.5669  0.1215
 7078TIP3    H121198   5.910   2.388   0.153 -1.1624  0.1190 -0.4009
 7078TIP3    H221199   5.985   2.422   0.026  2.0686 -1.2102  1.0423
 7079TIP3   OH221200   0.158   1.424   3.286  0.2969 -0.2498 -0.6908
 7079TIP3    H121201   0.194   1.335   3.291  1.6639  0.2601 -1.1059
 7079TIP3    H221202   0.087   1.425   3.350  0.6662 -1.4602 -0.2460
 7080TIP3   OH221203   4.599   2.917   2.598  0.1774  0.2944  0.0936
 7080TIP3    H121204   4.589   2.996   2.651  0.0105  0.4038 -0.0968
 7080TIP3    H221205   4.616   2.847   2.661 -2.1784  0.0223  0.5310
 7081TIP3   OH221206   5.340   3.195   3.715 -0.2008 -0.3460  0.2472
 7081TIP3    H121207   5.429   3.176   3.747 -0.3934  1.5969  2.2088
 7081TIP3    H221208   5.353   3.260   3.646 -0.0767 -0.6308 -0.0023
 7082TIP3   OH221209   2.871   5.826   2.346  0.2182  0.2543 -0.4228
 7082TIP3    H121210   2.867   5.838   2.441 -0.0424 -0.6007 -0.3174
 7082TIP3    H221211   2.878   5.915   2.311  0.2573  0.5821  0.3912
 7083TIP3   OH221212   4.259   0.365   2.946  0.5592  0.4065 -0.4114
 7083TIP3    H121213   4.268   0.310   2.868  0.1306  1.4051 -1.1979
 7083TIP3    H221214   4.347   0.369   2.982  0.3985 -1.7341  0.3667
 7084TIP3   OH221215   2.350   0.160   5.550 -0.6117 -0.0752  0.0854
 7084TIP3    H121216   2.288   0.152   5.623  1.0766  2.3488  1.9257
 7084TIP3    H221217   2.297   0.190   5.477 -1.8982  0.4420  1.1821
 7085TIP3   OH221218   2.398   6.346   3.865  0.0921 -0.1849 -0.3778
 7085TIP3    H121219   2.312   6.381   3.890  1.2094  2.6360 -0.1611
 7085TIP3    H221220   2.391   6.331   3.770 -0.1178  1.8751 -0.7351
 7086TIP3   OH221221   0.943   6.095   5.030 -0.5302  0.5526 -0.2523
 7086TIP3    H121222   0.860   6.095   4.982 -0.3042  1.2145 -0.6504
 7086TIP3    H221223   0.918   6.076   5.120 -1.0175 -0.1558 -0.5259
 7087TIP3   OH221224   1.484   1.436   3.314 -0.2982 -0.3012  0.1783
 7087TIP3    H121225   1.540   1.400   3.383 -0.6312  0.9304  1.1174
 7087TIP3    H221226   1.445   1.515   3.352 -1.9631 -0.6056 -0.7575
 7088TIP3   OH221227   0.429   4.429   3.295 -0.7554 -0.1062  0.2841
 7088TIP3    H121228   0.482   4.360   3.256 -0.2604 -0.5820  1.7352
 7088TIP3    H221229   0.473   4.510   3.268 -0.5249 -0.4070 -0.2637
 7089TIP3   OH221230   6.079   1.666   0.143  0.4852 -0.4044  0.1199
 7089TIP3    H121231   6.022   1.623   0.079 -1.5670  1.0383  0.8706
 7089TIP3    H221232   6.051   1.631   0.228 -0.1580  1.1791  0.5972
 7090TIP3   OH221233   6.105   1.282   5.241 -0.0262 -0.4307 -0.2381
 7090TIP3    H121234   6.167   1.350   5.267 -0.4689 -0.0519 -0.1629
 7090TIP3    H221235   6.159   1.215   5.200  0.4534 -0.1754 -0.0287
 7091TIP3   OH221236   0.662   3.931   4.158  0.3380 -0.9301 -0.4937
 7091TIP3    H121237   0.641   3.953   4.248 -0.8795 -2.5366 -0.3306
 7091TIP3    H221238   0.665   4.015   4.112  1.0814 -0.0830  1.0363
 7092TIP3   OH221239   7.240   6.041   1.876  0.8237 -0.1878 -0.1195
 7092TIP3    H121240   7.179   5.982   1.831 -0.2017 -0.1824  1.1967
 7092TIP3    H221241   7.200   6.056   1.962  1.2255  2.1944 -0.2981
 7093TIP3   OH221242   3.296   2.376   3.510 -0.1850 -0.3931  0.1368
 7093TIP3    H121243   3.356   2.309   3.476 -0.3515  0.0975 -1.1726
 7093TIP3    H221244   3.267   2.423   3.433  0.9519  2.0741  1.1199
 7094TIP3   OH221245   6.549   3.872   4.985 -0.0328 -0.1866  0.5240
 7094TIP3    H121246   6.514   3.937   4.924 -0.9794 -1.8361 -0.7692
 7094TIP3    H221247   6.526   3.787   4.946  1.9499 -1.3290  1.6932
 7095TIP3   OH221248   2.789   6.260   1.469  0.3028  0.2947 -0.8686
 7095TIP3    H121249   2.712   6.298   1.427  0.0818  0.0226 -0.7126
 7095TIP3    H221250   2.778   6.277   1.562 -0.3453 -1.0763 -0.6633
 7096TIP3   OH221251   2.984   0.449   1.640 -0.1543 -0.0043 -0.0345
 7096TIP3    H121252   2.889   0.449   1.651 -0.2194  1.6746 -0.3436
 7096TIP3    H221253   2.998   0.476   1.550  0.6264 -0.6544 -0.1250
 7097TIP3   OH221254   6.906   3.179   2.981  0.1839  0.5753  0.0017
 7097TIP3    H121255   6.831   3.139   3.026  0.2524 -0.0161 -0.4006
 7097TIP3    H221256   6.947   3.106   2.934  0.2152  1.1641 -0.8837
 7098TIP3   OH221257   3.720   3.652   3.882 -0.6253  0.2327 -0.8417
 7098TIP3    H121258   3.672   3.592   3.825  1.2165 -0.7049 -1.4829
 7098TIP3    H221259   3.721   3.609   3.967  0.6964 -0.7131 -1.3013
 7099TIP3   OH221260   2.586   4.917   3.368 -0.0564 -0.1887 -0.3695
 7099TIP3    H121261   2.603   5.002   3.326 -0.5489 -0.2219 -0.6476
 7099TIP3    H221262   2.491   4.914   3.378  0.1296  0.4009  2.0217
 7100TIP3   OH221263   6.539   2.643   2.962 -0.2147  0.0712 -0.5407
 7100TIP3    H121264   6.528   2.682   3.049 -1.2207 -0.3597 -0.4725
 7100TIP3    H221265   6.514   2.552   2.973 -4.0910  0.7636 -2.0529
 7101TIP3   OH221266   6.605   2.915   5.061 -0.1155 -0.5116 -1.1713
 7101TIP3    H121267   6.602   2.865   5.143 -1.0172 -0.4695 -1.1763
 7101TIP3    H221268   6.682   2.972   5.070 -0.7361  0.1640  0.0380
 7102TIP3   OH221269   3.799   1.433   3.085  0.2171 -0.1684 -0.0818
 7102TIP3    H121270   3.876   1.489   3.093  0.6562 -0.6493 -0.8293
 7102TIP3    H221271   3.835   1.344   3.086 -0.3920 -0.4143  0.2194
 7103TIP3   OH221272   2.000   5.299   3.962 -0.3755  0.1835 -0.2482
 7103TIP3    H121273   2.009   5.357   3.887 -0.2707  0.2425 -0.1910
 7103TIP3    H221274   2.078   5.243   3.959  1.7263  2.7047  1.9887
 7104TIP3   OH221275   3.891   3.697   5.587 -0.0871 -0.2400 -0.5452
 7104TIP3    H121276   3.826   3.702   5.517  0.9782 -1.7560 -1.6987
 7104TIP3    H221277   3.975   3.700   5.542  0.6389 -0.1565  0.7720
 7105TIP3   OH221278   0.285   6.583   5.784  0.0332  0.2948  0.5841
 7105TIP3    H121279   0.301   6.645   5.856 -1.2600 -1.0823  2.1282
 7105TIP3    H221280   0.333   6.504   5.810 -0.4977 -0.2396 -0.0506
 7106TIP3   OH221281   5.428   1.813   4.204 -0.2233  0.4144  0.5104
 7106TIP3    H121282   5.460   1.783   4.118 -1.1601  0.8157  0.0061
 7106TIP3    H221283   5.431   1.909   4.198 -1.7995  0.4746  0.3170
 7107TIP3   OH221284   0.321   4.966   2.211  0.9348 -0.5878  0.0479
 7107TIP3    H121285   0.325   4.885   2.262  1.2601 -0.1054  0.7849
 7107TIP3    H221286   0.346   5.035   2.271  0.4262  0.1078 -0.5144
 7108TIP3   OH221287   5.044   1.376   4.409 -0.1525  0.7551 -0.2994
 7108TIP3    H121288   4.976   1.440   4.427 -0.0906  1.2675 -1.7194
 7108TIP3    H221289   5.114   1.397   4.472 -0.4664  1.5644 -0.2027
 7109TIP3   OH221290   5.203   6.047   4.437 -0.1099  0.2637 -0.2703
 7109TIP3    H121291   5.183   6.140   4.442 -0.1092  0.1987  2.8482
 7109TIP3    H221292   5.125   6.003   4.472  0.8720 -0.6891  0.8484
 7110TIP3   OH221293   2.199   2.096   1.376  0.2956 -0.1022 -0.2941
 7110TIP3    H121294   2.294   2.107   1.383  0.3528  1.2648 -2.1652
 7110TIP3    H221295   2.175   2.043   1.451  2.7757 -2.0649 -0.7440
 7111TIP3   OH221296   3.224   3.021   2.876 -0.1495  0.1129 -0.1779
 7111TIP3    H121297   3.211   3.107   2.834 -1.0031  0.2126  0.2737
 7111TIP3    H221298   3.276   3.040   2.954 -1.6117  0.4671  0.7527
 7112TIP3   OH221299   4.644   3.333   5.413 -0.0104  0.3299 -0.2743
 7112TIP3    H121300   4.586   3.362   5.342  0.2791  1.1875 -0.1689
 7112TIP3    H221301   4.622   3.390   5.487  0.1468 -0.1261  0.1335
 7113TIP3   OH221302   5.388   5.979   2.151  0.1139 -0.9374 -0.3405
 7113TIP3    H121303   5.402   6.056   2.206  2.0756 -0.5281 -1.3189
 7113TIP3    H221304   5.472   5.964   2.108 -0.7124 -2.5885 -1.5219
 7114TIP3   OH221305   3.569   0.618   1.992 -0.0015  0.0062 -0.1982
 7114TIP3    H121306   3.475   0.610   2.011 -0.1596 -0.1720 -1.0127
 7114TIP3    H221307   3.576   0.598   1.899  0.7182  1.0156 -0.3810
 7115TIP3   OH221308   0.101   2.503   3.167  0.3896  0.3601  0.0728
 7115TIP3    H121309   0.038   2.434   3.147  2.3482 -1.3652 -0.4607
 7115TIP3    H221310   0.052   2.564   3.224 -1.8819 -0.5702 -0.7618
 7116TIP3   OH221311   5.819   6.207   0.502 -0.2403  0.2590 -0.6071
 7116TIP3    H121312   5.876   6.278   0.473  0.1086  1.3454  2.3475
 7116TIP3    H221313   5.732   6.247   0.510 -0.2830  0.0612 -0.0240
 7117TIP3   OH221314   4.320   2.885   3.210 -0.5159 -0.1917  0.1411
 7117TIP3    H121315   4.317   2.790   3.198 -0.8667 -0.1868  0.1931
 7117TIP3    H221316   4.410   2.909   3.189  0.0385 -0.7541  1.7181
 7118TIP3   OH221317   3.630   2.157   3.157 -0.1267 -0.3119 -0.1419
 7118TIP3    H121318   3.665   2.179   3.071  1.6248  0.0442  0.6220
 7118TIP3    H221319   3.688   2.200   3.219 -1.5778 -0.2343  1.2399
 7119TIP3   OH221320   5.229   5.820   5.096 -0.0369 -0.2654 -0.4653
 7119TIP3    H121321   5.265   5.885   5.036  0.4012  0.3812  0.4728
 7119TIP3    H221322   5.304   5.792   5.149 -0.0238 -2.2035 -1.4094
 7120TIP3   OH221323   5.524   1.750   0.656 -0.3888 -0.1078 -0.4349
 7120TIP3    H121324   5.605   1.720   0.615 -0.9918 -1.0985 -0.9402
 7120TIP3    H221325   5.487   1.813   0.594 -0.5969 -0.5595 -0.7787
 7121TIP3   OH221326   4.798   4.805   2.082 -0.2422 -0.1167  0.5221
 7121TIP3    H121327   4.789   4.735   2.017  0.5838 -1.6177  1.9531
 7121TIP3    H221328   4.776   4.763   2.165 -0.6690  1.6003  1.3006
 7122TIP3   OH221329   7.197   6.363   1.814  0.1567 -0.1777 -0.3430
 7122TIP3    H121330   7.173   6.438   1.868 -0.3588  1.0036 -2.1318
 7122TIP3    H221331   7.222   6.295   1.877 -1.4049  0.7743  1.4086
 7123TIP3   OH221332   1.338   5.497   3.525  0.3562 -0.1172  0.2552
 7123TIP3    H121333   1.297   5.573   3.484 -1.0192 -1.4887 -1.0613
 7123TIP3    H221334   1.430   5.523   3.537  0.7789  0.6111 -3.3509
 7124TIP3   OH221335   2.686   6.299   4.484 -0.3490 -0.3283  0.0621
 7124TIP3    H121336   2.599   6.284   4.448 -0.3269 -1.9061  0.5551
 7124TIP3    H221337   2.735   6.219   4.461  1.2540  0.8899 -0.9774
 7125TIP3   OH221338   1.725   4.844   0.112  0.5376 -0.4243  0.2122
 7125TIP3    H121339   1.799   4.904   0.114  0.3070 -0.0885 -1.0012
 7125TIP3    H221340   1.683   4.860   0.028 -1.2657 -0.1847  1.1119
 7126TIP3   OH221341   4.160   5.758   2.341 -0.5210 -0.0853  0.3479
 7126TIP3    H121342   4.152   5.764   2.246 -0.8398 -0.8970  0.3170
 7126TIP3    H221343   4.246   5.795   2.360  0.3195 -1.5203 -0.4447
 7127TIP3   OH221344   0.593   3.578   2.346  0.3828 -0.2908 -0.7885
 7127TIP3    H121345   0.503   3.611   2.345  1.2106  2.3684 -3.6591
 7127TIP3    H221346   0.590   3.501   2.404 -3.4188  0.3703  0.1682
 7128TIP3   OH221347   0.706   2.352   2.034  0.0397 -0.2706 -0.3711
 7128TIP3    H121348   0.681   2.277   1.980 -2.4047  1.0107 -1.1973
 7128TIP3    H221349   0.650   2.346   2.111 -0.2010  0.6954 -0.4576
 7129TIP3   OH221350   1.603   4.736   3.207 -0.0019 -0.4489  0.2900
 7129TIP3    H121351   1.653   4.755   3.286  1.7250 -1.1696 -0.5613
 7129TIP3    H221352   1.647   4.659   3.169 -0.4004  0.2304 -1.6599
 7130TIP3   OH221353   0.858   0.666   2.410 -0.0617 -0.2990  0.0051
 7130TIP3    H121354   0.769   0.661   2.375 -0.2649 -3.6748  0.5938
 7130TIP3    H221355   0.847   0.691   2.501 -0.6198 -2.0045  0.4451
 7131TIP3   OH221356   0.477   1.573   2.803  0.3448 -0.2521 -0.2078
 7131TIP3    H121357   0.472   1.668   2.791  1.0158 -0.2148 -0.2364
 7131TIP3    H221358   0.413   1.538   2.742  1.8374  0.0617 -2.0446
 7132TIP3   OH221359   2.283   0.377   0.165 -0.5653 -0.0240  0.3654
 7132TIP3    H121360   2.332   0.299   0.188 -1.0448 -1.1803 -2.2147
 7132TIP3    H221361   2.332   0.417   0.093 -1.3291  0.9870  0.3640
 7133TIP3   OH221362   5.370   2.107   4.177 -0.7030 -0.8526 -0.1579
 7133TIP3    H121363   5.284   2.107   4.135 -0.1076 -1.7351 -1.4541
 7133TIP3    H221364   5.366   2.178   4.241 -1.7888  0.3217 -1.4699
 7134TIP3   OH221365   2.762   3.126   3.532 -0.3295  0.6508  0.7439
 7134TIP3    H121366   2.850   3.162   3.542  0.0610 -0.5430  1.9634
 7134TIP3    H221367   2.705   3.192   3.571  0.4204 -0.1893  3.4823
 7135TIP3   OH221368   4.561   6.317   2.741 -0.0696  0.2125 -0.0996
 7135TIP3    H121369   4.546   6.368   2.821 -0.9188 -0.4832  0.1949
 7135TIP3    H221370   4.571   6.383   2.673  2.2371  0.8702  0.8063
 7136TIP3   OH221371   6.172   0.760   4.355 -0.2017  0.4929 -0.1276
 7136TIP3    H121372   6.086   0.738   4.393 -0.4623  1.2999 -0.2150
 7136TIP3    H221373   6.187   0.694   4.288  0.0489 -0.6964  1.0463
 7137TIP3   OH221374   6.942   0.227   1.318 -0.3620  0.4440  0.2849
 7137TIP3    H121375   6.878   0.172   1.274 -1.1296  0.7689  0.9779
 7137TIP3    H221376   6.969   0.175   1.394 -1.5930  1.2661  1.3221
 7138TIP3   OH221377   4.914   6.672   4.593 -0.1179 -0.4327 -0.2597
 7138TIP3    H121378   4.959   6.755   4.584 -1.3761  0.5302  1.6377
 7138TIP3    H221379   4.979   6.613   4.631  0.2413  0.2434  0.1893
 7139TIP3   OH221380   0.326   4.018   3.520  0.1979  0.3103 -0.5284
 7139TIP3    H121381   0.290   4.107   3.525 -0.4752  0.0127  0.1807
 7139TIP3    H221382   0.298   3.977   3.602  1.9880 -0.0069 -0.0422
 7140TIP3   OH221383   3.510   5.704   5.255 -0.5372  0.0310  0.1938
 7140TIP3    H121384   3.583   5.754   5.219  0.1538 -0.9650  0.1824
 7140TIP3    H221385   3.476   5.655   5.180 -2.5159  1.9524 -0.2733
 7141TIP3   OH221386   4.885   0.501   4.949  0.3061 -0.1045 -0.1253
 7141TIP3    H121387   4.952   0.491   5.017 -0.2372  1.5035  0.6888
 7141TIP3    H221388   4.846   0.413   4.942  1.5464 -0.7229  0.3633
 7142TIP3   OH221389   3.658   2.566   2.354 -0.2917  0.1223  0.4193
 7142TIP3    H121390   3.630   2.503   2.420  0.3589 -0.6199 -0.0057
 7142TIP3    H221391   3.709   2.631   2.403  1.1919 -1.0507  0.5062
 7143TIP3   OH221392   1.282   6.101   2.774  0.2050  0.4725 -0.0611
 7143TIP3    H121393   1.190   6.103   2.748 -0.0494  0.8279  0.8191
 7143TIP3    H221394   1.330   6.086   2.693 -0.6511 -0.0743 -0.4777
 7144TIP3   OH221395   3.359   2.026   4.279 -0.2328 -0.0721  0.0546
 7144TIP3    H121396   3.380   2.088   4.348 -1.3274 -0.8262  1.0983
 7144TIP3    H221397   3.428   2.039   4.213  0.2839  1.3193  0.8332
 7145TIP3   OH221398   1.271   1.624   1.562  0.1688  0.1065 -0.1499
 7145TIP3    H121399   1.299   1.541   1.602  0.8094  0.9553  1.2105
 7145TIP3    H221400   1.343   1.684   1.577 -0.6719  1.1815 -0.2895
 7146TIP3   OH221401   0.147   5.501   5.404  0.4137 -0.4780  0.3886
 7146TIP3    H121402   0.207   5.448   5.351  0.8311 -2.4906  2.6994
 7146TIP3    H221403   0.061   5.461   5.389  0.2607 -0.0265  0.0340
 7147TIP3   OH221404   4.188   4.972   1.281  0.1417 -0.2264  0.3175
 7147TIP3    H121405   4.261   5.010   1.331  1.0767 -0.1421 -1.0571
 7147TIP3    H221406   4.187   4.880   1.307  2.4329 -0.8533 -1.4867
 7148TIP3   OH221407   4.175   4.374   2.862 -0.4618 -0.0183  0.3935
 7148TIP3    H121408   4.250   4.426   2.892  0.1724 -1.8037  2.1050
 7148TIP3    H221409   4.148   4.323   2.939 -1.7124 -1.4424 -0.9062
 7149TIP3   OH221410   2.277   0.812   3.048  0.8692  0.4817 -0.5698
 7149TIP3    H121411   2.270   0.717   3.050 -0.4885  0.4480 -3.3462
 7149TIP3    H221412   2.226   0.841   3.124 -0.2021 -0.9668 -0.7017
 7150TIP3   OH221413   5.863   2.872   3.043 -0.2760  0.4485 -0.3556
 7150TIP3    H121414   5.770   2.880   3.065  0.0088 -0.7532  1.5185
 7150TIP3    H221415   5.908   2.886   3.125  1.1337 -0.3295 -0.9629
 7151TIP3   OH221416   3.287   6.792   0.115  0.8326 -0.1969 -0.2800
 7151TIP3    H121417   3.323   6.778   0.027 -0.3850  0.0576 -0.8409
 7151TIP3    H221418   3.198   6.825   0.100  0.1884 -1.2252  1.0408
 7152TIP3   OH221419   6.722   6.562   1.552  0.0275 -0.1538 -0.0205
 7152TIP3    H121420   6.653   6.526   1.496  1.3272 -0.7435 -1.3111
 7152TIP3    H221421   6.751   6.641   1.507 -0.0568  0.3038  0.7110
 7153TIP3   OH221422   5.616   5.850   5.296  0.6545  0.0799  0.0681
 7153TIP3    H121423   5.530   5.886   5.315  1.2893  2.1205 -0.6345
 7153TIP3    H221424   5.642   5.805   5.376 -1.0411 -0.5641  0.2813
 7154TIP3   OH221425   0.439   4.491   4.005 -0.1985  0.1289  0.4051
 7154TIP3    H121426   0.405   4.435   3.936  1.2921 -0.8667  0.4404
 7154TIP3    H221427   0.430   4.580   3.971 -1.0905 -0.2295 -0.3247
 7155TIP3   OH221428   5.839   3.534   1.548 -0.0705 -0.0316  0.1551
 7155TIP3    H121429   5.757   3.488   1.534 -0.4801  0.0677  1.9916
 7155TIP3    H221430   5.885   3.482   1.614  1.6871 -0.4828 -1.3373
 7156TIP3   OH221431   2.289   4.570   2.167  0.1159 -0.1074 -0.0062
 7156TIP3    H121432   2.286   4.505   2.097  1.3300  1.2447 -1.4129
 7156TIP3    H221433   2.201   4.609   2.167  0.2021  0.1070 -1.0357
 7157TIP3   OH221434   6.488   3.443   3.844  0.1531 -0.3620  0.3852
 7157TIP3    H121435   6.556   3.388   3.806 -0.8031 -0.0693 -1.8699
 7157TIP3    H221436   6.532   3.527   3.860  0.6498 -0.5830  0.1907
 7158TIP3   OH221437   2.821   4.254   1.763 -0.3136 -0.8413 -0.0498
 7158TIP3    H121438   2.865   4.196   1.701 -0.9549  0.0716 -1.4257
 7158TIP3    H221439   2.775   4.195   1.823 -0.6412 -1.7718 -1.1693
 7159TIP3   OH221440   3.392   1.963   5.082 -0.2693 -0.6530 -0.3989
 7159TIP3    H121441   3.374   1.916   5.164  3.1106 -0.8645  0.3461
 7159TIP3    H221442   3.318   1.940   5.025 -0.7488 -3.7274  1.2347
 7160TIP3   OH221443   3.085   4.735   0.048 -0.2274  0.5064 -0.4585
 7160TIP3    H121444   3.042   4.658   0.087 -0.4889 -0.2122 -2.1085
 7160TIP3    H221445   3.171   4.738   0.091  0.0490 -1.1141 -0.8407
 7161TIP3   OH221446   3.478   4.200   2.592  0.5238 -0.0390  0.4845
 7161TIP3    H121447   3.472   4.220   2.499 -0.3942 -0.1986  0.4921
 7161TIP3    H221448   3.537   4.266   2.628 -0.3762  1.0321  0.0651
 7162TIP3   OH221449   0.590   1.254   4.361 -0.0487  0.1698  0.2501
 7162TIP3    H121450   0.643   1.233   4.437  1.7959  1.2421 -0.6715
 7162TIP3    H221451   0.509   1.204   4.373  0.9125 -1.0486  2.0111
 7163TIP3   OH221452   6.892   2.842   2.968 -0.3037  0.0612  0.1012
 7163TIP3    H121453   6.918   2.843   2.876  0.1236  0.4172  0.2251
 7163TIP3    H221454   6.844   2.760   2.978  0.4136 -0.4025 -0.2288
 7164TIP3   OH221455   1.173   5.711   3.346 -0.2256  0.2694 -0.1180
 7164TIP3    H121456   1.094   5.752   3.381 -0.3535 -0.7777  0.8833
 7164TIP3    H221457   1.236   5.783   3.339 -0.2240  0.5704  2.2436
 7165TIP3   OH221458   4.632   1.323   4.394  0.2887 -0.0225 -1.1531
 7165TIP3    H121459   4.561   1.258   4.388  2.1971 -2.3693  0.2232
 7165TIP3    H221460   4.617   1.367   4.477  0.2516 -0.2572 -1.0346
 7166TIP3   OH221461   3.582   3.400   3.842 -0.0742 -0.2602 -0.1722
 7166TIP3    H121462   3.497   3.412   3.886  0.9156  4.0254  0.9882
 7166TIP3    H221463   3.637   3.360   3.909 -0.6110 -1.1696 -0.2539
 7167TIP3   OH221464   5.760   6.653   1.817  0.6479  1.1292  0.5739
 7167TIP3    H121465   5.854   6.662   1.799  1.1901 -2.6512  0.6133
 7167TIP3    H221466   5.728   6.594   1.749 -0.7404 -0.8081  2.7156
 7168TIP3   OH221467   4.888   5.094   2.926  0.1114 -0.0515 -0.0412
 7168TIP3    H121468   4.982   5.102   2.907  0.1751 -1.3504 -0.3766
 7168TIP3    H221469   4.845   5.111   2.842  0.1425 -1.0454 -0.2689
 7169TIP3   OH221470   0.919   4.970   0.421  0.2624  0.4145  0.1743
 7169TIP3    H121471   0.950   4.930   0.339  1.4344  0.9839  0.3157
 7169TIP3    H221472   0.833   4.931   0.436  1.3575 -2.1620  0.3474
 7170TIP3   OH221473   2.854   2.108   5.141  0.0863  0.2420 -0.3867
 7170TIP3    H121474   2.801   2.107   5.062  0.5584  0.2946 -0.7135
 7170TIP3    H221475   2.811   2.171   5.199 -0.1236  0.3879 -0.7006
 7171TIP3   OH221476   4.074   4.628   0.006  0.1492 -0.1421 -0.2521
 7171TIP3    H121477   4.080   4.579  -0.076  0.0238 -1.4354  0.4821
 7171TIP3    H221478   4.071   4.561   0.074  0.8309  0.9038  0.8580
 7172TIP3   OH221479   3.997   4.128   0.290 -0.1069 -0.3052  0.1298
 7172TIP3    H121480   4.022   4.177   0.212 -0.5929  1.4439  1.0141
 7172TIP3    H221481   3.903   4.111   0.278 -0.9356  2.6045  1.5781
 7173TIP3   OH221482   3.564   0.944   3.868 -0.4206  0.4794 -0.4501
 7173TIP3    H121483   3.658   0.928   3.878 -0.4496  0.6470  0.1770
 7173TIP3    H221484   3.534   0.963   3.957 -0.6509  2.4957 -0.9122
 7174TIP3   OH221485   3.947   1.850   0.998  0.3450  0.0211 -0.2139
 7174TIP3    H121486   3.994   1.778   0.956  0.5301  0.3814 -0.6276
 7174TIP3    H221487   3.858   1.844   0.963  0.7552  0.9435 -1.4585
 7175TIP3   OH221488   3.179   1.419   4.635 -0.1972  0.2592  0.1744
 7175TIP3    H121489   3.146   1.480   4.570 -1.5140  0.3439  0.8988
 7175TIP3    H221490   3.122   1.342   4.628  0.1281 -0.0389  0.6951
 7176TIP3   OH221491   4.584   0.186   5.566  0.6085  0.7477  0.4456
 7176TIP3    H121492   4.630   0.262   5.603 -0.3490  1.4139  0.3156
 7176TIP3    H221493   4.579   0.205   5.473 -0.1648  0.8250  0.4959
 7177TIP3   OH221494   4.094   4.524   3.248 -0.0960  0.0974 -0.2217
 7177TIP3    H121495   4.183   4.490   3.259  0.4600  1.8082  1.0075
 7177TIP3    H221496   4.089   4.547   3.155  0.6697 -0.2200 -0.3488
 7178TIP3   OH221497   1.306   6.320   5.026 -0.2335 -0.2792 -0.7300
 7178TIP3    H121498   1.292   6.297   5.118  0.0883 -0.0189 -0.6117
 7178TIP3    H221499   1.337   6.239   4.986 -0.5861 -0.4496 -0.6559
 7179TIP3   OH221500   1.402   2.983   2.075  0.0275  0.3492 -0.1089
 7179TIP3    H121501   1.404   2.895   2.037 -1.8639  0.1819  0.0525
 7179TIP3    H221502   1.471   2.982   2.141 -0.5221 -1.3481  0.5105
 7180TIP3   OH221503   1.450   3.348   0.432  0.0264  0.5250 -0.2808
 7180TIP3    H121504   1.390   3.339   0.358 -0.0408 -2.0191 -0.0101
 7180TIP3    H221505   1.536   3.361   0.391 -0.1215 -0.0496 -0.7935
 7181TIP3   OH221506   2.014   1.033   3.573  0.9636 -0.4545  0.2861
 7181TIP3    H121507   2.025   0.956   3.629  0.0633  0.0733  1.2404
 7181TIP3    H221508   2.013   0.999   3.484  2.8897 -1.2704  0.5369
 7182TIP3   OH221509   6.807   3.903   3.878  0.5524  0.2137  0.4358
 7182TIP3    H121510   6.756   3.866   3.950 -0.2383  1.4407  0.5276
 7182TIP3    H221511   6.863   3.969   3.919  1.0343  0.0255  0.0985
 7183TIP3   OH221512   2.701   5.468   5.552  0.1485 -0.9899  0.2697
 7183TIP3    H121513   2.740   5.447   5.467  1.8837 -2.1859  1.3070
 7183TIP3    H221514   2.654   5.389   5.578  0.1689 -0.8641  0.7051
 7184TIP3   OH221515   5.407   5.161   3.022  0.0972  0.0183 -0.0037
 7184TIP3    H121516   5.452   5.244   3.004  0.0754 -0.2228 -1.2714
 7184TIP3    H221517   5.451   5.126   3.100  0.1728  1.1622  0.4838
 7185TIP3   OH221518   0.183   0.239   1.025 -0.6981  0.0013  0.0242
 7185TIP3    H121519   0.090   0.219   1.013 -0.8611  1.0427 -0.5743
 7185TIP3    H221520   0.209   0.280   0.942 -0.2892  1.7746  0.9901
 7186TIP3   OH221521   4.928   3.442   4.065  0.2621  0.3498 -0.1814
 7186TIP3    H121522   4.833   3.454   4.063  0.1734  0.0102  1.0785
 7186TIP3    H221523   4.960   3.506   4.129  0.8253  0.1125 -0.2133
 7187TIP3   OH221524   0.483   3.996   1.223  0.3012 -0.3340 -0.0893
 7187TIP3    H121525   0.431   3.923   1.255 -1.0394  1.4485  2.1248
 7187TIP3    H221526   0.574   3.971   1.241 -0.0577 -1.7767 -0.1646
 7188TIP3   OH221527   6.134   3.225   5.592 -0.5631 -0.0687  0.4132
 7188TIP3    H121528   6.173   3.309   5.566 -1.2008 -0.3056 -1.4753
 7188TIP3    H221529   6.075   3.203   5.520  0.1812 -2.5441  0.4579
 7189TIP3   OH221530   1.733   1.933   1.310  0.4425 -0.0238 -0.7412
 7189TIP3    H121531   1.753   1.840   1.318  0.3278 -0.3684 -3.4436
 7189TIP3    H221532   1.783   1.961   1.233 -1.5008  1.5154 -1.5184
 7190TIP3   OH221533   5.885   1.109   4.002 -0.0948  0.0165  0.0067
 7190TIP3    H121534   5.879   1.029   4.054  3.2400 -1.9327 -2.3037
 7190TIP3    H221535   5.851   1.085   3.916 -0.5053  1.5865 -0.3075
 7191TIP3   OH221536   6.983   3.697   5.316 -0.1184  0.6214  0.4318
 7191TIP3    H121537   7.015   3.700   5.226 -1.0258 -0.4450  0.0571
 7191TIP3    H221538   7.041   3.756   5.364  3.2518 -2.0576  0.0393
 7192TIP3   OH221539   1.932   5.150   1.797 -0.3091 -0.2784 -0.4721
 7192TIP3    H121540   1.902   5.063   1.821  0.5826 -0.2399  0.8987
 7192TIP3    H221541   2.024   5.139   1.774 -0.4326  0.1528 -1.1894
 7193TIP3   OH221542   2.130   5.752   5.541  0.1296 -0.4794  0.0906
 7193TIP3    H121543   2.167   5.776   5.456 -2.0020  0.3130 -0.6884
 7193TIP3    H221544   2.163   5.818   5.601  1.3869 -0.8472 -0.1738
 7194TIP3   OH221545   4.554   1.963   1.607  0.0520 -0.8801 -0.6141
 7194TIP3    H121546   4.479   1.962   1.547  1.7346  0.3151 -2.8760
 7194TIP3    H221547   4.529   2.024   1.676  0.1037  2.2256 -3.1097
 7195TIP3   OH221548   7.128   2.819   5.157 -0.6599 -0.4050 -0.0445
 7195TIP3    H121549   7.188   2.767   5.209 -1.9110 -2.5399 -0.6205
 7195TIP3    H221550   7.169   2.905   5.151  1.5803 -1.3572  0.7930
 7196TIP3   OH221551   5.991   2.976   3.695  0.0906 -0.2546  0.6937
 7196TIP3    H121552   5.952   2.903   3.743 -2.1351  0.6176  0.3369
 7196TIP3    H221553   5.963   3.054   3.743  1.3653  0.4550  0.3499
 7197TIP3   OH221554   0.645   2.838   2.458  0.2742  0.8746  0.0254
 7197TIP3    H121555   0.627   2.920   2.413  1.0611  0.8668 -0.3054
 7197TIP3    H221556   0.689   2.783   2.393  3.1450  1.5214  1.2894
 7198TIP3   OH221557   5.707   1.782   3.420  0.1856  0.5835 -0.0155
 7198TIP3    H121558   5.635   1.736   3.376  1.2286 -0.2100 -0.9196
 7198TIP3    H221559   5.664   1.830   3.491 -0.8260 -3.0441  2.0899
 7199TIP3   OH221560   4.852   3.785   4.172  0.1661  0.0254 -0.4406
 7199TIP3    H121561   4.850   3.859   4.232 -0.4157 -0.2875 -0.0697
 7199TIP3    H221562   4.932   3.798   4.121  0.9330  0.0247  0.7369
 7200TIP3   OH221563   1.566   4.999   3.657  0.0794 -0.3225 -0.3651
 7200TIP3    H121564   1.592   4.908   3.667  0.6671 -0.1623 -0.4376
 7200TIP3    H221565   1.593   5.042   3.738 -2.8651 -0.7967  1.0309
 7201TIP3   OH221566   1.045   0.474   2.153  0.2477 -0.0425  0.4156
 7201TIP3    H121567   1.088   0.528   2.220 -0.6557  0.9772  0.1999
 7201TIP3    H221568   0.989   0.415   2.203 -0.1319  0.4537  0.5896
 7202TIP3   OH221569   6.925   5.127   4.048  0.0161 -0.4789  0.3176
 7202TIP3    H121570   6.958   5.181   3.976  0.6435 -0.7427  0.3983
 7202TIP3    H221571   6.982   5.148   4.122  0.5656 -1.5720  0.2234
 7203TIP3   OH221572   5.496   6.454   5.623  0.5980  0.3304  0.5919
 7203TIP3    H121573   5.583   6.460   5.584  1.4458 -1.3830  2.0413
 7203TIP3    H221574   5.456   6.377   5.583  1.0940 -0.8566  2.2590
 7204TIP3   OH221575   1.589   5.577   2.288  0.0638 -0.9473  0.0017
 7204TIP3    H121576   1.494   5.588   2.287  0.1166 -0.4744 -0.6308
 7204TIP3    H221577   1.603   5.485   2.309 -0.5059 -0.7778  1.2460
 7205TIP3   OH221578   4.837   0.490   1.519  0.4708 -0.3214  0.1024
 7205TIP3    H121579   4.833   0.459   1.610  1.0037 -0.8367 -0.0463
 7205TIP3    H221580   4.925   0.524   1.509  0.6664 -0.9676 -0.4426
 7206TIP3   OH221581   3.817   5.508   5.073 -0.0294  0.2789  0.3874
 7206TIP3    H121582   3.758   5.543   5.006 -3.4618 -3.3208  1.0998
 7206TIP3    H221583   3.778   5.537   5.156  0.9057  0.2075  0.8585
 7207TIP3   OH221584   5.450   2.414   2.943 -0.3746  0.8068 -0.2244
 7207TIP3    H121585   5.434   2.507   2.933 -1.8930  0.5623 -0.2553
 7207TIP3    H221586   5.390   2.372   2.881 -0.7802 -0.2376  0.8398
 7208TIP3   OH221587   3.819   3.426   3.151  0.1799 -0.0644 -0.1995
 7208TIP3    H121588   3.753   3.359   3.168  1.5048 -1.4023 -0.0981
 7208TIP3    H221589   3.856   3.403   3.065  1.2526 -0.0119  0.2227
 7209TIP3   OH221590   1.892   3.825   5.779  0.2763  0.6074  0.1768
 7209TIP3    H121591   1.942   3.745   5.794 -1.2028 -0.1215  1.6317
 7209TIP3    H221592   1.812   3.795   5.736  0.0777  1.4118 -0.0290
 7210TIP3   OH221593   5.992   1.556   4.029  0.3717 -0.4305 -0.3316
 7210TIP3    H121594   6.011   1.598   3.946 -0.4565 -0.3510 -0.4920
 7210TIP3    H221595   5.938   1.620   4.077 -0.0527 -0.8985 -0.1728
 7211TIP3   OH221596   4.175   3.019   5.322  0.7963  0.4753  0.1470
 7211TIP3    H121597   4.268   3.033   5.343  0.3740  0.4562  2.2004
 7211TIP3    H221598   4.132   3.008   5.407 -1.2767  1.5934 -0.6671
 7212TIP3   OH221599   2.617   4.962   1.679 -0.1043 -0.1374 -0.3064
 7212TIP3    H121600   2.580   4.876   1.699 -0.3206  0.1805  0.7014
 7212TIP3    H221601   2.610   4.970   1.584  0.1508 -1.3346 -0.4365
 7213TIP3   OH221602   0.041   3.566   1.208  0.2116  0.7518  0.9202
 7213TIP3    H121603   0.085   3.527   1.284 -1.3839 -1.8917  0.5951
 7213TIP3    H221604   0.108   3.565   1.140 -0.3051 -3.8857  0.2172
 7214TIP3   OH221605   4.944   6.154   3.859  0.1991  0.2627 -0.0896
 7214TIP3    H121606   4.880   6.108   3.912  0.3636  0.1134 -0.0194
 7214TIP3    H221607   4.930   6.246   3.878 -0.0458  0.2342 -0.1329
 7215TIP3   OH221608   0.249   4.411   1.732 -0.5011 -0.0787 -0.1273
 7215TIP3    H121609   0.313   4.408   1.803 -1.8914  0.3987  1.2075
 7215TIP3    H221610   0.279   4.483   1.676 -0.0579  0.3712  0.6698
 7216TIP3   OH221611   6.945   0.196   2.792  0.2738  0.0568  0.1542
 7216TIP3    H121612   6.995   0.144   2.855  0.2232  1.3872  1.3405
 7216TIP3    H221613   7.003   0.269   2.769  0.3233 -0.4508 -1.4417
 7217TIP3   OH221614   2.971   5.147   1.415  0.0510 -0.2750 -0.3330
 7217TIP3    H121615   2.938   5.099   1.491 -1.8599 -1.5451 -1.8485
 7217TIP3    H221616   2.910   5.220   1.405 -0.1711 -0.5455 -1.0505
 7218TIP3   OH221617   1.758   4.526   5.735  0.0304  0.0462  0.4835
 7218TIP3    H121618   1.839   4.478   5.717  0.8134  1.8998 -1.2442
 7218TIP3    H221619   1.738   4.571   5.654 -0.5709  2.7408  2.0048
 7219TIP3   OH221620   5.470   0.718   3.086  0.0350 -0.0193 -0.7820
 7219TIP3    H121621   5.442   0.630   3.112  0.2456  0.0872 -0.1751
 7219TIP3    H221622   5.560   0.706   3.057  0.7879  0.3122  1.2647
 7220TIP3   OH221623   4.409   5.875   0.153 -0.3781 -0.1906  0.4705
 7220TIP3    H121624   4.365   5.946   0.201  0.2049  0.0300  0.6822
 7220TIP3    H221625   4.489   5.859   0.201  1.1728  1.3186 -1.4351
 7221TIP3   OH221626   4.574   0.959   4.849  0.1751 -0.3191  0.5466
 7221TIP3    H121627   4.661   0.976   4.886  0.4602 -2.9885  1.3293
 7221TIP3    H221628   4.528   0.910   4.918 -1.3724 -0.3693 -0.4819
 7222TIP3   OH221629   3.268   3.448   3.334 -0.2008 -0.0517 -0.1520
 7222TIP3    H121630   3.258   3.369   3.281  0.6649 -0.6252  0.5103
 7222TIP3    H221631   3.258   3.520   3.272  0.2326 -0.7014 -0.9965
 7223TIP3   OH221632   2.994   5.730   3.922 -0.0906 -0.0860 -0.1555
 7223TIP3    H121633   3.021   5.814   3.885 -0.4675 -0.3128 -0.9694
 7223TIP3    H221634   3.070   5.700   3.971 -0.1137  0.9484  0.5497
 7224TIP3   OH221635   4.060   4.785   4.333 -0.1972  0.1049 -1.0352
 7224TIP3    H121636   4.146   4.746   4.314 -0.6790 -0.7740 -1.4430
 7224TIP3    H221637   4.023   4.806   4.247  0.4356  2.4124 -0.8372
 7225TIP3   OH221638   1.870   1.126   4.260  0.0414 -0.3117  0.3721
 7225TIP3    H121639   1.870   1.176   4.179  0.3799  0.9106  1.0941
 7225TIP3    H221640   1.822   1.046   4.239  1.4003 -0.7325 -1.4458
 7226TIP3   OH221641   6.896   0.834   2.106 -0.1943  0.2889 -0.7823
 7226TIP3    H121642   6.877   0.928   2.103 -2.0134  0.1511  2.3534
 7226TIP3    H221643   6.833   0.795   2.046 -0.3285  0.9546 -1.0881
 7227TIP3   OH221644   4.796   0.255   4.308 -0.1115 -0.5662  0.4759
 7227TIP3    H121645   4.804   0.161   4.297 -0.3207 -0.4674 -0.6668
 7227TIP3    H221646   4.885   0.286   4.320 -0.0449 -0.9079  0.8833
 7228TIP3   OH221647   5.725   5.645   1.169  0.2083 -0.1610 -0.2161
 7228TIP3    H121648   5.724   5.739   1.147 -1.4033  1.2599  4.5882
 7228TIP3    H221649   5.649   5.609   1.124  1.4438  0.4346 -3.0123
 7229TIP3   OH221650   5.530   1.470   2.102 -0.0093  0.2726  0.2754
 7229TIP3    H121651   5.590   1.543   2.084 -2.2411  1.7596 -2.0422
 7229TIP3    H221652   5.555   1.402   2.040  0.2093  0.2899  0.3454
 7230TIP3   OH221653   1.239   4.800   3.722  0.2632 -0.4219 -0.2666
 7230TIP3    H121654   1.154   4.783   3.763  0.4136 -0.3999  0.0640
 7230TIP3    H221655   1.297   4.733   3.759  0.5933  0.1040  0.1826
 7231TIP3   OH221656   6.503   4.724   5.352  0.0076 -0.0021  0.3667
 7231TIP3    H121657   6.567   4.783   5.311  2.2976 -1.3106  1.8321
 7231TIP3    H221658   6.418   4.763   5.332  1.1302  1.1415 -2.8404
 7232TIP3   OH221659   7.043   2.785   2.294 -0.6086  0.9839 -0.1990
 7232TIP3    H121660   7.108   2.828   2.239  1.1234 -0.5592  0.5401
 7232TIP3    H221661   7.090   2.763   2.374 -2.1803  0.2211  0.5593
 7233TIP3   OH221662   5.299   6.108   5.859  0.2626 -0.3051  0.0555
 7233TIP3    H121663   5.263   6.179   5.806 -1.9749 -0.2378  1.5484
 7233TIP3    H221664   5.325   6.041   5.795  0.5889  1.0297 -1.2640
 7234TIP3   OH221665   1.129   6.384   0.633  0.6550  0.0666 -0.7386
 7234TIP3    H121666   1.116   6.452   0.567  1.2238  1.3794  0.4340
 7234TIP3    H221667   1.067   6.406   0.703  0.7667 -0.6896 -0.3924
 7235TIP3   OH221668   1.044   6.301   0.960 -0.4226 -0.4896 -0.5573
 7235TIP3    H121669   1.069   6.226   1.015 -0.3523 -0.1780 -0.1623
 7235TIP3    H221670   1.006   6.364   1.021  2.0684  0.9931 -0.3881
 7236TIP3   OH221671   0.765   6.269   1.084 -0.6114 -0.1120  0.0394
 7236TIP3    H121672   0.768   6.251   0.990 -0.3827  1.5054 -0.2940
 7236TIP3    H221673   0.740   6.362   1.090 -0.2861 -0.0963  1.5596
 7237TIP3   OH221674   2.931   4.266   3.157  0.0000 -0.4261  0.5522
 7237TIP3    H121675   3.023   4.241   3.145 -0.4759 -3.1335  1.7848
 7237TIP3    H221676   2.926   4.292   3.250 -0.0070  2.4336 -0.1475
 7238TIP3   OH221677   2.367   2.618   1.693 -0.3183 -0.3678  0.0206
 7238TIP3    H121678   2.352   2.713   1.690 -2.2764 -0.6590 -0.2899
 7238TIP3    H221679   2.454   2.607   1.656 -0.2161  1.2795 -0.3208
 7239TIP3   OH221680   1.140   4.735   2.720 -0.3885  0.1317  0.5161
 7239TIP3    H121681   1.204   4.697   2.659 -0.8419 -1.8421  1.1747
 7239TIP3    H221682   1.060   4.743   2.669 -0.8145 -1.6812  0.8214
 7240TIP3   OH221683   7.158   5.883   5.460 -0.1221  0.2374  0.4532
 7240TIP3    H121684   7.076   5.855   5.500  0.3826  0.1700  1.4903
 7240TIP3    H221685   7.214   5.907   5.535  1.5042 -1.6216 -0.0882
 7241TIP3   OH221686   3.891   4.090   3.084 -0.3836  0.5589 -0.1700
 7241TIP3    H121687   3.846   4.053   3.160  0.7310 -0.2723  0.1087
 7241TIP3    H221688   3.903   4.016   3.024  2.2652  0.2819  0.5779
 7242TIP3   OH221689   6.822   4.473   1.169  0.0391  0.2615 -0.1459
 7242TIP3    H121690   6.774   4.409   1.221 -0.5369  0.2167 -0.7092
 7242TIP3    H221691   6.791   4.459   1.079  0.6891  0.6232 -0.4355
 7243TIP3   OH221692   6.417   3.460   1.771  0.0610  0.4669  0.1662
 7243TIP3    H121693   6.482   3.444   1.839  0.8470 -2.0890 -1.0349
 7243TIP3    H221694   6.357   3.385   1.778  1.4776 -1.2025 -3.2927
 7244TIP3   OH221695   7.199   3.258   2.377 -0.1558 -0.0520 -0.1275
 7244TIP3    H121696   7.108   3.233   2.395 -0.2410  0.4037  0.0872
 7244TIP3    H221697   7.215   3.226   2.289 -0.5861  0.0162 -0.2345
 7245TIP3   OH221698   6.465   3.236   4.023 -0.0381 -0.5551 -0.8150
 7245TIP3    H121699   6.455   3.298   3.950 -0.4724  1.1181  0.6074
 7245TIP3    H221700   6.558   3.217   4.026  0.0578 -0.2183 -1.4406
 7246TIP3   OH221701   6.285   5.064   0.453  0.1434  0.1968  0.4487
 7246TIP3    H121702   6.221   5.029   0.391 -1.3670 -1.4219  2.7556
 7246TIP3    H221703   6.285   5.158   0.437 -1.1966 -0.0172 -1.0654
 7247TIP3   OH221704   1.157   1.448   1.279  0.2219 -0.0954  0.2428
 7247TIP3    H121705   1.213   1.465   1.202 -0.2288 -0.7027 -0.2282
 7247TIP3    H221706   1.103   1.526   1.286  1.4672  0.7295  1.0153
 7248TIP3   OH221707   2.721   2.947   3.724  0.2003 -0.1924 -0.0707
 7248TIP3    H121708   2.712   3.006   3.649  0.8992  0.3487  0.2645
 7248TIP3    H221709   2.680   2.995   3.797  0.6499 -0.1713  0.1710
 7249TIP3   OH221710   0.506   0.812   3.674 -0.1588 -0.2469 -0.1687
 7249TIP3    H121711   0.462   0.895   3.655 -0.0856  0.4146  2.2998
 7249TIP3    H221712   0.438   0.745   3.661 -0.5721  0.2971 -0.8826
 7250TIP3   OH221713   2.238   6.512   4.529  1.0023 -0.3893 -0.4019
 7250TIP3    H121714   2.252   6.437   4.587 -0.2508 -0.5246 -0.2367
 7250TIP3    H221715   2.175   6.479   4.464  0.7595  0.3979 -0.5712
 7251TIP3   OH221716   5.057   1.332   0.483  0.1583  0.7847 -0.4669
 7251TIP3    H121717   5.111   1.366   0.555  0.9580  2.4231 -1.7922
 7251TIP3    H221718   5.080   1.239   0.479 -0.2894  0.5182  1.7025
 7252TIP3   OH221719   6.983   5.581   1.952 -0.2676  0.0957  0.2126
 7252TIP3    H121720   7.024   5.512   1.901 -1.4235 -0.1193 -0.4657
 7252TIP3    H221721   7.055   5.639   1.977  0.4021 -0.0515 -1.2712
 7253TIP3   OH221722   0.506   1.860   2.155  0.3128 -0.2014 -0.2790
 7253TIP3    H121723   0.521   1.799   2.082  0.2486 -0.0532 -0.4169
 7253TIP3    H221724   0.426   1.907   2.131 -0.3257 -0.9151  0.4010
 7254TIP3   OH221725   5.607   5.236   1.055  0.3707  0.2630  0.0361
 7254TIP3    H121726   5.549   5.252   1.129  0.2288  0.1638 -0.0514
 7254TIP3    H221727   5.547   5.222   0.981  0.5195  2.0160 -0.4568
 7255TIP3   OH221728   1.556   1.053   4.490  0.0155 -0.1068  0.4569
 7255TIP3    H121729   1.592   1.003   4.416 -1.3753 -2.5860  1.3705
 7255TIP3    H221730   1.628   1.112   4.515  1.5167 -1.1647 -1.0858
 7256TIP3   OH221731   3.921   1.484   4.865 -0.2865  0.2982 -0.0724
 7256TIP3    H121732   3.877   1.415   4.816 -0.0552  0.1117 -0.0166
 7256TIP3    H221733   3.903   1.464   4.957  1.3738 -0.7860  0.0546
 7257TIP3   OH221734   1.019   4.056   1.010  0.1029  0.1715  0.1833
 7257TIP3    H121735   1.071   4.135   0.996  0.1754  0.1346  0.2436
 7257TIP3    H221736   1.047   4.023   1.095  0.6481 -0.3592 -0.1994
 7258TIP3   OH221737   3.693   0.234   3.342  0.2479 -0.1865 -0.1012
 7258TIP3    H121738   3.707   0.152   3.389  1.3792  0.1216  0.1177
 7258TIP3    H221739   3.748   0.227   3.264 -0.8076 -0.2515 -0.8590
 7259TIP3   OH221740   6.140   4.493   5.503  0.4199  0.3574  0.1222
 7259TIP3    H121741   6.228   4.457   5.515  0.2036  0.1315  1.1097
 7259TIP3    H221742   6.145   4.543   5.422  1.1140 -0.7113 -0.5178
 7260TIP3   OH221743   3.535   0.638   0.073 -0.4618  0.1710 -0.0873
 7260TIP3    H121744   3.461   0.629   0.132  1.8685 -0.0471  3.0345
 7260TIP3    H221745   3.562   0.729   0.081  0.6784 -0.1808  0.2415
 7261TIP3   OH221746   4.434   5.605   4.149 -0.3055  0.7445 -0.6552
 7261TIP3    H121747   4.395   5.619   4.062  2.1011 -1.1875 -2.1937
 7261TIP3    H221748   4.431   5.510   4.162 -2.1736  1.0923  2.2585
 7262TIP3   OH221749   5.184   4.972   3.681  0.0409 -0.7715 -0.1376
 7262TIP3    H121750   5.124   4.913   3.727  0.1212 -0.1479  0.7985
 7262TIP3    H221751   5.128   5.025   3.625 -0.2021 -0.7254  0.1446
 7263TIP3   OH221752   3.874   1.767   2.561 -0.0575 -0.0451  0.6545
 7263TIP3    H121753   3.949   1.716   2.530  0.1467 -0.1672  1.3353
 7263TIP3    H221754   3.877   1.759   2.656  0.6092  2.1530  0.8619
 7264TIP3   OH221755   6.825   5.923   0.038 -0.3679 -0.3234 -0.0180
 7264TIP3    H121756   6.781   5.998  -0.001  0.5967 -0.2702 -1.0669
 7264TIP3    H221757   6.755   5.867   0.071 -1.1222  0.6075 -0.0343
 7265TIP3   OH221758   0.401   2.354   5.294  0.3455 -0.4137  0.4067
 7265TIP3    H121759   0.468   2.300   5.252 -0.0521 -0.4832 -0.1363
 7265TIP3    H221760   0.442   2.381   5.377  1.6394  0.8071 -0.5820
 7266TIP3   OH221761   2.446   4.633   0.913  0.3584  0.3045  0.2222
 7266TIP3    H121762   2.464   4.667   0.825  0.5837  1.0624  0.5548
 7266TIP3    H221763   2.466   4.706   0.971 -0.4216  0.0158  0.8610
 7267TIP3   OH221764   3.543   3.103   0.114  0.2569  0.2264  0.3927
 7267TIP3    H121765   3.449   3.108   0.097  0.4609  0.4301 -0.8092
 7267TIP3    H221766   3.550   3.061   0.199 -0.9072 -0.6075  0.1005
 7268TIP3   OH221767   5.190   6.752   0.288 -0.1747 -0.3449  0.1975
 7268TIP3    H121768   5.246   6.680   0.317 -0.1560 -0.4821 -0.1766
 7268TIP3    H221769   5.121   6.709   0.238  1.0295  0.0510 -1.9092
 7269TIP3   OH221770   2.979   1.244   5.720 -0.0323 -0.0546  0.0287
 7269TIP3    H121771   2.994   1.330   5.680 -0.4067  0.3347  0.7137
 7269TIP3    H221772   3.051   1.190   5.688  1.1529  0.9613  0.8822
 7270TIP3   OH221773   1.023   3.819   2.004 -0.4072  0.5280 -0.6277
 7270TIP3    H121774   1.050   3.903   1.969  0.4414 -0.6683 -3.1364
 7270TIP3    H221775   0.932   3.831   2.029 -0.2484  2.2171 -0.7761
 7271TIP3   OH221776   4.130   2.378   5.326  0.3519 -0.1764 -0.3200
 7271TIP3    H121777   4.129   2.464   5.285  1.0098 -0.4055 -0.8388
 7271TIP3    H221778   4.042   2.343   5.313  0.4198 -0.0594 -1.1487
 7272TIP3   OH221779   4.005   4.333   0.461  1.0354 -0.0739  0.5170
 7272TIP3    H121780   4.101   4.331   0.463  1.0399 -2.6528  1.1708
 7272TIP3    H221781   3.980   4.250   0.419 -0.8909 -0.5360  2.3922
 7273TIP3   OH221782   3.006   0.282   0.358  0.7793 -0.3822  1.2588
 7273TIP3    H121783   3.061   0.337   0.414  1.5827 -0.2838  0.4083
 7273TIP3    H221784   3.066   0.252   0.289 -0.6485  1.4644 -0.9605
 7274TIP3   OH221785   5.940   2.669   4.675  0.4913 -0.3160  0.3389
 7274TIP3    H121786   5.973   2.717   4.751  2.1932  0.9039 -1.0799
 7274TIP3    H221787   5.998   2.593   4.667  0.8840  0.0343 -0.2275
 7275TIP3   OH221788   0.496   2.020   2.974 -0.2157 -0.2444  0.1496
 7275TIP3    H121789   0.528   2.029   2.884 -1.0089 -2.3947 -0.4000
 7275TIP3    H221790   0.538   2.092   3.022  0.8375  0.4691 -1.7516
 7276TIP3   OH221791   0.596   1.124   2.250  0.6422  0.6609 -0.2691
 7276TIP3    H121792   0.568   1.169   2.330 -1.1283 -0.1968 -0.3627
 7276TIP3    H221793   0.598   1.194   2.184 -0.1507  0.9705  0.0192
 7277TIP3   OH221794   5.798   5.799   3.687  0.0646  0.3746 -0.0809
 7277TIP3    H121795   5.756   5.715   3.664  0.7802  0.0461 -0.2010
 7277TIP3    H221796   5.802   5.798   3.782  0.5956  0.0087 -0.1041
 7278TIP3   OH221797   0.724   4.443   5.150  0.2275 -0.1346 -0.5049
 7278TIP3    H121798   0.639   4.441   5.194 -0.4674  2.1205 -1.5554
 7278TIP3    H221799   0.704   4.422   5.058  0.9384 -0.4266 -0.6028
 7279TIP3   OH221800   5.704   1.277   3.680 -0.2870 -0.0827 -0.0775
 7279TIP3    H121801   5.731   1.188   3.702 -2.1783 -0.6760 -0.0240
 7279TIP3    H221802   5.699   1.322   3.764  2.2703  0.6172 -0.2174
 7280TIP3   OH221803   5.819   0.821   4.974  0.6023  0.0148  0.2511
 7280TIP3    H121804   5.778   0.735   4.964  0.4617  0.2540 -1.6812
 7280TIP3    H221805   5.885   0.809   5.043  0.3125 -1.5276  0.2902
 7281TIP3   OH221806   5.597   3.228   3.764 -0.1257 -0.1267 -0.3486
 7281TIP3    H121807   5.590   3.321   3.743  0.5116  0.1347  0.5435
 7281TIP3    H221808   5.668   3.196   3.709  1.7533  0.6244  1.4908
 7282TIP3   OH221809   5.315   5.257   5.911 -0.0362 -0.1757 -0.1180
 7282TIP3    H121810   5.234   5.299   5.881 -0.3579 -1.0900 -0.5776
 7282TIP3    H221811   5.318   5.174   5.863  1.7071  0.2903 -0.8527
 7283TIP3   OH221812   5.183   0.078   1.120  0.2297  0.1977 -0.1724
 7283TIP3    H121813   5.158   0.022   1.193 -0.0589 -0.6179 -0.8709
 7283TIP3    H221814   5.185   0.167   1.156  0.4296 -0.2323  0.8934
 7284TIP3   OH221815   6.728   2.609   5.561  0.2831 -0.1283  0.7417
 7284TIP3    H121816   6.772   2.576   5.639  1.8889 -0.2715 -0.1825
 7284TIP3    H221817   6.682   2.533   5.525 -0.0166 -0.1901  1.2512
 7285TIP3   OH221818   3.920   3.318   1.745 -0.0807  0.0388 -0.0504
 7285TIP3    H121819   3.873   3.326   1.828  0.6628 -2.2244  0.6475
 7285TIP3    H221820   3.916   3.225   1.723  2.6533 -0.0120 -0.7727
 7286TIP3   OH221821   5.171   0.735   3.130  0.4812  0.2235 -0.0285
 7286TIP3    H121822   5.262   0.754   3.110  0.9909 -0.9461  1.0939
 7286TIP3    H221823   5.121   0.791   3.070  1.9004 -1.1995 -2.6999
 7287TIP3   OH221824   0.667   2.784   1.528  0.9261 -0.0001 -0.4217
 7287TIP3    H121825   0.679   2.732   1.448 -0.5942 -0.2337 -0.5400
 7287TIP3    H221826   0.601   2.850   1.504 -1.7576 -1.8345  1.3334
 7288TIP3   OH221827   2.227   4.107   5.856 -0.4763 -0.4088 -0.0412
 7288TIP3    H121828   2.228   4.135   5.764 -0.5786 -1.9779 -0.5401
 7288TIP3    H221829   2.136   4.118   5.883 -0.7415 -1.2405 -0.5591
 7289TIP3   OH221830   2.668   1.393   5.847 -0.6338  0.3381  0.5173
 7289TIP3    H121831   2.633   1.306   5.865 -1.6848  0.5304 -0.4746
 7289TIP3    H221832   2.691   1.391   5.754 -0.4457  1.0471  0.5409
 7290TIP3   OH221833   3.205   3.328   5.579  0.1910  0.6376 -0.0084
 7290TIP3    H121834   3.294   3.355   5.557  0.4416 -0.8642 -0.9683
 7290TIP3    H221835   3.167   3.300   5.496 -0.4625 -0.7201  0.7101
 7291TIP3   OH221836   1.986   1.074   1.021 -0.3354  0.0702 -0.1356
 7291TIP3    H121837   1.897   1.106   1.034 -0.0719  0.8499 -0.2121
 7291TIP3    H221838   2.009   1.032   1.104 -0.6341  0.2051  0.0171
 7292TIP3   OH221839   3.573   4.667   0.112  1.0783 -0.3100 -0.0745
 7292TIP3    H121840   3.614   4.749   0.082  1.6169 -0.0434  1.3153
 7292TIP3    H221841   3.491   4.695   0.153  2.1898 -0.1765  2.2284
 7293TIP3   OH221842   3.920   3.658   1.295  0.2133 -0.6673 -0.4806
 7293TIP3    H121843   3.867   3.645   1.374  1.2538 -1.1824  0.1528
 7293TIP3    H221844   3.937   3.569   1.263 -0.4225 -0.4547 -1.4560
 7294TIP3   OH221845   7.037   4.776   4.684 -0.5141 -0.4535 -0.7446
 7294TIP3    H121846   7.074   4.839   4.746 -1.0108  0.3866 -1.2790
 7294TIP3    H221847   7.004   4.705   4.739  0.3515 -0.4072 -0.1556
 7295TIP3   OH221848   2.553   6.504   4.988  0.0170  0.0095  0.1599
 7295TIP3    H121849   2.469   6.549   4.981 -0.1538 -0.2350  0.6621
 7295TIP3    H221850   2.533   6.412   4.971  0.1895 -0.0441  0.2396
 7296TIP3   OH221851   3.410   4.078   5.790  0.4737 -0.1784  0.3748
 7296TIP3    H121852   3.366   4.046   5.711 -1.0513  1.7410  0.3663
 7296TIP3    H221853   3.378   4.168   5.801  3.1435  0.7611  1.3721
 7297TIP3   OH221854   5.223   2.649   2.859  0.3180  0.4088 -0.5833
 7297TIP3    H121855   5.312   2.665   2.892  0.6666  2.7950 -2.3941
 7297TIP3    H221856   5.236   2.607   2.774 -0.2885  0.7812 -0.8642
 7298TIP3   OH221857   6.107   5.177   5.215  0.2342 -0.2307 -0.1571
 7298TIP3    H121858   6.083   5.265   5.243  0.0677  0.2476 -1.7405
 7298TIP3    H221859   6.201   5.171   5.230  0.5218  0.7637 -1.3867
 7299TIP3   OH221860   5.001   1.104   0.698 -0.0222  0.3439 -0.0677
 7299TIP3    H121861   5.035   1.191   0.719 -0.3357  0.1465  1.3602
 7299TIP3    H221862   4.906   1.113   0.703 -0.0579 -0.0753  0.0729
 7300TIP3   OH221863   6.675   1.341   3.601 -0.0900 -0.7174  0.0848
 7300TIP3    H121864   6.593   1.294   3.619  0.0513 -1.1271 -0.3125
 7300TIP3    H221865   6.732   1.274   3.563 -0.4094  0.1308 -1.9941
 7301TIP3   OH221866   1.861   4.185   0.446 -0.1664  0.5688 -0.5117
 7301TIP3    H121867   1.892   4.101   0.482 -0.1242  1.1158  0.7848
 7301TIP3    H221868   1.869   4.246   0.519 -1.3219  1.4384 -1.0840
 7302TIP3   OH221869   0.510   1.176   2.877  0.2903 -0.0626  0.1619
 7302TIP3    H121870   0.514   1.256   2.929 -0.0406  0.7232 -0.9866
 7302TIP3    H221871   0.423   1.178   2.837 -0.5698 -2.0639  1.7317
 7303TIP3   OH221872   6.842   0.139   2.160  0.6736 -0.6995  0.0015
 7303TIP3    H121873   6.775   0.086   2.117  0.1064 -1.9131  2.2272
 7303TIP3    H221874   6.852   0.216   2.103 -3.6938  0.3162  0.2334
 7304TIP3   OH221875   5.415   1.609   1.247 -0.1710 -0.8875 -0.1482
 7304TIP3    H121876   5.495   1.615   1.194 -0.1830  1.7048  0.0109
 7304TIP3    H221877   5.438   1.547   1.317  0.8352 -2.0531 -1.4375
 7305TIP3   OH221878   5.121   3.245   4.593  0.6802  0.0532 -0.0567
 7305TIP3    H121879   5.113   3.275   4.503  2.5518  2.0975  0.3825
 7305TIP3    H221880   5.118   3.149   4.587 -1.5582  0.1731 -1.9758
 7306TIP3   OH221881   1.158   0.374   2.405 -0.5780 -0.5398 -0.2077
 7306TIP3    H121882   1.189   0.463   2.394  1.8453 -1.2764  0.1271
 7306TIP3    H221883   1.195   0.326   2.332  0.8772 -1.8718  1.3092
 7307TIP3   OH221884   7.008   1.873   3.117  0.9236  0.0231  0.0915
 7307TIP3    H121885   7.097   1.860   3.084  0.5921 -1.7227 -0.1984
 7307TIP3    H221886   6.971   1.785   3.123 -1.2344  0.7566 -1.0385
 7308TIP3   OH221887   1.474   1.749   5.432  0.2958  0.1934 -0.0564
 7308TIP3    H121888   1.505   1.790   5.513  0.3251  0.0094  0.0265
 7308TIP3    H221889   1.440   1.664   5.459  0.7350 -0.0647 -0.2986
 7309TIP3   OH221890   1.810   4.160   3.751  0.0181 -0.3481  0.4097
 7309TIP3    H121891   1.755   4.170   3.674 -0.8655  0.4117  1.1113
 7309TIP3    H221892   1.779   4.227   3.812  2.4339  0.8903  0.4434
 7310TIP3   OH221893   1.960   6.175   1.076 -0.1205 -0.2401 -0.0882
 7310TIP3    H121894   2.032   6.185   1.139  1.1141 -2.4171 -1.0464
 7310TIP3    H221895   1.965   6.253   1.022  0.3388  0.5109  0.9940
 7311TIP3   OH221896   2.928   2.881   4.081  0.1874  0.3882 -0.0469
 7311TIP3    H121897   2.920   2.934   4.161  1.3117  1.9711 -0.9104
 7311TIP3    H221898   2.970   2.940   4.019  0.1828 -1.1170 -1.5258
 7312TIP3   OH221899   7.044   5.632   5.630  0.0066 -0.1948 -0.3843
 7312TIP3    H121900   6.970   5.606   5.575  0.0399 -0.8015 -0.1497
 7312TIP3    H221901   7.006   5.650   5.715 -0.0215  0.5813 -0.5567
 7313TIP3   OH221902   2.676   1.453   2.640  0.4618  0.0190  0.3781
 7313TIP3    H121903   2.759   1.487   2.608  0.2301 -0.0031 -0.2634
 7313TIP3    H221904   2.620   1.530   2.650  0.7998  0.1296  1.5819
 7314TIP3   OH221905   1.252   6.011   5.423 -0.1280 -0.5045  0.3792
 7314TIP3    H121906   1.338   5.979   5.448 -0.5306 -2.9183 -1.0217
 7314TIP3    H221907   1.270   6.086   5.367  0.9286  0.6123  2.1063
 7315TIP3   OH221908   2.334   6.296   2.356  0.2199  0.4737 -0.3126
 7315TIP3    H121909   2.428   6.309   2.369  0.6875 -0.6415 -2.1515
 7315TIP3    H221910   2.312   6.358   2.286 -0.6910  1.5281  0.8688
 7316TIP3   OH221911   2.805   3.143   3.010 -0.2554  0.2030 -0.4096
 7316TIP3    H121912   2.746   3.162   3.082 -0.5744 -1.0958 -0.3081
 7316TIP3    H221913   2.887   3.188   3.034  0.0340 -1.1449  1.3699
 7317TIP3   OH221914   2.425   5.994   1.794 -0.6554  0.2042 -0.0050
 7317TIP3    H121915   2.339   5.973   1.830 -0.3293  0.7812  1.1736
 7317TIP3    H221916   2.443   5.924   1.732 -0.3384 -2.1462  2.5145
 7318TIP3   OH221917   5.757   0.172   2.420  0.2190 -0.5970  0.5256
 7318TIP3    H121918   5.732   0.114   2.493  0.8154 -1.2656  0.2110
 7318TIP3    H221919   5.805   0.244   2.462 -0.9565 -0.0581  0.9731
 7319TIP3   OH221920   2.015   3.961   1.836 -0.6523  0.2786  0.1206
 7319TIP3    H121921   2.033   4.055   1.842  1.8084 -0.1833  1.0794
 7319TIP3    H221922   2.033   3.927   1.924  1.0082 -1.4183 -0.7931
 7320TIP3   OH221923   1.495   5.771   1.313 -0.1287  0.5030  0.1516
 7320TIP3    H121924   1.496   5.848   1.257 -0.4516  0.4224  0.0311
 7320TIP3    H221925   1.511   5.698   1.254  0.6614  0.5160  0.3371
 7321TIP3   OH221926   4.739   3.726   3.383  0.3007  0.0844  0.2985
 7321TIP3    H121927   4.814   3.667   3.383 -0.2904 -0.6914  0.7038
 7321TIP3    H221928   4.767   3.801   3.330  2.4897  1.2744  2.9079
 7322TIP3   OH221929   1.819   6.227   3.042  0.1355 -0.1503 -0.5562
 7322TIP3    H121930   1.760   6.157   3.015 -1.3770  1.1537 -0.7707
 7322TIP3    H221931   1.839   6.274   2.961  1.0266 -0.2379 -0.3971
 7323TIP3   OH221932   4.534   1.716   0.008  0.1417 -0.0176  0.3240
 7323TIP3    H121933   4.439   1.729   0.003  0.0941  0.1413  1.3866
 7323TIP3    H221934   4.561   1.763   0.087  0.8465 -1.4708  0.9976
 7324TIP3   OH221935   4.184   1.636   0.892  0.6841 -0.4976 -0.7177
 7324TIP3    H121936   4.178   1.637   0.987  0.6708  0.8552 -0.7234
 7324TIP3    H221937   4.109   1.583   0.864 -0.1166  0.2403 -0.0289
 7325TIP3   OH221938   5.423   0.721   0.835  0.4749  0.2739  0.6983
 7325TIP3    H121939   5.427   0.727   0.739 -0.6900 -2.9859  0.3203
 7325TIP3    H221940   5.367   0.794   0.861 -0.5839  0.2533 -1.3124
 7326TIP3   OH221941   6.992   4.803   4.269 -0.1601  0.0881 -0.3440
 7326TIP3    H121942   7.062   4.742   4.291 -0.3989 -0.6285 -1.5345
 7326TIP3    H221943   6.917   4.748   4.246 -0.9260  0.8405  0.2578
 7327TIP3   OH221944   5.272   0.129   3.198 -0.4318  0.7555  0.5015
 7327TIP3    H121945   5.202   0.099   3.257 -0.2873  0.8807  0.7369
 7327TIP3    H221946   5.340   0.162   3.256  0.9464 -1.6751  0.4342
 7328TIP3   OH221947   4.474   0.215   2.471  0.0633  0.7882 -0.0249
 7328TIP3    H121948   4.447   0.296   2.429  1.0267  0.4261 -1.4108
 7328TIP3    H221949   4.402   0.154   2.455 -0.0539  0.9752 -0.2127
 7329TIP3   OH221950   4.316   2.308   2.841  0.0606  0.0229 -0.3029
 7329TIP3    H121951   4.347   2.268   2.760 -0.6793 -1.3804  0.0780
 7329TIP3    H221952   4.395   2.319   2.894  0.0938 -3.0263  0.4595
 7330TIP3   OH221953   5.237   3.090   0.463 -0.1409 -0.2182  0.4572
 7330TIP3    H121954   5.274   3.173   0.494  0.2231 -0.5556  0.9259
 7330TIP3    H221955   5.214   3.042   0.542 -4.0132  0.9871  0.2786
 7331TIP3   OH221956   6.144   1.991   1.030  0.2074  0.0379  0.2877
 7331TIP3    H121957   6.098   1.912   1.058  0.2808 -0.0059  0.2834
 7331TIP3    H221958   6.136   2.051   1.105 -3.6063  1.6910 -1.1678
 7332TIP3   OH221959   2.941   5.934   2.929  0.1290 -0.7998 -0.9830
 7332TIP3    H121960   2.852   5.909   2.954  0.2365  0.2054  0.5318
 7332TIP3    H221961   2.990   5.852   2.929 -0.1430 -1.0290  1.1350
 7333TIP3   OH221962   5.774   3.886   4.122  0.3982 -0.5781  0.5009
 7333TIP3    H121963   5.773   3.967   4.072  0.5529 -1.7945 -1.6035
 7333TIP3    H221964   5.757   3.913   4.213  0.4244  1.7612 -0.1304
 7334TIP3   OH221965   5.754   3.314   3.117 -0.2100 -0.0651  0.3202
 7334TIP3    H121966   5.835   3.263   3.125  0.7418  1.5021  1.1965
 7334TIP3    H221967   5.768   3.368   3.039 -1.2061 -1.0401 -0.5898
 7335TIP3   OH221968   0.641   5.725   3.612 -0.3042  0.0892  0.1203
 7335TIP3    H121969   0.678   5.758   3.694 -2.1499  0.4382  0.8601
 7335TIP3    H221970   0.717   5.698   3.560  0.8812 -0.6110  2.1292
 7336TIP3   OH221971   1.777   0.508   5.278  0.3119  0.0548 -0.3719
 7336TIP3    H121972   1.703   0.448   5.267 -0.3955  0.8021  0.1787
 7336TIP3    H221973   1.768   0.569   5.205  1.3223 -0.7686 -1.2267
 7337TIP3   OH221974   4.190   5.584   3.184  0.3322  0.7724  0.3251
 7337TIP3    H121975   4.206   5.649   3.252  0.1150  0.4227  0.7145
 7337TIP3    H221976   4.129   5.522   3.224  1.5197 -0.3945  0.4162
 7338TIP3   OH221977   4.151   3.703   0.652  0.1142 -0.6495 -0.0059
 7338TIP3    H121978   4.195   3.694   0.736  2.3265 -0.2395 -1.0413
 7338TIP3    H221979   4.116   3.792   0.653  0.4115 -0.5353  0.3633
 7339TIP3   OH221980   6.029   0.617   2.873 -0.1597 -0.1300 -0.1178
 7339TIP3    H121981   6.074   0.540   2.837 -0.2999 -0.2512 -0.0347
 7339TIP3    H221982   6.080   0.641   2.950 -0.5028 -0.5464  0.2398
 7340TIP3   OH221983   0.321   2.353   3.114 -0.2770  0.1575 -0.2257
 7340TIP3    H121984   0.233   2.390   3.125 -0.4910  0.3722 -2.2359
 7340TIP3    H221985   0.347   2.325   3.202 -2.5003 -0.2561  0.3546
 7341TIP3   OH221986   2.793   4.361   5.144  0.1917  0.0806  0.0590
 7341TIP3    H121987   2.842   4.368   5.062  0.5381  1.2953  0.3504
 7341TIP3    H221988   2.802   4.269   5.170  1.0937 -0.0415 -0.6472
 7342TIP3   OH221989   1.258   4.761   3.304  0.2235  0.4335  0.2821
 7342TIP3    H121990   1.302   4.827   3.358  1.4332  0.4771 -0.7173
 7342TIP3    H221991   1.285   4.781   3.215  0.4431 -1.2853 -0.0664
 7343TIP3   OH221992   5.306   5.172   4.988 -0.1580 -0.1514 -0.3064
 7343TIP3    H121993   5.275   5.238   5.050  0.6113 -0.3819  0.3450
 7343TIP3    H221994   5.317   5.220   4.906 -1.5780  0.0693 -0.3829
 7344TIP3   OH221995   6.246   4.301   3.883 -0.2935 -0.1769  0.0827
 7344TIP3    H121996   6.191   4.348   3.945  0.2018  1.4168 -0.6506
 7344TIP3    H221997   6.209   4.320   3.797  1.1639  0.6805 -0.4024
 7345TIP3   OH221998   0.035   5.749   3.310 -0.4262 -0.0025 -0.1443
 7345TIP3    H121999   0.130   5.754   3.309 -0.3905 -0.1815  0.8059
 7345TIP3    H222000   0.006   5.821   3.254  0.2664 -0.5204 -1.1937
 7346TIP3   OH222001   2.144   4.808   5.475 -0.2064 -0.2269 -0.7207
 7346TIP3    H122002   2.130   4.718   5.444  1.1702 -0.6546 -0.1787
 7346TIP3    H222003   2.089   4.815   5.553 -1.3861 -0.1234 -1.5359
 7347TIP3   OH222004   2.707   2.669   1.964  0.1593  0.0555 -0.2128
 7347TIP3    H122005   2.715   2.758   1.929  1.8053  0.4195  0.9982
 7347TIP3    H222006   2.750   2.673   2.049 -1.7711 -1.3433  0.9227
 7348TIP3   OH222007   3.859   4.691   0.558 -0.6999 -0.1856 -0.3935
 7348TIP3    H122008   3.919   4.738   0.500 -0.3519  1.7120  1.3950
 7348TIP3    H222009   3.785   4.669   0.502  0.9466 -1.2093 -2.2734
 7349TIP3   OH222010   0.591   0.323   0.368 -0.1929 -0.3331  0.0695
 7349TIP3    H122011   0.539   0.303   0.446  0.5553  1.0278  0.9540
 7349TIP3    H222012   0.575   0.249   0.309 -2.5280 -0.3089  0.5938
 7350TIP3   OH222013   4.791   2.523   1.219 -0.0583 -0.7149  0.3525
 7350TIP3    H122014   4.831   2.464   1.283  0.1811 -0.4057  0.4891
 7350TIP3    H222015   4.702   2.535   1.250 -0.2730 -1.4203  0.0396
 7351TIP3   OH222016   4.416   0.612   1.990 -0.1922  0.1885  0.6442
 7351TIP3    H122017   4.478   0.672   2.030 -1.1889  0.5456  1.7062
 7351TIP3    H222018   4.336   0.664   1.978 -0.2447 -0.1825 -0.9295
 7352TIP3   OH222019   4.093   5.018   0.642  0.3462  0.2934 -0.0505
 7352TIP3    H122020   4.181   5.033   0.607  0.8272 -2.1950 -0.0865
 7352TIP3    H222021   4.034   5.048   0.574  1.1878  1.0674 -0.4550
 7353TIP3   OH222022   1.966   1.045   3.974 -0.6703  0.7429  0.5072
 7353TIP3    H122023   1.927   0.957   3.971  0.8552 -0.1302  3.2090
 7353TIP3    H222024   2.051   1.034   3.932 -0.0092  0.6078  1.8401
 7354TIP3   OH222025   1.084   4.223   3.899  0.1559  0.3997  0.4726
 7354TIP3    H122026   1.115   4.300   3.851  0.3465  1.0678  1.6340
 7354TIP3    H222027   1.090   4.152   3.836 -0.4722  1.4080 -0.7869
 7355TIP3   OH222028   0.512   0.192   4.446  0.4239 -0.5939  0.2112
 7355TIP3    H122029   0.597   0.177   4.488 -0.2047 -2.7945  0.7933
 7355TIP3    H222030   0.530   0.184   4.352  0.8771 -1.0305  0.3314
 7356TIP3   OH222031   0.638   2.131   3.368  0.2467  0.0775 -0.1663
 7356TIP3    H122032   0.616   2.174   3.285 -1.7498 -1.3435 -0.4400
 7356TIP3    H222033   0.723   2.090   3.351  0.2796  0.5388 -1.2184
 7357TIP3   OH222034   3.089   2.101   0.979 -0.1218 -0.2369 -0.8471
 7357TIP3    H122035   3.029   2.160   1.024  0.9240  0.0018  0.2911
 7357TIP3    H222036   3.141   2.061   1.049  2.3234  0.9778 -1.8576
 7358TIP3   OH222037   4.706   3.535   2.060 -0.4191 -0.7665  0.2281
 7358TIP3    H122038   4.717   3.468   1.992 -0.7238 -0.7270  0.1376
 7358TIP3    H222039   4.788   3.585   2.058  0.1237 -1.6128  0.8196
 7359TIP3   OH222040   4.262   3.193   4.685 -0.0752  0.5578  0.2183
 7359TIP3    H122041   4.193   3.252   4.712  0.4045  1.4271 -0.4108
 7359TIP3    H222042   4.228   3.105   4.704 -1.6333  0.9203 -0.7243
 7360TIP3   OH222043   6.478   0.931   2.413 -0.2752  0.0666 -0.1947
 7360TIP3    H122044   6.418   0.934   2.488 -0.9273 -0.7166 -0.6627
 7360TIP3    H222045   6.473   0.841   2.383  3.7326 -1.0135  1.7803
 7361TIP3   OH222046   6.711   5.969   2.053  0.1340  0.3529  0.5164
 7361TIP3    H122047   6.670   6.047   2.016  2.7675  1.2675 -0.7436
 7361TIP3    H222048   6.685   5.898   1.995 -0.6464  0.6618  0.4810
 7362TIP3   OH222049   6.735   3.640   3.816  0.3083 -0.3037 -0.3832
 7362TIP3    H122050   6.753   3.588   3.737 -1.4918  1.4650 -2.0736
 7362TIP3    H222051   6.793   3.716   3.808 -0.2792  0.1578 -0.3121
 7363TIP3   OH222052   4.813   1.894   3.575  0.1347 -0.0631  0.3438
 7363TIP3    H122053   4.845   1.828   3.637  1.6980  0.0482 -0.3120
 7363TIP3    H222054   4.880   1.963   3.577 -0.7486  0.8298 -0.0742
 7364TIP3   OH222055   0.164   0.420   2.842  0.0770 -0.2616  0.0642
 7364TIP3    H122056   0.246   0.429   2.793  0.2961 -0.1308  0.4529
 7364TIP3    H222057   0.191   0.425   2.934 -0.3109 -0.6782  0.2019
 7365TIP3   OH222058   0.754   6.525   1.062  0.0272 -0.1648  0.3323
 7365TIP3    H122059   0.778   6.547   1.152  0.3409  0.6880  0.0511
 7365TIP3    H222060   0.704   6.601   1.031 -1.1704 -0.9835  0.1923
 7366TIP3   OH222061   7.233   6.077   1.577 -0.2208  0.5432  0.1480
 7366TIP3    H122062   7.211   6.102   1.666  0.1916  0.6940  0.2088
 7366TIP3    H222063   7.180   6.134   1.522 -0.8765  0.0846  0.2961
 7367TIP3   OH222064   0.880   0.738   5.613 -0.1575 -0.4936  0.3940
 7367TIP3    H122065   0.804   0.760   5.667  0.7136  4.2561  0.0720
 7367TIP3    H222066   0.955   0.746   5.671  0.4098 -0.7138 -0.2928
 7368TIP3   OH222067   5.231   5.807   0.111  0.0185 -0.4859 -0.3835
 7368TIP3    H122068   5.245   5.726   0.062  2.0025 -0.8096  0.6392
 7368TIP3    H222069   5.288   5.871   0.070  0.3349 -0.2799  0.3614
 7369TIP3   OH222070   0.874   1.060   5.688  0.2907 -0.1566  0.1784
 7369TIP3    H122071   0.811   1.011   5.740  0.7918  0.5256  1.4772
 7369TIP3    H222072   0.924   0.993   5.641  1.5699 -1.0058  2.6061
 7370TIP3   OH222073   0.068   3.281   0.896 -0.0372 -0.1817 -0.4581
 7370TIP3    H122074   0.118   3.358   0.923  2.2702 -2.0782  1.1316
 7370TIP3    H222075   0.114   3.249   0.819 -1.5464  0.4852 -1.6744
 7371TIP3   OH222076   4.789   5.088   2.318 -0.6813  0.4454 -0.2377
 7371TIP3    H122077   4.883   5.088   2.303 -0.6561  2.1246 -0.2684
 7371TIP3    H222078   4.753   5.141   2.247 -1.7203 -0.6318 -0.5449
 7372TIP3   OH222079   4.083   1.557   1.256 -0.4450  0.4271  0.0040
 7372TIP3    H122080   4.150   1.615   1.220  0.0454  1.6988  2.6876
 7372TIP3    H222081   4.001   1.591   1.223  0.0213  0.9814 -0.6011
 7373TIP3   OH222082   3.556   6.255   5.724 -0.6364 -0.0587 -0.4369
 7373TIP3    H122083   3.579   6.167   5.694  1.5081  0.6838 -1.1813
 7373TIP3    H222084   3.476   6.276   5.675  0.3241 -0.5791 -2.3406
 7374TIP3   OH222085   0.360   0.495   5.153 -0.1082  0.0135  0.2363
 7374TIP3    H122086   0.287   0.509   5.213  0.5367  1.3747  0.7320
 7374TIP3    H222087   0.326   0.525   5.068 -0.1419  0.6047  0.4560
 7375TIP3   OH222088   5.724   2.461   1.676 -0.2101 -0.3501  0.3298
 7375TIP3    H122089   5.799   2.515   1.701  1.4849 -2.6617  0.5963
 7375TIP3    H222090   5.653   2.489   1.735  1.4002 -0.2922  2.3550
 7376TIP3   OH222091   4.229   4.711   0.984  0.1805  0.1645 -0.1753
 7376TIP3    H122092   4.187   4.786   0.941 -0.1319  0.1809  0.1527
 7376TIP3    H222093   4.196   4.635   0.936 -0.6913  0.1355  0.4435
 7377TIP3   OH222094   0.270   3.277   1.213  0.8584  0.1970  0.2613
 7377TIP3    H122095   0.238   3.331   1.141 -0.1328 -0.4697  0.1812
 7377TIP3    H222096   0.348   3.323   1.244 -0.2392  1.9822  0.5595
 7378TIP3   OH222097   1.894   2.705   1.196 -0.4595 -0.4195 -0.3794
 7378TIP3    H122098   1.844   2.689   1.276 -0.2307 -0.2378 -0.1997
 7378TIP3    H222099   1.860   2.641   1.133  1.3755 -2.6172  0.7175
 7379TIP3   OH222100   0.629   3.576   0.561  0.0378  0.0783  0.0690
 7379TIP3    H122101   0.593   3.531   0.485  1.1260 -0.2604 -0.2612
 7379TIP3    H222102   0.553   3.597   0.615 -0.6571 -0.4838 -0.6761
 7380TIP3   OH222103   1.744   2.061   1.064  0.3867 -0.0515 -0.2831
 7380TIP3    H122104   1.837   2.039   1.055  0.4862  0.6911 -1.3142
 7380TIP3    H222105   1.717   2.086   0.976 -0.8133 -0.2998 -0.0026
 7381TIP3   OH222106   4.965   6.796   1.368 -0.1130  0.0024  0.2534
 7381TIP3    H122107   4.981   6.824   1.458  1.7220  1.1832 -0.3834
 7381TIP3    H222108   4.884   6.745   1.373  0.5539 -0.9631  2.7454
 7382TIP3   OH222109   0.462   5.509   4.390 -0.1378  0.2372 -0.0730
 7382TIP3    H122110   0.374   5.517   4.352 -0.3486 -0.7797  0.1785
 7382TIP3    H222111   0.460   5.565   4.467 -1.3401 -1.5083  1.2511
 7383TIP3   OH222112   5.754   5.503   5.790 -0.7873 -0.8076  0.1849
 7383TIP3    H122113   5.826   5.506   5.726 -0.9699 -0.4704 -0.0057
 7383TIP3    H222114   5.796   5.478   5.872 -0.4391 -0.5480  0.0873
 7384TIP3   OH222115   5.101   1.085   0.391 -0.4512 -0.0058  0.2410
 7384TIP3    H122116   5.071   1.009   0.441  0.7528 -0.4890  0.2586
 7384TIP3    H222117   5.086   1.063   0.300 -0.2175 -0.2128  0.2532
 7385TIP3   OH222118   4.925   2.770   1.767 -0.3601 -0.3580  0.1419
 7385TIP3    H122119   4.916   2.740   1.676 -0.1127 -0.0824  0.0266
 7385TIP3    H222120   4.915   2.690   1.819 -1.6745 -0.3520 -0.0650
 7386TIP3   OH222121   5.557   1.032   1.646 -0.6682 -0.2712  0.5080
 7386TIP3    H122122   5.615   1.049   1.721 -0.9193  0.5420  0.5232
 7386TIP3    H222123   5.607   1.062   1.570 -0.9052  0.0709  0.4827
 7387TIP3   OH222124   5.686   1.836   4.767  0.3748  0.3764 -0.0626
 7387TIP3    H122125   5.674   1.767   4.702  0.0778 -0.2555  0.6526
 7387TIP3    H222126   5.781   1.843   4.778  0.3950 -1.5720  1.5610
 7388TIP3   OH222127   4.958   2.981   5.562 -0.0296  0.6224  0.2096
 7388TIP3    H122128   4.936   3.047   5.496  1.1516  1.2533  0.4284
 7388TIP3    H222129   5.039   3.012   5.601  0.7911 -1.1561  0.0331
 7389TIP3   OH222130   2.147   3.324   5.593 -0.1973  0.4336  0.1113
 7389TIP3    H122131   2.230   3.299   5.633 -0.5105 -0.5667  0.1477
 7389TIP3    H222132   2.128   3.254   5.531 -1.4091  0.2460  0.6694
 7390TIP3   OH222133   5.207   0.386   5.576  0.2038 -0.3720 -0.0733
 7390TIP3    H122134   5.271   0.457   5.575  0.8187 -0.9121  0.1034
 7390TIP3    H222135   5.218   0.342   5.492 -1.2102  0.6309 -0.8130
 7391TIP3   OH222136   0.860   0.289   1.399 -0.0485  0.3337 -0.2649
 7391TIP3    H122137   0.792   0.304   1.464  0.7012  0.2175  0.5658
 7391TIP3    H222138   0.896   0.203   1.421 -0.2486 -0.0240 -1.2655
 7392TIP3   OH222139   3.572   1.223   2.067  0.6480 -0.3381 -0.3998
 7392TIP3    H122140   3.500   1.250   2.123  0.0412  1.1062 -1.8203
 7392TIP3    H222141   3.636   1.184   2.127 -0.2131  0.6415  1.2001
 7393TIP3   OH222142  -0.006   0.913   5.158 -0.3480 -0.0099 -0.1386
 7393TIP3    H122143  -0.015   0.851   5.230  0.2083  0.0152 -0.0472
 7393TIP3    H222144   0.080   0.952   5.170 -0.8198  1.0257  0.0032
 7394TIP3   OH222145   2.021   3.646   0.271 -0.0504  0.0609 -0.2179
 7394TIP3    H122146   2.089   3.605   0.218 -1.1322 -0.9169 -0.8872
 7394TIP3    H222147   1.965   3.574   0.300 -0.7808  0.8308  0.3542
 7395TIP3   OH222148   0.551   4.700   1.335  0.1953  0.0039  0.2374
 7395TIP3    H122149   0.624   4.692   1.274  0.4742 -0.6040  0.6313
 7395TIP3    H222150   0.585   4.755   1.406 -0.2526  1.0304 -0.3189
 7396TIP3   OH222151   6.417   5.566   5.845 -0.3034  0.2318  0.5245
 7396TIP3    H122152   6.411   5.655   5.878 -0.5652  0.2311  0.4823
 7396TIP3    H222153   6.329   5.545   5.815 -0.0823  0.2248 -0.1554
 7397TIP3   OH222154   0.308   1.672   3.244 -0.5010 -0.5143  0.5083
 7397TIP3    H122155   0.221   1.630   3.246 -0.1496 -1.2789  0.2147
 7397TIP3    H222156   0.364   1.612   3.294  0.0689 -0.5325 -0.1359
 7398TIP3   OH222157   4.096   4.411   4.831  0.1355  0.1761  0.4329
 7398TIP3    H122158   4.035   4.344   4.862  1.5173 -0.7524  1.2958
 7398TIP3    H222159   4.041   4.475   4.787 -1.6822  0.2874  2.6770
 7399TIP3   OH222160   5.334   5.470   3.799 -0.4350  0.0283  0.2878
 7399TIP3    H122161   5.315   5.546   3.853  1.2341 -0.0151  0.9880
 7399TIP3    H222162   5.273   5.477   3.726 -0.0041  2.3012  0.0710
 7400TIP3   OH222163   7.096   5.990   3.291 -0.1913 -0.6682  0.0002
 7400TIP3    H122164   7.141   5.994   3.376  0.0317 -3.0696  0.0465
 7400TIP3    H222165   7.146   6.049   3.235  2.4830 -2.4463  0.3260
 7401TIP3   OH222166   6.514   1.675   2.377  0.5237 -0.5018  0.0162
 7401TIP3    H122167   6.590   1.651   2.429  0.5553  0.0899  0.2585
 7401TIP3    H222168   6.519   1.619   2.300  1.7002  0.1218 -0.3908
 7402TIP3   OH222169   6.731   4.806   3.806 -0.4671  0.3521 -0.8899
 7402TIP3    H122170   6.672   4.851   3.746 -0.9636 -1.2707 -1.6852
 7402TIP3    H222171   6.817   4.815   3.766 -0.2355  2.0698 -0.1150
 7403TIP3   OH222172   7.172   4.071   4.809 -0.2545 -0.2024  0.6925
 7403TIP3    H122173   7.124   4.142   4.851 -0.5383  0.0767 -0.0771
 7403TIP3    H222174   7.263   4.100   4.809 -0.4681  0.5277 -0.3031
 7404TIP3   OH222175   1.455   0.322   3.022 -0.3065  0.4918  0.0626
 7404TIP3    H122176   1.502   0.404   3.036 -3.9691  2.4601  2.5861
 7404TIP3    H222177   1.373   0.349   2.981 -1.1509 -2.1024 -0.1079
 7405TIP3   OH222178   6.291   5.128   1.376  0.1101 -0.3513  0.4000
 7405TIP3    H122179   6.229   5.060   1.349  0.3759 -0.4705  0.0782
 7405TIP3    H222180   6.248   5.173   1.448 -1.5494  1.3583 -1.5453
 7406TIP3   OH222181   2.756   4.672   2.374  0.4308 -0.5654  0.1761
 7406TIP3    H122182   2.706   4.636   2.301 -0.0159  1.1534 -0.4232
 7406TIP3    H222183   2.690   4.687   2.443  0.0974  1.4217 -0.5068
 7407TIP3   OH222184   4.624   4.581   3.628  0.0111 -0.2558 -0.0010
 7407TIP3    H122185   4.647   4.669   3.656  2.5339 -1.2409  1.3117
 7407TIP3    H222186   4.572   4.545   3.701 -2.5112  0.6026 -1.2467
 7408TIP3   OH222187   2.872   1.087   5.444 -0.0266  0.2000  0.2724
 7408TIP3    H122188   2.952   1.137   5.425  0.4810  0.4187  2.6549
 7408TIP3    H222189   2.870   1.081   5.539 -1.7358 -1.6807  0.1765
 7409TIP3   OH222190   3.374   0.410   1.374  0.4398  0.2178 -0.4063
 7409TIP3    H122191   3.458   0.419   1.419  1.0657 -1.6934 -1.1233
 7409TIP3    H222192   3.324   0.349   1.427  0.6280 -0.9083 -1.4940
 7410TIP3   OH222193   3.336   2.348   1.671 -0.0692  0.2234  0.6867
 7410TIP3    H122194   3.374   2.435   1.653 -1.6998  0.8919  0.3059
 7410TIP3    H222195   3.256   2.367   1.719 -1.2304 -0.9642 -0.6915
 7411TIP3   OH222196   2.332   1.267   0.795  0.1701  0.2053 -0.6349
 7411TIP3    H122197   2.239   1.282   0.812  0.5915  2.2334  0.1875
 7411TIP3    H222198   2.350   1.317   0.716  0.7425  0.5656 -0.2812
 7412TIP3   OH222199   4.495   4.173   2.711 -0.4195 -0.6654  0.3726
 7412TIP3    H122200   4.556   4.112   2.671  0.0365 -0.9157  1.4244
 7412TIP3    H222201   4.464   4.129   2.790 -1.1424 -0.0999  0.4176
 7413TIP3   OH222202   1.219   5.420   4.646  0.4317 -0.3917  0.2100
 7413TIP3    H122203   1.168   5.399   4.724  1.1290  0.9411  1.0581
 7413TIP3    H222204   1.259   5.505   4.665 -3.0259  2.4196 -3.3091
 7414TIP3   OH222205   4.116   5.974   1.732 -0.0388  0.2277 -0.3932
 7414TIP3    H122206   4.150   5.885   1.725 -0.2426  0.2767 -2.8357
 7414TIP3    H222207   4.033   5.972   1.684  0.0328  1.7845 -0.6395
 7415TIP3   OH222208   4.186   6.689   2.472  0.4339 -0.0529  0.1542
 7415TIP3    H122209   4.121   6.753   2.443  0.0030 -1.2374 -1.6880
 7415TIP3    H222210   4.256   6.741   2.511 -0.5595  1.4171  0.0452
 7416TIP3   OH222211   6.453   1.215   0.741 -0.0026  0.2806  0.1111
 7416TIP3    H122212   6.454   1.307   0.713 -2.0877  0.0133 -0.9446
 7416TIP3    H222213   6.448   1.220   0.837 -0.6303  1.2718  0.0361
 7417TIP3   OH222214   5.917   0.701   4.161  0.1157 -0.1623  0.5043
 7417TIP3    H122215   5.949   0.770   4.103 -1.6639 -0.1238 -0.5239
 7417TIP3    H222216   5.822   0.713   4.163 -0.0703 -1.4525  1.7958
 7418TIP3   OH222217   3.677   1.901   1.264 -0.2021  0.9387 -0.0974
 7418TIP3    H122218   3.647   1.852   1.341 -2.2555  0.4959 -1.1088
 7418TIP3    H222219   3.646   1.990   1.279  0.2383  1.0780  0.0075
 7419TIP3   OH222220   1.706   3.786   0.682  0.8424 -0.7659 -0.2458
 7419TIP3    H122221   1.616   3.794   0.714  0.5847 -1.6999 -0.7022
 7419TIP3    H222222   1.697   3.763   0.589  1.5729  0.7607 -0.7328
 7420TIP3   OH222223   0.843   5.874   0.313  0.0698  0.3155  0.0612
 7420TIP3    H122224   0.922   5.821   0.298 -0.1503  0.5268 -2.3129
 7420TIP3    H222225   0.875   5.950   0.362  0.4721 -1.6596  3.1213
 7421TIP3   OH222226   2.458   1.740   2.108  0.2684  0.2593  0.2872
 7421TIP3    H122227   2.518   1.783   2.047 -0.1117 -0.4200 -0.6012
 7421TIP3    H222228   2.450   1.800   2.182 -0.8764  2.0953 -1.2456
 7422TIP3   OH222229   4.911   2.373   4.215 -0.0570 -0.4785  0.0461
 7422TIP3    H122230   4.891   2.407   4.128  1.5187 -2.0632 -1.0126
 7422TIP3    H222231   4.831   2.328   4.242 -0.9717  1.0253 -0.0195
 7423TIP3   OH222232   1.284   1.022   4.823 -0.4366 -0.3404 -0.3029
 7423TIP3    H122233   1.230   1.023   4.902 -0.5181 -0.9244 -0.3474
 7423TIP3    H222234   1.221   1.025   4.750 -0.3406  0.9899 -0.3570
 7424TIP3   OH222235   1.275   6.310   1.338 -0.2542 -0.1148  0.0241
 7424TIP3    H122236   1.336   6.383   1.348  0.3587 -0.6853  0.4887
 7424TIP3    H222237   1.194   6.351   1.308  1.0825  0.4004 -3.2977
 7425TIP3   OH222238   4.990   3.268   0.621 -0.2260 -0.4025  0.1221
 7425TIP3    H122239   5.082   3.288   0.642 -0.7490  0.7293  1.5286
 7425TIP3    H222240   4.978   3.177   0.648  0.2078 -0.2272  0.9215
 7426TIP3   OH222241   1.390   3.764   4.479  0.1028 -0.2281  0.6027
 7426TIP3    H122242   1.313   3.788   4.427  0.4109  0.1356  0.3160
 7426TIP3    H222243   1.398   3.834   4.544  0.7423  0.2247  0.0426
 7427TIP3   OH222244   3.444   4.333   4.692 -0.0585 -0.0159 -0.2579
 7427TIP3    H122245   3.514   4.328   4.757  0.9510  1.3177 -1.1705
 7427TIP3    H222246   3.415   4.424   4.695 -0.1483  0.0108 -1.4851
 7428TIP3   OH222247   2.120   2.843   3.819  0.8636 -0.5766  0.2339
 7428TIP3    H122248   2.052   2.812   3.879  0.6617  0.0329  0.3272
 7428TIP3    H222249   2.072   2.871   3.741  0.4199  3.9334  1.8361
 7429TIP3   OH222250   1.655   1.777   1.025  0.4117  0.5031 -0.2207
 7429TIP3    H122251   1.691   1.828   1.098 -0.2039  1.2360 -0.4175
 7429TIP3    H222252   1.621   1.843   0.965 -1.0446 -0.1615 -0.1542
 7430TIP3   OH222253   2.475   2.801   3.652 -0.4035  0.3387  0.6391
 7430TIP3    H122254   2.474   2.829   3.743  1.4398  2.0580  0.2125
 7430TIP3    H222255   2.510   2.712   3.654  0.6692  0.7593  1.5655
 7431TIP3   OH222256   5.449   0.001   4.666 -0.3583  0.0849  0.3347
 7431TIP3    H122257   5.394   0.011   4.588 -0.0360  1.3552  0.2547
 7431TIP3    H222258   5.451   0.088   4.706  0.1148 -0.3673  1.3445
 7432TIP3   OH222259   5.932   2.104   4.493 -0.0998  0.3644  0.0886
 7432TIP3    H122260   5.955   2.179   4.548 -0.0554 -0.9765  2.0114
 7432TIP3    H222261   5.848   2.127   4.454 -0.4990  1.0940  1.3306
 7433TIP3   OH222262   2.894   0.835   4.983 -0.9025 -0.3203 -0.3331
 7433TIP3    H122263   2.938   0.851   5.066 -1.4831  1.6542 -0.3403
 7433TIP3    H222264   2.801   0.829   5.006 -1.0806  0.3608 -0.8095
 7434TIP3   OH222265   6.109   5.981   0.157  0.1559  0.3809  0.0539
 7434TIP3    H122266   6.062   5.960   0.077  1.4073 -0.4352 -0.4976
 7434TIP3    H222267   6.077   6.068   0.181 -2.0014 -0.3501  0.0271
 7435TIP3   OH222268   5.452   4.146   3.329 -0.8434  0.0850  0.0610
 7435TIP3    H122269   5.482   4.087   3.398 -1.1124  0.0749  0.1717
 7435TIP3    H222270   5.513   4.131   3.256 -0.3684  0.3309  0.4063
 7436TIP3   OH222271   0.072   2.273   1.960  0.0185 -0.4089  0.1702
 7436TIP3    H122272   0.130   2.205   1.924 -0.7964  0.3138 -2.8306
 7436TIP3    H222273  -0.006   2.226   1.988  0.6611 -1.0091  0.9934
 7437TIP3   OH222274   2.059   0.891   0.493 -0.0828  0.2160  0.2627
 7437TIP3    H122275   2.080   0.841   0.414  0.6781  0.5280  0.2611
 7437TIP3    H222276   2.064   0.983   0.466 -1.4653  0.3142  0.2678
 7438TIP3   OH222277   3.680   3.349   0.764 -0.0063  0.0911 -0.4726
 7438TIP3    H122278   3.667   3.289   0.691 -1.9520  0.3464 -0.3998
 7438TIP3    H222279   3.592   3.362   0.800  0.7012  1.1350  0.9842
 7439TIP3   OH222280   0.532   1.639   1.088 -0.6479  0.2369  0.2796
 7439TIP3    H122281   0.570   1.590   1.015  0.6927  0.9943  0.4273
 7439TIP3    H222282   0.570   1.727   1.080 -0.4610  0.3358  1.8650
 7440TIP3   OH222283   4.699   5.130   3.346 -0.7564  0.3119 -0.1247
 7440TIP3    H122284   4.649   5.051   3.324  0.2184 -0.4728  0.3890
 7440TIP3    H222285   4.677   5.148   3.437 -1.5639  1.0960 -0.4636
 7441TIP3   OH222286   4.076   2.643   1.797  0.2225  0.4514 -0.4089
 7441TIP3    H122287   4.139   2.657   1.868 -0.0285 -1.4110  0.2325
 7441TIP3    H222288   4.013   2.715   1.807  0.5845  0.6182  0.8147
 7442TIP3   OH222289   4.982   5.305   2.500 -0.2992 -0.0666 -0.0845
 7442TIP3    H122290   4.973   5.326   2.407  1.8193  1.1582 -0.0711
 7442TIP3    H222291   5.068   5.338   2.524 -0.5571 -0.8732  2.2008
 7443TIP3   OH222292   0.776   4.826   2.377  0.0371 -0.4300 -0.2971
 7443TIP3    H122293   0.761   4.762   2.307 -0.5331 -1.9810  1.1969
 7443TIP3    H222294   0.760   4.778   2.458  1.7735  1.0088  0.9805
 7444TIP3   OH222295   0.817   2.685   5.903 -0.2113  0.5132 -0.3375
 7444TIP3    H122296   0.824   2.711   5.811  2.0057 -1.5001 -0.8264
 7444TIP3    H222297   0.878   2.742   5.949  1.0120 -0.4666 -0.6657
 7445TIP3   OH222298   3.604   5.848   5.698 -0.2616  0.6894  0.0412
 7445TIP3    H122299   3.555   5.857   5.616  0.6125  1.3481 -0.4348
 7445TIP3    H222300   3.543   5.874   5.766 -1.0166  0.0944 -0.3872
 7446TIP3   OH222301   2.633   3.967   1.701 -0.4029 -0.5065 -0.2883
 7446TIP3    H122302   2.701   3.924   1.648  0.6805  0.1962  0.4943
 7446TIP3    H222303   2.563   3.987   1.638  1.2716  1.2498 -1.7165
 7447TIP3   OH222304   3.897   2.348   2.435  0.1010 -0.0960 -0.0366
 7447TIP3    H122305   3.953   2.284   2.479  0.4544 -0.0348 -0.4017
 7447TIP3    H222306   3.821   2.297   2.405  0.4263 -0.3647 -0.4097
 7448TIP3   OH222307   5.826   1.470   0.279 -0.0018  0.1599  0.7624
 7448TIP3    H122308   5.870   1.410   0.219 -0.7799  0.2055  0.1339
 7448TIP3    H222309   5.816   1.420   0.360 -2.2778 -1.2711 -0.3008
 7449TIP3   OH222310   6.953   6.366   4.841  0.0047  0.0007  0.2508
 7449TIP3    H122311   6.997   6.393   4.921 -1.9044  0.8651  1.0632
 7449TIP3    H222312   6.926   6.276   4.857  0.1920 -0.0395  0.3347
 7450TIP3   OH222313   0.670   3.645   0.967  0.3070 -0.0267 -0.5845
 7450TIP3    H122314   0.616   3.598   1.031  0.1720 -0.0335 -0.7050
 7450TIP3    H222315   0.664   3.737   0.994  1.5278 -0.2005  0.3750
 7451TIP3   OH222316   6.585   3.811   2.406 -0.4165 -0.2795  0.5019
 7451TIP3    H122317   6.637   3.820   2.486 -1.7887 -1.1294  1.5384
 7451TIP3    H222318   6.650   3.804   2.336  0.8613 -0.6975  1.6751
 7452TIP3   OH222319   2.897   5.942   0.978  0.0847 -0.0537 -0.1543
 7452TIP3    H122320   2.918   5.939   1.071 -0.2751 -1.0506 -0.0967
 7452TIP3    H222321   2.925   5.856   0.944 -0.6238 -0.0444 -0.7841
 7453TIP3   OH222322   4.300   1.909   3.464 -0.8252  0.3462  0.1979
 7453TIP3    H122323   4.315   1.815   3.452 -0.0937  0.3491  1.0297
 7453TIP3    H222324   4.240   1.932   3.393 -1.0737 -0.7609  0.0221
 7454TIP3   OH222325   3.455   2.478   0.124  0.0641  0.1808  0.2414
 7454TIP3    H122326   3.454   2.396   0.173 -0.8519  0.5176  0.8252
 7454TIP3    H222327   3.387   2.531   0.165  1.3269  1.6320  0.5356
 7455TIP3   OH222328   3.184   3.747   3.886  0.3626  0.1104  0.4317
 7455TIP3    H122329   3.161   3.657   3.861 -0.2370  0.3511  0.0845
 7455TIP3    H222330   3.279   3.748   3.887  0.3768 -0.6934  1.0241
 7456TIP3   OH222331   5.582   5.708   1.510  0.0088 -0.4248  0.4060
 7456TIP3    H122332   5.536   5.664   1.582  0.7576 -1.7779  0.0859
 7456TIP3    H222333   5.644   5.643   1.478  1.5022  1.0409  0.2214
 7457TIP3   OH222334   5.633   4.221   0.406  0.0621  0.4601  0.0792
 7457TIP3    H122335   5.703   4.262   0.457 -0.5543  0.4972  0.9028
 7457TIP3    H222336   5.602   4.149   0.461  0.2562 -0.3063 -0.7999
 7458TIP3   OH222337   6.831   5.333   4.375 -0.1289  0.4657  0.2282
 7458TIP3    H122338   6.897   5.358   4.310  0.2107  0.1535  0.4515
 7458TIP3    H222339   6.819   5.411   4.429  1.9614 -0.2238  1.8179
 7459TIP3   OH222340   0.870   1.016   4.738  0.2092 -0.1348  0.4366
 7459TIP3    H122341   0.812   0.942   4.722  0.9491 -1.0166  1.6676
 7459TIP3    H222342   0.885   1.054   4.651 -0.3594 -1.2950 -0.1900
 7460TIP3   OH222343   5.605   0.520   2.601 -0.2673 -0.1915 -0.1337
 7460TIP3    H122344   5.643   0.443   2.643  0.5281  1.0217  1.4622
 7460TIP3    H222345   5.513   0.517   2.625 -0.2435 -0.6331 -0.0734
 7461TIP3   OH222346   5.998   6.225   1.782  0.1030 -0.4193  0.1096
 7461TIP3    H122347   5.973   6.138   1.814  2.5870 -0.8400  1.1672
 7461TIP3    H222348   5.951   6.285   1.840  0.2827 -1.1147  1.0137
 7462TIP3   OH222349   6.948   3.892   1.032 -0.6228  0.2545 -0.8713
 7462TIP3    H122350   6.875   3.830   1.033 -1.5090  1.2121 -2.1712
 7462TIP3    H222351   6.958   3.920   1.123 -0.0086 -1.9737 -0.2153
 7463TIP3   OH222352   6.427   5.457   1.157  0.1630 -0.1087 -0.1701
 7463TIP3    H122353   6.504   5.460   1.100  0.3581  1.2321  0.1402
 7463TIP3    H222354   6.456   5.405   1.232  0.6955  0.2083 -0.1517
 7464TIP3   OH222355   3.623   6.282   1.566 -0.0762  0.1537 -0.1374
 7464TIP3    H122356   3.530   6.277   1.590 -0.1920  0.9351 -0.3961
 7464TIP3    H222357   3.635   6.372   1.536  0.4158 -0.3744 -1.5815
 7465TIP3   OH222358   7.033   5.012   4.430  0.0943  0.0315  0.4219
 7465TIP3    H122359   7.102   4.976   4.484 -1.0426 -0.0239  1.8942
 7465TIP3    H222360   6.998   4.937   4.382 -1.7643 -0.8061  2.9126
 7466TIP3   OH222361   7.191   5.167   4.985  0.3503 -0.1492 -0.1820
 7466TIP3    H122362   7.271   5.219   4.987 -0.3986  1.0726 -1.0703
 7466TIP3    H222363   7.122   5.228   4.959 -0.4415 -1.7149 -2.0229
 7467TIP3   OH222364   1.633   5.508   1.168  0.3965 -0.3109  0.5240
 7467TIP3    H122365   1.633   5.481   1.260 -0.3885 -1.9402  0.0875
 7467TIP3    H222366   1.578   5.443   1.125  0.6540  0.5073 -1.0850
 7468TIP3   OH222367   4.091   5.313   5.502 -0.1738  0.4138 -0.0048
 7468TIP3    H122368   4.115   5.281   5.415  1.0942 -1.0038  0.8114
 7468TIP3    H222369   4.034   5.388   5.486  1.4461  1.2838 -2.0662
 7469TIP3   OH222370   7.133   2.043   1.674  0.3113  0.0451 -1.0756
 7469TIP3    H122371   7.051   2.065   1.717  1.2927 -0.8253  1.4296
 7469TIP3    H222372   7.114   1.963   1.625 -0.8237  1.0443 -2.3446
 7470TIP3   OH222373   5.636   4.424   5.460 -0.1199  0.2203  0.6035
 7470TIP3    H122374   5.647   4.450   5.552  0.1398  0.8052  0.4109
 7470TIP3    H222375   5.711   4.368   5.442 -1.8193 -2.6416  1.6744
 7471TIP3   OH222376   0.431   2.748   2.191  0.5128  0.2539  0.1954
 7471TIP3    H122377   0.392   2.805   2.125  0.5994  0.7868  0.6029
 7471TIP3    H222378   0.371   2.753   2.266  0.4832 -0.2429  0.2065
 7472TIP3   OH222379   1.622   1.750   2.103 -0.0333  0.1723  0.0701
 7472TIP3    H122380   1.651   1.708   2.184  0.6530  0.9223  0.2214
 7472TIP3    H222381   1.595   1.677   2.047 -3.6320 -0.2885  2.0906
 7473TIP3   OH222382   6.643   4.037   0.323  0.1765  0.4056  0.2663
 7473TIP3    H122383   6.613   3.985   0.249  1.9538 -0.9346  0.4092
 7473TIP3    H222384   6.733   4.008   0.338  0.5899  2.1698  1.6083
 7474TIP3   OH222385   3.427   0.407   1.084 -0.4484 -0.3532  0.0116
 7474TIP3    H122386   3.396   0.397   1.174 -0.7740  0.3092 -0.0189
 7474TIP3    H222387   3.430   0.502   1.071 -1.1151 -0.4611 -0.9273
 7475TIP3   OH222388   6.477   0.877   5.742 -0.2569  0.1534  0.2247
 7475TIP3    H122389   6.563   0.900   5.776  1.2183 -0.5349 -2.6633
 7475TIP3    H222390   6.460   0.942   5.674 -1.1088 -0.7976 -0.5073
 7476TIP3   OH222391   6.612   0.800   0.414 -0.3197  0.0888 -0.0318
 7476TIP3    H122392   6.548   0.774   0.481  0.3518  1.4527  1.2093
 7476TIP3    H222393   6.696   0.770   0.449  0.2307  2.1172  0.5445
 7477TIP3   OH222394   6.011   6.779   2.990 -0.4774  0.1835  0.2473
 7477TIP3    H122395   6.072   6.711   2.961 -1.2946 -1.0286  1.3022
 7477TIP3    H222396   5.990   6.827   2.910 -0.2179 -1.0664 -0.5986
 7478TIP3   OH222397   5.754   2.251   3.074 -0.0160  0.3581 -0.1635
 7478TIP3    H122398   5.743   2.178   3.135  0.6067  1.3584  1.1989
 7478TIP3    H222399   5.730   2.328   3.125 -0.9208  1.0907 -1.6590
 7479TIP3   OH222400   5.356   4.429   5.755  0.0036 -0.0928 -0.2735
 7479TIP3    H122401   5.328   4.441   5.664  1.0289 -1.2863 -0.7768
 7479TIP3    H222402   5.442   4.471   5.758  0.5521 -1.1819 -0.2254
 7480TIP3   OH222403   4.444   4.712   1.177  0.3489  0.2074  0.0551
 7480TIP3    H122404   4.375   4.708   1.112  0.8561  0.1293 -0.4823
 7480TIP3    H222405   4.479   4.800   1.170 -1.2744  1.0965  1.9997
 7481TIP3   OH222406   1.265   5.453   0.000 -0.3756 -0.4277 -0.3303
 7481TIP3    H122407   1.302   5.402   0.073 -0.8095  0.1670  0.3186
 7481TIP3    H222408   1.190   5.400  -0.029  0.2156 -1.0150 -0.8242
 7482TIP3   OH222409   4.375   5.456   3.024  0.0578  0.5055 -0.1211
 7482TIP3    H122410   4.331   5.497   3.098  3.4887  0.3209  2.2816
 7482TIP3    H222411   4.342   5.502   2.947 -2.2087  2.1126  1.6874
 7483TIP3   OH222412   6.937   1.589   0.302 -0.4811  0.5790 -0.3208
 7483TIP3    H122413   6.902   1.656   0.360  0.0593  1.0784 -0.5650
 7483TIP3    H222414   6.966   1.519   0.360  2.1570  2.0070  0.2529
 7484TIP3   OH222415   4.617   1.399   5.025 -0.3487 -0.5527  0.3484
 7484TIP3    H122416   4.574   1.469   5.073 -0.7348 -0.0167 -0.7579
 7484TIP3    H222417   4.554   1.327   5.025  0.2887 -1.1747  2.0247
 7485TIP3   OH222418   6.204   2.751   2.548  0.0627  0.2292 -0.2481
 7485TIP3    H122419   6.269   2.771   2.481 -0.4124 -1.0612 -1.1301
 7485TIP3    H222420   6.218   2.659   2.569 -3.0617 -0.8894 -2.3522
 7486TIP3   OH222421   1.482   3.812   2.497  0.3015 -0.3272  0.2257
 7486TIP3    H122422   1.538   3.766   2.435 -1.9323 -0.7479 -1.6235
 7486TIP3    H222423   1.495   3.766   2.580  1.6194 -1.2665 -0.4673
 7487TIP3   OH222424   3.996   1.044   0.575 -0.3904  0.3921  0.3160
 7487TIP3    H122425   4.008   1.121   0.630  0.9845 -0.2464  0.9708
 7487TIP3    H222426   4.085   1.013   0.557 -0.8787 -0.3928 -0.8771
 7488TIP3   OH222427   0.300   5.340   1.318 -0.2022  0.3708 -0.9613
 7488TIP3    H122428   0.331   5.430   1.314  1.4423 -0.0762  0.4528
 7488TIP3    H222429   0.380   5.287   1.321 -1.0839 -0.9834  0.7205
 7489TIP3   OH222430   2.764   3.411   5.468  0.0115  0.2244 -0.7349
 7489TIP3    H122431   2.791   3.350   5.536  1.0633 -0.6602 -1.9120
 7489TIP3    H222432   2.668   3.403   5.465  0.1277 -1.3494 -0.8462
 7490TIP3   OH222433   6.331   5.764   4.816 -0.1896  0.0844 -0.1422
 7490TIP3    H122434   6.401   5.708   4.849 -1.3187 -0.9678  0.5734
 7490TIP3    H222435   6.291   5.801   4.894 -0.7470  0.2701 -0.5071
 7491TIP3   OH222436   0.549   0.120   5.811 -0.3210  0.1816  0.3279
 7491TIP3    H122437   0.519   0.160   5.893  0.6948  1.9259 -0.0977
 7491TIP3    H222438   0.502   0.168   5.742 -0.8558 -0.9892 -0.1540
 7492TIP3   OH222439   4.316   1.811   2.883 -0.0889  0.1775 -0.1964
 7492TIP3    H122440   4.221   1.804   2.876 -0.1016 -3.7251  1.3270
 7492TIP3    H222441   4.335   1.789   2.975  2.3194  0.3201 -0.5859
 7493TIP3   OH222442   3.029   2.921   4.526  0.3444 -0.4796  0.1524
 7493TIP3    H122443   3.110   2.931   4.577 -0.3597 -0.0130  1.2187
 7493TIP3    H222444   3.056   2.873   4.448  1.5127 -1.0260  0.8559
 7494TIP3   OH222445   3.391   1.023   3.664 -0.3355  0.2945 -0.7242
 7494TIP3    H122446   3.451   0.999   3.734 -1.7156 -1.2946 -0.0002
 7494TIP3    H222447   3.447   1.035   3.587  0.9428 -0.9016 -0.0347
 7495TIP3   OH222448   1.057   1.681   2.799 -0.2020  0.4583  0.3125
 7495TIP3    H122449   0.963   1.668   2.810  0.1603 -0.5640  2.9011
 7495TIP3    H222450   1.089   1.701   2.887  2.1968 -0.6183 -0.2389
 7496TIP3   OH222451   4.624   4.132   1.542  0.2655 -0.4022 -0.1177
 7496TIP3    H122452   4.712   4.122   1.507  0.0359  2.1267 -1.6634
 7496TIP3    H222453   4.602   4.223   1.525 -1.9268 -0.4455  1.9977
 7497TIP3   OH222454   5.270   5.733   2.214 -0.1597 -0.2959 -0.3697
 7497TIP3    H122455   5.210   5.715   2.141 -1.5499 -1.2176  0.9197
 7497TIP3    H222456   5.300   5.822   2.199  0.3947 -0.7931 -2.5800
 7498TIP3   OH222457   2.192   0.665   4.189 -0.7471 -0.2565 -0.3176
 7498TIP3    H122458   2.273   0.616   4.175 -2.5069 -2.7572 -2.8918
 7498TIP3    H222459   2.133   0.602   4.231 -2.4575  0.2175 -1.8736
 7499TIP3   OH222460   1.098   5.884   1.226  0.3059  0.2393  0.1794
 7499TIP3    H122461   1.115   5.964   1.177  0.0302 -0.4660 -1.1063
 7499TIP3    H222462   1.010   5.858   1.199 -0.0264  0.0465  1.3773
 7500TIP3   OH222463   3.443   3.351   3.026 -0.4508  0.4116  0.2886
 7500TIP3    H122464   3.466   3.293   3.098 -2.1577 -0.9176 -0.1575
 7500TIP3    H222465   3.500   3.324   2.954 -0.5247 -0.0162  0.3894
 7501TIP3   OH222466   4.425   6.064   2.698 -0.4548  1.1919  0.4519
 7501TIP3    H122467   4.367   6.073   2.773  1.8054 -0.1198  2.4782
 7501TIP3    H222468   4.449   6.155   2.676 -0.3468  1.5688  2.0083
 7502TIP3   OH222469   7.145   1.052   4.612  0.5814 -0.0809  0.9575
 7502TIP3    H122470   7.163   1.143   4.635  0.6586  0.2646 -0.4141
 7502TIP3    H222471   7.111   1.013   4.693  3.3449  0.3526  2.4367
 7503TIP3   OH222472   5.734   2.947   5.606 -0.0182  1.5563 -0.4010
 7503TIP3    H122473   5.724   2.973   5.514 -0.0248  2.1392 -0.2397
 7503TIP3    H222474   5.828   2.954   5.623  0.1700  0.1781 -0.7211
 7504TIP3   OH222475   0.989   2.197   2.515  0.6846 -0.0510  0.1182
 7504TIP3    H122476   1.043   2.228   2.443  1.4612 -1.2167  0.1566
 7504TIP3    H222477   1.052   2.166   2.581  0.0179 -1.9600 -0.0669
 7505TIP3   OH222478   0.802   5.496   2.194  0.4336  0.3050 -0.1227
 7505TIP3    H122479   0.760   5.478   2.110 -0.3079 -2.2993  0.7122
 7505TIP3    H222480   0.732   5.532   2.249 -0.3881 -2.3017  0.6973
 7506TIP3   OH222481   0.595   2.486   3.997  0.0204  0.2402 -0.0681
 7506TIP3    H122482   0.649   2.409   3.979 -1.4961 -0.9090  0.0588
 7506TIP3    H222483   0.599   2.496   4.092 -0.5826 -0.3281  0.0274
 7507TIP3   OH222484   5.930   4.309   5.022 -0.6009  0.2758  0.1127
 7507TIP3    H122485   5.916   4.246   4.951 -2.5735  1.1035 -0.3282
 7507TIP3    H222486   5.990   4.266   5.082 -0.6663 -1.3794 -0.9458
 7508TIP3   OH222487   1.030   1.071   4.012 -0.5300 -0.4286 -0.2126
 7508TIP3    H122488   0.968   1.034   4.075 -1.7404  2.1524  0.2431
 7508TIP3    H222489   0.986   1.065   3.928 -0.5906 -0.3576 -0.1868
 7509TIP3   OH222490   6.235   1.065   2.136  0.4341 -0.3104  0.0107
 7509TIP3    H122491   6.154   1.033   2.095 -0.2320  0.2446  0.8706
 7509TIP3    H222492   6.229   1.036   2.227  1.6269 -1.0132 -0.1184
 7510TIP3   OH222493   2.010   3.551   4.365  0.2039 -0.1262 -0.0058
 7510TIP3    H122494   2.057   3.632   4.342  0.3209 -0.3734 -0.6510
 7510TIP3    H222495   1.927   3.557   4.318 -0.6840  0.5729  1.5747
 7511TIP3   OH222496   6.476   1.287   0.413  0.1089  0.1694  0.5995
 7511TIP3    H122497   6.479   1.226   0.488  0.4509 -0.5074  0.0517
 7511TIP3    H222498   6.429   1.238   0.345  0.9962  0.2448 -0.0816
 7512TIP3   OH222499   3.522   2.067   0.122 -0.0992 -0.3156  0.2735
 7512TIP3    H122500   3.527   1.971   0.121 -0.3445 -0.3854 -2.5482
 7512TIP3    H222501   3.600   2.095   0.169 -1.0244 -1.8500  2.9417
 7513TIP3   OH222502   4.318   3.882   1.191 -0.2930 -0.3396 -0.4161
 7513TIP3    H122503   4.357   3.889   1.277 -2.0635  0.0332  0.4123
 7513TIP3    H222504   4.238   3.936   1.196  0.3531  1.0022 -2.7863
 7514TIP3   OH222505   3.206   3.964   1.790 -0.4985  0.4518 -0.0319
 7514TIP3    H122506   3.153   3.944   1.713  0.9841  1.1172 -1.2824
 7514TIP3    H222507   3.293   3.980   1.755 -0.1192  2.3385  1.6271
 7515TIP3   OH222508   2.996   5.970   3.791  0.1490 -0.0335  0.2199
 7515TIP3    H122509   3.080   5.939   3.756  0.0572 -0.0712  0.0296
 7515TIP3    H222510   2.952   6.010   3.715  0.8856  1.9158  0.7462
 7516TIP3   OH222511   6.930   4.148   0.433 -0.0311  0.0480  0.2645
 7516TIP3    H122512   6.869   4.162   0.506 -2.4756  1.4005 -1.8900
 7516TIP3    H222513   7.010   4.194   0.460 -0.4633 -0.3357  2.4581
 7517TIP3   OH222514   5.360   2.514   2.641 -0.4027  0.3238  0.4188
 7517TIP3    H122515   5.360   2.423   2.672 -0.5487 -0.4877 -1.7646
 7517TIP3    H222516   5.358   2.506   2.546  0.9200  2.6326  0.1445
 7518TIP3   OH222517   1.787   0.570   0.490 -0.3553 -0.2199  0.1868
 7518TIP3    H122518   1.755   0.646   0.442 -0.5691  0.9314  2.0622
 7518TIP3    H222519   1.767   0.496   0.433  0.2889  1.1332 -1.9202
 7519TIP3   OH222520   6.195   3.622   3.378  0.3690 -0.2917  0.0106
 7519TIP3    H122521   6.230   3.542   3.416 -1.3288 -0.6111  1.0182
 7519TIP3    H222522   6.236   3.692   3.428  1.1059 -0.5672 -0.2028
 7520TIP3   OH222523   4.305   6.223   1.579  0.3719 -0.0722  0.2477
 7520TIP3    H122524   4.279   6.309   1.610 -1.7943 -0.6096  0.0862
 7520TIP3    H222525   4.367   6.191   1.645 -0.6049  0.6672  1.5636
 7521TIP3   OH222526   5.959   3.428   4.925  0.2285  0.0877  0.3621
 7521TIP3    H122527   5.886   3.366   4.920 -0.0812  0.4961 -0.3358
 7521TIP3    H222528   5.942   3.478   5.005 -1.7472  1.9496 -1.0798
 7522TIP3   OH222529   1.795   5.941   2.035  0.0319 -0.0238  0.1704
 7522TIP3    H122530   1.829   6.005   1.972 -1.2462  0.1662 -0.3684
 7522TIP3    H222531   1.711   5.914   1.998 -1.0774  0.5796  2.1195
 7523TIP3   OH222532   0.247   1.195   3.399 -0.0514  0.1931  0.9401
 7523TIP3    H122533   0.328   1.238   3.426 -0.0260  0.1135  0.9891
 7523TIP3    H222534   0.194   1.190   3.478  0.9162 -2.0827  1.5147
 7524TIP3   OH222535   2.360   0.098   0.195  0.3409 -0.2299 -0.3933
 7524TIP3    H122536   2.451   0.094   0.167  0.0808 -0.3472 -1.2278
 7524TIP3    H222537   2.359   0.046   0.276  1.0863  0.1010 -0.1596
 7525TIP3   OH222538   6.226   6.191   1.515 -0.6943  1.0192 -0.3681
 7525TIP3    H122539   6.258   6.281   1.506  0.1155  0.6435 -1.4948
 7525TIP3    H222540   6.179   6.174   1.434 -1.1648  0.5442 -0.0008
 7526TIP3   OH222541   5.189   3.348   2.345  0.3258  0.2068 -0.0378
 7526TIP3    H122542   5.270   3.322   2.300  0.3909 -0.9174  0.6964
 7526TIP3    H222543   5.143   3.403   2.281  1.1765  0.0093 -0.8527
 7527TIP3   OH222544   1.913   6.765   2.658  0.5372  0.2470  0.0263
 7527TIP3    H122545   1.838   6.757   2.599  0.1174 -2.1745  0.7678
 7527TIP3    H222546   1.916   6.681   2.704  2.9017  0.7850  0.9997
 7528TIP3   OH222547   4.175   5.722   1.710 -0.2498 -0.2554 -0.1430
 7528TIP3    H122548   4.218   5.727   1.625 -0.2454 -0.4726 -0.1554
 7528TIP3    H222549   4.193   5.633   1.741  1.2696  0.3774  0.9045
 7529TIP3   OH222550   2.766   0.659   1.660 -0.4418  0.0436 -0.2363
 7529TIP3    H122551   2.857   0.669   1.687 -0.2108  0.3566 -1.0954
 7529TIP3    H222552   2.746   0.567   1.673  0.4232 -0.3152 -1.2892
 7530TIP3   OH222553   0.054   4.636   3.215 -0.0565  0.2254  0.1300
 7530TIP3    H122554   0.016   4.722   3.196 -1.2566 -0.4399 -0.6024
 7530TIP3    H222555   0.060   4.594   3.130  1.6005 -0.0081  0.3444
 7531TIP3   OH222556   1.703   3.675   1.188  0.0009 -0.4739 -0.5914
 7531TIP3    H122557   1.615   3.705   1.209  0.2870  1.3617 -1.8320
 7531TIP3    H222558   1.689   3.592   1.141 -0.9855 -0.7743  0.2020
 7532TIP3   OH222559   1.778   5.718   0.526  0.2331 -0.4171 -0.2498
 7532TIP3    H122560   1.825   5.646   0.568 -0.3787  0.3934  1.9414
 7532TIP3    H222561   1.846   5.774   0.492  0.7611 -0.9739 -0.1304
 7533TIP3   OH222562   4.931   4.536   5.912 -0.0624 -0.5110 -0.4046
 7533TIP3    H122563   5.024   4.535   5.936  0.0304  1.3243 -0.5078
 7533TIP3    H222564   4.931   4.522   5.818  0.2255  0.4930 -0.5737
 7534TIP3   OH222565   0.628   4.625   3.595 -0.5024 -0.5929  0.2274
 7534TIP3    H122566   0.695   4.586   3.539 -0.7092  0.6826 -0.9605
 7534TIP3    H222567   0.659   4.607   3.684  0.8086 -1.0433 -0.2868
 7535TIP3   OH222568   5.495   0.634   5.093 -0.3378  0.6484 -0.0236
 7535TIP3    H122569   5.504   0.729   5.102  2.7952  0.5269 -0.8369
 7535TIP3    H222570   5.521   0.599   5.178  0.2939  0.4921 -0.2726
 7536TIP3   OH222571   6.622   2.244   2.553  0.1608 -0.0642 -0.2527
 7536TIP3    H122572   6.581   2.166   2.590  0.6008 -0.3567 -0.3617
 7536TIP3    H222573   6.596   2.315   2.611 -0.1525 -0.3118 -0.0852
 7537TIP3   OH222574   7.024   1.325   2.785  0.3183  0.6344  0.0331
 7537TIP3    H122575   7.095   1.365   2.835  0.4450  0.2640  0.1488
 7537TIP3    H222576   6.945   1.348   2.834  0.1254  2.6981 -1.1106
 7538TIP3   OH222577   5.425   0.945   5.127  0.2726  0.6682  0.0901
 7538TIP3    H122578   5.486   1.013   5.155 -1.8203  2.6116  0.2070
 7538TIP3    H222579   5.366   0.989   5.066 -1.7013 -0.7826  0.8283
 7539TIP3   OH222580   0.543   0.920   4.954  0.4980 -0.5808 -0.2734
 7539TIP3    H122581   0.531   0.951   5.043  0.0052  1.7380 -1.0707
 7539TIP3    H222582   0.526   0.826   4.958  0.0247 -0.4416  1.9670
 7540TIP3   OH222583   3.104   1.704   1.243  0.5099  0.4170 -0.1951
 7540TIP3    H122584   3.151   1.783   1.216  0.2777  0.6841  0.1733
 7540TIP3    H222585   3.151   1.633   1.199  1.0530  0.7063 -0.1035
 7541TIP3   OH222586   5.300   2.273   2.746  0.1129 -0.5035  0.3974
 7541TIP3    H122587   5.360   2.233   2.685 -0.6824 -0.1930 -0.6243
 7541TIP3    H222588   5.214   2.237   2.723 -0.2170 -0.3059  1.2635
 7542TIP3   OH222589   3.270   4.065   4.691 -0.2299  0.7128  0.2856
 7542TIP3    H122590   3.337   4.016   4.644 -0.9154  1.5464 -1.6517
 7542TIP3    H222591   3.308   4.152   4.703 -0.3334  0.7059  0.6854
 7543TIP3   OH222592   5.504   0.107   1.072 -0.0034  0.0958  0.4796
 7543TIP3    H122593   5.511   0.162   0.994  1.9653 -2.8343 -1.6198
 7543TIP3    H222594   5.424   0.057   1.059 -0.0724  0.1361  0.7382
 7544TIP3   OH222595   6.879   5.556   3.412 -0.0938 -0.1267  0.0368
 7544TIP3    H122596   6.930   5.510   3.345  1.9628  0.3453  1.2028
 7544TIP3    H222597   6.911   5.522   3.495  1.2269  2.9625  0.9510
 7545TIP3   OH222598   6.320   5.697   0.744  0.3832  0.1640  0.4557
 7545TIP3    H122599   6.372   5.630   0.702  0.9426  0.3931  0.7708
 7545TIP3    H222600   6.251   5.649   0.790 -0.4731 -0.0677 -1.0103
 7546TIP3   OH222601   5.310   1.854   1.224  0.5779  0.3113  0.0083
 7546TIP3    H122602   5.367   1.922   1.261 -0.1266  0.5225  0.7258
 7546TIP3    H222603   5.356   1.772   1.242  0.6674  0.4791  0.5735
 7547TIP3   OH222604   0.402   2.120   0.110 -0.5381 -0.0648 -0.0195
 7547TIP3    H122605   0.487   2.129   0.151 -0.1999  0.6952 -0.8322
 7547TIP3    H222606   0.413   2.160   0.023 -1.8004  0.3637 -0.0156
 7548TIP3   OH222607   0.384   6.081   2.749  0.0852  0.0281 -0.4588
 7548TIP3    H122608   0.362   6.137   2.824 -1.3570  0.2334 -1.0082
 7548TIP3    H222609   0.388   6.141   2.675  0.8821 -0.2671 -0.6640
 7549TIP3   OH222610   3.396   0.477   5.734  1.2624 -0.3196 -0.0353
 7549TIP3    H122611   3.363   0.415   5.799  2.1189  0.3382  1.0629
 7549TIP3    H222612   3.488   0.453   5.722  1.1935 -0.2318 -0.7728
 7550TIP3   OH222613   5.373   2.919   4.639 -0.7223  0.2277 -0.5928
 7550TIP3    H122614   5.330   2.860   4.577  1.2138 -2.5191  0.4848
 7550TIP3    H222615   5.466   2.913   4.619 -0.2862  1.4679  0.8070
 7551TIP3   OH222616   1.445   0.817   0.926 -0.3099  0.1337  0.3159
 7551TIP3    H122617   1.420   0.854   1.010  1.4229  0.1089  0.8677
 7551TIP3    H222618   1.362   0.804   0.880 -1.3277 -0.2846  2.1827
 7552TIP3   OH222619   5.349   2.433   2.372 -0.2643 -0.4536  0.2141
 7552TIP3    H122620   5.333   2.339   2.368  1.9872 -0.9607  1.2857
 7552TIP3    H222621   5.395   2.453   2.291 -0.8081 -0.2346 -0.0477
 7553TIP3   OH222622   2.850   4.671   5.729  0.0549  0.8073  0.1218
 7553TIP3    H122623   2.826   4.659   5.637  1.4098 -0.2265 -0.1265
 7553TIP3    H222624   2.946   4.670   5.729  0.0936  1.8337  1.4285
 7554TIP3   OH222625   6.369   3.936   2.732  0.0456 -0.8148 -0.3056
 7554TIP3    H122626   6.392   3.894   2.650  0.4042 -0.2124 -0.5208
 7554TIP3    H222627   6.423   4.015   2.734 -0.9335 -0.1411 -0.1174
 7555TIP3   OH222628   6.851   0.807   5.404 -0.1779  0.6663  0.0225
 7555TIP3    H122629   6.796   0.751   5.349  1.2952  0.9233 -1.7542
 7555TIP3    H222630   6.791   0.876   5.434 -1.6800 -0.9880  1.1217
 7556TIP3   OH222631   6.699   4.278   3.918  0.1442 -0.4354  0.2694
 7556TIP3    H122632   6.624   4.228   3.950 -0.8381  0.2807 -0.7838
 7556TIP3    H222633   6.679   4.369   3.943 -0.1643 -0.0050 -1.3650
 7557TIP3   OH222634   3.021   0.880   5.228  0.6124 -0.1010  0.1492
 7557TIP3    H122635   3.076   0.831   5.289  0.4831  2.0221  2.1362
 7557TIP3    H222636   2.970   0.938   5.284 -2.3893 -0.7016 -1.7530
 7558TIP3   OH222637   0.718   0.522   4.577  0.1724 -0.5989  0.3222
 7558TIP3    H122638   0.804   0.501   4.614 -0.2626 -0.0970  1.7021
 7558TIP3    H222639   0.657   0.469   4.629 -0.4980  0.4070  0.5766
 7559TIP3   OH222640   6.707   6.113   3.930  0.0679 -0.0266 -0.5014
 7559TIP3    H122641   6.742   6.029   3.960  1.1860  0.3609 -0.6426
 7559TIP3    H222642   6.619   6.093   3.898 -0.6412 -0.6876  1.7420
 7560TIP3   OH222643   2.360   4.968   5.122 -0.4286  0.3584  0.3744
 7560TIP3    H122644   2.347   4.938   5.032  0.5822 -1.6405  0.8412
 7560TIP3    H222645   2.422   5.040   5.115 -0.0814 -0.0160 -0.5176
 7561TIP3   OH222646   0.135   1.613   3.627  0.0705  0.0650  0.0828
 7561TIP3    H122647   0.117   1.520   3.643 -0.0680 -0.0243 -0.5758
 7561TIP3    H222648   0.091   1.632   3.544 -2.1276  1.3673  1.4510
 7562TIP3   OH222649   6.368   2.794   3.629 -0.1003 -0.2832 -0.4568
 7562TIP3    H122650   6.454   2.781   3.588 -0.7967  0.2014 -2.1830
 7562TIP3    H222651   6.365   2.731   3.701  1.7724 -0.1464 -0.2245
 7563TIP3   OH222652   5.465   5.340   4.772 -0.0687 -0.0493 -0.5082
 7563TIP3    H122653   5.538   5.313   4.715 -0.5926 -1.0638 -0.7271
 7563TIP3    H222654   5.506   5.359   4.856  0.7202  1.4223 -1.1750
 7564TIP3   OH222655   1.622   1.493   1.065  0.2167 -0.0109 -0.0782
 7564TIP3    H122656   1.654   1.582   1.047  0.8532  0.3607  2.4821
 7564TIP3    H222657   1.683   1.458   1.129  0.6209 -2.7878 -1.8219
 7565TIP3   OH222658   3.936   2.087   2.990  0.2395 -0.1072  0.5731
 7565TIP3    H122659   3.991   2.163   2.969  1.3989 -1.1548 -0.4260
 7565TIP3    H222660   3.848   2.114   2.965  0.6088  0.9415  0.3247
 7566TIP3   OH222661   2.382   1.192   2.942  0.3704  0.1008  0.3048
 7566TIP3    H122662   2.413   1.281   2.961  0.8331  0.2695 -1.0664
 7566TIP3    H222663   2.374   1.190   2.847 -1.0552 -0.8858  0.4156
 7567TIP3   OH222664   5.950   6.482   5.266  0.3214 -0.5937  0.1189
 7567TIP3    H122665   5.955   6.567   5.310  3.0351 -0.5097 -0.1846
 7567TIP3    H222666   5.922   6.502   5.177 -1.7056 -0.3726  0.7560
 7568TIP3   OH222667   0.840   2.711   5.622  0.5053  0.2855  0.2033
 7568TIP3    H122668   0.766   2.663   5.586  0.3239 -0.0904  1.0394
 7568TIP3    H222669   0.917   2.670   5.584  0.2784  1.5688 -1.7538
 7569TIP3   OH222670   0.510   4.895   0.220  0.1220 -0.1892  0.6409
 7569TIP3    H122671   0.440   4.830   0.219  1.3423 -1.6173  2.3688
 7569TIP3    H222672   0.540   4.898   0.129  0.0631 -2.1132  0.5072
 7570TIP3   OH222673   5.886   6.445   1.069  0.0901  1.0018  0.4562
 7570TIP3    H122674   5.935   6.526   1.056  0.5461  0.9834  1.8492
 7570TIP3    H222675   5.884   6.433   1.164 -0.7032 -0.1791  0.3208
 7571TIP3   OH222676   7.122   5.357   5.386  0.4325  0.1069 -0.4096
 7571TIP3    H122677   7.146   5.271   5.351 -0.7508  0.6127 -2.6004
 7571TIP3    H222678   7.043   5.340   5.437 -0.2337 -0.0119 -1.4610
 7572TIP3   OH222679   1.764   5.160   5.811  0.0941 -0.7116  0.2456
 7572TIP3    H122680   1.831   5.223   5.837  0.2727 -0.8102  0.0328
 7572TIP3    H222681   1.692   5.213   5.778  0.6220 -0.6291 -0.8367
 7573TIP3   OH222682   6.725   2.999   5.426  0.3341 -0.1667 -0.1035
 7573TIP3    H122683   6.789   2.946   5.474  0.4991  0.8211  0.8025
 7573TIP3    H222684   6.722   3.082   5.473 -0.2340  0.4895 -1.2441
 7574TIP3   OH222685   1.718   5.102   2.037 -0.9859  0.1233 -0.4461
 7574TIP3    H122686   1.743   5.192   2.018 -1.3309  0.0331 -1.4060
 7574TIP3    H222687   1.737   5.090   2.130  0.5143  0.6928 -0.6619
 7575TIP3   OH222688   7.145   5.305   2.721 -0.4899 -0.1824 -0.2390
 7575TIP3    H122689   7.059   5.290   2.681 -0.9178  0.1768  0.5332
 7575TIP3    H222690   7.137   5.389   2.765  0.9628  0.9721 -2.0378
 7576TIP3   OH222691   3.383   2.520   3.738 -0.6728 -0.1148  0.2172
 7576TIP3    H122692   3.365   2.463   3.663 -0.9318 -0.5655  0.6123
 7576TIP3    H222693   3.446   2.470   3.790 -0.7040  0.0763  0.4364
 7577TIP3   OH222694   1.911   3.625   0.928 -0.7063  0.1335  0.3405
 7577TIP3    H122695   1.837   3.582   0.887  0.1338 -1.7247  0.6816
 7577TIP3    H222696   1.961   3.663   0.856 -1.2981  0.2751  0.0034
 7578TIP3   OH222697   5.973   3.656   4.775  0.3171 -0.0138 -0.2927
 7578TIP3    H122698   5.892   3.706   4.771  0.8015  0.7555 -0.6244
 7578TIP3    H222699   5.947   3.571   4.812 -0.9735 -0.4690 -2.0836
 7579TIP3   OH222700   4.025   4.310   5.326  1.2976 -0.4710  0.2903
 7579TIP3    H122701   4.017   4.222   5.288  1.4586 -0.1136 -0.5743
 7579TIP3    H222702   4.108   4.343   5.294 -0.0943  1.1726 -1.9086
 7580TIP3   OH222703   6.102   4.218   1.450  0.2157 -0.6509 -0.1615
 7580TIP3    H122704   6.023   4.179   1.411  1.0006 -0.4243 -2.0865
 7580TIP3    H222705   6.173   4.189   1.393  1.2750  0.7338  0.4102
 7581TIP3   OH222706   0.702   1.230   3.655 -0.2587  0.2139  0.3988
 7581TIP3    H122707   0.643   1.247   3.728 -2.3122 -1.4866 -0.7345
 7581TIP3    H222708   0.664   1.277   3.581  1.0069  0.7884  0.0928
 7582TIP3   OH222709   3.206   3.184   3.239  0.0930  0.3304 -0.0740
 7582TIP3    H122710   3.166   3.132   3.309 -0.2162 -0.3396 -0.7272
 7582TIP3    H222711   3.266   3.123   3.195 -1.3554  0.0381 -1.7860
 7583TIP3   OH222712   1.790   4.575   0.109 -0.2883  0.6431 -0.2390
 7583TIP3    H122713   1.718   4.553   0.168  0.3434  0.9444  0.6619
 7583TIP3    H222714   1.780   4.668   0.091 -2.0497  0.0779 -2.8123
 7584TIP3   OH222715   6.709   4.448   1.881  0.5870 -0.1851 -0.1152
 7584TIP3    H122716   6.740   4.414   1.965  2.3945  0.4303 -0.4838
 7584TIP3    H222717   6.712   4.543   1.891  1.7967 -0.0885 -1.1747
 7585TIP3   OH222718   5.238   4.425   5.267  0.4607 -0.0190  0.2118
 7585TIP3    H122719   5.321   4.405   5.224  0.3735 -0.2650  0.1578
 7585TIP3    H222720   5.187   4.472   5.201  0.0820 -0.9479 -0.1726
 7586TIP3   OH222721   5.861   4.786   5.658  0.3725 -0.0800  0.2633
 7586TIP3    H122722   5.951   4.771   5.632  0.1877  0.1332 -0.5429
 7586TIP3    H222723   5.866   4.853   5.726  0.7454  0.9825 -0.7663
 7587TIP3   OH222724   6.420   2.958   0.104 -0.2521 -0.2395 -0.1663
 7587TIP3    H122725   6.499   2.984   0.056  1.2452 -0.6411  1.9754
 7587TIP3    H222726   6.365   2.915   0.038  1.4438 -0.2587 -1.6305
 7588TIP3   OH222727   3.630   6.556   2.942  0.2360  0.0756 -0.3334
 7588TIP3    H122728   3.560   6.509   2.897 -0.7064  0.0820  1.0824
 7588TIP3    H222729   3.589   6.591   3.021  1.8554  0.0302  0.5611
 7589TIP3   OH222730   0.225   3.495   1.005  0.3256 -0.3454  0.0830
 7589TIP3    H122731   0.320   3.502   1.006  0.2742  0.3674  0.2429
 7589TIP3    H222732   0.201   3.513   0.914  0.4392 -1.9759 -0.2912
 7590TIP3   OH222733   2.606   0.731   5.013 -0.2373  0.1788 -0.4877
 7590TIP3    H122734   2.539   0.662   5.010  0.6044 -0.7860  1.1614
 7590TIP3    H222735   2.565   0.802   5.062 -0.4436  0.0538 -0.4781
 7591TIP3   OH222736   0.613   1.262   1.350  0.1678 -0.4553  0.1872
 7591TIP3    H122737   0.587   1.175   1.321 -0.2506 -0.3564  0.2608
 7591TIP3    H222738   0.697   1.248   1.394 -0.3437 -0.9772  1.0371
 7592TIP3   OH222739   5.746   6.334   4.386 -0.2554 -0.1072  0.3544
 7592TIP3    H122740   5.820   6.280   4.358  0.3871  0.9620 -0.0575
 7592TIP3    H222741   5.700   6.356   4.305  0.5842  1.5257  0.2937
 7593TIP3   OH222742   4.814   6.615   3.817  0.2741  0.2782 -0.7647
 7593TIP3    H122743   4.842   6.699   3.853  0.0022 -0.1409  0.4692
 7593TIP3    H222744   4.723   6.606   3.845  0.6603 -0.9750  0.1620
 7594TIP3   OH222745   5.540   1.225   1.144  0.6201  0.4579 -0.1333
 7594TIP3    H122746   5.573   1.194   1.060 -0.7681 -0.7791 -0.2682
 7594TIP3    H222747   5.587   1.306   1.160  0.5475  0.9892 -2.3462
 7595TIP3   OH222748   3.953   6.316   5.062  0.2773 -0.0780  0.9012
 7595TIP3    H122749   4.005   6.282   4.990 -2.5712  0.8790 -1.8076
 7595TIP3    H222750   3.990   6.403   5.079 -0.9257  1.0620 -1.7414
 7596TIP3   OH222751   3.753   6.423   3.724 -0.2823  0.0365  0.4738
 7596TIP3    H122752   3.771   6.463   3.809  2.2450 -1.2933  0.6677
 7596TIP3    H222753   3.753   6.496   3.662  0.3438  0.7517  1.2996
 7597TIP3   OH222754   3.695   6.037   3.180  0.3999  0.4327  0.0241
 7597TIP3    H122755   3.717   5.972   3.247 -0.5874 -0.9829 -0.9578
 7597TIP3    H222756   3.664   6.112   3.229  0.1776 -0.3837  1.1809
 7598TIP3   OH222757   3.287   0.214   0.691 -0.0875 -0.2609 -0.4074
 7598TIP3    H122758   3.229   0.289   0.679 -0.9835 -0.9746 -0.7060
 7598TIP3    H222759   3.363   0.233   0.637 -0.7928 -0.0574 -1.3644
 7599TIP3   OH222760   7.236   4.382   4.458  0.0888 -0.2355 -0.4395
 7599TIP3    H122761   7.207   4.326   4.386 -0.4034  0.4814 -0.8177
 7599TIP3    H222762   7.189   4.464   4.445  2.7125  1.2486 -1.4751
 7600TIP3   OH222763  -0.001   5.119   5.280  0.2077 -0.7292 -0.1119
 7600TIP3    H122764  -0.043   5.078   5.205 -1.1186 -3.5654  2.0003
 7600TIP3    H222765   0.092   5.102   5.268  0.1490 -0.0937 -1.6517
 7601TIP3   OH222766   5.648   3.992   1.911 -0.2774  0.1617 -0.0200
 7601TIP3    H122767   5.715   3.925   1.926  0.0204  0.0778 -1.5355
 7601TIP3    H222768   5.658   4.052   1.984  0.0405 -0.9799  0.9059
 7602TIP3   OH222769   2.355   2.117   5.023 -0.1127  0.0175 -0.2559
 7602TIP3    H122770   2.262   2.096   5.017 -0.5906  1.7337  0.4999
 7602TIP3    H222771   2.361   2.175   5.099  1.4670  0.5075 -0.7324
 7603TIP3   OH222772   1.795   4.263   1.435  0.6451  0.2823  0.1629
 7603TIP3    H122773   1.840   4.308   1.364 -1.8477  0.0843 -1.6602
 7603TIP3    H222774   1.762   4.182   1.397  0.8879 -0.7865  2.0830
 7604TIP3   OH222775   4.307   1.993   4.402  0.4634 -0.2287 -0.0966
 7604TIP3    H122776   4.254   1.942   4.464 -0.6761  0.2133 -0.6800
 7604TIP3    H222777   4.389   1.943   4.394  0.9192  0.0316  2.2314
 7605TIP3   OH222778   1.216   2.863   3.446 -0.1835 -0.4342  0.3358
 7605TIP3    H122779   1.297   2.813   3.434 -0.8356 -1.9931  1.8795
 7605TIP3    H222780   1.173   2.861   3.361  0.2380 -1.8162  0.1266
 7606TIP3   OH222781   6.532   4.417   3.584 -0.1743 -0.0772  0.3584
 7606TIP3    H122782   6.563   4.327   3.592 -0.6271 -0.2924 -0.1923
 7606TIP3    H222783   6.509   4.444   3.673  0.1358 -0.4396  0.5484
 7607TIP3   OH222784   2.144   0.489   5.091  0.3755 -0.4628 -0.1433
 7607TIP3    H122785   2.066   0.461   5.043  0.2867  0.4970 -0.5923
 7607TIP3    H222786   2.112   0.559   5.149  0.6157 -1.1389  0.8379
 7608TIP3   OH222787   4.243   3.079   0.193 -0.8992  0.0129  0.6826
 7608TIP3    H122788   4.305   3.139   0.151  0.6089 -2.5569 -1.1228
 7608TIP3    H222789   4.259   3.089   0.287  4.1447 -2.0433  0.3816
 7609TIP3   OH222790   3.924   1.971   2.199 -0.0607  0.1960  0.2821
 7609TIP3    H122791   4.004   1.985   2.249  0.5210  1.1784 -0.8932
 7609TIP3    H222792   3.954   1.933   2.116 -0.6465  1.9175 -0.7478
 7610TIP3   OH222793   5.723   3.572   2.741 -0.2026 -0.1927  0.1913
 7610TIP3    H122794   5.789   3.641   2.747 -1.0656  1.0718 -3.0150
 7610TIP3    H222795   5.649   3.613   2.696 -0.8022 -3.1645 -1.7575
 7611TIP3   OH222796   5.615   3.973   1.185  0.4840 -0.6457  0.2177
 7611TIP3    H122797   5.552   4.029   1.231  1.0068  1.0728 -1.0669
 7611TIP3    H222798   5.582   3.884   1.199 -1.5534  0.1145  0.5835
 7612TIP3   OH222799   4.749   0.486   3.863  0.0812  0.3271 -0.1973
 7612TIP3    H122800   4.803   0.407   3.864 -0.9067 -0.3586 -0.1116
 7612TIP3    H222801   4.800   0.548   3.810  0.7293 -0.4580 -0.5246
 7613TIP3   OH222802   6.001   4.885   1.826 -0.2965  0.1398  0.7893
 7613TIP3    H122803   5.935   4.816   1.834 -1.0843  0.7940  0.0841
 7613TIP3    H222804   6.023   4.908   1.917 -1.3209  0.1763  1.0336
 7614TIP3   OH222805   1.508   4.544   2.321 -0.9214  0.3524 -0.2600
 7614TIP3    H122806   1.430   4.580   2.364 -1.9923 -0.9444 -1.0000
 7614TIP3    H222807   1.544   4.482   2.384 -0.4518  0.9850  0.1006
 7615TIP3   OH222808   5.000   0.002   0.563  0.1287 -0.3270 -0.0967
 7615TIP3    H122809   4.992   0.083   0.612 -0.3962  0.6479 -1.6973
 7615TIP3    H222810   5.023  -0.065   0.628 -2.7077  0.4192  1.8226
 7616TIP3   OH222811   1.306   2.099   4.053  0.2888  0.1695 -0.5205
 7616TIP3    H122812   1.326   2.173   4.110 -0.5553 -0.6048  0.8317
 7616TIP3    H222813   1.214   2.111   4.028 -0.0010 -0.6466  0.0986
 7617TIP3   OH222814   6.863   2.860   5.596  0.3598 -0.3282 -0.3317
 7617TIP3    H122815   6.843   2.766   5.592  0.3458 -0.3600  0.3062
 7617TIP3    H222816   6.835   2.886   5.684 -1.7540  0.7733 -1.2582
 7618TIP3   OH222817   2.117   0.731   2.800 -0.7113 -0.3781 -0.3528
 7618TIP3    H122818   2.185   0.711   2.736 -1.8336  0.8833 -2.0394
 7618TIP3    H222819   2.058   0.656   2.798  0.2342 -1.1750  0.6230
 7619TIP3   OH222820   6.051   1.792   5.606  0.2912 -0.1792 -0.5089
 7619TIP3    H122821   6.141   1.803   5.636 -0.4197  1.1641  1.3308
 7619TIP3    H222822   6.002   1.769   5.685 -1.1683  0.2682 -1.2465
 7620TIP3   OH222823   2.312   0.242   2.647  0.0103 -0.6472  0.2220
 7620TIP3    H122824   2.312   0.257   2.553  0.7617 -1.9465 -0.0105
 7620TIP3    H222825   2.244   0.176   2.661 -0.6227  0.0945  0.6970
 7621TIP3   OH222826   0.531   6.755   0.569  0.5005 -0.3895  0.5479
 7621TIP3    H122827   0.483   6.816   0.512 -1.4040 -1.1020  1.3086
 7621TIP3    H222828   0.544   6.804   0.650  2.0690  0.1701 -0.0017
 7622TIP3   OH222829   1.009   1.580   2.358 -0.4901  0.0131 -0.0674
 7622TIP3    H122830   1.002   1.504   2.416  1.6506 -0.3053 -0.1475
 7622TIP3    H222831   0.921   1.590   2.320 -1.3462 -1.1317  1.5071
 7623TIP3   OH222832   1.482   3.104   0.622  0.5801 -0.6226  0.3148
 7623TIP3    H122833   1.454   3.184   0.578 -2.3342  0.0237  2.9325
 7623TIP3    H222834   1.402   3.052   0.629  1.7562 -2.3973  1.3243
 7624TIP3   OH222835   6.647   3.132   3.022 -0.1107 -0.2816 -0.4372
 7624TIP3    H122836   6.612   3.210   3.064  1.3629 -1.0146  2.4126
 7624TIP3    H222837   6.587   3.062   3.048 -0.3842 -0.4223 -1.4158
 7625TIP3   OH222838   6.214   2.405   3.502 -0.5528 -0.2392  0.4382
 7625TIP3    H122839   6.186   2.485   3.546 -1.5864  0.4109 -1.2924
 7625TIP3    H222840   6.134   2.370   3.463  0.4702 -0.0193 -2.0491
 7626TIP3   OH222841   0.267   6.302   2.869 -0.0650 -0.2713 -0.0067
 7626TIP3    H122842   0.350   6.348   2.881 -1.0622  1.9311 -0.9983
 7626TIP3    H222843   0.220   6.316   2.952 -0.4221  0.7033 -0.3542
 7627TIP3   OH222844   2.896   6.685   3.569 -0.0892  0.3491  0.1558
 7627TIP3    H122845   2.906   6.640   3.653 -0.5940 -0.1415 -0.0444
 7627TIP3    H222846   2.857   6.620   3.511 -0.8424  1.0410 -0.1339
 7628TIP3   OH222847   4.188   6.141   4.365 -0.0385 -0.4952 -0.6468
 7628TIP3    H122848   4.201   6.046   4.365  0.4582 -0.4365 -1.9405
 7628TIP3    H222849   4.257   6.175   4.310 -0.3293  0.6186 -0.3473
 7629TIP3   OH222850   6.299   3.865   0.527 -0.0045 -0.0541  0.0055
 7629TIP3    H122851   6.346   3.857   0.610 -3.0226 -0.2341  1.8737
 7629TIP3    H222852   6.317   3.784   0.481  3.0892  0.7441 -0.4023
 7630TIP3   OH222853   0.911   5.311   2.724  0.2738 -0.1644  0.0517
 7630TIP3    H122854   0.852   5.331   2.796 -0.3371 -0.7494 -0.2728
 7630TIP3    H222855   0.992   5.283   2.766  1.3678  3.3277  0.5519
 7631TIP3   OH222856   6.045   6.435   2.832  0.0946 -0.2956  0.0115
 7631TIP3    H122857   6.125   6.392   2.802  1.1340  0.4029  1.6403
 7631TIP3    H222858   5.974   6.385   2.791  1.3316 -1.3341 -0.9559
 7632TIP3   OH222859   2.619   4.335   5.621  0.4020 -0.3298  0.3394
 7632TIP3    H122860   2.566   4.303   5.548 -2.2009 -2.4090  2.8905
 7632TIP3    H222861   2.598   4.428   5.627 -0.0953 -0.3401 -0.9539
 7633TIP3   OH222862   5.109   0.382   2.870 -0.0248 -0.3430 -0.1359
 7633TIP3    H122863   5.153   0.297   2.868  0.8414  0.1034 -0.3774
 7633TIP3    H222864   5.180   0.446   2.872 -0.5948  0.4874 -2.7406
 7634TIP3   OH222865   2.497   1.593   4.734  0.4365 -0.6903  0.5245
 7634TIP3    H122866   2.447   1.515   4.714 -1.2725  0.0855  1.5507
 7634TIP3    H222867   2.540   1.574   4.818 -0.2425 -0.4365  0.9396
 7635TIP3   OH222868   0.267   4.292   3.810  0.3045 -0.3021  0.2376
 7635TIP3    H122869   0.319   4.217   3.840  0.4994  0.0621  0.8341
 7635TIP3    H222870   0.316   4.327   3.736  0.5404 -0.3945  0.3494
 7636TIP3   OH222871   5.637   5.052   5.894  0.2429 -0.1146  0.2175
 7636TIP3    H122872   5.545   5.051   5.922  0.4841 -0.2417  1.0342
 7636TIP3    H222873   5.637   5.106   5.814 -0.7705 -1.3183 -0.6383
 7637TIP3   OH222874   4.138   0.832   2.698  0.6132  0.7313 -0.1287
 7637TIP3    H122875   4.160   0.858   2.788 -0.1931  1.9978 -0.2810
 7637TIP3    H222876   4.062   0.885   2.675  1.0686  0.7565 -1.7227
 7638TIP3   OH222877   3.761   6.724   1.151  0.5595  0.4440  0.6957
 7638TIP3    H122878   3.708   6.780   1.209 -1.6141  0.3513 -1.0479
 7638TIP3    H222879   3.788   6.783   1.080 -3.4540 -0.7931 -2.2683
 7639TIP3   OH222880   6.465   1.901   2.649  0.1677  0.1212  0.1460
 7639TIP3    H122881   6.458   1.882   2.556  2.2696  1.0580 -0.2613
 7639TIP3    H222882   6.534   1.841   2.680  0.2708  0.5916  0.8463
 7640TIP3   OH222883   3.277   0.827   0.088  0.1555  0.4324  0.1098
 7640TIP3    H122884   3.241   0.833   0.176  3.4646  0.9071  1.5868
 7640TIP3    H222885   3.293   0.918   0.063  1.5133  0.2301  0.1348
 7641TIP3   OH222886   6.948   3.155   0.102 -0.1953 -0.3033 -0.1356
 7641TIP3    H122887   6.915   3.243   0.087  2.4264  0.7217 -0.5362
 7641TIP3    H222888   7.042   3.162   0.086  0.3973 -2.7657  1.6463
 7642TIP3   OH222889   2.108   4.144   0.700  0.2032 -0.1247 -0.0518
 7642TIP3    H122890   2.162   4.072   0.734  0.3236 -0.8914 -1.7840
 7642TIP3    H222891   2.029   4.102   0.667  0.0920  0.5838 -0.7123
 7643TIP3   OH222892   2.432   3.806   1.970  0.4172 -0.2981 -0.0863
 7643TIP3    H122893   2.415   3.892   1.931 -1.5725 -0.0135  1.2748
 7643TIP3    H222894   2.346   3.771   1.991  1.2647 -1.9330  0.8747
 7644TIP3   OH222895   5.179   6.653   3.360 -0.0351 -0.0236 -0.8364
 7644TIP3    H122896   5.135   6.583   3.311  0.1295 -0.4804 -0.3387
 7644TIP3    H222897   5.270   6.647   3.334 -0.1963  0.7185 -1.6237
 7645TIP3   OH222898   3.863   3.023   1.722  0.2479  0.2928 -0.7528
 7645TIP3    H122899   3.924   2.991   1.656 -0.8979 -0.4982 -1.4764
 7645TIP3    H222900   3.828   2.944   1.763  1.3011  0.7791  1.1837
 7646TIP3   OH222901   4.292   1.105   0.894 -0.0316  0.4161 -0.8059
 7646TIP3    H122902   4.243   1.030   0.928 -0.1145  0.0499 -1.7133
 7646TIP3    H222903   4.359   1.121   0.961 -0.7288  0.2710 -0.0496
 7647TIP3   OH222904   6.487   6.126   1.924 -0.2408 -0.3523 -0.2285
 7647TIP3    H122905   6.399   6.113   1.887 -1.0199  1.0493  1.0092
 7647TIP3    H222906   6.521   6.202   1.878 -0.5673  0.4203  0.7823
 7648TIP3   OH222907   6.702   3.758   2.664  0.0631 -0.2119 -0.0180
 7648TIP3    H122908   6.791   3.728   2.682 -0.4150 -1.5754  0.1945
 7648TIP3    H222909   6.647   3.711   2.727 -0.7496  1.1056  0.3037
 7649TIP3   OH222910   6.017   0.047   4.632  0.3487  0.3708 -0.0389
 7649TIP3    H122911   6.043   0.138   4.620  0.5433  0.1331 -1.6035
 7649TIP3    H222912   5.924   0.052   4.653 -0.4312  0.8510 -3.1399
 7650TIP3   OH222913   5.750   3.453   3.344 -0.3978 -0.0248  0.1558
 7650TIP3    H122914   5.730   3.547   3.351  1.6887  0.3892  1.3018
 7650TIP3    H222915   5.706   3.426   3.263 -1.0297  1.9338 -0.2276
 7651TIP3   OH222916   2.032   6.637   3.259  0.2759 -0.0056  0.1465
 7651TIP3    H122917   2.005   6.638   3.351  0.2212  1.3083  0.1394
 7651TIP3    H222918   2.035   6.729   3.234  1.1728 -0.2976 -0.9213
 7652TIP3   OH222919   2.708   1.643   2.415 -0.0087  0.5204  0.1026
 7652TIP3    H122920   2.746   1.708   2.473  0.0829 -0.8364  1.6407
 7652TIP3    H222921   2.780   1.619   2.356  0.4838  0.5115  0.6990
 7653TIP3   OH222922   4.682   4.642   1.341  0.0621  0.2861 -0.0785
 7653TIP3    H122923   4.635   4.721   1.314  0.7835  0.3132 -1.3208
 7653TIP3    H222924   4.774   4.663   1.327  0.2794 -0.7232 -0.2460
 7654TIP3   OH222925   0.140   6.554   1.663  0.5403 -0.1094 -0.4707
 7654TIP3    H122926   0.083   6.496   1.713  0.3118 -0.5090 -1.1716
 7654TIP3    H222927   0.197   6.495   1.613  0.4037  0.2574 -1.0758
 7655TIP3   OH222928   1.818   5.052   1.246 -0.2277 -0.4535 -0.0348
 7655TIP3    H122929   1.882   4.986   1.219 -0.0580 -1.0097  1.6233
 7655TIP3    H222930   1.863   5.102   1.313  0.5108  2.9518 -2.7606
 7656TIP3   OH222931   0.050   4.142   3.781  0.1279  0.7774 -0.1953
 7656TIP3    H122932   0.026   4.177   3.867 -2.5511  0.4778 -0.7421
 7656TIP3    H222933   0.128   4.192   3.757  0.7000  1.1923  2.1738
 7657TIP3   OH222934   6.582   1.854   5.016  0.0852 -0.0123  0.0208
 7657TIP3    H122935   6.550   1.936   4.978 -1.5558 -0.6544 -0.0786
 7657TIP3    H222936   6.537   1.848   5.101  0.5544 -0.5747  0.2372
 7658TIP3   OH222937   4.030   6.432   4.064 -0.3100 -0.2414  0.1736
 7658TIP3    H122938   4.013   6.470   4.150 -1.4807  0.6361 -0.4117
 7658TIP3    H222939   3.971   6.479   4.005  1.2023 -0.0887 -1.2970
 7659TIP3   OH222940   4.927   1.222   2.511  0.3522 -0.6443 -0.0722
 7659TIP3    H122941   4.937   1.280   2.587  0.4705  0.4722 -0.9045
 7659TIP3    H222942   4.834   1.200   2.510 -0.2065  1.5103 -1.0881
 7660TIP3   OH222943   3.390   4.979   5.545 -0.4814 -0.7363  0.7266
 7660TIP3    H122944   3.364   4.976   5.453 -0.2445 -0.9977  0.6660
 7660TIP3    H222945   3.480   4.946   5.546  0.1026  0.7825  0.8411
 7661TIP3   OH222946   3.079   1.525   0.309 -0.2735  0.3531 -0.3455
 7661TIP3    H122947   3.165   1.561   0.333  0.1132 -0.6957 -0.1166
 7661TIP3    H222948   3.027   1.602   0.284  1.2550  0.8682 -2.1913
 7662TIP3   OH222949   3.830   4.158   4.532  0.1468  0.1142 -0.4354
 7662TIP3    H122950   3.766   4.130   4.598 -0.4761  0.1569 -1.0105
 7662TIP3    H222951   3.875   4.078   4.507  0.9857  0.2238  0.6539
 7663TIP3   OH222952   2.029   2.023   2.966  0.0591 -0.1698  0.4286
 7663TIP3    H122953   1.977   2.103   2.965  1.0672  0.5036  0.5872
 7663TIP3    H222954   2.065   2.016   2.877  0.3596 -0.1847  0.5502
 7664TIP3   OH222955   5.034   6.256   0.360  0.2164 -0.6056  0.1191
 7664TIP3    H122956   5.101   6.203   0.319  1.6848  2.1580 -1.3808
 7664TIP3    H222957   4.951   6.217   0.331  1.2146 -0.8306 -2.7806
 7665TIP3   OH222958   3.901   1.886   0.096 -0.5902 -0.5940  0.2194
 7665TIP3    H122959   3.881   1.795   0.119 -0.3388 -0.7499 -0.1583
 7665TIP3    H222960   3.844   1.904   0.021  0.1140 -0.7875 -0.3704
 7666TIP3   OH222961   1.578   5.578   3.661  0.8299 -0.2853  0.4094
 7666TIP3    H122962   1.549   5.648   3.720 -0.3878 -0.5535  0.1524
 7666TIP3    H222963   1.570   5.498   3.713 -1.7869 -0.7414 -0.5217
 7667TIP3   OH222964   4.435   4.679   3.456  0.0190 -0.7541  0.2186
 7667TIP3    H122965   4.523   4.651   3.483  0.0920 -0.2628  0.5088
 7667TIP3    H222966   4.435   4.669   3.360  0.1761 -1.3407  0.2739
 7668TIP3   OH222967   2.868   2.535   4.898  0.3439  0.2535  0.0109
 7668TIP3    H122968   2.902   2.607   4.845 -0.3359 -1.0954 -2.3803
 7668TIP3    H222969   2.927   2.531   4.973  0.4857  3.1763  0.1845
 7669TIP3   OH222970   0.162   3.326   0.193 -0.5849 -0.1396 -0.1294
 7669TIP3    H122971   0.224   3.290   0.256  0.9745  1.9809 -0.3197
 7669TIP3    H222972   0.137   3.252   0.138  1.8423 -1.1045 -0.0644
 7670TIP3   OH222973   5.384   3.965   3.732  0.2576 -0.2106 -0.2633
 7670TIP3    H122974   5.332   3.884   3.733 -0.3496  0.1610  1.1049
 7670TIP3    H222975   5.322   4.033   3.704  0.4044 -0.0080 -0.1044
 7671TIP3   OH222976   2.998   0.540   2.211 -0.2124  0.1354  0.4828
 7671TIP3    H122977   3.024   0.449   2.206 -1.2318 -0.1635  0.3552
 7671TIP3    H222978   2.955   0.557   2.127  0.7937  1.0053  0.1235
 7672TIP3   OH222979   6.307   5.895   4.098 -0.4963  0.2259 -0.3387
 7672TIP3    H122980   6.230   5.881   4.153 -0.0149  0.7374  0.4842
 7672TIP3    H222981   6.271   5.914   4.011 -1.2836  0.1057 -0.0509
 7673TIP3   OH222982   3.418   0.218   2.994  0.3182  0.8409 -0.3411
 7673TIP3    H122983   3.492   0.277   3.007  1.0671 -0.0773 -0.2382
 7673TIP3    H222984   3.391   0.195   3.083  0.1660  0.8737 -0.3797
 7674TIP3   OH222985   0.654   4.855   3.412 -0.5408 -0.1186  0.1436
 7674TIP3    H122986   0.613   4.807   3.340  1.0332  0.2628 -1.0557
 7674TIP3    H222987   0.642   4.798   3.488 -0.3915 -1.5376 -0.8448
 7675TIP3   OH222988   7.097   0.089   5.025 -0.0078  0.2997  0.5667
 7675TIP3    H122989   7.127   0.037   4.950 -0.1955  1.0416 -0.0320
 7675TIP3    H222990   7.049   0.162   4.986 -1.1665  0.0495  1.4437
 7676TIP3   OH222991   4.448   0.934   2.880  0.0566 -0.5767 -0.5023
 7676TIP3    H122992   4.512   1.000   2.908  0.4558 -0.8433 -0.7669
 7676TIP3    H222993   4.484   0.900   2.798  0.2699 -1.6847  0.0372
 7677TIP3   OH222994   5.497   3.138   3.227  0.0144  0.4615 -0.0332
 7677TIP3    H122995   5.590   3.130   3.247 -0.0154  1.9181  0.7603
 7677TIP3    H222996   5.492   3.209   3.164 -0.5781  0.4799  0.0299
 7678TIP3   OH222997   4.193   3.448   0.861 -0.1318 -0.2029 -0.0396
 7678TIP3    H122998   4.149   3.385   0.804  0.4411  0.7602 -1.6235
 7678TIP3    H222999   4.129   3.518   0.872  0.6055  0.7722 -1.6001
 7679TIP3   OH223000   1.690   5.434   4.530 -0.1268 -0.7049 -0.0533
 7679TIP3    H123001   1.772   5.401   4.567 -0.6763 -0.7417  1.2006
 7679TIP3    H223002   1.689   5.402   4.440  1.4982 -0.2056 -0.2833
 7680TIP3   OH223003   0.929   2.461   4.659 -0.6088  0.0643 -0.4159
 7680TIP3    H123004   0.990   2.531   4.632 -1.8418  1.1118 -0.5848
 7680TIP3    H223005   0.972   2.419   4.733 -0.3104  1.7316  0.4127
 7681TIP3   OH223006   3.092   6.296   2.268 -0.1795  0.0770 -0.3371
 7681TIP3    H123007   3.149   6.272   2.195 -1.0177 -0.0135 -0.9800
 7681TIP3    H223008   3.064   6.385   2.248  1.1068  0.7845  0.8764
 7682TIP3   OH223009   0.719   5.536   1.931  0.0212  0.1805  0.0359
 7682TIP3    H123010   0.794   5.492   1.893 -0.9098 -0.4156 -1.1965
 7682TIP3    H223011   0.652   5.532   1.863 -0.4394  2.6118  0.2495
 7683TIP3   OH223012   6.983   2.423   5.510 -0.4825  0.4059  0.1284
 7683TIP3    H123013   7.069   2.466   5.518 -0.0110 -0.5389  0.2588
 7683TIP3    H223014   6.932   2.457   5.584  0.3429 -0.2815  1.0434
 7684TIP3   OH223015   6.992   1.198   5.172 -0.2032  0.2009  0.1441
 7684TIP3    H123016   6.921   1.160   5.223 -0.4747 -0.4895 -0.7149
 7684TIP3    H223017   7.071   1.166   5.213 -0.4182 -0.2945  0.1784
 7685TIP3   OH223018   5.225   1.219   1.731 -0.1625 -0.5607 -0.0579
 7685TIP3    H123019   5.312   1.226   1.694 -0.4645  1.9301 -0.5069
 7685TIP3    H223020   5.240   1.213   1.826  0.4980 -0.3093 -0.1405
 7686TIP3   OH223021   6.996   1.423   2.257 -0.4970 -0.3382  0.1346
 7686TIP3    H123022   6.943   1.351   2.291 -0.2608 -0.2398  0.7249
 7686TIP3    H223023   6.949   1.502   2.282 -0.1251 -0.2530  0.5761
 7687TIP3   OH223024   2.013   4.951   0.010 -0.6330 -0.1354  1.0009
 7687TIP3    H123025   2.094   4.924   0.053 -1.5110 -0.9240  2.2134
 7687TIP3    H223026   1.968   5.004   0.076 -2.1285 -1.5867  1.1815
 7688TIP3   OH223027   5.244   2.120   0.938  0.0556 -0.2222  0.4156
 7688TIP3    H123028   5.209   2.174   1.009  0.2172  1.5837 -0.7977
 7688TIP3    H223029   5.339   2.130   0.945  0.0701  0.0334 -0.0818
 7689TIP3   OH223030   2.631   2.420   1.917 -0.7546 -0.0556 -0.1981
 7689TIP3    H123031   2.677   2.395   1.997 -2.8953 -2.1200  0.5026
 7689TIP3    H223032   2.662   2.508   1.898  2.7483 -0.9324  0.6593
 7690TIP3   OH223033   3.226   2.706   4.217  0.6605  0.4424 -0.0174
 7690TIP3    H123034   3.208   2.760   4.140  3.0063 -1.3151 -2.0056
 7690TIP3    H223035   3.310   2.738   4.250  0.9564 -0.4710  0.1666
 7691TIP3   OH223036   5.152   3.827   1.834 -0.3801  0.5572 -0.0684
 7691TIP3    H123037   5.126   3.919   1.822 -0.9430  0.2368 -1.6428
 7691TIP3    H223038   5.246   3.827   1.819  0.0291  1.1903  2.1722
 7692TIP3   OH223039   1.055   3.238   3.775  0.0748  0.3138  0.3470
 7692TIP3    H123040   1.080   3.178   3.704  0.7719  0.7374  0.2332
 7692TIP3    H223041   0.970   3.274   3.747  0.4590  0.6623 -0.3933
 7693TIP3   OH223042   4.723   0.942   5.866  0.0305  0.0981  0.3494
 7693TIP3    H123043   4.810   0.976   5.842 -0.5485  1.6921  0.3593
 7693TIP3    H223044   4.723   0.944   5.962  0.5190 -1.3755  0.3908
 7694TIP3   OH223045   6.997   3.104   5.540  0.3695  0.2077 -0.4354
 7694TIP3    H123046   7.026   3.098   5.449 -1.6816  1.3483 -1.2361
 7694TIP3    H223047   6.953   3.021   5.557  0.7412 -0.0004 -0.4950
 7695TIP3   OH223048   1.853   5.103   0.558  1.0334  0.8458  0.6531
 7695TIP3    H123049   1.848   5.017   0.516  0.2719  1.6417 -0.9734
 7695TIP3    H223050   1.942   5.132   0.543  1.2549  0.4114  1.0914
 7696TIP3   OH223051   5.839   3.580   1.055 -0.0537 -0.1614 -0.1519
 7696TIP3    H123052   5.845   3.674   1.073 -0.3224 -0.5305  2.1630
 7696TIP3    H223053   5.929   3.554   1.035 -0.1506  0.7507 -1.9908
 7697TIP3   OH223054   0.559   4.646   2.459 -0.4330  0.2073  0.0707
 7697TIP3    H123055   0.545   4.657   2.365 -1.1023 -0.6491  0.0588
 7697TIP3    H223056   0.472   4.660   2.497 -0.4163 -0.6486  0.4378
 7698TIP3   OH223057   5.588   6.517   1.328 -0.3180  0.3379  0.0456
 7698TIP3    H123058   5.672   6.472   1.324 -0.0120  1.0089 -1.7985
 7698TIP3    H223059   5.529   6.464   1.275 -1.0462 -0.0439  1.1948
 7699TIP3   OH223060   2.255   4.599   4.023 -0.0104 -0.1151 -0.5610
 7699TIP3    H123061   2.192   4.551   4.076  2.0138 -1.0924  1.1222
 7699TIP3    H223062   2.306   4.650   4.087  0.5738  1.0370 -1.8993
 7700TIP3   OH223063   3.362   6.109   3.494  0.0761  0.4896  0.4468
 7700TIP3    H123064   3.282   6.084   3.447 -0.6111 -0.2175  1.9107
 7700TIP3    H223065   3.421   6.141   3.427 -0.5064 -1.3486 -1.0182
 7701TIP3   OH223066   3.081   1.740   2.183  0.0750  0.1376  0.6356
 7701TIP3    H123067   3.051   1.654   2.156  0.2857  0.3414 -0.2923
 7701TIP3    H223068   3.008   1.798   2.163 -0.0260  0.1972  1.1578
 7702TIP3   OH223069   6.826   3.619   5.522  0.3746  0.1378  0.0042
 7702TIP3    H123070   6.810   3.707   5.556  1.3703 -0.1386  1.2440
 7702TIP3    H223071   6.882   3.633   5.445  1.0844  0.5582  0.5811
 7703TIP3   OH223072   0.982   3.691   0.375  0.0298 -0.0822 -0.0521
 7703TIP3    H123073   1.048   3.721   0.312 -1.1511  0.1314 -1.2343
 7703TIP3    H223074   0.925   3.767   0.388 -0.0479 -0.2915  0.8764
 7704TIP3   OH223075   2.258   1.748   2.330  0.0676  0.3467  0.0818
 7704TIP3    H123076   2.293   1.838   2.327 -0.0531  0.3958 -2.4120
 7704TIP3    H223077   2.163   1.760   2.333  0.0550  0.3354 -0.1728
 7705TIP3   OH223078   2.385   3.039   3.736 -0.5757  0.4755 -0.4415
 7705TIP3    H123079   2.313   3.102   3.742 -1.7065 -0.9066  1.7770
 7705TIP3    H223080   2.353   2.973   3.674 -0.6314  0.5679 -0.5128
 7706TIP3   OH223081   4.191   0.797   5.730 -0.2123 -0.0521 -0.5418
 7706TIP3    H123082   4.144   0.725   5.690 -0.2870  1.4252 -3.3654
 7706TIP3    H223083   4.261   0.755   5.780 -0.6323 -2.0863 -1.5561
 7707TIP3   OH223084   6.674   2.901   3.175 -0.0875 -0.0177  0.3175
 7707TIP3    H123085   6.728   2.884   3.097 -1.6255 -1.3874 -0.5276
 7707TIP3    H223086   6.726   2.867   3.248  1.0254  0.5266 -0.1869
 7708TIP3   OH223087   5.196   5.378   5.535  0.1118  0.3208 -0.3917
 7708TIP3    H123088   5.227   5.287   5.537  1.6621  0.8390  0.0294
 7708TIP3    H223089   5.133   5.380   5.462  1.3127 -0.6996 -1.5031
 7709TIP3   OH223090   3.925   6.220   2.878 -0.5766 -0.3611  0.4299
 7709TIP3    H123091   3.896   6.233   2.968 -0.8535 -0.9460  0.4299
 7709TIP3    H223092   3.846   6.224   2.826 -0.5028 -0.7111  0.2894
 7710TIP3   OH223093   6.190   2.281   0.461  0.2835  0.2350  0.0945
 7710TIP3    H123094   6.188   2.185   0.462 -0.5810  0.1293 -2.9739
 7710TIP3    H223095   6.114   2.307   0.512  1.2073 -0.6072  2.0284
 7711TIP3   OH223096   5.943   2.872   3.298 -0.1745 -0.1517 -0.0255
 7711TIP3    H123097   5.922   2.779   3.301  0.2120 -0.2617 -0.6622
 7711TIP3    H223098   6.008   2.885   3.367  0.5719 -0.5590 -0.6519
 7712TIP3   OH223099   3.078   1.964   5.794  0.2969  0.5271  0.3786
 7712TIP3    H123100   3.025   1.891   5.764  0.2496  0.4746  0.5875
 7712TIP3    H223101   3.168   1.931   5.793  0.4432  0.9034 -0.8606
 7713TIP3   OH223102   2.349   1.792   3.890  0.1700  0.1481 -0.3740
 7713TIP3    H123103   2.286   1.720   3.884 -1.7518  1.7268 -0.1567
 7713TIP3    H223104   2.300   1.870   3.865  1.9859  1.5150  0.0569
 7714TIP3   OH223105   2.205   1.851   3.256 -0.0942  0.0330  0.1559
 7714TIP3    H123106   2.223   1.932   3.304  0.7718  0.5881 -1.0386
 7714TIP3    H223107   2.251   1.862   3.173  0.6085 -1.9693  0.2207
 7715TIP3   OH223108   4.265   0.711   4.103 -0.2385  0.0076 -0.3274
 7715TIP3    H123109   4.331   0.686   4.039 -0.6826  0.4401 -0.9724
 7715TIP3    H223110   4.293   0.797   4.134  0.2113 -0.3940  0.3903
 7716TIP3   OH223111   2.890   0.140   1.641  0.4873  0.0811  0.4195
 7716TIP3    H123112   2.984   0.124   1.644  0.4114 -0.5889 -0.3082
 7716TIP3    H223113   2.881   0.235   1.647  1.2452  0.1932 -0.0919
 7717TIP3   OH223114   6.078   3.555   2.697  0.3545 -0.7069  0.0512
 7717TIP3    H123115   6.025   3.494   2.749  0.2378 -1.4993 -0.9609
 7717TIP3    H223116   6.149   3.502   2.663  0.2986 -0.2672 -0.7832
 7718TIP3   OH223117   4.737   2.204   1.651 -0.5160 -0.2344  0.4965
 7718TIP3    H123118   4.675   2.156   1.707 -1.0467 -1.3481 -0.9898
 7718TIP3    H223119   4.800   2.138   1.624 -0.2328  0.3062 -0.1799
 7719TIP3   OH223120   6.859   0.637   4.990 -0.7876  0.7865  0.1232
 7719TIP3    H123121   6.897   0.674   4.911  2.0577 -1.1319  0.4614
 7719TIP3    H223122   6.817   0.556   4.961  1.3322 -0.5756  0.6199
 7720TIP3   OH223123   1.953   4.905   2.779 -0.0894  0.1657  0.0480
 7720TIP3    H123124   1.872   4.955   2.771  0.0304  0.3490 -0.0037
 7720TIP3    H223125   2.023   4.969   2.769  0.0638  0.0195  0.1655
 7721TIP3   OH223126   5.685   3.712   5.646 -0.6804  0.3271 -0.3633
 7721TIP3    H123127   5.742   3.787   5.632 -1.8574  1.1426 -0.8929
 7721TIP3    H223128   5.665   3.713   5.740  0.8338 -0.4790  0.0011
 7722TIP3   OH223129   4.667   3.993   2.621  0.3107 -0.1173  0.1406
 7722TIP3    H123130   4.673   3.915   2.565 -1.4558  0.4693 -0.9405
 7722TIP3    H223131   4.691   3.961   2.708  1.0678 -1.5276 -0.5409
 7723TIP3   OH223132   5.148   2.098   1.780 -0.4590  0.6553 -0.2093
 7723TIP3    H123133   5.099   2.055   1.710  1.0810  0.8816 -1.4738
 7723TIP3    H223134   5.226   2.043   1.792 -1.2004 -0.0214  2.1489
 7724TIP3   OH223135   2.574   2.330   5.685 -0.7527 -0.2400 -0.5715
 7724TIP3    H123136   2.487   2.359   5.657 -1.3375 -2.1734 -0.9166
 7724TIP3    H223137   2.635   2.372   5.624 -1.5449  0.2248 -1.0484
 7725TIP3   OH223138   5.251   2.539   1.813 -0.5019  0.2595  0.4463
 7725TIP3    H123139   5.259   2.470   1.878 -3.3194 -1.2061 -0.6136
 7725TIP3    H223140   5.248   2.620   1.864  2.4380 -0.2845  1.7361
 7726TIP3   OH223141   3.215   1.667   2.413  0.2663  0.2399  0.4184
 7726TIP3    H123142   3.305   1.696   2.399  0.7682 -1.5498 -0.3058
 7726TIP3    H223143   3.166   1.702   2.339  0.7197 -0.1703 -0.0812
 7727TIP3   OH223144   5.269   3.199   2.059 -0.4197  0.0056 -0.4863
 7727TIP3    H123145   5.253   3.116   2.103  0.0018  0.3852  0.4299
 7727TIP3    H223146   5.182   3.232   2.037 -0.6647 -0.0891  0.3030
 7728TIP3   OH223147   2.523   4.793   4.593 -0.1959 -0.3549  0.0882
 7728TIP3    H123148   2.564   4.749   4.519 -0.2596  1.7778 -1.3017
 7728TIP3    H223149   2.533   4.732   4.667 -0.1042 -2.5343 -1.6354
 7729TIP3   OH223150   5.684   2.022   4.368 -0.2844  0.0854  0.3710
 7729TIP3    H123151   5.683   1.932   4.399  0.1815 -0.1800 -0.3500
 7729TIP3    H223152   5.686   2.014   4.272 -0.6368  0.8642  0.2884
 7730TIP3   OH223153   2.630   6.474   0.337 -0.1583 -0.2614 -0.3634
 7730TIP3    H123154   2.558   6.538   0.343 -0.5160 -0.6491 -0.4878
 7730TIP3    H223155   2.656   6.476   0.246  1.3887  1.3876  0.0630
 7731TIP3   OH223156   3.613   0.577   1.725  0.3479 -0.2560 -0.2389
 7731TIP3    H123157   3.707   0.558   1.730  0.4400 -0.4111 -1.8825
 7731TIP3    H223158   3.573   0.493   1.702 -0.1916 -0.1849  0.4303
 7732TIP3   OH223159   3.150   1.509   3.814 -0.1340 -0.0965  0.3989
 7732TIP3    H123160   3.183   1.419   3.817  2.4145  0.7344 -0.6076
 7732TIP3    H223161   3.227   1.564   3.829 -0.9461  1.9751 -2.2132
 7733TIP3   OH223162   0.070   5.783   0.274 -0.9255  0.0289 -0.3317
 7733TIP3    H123163  -0.002   5.810   0.217 -0.3590  1.2554 -0.5051
 7733TIP3    H223164   0.029   5.768   0.359 -1.2200  2.0615 -0.0741
 7734TIP3   OH223165   2.983   2.613   4.041 -0.4297  0.5080  0.3587
 7734TIP3    H123166   3.077   2.613   4.062 -0.0832  2.9548 -0.8350
 7734TIP3    H223167   2.955   2.703   4.057 -1.9355  0.5117 -1.8356
 7735TIP3   OH223168   1.796   4.488   3.808  0.0388  0.1159  0.3334
 7735TIP3    H123169   1.737   4.444   3.869 -0.2127  0.7224  0.5368
 7735TIP3    H223170   1.763   4.578   3.803  0.7894  0.3982  0.2532
 7736TIP3   OH223171   4.988   1.479   3.484  0.5865 -0.0233 -0.0042
 7736TIP3    H123172   5.038   1.410   3.442  0.8952  0.5883 -0.6567
 7736TIP3    H223173   5.032   1.560   3.458  0.9802  0.3666  1.7494
 7737TIP3   OH223174   0.565   5.200   0.987 -0.5700  0.4231 -0.3659
 7737TIP3    H123175   0.628   5.261   0.948  0.3536  0.6861  1.4538
 7737TIP3    H223176   0.595   5.114   0.958  0.2574  0.5962 -0.0530
 7738TIP3   OH223177   4.326   0.786   3.666  0.0508 -0.4695  0.5701
 7738TIP3    H123178   4.262   0.855   3.682 -2.0295 -2.7514  3.2108
 7738TIP3    H223179   4.410   0.831   3.659 -1.5064  2.4591 -0.5743
 7739TIP3   OH223180   0.116   3.010   2.426 -0.9593  0.1059  0.1104
 7739TIP3    H123181   0.097   3.083   2.367 -0.5856  0.7843  0.8027
 7739TIP3    H223182   0.085   3.040   2.512 -0.4180 -0.3745  0.4810
 7740TIP3   OH223183   3.972   1.389   2.697  0.2156 -0.0169  0.0753
 7740TIP3    H123184   3.992   1.334   2.773 -0.3674  0.1893  0.3822
 7740TIP3    H223185   3.881   1.369   2.676  0.9296 -1.5009 -1.7798
 7741TIP3   OH223186   0.382   3.010   2.553  0.0851  0.2822  0.2256
 7741TIP3    H123187   0.317   3.008   2.482 -0.1722  2.1081  0.3784
 7741TIP3    H223188   0.459   2.966   2.516 -1.0141 -1.4089 -0.1528
 7742TIP3   OH223189   5.967   2.447   2.607  0.1423  0.4494  0.2711
 7742TIP3    H123190   5.979   2.512   2.538  0.3510  1.3246  1.1031
 7742TIP3    H223191   5.886   2.473   2.651 -1.2426 -1.4431 -1.0440
 7743TIP3   OH223192   0.511   3.534   3.053 -0.1009  0.0828 -0.3550
 7743TIP3    H123193   0.542   3.461   3.106  0.9171  1.0448  0.4253
 7743TIP3    H223194   0.515   3.610   3.111 -0.9016  0.8088 -1.2140
 7744TIP3   OH223195   4.592   0.448   4.328  0.2275 -0.0043 -0.1984
 7744TIP3    H123196   4.644   0.369   4.346 -0.6962 -0.5362  0.2121
 7744TIP3    H223197   4.635   0.488   4.253  0.1199 -1.4778 -1.0958
 7745TIP3   OH223198   2.317   6.472   2.118  0.1124  0.2874 -0.2673
 7745TIP3    H123199   2.411   6.470   2.100  0.1389  1.4541 -0.3035
 7745TIP3    H223200   2.291   6.563   2.104 -1.0760 -0.0675 -0.5046
 7746TIP3   OH223201   5.376   4.817   5.211 -0.7996 -0.3384  0.3893
 7746TIP3    H123202   5.289   4.851   5.189 -0.5501 -0.0281 -0.1435
 7746TIP3    H223203   5.378   4.729   5.174 -1.3300 -0.8361  1.4899
 7747TIP3   OH223204   5.757   1.334   2.283 -0.4869  0.0576 -0.3894
 7747TIP3    H123205   5.681   1.297   2.328 -0.6746  0.1433 -0.6393
 7747TIP3    H223206   5.722   1.406   2.231 -0.0365  0.9928  0.5718
 7748TIP3   OH223207   5.608   6.444   3.110  0.6634  0.1972  1.1607
 7748TIP3    H123208   5.593   6.403   3.195  0.4610  0.8350  1.4449
 7748TIP3    H223209   5.570   6.532   3.119  0.7462  0.3141  0.4506
 7749TIP3   OH223210   0.805   1.269   4.904  0.3078  0.5355  0.6855
 7749TIP3    H123211   0.791   1.181   4.870 -0.0611  0.7324  0.3243
 7749TIP3    H223212   0.899   1.283   4.895  0.1110  0.9081 -1.0593
 7750TIP3   OH223213   1.175   4.569   0.915  0.1931  0.2662  0.5220
 7750TIP3    H123214   1.100   4.615   0.876  0.0813 -0.3187  0.0223
 7750TIP3    H223215   1.251   4.615   0.881  0.0744  1.6962  2.0656
 7751TIP3   OH223216   2.358   0.783   3.705  0.0458  0.1899 -0.1311
 7751TIP3    H123217   2.401   0.865   3.679 -1.9059  0.1567 -4.0683
 7751TIP3    H223218   2.274   0.810   3.742  0.0946  0.0137  0.1123
 7752TIP3   OH223219   4.031   5.593   0.269 -0.4136 -0.1751 -0.4296
 7752TIP3    H123220   3.967   5.605   0.339  0.5678 -0.4595  0.5359
 7752TIP3    H223221   4.086   5.521   0.298  1.4889  1.2371 -0.3579
 7753TIP3   OH223222   3.634   6.052   4.498  0.1408 -0.1477  0.3709
 7753TIP3    H123223   3.694   6.075   4.568  1.1941  0.8461 -0.8164
 7753TIP3    H223224   3.551   6.094   4.522 -0.3817 -2.1055  2.3691
 7754TIP3   OH223225   0.301   1.656   4.054  0.0544  0.3065  0.2045
 7754TIP3    H123226   0.293   1.719   3.982  0.3997  0.0804 -0.0370
 7754TIP3    H223227   0.324   1.709   4.130 -0.2725  0.5437  0.1416
 7755TIP3   OH223228   2.216   1.760   4.822 -0.4912  0.3774  0.5637
 7755TIP3    H123229   2.146   1.716   4.774 -0.6192 -0.6498  1.6349
 7755TIP3    H223230   2.293   1.705   4.808 -0.3164  0.5582  0.8035
 7756TIP3   OH223231   0.355   2.389   4.697 -0.0354 -0.0226 -0.2309
 7756TIP3    H123232   0.307   2.423   4.773 -0.3170 -1.7819  0.4154
 7756TIP3    H223233   0.346   2.458   4.631 -0.2915  1.3010  1.1102
 7757TIP3   OH223234   3.617   0.945   3.034  0.3132  0.0357  0.5580
 7757TIP3    H123235   3.699   0.956   2.985  0.0630  0.7786  0.2951
 7757TIP3    H223236   3.644   0.906   3.117  0.7057 -1.5676 -0.2866
 7758TIP3   OH223237   4.226   5.077   3.848  0.4149  0.2752 -0.8416
 7758TIP3    H123238   4.258   5.165   3.870 -3.2185  1.4202  0.5012
 7758TIP3    H223239   4.141   5.091   3.808  0.0572 -2.6400 -1.3254
 7759TIP3   OH223240   2.560   4.350   1.997 -0.1503 -0.1669  0.0741
 7759TIP3    H123241   2.598   4.326   1.912 -1.5782  1.9870 -1.2437
 7759TIP3    H223242   2.470   4.318   1.993 -0.1667 -0.2423  0.8864
 7760TIP3   OH223243   4.434   5.183   1.408  0.4115  0.2903  0.7331
 7760TIP3    H123244   4.373   5.255   1.420 -1.2155 -1.2285  2.3029
 7760TIP3    H223245   4.490   5.185   1.486  0.5267  0.0037  0.6598
 7761TIP3   OH223246   0.396   6.661   3.061  0.4089 -0.0223  0.4402
 7761TIP3    H123247   0.405   6.671   3.155 -1.8219 -1.9826  0.9529
 7761TIP3    H223248   0.475   6.613   3.034  1.2198  0.8436  1.2325
 7762TIP3   OH223249   5.871   0.973   4.247 -0.2555 -0.3173  0.4081
 7762TIP3    H123250   5.953   0.944   4.286 -0.5753 -1.1978  0.4452
 7762TIP3    H223251   5.803   0.924   4.293 -0.8442  0.6809  0.6471
 7763TIP3   OH223252   0.178   1.831   0.960  0.2129  0.8568 -0.5034
 7763TIP3    H123253   0.120   1.875   1.022  1.9400 -0.2761  2.0916
 7763TIP3    H223254   0.246   1.896   0.941  0.9281  0.4831  0.6709
 7764TIP3   OH223255   3.873   0.496   5.601  0.0167  0.3561  0.5216
 7764TIP3    H123256   3.958   0.536   5.579  0.3008 -1.2811 -1.6615
 7764TIP3    H223257   3.812   0.532   5.537 -0.9526  1.4136  1.9923
 7765TIP3   OH223258   5.108   5.632   1.388 -0.1990  0.6298 -0.3055
 7765TIP3    H123259   5.157   5.575   1.448 -2.1685  1.1837  1.9775
 7765TIP3    H223260   5.162   5.711   1.380  0.9621 -0.1842 -0.8218
 7766TIP3   OH223261   2.910   5.328   5.050  0.3030 -0.1279  0.1948
 7766TIP3    H123262   2.845   5.258   5.035  0.3289 -0.4772  1.5927
 7766TIP3    H223263   2.988   5.298   5.005  0.0612 -0.6053  0.0844
 7767TIP3   OH223264   6.749   4.708   1.712 -0.5080  0.1971  0.2022
 7767TIP3    H123265   6.660   4.724   1.682  0.0075  1.2725 -0.8339
 7767TIP3    H223266   6.790   4.659   1.640  0.5907  2.3666 -0.7698
 7768TIP3   OH223267   2.595   2.029   5.461 -0.0984  0.1843  0.2964
 7768TIP3    H123268   2.678   2.024   5.508 -0.8118  2.2439  1.9703
 7768TIP3    H223269   2.534   1.977   5.513 -0.4983  1.0603  0.7246
 7769TIP3   OH223270   2.509   0.110   1.707  0.0173  0.3001  0.2410
 7769TIP3    H123271   2.588   0.062   1.731  1.0058  0.1656 -2.9244
 7769TIP3    H223272   2.539   0.179   1.649 -2.1705  0.2482 -1.0589
 7770TIP3   OH223273   7.006   2.507   4.359 -0.4636 -0.1724  0.0068
 7770TIP3    H123274   7.027   2.427   4.312 -0.2917 -0.8882  1.2679
 7770TIP3    H223275   6.921   2.534   4.324 -1.0637 -1.5357  0.3536
 7771TIP3   OH223276   1.406   4.309   4.303 -0.1962  0.2276 -0.5607
 7771TIP3    H123277   1.361   4.308   4.387  1.4380  2.3986  0.4257
 7771TIP3    H223278   1.405   4.218   4.274 -1.0274 -0.5299  1.6693
 7772TIP3   OH223279   5.519   3.204   5.693 -0.1474 -0.0942 -0.1780
 7772TIP3    H123280   5.546   3.192   5.602 -0.6313  3.2426 -0.8818
 7772TIP3    H223281   5.551   3.290   5.717  1.7796 -1.6434  3.6102
 7773TIP3   OH223282   5.874   5.240   2.660  0.4006 -0.0585 -0.4509
 7773TIP3    H123283   5.856   5.233   2.754 -3.3799  1.3581 -0.9034
 7773TIP3    H223284   5.951   5.296   2.655 -1.0421  2.3655  1.8579
 7774TIP3   OH223285   6.141   1.397   3.553 -0.3249  0.6322 -0.2797
 7774TIP3    H123286   6.066   1.357   3.598  0.3558  1.6202  1.8608
 7774TIP3    H223287   6.171   1.329   3.493 -1.6716 -0.5582  0.3170
 7775TIP3   OH223288   1.362   2.776   5.359 -0.2044  0.1576  0.7770
 7775TIP3    H123289   1.392   2.860   5.395  0.8619  0.7575 -1.3342
 7775TIP3    H223290   1.345   2.795   5.267 -0.1021 -1.9204  0.2925
 7776TIP3   OH223291   2.068   5.688   0.762 -0.5598  0.3555 -0.3371
 7776TIP3    H123292   2.029   5.767   0.798  0.1055  0.0853  1.0529
 7776TIP3    H223293   1.996   5.646   0.714 -0.9405  1.7326 -1.0239
 7777TIP3   OH223294   1.738   1.614   2.310 -0.3645 -0.4233  0.3624
 7777TIP3    H123295   1.690   1.624   2.392 -0.5656  1.0203  0.0821
 7777TIP3    H223296   1.779   1.527   2.317 -1.3321 -0.8093  1.4704
 7778TIP3   OH223297   5.760   2.575   4.893 -0.4355 -0.0049  0.2170
 7778TIP3    H123298   5.712   2.495   4.911 -0.0920  0.0479  1.5067
 7778TIP3    H223299   5.729   2.604   4.807 -2.9836  0.2482  1.1501
 7779TIP3   OH223300   2.465   2.953   5.120  0.0503  0.5674  0.2823
 7779TIP3    H123301   2.556   2.928   5.103  0.3033  1.1388  0.7749
 7779TIP3    H223302   2.422   2.949   5.034  0.5607  0.3971  0.0339
 7780TIP3   OH223303   6.486   1.014   2.063  0.2490 -0.2932 -0.8632
 7780TIP3    H123304   6.543   0.993   2.136  0.1574  1.8284 -0.1257
 7780TIP3    H223305   6.406   1.046   2.103  0.4134  1.4646 -1.8347
 7781TIP3   OH223306   5.318   3.202   5.884  0.5778  0.0744  0.4309
 7781TIP3    H123307   5.368   3.241   5.956  0.9919  1.8872 -0.7721
 7781TIP3    H223308   5.384   3.168   5.824  0.2519 -0.7538  0.5242
 7782TIP3   OH223309   4.018   4.658   2.106  0.1114 -0.4395 -0.2900
 7782TIP3    H123310   3.955   4.709   2.159  1.7031 -0.1317  1.3945
 7782TIP3    H223311   3.985   4.666   2.017 -1.8576  0.2937  0.4413
 7783TIP3   OH223312   6.182   3.844   1.589 -0.4742 -0.1584  0.2203
 7783TIP3    H123313   6.192   3.753   1.618 -0.6175 -0.1034  0.4457
 7783TIP3    H223314   6.270   3.880   1.595 -0.4109 -0.2911  0.0996
 7784TIP3   OH223315   1.374   0.144   5.352  0.5496 -0.3822 -0.4167
 7784TIP3    H123316   1.306   0.211   5.345  2.8536  1.9500 -2.7462
 7784TIP3    H223317   1.440   0.181   5.410  2.4967  0.1445 -2.7904
 7785TIP3   OH223318   6.460   2.342   3.427  0.1486 -0.5376  0.3218
 7785TIP3    H123319   6.435   2.266   3.373 -1.5276 -0.1182  0.4534
 7785TIP3    H223320   6.377   2.385   3.447  1.1857  2.7312 -1.7518
 7786TIP3   OH223321   1.961   0.496   2.807  0.0138  0.1118  0.3691
 7786TIP3    H123322   1.890   0.501   2.743  0.3118  0.1252  0.0362
 7786TIP3    H223323   2.007   0.414   2.785  0.6838  0.5893 -0.0366
 7787TIP3   OH223324   3.831   4.491   5.245 -0.5255 -0.7674  0.3599
 7787TIP3    H123325   3.816   4.471   5.153  1.4254  0.5909 -0.3071
 7787TIP3    H223326   3.883   4.418   5.278  0.2426 -0.4300 -0.0863
 7788TIP3   OH223327   2.300   4.442   5.116  0.1124  0.5741  0.3890
 7788TIP3    H123328   2.302   4.537   5.101  0.5047  0.7005  1.1727
 7788TIP3    H223329   2.214   4.427   5.157 -0.2047  0.4970 -0.3002
 7789TIP3   OH223330   3.691   2.740   3.620 -0.0110 -0.3732 -0.2784
 7789TIP3    H123331   3.696   2.682   3.696  0.6372 -0.8323 -0.6617
 7789TIP3    H223332   3.729   2.823   3.650  0.0551 -0.4884 -0.0414
 7790TIP3   OH223333   0.944   0.027   3.368  0.0524 -0.0063  0.2138
 7790TIP3    H123334   0.853   0.050   3.390  0.2317 -0.5260  1.6531
 7790TIP3    H223335   0.936  -0.027   3.290 -0.8223  0.4579 -0.0399
 7791TIP3   OH223336   3.022   5.887   4.239 -0.6860 -0.5175 -0.1209
 7791TIP3    H123337   2.932   5.852   4.241 -0.4885 -1.1222 -1.1700
 7791TIP3    H223338   3.076   5.811   4.221  0.1310 -0.2893  1.2829
 7792TIP3   OH223339   1.448   3.621   1.485 -0.4636  0.1788 -0.0061
 7792TIP3    H123340   1.395   3.542   1.474 -2.6274  1.2402  1.9202
 7792TIP3    H223341   1.539   3.591   1.480 -1.2134 -2.5660  1.4356
 7793TIP3   OH223342   6.217   1.731   4.151  0.1223  0.0610 -0.3356
 7793TIP3    H123343   6.127   1.730   4.118 -0.3240 -0.4261  0.8343
 7793TIP3    H223344   6.231   1.821   4.180 -0.0989  0.0702 -0.2536
 7794TIP3   OH223345   3.451   3.664   0.697 -0.3671  0.2456  0.0929
 7794TIP3    H123346   3.437   3.570   0.705 -2.1340  0.5408  0.9260
 7794TIP3    H223347   3.502   3.688   0.774 -2.1356  0.3365  1.2791
 7795TIP3   OH223348   6.821   2.073   0.276 -0.0931 -0.5959  0.3507
 7795TIP3    H123349   6.916   2.078   0.285 -0.0672 -2.6586  1.9483
 7795TIP3    H223350   6.787   2.084   0.365 -1.3518 -0.1245 -0.1590
 7796TIP3   OH223351   6.618   3.574   5.142  0.2309 -0.2269  0.3647
 7796TIP3    H123352   6.579   3.487   5.150  1.4170 -0.8923 -0.6756
 7796TIP3    H223353   6.594   3.603   5.054  1.1038 -0.1727  0.1310
 7797TIP3   OH223354   3.695   1.553   5.045 -0.1384  0.3020  0.1342
 7797TIP3    H123355   3.620   1.564   5.104  0.0460  0.8937  0.2631
 7797TIP3    H223356   3.754   1.625   5.068 -0.6777  1.3824 -1.7068
 7798TIP3   OH223357   1.806   2.590   0.552 -0.3835 -0.3100  0.1250
 7798TIP3    H123358   1.823   2.684   0.565 -0.3956 -0.4181  0.9715
 7798TIP3    H223359   1.710   2.582   0.560 -0.3401 -0.4585  0.5193
 7799TIP3   OH223360   5.769   2.789   1.748 -0.1362  0.0139  0.5550
 7799TIP3    H123361   5.808   2.707   1.780  1.2255  0.0054 -1.0236
 7799TIP3    H223362   5.843   2.838   1.712 -1.1929  1.2089 -0.0374
 7800TIP3   OH223363   6.805   3.918   4.792  0.6037  0.6279 -0.7270
 7800TIP3    H123364   6.786   3.866   4.869  0.0049  0.8719 -0.7057
 7800TIP3    H223365   6.726   3.912   4.738  0.9692  0.5515 -1.2723
 7801TIP3   OH223366   4.053   0.038   5.540 -0.0708  0.0724  0.0168
 7801TIP3    H123367   4.111  -0.021   5.491 -0.3560 -0.6790  0.5704
 7801TIP3    H223368   4.075   0.022   5.631 -1.1474 -0.2155  0.2358
 7802TIP3   OH223369   2.377   1.227   2.006 -0.4950 -0.4889 -0.0531
 7802TIP3    H123370   2.459   1.233   2.056 -1.1911  0.6203  1.0224
 7802TIP3    H223371   2.393   1.157   1.943  1.0305 -0.7826  0.5963
 7803TIP3   OH223372   0.283  -0.019   0.938 -0.1015 -0.3716 -0.7220
 7803TIP3    H123373   0.222  -0.045   1.007 -1.1290  1.3001 -0.9536
 7803TIP3    H223374   0.298   0.074   0.953  0.3785 -0.1828 -2.2253
 7804TIP3   OH223375   1.332   2.646   1.449 -0.4461  0.1720  0.4073
 7804TIP3    H123376   1.255   2.678   1.403  0.8236  0.1079 -1.9422
 7804TIP3    H223377   1.402   2.706   1.423  0.6125 -0.6931  1.1865
 7805TIP3   OH223378   2.089   2.237   1.885 -0.1184 -0.0124 -0.0155
 7805TIP3    H123379   2.080   2.155   1.935  0.1726  0.3378  0.6307
 7805TIP3    H223380   2.178   2.266   1.903  0.0320  0.0523 -0.8636
 7806TIP3   OH223381   4.774   5.967   5.643  0.1358 -0.1669 -0.0684
 7806TIP3    H123382   4.795   5.899   5.579  0.4599  0.3755 -0.5619
 7806TIP3    H223383   4.679   5.976   5.639  0.1076 -0.5025 -0.1012
 7807TIP3   OH223384   5.514   1.986   0.825 -0.2408 -0.0169  0.0179
 7807TIP3    H123385   5.553   2.047   0.763  0.2567 -0.0493  0.2970
 7807TIP3    H223386   5.498   1.907   0.774 -2.9443  1.0321 -0.9383
 7808TIP3   OH223387   3.740   6.354   1.972 -0.3226 -0.5233  0.4451
 7808TIP3    H123388   3.731   6.449   1.981 -0.5371 -0.5875  0.9311
 7808TIP3    H223389   3.834   6.338   1.977 -0.2912 -0.3413  0.4347
 7809TIP3   OH223390   4.758   4.496   0.175  0.0307  0.1806  0.2493
 7809TIP3    H123391   4.703   4.562   0.216  2.2405  1.5379  1.1840
 7809TIP3    H223392   4.814   4.464   0.245  0.2526 -1.4082 -0.5977
 7810TIP3   OH223393   5.225   1.553   5.397  0.0316  0.4243  0.0693
 7810TIP3    H123394   5.198   1.644   5.411 -1.2616  0.0539  0.1323
 7810TIP3    H223395   5.158   1.501   5.442  0.2157 -0.5835 -0.7753
 7811TIP3   OH223396   5.234   2.316   3.502  0.0444  0.0573  0.4335
 7811TIP3    H123397   5.149   2.360   3.507  0.3336  0.5536  1.2417
 7811TIP3    H223398   5.298   2.386   3.518  0.5821 -0.3897  0.2606
 7812TIP3   OH223399   6.174   1.989   0.450  0.9814 -0.5968  0.4448
 7812TIP3    H123400   6.145   1.959   0.364 -1.0780  1.2773  0.4076
 7812TIP3    H223401   6.107   1.959   0.511  0.2340  1.5171  0.7616
 7813TIP3   OH223402   6.073   2.245   1.958  0.2719 -0.1429  0.1798
 7813TIP3    H123403   6.001   2.272   2.016  1.2994 -1.4412  2.1690
 7813TIP3    H223404   6.112   2.170   2.002  2.3183 -0.0057 -1.2786
 7814TIP3   OH223405   6.524   0.635   1.007 -0.6138 -0.1815 -0.2184
 7814TIP3    H123406   6.561   0.718   0.977 -0.7365  0.6831  1.8684
 7814TIP3    H223407   6.493   0.653   1.096 -1.2148 -2.3061  0.0604
 7815TIP3   OH223408   3.302   1.338   5.627  0.3009 -0.0317 -0.0066
 7815TIP3    H123409   3.390   1.300   5.623 -0.6033 -2.1709 -2.0773
 7815TIP3    H223410   3.307   1.417   5.573  0.8270 -0.4763 -0.6179
 7816TIP3   OH223411   0.063   4.785   3.901 -0.3221 -0.1062  0.2314
 7816TIP3    H123412  -0.021   4.789   3.947  0.1779 -1.9180  1.4222
 7816TIP3    H223413   0.083   4.691   3.896  0.7997  0.1800 -1.6093
 7817TIP3   OH223414   6.935   1.587   1.873 -0.4510 -0.1382  0.1207
 7817TIP3    H123415   6.881   1.543   1.807  2.0047 -2.1041 -0.7171
 7817TIP3    H223416   6.886   1.667   1.894 -2.2712 -0.3825 -2.6528
 7818TIP3   OH223417   6.413   4.541   0.577  0.0483  0.3713  0.0411
 7818TIP3    H123418   6.362   4.535   0.657  0.2102 -0.8709  0.0712
 7818TIP3    H223419   6.394   4.628   0.542 -0.2490  0.8089  1.2662
 7819TIP3   OH223420   0.144   4.321   3.168  0.1752 -0.7045  0.1648
 7819TIP3    H123421   0.080   4.306   3.099  0.6070 -0.0505 -0.3909
 7819TIP3    H223422   0.096   4.367   3.236  0.2188  0.4662 -0.5749
 7820TIP3   OH223423   6.174   5.465   0.612 -0.4411 -0.9218 -0.3274
 7820TIP3    H123424   6.118   5.543   0.608  0.2057 -0.4603 -0.3934
 7820TIP3    H223425   6.180   5.444   0.705  1.1698  0.4112 -0.1003
 7821TIP3   OH223426   2.580   0.423   0.567  0.1048 -0.1601  0.1189
 7821TIP3    H123427   2.485   0.414   0.561 -0.0807  0.3255  1.8219
 7821TIP3    H223428   2.597   0.514   0.543  0.0238  0.0220  0.7302
 7822TIP3   OH223429   6.363   1.249   3.163  0.4881 -0.0908 -0.0070
 7822TIP3    H123430   6.362   1.334   3.209  0.5607 -1.3631  2.5304
 7822TIP3    H223431   6.455   1.232   3.145  0.4713  0.3654 -0.5526
 7823TIP3   OH223432   6.473   1.441   4.051 -0.2413  0.1912 -0.0958
 7823TIP3    H123433   6.395   1.411   4.099  0.0747 -1.6668 -0.6484
 7823TIP3    H223434   6.546   1.424   4.110 -0.1838  1.6214  0.2874
 7824TIP3   OH223435   4.411   5.969   2.045  0.6592 -0.4308  0.4365
 7824TIP3    H123436   4.430   6.004   2.132  2.5099  0.3133 -0.2119
 7824TIP3    H223437   4.320   5.940   2.050  0.7350 -0.4667  2.6286
 7825TIP3   OH223438   6.748   3.151   1.081  0.1980  0.1707 -0.4433
 7825TIP3    H123439   6.677   3.163   1.018 -0.2393  0.1335  0.0384
 7825TIP3    H223440   6.735   3.062   1.114 -0.4857  0.7017  0.8004
 7826TIP3   OH223441   5.387   1.410   2.708 -0.1980 -0.3799  0.2046
 7826TIP3    H123442   5.324   1.448   2.770  0.6425 -0.2643  1.0198
 7826TIP3    H223443   5.334   1.383   2.633 -1.0104  1.1353  0.1884
 7827TIP3   OH223444   1.235   1.569   2.143  0.2045 -0.3569  0.1492
 7827TIP3    H123445   1.304   1.518   2.185  0.3441 -1.0647 -0.9134
 7827TIP3    H223446   1.155   1.520   2.162 -0.1867  0.8957  2.0982
 7828TIP3   OH223447   0.230   4.273   5.182 -0.4137  0.4605  0.2047
 7828TIP3    H123448   0.324   4.287   5.191 -0.1683 -1.0424  0.2563
 7828TIP3    H223449   0.194   4.361   5.169  0.9872  1.0612  0.1611
 7829TIP3   OH223450   6.042   1.722   2.280 -0.4061 -0.2038 -0.0944
 7829TIP3    H123451   6.033   1.627   2.275  0.2716 -0.3580  1.1754
 7829TIP3    H223452   6.118   1.736   2.335 -0.5690  1.0855 -0.1620
 7830TIP3   OH223453   0.253   3.354   1.900  0.2184 -0.1225  0.1012
 7830TIP3    H123454   0.218   3.282   1.953  2.0873 -0.4233  0.9862
 7830TIP3    H223455   0.223   3.433   1.945  1.0421 -0.3761  1.1422
 7831TIP3   OH223456   6.564   0.292   2.531  0.2095 -0.3500  0.2571
 7831TIP3    H123457   6.575   0.268   2.440 -1.3458 -0.1260 -0.0245
 7831TIP3    H223458   6.475   0.263   2.553  1.1474 -1.9646  2.2223
 7832TIP3   OH223459   4.336   2.339   1.568  0.1387 -0.1455  0.3499
 7832TIP3    H123460   4.337   2.348   1.664 -0.2489 -3.4645  0.7768
 7832TIP3    H223461   4.255   2.292   1.550  0.9313 -0.8857 -1.4465
 7833TIP3   OH223462   1.461   4.924   2.254  0.2460 -0.3203 -0.7551
 7833TIP3    H123463   1.452   5.018   2.270  1.1848 -0.5826  1.6644
 7833TIP3    H223464   1.393   4.884   2.309  2.1016 -1.1908  1.0017
 7834TIP3   OH223465   2.245   1.482   1.230  0.3742 -0.0860 -0.0424
 7834TIP3    H123466   2.256   1.415   1.164 -0.0573  1.2541 -1.5309
 7834TIP3    H223467   2.263   1.564   1.185 -0.9472  0.9647  1.2158
 7835TIP3   OH223468   0.619   3.166   0.695  0.8888 -0.1967 -0.1078
 7835TIP3    H123469   0.663   3.222   0.758 -0.8993 -0.8458  1.8203
 7835TIP3    H223470   0.573   3.101   0.748 -0.9530 -0.5987 -2.0728
 7836TIP3   OH223471   2.732   5.207   0.386 -0.5135 -0.3184 -0.3805
 7836TIP3    H123472   2.808   5.184   0.333 -0.9161 -1.3487 -0.5244
 7836TIP3    H223473   2.688   5.277   0.336  1.0539  1.2720  0.3676
 7837TIP3   OH223474   1.701   3.102   4.116 -0.5411 -0.4753  0.2947
 7837TIP3    H123475   1.619   3.054   4.103 -1.3777  0.9717 -0.0636
 7837TIP3    H223476   1.674   3.194   4.119  1.2364  0.1782 -1.5077
 7838TIP3   OH223477   6.617   1.969   2.944  0.0351  0.1699 -0.1326
 7838TIP3    H123478   6.577   2.021   3.014 -0.5059 -2.0511  1.3108
 7838TIP3    H223479   6.543   1.940   2.891 -0.0104 -1.4681  0.7814
 7839TIP3   OH223480   5.849   1.659   4.968 -0.3482 -0.0908  0.7379
 7839TIP3    H123481   5.887   1.608   5.040  1.7810 -1.1337 -1.0122
 7839TIP3    H223482   5.868   1.608   4.890 -1.3075  1.7118 -0.7512
 7840TIP3   OH223483   1.041   0.133   5.293 -0.4658 -0.1096  0.1428
 7840TIP3    H123484   0.972   0.088   5.343  0.4398 -1.2179  0.4367
 7840TIP3    H223485   1.108   0.067   5.280  0.7086  1.0351  0.1538
 7841TIP3   OH223486   1.093   0.724   5.793  0.1284  0.3210  0.0642
 7841TIP3    H123487   1.128   0.808   5.763  1.4910 -0.2432 -0.0407
 7841TIP3    H223488   1.099   0.729   5.889  1.9073 -0.2826  0.0310
 7842TIP3   OH223489   4.259   0.452   0.552 -0.3733  0.0145 -0.4803
 7842TIP3    H123490   4.218   0.398   0.485  0.0895  1.2812 -1.8316
 7842TIP3    H223491   4.186   0.490   0.602 -0.7244 -0.7287 -0.4252
 7843TIP3   OH223492   4.279   1.731   0.623  0.1673 -0.0005 -0.1032
 7843TIP3    H123493   4.219   1.726   0.697  0.0406 -3.3759 -0.2763
 7843TIP3    H223494   4.354   1.781   0.656 -0.7126  0.2189  1.6605
 7844TIP3   OH223495   5.939   1.943   2.500  0.0410 -0.0704  0.0282
 7844TIP3    H123496   5.949   2.038   2.488  1.0061  0.0886  1.8473
 7844TIP3    H223497   5.954   1.907   2.412 -0.4643  1.4528 -0.7253
 7845TIP3   OH223498   0.318   5.863   0.187 -0.0297 -0.6957  0.3117
 7845TIP3    H123499   0.346   5.920   0.258 -2.5789 -0.2125  1.0143
 7845TIP3    H223500   0.231   5.834   0.211 -0.3747 -1.7682 -1.9067
 7846TIP3   OH223501   2.049   5.855   4.698 -0.2534  0.1556  0.0496
 7846TIP3    H123502   2.072   5.880   4.787  1.6745  0.0636 -0.3752
 7846TIP3    H223503   2.091   5.770   4.685 -0.8795 -0.0411 -0.8172
 7847TIP3   OH223504   5.805   2.799   3.847 -0.2741  0.7731 -0.4775
 7847TIP3    H123505   5.839   2.864   3.909 -0.8397  0.7764 -0.1644
 7847TIP3    H223506   5.827   2.714   3.887 -0.6318  0.7752 -0.2759
 7848TIP3   OH223507   3.847   3.406   5.309 -0.3593 -0.2085 -0.0899
 7848TIP3    H123508   3.758   3.439   5.311  0.7152  2.9509  1.1052
 7848TIP3    H223509   3.858   3.362   5.394 -0.1210  1.4485  0.7641
 7849TIP3   OH223510   5.292   3.012   3.062  0.3866 -0.3782  0.6705
 7849TIP3    H123511   5.374   3.058   3.081 -0.2245  1.3686 -0.6646
 7849TIP3    H223512   5.303   2.980   2.972 -1.6214  2.9828 -0.9501
 7850TIP3   OH223513   6.599   4.458   1.628 -0.4140  0.1926  0.4090
 7850TIP3    H123514   6.539   4.530   1.648 -1.2648 -0.2285 -0.5085
 7850TIP3    H223515   6.641   4.437   1.711 -0.4308  1.4943  0.7581
 7851TIP3   OH223516   0.341   0.610   1.720 -0.6877  0.7175 -0.2036
 7851TIP3    H123517   0.435   0.628   1.719 -0.2172 -1.4471 -0.8830
 7851TIP3    H223518   0.322   0.589   1.812  0.2346 -1.8947 -0.5119
 7852TIP3   OH223519   5.907   5.093   1.291  0.6781 -0.4062  0.1245
 7852TIP3    H123520   5.814   5.090   1.314  0.8091  0.2248  0.7621
 7852TIP3    H223521   5.934   5.182   1.311  0.4837  0.7434 -3.9083
 7853TIP3   OH223522   0.043   2.863   3.981 -0.7100 -0.2194 -0.4401
 7853TIP3    H123523   0.121   2.865   4.038 -0.6092  0.9027 -0.5854
 7853TIP3    H223524   0.064   2.798   3.915 -0.4624 -0.9135  0.3021
 7854TIP3   OH223525   1.358   2.991   3.840  0.5100  0.3737 -0.3289
 7854TIP3    H123526   1.410   2.964   3.763  0.9324 -2.3040  0.7802
 7854TIP3    H223527   1.278   2.939   3.834  0.0423  0.9872  0.4525
 7855TIP3   OH223528   1.377   3.039   1.647  0.0832  0.1182  0.5174
 7855TIP3    H123529   1.293   3.075   1.618 -1.0627 -2.3204  0.5997
 7855TIP3    H223530   1.426   3.025   1.565 -0.6917 -0.9649  0.2178
 7856TIP3   OH223531   0.518   6.426   2.948  0.1753  0.0919  0.1198
 7856TIP3    H123532   0.563   6.391   3.025  0.2147  0.3623  0.2226
 7856TIP3    H223533   0.587   6.438   2.883 -0.1532 -2.2203 -0.7671
 7857TIP3   OH223534   4.706   0.583   4.119  0.6825  0.2789  0.5984
 7857TIP3    H123535   4.704   0.677   4.102 -0.0203  0.3981  1.2917
 7857TIP3    H223536   4.700   0.543   4.032  1.4535  0.8565  0.2587
 7858TIP3   OH223537   2.173   6.623   2.471  0.5342 -0.2148  0.5806
 7858TIP3    H123538   2.078   6.614   2.459  0.4431 -1.6987  2.0697
 7858TIP3    H223539   2.208   6.622   2.382 -0.8515  0.8573 -0.0323
 7859TIP3   OH223540   6.483   4.993   4.284  0.6262 -0.5260  0.3561
 7859TIP3    H123541   6.433   5.071   4.263 -0.0797 -0.2880  2.6905
 7859TIP3    H223542   6.514   4.961   4.199 -1.9978  0.2930 -1.0082
 7860TIP3   OH223543   2.107   5.178   3.112 -0.0146  0.9126 -0.0415
 7860TIP3    H123544   2.044   5.245   3.085 -0.6912  0.5574  0.6246
 7860TIP3    H223545   2.090   5.165   3.205 -1.4465 -1.7625 -0.5844
 7861TIP3   OH223546   4.681   2.550   0.221  0.4562 -0.0377  0.2063
 7861TIP3    H123547   4.751   2.614   0.224 -0.7229  1.3132 -0.2141
 7861TIP3    H223548   4.688   2.502   0.304  1.3491  0.6250  0.5196
 7862TIP3   OH223549   1.712   6.543   1.667  0.0515  0.2556  0.2597
 7862TIP3    H123550   1.729   6.512   1.756  1.9279  0.4571  0.0144
 7862TIP3    H223551   1.788   6.597   1.646 -1.1754  1.6225 -0.8559
 7863TIP3   OH223552   4.138   0.995   5.333 -0.2433  0.2985  0.3230
 7863TIP3    H123553   4.072   1.035   5.389 -1.0055 -1.6565  0.9043
 7863TIP3    H223554   4.145   0.905   5.365  0.1699 -0.5437 -1.9590
 7864TIP3   OH223555   5.057   3.749   3.051 -0.0245  0.3961 -0.8351
 7864TIP3    H123556   5.124   3.702   3.100 -0.4268 -1.5725 -2.0526
 7864TIP3    H223557   5.098   3.832   3.027  1.8631 -0.6086 -1.2660
 7865TIP3   OH223558   0.869   5.690   5.885  0.3450 -0.3769  0.0760
 7865TIP3    H123559   0.964   5.698   5.889  0.5908 -1.7688 -1.5258
 7865TIP3    H223560   0.854   5.598   5.863 -1.2382  0.2928 -2.0143
 7866TIP3   OH223561   3.572   6.628   0.805  0.4738 -0.2389  0.2246
 7866TIP3    H123562   3.502   6.677   0.762 -0.3749 -1.8425 -0.2805
 7866TIP3    H223563   3.639   6.616   0.738  0.4100 -0.3142  0.1754
 7867TIP3   OH223564   2.006   2.574   3.029 -0.0483 -0.3070  0.0321
 7867TIP3    H123565   2.092   2.615   3.039 -0.5611  0.7135  0.3812
 7867TIP3    H223566   2.025   2.485   3.002  1.1290 -0.1373  0.2553
 7868TIP3   OH223567   1.546   4.160   5.148  0.1863 -0.0006 -0.3660
 7868TIP3    H123568   1.580   4.071   5.137 -2.3373 -1.5785  2.8929
 7868TIP3    H223569   1.464   4.161   5.099  1.3835  1.5562 -2.5539
 7869TIP3   OH223570   4.808   3.368   4.652  0.0194 -0.0510  0.1662
 7869TIP3    H123571   4.721   3.330   4.642 -0.0438  0.3004 -0.7277
 7869TIP3    H223572   4.866   3.293   4.663 -0.2551 -0.3569 -0.3951
 7870TIP3   OH223573   1.375   1.719   5.051 -0.0739  0.2629  0.0032
 7870TIP3    H123574   1.425   1.711   4.970  1.1690  2.2064  0.5143
 7870TIP3    H223575   1.372   1.630   5.086  1.6013 -0.1890 -0.8966
 7871TIP3   OH223576   6.303   0.429   2.305 -0.4977 -0.1412  0.2966
 7871TIP3    H123577   6.370   0.397   2.245 -1.5477  1.2781 -1.7777
 7871TIP3    H223578   6.348   0.492   2.361  0.2611 -0.5362  0.1300
 7872TIP3   OH223579   3.983   3.772   3.460 -0.4337 -0.0582 -0.2716
 7872TIP3    H123580   4.024   3.841   3.513  0.9073  0.0039 -1.3373
 7872TIP3    H223581   3.963   3.702   3.523  2.3429 -0.5490  0.1729
 7873TIP3   OH223582   1.137   2.817   3.187  0.1396 -0.0860  0.1850
 7873TIP3    H123583   1.047   2.847   3.195  0.5943  1.2583  0.3913
 7873TIP3    H223584   1.147   2.799   3.093 -1.4443 -3.9791  0.5575
 7874TIP3   OH223585   4.538   0.589   1.258 -0.3740  0.4559  0.4031
 7874TIP3    H123586   4.624   0.548   1.266 -0.9297 -1.7519 -3.1635
 7874TIP3    H223587   4.522   0.595   1.164 -3.1011  3.2049  0.8640
 7875TIP3   OH223588   5.963   5.622   0.890 -0.5254 -0.3544  0.1230
 7875TIP3    H123589   5.906   5.568   0.944  0.6847 -1.0175  0.7675
 7875TIP3    H223590   6.048   5.579   0.894  0.1527  0.8886 -0.4137
 7876TIP3   OH223591   1.034   4.884   2.467  0.7221  0.4244 -0.0856
 7876TIP3    H123592   0.953   4.871   2.418  0.4298 -0.8457  0.6781
 7876TIP3    H223593   1.096   4.822   2.428  1.0433  0.7173 -0.0469
 7877TIP3   OH223594   2.543   3.129   3.956 -0.2143  0.3609 -0.0765
 7877TIP3    H123595   2.547   3.088   4.042  0.2798 -1.3172 -0.8728
 7877TIP3    H223596   2.474   3.082   3.910  0.0678  0.7109 -0.8758
 7878TIP3   OH223597   5.050   6.759   5.154  0.2191  0.1379 -0.7374
 7878TIP3    H123598   5.111   6.693   5.187 -1.1683 -0.6385  0.3779
 7878TIP3    H223599   5.047   6.826   5.222 -1.3242 -0.6070 -0.0168
 7879TIP3   OH223600   4.701   3.762   1.283  0.4425 -0.2604 -0.5489
 7879TIP3    H123601   4.781   3.766   1.336  0.2796 -0.2487 -0.3087
 7879TIP3    H223602   4.681   3.669   1.277  0.1910 -0.2307 -0.1910
 7880TIP3   OH223603   6.399   6.761   3.650 -0.3444 -0.1220 -0.1619
 7880TIP3    H123604   6.380   6.672   3.619  0.7346 -0.1146 -0.8834
 7880TIP3    H223605   6.406   6.813   3.570 -0.4750  0.5196  0.2348
 7881TIP3   OH223606   4.738   1.732   1.809  0.1333  0.2232  0.6656
 7881TIP3    H123607   4.658   1.688   1.782  0.6589 -0.6524  0.5088
 7881TIP3    H223608   4.741   1.811   1.755  0.9539 -1.2822 -1.6638
 7882TIP3   OH223609   2.665   4.019   3.892 -0.0865  0.2985 -0.4987
 7882TIP3    H123610   2.643   4.107   3.863 -0.3918 -0.8616 -4.5283
 7882TIP3    H223611   2.582   3.983   3.925 -0.0978  1.2764  0.5899
 7883TIP3   OH223612   3.985   5.314   0.777 -0.2600  0.2724 -0.3221
 7883TIP3    H123613   3.924   5.388   0.775  1.1405  1.5355  1.1375
 7883TIP3    H223614   3.953   5.258   0.848  0.1807  0.8618  0.3490
 7884TIP3   OH223615   4.640   6.689   1.044  0.1837 -0.2722  0.0697
 7884TIP3    H123616   4.613   6.610   0.997  1.4084 -0.0906 -1.0055
 7884TIP3    H223617   4.728   6.707   1.011  1.0116  0.0356  2.2467
 7885TIP3   OH223618   6.569   2.056   3.411  0.4975  0.1427  0.4087
 7885TIP3    H123619   6.656   2.033   3.379  0.5910  1.6643 -0.5310
 7885TIP3    H223620   6.515   2.060   3.333 -0.6298 -1.4980  1.0572
 7886TIP3   OH223621   3.241   4.549   3.703 -0.1455 -0.5813 -0.2108
 7886TIP3    H123622   3.194   4.507   3.775  0.8686 -0.3303  0.6155
 7886TIP3    H223623   3.333   4.542   3.727  0.1135  1.0661 -0.6250
 7887TIP3   OH223624   4.948   3.249   1.586 -0.1312  0.2100  0.0626
 7887TIP3    H123625   4.918   3.334   1.619  1.5357  0.1865  1.8175
 7887TIP3    H223626   5.041   3.247   1.607 -0.1331 -2.0555  0.0605
 7888TIP3   OH223627   3.366   4.750   1.598  0.0558  0.3138 -0.2384
 7888TIP3    H123628   3.282   4.786   1.568  0.1411 -0.7230 -1.8584
 7888TIP3    H223629   3.345   4.704   1.679 -0.3130  2.7034  1.1048
 7889TIP3   OH223630   0.684   3.188   4.095  0.6879 -0.0963 -0.0284
 7889TIP3    H123631   0.741   3.131   4.044  0.9738  0.9746 -0.9629
 7889TIP3    H223632   0.596   3.168   4.063  0.5576 -1.4180  1.0840
 7890TIP3   OH223633   1.125   5.366   1.910  0.1400  0.1297 -0.3787
 7890TIP3    H123634   1.221   5.361   1.907  0.2089  0.6601  0.4295
 7890TIP3    H223635   1.107   5.424   1.984 -0.8050  0.2310 -0.6738
 7891TIP3   OH223636   2.957   3.888   0.775  0.0285 -0.1837  0.1782
 7891TIP3    H123637   2.934   3.858   0.687  2.6248 -0.9453 -0.3149
 7891TIP3    H223638   2.998   3.813   0.817  1.1769  0.9062  1.1009
 7892TIP3   OH223639   5.129   4.085   4.839  0.2283  0.0266  0.3345
 7892TIP3    H123640   5.150   4.015   4.901 -0.8159 -0.0296  0.6547
 7892TIP3    H223641   5.214   4.116   4.807  0.7951  0.1690  1.9076
 7893TIP3   OH223642   6.399   4.803   0.468  0.0633  0.0736  0.5865
 7893TIP3    H123643   6.392   4.872   0.402 -1.4810 -0.8020 -0.2318
 7893TIP3    H223644   6.420   4.849   0.550  1.5877  1.2253 -0.3926
 7894TIP3   OH223645   1.816   0.945   4.776 -0.4741 -0.5073 -0.3914
 7894TIP3    H123646   1.796   0.856   4.746 -0.6951 -1.6072  2.7066
 7894TIP3    H223647   1.733   0.991   4.770 -0.8616 -1.1431 -0.0137
 7895TIP3   OH223648   1.184   5.626   1.653  0.6610 -0.2558  0.4687
 7895TIP3    H123649   1.163   5.640   1.561  0.0846 -1.7160  0.3570
 7895TIP3    H223650   1.110   5.663   1.701 -1.5630 -3.8465  0.1326
 7896TIP3   OH223651   5.069   0.398   5.135  0.4064  0.2737 -1.1623
 7896TIP3    H123652   5.092   0.308   5.160  2.1140  1.3717  1.5807
 7896TIP3    H223653   5.003   0.424   5.199 -0.6197  0.7736 -2.3925
 7897TIP3   OH223654   0.359   3.755   1.294  0.0307 -1.1673 -0.5389
 7897TIP3    H123655   0.391   3.675   1.251 -2.5517 -3.1131  0.8266
 7897TIP3    H223656   0.270   3.733   1.321  0.1389  1.2970  2.2753
 7898TIP3   OH223657   0.193   6.502   0.463 -0.0733  0.4111  0.5531
 7898TIP3    H123658   0.169   6.427   0.408 -2.4911 -1.3555  3.6636
 7898TIP3    H223659   0.276   6.478   0.502 -0.3496 -0.2016  0.7736
 7899TIP3   OH223660   6.106   0.760   4.848  0.1121  0.1667 -0.2014
 7899TIP3    H123661   6.115   0.674   4.807 -0.9279 -0.8777  1.5995
 7899TIP3    H223662   6.040   0.805   4.795 -0.2431 -0.6297 -0.4534
 7900TIP3   OH223663   4.834   1.640   2.841 -0.1598 -0.1261  0.1582
 7900TIP3    H123664   4.822   1.656   2.934  0.1838  0.8537  0.0354
 7900TIP3    H223665   4.872   1.720   2.806 -0.0437 -0.5696 -0.7847
 7901TIP3   OH223666   3.282   0.652   0.790  0.0339  0.3954 -0.1217
 7901TIP3    H123667   3.369   0.622   0.763 -1.0709 -2.4557 -0.9140
 7901TIP3    H223668   3.259   0.720   0.726  1.3070  0.5277 -0.4588
 7902TIP3   OH223669   3.382   0.832   4.896  0.5082 -0.1911 -0.0804
 7902TIP3    H123670   3.359   0.741   4.912 -1.3810  0.1370 -0.7247
 7902TIP3    H223671   3.402   0.835   4.802  0.0387  0.1623 -0.1690
 7903TIP3   OH223672   7.037   0.046   3.663 -0.2072 -0.1322  0.2275
 7903TIP3    H123673   7.102   0.070   3.597 -0.4420  2.0472  0.6957
 7903TIP3    H223674   6.966   0.005   3.613 -0.1650  1.0271 -0.8501
 7904TIP3   OH223675   5.155   0.428   3.140  0.2834 -0.8831 -0.1301
 7904TIP3    H123676   5.076   0.475   3.113  0.1341 -0.1177  1.5391
 7904TIP3    H223677   5.126   0.338   3.153  0.1488 -1.0570 -1.4505
 7905TIP3   OH223678   2.856   6.082   3.581 -0.9948 -0.4427  0.3129
 7905TIP3    H123679   2.852   6.021   3.507 -3.3576  0.4844 -0.4191
 7905TIP3    H223680   2.912   6.154   3.549 -0.8583 -0.6950 -0.0310
 7906TIP3   OH223681   0.161   3.105   0.671 -0.1179  0.2231  0.0387
 7906TIP3    H123682   0.240   3.097   0.618 -0.6633  0.5008 -0.8318
 7906TIP3    H223683   0.149   3.017   0.709 -0.0358 -0.1415 -0.7572
 7907TIP3   OH223684   1.101   1.439   0.667  0.2272 -0.1267 -0.3612
 7907TIP3    H123685   1.056   1.410   0.588 -0.0295  1.4132 -0.7986
 7907TIP3    H223686   1.034   1.441   0.734 -0.1227  1.0556 -0.7358
 7908TIP3   OH223687   5.723   1.976   4.087 -1.4451  0.9263 -0.3135
 7908TIP3    H123688   5.669   1.929   4.023 -0.4014  0.5864 -0.9543
 7908TIP3    H223689   5.747   2.058   4.043 -0.5455  0.5948 -0.4437
 7909TIP3   OH223690   1.714   4.908   2.439  0.2462  0.4857  0.2281
 7909TIP3    H123691   1.621   4.883   2.440 -0.2506  2.1622  1.2992
 7909TIP3    H223692   1.759   4.832   2.403 -1.2389 -1.4389  2.1592
 7910TIP3   OH223693   1.656   5.131   1.025 -0.6909  0.0435  0.4512
 7910TIP3    H123694   1.698   5.218   1.028  0.6390 -0.5581  0.1364
 7910TIP3    H223695   1.660   5.100   1.116 -2.3726  0.8177  0.8386
 7911TIP3   OH223696   2.452   4.170   1.069  0.0157 -0.2219  0.1504
 7911TIP3    H123697   2.497   4.251   1.048 -0.0712 -0.3516 -0.5603
 7911TIP3    H223698   2.360   4.195   1.078  0.0967 -0.1150  0.6711
 7912TIP3   OH223699   4.246   3.413   0.305  0.0651  0.1766  0.2198
 7912TIP3    H123700   4.282   3.410   0.217 -0.6317  0.4807 -0.0862
 7912TIP3    H223701   4.268   3.329   0.344 -1.2553 -0.7358 -0.9146
 7913TIP3   OH223702   2.772   2.104   0.924 -0.2718  0.4396 -0.2988
 7913TIP3    H123703   2.790   2.184   0.974  1.5349 -0.2228  0.1852
 7913TIP3    H223704   2.794   2.127   0.833  0.1489  0.5253 -0.1761
 7914TIP3   OH223705   3.603   5.549   0.138 -0.2105 -0.5685 -0.0156
 7914TIP3    H123706   3.550   5.583   0.065  0.5252  0.6070 -0.0260
 7914TIP3    H223707   3.598   5.616   0.205  0.6200 -0.7905  0.2867
 7915TIP3   OH223708   3.838   5.597   3.534  0.4366  0.5819 -0.2735
 7915TIP3    H123709   3.815   5.601   3.441 -0.2718  0.8572 -0.0927
 7915TIP3    H223710   3.785   5.525   3.568  1.4930 -0.2227 -0.2945
 7916TIP3   OH223711   4.432   1.674   2.034 -0.2085  0.1034 -0.2895
 7916TIP3    H123712   4.351   1.624   2.042  0.1718 -0.4560  0.0832
 7916TIP3    H223713   4.454   1.669   1.941  0.4979 -1.5003 -0.0559
 7917TIP3   OH223714   5.459   5.933   1.803 -0.0492  0.2103  0.1622
 7917TIP3    H123715   5.506   5.925   1.886 -0.8481  0.2379  0.6355
 7917TIP3    H223716   5.408   5.852   1.797  0.2563  0.0649 -0.4648
 7918TIP3   OH223717   1.345   1.328   1.454  0.2350  0.5008 -0.1855
 7918TIP3    H123718   1.276   1.365   1.399 -0.7858  0.1936  0.8479
 7918TIP3    H223719   1.309   1.330   1.543  1.1823 -0.5378  0.2549
 7919TIP3   OH223720   1.987   4.813   5.710 -0.2650 -0.1030 -0.7303
 7919TIP3    H123721   2.037   4.832   5.790 -0.3150 -1.8761 -0.2293
 7919TIP3    H223722   1.896   4.823   5.735 -0.2369  1.3455 -1.1470
 7920TIP3   OH223723   3.085   3.062   5.920 -0.3858 -0.2028 -0.1793
 7920TIP3    H123724   3.011   3.039   5.864 -0.7402  0.5980 -0.0637
 7920TIP3    H223725   3.160   3.062   5.862 -0.6177 -0.2045 -0.4804
 7921TIP3   OH223726   0.705   3.925   1.031  0.0967  0.1799  0.0250
 7921TIP3    H123727   0.720   3.996   1.094 -0.9892  1.6537 -1.2665
 7921TIP3    H223728   0.774   3.935   0.966  0.7540 -0.8403  0.5524
 7922TIP3   OH223729   6.336   4.395   0.177 -0.2371  0.3283  0.0982
 7922TIP3    H123730   6.382   4.469   0.215  0.6581 -1.0985  1.9675
 7922TIP3    H223731   6.399   4.323   0.182 -1.2138 -0.6652 -1.2819
 7923TIP3   OH223732   0.203   0.836   0.626  0.2445 -0.3103 -0.6163
 7923TIP3    H123733   0.261   0.761   0.618  0.5178 -0.1443 -0.2530
 7923TIP3    H223734   0.210   0.881   0.542  0.5227 -0.3778 -0.6298
 7924TIP3   OH223735   3.539   0.593   3.269  0.2791  0.5195  0.3467
 7924TIP3    H123736   3.546   0.576   3.363 -0.5560 -0.6876  0.1987
 7924TIP3    H223737   3.588   0.675   3.256  0.5002  0.6363  1.8040
 7925TIP3   OH223738   4.690   2.360   5.724  0.4725  0.0470  0.3924
 7925TIP3    H123739   4.720   2.356   5.814 -0.6985 -0.3460  0.7780
 7925TIP3    H223740   4.736   2.435   5.686  2.5168 -0.9905  0.7139
 7926TIP3   OH223741   0.448   0.609   0.125  0.0601 -0.2806 -0.0179
 7926TIP3    H123742   0.510   0.605   0.053 -0.7708  0.9062 -0.8365
 7926TIP3    H223743   0.390   0.535   0.111  0.0692 -0.2143 -0.4125
 7927TIP3   OH223744   1.754   0.921   1.667 -0.3835  0.2980 -0.1251
 7927TIP3    H123745   1.819   0.907   1.736 -0.4942  1.1810  0.1695
 7927TIP3    H223746   1.725   1.011   1.679 -0.6437  0.3620 -1.1293
 7928TIP3   OH223747   2.641   5.381   4.621  0.8561  0.0764  0.6642
 7928TIP3    H123748   2.636   5.425   4.536  0.1297 -1.1170  0.0669
 7928TIP3    H223749   2.661   5.290   4.600  0.7433 -0.2143  1.7800
 7929TIP3   OH223750   0.890   0.956   4.238  0.4923 -0.7439 -0.7227
 7929TIP3    H123751   0.921   0.884   4.292 -2.0376 -1.2316  0.1901
 7929TIP3    H223752   0.795   0.953   4.245  0.2132  3.8978  1.0459
 7930TIP3   OH223753   0.304   6.379   5.017  0.1120  0.1279 -0.0504
 7930TIP3    H123754   0.294   6.284   5.014  0.7778  0.0579 -0.2340
 7930TIP3    H223755   0.355   6.396   5.096  1.1593  0.2119 -0.7214
 7931TIP3   OH223756   3.071   6.601   3.201 -0.2423 -0.1600 -0.7319
 7931TIP3    H123757   3.104   6.677   3.248 -1.2723  0.1211 -0.4425
 7931TIP3    H223758   3.128   6.529   3.229 -0.3205  0.1667  0.3193
 7932TIP3   OH223759   5.328   5.083   1.490 -0.0643 -0.5731 -0.0076
 7932TIP3    H123760   5.290   5.011   1.440  0.9969 -0.7663 -0.5670
 7932TIP3    H223761   5.406   5.108   1.440  0.2747  0.1262  0.8460
 7933TIP3   OH223762   5.368   4.119   1.044  0.0720  0.2162 -0.4172
 7933TIP3    H123763   5.318   4.171   0.981  1.9593  0.9338 -1.3992
 7933TIP3    H223764   5.373   4.032   1.005 -0.9357 -0.0635  0.0230
 7934TIP3   OH223765   5.132   1.437   2.206  0.1293  0.3427  0.2312
 7934TIP3    H123766   5.087   1.508   2.161  0.2626  0.7927  0.8014
 7934TIP3    H223767   5.074   1.361   2.194 -0.9845  0.9984  1.2684
 7935TIP3   OH223768   0.081   3.822   3.411  0.1354 -0.3580  0.0467
 7935TIP3    H123769   0.021   3.753   3.437  0.6047 -0.7547  0.0943
 7935TIP3    H223770   0.095   3.809   3.317 -0.9076  0.5675 -0.2591
 7936TIP3   OH223771   3.954   3.188   5.768  0.1862  0.1464 -0.0980
 7936TIP3    H123772   3.873   3.230   5.798 -0.3415 -0.5187 -0.5377
 7936TIP3    H223773   3.995   3.155   5.848  0.8060  1.8004  0.2866
 7937TIP3   OH223774   4.225   5.122   1.050  0.1792 -0.2017 -0.2978
 7937TIP3    H123775   4.211   5.068   1.128  1.5247 -0.6184 -0.3123
 7937TIP3    H223776   4.179   5.076   0.980 -0.7518 -0.0052  0.1802
 7938TIP3   OH223777   0.585   3.661   4.221  0.2209 -0.2562 -0.0888
 7938TIP3    H123778   0.586   3.753   4.196  0.4756 -0.4593 -0.8631
 7938TIP3    H223779   0.547   3.616   4.145  0.1245 -0.7888  0.2697
 7939TIP3   OH223780   4.040   2.672   1.442  0.3587 -0.8081 -0.3516
 7939TIP3    H123781   3.994   2.593   1.415  1.5416 -1.2021 -1.3228
 7939TIP3    H223782   4.108   2.642   1.502 -0.4950 -0.2589  0.9205
 7940TIP3   OH223783   1.671   2.552   0.315  0.2533  0.4261  0.1697
 7940TIP3    H123784   1.740   2.583   0.374  0.7028  0.8508 -0.5713
 7940TIP3    H223785   1.714   2.545   0.230 -0.0408 -1.4802  0.1489
 7941TIP3   OH223786   3.522   6.620   3.869 -0.0125  0.4628  0.0539
 7941TIP3    H123787   3.578   6.694   3.845  3.2221 -2.0827 -1.0922
 7941TIP3    H223788   3.551   6.596   3.957  0.0660 -0.3013 -0.1712
 7942TIP3   OH223789   3.463   5.413   4.304  1.2169 -0.1109 -0.5276
 7942TIP3    H123790   3.470   5.461   4.222 -1.0797 -0.4651 -0.9788
 7942TIP3    H223791   3.397   5.460   4.354  1.1633 -1.0312  0.3022
 7943TIP3   OH223792   0.328   2.715   3.964 -0.6010  0.0294 -0.6119
 7943TIP3    H123793   0.265   2.735   3.895 -0.1767  0.8501 -0.7661
 7943TIP3    H223794   0.409   2.757   3.936 -0.5128  0.6687  0.5417
 7944TIP3   OH223795   2.939   5.651   0.196  0.2858 -0.0963 -0.0669
 7944TIP3    H123796   2.895   5.715   0.253 -0.9920  0.4490 -1.6110
 7944TIP3    H223797   3.001   5.608   0.254 -2.8661 -1.5900  2.5377
 7945TIP3   OH223798   4.369   5.325   3.860 -0.0539  0.0254 -0.0644
 7945TIP3    H123799   4.294   5.381   3.839 -0.5817 -0.7930 -0.4091
 7945TIP3    H223800   4.445   5.375   3.832 -0.5151  0.5529 -0.3972
 7946TIP3   OH223801   7.227   4.050   0.649 -0.5521 -0.1373  0.1394
 7946TIP3    H123802   7.241   3.956   0.638 -1.3992 -0.4035  1.2077
 7946TIP3    H223803   7.145   4.057   0.698 -1.2348  1.2012 -1.1305
 7947TIP3   OH223804   1.924   1.125   5.144 -0.1149  0.0416 -0.3447
 7947TIP3    H123805   1.909   1.132   5.050 -0.4857 -0.1974 -0.3042
 7947TIP3    H223806   1.998   1.183   5.161 -0.1199  0.1712 -0.7656
 7948TIP3   OH223807   0.976   0.174   2.493  0.0870  0.1108  0.1183
 7948TIP3    H123808   0.901   0.233   2.483 -0.4247 -0.5391 -0.0374
 7948TIP3    H223809   1.046   0.214   2.442 -0.4797  0.2118 -0.5975
 7949TIP3   OH223810   6.582   6.783   0.697 -0.4689 -0.2062 -0.5790
 7949TIP3    H123811   6.552   6.747   0.780  0.8351 -1.0392 -0.4495
 7949TIP3    H223812   6.591   6.877   0.714  2.2813 -0.6433  1.0906
 7950TIP3   OH223813   2.136   2.977   5.666  0.0024  0.1344 -0.0650
 7950TIP3    H123814   2.056   3.022   5.640 -0.7627 -1.6378 -0.9668
 7950TIP3    H223815   2.120   2.948   5.755 -0.8610 -1.1544 -0.5996
 7951TIP3   OH223816   4.592   0.984   4.239  0.5127 -0.1666  0.2402
 7951TIP3    H123817   4.568   1.052   4.301  1.8389  1.3603 -0.8397
 7951TIP3    H223818   4.550   1.009   4.157 -0.1051 -1.4124  0.1517
 7952TIP3   OH223819   5.853   0.131   3.875  0.1026 -0.1480  0.1043
 7952TIP3    H123820   5.912   0.156   3.946  0.5020 -1.5412  0.2879
 7952TIP3    H223821   5.775   0.098   3.919  0.1017 -0.4411 -0.1212
 7953TIP3   OH223822   5.006   5.894   3.053 -1.0652 -0.0800 -0.0814
 7953TIP3    H123823   4.917   5.871   3.078 -0.6044 -0.7168  1.0513
 7953TIP3    H223824   5.033   5.959   3.117 -1.5467  2.0208 -1.8867
 7954TIP3   OH223825   4.520   5.116   0.362 -0.1130 -0.2676 -0.4183
 7954TIP3    H123826   4.434   5.075   0.348  0.1482 -1.3510  0.9360
 7954TIP3    H223827   4.499   5.206   0.389 -0.7783 -0.2033 -1.1098
 7955TIP3   OH223828   3.730   5.980   2.726 -0.0845 -0.2922 -0.1867
 7955TIP3    H123829   3.809   5.991   2.674 -0.3619 -0.1826 -0.5824
 7955TIP3    H223830   3.762   5.943   2.809  0.3984 -0.0909 -0.2763
 7956TIP3   OH223831   6.745   0.205   5.727  0.7491 -0.0008 -0.2735
 7956TIP3    H123832   6.801   0.142   5.682  0.6990 -1.4323  1.5681
 7956TIP3    H223833   6.788   0.289   5.713  0.8046 -0.3701 -2.8155
 7957TIP3   OH223834   2.933   0.310   0.957 -0.0898  0.1392 -0.0009
 7957TIP3    H123835   3.019   0.346   0.933  0.1364 -0.9985 -1.0082
 7957TIP3    H223836   2.940   0.293   1.050  2.2241 -3.4423 -0.6181
 7958TIP3   OH223837   6.701   4.946   0.145 -0.4075  0.7362  0.3403
 7958TIP3    H123838   6.619   4.994   0.149 -1.9906 -1.7918  0.2454
 7958TIP3    H223839   6.683   4.873   0.086  1.0183 -1.4369  2.4265
 7959TIP3   OH223840   4.511   5.008   4.504 -0.2143 -0.6626  0.3732
 7959TIP3    H123841   4.518   5.047   4.591  0.5777 -1.7687  0.8330
 7959TIP3    H223842   4.589   4.953   4.496 -0.3452 -0.6878 -0.9906
 7960TIP3   OH223843   2.286   0.892   5.751 -0.6663 -0.2063 -0.0427
 7960TIP3    H123844   2.299   0.798   5.764 -0.6628 -0.2419 -0.2995
 7960TIP3    H223845   2.371   0.924   5.721 -0.8491 -0.2416 -0.6167
 7961TIP3   OH223846   1.534   6.033   1.959 -0.7755 -0.0573  0.3182
 7961TIP3    H123847   1.557   6.029   1.866 -1.0158  0.3162  0.2412
 7961TIP3    H223848   1.547   6.125   1.982 -1.9999  0.1283  0.3200
 7962TIP3   OH223849   4.315   5.959   1.408  0.3564  0.1546 -0.3371
 7962TIP3    H123850   4.250   6.004   1.353 -0.7360  0.4097  1.0940
 7962TIP3    H223851   4.339   6.024   1.474  1.3687 -0.2616 -0.2801
 7963TIP3   OH223852   3.591   1.389   4.541  0.1464  0.3140 -0.0015
 7963TIP3    H123853   3.562   1.445   4.614 -0.3156  0.2961 -0.1659
 7963TIP3    H223854   3.548   1.425   4.464 -1.9149 -1.5103  0.1828
 7964TIP3   OH223855   0.696   2.472   0.359  0.0976  0.2867  0.2199
 7964TIP3    H123856   0.606   2.490   0.331 -0.1938  0.0986  1.0131
 7964TIP3    H223857   0.710   2.380   0.337  0.8671  0.8388 -1.9009
 7965TIP3   OH223858   3.982   2.701   2.664  0.0423  0.5943  0.5539
 7965TIP3    H123859   3.980   2.607   2.685  0.4615  0.5848  0.5625
 7965TIP3    H223860   4.074   2.725   2.674 -0.2066  1.2037  1.4091
 7966TIP3   OH223861   2.459   6.685   0.350  0.0636  0.1426 -0.8286
 7966TIP3    H123862   2.433   6.744   0.279  1.6524  1.1217 -0.6525
 7966TIP3    H223863   2.496   6.743   0.417  1.6985 -1.0153 -0.6536
 7967TIP3   OH223864   5.028   6.772   2.315  0.0124 -0.0977  0.2954
 7967TIP3    H123865   4.977   6.800   2.240  3.2169 -0.3418 -2.1777
 7967TIP3    H223866   5.004   6.680   2.327 -1.7450  0.3884  0.7097
 7968TIP3   OH223867   3.207   2.402   1.182 -0.1279 -0.5431  0.1182
 7968TIP3    H123868   3.218   2.371   1.092 -2.4844 -0.8594 -0.1176
 7968TIP3    H223869   3.156   2.483   1.174  0.4243 -0.0721  1.1377
 7969TIP3   OH223870   7.093   0.719   4.774 -0.1773  0.6419  0.3544
 7969TIP3    H123871   7.161   0.716   4.841  0.9337 -0.8495 -0.7563
 7969TIP3    H223872   7.139   0.750   4.696 -0.5676 -1.0385 -0.5849
 7970TIP3   OH223873   4.495   1.613   1.751 -0.5080 -0.0714 -0.1884
 7970TIP3    H123874   4.484   1.524   1.786  1.0754 -0.3734 -0.3902
 7970TIP3    H223875   4.453   1.610   1.665 -1.2494 -0.3503  0.1696
 7971TIP3   OH223876   1.102   2.898   3.805  0.2563 -0.1025 -0.0444
 7971TIP3    H123877   1.118   2.914   3.712 -0.0620 -0.0986 -0.0994
 7971TIP3    H223878   1.027   2.838   3.807 -1.2022  1.6349  0.2437
 7972TIP3   OH223879   0.751   2.576   1.895 -0.1133 -0.2301  0.3030
 7972TIP3    H123880   0.757   2.541   1.806  0.9442  0.3735  0.1151
 7972TIP3    H223881   0.746   2.499   1.951 -0.3076 -0.6246 -0.2487
 7973TIP3   OH223882   0.048   1.784   3.061  0.6000 -0.0196  0.0683
 7973TIP3    H123883   0.025   1.694   3.039  1.2756 -0.4420  1.0207
 7973TIP3    H223884   0.126   1.802   3.009 -1.1215  1.0411 -2.3279
 7974TIP3   OH223885   5.027   3.433   5.468 -0.4551  0.2715 -0.6872
 7974TIP3    H123886   5.002   3.423   5.560 -1.4412  0.3284 -0.9348
 7974TIP3    H223887   5.067   3.520   5.463  2.9863 -1.0850  0.3702
 7975TIP3   OH223888   6.544   0.118   2.283 -0.0893 -0.1653  0.3016
 7975TIP3    H123889   6.585   0.198   2.248  2.0838 -0.0706  2.7538
 7975TIP3    H223890   6.593   0.047   2.243 -0.2881 -0.1983  0.1136
 7976TIP3   OH223891   6.451   5.483   1.672 -0.4316 -0.0142  0.0344
 7976TIP3    H123892   6.398   5.502   1.594 -1.6970  0.8028  1.0463
 7976TIP3    H223893   6.537   5.461   1.638 -0.3403  2.4017 -1.5544
 7977TIP3   OH223894   3.457   5.657   0.588 -0.3779  0.1555 -0.6746
 7977TIP3    H123895   3.457   5.619   0.676  1.8669  0.7128 -0.3792
 7977TIP3    H223896   3.514   5.734   0.595 -2.4816  1.9503 -1.9512
 7978TIP3   OH223897   6.620   0.448   5.628 -0.0503 -0.1105 -0.1384
 7978TIP3    H123898   6.626   0.391   5.705 -1.0278 -0.1525 -0.0858
 7978TIP3    H223899   6.677   0.522   5.649  0.5377 -0.6339  0.1660
 7979TIP3   OH223900   7.032   3.055   1.631  0.1567  0.0597  0.0251
 7979TIP3    H123901   7.012   2.987   1.567 -0.0219 -1.3243  1.4547
 7979TIP3    H223902   7.124   3.076   1.616  0.9914 -2.4014  1.1363
 7980TIP3   OH223903   1.715   6.070   1.389 -0.0352 -0.8823 -0.4275
 7980TIP3    H123904   1.769   6.108   1.458  0.0677 -2.4646  0.4123
 7980TIP3    H223905   1.625   6.090   1.415  0.0515 -0.2143 -0.6235
 7981TIP3   OH223906   6.811   5.580   5.493  0.0148 -0.5012  0.9408
 7981TIP3    H123907   6.724   5.618   5.509 -0.9263 -2.2725  0.2724
 7981TIP3    H223908   6.800   5.487   5.512  2.1834 -0.5456  2.2875
 7982TIP3   OH223909   5.184   3.303   4.091  0.3098  0.2133 -0.1085
 7982TIP3    H123910   5.105   3.341   4.054 -0.1580  0.4331  1.0607
 7982TIP3    H223911   5.252   3.367   4.073  0.5248 -0.5173 -2.1994
 7983TIP3   OH223912   6.654   3.889   4.536  0.6160 -0.5101  0.7364
 7983TIP3    H123913   6.722   3.834   4.498  0.1663 -0.1209 -0.6757
 7983TIP3    H223914   6.683   3.979   4.521 -0.2452 -0.3378  0.0264
 7984TIP3   OH223915   2.445   1.988   2.847  0.0318 -0.1877  0.2200
 7984TIP3    H123916   2.514   1.993   2.782  1.0919 -0.3472  1.2972
 7984TIP3    H223917   2.435   2.078   2.878 -0.0229 -0.2206  0.2985
 7985TIP3   OH223918   0.510   1.237   3.862  0.2699 -0.0402 -0.8540
 7985TIP3    H123919   0.516   1.176   3.935 -1.5308  1.3164  0.5312
 7985TIP3    H223920   0.492   1.322   3.903  0.9617  1.1122 -2.7960
 7986TIP3   OH223921   0.308   2.656   5.519  0.6800 -0.0464  0.1869
 7986TIP3    H123922   0.274   2.616   5.599  0.4307  0.8204  0.5301
 7986TIP3    H223923   0.286   2.749   5.528 -0.0085 -0.0545 -1.2380
 7987TIP3   OH223924   7.156   0.567   1.918 -0.0598  0.2954 -0.3087
 7987TIP3    H123925   7.190   0.627   1.983  0.2253  1.0421 -1.1206
 7987TIP3    H223926   7.173   0.611   1.834 -1.1411 -0.2653 -0.8373
 7988TIP3   OH223927   3.786   6.793   4.375 -0.4087 -0.4118  0.0737
 7988TIP3    H123928   3.869   6.746   4.386 -0.9594 -1.5011 -0.2924
 7988TIP3    H223929   3.734   6.769   4.451 -0.2368  0.6450  0.5461
 7989TIP3   OH223930   0.092   4.467   2.570 -0.7168 -0.0815 -0.2165
 7989TIP3    H123931   0.016   4.524   2.556  1.1316  2.8772  0.8781
 7989TIP3    H223932   0.055   4.380   2.583 -3.7918  0.9523 -1.2408
 7990TIP3   OH223933   3.772   0.604   5.373  0.1285 -0.3099 -0.2596
 7990TIP3    H123934   3.861   0.624   5.345  0.3196  1.0608  1.1498
 7990TIP3    H223935   3.722   0.594   5.292  1.3874 -0.3008 -1.0619
 7991TIP3   OH223936   5.336   4.153   4.686  0.2374  0.1126 -0.4002
 7991TIP3    H123937   5.290   4.101   4.620 -0.1704  1.6125 -1.3349
 7991TIP3    H223938   5.316   4.244   4.664 -0.2565  0.6688  2.0643
 7992TIP3   OH223939   5.397   5.355   0.455 -0.2837 -0.0348  0.3969
 7992TIP3    H123940   5.424   5.325   0.369 -1.4836  0.0782 -0.0430
 7992TIP3    H223941   5.473   5.340   0.511  0.4665 -0.2333 -0.6446
 7993TIP3   OH223942   2.602   2.566   1.499 -0.1935 -0.4497 -0.2691
 7993TIP3    H123943   2.627   2.573   1.407 -0.7830 -1.2693 -0.5026
 7993TIP3    H223944   2.677   2.601   1.547  0.2278 -0.2600 -1.0524
 7994TIP3   OH223945   6.481   4.659   4.230 -0.5111  0.3773  0.0091
 7994TIP3    H123946   6.464   4.686   4.321 -2.0345 -0.6414  0.0630
 7994TIP3    H223947   6.503   4.567   4.236 -0.3866  0.3613 -0.6374
 7995TIP3   OH223948   5.187   1.857   0.990  0.0437 -0.0749 -0.2274
 7995TIP3    H123949   5.234   1.854   1.074  0.3579  0.7549 -0.3707
 7995TIP3    H223950   5.201   1.945   0.957 -0.6409 -0.1865 -0.8447
 7996TIP3   OH223951   1.055   5.677   4.751  0.0715  0.0125 -0.5509
 7996TIP3    H123952   0.990   5.744   4.772  1.4261  2.1923 -2.8294
 7996TIP3    H223953   1.042   5.610   4.818 -2.6063  1.6454  0.7416
 7997TIP3   OH223954   1.467   1.576   0.556  0.0641 -0.3362 -0.5238
 7997TIP3    H123955   1.438   1.667   0.548 -0.8648 -0.5073  0.7136
 7997TIP3    H223956   1.437   1.548   0.642  1.3525 -1.4723 -0.4114
 7998TIP3   OH223957   4.643   4.781   4.984  0.0724 -0.0458 -0.1411
 7998TIP3    H123958   4.682   4.860   4.948  0.3834  0.9656  2.1932
 7998TIP3    H223959   4.549   4.800   4.988 -0.1008 -0.5804 -1.3361
 7999TIP3   OH223960   1.151   5.558   1.378 -0.2757  0.4757 -0.0805
 7999TIP3    H123961   1.068   5.605   1.370 -0.0773  1.1115  1.2466
 7999TIP3    H223962   1.179   5.543   1.288 -2.5102 -1.0479 -0.6306
 8000TIP3   OH223963   5.034   5.878   2.769  0.5905 -0.7480 -0.3085
 8000TIP3    H123964   5.028   5.971   2.747  1.0140  0.5722  4.1560
 8000TIP3    H223965   5.007   5.873   2.860 -0.6206 -5.3017 -0.6702
 8001TIP3   OH223966   3.358   0.972   3.114  0.1219  0.4619  0.0196
 8001TIP3    H123967   3.310   0.890   3.125  0.7298  0.3171  1.9514
 8001TIP3    H223968   3.447   0.944   3.091 -0.0163  0.6439 -0.7645
 8002TIP3   OH223969   6.428   3.898   5.252  0.0016  0.7119 -0.5546
 8002TIP3    H123970   6.359   3.856   5.303  0.5589  0.1534 -0.2391
 8002TIP3    H223971   6.422   3.857   5.166 -1.0083  1.7311 -0.9910
 8003TIP3   OH223972   4.750   1.157   5.205 -0.4747  0.5910  0.5997
 8003TIP3    H123973   4.810   1.216   5.251 -0.0184  0.6952 -0.1160
 8003TIP3    H223974   4.672   1.155   5.260  0.4076 -0.0434  1.8983
 8004TIP3   OH223975   7.027   6.570   4.101  0.2230  0.3572 -0.3899
 8004TIP3    H123976   7.030   6.638   4.169  0.1501 -0.4879  0.4750
 8004TIP3    H223977   7.118   6.547   4.085  0.1800 -0.7492  0.7859
 8005TIP3   OH223978   2.883   5.674   1.120  0.2086 -0.7998 -0.6846
 8005TIP3    H123979   2.794   5.690   1.149 -0.0384 -0.3711 -1.6275
 8005TIP3    H223980   2.935   5.672   1.200 -0.5516 -0.4185 -0.1740
 8006TIP3   OH223981   2.096   1.213   2.297  1.2260  1.3459  0.5018
 8006TIP3    H123982   2.097   1.232   2.203 -0.3917 -1.0940 -0.1042
 8006TIP3    H223983   2.179   1.170   2.314 -0.3421 -2.8977 -1.1011
 8007TIP3   OH223984   3.254   1.249   3.799 -0.3528 -0.5039 -0.2383
 8007TIP3    H123985   3.169   1.250   3.754 -0.5128  1.6942  0.0425
 8007TIP3    H223986   3.305   1.183   3.752 -1.4539 -0.2369 -1.8775
 8008TIP3   OH223987   5.104   3.843   4.000 -0.1329  0.3609  0.3225
 8008TIP3    H123988   5.126   3.892   3.921  1.5046 -1.5384 -0.4974
 8008TIP3    H223989   5.189   3.830   4.044 -0.7970 -0.0066  1.5368
 8009TIP3   OH223990   3.739   6.428   5.652  0.1514  0.1265 -0.1326
 8009TIP3    H123991   3.693   6.357   5.697 -0.5254  0.2422 -0.6175
 8009TIP3    H223992   3.692   6.507   5.680  0.6716  0.3494  0.1208
 8010TIP3   OH223993   5.653   2.116   2.292  0.2504 -0.9137 -0.3438
 8010TIP3    H123994   5.663   2.030   2.333  0.0794  0.2207  2.2620
 8010TIP3    H223995   5.719   2.170   2.336 -1.4433  0.9268  0.0287
 8011TIP3   OH223996   4.484   2.294  -0.014  0.3843 -0.3537  0.5120
 8011TIP3    H123997   4.571   2.264   0.012  0.5377  0.0830  0.4965
 8011TIP3    H223998   4.479   2.384   0.017  1.1735  0.7603 -2.2956
 8012TIP3   OH223999   4.441   5.340   3.263  0.5202 -0.2596 -0.2888
 8012TIP3    H124000   4.426   5.248   3.239 -0.3931  0.3457 -2.2456
 8012TIP3    H224001   4.445   5.386   3.179  0.4694  1.5640  0.6655
 8013TIP3   OH224002   1.738   1.557   1.663 -0.4462  0.4030  0.1092
 8013TIP3    H124003   1.822   1.543   1.621 -0.6884  0.6256 -0.4603
 8013TIP3    H224004   1.674   1.520   1.601 -0.6766 -1.1180  1.1917
 8014TIP3   OH224005   2.621   5.781   4.862  0.4166 -0.6275  0.1907
 8014TIP3    H124006   2.685   5.736   4.916  1.1101 -0.4237 -0.4388
 8014TIP3    H224007   2.577   5.711   4.814 -0.2031 -0.8079  1.0029
 8015TIP3   OH224008   7.224   6.096   2.184  0.7785  0.1947  0.0766
 8015TIP3    H124009   7.231   6.180   2.229  0.0071  0.8779 -1.0405
 8015TIP3    H224010   7.151   6.052   2.227  0.4956  0.5535 -0.0289
 8016TIP3   OH224011   2.196   3.324   3.188  0.4490 -0.0668  0.1195
 8016TIP3    H124012   2.168   3.407   3.227  0.3254 -0.2309  0.3872
 8016TIP3    H224013   2.238   3.277   3.260 -0.4635 -0.6973  0.2663
 8017TIP3   OH224014   4.615   4.425   2.119 -0.0012 -0.1074 -0.2393
 8017TIP3    H124015   4.704   4.457   2.103 -0.9296  1.5469 -2.7078
 8017TIP3    H224016   4.569   4.500   2.157 -0.3742 -0.9656  1.0636
 8018TIP3   OH224017   0.940   2.263   5.508 -0.6944  0.1319 -0.2889
 8018TIP3    H124018   0.902   2.177   5.488 -0.4061 -0.0638 -0.0177
 8018TIP3    H224019   0.881   2.326   5.467  0.3653 -0.2681 -2.5870
 8019TIP3   OH224020   5.830   1.604   1.399 -0.2241 -0.2941  0.0758
 8019TIP3    H124021   5.903   1.542   1.396 -0.8556 -1.0542  0.0679
 8019TIP3    H224022   5.871   1.689   1.417  0.9552 -0.1856 -2.6693
 8020TIP3   OH224023   0.209   1.827   4.947 -0.2976  0.0967  0.3538
 8020TIP3    H124024   0.266   1.827   4.870 -1.0588  2.7166 -0.3197
 8020TIP3    H224025   0.260   1.867   5.016 -0.5564  0.3413  0.4057
 8021TIP3   OH224026   4.451   4.672   2.008  0.2685  0.5731 -0.2246
 8021TIP3    H124027   4.412   4.645   2.091  1.0266  0.3659  0.0686
 8021TIP3    H224028   4.421   4.763   1.996 -1.2254  0.0694 -0.5773
 8022TIP3   OH224029   1.471   4.885   3.987 -0.1756  0.1421 -0.2614
 8022TIP3    H124030   1.413   4.822   4.030 -1.4685  1.3490 -0.1477
 8022TIP3    H224031   1.548   4.888   4.043 -1.3622  0.8717  1.4379
 8023TIP3   OH224032   0.802   4.721   5.264  0.0555 -0.1614 -0.1689
 8023TIP3    H124033   0.840   4.700   5.179 -0.3038 -0.7253 -0.2000
 8023TIP3    H224034   0.759   4.640   5.291  0.6491 -0.1545  0.8144
 8024TIP3   OH224035   3.138   0.830   2.614 -0.0364 -0.0027  0.3079
 8024TIP3    H124036   3.213   0.770   2.605 -0.3866 -0.4816  0.5278
 8024TIP3    H224037   3.137   0.853   2.706  1.2998  1.9459 -0.1092
 8025TIP3   OH224038   5.447   5.832   0.991  0.4801 -0.5163 -0.2985
 8025TIP3    H124039   5.467   5.920   0.960  1.1841 -0.4566  0.2703
 8025TIP3    H224040   5.524   5.780   0.967 -0.1125 -1.0809 -1.0120
 8026TIP3   OH224041   1.975   5.142   5.583  0.4424  0.4253 -0.1217
 8026TIP3    H124042   1.976   5.060   5.633  2.0229  1.0277  0.8943
 8026TIP3    H224043   1.882   5.161   5.571 -0.0352 -2.4669 -2.0543
 8027TIP3   OH224044   3.823   5.312   2.143  0.4622 -0.2382  0.0496
 8027TIP3    H124045   3.766   5.374   2.097 -2.8018 -1.9900  1.4458
 8027TIP3    H224046   3.835   5.351   2.230  2.4289  0.6420 -0.5649
 8028TIP3   OH224047   4.065   4.231   0.039 -0.1866 -0.1143  0.8576
 8028TIP3    H124048   4.009   4.278  -0.023  0.8820  0.2074  0.0921
 8028TIP3    H224049   4.122   4.299   0.076 -0.3435 -0.4164  1.6697
 8029TIP3   OH224050   2.517   2.278   4.852  0.3963 -0.1057  0.1161
 8029TIP3    H124051   2.449   2.237   4.905 -0.3160  0.7715 -0.0777
 8029TIP3    H224052   2.480   2.278   4.763  1.6527 -1.7390 -0.4407
 8030TIP3   OH224053   3.788   6.494   5.377  0.4743  0.1393 -0.0738
 8030TIP3    H124054   3.860   6.553   5.403 -0.2634  0.3805  1.5556
 8030TIP3    H224055   3.737   6.482   5.457 -1.3475  0.0063 -1.1955
 8031TIP3   OH224056   1.639   1.349   4.259  1.0201 -0.2750 -0.3918
 8031TIP3    H124057   1.567   1.384   4.208  1.1703 -1.3263 -1.3702
 8031TIP3    H224058   1.713   1.348   4.199  1.5592 -0.2692  0.2572
 8032TIP3   OH224059   1.165   3.124   3.553  0.3861 -0.1248 -0.2974
 8032TIP3    H124060   1.199   3.045   3.512  0.1123 -0.9911  1.0570
 8032TIP3    H224061   1.105   3.161   3.489 -0.2706 -1.5988 -0.5663
 8033TIP3   OH224062   5.493   5.039   5.335  0.7815 -0.3128  0.9462
 8033TIP3    H124063   5.585   5.022   5.313  1.4353  1.0053  2.4181
 8033TIP3    H224064   5.446   4.963   5.302  2.3800 -0.9479  0.0048
 8034TIP3   OH224065   5.185   0.168   0.235  0.2488  0.3087  0.2179
 8034TIP3    H124066   5.195   0.079   0.269 -1.9984  0.4406  1.4037
 8034TIP3    H224067   5.172   0.222   0.312 -0.1290  1.3953 -0.5850
 8035TIP3   OH224068   3.437   1.771   4.662 -0.2802 -0.1362 -0.3393
 8035TIP3    H124069   3.502   1.702   4.678  1.5265  1.6090  0.2661
 8035TIP3    H224070   3.464   1.843   4.719 -2.3786  0.9199 -0.5896
 8036TIP3   OH224071   4.574   1.782   3.582  0.0587 -0.2905  0.4183
 8036TIP3    H124072   4.667   1.805   3.591 -0.1050  0.2475  0.7653
 8036TIP3    H224073   4.551   1.810   3.494 -0.1732  1.0261  0.8859
 8037TIP3   OH224074   3.514   6.432   0.996 -0.7032  0.0755  0.8684
 8037TIP3    H124075   3.541   6.498   0.933 -3.1303  1.5749  1.2740
 8037TIP3    H224076   3.550   6.350   0.962  0.8691  1.3186 -0.6173
 8038TIP3   OH224077   6.426   6.608   1.597  0.0697  0.2718 -0.1958
 8038TIP3    H124078   6.465   6.678   1.544  2.8596 -0.5496  0.6001
 8038TIP3    H224079   6.358   6.571   1.541  0.8251  1.4341 -1.9712
 8039TIP3   OH224080   6.127   3.764   4.561  0.0321  0.0012  0.3461
 8039TIP3    H124081   6.179   3.708   4.504  1.9879  1.1072  0.9382
 8039TIP3    H224082   6.072   3.704   4.610  0.6254 -1.2274 -0.4433
 8040TIP3   OH224083   4.648   0.277   0.901 -0.0785 -0.3318 -0.0080
 8040TIP3    H124084   4.712   0.342   0.930  0.3093 -0.6982 -0.0362
 8040TIP3    H224085   4.584   0.328   0.850 -0.4528  0.2228  0.9820
 8041TIP3   OH224086   0.069   6.619   3.684 -0.4333 -0.1509  0.0791
 8041TIP3    H124087   0.086   6.691   3.623 -0.2048 -0.0678  0.2404
 8041TIP3    H224088   0.144   6.561   3.674 -0.7618 -0.5235 -0.2714
 8042TIP3   OH224089   2.979   0.870   2.013 -0.0347  0.6704 -0.3539
 8042TIP3    H124090   2.914   0.895   2.078  1.1367  0.7314  0.8378
 8042TIP3    H224091   3.062   0.903   2.048  1.3434 -3.0341  0.3989
 8043TIP3   OH224092   6.477   4.493   5.752  0.4440  0.0715 -0.2528
 8043TIP3    H124093   6.530   4.545   5.812 -1.9018  1.9398  0.3761
 8043TIP3    H224094   6.433   4.429   5.808 -2.0807  2.0926  0.2750
 8044TIP3   OH224095   7.033   2.986   1.908  0.3521  0.4561 -0.1611
 8044TIP3    H124096   7.019   3.011   1.816  0.5272  2.2306  0.2627
 8044TIP3    H224097   6.955   2.936   1.931 -1.8043  3.5194 -0.1195
 8045TIP3   OH224098   5.710   1.405   1.743  0.3523  0.5057 -0.1069
 8045TIP3    H124099   5.791   1.381   1.698 -0.3232 -0.8506 -0.6629
 8045TIP3    H224100   5.680   1.484   1.697  0.3684 -0.0880 -1.1597
 8046TIP3   OH224101   4.523   4.657   4.683  0.2964  0.6112  0.2144
 8046TIP3    H124102   4.533   4.719   4.755 -2.2276  0.1178  1.0588
 8046TIP3    H224103   4.456   4.696   4.627 -0.4280 -0.7521  0.0945
 8047TIP3   OH224104   1.571   2.592   4.691 -0.7198  0.2357  0.1659
 8047TIP3    H124105   1.661   2.565   4.678 -0.5844  0.8692 -0.2851
 8047TIP3    H224106   1.573   2.687   4.680 -1.8384  0.0545 -2.2938
 8048TIP3   OH224107   4.818   2.847   3.068  0.1263  0.2838 -0.1494
 8048TIP3    H124108   4.860   2.818   2.986  0.2714  1.5675 -0.5467
 8048TIP3    H224109   4.891   2.872   3.125  0.2791 -3.5204  1.6418
 8049TIP3   OH224110   0.957   1.294   0.488 -0.2902  0.0351 -0.5929
 8049TIP3    H124111   0.875   1.314   0.443  0.7013  1.5782 -1.8307
 8049TIP3    H224112   1.020   1.278   0.417  0.2865 -2.1371  0.3329
 8050TIP3   OH224113   3.618   3.482   1.675 -0.3808  0.5295 -0.2708
 8050TIP3    H124114   3.632   3.387   1.678 -1.1187  0.4311  0.2854
 8050TIP3    H224115   3.630   3.510   1.765 -1.4195  0.7734 -0.1968
 8051TIP3   OH224116   0.047   5.979   5.211  0.2434  0.0278 -0.4297
 8051TIP3    H124117   0.010   5.970   5.299  0.2457 -1.8134 -0.5650
 8051TIP3    H224118  -0.010   6.040   5.166 -1.0632 -0.6841  0.1986
 8052TIP3   OH224119   2.622   5.373   2.810 -0.1630  0.2245 -0.0577
 8052TIP3    H124120   2.686   5.381   2.740  0.7042 -3.9135  0.0363
 8052TIP3    H224121   2.554   5.316   2.774 -1.3290  0.5791  1.4688
 8053TIP3   OH224122   4.680   4.536   4.864  0.4219  0.5307  0.3682
 8053TIP3    H124123   4.631   4.568   4.788  0.2402 -0.4636  0.0535
 8053TIP3    H224124   4.678   4.609   4.926 -0.5537  0.8881 -0.0626
 8054TIP3   OH224125   2.802   3.452   0.571  0.6230  0.1012  0.1533
 8054TIP3    H124126   2.877   3.403   0.603  0.1641 -0.0868  0.9623
 8054TIP3    H224127   2.762   3.489   0.650 -0.7378 -0.6568 -0.1575
 8055TIP3   OH224128   6.429   2.638   4.108  0.1261 -0.4006  0.9606
 8055TIP3    H124129   6.385   2.553   4.112 -2.5756  0.8876  0.9787
 8055TIP3    H224130   6.400   2.683   4.187  0.4999  0.9728  0.3348
 8056TIP3   OH224131   7.090   4.263   2.565 -0.5312  0.4390 -0.1245
 8056TIP3    H124132   7.056   4.174   2.557  0.9173 -0.1417 -0.0369
 8056TIP3    H224133   7.022   4.309   2.615 -1.0860 -0.7297  0.2587
 8057TIP3   OH224134   4.978   5.694   2.577  0.1464  0.1972 -0.0132
 8057TIP3    H124135   5.035   5.757   2.622 -0.4257  0.7749 -0.0817
 8057TIP3    H224136   4.890   5.726   2.592 -0.0401  1.2795 -2.7508
 8058TIP3   OH224137   4.586   6.673   5.229 -0.1607 -0.4042  0.0256
 8058TIP3    H124138   4.578   6.739   5.160  1.4276 -0.4944 -0.2880
 8058TIP3    H224139   4.506   6.621   5.222 -1.0501  0.9487 -0.2731
 8059TIP3   OH224140   3.028   1.645   5.878  0.1906  0.6314 -0.2392
 8059TIP3    H124141   3.016   1.666   5.785 -2.6016 -0.3545 -0.1929
 8059TIP3    H224142   3.085   1.568   5.878 -2.0027 -1.1490 -1.4542
 8060TIP3   OH224143   4.777   2.440   4.499  0.6965  0.4958  0.3640
 8060TIP3    H124144   4.749   2.418   4.410 -0.5528  0.9978  0.6152
 8060TIP3    H224145   4.697   2.442   4.550  0.8583  3.8371  0.7201
 8061TIP3   OH224146   5.491   6.636   4.169  0.0022 -0.0322 -0.2684
 8061TIP3    H124147   5.575   6.601   4.138 -0.3605 -0.5764 -0.6739
 8061TIP3    H224148   5.432   6.627   4.094 -0.3288  0.6870 -0.1082
 8062TIP3   OH224149   6.696   0.310   5.366 -0.0288  0.4811  0.1474
 8062TIP3    H124150   6.694   0.363   5.446 -0.8549  0.6176  0.0437
 8062TIP3    H224151   6.609   0.320   5.328  0.7464  1.4313 -1.4591
 8063TIP3   OH224152   4.846   5.131   2.645 -0.1738  0.0704  0.9181
 8063TIP3    H124153   4.896   5.178   2.579 -1.1375 -1.1450 -0.7776
 8063TIP3    H224154   4.811   5.055   2.599  1.8449 -2.7830  3.6248
 8064TIP3   OH224155   6.715   6.251   0.892 -0.3440  0.1264  0.2124
 8064TIP3    H124156   6.733   6.301   0.972 -0.2070 -0.0558  0.2966
 8064TIP3    H224157   6.774   6.176   0.897  0.9826  1.0476 -0.9409
 8065TIP3   OH224158   1.155   3.664   1.648  0.5960  0.4348 -0.2966
 8065TIP3    H124159   1.144   3.653   1.554 -1.3598 -0.4110 -0.0285
 8065TIP3    H224160   1.066   3.681   1.680  1.3158  1.4422  1.3221
 8066TIP3   OH224161   2.555   3.680   4.387 -0.3157 -0.2721 -0.1961
 8066TIP3    H124162   2.485   3.660   4.450 -2.5530  0.6209 -2.2637
 8066TIP3    H224163   2.575   3.596   4.346 -0.7681 -0.3926 -0.1732
 8067TIP3   OH224164   1.888   4.888   1.825  0.1263  0.5809 -0.3164
 8067TIP3    H124165   1.887   4.838   1.906  2.3098  1.5870  0.4271
 8067TIP3    H224166   1.811   4.858   1.776  0.0693 -1.7527  1.0742
 8068TIP3   OH224167   1.885   2.439   1.881  0.0369  0.7658 -0.7252
 8068TIP3    H124168   1.953   2.374   1.901  0.0940  0.5579 -1.5525
 8068TIP3    H224169   1.924   2.523   1.905  0.6930  0.6749 -1.4356
 8069TIP3   OH224170   0.351   2.014   3.643  0.3659 -0.0112 -0.0368
 8069TIP3    H124171   0.255   2.007   3.644  0.2222  1.5856  1.3303
 8069TIP3    H224172   0.374   2.001   3.551 -1.0682 -1.2886 -0.2654
 8070TIP3   OH224173   5.970   0.634   0.523 -0.4591 -0.5833 -0.2089
 8070TIP3    H124174   6.036   0.586   0.473  0.5848  0.0302  0.5319
 8070TIP3    H224175   5.989   0.726   0.504 -2.1854 -0.4101 -1.3141
 8071TIP3   OH224176   6.745   1.074   4.558  0.4531  0.1519 -0.8212
 8071TIP3    H124177   6.687   1.149   4.571  0.1373 -0.3578  0.9266
 8071TIP3    H224178   6.791   1.093   4.476  1.3147  2.8597  0.1786
 8072TIP3   OH224179   4.182   1.488   2.069  0.3308  0.5570  0.2350
 8072TIP3    H124180   4.169   1.441   1.987  0.4050  1.7870 -0.5037
 8072TIP3    H224181   4.101   1.537   2.082  0.9748  1.7159 -0.0162
 8073TIP3   OH224182   5.297   0.782   2.251  0.2574  0.6238 -0.3727
 8073TIP3    H124183   5.358   0.746   2.315 -1.1350 -1.4929 -0.1457
 8073TIP3    H224184   5.348   0.788   2.170  0.5758 -2.1166 -0.4650
 8074TIP3   OH224185   6.017   3.599   5.221  0.0532  0.4591  0.0394
 8074TIP3    H124186   5.995   3.527   5.280 -1.6167  0.4938 -0.5088
 8074TIP3    H224187   5.942   3.658   5.225  0.5951  1.2471 -0.9381
 8075TIP3   OH224188   0.408   3.070   4.363  0.0252 -0.1565  0.4984
 8075TIP3    H124189   0.411   2.975   4.369  1.1912 -0.1362  0.4434
 8075TIP3    H224190   0.493   3.099   4.395 -0.5043  0.9004  0.9915
 8076TIP3   OH224191   3.682   4.575   1.900 -0.4378  0.1010  0.0884
 8076TIP3    H124192   3.693   4.485   1.870 -0.7291 -0.3504  1.2804
 8076TIP3    H224193   3.771   4.611   1.900 -0.4722  0.2451 -1.6293
 8077TIP3   OH224194   6.254   1.956   5.394  0.4411 -0.1399  0.2088
 8077TIP3    H124195   6.208   1.887   5.346  1.7212 -0.4461 -0.6085
 8077TIP3    H224196   6.256   1.925   5.484 -0.0407 -0.5922  0.0701
 8078TIP3   OH224197   1.351   5.296   0.506 -0.3879 -0.3437 -0.7245
 8078TIP3    H124198   1.410   5.230   0.543  0.3759  0.0658 -1.2025
 8078TIP3    H224199   1.289   5.314   0.577  0.5640 -0.1683  0.0889
 8079TIP3   OH224200   4.757   0.867   3.880 -0.0285  0.2559  0.2571
 8079TIP3    H124201   4.835   0.825   3.917 -0.1988  0.1221  0.4623
 8079TIP3    H224202   4.787   0.905   3.797  0.2423  0.1588  0.3116
 8080TIP3   OH224203   4.585   1.063   0.945 -0.3104 -0.2353  0.0451
 8080TIP3    H124204   4.652   1.049   1.013 -0.1560  1.3824  0.2596
 8080TIP3    H224205   4.578   1.158   0.937 -1.9085 -0.3790 -0.6610
 8081TIP3   OH224206   6.422   3.019   3.467 -0.4806  0.1292 -0.6821
 8081TIP3    H124207   6.375   2.953   3.518  1.3892 -0.1186  0.8426
 8081TIP3    H224208   6.458   3.078   3.533  1.0157  0.5147 -1.7991
 8082TIP3   OH224209   5.681   4.074   4.299  0.1490  0.4488 -0.3470
 8082TIP3    H124210   5.604   4.122   4.269 -0.3334  0.6696  1.1509
 8082TIP3    H224211   5.662   4.053   4.390  1.4326 -0.4052 -0.2530
 8083TIP3   OH224212   5.984   3.138   5.367 -0.0156 -0.3494 -0.0976
 8083TIP3    H124213   5.909   3.081   5.350 -0.3386 -0.1322  0.5708
 8083TIP3    H224214   6.060   3.085   5.341 -0.2239 -1.5551  1.5529
 8084TIP3   OH224215   6.193   6.507   3.062  0.0569 -0.3501  0.4256
 8084TIP3    H124216   6.213   6.428   3.111 -0.5539  0.0480  1.3230
 8084TIP3    H224217   6.150   6.476   2.982 -0.0894 -0.9226  0.7253
 8085TIP3   OH224218   4.099   2.832   0.153  0.5998 -0.1665 -0.3733
 8085TIP3    H124219   4.145   2.905   0.195  0.6905 -0.5697  0.2509
 8085TIP3    H224220   4.034   2.805   0.218  1.1671 -1.2145 -0.2081
 8086TIP3   OH224221   6.489   0.271   3.556 -0.1054 -0.1334 -0.2981
 8086TIP3    H124222   6.468   0.184   3.523  2.0356 -0.4159 -1.0855
 8086TIP3    H224223   6.459   0.270   3.647  2.4494 -2.7679  0.6576
 8087TIP3   OH224224   6.582   2.079   2.191 -0.1692 -0.0213 -0.5233
 8087TIP3    H124225   6.538   2.141   2.248  0.2510 -0.3966  0.2310
 8087TIP3    H224226   6.530   1.998   2.197  0.2760 -0.2823 -0.0948
 8088TIP3   OH224227   5.614   3.475   0.202 -0.8305 -0.1802  0.4131
 8088TIP3    H124228   5.654   3.486   0.288 -0.4782 -0.2394  0.2575
 8088TIP3    H224229   5.553   3.403   0.213 -0.3064 -0.6214  0.4493
 8089TIP3   OH224230   5.703   5.789   0.920  0.2696  0.1949 -0.0224
 8089TIP3    H124231   5.773   5.727   0.900 -1.3039 -1.4475 -0.7318
 8089TIP3    H224232   5.743   5.875   0.906  2.4550 -0.6193  0.7382
 8090TIP3   OH224233   7.110   4.290   0.562  0.1059  0.2321  0.5019
 8090TIP3    H124234   7.192   4.339   0.574 -0.6178  1.5840  0.1714
 8090TIP3    H224235   7.072   4.286   0.649 -1.1485  2.7645  0.1805
 8091TIP3   OH224236   6.240   3.733   5.347 -0.2231  0.2342  0.0519
 8091TIP3    H124237   6.159   3.693   5.315 -0.3417  0.0756  0.5361
 8091TIP3    H224238   6.222   3.752   5.439  0.1422  0.5946  0.0493
 8092TIP3   OH224239   2.939   6.311   5.679 -0.0925 -0.7724 -0.5360
 8092TIP3    H124240   2.946   6.237   5.740 -0.5944 -0.8262 -0.5365
 8092TIP3    H224241   2.845   6.318   5.661  0.0988 -1.0766 -1.7022
 8093TIP3   OH224242   1.574   5.143   4.448 -0.8472  0.1675 -0.1952
 8093TIP3    H124243   1.505   5.113   4.389  0.4987 -1.9477 -0.8115
 8093TIP3    H224244   1.636   5.190   4.391 -0.0816 -0.9528 -0.3210
 8094TIP3   OH224245   0.637   3.233   4.659 -0.3880  0.5132 -0.7892
 8094TIP3    H124246   0.648   3.277   4.574  0.3758  0.3179 -0.7982
 8094TIP3    H224247   0.549   3.259   4.688 -0.6605  0.5792 -1.6411
 8095TIP3   OH224248   2.322   0.115   3.545  0.6480  0.4010  0.0733
 8095TIP3    H124249   2.300   0.057   3.619  2.6302 -0.5991 -0.0689
 8095TIP3    H224250   2.263   0.087   3.475  0.0191  0.0991  0.7104
 8096TIP3   OH224251   7.093   3.739   0.850  0.5152 -0.1235 -0.1292
 8096TIP3    H124252   7.179   3.748   0.890  0.2950  0.8151  0.1483
 8096TIP3    H224253   7.037   3.797   0.900 -0.0997 -0.1035 -0.8291
 8097TIP3   OH224254   3.630   0.086   2.636  0.2932 -0.1945 -0.0317
 8097TIP3    H124255   3.644   0.007   2.688  0.6662  0.4785  0.9044
 8097TIP3    H224256   3.535   0.098   2.636  0.2146 -0.7519 -0.3650
 8098TIP3   OH224257   2.125   3.375   2.522  0.3662  0.2582  0.3548
 8098TIP3    H124258   2.103   3.440   2.589  0.1991  0.8398 -0.2562
 8098TIP3    H224259   2.116   3.291   2.566 -2.3518  0.4741  0.3721
 8099TIP3   OH224260   4.598   6.194   1.464  0.1820  0.3679 -0.5811
 8099TIP3    H124261   4.527   6.258   1.466 -0.7058 -0.5489 -1.6139
 8099TIP3    H224262   4.672   6.239   1.505 -0.7225  1.6654 -0.3113
 8100TIP3   OH224263   5.033   0.527   0.199 -0.3239 -0.0068 -0.6289
 8100TIP3    H124264   5.017   0.469   0.273  0.2339  0.7007  0.0697
 8100TIP3    H224265   5.027   0.471   0.122 -1.5934 -0.6215 -0.0989
 8101TIP3   OH224266   0.308   1.292   5.441 -0.1045 -0.0267  1.1677
 8101TIP3    H124267   0.317   1.248   5.526 -1.9963  1.2366  2.0856
 8101TIP3    H224268   0.214   1.304   5.430  0.0694 -0.4044 -1.2931
 8102TIP3   OH224269   4.614   0.550   5.016 -0.2594  0.1076 -0.4016
 8102TIP3    H124270   4.600   0.522   4.925 -0.9413 -0.0634 -0.2567
 8102TIP3    H224271   4.707   0.567   5.022 -0.0841 -0.5935 -0.9398
 8103TIP3   OH224272   5.758   6.705   4.396  0.5159 -0.6099  0.0787
 8103TIP3    H124273   5.754   6.788   4.444  0.8166 -0.9303  0.6686
 8103TIP3    H224274   5.684   6.654   4.431 -1.0234  0.1926 -1.8133
 8104TIP3   OH224275   5.297   2.104   0.598 -0.1034  0.7186  0.1445
 8104TIP3    H124276   5.284   2.046   0.673  0.6759 -1.5189 -1.3671
 8104TIP3    H224277   5.385   2.139   0.610 -0.6751  1.8985  1.2009
 8105TIP3   OH224278   0.164   0.579   2.513  0.5682  0.1278 -0.3500
 8105TIP3    H124279   0.126   0.517   2.576 -2.4520  1.2484 -0.9059
 8105TIP3    H224280   0.093   0.640   2.494  0.9112 -0.6190 -5.5128
 8106TIP3   OH224281   0.998   6.506   0.429 -0.6092  0.3609 -0.1209
 8106TIP3    H124282   0.956   6.592   0.434 -0.3159  0.4695  0.7555
 8106TIP3    H224283   0.985   6.478   0.339 -0.0456  1.6656 -0.6431
 8107TIP3   OH224284   1.616   1.178   2.373  0.0850  0.1658  0.0536
 8107TIP3    H124285   1.650   1.109   2.431 -2.4694 -0.6375  0.7256
 8107TIP3    H224286   1.576   1.242   2.432 -0.5607  0.4937 -0.7153
 8108TIP3   OH224287   3.125   2.321   4.427 -0.1656  0.1762  0.5958
 8108TIP3    H124288   3.127   2.261   4.501  4.2749  0.3126  0.8228
 8108TIP3    H224289   3.217   2.340   4.408 -1.1562  2.0998 -3.4262
 8109TIP3   OH224290   2.848   4.419   2.717 -0.4376 -0.1512  0.5435
 8109TIP3    H124291   2.870   4.507   2.748  0.1886  0.1486 -0.7113
 8109TIP3    H224292   2.929   4.385   2.680 -1.6387  0.5276 -3.1172
 8110TIP3   OH224293   3.661   3.209   1.704  0.3689 -0.2178 -0.0074
 8110TIP3    H124294   3.632   3.168   1.623  1.7653 -1.7065  0.1913
 8110TIP3    H224295   3.726   3.148   1.740  0.4916  0.8690  1.7366
 8111TIP3   OH224296   0.610   3.596   5.122  0.0102  0.4104  0.8876
 8111TIP3    H124297   0.587   3.578   5.031  2.6435  0.2090  0.1824
 8111TIP3    H224298   0.570   3.681   5.140 -0.1334  0.6911 -0.6081
 8112TIP3   OH224299   6.922   3.378   5.328 -0.3030 -0.7847  0.4458
 8112TIP3    H124300   6.996   3.412   5.378 -1.3482 -0.7711  2.0403
 8112TIP3    H224301   6.846   3.388   5.386 -1.7186 -0.1430 -1.3730
 8113TIP3   OH224302   0.768   0.421   4.836  0.3998  0.2508 -0.2295
 8113TIP3    H124303   0.790   0.481   4.908  0.5844  1.4345 -1.2433
 8113TIP3    H224304   0.682   0.386   4.860  0.7854  0.0469  0.9251
 8114TIP3   OH224305   5.417   0.182   2.016 -0.2067 -0.4599 -0.0763
 8114TIP3    H124306   5.340   0.184   2.073  0.3245  0.3604  0.6454
 8114TIP3    H224307   5.488   0.217   2.071  0.2538  0.6504 -1.3204
 8115TIP3   OH224308   5.910   0.598   1.972 -0.2932  0.3129  0.0430
 8115TIP3    H124309   5.859   0.674   2.000  0.4370  0.9660 -0.3252
 8115TIP3    H224310   5.896   0.532   2.039 -2.1034  0.2435 -0.3747
 8116TIP3   OH224311   3.235   2.127   2.039 -0.2852  0.1879 -0.2564
 8116TIP3    H124312   3.295   2.148   1.967  2.0911  0.2257  1.6355
 8116TIP3    H224313   3.224   2.210   2.086 -2.7926  0.4621 -1.1346
 8117TIP3   OH224314   1.401   6.397   4.504  0.3660  0.4904 -0.0251
 8117TIP3    H124315   1.330   6.372   4.445  0.6014  2.1979 -1.0907
 8117TIP3    H224316   1.358   6.409   4.589 -0.2402 -0.5080 -0.1739
 8118TIP3   OH224317   0.036   0.427   4.849 -0.4786  0.3628 -0.2566
 8118TIP3    H124318  -0.020   0.380   4.911 -0.4078  0.6515  0.0300
 8118TIP3    H224319   0.067   0.359   4.789 -0.0232 -0.0410  0.4160
 8119TIP3   OH224320   2.216   6.435   1.396  0.3726 -0.3638  0.5935
 8119TIP3    H124321   2.186   6.400   1.480 -0.0503 -1.3343  0.0568
 8119TIP3    H224322   2.251   6.521   1.417 -2.1293  0.5579  1.3914
 8120TIP3   OH224323   1.917   5.779   1.781 -0.8668  0.1405  0.4230
 8120TIP3    H124324   1.969   5.700   1.767 -1.4344 -0.1810  0.0894
 8120TIP3    H224325   1.857   5.756   1.852 -1.1025  0.2378  0.2576
 8121TIP3   OH224326   2.034   0.958   2.937 -0.0585 -0.3638  0.0581
 8121TIP3    H124327   2.075   0.881   2.896  1.3285 -0.3819  1.3992
 8121TIP3    H224328   2.052   0.948   3.030  0.0903  1.5792  0.2684
 8122TIP3   OH224329   1.417   1.142   5.492 -0.0229  0.2409 -0.5159
 8122TIP3    H124330   1.416   1.200   5.416  0.7344  0.3356 -0.4660
 8122TIP3    H224331   1.329   1.149   5.529 -1.3579 -1.9277 -2.9603
 8123TIP3   OH224332   5.736   0.833   5.401 -0.2023  0.7022 -0.7976
 8123TIP3    H124333   5.672   0.780   5.354 -0.6172  0.7626 -0.3149
 8123TIP3    H224334   5.742   0.792   5.487  0.6978  0.4702 -0.9540
 8124TIP3   OH224335   6.080   2.643   4.195  0.2710 -0.0238  0.0777
 8124TIP3    H124336   6.058   2.699   4.270 -0.8308  0.8273 -0.8396
 8124TIP3    H224337   6.154   2.687   4.154 -0.0018  0.2737 -0.1069
 8125TIP3   OH224338   4.814   3.590   0.520 -0.4141  0.4402  0.1908
 8125TIP3    H124339   4.820   3.685   0.529 -1.2672  0.3520  2.5669
 8125TIP3    H224340   4.725   3.575   0.487 -0.1521  0.4541 -0.5446
 8126TIP3   OH224341   6.809   1.119   1.208  0.4795 -0.5990  0.2018
 8126TIP3    H124342   6.752   1.171   1.153  0.7949 -0.4045  0.0587
 8126TIP3    H224343   6.897   1.148   1.186  0.6402 -0.9757  0.3409
 8127TIP3   OH224344   5.162   1.387   5.720 -0.1672  0.2125  0.0632
 8127TIP3    H124345   5.095   1.383   5.651 -0.3765 -1.0700  0.3145
 8127TIP3    H224346   5.174   1.480   5.736 -1.5351  0.4795 -0.3450
 8128TIP3   OH224347   3.273   5.764   1.289  0.2072  0.6895 -0.1968
 8128TIP3    H124348   3.316   5.781   1.372  0.4758 -0.7704 -0.0142
 8128TIP3    H224349   3.189   5.725   1.313  1.4670 -2.5729 -0.5273
 8129TIP3   OH224350   2.952   5.265   3.573 -0.3418  0.2105 -0.5203
 8129TIP3    H124351   2.919   5.179   3.549  0.8000 -0.5041  0.3436
 8129TIP3    H224352   2.903   5.288   3.652  0.3633 -0.3302  0.0943
 8130TIP3   OH224353   5.055   3.430   4.793  0.0277 -0.0412  0.5782
 8130TIP3    H124354   5.065   3.369   4.720  1.3277  2.1792 -1.2181
 8130TIP3    H224355   4.967   3.466   4.783 -0.2092 -0.5432  0.8004
 8131TIP3   OH224356   1.245   2.899   1.837  0.1938  0.2215  0.4417
 8131TIP3    H124357   1.332   2.932   1.855  1.2725 -1.6213 -1.0189
 8131TIP3    H224358   1.234   2.909   1.742 -1.4583  0.9997  0.6678
 8132TIP3   OH224359   4.001   0.376   5.820  0.3305 -0.1949 -0.1768
 8132TIP3    H124360   3.981   0.450   5.762 -0.1301  0.0547  0.2872
 8132TIP3    H224361   4.092   0.354   5.800  0.0478 -0.3940 -1.2952
 8133TIP3   OH224362   4.590   5.315   2.600  0.1066  0.2977  0.0382
 8133TIP3    H124363   4.653   5.243   2.595  0.8864  0.9201  0.5739
 8133TIP3    H224364   4.575   5.327   2.694 -0.7801  0.1979 -0.0791
 8134TIP3   OH224365   2.171   3.131   2.978  0.1402  0.1475 -0.2524
 8134TIP3    H124366   2.244   3.073   3.001 -0.5744 -0.4297  0.6027
 8134TIP3    H224367   2.182   3.207   3.036  1.7796  1.5199 -2.1882
 8135TIP3   OH224368   6.200   1.989   2.052  0.2809 -0.4638  0.3912
 8135TIP3    H124369   6.283   1.946   2.074 -0.7683 -3.1475 -0.3840
 8135TIP3    H224370   6.152   1.994   2.135 -0.1506 -2.2779  0.2960
 8136TIP3   OH224371   6.523   0.534   3.490 -0.0167 -0.1954  0.2944
 8136TIP3    H124372   6.440   0.581   3.488 -0.4585 -0.9682 -1.8903
 8136TIP3    H224373   6.498   0.441   3.496  0.6897 -0.4297 -0.3333
 8137TIP3   OH224374   2.518   5.870   0.111  0.6274  0.4390  0.4586
 8137TIP3    H124375   2.613   5.864   0.110  0.5543 -0.9920  0.8790
 8137TIP3    H224376   2.487   5.785   0.082 -0.5300 -0.0205  2.7685
 8138TIP3   OH224377   3.925   0.388   4.683 -0.1179  0.4949 -0.0719
 8138TIP3    H124378   3.936   0.317   4.746 -0.0600  1.8248  1.4643
 8138TIP3    H224379   4.000   0.446   4.698 -1.0922  1.7948 -0.0531
 8139TIP3   OH224380   6.987   4.366   2.949  0.1357 -0.4929 -0.3718
 8139TIP3    H124381   6.915   4.306   2.968  0.0305 -0.2948 -0.1386
 8139TIP3    H224382   6.969   4.397   2.860 -0.4724  0.1112 -0.0542
 8140TIP3   OH224383   4.921   5.330   4.791  0.3867  0.4459 -0.3495
 8140TIP3    H124384   4.922   5.318   4.885  0.0613 -0.4020 -0.4465
 8140TIP3    H224385   4.989   5.395   4.774  1.6440 -0.6588  0.3059
 8141TIP3   OH224386   4.008   5.102   0.407 -0.3308 -0.1110 -0.1166
 8141TIP3    H124387   3.952   5.178   0.423  0.3706  0.3827  0.0460
 8141TIP3    H224388   3.975   5.065   0.326 -0.4249  0.6157 -0.4203
 8142TIP3   OH224389   4.645   6.616   5.599  0.1202  0.0078  0.1382
 8142TIP3    H124390   4.627   6.659   5.683 -0.4306 -0.2201  0.1408
 8142TIP3    H224391   4.568   6.636   5.545 -0.4859 -1.5688  0.3846
 8143TIP3   OH224392   0.738   5.581   5.227 -0.2358  0.6185  0.0054
 8143TIP3    H124393   0.660   5.628   5.256 -0.3533 -0.6320  1.8873
 8143TIP3    H224394   0.811   5.624   5.272 -0.0310  0.6336 -0.3305
 8144TIP3   OH224395   3.138   5.945   3.138 -0.4554 -0.3967  0.4888
 8144TIP3    H124396   3.194   5.868   3.150  0.1948 -0.6013 -2.8039
 8144TIP3    H224397   3.062   5.912   3.091 -0.3451  0.8469 -0.6296
 8145TIP3   OH224398   4.554   3.856   1.995  0.4205  0.2147  0.3760
 8145TIP3    H124399   4.640   3.851   2.036  1.5289  0.9010 -1.7052
 8145TIP3    H224400   4.550   3.943   1.956 -0.4385 -0.4528 -1.1377
 8146TIP3   OH224401   0.728   2.271   3.870  0.0410  0.6659 -0.1769
 8146TIP3    H124402   0.689   2.185   3.882 -0.4945  0.9729  0.3108
 8146TIP3    H224403   0.742   2.279   3.776 -1.9689  0.9397 -0.4852
 8147TIP3   OH224404   1.077   6.241   3.279  0.3175 -0.0837  0.3449
 8147TIP3    H124405   1.013   6.311   3.291  0.2103 -0.4278  2.0096
 8147TIP3    H224406   1.151   6.284   3.235  0.2094  1.0455  1.2282
 8148TIP3   OH224407   1.562   4.173   3.604 -0.5416 -0.1516  0.2504
 8148TIP3    H124408   1.482   4.198   3.558 -1.1144 -0.2971  1.1371
 8148TIP3    H224409   1.557   4.077   3.609  0.3959 -0.2744 -0.9293
 8149TIP3   OH224410   3.440   1.524   1.465 -0.2114  0.4202 -0.2617
 8149TIP3    H124411   3.469   1.452   1.410 -1.3634 -0.4059  0.1671
 8149TIP3    H224412   3.425   1.597   1.404  1.9155  0.6504 -0.5763
 8150TIP3   OH224413   4.493   5.318   0.904 -0.1311  0.2438 -0.2070
 8150TIP3    H124414   4.472   5.235   0.862 -3.4752  0.4373  0.7893
 8150TIP3    H224415   4.497   5.297   0.998 -1.2594  1.2031  0.0747
 8151TIP3   OH224416   6.203   0.920   1.748 -0.3479 -0.4810 -0.2468
 8151TIP3    H124417   6.126   0.977   1.753 -1.0984 -1.1349 -2.7091
 8151TIP3    H224418   6.168   0.831   1.745  0.6046 -0.8854  0.1182
 8152TIP3   OH224419   2.846   4.680   0.684 -0.1910 -0.4149 -0.2689
 8152TIP3    H124420   2.891   4.601   0.654  0.2579 -0.6049  0.8728
 8152TIP3    H224421   2.915   4.735   0.721 -0.7452 -0.3152  0.6561
 8153TIP3   OH224422   1.277   5.253   4.123 -0.1141 -0.2526 -0.7983
 8153TIP3    H124423   1.334   5.327   4.143 -1.2396  0.6130 -0.6334
 8153TIP3    H224424   1.307   5.221   4.038  0.4338  0.3495 -0.8384
 8154TIP3   OH224425   2.907   6.451   4.473  0.3129 -0.6459 -0.2267
 8154TIP3    H124426   2.833   6.393   4.456  0.9741 -1.1786 -1.3854
 8154TIP3    H224427   2.983   6.407   4.434  0.8444  0.9532 -1.1101
 8155TIP3   OH224428   4.610   1.960   2.625  0.0054  0.5106  0.7527
 8155TIP3    H124429   4.528   1.999   2.595 -0.1719 -0.0338  0.5212
 8155TIP3    H224430   4.607   1.870   2.593  1.6240  1.0343 -1.0499
 8156TIP3   OH224431   1.444   6.825   3.413 -0.1289  0.5136 -0.4432
 8156TIP3    H124432   1.415   6.754   3.471  0.4943 -0.7428 -1.5963
 8156TIP3    H224433   1.517   6.786   3.364  0.1929  1.9585 -1.1442
 8157TIP3   OH224434   5.656   2.391   0.478 -0.5862 -0.4172 -0.7476
 8157TIP3    H124435   5.679   2.412   0.387  3.7455 -0.9352 -0.0233
 8157TIP3    H224436   5.650   2.477   0.521 -0.0366 -0.2065 -1.0724
 8158TIP3   OH224437   1.210   5.240   3.691  0.3187 -0.1958 -0.3808
 8158TIP3    H124438   1.134   5.203   3.646  0.6101 -1.3244  0.0223
 8158TIP3    H224439   1.261   5.282   3.622  1.6021 -3.2926 -1.5045
 8159TIP3   OH224440   6.062   4.456   4.739  0.5460  0.3109 -0.4283
 8159TIP3    H124441   6.087   4.423   4.652  1.4386 -1.2807  0.3848
 8159TIP3    H224442   5.982   4.409   4.760  0.2885  0.7539 -0.4045
 8160TIP3   OH224443   1.349   4.352   1.517  0.4445 -0.0511 -0.0241
 8160TIP3    H124444   1.414   4.349   1.587 -0.5029  0.1276  0.8853
 8160TIP3    H224445   1.276   4.402   1.554 -0.4204 -0.6719 -0.8433
 8161TIP3   OH224446   6.991   1.673   3.394 -0.8710  1.1959 -0.2049
 8161TIP3    H124447   7.086   1.685   3.389 -0.7779  1.7057  1.7459
 8161TIP3    H224448   6.962   1.742   3.454 -2.1839 -0.1746  0.8216
 8162TIP3   OH224449   4.496   1.042   3.673  0.2025  0.3732  0.5329
 8162TIP3    H124450   4.477   1.053   3.580 -0.3289 -1.9803  0.3013
 8162TIP3    H224451   4.589   1.065   3.682  0.2262  0.7394 -0.5325
 8163TIP3   OH224452   2.386   6.719   3.805  0.6282 -1.0665  0.5426
 8163TIP3    H124453   2.464   6.766   3.833  1.1371 -0.9182 -1.0478
 8163TIP3    H224454   2.330   6.718   3.883  1.3676  0.5724  1.1468
 8164TIP3   OH224455   0.326   1.012   2.555 -0.4140 -0.5993 -0.2996
 8164TIP3    H124456   0.257   0.949   2.536 -1.3776  0.0012  1.0972
 8164TIP3    H224457   0.310   1.084   2.493 -0.3687 -0.9519 -0.7210
 8165TIP3   OH224458   2.128   2.953   0.354 -0.1893  0.5146  0.1455
 8165TIP3    H124459   2.071   3.029   0.347 -0.3292  0.3553 -0.4836
 8165TIP3    H224460   2.215   2.985   0.330 -0.2344  0.4930 -0.0471
 8166TIP3   OH224461   5.586   0.294   4.829  0.2101 -0.1768  0.4665
 8166TIP3    H124462   5.636   0.257   4.902 -0.0275  1.1685  1.3460
 8166TIP3    H224463   5.500   0.314   4.867 -0.5048 -1.0307 -0.6364
 8167TIP3   OH224464   0.049   1.757   4.669 -0.6208 -0.1049 -0.3935
 8167TIP3    H124465   0.055   1.795   4.756  2.6077 -3.9045  1.3544
 8167TIP3    H224466  -0.044   1.740   4.657 -1.2358  1.1478  1.9698
 8168TIP3   OH224467   7.030   1.477   1.446  0.4635  0.2707 -0.0340
 8168TIP3    H124468   7.115   1.496   1.487 -0.6877 -0.0383  2.6760
 8168TIP3    H224469   6.969   1.539   1.486 -0.2957  2.1071 -3.6431
 8169TIP3   OH224470   5.148   5.160   0.213  0.0010  0.2157  0.0018
 8169TIP3    H124471   5.137   5.133   0.122  1.0937 -0.1687 -0.0272
 8169TIP3    H224472   5.193   5.087   0.255 -1.4578 -0.0803  1.1350
 8170TIP3   OH224473   2.575   2.386   1.227  0.5593  0.1751 -0.2254
 8170TIP3    H124474   2.527   2.396   1.145  2.0776 -0.4184 -1.2406
 8170TIP3    H224475   2.639   2.458   1.226  0.2378  0.4829  0.7023
 8171TIP3   OH224476   2.508   3.609   1.211  1.0782  0.1771  0.3180
 8171TIP3    H124477   2.510   3.566   1.296  1.1872 -1.0378 -0.2771
 8171TIP3    H224478   2.599   3.636   1.196  1.1566 -0.0649  0.3594
 8172TIP3   OH224479   6.514   2.620   3.238 -0.2540 -0.4327  0.7097
 8172TIP3    H124480   6.504   2.526   3.226 -0.6875 -0.4867  1.4079
 8172TIP3    H224481   6.581   2.628   3.306  1.9638 -0.1542 -1.3895
 8173TIP3   OH224482   3.887   2.750   5.634 -0.0852 -0.6383  0.1984
 8173TIP3    H124483   3.844   2.668   5.658  2.4866 -1.9315  0.7186
 8173TIP3    H224484   3.921   2.784   5.717 -0.3367  0.4926 -0.1446
 8174TIP3   OH224485   4.539   3.974   5.856  0.0240 -0.6036  0.0599
 8174TIP3    H124486   4.480   3.899   5.842 -0.6491 -0.1618  0.4741
 8174TIP3    H224487   4.481   4.050   5.859  0.8437  0.1592 -1.9609
 8175TIP3   OH224488   4.584   6.399   1.028  0.1487  0.0231 -0.0115
 8175TIP3    H124489   4.641   6.323   1.042  1.3019  0.7671 -0.5583
 8175TIP3    H224490   4.522   6.395   1.101  0.7264 -0.9610  0.4511
 8176TIP3   OH224491   5.280   0.086   0.593  0.5045  0.0193 -0.1160
 8176TIP3    H124492   5.212   0.049   0.537  0.1297  2.5264 -1.5077
 8176TIP3    H224493   5.254   0.061   0.682 -1.7277  0.0895 -0.6755
 8177TIP3   OH224494   6.367   5.053   1.846 -0.5498  0.2570  0.3210
 8177TIP3    H124495   6.459   5.074   1.832 -0.5573 -0.8276 -1.7504
 8177TIP3    H224496   6.335   5.027   1.760 -3.1117  1.6870  0.7396
 8178TIP3   OH224497   4.477   2.664   4.219  0.1417  0.0988 -0.2292
 8178TIP3    H124498   4.569   2.693   4.220  0.2256 -0.1605  0.4379
 8178TIP3    H224499   4.432   2.727   4.164  1.0191 -0.7112 -1.9657
 8179TIP3   OH224500   6.627   2.680   3.536  0.0943  0.0477  1.0221
 8179TIP3    H124501   6.602   2.596   3.575 -0.6749  0.3675  1.2294
 8179TIP3    H224502   6.715   2.665   3.501  0.4739 -0.4713  2.1806
 8180TIP3   OH224503   1.845   3.114   1.728  0.0147  0.1967 -0.6057
 8180TIP3    H124504   1.853   3.158   1.643  0.4170  1.2723 -0.0320
 8180TIP3    H224505   1.753   3.124   1.752 -0.0794 -0.0294 -0.8654
 8181TIP3   OH224506   7.048   4.186   5.096 -0.3915 -0.5401 -0.4359
 8181TIP3    H124507   6.996   4.163   5.019 -1.3656  0.8276 -0.2338
 8181TIP3    H224508   7.042   4.110   5.153 -2.1851 -0.4450 -0.4381
 8182TIP3   OH224509   4.390   1.255   5.094  0.4454  0.2366  0.0453
 8182TIP3    H124510   4.426   1.207   5.169  0.6411 -0.8570 -0.7325
 8182TIP3    H224511   4.315   1.303   5.131  2.0153  1.7562  1.4775
 8183TIP3   OH224512   6.128   4.715   3.117  0.3496  0.7554 -0.4441
 8183TIP3    H124513   6.127   4.678   3.029 -0.8257  1.0376 -0.5581
 8183TIP3    H224514   6.216   4.750   3.127  0.6346  0.3234 -1.3370
 8184TIP3   OH224515   7.163   4.311   4.054 -0.0921  0.2911 -0.2414
 8184TIP3    H124516   7.112   4.387   4.028 -0.8421 -0.1804 -0.2064
 8184TIP3    H224517   7.108   4.268   4.120  0.4930 -0.0663  0.0182
 8185TIP3   OH224518   6.229   5.976   1.744  0.0697  0.3952  0.1941
 8185TIP3    H124519   6.225   5.895   1.694 -0.8887 -0.2074  1.2144
 8185TIP3    H224520   6.188   6.042   1.688  1.0853  0.2593 -0.7462
 8186TIP3   OH224521   4.184   4.036   0.487 -0.3512 -0.0055  0.1902
 8186TIP3    H124522   4.127   4.082   0.425  0.4369 -0.0444 -0.5720
 8186TIP3    H224523   4.124   4.008   0.557 -1.3613 -0.5032 -0.8447
 8187TIP3   OH224524   2.947   4.355   2.370 -0.0559  0.1950 -0.1949
 8187TIP3    H124525   2.973   4.386   2.283 -0.3503 -0.7689 -0.6322
 8187TIP3    H224526   3.003   4.404   2.430  2.1943 -1.1718 -1.0609
 8188TIP3   OH224527   1.669   2.114   2.520 -0.3583  0.1274 -0.4499
 8188TIP3    H124528   1.624   2.065   2.451  2.2223 -1.3881 -1.2006
 8188TIP3    H224529   1.741   2.057   2.547  0.2487  1.7793  1.7210
 8189TIP3   OH224530   1.315   5.926   3.893  0.2829 -0.4952  0.0975
 8189TIP3    H124531   1.241   5.909   3.952 -0.7325  1.4091 -0.5554
 8189TIP3    H224532   1.278   5.917   3.805  0.7787  0.5589 -0.2370
 8190TIP3   OH224533   1.627   4.017   0.952  0.7756 -0.4387 -0.3350
 8190TIP3    H124534   1.636   4.101   0.906  1.6049 -1.1290 -1.4704
 8190TIP3    H224535   1.701   3.965   0.921  0.9787 -1.1758  1.2874
 8191TIP3   OH224536   7.219   0.877   1.074  0.1474 -0.2453  0.2237
 8191TIP3    H124537   7.178   0.941   1.132  0.7160 -0.5161  0.9361
 8191TIP3    H224538   7.245   0.927   0.997  0.6636  0.4090  0.8075
 8192TIP3   OH224539   5.462   5.605   1.743 -0.0438  1.0584 -0.2463
 8192TIP3    H124540   5.487   5.568   1.828  1.6498  2.0561 -0.2482
 8192TIP3    H224541   5.379   5.649   1.759 -0.2775  0.3256  0.6261
 8193TIP3   OH224542   7.091   0.761   5.729 -0.4247 -0.0828  0.2509
 8193TIP3    H124543   7.132   0.756   5.815  1.2696 -1.1151 -0.5593
 8193TIP3    H224544   7.129   0.687   5.680 -1.2805  0.5211 -1.3986
 8194TIP3   OH224545   3.044   4.203   1.175  0.5345 -0.4380  0.2091
 8194TIP3    H124546   3.066   4.110   1.176 -0.7331 -0.7726 -0.4924
 8194TIP3    H224547   2.977   4.212   1.243 -0.3238 -0.3250 -0.6225
 8195TIP3   OH224548   5.387   6.292   4.260 -0.0796 -0.4872  0.3721
 8195TIP3    H124549   5.416   6.232   4.191  1.6187  0.4073  0.2624
 8195TIP3    H224550   5.291   6.287   4.256 -0.0069 -2.3531 -0.3414
 8196TIP3   OH224551   5.360   0.919   4.767  0.0832 -0.2320 -0.1996
 8196TIP3    H124552   5.453   0.897   4.759  0.5265  1.1069  0.9716
 8196TIP3    H224553   5.325   0.852   4.826  0.2272 -0.8579 -0.7979
 8197TIP3   OH224554   2.856   5.672   1.868 -0.2024 -0.2002  0.5435
 8197TIP3    H124555   2.881   5.595   1.817  0.8227 -0.6748  1.6950
 8197TIP3    H224556   2.880   5.649   1.958 -1.6883  0.7173  1.2052
 8198TIP3   OH224557   6.798   5.292   0.331  0.0101 -0.0901 -0.5815
 8198TIP3    H124558   6.860   5.361   0.356  2.2887 -1.4375 -2.0755
 8198TIP3    H224559   6.736   5.287   0.404  1.6595  1.3717  1.0261
 8199TIP3   OH224560   3.526   3.795   5.164 -0.1385  0.6878 -0.0174
 8199TIP3    H124561   3.468   3.817   5.091  0.7551  1.9493 -0.3780
 8199TIP3    H224562   3.558   3.707   5.144 -3.3127 -0.9140  1.1324
 8200TIP3   OH224563   1.738   2.246   2.173 -0.2322  0.4785  0.7193
 8200TIP3    H124564   1.728   2.198   2.090  1.1635  0.9419  0.2486
 8200TIP3    H224565   1.651   2.279   2.192 -1.3468 -2.3942  1.1872
 8201TIP3   OH224566   6.267   1.516   5.288 -0.5633 -0.6112  0.7122
 8201TIP3    H124567   6.342   1.575   5.291 -0.2947 -0.9629  2.7290
 8201TIP3    H224568   6.191   1.574   5.286 -0.2625 -0.2416 -0.1558
 8202TIP3   OH224569   2.712   1.166   3.880 -0.0882  0.0067  0.1098
 8202TIP3    H124570   2.711   1.248   3.930 -0.4355  0.6044 -0.8487
 8202TIP3    H224571   2.685   1.192   3.792  0.2778 -1.0660 -0.3280
 8203TIP3   OH224572   6.798   1.237   4.919 -1.0861 -0.0357  0.2124
 8203TIP3    H124573   6.744   1.159   4.909 -0.2329 -0.8623  1.6667
 8203TIP3    H224574   6.856   1.216   4.992  1.3261  0.7186 -1.3641
 8204TIP3   OH224575   3.647   1.136   0.773  0.2344  0.0517 -0.1704
 8204TIP3    H124576   3.671   1.059   0.825 -1.1508  0.3965  1.0459
 8204TIP3    H224577   3.564   1.113   0.732  0.1230  0.6710 -0.3012
 8205TIP3   OH224578   4.136   0.801   2.222  0.2241  0.2211 -0.3238
 8205TIP3    H124579   4.161   0.791   2.130  0.9477  0.3024 -0.1420
 8205TIP3    H224580   4.082   0.879   2.224 -0.8794 -0.4993 -0.8824
 8206TIP3   OH224581   0.598   4.250   3.171 -0.4273  0.1152 -0.0018
 8206TIP3    H124582   0.572   4.159   3.155 -0.9150  0.0371  1.1602
 8206TIP3    H224583   0.624   4.283   3.084 -0.3679 -1.0820 -0.4616
 8207TIP3   OH224584   4.567   6.475   3.537 -0.3209  0.0883  0.0820
 8207TIP3    H124585   4.499   6.442   3.596 -0.1721 -0.7281 -0.1851
 8207TIP3    H224586   4.548   6.569   3.528 -1.3366 -0.1040  0.1095
 8208TIP3   OH224587   3.069   6.606   2.695  0.2750 -0.1549 -0.2627
 8208TIP3    H124588   3.046   6.544   2.764 -0.3834  1.0018  0.5907
 8208TIP3    H224589   3.164   6.616   2.703  0.2823 -0.4707  0.0788
 8209TIP3   OH224590   5.054   6.558   0.548  0.3461  0.3367  0.2089
 8209TIP3    H124591   4.968   6.539   0.509  0.2169  0.5413  0.3938
 8209TIP3    H224592   5.113   6.566   0.473  0.3933 -0.7184  0.1166
 8210TIP3   OH224593   1.249   5.002   0.759 -0.1884  0.6297 -0.1318
 8210TIP3    H124594   1.236   4.999   0.854  0.2764 -0.9520 -0.0930
 8210TIP3    H224595   1.188   4.936   0.724 -1.1445  1.9444 -1.0545
 8211TIP3   OH224596   3.326   4.983   0.885 -0.0360  0.0470  0.1603
 8211TIP3    H124597   3.279   4.910   0.926  0.0189 -0.4455 -0.6255
 8211TIP3    H224598   3.395   5.005   0.947 -1.0904  0.5598  1.1796
 8212TIP3   OH224599   0.060   6.248   0.585  0.0815 -0.7123 -0.2179
 8212TIP3    H124600   0.091   6.315   0.645  1.0496 -0.1261 -1.3308
 8212TIP3    H224601  -0.034   6.243   0.601  0.3244 -0.6005  1.3482
 8213TIP3   OH224602   0.620   5.906   0.445 -0.1485 -0.6388 -0.7154
 8213TIP3    H124603   0.696   5.906   0.386 -0.9991 -0.6082 -1.8501
 8213TIP3    H224604   0.587   5.816   0.442  0.7864 -1.0768  1.0689
 8214TIP3   OH224605   2.712   3.891   2.585 -0.6054  0.5585  0.2421
 8214TIP3    H124606   2.680   3.880   2.496  2.6174  0.4207 -1.0376
 8214TIP3    H224607   2.727   3.985   2.594  3.2641  0.2669 -1.1778
 8215TIP3   OH224608   1.090   0.056   5.612  0.7473 -0.0420  0.3742
 8215TIP3    H124609   1.153   0.124   5.636  0.5999  0.3366 -0.2883
 8215TIP3    H224610   1.030   0.099   5.551  0.3426 -0.6281  0.3491
 8216TIP3   OH224611   0.811   5.478   5.504 -0.3396 -0.1245 -0.3574
 8216TIP3    H124612   0.819   5.558   5.452  3.3799  1.0208  1.5743
 8216TIP3    H224613   0.838   5.408   5.445  2.3359  0.9508 -0.5537
 8217TIP3   OH224614   2.111   0.218   3.010  0.6853 -0.3226 -0.1962
 8217TIP3    H124615   2.035   0.187   2.960  0.8584 -2.1125  0.5890
 8217TIP3    H224616   2.080   0.298   3.053 -0.3991 -0.4123 -0.7690
 8218TIP3   OH224617   6.460   1.195   3.944  0.6643  0.3853  0.2243
 8218TIP3    H124618   6.436   1.276   3.987 -0.6110  0.1475 -0.0043
 8218TIP3    H224619   6.468   1.218   3.851 -1.6880 -0.1090 -0.1566
 8219TIP3   OH224620   3.509   6.263   2.415 -0.5614 -0.0726  0.2683
 8219TIP3    H124621   3.555   6.229   2.339 -0.9372  0.1133 -0.0432
 8219TIP3    H224622   3.429   6.302   2.380  0.0166  1.4653  0.5574
 8220TIP3   OH224623   3.890   2.419   2.703  0.1084 -0.3419 -0.1866
 8220TIP3    H124624   3.807   2.460   2.725  0.2724  0.7938 -1.5592
 8220TIP3    H224625   3.877   2.384   2.615  0.8725 -0.7322 -0.1531
 8221TIP3   OH224626   1.952   4.388   0.007 -0.3149 -0.5183 -0.0077
 8221TIP3    H124627   1.924   4.307   0.050  0.3899 -0.5399  0.4277
 8221TIP3    H224628   1.907   4.457   0.055  0.2608 -0.5593  0.6080
 8222TIP3   OH224629   3.461   2.316   2.836  0.4321 -0.0263 -0.3095
 8222TIP3    H124630   3.382   2.358   2.869  1.7313  0.5538  2.3070
 8222TIP3    H224631   3.434   2.227   2.816 -0.6697 -0.1926  1.6658
 8223TIP3   OH224632   3.020   4.337   0.730  0.5635 -0.5858  0.1356
 8223TIP3    H124633   3.097   4.279   0.732  0.7477 -0.3520 -0.0334
 8223TIP3    H224634   3.028   4.390   0.809  1.0306  0.0108 -0.3030
 8224TIP3   OH224635   5.540   0.018   2.229  1.2370 -0.1231 -0.4519
 8224TIP3    H124636   5.587   0.092   2.192  1.1859 -0.2286 -0.7294
 8224TIP3    H224637   5.592  -0.008   2.305  1.1811  0.2819 -0.2749
 8225TIP3   OH224638   2.839   4.908   3.809  0.8364  0.1677  0.0197
 8225TIP3    H124639   2.898   4.863   3.868 -0.8603 -0.1667  1.5542
 8225TIP3    H224640   2.796   4.974   3.863 -0.7597 -0.1374 -0.8014
 8226TIP3   OH224641   0.921   5.372   1.405 -0.3212 -0.5109  0.0679
 8226TIP3    H124642   0.945   5.281   1.386  0.3423 -0.3417  0.0617
 8226TIP3    H224643   1.005   5.417   1.414 -0.6088 -0.2434  1.7270
 8227TIP3   OH224644   3.084   1.493   4.158 -0.3769 -0.1683  0.4265
 8227TIP3    H124645   3.083   1.397   4.162 -1.7228 -0.2295 -0.6224
 8227TIP3    H224646   2.999   1.516   4.119  0.0196  1.4399  0.4531
 8228TIP3   OH224647   6.370   6.818   2.860 -0.1403  0.2313  0.3431
 8228TIP3    H124648   6.365   6.788   2.950 -0.3571 -0.0362  0.2438
 8228TIP3    H224649   6.299   6.773   2.815  1.2983 -1.3718 -0.4476
 8229TIP3   OH224650   2.270   5.198   1.228 -0.1899 -0.0917  0.0869
 8229TIP3    H124651   2.191   5.245   1.201  0.4999  1.9351  1.3544
 8229TIP3    H224652   2.238   5.125   1.281 -1.2423  1.2813  1.4273
 8230TIP3   OH224653   2.937   0.551   5.796  0.6496 -0.2797  0.2405
 8230TIP3    H124654   2.919   0.527   5.887  1.0087 -0.0455  0.3754
 8230TIP3    H224655   2.850   0.565   5.757  0.2138 -3.6914 -0.4121
 8231TIP3   OH224656   2.237   1.744   1.951 -0.2577  0.5694  0.5381
 8231TIP3    H124657   2.228   1.655   1.919 -0.9936  0.7557  0.2040
 8231TIP3    H224658   2.311   1.740   2.012 -0.0086 -0.1694  0.2052
 8232TIP3   OH224659   1.994   4.391   4.760  0.0725 -0.3146  0.2667
 8232TIP3    H124660   1.908   4.351   4.744 -1.2201  1.5487  1.8762
 8232TIP3    H224661   2.025   4.417   4.674 -0.7806 -1.3965 -0.3988
 8233TIP3   OH224662   4.879   3.446   1.212  0.1687 -0.3772 -0.1232
 8233TIP3    H124663   4.859   3.389   1.137 -0.5993 -1.6263  0.9791
 8233TIP3    H224664   4.795   3.460   1.255  0.6763 -0.1973  0.8418
 8234TIP3   OH224665   3.331   6.027   1.879 -0.2340  0.4727 -0.2614
 8234TIP3    H124666   3.270   6.095   1.851 -0.4815  0.0317 -0.8122
 8234TIP3    H224667   3.286   5.945   1.859  0.6256  0.1425 -0.8551
 8235TIP3   OH224668   1.633   3.640   0.462  0.3235  0.1907  0.7961
 8235TIP3    H124669   1.637   3.662   0.369  2.2992 -1.1854  0.4973
 8235TIP3    H224670   1.539   3.639   0.482 -0.1603  0.3362 -1.2280
 8236TIP3   OH224671   1.707   0.470   2.330 -0.2883 -0.2391 -0.2708
 8236TIP3    H124672   1.651   0.392   2.326 -0.0536 -0.3731 -1.3108
 8236TIP3    H224673   1.773   0.456   2.262  1.6902 -0.5753  1.6056
 8237TIP3   OH224674   6.480   3.325   5.285 -0.1102  0.0063  0.2191
 8237TIP3    H124675   6.429   3.244   5.278  0.8087 -0.5754  0.2211
 8237TIP3    H224676   6.562   3.307   5.239 -0.5716  1.5097 -1.3079
 8238TIP3   OH224677   5.334   0.529   2.623  0.1412  0.0255 -0.4057
 8238TIP3    H124678   5.286   0.554   2.702 -1.3039 -0.9778 -0.9100
 8238TIP3    H224679   5.290   0.577   2.553  0.4730 -0.1961 -0.7641
 8239TIP3   OH224680   4.388   6.059   1.781  0.0422 -0.2828  0.4804
 8239TIP3    H124681   4.410   6.034   1.870 -0.0018 -1.5530  0.1544
 8239TIP3    H224682   4.307   6.012   1.762  0.9734 -1.4473 -0.8092
 8240TIP3   OH224683   4.236   6.043   5.351 -0.1405 -0.5743 -0.4576
 8240TIP3    H124684   4.158   5.988   5.360 -0.7546  0.3767  0.1972
 8240TIP3    H224685   4.226   6.110   5.418 -0.4334  1.5543 -2.4923
 8241TIP3   OH224686   0.479   5.976   3.542  0.4830  0.1550  0.3119
 8241TIP3    H124687   0.533   6.006   3.469  0.3993 -1.3719 -0.4129
 8241TIP3    H224688   0.525   5.900   3.576  0.6466  0.9871  2.0430
 8242TIP3   OH224689   1.744   6.150   3.533 -0.5691 -1.0022 -0.0598
 8242TIP3    H124690   1.791   6.102   3.464  2.0492  0.3183  0.6412
 8242TIP3    H224691   1.751   6.094   3.610 -2.6786 -2.0534 -0.5690
 8243TIP3   OH224692   4.800   0.408   0.546 -0.4049  0.0080 -0.3405
 8243TIP3    H124693   4.830   0.499   0.546  0.0828 -0.1437 -0.9052
 8243TIP3    H224694   4.706   0.413   0.532 -0.0803  0.3742 -3.0289
 8244TIP3   OH224695   1.465   5.031   0.025 -0.4564  0.3451  0.3614
 8244TIP3    H124696   1.376   5.038  -0.010 -0.6801  1.2815  1.0797
 8244TIP3    H224697   1.458   4.968   0.096 -0.6297  0.7226  0.6790
 8245TIP3   OH224698   3.538   2.940   1.106  0.2277  0.4054 -0.3763
 8245TIP3    H124699   3.525   2.846   1.092 -0.1955  0.4357 -0.2167
 8245TIP3    H224700   3.462   2.967   1.158  0.8670  0.6414  0.4475
 8246TIP3   OH224701   6.482   5.245   3.256  0.4982  0.4405  0.3374
 8246TIP3    H124702   6.534   5.166   3.274  1.0956  0.9151  0.7507
 8246TIP3    H224703   6.428   5.257   3.334 -0.1836 -0.0048 -0.0573
 8247TIP3   OH224704   4.440   2.067   2.425 -0.0531  0.2939  0.4605
 8247TIP3    H124705   4.399   2.133   2.370  1.7514 -0.4857 -2.0118
 8247TIP3    H224706   4.367   2.014   2.458 -1.2415  0.9569 -0.9988
 8248TIP3   OH224707   3.761   4.004   0.482 -0.1834  0.0832  0.2990
 8248TIP3    H124708   3.711   3.923   0.490  0.7652 -0.5205  0.3629
 8248TIP3    H224709   3.853   3.976   0.490  0.2931  0.8876 -1.6105
 8249TIP3   OH224710   0.746   4.345   3.581  0.6296  0.6130  0.0483
 8249TIP3    H124711   0.808   4.352   3.508  2.7074 -2.0840  1.3809
 8249TIP3    H224712   0.691   4.270   3.558 -0.4844  1.3957  0.0854
 8250TIP3   OH224713   2.332   1.116   1.610  0.1166  0.7167  0.1457
 8250TIP3    H124714   2.353   1.044   1.551  1.0930  1.2382 -0.1773
 8250TIP3    H224715   2.363   1.087   1.696 -1.2352 -0.0117  0.4146
 8251TIP3   OH224716   6.690   5.840   5.145  0.2932  0.3976  0.6161
 8251TIP3    H124717   6.656   5.913   5.092  2.1722  0.6989 -0.2938
 8251TIP3    H224718   6.699   5.876   5.233 -2.8858 -0.1072  1.2712
 8252TIP3   OH224719   2.161   2.468   1.530 -0.7498  0.3816 -0.2955
 8252TIP3    H124720   2.207   2.391   1.564 -2.4219 -0.1341  0.9207
 8252TIP3    H224721   2.228   2.515   1.480  0.2600 -1.9788 -1.3089
 8253TIP3   OH224722   0.102   5.437   2.537  0.0370  0.1422  0.4984
 8253TIP3    H124723   0.029   5.413   2.594  0.2912  2.7330  2.0720
 8253TIP3    H224724   0.082   5.526   2.508  1.0883 -0.2347 -1.6114
 8254TIP3   OH224725   3.222   1.172   1.168  0.4211 -0.0765 -0.1348
 8254TIP3    H124726   3.130   1.145   1.163  0.4995 -0.6472  1.1044
 8254TIP3    H224727   3.266   1.119   1.101 -0.3394  1.2096 -1.7273
 8255TIP3   OH224728   2.985   4.438   0.069  0.3716  0.8827 -0.6834
 8255TIP3    H124729   2.980   4.431   0.164  0.6900  2.0771 -0.5559
 8255TIP3    H224730   2.894   4.438   0.039  0.2064 -3.7715 -0.8220
 8256TIP3   OH224731   7.029   5.880   1.814  0.2783  0.3347  0.4769
 8256TIP3    H124732   6.966   5.812   1.789  0.2809 -0.2609  1.9445
 8256TIP3    H224733   6.993   5.961   1.779 -0.8277 -0.1335  0.5059
 8257TIP3   OH224734   2.547   5.904   2.479  0.0316 -0.2063 -0.5323
 8257TIP3    H124735   2.500   5.834   2.523  1.0004 -0.6220 -0.1288
 8257TIP3    H224736   2.631   5.865   2.455  0.4262  0.6987 -0.6578
 8258TIP3   OH224737   5.152   5.147   4.239  0.2011 -0.1460 -0.2769
 8258TIP3    H124738   5.241   5.146   4.274 -0.0422 -1.0523  0.3715
 8258TIP3    H224739   5.159   5.102   4.154 -0.0068 -2.4333  0.8401
 8259TIP3   OH224740   2.853   5.597   5.736 -0.2694  0.7535 -0.4153
 8259TIP3    H124741   2.814   5.684   5.740 -2.6406 -0.2373  2.2772
 8259TIP3    H224742   2.789   5.545   5.687 -0.1111  0.0462  0.1059
 8260TIP3   OH224743   1.740   1.527   0.574 -0.2542  0.0322  0.1699
 8260TIP3    H124744   1.758   1.542   0.482 -0.2732 -0.8011  0.0237
 8260TIP3    H224745   1.645   1.535   0.582 -0.2275  0.3440  0.1613
 8261TIP3   OH224746   1.277   3.558   1.074 -0.0286  0.2825 -0.5083
 8261TIP3    H124747   1.206   3.538   1.135  1.7232 -1.2279  1.1507
 8261TIP3    H224748   1.254   3.511   0.994 -0.2548 -1.3465  0.4752
 8262TIP3   OH224749   1.760   2.945   5.540 -0.3300  0.0980 -0.2236
 8262TIP3    H124750   1.831   2.917   5.482  1.8045  0.1495  2.1703
 8262TIP3    H224751   1.738   2.866   5.590  0.1330  0.7714  1.0767
 8263TIP3   OH224752   4.635   2.830   5.601  0.0186 -0.3292  0.2065
 8263TIP3    H124753   4.679   2.765   5.655 -1.7945 -1.4294  0.4362
 8263TIP3    H224754   4.575   2.780   5.546 -0.7233  1.0657 -0.3207
 8264TIP3   OH224755   5.358   5.462   1.344 -0.4792 -0.6475  0.0461
 8264TIP3    H124756   5.279   5.434   1.389  0.0928  0.6307  1.9953
 8264TIP3    H224757   5.413   5.384   1.341 -1.0498 -1.0722  0.4318
 8265TIP3   OH224758   3.711   6.629   3.545  0.1543 -0.2936  0.0027
 8265TIP3    H124759   3.629   6.594   3.510  0.8137 -1.4037 -0.4669
 8265TIP3    H224760   3.711   6.721   3.516 -0.5030 -0.5156 -0.7540
 8266TIP3   OH224761   2.547   0.849   5.682 -0.3498 -0.0010 -0.2159
 8266TIP3    H124762   2.610   0.920   5.668  0.2640 -0.3596  0.6230
 8266TIP3    H224763   2.579   0.805   5.761 -0.0515 -1.9344 -1.3685
 8267TIP3   OH224764   4.853   2.244   4.707 -0.7306  0.3058  0.1291
 8267TIP3    H124765   4.903   2.242   4.625  0.6163  2.1889  0.8439
 8267TIP3    H224766   4.779   2.302   4.689 -1.3126 -0.5257 -0.1988
 8268TIP3   OH224767   2.712   5.375   5.270 -0.0513  0.1617  0.2703
 8268TIP3    H124768   2.715   5.281   5.253  0.9764  0.0920  0.7869
 8268TIP3    H224769   2.661   5.410   5.197 -0.7712 -0.8293  0.2703
 8269TIP3   OH224770   0.744   0.395   5.815  0.0912  0.1283  0.1479
 8269TIP3    H124771   0.766   0.304   5.832 -1.2267 -0.4834 -1.1958
 8269TIP3    H224772   0.823   0.433   5.777  0.5479 -0.5305  0.4256
 8270TIP3   OH224773   5.412   1.380   0.327 -0.2906 -0.2617 -0.3495
 8270TIP3    H124774   5.453   1.461   0.299  0.9919 -1.2281 -1.3952
 8270TIP3    H224775   5.475   1.312   0.304 -1.9919 -1.6978 -0.9712
 8271TIP3   OH224776   0.788   2.322   4.402  0.9124 -0.4159 -0.3585
 8271TIP3    H124777   0.832   2.359   4.480 -2.1564 -1.4398  2.0559
 8271TIP3    H224778   0.804   2.228   4.408 -1.8264 -0.8903  0.9039
 8272TIP3   OH224779   6.506   0.888   5.178 -0.2434  0.1318 -0.4158
 8272TIP3    H124780   6.581   0.927   5.134 -1.1632  1.4782 -0.8490
 8272TIP3    H224781   6.522   0.901   5.271 -0.6660  1.8705 -0.5551
 8273TIP3   OH224782   2.734   0.967   2.552  0.0712 -0.4421 -0.0065
 8273TIP3    H124783   2.735   0.977   2.647  0.2819  2.3617 -0.2227
 8273TIP3    H224784   2.670   0.897   2.536 -0.9889 -0.0441  2.1403
 8274TIP3   OH224785   1.731   0.005   5.432 -0.2096  0.2107 -0.0561
 8274TIP3    H124786   1.670  -0.003   5.506  0.1057  0.6822  0.2605
 8274TIP3    H224787   1.771   0.091   5.443  1.5657 -0.6399  0.5480
 8275TIP3   OH224788   2.358   5.595   4.056 -0.2992 -0.2078  0.2208
 8275TIP3    H124789   2.277   5.604   4.007  0.1411  0.1748 -0.4581
 8275TIP3    H224790   2.338   5.531   4.124 -0.5908 -1.7072 -1.2076
 8276TIP3   OH224791   0.857   2.766   4.602 -0.0351 -0.3472  0.0082
 8276TIP3    H124792   0.864   2.861   4.592  0.2363 -0.0083  2.6082
 8276TIP3    H224793   0.769   2.752   4.638  0.3468 -0.9275  0.7614
 8277TIP3   OH224794   1.417   6.427   3.775 -0.2647 -0.2189 -0.0118
 8277TIP3    H124795   1.422   6.416   3.680 -0.5006  1.4674 -0.2555
 8277TIP3    H224796   1.429   6.521   3.789 -0.2876 -0.4240  1.6317
 8278TIP3   OH224797   0.385   5.246   5.126  0.2737  0.2247  0.8340
 8278TIP3    H124798   0.403   5.332   5.165  0.4930  1.4739 -1.8329
 8278TIP3    H224799   0.428   5.249   5.041 -1.7543 -1.6272 -0.3452
 8279TIP3   OH224800   3.939   2.901   3.532 -0.3402 -0.5852  0.2678
 8279TIP3    H124801   3.955   2.822   3.479 -2.0968 -0.6853 -0.1746
 8279TIP3    H224802   4.027   2.931   3.557  0.4601 -1.5748 -1.1760
 8280TIP3   OH224803   4.979   2.982   2.006  0.1427  1.0858  0.0798
 8280TIP3    H124804   4.973   3.076   2.027  1.8374  1.5882 -1.4038
 8280TIP3    H224805   4.946   2.977   1.916  2.4961  0.7269 -0.8101
 8281TIP3   OH224806   5.732   3.322   5.213 -0.0718 -0.4152  0.4602
 8281TIP3    H124807   5.654   3.374   5.226  0.7757  0.2368  3.6987
 8281TIP3    H224808   5.801   3.367   5.262  2.2240 -1.3404 -1.6483
 8282TIP3   OH224809   3.243   4.588   2.437  0.4549 -0.0840  0.1639
 8282TIP3    H124810   3.154   4.603   2.468  0.2864 -2.0115  0.7415
 8282TIP3    H224811   3.294   4.575   2.516  1.2891  1.0556 -0.1642
 8283TIP3   OH224812   3.896   1.416   4.510  0.1552 -0.2007  0.2076
 8283TIP3    H124813   3.848   1.490   4.473 -0.8314 -0.8384  0.1793
 8283TIP3    H224814   3.842   1.385   4.582  1.4489  0.2329  1.4116
 8284TIP3   OH224815   6.383   2.302   0.877  0.3265  0.4480  0.6469
 8284TIP3    H124816   6.479   2.297   0.879  0.3283  0.3749  0.3194
 8284TIP3    H224817   6.355   2.220   0.918  0.3985 -0.2462 -0.6522
 8285TIP3   OH224818   2.156   3.218   1.612  0.6148 -0.3304 -0.4783
 8285TIP3    H124819   2.131   3.290   1.554 -1.9487 -0.3878  0.4453
 8285TIP3    H224820   2.151   3.140   1.557 -0.7408 -0.2616 -0.4727
 8286TIP3   OH224821   2.320   3.328   1.321  0.3017 -0.3563 -0.2381
 8286TIP3    H124822   2.345   3.394   1.385  0.8974  1.1884 -1.9754
 8286TIP3    H224823   2.389   3.262   1.327 -0.5369 -1.1079  1.8322
 8287TIP3   OH224824   0.853   2.697   0.076 -0.3533 -0.2502 -0.0811
 8287TIP3    H124825   0.806   2.776   0.101 -0.3095 -0.4386  0.6403
 8287TIP3    H224826   0.785   2.632   0.061 -0.4357  0.1710 -1.6249
 8288TIP3   OH224827   3.537   0.723   2.858 -0.1878 -0.3154  0.3278
 8288TIP3    H124828   3.573   0.775   2.930  0.1925  1.0621 -0.8200
 8288TIP3    H224829   3.604   0.725   2.790 -1.4752  0.4072 -0.9776
 8289TIP3   OH224830   5.059   6.483   3.131  0.3050 -0.0738  0.0809
 8289TIP3    H124831   5.012   6.404   3.158  0.8967 -0.4656 -0.0192
 8289TIP3    H224832   4.999   6.527   3.071 -0.6457  0.3326  1.2970
 8290TIP3   OH224833   2.693   3.622   1.827 -0.4333  0.1958  0.0285
 8290TIP3    H124834   2.742   3.704   1.819 -0.8013  0.3698 -0.4774
 8290TIP3    H224835   2.690   3.606   1.921 -0.0145  0.5539  0.1083
 8291TIP3   OH224836   1.365   1.931   3.553  0.5629 -0.0356  0.1707
 8291TIP3    H124837   1.369   2.001   3.619  1.2135 -0.8430  1.0022
 8291TIP3    H224838   1.451   1.891   3.554  0.4818 -0.2774 -0.9590
 8292TIP3   OH224839   0.113   3.797   3.155  0.0316 -0.3133  0.1516
 8292TIP3    H124840   0.061   3.843   3.089  0.1899 -1.6182 -0.9203
 8292TIP3    H224841   0.204   3.811   3.129  0.0822 -1.2059 -0.2000
 8293TIP3   OH224842   4.114   2.350   0.173  0.0563 -0.6885  0.0049
 8293TIP3    H124843   4.136   2.440   0.194 -1.0907 -0.3796 -0.0752
 8293TIP3    H224844   4.175   2.297   0.225  0.9160  0.1171 -0.1609
 8294TIP3   OH224845   1.083   2.355   0.341  0.5570  0.0971  0.4850
 8294TIP3    H124846   1.115   2.442   0.315  3.1048 -1.3060 -1.5790
 8294TIP3    H224847   1.160   2.313   0.379  0.1221 -2.0754 -0.8872
 8295TIP3   OH224848   2.495   0.439   2.619  0.4063 -0.5363 -0.0858
 8295TIP3    H124849   2.457   0.355   2.645  0.7411 -0.8818 -0.7034
 8295TIP3    H224850   2.572   0.416   2.567 -0.7180  0.1120 -2.1517
 8296TIP3   OH224851   1.866   2.661   3.669  0.1625 -0.7416 -0.4770
 8296TIP3    H124852   1.916   2.579   3.666  1.2691 -0.1037 -0.1696
 8296TIP3    H224853   1.852   2.677   3.762 -3.5555 -2.5812 -0.5667
 8297TIP3   OH224854   1.541   4.440   0.638  0.0452 -0.3395  0.1400
 8297TIP3    H124855   1.636   4.437   0.621  0.2734  2.2501  0.5065
 8297TIP3    H224856   1.534   4.466   0.730 -1.0183 -0.0932  0.0034
 8298TIP3   OH224857   0.079   0.148   0.754  0.2407  0.6062  0.1494
 8298TIP3    H124858   0.079   0.234   0.711  2.0289 -0.0810 -1.3161
 8298TIP3    H224859   0.003   0.151   0.813 -0.8347  2.4854 -1.2390
 8299TIP3   OH224860   0.604   6.762   5.811  0.4878 -0.1816  0.0500
 8299TIP3    H124861   0.548   6.737   5.738  1.0000  0.3459 -0.5417
 8299TIP3    H224862   0.582   6.854   5.828 -0.6504 -0.6881  1.5223
 8300TIP3   OH224863   5.145   3.904   2.184 -0.3924  0.4796  0.4301
 8300TIP3    H124864   5.160   3.961   2.259 -1.6395  0.5358  0.6635
 8300TIP3    H224865   5.089   3.955   2.126  0.5353  0.4226 -0.5297
 8301TIP3   OH224866   4.959   5.018   3.471 -0.0817 -0.0428 -0.1145
 8301TIP3    H124867   4.911   5.089   3.429  0.1575  1.0861  1.4218
 8301TIP3    H224868   4.926   5.017   3.561  1.7875 -0.1244  0.6091
 8302TIP3   OH224869   3.221   0.801   4.414 -0.1164  0.0783 -0.1299
 8302TIP3    H124870   3.138   0.754   4.426  1.1619 -2.2629  0.3051
 8302TIP3    H224871   3.265   0.752   4.344  1.0148  1.0795 -0.1397
 8303TIP3   OH224872   3.010   0.236   5.804 -0.3669  0.3280 -0.5655
 8303TIP3    H124873   2.969   0.318   5.779 -0.9181  0.7783  1.6405
 8303TIP3    H224874   3.086   0.261   5.856 -0.7697 -0.5317  0.4835
 8304TIP3   OH224875   0.435   5.261   4.267 -0.0594 -0.4091 -0.0153
 8304TIP3    H124876   0.462   5.352   4.259 -0.5662 -0.2086  0.4314
 8304TIP3    H224877   0.513   5.210   4.246  0.3250  0.1335  0.0797
 8305TIP3   OH224878   0.928   0.094   1.911 -0.0865 -0.2930  0.1904
 8305TIP3    H124879   0.887   0.120   1.829  1.4079 -1.2902 -0.9411
 8305TIP3    H224880   0.949   0.001   1.899  1.7216 -0.0401  1.0047
 8306TIP3   OH224881   6.766   3.304   4.435 -0.1466  0.8575  0.4829
 8306TIP3    H124882   6.725   3.218   4.441 -0.1696  0.5586 -2.3782
 8306TIP3    H224883   6.838   3.292   4.373  0.1730  2.7816  0.4079
 8307TIP3   OH224884   7.081   1.119   2.594 -0.0498 -0.0063  0.3112
 8307TIP3    H124885   7.172   1.135   2.618 -0.1286 -0.2970  0.8097
 8307TIP3    H224886   7.034   1.196   2.627 -0.5324 -1.4525  3.3111
 8308TIP3   OH224887   5.536   5.728   0.224  0.3355  0.6811 -0.4110
 8308TIP3    H124888   5.565   5.643   0.190 -0.0979 -0.8904  2.8005
 8308TIP3    H224889   5.445   5.713   0.250 -0.0669  2.4640 -0.6832
 8309TIP3   OH224890   5.848   5.527   4.925  0.1738  0.2537 -0.7925
 8309TIP3    H124891   5.896   5.582   4.988 -1.0318  0.5814 -0.1201
 8309TIP3    H224892   5.864   5.438   4.955  1.2158  0.2817 -1.2142
 8310TIP3   OH224893   2.565   4.901   2.750 -0.3043  0.1319  0.3709
 8310TIP3    H124894   2.480   4.880   2.711  0.1824 -1.2209  0.0053
 8310TIP3    H224895   2.619   4.927   2.675  0.3728 -1.6266  0.1992
 8311TIP3   OH224896   6.134   0.747   5.650 -0.6551  0.0761  0.1901
 8311TIP3    H124897   6.215   0.759   5.700 -0.4077  0.1723 -0.2258
 8311TIP3    H224898   6.070   0.715   5.714 -0.0083 -1.0015  0.3194
 8312TIP3   OH224899   6.796   3.453   1.627 -0.0019  0.1435 -1.1568
 8312TIP3    H124900   6.744   3.534   1.632  0.3421  0.3680 -1.1833
 8312TIP3    H224901   6.884   3.480   1.655 -0.3211 -0.6280  0.7745
 8313TIP3   OH224902   0.691   4.979   5.251  0.3535 -0.4309  0.5275
 8313TIP3    H124903   0.634   4.977   5.328 -0.5085 -1.5863 -0.1264
 8313TIP3    H224904   0.748   4.903   5.261  1.1449  0.1550  0.6643
 8314TIP3   OH224905   5.392   4.484   3.656 -0.0883 -0.4406  0.3831
 8314TIP3    H124906   5.359   4.396   3.636 -0.7887  0.0160 -0.5902
 8314TIP3    H224907   5.316   4.541   3.647  0.3272  0.2497  1.1472
 8315TIP3   OH224908   5.233   2.073   0.237 -0.0200 -0.0170  0.3429
 8315TIP3    H124909   5.176   2.121   0.297  0.1594 -0.0258  0.5231
 8315TIP3    H224910   5.177   2.050   0.163  0.1321  1.3260 -0.2159
 8316TIP3   OH224911   6.852   0.120   0.389  0.2044  0.0131  0.3288
 8316TIP3    H124912   6.885   0.092   0.474 -1.1928 -0.3580  0.7792
 8316TIP3    H224913   6.818   0.039   0.349  1.7263 -0.0124 -1.0334
 8317TIP3   OH224914   4.022   5.550   1.308  0.6036 -0.1385  0.5054
 8317TIP3    H124915   4.043   5.540   1.215  1.4012 -0.2289  0.6872
 8317TIP3    H224916   4.047   5.640   1.329 -0.1797  0.0870  0.4833
 8318TIP3   OH224917   0.343   5.841   0.871  0.8254  0.2226 -0.3594
 8318TIP3    H124918   0.391   5.896   0.809 -0.0911  1.6387  0.1514
 8318TIP3    H224919   0.369   5.873   0.957 -0.6652  0.6915 -0.0724
 8319TIP3   OH224920   2.290   6.483   3.474 -0.4071 -0.4536 -0.6517
 8319TIP3    H124921   2.274   6.397   3.513 -0.8746  0.8935  2.3999
 8319TIP3    H224922   2.202   6.519   3.460 -0.2036 -0.0066 -0.7870
 8320TIP3   OH224923   1.043   1.623   1.712 -0.0191 -0.1056 -0.1226
 8320TIP3    H124924   1.121   1.623   1.768 -1.1713 -0.6400  1.5170
 8320TIP3    H224925   1.071   1.575   1.634  0.9402 -1.4268  0.9809
 8321TIP3   OH224926   4.880   3.461   3.592 -0.1937  0.1221 -0.2541
 8321TIP3    H124927   4.928   3.424   3.666  0.0814 -0.0442 -0.5087
 8321TIP3    H224928   4.828   3.532   3.629  0.8678  0.8452 -0.0802
 8322TIP3   OH224929   3.003   2.357   3.937  0.4566 -0.1338 -0.8663
 8322TIP3    H124930   2.945   2.369   3.862 -0.2163 -0.0433 -0.3349
 8322TIP3    H224931   3.005   2.442   3.981  1.3794  0.0043 -1.1477
 8323TIP3   OH224932   0.589   0.864   3.308 -0.1672  0.5212 -0.1337
 8323TIP3    H124933   0.619   0.939   3.257  1.8268 -0.0576  0.1114
 8323TIP3    H224934   0.655   0.796   3.293 -2.2967 -1.5085 -0.9602
 8324TIP3   OH224935   0.287   1.736   0.617 -0.3997  0.2917 -0.2068
 8324TIP3    H124936   0.322   1.753   0.529  0.6772 -3.2937 -0.6674
 8324TIP3    H224937   0.193   1.724   0.603 -0.7618  2.7025 -0.2545
 8325TIP3   OH224938   0.274   3.510   3.424 -0.7618 -0.0396 -0.4904
 8325TIP3    H124939   0.220   3.563   3.482  0.4225 -0.9457  1.5424
 8325TIP3    H224940   0.223   3.504   3.343 -3.6407 -0.7366  1.2432
 8326TIP3   OH224941   7.030   5.785   2.652 -0.3560  0.2206 -0.0708
 8326TIP3    H124942   7.120   5.757   2.664 -0.7612 -1.2680 -0.3273
 8326TIP3    H224943   6.991   5.780   2.739 -0.3529  0.2859 -0.0652
 8327TIP3   OH224944   6.755   0.247   3.493 -0.0288 -0.1116 -0.5673
 8327TIP3    H124945   6.762   0.157   3.462  2.1191  0.0692 -0.7637
 8327TIP3    H224946   6.662   0.258   3.515 -0.4585 -2.1373 -1.1754
 8328TIP3   OH224947   7.016   6.425   4.393 -0.1887  0.0829 -1.0969
 8328TIP3    H124948   7.037   6.394   4.305 -1.3018 -0.6775 -1.1143
 8328TIP3    H224949   6.925   6.454   4.388  0.3627  2.0678 -0.7084
 8329TIP3   OH224950   0.308   2.222   2.634 -0.2572  0.2436 -0.1704
 8329TIP3    H124951   0.399   2.205   2.659  0.0125 -1.9963 -2.2677
 8329TIP3    H224952   0.273   2.276   2.704  2.6802  1.1632  0.7186
 8330TIP3   OH224953   1.582   5.902   0.376 -0.0826 -0.0263 -0.4920
 8330TIP3    H124954   1.660   5.958   0.385 -0.6013  0.6112  0.1941
 8330TIP3    H224955   1.577   5.854   0.458 -0.4640  0.0009 -0.4971
 8331TIP3   OH224956   2.464   6.275   1.845 -0.7908 -0.4016 -0.4757
 8331TIP3    H124957   2.482   6.250   1.935  0.0412 -1.1538 -0.8360
 8331TIP3    H224958   2.442   6.193   1.801  0.3690 -0.2904 -1.3106
 8332TIP3   OH224959   6.485   6.490   2.530 -0.5918  0.1697  0.3202
 8332TIP3    H124960   6.534   6.412   2.557 -0.6522 -0.1196 -0.3865
 8332TIP3    H224961   6.529   6.563   2.574 -0.6654 -0.2823  1.1581
 8333TIP3   OH224962   5.897   3.926   3.362 -0.1194 -0.0313  0.5209
 8333TIP3    H124963   5.882   3.901   3.271 -0.0005  0.7527  0.2764
 8333TIP3    H224964   5.849   3.861   3.413 -0.6080 -0.1814 -0.1123
 8334TIP3   OH224965   6.631   6.828   0.226 -0.3359 -0.3342  0.7078
 8334TIP3    H124966   6.637   6.756   0.289  1.5015 -1.4442 -0.6173
 8334TIP3    H224967   6.544   6.818   0.186 -0.5437 -1.1433  1.3369
 8335TIP3   OH224968   0.494   6.320   1.365  0.0321  0.2811  0.0104
 8335TIP3    H124969   0.452   6.337   1.449 -0.8873 -0.1301 -0.3481
 8335TIP3    H224970   0.464   6.392   1.309  1.5872  1.2213  0.3358
 8336TIP3   OH224971   1.044   2.765   4.147  0.0222 -0.1962 -0.4538
 8336TIP3    H124972   1.009   2.843   4.104 -1.2443 -0.7045 -0.3902
 8336TIP3    H224973   0.989   2.753   4.224  0.2310 -1.1241 -0.4406
 8337TIP3   OH224974   6.099   5.128   5.762  0.1386  0.0837  0.5511
 8337TIP3    H124975   6.060   5.188   5.698  0.4339  1.7493  1.8419
 8337TIP3    H224976   6.029   5.068   5.785 -1.2721  2.0363  1.6648
 8338TIP3   OH224977   6.118   2.014   3.211  0.2940  0.1193 -0.3200
 8338TIP3    H124978   6.057   2.087   3.196 -0.3333 -0.5406 -1.0938
 8338TIP3    H224979   6.200   2.044   3.171  0.3859  0.8641  0.3974
 8339TIP3   OH224980   0.356   6.788   4.425 -0.2596  0.2383  0.4187
 8339TIP3    H124981   0.327   6.734   4.352 -0.3961  1.1978 -0.2568
 8339TIP3    H224982   0.439   6.825   4.395  0.4541 -0.5570  1.3648
 8340TIP3   OH224983   1.589   0.012   5.021 -0.1773 -0.4579 -0.1068
 8340TIP3    H124984   1.633   0.090   4.988  1.1208 -1.5656 -1.1399
 8340TIP3    H224985   1.509   0.005   4.969 -0.6214  0.4894  0.4196
 8341TIP3   OH224986   1.323   0.331   3.888  0.0962 -0.2171 -0.2223
 8341TIP3    H124987   1.240   0.369   3.917 -0.5070 -0.6206 -1.3369
 8341TIP3    H224988   1.353   0.277   3.962 -0.3539  0.3654  0.3894
 8342TIP3   OH224989   0.428   6.534   4.076  0.1615  0.3475 -0.3274
 8342TIP3    H124990   0.382   6.577   4.004  0.5294 -1.7312 -1.8914
 8342TIP3    H224991   0.360   6.520   4.142 -0.6312  0.5411 -1.0793
 8343TIP3   OH224992   1.169   4.309   0.973 -0.1010  0.5426 -0.1325
 8343TIP3    H124993   1.130   4.318   1.060 -0.4079 -0.9396 -0.0987
 8343TIP3    H224994   1.168   4.398   0.937  0.4913  1.2783  1.5573
 8344TIP3   OH224995   0.205   6.454   2.541  0.0407  0.2891  0.3556
 8344TIP3    H124996   0.253   6.520   2.591 -0.5264 -1.2608  3.1449
 8344TIP3    H224997   0.176   6.500   2.463  0.4532  3.0778  1.7289
 8345TIP3   OH224998   6.472   6.531   1.086  0.2255 -0.2740  0.1407
 8345TIP3    H124999   6.437   6.460   1.033 -0.2382  1.5537 -2.1964
 8345TIP3    H225000   6.557   6.499   1.117 -0.0820 -1.9077 -0.6313
 8346TIP3   OH225001   0.601   1.805   3.367 -0.2276  0.4051 -0.1443
 8346TIP3    H125002   0.680   1.847   3.403 -0.5807 -0.7101  2.1474
 8346TIP3    H225003   0.531   1.867   3.386  0.0210  1.3146 -2.0184
 8347TIP3   OH225004   0.862   2.584   3.948 -0.5500 -0.2587 -0.4877
 8347TIP3    H125005   0.767   2.585   3.960 -0.4533 -0.2016  0.3720
 8347TIP3    H225006   0.878   2.642   3.874 -1.1985 -0.4054 -0.7497
 8348TIP3   OH225007   2.303   5.147   4.686 -0.2426 -0.3475  0.0707
 8348TIP3    H125008   2.296   5.189   4.600 -3.2129  0.3378  0.5662
 8348TIP3    H225009   2.285   5.216   4.749  0.3230 -1.1866  1.1926
 8349TIP3   OH225010   6.678   0.281   0.159 -0.0826 -0.0919 -0.5531
 8349TIP3    H125011   6.672   0.370   0.193  0.3439  0.2240 -1.2923
 8349TIP3    H225012   6.771   0.262   0.157 -0.1169 -0.2195 -1.2502
 8350TIP3   OH225013   0.526   4.651   1.871  0.5671 -0.4246  0.4344
 8350TIP3    H125014   0.494   4.568   1.905 -0.0102 -0.7164 -0.7736
 8350TIP3    H225015   0.497   4.716   1.935  0.0681 -1.0195  0.8276
 8351TIP3   OH225016   4.270   6.424   2.409 -0.7462 -0.7335 -0.0690
 8351TIP3    H125017   4.240   6.509   2.441  1.8664  0.5192 -0.7493
 8351TIP3    H225018   4.225   6.412   2.325 -1.8229 -0.5015  0.4532
 8352TIP3   OH225019   3.079   0.594   0.350  0.1255  0.0083 -0.1946
 8352TIP3    H125020   3.020   0.605   0.276  0.1144 -0.6443 -0.2940
 8352TIP3    H225021   3.050   0.658   0.414  0.3427  0.8093 -0.8811
 8353TIP3   OH225022   0.519   4.403   0.907  0.1421  0.1492  0.3272
 8353TIP3    H125023   0.435   4.449   0.914  0.6479  0.9520  1.3133
 8353TIP3    H225024   0.506   4.323   0.957 -1.0172 -1.2946 -2.0848
 8354TIP3   OH225025   1.863   6.684   0.831  0.1599  0.1367  0.4349
 8354TIP3    H125026   1.771   6.667   0.850 -0.2802  0.7397 -1.0627
 8354TIP3    H225027   1.887   6.754   0.893 -1.1188  1.7514 -0.8066
 8355TIP3   OH225028   5.171   2.618   3.127  0.3074  0.0425 -0.0070
 8355TIP3    H125029   5.173   2.567   3.046  1.1970 -0.1493  0.1271
 8355TIP3    H225030   5.227   2.693   3.110 -1.9689  1.6855 -0.6377
 8356TIP3   OH225031   5.285   4.568   2.307 -0.4742 -0.2866  0.0498
 8356TIP3    H125032   5.227   4.644   2.315  0.0665  0.3023 -1.2893
 8356TIP3    H225033   5.226   4.494   2.293 -0.9877 -0.0377  0.8518
 8357TIP3   OH225034   4.300   2.776   1.302 -0.3750  0.2804  0.1730
 8357TIP3    H125035   4.255   2.708   1.253  0.0120  0.6355 -0.7056
 8357TIP3    H225036   4.294   2.748   1.393  3.6042 -3.3989 -0.3183
 8358TIP3   OH225037   0.988   5.067   1.295  0.8918  0.1965 -0.2920
 8358TIP3    H125038   0.905   5.056   1.249 -0.0982  0.7504  1.2763
 8358TIP3    H225039   1.051   5.088   1.226  0.1453 -2.0286 -1.7416
 8359TIP3   OH225040   5.858   0.942   0.282 -0.0546  0.5891 -0.1853
 8359TIP3    H125041   5.777   0.940   0.231  0.2536  0.1529 -0.6736
 8359TIP3    H225042   5.906   1.018   0.249  1.2406 -1.0380 -2.3286
 8360TIP3   OH225043   1.574   6.074   5.503  0.7847 -0.3757  0.2530
 8360TIP3    H125044   1.597   6.051   5.593  1.8434 -1.1774 -0.2012
 8360TIP3    H225045   1.584   6.169   5.499 -0.0298 -0.2282  1.1714
 8361TIP3   OH225046   7.162   2.096   2.381  0.2422 -0.4294 -0.2663
 8361TIP3    H125047   7.239   2.153   2.384  0.9079 -1.3246  0.0274
 8361TIP3    H225048   7.114   2.124   2.304 -0.7271  2.1584  1.1461
 8362TIP3   OH225049   6.085   5.714   5.444 -0.2555 -0.0820  0.0581
 8362TIP3    H125050   6.091   5.769   5.366  0.4633 -0.0029  0.1634
 8362TIP3    H225051   6.175   5.685   5.460 -0.6205 -1.3080 -0.0049
 8363TIP3   OH225052   0.349   6.455   5.335 -0.5781 -0.1378 -0.1527
 8363TIP3    H125053   0.290   6.382   5.355 -0.7161  0.2179  0.7765
 8363TIP3    H225054   0.297   6.533   5.351 -0.1542  0.1725 -0.2775
 8364TIP3   OH225055   2.811   5.098   4.622 -0.0113 -0.9108 -0.2811
 8364TIP3    H125056   2.900   5.066   4.637 -0.2389 -1.2053  0.4620
 8364TIP3    H225057   2.757   5.053   4.687 -0.9763 -1.9299 -1.7277
 8365TIP3   OH225058   3.489   0.144   4.292  0.0869  0.6375 -0.4895
 8365TIP3    H125059   3.501   0.113   4.382 -0.5597  0.6489 -0.3955
 8365TIP3    H225060   3.448   0.230   4.302 -0.0774  0.5944 -0.7995
 8366TIP3   OH225061   3.959   0.613   0.626  0.0371 -0.8704 -0.5087
 8366TIP3    H125062   3.945   0.553   0.553 -0.0144 -0.5741 -0.7481
 8366TIP3    H225063   3.903   0.688   0.606  1.6958  0.2322 -1.3696
 8367TIP3   OH225064   2.103   6.077   3.815  0.0316  0.1281  0.3692
 8367TIP3    H125065   2.118   6.171   3.825 -0.4658 -0.0425  3.5896
 8367TIP3    H225066   2.014   6.063   3.847  0.4180 -1.5616  0.7697
 8368TIP3   OH225067   5.757   6.679   3.121  0.0655  0.2767 -0.1876
 8368TIP3    H125068   5.754   6.590   3.157 -1.6224 -0.4420 -1.9693
 8368TIP3    H225069   5.835   6.680   3.066 -0.8680 -0.7336 -1.5887
 8369TIP3   OH225070   3.850   0.271   4.166 -0.2754  0.1411  0.3197
 8369TIP3    H125071   3.815   0.336   4.227  2.4545  1.8397  0.2382
 8369TIP3    H225072   3.791   0.275   4.091 -0.9604  1.5135  0.8952
 8370TIP3   OH225073   1.865   0.046   1.180  0.4764  0.0888  0.0163
 8370TIP3    H125074   1.795   0.021   1.120 -1.1692  0.4496  1.7062
 8370TIP3    H225075   1.916   0.111   1.132 -0.5627  0.0942 -1.1118
 8371TIP3   OH225076   3.860   4.861   1.124 -0.8330  0.1309 -0.1571
 8371TIP3    H125077   3.886   4.878   1.214  0.5900 -1.8063 -0.1385
 8371TIP3    H225078   3.929   4.805   1.089 -2.3193 -0.7717 -1.8531
 8372TIP3   OH225079   5.774   4.202   1.196  0.4308 -0.0966  0.5751
 8372TIP3    H125080   5.862   4.187   1.230  1.4316  1.4370 -1.1644
 8372TIP3    H225081   5.726   4.123   1.219  1.9133 -0.5089  2.5673
 8373TIP3   OH225082   3.631   0.383   0.478  0.1992 -0.4436 -0.0010
 8373TIP3    H125083   3.692   0.334   0.424  0.1483  1.1899 -1.6403
 8373TIP3    H225084   3.637   0.473   0.445 -2.5333 -0.0795  0.3110
 8374TIP3   OH225085   1.466   6.377   1.817 -0.4678 -0.6080  0.1830
 8374TIP3    H125086   1.481   6.371   1.912  0.4357 -2.3133 -0.0149
 8374TIP3    H225087   1.543   6.334   1.779 -0.6171  0.4242 -1.3531
 8375TIP3   OH225088   5.658   5.394   2.321  0.3650  0.6657 -0.1552
 8375TIP3    H125089   5.637   5.316   2.270  0.3571 -0.8528  2.0160
 8375TIP3    H225090   5.573   5.430   2.346  0.3679  1.4685 -1.2400
 8376TIP3   OH225091   5.458   4.237   2.875 -0.2673  0.1238 -0.4995
 8376TIP3    H125092   5.436   4.316   2.826 -0.0287  0.0641 -0.7028
 8376TIP3    H225093   5.384   4.225   2.935  0.1957  1.1087  0.3072
 8377TIP3   OH225094   3.001   0.691   4.531 -0.5267  0.2700 -0.6299
 8377TIP3    H125095   2.954   0.633   4.590  1.2658 -2.0667 -1.3322
 8377TIP3    H225096   2.955   0.682   4.447  0.5585 -1.3716 -1.1062
 8378TIP3   OH225097   0.069   6.611   2.356  0.4298  0.1853  0.8197
 8378TIP3    H125098  -0.015   6.639   2.319  0.9419  1.2599  0.4006
 8378TIP3    H225099   0.107   6.691   2.392  2.4674  0.3581 -1.4020
 8379TIP3   OH225100   3.889   4.910   2.499 -0.0531  0.3050 -0.1415
 8379TIP3    H125101   3.795   4.930   2.502 -0.2713 -0.3786 -1.4636
 8379TIP3    H225102   3.906   4.890   2.407  0.9827 -1.5109  0.4025
 8380TIP3   OH225103   6.059   4.594   1.312 -0.2671  0.1577 -0.6402
 8380TIP3    H125104   6.092   4.521   1.260 -0.6458 -0.5560  0.0974
 8380TIP3    H225105   6.025   4.656   1.248  0.1271 -0.2762 -1.2806
 8381TIP3   OH225106   6.069   6.834   3.663  0.4682 -0.1988  0.2599
 8381TIP3    H125107   5.997   6.785   3.703  0.1879 -1.7847 -2.0259
 8381TIP3    H225108   6.088   6.787   3.582  1.4202  2.4618 -1.1890
 8382TIP3   OH225109   2.813   0.916   3.097  0.0479 -0.1074  0.3078
 8382TIP3    H125110   2.880   0.921   3.165  1.3982  3.0372 -1.0740
 8382TIP3    H225111   2.844   0.975   3.028 -1.9607 -1.9992 -2.4475
 8383TIP3   OH225112   2.430   0.980   1.852  0.1982 -0.4080  0.0965
 8383TIP3    H125113   2.379   0.930   1.916  0.5041 -1.3449 -0.3575
 8383TIP3    H225114   2.466   0.913   1.793  2.0078  0.2163  0.4248
 8384TIP3   OH225115   5.794   6.766   1.314  0.1405 -0.0815  0.0278
 8384TIP3    H125116   5.721   6.760   1.376  0.5280 -1.2307  0.4055
 8384TIP3    H225117   5.872   6.749   1.367  0.5653 -0.1453 -0.6054
 8385TIP3   OH225118   1.372   6.092   4.542 -0.1027  0.4010  0.0394
 8385TIP3    H125119   1.404   6.010   4.581 -1.7121 -0.4157 -0.2787
 8385TIP3    H225120   1.447   6.125   4.493  1.3116  0.3442  2.0341
 8386TIP3   OH225121   2.074   5.330   5.385 -0.5549  0.1369 -0.2595
 8386TIP3    H125122   2.097   5.245   5.348 -0.2675 -0.2150  0.6896
 8386TIP3    H225123   2.030   5.309   5.468 -0.2398  0.9132  0.1142
 8387TIP3   OH225124   6.717   1.761   1.966  0.3054  0.3296 -0.1107
 8387TIP3    H125125   6.698   1.809   2.047 -0.6211 -0.2877  0.0522
 8387TIP3    H225126   6.634   1.719   1.943  0.0166  2.0060 -2.4372
 8388TIP3   OH225127   2.760  -0.002   2.824  0.1340 -0.1688  0.7483
 8388TIP3    H125128   2.778   0.079   2.871 -1.2367  0.3739  0.3768
 8388TIP3    H225129   2.735  -0.065   2.892 -0.1501  0.1226  0.9182
 8389TIP3   OH225130   6.843   2.925   4.870  0.2785  0.0449  0.1991
 8389TIP3    H125131   6.850   2.992   4.802 -0.9685 -0.3023 -0.2934
 8389TIP3    H225132   6.753   2.895   4.865  1.2235 -3.0427 -0.9359
 8390TIP3   OH225133   2.661   1.716   5.835 -0.2829 -0.5575 -0.1864
 8390TIP3    H125134   2.568   1.709   5.853 -0.5105 -0.1531 -1.1222
 8390TIP3    H225135   2.687   1.630   5.803 -0.0814 -0.9928  1.0690
 8391TIP3   OH225136   4.454   3.426   5.208 -0.1554 -0.8712 -0.2722
 8391TIP3    H125137   4.434   3.508   5.163 -1.4252 -0.9085  0.1909
 8391TIP3    H225138   4.459   3.361   5.138  2.0907 -0.2347 -0.7873
 8392TIP3   OH225139   7.208   6.569   4.585  0.6735 -0.3092  0.0712
 8392TIP3    H125140   7.158   6.512   4.526  0.0587  0.7959 -0.5113
 8392TIP3    H225141   7.145   6.593   4.653  1.4151 -1.6824  1.3006
 8393TIP3   OH225142   2.827   0.760   5.445 -0.0949  0.1012  0.0547
 8393TIP3    H125143   2.923   0.765   5.449 -0.0945 -0.1189  0.2926
 8393TIP3    H225144   2.798   0.850   5.462  0.0200 -0.1050  1.4241
 8394TIP3   OH225145   0.967   3.691   4.470  0.2952  0.2644 -0.4077
 8394TIP3    H125146   0.879   3.728   4.481  0.6620  1.5346 -1.4998
 8394TIP3    H225147   0.974   3.626   4.540 -2.3590 -1.5857 -1.6817
 8395TIP3   OH225148   3.157   1.078   5.563  0.3786 -0.3035 -0.6024
 8395TIP3    H125149   3.203   1.016   5.620 -0.1776 -1.7986 -1.7031
 8395TIP3    H225150   3.217   1.090   5.489  0.7194  0.9297 -0.1367
 8396TIP3   OH225151   4.397   0.195   5.337  0.0191 -0.4301 -0.1630
 8396TIP3    H125152   4.344   0.275   5.331 -1.4738 -1.3514  0.4123
 8396TIP3    H225153   4.350   0.139   5.398  0.1527 -2.4368 -1.8067
 8397TIP3   OH225154   5.073   2.833   1.186  0.0686  0.0531 -0.1502
 8397TIP3    H125155   5.149   2.890   1.182 -0.4738  1.2166  2.8395
 8397TIP3    H225156   5.109   2.744   1.183  1.2298  0.5480 -1.6648
 8398TIP3   OH225157   2.271   6.510   1.093 -0.0471  0.7439 -0.1641
 8398TIP3    H125158   2.193   6.502   1.148 -0.0856 -0.7632 -0.4020
 8398TIP3    H225159   2.306   6.420   1.087  2.6435  1.5626  1.2920
 8399TIP3   OH225160   0.531   0.214   1.951 -0.4197  0.2014  0.2193
 8399TIP3    H125161   0.609   0.259   1.984  0.6128 -0.4338 -1.2296
 8399TIP3    H225162   0.522   0.245   1.861 -0.5397 -1.3487 -0.3382
 8400TIP3   OH225163   3.618   3.294   2.815 -0.5234 -0.3857 -0.1216
 8400TIP3    H125164   3.659   3.363   2.764  0.9302 -1.9061 -1.1368
 8400TIP3    H225165   3.553   3.255   2.755 -1.7634  0.4478  0.6463
 8401TIP3   OH225166   3.363   3.666   5.418  0.4713 -0.6067  0.3282
 8401TIP3    H125167   3.396   3.577   5.429  2.6037  0.2099  1.0134
 8401TIP3    H225168   3.410   3.700   5.343 -1.0024 -0.3120 -0.5001
 8402TIP3   OH225169   2.727   5.037   2.527 -0.2521  0.1269  0.7149
 8402TIP3    H125170   2.763   5.020   2.440  0.7583 -2.9414  1.6279
 8402TIP3    H225171   2.683   5.122   2.518 -0.5596 -0.2592 -2.8674
 8403TIP3   OH225172   4.336   1.598   1.523  0.5014  0.2793  0.3338
 8403TIP3    H125173   4.299   1.516   1.555 -1.1149  0.2201 -1.5411
 8403TIP3    H225174   4.387   1.573   1.446  3.3159  0.5889  1.9272
 8404TIP3   OH225175   4.284   4.289   1.222  0.0218 -0.5833 -0.6238
 8404TIP3    H125176   4.245   4.207   1.251 -0.2245 -0.5788 -0.9316
 8404TIP3    H225177   4.249   4.302   1.134 -1.7877  0.9998  0.2626
 8405TIP3   OH225178   3.081   1.323   2.130 -0.4512 -0.4707 -0.1900
 8405TIP3    H125179   3.120   1.284   2.051  0.3261 -2.7655  1.2142
 8405TIP3    H225180   3.007   1.374   2.097  0.5534 -0.3526 -2.4899
 8406TIP3   OH225181   2.763   5.750   4.259  0.2111  0.1410 -0.2140
 8406TIP3    H125182   2.794   5.667   4.221  0.7856 -0.8403  2.1818
 8406TIP3    H225183   2.668   5.746   4.250  0.0619 -1.6690  1.3828
 8407TIP3   OH225184   7.158   5.994   4.270 -0.3679 -0.1723  0.0865
 8407TIP3    H125185   7.160   5.951   4.356 -0.1737 -0.0350  0.1539
 8407TIP3    H225186   7.239   6.046   4.268 -0.7011  0.3584  0.0973
 8408TIP3   OH225187   2.370   4.276   2.353 -0.1069  0.4532 -0.3936
 8408TIP3    H125188   2.463   4.289   2.338  0.0353  0.5440  0.4704
 8408TIP3    H225189   2.350   4.331   2.429 -0.4982 -0.7910  0.4362
 8409TIP3   OH225190   7.098   5.947   0.916  0.5699 -0.1223  0.0253
 8409TIP3    H125191   7.027   5.906   0.966  0.5338  0.8008  0.7720
 8409TIP3    H225192   7.175   5.937   0.972  0.3200  1.8375  0.8071
 8410TIP3   OH225193   4.214   3.235   4.355 -0.0754  0.1311  0.1950
 8410TIP3    H125194   4.165   3.177   4.414 -1.5177  0.4148 -0.6620
 8410TIP3    H225195   4.306   3.215   4.373 -0.5069 -1.6490  0.6835
 8411TIP3   OH225196   3.475   5.705   4.449  0.4581 -0.0458  0.3683
 8411TIP3    H125197   3.418   5.639   4.408 -0.0561  0.4252  0.3120
 8411TIP3    H225198   3.495   5.767   4.379  0.9257 -0.1242  0.4277
 8412TIP3   OH225199   7.033   2.674   4.891 -0.0311  0.5325  0.0190
 8412TIP3    H125200   7.058   2.750   4.838  0.4675 -0.0560 -0.6135
 8412TIP3    H225201   7.071   2.690   4.977  0.0863  0.9884 -0.1158
 8413TIP3   OH225202   3.081   6.248   4.292 -0.5398 -0.5454 -0.0723
 8413TIP3    H125203   3.071   6.270   4.199 -0.4570 -1.2021 -0.2363
 8413TIP3    H225204   3.158   6.191   4.295  0.6505  0.9944  0.6396
 8414TIP3   OH225205   5.202   0.132   2.879 -0.5638  0.0450 -0.0479
 8414TIP3    H125206   5.267   0.080   2.926 -1.3383 -1.0928 -0.1837
 8414TIP3    H225207   5.190   0.086   2.796 -1.5664  0.1867 -0.0019
 8415TIP3   OH225208   1.590   1.438   4.510  0.4381 -0.4575 -0.4935
 8415TIP3    H125209   1.510   1.389   4.525  0.4228  0.1031  1.4357
 8415TIP3    H225210   1.623   1.404   4.427 -1.8251 -0.6190 -1.3991
 8416TIP3   OH225211   0.367   1.396   4.199  0.0929 -0.3070  0.3461
 8416TIP3    H125212   0.443   1.346   4.173 -0.8920 -1.4364 -0.4628
 8416TIP3    H225213   0.402   1.469   4.250  1.7462 -0.4229 -0.5705
 8417TIP3   OH225214   6.952   4.862   0.936 -0.1676 -0.4761  0.3710
 8417TIP3    H125215   6.867   4.860   0.980  0.1979 -1.3626  1.0620
 8417TIP3    H225216   6.989   4.948   0.960 -0.0221 -0.8969  1.7344
 8418TIP3   OH225217   5.782   1.721   4.409 -0.6796  0.1981  0.0264
 8418TIP3    H125218   5.717   1.704   4.476  1.0717  1.3185  2.1276
 8418TIP3    H225219   5.841   1.646   4.412  0.0384  0.7726  0.5563
 8419TIP3   OH225220   0.199   0.382   1.602  0.5269 -0.0526  0.0130
 8419TIP3    H125221   0.128   0.420   1.551 -1.1332 -0.7618  1.6822
 8419TIP3    H225222   0.254   0.457   1.627 -1.4714  1.0514  1.4117
 8420TIP3   OH225223   4.474   4.966   3.452  0.3097  0.4613 -0.1637
 8420TIP3    H125224   4.512   4.976   3.539 -0.6575 -2.5344  0.7258
 8420TIP3    H225225   4.426   4.884   3.456 -2.8093  1.9550 -2.4692
 8421TIP3   OH225226   2.793   1.516   4.472 -0.3664  0.2946 -0.1415
 8421TIP3    H125227   2.885   1.541   4.479 -0.1626 -0.3667 -0.4548
 8421TIP3    H225228   2.746   1.587   4.516  0.3161  0.4398  0.3655
 8422TIP3   OH225229   4.020   1.445   0.721 -0.1686  0.6144  0.2268
 8422TIP3    H125230   3.958   1.382   0.685  0.2288 -0.4456  1.3505
 8422TIP3    H225231   4.098   1.436   0.667 -0.2244  0.3654  0.1888
 8423TIP3   OH225232   1.582   1.306   0.847 -0.2639 -0.1763  0.2989
 8423TIP3    H125233   1.496   1.324   0.809  0.3854  0.1157 -1.1213
 8423TIP3    H225234   1.596   1.377   0.909 -0.3504  0.7606 -0.7111
 8424TIP3   OH225235   0.286   4.969   5.176  0.6161 -0.6235  0.1048
 8424TIP3    H125236   0.290   5.062   5.155  2.3696 -0.3417  1.4401
 8424TIP3    H225237   0.310   4.925   5.094  0.5513  0.1345 -0.3284
 8425TIP3   OH225238   6.781   5.542   0.691 -0.5878  0.0475  0.1047
 8425TIP3    H125239   6.830   5.568   0.769  0.1495  1.4578 -0.7979
 8425TIP3    H225240   6.806   5.451   0.677 -1.0788 -0.3767  1.7475
 8426TIP3   OH225241   1.066   3.914   1.234  0.6473 -0.1362  0.1366
 8426TIP3    H125242   1.057   3.918   1.329  0.3072  2.3461  0.0648
 8426TIP3    H225243   1.148   3.867   1.220  0.8877 -0.2347  1.6522
 8427TIP3   OH225244   6.040   5.683   5.061 -0.1671 -0.0160  0.4600
 8427TIP3    H125245   6.015   5.764   5.016 -1.1510 -0.6388 -0.1299
 8427TIP3    H225246   6.136   5.683   5.059 -0.1503 -0.3779 -2.3224
 8428TIP3   OH225247   1.355   2.699   0.069 -0.3050 -0.2705  0.0184
 8428TIP3    H125248   1.283   2.762   0.072  0.9136  1.1577  2.3261
 8428TIP3    H225249   1.432   2.752   0.050  0.8742 -0.8558  2.7469
 8429TIP3   OH225250   3.240   1.839   2.763  0.1904  0.3912 -0.1813
 8429TIP3    H125251   3.200   1.881   2.687  1.1691 -1.4022 -1.7792
 8429TIP3    H225252   3.331   1.828   2.739  0.1982 -1.6423  0.5795
 8430TIP3   OH225253   6.792   0.727   1.884 -0.0132 -0.3168 -0.2384
 8430TIP3    H125254   6.758   0.651   1.838  0.3053 -0.2322 -0.6134
 8430TIP3    H225255   6.862   0.761   1.828  0.1605 -0.0232  0.1467
 8431TIP3   OH225256   6.323   4.095   1.320  0.0862 -0.6603  0.5943
 8431TIP3    H125257   6.362   4.079   1.234 -1.2600  2.9382 -0.9093
 8431TIP3    H225258   6.395   4.126   1.374  0.2856  1.4776 -0.7537
 8432TIP3   OH225259   6.099   1.709   0.727  0.5374 -0.4154  0.3298
 8432TIP3    H125260   6.038   1.783   0.729  2.6109  1.4888 -0.9183
 8432TIP3    H225261   6.137   1.706   0.815  0.7995  0.3965  0.2584
 8433TIP3   OH225262   5.832   5.587   4.378 -0.4606  0.4426  0.2050
 8433TIP3    H125263   5.753   5.551   4.417 -0.0061 -0.7691  0.0626
 8433TIP3    H225264   5.890   5.511   4.366 -0.0789  0.9555 -1.6187
 8434TIP3   OH225265   4.694   6.333   2.423 -0.0249 -0.0144  0.6354
 8434TIP3    H125266   4.684   6.248   2.467  1.2639 -0.8762 -0.6492
 8434TIP3    H225267   4.727   6.311   2.336 -1.9844  1.6907 -0.6050
 8435TIP3   OH225268   1.596   6.749   5.173 -0.3276 -0.6914  0.2651
 8435TIP3    H125269   1.671   6.759   5.233  1.8634 -0.6206 -2.3096
 8435TIP3    H225270   1.575   6.656   5.178  1.4756 -1.2035 -0.5902
 8436TIP3   OH225271   1.229   4.256   5.769  0.1539  0.1689 -0.0118
 8436TIP3    H125272   1.262   4.250   5.680  0.4557  0.6522  0.0625
 8436TIP3    H225273   1.281   4.192   5.818  0.1706  0.0919 -0.1296
 8437TIP3   OH225274   5.928   2.020   3.862 -0.6987  0.1325 -0.3294
 8437TIP3    H125275   5.978   1.949   3.823  0.1977  0.8234 -0.4605
 8437TIP3    H225276   5.840   1.983   3.876  0.3583 -1.7883  1.8537
 8438TIP3   OH225277   5.597   5.377   1.637 -0.3965  0.7570  0.0096
 8438TIP3    H125278   5.627   5.325   1.712 -0.7378  2.1935  1.1910
 8438TIP3    H225279   5.559   5.456   1.676 -2.0541  0.8341 -1.6112
 8439TIP3   OH225280   0.968   3.325   0.275  0.4038  0.1606  0.0815
 8439TIP3    H125281   0.958   3.232   0.296 -1.3727  0.3333  0.1678
 8439TIP3    H225282   0.911   3.370   0.337  0.7257  1.2547 -0.3864
 8440TIP3   OH225283   6.164   5.385   2.143 -0.3838 -0.1539  0.1369
 8440TIP3    H125284   6.133   5.427   2.063  0.4831 -0.6660 -0.4879
 8440TIP3    H225285   6.085   5.349   2.184 -0.8908  0.5004 -0.2568
 8441TIP3   OH225286   3.669   4.425   0.022 -0.7783 -0.2250 -0.8043
 8441TIP3    H125287   3.613   4.496   0.052  0.2388  0.5367 -0.6533
 8441TIP3    H225288   3.682   4.370   0.099 -0.7571 -0.0197 -0.6609
 8442TIP3   OH225289   4.447   1.203   1.935  0.1982  0.1868  0.2295
 8442TIP3    H125290   4.422   1.291   1.908  1.8726  0.5550 -0.2638
 8442TIP3    H225291   4.502   1.171   1.863  1.1046 -0.5545  1.2151
 8443TIP3   OH225292   6.429   0.579   5.448  0.3152 -0.3354 -0.1915
 8443TIP3    H125293   6.481   0.658   5.435 -1.7452  1.3531  1.0313
 8443TIP3    H225294   6.466   0.538   5.526 -0.5745  1.2716  1.1402
 8444TIP3   OH225295   3.414   4.826   1.274  0.5477  0.9193 -0.4864
 8444TIP3    H125296   3.386   4.737   1.252 -0.6553  0.8721  1.1030
 8444TIP3    H225297   3.335   4.879   1.269  1.3977  2.1327 -2.2629
 8445TIP3   OH225298   2.403   5.330   5.405 -0.3071 -0.3954  0.1145
 8445TIP3    H125299   2.331   5.287   5.452 -0.3251  0.6902  1.1127
 8445TIP3    H225300   2.482   5.293   5.443 -0.2974 -1.5976 -0.9909
 8446TIP3   OH225301   3.203   0.162   3.474 -0.2128 -0.1602  0.0702
 8446TIP3    H125302   3.147   0.239   3.462 -0.8323 -0.4435  0.9873
 8446TIP3    H225303   3.142   0.088   3.476  0.4904 -0.9108 -2.4492
 8447TIP3   OH225304   6.032   6.216   5.106 -0.3873 -0.0145 -0.3848
 8447TIP3    H125305   5.973   6.198   5.179  0.2213  0.7498  0.3093
 8447TIP3    H225306   6.083   6.291   5.134 -0.0440  0.2102 -1.5512
 8448TIP3   OH225307   4.970   5.983   0.092  0.0960 -0.4427 -0.0987
 8448TIP3    H125308   5.036   5.914   0.089 -0.8744 -1.6140  2.3770
 8448TIP3    H225309   4.904   5.956   0.028  0.7202 -0.7091 -0.6369
 8449TIP3   OH225310   4.997   6.702   5.870 -0.9526 -0.4509  0.5829
 8449TIP3    H125311   5.089   6.681   5.889 -0.6438  1.1906  1.0283
 8449TIP3    H225312   4.995   6.714   5.775  0.2480  3.3873  0.8712
 8450TIP3   OH225313   3.314   6.538   1.247  0.2515 -0.1469 -0.1944
 8450TIP3    H125314   3.392   6.593   1.246  0.1850 -0.0160  0.7751
 8450TIP3    H225315   3.341   6.459   1.294 -0.3016  0.0728  0.5136
 8451TIP3   OH225316   4.721   5.539   2.938 -0.0666 -0.5894  0.0846
 8451TIP3    H125317   4.630   5.565   2.929  0.3308  0.3902 -1.4217
 8451TIP3    H225318   4.753   5.532   2.848  1.7024  0.4307  0.5969
 8452TIP3   OH225319   6.536   1.036   1.625 -0.1275  0.0224  0.2510
 8452TIP3    H125320   6.535   0.968   1.692 -0.1008  0.1347  0.3671
 8452TIP3    H225321   6.579   0.996   1.550 -0.9963 -0.4191 -0.0351
 8453TIP3   OH225322   0.864   1.510   3.137  0.6757 -0.6025 -0.2438
 8453TIP3    H125323   0.849   1.463   3.220  1.7517 -2.2643 -0.9262
 8453TIP3    H225324   0.959   1.514   3.129  0.5856  0.3498 -0.9789
 8454TIP3   OH225325   4.976   1.992   1.594 -0.1464  0.2366 -0.4463
 8454TIP3    H125326   4.909   1.924   1.595 -0.7985  0.8602  0.7884
 8454TIP3    H225327   5.017   1.984   1.508  0.5132 -2.4060  0.0137
 8455TIP3   OH225328   3.611   3.727   0.909  0.2584  0.1119 -0.8566
 8455TIP3    H125329   3.662   3.659   0.955 -0.4572 -0.2532 -0.5884
 8455TIP3    H225330   3.581   3.785   0.979 -0.3863 -0.1411 -0.9218
 8456TIP3   OH225331   7.048   3.987   2.521 -0.1125  0.4862  0.0667
 8456TIP3    H125332   7.135   3.976   2.482 -0.5747 -1.7274 -0.4987
 8456TIP3    H225333   7.060   3.964   2.613 -0.2739 -1.0046 -0.2543
 8457TIP3   OH225334   6.323   1.653   3.615  0.1179 -0.6489 -0.8490
 8457TIP3    H125335   6.300   1.629   3.704  0.0957  0.0559 -0.6537
 8457TIP3    H225336   6.378   1.732   3.625  2.5462 -2.1737 -1.2966
 8458TIP3   OH225337   3.734   5.080   2.250  0.0953 -0.0086  0.0657
 8458TIP3    H125338   3.768   5.157   2.205  1.3084 -1.0072 -0.8087
 8458TIP3    H225339   3.648   5.065   2.210 -0.1956  0.9453  0.3226
 8459TIP3   OH225340   3.366   3.843   4.922 -0.1383  0.1031  0.3027
 8459TIP3    H125341   3.362   3.938   4.933 -1.1295  0.0149  0.8335
 8459TIP3    H225342   3.360   3.830   4.828  0.5107  0.5838  0.1891
 8460TIP3   OH225343   1.657   3.931   0.151 -0.0025 -0.1925 -0.1741
 8460TIP3    H125344   1.728   3.874   0.181  1.4997  0.7728 -1.6945
 8460TIP3    H225345   1.690   4.020   0.165 -1.1351  0.2871 -0.4241
 8461TIP3   OH225346   6.724   1.235   1.551  0.2527  0.8790 -0.0359
 8461TIP3    H125347   6.787   1.165   1.532  0.2536  1.1645 -1.1380
 8461TIP3    H225348   6.640   1.190   1.561 -0.1135  0.8309 -2.5924
 8462TIP3   OH225349   7.083   2.672   1.790  0.1100 -0.2947 -0.3539
 8462TIP3    H125350   7.158   2.711   1.746  0.0659  0.8141  0.5073
 8462TIP3    H225351   7.057   2.737   1.855 -1.6716 -0.6178 -0.7002
 8463TIP3   OH225352   4.543   0.300   3.392 -0.4255 -0.2584 -0.0912
 8463TIP3    H125353   4.574   0.287   3.481 -0.9670  2.1885  0.5488
 8463TIP3    H225354   4.622   0.318   3.341 -0.2710  0.3736  0.3555
 8464TIP3   OH225355   5.184   2.363   0.784  0.5091  0.5629  0.1558
 8464TIP3    H125356   5.102   2.388   0.826  0.0850  0.9933 -0.9034
 8464TIP3    H225357   5.207   2.279   0.824 -0.7996  0.0931 -0.0283
 8465TIP3   OH225358   6.644   4.201   4.797  0.0748 -0.2441 -0.8379
 8465TIP3    H125359   6.700   4.201   4.875  0.0928  0.9510 -0.8322
 8465TIP3    H225360   6.593   4.121   4.805 -0.5076  0.2370  0.8443
 8466TIP3   OH225361   1.110   6.721   0.730  0.0899 -0.6033 -0.1765
 8466TIP3    H125362   1.038   6.697   0.671 -0.3769 -2.8786  1.1702
 8466TIP3    H225363   1.129   6.812   0.709 -3.1649  0.1186 -0.6158
 8467TIP3   OH225364   5.651   0.958   5.778  0.0579 -0.4643 -0.9720
 8467TIP3    H125365   5.688   0.953   5.866  0.8173  2.0088 -1.0888
 8467TIP3    H225366   5.701   0.893   5.728  1.2226 -0.2673 -0.1033
 8468TIP3   OH225367   1.558   4.431   5.870  0.3510 -0.2674 -0.6308
 8468TIP3    H125368   1.606   4.364   5.919 -0.2400 -0.1567  0.1207
 8468TIP3    H225369   1.623   4.470   5.812  1.2205  0.0029  0.4947
 8469TIP3   OH225370   1.627   2.750   5.674 -0.8979 -0.1882 -0.4153
 8469TIP3    H125371   1.645   2.724   5.765  0.1068 -0.3354 -0.6461
 8469TIP3    H225372   1.545   2.800   5.679  0.4579  2.0591  0.9595
 8470TIP3   OH225373   1.675   6.811   0.156  0.2279  0.3258  0.1852
 8470TIP3    H125374   1.766   6.813   0.124  0.2831  2.0068  0.3542
 8470TIP3    H225375   1.632   6.745   0.101  1.5812 -0.6543  0.2409
 8471TIP3   OH225376   4.391   0.353   4.480  0.2052 -0.0254  0.2308
 8471TIP3    H125377   4.442   0.382   4.405  1.2273  0.5978  1.1504
 8471TIP3    H225378   4.432   0.394   4.556 -1.0210 -0.3501  1.1140
 8472TIP3   OH225379   0.716   1.455   1.189  0.2705 -0.1361 -0.5453
 8472TIP3    H125380   0.647   1.513   1.160  0.2871  0.1430 -0.0465
 8472TIP3    H225381   0.680   1.411   1.267  0.7463  0.2219 -0.1131
 8473TIP3   OH225382   4.641   6.032   3.400 -0.0186 -0.5630  0.0176
 8473TIP3    H125383   4.576   6.028   3.471  0.8156 -1.2249  0.7711
 8473TIP3    H225384   4.614   5.963   3.339 -0.0706 -0.7930  0.2967
 8474TIP3   OH225385   6.735   1.535   0.117 -0.6009  0.1477 -0.7348
 8474TIP3    H125386   6.681   1.611   0.138  0.5327  1.0673 -1.0143
 8474TIP3    H225387   6.801   1.532   0.186 -0.2782 -0.2208 -1.0521
 8475TIP3   OH225388   2.930   1.857   4.365 -0.0982 -0.0808  0.2132
 8475TIP3    H125389   2.892   1.819   4.444  1.9228 -4.2251 -0.5327
 8475TIP3    H225390   2.877   1.823   4.294  1.6891 -1.6379 -0.4794
 8476TIP3   OH225391   3.812   3.895   2.097 -0.2198  0.4899 -0.6008
 8476TIP3    H125392   3.874   3.966   2.117 -1.2893  0.8149  1.9259
 8476TIP3    H225393   3.727   3.929   2.123 -0.9610 -1.2095 -0.6586
 8477TIP3   OH225394   2.245   5.431   2.949  0.6574 -0.9166 -0.1375
 8477TIP3    H125395   2.154   5.456   2.935  1.1880  1.3064 -0.0218
 8477TIP3    H225396   2.244   5.375   3.026 -0.5754 -0.6267  0.0701
 8478TIP3   OH225397   2.648   2.139   5.849  0.2476  0.3003  0.3839
 8478TIP3    H125398   2.683   2.079   5.783 -2.7557 -0.2649 -0.8708
 8478TIP3    H225399   2.604   2.207   5.798 -2.4364 -0.3060  1.6801
 8479TIP3   OH225400   2.349   3.879   0.605  0.2490  0.0091  0.2399
 8479TIP3    H125401   2.268   3.830   0.591  0.4890 -0.5166  0.6877
 8479TIP3    H225402   2.374   3.861   0.695 -0.1547  1.7075  0.7357
 8480TIP3   OH225403   7.124   3.108   5.260 -0.0935 -0.5839 -0.2814
 8480TIP3    H125404   7.220   3.110   5.261 -0.0678 -1.2671 -0.8370
 8480TIP3    H225405   7.098   3.200   5.254  0.4627 -0.1308  2.6614
 8481TIP3   OH225406   5.369   3.105   1.006  0.5961  0.0541 -0.2689
 8481TIP3    H125407   5.280   3.132   0.983 -0.8239 -4.0846 -0.3444
 8481TIP3    H225408   5.360   3.063   1.092  2.5125 -0.3521 -0.2205
 8482TIP3   OH225409   5.880   3.860   1.079 -0.3444  0.2518  0.2759
 8482TIP3    H125410   5.859   3.863   1.172 -2.0387  0.9950 -0.1026
 8482TIP3    H225411   5.931   3.940   1.063  1.4365 -0.7199  0.8665
 8483TIP3   OH225412   6.149   6.365   0.029 -0.6627 -0.5673 -0.0837
 8483TIP3    H125413   6.092   6.292   0.052 -1.5700  0.5175  1.2643
 8483TIP3    H225414   6.111   6.401  -0.051 -0.4979 -1.2463 -0.4764
 8484TIP3   OH225415   3.759   1.163   4.054  0.3773  0.4228 -0.1135
 8484TIP3    H125416   3.852   1.151   4.038  0.1527 -1.9441  0.0054
 8484TIP3    H225417   3.724   1.194   3.971  1.1088  0.2785 -0.4806
 8485TIP3   OH225418   0.743   5.590   1.577  0.3925  0.0463 -0.3685
 8485TIP3    H125419   0.683   5.573   1.649 -0.1793  0.8661 -0.6369
 8485TIP3    H225420   0.778   5.504   1.554 -1.3922 -0.6052 -0.8297
 8486TIP3   OH225421   0.198   2.112   1.776  0.6038  0.4068 -0.6161
 8486TIP3    H125422   0.227   2.189   1.725  0.1050  1.7537  1.0317
 8486TIP3    H225423   0.109   2.095   1.745  0.1188  1.5243  0.0736
 8487TIP3   OH225424   1.098   4.252   3.395 -0.3295 -0.3935 -0.0647
 8487TIP3    H125425   1.095   4.337   3.439  0.5539 -0.4362  0.0998
 8487TIP3    H225426   1.007   4.225   3.390 -0.5982  0.4211  0.1641
 8488TIP3   OH225427   0.374   1.367   1.705  0.0997  0.2900 -0.0946
 8488TIP3    H125428   0.395   1.307   1.777  2.8971  0.3646 -0.7120
 8488TIP3    H225429   0.303   1.421   1.738  0.8787 -0.0858  2.4122
 8489TIP3   OH225430   1.229   3.742   5.249  1.0457 -0.4192  0.5696
 8489TIP3    H125431   1.320   3.716   5.260  1.6760  0.4507 -1.9272
 8489TIP3    H225432   1.191   3.677   5.190  0.6555  0.3211 -0.0302
 8490TIP3   OH225433   5.016   4.905   0.218 -0.3908  0.0224 -0.0303
 8490TIP3    H125434   4.923   4.894   0.236 -0.5810  0.7913 -0.5123
 8490TIP3    H225435   5.027   4.873   0.129  0.1078 -1.5402  0.5678
 8491TIP3   OH225436   0.721   3.061   5.265  0.3511 -0.4352  0.1219
 8491TIP3    H125437   0.716   2.966   5.249 -1.8962 -0.1701 -1.2030
 8491TIP3    H225438   0.717   3.070   5.360 -1.9962 -1.6592  0.2193
 8492TIP3   OH225439   4.017   2.063   3.853  0.1425 -0.1689 -1.0297
 8492TIP3    H125440   3.979   2.032   3.936 -0.2683  0.1456 -1.0945
 8492TIP3    H225441   4.087   2.001   3.834 -1.3389 -1.7304 -1.7129
 8493TIP3   OH225442   1.753   4.261   2.035 -0.0130 -0.6764 -0.1206
 8493TIP3    H125443   1.676   4.313   2.059  1.0671  0.2209  1.6005
 8493TIP3    H225444   1.717   4.187   1.986 -1.6886  1.2478 -2.0324
 8494TIP3   OH225445   3.827   6.199   0.388 -0.0292 -0.2721  0.5041
 8494TIP3    H125446   3.791   6.287   0.385  0.7001  0.0303 -2.5971
 8494TIP3    H225447   3.782   6.152   0.318  1.9977 -1.3121 -0.1795
 8495TIP3   OH225448   2.142   4.038   0.392 -0.5122 -0.8172 -0.3844
 8495TIP3    H125449   2.116   4.129   0.375 -0.3180 -0.8899 -1.1163
 8495TIP3    H225450   2.151   4.033   0.487  0.7963  0.3011 -0.4216
 8496TIP3   OH225451   4.448   1.111   5.723 -0.0021 -0.7056  0.1525
 8496TIP3    H125452   4.383   1.134   5.656  0.6792  1.4296  0.1226
 8496TIP3    H225453   4.479   1.024   5.698  0.0112 -0.1118 -2.1623
 8497TIP3   OH225454   6.728   2.266   2.051 -0.3889 -0.1183 -0.1467
 8497TIP3    H125455   6.672   2.196   2.083  2.0852 -1.7317  0.8756
 8497TIP3    H225456   6.716   2.265   1.956 -2.2032 -0.2422  0.0498
 8498TIP3   OH225457   1.313   2.247   5.020  0.3932 -0.0842  0.3008
 8498TIP3    H125458   1.400   2.285   5.011  0.4415  0.0659  1.3493
 8498TIP3    H225459   1.316   2.166   4.969  0.7629  0.5288 -0.6695
 8499TIP3   OH225460   4.746   6.012   0.961 -0.3027 -0.3719 -0.4064
 8499TIP3    H125461   4.764   5.932   1.010  1.2303 -0.0145 -0.3386
 8499TIP3    H225462   4.728   6.078   1.029 -0.1777 -0.3373 -0.4068
 8500TIP3   OH225463   2.919   4.810   3.398  0.1840  0.1853 -0.2452
 8500TIP3    H125464   2.963   4.771   3.473 -1.1890 -1.4743 -0.2474
 8500TIP3    H225465   2.865   4.739   3.361 -2.4609  2.0433 -0.2411
 8501TIP3   OH225466   5.367   1.130   2.292 -0.0277  0.5776  0.5227
 8501TIP3    H125467   5.424   1.070   2.341  0.3555  0.9069  0.4826
 8501TIP3    H225468   5.282   1.121   2.334  0.0323  0.0166  0.5279
 8502TIP3   OH225469   1.713   5.613   2.553  0.4073  0.6541  0.3601
 8502TIP3    H125470   1.731   5.641   2.463  0.0516 -0.1561  0.0176
 8502TIP3    H225471   1.627   5.651   2.573  0.5540  0.9588  0.4102
 8503TIP3   OH225472   6.919   3.644   1.767  0.1347 -0.2880  0.7032
 8503TIP3    H125473   6.968   3.647   1.686 -1.2916 -1.4732 -0.2461
 8503TIP3    H225474   6.918   3.735   1.798  1.8632 -0.0575  0.1395
 8504TIP3   OH225475   7.058   3.323   5.707  0.5361 -0.0297  0.0856
 8504TIP3    H125476   7.020   3.247   5.663 -1.1903  0.1969  1.1019
 8504TIP3    H225477   7.114   3.363   5.641  0.8853 -1.7487 -0.7054
 8505TIP3   OH225478   5.123   4.321   2.520 -0.0788 -0.3484  0.0168
 8505TIP3    H125479   5.066   4.334   2.596  1.3878 -1.5893  1.3990
 8505TIP3    H225480   5.180   4.249   2.545  1.1071 -0.1420 -1.9057
 8506TIP3   OH225481   0.123   4.611   2.247 -0.3749 -0.4029 -0.3656
 8506TIP3    H125482   0.136   4.581   2.157  0.6677 -0.3007 -0.2690
 8506TIP3    H225483   0.071   4.543   2.289  0.2659 -1.1055 -0.6912
 8507TIP3   OH225484   2.904   3.411   1.703 -0.3870 -0.1545  0.5782
 8507TIP3    H125485   2.824   3.458   1.726  0.0731  2.6933 -2.7870
 8507TIP3    H225486   2.975   3.471   1.726  0.4618 -0.6218 -0.6987
 8508TIP3   OH225487   6.384   5.467   4.060  1.0696 -0.0871  0.0138
 8508TIP3    H125488   6.303   5.427   4.027 -0.1236  1.9819  0.2835
 8508TIP3    H225489   6.397   5.425   4.145 -1.3449  1.4415  1.2702
 8509TIP3   OH225490   2.794   0.938   1.341  0.3600 -0.0369  0.2713
 8509TIP3    H125491   2.846   0.940   1.421  0.4178 -1.5874  0.3017
 8509TIP3    H225492   2.751   1.024   1.338  1.1933  0.4440  1.3830
 8510TIP3   OH225493   0.272   0.586   4.893  0.1713  0.0230 -0.6494
 8510TIP3    H125494   0.191   0.536   4.894  0.5457 -0.5791 -0.0207
 8510TIP3    H225495   0.245   0.676   4.910 -0.3508 -0.1922 -0.3188
 8511TIP3   OH225496   6.800   2.805   1.973  0.4331  0.3428  0.2621
 8511TIP3    H125497   6.762   2.835   2.056 -1.8896 -1.7729  0.0794
 8511TIP3    H225498   6.826   2.714   1.991  0.1592 -0.0487 -1.2099
 8512TIP3   OH225499   6.080   4.074   5.302 -0.0259  0.0639  0.5401
 8512TIP3    H125500   6.099   4.069   5.396 -0.1927  1.5241  0.6631
 8512TIP3    H225501   5.986   4.061   5.296 -0.0845  0.4657  0.6138
 8513TIP3   OH225502   2.489   4.636   5.607 -0.3336 -1.0309  0.0685
 8513TIP3    H125503   2.472   4.730   5.601  0.2438 -0.8927  0.4966
 8513TIP3    H225504   2.481   4.605   5.517  1.1125 -0.2618 -0.3691
 8514TIP3   OH225505   2.082   1.265   3.699 -0.3180 -0.3988  0.0016
 8514TIP3    H125506   2.176   1.256   3.684 -0.3153  2.2515 -2.2444
 8514TIP3    H225507   2.042   1.196   3.646  0.2885 -1.2300  0.5921
 8515TIP3   OH225508   5.535   0.177   2.851  0.2471 -0.7125 -0.0316
 8515TIP3    H125509   5.484   0.101   2.878  0.8606 -0.9187  0.5614
 8515TIP3    H225510   5.572   0.212   2.932 -0.6095  0.6557 -0.2007
 8516TIP3   OH225511   4.428   1.840   4.889 -0.1791  0.3237 -0.1499
 8516TIP3    H125512   4.498   1.778   4.909 -0.1944 -0.0429 -1.1712
 8516TIP3    H225513   4.360   1.822   4.954 -1.3858 -2.6632 -2.0283
 8517TIP3   OH225514   5.007   2.805  -0.012 -0.1743 -0.9012  0.1402
 8517TIP3    H125515   5.092   2.848  -0.023  0.1996 -1.3125  1.2558
 8517TIP3    H225516   4.959   2.861   0.049 -0.7868 -0.5768 -0.6220
 8518TIP3   OH225517   1.141   2.146   3.437 -0.1457  0.1151 -0.1603
 8518TIP3    H125518   1.174   2.225   3.394 -1.8594  1.1021  0.2674
 8518TIP3    H225519   1.163   2.157   3.529 -0.2435  0.0117 -0.1241
 8519TIP3   OH225520   2.236   6.210   0.414 -0.3973  0.1584  0.3574
 8519TIP3    H125521   2.292   6.287   0.425 -1.5555  1.0710  0.0591
 8519TIP3    H225522   2.282   6.157   0.349  0.9836  0.0209  1.3989
 8520TIP3   OH225523   6.674   0.649   5.211 -0.4481  0.5215  0.1311
 8520TIP3    H125524   6.733   0.636   5.137 -1.0725  0.5079 -0.3702
 8520TIP3    H225525   6.590   0.614   5.182 -0.5456 -0.0618  1.0803
 8521TIP3   OH225526   5.459   5.566   1.120 -0.4465 -0.2603 -0.2421
 8521TIP3    H125527   5.414   5.650   1.108  0.7795  0.4174 -0.2564
 8521TIP3    H225528   5.448   5.546   1.212  0.6850  0.8052  0.1650
 8522TIP3   OH225529   4.462   5.584   1.146 -0.6423 -0.2800  0.3259
 8522TIP3    H125530   4.541   5.587   1.092  0.7652  2.1045  2.2790
 8522TIP3    H225531   4.409   5.514   1.109  2.3957 -1.9961 -1.0644
 8523TIP3   OH225532   0.677   6.061   4.054  0.0331 -0.2543 -0.5620
 8523TIP3    H125533   0.646   6.150   4.041 -0.8501 -0.5263 -0.4039
 8523TIP3    H225534   0.624   6.027   4.126  0.4539 -0.8642 -0.5260
 8524TIP3   OH225535   2.541   5.678   2.178  0.3980  0.4224 -0.7100
 8524TIP3    H125536   2.562   5.707   2.089 -0.8766  0.2379 -1.0844
 8524TIP3    H225537   2.481   5.744   2.211  1.0883  0.6392  0.1266
 8525TIP3   OH225538   4.940   5.807   1.046 -0.2583  0.2607  0.0903
 8525TIP3    H125539   4.964   5.746   0.976 -0.0624  1.4876 -0.9398
 8525TIP3    H225540   5.023   5.829   1.088  0.1493  2.2354 -1.5933
 8526TIP3   OH225541   6.365   0.230   4.386 -0.3137 -0.5432 -0.3361
 8526TIP3    H125542   6.428   0.208   4.455 -0.0562 -1.3632 -0.8295
 8526TIP3    H225543   6.296   0.164   4.394 -1.3268  0.5470  0.4290
 8527TIP3   OH225544   4.893   4.589   3.504 -0.1824 -0.1054 -0.2351
 8527TIP3    H125545   4.890   4.658   3.438  1.8584 -1.1730 -1.5206
 8527TIP3    H225546   4.808   4.595   3.548 -1.3562  1.0639 -2.5050
 8528TIP3   OH225547   2.042   6.000   4.203  0.3125 -0.7993 -0.0362
 8528TIP3    H125548   2.038   5.911   4.168  0.8105 -1.0237  0.4575
 8528TIP3    H225549   2.068   5.988   4.294 -1.0977 -0.2375  0.4583
 8529TIP3   OH225550   0.734   3.410   0.842 -0.4549 -0.0315 -0.4387
 8529TIP3    H125551   0.824   3.378   0.847  0.2181  1.4880 -1.8648
 8529TIP3    H225552   0.735   3.490   0.894 -1.3866 -0.7458  0.7282
 8530TIP3   OH225553   0.836   3.447   2.994  0.3902  0.1420 -0.4440
 8530TIP3    H125554   0.907   3.501   3.029 -0.8274  0.9453  0.8653
 8530TIP3    H225555   0.793   3.503   2.929 -1.3063  1.1263  1.4032
 8531TIP3   OH225556   0.604   0.578   1.833 -0.0319  0.1033 -0.0360
 8531TIP3    H125557   0.636   0.503   1.884 -0.3730 -0.3190 -0.4266
 8531TIP3    H225558   0.623   0.554   1.742  1.0836  1.0888 -0.0961
 8532TIP3   OH225559   4.057   0.168   3.581 -0.2560  0.0263  0.2899
 8532TIP3    H125560   4.121   0.200   3.517  0.2575 -1.2306  0.1497
 8532TIP3    H225561   3.982   0.140   3.528  0.5578 -1.9496  0.0944
 8533TIP3   OH225562   6.940   6.499   1.318 -0.7279 -0.0012 -0.2465
 8533TIP3    H125563   7.000   6.570   1.295  1.6171 -1.7221  0.2485
 8533TIP3    H225564   6.873   6.541   1.372 -0.9046  2.2689 -2.0682
 8534TIP3   OH225565   2.136   4.035   3.556  0.0312 -0.3800 -0.3410
 8534TIP3    H125566   2.058   3.988   3.586 -0.5318  0.2857 -0.7206
 8534TIP3    H225567   2.136   4.024   3.461 -0.1429  0.4185 -0.4428
 8535TIP3   OH225568   5.206   5.393   4.734  0.4057  0.4013 -0.3115
 8535TIP3    H125569   5.299   5.376   4.746  0.2147 -0.6191 -0.2252
 8535TIP3    H225570   5.197   5.415   4.642  0.7876  0.9109 -0.2317
 8536TIP3   OH225571   1.199   2.723   2.879 -0.0148 -0.1273 -0.5874
 8536TIP3    H125572   1.174   2.632   2.859 -2.6925  0.3299  0.2693
 8536TIP3    H225573   1.291   2.728   2.856  0.2633 -3.1187 -0.5304
 8537TIP3   OH225574   2.775   1.015   5.705 -0.0488  0.0423  0.4754
 8537TIP3    H125575   2.846   0.960   5.739 -0.9834 -0.9145  0.9375
 8537TIP3    H225576   2.784   1.098   5.753  0.2428 -0.3708  1.1480
 8538TIP3   OH225577   4.297   3.838   1.653 -0.8740  0.2688 -0.1090
 8538TIP3    H125578   4.366   3.874   1.597  0.2294  0.4969  1.3404
 8538TIP3    H225579   4.224   3.820   1.593  0.8850 -1.2127 -1.9197
 8539TIP3   OH225580   5.603   1.853   2.359 -0.2094 -0.1613 -0.1505
 8539TIP3    H125581   5.556   1.792   2.415 -1.7347  1.3121  0.2482
 8539TIP3    H225582   5.630   1.801   2.284  0.3708 -1.7777  1.1255
 8540TIP3   OH225583   5.467   4.723   1.343 -0.1232 -0.0137  0.1151
 8540TIP3    H125584   5.462   4.676   1.260  1.0533 -2.2068  1.1936
 8540TIP3    H225585   5.394   4.785   1.341 -1.8706 -1.9933 -1.3741
 8541TIP3   OH225586   1.965   5.865   2.317  0.2088 -0.3651 -0.0973
 8541TIP3    H125587   2.026   5.928   2.279  1.6895 -1.9665 -0.5592
 8541TIP3    H225588   1.908   5.840   2.244 -0.8458  0.9158  0.2604
 8542TIP3   OH225589   2.960   3.730   0.557 -0.4041  0.3150  0.4899
 8542TIP3    H125590   3.049   3.697   0.548  0.0241  1.1162  1.5735
 8542TIP3    H225591   2.904   3.652   0.549  0.0935  0.1839 -3.6904
 8543TIP3   OH225592  -0.009   1.860   5.295 -0.0895  0.4151 -0.2471
 8543TIP3    H125593   0.041   1.796   5.346 -0.3722  1.0924  0.9288
 8543TIP3    H225594   0.019   1.945   5.329 -1.1591  0.8440 -0.3921
 8544TIP3   OH225595   3.572   6.053   4.890 -0.4850 -0.0798  0.0829
 8544TIP3    H125596   3.564   6.140   4.851  1.2581 -1.1520 -2.9904
 8544TIP3    H225597   3.661   6.050   4.926 -0.1503 -0.8905 -0.7661
 8545TIP3   OH225598   5.418   5.661   4.562 -0.3824  0.3912 -0.8489
 8545TIP3    H125599   5.338   5.636   4.515 -0.4374 -0.0972 -0.4975
 8545TIP3    H225600   5.404   5.753   4.586 -0.9901  0.2006 -0.4686
 8546TIP3   OH225601   0.806   2.418   1.470  0.3098  0.1795 -0.0366
 8546TIP3    H125602   0.764   2.371   1.542  0.9195  1.1372  0.9893
 8546TIP3    H225603   0.847   2.494   1.512  2.6262 -0.4365 -1.0375
 8547TIP3   OH225604   1.170   4.491   0.340  0.1859 -0.1924  0.3627
 8547TIP3    H125605   1.159   4.584   0.322 -1.0330 -0.2870  0.5636
 8547TIP3    H225606   1.243   4.464   0.285 -0.4452  0.5529 -0.8676
 8548TIP3   OH225607   0.121   5.476   0.700  0.2542  0.0402 -0.0919
 8548TIP3    H125608   0.120   5.563   0.661 -0.4640  0.3116  0.5180
 8548TIP3    H225609   0.213   5.449   0.696  0.7517  1.4384  1.0746
 8549TIP3   OH225610   3.416   5.912   5.491  0.4983 -0.7757 -0.4023
 8549TIP3    H125611   3.448   5.845   5.431 -0.5899 -0.3920 -1.4710
 8549TIP3    H225612   3.459   5.993   5.462 -1.5557 -0.1744 -2.1165
 8550TIP3   OH225613   4.461   2.529   5.246  0.5035 -0.5556  0.0471
 8550TIP3    H125614   4.367   2.511   5.251  0.2672  0.8690  1.9413
 8550TIP3    H225615   4.500   2.476   5.316  1.0021 -0.5237 -0.2003
 8551TIP3   OH225616   3.601   5.628   4.114 -0.3159 -0.2777 -0.2822
 8551TIP3    H125617   3.583   5.593   4.027 -0.0516 -0.6745 -0.1771
 8551TIP3    H225618   3.696   5.621   4.125 -0.3835 -0.5724  0.1765
 8552TIP3   OH225619   1.232   5.082   5.437  0.7296  0.0632  0.3898
 8552TIP3    H125620   1.232   4.990   5.410  3.1815 -0.3072  1.4093
 8552TIP3    H225621   1.172   5.125   5.376  0.1882 -2.0482 -0.6484
 8553TIP3   OH225622   0.379   5.098   1.161 -0.1106 -0.1196 -0.4798
 8553TIP3    H125623   0.441   5.141   1.102  0.7729 -1.5121 -0.6056
 8553TIP3    H225624   0.434   5.054   1.226 -1.0479  0.6713  0.9105
 8554TIP3   OH225625   6.469   6.529   2.224  0.4225 -0.0882  0.1897
 8554TIP3    H125626   6.417   6.610   2.227 -0.0191 -0.2543 -1.8732
 8554TIP3    H225627   6.466   6.496   2.314  0.7633  2.2575  1.1609
 8555TIP3   OH225628   0.742   6.559   2.233 -0.8811 -0.4830 -0.3271
 8555TIP3    H125629   0.714   6.650   2.244  0.7061 -0.0940  0.9635
 8555TIP3    H225630   0.775   6.555   2.143  0.0399  0.5353 -0.0563
 8556TIP3   OH225631   6.907   5.322   5.549  0.0807  0.2888 -1.0265
 8556TIP3    H125632   6.918   5.324   5.644  1.2301 -1.0307 -1.0883
 8556TIP3    H225633   6.825   5.275   5.535  0.3932 -0.3819 -0.6752
 8557TIP3   OH225634   2.409   0.500   4.151  0.2052  0.8238 -0.4093
 8557TIP3    H125635   2.493   0.547   4.155  0.1608  0.8406  0.7788
 8557TIP3    H225636   2.418   0.431   4.217 -0.7267  0.8517 -0.2501
 8558TIP3   OH225637   4.980   4.125   2.082 -0.3320 -0.1729  0.3227
 8558TIP3    H125638   4.888   4.152   2.081 -0.0403  0.8434  0.0269
 8558TIP3    H225639   5.002   4.112   1.990 -0.0797 -0.0720  0.3688
 8559TIP3   OH225640   2.939   5.287   5.704 -0.2374  0.0836  0.1829
 8559TIP3    H125641   2.875   5.351   5.733 -0.9877  0.0023 -1.1953
 8559TIP3    H225642   3.016   5.338   5.679  0.0015  0.2359  1.1708
 8560TIP3   OH225643   2.579   2.895   2.518  0.0367 -0.1085 -0.1770
 8560TIP3    H125644   2.538   2.948   2.450  0.4895 -0.0316 -0.3937
 8560TIP3    H225645   2.668   2.930   2.526  0.2893 -0.7266 -0.2064
 8561TIP3   OH225646   5.644   4.510   2.989  0.1442  0.3596 -0.4886
 8561TIP3    H125647   5.696   4.529   3.068 -0.1353  0.2843 -0.2848
 8561TIP3    H225648   5.709   4.504   2.919  0.3400  1.0081 -0.3691
 8562TIP3   OH225649   5.640   3.390   2.015 -0.5371 -1.1162  0.1104
 8562TIP3    H125650   5.721   3.440   2.004 -0.2853 -1.5274  0.0716
 8562TIP3    H225651   5.597   3.431   2.090 -2.0125  1.3738 -1.8869
 8563TIP3   OH225652   0.859   0.708   4.802 -0.4531  0.4300 -0.2630
 8563TIP3    H125653   0.801   0.703   4.877  1.1501 -3.1129  0.9728
 8563TIP3    H225654   0.800   0.705   4.726 -1.9903 -0.0900  0.8913
 8564TIP3   OH225655   5.977   0.042   1.302 -0.3560  0.2053 -0.3126
 8564TIP3    H125656   5.893   0.077   1.271  0.5589  1.2663 -1.7781
 8564TIP3    H225657   6.014   0.112   1.355 -0.6892 -0.5394  0.9300
 8565TIP3   OH225658   0.805   4.391   0.267 -0.2451 -0.4144 -0.1369
 8565TIP3    H125659   0.891   4.385   0.225  2.0569 -1.4760  4.1600
 8565TIP3    H225660   0.759   4.312   0.240  1.2997 -1.2701 -0.3626
 8566TIP3   OH225661   4.315   2.153   3.107  0.3458 -0.5469 -0.2430
 8566TIP3    H125662   4.307   2.237   3.151 -1.7758 -0.8458  0.0926
 8566TIP3    H225663   4.301   2.172   3.014 -1.1305 -0.6001 -0.0591
 8567TIP3   OH225664   4.258   3.910   4.915 -0.3062  0.1789  0.4235
 8567TIP3    H125665   4.203   3.979   4.877  0.0042 -1.0994 -2.6977
 8567TIP3    H225666   4.343   3.921   4.871  0.5143 -0.6974  1.7143
 8568TIP3   OH225667   3.466   5.864   4.162 -0.1820  0.0199 -0.3407
 8568TIP3    H125668   3.511   5.779   4.166  0.0735  0.1505 -0.4129
 8568TIP3    H225669   3.537   5.927   4.148 -0.1902  0.4088  1.1775
 8569TIP3   OH225670   4.517   3.642   2.559  0.1534  0.1590  0.1601
 8569TIP3    H125671   4.521   3.550   2.531  0.8464 -0.1931  1.3459
 8569TIP3    H225672   4.538   3.640   2.652 -0.9383  1.4143  0.4656
 8570TIP3   OH225673   2.363   4.265   2.746 -0.2207  0.4986 -0.6494
 8570TIP3    H125674   2.429   4.224   2.801 -1.6532 -1.8812 -0.5570
 8570TIP3    H225675   2.374   4.359   2.760  2.2994  0.1316  0.2660
 8571TIP3   OH225676   6.741   4.894   2.020  0.4027 -0.0517 -0.1755
 8571TIP3    H125677   6.799   4.852   1.957 -0.6996  0.5065 -1.6116
 8571TIP3    H225678   6.705   4.970   1.974 -0.8407  0.0828  0.9384
 8572TIP3   OH225679   0.784   0.965   0.589 -0.4209  0.6374  0.1392
 8572TIP3    H125680   0.876   0.955   0.567 -0.7662 -0.5871 -0.9044
 8572TIP3    H225681   0.781   1.039   0.649  1.4974 -0.7294  2.0310
 8573TIP3   OH225682   4.553   2.576   2.533  0.1221 -0.0177  0.1950
 8573TIP3    H125683   4.536   2.623   2.615  2.3403  0.3211  0.5389
 8573TIP3    H225684   4.618   2.510   2.558  0.1282 -0.5201 -1.1096
 8574TIP3   OH225685   4.878   0.221   2.557  0.2282 -0.8753  0.3633
 8574TIP3    H125686   4.873   0.314   2.532  3.5439 -1.0908 -1.7652
 8574TIP3    H225687   4.837   0.218   2.643 -1.2316  2.2880 -0.0532
 8575TIP3   OH225688   6.557   3.822   1.015  0.0925 -0.3349 -0.0532
 8575TIP3    H125689   6.511   3.746   0.980  1.6709 -1.3223 -0.1054
 8575TIP3    H225690   6.643   3.789   1.039  0.1447  0.9928  1.8676
 8576TIP3   OH225691   2.617   4.704   5.853  0.4927  0.1932 -0.0714
 8576TIP3    H125692   2.702   4.675   5.819  0.6548 -0.5436  0.9126
 8576TIP3    H225693   2.553   4.673   5.789  0.7795 -1.2872  0.3131
 8577TIP3   OH225694   5.073   1.008   2.648  0.5982  0.0038 -0.3144
 8577TIP3    H125695   5.052   1.096   2.618 -1.8398  0.8974  3.2787
 8577TIP3    H225696   5.000   0.954   2.620 -0.5093  0.3496  1.6870
 8578TIP3   OH225697   5.695   2.576   1.067  0.0680  0.2658  0.2442
 8578TIP3    H125698   5.643   2.643   1.110  0.2064  2.5450 -2.7681
 8578TIP3    H225699   5.695   2.502   1.127 -1.7213  2.2652  2.9054
 8579TIP3   OH225700   6.791   2.556   2.103 -0.1842  0.0413  0.0258
 8579TIP3    H125701   6.773   2.465   2.079  1.3738 -0.2879 -0.0006
 8579TIP3    H225702   6.745   2.568   2.186 -1.0903 -0.5008 -0.3751
 8580TIP3   OH225703   3.444   0.056   5.703 -0.5895  0.0408  0.1217
 8580TIP3    H125704   3.379   0.089   5.641 -0.0274  1.4937  0.2586
 8580TIP3    H225705   3.513   0.123   5.703  0.5124 -1.0542  0.6022
 8581TIP3   OH225706   4.184   6.243   1.849 -0.6283 -0.2638 -0.0903
 8581TIP3    H125707   4.256   6.193   1.811  1.1850  1.2675  1.1335
 8581TIP3    H225708   4.227   6.310   1.901 -2.9803  0.8067  0.5910
 8582TIP3   OH225709   4.421   1.034   4.024  0.1697 -0.5340  0.2793
 8582TIP3    H125710   4.352   1.055   3.961 -0.9157  0.5712  1.7583
 8582TIP3    H225711   4.499   1.077   3.990  0.1228 -1.6245 -1.3121
 8583TIP3   OH225712   1.417   2.897   1.351 -0.1248  0.6619  0.1948
 8583TIP3    H125713   1.362   2.868   1.278  0.7004  1.7245 -0.8965
 8583TIP3    H225714   1.402   2.992   1.354 -0.6411  0.5533  1.8502
 8584TIP3   OH225715   3.788   2.964   0.483 -0.0016  0.6246  0.4538
 8584TIP3    H125716   3.855   2.925   0.427 -0.8156  0.1905 -0.2296
 8584TIP3    H225717   3.822   2.955   0.572 -0.1428 -1.6029  0.3242
 8585TIP3   OH225718   2.535   2.383   4.548  0.0942 -0.7348 -0.0434
 8585TIP3    H125719   2.495   2.364   4.463  0.1553 -0.4498 -0.1380
 8585TIP3    H225720   2.628   2.365   4.537 -0.0078 -1.4516  0.1932
 8586TIP3   OH225721   2.015   3.503   3.275 -0.0563 -0.1660 -0.1201
 8586TIP3    H125722   1.961   3.532   3.348 -0.8508 -1.3505 -0.2300
 8586TIP3    H225723   1.989   3.413   3.258  0.5094 -0.1079 -1.5044
 8587TIP3   OH225724   4.531   0.331   0.101 -0.1641  0.0126 -0.0516
 8587TIP3    H125725   4.617   0.306   0.135 -0.6926 -0.0220  1.3268
 8587TIP3    H225726   4.515   0.269   0.029  0.9714  0.0624 -0.3700
 8588TIP3   OH225727   4.656   4.845   3.710 -0.2413  0.5940  0.4489
 8588TIP3    H125728   4.565   4.842   3.740  0.0624  2.2379  1.6687
 8588TIP3    H225729   4.705   4.874   3.787  1.1689  0.8352 -0.5109
 8589TIP3   OH225730   1.021   0.618   1.689  0.2375 -0.5629  0.6514
 8589TIP3    H125731   1.113   0.617   1.665 -0.3227  0.4622 -1.7712
 8589TIP3    H225732   0.997   0.525   1.697  1.0570 -0.8897 -0.4792
 8590TIP3   OH225733   1.650   6.307   3.303  0.1682  0.1710  0.4297
 8590TIP3    H125734   1.688   6.246   3.366  0.6065 -0.2862 -0.2654
 8590TIP3    H225735   1.725   6.336   3.250 -0.0934  1.0157  0.4998
 8591TIP3   OH225736   4.785   5.702   4.899  0.3618  0.3358  0.0071
 8591TIP3    H125737   4.739   5.668   4.822 -0.9367 -0.2578  1.0155
 8591TIP3    H225738   4.873   5.721   4.867 -0.3161  0.6918 -1.7738
 8592TIP3   OH225739   3.808   2.899   4.167  0.1299  0.1426 -0.0278
 8592TIP3    H125740   3.860   2.896   4.087  0.6616 -0.3716  0.3208
 8592TIP3    H225741   3.725   2.858   4.144  0.3378 -0.1467 -0.2796
 8593TIP3   OH225742   4.416   4.322   1.962  0.0418 -0.3409  0.2990
 8593TIP3    H125743   4.499   4.344   2.003  0.7966  1.0990 -1.8634
 8593TIP3    H225744   4.427   4.231   1.934  0.4784 -0.4801  0.8827
 8594TIP3   OH225745   0.941   0.021   0.751  0.5349  0.5826  0.4270
 8594TIP3    H125746   0.999   0.060   0.815  0.5999  0.6281  0.3412
 8594TIP3    H225747   0.958   0.070   0.670  0.8668  0.1590  0.2304
 8595TIP3   OH225748   0.848   0.185   5.510 -0.1962  0.0310 -0.1962
 8595TIP3    H125749   0.813   0.274   5.517 -0.2923 -0.0771  0.9654
 8595TIP3    H225750   0.771   0.130   5.494 -0.0364  0.2322 -1.7818
 8596TIP3   OH225751   2.341   0.392   2.886  0.2286  0.1112 -0.8008
 8596TIP3    H125752   2.386   0.332   2.945  0.4597 -0.6321 -1.7004
 8596TIP3    H225753   2.305   0.336   2.817 -0.5793  0.8856 -1.0327
 8597TIP3   OH225754   2.128   6.151   2.922 -0.2741 -0.1345  0.3245
 8597TIP3    H125755   2.049   6.206   2.927  0.1804  0.7114 -1.3621
 8597TIP3    H225756   2.188   6.200   2.866  0.8834 -1.4786  0.3492
 8598TIP3   OH225757   2.313   5.440   4.292  0.6359  0.1397  1.1152
 8598TIP3    H125758   2.286   5.348   4.293 -1.2628  0.5813 -0.9384
 8598TIP3    H225759   2.254   5.483   4.355  1.0220  0.0881  1.5184
 8599TIP3   OH225760   0.888   1.328   2.900  0.2118  0.5536 -0.7566
 8599TIP3    H125761   0.946   1.254   2.917 -0.8421 -0.2405 -0.5435
 8599TIP3    H225762   0.926   1.400   2.950 -0.0996 -0.4883  1.0535
 8600TIP3   OH225763   3.384   5.643  -0.012 -0.1544  0.3404  0.5463
 8600TIP3    H125764   3.327   5.688   0.050 -1.0463  0.7971 -0.5566
 8600TIP3    H225765   3.342   5.557  -0.025  0.1600  0.1537  0.7544
 8601TIP3   OH225766   5.792   1.862   0.843 -0.3288  0.0613  0.0481
 8601TIP3    H125767   5.766   1.771   0.859 -0.8044  0.0839 -0.5672
 8601TIP3    H225768   5.752   1.911   0.915  0.8364 -0.3454  1.0068
 8602TIP3   OH225769   0.765   2.957   3.469  0.4820 -0.1526  0.1883
 8602TIP3    H125770   0.777   2.906   3.550  1.3361  1.0203  0.8281
 8602TIP3    H225771   0.853   2.963   3.431  0.3359  0.5570 -0.0481
 8603TIP3   OH225772   2.421   3.970   2.820 -0.2007  0.2888 -0.4068
 8603TIP3    H125773   2.393   4.031   2.752 -0.6932  0.2501 -0.2431
 8603TIP3    H225774   2.342   3.952   2.871 -0.5146 -1.9853 -1.5916
 8604TIP3   OH225775   3.323   1.885   2.171  0.3649  0.2402 -0.0573
 8604TIP3    H125776   3.238   1.841   2.179  1.0041 -0.8214  1.6228
 8604TIP3    H225777   3.304   1.966   2.124 -2.2389  1.6597  3.0051
 8605TIP3   OH225778   6.409   2.151   1.303 -0.0163  0.1725  0.6474
 8605TIP3    H125779   6.318   2.155   1.274 -0.6539 -1.7223  2.1268
 8605TIP3    H225780   6.458   2.203   1.239 -2.2341  1.9594  0.3061
 8606TIP3   OH225781   5.196   3.648   1.497  0.6354 -0.0304  0.0684
 8606TIP3    H125782   5.286   3.622   1.477  0.7372  0.2323  0.1725
 8606TIP3    H225783   5.178   3.609   1.583  0.9990  0.7233  0.5051
 8607TIP3   OH225784   1.215   4.466   1.763 -0.1784 -0.2069  0.3524
 8607TIP3    H125785   1.165   4.412   1.824  0.2609 -0.7428  0.2429
 8607TIP3    H225786   1.268   4.523   1.819  0.2585 -0.7298  0.4780
 8608TIP3   OH225787   5.627   1.464   4.111 -0.1458  0.3103  0.4928
 8608TIP3    H125788   5.663   1.382   4.145 -1.2958 -0.5055 -0.1652
 8608TIP3    H225789   5.579   1.501   4.184 -1.8982 -1.0084  0.0824
 8609TIP3   OH225790   7.143   5.207   4.238  0.3966 -0.7290  0.3967
 8609TIP3    H125791   7.237   5.215   4.220  0.1023  0.0944 -0.8578
 8609TIP3    H225792   7.139   5.166   4.325  1.9090 -0.8515  0.4344
 8610TIP3   OH225793   0.808   1.858   1.424  0.4144  0.3142  0.0175
 8610TIP3    H125794   0.738   1.804   1.461 -0.3698  2.4224  1.9280
 8610TIP3    H225795   0.889   1.823   1.462  0.2169 -0.9871 -0.7247
 8611TIP3   OH225796   6.973   6.654   4.717  0.2540 -0.0598 -0.1728
 8611TIP3    H125797   6.896   6.701   4.748  0.2537  0.4083 -0.8674
 8611TIP3    H225798   6.960   6.564   4.749  0.0610  0.3040  0.8071
 8612TIP3   OH225799   5.919   1.752   3.228  0.5200  0.1178 -0.0919
 8612TIP3    H125800   5.828   1.721   3.225  0.3250  0.5972  0.6479
 8612TIP3    H225801   5.931   1.781   3.318  0.3743  3.1329 -0.9392
 8613TIP3   OH225802   1.554   0.339   4.319  0.1371  0.3016 -0.6815
 8613TIP3    H125803   1.633   0.306   4.361 -0.4881 -0.7414 -0.2789
 8613TIP3    H225804   1.570   0.328   4.225  0.4919  0.1371 -0.6029
 8614TIP3   OH225805   1.658   2.106   5.749  0.1724 -0.2226 -0.3635
 8614TIP3    H125806   1.689   2.123   5.838  2.7139 -0.1448 -1.1844
 8614TIP3    H225807   1.738   2.097   5.697 -1.2319 -0.6562 -2.5839
 8615TIP3   OH225808   4.049   2.973   5.561 -0.3513 -0.2768  0.3659
 8615TIP3    H125809   4.023   3.027   5.636  0.4671 -0.1733  0.5849
 8615TIP3    H225810   4.034   2.883   5.589  0.2461 -0.2545  0.7795
 8616TIP3   OH225811   6.448   3.556   5.459  0.2877  0.0899 -0.0345
 8616TIP3    H125812   6.385   3.613   5.416 -0.3403  0.1314  0.8972
 8616TIP3    H225813   6.481   3.499   5.389 -0.9409 -0.0646 -0.5177
 8617TIP3   OH225814   3.772   3.525   0.990 -0.7987  0.0165 -0.0912
 8617TIP3    H125815   3.857   3.568   0.980 -0.9017  0.4873  0.9152
 8617TIP3    H225816   3.758   3.480   0.907  0.3137  0.1432 -0.3645
 8618TIP3   OH225817   7.041   6.496   3.646 -0.3780  0.5125 -0.3687
 8618TIP3    H125818   7.120   6.549   3.656 -0.5824  0.9251 -0.9217
 8618TIP3    H225819   6.997   6.502   3.730  0.4861 -0.2277  0.1576
 8619TIP3   OH225820   5.730   2.387   5.174 -0.0239  0.5729  0.1939
 8619TIP3    H125821   5.646   2.375   5.129 -0.0793 -0.2407  0.4925
 8619TIP3    H225822   5.724   2.474   5.214 -0.4849  0.7648 -0.2875
 8620TIP3   OH225823   6.007   5.687   2.845  0.5767  0.3204  0.4699
 8620TIP3    H125824   5.989   5.620   2.910  0.2250 -1.6331 -1.4999
 8620TIP3    H225825   5.942   5.755   2.860 -0.5420 -0.8660  1.1158
 8621TIP3   OH225826   7.048   0.257   4.557  0.0741  0.0238  0.1706
 8621TIP3    H125827   7.049   0.182   4.616 -3.0785 -0.8414 -0.7109
 8621TIP3    H225828   7.054   0.333   4.616  0.9041 -0.8408  1.2455
 8622TIP3   OH225829   5.413   3.345   3.485  0.1453  0.1437 -0.0171
 8622TIP3    H125830   5.435   3.438   3.488 -0.2913  0.2966 -1.3290
 8622TIP3    H225831   5.493   3.302   3.452  1.0158 -0.2181  2.3135
 8623TIP3   OH225832   5.541   0.597   2.076 -0.2726 -0.1300  0.5431
 8623TIP3    H125833   5.451   0.568   2.092  0.1674 -1.2525  1.0293
 8623TIP3    H225834   5.572   0.543   2.004 -0.2644  0.8572 -0.2108
 8624TIP3   OH225835   3.891   0.218   4.926 -0.1218 -0.0822 -0.4351
 8624TIP3    H125836   3.947   0.272   4.982  0.4533 -0.6271 -0.4621
 8624TIP3    H225837   3.850   0.156   4.986 -1.1142  0.6346 -0.3428
 8625TIP3   OH225838   3.646   2.492   1.208 -1.0387  0.3299 -0.3349
 8625TIP3    H125839   3.631   2.409   1.252 -1.5035  1.2164  1.3018
 8625TIP3    H225840   3.612   2.480   1.120  1.2957 -2.0094 -1.0291
 8626TIP3   OH225841   1.887   0.274   0.997 -0.0887  0.3669  0.5376
 8626TIP3    H125842   1.803   0.316   0.980  0.4783  1.7227  1.0071
 8626TIP3    H225843   1.917   0.245   0.910 -0.0441  1.8019  0.0475
 8627TIP3   OH225844   0.197   0.355   3.366  0.2227  0.0150  0.3672
 8627TIP3    H125845   0.104   0.334   3.368  0.3250 -0.6709 -0.9027
 8627TIP3    H225846   0.200   0.448   3.343 -0.1487  0.5457  2.2309
 8628TIP3   OH225847   0.687   5.121   3.524 -0.0358  0.2423 -0.3066
 8628TIP3    H125848   0.687   5.078   3.438 -0.0092 -1.6503  0.5983
 8628TIP3    H225849   0.640   5.060   3.582 -0.8975  1.9083  0.8456
 8629TIP3   OH225850   2.852   0.664   2.797 -0.5448  0.2044  0.6071
 8629TIP3    H125851   2.796   0.730   2.839 -0.9373  1.9669 -2.4001
 8629TIP3    H225852   2.829   0.669   2.705  1.2733 -2.4173 -0.0847
 8630TIP3   OH225853   6.629   6.499   4.501 -0.2632  0.0928  0.2347
 8630TIP3    H125854   6.574   6.447   4.442 -1.4568  0.4205  1.0217
 8630TIP3    H225855   6.584   6.495   4.585  1.3348 -0.2728  1.1276
 8631TIP3   OH225856   1.807   6.042   0.714  0.0585 -0.1624  0.5756
 8631TIP3    H125857   1.880   6.009   0.765  1.1252  1.6488  0.2946
 8631TIP3    H225858   1.839   6.044   0.623  0.2156  1.9818  0.6374
 8632TIP3   OH225859   2.396   0.556   4.980  0.1936  0.5081 -0.1492
 8632TIP3    H125860   2.321   0.531   5.035  1.4843 -0.2570  1.3334
 8632TIP3    H225861   2.361   0.556   4.891 -1.7044  0.7258  0.5482
 8633TIP3   OH225862   0.786   6.686   1.331 -0.4148  0.2970 -0.0241
 8633TIP3    H125863   0.872   6.728   1.339 -0.1628 -0.4014  1.2833
 8633TIP3    H225864   0.796   6.602   1.375 -0.8349 -1.3267 -2.7994
 8634TIP3   OH225865   3.793   2.389   0.689  0.2223 -0.1555 -0.0834
 8634TIP3    H125866   3.797   2.483   0.670  0.5014 -0.3309 -0.8940
 8634TIP3    H225867   3.712   2.379   0.739 -0.5525  0.3003 -1.2259
 8635TIP3   OH225868   5.955   2.939   2.072  0.0716 -0.2573  0.0537
 8635TIP3    H125869   5.897   2.863   2.081  1.3801 -1.2012  0.8157
 8635TIP3    H225870   5.939   2.991   2.151 -0.1564 -0.1959 -0.0299
 8636TIP3   OH225871   5.481   4.897   0.962 -0.2626  0.1774  0.8689
 8636TIP3    H125872   5.432   4.920   0.883 -2.1325 -4.3674  0.3948
 8636TIP3    H225873   5.426   4.929   1.034 -2.1490 -1.5078  0.2761
 8637TIP3   OH225874   1.202   5.469   5.213 -0.2408  0.2475 -0.4333
 8637TIP3    H125875   1.175   5.460   5.305 -0.7934 -1.0013 -0.7094
 8637TIP3    H225876   1.120   5.473   5.164  0.0488  1.2772 -0.8629
 8638TIP3   OH225877   6.610   5.770   3.119 -0.6034 -0.3856  0.3696
 8638TIP3    H125878   6.668   5.730   3.054  0.1455 -0.1046  0.8541
 8638TIP3    H225879   6.523   5.737   3.097  0.0311 -2.7700  1.0836
 8639TIP3   OH225880   1.931   0.744   4.576 -0.0631  0.6783  0.1032
 8639TIP3    H125881   1.918   0.832   4.539  1.2391  1.3858  1.2065
 8639TIP3    H225882   2.026   0.736   4.585 -0.1373 -0.9937 -0.2646
 8640TIP3   OH225883   0.368   5.177   0.132  0.5451  0.5291 -0.5233
 8640TIP3    H125884   0.278   5.202   0.152 -0.8964 -1.4630 -3.6414
 8640TIP3    H225885   0.380   5.093   0.177  1.1978  1.2142  0.6068
 8641TIP3   OH225886   0.806   3.641   2.189 -0.0926  0.2880  0.2245
 8641TIP3    H125887   0.736   3.598   2.239  0.2864 -0.9683 -0.2718
 8641TIP3    H225888   0.785   3.734   2.192 -0.9018  0.0854  1.4354
 8642TIP3   OH225889   2.388   0.200   0.991  0.4923 -0.1186  0.1076
 8642TIP3    H125890   2.464   0.258   0.998  0.7633 -0.1854 -1.7383
 8642TIP3    H225891   2.312   0.260   0.989  0.6141  0.0452  0.3974
 8643TIP3   OH225892   0.817   3.778   5.713 -0.5345  0.0854  0.1860
 8643TIP3    H125893   0.730   3.804   5.745 -0.3344 -0.1411  0.9496
 8643TIP3    H225894   0.799   3.717   5.642 -1.0008  0.5237 -0.0810
 8644TIP3   OH225895   0.168   0.275   0.382 -0.1292 -0.1367 -0.4339
 8644TIP3    H125896   0.073   0.287   0.373  0.2900  2.2952 -2.7227
 8644TIP3    H225897   0.205   0.310   0.301  2.8586  0.7954  1.1734
 8645TIP3   OH225898   0.128   2.223   4.210 -0.2822  0.2188 -0.1950
 8645TIP3    H125899   0.153   2.164   4.138 -2.1803  0.7394 -1.3460
 8645TIP3    H225900   0.207   2.275   4.227  0.2548 -0.0166 -1.8188
 8646TIP3   OH225901   5.987   2.665   5.896 -0.3145 -0.2117  0.9172
 8646TIP3    H125902   5.984   2.691   5.804 -0.3196  0.3799  1.0797
 8646TIP3    H225903   5.931   2.588   5.902  0.7791 -1.0988  0.1535
 8647TIP3   OH225904   2.406   6.745   3.325 -0.6124 -0.2773  0.0340
 8647TIP3    H125905   2.385   6.741   3.232  0.8100  0.6321 -0.3573
 8647TIP3    H225906   2.395   6.655   3.356  1.6080 -1.1988 -1.6501
 8648TIP3   OH225907   6.289   0.485   1.695  0.7634 -0.5517 -0.0453
 8648TIP3    H125908   6.363   0.535   1.661  1.0756  0.3747  1.8235
 8648TIP3    H225909   6.328   0.409   1.738  0.9149  0.8242  2.4970
 8649TIP3   OH225910   2.977   4.999   1.927  0.0223 -0.7072 -0.5192
 8649TIP3    H125911   2.887   4.975   1.945  0.4782 -1.0560  1.4275
 8649TIP3    H225912   3.026   4.917   1.931  0.6620 -0.3084  0.0230
 8650TIP3   OH225913   6.381   1.255   5.400 -0.1239  0.1268  0.6289
 8650TIP3    H125914   6.354   1.347   5.394  0.0120  0.1310  0.0153
 8650TIP3    H225915   6.426   1.238   5.317 -1.6606 -1.0029 -0.0145
 8651TIP3   OH225916   4.158   2.064   4.201 -0.6864  0.1237 -0.3688
 8651TIP3    H125917   4.159   1.993   4.137 -2.9667 -0.5817  0.2758
 8651TIP3    H225918   4.201   2.028   4.278 -2.5065 -0.9100  0.2230
 8652TIP3   OH225919   7.191   2.458   3.994  0.5302  0.2351  0.2793
 8652TIP3    H125920   7.285   2.457   4.013  0.4845  1.2477  0.5799
 8652TIP3    H225921   7.154   2.394   4.055  1.0972 -0.7131 -0.3338
 8653TIP3   OH225922   6.014   3.443   3.263 -0.1551 -0.6202 -0.2303
 8653TIP3    H125923   6.072   3.503   3.310 -0.5487  0.6791 -1.3511
 8653TIP3    H225924   5.928   3.459   3.301 -0.2175 -0.6518 -0.3567
 8654TIP3   OH225925   1.658   4.025   4.697  0.3447  0.6132 -0.1674
 8654TIP3    H125926   1.715   4.101   4.708 -0.0028  0.7917  0.4046
 8654TIP3    H225927   1.685   3.964   4.765 -0.5445  0.9466  0.4970
 8655TIP3   OH225928   6.882   6.014   5.286  0.0583 -0.2980 -0.1978
 8655TIP3    H125929   6.960   6.065   5.306 -0.5125  0.7935 -0.6672
 8655TIP3    H225930   6.916   5.928   5.259  1.0981  0.1699 -0.4464
 8656TIP3   OH225931   5.095   4.980   5.382 -0.3106  0.0583  0.3154
 8656TIP3    H125932   5.101   4.989   5.287  0.2699 -0.0088  0.3417
 8656TIP3    H225933   5.174   5.023   5.415  0.6056 -1.7740  0.6479
 8657TIP3   OH225934   4.710   1.738   3.069 -0.0807 -0.1234 -0.2013
 8657TIP3    H125935   4.651   1.812   3.057  0.1992 -0.1513 -1.9275
 8657TIP3    H225936   4.731   1.740   3.163 -1.7800  0.6490  0.2084
 8658TIP3   OH225937   6.203   3.496   4.787 -0.6008 -0.4850  0.1147
 8658TIP3    H125938   6.168   3.585   4.795  5.0666  2.0228  1.7392
 8658TIP3    H225939   6.186   3.456   4.872 -0.1488  0.3837  0.6242
 8659TIP3   OH225940   6.942   5.431   3.029 -0.9637  0.1268 -0.2049
 8659TIP3    H125941   6.912   5.386   2.950 -1.4464  0.0760  0.0020
 8659TIP3    H225942   6.920   5.372   3.100 -1.7094  0.7242  0.0803
 8660TIP3   OH225943   5.181   4.879   0.414  0.1656 -0.0672  0.0282
 8660TIP3    H125944   5.151   4.871   0.323  3.5206  0.0195 -1.2391
 8660TIP3    H225945   5.204   4.790   0.439  0.9395  0.1395  0.0925
 8661TIP3   OH225946   0.125   1.358   3.704 -0.1832  0.3283 -0.1736
 8661TIP3    H125947   0.160   1.358   3.793 -0.5847 -0.5026 -0.0052
 8661TIP3    H225948   0.120   1.265   3.680 -2.0625  0.4029 -0.2462
 8662TIP3   OH225949   2.157   0.044   3.784  0.1673 -0.6250 -0.2898
 8662TIP3    H125950   2.161   0.094   3.865 -0.8209 -0.6609 -0.2003
 8662TIP3    H225951   2.068   0.060   3.751  0.1916 -1.4802 -0.7980
 8663TIP3   OH225952   1.186   4.036   2.491  0.0910  0.6210 -0.0201
 8663TIP3    H125953   1.202   3.964   2.552  2.1484  0.2460 -0.9036
 8663TIP3    H225954   1.274   4.063   2.463 -0.7252  1.9521 -1.4501
 8664TIP3   OH225955   2.852   2.847   5.772 -0.5836 -0.5356 -0.0988
 8664TIP3    H125956   2.863   2.906   5.698  0.2536 -0.4450  0.0899
 8664TIP3    H225957   2.842   2.760   5.733  1.0560 -0.6547 -0.2938
 8665TIP3   OH225958   5.756   1.834   2.671  0.2298 -0.4279 -0.1651
 8665TIP3    H125959   5.825   1.865   2.612  0.8875  0.7369  1.1656
 8665TIP3    H225960   5.724   1.754   2.630  0.7339  0.2804 -2.0425
 8666TIP3   OH225961   3.372   3.621   4.206 -0.3246  0.2983 -0.4078
 8666TIP3    H125962   3.336   3.544   4.250 -1.9063 -0.0061 -2.1291
 8666TIP3    H225963   3.382   3.686   4.275 -1.7282 -0.4954  0.5850
 8667TIP3   OH225964   5.345   4.981   5.842 -0.1064 -0.4030 -0.3651
 8667TIP3    H125965   5.299   4.916   5.895  1.5541 -1.5918 -0.3058
 8667TIP3    H225966   5.394   4.930   5.778  0.0265  0.8887 -1.3529
 8668TIP3   OH225967   0.545   5.940   0.699 -0.5674 -0.0443  0.3783
 8668TIP3    H125968   0.576   6.031   0.707  2.1308 -0.9344  0.9503
 8668TIP3    H225969   0.575   5.911   0.613 -0.3595 -0.7520  0.6815
 8669TIP3   OH225970   2.938   6.316   3.452  0.0950  0.4390 -0.3256
 8669TIP3    H125971   3.004   6.320   3.522 -1.9872  0.1189  1.7674
 8669TIP3    H225972   2.882   6.392   3.467 -2.5349 -1.5386  0.7486
 8670TIP3   OH225973   4.649   5.209   4.681 -0.0092  0.5398 -0.2703
 8670TIP3    H125974   4.730   5.258   4.665 -0.1264  1.0144  0.5251
 8670TIP3    H225975   4.625   5.232   4.771  0.2397 -1.4361  0.3570
 8671TIP3   OH225976   4.863   5.450   3.171 -0.4626  1.0053 -0.7719
 8671TIP3    H125977   4.787   5.396   3.150  0.0453  0.4455 -1.2213
 8671TIP3    H225978   4.916   5.450   3.090  1.1739 -0.5818  0.2258
 8672TIP3   OH225979   0.815   2.148   2.866 -0.1587  0.3016 -0.2872
 8672TIP3    H125980   0.824   2.107   2.780 -0.3693  1.3132 -0.8029
 8672TIP3    H225981   0.720   2.153   2.879 -0.1536 -1.5251  0.8465
 8673TIP3   OH225982   2.050   5.347   4.221 -0.2573  0.3717  0.2704
 8673TIP3    H125983   2.058   5.443   4.219 -0.4461  0.3880  0.2690
 8673TIP3    H225984   2.020   5.324   4.133  0.7899  0.2153 -0.0538
 8674TIP3   OH225985   6.217   0.630   2.599  0.1568 -0.0807 -0.1195
 8674TIP3    H125986   6.308   0.606   2.584 -0.2330 -0.1548 -3.0161
 8674TIP3    H225987   6.201   0.609   2.691  3.1141  0.2296  0.5602
 8675TIP3   OH225988   0.777   0.152   1.688  0.0507 -0.5952  0.0907
 8675TIP3    H125989   0.761   0.076   1.632  0.5938  0.0942 -1.0256
 8675TIP3    H225990   0.690   0.188   1.706 -0.0825 -0.3825 -0.9420
 8676TIP3   OH225991   6.060   3.507   5.697  0.2590 -0.7100  0.1772
 8676TIP3    H125992   6.039   3.600   5.695 -1.5545 -1.0888  0.0364
 8676TIP3    H225993   6.102   3.494   5.782 -1.1701 -0.0824  1.0201
 8677TIP3   OH225994   4.273   1.277   2.496 -0.3937  0.3210  0.5444
 8677TIP3    H125995   4.215   1.231   2.557  0.6009 -0.7189  0.7347
 8677TIP3    H225996   4.333   1.326   2.553  1.3159 -1.6061  0.4925
 8678TIP3   OH225997   3.065   6.062   0.533 -0.0132 -0.5554  0.6135
 8678TIP3    H125998   3.114   5.998   0.584 -0.9711 -1.9023 -0.1131
 8678TIP3    H225999   3.084   6.041   0.442 -0.2776  0.2570  0.3579
 8679TIP3   OH226000   2.974   0.666   4.257 -0.2763  0.0495  0.1821
 8679TIP3    H126001   2.905   0.732   4.247  0.2801  0.6373  0.0917
 8679TIP3    H226002   3.037   0.688   4.188 -1.1124 -1.9203 -1.2969
 8680TIP3   OH226003   1.085   4.387   4.193  0.0154  0.8662  0.5847
 8680TIP3    H126004   1.178   4.364   4.190 -0.2537 -0.2182  0.4878
 8680TIP3    H226005   1.048   4.330   4.260 -0.9791 -0.2111 -0.8275
 8681TIP3   OH226006   0.546   1.006   0.451 -0.2054  0.4694  0.0374
 8681TIP3    H126007   0.630   0.972   0.483 -0.1404  0.2958 -0.3107
 8681TIP3    H226008   0.502   0.929   0.415 -0.5570  0.5434  0.3046
 8682TIP3   OH226009   2.909   3.480   4.000 -0.4605 -0.0586  0.4990
 8682TIP3    H126010   3.002   3.478   3.977 -0.5581 -0.0489  0.0995
 8682TIP3    H226011   2.880   3.568   3.975 -0.7772 -0.3478 -0.1749
 8683TIP3   OH226012   5.126   4.598   3.663  0.1759  0.0450  0.3873
 8683TIP3    H126013   5.077   4.647   3.729 -0.4774 -0.4951  0.3202
 8683TIP3    H226014   5.065   4.592   3.589  1.0104  0.9260 -0.4010
 8684TIP3   OH226015   6.625   5.903   5.396 -0.2328  0.2417  0.5165
 8684TIP3    H126016   6.652   5.880   5.485 -0.1075  0.9375  0.6597
 8684TIP3    H226017   6.534   5.930   5.405 -1.2281 -2.5444 -0.0333
 8685TIP3   OH226018   6.932   3.828   0.500 -0.0925  0.2536 -0.0154
 8685TIP3    H126019   6.926   3.923   0.510  1.2389  0.2987  0.6129
 8685TIP3    H226020   6.849   3.795   0.535 -1.2453  1.2433 -1.6829
 8686TIP3   OH226021   2.568   4.396   1.346  0.2236  0.5191  0.0636
 8686TIP3    H126022   2.507   4.402   1.273 -0.6553  2.2820  0.8747
 8686TIP3    H226023   2.570   4.485   1.383  1.7010  0.0094  1.3316
 8687TIP3   OH226024   3.334   4.263   1.672 -0.1112  0.6517 -0.3814
 8687TIP3    H126025   3.255   4.268   1.726  0.5652  0.7985  0.6259
 8687TIP3    H226026   3.343   4.171   1.650  0.9778  0.1451  1.9141
 8688TIP3   OH226027   6.402   1.375   2.528 -0.2089  0.3819 -0.5330
 8688TIP3    H126028   6.346   1.334   2.594  0.2704 -1.3306 -1.1474
 8688TIP3    H226029   6.373   1.466   2.525 -1.7824 -0.0609  0.3971
 8689TIP3   OH226030   2.919   3.996   1.983 -0.5154 -0.1180 -0.1280
 8689TIP3    H126031   2.846   3.934   1.978  1.3756 -2.6340  1.0301
 8689TIP3    H226032   2.922   4.022   2.075  1.0551 -1.5127  0.2788
 8690TIP3   OH226033   3.714   5.677   2.610  0.3117 -0.2744  0.2897
 8690TIP3    H126034   3.668   5.702   2.690  0.9778  0.6219  0.4081
 8690TIP3    H226035   3.787   5.738   2.604  0.4752 -0.5520 -0.8202
 8691TIP3   OH226036   3.126   2.612   5.392  0.1635 -0.0838  0.7327
 8691TIP3    H126037   3.071   2.680   5.353  1.6967  1.1709  0.6838
 8691TIP3    H226038   3.064   2.553   5.436 -1.3057  0.5147 -0.4539
 8692TIP3   OH226039   4.189   0.397   5.357  0.2802 -0.2705 -0.2118
 8692TIP3    H126040   4.183   0.414   5.451  2.2329 -0.8208  0.0633
 8692TIP3    H226041   4.102   0.364   5.333 -0.5471  0.7705  1.1736
 8693TIP3   OH226042   0.185   4.043   5.013  0.5236 -0.3364  0.8019
 8693TIP3    H126043   0.195   4.131   5.049 -1.3116 -0.6792  2.3157
 8693TIP3    H226044   0.173   3.987   5.090 -2.1416 -1.3058 -0.1936
 8694TIP3   OH226045   6.673   2.094   5.573 -0.1252  0.2926 -0.3084
 8694TIP3    H126046   6.758   2.049   5.566 -0.1355  0.4403 -1.5194
 8694TIP3    H226047   6.658   2.101   5.667  1.6152  1.0086 -0.0408
 8695TIP3   OH226048   3.035   4.721   5.097 -0.1269  0.3283  0.0998
 8695TIP3    H126049   2.964   4.781   5.119 -0.0281  0.6517 -0.4614
 8695TIP3    H226050   3.019   4.644   5.152 -0.9294  0.3824 -0.0517
 8696TIP3   OH226051   1.692   6.726   1.245 -0.4273 -0.0292 -0.1186
 8696TIP3    H126052   1.603   6.729   1.280 -0.7551  1.1317 -0.9732
 8696TIP3    H226053   1.736   6.802   1.283  0.3633 -0.8621  0.6694
 8697TIP3   OH226054   4.121   3.563   5.828  0.2022 -0.3484 -0.9031
 8697TIP3    H126055   4.074   3.644   5.811  0.5554 -0.3282 -1.8738
 8697TIP3    H226056   4.056   3.494   5.814 -0.6733 -0.2183  1.9364
 8698TIP3   OH226057   5.450   6.358   1.135  0.4584  0.0299  0.3451
 8698TIP3    H126058   5.372   6.306   1.156  0.2126  0.7856  1.3673
 8698TIP3    H226059   5.469   6.335   1.044 -0.9156 -0.2409  0.0927
 8699TIP3   OH226060   5.755   2.315   5.446  0.0517 -0.0173 -0.3889
 8699TIP3    H126061   5.748   2.358   5.361  1.6215  1.7050  0.2900
 8699TIP3    H226062   5.745   2.221   5.426 -0.3442  0.3944 -2.3407
 8700TIP3   OH226063   1.449   4.889   2.568  0.8353 -0.2533 -0.7447
 8700TIP3    H126064   1.381   4.957   2.572  1.7440  0.7833 -2.1104
 8700TIP3    H226065   1.405   4.814   2.529 -0.0823 -0.3569  0.4156
 8701TIP3   OH226066   5.283   0.045   1.809 -0.0939 -0.1898  0.3412
 8701TIP3    H126067   5.251  -0.021   1.870 -1.3231  0.7506  0.7579
 8701TIP3    H226068   5.347   0.096   1.859 -1.2877  0.7412  0.9618
 8702TIP3   OH226069   0.348   4.524   5.470  0.0422  0.6987  0.0703
 8702TIP3    H126070   0.338   4.541   5.564  1.5430 -1.2915  0.6507
 8702TIP3    H226071   0.364   4.610   5.431  0.8289  1.3842  1.8347
 8703TIP3   OH226072   4.697   1.489   0.113  0.4195  0.4702  0.0018
 8703TIP3    H126073   4.609   1.520   0.133 -1.3811 -3.4422 -0.8599
 8703TIP3    H226074   4.742   1.489   0.197 -0.4051  2.4258  0.4915
 8704TIP3   OH226075   3.634   5.118   1.594  0.0788  0.3468  0.2872
 8704TIP3    H126076   3.607   5.115   1.686 -0.4571 -0.1753  0.1236
 8704TIP3    H226077   3.593   5.040   1.555  0.6247  0.3515 -0.3045
 8705TIP3   OH226078   6.701   1.800   1.453  0.1363  0.2955 -0.4899
 8705TIP3    H126079   6.726   1.801   1.360 -2.6242  1.2910 -1.3105
 8705TIP3    H226080   6.607   1.786   1.452 -0.2649  2.1506  2.1078
 8706TIP3   OH226081   1.528   1.464   5.776  0.5543 -0.2965 -0.5128
 8706TIP3    H126082   1.613   1.501   5.752 -0.0085  2.2446  0.9677
 8706TIP3    H226083   1.547   1.374   5.804  3.0887  0.7168  1.4123
 8707TIP3   OH226084   3.079   2.562   0.573  0.0900  0.3377  0.0946
 8707TIP3    H126085   3.100   2.577   0.665 -0.2570 -0.6437  0.3455
 8707TIP3    H226086   3.163   2.566   0.528  0.1136  2.1469  0.2485
 8708TIP3   OH226087   0.350   2.802   5.073  0.6795  0.4440 -0.3851
 8708TIP3    H126088   0.438   2.841   5.078  0.8932 -0.2009  1.6018
 8708TIP3    H226089   0.344   2.769   4.984  2.3174  0.8369 -0.6790
 8709TIP3   OH226090   1.430   5.603   0.530  0.0186  0.2358 -0.4376
 8709TIP3    H126091   1.450   5.517   0.567  1.5466  0.6972 -0.1464
 8709TIP3    H226092   1.433   5.663   0.604  1.3302  0.8909 -0.9891
 8710TIP3   OH226093   4.531   3.571   5.585 -0.1574 -0.3233  0.5118
 8710TIP3    H126094   4.538   3.543   5.676 -1.9308 -1.9997  0.1909
 8710TIP3    H226095   4.570   3.659   5.584  0.7407 -0.6331  2.6698
 8711TIP3   OH226096   0.577   6.375   5.490  0.5017  0.4038  0.2289
 8711TIP3    H126097   0.518   6.409   5.422 -0.2885 -0.3770  0.5019
 8711TIP3    H226098   0.658   6.424   5.477  0.2431  0.5519 -1.0254
 8712TIP3   OH226099   2.700   2.124   1.767 -0.4115  0.0690  0.6785
 8712TIP3    H126100   2.765   2.168   1.823 -0.6234 -0.5561  1.4288
 8712TIP3    H226101   2.685   2.186   1.695  0.6198  0.4495  0.7725
 8713TIP3   OH226102   2.581   3.906   5.606 -0.0840  0.3310  0.1525
 8713TIP3    H126103   2.642   3.875   5.539  0.0412  0.1838  0.3357
 8713TIP3    H226104   2.497   3.913   5.560 -0.5861 -2.2118  0.5661
 8714TIP3   OH226105   5.223   1.626   4.072  0.0464  0.4960 -0.2291
 8714TIP3    H126106   5.284   1.670   4.132  1.9064 -1.5502 -0.4951
 8714TIP3    H226107   5.154   1.691   4.057 -0.2912  1.3206  3.6703
 8715TIP3   OH226108   1.497   0.497   1.166  0.1409  0.3936  0.1437
 8715TIP3    H126109   1.547   0.505   1.085  3.4872  0.5460  2.0431
 8715TIP3    H226110   1.442   0.420   1.153 -0.3019  1.0569 -2.6197
 8716TIP3   OH226111   2.137   0.715   5.247  0.2393 -0.5751  0.5101
 8716TIP3    H126112   2.064   0.765   5.210  0.2928 -1.7803 -1.3843
 8716TIP3    H226113   2.209   0.778   5.251  0.9811 -0.7843 -3.9245
 8717TIP3   OH226114   1.693   2.546   1.529 -0.2381  0.2413 -0.4189
 8717TIP3    H126115   1.787   2.553   1.514 -0.2081 -1.6982 -1.4283
 8717TIP3    H226116   1.681   2.575   1.619  1.6939 -1.6717  0.5578
 8718TIP3   OH226117   6.868   6.103   3.130  0.5508 -0.1363  0.6420
 8718TIP3    H126118   6.838   6.188   3.160  2.3344  0.8365 -0.1712
 8718TIP3    H226119   6.937   6.078   3.191 -1.5851 -2.2893  2.4232
 8719TIP3   OH226120   3.128   5.592   4.769  0.5125  0.0577 -0.7236
 8719TIP3    H126121   3.126   5.571   4.862  0.2997  2.0429 -0.2351
 8719TIP3    H226122   3.044   5.562   4.735  0.7452 -1.0165 -0.3768
 8720TIP3   OH226123   2.951   2.413   0.887  0.1211  0.4442 -0.3347
 8720TIP3    H126124   2.993   2.376   0.809  2.1332 -0.8135  1.2316
 8720TIP3    H226125   2.941   2.506   0.867  2.4857  0.5499 -1.3827
 8721TIP3   OH226126   1.378   5.382   2.562  0.3585  0.5389 -0.0938
 8721TIP3    H126127   1.302   5.430   2.531 -1.2620 -2.9989 -2.2377
 8721TIP3    H226128   1.342   5.315   2.620  2.0484 -0.1746  0.2089
 8722TIP3   OH226129   4.654   0.751   0.089 -0.0703  0.4930  0.6120
 8722TIP3    H126130   4.631   0.759   0.181 -1.8733  2.8946  0.0595
 8722TIP3    H226131   4.693   0.836   0.067 -2.4885  1.2122 -1.4463
 8723TIP3   OH226132   6.001   6.113   3.948  0.3954  0.2573 -0.8301
 8723TIP3    H126133   5.995   6.024   3.981 -0.6702  1.0357  1.2733
 8723TIP3    H226134   5.947   6.113   3.868 -1.2961 -0.5275  0.2588
 8724TIP3   OH226135   3.771   3.163  -0.006  0.0041  0.0375 -0.7001
 8724TIP3    H126136   3.693   3.151   0.048  0.0654 -1.0576 -0.8333
 8724TIP3    H226137   3.770   3.255  -0.030 -1.2823  0.0256 -0.7365
 8725TIP3   OH226138   4.795   2.627   5.741  0.1253  0.0280 -0.8620
 8725TIP3    H126139   4.770   2.682   5.815  0.9862 -1.0118  0.2452
 8725TIP3    H226140   4.883   2.596   5.762  0.8403  0.5303 -2.8354
 8726TIP3   OH226141   4.819   4.892   5.356 -0.3853 -0.1802  0.0100
 8726TIP3    H126142   4.782   4.962   5.302 -0.5441  0.0580  0.4249
 8726TIP3    H226143   4.893   4.932   5.401  0.5058 -0.7060 -0.9550
 8727TIP3   OH226144   0.141   6.587   4.930  0.3086 -0.1029 -0.0966
 8727TIP3    H126145   0.205   6.530   4.972  1.5919  0.7550 -0.7950
 8727TIP3    H226146   0.193   6.637   4.867 -0.9578  1.0672 -0.2405
 8728TIP3   OH226147   2.823   3.054   0.951  0.9657  0.6493  0.1267
 8728TIP3    H126148   2.730   3.069   0.932  0.6275 -2.6272 -1.4996
 8728TIP3    H226149   2.867   3.065   0.866  1.5535 -0.8052  0.2074
 8729TIP3   OH226150   1.587   2.511   3.735 -0.5573 -0.3799 -0.1180
 8729TIP3    H126151   1.644   2.553   3.669  1.5332  0.9587  2.3622
 8729TIP3    H226152   1.640   2.508   3.814 -3.4991 -0.4086  2.0094
 8730TIP3   OH226153   1.782   3.573   1.789 -0.3021 -0.0908 -0.4254
 8730TIP3    H126154   1.824   3.526   1.862  2.3236  1.2708 -0.9195
 8730TIP3    H226155   1.720   3.510   1.753  0.7570 -2.0305  0.9036
 8731TIP3   OH226156   5.335   2.742   0.115 -0.4027 -0.2784  0.2979
 8731TIP3    H126157   5.337   2.733   0.210 -0.1953 -0.7791  0.2467
 8731TIP3    H226158   5.427   2.752   0.090 -0.4914  0.3747  0.1919
 8732TIP3   OH226159   0.582   5.641   0.349  0.1458  0.5768  0.0179
 8732TIP3    H126160   0.491   5.629   0.377  0.2692  0.8924  0.5839
 8732TIP3    H226161   0.633   5.591   0.413  0.3307 -0.1644 -0.7026
 8733TIP3   OH226162   3.147   4.714   4.652  0.0649  0.0011  0.4553
 8733TIP3    H126163   3.203   4.724   4.575  1.5309 -0.7239  1.3727
 8733TIP3    H226164   3.147   4.620   4.670 -2.4742 -0.1911 -0.2014
 8734TIP3   OH226165   4.158   3.689   1.463 -0.1757 -0.0551 -0.2163
 8734TIP3    H126166   4.090   3.688   1.396  1.1789 -0.3708 -1.6489
 8734TIP3    H226167   4.113   3.662   1.543 -2.0680  1.4013 -0.7266
 8735TIP3   OH226168   2.991   1.737   1.865 -0.6515 -0.4916 -0.4204
 8735TIP3    H126169   3.020   1.786   1.788  1.7965 -2.7913 -1.1249
 8735TIP3    H226170   2.982   1.803   1.933  1.7446  1.1020 -1.4958
 8736TIP3   OH226171   3.854   5.723   0.039 -0.2044 -0.1620  0.0760
 8736TIP3    H126172   3.777   5.667   0.039 -0.2236 -0.2203 -2.6013
 8736TIP3    H226173   3.917   5.676   0.095 -0.8019 -2.0119 -0.7391
 8737TIP3   OH226174   3.857   3.846   2.378  0.1834 -0.4046  0.0289
 8737TIP3    H126175   3.936   3.828   2.429 -0.3897 -0.7604  0.8232
 8737TIP3    H226176   3.885   3.906   2.309  0.6001  1.8726  2.0395
 8738TIP3   OH226177   4.783   0.403   1.248 -0.2122  0.5403 -0.1882
 8738TIP3    H126178   4.781   0.441   1.336 -2.8605  1.9538 -0.7718
 8738TIP3    H226179   4.803   0.310   1.262 -0.8471  0.6868  1.9187
 8739TIP3   OH226180   5.635   4.954   3.714  0.3050 -0.0792 -0.2261
 8739TIP3    H126181   5.567   4.888   3.725  0.0658  0.1788 -0.1335
 8739TIP3    H226182   5.587   5.036   3.701  0.5963  0.1290 -0.0152
 8740TIP3   OH226183   1.094   3.555   3.396  0.1892 -0.6587  0.7025
 8740TIP3    H126184   1.053   3.469   3.411  0.9042 -0.9410  1.0439
 8740TIP3    H226185   1.086   3.600   3.480  0.1449 -0.5284  0.6284
 8741TIP3   OH226186   2.540   6.338   0.632 -0.1066  0.0321  0.0838
 8741TIP3    H126187   2.469   6.363   0.572 -0.1361  0.3709  0.2561
 8741TIP3    H226188   2.549   6.414   0.690  2.6024  1.4349 -1.9583
 8742TIP3   OH226189   2.513   6.230   5.889  0.4254  0.1106  0.2696
 8742TIP3    H126190   2.550   6.286   5.956 -0.0458 -0.8828  1.3909
 8742TIP3    H226191   2.477   6.290   5.824  1.2259  1.0798  0.7083
 8743TIP3   OH226192   1.898   5.236   5.046 -0.3660 -0.2378 -0.3149
 8743TIP3    H126193   1.910   5.268   4.956 -0.6642 -0.5419 -0.4637
 8743TIP3    H226194   1.906   5.141   5.038  0.9040 -0.2020  0.1821
 8744TIP3   OH226195   1.464   6.712   3.744  0.6885 -0.0403 -0.2238
 8744TIP3    H126196   1.508   6.797   3.753 -0.3703  0.4945 -0.0035
 8744TIP3    H226197   1.375   6.734   3.717  0.1546 -1.0400  0.6850
 8745TIP3   OH226198   6.689   5.747   4.697 -0.3844  0.1975  0.2142
 8745TIP3    H126199   6.737   5.750   4.779 -0.3033  0.8030  0.1460
 8745TIP3    H226200   6.654   5.835   4.686 -0.3278  0.1421 -0.4450
 8746TIP3   OH226201   1.486   3.624   4.844 -0.4148  0.1289  0.0921
 8746TIP3    H126202   1.535   3.549   4.877  0.7278  0.3810 -0.9433
 8746TIP3    H226203   1.463   3.601   4.754 -1.2160  0.4785  0.2004
 8747TIP3   OH226204   2.937   0.269   2.184  0.6291 -0.1003  0.4741
 8747TIP3    H126205   2.849   0.293   2.211  0.0001 -1.0643 -0.6226
 8747TIP3    H226206   2.940   0.173   2.192  0.2171 -0.5571 -3.0792
 8748TIP3   OH226207   1.482   5.494   5.310 -0.8672 -0.0315 -0.0894
 8748TIP3    H126208   1.389   5.512   5.295 -0.7844 -0.0883 -0.6717
 8748TIP3    H226209   1.482   5.427   5.378 -1.2828 -0.7067 -0.7407
 8749TIP3   OH226210   4.082   2.121   5.861  0.4776 -0.5633 -0.4944
 8749TIP3    H126211   4.016   2.061   5.828 -0.2956 -0.5074  0.8511
 8749TIP3    H226212   4.143   2.065   5.910 -0.7631 -0.2302  1.5700
 8750TIP3   OH226213   4.895   1.820   1.015  0.6057 -0.1307  0.1850
 8750TIP3    H126214   4.877   1.859   0.929  0.2813  1.2184  0.8379
 8750TIP3    H226215   4.990   1.821   1.023  0.5941  1.1543  0.4373
 8751TIP3   OH226216   5.148   6.297   0.607 -0.9292  0.6088 -0.0721
 8751TIP3    H126217   5.137   6.391   0.590 -1.1252  0.0737 -3.6846
 8751TIP3    H226218   5.098   6.255   0.537 -0.9267 -2.2419  1.5107
 8752TIP3   OH226219   1.029   0.364   5.024 -0.7810 -0.3696  0.5722
 8752TIP3    H126220   1.100   0.390   5.083 -1.4345  1.5912  0.5572
 8752TIP3    H226221   1.035   0.268   5.021  2.1443 -0.2645  0.2054
 8753TIP3   OH226222   0.035   2.001   3.783  0.3488  0.3402 -0.7745
 8753TIP3    H126223  -0.022   1.999   3.860  0.3092  0.2432 -0.8057
 8753TIP3    H226224   0.095   1.927   3.795 -2.0334 -2.1349 -2.6210
 8754TIP3   OH226225   3.000   0.161   3.249  0.8526 -1.2903  0.3730
 8754TIP3    H126226   2.912   0.159   3.212  0.7473 -2.1197  0.6424
 8754TIP3    H226227   3.054   0.111   3.187  1.6029  0.9480 -0.8834
 8755TIP3   OH226228   2.299   4.788   2.631 -0.1552  0.1546  0.3571
 8755TIP3    H126229   2.272   4.873   2.597 -2.7697 -0.5623  0.4727
 8755TIP3    H226230   2.218   4.747   2.661  1.0767 -2.2468  0.6292
 8756TIP3   OH226231   6.777   5.485   4.814 -0.0606 -0.0226 -0.3348
 8756TIP3    H126232   6.771   5.575   4.844 -0.8536 -0.0016 -0.5459
 8756TIP3    H226233   6.770   5.491   4.718  0.3169 -0.2733 -0.3820
 8757TIP3   OH226234   4.594   4.388   5.257 -0.6063  0.1210  0.0155
 8757TIP3    H126235   4.640   4.376   5.340 -0.9321  0.4298  0.2410
 8757TIP3    H226236   4.653   4.443   5.205  0.8403 -2.2079 -0.9788
 8758TIP3   OH226237   2.083   0.932   2.157  0.2743 -0.3534 -0.5213
 8758TIP3    H126238   2.114   1.014   2.118  1.4638  0.0318  1.1022
 8758TIP3    H226239   2.017   0.961   2.221  0.3392 -0.7163 -0.2911
 8759TIP3   OH226240   0.796   0.560   1.201 -0.2727 -0.0971 -0.3460
 8759TIP3    H126241   0.795   0.618   1.278 -3.2572 -1.2304  0.6249
 8759TIP3    H226242   0.836   0.479   1.233 -0.1022 -0.0535 -0.4471
 8760TIP3   OH226243   2.963   4.706   1.745  0.0680 -0.0075 -0.3225
 8760TIP3    H126244   2.904   4.738   1.813 -0.0890  1.0797 -0.9509
 8760TIP3    H226245   2.904   4.673   1.676  0.1898  0.4963 -0.6742
 8761TIP3   OH226246   4.205   2.381   1.311 -0.2981  0.0521  0.0248
 8761TIP3    H126247   4.246   2.325   1.245 -0.6451  0.3887 -0.4844
 8761TIP3    H226248   4.261   2.372   1.389  0.5768  0.2826 -0.5644
 8762TIP3   OH226249   3.448   6.363   5.418 -0.6149 -0.1498 -0.2453
 8762TIP3    H126250   3.452   6.365   5.322  0.1654  3.5247 -0.3056
 8762TIP3    H226251   3.361   6.399   5.438  0.2487  1.8024  0.2931
 8763TIP3   OH226252   6.219   3.587   3.870 -0.2660 -0.0614 -0.2892
 8763TIP3    H126253   6.306   3.589   3.910  0.0278  0.3502 -0.9446
 8763TIP3    H226254   6.215   3.502   3.826 -0.0882  0.0305 -0.4871
 8764TIP3   OH226255   2.668   0.863   2.841 -0.0814 -0.1090 -0.2738
 8764TIP3    H126256   2.675   0.899   2.929 -1.5447 -0.4576  0.0044
 8764TIP3    H226257   2.590   0.905   2.804 -0.5611 -1.3573 -0.7190
 8765TIP3   OH226258   3.197   5.327   0.551  0.2295 -0.5037 -0.2401
 8765TIP3    H126259   3.110   5.366   0.554 -0.0948 -1.2200  0.0708
 8765TIP3    H226260   3.257   5.401   0.544 -0.2312  0.2120  2.4212
 8766TIP3   OH226261   1.455   0.222   0.170 -0.9921  0.2951  0.0272
 8766TIP3    H126262   1.484   0.308   0.139  0.0079 -0.3059 -0.8050
 8766TIP3    H226263   1.495   0.214   0.257 -0.2253  0.2603 -0.3200
 8767TIP3   OH226264   4.276   1.950   0.919 -0.3152 -0.7597 -0.2040
 8767TIP3    H126265   4.354   1.941   0.864  0.5086  1.6983  0.4154
 8767TIP3    H226266   4.203   1.931   0.860  0.6601 -1.0996 -1.3500
 8768TIP3   OH226267   2.743   2.250   4.330 -0.4512 -0.2722 -0.1810
 8768TIP3    H126268   2.738   2.213   4.242 -0.2290  0.5322 -0.5402
 8768TIP3    H226269   2.689   2.192   4.383  1.5690 -2.3990 -0.2639
 8769TIP3   OH226270   5.244   6.601   5.484  0.1627 -0.7976 -0.6552
 8769TIP3    H126271   5.265   6.591   5.391  0.9461 -2.7767 -0.3178
 8769TIP3    H226272   5.288   6.527   5.526 -1.7155 -1.0204  1.0468
 8770TIP3   OH226273   3.576   1.810   0.206 -0.2694  0.5614 -0.3891
 8770TIP3    H126274   3.575   1.793   0.300 -0.1226  1.0255 -0.2980
 8770TIP3    H226275   3.654   1.765   0.174 -1.2333 -1.0257 -0.5824
 8771TIP3   OH226276   2.889   4.904   0.100 -0.0495 -0.3191 -0.1724
 8771TIP3    H126277   2.930   4.938   0.180 -1.7465 -1.2008  1.1387
 8771TIP3    H226278   2.944   4.831   0.073 -0.3216 -1.0132  1.1155
 8772TIP3   OH226279   7.086   6.713   1.227 -0.3628  0.3570  0.2422
 8772TIP3    H126280   7.141   6.778   1.271 -1.6912  2.0794 -0.5205
 8772TIP3    H226281   7.109   6.721   1.135 -0.2476 -0.5656  0.1865
 8773TIP3   OH226282   0.686   5.396   3.355  0.2504 -0.5353 -0.1733
 8773TIP3    H126283   0.612   5.344   3.387  0.2705 -0.8926 -0.6968
 8773TIP3    H226284   0.656   5.433   3.273  0.6684 -0.7191 -0.4140
 8774TIP3   OH226285   1.707   4.484   3.186 -0.3734  0.3043  0.4186
 8774TIP3    H126286   1.715   4.427   3.263 -0.3820  0.4008  0.4912
 8774TIP3    H226287   1.798   4.504   3.162 -0.3737  0.4654  0.5468
 8775TIP3   OH226288   6.186   1.352   1.617  0.3064 -0.0271 -0.7544
 8775TIP3    H126289   6.188   1.333   1.711 -0.8371 -1.2304 -0.9416
 8775TIP3    H226290   6.249   1.291   1.579  0.1273 -0.1461 -0.8599
 8776TIP3   OH226291   1.584   4.189   0.349 -0.0038  0.4283 -0.1165
 8776TIP3    H126292   1.526   4.168   0.422 -0.9674  0.8223 -0.7537
 8776TIP3    H226293   1.672   4.172   0.383 -0.5119 -0.7887  0.6660
 8777TIP3   OH226294   2.659   2.904   0.186 -0.2431  0.2249  0.2844
 8777TIP3    H126295   2.708   2.904   0.104 -3.2165 -2.6716 -1.7478
 8777TIP3    H226296   2.576   2.946   0.164 -1.0836 -0.5087  1.8702
 8778TIP3   OH226297   5.268   6.716   0.695 -0.3535 -0.0977  0.2511
 8778TIP3    H126298   5.349   6.731   0.744 -0.7282 -1.9058  1.5538
 8778TIP3    H226299   5.296   6.669   0.617 -0.0160  0.4038  0.0695
 8779TIP3   OH226300   1.868   0.175   4.328 -0.2035 -0.0180 -0.1790
 8779TIP3    H126301   1.898   0.098   4.377 -0.0206  0.7657  0.9747
 8779TIP3    H226302   1.861   0.144   4.238  2.2647 -0.7661 -0.1976
 8780TIP3   OH226303   1.622   0.141   0.380  0.3667  0.6779 -0.1171
 8780TIP3    H126304   1.695   0.196   0.408 -0.2437  0.8765  1.1543
 8780TIP3    H226305   1.643   0.054   0.412 -0.4470  0.9537  1.2700
 8781TIP3   OH226306   0.904   5.527   0.363  0.4230 -0.1314 -0.0380
 8781TIP3    H126307   0.898   5.478   0.280 -0.8612  0.1685 -0.1490
 8781TIP3    H226308   0.996   5.548   0.372  0.6025 -0.2858 -1.3358
 8782TIP3   OH226309   1.616   4.654   0.322 -0.2642 -0.4040  0.2121
 8782TIP3    H126310   1.667   4.730   0.292  0.8770 -1.4214 -0.4939
 8782TIP3    H226311   1.576   4.683   0.404 -0.4753  1.2098 -0.4141
 8783TIP3   OH226312   5.907   6.443   1.609  0.1361 -0.2802  0.1807
 8783TIP3    H126313   5.940   6.377   1.670  0.6545  0.8075  1.1174
 8783TIP3    H226314   5.811   6.439   1.620  0.1923 -0.5050  0.6270
 8784TIP3   OH226315   4.848   2.198   0.596  0.0225  0.4949 -0.2827
 8784TIP3    H126316   4.847   2.111   0.637 -0.7352  0.8858  0.5686
 8784TIP3    H226317   4.931   2.201   0.548 -0.2905 -0.9854 -0.9808
 8785TIP3   OH226318   2.098   5.558   4.457 -0.1758  0.2714 -0.2127
 8785TIP3    H126319   2.034   5.487   4.451 -1.0033  1.1160 -2.3126
 8785TIP3    H226320   2.112   5.570   4.551 -3.5962  0.4545  0.3875
 8786TIP3   OH226321   4.153   5.899   3.666 -0.2780  0.0479  0.2401
 8786TIP3    H126322   4.103   5.827   3.627 -0.6054  0.7894 -0.7290
 8786TIP3    H226323   4.245   5.876   3.649 -0.3523 -0.4312  0.4599
 8787TIP3   OH226324   0.101   4.575   1.955  0.4547 -0.1881 -0.0190
 8787TIP3    H126325   0.107   4.667   1.928 -0.2356 -0.7650 -2.3960
 8787TIP3    H226326   0.153   4.528   1.890  0.6981 -1.5135  1.1030
 8788TIP3   OH226327   0.087   3.051   2.707 -0.3460 -0.4650 -0.2458
 8788TIP3    H126328   0.087   2.976   2.766 -1.2511 -0.6483 -0.4681
 8788TIP3    H226329   0.035   3.117   2.753 -0.6094 -0.4226 -0.6018
 8789TIP3   OH226330   2.608   6.525   2.380 -0.1741  0.1488 -0.2382
 8789TIP3    H126331   2.582   6.605   2.425  0.8041 -0.7365  1.9986
 8789TIP3    H226332   2.697   6.508   2.410 -1.2047 -3.0965  1.3946
 8790TIP3   OH226333   5.728   4.845   4.365 -0.3856 -0.5916  0.3071
 8790TIP3    H126334   5.764   4.919   4.414  2.0994 -1.6567  0.2652
 8790TIP3    H226335   5.638   4.871   4.344  0.0857  1.9832  1.1038
 8791TIP3   OH226336   5.253   0.600   1.329  0.1992 -0.0282 -0.2975
 8791TIP3    H126337   5.312   0.675   1.320  1.2484 -0.8258 -0.2746
 8791TIP3    H226338   5.232   0.597   1.422 -1.7061  1.5682 -0.5932
 8792TIP3   OH226339   6.869   1.521   2.917  0.2320  0.0438  0.2134
 8792TIP3    H126340   6.877   1.536   2.823  1.0873 -0.1841  0.2400
 8792TIP3    H226341   6.810   1.589   2.948 -1.2054 -0.7388 -0.7055
 8793TIP3   OH226342   1.573   4.278   3.941 -0.0064  0.0482 -0.0198
 8793TIP3    H126343   1.596   4.344   4.008  0.6467  0.3439 -0.5315
 8793TIP3    H226344   1.483   4.299   3.918 -0.3101 -0.1802  0.9125
 8794TIP3   OH226345   2.752   6.264   0.479 -0.1778  0.1601  0.2694
 8794TIP3    H126346   2.710   6.281   0.563 -0.0909  0.2898  0.2876
 8794TIP3    H226347   2.723   6.336   0.423 -0.6037 -0.1755  0.0508
 8795TIP3   OH226348   5.892   5.191   4.108 -0.1031  0.0760  0.0459
 8795TIP3    H126349   5.796   5.191   4.104 -0.1603  1.8175  0.4534
 8795TIP3    H226350   5.919   5.131   4.039 -1.4931 -1.8702  1.1008
 8796TIP3   OH226351   3.722   5.551   4.576  0.0787 -0.2234  0.1844
 8796TIP3    H126352   3.693   5.629   4.528  2.1601  0.3916 -0.1532
 8796TIP3    H226353   3.787   5.583   4.638  0.3038 -1.5747  0.6818
 8797TIP3   OH226354   5.563   2.646   5.497 -0.0871 -0.5724  0.0370
 8797TIP3    H126355   5.609   2.663   5.414  0.9571  0.0453  0.7231
 8797TIP3    H226356   5.557   2.732   5.539  1.5626 -1.1849  1.6832
 8798TIP3   OH226357   4.376   4.880   4.938 -0.0180  0.2098 -0.0689
 8798TIP3    H126358   4.299   4.930   4.909  0.4565 -0.0485 -1.9438
 8798TIP3    H226359   4.342   4.820   5.004 -1.3273  0.5249 -0.4248
 8799TIP3   OH226360   1.640   5.669   0.777  0.9339 -0.2965 -0.4835
 8799TIP3    H126361   1.650   5.745   0.834  0.3307 -0.6637  0.1408
 8799TIP3    H226362   1.661   5.701   0.689  0.0775  0.7516 -0.3300
 8800TIP3   OH226363   5.799   4.920   3.107 -0.2050 -0.3356 -0.7369
 8800TIP3    H126364   5.855   4.871   3.046  1.6846  1.3925 -0.4689
 8800TIP3    H226365   5.750   4.852   3.153  1.9926 -1.9999 -0.6815
 8801TIP3   OH226366   0.294   5.634   1.256 -0.4642 -0.7803  0.0092
 8801TIP3    H126367   0.340   5.589   1.185 -0.9077 -1.5062  0.1791
 8801TIP3    H226368   0.362   5.650   1.322  0.7232  2.7141 -1.8024
 8802TIP3   OH226369   6.426   4.994   2.441 -0.2410  0.0632 -0.1286
 8802TIP3    H126370   6.480   5.004   2.363  0.2348  0.6349  0.2697
 8802TIP3    H226371   6.487   5.004   2.514 -0.5478 -1.1976  0.3233
 8803TIP3   OH226372   4.832   5.238   1.295 -0.2685  0.0609  0.6807
 8803TIP3    H126373   4.845   5.146   1.272 -1.1252  0.2488 -0.6780
 8803TIP3    H226374   4.808   5.236   1.387 -2.3685 -1.3135  0.1940
 8804TIP3   OH226375   2.889   5.453   1.714  0.1662  0.1651  0.7149
 8804TIP3    H126376   2.968   5.404   1.739 -0.5797 -1.5130 -0.1353
 8804TIP3    H226377   2.893   5.459   1.619  0.2896  1.9061  0.7939
 8805TIP3   OH226378   3.420   3.615   1.557 -0.1295  0.2954  0.0582
 8805TIP3    H126379   3.491   3.558   1.587 -0.8074 -0.2111  0.7220
 8805TIP3    H226380   3.461   3.702   1.551  0.6383 -0.0560  0.0771
 8806TIP3   OH226381   6.940   5.108   0.161  0.4375 -0.2400 -0.0221
 8806TIP3    H126382   6.880   5.036   0.181 -1.0907  1.0236  0.0966
 8806TIP3    H226383   6.908   5.181   0.214  0.8817  1.0294 -1.4246
 8807TIP3   OH226384   1.846   2.380   3.461  0.3362 -0.9743  0.0517
 8807TIP3    H126385   1.854   2.325   3.383  1.1673  0.6368 -1.0490
 8807TIP3    H226386   1.871   2.323   3.533  1.0351 -2.0857 -1.0273
 8808TIP3   OH226387   6.099   4.282   5.747  0.3603 -0.2796  0.1573
 8808TIP3    H126388   6.081   4.251   5.836  0.4678 -0.8542 -0.0114
 8808TIP3    H226389   6.182   4.329   5.754 -0.7696  1.7098  0.7961
 8809TIP3   OH226390   5.526   3.719   2.614  0.0459 -0.0663 -0.6030
 8809TIP3    H126391   5.482   3.747   2.695  0.6100 -0.9421  0.0256
 8809TIP3    H226392   5.456   3.715   2.549 -0.5738 -0.1742  0.0543
 8810TIP3   OH226393   1.950   5.727   0.196  0.6200  0.0792 -0.7554
 8810TIP3    H126394   2.022   5.783   0.225  0.2827  0.0838  0.0985
 8810TIP3    H226395   1.975   5.639   0.224  1.1801 -0.2393 -2.1491
 8811TIP3   OH226396   0.648   2.511   4.255  0.4981 -0.2668  0.3467
 8811TIP3    H126397   0.682   2.431   4.295  0.6906 -0.0609  0.6062
 8811TIP3    H226398   0.710   2.579   4.283 -0.4249  0.2165  1.2966
 8812TIP3   OH226399   1.725   1.044   2.992 -0.1727 -0.0752  0.0474
 8812TIP3    H126400   1.663   1.095   3.043 -0.4824 -0.7918  0.4038
 8812TIP3    H226401   1.774   1.109   2.941  0.1525  0.6580  1.2562
 8813TIP3   OH226402   0.817   4.569   3.354  0.0010  0.5728  0.2446
 8813TIP3    H126403   0.731   4.583   3.316 -0.9104 -0.5121  1.7698
 8813TIP3    H226404   0.845   4.484   3.320  1.2120  1.5930 -1.4585
 8814TIP3   OH226405   1.350   2.458   5.513 -0.0038 -0.2520  0.2249
 8814TIP3    H126406   1.288   2.388   5.535  1.8428 -2.1513 -0.2294
 8814TIP3    H226407   1.435   2.425   5.543  1.0454  1.5317 -0.6031
 8815TIP3   OH226408   4.043   2.037   5.251 -0.3386 -0.0461 -0.4487
 8815TIP3    H126409   4.056   2.038   5.346  0.8380 -1.5295 -0.5484
 8815TIP3    H226410   3.984   1.963   5.236  2.1738 -2.0405 -1.0846
 8816TIP3   OH226411   3.231   4.099   0.173 -0.2860  0.2110  0.5727
 8816TIP3    H126412   3.184   4.077   0.254 -1.0240  0.3671  0.1971
 8816TIP3    H226413   3.278   4.019   0.149 -0.1850  0.1180  1.0713
 8817TIP3   OH226414   4.229   4.926   2.044 -0.6445  0.5922  0.6136
 8817TIP3    H126415   4.152   4.982   2.036 -1.9794 -1.3465 -0.8504
 8817TIP3    H226416   4.251   4.902   1.954 -0.3052 -1.4118  1.1753
 8818TIP3   OH226417   0.818   6.258   3.694 -0.2262  0.4665  0.3020
 8818TIP3    H126418   0.869   6.179   3.715  1.3548 -0.0089 -4.1552
 8818TIP3    H226419   0.837   6.318   3.766  3.3772 -1.1735  0.9827
 8819TIP3   OH226420   6.910   1.173   3.249 -1.1879  0.1328 -0.2715
 8819TIP3    H126421   6.997   1.139   3.268 -1.4570 -0.7833 -0.5980
 8819TIP3    H226422   6.919   1.223   3.168 -1.1063 -0.5914 -0.7146
 8820TIP3   OH226423   3.896   4.355   3.412 -0.1303  0.3454  0.6469
 8820TIP3    H126424   3.961   4.408   3.367  0.9022 -0.3651  1.2759
 8820TIP3    H226425   3.818   4.362   3.357  1.0048 -0.2818 -1.1290
 8821TIP3   OH226426   5.691   1.139   1.855 -0.3555  0.2179 -0.1041
 8821TIP3    H126427   5.697   1.233   1.835 -0.5257  0.0429 -1.0645
 8821TIP3    H226428   5.673   1.135   1.948  2.9670  1.0659  0.7327
 8822TIP3   OH226429   6.359   6.401   0.705  0.5452 -0.0079 -0.2997
 8822TIP3    H126430   6.316   6.345   0.640  0.6259 -0.2264 -0.1682
 8822TIP3    H226431   6.304   6.479   0.711  0.1233 -0.3199 -0.0735
 8823TIP3   OH226432   4.519   0.154   4.215  0.0098  0.6967 -0.5237
 8823TIP3    H126433   4.588   0.188   4.272  0.3761  0.3724 -0.7661
 8823TIP3    H226434   4.474   0.089   4.269 -0.1804  0.9855 -0.3293
 8824TIP3   OH226435   2.247   5.492   5.259 -0.0486  0.2399  0.0461
 8824TIP3    H126436   2.175   5.452   5.307  0.0767 -0.1318 -0.0766
 8824TIP3    H226437   2.325   5.444   5.286 -0.1603 -0.9503 -1.5827
 8825TIP3   OH226438   1.951   5.241   4.778 -0.0278  0.5236 -0.3165
 8825TIP3    H126439   1.983   5.156   4.749 -0.7190  0.0795  0.1824
 8825TIP3    H226440   1.862   5.246   4.743 -1.0641 -0.2341  2.0330
 8826TIP3   OH226441   1.069   6.125   2.326 -0.1324 -0.3174 -0.3740
 8826TIP3    H126442   0.998   6.088   2.378 -1.2371  0.4883 -1.2554
 8826TIP3    H226443   1.083   6.062   2.256 -0.0820 -0.3950 -0.2949
 8827TIP3   OH226444   0.116   2.146   3.446 -1.0790 -0.6950 -0.2568
 8827TIP3    H126445   0.143   2.153   3.355 -0.2068 -2.1911 -0.1293
 8827TIP3    H226446   0.167   2.214   3.492 -2.7967  1.2872 -1.0877
 8828TIP3   OH226447   3.246   5.438   2.153  0.0227 -0.0911 -0.2550
 8828TIP3    H126448   3.230   5.515   2.099  2.5444 -0.6274 -1.9441
 8828TIP3    H226449   3.162   5.418   2.193 -0.4837  4.3720  1.4988
 8829TIP3   OH226450   3.884   1.683   3.481  0.7161 -0.1317  0.3031
 8829TIP3    H126451   3.841   1.681   3.566 -0.0646  1.4173 -0.0259
 8829TIP3    H226452   3.828   1.737   3.426  1.8745 -0.0198 -0.8369
 8830TIP3   OH226453   0.338   0.865   3.439  0.1395 -0.5324  0.6563
 8830TIP3    H126454   0.427   0.862   3.404  0.0970  1.2866  0.3034
 8830TIP3    H226455   0.339   0.940   3.499 -0.7067 -1.5384  1.9849
 8831TIP3   OH226456   3.534   0.586   0.713 -0.3533  0.5867  0.6499
 8831TIP3    H126457   3.577   0.506   0.744 -1.2001  0.0165  0.3706
 8831TIP3    H226458   3.541   0.582   0.618 -1.7175  0.0601  0.5403
 8832TIP3   OH226459   0.975   5.191   3.532 -0.3230  0.5452  0.3483
 8832TIP3    H126460   0.880   5.195   3.540 -0.5438 -1.1414 -0.8742
 8832TIP3    H226461   0.994   5.229   3.446 -0.1056 -0.7957 -0.2238
 8833TIP3   OH226462   5.313   2.132   5.235 -0.0728 -0.3998  0.1809
 8833TIP3    H126463   5.265   2.059   5.275  0.9420 -0.3666  1.5318
 8833TIP3    H226464   5.365   2.169   5.307  1.2727  0.1383 -1.0128
 8834TIP3   OH226465   7.159   5.513   3.423 -0.5154 -0.0568  0.5077
 8834TIP3    H126466   7.186   5.580   3.361  1.0578 -1.3225 -0.2529
 8834TIP3    H226467   7.199   5.539   3.506  0.9104 -0.5144 -0.0068
 8835TIP3   OH226468   3.270   3.953   4.372  0.0330  0.6353  0.3066
 8835TIP3    H126469   3.355   3.971   4.413  0.8439 -0.5705 -0.7635
 8835TIP3    H226470   3.233   3.882   4.425  0.0368  0.6553  0.3358
 8836TIP3   OH226471   3.548   3.412   4.759  0.5834  0.3192 -0.0114
 8836TIP3    H126472   3.571   3.465   4.682  2.3322  0.4196  0.5407
 8836TIP3    H226473   3.576   3.324   4.736 -0.7476 -0.0731 -0.2441
 8837TIP3   OH226474   6.130   3.008   2.992  0.3417 -0.2813 -0.4989
 8837TIP3    H126475   6.040   2.979   2.983 -0.5464  1.5684  1.4415
 8837TIP3    H226476   6.173   2.938   3.042  0.2393 -1.5196 -2.0819
 8838TIP3   OH226477   2.860   1.625   4.089 -0.4260  0.1647 -0.3646
 8838TIP3    H126478   2.831   1.710   4.121 -0.5396 -0.2522  0.7027
 8838TIP3    H226479   2.863   1.634   3.994  1.1553  1.8746 -0.2159
 8839TIP3   OH226480   3.391   4.180   4.183 -0.1863 -0.4404  0.5287
 8839TIP3    H126481   3.355   4.141   4.262 -0.2622 -0.2541  0.5861
 8839TIP3    H226482   3.475   4.217   4.211  1.0714 -2.6525 -0.0235
 8840TIP3   OH226483   5.504   1.282   3.284  0.1418 -0.1983 -0.2135
 8840TIP3    H126484   5.594   1.264   3.311 -0.2273 -0.7224  0.7194
 8840TIP3    H226485   5.477   1.355   3.340  0.1640  0.3383 -0.8903
 8841TIP3   OH226486   0.807   4.046   4.773  0.1272  0.4547  0.3444
 8841TIP3    H126487   0.832   4.006   4.690  0.7902  0.3860  0.5643
 8841TIP3    H226488   0.891   4.071   4.813 -0.1797  0.4337  1.0097
 8842TIP3   OH226489   0.761   1.878   0.417 -0.2446 -0.3755  0.2246
 8842TIP3    H126490   0.692   1.944   0.406 -0.7930 -0.8068  1.0084
 8842TIP3    H226491   0.715   1.795   0.418 -0.0009 -0.5625  2.8770
 8843TIP3   OH226492   2.862   3.277   2.126  0.2747 -0.0504 -0.4984
 8843TIP3    H126493   2.955   3.289   2.106  0.0823  0.8819 -0.8857
 8843TIP3    H226494   2.849   3.182   2.125  0.4635 -0.1731 -4.1478
 8844TIP3   OH226495   0.176   1.476   3.012  0.1029  0.1470  0.3844
 8844TIP3    H126496   0.153   1.420   3.086 -1.0916  0.0214 -0.0542
 8844TIP3    H226497   0.221   1.551   3.052 -1.1806  0.4469  1.3488
 8845TIP3   OH226498   4.066   4.425   5.588  0.5043  0.0603 -0.6840
 8845TIP3    H126499   4.052   4.483   5.513 -0.0167 -0.4803 -1.0143
 8845TIP3    H226500   4.037   4.339   5.558 -1.0355  0.0854  0.5792
 8846TIP3   OH226501   1.618   5.437   5.000 -0.7566  0.1157  0.3159
 8846TIP3    H126502   1.524   5.452   5.001 -0.5579  1.4781  0.2128
 8846TIP3    H226503   1.628   5.346   4.972 -2.0947 -0.7040  2.3483
 8847TIP3   OH226504   0.361   1.810   4.269 -0.3841  0.8616 -0.4042
 8847TIP3    H126505   0.363   1.905   4.281  1.9181  0.8324 -0.0252
 8847TIP3    H226506   0.329   1.776   4.353 -1.0648  1.2816 -0.4858
 8848TIP3   OH226507   4.611   4.752   2.942  0.2359  0.1248  0.3022
 8848TIP3    H126508   4.561   4.748   3.023  1.6314 -1.4598  1.1462
 8848TIP3    H226509   4.590   4.838   2.906 -1.3119  0.4073  1.7367
 8849TIP3   OH226510   0.151   4.750   1.026 -0.2953 -0.0205 -0.6946
 8849TIP3    H126511   0.084   4.693   0.988 -0.5437  0.7336 -1.4228
 8849TIP3    H226512   0.170   4.813   0.957  0.4710  0.3621 -0.1448
 8850TIP3   OH226513   4.085   0.329   1.964 -0.1507 -0.2161  0.2475
 8850TIP3    H126514   4.045   0.364   2.044  0.2095  3.6427 -1.0938
 8850TIP3    H226515   4.178   0.325   1.984 -0.2350 -0.9304  0.5393
 8851TIP3   OH226516   6.096   3.963   2.700  0.2239  0.0010 -0.5470
 8851TIP3    H126517   6.084   4.055   2.724  0.2020  0.2646 -1.5153
 8851TIP3    H226518   6.188   3.945   2.723 -0.0799 -0.0771  0.6819
 8852TIP3   OH226519   5.233   4.577   5.526 -0.5154 -0.2853 -0.2828
 8852TIP3    H126520   5.316   4.625   5.527 -0.9166  0.4380 -0.6518
 8852TIP3    H226521   5.221   4.551   5.435 -0.2532 -1.1889 -0.0655
 8853TIP3   OH226522   0.857   2.357   1.219 -0.0890 -0.0144 -0.6829
 8853TIP3    H126523   0.819   2.380   1.303 -1.0977 -2.3755 -0.4102
 8853TIP3    H226524   0.916   2.284   1.238  0.6232  0.2288 -1.8499
 8854TIP3   OH226525   2.213   5.646   4.727 -0.7745  0.6492 -0.0788
 8854TIP3    H126526   2.221   5.554   4.752 -1.3878  0.4385 -0.6283
 8854TIP3    H226527   2.299   5.684   4.746 -0.9202  0.2937  1.4410
 8855TIP3   OH226528   6.548   3.325   3.422 -0.2708 -0.2358  0.0498
 8855TIP3    H126529   6.552   3.269   3.500  0.0372 -0.1790  0.0767
 8855TIP3    H226530   6.637   3.359   3.413 -0.0043 -1.1650 -1.0188
 8856TIP3   OH226531   2.185   3.085   2.413  0.3969  0.8715  0.3286
 8856TIP3    H126532   2.246   3.155   2.390  0.9752  0.6201  1.0531
 8856TIP3    H226533   2.174   3.093   2.507  0.8335 -0.2887  0.4960
 8857TIP3   OH226534   6.360   5.430   5.080 -0.1678 -0.3997  0.1615
 8857TIP3    H126535   6.335   5.416   5.171 -0.3473  0.0358  0.1819
 8857TIP3    H226536   6.406   5.514   5.082  2.0173 -1.5210  0.2769
 8858TIP3   OH226537   7.137   3.987   2.102 -0.3863 -0.4077 -0.3721
 8858TIP3    H126538   7.180   4.067   2.072 -0.3345  0.3147  1.4660
 8858TIP3    H226539   7.209   3.934   2.136 -0.4059 -1.3181 -1.6970
 8859TIP3   OH226540   3.383   0.528   3.810 -0.2274 -0.2448 -0.6270
 8859TIP3    H126541   3.312   0.491   3.863 -0.0265  0.7054  0.3358
 8859TIP3    H226542   3.344   0.541   3.724 -2.0322  2.4807  0.4519
 8860TIP3   OH226543   2.354   4.673   3.567 -0.8355  0.0694 -0.2781
 8860TIP3    H126544   2.435   4.725   3.568 -0.9545  0.2563  0.7992
 8860TIP3    H226545   2.383   4.584   3.548 -0.6493  0.5204 -2.3658
 8861TIP3   OH226546   4.883   0.501   5.333 -0.0166 -0.3734  0.1334
 8861TIP3    H126547   4.801   0.474   5.292  0.4013  0.9449 -1.7322
 8861TIP3    H226548   4.904   0.431   5.395 -1.7567 -1.4651 -0.4447
 8862TIP3   OH226549   7.073   2.585   2.903 -0.5167 -0.1221  0.0291
 8862TIP3    H126550   7.110   2.500   2.924  1.2654  0.5562 -0.2341
 8862TIP3    H226551   6.998   2.593   2.963  0.1196 -1.2765  1.0292
 8863TIP3   OH226552   6.751   0.803   4.264 -0.1175 -1.0072  0.5903
 8863TIP3    H126553   6.700   0.879   4.236  0.1316 -0.4845  1.5338
 8863TIP3    H226554   6.815   0.838   4.326  0.2499 -1.9294  0.7448
 8864TIP3   OH226555   5.327   4.846   3.138  0.1513 -0.3121 -0.0855
 8864TIP3    H126556   5.242   4.855   3.181 -0.1812  0.9583 -0.9718
 8864TIP3    H226557   5.372   4.928   3.157  0.4588 -0.2253 -1.1457
 8865TIP3   OH226558   0.849   4.521   5.621  0.5716  0.0862  0.2563
 8865TIP3    H126559   0.875   4.497   5.532  0.7368  2.2571 -0.3474
 8865TIP3    H226560   0.886   4.452   5.676  2.2001 -0.2481 -1.1686
 8866TIP3   OH226561   6.339   2.695   5.848 -0.0766  0.0758  0.1050
 8866TIP3    H126562   6.339   2.662   5.758  3.6155 -0.2140  0.0536
 8866TIP3    H226563   6.247   2.690   5.875 -1.0621 -1.5454 -2.9958
 8867TIP3   OH226564   2.389   4.469   0.401 -0.2709 -0.1095  0.5153
 8867TIP3    H126565   2.445   4.419   0.460 -0.0144  0.9266  1.1589
 8867TIP3    H226566   2.384   4.414   0.322 -0.5463 -1.4626  1.4397
 8868TIP3   OH226567   2.465   0.963   3.517 -0.0199  0.1074  0.3604
 8868TIP3    H126568   2.433   0.890   3.464 -0.0180 -1.1448  2.0099
 8868TIP3    H226569   2.556   0.975   3.489 -0.1532 -0.2149 -0.2306
 8869TIP3   OH226570   6.383   3.375   4.603 -0.1719  0.3554 -0.4577
 8869TIP3    H126571   6.314   3.420   4.651 -0.4048  2.8459 -2.9100
 8869TIP3    H226572   6.449   3.442   4.586  1.6610 -1.3329 -0.4528
 8870TIP3   OH226573   0.824   1.171   4.441  0.1202 -0.3137  0.3326
 8870TIP3    H126574   0.841   1.115   4.365 -2.2339  1.0428 -1.3702
 8870TIP3    H226575   0.860   1.256   4.416 -1.6613  0.4357  0.1665
 8871TIP3   OH226576   2.384   1.464   3.736  0.5294  0.5142  0.6861
 8871TIP3    H126577   2.371   1.385   3.684 -0.1448  0.1482  1.3814
 8871TIP3    H226578   2.387   1.535   3.673 -0.4700  0.1059  0.1563
 8872TIP3   OH226579   3.507   5.248   5.373 -0.2030  0.7830  0.1209
 8872TIP3    H126580   3.465   5.164   5.354  1.3783  0.1353 -0.7163
 8872TIP3    H226581   3.480   5.306   5.302  0.1174  0.4338 -0.2942
 8873TIP3   OH226582   1.245   2.996   0.648 -0.2853 -0.0788  0.7686
 8873TIP3    H126583   1.180   3.066   0.654 -0.0040  0.2176  0.4433
 8873TIP3    H226584   1.198   2.917   0.674 -0.3526  0.3712  2.0503
 8874TIP3   OH226585   4.596   1.303   2.198 -0.2558  0.2991  0.1368
 8874TIP3    H126586   4.517   1.349   2.227 -0.4324 -1.3427  2.5255
 8874TIP3    H226587   4.567   1.213   2.182  1.2638 -0.6165  2.1379
 8875TIP3   OH226588   6.704   2.693   4.454  0.3448  0.0968 -0.1589
 8875TIP3    H126589   6.708   2.656   4.366  2.5372  0.1191 -0.1195
 8875TIP3    H226590   6.781   2.659   4.498 -1.7575 -1.6242  2.5270
 8876TIP3   OH226591   0.267   6.002   2.125  0.0190  0.4983  0.0782
 8876TIP3    H126592   0.297   5.911   2.127  1.9585  1.0564 -0.9774
 8876TIP3    H226593   0.173   5.997   2.143  0.2185 -1.6243  0.8302
 8877TIP3   OH226594   5.624   5.151   5.002  0.1937 -0.1864 -0.1589
 8877TIP3    H126595   5.555   5.218   5.007 -0.0011 -0.4273  0.5507
 8877TIP3    H226596   5.704   5.201   4.990  0.1445  0.2437  1.1386
 8878TIP3   OH226597   6.818   6.736   1.380 -0.1864 -0.7906  0.2500
 8878TIP3    H126598   6.870   6.805   1.420 -1.6104  0.3290  0.2621
 8878TIP3    H226599   6.773   6.779   1.307  0.1572 -2.1083 -0.7719
 8879TIP3   OH226600   0.117   5.044   3.803 -0.0173  0.3654 -0.1302
 8879TIP3    H126601   0.030   5.064   3.838 -0.4305 -0.7183 -0.4911
 8879TIP3    H226602   0.124   4.949   3.808  1.2251  0.4472  0.0509
 8880TIP3   OH226603   4.934   6.033   1.213 -0.1568 -0.2111 -0.5126
 8880TIP3    H126604   4.955   5.951   1.169  3.2515  0.6552 -0.8179
 8880TIP3    H226605   4.941   6.012   1.306  1.4123 -0.2002 -0.5950
 8881TIP3   OH226606   3.430   0.077   5.024  0.1812  0.2158 -0.2171
 8881TIP3    H126607   3.524   0.091   5.017  0.5478 -0.1856  2.6535
 8881TIP3    H226608   3.415   0.063   5.118 -2.6592 -0.3280 -0.6697
 8882TIP3   OH226609   2.012   4.389   5.667 -0.2441 -0.0698  0.5338
 8882TIP3    H126610   2.024   4.330   5.741 -0.0100 -1.4694 -0.5751
 8882TIP3    H226611   2.078   4.457   5.680  0.7223 -1.0513  0.8917
 8883TIP3   OH226612   4.932   5.057   5.780  0.4936 -0.2679  0.4825
 8883TIP3    H126613   4.980   4.998   5.721  0.7940 -0.6386  1.0923
 8883TIP3    H226614   4.965   5.036   5.867 -0.2789 -0.0387  0.8375
 8884TIP3   OH226615   3.680   4.465   0.857  0.2862 -0.1962 -0.1251
 8884TIP3    H126616   3.674   4.377   0.819  2.1732 -0.3256 -0.2685
 8884TIP3    H226617   3.688   4.451   0.951 -1.7094 -0.0224  0.0987
 8885TIP3   OH226618   3.711   6.784   2.805 -0.0000  0.2615 -0.0069
 8885TIP3    H126619   3.698   6.697   2.843  3.0863 -0.9475 -1.4280
 8885TIP3    H226620   3.655   6.785   2.727  0.4489 -0.7506 -0.3565
 8886TIP3   OH226621   4.916   5.991   5.895  0.7164 -0.2886  0.0582
 8886TIP3    H126622   4.893   6.083   5.906  0.3493 -0.2940 -0.6190
 8886TIP3    H226623   4.896   5.972   5.804  1.8612 -0.7407 -0.1220
 8887TIP3   OH226624   2.109   0.477   0.363  0.0233  0.9923  0.1503
 8887TIP3    H126625   2.044   0.411   0.385 -0.2995  1.1644 -0.2537
 8887TIP3    H226626   2.168   0.433   0.301  0.5952  0.6819  0.9100
 8888TIP3   OH226627   4.942   5.104   4.649  0.1834 -0.2613  0.5777
 8888TIP3    H126628   4.937   5.185   4.700 -0.0366  0.2739 -0.2806
 8888TIP3    H226629   5.034   5.077   4.656  0.0790 -0.3889  1.5428
 8889TIP3   OH226630   6.640  -0.013   4.960 -0.3696 -0.1693  0.3641
 8889TIP3    H126631   6.713   0.014   5.017 -0.0321  1.0581 -0.5879
 8889TIP3    H226632   6.585   0.065   4.954  0.1544  0.1033 -1.7882
 8890TIP3   OH226633   0.995   4.094   5.483  0.3434 -0.1373  0.4087
 8890TIP3    H126634   1.082   4.057   5.495  0.1300 -1.3229 -1.2876
 8890TIP3    H226635   1.006   4.159   5.413 -0.2422 -0.7707 -0.2829
 8891TIP3   OH226636   1.408   0.962   1.174 -0.3109  0.2593  0.0347
 8891TIP3    H126637   1.493   0.920   1.190 -0.6639 -0.0543  1.0997
 8891TIP3    H226638   1.378   0.990   1.260 -0.8986  1.1415 -0.4474
 8892TIP3   OH226639   4.599   5.478   1.356  0.3602 -0.2145  0.5054
 8892TIP3    H126640   4.538   5.486   1.282 -0.8328 -2.6514  1.1179
 8892TIP3    H226641   4.676   5.527   1.329 -0.8404  0.7140 -1.4592
 8893TIP3   OH226642   0.766   6.268   1.851 -0.8301  0.1355 -0.2317
 8893TIP3    H126643   0.692   6.208   1.842 -0.7773 -0.0847  0.7108
 8893TIP3    H226644   0.811   6.238   1.930 -1.5775  2.2657  1.0887
 8894TIP3   OH226645   5.461   4.825   2.443 -0.0842 -0.2045 -0.6352
 8894TIP3    H126646   5.376   4.868   2.434 -0.9952 -1.9031 -0.6769
 8894TIP3    H226647   5.484   4.801   2.353 -0.3710 -1.1914 -0.4537
 8895TIP3   OH226648   3.896   1.921   5.730 -0.0715 -0.1051  0.1121
 8895TIP3    H126649   3.926   1.831   5.745 -0.6122 -0.7283 -2.1743
 8895TIP3    H226650   3.800   1.915   5.736 -0.0842  0.4628  0.5499
 8896TIP3   OH226651   2.515   3.118   1.015  0.0195  1.0104  0.3630
 8896TIP3    H126652   2.479   3.171   0.944  0.1512  0.8172  0.1520
 8896TIP3    H226653   2.467   3.036   1.010 -2.1287  2.0090  2.3687
 8897TIP3   OH226654   5.741   0.022   4.632 -0.4423 -0.1854 -0.1387
 8897TIP3    H126655   5.651   0.054   4.640 -0.1560  0.8899 -0.9836
 8897TIP3    H226656   5.734  -0.072   4.648 -1.5719  0.0197  0.7418
 8898TIP3   OH226657   6.627   6.081   3.399 -0.1729 -0.1688  0.6615
 8898TIP3    H126658   6.652   6.162   3.355  0.1309 -1.5066 -1.8330
 8898TIP3    H226659   6.557   6.106   3.459 -2.0825  1.5454 -2.0621
 8899TIP3   OH226660   4.865   3.544   4.326  0.0788  0.9312 -0.0986
 8899TIP3    H126661   4.899   3.571   4.411  0.0243  3.1045 -0.6877
 8899TIP3    H226662   4.827   3.624   4.289 -0.6012 -0.1307 -1.8381
 8900TIP3   OH226663   6.573   0.898   5.466  0.9797  0.5403 -0.0054
 8900TIP3    H126664   6.618   0.966   5.517 -0.0096  2.3043 -1.3833
 8900TIP3    H226665   6.482   0.927   5.461  0.4744 -1.0107 -0.4847
 8901TIP3   OH226666   4.530   0.195   0.416  0.0898 -0.2931  0.1059
 8901TIP3    H126667   4.460   0.183   0.351 -0.8683 -0.1367  1.0817
 8901TIP3    H226668   4.507   0.276   0.461 -0.4061 -1.4400  2.0071
 8902TIP3   OH226669   6.557   2.752   1.586 -0.0767  0.0081  0.1060
 8902TIP3    H126670   6.516   2.677   1.544 -1.8375  1.1150 -0.2305
 8902TIP3    H226671   6.627   2.714   1.640 -0.3091 -1.7628 -0.7716
 8903TIP3   OH226672   6.455   3.704   3.994 -0.4643 -0.2984 -0.7176
 8903TIP3    H126673   6.393   3.776   4.007  0.0303  0.0664 -0.2509
 8903TIP3    H226674   6.452   3.655   4.076  2.3976  1.7805  0.8398
 8904TIP3   OH226675   1.727   3.482   0.716 -0.2927  0.5288 -0.2658
 8904TIP3    H126676   1.692   3.432   0.643  2.3399 -1.6942 -0.1714
 8904TIP3    H226677   1.703   3.573   0.697  0.3854  0.0749 -4.0080
 8905TIP3   OH226678   2.785   0.922   0.698  0.0105  0.3541  0.3781
 8905TIP3    H126679   2.691   0.909   0.706 -0.1227  1.2810  0.4329
 8905TIP3    H226680   2.803   0.904   0.606 -0.1593 -0.2000  0.4537
 8906TIP3   OH226681   4.668   2.007   4.732  0.1314  0.1100 -0.1091
 8906TIP3    H126682   4.713   1.929   4.764  0.2109 -0.3522 -1.2815
 8906TIP3    H226683   4.738   2.070   4.716  0.1583  0.1093  0.0063
 8907TIP3   OH226684   5.561   2.530   1.892 -0.0617 -0.5374  0.4103
 8907TIP3    H126685   5.550   2.624   1.906  1.8704 -0.3441  0.9056
 8907TIP3    H226686   5.483   2.504   1.843 -1.8580  0.8181  2.3657
 8908TIP3   OH226687   6.368   4.324   2.053  0.1586  0.0394  0.2109
 8908TIP3    H126688   6.287   4.360   2.089  0.1546 -0.3212  0.5699
 8908TIP3    H226689   6.341   4.247   2.004  0.2266  0.2335 -0.1428
 8909TIP3   OH226690   5.766   0.721   5.679  0.7967  0.8615 -0.0061
 8909TIP3    H126691   5.748   0.718   5.773  0.4172  2.7219  0.0141
 8909TIP3    H226692   5.786   0.630   5.655 -2.3068 -0.2745  1.2203
 8910TIP3   OH226693   2.163   4.126   3.233 -0.1603 -0.2967  0.1303
 8910TIP3    H126694   2.182   4.205   3.183  2.3923  1.1925  3.1265
 8910TIP3    H226695   2.241   4.071   3.222 -0.9564 -1.4156 -0.0946
 8911TIP3   OH226696   5.399   3.311   0.195 -0.2717 -0.3601  0.0613
 8911TIP3    H126697   5.402   3.241   0.260 -1.3473 -0.5610 -0.0861
 8911TIP3    H226698   5.408   3.266   0.111 -1.9238 -0.4610 -0.0954
 8912TIP3   OH226699   4.185   4.448   2.420 -0.0293 -0.4955 -0.1433
 8912TIP3    H126700   4.151   4.505   2.489 -0.8896  1.3534 -2.0033
 8912TIP3    H226701   4.225   4.375   2.467 -0.9984  0.4434  2.2846
 8913TIP3   OH226702   3.953   1.724   0.604 -0.6835 -0.2360 -0.3909
 8913TIP3    H126703   3.932   1.666   0.677 -1.4624 -0.6356 -0.9181
 8913TIP3    H226704   3.978   1.807   0.645 -2.2944 -0.0706  0.2972
 8914TIP3   OH226705   7.100   0.808   3.907 -0.2853 -0.1250 -0.0150
 8914TIP3    H126706   7.047   0.778   3.980  0.2532  0.0917  0.4684
 8914TIP3    H226707   7.171   0.744   3.900 -0.5647 -0.3799 -0.6209
 8915TIP3   OH226708   6.843   1.192   2.351 -0.1199  0.3516 -0.4867
 8915TIP3    H126709   6.823   1.099   2.343  1.4500 -0.2374  1.6792
 8915TIP3    H226710   6.784   1.224   2.418  1.2484  0.2138  0.8345
 8916TIP3   OH226711   2.994   5.686   3.371 -0.4023 -0.7720 -0.1650
 8916TIP3    H126712   2.982   5.695   3.465 -0.1849  0.0446 -0.2035
 8916TIP3    H226713   2.981   5.774   3.337  3.1223 -0.2260 -0.4725
 8917TIP3   OH226714   3.432   0.017   3.903 -0.0276  0.1342  0.1529
 8917TIP3    H126715   3.493  -0.046   3.940 -1.5754 -0.9903  0.9091
 8917TIP3    H226716   3.463   0.032   3.814  0.4413 -1.6240 -0.0120
 8918TIP3   OH226717   0.928   6.417   3.904 -0.2109 -0.4153 -0.2539
 8918TIP3    H126718   0.984   6.492   3.922 -0.4240 -0.3311  0.0700
 8918TIP3    H226719   0.891   6.393   3.989 -0.1795 -0.8589 -0.3593
 8919TIP3   OH226720   5.134   3.068   5.763  0.5535 -0.4841  0.1222
 8919TIP3    H126721   5.112   3.006   5.832  0.0780 -0.9398 -0.4312
 8919TIP3    H226722   5.177   3.141   5.809 -2.7670  0.8845  1.4213
 8920TIP3   OH226723   2.783   2.147   4.842  0.0298  0.7629  0.0162
 8920TIP3    H126724   2.810   2.132   4.752  0.0880 -1.4129  0.3210
 8920TIP3    H226725   2.713   2.212   4.836 -0.7003 -0.1038 -1.7427
 8921TIP3   OH226726   5.851   1.106   1.212 -0.0856  0.5226  0.0147
 8921TIP3    H126727   5.861   1.046   1.138 -2.7213 -1.4486  1.0707
 8921TIP3    H226728   5.890   1.188   1.183 -1.1352 -0.1006 -3.6461
 8922TIP3   OH226729   4.266   1.643   5.409  0.7030 -0.6598  0.1301
 8922TIP3    H126730   4.263   1.565   5.465  0.2715 -0.0347  1.0061
 8922TIP3    H226731   4.176   1.675   5.406  0.6477 -0.8957 -1.2589
 8923TIP3   OH226732   4.719   4.554   2.759  0.1696 -0.3288 -0.3745
 8923TIP3    H126733   4.767   4.512   2.830 -0.0939  0.5187  0.3249
 8923TIP3    H226734   4.677   4.630   2.800  1.2026  1.0166 -1.7318
 8924TIP3   OH226735   6.805   6.633   0.649  0.1522 -0.4119  0.0760
 8924TIP3    H126736   6.736   6.693   0.675 -0.2285 -0.4222 -0.8784
 8924TIP3    H226737   6.761   6.549   0.636 -0.2100  0.1202 -3.0318
 8925TIP3   OH226738   3.763   1.444   0.364 -0.3560  0.7338 -0.0682
 8925TIP3    H126739   3.847   1.489   0.376  0.9058 -0.7655 -2.6038
 8925TIP3    H226740   3.760   1.381   0.436  2.2681 -1.3435 -1.6218
 8926TIP3   OH226741   6.050   2.159   4.808  0.1549  0.5730 -0.0971
 8926TIP3    H126742   6.111   2.157   4.882  1.1551 -0.3677 -0.9094
 8926TIP3    H226743   6.106   2.167   4.731 -0.9427  3.4475 -0.7185
 8927TIP3   OH226744   2.684   5.380   1.868  0.1553  0.3191 -0.3640
 8927TIP3    H126745   2.709   5.295   1.904 -0.3179 -0.4140 -1.6692
 8927TIP3    H226746   2.743   5.393   1.794 -0.3529  0.6816 -0.7185
 8928TIP3   OH226747   6.706   5.348   1.098 -0.0227  0.6153  0.3433
 8928TIP3    H126748   6.689   5.439   1.074  1.1467  0.8474  0.3184
 8928TIP3    H226749   6.793   5.350   1.137  1.7069 -1.0145 -3.0337
 8929TIP3   OH226750   2.668   6.245   2.417 -0.3269  0.0589  0.4785
 8929TIP3    H126751   2.724   6.192   2.360 -1.6036 -1.0998  0.2461
 8929TIP3    H226752   2.710   6.331   2.418  1.0242 -0.5498 -0.2934
 8930TIP3   OH226753   4.535   2.562   3.273  0.5960 -0.2015 -0.0431
 8930TIP3    H126754   4.489   2.481   3.292  0.1480  0.0448 -0.0723
 8930TIP3    H226755   4.619   2.553   3.318  0.3443 -0.4702  0.3784
 8931TIP3   OH226756   5.981   5.424   1.921  0.1655  0.0224  0.2015
 8931TIP3    H126757   5.898   5.394   1.959 -0.1907  0.7401 -0.0062
 8931TIP3    H226758   5.978   5.519   1.928  0.7141  0.0841 -0.3372
 8932TIP3   OH226759   0.944   2.673   1.083  0.4027  0.1082  0.6201
 8932TIP3    H126760   0.907   2.613   1.018 -1.5258  0.0750  1.6588
 8932TIP3    H226761   0.989   2.739   1.031 -0.1528 -0.5102 -0.7068
 8933TIP3   OH226762   6.543   0.931   3.312 -0.0130  1.0843  0.3951
 8933TIP3    H126763   6.574   1.020   3.297 -0.0583  0.9835 -0.3456
 8933TIP3    H226764   6.621   0.876   3.305  0.0861  1.1067  1.2840
 8934TIP3   OH226765   0.292   6.708   2.584 -0.0430  0.2349 -0.4583
 8934TIP3    H126766   0.304   6.748   2.670  1.1340 -0.1735 -0.4016
 8934TIP3    H226767   0.242   6.772   2.534 -0.5914  0.5503  0.4796
 8935TIP3   OH226768   0.001   0.867   1.732  0.2923  0.3913 -0.1219
 8935TIP3    H126769   0.074   0.906   1.684 -0.6840  1.4733 -0.7981
 8935TIP3    H226770   0.011   0.900   1.821  1.2776 -0.4194  0.0763
 8936TIP3   OH226771   5.269   1.238   2.033  0.1535  0.1937  0.0947
 8936TIP3    H126772   5.289   1.216   2.124  2.0534 -0.1097 -0.3539
 8936TIP3    H226773   5.286   1.332   2.027  0.7134  0.0884 -0.0863
 8937TIP3   OH226774   5.077   4.368   0.238  0.4046 -0.5254 -0.0606
 8937TIP3    H126775   5.172   4.376   0.247  0.4809 -0.5376 -0.8028
 8937TIP3    H226776   5.044   4.380   0.327  1.1380 -1.1300  0.3155
 8938TIP3   OH226777   5.808   0.369   2.834 -0.0848 -0.2770 -0.0095
 8938TIP3    H126778   5.883   0.310   2.845  0.8768  0.7933 -0.5285
 8938TIP3    H226779   5.748   0.345   2.904  0.7120 -1.2230  0.3747
 8939TIP3   OH226780   1.483   0.880   2.928 -0.4230 -0.0427  0.1258
 8939TIP3    H126781   1.578   0.889   2.917 -0.5301 -0.3352 -1.1381
 8939TIP3    H226782   1.471   0.864   3.022  0.8350 -0.7766  0.1732
 8940TIP3   OH226783   6.333   4.903   4.842  0.0861  0.0388 -0.4135
 8940TIP3    H126784   6.341   4.900   4.747 -2.1055 -0.9853 -0.6359
 8940TIP3    H226785   6.363   4.817   4.872 -0.6999 -0.2235 -0.3546
 8941TIP3   OH226786   3.749   0.642   1.166  0.1674  0.4943 -0.3671
 8941TIP3    H126787   3.821   0.660   1.226  0.0839  0.9096 -0.3901
 8941TIP3    H226788   3.788   0.646   1.079  0.0834  0.8948 -0.3885
 8942TIP3   OH226789   3.937   5.012   5.034  0.0658 -0.1627  0.1751
 8942TIP3    H126790   3.994   4.942   5.066  0.7009  0.5774  0.6750
 8942TIP3    H226791   3.848   4.980   5.052  0.3368 -0.9142  0.2304
 8943TIP3   OH226792   4.903   4.211   3.965  0.4634  0.0256 -0.2942
 8943TIP3    H126793   4.861   4.275   3.908 -0.5684 -0.7442 -0.4111
 8943TIP3    H226794   4.923   4.260   4.045 -0.9126  0.3507 -0.1309
 8944TIP3   OH226795   5.216   4.360   3.344  0.2566  0.0978 -0.2231
 8944TIP3    H126796   5.227   4.266   3.327  0.5559 -0.5034  2.6758
 8944TIP3    H226797   5.289   4.402   3.299  0.0157 -0.9942 -1.7185
 8945TIP3   OH226798   2.649   2.923   1.683  0.1226 -0.1162 -0.0360
 8945TIP3    H126799   2.662   2.990   1.616  3.4775 -1.7031 -1.2555
 8945TIP3    H226800   2.704   2.951   1.756 -1.4378  0.2837  1.0129
 8946TIP3   OH226801   1.707   0.276   4.903 -0.3432  0.0373 -0.4010
 8946TIP3    H126802   1.617   0.302   4.924 -1.2437 -2.3134 -1.1303
 8946TIP3    H226803   1.722   0.309   4.815 -0.9691 -0.6412 -0.7717
 8947TIP3   OH226804   7.144   6.281   2.900 -0.0674 -0.2488 -0.4583
 8947TIP3    H126805   7.167   6.234   2.820 -1.0881 -1.1308 -0.2554
 8947TIP3    H226806   7.050   6.297   2.892  0.3212  2.3824 -0.8206
 8948TIP3   OH226807   2.197   0.289   5.290  0.5211 -0.5008 -0.0278
 8948TIP3    H126808   2.124   0.331   5.334 -2.8922 -2.6993 -3.0315
 8948TIP3    H226809   2.230   0.354   5.229 -1.0938 -0.4053 -0.8426
 8949TIP3   OH226810   5.505   3.131   0.424 -0.3231  0.2068 -0.3862
 8949TIP3    H126811   5.422   3.087   0.409  0.0085 -0.3131 -0.7444
 8949TIP3    H226812   5.517   3.129   0.519  0.3762 -1.8171 -0.4664
 8950TIP3   OH226813   4.671   2.945   0.954 -0.0853 -0.5202  0.5257
 8950TIP3    H126814   4.646   3.001   0.880  2.3663 -0.0276 -0.0350
 8950TIP3    H226815   4.623   2.981   1.029  1.1184  2.1656  0.1224
 8951TIP3   OH226816   4.007   0.998   5.777 -0.5350 -0.4180 -0.0062
 8951TIP3    H126817   4.062   0.922   5.757  1.8036  1.2219 -0.0693
 8951TIP3    H226818   3.952   0.968   5.850  1.1732 -1.8250  0.7887
 8952TIP3   OH226819   2.149   5.884   3.007  0.2850  0.0660  0.3066
 8952TIP3    H126820   2.134   5.965   2.958  0.1132 -0.3642 -0.3696
 8952TIP3    H226821   2.119   5.815   2.948 -1.6900 -0.3788  1.7548
 8953TIP3   OH226822   2.610   5.877   1.992  0.1606  0.0232  0.0605
 8953TIP3    H126823   2.671   5.815   1.954 -0.3300 -0.3137 -0.1899
 8953TIP3    H226824   2.561   5.912   1.918 -1.1004 -0.9570  0.4030
 8954TIP3   OH226825   5.860   5.106   3.825  0.0664  0.1455  0.0688
 8954TIP3    H126826   5.776   5.068   3.797  0.1039  1.6560 -2.3567
 8954TIP3    H226827   5.924   5.036   3.811 -0.1627  0.3573 -2.3816
 8955TIP3   OH226828   3.921   3.194   4.184  0.2273 -0.3453  0.0631
 8955TIP3    H126829   3.888   3.180   4.095  1.3370  0.1695 -0.4459
 8955TIP3    H226830   4.014   3.175   4.178  0.8055  1.9983  0.5244
 8956TIP3   OH226831   1.423   5.378   0.237  0.1843 -0.3419  0.2824
 8956TIP3    H126832   1.413   5.358   0.330 -2.2750 -0.4609  0.0507
 8956TIP3    H226833   1.413   5.473   0.231  0.7014 -0.2924  0.1720
 8957TIP3   OH226834   1.732   0.097   1.636  0.3853 -0.0920  0.6170
 8957TIP3    H126835   1.747   0.178   1.684  2.1459 -0.4698  0.7586
 8957TIP3    H226836   1.766   0.028   1.693 -0.6911 -0.9122  0.3127
 8958TIP3   OH226837   0.819   1.311   4.002  0.2326  0.3115 -0.3673
 8958TIP3    H126838   0.869   1.321   3.921  2.3068  2.1268  1.0155
 8958TIP3    H226839   0.798   1.400   4.029 -1.6494 -0.3138  0.4176
 8959TIP3   OH226840   4.158   4.016   5.326  0.2460  0.2756 -0.4681
 8959TIP3    H126841   4.248   4.035   5.300 -0.4343  0.5689 -2.7954
 8959TIP3    H226842   4.164   4.002   5.421  2.7592  0.0392 -0.5795
 8960TIP3   OH226843   1.555   2.563   2.294  0.3542  0.5740 -0.2063
 8960TIP3    H126844   1.624   2.578   2.230  1.2177 -1.5277  0.1552
 8960TIP3    H226845   1.487   2.627   2.272  1.5962  1.4117 -1.7662
 8961TIP3   OH226846   3.027   2.861   3.705  0.5040 -0.2908 -0.3542
 8961TIP3    H126847   3.095   2.797   3.684 -1.3204 -2.2804 -0.4936
 8961TIP3    H226848   2.982   2.877   3.622  0.6877  0.9502 -0.2479
 8962TIP3   OH226849   1.683   6.033   4.096 -0.1589  0.2162 -0.8611
 8962TIP3    H126850   1.667   6.120   4.060 -0.4632 -0.1246 -1.5692
 8962TIP3    H226851   1.596   5.999   4.116  0.0363  0.7384  1.0659
 8963TIP3   OH226852   5.740   5.070   2.495 -0.3377  0.1674 -0.0198
 8963TIP3    H126853   5.677   5.096   2.427 -2.1533 -1.7002  0.8156
 8963TIP3    H226854   5.745   5.145   2.553 -0.4994  0.9685 -1.0091
 8964TIP3   OH226855   4.709   5.087   5.196 -0.0557  0.2043  0.1029
 8964TIP3    H126856   4.707   5.166   5.251 -1.5792 -1.6967  3.0544
 8964TIP3    H226857   4.639   5.102   5.132  0.3605  1.6494 -0.0543
 8965TIP3   OH226858   3.583   4.848   1.482 -0.3180  0.8799 -0.0426
 8965TIP3    H126859   3.531   4.860   1.403  0.0020  0.1536 -0.3668
 8965TIP3    H226860   3.523   4.805   1.543  0.3518 -1.5197 -0.9809
 8966TIP3   OH226861   3.073   0.127   4.951  0.0656  0.4562  0.4779
 8966TIP3    H126862   3.116   0.065   5.010  0.1287  1.6574  1.7593
 8966TIP3    H226863   3.001   0.162   5.002 -1.6855 -0.5382 -1.1881
 8967TIP3   OH226864   5.498   6.270   2.562  0.2627 -0.3437 -0.4492
 8967TIP3    H126865   5.439   6.328   2.610 -0.5004 -0.5285 -1.1485
 8967TIP3    H226866   5.540   6.327   2.497 -0.9005 -0.6723 -1.5043
 8968TIP3   OH226867   4.898   0.218   0.721 -0.0263 -0.1200  1.0201
 8968TIP3    H126868   4.845   0.264   0.657  2.2516  1.8344  0.4087
 8968TIP3    H226869   4.852   0.230   0.804 -0.1352  2.3297  0.6778
 8969TIP3   OH226870   2.781   0.855   0.958 -0.5912 -0.1697 -0.0696
 8969TIP3    H126871   2.690   0.876   0.976 -0.3365  1.2917 -0.2767
 8969TIP3    H226872   2.799   0.898   0.874  0.7350  1.0720  0.7920
 8970TIP3   OH226873   0.731   5.018   1.170  0.0361  0.1106  0.6054
 8970TIP3    H126874   0.725   4.927   1.142  0.3895  0.9602 -2.6433
 8970TIP3    H226875   0.803   5.055   1.118  0.0979  2.2038  2.0345
 8971TIP3   OH226876   5.823   6.409   3.639 -0.4639  0.4862 -0.2325
 8971TIP3    H126877   5.836   6.343   3.571 -0.5021  0.2720 -0.0302
 8971TIP3    H226878   5.865   6.488   3.604  1.7448 -0.2741  0.5698
 8972TIP3   OH226879   5.153   4.404   4.737  0.0254  0.3492 -0.3742
 8972TIP3    H126880   5.100   4.416   4.816 -0.8959  1.6243 -1.1566
 8972TIP3    H226881   5.242   4.423   4.765 -0.1955  0.1451  0.5042
 8973TIP3   OH226882   7.182   3.990   1.375  0.0331 -0.0068  0.0612
 8973TIP3    H126883   7.188   3.997   1.470  1.0404  2.6346 -0.1235
 8973TIP3    H226884   7.262   4.031   1.342 -0.7394  0.0339 -1.9386
 8974TIP3   OH226885   4.722   5.887   4.234  0.1180 -0.1513  0.0087
 8974TIP3    H126886   4.646   5.865   4.288  0.5768 -0.5099  0.5219
 8974TIP3    H226887   4.775   5.807   4.233  0.4208  0.0491 -0.4650
 8975TIP3   OH226888   6.284   5.138   4.094 -0.0621 -0.2328  0.0051
 8975TIP3    H126889   6.310   5.094   4.013 -0.3330 -0.3189 -0.0372
 8975TIP3    H226890   6.233   5.213   4.064  0.6477  0.2770  0.0680
 8976TIP3   OH226891   4.648   5.856   0.309  0.3156 -0.1844 -0.0049
 8976TIP3    H126892   4.730   5.904   0.315  0.6730 -0.7459 -0.2760
 8976TIP3    H226893   4.600   5.880   0.389  1.2821 -0.8106  0.7983
 8977TIP3   OH226894   2.955   3.328   4.224 -0.3382  0.2410  0.0112
 8977TIP3    H126895   2.863   3.331   4.250 -1.0543  0.6917 -2.3180
 8977TIP3    H226896   2.958   3.378   4.142  1.3862 -2.1921 -1.5492
 8978TIP3   OH226897   5.107   3.221   1.005 -0.0846  0.2795 -0.2498
 8978TIP3    H126898   5.012   3.214   0.995 -0.1052 -0.1457  0.2254
 8978TIP3    H226899   5.119   3.272   1.085  0.0928  0.0660 -0.1406
 8979TIP3   OH226900   4.296   4.329   4.983  0.1049 -0.1737 -0.2890
 8979TIP3    H126901   4.357   4.284   4.924  2.0640  0.8060  0.8584
 8979TIP3    H226902   4.239   4.379   4.925  1.9921  0.8081 -1.4158
 8980TIP3   OH226903   5.104   2.964   4.692 -0.5577 -0.1373 -0.1366
 8980TIP3    H126904   5.198   2.945   4.700 -0.3432  0.5821 -0.8404
 8980TIP3    H226905   5.063   2.878   4.683 -0.2477 -0.6599  2.4812
 8981TIP3   OH226906   3.447   2.182   1.860 -0.1704 -0.1234 -0.0256
 8981TIP3    H126907   3.422   2.246   1.794  1.0246  0.9119  0.4878
 8981TIP3    H226908   3.510   2.125   1.815  0.7563  0.6693  0.2155
 8982TIP3   OH226909   4.236   4.786   5.161 -0.5937 -0.5204 -0.2083
 8982TIP3    H126910   4.152   4.741   5.155 -0.1582 -1.1994 -1.4302
 8982TIP3    H226911   4.286   4.735   5.225 -1.4174  0.4545  1.2883
 8983TIP3   OH226912   3.081   0.633   3.334 -0.0037 -0.3854  0.4243
 8983TIP3    H126913   3.150   0.674   3.282 -0.1549 -0.2623  0.3214
 8983TIP3    H226914   3.024   0.706   3.360 -0.4325 -0.5643  0.0012
 8984TIP3   OH226915   1.421   1.676   3.457 -0.3681  0.7825  0.2835
 8984TIP3    H126916   1.333   1.641   3.467 -0.4722  0.8189 -0.4573
 8984TIP3    H226917   1.409   1.762   3.418 -0.0146  0.8685  0.3558
 8985TIP3   OH226918   1.830   4.538   2.070 -0.1418  0.0591 -0.3506
 8985TIP3    H126919   1.823   4.443   2.069  0.6928 -0.0689  1.2183
 8985TIP3    H226920   1.742   4.569   2.091 -0.2665 -0.4109 -0.1691
 8986TIP3   OH226921   1.378   5.109   1.280  0.3655  0.2013  0.2268
 8986TIP3    H126922   1.368   5.080   1.370  0.7267 -0.0475  0.1860
 8986TIP3    H226923   1.455   5.062   1.247  1.6524  1.9936  0.5099
 8987TIP3   OH226924   2.545   1.243   2.498 -0.4620  0.3779  0.0043
 8987TIP3    H126925   2.590   1.323   2.527 -0.4007  0.3875 -0.1166
 8987TIP3    H226926   2.537   1.190   2.577  1.4446 -0.4496 -0.2816
 8988TIP3   OH226927   4.151   6.169   4.889 -0.8622  0.0057 -0.1879
 8988TIP3    H126928   4.210   6.094   4.897  1.4035  1.5657 -1.2190
 8988TIP3    H226929   4.128   6.172   4.796  1.1803  1.9768 -0.7280
 8989TIP3   OH226930   1.892   4.261   5.452  0.1993 -0.0750 -0.7298
 8989TIP3    H126931   1.896   4.182   5.506 -1.3951 -0.1877 -0.7258
 8989TIP3    H226932   1.958   4.319   5.490  0.0488 -0.6693  0.5052
 8990TIP3   OH226933   0.313   2.101   5.667  0.0277  0.2354  0.8683
 8990TIP3    H126934   0.269   2.128   5.747  0.9718 -0.6718  1.7263
 8990TIP3    H226935   0.406   2.098   5.690  0.3883  0.5318 -0.4345
 8991TIP3   OH226936   3.475   3.120   4.481 -0.2362 -0.2453 -0.4296
 8991TIP3    H126937   3.495   3.150   4.570 -1.5025 -0.2202 -0.1383
 8991TIP3    H226938   3.561   3.110   4.440  0.4934 -2.0444  1.3565
 8992TIP3   OH226939   1.898   4.725   5.149  0.8764 -0.2216  0.7235
 8992TIP3    H126940   1.893   4.641   5.103 -0.2445  0.0465  0.3144
 8992TIP3    H226941   1.806   4.752   5.159  1.2367  1.3989 -0.0021
 8993TIP3   OH226942   4.727   6.702   1.511 -0.1817  0.0646 -0.0309
 8993TIP3    H126943   4.758   6.619   1.548  1.8799  1.1576  0.8476
 8993TIP3    H226944   4.671   6.739   1.580 -1.4457 -0.7554 -0.5927
 8994TIP3   OH226945   1.304   1.370   0.062 -0.2176  0.5242 -0.0846
 8994TIP3    H126946   1.360   1.380   0.139 -0.8241  0.6324  0.3486
 8994TIP3    H226947   1.360   1.328  -0.004  0.2533  0.2694  0.4738
 8995TIP3   OH226948   3.153   6.326   0.462 -0.1041  0.2319  0.1655
 8995TIP3    H126949   3.106   6.356   0.540  1.7437 -0.4023  1.6203
 8995TIP3    H226950   3.152   6.230   0.469  1.1077  0.1919  0.1201
 8996TIP3   OH226951   5.327   3.339   4.776 -0.2284 -0.1908  0.3795
 8996TIP3    H126952   5.333   3.244   4.773  1.0312 -0.1522  1.0042
 8996TIP3    H226953   5.268   3.362   4.705  1.2526 -1.2888 -1.2740
 8997TIP3   OH226954   3.379   6.275   1.662 -0.1351  0.3729  0.3562
 8997TIP3    H126955   3.322   6.352   1.660  0.9236  1.1750  0.1910
 8997TIP3    H226956   3.404   6.267   1.754 -1.1673 -0.4943  0.5804
 8998TIP3   OH226957   0.947   2.413   4.153  0.0493 -0.1648 -0.4973
 8998TIP3    H126958   0.924   2.485   4.095  2.7451 -0.0713 -1.6150
 8998TIP3    H226959   0.990   2.455   4.228 -1.9335 -0.4034  0.8541
 8999TIP3   OH226960   6.505   0.844   1.832 -0.1006  0.1542 -0.3457
 8999TIP3    H126961   6.561   0.788   1.886  1.5020  2.4020  0.4794
 8999TIP3    H226962   6.476   0.913   1.892 -1.9227  0.3015 -1.3466
 9000TIP3   OH226963   1.067   2.687   1.325  0.2617 -0.0020 -0.2010
 9000TIP3    H126964   1.019   2.648   1.252  0.1398  1.1704 -0.7802
 9000TIP3    H226965   1.106   2.766   1.288  0.7229  0.2821  0.8535
 9001TIP3   OH226966   0.294   5.538   0.387  0.4133  0.4445 -0.1217
 9001TIP3    H126967   0.282   5.544   0.292  0.7943 -0.2347 -0.2227
 9001TIP3    H226968   0.285   5.627   0.418  0.6594  0.7347 -0.8500
 9002TIP3   OH226969   6.577   6.366   1.403  0.0136  0.0735 -0.5028
 9002TIP3    H126970   6.496   6.326   1.374 -0.8158  0.7299  0.8267
 9002TIP3    H226971   6.622   6.298   1.452 -1.3417  0.6320  1.6603
 9003TIP3   OH226972   4.836   0.280   2.817 -0.4698  0.0708  0.3103
 9003TIP3    H126973   4.923   0.307   2.848  0.4933 -2.7765  0.4238
 9003TIP3    H226974   4.783   0.276   2.897 -0.0972 -0.1616  0.5514
 9004TIP3   OH226975   6.103   1.704   4.675  0.2070 -0.2513  0.2243
 9004TIP3    H126976   6.051   1.784   4.687  1.5875  0.3581  3.0603
 9004TIP3    H226977   6.153   1.719   4.595 -1.2539  0.7086 -0.5476
 9005TIP3   OH226978   1.981   2.395   5.767 -0.8642 -0.5829 -0.5574
 9005TIP3    H126979   1.994   2.429   5.856 -0.6939  2.2059 -1.5510
 9005TIP3    H226980   2.032   2.453   5.711 -2.0028 -1.4714 -2.6424
 9006TIP3   OH226981   0.289   4.396   2.383  0.1990  0.0303  0.1515
 9006TIP3    H126982   0.226   4.437   2.442  0.5863  0.0625  0.5495
 9006TIP3    H226983   0.335   4.333   2.438 -0.7213 -1.3147 -0.5531
 9007TIP3   OH226984   0.915   6.151   0.408  0.0743 -0.0098  0.1447
 9007TIP3    H126985   0.894   6.115   0.494 -1.0288 -1.2583 -0.5955
 9007TIP3    H226986   0.834   6.193   0.379 -0.4828 -1.9627 -1.3597
 9008TIP3   OH226987   1.488   2.431   2.978 -0.2442  0.1067  0.4820
 9008TIP3    H126988   1.532   2.387   2.906 -0.4367 -1.5842  1.3565
 9008TIP3    H226989   1.453   2.511   2.939  2.1265  0.6929 -0.6211
 9009TIP3   OH226990   1.316   4.508   5.826 -0.1129 -0.0451 -1.0070
 9009TIP3    H126991   1.269   4.425   5.819 -1.7357  0.8080 -0.7986
 9009TIP3    H226992   1.407   4.483   5.836 -0.7843 -1.9151  1.4681
 9010TIP3   OH226993   7.065   1.784   1.593  0.3061  0.1231  0.2720
 9010TIP3    H126994   6.978   1.745   1.582  1.2582 -1.5264 -2.7039
 9010TIP3    H226995   7.101   1.742   1.670 -1.4834  0.8256  1.5542
 9011TIP3   OH226996   5.956   5.680   1.333  0.2934 -0.5535  0.1892
 9011TIP3    H126997   5.875   5.636   1.306 -0.2895  0.2519  0.5685
 9011TIP3    H226998   6.024   5.613   1.323 -0.4991 -1.4237  0.3913
 9012TIP3   OH226999   1.373   3.565   0.570  0.1486 -0.1092  0.0884
 9012TIP3    H127000   1.406   3.478   0.547 -0.4157 -0.1991 -0.4056
 9012TIP3    H227001   1.321   3.551   0.649 -0.7986 -0.4083 -0.5749
 9013TIP3   OH227002   0.699   5.172   5.046 -0.0808  0.3408 -0.2787
 9013TIP3    H127003   0.665   5.109   5.109 -0.3384 -0.0512 -0.7998
 9013TIP3    H227004   0.621   5.207   5.003  0.1443 -1.1590 -2.0583
 9014TIP3   OH227005   6.774   0.104   1.805 -0.0953  0.3028  0.5908
 9014TIP3    H127006   6.694   0.105   1.752  0.0804 -0.2071  0.3008
 9014TIP3    H227007   6.823   0.180   1.775 -0.9786  1.2914  1.5881
 9015TIP3   OH227008   7.136   2.175   2.725  0.2501  0.1410 -0.2638
 9015TIP3    H127009   7.204   2.170   2.657 -0.4971  0.3192 -1.0407
 9015TIP3    H227010   7.056   2.195   2.677 -0.3134  0.1733  0.6713
 9016TIP3   OH227011   3.418   5.768   2.549 -0.3029  0.4269  0.1715
 9016TIP3    H127012   3.455   5.856   2.548  0.9734 -0.0777  1.0138
 9016TIP3    H227013   3.458   5.725   2.625  0.1698 -1.3302 -1.0134
 9017TIP3   OH227014   5.006   1.201   3.839 -0.2318  0.3551  0.0002
 9017TIP3    H127015   5.012   1.197   3.935  0.0706  0.3293 -0.0191
 9017TIP3    H227016   5.095   1.218   3.810 -0.2684  0.0528 -0.2973
 9018TIP3   OH227017   0.864   2.785   1.705  0.0673  0.6296  0.2801
 9018TIP3    H127018   0.792   2.794   1.642  0.5280  0.1071 -0.3314
 9018TIP3    H227019   0.880   2.874   1.735  0.4783  1.0338 -1.0682
 9019TIP3   OH227020   6.284   1.445   4.635 -0.2634 -0.3853 -0.0704
 9019TIP3    H127021   6.256   1.494   4.713  4.6113  2.2916  0.3964
 9019TIP3    H227022   6.266   1.505   4.562  0.9763 -0.0631 -0.1339
 9020TIP3   OH227023   5.090   0.636   1.906 -0.5062 -0.1029 -0.6013
 9020TIP3    H127024   5.157   0.690   1.948 -0.8031 -1.0867  1.2514
 9020TIP3    H227025   5.028   0.698   1.868 -1.3751  0.9638  2.3147
 9021TIP3   OH227026   6.251   3.631   4.363  0.4770 -0.7328  0.0534
 9021TIP3    H127027   6.171   3.599   4.321  0.5888 -0.4736 -0.3573
 9021TIP3    H227028   6.322   3.589   4.315  0.5861 -0.9934  0.4433
 9022TIP3   OH227029   0.282   2.449   5.721  0.1031 -0.4163 -0.0987
 9022TIP3    H127030   0.340   2.477   5.792 -0.0361  0.4085 -0.3001
 9022TIP3    H227031   0.198   2.431   5.765 -0.0668  0.3764 -0.0857
 9023TIP3   OH227032   7.126   1.991   3.485  0.0872 -0.2321  0.6536
 9023TIP3    H127033   7.139   1.964   3.576 -0.1369  0.5502  0.9264
 9023TIP3    H227034   7.203   2.043   3.465  0.7296 -1.3996 -0.0114
 9024TIP3   OH227035   2.657   6.365   3.864  0.2180  0.0935 -0.1318
 9024TIP3    H127036   2.575   6.366   3.913  1.5294  0.6105  2.2135
 9024TIP3    H227037   2.632   6.384   3.774 -2.4987 -2.2902 -0.0030
 9025TIP3   OH227038   3.543   0.857   5.136  0.5321  0.5847 -0.2525
 9025TIP3    H127039   3.571   0.815   5.055 -0.8951 -0.1131 -0.4097
 9025TIP3    H227040   3.448   0.855   5.133  0.4204  2.6161  0.3940
 9026TIP3   OH227041   2.276   3.728   1.138  0.4447 -0.1278 -0.0969
 9026TIP3    H127042   2.246   3.775   1.216  0.1931 -0.4839  0.0193
 9026TIP3    H227043   2.347   3.672   1.169 -0.6090 -1.3513  0.1637
 9027TIP3   OH227044   4.332   4.332   0.934 -0.5363 -0.3711  0.0032
 9027TIP3    H127045   4.411   4.379   0.961 -0.2470 -0.3724 -0.8145
 9027TIP3    H227046   4.292   4.388   0.868 -0.0943 -1.3305 -1.1175
 9028TIP3   OH227047   5.958   0.018   2.091  0.3861  0.3155  0.3549
 9028TIP3    H127048   5.941  -0.019   2.005  2.4022  1.8423 -0.7868
 9028TIP3    H227049   5.928   0.109   2.085 -0.3340  0.1911  1.6089
 9029TIP3   OH227050   0.319   5.786   0.504  0.2709  0.8625  0.3431
 9029TIP3    H127051   0.399   5.813   0.549  0.5671  0.9450 -0.2216
 9029TIP3    H227052   0.250   5.842   0.542  0.2097 -0.1505  1.8250
 9030TIP3   OH227053   0.363   5.057   4.705 -0.0659 -0.1401  0.3540
 9030TIP3    H127054   0.414   5.125   4.662 -1.9298  0.2990 -1.2886
 9030TIP3    H227055   0.272   5.078   4.685 -0.8441 -1.7739  1.8470
 9031TIP3   OH227056   6.905   2.834   2.678  0.5489 -0.4395  0.4827
 9031TIP3    H127057   6.827   2.880   2.647  1.6969  2.2658  1.2679
 9031TIP3    H227058   6.881   2.742   2.676 -2.4904  0.2438  0.2387
 9032TIP3   OH227059   1.966   1.986   0.614 -0.1564  0.0876  0.6130
 9032TIP3    H127060   2.059   1.970   0.597 -0.3254 -0.4844  0.1994
 9032TIP3    H227061   1.965   2.041   0.692  0.5139 -0.3417  0.9339
 9033TIP3   OH227062   2.281   5.837   0.647 -0.2150 -0.0285  0.4600
 9033TIP3    H127063   2.216   5.781   0.689  0.1755 -1.0253 -0.2333
 9033TIP3    H227064   2.262   5.925   0.681 -1.1129 -0.4983  1.2292
 9034TIP3   OH227065   1.778   2.965   1.135  0.0535 -0.4567 -0.2354
 9034TIP3    H127066   1.742   3.040   1.182  1.9996  1.4646 -1.6403
 9034TIP3    H227067   1.809   2.906   1.204  0.4734  1.0546  0.9213
 9035TIP3   OH227068   6.274   1.075   5.109  0.4880 -0.7723  0.1589
 9035TIP3    H127069   6.362   1.082   5.146  0.0084 -0.9703  1.3729
 9035TIP3    H227070   6.261   0.981   5.096  0.5131 -0.7306 -0.1775
 9036TIP3   OH227071   5.094   5.910   0.773 -0.5743  0.3689 -0.6762
 9036TIP3    H127072   5.111   5.832   0.826  0.2297  1.0262  0.0609
 9036TIP3    H227073   5.124   5.886   0.685 -2.1787 -0.8317 -0.9644
 9037TIP3   OH227074   3.890   5.743   2.020  0.1583 -0.3613  0.2038
 9037TIP3    H127075   3.832   5.704   2.086 -1.8501 -0.3018 -1.3966
 9037TIP3    H227076   3.912   5.670   1.962 -0.9342  0.1917 -0.9568
 9038TIP3   OH227077   1.323   6.459   0.394  0.0920 -0.7103  0.5094
 9038TIP3    H127078   1.313   6.403   0.317  0.3550 -0.0738  0.0022
 9038TIP3    H227079   1.238   6.454   0.438 -0.8005  0.5300 -0.9465
 9039TIP3   OH227080   3.513   3.644   3.213 -0.6586  0.0663  0.2929
 9039TIP3    H127081   3.563   3.712   3.167  0.2779 -1.3998 -0.9965
 9039TIP3    H227082   3.424   3.652   3.179 -0.7291  1.0923  0.7007
 9040TIP3   OH227083   3.184   4.779   1.052  0.2379 -0.2102 -0.2078
 9040TIP3    H127084   3.131   4.829   1.114 -0.4410 -0.5438 -0.5173
 9040TIP3    H227085   3.250   4.736   1.107 -0.7919 -1.0753  0.3872
 9041TIP3   OH227086   5.399   3.813   1.756  0.2593 -0.2269 -0.2944
 9041TIP3    H127087   5.484   3.798   1.798  0.1141 -1.3827 -0.3768
 9041TIP3    H227088   5.418   3.813   1.663  0.2849  0.3396 -0.2915
 9042TIP3   OH227089   4.239   0.955   4.222 -0.2113 -0.3130  0.0380
 9042TIP3    H127090   4.252   0.933   4.314 -2.2967  0.2069  0.4904
 9042TIP3    H227091   4.307   1.020   4.203  0.1332 -0.3031  1.2456
 9043TIP3   OH227092   6.828   5.138   5.214 -0.1295 -0.0809  0.1658
 9043TIP3    H127093   6.799   5.117   5.302  0.3483 -0.0910  0.3193
 9043TIP3    H227094   6.861   5.056   5.179  0.5429  0.1213  0.3102
 9044TIP3   OH227095   1.300   1.578   1.858  0.4246  0.1398  0.3863
 9044TIP3    H127096   1.279   1.582   1.952  2.7045 -3.1855  1.2020
 9044TIP3    H227097   1.395   1.572   1.855  0.4585  0.9037 -2.2691
 9045TIP3   OH227098   6.371   4.873   0.759  0.2344 -0.1602  0.2165
 9045TIP3    H127099   6.404   4.842   0.843  1.2145 -0.9916 -0.4471
 9045TIP3    H227100   6.277   4.853   0.761  0.6077 -1.9927  0.3304
 9046TIP3   OH227101   3.690   1.835   0.895  0.1455  1.0988  0.1368
 9046TIP3    H127102   3.673   1.838   0.801 -0.3045 -1.1923  0.0963
 9046TIP3    H227103   3.650   1.916   0.929 -0.1898  1.6804 -1.5532
 9047TIP3   OH227104   5.867   5.121   5.503 -0.1388  0.1478  0.0192
 9047TIP3    H127105   5.804   5.115   5.431  0.3323 -0.4932 -0.3495
 9047TIP3    H227106   5.813   5.136   5.581 -1.0678 -3.0707  0.1568
 9048TIP3   OH227107   3.759   1.416   4.209  0.2993  0.0642  0.6041
 9048TIP3    H127108   3.833   1.360   4.235  1.9783  0.4723 -2.7256
 9048TIP3    H227109   3.715   1.365   4.141 -0.1382  1.4213 -0.1499
 9049TIP3   OH227110   4.510   5.075   1.910  0.1436  0.7878  0.5590
 9049TIP3    H127111   4.568   5.000   1.896 -0.0062  1.0750 -2.2246
 9049TIP3    H227112   4.432   5.038   1.952 -0.2120 -0.8132 -1.3544
 9050TIP3   OH227113   1.358   3.855   4.878  0.5530  0.2379  0.1002
 9050TIP3    H127114   1.414   3.779   4.893 -0.0787 -0.3632 -0.5077
 9050TIP3    H227115   1.282   3.820   4.831 -0.2976  1.0495  0.8326
 9051TIP3   OH227116   1.328   4.630   1.966 -0.2249  0.6852 -0.1272
 9051TIP3    H127117   1.400   4.674   2.009  0.6956  0.0629 -0.9737
 9051TIP3    H227118   1.250   4.659   2.013  0.5403  1.6043  0.6129
 9052TIP3   OH227119   6.088   6.093   2.842  0.2557  0.1299  0.0321
 9052TIP3    H127120   6.152   6.038   2.886 -1.2873 -0.4475  1.7012
 9052TIP3    H227121   6.122   6.182   2.851  0.6905 -0.1370  1.1543
 9053TIP3   OH227122   5.180   5.459   4.455 -0.5210 -0.0641 -0.1568
 9053TIP3    H127123   5.258   5.409   4.431 -1.1918 -0.4021 -1.7278
 9053TIP3    H227124   5.124   5.456   4.377 -1.1747  1.9969  0.1680
 9054TIP3   OH227125   6.822   1.196   3.911 -0.1741  0.2540 -0.2404
 9054TIP3    H127126   6.878   1.126   3.943  1.5346  1.4795 -0.4311
 9054TIP3    H227127   6.803   1.172   3.820  0.9592  0.3549 -0.5122
 9055TIP3   OH227128   6.313   4.740   2.480 -0.5734 -0.1501  0.0005
 9055TIP3    H127129   6.339   4.828   2.506  0.6153 -0.4271 -0.1827
 9055TIP3    H227130   6.388   4.706   2.432 -0.5309 -1.6872  1.0557
 9056TIP3   OH227131   6.073   1.654   3.773 -0.5059  0.4822  0.1740
 9056TIP3    H127132   6.107   1.579   3.724 -1.6731 -1.5449  2.2768
 9056TIP3    H227133   5.987   1.671   3.735 -0.6827  0.0551  0.3795
 9057TIP3   OH227134   4.679   2.979   3.933  0.4003 -0.0065 -0.4012
 9057TIP3    H127135   4.748   3.046   3.938  2.7807 -2.2674 -0.5938
 9057TIP3    H227136   4.726   2.896   3.945 -2.4872 -1.6409  0.4951
 9058TIP3   OH227137   4.915   4.200   2.755 -0.6730 -0.2144 -0.3581
 9058TIP3    H127138   4.916   4.285   2.798  0.9934 -0.6646  0.5378
 9058TIP3    H227139   4.846   4.151   2.800  0.0619 -0.1805  0.8318
 9059TIP3   OH227140   2.274   4.943   0.064 -0.4841  0.4145 -0.5103
 9059TIP3    H127141   2.350   4.991   0.098 -1.2720  1.1653  0.2337
 9059TIP3    H227142   2.293   4.851   0.085  0.7647  0.4365 -1.4160
 9060TIP3   OH227143   1.546   3.102   3.413 -0.8187 -0.5906 -0.3515
 9060TIP3    H127144   1.544   3.172   3.348 -2.1177 -0.5587 -0.2907
 9060TIP3    H227145   1.600   3.034   3.372  1.0133  0.6570 -0.1442
 9061TIP3   OH227146   5.203   4.617   5.053  0.4691  0.0431  0.2497
 9061TIP3    H127147   5.284   4.595   5.008 -0.7057  0.0761 -1.9951
 9061TIP3    H227148   5.156   4.674   4.992 -1.8627 -1.1204  0.8567
 9062TIP3   OH227149   5.874   6.684   3.770 -0.1624 -0.5424 -0.1274
 9062TIP3    H127150   5.894   6.598   3.806 -0.1626  0.4702  2.4756
 9062TIP3    H227151   5.784   6.701   3.797  0.0930  0.5729  0.0920
 9063TIP3   OH227152   5.977   1.010   2.954 -0.1897 -0.0658  0.0992
 9063TIP3    H127153   6.007   0.957   2.880 -2.3495  0.3192 -1.1334
 9063TIP3    H227154   6.045   1.076   2.966  1.5367 -1.8012  0.3171
 9064TIP3   OH227155   3.622   6.119   5.467  0.3810 -0.3486  0.0786
 9064TIP3    H127156   3.579   6.202   5.484 -1.7706 -1.0874 -1.3025
 9064TIP3    H227157   3.659   6.128   5.379 -0.6864 -1.1273 -0.4732
 9065TIP3   OH227158   2.779   5.540   4.925 -0.0788  0.0480  0.3078
 9065TIP3    H127159   2.825   5.460   4.950  1.0515  0.3440 -0.7107
 9065TIP3    H227160   2.812   5.607   4.984  2.1062  0.6116 -1.4516
 9066TIP3   OH227161   6.195   6.040   2.475  0.5986 -0.4282 -0.1669
 9066TIP3    H127162   6.218   5.966   2.419 -0.6088  0.0699 -1.3740
 9066TIP3    H227163   6.168   6.000   2.558  1.5275 -1.2277 -0.2318
 9067TIP3   OH227164   1.656   2.713   1.339  0.5975 -0.1258  0.0091
 9067TIP3    H127165   1.675   2.793   1.388 -1.4279  0.2896  0.1867
 9067TIP3    H227166   1.664   2.643   1.405  1.8236 -0.0471 -0.0242
 9068TIP3   OH227167   5.163   4.635   3.306  0.0376 -0.6576 -0.2317
 9068TIP3    H127168   5.135   4.561   3.358 -2.3257  1.3188  1.5401
 9068TIP3    H227169   5.082   4.675   3.274  1.1623  1.4090 -0.7380
 9069TIP3   OH227170   4.369   0.720   0.788  0.0469 -0.6295 -0.2576
 9069TIP3    H127171   4.296   0.659   0.777  2.2670 -3.5022 -0.3081
 9069TIP3    H227172   4.375   0.734   0.882  0.5365 -1.9271 -0.0746
 9070TIP3   OH227173   3.591   1.006   1.307  0.2294  0.0324 -0.0684
 9070TIP3    H127174   3.520   1.024   1.368 -1.0017 -0.6565 -1.2318
 9070TIP3    H227175   3.663   1.062   1.336 -0.3607 -0.1595  1.8763
 9071TIP3   OH227176   0.256   3.050   3.432 -0.1135  0.5622 -0.0610
 9071TIP3    H127177   0.330   3.009   3.388 -0.8497  0.6371 -1.4059
 9071TIP3    H227178   0.293   3.126   3.477  0.6919  0.3317 -0.3271
 9072TIP3   OH227179   4.218   1.955   1.785 -0.5745 -0.1431 -0.2570
 9072TIP3    H127180   4.184   2.016   1.719 -0.6868 -1.3980 -1.3873
 9072TIP3    H227181   4.310   1.944   1.762 -0.1855  0.7231  0.8370
 9073TIP3   OH227182   6.991   0.352   4.972  0.3270  0.3415  0.1476
 9073TIP3    H127183   6.960   0.415   4.908  0.0271  2.1530  1.9871
 9073TIP3    H227184   6.912   0.317   5.013  0.5379  0.1502  0.4041
 9074TIP3   OH227185   2.771   5.888   1.688  0.1836 -0.0389 -0.2533
 9074TIP3    H127186   2.823   5.824   1.737  2.5522  1.8232 -0.1083
 9074TIP3    H227187   2.747   5.954   1.752  1.0170  1.0779 -1.0477
 9075TIP3   OH227188   0.694   4.000   0.763  0.4019 -0.3332 -0.3244
 9075TIP3    H127189   0.606   3.982   0.797  0.4260 -2.0369 -1.0427
 9075TIP3    H227190   0.717   4.085   0.799 -0.8530 -0.6238  1.2728
 9076TIP3   OH227191   3.676   4.861   2.889  0.8907 -0.3337  0.1456
 9076TIP3    H127192   3.648   4.926   2.825  0.7733 -0.2424  0.2930
 9076TIP3    H227193   3.661   4.777   2.845  1.0260 -0.2653 -0.0365
 9077TIP3   OH227194   0.455   2.395   3.679 -0.0889  0.3659 -0.2424
 9077TIP3    H127195   0.539   2.349   3.673 -0.0817  0.2584  0.6332
 9077TIP3    H227196   0.478   2.482   3.710 -0.4427 -0.2322  1.8927
 9078TIP3   OH227197   2.556   5.784   0.745  0.1816 -0.4042 -0.4969
 9078TIP3    H127198   2.546   5.783   0.840  2.3073  2.8508 -0.0812
 9078TIP3    H227199   2.468   5.796   0.711 -0.4816 -0.4526  1.1210
 9079TIP3   OH227200   5.673   1.061   0.099 -0.1623 -0.7032 -0.0862
 9079TIP3    H127201   5.625   1.111   0.033 -0.4882  0.1506  0.7768
 9079TIP3    H227202   5.728   1.001   0.049 -1.1805 -0.8149 -1.1196
 9080TIP3   OH227203   1.863   0.977   1.393  0.1076 -0.2868 -0.3344
 9080TIP3    H127204   1.784   0.948   1.348  0.8329 -1.1723 -1.1048
 9080TIP3    H227205   1.834   1.003   1.480 -1.0275 -0.5967 -0.6105
 9081TIP3   OH227206   1.321   4.990   3.530 -0.3867  0.6302 -0.6015
 9081TIP3    H127207   1.267   4.927   3.578 -0.9696  0.3755 -1.5627
 9081TIP3    H227208   1.404   4.992   3.578 -0.1967 -1.1758 -0.7528
 9082TIP3   OH227209   2.520   0.764   2.556 -0.1312 -0.6689  0.2825
 9082TIP3    H127210   2.490   0.772   2.647 -1.6300 -1.4650 -0.1069
 9082TIP3    H227211   2.440   0.770   2.504  0.1477 -3.8733 -0.7469
 9083TIP3   OH227212   3.681   3.341   5.840  0.3304  0.6793 -0.2942
 9083TIP3    H127213   3.670   3.432   5.813 -0.2274 -0.1018 -3.0790
 9083TIP3    H227214   3.598   3.299   5.816  1.0488 -0.8146 -0.3234
 9084TIP3   OH227215   1.175   4.365   2.482  0.2207 -0.4245  0.2160
 9084TIP3    H127216   1.197   4.455   2.458 -1.0557  0.3173  1.6391
 9084TIP3    H227217   1.258   4.327   2.511  0.8177  0.2047 -0.6419
 9085TIP3   OH227218   6.622   5.610   3.370 -0.1407 -0.2896 -0.1912
 9085TIP3    H127219   6.715   5.586   3.377  0.5402  2.0613 -0.4120
 9085TIP3    H227220   6.577   5.542   3.421  1.9370 -0.0942  2.1430
 9086TIP3   OH227221   4.224   6.239   5.572 -0.5404  0.0078 -0.2895
 9086TIP3    H127222   4.287   6.268   5.638 -1.6370 -1.3683  1.4413
 9086TIP3    H227223   4.146   6.293   5.588 -0.6643 -0.0271 -0.7615
 9087TIP3   OH227224   1.721   1.213   1.740  0.3775 -0.6554  0.3311
 9087TIP3    H127225   1.631   1.188   1.759 -0.0590  0.0538 -0.6693
 9087TIP3    H227226   1.719   1.309   1.734  0.6851 -0.7217 -1.8991
 9088TIP3   OH227227   5.440   0.489   0.979  0.0408 -0.8388  0.0105
 9088TIP3    H127228   5.490   0.439   0.915 -0.5423 -1.6158  0.1481
 9088TIP3    H227229   5.415   0.569   0.932 -0.6207 -1.5247 -0.8406
 9089TIP3   OH227230   0.075   0.754   4.570 -0.0143 -0.1891  0.4385
 9089TIP3    H127231   0.159   0.716   4.546 -0.4236 -0.1888 -1.0764
 9089TIP3    H227232   0.014   0.723   4.503 -1.1475  0.1372  1.2802
 9090TIP3   OH227233   5.705   2.594   3.676  0.1732 -0.1914  0.1223
 9090TIP3    H127234   5.730   2.679   3.712  0.4116  0.3832 -1.3288
 9090TIP3    H227235   5.777   2.570   3.618 -0.9294 -0.2562 -1.2840
 9091TIP3   OH227236   6.150   6.663   2.088 -0.4238 -0.2182 -0.0592
 9091TIP3    H127237   6.113   6.746   2.061 -1.4421 -0.8052 -0.5267
 9091TIP3    H227238   6.231   6.655   2.038  0.2423  0.9687  0.7864
 9092TIP3   OH227239   1.400   2.454   0.859 -0.2392 -0.1344 -0.0527
 9092TIP3    H127240   1.415   2.502   0.940  1.8146 -1.2083  0.2854
 9092TIP3    H227241   1.368   2.368   0.887  1.3192 -0.8186 -0.2779
 9093TIP3   OH227242   6.689   4.551   3.085  0.1760  0.1720 -0.1058
 9093TIP3    H127243   6.665   4.632   3.038  1.3721  0.1389 -0.8163
 9093TIP3    H227244   6.608   4.524   3.127 -0.2509  1.7717  0.1916
 9094TIP3   OH227245   1.399   2.194   2.043 -0.1648 -0.0983 -0.0118
 9094TIP3    H127246   1.335   2.237   2.099 -1.0684 -0.9960 -0.3414
 9094TIP3    H227247   1.424   2.114   2.090 -0.3972 -0.4963 -0.5559
 9095TIP3   OH227248   1.991   6.351   3.242  0.1513 -0.8160  0.0913
 9095TIP3    H127249   1.956   6.319   3.158 -0.0636  0.1381 -0.1985
 9095TIP3    H227250   2.020   6.440   3.223  1.0293 -0.9386  0.7955
 9096TIP3   OH227251   4.423   2.334   2.580 -0.4434  0.2096 -0.0195
 9096TIP3    H127252   4.506   2.381   2.578 -0.6102  0.5122  0.1143
 9096TIP3    H227253   4.422   2.282   2.500 -0.8711  1.4864 -0.8627
 9097TIP3   OH227254   2.752   4.159   2.633 -0.0182  0.3149  0.3933
 9097TIP3    H127255   2.782   4.249   2.618  2.1382 -0.6802 -2.1334
 9097TIP3    H227256   2.692   4.166   2.707  0.9645  3.6397  1.0681
 9098TIP3   OH227257   3.042   1.740   5.381  0.0051 -0.4257  0.0741
 9098TIP3    H127258   3.132   1.767   5.365 -0.2182  0.4160  0.1863
 9098TIP3    H227259   2.993   1.775   5.306 -0.1651 -1.2754 -0.2273
 9099TIP3   OH227260   2.633   1.422   0.461  0.1149 -0.0941  0.7101
 9099TIP3    H127261   2.554   1.402   0.512  1.0445  1.0036  2.7216
 9099TIP3    H227262   2.654   1.513   0.484  0.9597  0.2346 -1.1925
 9100TIP3   OH227263   1.476   1.164   4.023 -0.2551 -0.2615 -0.1993
 9100TIP3    H127264   1.445   1.253   4.008  0.9007  0.0398 -0.8756
 9100TIP3    H227265   1.570   1.168   4.010  0.3533 -0.8690  3.1697
 9101TIP3   OH227266   3.699   4.103   5.277 -0.2198  0.8140 -0.2305
 9101TIP3    H127267   3.685   4.140   5.190 -0.0641  0.2246 -0.5101
 9101TIP3    H227268   3.623   4.047   5.292 -0.1344  0.7365 -0.0854
 9102TIP3   OH227269   1.278   5.821   4.920 -0.4054  0.3409 -0.1347
 9102TIP3    H127270   1.312   5.833   5.009 -0.0700 -1.8525  0.0938
 9102TIP3    H227271   1.316   5.738   4.891  1.9692  2.3673 -3.5249
 9103TIP3   OH227272   4.120   3.693   2.257 -0.8485 -0.1575  0.1620
 9103TIP3    H127273   4.180   3.767   2.267 -0.7942  0.1058 -1.7154
 9103TIP3    H227274   4.040   3.720   2.301 -0.1175  0.1210  1.3629
 9104TIP3   OH227275   4.518   1.638   4.006  0.6871 -0.2246  0.3604
 9104TIP3    H127276   4.536   1.555   4.049 -2.3285 -0.7383  0.8849
 9104TIP3    H227277   4.476   1.614   3.923 -1.3569  0.6684  1.0587
 9105TIP3   OH227278   5.665   1.683   1.159  0.3397 -0.0773  0.5787
 9105TIP3    H127279   5.643   1.773   1.135  0.7066  0.7657  3.0885
 9105TIP3    H227280   5.732   1.692   1.228  0.5163 -2.2713  0.7683
 9106TIP3   OH227281   0.766   0.212   4.587 -0.5042 -0.5058 -0.0003
 9106TIP3    H127282   0.788   0.293   4.634  0.1979 -0.4310 -0.4290
 9106TIP3    H227283   0.780   0.143   4.651 -0.7405 -0.3154  0.2600
 9107TIP3   OH227284   0.856   1.235   1.736  0.6930 -0.3609  0.0477
 9107TIP3    H127285   0.812   1.181   1.802  2.3194 -0.3575  1.1777
 9107TIP3    H227286   0.784   1.269   1.682 -0.6656 -0.6900  1.5551
 9108TIP3   OH227287   0.948   4.010   2.385  0.6310  0.1665 -0.0309
 9108TIP3    H127288   0.985   4.078   2.329  2.2946 -2.4349 -2.3878
 9108TIP3    H227289   1.019   3.990   2.447  0.7015 -0.3788 -0.2848
 9109TIP3   OH227290   4.411   5.902   2.478  0.1112  0.4748 -0.2833
 9109TIP3    H127291   4.395   5.939   2.565  1.0441 -1.7164  0.8858
 9109TIP3    H227292   4.434   5.978   2.424 -0.0173  1.8308  1.4859
 9110TIP3   OH227293   6.895   3.559   5.783  0.7582  0.4664 -0.7249
 9110TIP3    H127294   6.932   3.472   5.770 -0.5853 -0.2920  0.3086
 9110TIP3    H227295   6.862   3.585   5.697  2.2108  0.4830 -1.2976
 9111TIP3   OH227296   5.533   3.930   0.502  0.5672 -0.2644 -0.3586
 9111TIP3    H127297   5.454   3.877   0.503  0.3873  0.0073 -0.1565
 9111TIP3    H227298   5.591   3.887   0.565  1.1441 -1.3012 -1.5344
 9112TIP3   OH227299   2.865   1.449   3.547 -0.4633  0.3895  0.1667
 9112TIP3    H127300   2.904   1.527   3.586  1.1009  0.1934 -0.9010
 9112TIP3    H227301   2.883   1.457   3.453  0.2400 -1.5071  0.0916
 9113TIP3   OH227302   2.204   3.998   2.555 -0.5593  0.2536 -0.1596
 9113TIP3    H127303   2.162   3.920   2.590 -0.3591  0.5612  0.8000
 9113TIP3    H227304   2.191   4.064   2.624  0.7287  0.5980 -0.2351
 9114TIP3   OH227305   5.950   1.011   5.478 -0.2620  0.6216  0.0077
 9114TIP3    H127306   5.893   1.088   5.470 -2.1705 -0.8137 -0.9965
 9114TIP3    H227307   5.897   0.938   5.446  1.3664 -1.1978  1.2096
 9115TIP3   OH227308   6.934   4.475   0.466 -0.2959 -0.1981  0.6980
 9115TIP3    H127309   7.010   4.434   0.507  0.2278 -1.2598 -1.2338
 9115TIP3    H227310   6.916   4.552   0.520  0.5592 -1.3212  2.6778
 9116TIP3   OH227311   6.687   5.900   2.326  0.3598 -0.1513 -0.9402
 9116TIP3    H127312   6.712   5.901   2.233  0.8148 -2.3620 -0.8928
 9116TIP3    H227313   6.743   5.833   2.365 -0.3557  0.2146  0.7821
 9117TIP3   OH227314   5.146   5.367   5.092  0.3792 -0.2118 -0.2462
 9117TIP3    H127315   5.222   5.422   5.071  1.5355 -0.8406  2.0026
 9117TIP3    H227316   5.104   5.412   5.165  1.0515 -1.9628  1.2957
 9118TIP3   OH227317   4.162   5.235   5.223  0.4882 -0.5239 -0.2154
 9118TIP3    H127318   4.077   5.194   5.210  0.7633 -0.9548 -0.6900
 9118TIP3    H227319   4.220   5.163   5.249  0.9302 -0.4177 -0.8628
 9119TIP3   OH227320   4.127   1.533   4.572  0.3167 -0.1482 -0.4253
 9119TIP3    H127321   4.036   1.515   4.549  0.5107  1.7166 -3.1456
 9119TIP3    H227322   4.127   1.540   4.667 -2.3361 -0.3882 -0.3466
 9120TIP3   OH227323   6.420   1.661   1.076  0.4358  0.0531 -0.0286
 9120TIP3    H127324   6.428   1.749   1.038  1.5189 -0.3704 -0.8208
 9120TIP3    H227325   6.441   1.673   1.169  0.7776  0.5940 -0.1722
 9121TIP3   OH227326   1.496   4.424   0.906  0.3821  0.6261 -0.1204
 9121TIP3    H127327   1.458   4.338   0.889  1.3570  0.0886  0.3492
 9121TIP3    H227328   1.461   4.449   0.991 -0.1399  0.8386 -0.3925
 9122TIP3   OH227329   2.109   3.052   4.698 -0.2313 -0.2714 -0.3507
 9122TIP3    H127330   2.062   2.979   4.660 -0.3943 -1.0244  1.2159
 9122TIP3    H227331   2.148   3.098   4.623 -1.7229 -0.8239 -1.4959
 9123TIP3   OH227332   7.123   2.390   1.320  0.0031  0.0795  0.0546
 9123TIP3    H127333   7.088   2.327   1.257 -1.5020 -0.4749  1.3738
 9123TIP3    H227334   7.179   2.339   1.378  2.1733  0.7539 -1.3095
 9124TIP3   OH227335   3.965   0.932   1.669  0.5296 -0.0408  0.2392
 9124TIP3    H127336   3.901   0.866   1.697  1.0305 -0.3952  0.5718
 9124TIP3    H227337   3.915   0.995   1.617  0.2242 -1.2150 -0.9306
 9125TIP3   OH227338   3.029   3.202   1.544 -0.2196 -0.1970  0.1138
 9125TIP3    H127339   3.059   3.225   1.456  1.9712 -0.4628  0.7214
 9125TIP3    H227340   3.026   3.286   1.590 -0.6447 -0.1424 -0.0125
 9126TIP3   OH227341   2.617   4.020   2.284  0.6706 -0.5574 -0.1371
 9126TIP3    H127342   2.578   4.106   2.303 -0.4694 -1.0894 -0.0018
 9126TIP3    H227343   2.696   4.041   2.234 -0.5574  0.5215 -1.7468
 9127TIP3   OH227344   2.932   6.055   5.422  0.9777 -0.0256 -0.0135
 9127TIP3    H127345   2.838   6.039   5.423  1.0091 -0.3962  1.8310
 9127TIP3    H227346   2.941   6.144   5.387 -0.0746  0.1033  0.0040
 9128TIP3   OH227347   3.914   5.475   1.900 -0.1675  0.0857 -0.0090
 9128TIP3    H127348   3.943   5.477   1.809  2.0094 -2.4686  0.4826
 9128TIP3    H227349   3.833   5.423   1.898 -0.0292 -0.1194 -0.4905
 9129TIP3   OH227350   5.945   0.843   3.924 -0.0936 -0.4286 -0.0521
 9129TIP3    H127351   6.030   0.888   3.932 -0.4414  0.2501 -0.0994
 9129TIP3    H227352   5.923   0.849   3.831 -0.2645 -0.4804 -0.0152
 9130TIP3   OH227353   3.987   6.689   3.733 -0.3324  0.3046 -0.5043
 9130TIP3    H127354   4.051   6.719   3.798 -0.8768  0.0890  0.1403
 9130TIP3    H227355   3.912   6.748   3.745 -0.5166  0.1285 -0.7956
 9131TIP3   OH227356   4.588   6.166   4.414 -0.2240  0.3016  0.1581
 9131TIP3    H127357   4.606   6.228   4.484  0.8116  0.5804 -0.3363
 9131TIP3    H227358   4.534   6.098   4.456  1.0617  0.0152  1.4674
 9132TIP3   OH227359   0.255   3.639   4.368  0.2489 -0.5981  0.6761
 9132TIP3    H127360   0.334   3.672   4.413 -0.2701  0.2683  0.9755
 9132TIP3    H227361   0.183   3.661   4.427 -0.2891 -0.8034  0.1021
 9133TIP3   OH227362   6.226   5.352   4.841  0.1270 -0.8135  0.1969
 9133TIP3    H127363   6.255   5.352   4.932 -0.0663 -1.4908  0.2635
 9133TIP3    H227364   6.280   5.285   4.798  0.8003  0.0842 -0.3821
 9134TIP3   OH227365   3.584   6.517   1.238  0.0549 -0.1773  0.3165
 9134TIP3    H127366   3.648   6.585   1.219 -0.4095  0.1722 -0.0451
 9134TIP3    H227367   3.556   6.485   1.152  0.3214 -0.8786  0.4877
 9135TIP3   OH227368   5.521   2.910   0.897 -0.1645  0.6097 -0.5892
 9135TIP3    H127369   5.474   2.994   0.895  0.3305  1.0299  2.1760
 9135TIP3    H227370   5.612   2.934   0.882  0.1019  0.7290  1.0518
 9136TIP3   OH227371   7.116   6.145   0.081 -0.1626 -0.6725 -0.4134
 9136TIP3    H127372   7.054   6.218   0.083 -0.2838 -0.7913  0.8726
 9136TIP3    H227373   7.145   6.136   0.172  1.5133 -0.8253 -0.9276
 9137TIP3   OH227374   2.212   5.784   5.294 -0.3879 -0.0115  0.1759
 9137TIP3    H127375   2.213   5.689   5.282 -2.2364 -0.0302 -0.0276
 9137TIP3    H227376   2.282   5.816   5.237 -0.2184 -1.1917 -0.2990
 9138TIP3   OH227377   2.860   5.882   4.742  0.4136 -0.1524  0.0204
 9138TIP3    H127378   2.771   5.863   4.770  0.2274  1.0220  0.2797
 9138TIP3    H227379   2.868   5.839   4.657 -0.9320  1.0007 -0.7350
 9139TIP3   OH227380   5.039   1.826   4.022  0.6322 -0.0657  0.1858
 9139TIP3    H127381   4.953   1.867   4.029 -0.5817 -2.5720  1.3002
 9139TIP3    H227382   5.099   1.898   4.006 -1.4281  2.0029  1.2163
 9140TIP3   OH227383   7.004   1.328   1.196  0.4606 -0.2743  0.2512
 9140TIP3    H127384   7.003   1.372   1.281  1.1025  1.9545 -0.8074
 9140TIP3    H227385   6.913   1.333   1.166  0.4605  0.0407  0.2952
 9141TIP3   OH227386   0.446   0.093   2.795  0.2149  0.3080 -0.7393
 9141TIP3    H127387   0.462   0.023   2.732 -1.0236 -0.8895  0.2037
 9141TIP3    H227388   0.473   0.056   2.879 -1.2417  0.6063 -0.1018
 9142TIP3   OH227389   0.393   5.915   3.133 -0.2144 -0.5561  0.0880
 9142TIP3    H127390   0.427   6.001   3.112  1.1995 -1.0274  0.3812
 9142TIP3    H227391   0.438   5.855   3.073 -0.6469 -1.1750  0.3662
 9143TIP3   OH227392   2.872   4.021   4.086  0.0819  0.2798 -0.2421
 9143TIP3    H127393   2.886   4.088   4.020  0.8815  1.3834  1.0016
 9143TIP3    H227394   2.777   4.022   4.102  0.2758  2.5767  1.1824
 9144TIP3   OH227395   0.566   1.436   5.481  0.2183 -0.7248  0.4670
 9144TIP3    H127396   0.591   1.349   5.512  1.0066 -0.3150  1.0084
 9144TIP3    H227397   0.472   1.428   5.462 -0.4448 -0.9593  3.2713
 9145TIP3   OH227398   6.732   1.856   3.708  0.7341 -0.1852  0.5195
 9145TIP3    H127399   6.708   1.765   3.693  2.6598 -0.9380  1.6986
 9145TIP3    H227400   6.825   1.853   3.730  0.8327  2.0673  0.6119
 9146TIP3   OH227401   6.055   1.755   1.217  0.6294  0.1996  0.4640
 9146TIP3    H127402   6.101   1.696   1.277  1.6103  1.3822  0.9213
 9146TIP3    H227403   6.018   1.822   1.274  0.4065  0.5963 -0.1443
 9147TIP3   OH227404   6.240   3.082   3.825 -0.1379  0.2860  0.3196
 9147TIP3    H127405   6.161   3.056   3.778  0.1483  0.5373 -0.3134
 9147TIP3    H227406   6.236   3.034   3.908  0.5674 -2.1738 -0.9656
 9148TIP3   OH227407   6.792   1.083   0.887 -0.0615 -0.3782 -0.5227
 9148TIP3    H127408   6.885   1.095   0.906 -0.4686  2.6112  0.1115
 9148TIP3    H227409   6.770   1.155   0.828 -1.7206 -1.8663 -1.8326
 9149TIP3   OH227410   5.738   2.417   4.266 -0.3133  0.3150  0.3541
 9149TIP3    H127411   5.776   2.370   4.192 -1.8891  0.8210 -0.8204
 9149TIP3    H227412   5.786   2.384   4.342  0.1087 -1.5849 -0.6717
 9150TIP3   OH227413   2.586   6.045   4.173 -0.4711 -0.0444  0.3194
 9150TIP3    H127414   2.537   5.963   4.177  0.3879 -0.5608  0.5184
 9150TIP3    H227415   2.615   6.052   4.082  0.5659 -0.6457  0.5844
 9151TIP3   OH227416   6.142   4.526   2.515 -0.4473  0.3793  0.0728
 9151TIP3    H127417   6.061   4.576   2.506 -0.1376  0.9049  0.1995
 9151TIP3    H227418   6.211   4.587   2.488 -0.0981 -0.0926 -0.1215
 9152TIP3   OH227419   0.813   3.012   3.930 -0.0422 -0.6311 -0.2393
 9152TIP3    H127420   0.883   3.012   3.996 -0.4699 -1.9792  0.2476
 9152TIP3    H227421   0.853   2.971   3.853  0.0198 -0.4024 -0.3303
 9153TIP3   OH227422   6.833   2.590   3.070  0.0836 -0.0593  0.4962
 9153TIP3    H127423   6.792   2.548   3.145 -0.6763 -0.6851 -0.2492
 9153TIP3    H227424   6.810   2.535   2.996  2.1098 -0.3141 -0.0079
 9154TIP3   OH227425   4.345   6.693   0.270  0.5101 -0.1402 -0.1166
 9154TIP3    H127426   4.358   6.705   0.176  0.0142  1.7547  0.0047
 9154TIP3    H227427   4.278   6.625   0.276  1.4884 -1.2307 -1.0687
 9155TIP3   OH227428   7.063   4.616   1.209  0.2521 -0.1029  0.1563
 9155TIP3    H127429   7.065   4.635   1.115 -1.1434  1.7604  0.4301
 9155TIP3    H227430   6.970   4.603   1.229  0.5941 -1.1605  1.1703
 9156TIP3   OH227431   2.997   1.870   5.107 -0.2284  0.3671 -0.0152
 9156TIP3    H127432   2.964   1.953   5.141  0.9880  1.2362 -0.9219
 9156TIP3    H227433   2.918   1.818   5.093 -0.9592  1.0702  1.2718
 9157TIP3   OH227434   6.670   6.163   1.189 -0.5407  0.1561  0.2659
 9157TIP3    H127435   6.762   6.173   1.215 -1.1394  1.1437  2.2453
 9157TIP3    H227436   6.640   6.251   1.169 -1.4570  0.1017  1.2571
 9158TIP3   OH227437   7.007   6.264   3.417 -0.2347 -0.1845 -0.1340
 9158TIP3    H127438   7.078   6.309   3.463  0.7879 -0.6679 -1.1868
 9158TIP3    H227439   6.989   6.186   3.470 -0.9208  0.6037  0.8397
 9159TIP3   OH227440   1.482   3.164   1.386  0.0726  0.2005 -0.0103
 9159TIP3    H127441   1.427   3.238   1.411  0.0651  0.2034 -0.0351
 9159TIP3    H227442   1.501   3.179   1.293 -1.3908 -0.7322 -0.4967
 9160TIP3   OH227443   6.035   6.662   1.784  0.1808  0.1054  0.5149
 9160TIP3    H127444   6.114   6.685   1.833  0.2550  1.4975 -0.2042
 9160TIP3    H227445   6.057   6.684   1.693 -0.8154 -0.0866  0.2249
 9161TIP3   OH227446   4.459   4.755   2.404  0.2340 -0.0919 -0.0192
 9161TIP3    H127447   4.393   4.823   2.395  0.0952 -0.2663 -0.3587
 9161TIP3    H227448   4.416   4.676   2.370  0.0151 -0.5912  1.3779
 9162TIP3   OH227449   2.645   1.280   4.966 -0.1696  0.4538 -0.1866
 9162TIP3    H127450   2.661   1.246   5.054  2.3753  2.6585  0.3445
 9162TIP3    H227451   2.648   1.375   4.977  0.3818  0.7772 -2.6682
 9163TIP3   OH227452   2.175   6.440   1.701 -0.0678  0.1526  0.1553
 9163TIP3    H127453   2.172   6.412   1.793  1.0963 -3.1896 -0.6803
 9163TIP3    H227454   2.254   6.493   1.695 -0.2193  0.5130  1.0804
 9164TIP3   OH227455   7.113   4.657   2.583  0.2042 -0.2720  0.6511
 9164TIP3    H127456   7.153   4.710   2.652  0.8412  0.1822 -0.0659
 9164TIP3    H227457   7.077   4.720   2.521 -0.0453 -0.6775  0.3793
 9165TIP3   OH227458   0.460   4.234   2.528  0.3341 -0.4481  0.6900
 9165TIP3    H127459   0.458   4.170   2.599  1.2928 -1.4188 -0.1305
 9165TIP3    H227460   0.515   4.193   2.461 -0.7684  0.3280 -0.7185
 9166TIP3   OH227461   3.903   2.565   1.086  0.9808 -0.2892  0.3678
 9166TIP3    H127462   3.826   2.551   1.141 -0.2178  1.4771 -0.7483
 9166TIP3    H227463   3.933   2.477   1.063 -1.9449 -1.0945 -0.8168
 9167TIP3   OH227464   2.438   4.724   1.782  0.0363  0.4103 -0.3954
 9167TIP3    H127465   2.416   4.635   1.756  1.1311  0.4607 -1.5663
 9167TIP3    H227466   2.354   4.763   1.808 -0.2331 -1.4564  1.8193
 9168TIP3   OH227467   7.140   6.296   1.443 -0.4847  0.2428  0.1246
 9168TIP3    H127468   7.232   6.319   1.450 -0.3665  0.0249 -0.5927
 9168TIP3    H227469   7.097   6.375   1.411 -0.2394 -0.1919 -1.3501
 9169TIP3   OH227470   6.318   3.067   4.152  0.3607 -0.5784  0.7646
 9169TIP3    H127471   6.359   3.143   4.113  0.5179 -0.7883  0.5179
 9169TIP3    H227472   6.369   3.050   4.231 -0.5378  0.4228  1.5955
 9170TIP3   OH227473   6.181   5.536   1.242  0.2569 -0.1950  0.1100
 9170TIP3    H127474   6.257   5.493   1.202 -0.6960 -0.5539 -1.3790
 9170TIP3    H227475   6.198   5.630   1.231  1.3490 -0.1934  1.4956
 9171TIP3   OH227476   6.442   3.377   0.539  0.1277  0.1629  0.0168
 9171TIP3    H127477   6.521   3.390   0.592  0.9981 -3.2318 -0.2202
 9171TIP3    H227478   6.376   3.346   0.602 -0.3740  0.8622 -0.1505
 9172TIP3   OH227479   3.485   3.290   3.611  0.6605 -0.0659  0.2700
 9172TIP3    H127480   3.527   3.222   3.557  0.9841 -1.8473  2.6062
 9172TIP3    H227481   3.550   3.311   3.678 -0.4842  0.5522  1.2147
 9173TIP3   OH227482   1.322   0.306   1.163  0.6708 -0.0921 -0.3281
 9173TIP3    H127483   1.278   0.333   1.243  1.1574  2.1099 -0.7372
 9173TIP3    H227484   1.252   0.297   1.099  0.5539  1.1434 -0.3951
 9174TIP3   OH227485   6.412   0.424   5.211  0.4183 -0.4004  0.2982
 9174TIP3    H127486   6.365   0.477   5.148 -1.1186 -2.7356 -0.6649
 9174TIP3    H227487   6.438   0.485   5.281 -0.3566  1.7123 -1.1773
 9175TIP3   OH227488   4.267   5.605   1.990  0.4074  0.1155 -0.3160
 9175TIP3    H127489   4.217   5.686   2.000  0.1377 -0.2252  1.5252
 9175TIP3    H227490   4.249   5.576   1.901  0.0041  1.7379 -0.7978
 9176TIP3   OH227491   6.209   5.279   1.813  0.1189  0.0631 -0.7840
 9176TIP3    H127492   6.128   5.285   1.863  2.2849  1.5471  3.0068
 9176TIP3    H227493   6.253   5.201   1.848 -1.2534 -3.5004 -5.8962
 9177TIP3   OH227494   5.305   4.136   0.556  0.2492  0.5118 -0.2115
 9177TIP3    H127495   5.391   4.148   0.597 -0.3711 -0.5690  1.5151
 9177TIP3    H227496   5.320   4.155   0.463  2.4268  0.0369 -0.0112
 9178TIP3   OH227497   4.765   0.986   0.019  0.0435  0.1912 -0.1676
 9178TIP3    H127498   4.750   1.001  -0.075  0.3555 -0.5829 -0.3515
 9178TIP3    H227499   4.758   1.073   0.059  1.8544  0.8698 -1.1759
 9179TIP3   OH227500   5.593   0.761   0.225 -0.3723 -0.0087  0.4365
 9179TIP3    H127501   5.563   0.671   0.240 -1.7905  0.4582  0.6042
 9179TIP3    H227502   5.537   0.793   0.154 -0.0339  0.8138  0.5307
 9180TIP3   OH227503   0.963   5.618   3.203  0.0201  0.3127  0.0702
 9180TIP3    H127504   1.045   5.634   3.250 -0.9896  0.0401  2.0307
 9180TIP3    H227505   0.907   5.691   3.226 -1.0523 -0.6516  0.6131
 9181TIP3   OH227506   0.048   6.619   3.373  0.1085 -0.0968 -1.1092
 9181TIP3    H127507  -0.036   6.632   3.330 -0.6284  1.6587  0.6610
 9181TIP3    H227508   0.081   6.708   3.388  2.0073 -0.7349 -1.2233
 9182TIP3   OH227509   4.241   0.625   3.449  0.5088 -0.0851 -0.1046
 9182TIP3    H127510   4.278   0.697   3.396  0.5703 -1.2997 -1.7932
 9182TIP3    H227511   4.276   0.640   3.537  2.0545  0.8771 -0.8374
 9183TIP3   OH227512   2.781   2.850   1.177 -0.6890 -0.0011  0.1796
 9183TIP3    H127513   2.777   2.868   1.083 -1.3925 -0.4520  0.1149
 9183TIP3    H227514   2.820   2.929   1.215  0.8599 -0.3522 -0.6278
 9184TIP3   OH227515   5.575   5.699   5.776 -0.1745  0.2113 -0.2568
 9184TIP3    H127516   5.637   5.631   5.799 -1.6686 -0.9291  0.6022
 9184TIP3    H227517   5.515   5.657   5.714 -2.0886  0.1478  1.5151
 9185TIP3   OH227518   1.836   5.496   3.193  0.2698  0.0852 -0.2309
 9185TIP3    H127519   1.764   5.522   3.251 -1.9014 -4.0958 -0.6523
 9185TIP3    H227520   1.907   5.471   3.252  1.0571  3.0238  0.2236
 9186TIP3   OH227521   1.606   4.035   1.938  0.0215  0.2158 -0.3335
 9186TIP3    H127522   1.566   3.949   1.954  0.8045 -0.0814  0.0745
 9186TIP3    H227523   1.646   4.026   1.852 -1.9158  0.9576 -1.3753
 9187TIP3   OH227524   3.167   6.456   0.177 -0.5954  0.6144 -0.3324
 9187TIP3    H127525   3.160   6.423   0.267 -0.0672  0.4597 -0.3445
 9187TIP3    H227526   3.116   6.538   0.178  0.7132  1.4554  0.5407
 9188TIP3   OH227527   5.437   2.372   5.533 -0.1702  0.1430  0.1522
 9188TIP3    H127528   5.478   2.451   5.498  0.6619  0.0993  1.0066
 9188TIP3    H227529   5.345   2.397   5.545  0.1768  1.1552  0.8764
 9189TIP3   OH227530   5.933   0.134   5.741 -0.0275 -0.8428  0.6084
 9189TIP3    H127531   5.966   0.190   5.670  0.8859 -1.4234  0.5684
 9189TIP3    H227532   5.841   0.161   5.751 -0.8595 -2.1971 -2.2458
 9190TIP3   OH227533   2.720   1.858   4.192  0.0285 -0.7550 -0.2696
 9190TIP3    H127534   2.686   1.944   4.217 -0.8514 -1.0771 -0.3209
 9190TIP3    H227535   2.644   1.812   4.156  0.2977 -1.8416  0.5104
 9191TIP3   OH227536   0.368   1.035   4.268  0.1922 -0.0388 -0.1758
 9191TIP3    H127537   0.307   1.069   4.203 -0.0724  0.0243  0.0982
 9191TIP3    H227538   0.312   0.999   4.337  0.4565  0.3949  0.2770
 9192TIP3   OH227539   4.068   4.037   1.975  0.5534 -0.4964  0.1084
 9192TIP3    H127540   4.102   4.101   2.038  0.3834 -1.7667  1.5661
 9192TIP3    H227541   4.136   3.970   1.970  0.1562 -0.8757 -0.3508
 9193TIP3   OH227542   5.796  -0.014   0.679 -0.2167  0.2580 -0.3572
 9193TIP3    H127543   5.866   0.050   0.693  1.1947 -1.0453 -1.0885
 9193TIP3    H227544   5.718   0.028   0.713  0.8901  1.8445  0.3616
 9194TIP3   OH227545   2.835   5.947   2.607  0.0550  0.0264  0.2064
 9194TIP3    H127546   2.789   6.028   2.631  0.0593  0.8807 -2.4144
 9194TIP3    H227547   2.777   5.877   2.637 -0.2701  0.9720  1.9399
 9195TIP3   OH227548   6.408   0.249   1.831 -0.2558 -0.4831  0.1950
 9195TIP3    H127549   6.364   0.178   1.878  1.0721 -0.5926  1.3320
 9195TIP3    H227550   6.419   0.216   1.742 -0.7502 -1.2044  0.3917
 9196TIP3   OH227551   2.274   3.047   1.814  0.0403 -0.0489  0.0003
 9196TIP3    H127552   2.302   2.974   1.759 -0.7514  0.0185 -0.5094
 9196TIP3    H227553   2.232   3.108   1.753 -0.7211  0.0949  0.6529
 9197TIP3   OH227554   4.778   0.347   4.586  0.5117  0.3443  0.1924
 9197TIP3    H127555   4.715   0.279   4.610 -0.3066  0.4263 -1.5770
 9197TIP3    H227556   4.819   0.315   4.506  3.0872  0.0986  1.4863
 9198TIP3   OH227557   1.480   0.466   0.376 -0.2420  0.3775  0.4902
 9198TIP3    H127558   1.561   0.453   0.327 -0.5005 -1.8795  0.5831
 9198TIP3    H227559   1.415   0.489   0.309  0.1403  0.7792  0.2467
 9199TIP3   OH227560   4.958   5.897   5.067 -0.0532  0.0100 -0.2802
 9199TIP3    H127561   4.972   5.902   4.972 -0.6553  1.3086 -0.3258
 9199TIP3    H227562   5.044   5.875   5.103  0.2171 -0.3372 -1.1091
 9200TIP3   OH227563   4.167   3.768   5.126 -0.0482 -0.3704  0.0484
 9200TIP3    H127564   4.159   3.807   5.039 -3.7374 -0.7691  0.0211
 9200TIP3    H227565   4.189   3.841   5.184 -0.0401  0.3918 -0.8958
 9201TIP3   OH227566   3.879   3.142   2.319  0.0374  0.3279 -0.4614
 9201TIP3    H127567   3.886   3.233   2.350  0.9483 -0.1829  0.9348
 9201TIP3    H227568   3.965   3.121   2.284  0.6858 -0.7683  1.5978
 9202TIP3   OH227569   3.912   0.288   1.440  0.0144  0.4314  0.0498
 9202TIP3    H127570   3.886   0.307   1.530  0.4890  0.0254  0.2777
 9202TIP3    H227571   4.006   0.270   1.445  0.4672  2.3235 -0.8232
 9203TIP3   OH227572   6.482   6.233   4.643 -0.4076 -0.7127 -0.4471
 9203TIP3    H127573   6.464   6.314   4.691  4.6230  0.8361 -0.5985
 9203TIP3    H227574   6.495   6.261   4.553 -0.6548 -2.0914 -0.9307
 9204TIP3   OH227575   5.312   6.623   5.799 -0.8301  0.1620 -0.1924
 9204TIP3    H127576   5.322   6.718   5.787 -0.8556  0.5245  2.2856
 9204TIP3    H227577   5.388   6.585   5.753 -1.3462  1.2579 -2.0688
 9205TIP3   OH227578   1.842   3.237   3.196  0.4479 -0.2055 -0.1964
 9205TIP3    H127579   1.793   3.246   3.277 -0.1797 -3.1658 -0.1318
 9205TIP3    H227580   1.882   3.150   3.201  2.2038  0.4081 -2.1133
 9206TIP3   OH227581   0.259   0.314   3.071  0.3062 -0.3631 -0.2434
 9206TIP3    H127582   0.236   0.223   3.052  1.5839 -1.2308  1.8689
 9206TIP3    H227583   0.237   0.324   3.164 -1.5779  2.1413 -0.8525
 9207TIP3   OH227584   3.816   2.791   1.891 -0.2274  0.0449 -0.1588
 9207TIP3    H127585   3.788   2.700   1.894 -0.8203  0.2148 -0.4176
 9207TIP3    H227586   3.814   2.820   1.982  0.3954 -0.3197 -0.0187
 9208TIP3   OH227587   1.599   6.518   3.483 -0.6385 -0.2202 -0.0279
 9208TIP3    H127588   1.616   6.430   3.449  0.9922  0.1358 -0.1990
 9208TIP3    H227589   1.657   6.526   3.559  0.5266  1.2995 -1.0156
 9209TIP3   OH227590   1.869   4.188   3.477 -0.5421 -0.1943 -0.3759
 9209TIP3    H127591   1.823   4.221   3.399  2.5214  2.2732 -1.3568
 9209TIP3    H227592   1.892   4.098   3.455 -0.0982  0.3267 -2.2433
 9210TIP3   OH227593   6.381   6.018   5.343 -1.0648  0.0052  0.9327
 9210TIP3    H127594   6.358   6.043   5.254 -2.8368 -2.4248  0.6037
 9210TIP3    H227595   6.323   6.070   5.399 -1.7812 -0.3290  0.5097
 9211TIP3   OH227596   2.052   3.296   5.882  0.4349  0.1426  0.7935
 9211TIP3    H127597   2.072   3.319   5.791 -3.4294 -0.1301 -0.3201
 9211TIP3    H227598   2.101   3.215   5.898  0.0319 -0.6759 -1.6405
 9212TIP3   OH227599   0.806   6.378   1.372  0.2437 -0.5493 -0.5902
 9212TIP3    H127600   0.741   6.307   1.371 -1.8735  1.2677 -0.9045
 9212TIP3    H227601   0.862   6.359   1.447 -2.1333 -1.0001  1.1721
 9213TIP3   OH227602   6.743   2.647   1.158  0.0292 -0.2958  0.1280
 9213TIP3    H127603   6.657   2.608   1.170 -0.3197 -0.5785 -2.6687
 9213TIP3    H227604   6.801   2.573   1.142  0.1623  0.0466 -1.0738
 9214TIP3   OH227605   0.487   1.800   2.440 -0.0749 -0.3816  0.2185
 9214TIP3    H127606   0.504   1.840   2.354  1.4514 -2.4061 -0.4753
 9214TIP3    H227607   0.420   1.857   2.479  0.0587  1.2854 -1.7949
 9215TIP3   OH227608   3.521   1.121   5.625  0.2805  0.4071  0.3482
 9215TIP3    H127609   3.523   1.052   5.692  1.6996 -0.5985 -0.6666
 9215TIP3    H227610   3.465   1.086   5.556  0.5552  0.4978  0.0765
 9216TIP3   OH227611   0.303   0.361   0.817  0.5209 -0.3177  0.2584
 9216TIP3    H127612   0.363   0.287   0.818  1.3334  0.2963 -0.5591
 9216TIP3    H227613   0.349   0.428   0.767 -0.5911  0.4046  0.1619
 9217TIP3   OH227614   5.642   0.076   4.049 -0.0554 -0.2365 -0.2189
 9217TIP3    H127615   5.614   0.120   4.130  0.1212 -1.4974  0.5646
 9217TIP3    H227616   5.615  -0.015   4.062  0.8901 -0.6583 -1.1506
 9218TIP3   OH227617   4.603   3.499   1.233 -0.0409  0.1660 -0.0522
 9218TIP3    H127618   4.528   3.506   1.292  0.4485  1.0529  0.4872
 9218TIP3    H227619   4.564   3.487   1.146 -0.9825  4.0400 -0.3198
 9219TIP3   OH227620   3.561   1.402   3.909  0.4780 -0.4399  0.4048
 9219TIP3    H127621   3.491   1.387   3.973 -0.0217  0.3943  0.0672
 9219TIP3    H227622   3.533   1.354   3.831 -0.1320  0.5691 -0.0056
 9220TIP3   OH227623   1.092   5.461   2.537  0.0189 -0.3084  0.1810
 9220TIP3    H127624   1.046   5.531   2.492 -0.2742 -0.9684 -0.5830
 9220TIP3    H227625   1.070   5.472   2.630 -2.4831 -1.1535 -0.2259
 9221TIP3   OH227626   1.525   5.326   1.348  0.5008 -0.3080  0.6336
 9221TIP3    H127627   1.477   5.260   1.298  0.8339  0.5975 -0.9485
 9221TIP3    H227628   1.465   5.351   1.419 -0.8770 -0.0569 -0.5858
 9222TIP3   OH227629   2.824   6.328   0.868 -0.4108  0.0458  0.1441
 9222TIP3    H127630   2.778   6.325   0.952 -0.9444  0.4275 -0.1323
 9222TIP3    H227631   2.813   6.240   0.832  0.8679 -0.5052  1.0140
 9223TIP3   OH227632   5.192   1.816   4.668  0.0318  0.4285 -0.2579
 9223TIP3    H127633   5.206   1.893   4.612 -2.1378  2.2149  1.4774
 9223TIP3    H227634   5.235   1.838   4.750 -0.3410 -0.3563  0.1549
 9224TIP3   OH227635   0.909   2.516   5.386 -0.3387 -0.0451  0.0366
 9224TIP3    H127636   0.905   2.494   5.293  1.6965 -0.1616 -0.0671
 9224TIP3    H227637   0.970   2.591   5.390 -1.7254  1.0791  1.1117
 9225TIP3   OH227638   6.062   1.092   5.726 -0.2149 -0.0660 -0.1698
 9225TIP3    H127639   6.060   1.030   5.653 -2.3288 -0.5290  0.2409
 9225TIP3    H227640   6.084   1.038   5.803 -1.1739 -0.1544  0.0446
 9226TIP3   OH227641   5.122   0.702   2.509  0.2097  0.0778 -0.3058
 9226TIP3    H127642   5.097   0.658   2.428 -0.7963 -0.2930  0.1820
 9226TIP3    H227643   5.053   0.678   2.571  0.9597  0.3510  0.6607
 9227TIP3   OH227644   2.140   4.881   0.397  0.3310 -0.3070 -0.1614
 9227TIP3    H127645   2.172   4.816   0.335 -0.5397 -1.0868  0.1822
 9227TIP3    H227646   2.187   4.863   0.478  0.5256 -0.1192 -0.2315
 9228TIP3   OH227647   1.537   3.406   3.927 -0.0705  0.0333 -0.4635
 9228TIP3    H127648   1.525   3.331   3.984  2.2998 -0.8755 -1.0450
 9228TIP3    H227649   1.465   3.465   3.949 -0.0717 -0.9118  2.3745
 9229TIP3   OH227650   1.379   4.150   3.007 -0.0718  0.0426  0.0306
 9229TIP3    H127651   1.373   4.222   2.943 -0.0160  0.9373  1.0072
 9229TIP3    H227652   1.453   4.174   3.062 -0.8673 -0.0950  1.1786
 9230TIP3   OH227653   0.958   2.194   0.133  0.3230 -0.0477  0.0716
 9230TIP3    H127654   1.045   2.212   0.097  0.2409  1.9915  0.7264
 9230TIP3    H227655   0.962   2.228   0.223 -1.3855  0.9360 -0.1631
 9231TIP3   OH227656   4.866   5.603   0.808  0.1346  0.1808 -0.0079
 9231TIP3    H127657   4.954   5.629   0.835 -0.3553 -0.1275  2.0138
 9231TIP3    H227658   4.880   5.535   0.743  1.3912 -0.1818  0.6183
 9232TIP3   OH227659   4.152   6.324   0.052 -0.0747  0.3496  0.0783
 9232TIP3    H127660   4.218   6.273   0.006 -0.9746  0.0825 -0.9624
 9232TIP3    H227661   4.074   6.269   0.051 -1.1153  1.7502 -1.2065
 9233TIP3   OH227662   2.713   1.535   4.964  0.1362  0.0094  0.1088
 9233TIP3    H127663   2.804   1.512   4.979  0.5851  1.1449 -0.6824
 9233TIP3    H227664   2.713   1.631   4.961 -0.7014  0.0046 -1.9696
 9234TIP3   OH227665   3.720   5.570   5.460  0.0142  0.2856  0.8521
 9234TIP3    H127666   3.800   5.556   5.410 -1.0501 -1.7522 -0.3885
 9234TIP3    H227667   3.654   5.594   5.395 -1.0837 -1.0898  1.3992
 9235TIP3   OH227668   3.420   3.053   2.010  0.2053  0.6223 -0.5699
 9235TIP3    H127669   3.489   3.113   2.038  0.3952  0.1223  0.0793
 9235TIP3    H227670   3.394   3.084   1.924  0.2036  1.7089 -0.1889
 9236TIP3   OH227671   4.649   6.448   5.847  0.7785 -0.8342  0.0291
 9236TIP3    H127672   4.640   6.506   5.771 -1.1619  0.2773  1.0212
 9236TIP3    H227673   4.580   6.477   5.907  0.9497 -2.9970  1.3664
 9237TIP3   OH227674   0.431   5.704   4.594 -0.1371 -0.6701 -0.4105
 9237TIP3    H127675   0.347   5.694   4.640 -0.2128  0.4862 -0.2858
 9237TIP3    H227676   0.412   5.763   4.522  0.5651 -0.4402 -0.4136
 9238TIP3   OH227677   2.745   1.384   5.555  0.3510 -0.3065  0.1219
 9238TIP3    H127678   2.827   1.342   5.579  0.1684 -0.8279 -0.1625
 9238TIP3    H227679   2.772   1.466   5.514  0.8531 -1.4835 -2.0433
 9239TIP3   OH227680   2.802   2.704   1.670 -0.9280  0.3530 -0.6836
 9239TIP3    H127681   2.732   2.769   1.666  0.0659  1.5230  0.5552
 9239TIP3    H227682   2.880   2.750   1.640  0.0681  0.1504  1.4773
 9240TIP3   OH227683   1.587   5.412   2.794 -0.3525  0.5808 -0.4392
 9240TIP3    H127684   1.516   5.408   2.731 -0.1946 -2.7190 -0.5777
 9240TIP3    H227685   1.550   5.378   2.876  0.2379  1.9493  0.4441
 9241TIP3   OH227686   1.348   3.617   3.996  0.1611  0.7534  0.7630
 9241TIP3    H127687   1.373   3.694   3.945  0.3983  0.7586  0.8888
 9241TIP3    H227688   1.264   3.591   3.959  0.0087  1.1597  0.8189
 9242TIP3   OH227689   1.117   1.406   5.281  0.0114 -0.3154  0.6439
 9242TIP3    H127690   1.026   1.377   5.285  0.1944 -1.2489 -1.1103
 9242TIP3    H227691   1.112   1.494   5.242 -0.0716 -0.8951 -0.6940
 9243TIP3   OH227692   1.828   1.490   2.018  0.0930  0.4935  0.3487
 9243TIP3    H127693   1.889   1.538   2.074 -1.4127  0.5686  2.0206
 9243TIP3    H227694   1.782   1.431   2.078 -1.3106  0.2855 -0.8679
 9244TIP3   OH227695   0.180   3.849   1.969 -0.8328 -0.1409 -0.8180
 9244TIP3    H127696   0.123   3.900   1.913 -0.6225  0.1104 -0.8056
 9244TIP3    H227697   0.132   3.768   1.986 -1.4462  0.3173 -0.3133
 9245TIP3   OH227698   5.467   3.291   2.398 -0.3211  0.6647 -0.6319
 9245TIP3    H127699   5.527   3.293   2.472 -1.5403 -1.0960  0.4766
 9245TIP3    H227700   5.497   3.361   2.340  1.7756  0.8864  0.6483
 9246TIP3   OH227701   2.401   1.350   5.721  0.1279  0.0124 -0.2433
 9246TIP3    H127702   2.460   1.402   5.776 -0.4766  0.0574  0.3781
 9246TIP3    H227703   2.316   1.354   5.766 -0.1737 -0.6636 -0.7273
 9247TIP3   OH227704   3.248   1.931   1.182  0.6691 -0.5800 -0.0765
 9247TIP3    H127705   3.333   1.957   1.146 -0.0735 -0.7377 -2.0806
 9247TIP3    H227706   3.218   2.008   1.231  0.3959  0.8814 -2.3821
 9248TIP3   OH227707   4.073   3.789   0.138 -0.1936 -0.2774  0.2044
 9248TIP3    H127708   4.026   3.707   0.123 -1.8768  0.8002 -0.7773
 9248TIP3    H227709   4.067   3.803   0.232 -1.7881 -0.2653  0.1378
 9249TIP3   OH227710   3.764   3.023   3.264  0.0728 -0.0145  0.0053
 9249TIP3    H127711   3.848   3.063   3.283 -0.8415  2.1477 -0.2023
 9249TIP3    H227712   3.750   3.040   3.171  0.5666 -2.7556 -0.6644
 9250TIP3   OH227713   6.938   0.855   1.268  0.2911 -0.2415 -0.2544
 9250TIP3    H127714   6.923   0.946   1.242  2.5750  0.3204  0.1865
 9250TIP3    H227715   6.907   0.803   1.194 -0.6574  0.9130 -0.6891
 9251TIP3   OH227716   1.359   5.982   3.259 -0.0942  0.1536  0.2523
 9251TIP3    H127717   1.395   6.006   3.174 -2.4872 -0.6024 -1.0680
 9251TIP3    H227718   1.270   6.017   3.258 -1.7378 -3.5377  0.5646
 9252TIP3   OH227719   3.742   1.504   2.268 -0.0081  0.4263  0.0690
 9252TIP3    H127720   3.687   1.545   2.201  0.3676  0.5444 -0.1670
 9252TIP3    H227721   3.758   1.573   2.332 -2.0530 -0.2087  1.3613
 9253TIP3   OH227722   4.179   6.575   4.814 -0.0382 -0.4699 -0.0932
 9253TIP3    H127723   4.217   6.640   4.872 -1.0095 -0.1718  0.2371
 9253TIP3    H227724   4.242   6.503   4.813  0.9363  0.3698 -0.2763
 9254TIP3   OH227725   0.739   3.090   1.921 -0.1799 -0.1357  0.7751
 9254TIP3    H127726   0.821   3.091   1.871 -0.8263 -2.5012 -0.4854
 9254TIP3    H227727   0.678   3.143   1.870 -0.6493 -2.0060 -0.6893
 9255TIP3   OH227728   6.403   6.498   4.772 -0.2380 -0.3943  0.2894
 9255TIP3    H127729   6.476   6.540   4.819 -0.5241 -1.1169  1.4389
 9255TIP3    H227730   6.362   6.569   4.724  1.2484  0.0265 -0.4257
 9256TIP3   OH227731   5.972   1.010   1.462  0.2386 -0.3806 -0.7632
 9256TIP3    H127732   5.916   0.950   1.511  0.7194 -0.0559  0.2264
 9256TIP3    H227733   5.930   1.019   1.377 -1.4612  0.1836  0.0926
 9257TIP3   OH227734   4.630   1.341   5.770  0.1691 -0.0852 -0.0888
 9257TIP3    H127735   4.575   1.416   5.748  0.5383  0.5841  1.1550
 9257TIP3    H227736   4.575   1.265   5.753 -0.2109  0.4603 -1.3746
 9258TIP3   OH227737   4.959   6.143   2.708 -0.8285 -0.3216 -0.5462
 9258TIP3    H127738   4.891   6.124   2.773 -0.3266  1.9674  0.7745
 9258TIP3    H227739   4.939   6.232   2.678  1.2974  0.2626 -0.4253
 9259TIP3   OH227740   0.632   6.035   3.335 -0.1505  0.0990  0.2384
 9259TIP3    H127741   0.671   6.115   3.371  0.3627 -0.2367  0.4204
 9259TIP3    H227742   0.570   6.067   3.269  0.2345  0.6401  0.1346
 9260TIP3   OH227743   3.225   3.647   0.519  0.2034  0.2225  0.0720
 9260TIP3    H127744   3.294   3.644   0.585  0.4265  2.2157 -0.0009
 9260TIP3    H227745   3.243   3.572   0.462 -0.3587 -1.9257  2.5529
 9261TIP3   OH227746   2.523   5.391   0.620 -0.1663  0.0951  0.0037
 9261TIP3    H127747   2.547   5.343   0.541 -1.5385  1.2927 -1.2102
 9261TIP3    H227748   2.600   5.445   0.639  0.1943 -0.2327 -0.4852
 9262TIP3   OH227749   2.368   0.309   2.373  0.1199 -0.0184  0.0707
 9262TIP3    H127750   2.298   0.256   2.333  1.2783 -0.4140 -1.5218
 9262TIP3    H227751   2.341   0.400   2.358 -0.1640 -0.1666 -0.3200
 9263TIP3   OH227752   3.565   3.487   4.506  0.3960 -0.1316  0.2526
 9263TIP3    H127753   3.558   3.428   4.431 -1.4377 -0.6126  0.7396
 9263TIP3    H227754   3.615   3.562   4.473  1.3958 -1.2206 -0.8365
 9264TIP3   OH227755   6.136   6.299   2.535 -0.5065 -0.2995  0.1861
 9264TIP3    H127756   6.169   6.222   2.488  0.3217 -1.8232  3.0055
 9264TIP3    H227757   6.051   6.272   2.570  0.2297 -0.3779  2.0397
 9265TIP3   OH227758   4.327   2.846   3.736 -0.1987  0.6287  0.1555
 9265TIP3    H127759   4.256   2.906   3.757 -0.3654  0.2397  0.7271
 9265TIP3    H227760   4.391   2.900   3.689 -1.0263  0.8926 -0.6872
 9266TIP3   OH227761   2.340   0.744   0.066 -0.5977 -0.1859 -0.0504
 9266TIP3    H127762   2.424   0.707   0.039 -0.8100  0.3191 -1.5079
 9266TIP3    H227763   2.275   0.682   0.034 -0.7940 -0.8180  1.4909
 9267TIP3   OH227764   3.798   1.703   4.045 -0.1150 -0.2772  0.4153
 9267TIP3    H127765   3.708   1.682   4.070 -1.0342 -1.5270 -3.2659
 9267TIP3    H227766   3.851   1.635   4.088 -1.0871 -0.4718  1.3565
 9268TIP3   OH227767   4.169   6.723   3.923  0.0186 -0.1907  0.0706
 9268TIP3    H127768   4.173   6.688   4.012 -0.4919 -0.0708  0.1413
 9268TIP3    H227769   4.199   6.813   3.931  1.1782 -0.5425 -0.0856
 9269TIP3   OH227770   3.116   0.447   0.575 -0.0967 -0.2294 -0.6600
 9269TIP3    H127771   3.045   0.506   0.598 -0.7072 -0.0777 -2.7879
 9269TIP3    H227772   3.181   0.502   0.531  0.5940 -0.6791 -0.2420
 9270TIP3   OH227773   0.610   1.033   2.569  0.8467 -0.5012 -0.6225
 9270TIP3    H127774   0.517   1.016   2.581  0.7662 -0.6318 -1.3331
 9270TIP3    H227775   0.627   1.115   2.614  0.1799  0.0128 -1.2899
 9271TIP3   OH227776   2.980   0.698   1.140  0.0494  0.4676  0.2466
 9271TIP3    H127777   3.068   0.687   1.103  0.3031  0.6594  0.7881
 9271TIP3    H227778   2.937   0.760   1.080 -0.6987 -1.7384 -1.6368
 9272TIP3   OH227779   3.266   3.298   4.685  0.3935 -0.1034 -0.1262
 9272TIP3    H127780   3.323   3.280   4.760  2.7088 -1.6844 -2.0900
 9272TIP3    H227781   3.319   3.354   4.629 -0.2785 -0.9472 -1.6510
 9273TIP3   OH227782   2.459   2.243   5.324  0.3669 -0.1120 -0.2307
 9273TIP3    H127783   2.497   2.171   5.374  0.1926 -0.5911 -0.7804
 9273TIP3    H227784   2.365   2.226   5.324  0.1473  0.9211  0.8862
 9274TIP3   OH227785   1.191   0.947   5.605  0.1773  0.2261 -0.0161
 9274TIP3    H127786   1.199   1.007   5.679 -0.8518 -0.7767  0.9460
 9274TIP3    H227787   1.279   0.912   5.593  0.0582 -0.8462  1.8559
 9275TIP3   OH227788   3.222   1.085   0.761 -0.0251 -0.7303  0.4874
 9275TIP3    H127789   3.268   1.078   0.844 -1.9353 -0.0076  1.6855
 9275TIP3    H227790   3.145   1.139   0.781 -0.3482 -0.2189 -1.8414
 9276TIP3   OH227791   2.449   2.617   0.847  0.0187  0.0130  0.2670
 9276TIP3    H127792   2.437   2.690   0.908  0.0276 -0.2894  0.6332
 9276TIP3    H227793   2.427   2.539   0.898 -0.0742 -0.2360 -0.1459
 9277TIP3   OH227794   4.096   1.165   2.869  0.4665 -0.0260 -0.5145
 9277TIP3    H127795   4.130   1.210   2.947  0.8870 -0.9795 -0.1276
 9277TIP3    H227796   4.123   1.073   2.881  1.4964 -0.0080 -2.2943
 9278TIP3   OH227797   1.056   1.324   2.083  0.0854 -0.7017 -0.1297
 9278TIP3    H127798   0.969   1.358   2.062 -0.6445 -1.0654  2.0497
 9278TIP3    H227799   1.064   1.244   2.030 -0.6981 -0.4301 -0.6856
 9279TIP3   OH227800   5.518   1.894   0.321 -0.5071 -0.0750 -0.0601
 9279TIP3    H127801   5.434   1.853   0.301 -0.8214  1.0359 -1.1521
 9279TIP3    H227802   5.499   1.988   0.325  0.2993  0.0609  1.7844
 9280TIP3   OH227803   1.926   2.297   1.176 -0.0634 -0.6076 -0.7889
 9280TIP3    H127804   1.930   2.375   1.121  1.0574 -1.1426 -1.5045
 9280TIP3    H227805   1.947   2.328   1.265 -0.1690 -0.0132 -0.9718
 9281TIP3   OH227806   3.917   2.802   1.228  0.6922  0.3290 -0.2395
 9281TIP3    H127807   3.979   2.791   1.300  0.5419 -0.8994 -0.2872
 9281TIP3    H227808   3.911   2.716   1.187 -1.4007  0.2931  0.0385
 9282TIP3   OH227809   4.695   6.221   0.672 -0.1492  0.1367  0.1847
 9282TIP3    H127810   4.753   6.145   0.680 -0.1502  0.2818  2.1784
 9282TIP3    H227811   4.738   6.289   0.725 -1.3874  0.7112  0.4780
 9283TIP3   OH227812   1.073   4.487   3.221  0.0175 -0.5968  0.3175
 9283TIP3    H127813   1.108   4.398   3.222 -0.7090 -1.0176  3.6600
 9283TIP3    H227814   1.117   4.530   3.149  1.5611 -3.2264 -0.4466
 9284TIP3   OH227815   5.973   5.241   0.397  0.2331 -0.0673  0.2274
 9284TIP3    H127816   5.939   5.330   0.392  1.4290  0.3567 -1.5684
 9284TIP3    H227817   6.068   5.252   0.402  0.3333 -1.2494  1.5189
 9285TIP3   OH227818   2.618   4.411   0.277 -0.6049 -0.2961  1.0134
 9285TIP3    H127819   2.616   4.469   0.353 -0.0335 -0.3825  1.0989
 9285TIP3    H227820   2.698   4.359   0.288 -1.7375 -1.9876  1.5753
 9286TIP3   OH227821   5.352   6.056   3.323 -0.4929  0.0737  0.4558
 9286TIP3    H127822   5.300   5.979   3.302 -0.6407  0.6163 -1.3675
 9286TIP3    H227823   5.304   6.129   3.284  1.2028  0.6830 -0.5954
 9287TIP3   OH227824   0.110   2.061   0.653  0.7818 -0.1563  0.1971
 9287TIP3    H127825   0.118   1.983   0.598  1.1421  0.6257 -0.8934
 9287TIP3    H227826   0.166   2.043   0.729  1.3695 -0.6869 -0.3531
 9288TIP3   OH227827   3.900   0.031   4.072 -0.6458  0.3299  0.8491
 9288TIP3    H127828   3.897   0.114   4.120 -1.8261  0.6235  0.3121
 9288TIP3    H227829   3.935   0.055   3.986  0.0132  0.0732  1.0382
 9289TIP3   OH227830   0.424   0.260   5.591  0.4016  0.1819 -0.2791
 9289TIP3    H127831   0.456   0.350   5.590 -0.3946  0.4907  0.4118
 9289TIP3    H227832   0.351   0.261   5.653 -0.3792 -0.6841 -1.1470
 9290TIP3   OH227833   1.572   3.173   5.150 -0.0807  0.5394 -0.5633
 9290TIP3    H127834   1.476   3.179   5.146 -0.2262 -0.3282  0.7929
 9290TIP3    H227835   1.589   3.121   5.229  1.4781 -0.5129 -1.5406
 9291TIP3   OH227836   2.222   6.776   0.078 -0.0238 -0.1785  0.1812
 9291TIP3    H127837   2.239   6.771  -0.017 -0.0962  1.9556  0.0089
 9291TIP3    H227838   2.220   6.685   0.106  0.7811 -0.8552 -1.7357
 9292TIP3   OH227839   5.003   5.427   5.313  0.0723 -0.1952 -0.7299
 9292TIP3    H127840   4.934   5.405   5.375  2.0224 -0.7678  1.3975
 9292TIP3    H227841   4.961   5.484   5.249 -1.8545  1.3120  1.7149
 9293TIP3   OH227842   5.901   0.200   0.797  0.0236  0.4478 -0.4986
 9293TIP3    H127843   5.875   0.261   0.866 -0.0863 -0.8679  0.6960
 9293TIP3    H227844   5.996   0.209   0.793  0.1541 -0.1890  0.5974
 9294TIP3   OH227845   6.092   2.528   3.165  0.2026 -0.3404  0.7633
 9294TIP3    H127846   6.087   2.525   3.069  0.2813 -2.7252  0.7714
 9294TIP3    H227847   6.162   2.591   3.183 -1.2564  1.8381 -0.6168
 9295TIP3   OH227848   7.208   3.314   4.394  0.8110 -0.2830  0.4105
 9295TIP3    H127849   7.224   3.265   4.474  1.1495  0.1159  0.5873
 9295TIP3    H227850   7.180   3.401   4.423  2.3386  0.3379  0.1279
 9296TIP3   OH227851   4.412   2.218   5.663 -0.3721 -0.1726 -0.1090
 9296TIP3    H127852   4.411   2.292   5.602  1.6128  0.0407  0.0468
 9296TIP3    H227853   4.488   2.233   5.719 -0.2937 -1.9927  0.3635
 9297TIP3   OH227854   0.729   1.220   0.790 -0.1218 -0.2654  0.2014
 9297TIP3    H127855   0.768   1.153   0.845  0.1970  0.7486  1.2680
 9297TIP3    H227856   0.739   1.301   0.840  1.1944  0.9155 -1.8327
 9298TIP3   OH227857   0.738   3.756   3.642  0.4179 -0.2196  0.6700
 9298TIP3    H127858   0.782   3.768   3.558 -0.1841 -0.8525  0.2511
 9298TIP3    H227859   0.721   3.845   3.673 -0.7780  0.0575 -0.6473
 9299TIP3   OH227860   3.637   4.623   2.760  0.4115  0.0948 -0.0222
 9299TIP3    H127861   3.642   4.636   2.666 -0.1087  0.9457  0.0612
 9299TIP3    H227862   3.643   4.528   2.771  1.0204  0.0238 -0.8664
 9300TIP3   OH227863   1.154   0.640   2.354  0.3332  0.0746  0.6922
 9300TIP3    H127864   1.076   0.666   2.402 -0.8188 -0.2984 -0.9092
 9300TIP3    H227865   1.187   0.721   2.315 -0.0846  0.0128  0.2046
 9301TIP3   OH227866   1.014   6.188   5.770  0.0312 -0.8293  0.1200
 9301TIP3    H127867   1.102   6.189   5.808  0.3751 -0.7000 -0.6677
 9301TIP3    H227868   1.026   6.154   5.681 -0.4736  0.6861 -0.5669
 9302TIP3   OH227869   3.023   6.433   2.904  0.1188  0.1897 -0.0242
 9302TIP3    H127870   3.075   6.398   2.976 -0.3250 -0.8827 -0.2117
 9302TIP3    H227871   2.939   6.389   2.911 -0.5328  1.3696 -0.1655
 9303TIP3   OH227872   4.265   4.525   1.843  0.1129  0.9096 -0.0569
 9303TIP3    H127873   4.307   4.452   1.889 -0.4075  1.5988  1.6175
 9303TIP3    H227874   4.300   4.603   1.886 -2.0717  1.5321  0.7741
 9304TIP3   OH227875   0.515   3.046   1.207 -0.0523 -0.1257 -0.7539
 9304TIP3    H127876   0.432   3.089   1.183 -1.6441 -1.4649  1.8717
 9304TIP3    H227877   0.553   3.020   1.123 -2.4142  0.3452 -2.0751
 9305TIP3   OH227878   1.410   6.721   0.404 -0.7775  0.0277  0.0244
 9305TIP3    H127879   1.382   6.632   0.383  1.2143 -1.0044  1.4160
 9305TIP3    H227880   1.441   6.716   0.495  0.2115  1.9350 -0.1532
 9306TIP3   OH227881   0.500   2.776   4.276  0.1654 -0.3945 -0.1879
 9306TIP3    H127882   0.525   2.687   4.254  0.4249 -0.2666 -0.4077
 9306TIP3    H227883   0.532   2.830   4.204  2.8075  0.3042  1.3857
 9307TIP3   OH227884   3.131   0.236   1.975 -0.4525 -0.0894  0.0125
 9307TIP3    H127885   3.078   0.216   2.052  1.9294 -0.9538  1.5527
 9307TIP3    H227886   3.120   0.331   1.962 -1.3864 -0.0421  1.0169
 9308TIP3   OH227887   3.302   2.486   0.727 -0.3549  0.2450 -0.4498
 9308TIP3    H127888   3.343   2.469   0.642  0.6553  1.9174 -0.3487
 9308TIP3    H227889   3.359   2.441   0.790 -0.0021  0.5999 -0.5099
 9309TIP3   OH227890   0.586   0.566   2.590  0.1087 -0.3141  0.2410
 9309TIP3    H127891   0.652   0.632   2.611  0.3120 -0.3020 -0.3970
 9309TIP3    H227892   0.516   0.615   2.546 -1.1512 -0.0345  2.4415
 9310TIP3   OH227893   2.827   2.458   0.456 -0.0150  0.0064  0.5592
 9310TIP3    H127894   2.912   2.494   0.481  0.1656  0.2895 -0.4218
 9310TIP3    H227895   2.817   2.480   0.364 -0.7975 -0.7296  0.4466
 9311TIP3   OH227896   2.123   5.118   4.332 -0.6429  0.2332  0.1299
 9311TIP3    H127897   2.096   5.202   4.295 -0.4660 -0.1867 -0.9952
 9311TIP3    H227898   2.075   5.053   4.282 -0.1276 -0.3689  0.4041
 9312TIP3   OH227899   5.521   6.631   2.831 -0.0531  0.4365 -0.1069
 9312TIP3    H127900   5.547   6.719   2.859 -0.9228  0.9837 -0.9608
 9312TIP3    H227901   5.428   6.625   2.853 -0.0615 -0.1812 -0.2856
 9313TIP3   OH227902   3.932   2.653   4.768 -0.4220 -0.2451  0.0693
 9313TIP3    H127903   4.002   2.705   4.729  0.1907 -0.6371  0.6197
 9313TIP3    H227904   3.975   2.602   4.837 -1.0886 -1.1325 -0.1473
 9314TIP3   OH227905   6.204   1.320   2.041 -0.0166 -0.0315  0.2855
 9314TIP3    H127906   6.218   1.361   2.126 -0.3510 -0.5344  0.5859
 9314TIP3    H227907   6.219   1.226   2.056  2.4716  0.1086 -0.7544
 9315TIP3   OH227908   3.959   1.946   1.410 -0.0145  0.2178  0.3225
 9315TIP3    H127909   3.955   1.977   1.320  0.7914  2.3701  0.9649
 9315TIP3    H227910   3.871   1.964   1.445 -1.1334 -2.8060 -0.5933
 9316TIP3   OH227911   2.921   2.710   2.791 -0.7059  0.2106  0.0307
 9316TIP3    H127912   2.866   2.642   2.832  0.5142 -1.5490 -1.1147
 9316TIP3    H227913   2.870   2.790   2.800 -2.2723 -0.8638  1.3477
 9317TIP3   OH227914   5.450   2.827   5.264 -0.3110  0.4584  0.0459
 9317TIP3    H127915   5.425   2.865   5.348  0.7397  0.2834  0.4468
 9317TIP3    H227916   5.494   2.898   5.217 -1.2273  0.6677 -0.5205
 9318TIP3   OH227917   2.891   5.107   5.511 -0.5513  0.0005  0.2784
 9318TIP3    H127918   2.937   5.163   5.449  1.4498 -0.6869  1.0514
 9318TIP3    H227919   2.889   5.158   5.592 -0.3479 -0.3298  0.4929
 9319TIP3   OH227920   2.052   6.224   3.469 -0.2299  0.0674 -0.5852
 9319TIP3    H127921   2.004   6.254   3.392 -0.0995 -0.6533 -0.9572
 9319TIP3    H227922   1.988   6.173   3.519 -0.6318  1.4630  0.3690
 9320TIP3   OH227923   5.690   0.415   4.579 -0.2098  0.1060  0.6711
 9320TIP3    H127924   5.658   0.351   4.642 -0.2938 -0.5857 -0.0550
 9320TIP3    H227925   5.627   0.487   4.583 -1.6187 -0.9998 -0.3485
 9321TIP3   OH227926   5.882   4.591   3.166  0.4352 -0.4372  0.3438
 9321TIP3    H127927   5.872   4.582   3.260 -0.0541 -0.4747  0.2895
 9321TIP3    H227928   5.976   4.603   3.153  0.4616 -0.0401  0.8653
 9322TIP3   OH227929   7.037   4.455   3.875  0.5320  0.0310  0.0478
 9322TIP3    H127930   6.958   4.469   3.927  0.8012 -0.1225  0.5022
 9322TIP3    H227931   7.014   4.485   3.787  0.0297  0.1599  0.2233
 9323TIP3   OH227932   3.897   5.166   0.980 -0.3931  0.4753  0.0446
 9323TIP3    H127933   3.898   5.228   1.054 -1.9118  0.1790  0.3588
 9323TIP3    H227934   3.848   5.091   1.014  1.9751 -1.2377 -0.1036
 9324TIP3   OH227935   6.717   5.462   2.588 -0.4154  0.3123 -0.1178
 9324TIP3    H127936   6.647   5.495   2.645 -1.9977 -1.1327 -1.1250
 9324TIP3    H227937   6.786   5.435   2.648 -1.3899  0.2961  1.0316
 9325TIP3   OH227938   0.909   2.033   3.347 -0.2635 -0.5369  0.4212
 9325TIP3    H127939   0.912   1.941   3.371  0.6727 -0.5947  0.1062
 9325TIP3    H227940   0.982   2.073   3.394  1.3740 -0.5724 -1.9525
 9326TIP3   OH227941   2.874   2.174   4.561  0.2995 -0.0823  0.1422
 9326TIP3    H127942   2.870   2.201   4.470 -0.1831 -2.0650 -0.4823
 9326TIP3    H227943   2.915   2.088   4.559  1.3057  0.3001  1.9290
 9327TIP3   OH227944   2.069   6.623   0.569 -0.4179 -0.0419 -0.3613
 9327TIP3    H127945   2.042   6.578   0.649 -1.8861  0.0527 -0.7765
 9327TIP3    H227946   2.109   6.705   0.600 -2.8836  1.0101  0.2670
 9328TIP3   OH227947   1.452   5.185   2.303  0.6652  0.0823 -0.1128
 9328TIP3    H127948   1.546   5.192   2.289  0.8291  0.3695  1.0136
 9328TIP3    H227949   1.431   5.257   2.362 -0.1764 -0.2681  0.0363
 9329TIP3   OH227950   1.499   1.418   3.700 -0.6009  0.1046  0.0476
 9329TIP3    H127951   1.424   1.390   3.646 -0.4229 -1.5122  0.5692
 9329TIP3    H227952   1.574   1.411   3.641 -0.6410  0.0450  0.0024
 9330TIP3   OH227953   6.947   4.170   5.423  0.1298 -0.2226 -0.0670
 9330TIP3    H127954   6.892   4.230   5.474 -1.1699 -0.0121 -1.6036
 9330TIP3    H227955   7.035   4.208   5.428 -0.3444  0.8721  0.3888
 9331TIP3   OH227956   1.301   6.190   3.561 -0.1870 -0.2243  0.3652
 9331TIP3    H127957   1.347   6.136   3.496 -0.4006 -0.0807  0.0917
 9331TIP3    H227958   1.273   6.128   3.628  0.9953 -0.2186  0.8754
 9332TIP3   OH227959   1.426   4.589   5.396  0.7184  0.6397  0.0857
 9332TIP3    H127960   1.426   4.637   5.479  0.5358  0.4036  0.2216
 9332TIP3    H227961   1.432   4.497   5.421  1.1749  0.5956 -0.1800
 9333TIP3   OH227962   4.588   6.309   2.131 -0.3121  0.0684 -0.5006
 9333TIP3    H127963   4.635   6.391   2.143 -1.3687  0.7084 -0.6280
 9333TIP3    H227964   4.655   6.241   2.142  0.7261  0.9585 -1.1621
 9334TIP3   OH227965   1.025   5.250   0.354  0.0557 -0.0617  0.5535
 9334TIP3    H127966   1.003   5.157   0.363 -1.0658  0.2997  1.8799
 9334TIP3    H227967   0.977   5.280   0.277 -0.4642 -0.3305  0.7736
 9335TIP3   OH227968   1.902   1.431   4.137  0.1877  0.1463 -0.0068
 9335TIP3    H127969   1.978   1.395   4.092 -0.6546 -0.5741 -0.8924
 9335TIP3    H227970   1.851   1.473   4.068  0.1831  1.3631  0.7087
 9336TIP3   OH227971   6.898   6.511   5.105  0.4077 -0.1473 -0.2330
 9336TIP3    H127972   6.939   6.596   5.096 -0.0165  0.0448 -0.3626
 9336TIP3    H227973   6.909   6.489   5.198  0.9315 -0.1716 -0.2956
 9337TIP3   OH227974   4.237   2.566   5.091 -0.0124  0.5615 -0.7286
 9337TIP3    H127975   4.211   2.658   5.087 -0.5934  0.7536  3.5840
 9337TIP3    H227976   4.171   2.520   5.038 -2.8113  2.1774  1.1284
 9338TIP3   OH227977   3.782   0.855   0.556 -0.1490 -0.5814  0.4328
 9338TIP3    H127978   3.720   0.870   0.628 -0.3429 -0.7555  0.3024
 9338TIP3    H227979   3.845   0.926   0.564 -0.8890  0.1391 -0.0035
 9339TIP3   OH227980   3.760   3.339   1.371  0.3941  0.7596 -0.0373
 9339TIP3    H127981   3.685   3.391   1.401  0.0188  0.4201 -0.3624
 9339TIP3    H227982   3.720   3.263   1.329  0.9377  0.1150  0.5968
 9340TIP3   OH227983   6.270   6.330   1.811  0.1433  0.2967 -0.4715
 9340TIP3    H127984   6.321   6.281   1.746  0.2706 -1.2611  0.7538
 9340TIP3    H227985   6.179   6.312   1.788  0.1632 -1.8275  0.8211
 9341TIP3   OH227986   3.089   5.551   3.163  0.3929  0.1852 -0.3892
 9341TIP3    H127987   3.175   5.586   3.142  0.4430  0.5581  0.4017
 9341TIP3    H227988   3.066   5.592   3.246 -0.8792  0.6742 -0.9586
 9342TIP3   OH227989   2.482   5.961   4.733  0.1335  0.0828  0.1118
 9342TIP3    H127990   2.516   5.902   4.800 -2.0864 -1.1793  0.2345
 9342TIP3    H227991   2.521   5.929   4.652 -0.5898 -1.2472  0.2550
 9343TIP3   OH227992   1.903   1.485   1.153 -0.0060  0.0564  0.9875
 9343TIP3    H127993   1.936   1.397   1.168  0.9995  0.4721  1.3136
 9343TIP3    H227994   1.968   1.526   1.095 -1.6782 -0.1678 -1.1977
 9344TIP3   OH227995   6.284   4.831   0.173  0.1474  0.3355 -0.5040
 9344TIP3    H127996   6.207   4.849   0.228  0.0202  1.9315 -1.1277
 9344TIP3    H227997   6.253   4.768   0.108 -0.2120 -0.1489  0.1241
 9345TIP3   OH227998   0.247   2.469   4.059  0.1532  0.0080  0.7525
 9345TIP3    H127999   0.275   2.558   4.039  1.5120 -0.5403  0.1104
 9345TIP3    H228000   0.259   2.461   4.154  0.1153  0.4665  0.7988
 9346TIP3   OH228001   1.026   5.276   2.341 -0.2171 -0.2527 -0.4759
 9346TIP3    H128002   1.016   5.320   2.425 -0.7174  0.9213 -1.1392
 9346TIP3    H228003   1.059   5.343   2.281  0.9717 -1.2796 -1.0352
 9347TIP3   OH228004   6.634   0.928   1.324 -0.0555 -0.8814 -0.0411
 9347TIP3    H128005   6.710   0.985   1.310  0.1538 -1.3767 -1.0469
 9347TIP3    H228006   6.672   0.845   1.351 -0.2207 -1.1391 -0.5761
 9348TIP3   OH228007   1.764   2.262   1.716  0.1025  0.2827  0.0289
 9348TIP3    H128008   1.804   2.332   1.766 -0.0556  0.7823 -0.5309
 9348TIP3    H228009   1.837   2.210   1.683  0.2154  0.1202  0.5312
 9349TIP3   OH228010   6.244   3.553   0.482 -0.1301  0.4482 -0.1819
 9349TIP3    H128011   6.332   3.528   0.455 -0.5022  1.1017 -2.1606
 9349TIP3    H228012   6.188   3.482   0.451 -0.3423  0.0342  1.0672
 9350TIP3   OH228013   4.576   3.503   1.553 -0.0648 -0.3188 -0.2494
 9350TIP3    H128014   4.499   3.539   1.597 -1.0548  0.1086 -2.2328
 9350TIP3    H228015   4.568   3.408   1.566  0.0260 -0.1720  1.0092
 9351TIP3   OH228016   5.619   3.346   4.755 -0.3891 -0.4377 -0.3311
 9351TIP3    H128017   5.643   3.337   4.663  0.3390 -0.9338 -0.0992
 9351TIP3    H228018   5.528   3.316   4.759 -0.0808 -1.4709 -0.7026
 9352TIP3   OH228019   4.537   0.452   0.542  0.2391  0.1908  0.6408
 9352TIP3    H128020   4.562   0.472   0.632 -1.3662  1.3953  0.8496
 9352TIP3    H228021   4.443   0.465   0.539 -0.0578 -1.8012 -0.7279
 9353TIP3   OH228022   5.593   0.237   5.273 -0.1599  0.1268  0.0490
 9353TIP3    H128023   5.616   0.151   5.309 -1.1324 -0.8452 -1.5301
 9353TIP3    H228024   5.634   0.239   5.186  1.0205  1.8683  0.5831
 9354TIP3   OH228025   0.808   0.819   0.914  0.3847  0.1199 -0.3267
 9354TIP3    H128026   0.845   0.779   0.993 -1.1060 -1.0255 -0.1492
 9354TIP3    H228027   0.820   0.913   0.926 -3.1825  0.4128  3.2257
 9355TIP3   OH228028   6.754   1.081   0.488  0.3979  0.1339 -0.2126
 9355TIP3    H128029   6.824   1.019   0.509  0.3047 -0.2052 -0.8595
 9355TIP3    H228030   6.754   1.085   0.392  1.1503  2.0158 -0.1749
 9356TIP3   OH228031   6.253   2.206   2.895 -0.2460 -0.1623 -0.0898
 9356TIP3    H128032   6.317   2.194   2.965  0.2515  0.8787 -0.3471
 9356TIP3    H228033   6.185   2.262   2.933  0.1904  0.6791 -0.5256
 9357TIP3   OH228034   5.638   2.454   0.810 -0.2319 -0.2119 -0.3096
 9357TIP3    H128035   5.710   2.490   0.757 -0.1599 -0.1246 -0.1537
 9357TIP3    H228036   5.650   2.494   0.896  1.1198 -2.1727  0.5098
 9358TIP3   OH228037   6.054   1.296   4.619 -0.5640  0.6208  0.5554
 9358TIP3    H128038   6.142   1.334   4.622  2.4794 -4.9727 -1.9213
 9358TIP3    H228039   6.038   1.279   4.526 -1.8400 -2.9626  1.2671
 9359TIP3   OH228040   2.076   0.547   1.276  0.4968  0.0020  0.4164
 9359TIP3    H128041   2.023   0.593   1.340  0.8331  0.6925  0.2083
 9359TIP3    H228042   2.127   0.615   1.232  0.7836 -0.5295 -0.1087
 9360TIP3   OH228043   5.356   3.940   5.042 -0.0815  0.1410  0.4018
 9360TIP3    H128044   5.335   3.870   4.980  0.4445 -0.9684  1.4262
 9360TIP3    H228045   5.354   3.897   5.128  1.5112  1.0869  0.9529
 9361TIP3   OH228046   3.325   0.029   1.939 -0.1323 -0.0627 -0.4817
 9361TIP3    H128047   3.246   0.082   1.953  0.6785  1.4151 -1.3428
 9361TIP3    H228048   3.375   0.039   2.021  0.1906  0.8215 -0.7809
 9362TIP3   OH228049   4.159   6.407   1.331  0.0973 -0.4783 -0.5569
 9362TIP3    H128050   4.084   6.363   1.371  0.1388 -0.2898 -0.2715
 9362TIP3    H228051   4.169   6.488   1.380 -0.8983  0.5856 -2.0427
 9363TIP3   OH228052   3.486   3.202   2.384 -0.6126  0.0169 -0.0590
 9363TIP3    H128053   3.555   3.267   2.375  0.9557 -1.4949  0.3964
 9363TIP3    H228054   3.418   3.228   2.321  0.7832  1.0427 -1.1849
 9364TIP3   OH228055   1.321   1.883   0.508  0.0286 -0.2545  0.0072
 9364TIP3    H128056   1.363   1.867   0.423  1.2758  2.2116  0.0590
 9364TIP3    H228057   1.228   1.870   0.491  0.4239 -1.8720 -1.1778
 9365TIP3   OH228058   2.996   0.387   3.467 -0.4064  0.0272  0.3178
 9365TIP3    H128059   2.980   0.465   3.520 -2.2902  2.1319 -2.9933
 9365TIP3    H228060   2.910   0.346   3.460 -0.1531 -0.3336 -0.8469
 9366TIP3   OH228061   2.410   3.200   0.142 -0.4008  0.5465  0.3971
 9366TIP3    H128062   2.367   3.146   0.075 -1.0268  0.4837  0.8429
 9366TIP3    H228063   2.478   3.248   0.094 -1.3640  1.1037 -0.4245
 9367TIP3   OH228064   3.044   4.231   0.426 -0.3106  0.1767 -0.3270
 9367TIP3    H128065   3.055   4.136   0.422 -1.5468 -0.0041 -0.0709
 9367TIP3    H228066   3.021   4.249   0.517  0.4579  0.8023 -0.2449
 9368TIP3   OH228067   1.345   4.700   5.661 -0.0171 -0.4754  0.5583
 9368TIP3    H128068   1.337   4.632   5.728  2.0272 -0.5679  0.7687
 9368TIP3    H228069   1.400   4.767   5.701  0.5728 -0.1471 -0.7437
 9369TIP3   OH228070   1.657   6.707   3.290 -0.1894  0.0571  0.2176
 9369TIP3    H128071   1.611   6.632   3.327 -0.7811 -0.1259 -0.8341
 9369TIP3    H228072   1.679   6.680   3.201  0.8548  0.6146  0.2924
 9370TIP3   OH228073   6.371   4.339   5.539 -0.1951 -0.1736 -0.6947
 9370TIP3    H128074   6.447   4.367   5.590 -0.4501 -1.6664  0.5757
 9370TIP3    H228075   6.392   4.249   5.511 -1.6549 -0.8030  0.0910
 9371TIP3   OH228076   1.575   4.629   4.655  0.2361 -0.2694 -0.7848
 9371TIP3    H128077   1.607   4.718   4.640  1.4990 -0.4246  0.6834
 9371TIP3    H228078   1.623   4.575   4.592  1.6396 -0.2607  0.2327
 9372TIP3   OH228079   1.023   0.432   5.336 -0.0640  0.8053  0.1134
 9372TIP3    H128080   1.108   0.446   5.294  0.0973 -0.2153  0.0624
 9372TIP3    H228081   0.997   0.345   5.307 -0.7046  0.7463  0.8484
 9373TIP3   OH228082   3.337   6.143   0.979 -0.3032 -0.5550 -0.4182
 9373TIP3    H128083   3.300   6.228   0.955 -1.9730 -1.1836 -0.1669
 9373TIP3    H228084   3.431   6.151   0.958 -0.0326  1.9781  1.3466
 9374TIP3   OH228085   6.915   2.210   4.017  0.1523  0.1683  0.3011
 9374TIP3    H128086   6.931   2.226   4.110  1.9961 -0.3447  0.1153
 9374TIP3    H228087   6.835   2.157   4.015  0.6343 -0.6468  1.6548
 9375TIP3   OH228088   4.359   4.621   5.341  0.1152  0.2358 -0.1094
 9375TIP3    H128089   4.410   4.556   5.293 -0.0542 -0.0527  0.1011
 9375TIP3    H228090   4.394   4.619   5.430 -0.4577 -0.1799  0.1140
 9376TIP3   OH228091   0.455   3.518   3.722  0.6638 -0.2199 -0.0429
 9376TIP3    H128092   0.370   3.559   3.704  0.4886 -0.8176 -0.6293
 9376TIP3    H228093   0.514   3.557   3.657  0.3285 -1.4136 -1.1049
 9377TIP3   OH228094   1.508   6.568   2.393 -0.4698  0.0410 -0.3327
 9377TIP3    H128095   1.508   6.564   2.297 -0.2254 -2.0514 -0.2891
 9377TIP3    H228096   1.417   6.554   2.418 -0.1356 -2.4382 -0.2516
 9378TIP3   OH228097   0.572   0.367   1.414  1.0780  0.6094 -0.7880
 9378TIP3    H128098   0.571   0.276   1.382 -1.2303  0.5480 -0.7255
 9378TIP3    H228099   0.494   0.406   1.375  0.6978  1.8752  1.1347
 9379TIP3   OH228100   1.628   0.254   4.618  0.1697  0.2361 -0.2596
 9379TIP3    H128101   1.614   0.349   4.620  0.7883  0.4282  4.1782
 9379TIP3    H228102   1.722   0.244   4.601 -0.2515  0.1305 -3.1878
 9380TIP3   OH228103   4.526   6.540   0.454  0.2336  0.0154  0.2058
 9380TIP3    H128104   4.466   6.601   0.412  0.6686  0.6702  0.5284
 9380TIP3    H228105   4.477   6.458   0.460 -0.4601  0.4153  0.0507
 9381TIP3   OH228106   0.845   4.411   2.283 -0.1261  0.1640 -0.2050
 9381TIP3    H128107   0.855   4.386   2.375  1.1927  1.1929 -0.0349
 9381TIP3    H228108   0.775   4.476   2.283  0.0304  0.3341  0.1135
 9382TIP3   OH228109   1.342   1.482   0.802 -0.0964  0.2033  0.3129
 9382TIP3    H128110   1.312   1.490   0.893 -2.8151 -0.7619 -0.4036
 9382TIP3    H228111   1.263   1.462   0.753  1.5949 -1.1730 -2.0180
 9383TIP3   OH228112   4.671   0.400   5.702  0.4484  0.2538 -0.1436
 9383TIP3    H128113   4.665   0.487   5.740  0.6505  0.7171 -1.1331
 9383TIP3    H228114   4.762   0.374   5.716 -0.2714 -1.0694  2.7659
 9384TIP3   OH228115   2.675   4.392   3.075 -0.0626 -0.2096 -0.0134
 9384TIP3    H128116   2.658   4.427   3.162  1.5450  1.6438 -0.3586
 9384TIP3    H228117   2.767   4.364   3.078 -0.2076 -0.8160 -0.8930
 9385TIP3   OH228118   2.246   3.161   4.449 -0.3686  0.4308  0.3732
 9385TIP3    H128119   2.273   3.253   4.444  0.0028  0.2599 -1.4436
 9385TIP3    H228120   2.150   3.164   4.446 -0.3600  0.7687  0.4208
 9386TIP3   OH228121   7.144   0.725   4.348 -0.6744  0.3605  0.1808
 9386TIP3    H128122   7.101   0.639   4.345  2.2632 -1.2659  0.8269
 9386TIP3    H228123   7.186   0.734   4.263 -1.3936  1.4662 -0.0801
 9387TIP3   OH228124   0.889   6.682   2.491  0.1061  0.1949 -0.2727
 9387TIP3    H128125   0.833   6.721   2.424 -0.6437  1.8813  1.2677
 9387TIP3    H228126   0.834   6.614   2.531  0.7453 -1.2001 -1.6689
 9388TIP3   OH228127   1.711   2.668   3.430 -0.4636  0.1376 -0.0583
 9388TIP3    H128128   1.782   2.646   3.491  0.6745  2.2057 -0.5227
 9388TIP3    H228129   1.724   2.609   3.356 -1.7321 -2.2599  1.4961
 9389TIP3   OH228130   5.069   3.993   0.508  0.7737 -0.1031 -0.5296
 9389TIP3    H128131   5.083   4.080   0.547 -1.1543 -0.3730  0.9560
 9389TIP3    H228132   5.036   4.012   0.420 -1.7749  0.8671  0.5113
 9390TIP3   OH228133   7.149   4.707   3.625  0.3180  0.5046  0.1887
 9390TIP3    H128134   7.106   4.632   3.584  1.7850  0.6334 -1.7245
 9390TIP3    H228135   7.230   4.670   3.662  0.8222  1.0442 -0.3587
 9391TIP3   OH228136   6.645   5.503   1.464 -0.1920  0.0854  0.4292
 9391TIP3    H128137   6.732   5.469   1.483  0.3078  0.3002 -1.3012
 9391TIP3    H228138   6.599   5.431   1.422  0.2648  0.9142 -1.5945
 9392TIP3   OH228139   3.896   2.974   2.849  0.3013  0.6285  0.1942
 9392TIP3    H128140   3.924   2.909   2.786  0.4963  1.9606 -1.1461
 9392TIP3    H228141   3.952   2.959   2.926 -0.5681 -1.5957  0.4663
 9393TIP3   OH228142   4.074   0.403   5.033  0.3567  0.5795  0.8032
 9393TIP3    H128143   4.019   0.421   5.109 -0.2559 -0.0355  0.5136
 9393TIP3    H228144   4.075   0.486   4.984  0.4057  0.8513  1.2579
 9394TIP3   OH228145   3.907   3.412   2.869 -0.3411 -0.0227 -0.3853
 9394TIP3    H128146   3.924   3.350   2.798 -0.0741 -1.0579  0.5566
 9394TIP3    H228147   3.833   3.464   2.838  0.6951  0.5532 -2.0405
 9395TIP3   OH228148   0.626   3.595   1.769 -0.1212  0.6397  0.4301
 9395TIP3    H128149   0.636   3.588   1.864 -0.7203 -2.1058  0.3800
 9395TIP3    H228150   0.552   3.655   1.756 -2.1982 -1.4616  1.8933
 9396TIP3   OH228151   6.316   2.643   0.176  0.1998  0.2182 -0.3627
 9396TIP3    H128152   6.265   2.563   0.189  1.4354 -0.6193 -0.4694
 9396TIP3    H228153   6.292   2.699   0.249  1.5014 -1.4395  1.4367
 9397TIP3   OH228154   0.212   4.842   3.440  0.1308 -0.3793  0.0111
 9397TIP3    H128155   0.257   4.841   3.355  0.0892  0.2590 -0.0259
 9397TIP3    H228156   0.225   4.931   3.472  0.1332 -0.6144  0.6721
 9398TIP3   OH228157   2.438   5.635   4.494 -0.4545 -0.1102 -0.6105
 9398TIP3    H128158   2.472   5.567   4.436  0.4873  0.9827 -1.3858
 9398TIP3    H228159   2.383   5.690   4.438  0.6704  1.1116 -0.5734
 9399TIP3   OH228160   5.031   4.381   4.489  0.1595  0.0405  0.4853
 9399TIP3    H128161   5.100   4.416   4.433  0.7281 -1.2375  0.3642
 9399TIP3    H228162   5.071   4.374   4.575  0.5363 -1.6140  0.2183
 9400TIP3   OH228163   5.762   5.893   1.413  0.0678  0.2164  0.1944
 9400TIP3    H128164   5.718   5.919   1.331  1.4047 -0.4917 -0.7921
 9400TIP3    H228165   5.706   5.825   1.449  0.6124 -1.1353 -1.3800
 9401TIP3   OH228166   1.823   5.394   5.259 -0.0339 -0.2484  0.0088
 9401TIP3    H128167   1.914   5.411   5.284 -0.2351 -0.3627  0.8445
 9401TIP3    H228168   1.830   5.336   5.183  0.5937 -0.8230  0.4872
 9402TIP3   OH228169   4.466   0.304   5.882 -0.0081 -0.1187  0.2396
 9402TIP3    H128170   4.520   0.350   5.818  2.3275  0.4142  2.4097
 9402TIP3    H228171   4.529   0.256   5.936 -1.7177  0.2134  2.7212
 9403TIP3   OH228172   6.697   4.575   3.952 -0.0304  0.1627  0.3095
 9403TIP3    H128173   6.718   4.649   3.896  0.7227  0.7325  1.3265
 9403TIP3    H228174   6.604   4.558   3.936  0.2452  0.0945 -1.3445
 9404TIP3   OH228175   6.290   1.028   2.641  0.0854  0.6658  0.4130
 9404TIP3    H128176   6.203   1.003   2.671  0.0159  1.3299  0.7782
 9404TIP3    H228177   6.304   1.115   2.678  0.0778  1.4292 -1.2914
 9405TIP3   OH228178   3.773   2.470   5.171 -0.7130  0.6621  0.3374
 9405TIP3    H128179   3.725   2.402   5.124  1.4688 -1.9522  1.6161
 9405TIP3    H228180   3.817   2.424   5.242  3.1923  2.8405 -0.3709
 9406TIP3   OH228181   4.626   0.845   3.096  0.4921  0.5585  0.1804
 9406TIP3    H128182   4.535   0.851   3.127  0.4856  1.2680  0.0513
 9406TIP3    H228183   4.666   0.927   3.125  0.5004  1.2453 -1.6346
 9407TIP3   OH228184   4.207   3.099   5.039  0.6111  0.2194  0.9190
 9407TIP3    H128185   4.179   3.125   5.126 -5.0530 -2.1809  0.2231
 9407TIP3    H228186   4.133   3.120   4.982  1.9333 -2.8567 -2.3544
 9408TIP3   OH228187   6.471   2.857   2.817  0.6802 -0.2336 -0.0234
 9408TIP3    H128188   6.512   2.776   2.848  2.1441  0.5766  0.2714
 9408TIP3    H228189   6.433   2.897   2.895  0.5122 -0.3338 -0.0545
 9409TIP3   OH228190   6.815   2.942   3.409 -0.0429  0.0042 -0.0349
 9409TIP3    H128191   6.827   3.031   3.375  0.3635  0.2401  0.6951
 9409TIP3    H228192   6.900   2.919   3.446  0.3958 -1.4013 -1.8056
 9410TIP3   OH228193   5.179   6.008   0.335  0.9091  0.1006  0.0540
 9410TIP3    H128194   5.189   5.953   0.258  0.0119  1.2186 -0.9013
 9410TIP3    H228195   5.136   5.952   0.400 -0.7173 -0.1365 -1.1632
 9411TIP3   OH228196   0.937   3.656   3.150 -0.5031 -0.6124  0.2390
 9411TIP3    H128197   0.973   3.623   3.233 -1.1423  0.3278  0.9100
 9411TIP3    H228198   0.860   3.707   3.176  0.3391  1.2671 -0.7533
 9412TIP3   OH228199   2.701   4.441   1.624  0.0410 -0.2716  0.6967
 9412TIP3    H128200   2.758   4.376   1.666  2.5482  0.9452 -0.5933
 9412TIP3    H228201   2.683   4.405   1.538  0.2725  0.0979  0.4923
 9413TIP3   OH228202   4.773   1.568   1.098  0.2146 -0.1113 -0.1609
 9413TIP3    H128203   4.806   1.514   1.025 -0.9784 -1.4600  0.2472
 9413TIP3    H228204   4.824   1.649   1.092  1.7611 -1.0802 -1.1025
 9414TIP3   OH228205   2.006   3.819   2.603  0.2730 -0.3175  0.4722
 9414TIP3    H128206   1.949   3.887   2.640  0.0385  0.5867 -1.4575
 9414TIP3    H228207   1.991   3.823   2.509  2.2841 -1.2182  0.0571
 9415TIP3   OH228208   1.364   3.496   2.663  0.8185  0.3658  0.6316
 9415TIP3    H128209   1.278   3.465   2.693  1.0313  0.2715  1.1557
 9415TIP3    H228210   1.346   3.541   2.580  0.2747  0.2893  0.7051
 9416TIP3   OH228211   3.203   5.650   5.792 -0.5033  0.4291 -0.3302
 9416TIP3    H128212   3.292   5.619   5.775 -0.5692  0.7969 -1.4049
 9416TIP3    H228213   3.148   5.574   5.773 -0.4183  0.1237  0.5780
 9417TIP3   OH228214   5.523   4.216   0.699  0.0118  0.3435  0.2645
 9417TIP3    H128215   5.470   4.287   0.736  1.9901  2.8847 -1.4174
 9417TIP3    H228216   5.595   4.206   0.762  0.2699  0.5433  0.0009
 9418TIP3   OH228217   0.304   3.910   5.640  0.0155 -0.1589 -0.3914
 9418TIP3    H128218   0.346   3.990   5.670  0.3986 -1.0358  1.5440
 9418TIP3    H228219   0.212   3.920   5.664  0.0093 -0.1785 -0.4068
 9419TIP3   OH228220   4.464   1.561   3.726 -0.5368  1.1995 -0.4887
 9419TIP3    H128221   4.457   1.541   3.633  0.1200 -0.7269 -0.1573
 9419TIP3    H228222   4.548   1.606   3.734 -0.1744  0.5653 -0.7046
 9420TIP3   OH228223   6.912   0.453   5.720 -0.0198  0.0619 -0.1476
 9420TIP3    H128224   6.940   0.485   5.634  1.4293 -1.9539 -0.5058
 9420TIP3    H228225   6.919   0.530   5.777 -0.6324  1.3442 -1.7250
 9421TIP3   OH228226   5.386   5.458   2.341 -0.0978  0.8945 -0.0468
 9421TIP3    H128227   5.358   5.546   2.368  0.8501  1.8019 -1.8841
 9421TIP3    H228228   5.330   5.437   2.266 -1.1411 -0.6326  1.0941
 9422TIP3   OH228229   5.618   5.480   3.838  0.2840 -0.2925 -0.5911
 9422TIP3    H128230   5.601   5.561   3.885  1.7246 -0.8597  1.0087
 9422TIP3    H228231   5.531   5.447   3.815 -0.3284  1.7175 -1.3955
 9423TIP3   OH228232   3.904   6.080   5.216 -0.3167  0.2985  0.6663
 9423TIP3    H128233   3.910   6.171   5.184 -1.2184 -0.4165 -1.7828
 9423TIP3    H228234   3.914   6.087   5.310  1.5737  2.7472  0.3853
 9424TIP3   OH228235   5.391   4.474   2.738 -0.5694  0.1307 -0.6658
 9424TIP3    H128236   5.379   4.567   2.755  2.5329  0.4478  0.3837
 9424TIP3    H228237   5.428   4.469   2.650  0.0859 -0.0118 -0.3886
 9425TIP3   OH228238   0.866   3.649   4.124 -0.2326  0.0122 -0.2505
 9425TIP3    H128239   0.798   3.669   4.188 -0.1134 -0.6292  0.0836
 9425TIP3    H228240   0.926   3.724   4.128 -0.6803  0.3705 -0.2298
 9426TIP3   OH228241   4.333   6.264   5.199  0.0138 -0.4887  0.9669
 9426TIP3    H128242   4.242   6.291   5.209  0.0326 -0.2995  0.6433
 9426TIP3    H228243   4.339   6.181   5.246 -0.6739 -1.2464 -0.2299
 9427TIP3   OH228244   0.509   2.018   3.889 -0.3988 -0.1571  0.3911
 9427TIP3    H128245   0.454   2.041   3.814 -0.7961  1.3357  1.1025
 9427TIP3    H228246   0.570   1.953   3.855  1.4428  2.6117 -2.0745
 9428TIP3   OH228247   1.295   3.233   5.157 -0.8949 -0.4011 -1.1255
 9428TIP3    H128248   1.217   3.187   5.188 -0.2948 -0.2621  0.7442
 9428TIP3    H228249   1.296   3.314   5.209  0.8073 -0.6984 -0.6318
 9429TIP3   OH228250   5.866   5.905   1.843  0.1278 -0.3470 -0.2856
 9429TIP3    H128251   5.886   5.854   1.764 -0.8639 -0.9190 -0.1814
 9429TIP3    H228252   5.950   5.910   1.890  0.8298  0.4014 -1.5813
 9430TIP3   OH228253   4.623   6.716   4.306  0.0238  0.0946 -0.2049
 9430TIP3    H128254   4.682   6.706   4.231  1.0923  0.7769  0.5224
 9430TIP3    H228255   4.660   6.659   4.373 -0.8574 -0.4151 -0.1449
 9431TIP3   OH228256   5.828   2.049   1.760  0.0589 -0.1305 -0.0285
 9431TIP3    H128257   5.757   2.007   1.713 -0.5400  0.8340 -0.0099
 9431TIP3    H228258   5.785   2.107   1.823  0.8568  0.0045  0.4146
 9432TIP3   OH228259   7.089   0.592   2.465  0.3861 -0.2348  0.0099
 9432TIP3    H128260   7.127   0.598   2.553 -0.0436 -0.2250  0.1966
 9432TIP3    H228261   7.067   0.683   2.442  0.5664 -0.2274 -0.1436
 9433TIP3   OH228262   3.613   3.532   5.246 -0.4291 -0.4001  0.9570
 9433TIP3    H128263   3.583   3.542   5.155  1.2508 -1.2887  0.2680
 9433TIP3    H228264   3.567   3.454   5.278 -1.3484  0.1605  1.0260
 9434TIP3   OH228265   6.958   6.079   2.341 -0.2024  0.2692 -0.0317
 9434TIP3    H128266   6.950   6.088   2.436  2.0403  2.5986  0.0511
 9434TIP3    H228267   6.915   6.156   2.306  0.2900  0.1940 -0.8248
 9435TIP3   OH228268   0.733   1.722   2.537  0.0250  0.2530  0.2475
 9435TIP3    H128269   0.648   1.752   2.504  1.0600  2.7509 -0.3295
 9435TIP3    H228270   0.763   1.659   2.471 -0.9039  0.1073 -0.0516
 9436TIP3   OH228271   7.053   3.825   4.730  0.2857 -0.2176  0.1070
 9436TIP3    H128272   7.108   3.901   4.747  0.4569 -0.4246  0.4854
 9436TIP3    H228273   6.969   3.846   4.772 -0.2264  0.4581 -1.1761
 9437TIP3   OH228274   2.514   5.813   1.574 -0.4108 -0.4739 -0.8974
 9437TIP3    H128275   2.591   5.870   1.584 -1.2908  0.6258 -0.2015
 9437TIP3    H228276   2.544   5.727   1.605  0.3528  0.0874 -0.0458
 9438TIP3   OH228277   3.893   0.899   0.988  0.6191 -0.1965  0.4510
 9438TIP3    H128278   3.819   0.908   1.048  0.6965  1.1825  0.3747
 9438TIP3    H228279   3.884   0.811   0.952 -0.5321 -0.3374  1.0307
 9439TIP3   OH228280   2.331   1.966   5.537 -0.6933 -0.1945  0.4617
 9439TIP3    H128281   2.307   2.024   5.610 -1.7142 -1.4313  1.1464
 9439TIP3    H228282   2.300   2.012   5.459 -0.4329  0.7155  0.8786
 9440TIP3   OH228283   2.178   0.049   0.872 -0.0002 -0.4220 -0.1816
 9440TIP3    H128284   2.272   0.061   0.886  0.1406  0.5800 -1.7522
 9440TIP3    H228285   2.157   0.108   0.800 -1.5221 -1.8201 -0.9352
 9441TIP3   OH228286   0.970   0.088   5.032 -0.2493  0.3084 -0.4762
 9441TIP3    H128287   1.049   0.060   4.987  0.6937  0.2037  1.1656
 9441TIP3    H228288   1.001   0.121   5.116 -1.8903  0.9633 -0.0888
 9442TIP3   OH228289   0.764   5.127   4.012  0.0613 -0.5298  0.2878
 9442TIP3    H128290   0.731   5.112   4.101  0.6185  0.5327  0.6878
 9442TIP3    H228291   0.697   5.181   3.970  0.2875 -0.1637  0.3996
 9443TIP3   OH228292   6.304   4.976   3.861 -0.5868  0.4159 -0.5285
 9443TIP3    H128293   6.328   4.886   3.883  1.0870  1.2916  1.5301
 9443TIP3    H228294   6.387   5.020   3.846 -1.3230  1.8792 -0.4278
 9444TIP3   OH228295   0.520   0.290   1.693 -0.1932  0.0346 -0.1482
 9444TIP3    H128296   0.554   0.361   1.638 -0.4213  0.4391  0.2222
 9444TIP3    H228297   0.446   0.256   1.643 -1.4466  1.4968  0.6241
 9445TIP3   OH228298   0.035   1.929   1.398 -0.3494  0.1158  0.0700
 9445TIP3    H128299  -0.046   1.882   1.420 -0.9581  1.4811  0.9082
 9445TIP3    H228300   0.101   1.893   1.458 -0.6514 -0.1173  0.2658
 9446TIP3   OH228301   4.274   1.784   5.763  0.1427  0.1550  0.2930
 9446TIP3    H128302   4.217   1.826   5.828  0.3704  0.8433  0.0512
 9446TIP3    H228303   4.303   1.855   5.707 -0.3818 -0.4806 -0.8267
 9447TIP3   OH228304   4.055   1.701   3.838  0.1556  0.3688  0.0518
 9447TIP3    H128305   3.980   1.648   3.864  1.5251 -2.5607 -1.4140
 9447TIP3    H228306   4.028   1.742   3.756  0.0988 -0.6575 -0.4620
 9448TIP3   OH228307   3.668   6.057   4.157 -0.1812  0.6967 -0.5071
 9448TIP3    H128308   3.731   6.108   4.106  0.2296  1.3827  0.6468
 9448TIP3    H228309   3.632   6.120   4.220 -1.1438  0.0252 -0.3688
 9449TIP3   OH228310   1.706   2.013   3.308 -0.2848 -0.3279 -0.0087
 9449TIP3    H128311   1.629   2.069   3.314  0.8104  1.1897  0.5975
 9449TIP3    H228312   1.690   1.958   3.231 -1.5773  0.5609 -0.4093
 9450TIP3   OH228313   3.556   6.242   3.356 -0.4248 -0.0307  0.0043
 9450TIP3    H128314   3.642   6.237   3.398  0.0165 -1.1542 -0.9688
 9450TIP3    H228315   3.554   6.328   3.315  0.2897 -0.0387 -0.0567
 9451TIP3   OH228316   5.450   0.817   0.568  0.4564 -0.4449 -0.1883
 9451TIP3    H128317   5.429   0.901   0.528 -1.4496  0.5947  2.7049
 9451TIP3    H228318   5.545   0.807   0.556  0.9680  2.7145  0.4179
 9452TIP3   OH228319   4.450   6.105   2.306  0.4880  0.8038  0.7089
 9452TIP3    H128320   4.533   6.152   2.316  0.4396  0.7686  1.3398
 9452TIP3    H228321   4.393   6.142   2.374  0.2829  0.2031  0.8697
 9453TIP3   OH228322   3.307   6.561   4.673 -0.0562  0.1083  0.1552
 9453TIP3    H128323   3.268   6.513   4.601 -0.7490 -1.1787  1.3277
 9453TIP3    H228324   3.273   6.518   4.752  1.9325  0.3885  1.2465
 9454TIP3   OH228325   2.656   2.909   0.709  0.4834 -1.2241 -0.6663
 9454TIP3    H128326   2.561   2.912   0.696  0.6395  0.5229 -1.8812
 9454TIP3    H228327   2.678   2.816   0.711 -1.5109 -1.7545  2.1423
 9455TIP3   OH228328   4.219   1.634   3.384  0.1392  0.5403  0.3204
 9455TIP3    H128329   4.150   1.639   3.451 -0.4309 -0.6560 -0.1523
 9455TIP3    H228330   4.272   1.560   3.411 -0.0570  0.0894 -0.5080
 9456TIP3   OH228331   0.362   2.198   0.564  0.3635 -0.0166  0.4483
 9456TIP3    H128332   0.310   2.267   0.606  0.6019 -0.2161  1.0854
 9456TIP3    H228333   0.424   2.171   0.632  1.8985  0.8296 -0.5708
 9457TIP3   OH228334   2.104   5.703   2.559 -0.7546 -0.3701 -0.6418
 9457TIP3    H128335   2.079   5.753   2.481 -2.3556 -1.4331 -0.8487
 9457TIP3    H228336   2.060   5.619   2.549 -2.1648 -0.0722  2.0183
 9458TIP3   OH228337   4.081   1.928   0.705 -0.4168 -0.1485  0.1643
 9458TIP3    H128338   4.161   1.942   0.653 -0.4669 -0.1087  0.0983
 9458TIP3    H228339   4.041   2.014   0.711 -0.7620 -0.2741 -0.3005
 9459TIP3   OH228340   5.109   5.517   1.100 -0.2837  0.0784  0.6687
 9459TIP3    H128341   5.034   5.459   1.084  0.7598 -1.2253  0.2915
 9459TIP3    H228342   5.099   5.546   1.191  0.1348 -2.2312  1.5114
 9460TIP3   OH228343   2.504   2.488   4.138  0.3957  0.3221  0.0751
 9460TIP3    H128344   2.571   2.513   4.201  0.1859 -0.8523  0.8004
 9460TIP3    H228345   2.543   2.509   4.053  1.3935  0.3337  0.5157
 9461TIP3   OH228346   4.798   2.086   3.020 -0.3405  0.5309 -0.4954
 9461TIP3    H128347   4.828   2.011   2.970  0.8163  2.1989 -2.4905
 9461TIP3    H228348   4.714   2.110   2.980 -0.4602  0.6136 -0.2017
 9462TIP3   OH228349   2.720   5.674   2.779  0.1905  0.3374  0.2958
 9462TIP3    H128350   2.626   5.657   2.771  0.4816 -1.4262  0.3036
 9462TIP3    H228351   2.748   5.622   2.854  1.1882  0.7864  0.2487
 9463TIP3   OH228352   5.443   6.143   0.095  0.7426  0.0856 -0.4920
 9463TIP3    H128353   5.470   6.091   0.019 -0.5442  1.3792 -1.9256
 9463TIP3    H228354   5.371   6.197   0.062  0.1883  0.7585  1.6593
 9464TIP3   OH228355   6.028   5.885   0.833  0.2965 -0.0807  0.5740
 9464TIP3    H128356   6.008   5.798   0.868 -0.4592  0.0213  0.4038
 9464TIP3    H228357   6.107   5.912   0.880  1.3198 -1.4145 -0.3353
 9465TIP3   OH228358   0.981   0.280   3.594  0.8931  0.0959 -0.5139
 9465TIP3    H128359   1.056   0.327   3.632  0.1687 -0.5483  1.8368
 9465TIP3    H228360   1.012   0.190   3.585  0.0152 -0.5083  1.8624
 9466TIP3   OH228361   1.787   5.734   3.557 -0.1036  0.5601 -0.5370
 9466TIP3    H128362   1.752   5.652   3.592 -1.2338  1.4015  0.3824
 9466TIP3    H228363   1.714   5.773   3.508 -0.5603  2.3450  1.4148
 9467TIP3   OH228364   1.999   2.671   1.976 -0.1424  0.1333 -0.2178
 9467TIP3    H128365   2.083   2.641   1.940  0.3496  1.2018 -0.0322
 9467TIP3    H228366   1.981   2.753   1.929 -2.0045 -0.9685 -1.5230
 9468TIP3   OH228367   2.095   5.170   0.469 -0.2309 -0.1098 -0.4564
 9468TIP3    H128368   2.123   5.082   0.445  1.0982  0.6704 -1.9630
 9468TIP3    H228369   2.112   5.223   0.391 -3.4504  1.0322 -0.5464
 9469TIP3   OH228370   3.707   3.782   4.289 -0.1051  0.5560  0.0583
 9469TIP3    H128371   3.673   3.695   4.266  0.5149 -0.1469  1.6429
 9469TIP3    H228372   3.753   3.811   4.210 -0.2858 -0.5788 -0.4875
 9470TIP3   OH228373   2.203   5.407   1.645  0.3260  0.1371  0.7638
 9470TIP3    H128374   2.216   5.468   1.573  0.4181  0.3166  0.9311
 9470TIP3    H228375   2.291   5.385   1.675  0.3647 -1.1966 -0.2156
 9471TIP3   OH228376   5.911   0.100   1.632 -0.7704 -0.2891 -0.1046
 9471TIP3    H128377   5.827   0.109   1.587 -1.7593  1.6272  1.9709
 9471TIP3    H228378   5.973   0.149   1.578 -1.4472  0.1709 -0.4736
 9472TIP3   OH228379   3.920   1.206   0.948 -0.3799  0.3240  0.0641
 9472TIP3    H128380   3.841   1.197   0.894  1.1463 -0.0946 -2.2816
 9472TIP3    H228381   3.950   1.116   0.962  1.1343  0.5238 -1.5069
 9473TIP3   OH228382   0.818   1.623   4.607  0.3336  0.1198 -0.3327
 9473TIP3    H128383   0.775   1.576   4.536 -0.2352 -0.4424  0.3536
 9473TIP3    H228384   0.866   1.556   4.655 -0.1071  0.3044  0.3895
 9474TIP3   OH228385   7.014   4.649   3.079 -0.3313  0.1125 -0.6700
 9474TIP3    H128386   6.975   4.602   3.152 -2.3430  0.9274 -1.1691
 9474TIP3    H228387   7.006   4.590   3.004 -1.1483  0.4891 -0.8906
 9475TIP3   OH228388   2.861   2.079   3.953 -0.4383  0.3957 -0.4557
 9475TIP3    H128389   2.855   2.029   4.035  0.3079 -0.7171 -1.0524
 9475TIP3    H228390   2.952   2.068   3.925 -0.6637  0.8190 -1.3924
 9476TIP3   OH228391   4.779   2.906   3.521  0.3832  0.5794  0.0007
 9476TIP3    H128392   4.730   2.888   3.601 -2.0076  1.2970 -1.1972
 9476TIP3    H228393   4.737   2.984   3.485  0.3061 -0.6313 -2.7387
 9477TIP3   OH228394   0.647   1.795   5.751 -0.1324 -0.4961 -0.9086
 9477TIP3    H128395   0.565   1.786   5.703  0.2624 -3.0817 -1.2730
 9477TIP3    H228396   0.690   1.709   5.741  1.3846 -0.1151  1.5088
 9478TIP3   OH228397   5.579   6.150   4.810  0.1840 -0.2963 -0.8108
 9478TIP3    H128398   5.608   6.101   4.733  0.4495 -1.7145  0.1474
 9478TIP3    H228399   5.659   6.191   4.843  0.6956 -2.1217  0.3676
 9479TIP3   OH228400   0.999   3.209   4.951 -0.1497 -1.0149  0.1911
 9479TIP3    H128401   1.027   3.205   5.043  0.1287 -0.5497  0.1302
 9479TIP3    H228402   0.920   3.262   4.952  0.4574 -0.0883  0.0303
 9480TIP3   OH228403   0.629   4.701   4.767 -0.7277  0.0592  0.1073
 9480TIP3    H128404   0.694   4.640   4.732 -0.6294 -0.1166  0.5824
 9480TIP3    H228405   0.549   4.680   4.720 -0.0922  1.4051 -1.7252
 9481TIP3   OH228406   5.815   0.938   4.578 -0.0494  0.5353 -0.0506
 9481TIP3    H128407   5.792   1.027   4.553  0.7492  0.1182 -2.5798
 9481TIP3    H228408   5.905   0.944   4.611 -0.0144  0.6570 -0.1721
 9482TIP3   OH228409   3.169   3.840   3.619 -0.3481  0.0274 -0.4222
 9482TIP3    H128410   3.161   3.833   3.714 -0.5985  0.5875 -0.3986
 9482TIP3    H228411   3.113   3.770   3.585  1.7573 -1.9023 -0.1451
 9483TIP3   OH228412   0.679   0.913   0.214 -0.4759  0.4798  0.5749
 9483TIP3    H128413   0.703   1.005   0.213  0.5138  0.2318  1.0012
 9483TIP3    H228414   0.608   0.906   0.150 -1.4761  1.7725  1.5120
 9484TIP3   OH228415   5.098   2.197   0.438  0.3088 -0.7986  0.3181
 9484TIP3    H128416   5.146   2.268   0.394 -0.3196 -0.1522  0.6486
 9484TIP3    H228417   5.152   2.174   0.513 -0.5220  0.9067  1.5060
 9485TIP3   OH228418   5.912   5.419   4.680 -0.3610  0.0327 -0.2436
 9485TIP3    H128419   6.006   5.436   4.684 -0.2274 -0.7521  0.0752
 9485TIP3    H228420   5.875   5.469   4.753 -0.4245  1.6580 -1.3084
 9486TIP3   OH228421   5.112   1.370   0.803 -0.3650 -0.5562 -0.0180
 9486TIP3    H128422   5.145   1.401   0.887  0.5217 -2.2644  0.2920
 9486TIP3    H228423   5.190   1.358   0.749 -0.9783  1.7800 -1.6139
 9487TIP3   OH228424   1.595   3.905   4.342 -0.0834  0.4340 -0.2503
 9487TIP3    H128425   1.572   3.837   4.280 -0.9472  1.2972 -0.8973
 9487TIP3    H228426   1.559   3.875   4.426  0.0857 -0.1871 -0.3991
 9488TIP3   OH228427   4.993   4.766   1.522 -0.1556 -0.3961  0.2440
 9488TIP3    H128428   4.968   4.811   1.603  0.1387 -0.8172  0.5747
 9488TIP3    H228429   4.940   4.807   1.454  0.7836  1.1222  0.3709
 9489TIP3   OH228430   2.013   4.383   3.101  0.2152 -0.8803 -0.4985
 9489TIP3    H128431   2.055   4.432   3.172 -0.2686 -0.0708 -0.7617
 9489TIP3    H228432   2.020   4.441   3.025 -0.8495 -0.9791 -0.6838
 9490TIP3   OH228433   0.890   5.739   5.384 -0.3141  0.0192  0.3204
 9490TIP3    H128434   0.898   5.828   5.351 -1.6914 -0.3285 -1.0588
 9490TIP3    H228435   0.844   5.748   5.467 -1.6882  0.5066 -0.4731
 9491TIP3   OH228436   2.329   3.372   5.016  0.1532 -0.9834  0.6731
 9491TIP3    H128437   2.377   3.366   5.099  2.3278 -1.6457 -0.5318
 9491TIP3    H228438   2.248   3.418   5.038  1.6971  1.0204  2.7308
 9492TIP3   OH228439   4.559   0.805   0.334 -0.1170 -0.2094  0.5037
 9492TIP3    H128440   4.583   0.767   0.418  0.4714  1.2018  1.0064
 9492TIP3    H228441   4.489   0.866   0.354 -0.2903 -0.1933 -0.1132
 9493TIP3   OH228442   0.526   2.642   3.778 -0.2835  0.0280 -0.0693
 9493TIP3    H128443   0.619   2.656   3.761 -0.3185  0.5981  0.2132
 9493TIP3    H228444   0.521   2.624   3.872 -0.7917  3.1539  0.6015
 9494TIP3   OH228445   6.455   1.715   5.300 -0.3642 -0.4845 -0.0021
 9494TIP3    H128446   6.498   1.789   5.343 -1.7163  0.0173  0.5338
 9494TIP3    H228447   6.526   1.669   5.255  0.4064  1.6856 -1.1739
 9495TIP3   OH228448   4.497   4.327   4.763 -0.5677  0.2476 -0.5396
 9495TIP3    H128449   4.526   4.388   4.831 -0.8813 -0.0563 -0.1238
 9495TIP3    H228450   4.572   4.269   4.749 -0.9723 -0.5771  0.5773
 9496TIP3   OH228451   1.442   0.056   1.819  0.7534 -0.3916  0.2418
 9496TIP3    H128452   1.494  -0.024   1.815 -0.1688 -1.0504  0.8634
 9496TIP3    H228453   1.490   0.112   1.880  1.3493 -0.5076 -0.1125
 9497TIP3   OH228454   5.649   0.766   4.190 -0.8004 -0.5712 -0.2723
 9497TIP3    H128455   5.607   0.704   4.249 -1.2947 -0.9866 -1.0448
 9497TIP3    H228456   5.620   0.852   4.221  0.1160 -0.6924  0.9739
 9498TIP3   OH228457   2.116   0.194   0.405  0.3587 -0.3886  0.7610
 9498TIP3    H128458   2.057   0.217   0.333  1.3255 -2.2823 -0.7239
 9498TIP3    H228459   2.203   0.204   0.369  0.8934 -0.7520  1.8954
 9499TIP3   OH228460   2.702   0.601   5.641  0.0164  0.7444 -0.5300
 9499TIP3    H128461   2.707   0.681   5.588 -0.7848  0.4680 -1.0473
 9499TIP3    H228462   2.640   0.545   5.594  0.2271 -0.0051  0.0620
 9500TIP3   OH228463   3.161   4.901   3.327 -0.3702 -0.8741  0.6868
 9500TIP3    H128464   3.213   4.824   3.351 -1.2314 -0.8563  2.8725
 9500TIP3    H228465   3.070   4.870   3.332 -0.6730 -0.1557 -0.1776
 9501TIP3   OH228466   6.890   2.286   3.436  0.0762 -0.2585  0.8312
 9501TIP3    H128467   6.918   2.235   3.512  1.4810 -0.5457  0.1426
 9501TIP3    H228468   6.938   2.368   3.442  0.7586 -0.5753 -0.1289
 9502TIP3   OH228469   5.572   2.358   4.563 -0.1112  0.1773 -0.3327
 9502TIP3    H128470   5.625   2.325   4.635 -1.3589  0.6506  0.8346
 9502TIP3    H228471   5.524   2.432   4.600 -2.1757 -0.7034 -1.1015
 9503TIP3   OH228472   2.451   5.254   5.137 -0.3219  0.0816  0.3374
 9503TIP3    H128473   2.480   5.336   5.096 -0.4654  0.4486  0.9481
 9503TIP3    H228474   2.448   5.274   5.230  1.1226 -1.0701  0.6722
 9504TIP3   OH228475   6.343   2.945   4.640  0.2398 -0.7074  0.0831
 9504TIP3    H128476   6.253   2.946   4.675 -0.0179 -0.2591 -0.5777
 9504TIP3    H228477   6.384   3.022   4.681 -0.9211  1.5851 -2.7200
 9505TIP3   OH228478   4.685   5.841   1.249 -0.5704 -0.0759  0.3622
 9505TIP3    H128479   4.675   5.850   1.344 -0.5136  1.4853  0.2439
 9505TIP3    H228480   4.740   5.764   1.238  1.4128  1.0448  1.7162
 9506TIP3   OH228481   3.655   4.877   4.185  0.2461  0.1446 -0.6775
 9506TIP3    H128482   3.578   4.838   4.224 -0.0510  1.2346 -0.1259
 9506TIP3    H228483   3.621   4.939   4.120  0.7171 -0.9208 -2.0044
 9507TIP3   OH228484   4.842   5.201   1.570  0.1105  1.0351 -0.3551
 9507TIP3    H128485   4.860   5.107   1.578  0.2290  0.9960 -1.0061
 9507TIP3    H228486   4.756   5.213   1.609 -0.4486  0.4456 -1.3651
 9508TIP3   OH228487   1.862   2.590   5.311  0.5087  0.0017 -0.6374
 9508TIP3    H128488   1.847   2.549   5.225  0.5954  0.1393 -0.7188
 9508TIP3    H228489   1.779   2.579   5.358  1.6412 -3.8708  0.8689
 9509TIP3   OH228490   0.486   5.349   4.881 -0.4887 -0.2530 -0.8203
 9509TIP3    H128491   0.500   5.347   4.787  1.3250  0.4471 -0.6128
 9509TIP3    H228492   0.523   5.432   4.909 -1.6748 -0.1145  0.4278
 9510TIP3   OH228493   0.873   5.832   1.094 -0.0525 -0.6336 -0.6470
 9510TIP3    H128494   0.908   5.781   1.021 -1.1692 -0.7275 -1.1297
 9510TIP3    H228495   0.781   5.847   1.071 -0.5358 -1.0139  0.9123
 9511TIP3   OH228496   3.602   1.606   4.338 -0.4590  0.1739  0.1092
 9511TIP3    H128497   3.659   1.541   4.299 -1.2693  0.1786 -1.1266
 9511TIP3    H228498   3.576   1.663   4.266  0.2004  1.8747  1.1467
 9512TIP3   OH228499   6.361   5.703   5.445 -0.0852  0.1442  0.3288
 9512TIP3    H128500   6.435   5.720   5.387  0.3802 -0.2174  0.8090
 9512TIP3    H228501   6.368   5.771   5.513 -0.1978  0.1136  0.3712
 9513TIP3   OH228502   5.974   5.058   0.789 -0.0350 -0.3435 -0.6590
 9513TIP3    H128503   5.907   5.050   0.857  1.0076  1.2568  0.6255
 9513TIP3    H228504   5.925   5.054   0.707 -1.6617  0.3519  0.2275
 9514TIP3   OH228505   1.768   0.220   5.759 -0.1572 -0.7112 -0.0032
 9514TIP3    H128506   1.753   0.126   5.759  1.8443 -1.0891  0.9940
 9514TIP3    H228507   1.736   0.250   5.844  1.7031 -1.0055  0.8449
 9515TIP3   OH228508   2.420   5.582   2.805 -0.4714 -0.0533 -0.3752
 9515TIP3    H128509   2.351   5.538   2.856  0.4967  0.2235  1.2383
 9515TIP3    H228510   2.493   5.520   2.805 -0.2888  0.1530 -1.0329
 9516TIP3   OH228511   7.107   6.698   5.503  0.0729 -0.1382  0.1544
 9516TIP3    H128512   7.153   6.781   5.491  1.0070 -0.8034 -1.1728
 9516TIP3    H228513   7.072   6.701   5.592  1.3115  1.0738  0.6161
 9517TIP3   OH228514   4.595   1.635   4.900 -0.1622  0.8951  0.2568
 9517TIP3    H128515   4.675   1.674   4.866 -0.9441 -0.5321 -3.8892
 9517TIP3    H228516   4.619   1.544   4.921 -0.7749  0.0970 -2.1521
 9518TIP3   OH228517   5.832   2.556   2.368 -0.4130  0.1519 -0.7430
 9518TIP3    H128518   5.919   2.538   2.333 -0.0332  1.4980 -0.5144
 9518TIP3    H228519   5.834   2.647   2.395 -2.4060  0.7023 -2.2063
 9519TIP3   OH228520   0.472   1.540   0.609 -0.8860 -0.0469  0.3637
 9519TIP3    H128521   0.382   1.572   0.620 -0.5616  2.8362 -3.4568
 9519TIP3    H228522   0.462   1.456   0.565 -1.7712  0.6642 -0.8562
 9520TIP3   OH228523   1.303   5.860   5.792  0.0168 -0.2043  0.2178
 9520TIP3    H128524   1.249   5.823   5.722  0.1476 -1.8367  0.9544
 9520TIP3    H228525   1.390   5.868   5.753 -0.0090 -0.6845  0.0617
 9521TIP3   OH228526   0.456   0.943   0.945 -0.5273 -0.2146 -0.2285
 9521TIP3    H128527   0.534   0.892   0.924  0.2151  0.2081  1.3326
 9521TIP3    H228528   0.419   0.967   0.860 -0.4048 -2.5596 -0.9978
 9522TIP3   OH228529   4.582   5.935   3.148  0.1079  0.3635 -0.6154
 9522TIP3    H128530   4.592   5.946   3.053 -0.4077 -3.1454 -1.2179
 9522TIP3    H228531   4.488   5.941   3.163  0.0850 -0.1520 -0.5293
 9523TIP3   OH228532   3.465   2.888   0.636 -0.4162 -0.0068 -0.2306
 9523TIP3    H128533   3.553   2.862   0.665 -0.0147 -0.1126 -1.4763
 9523TIP3    H228534   3.409   2.870   0.712  0.8038  1.2119  1.0263
 9524TIP3   OH228535   3.466   1.294   1.322 -0.4078 -0.2106 -0.0630
 9524TIP3    H128536   3.385   1.280   1.274 -0.3304  1.5176 -0.7725
 9524TIP3    H228537   3.470   1.222   1.385 -1.4587 -1.4599 -1.3716
 9525TIP3   OH228538   3.942   0.955   4.412 -0.1831  0.1326 -0.3562
 9525TIP3    H128539   4.030   0.917   4.416  0.0738  0.5931 -1.3547
 9525TIP3    H228540   3.957   1.049   4.399 -0.8025  0.6001  1.8354
 9526TIP3   OH228541   3.299   2.810   5.489  0.4205 -0.1821  0.0093
 9526TIP3    H128542   3.254   2.726   5.490 -1.1521  0.6069  1.1955
 9526TIP3    H228543   3.266   2.853   5.409 -0.4034  0.0937  0.4814
 9527TIP3   OH228544   5.906   3.778   2.745  0.1164 -0.5049 -0.0197
 9527TIP3    H128545   5.967   3.706   2.727  0.4137 -0.3438  0.3109
 9527TIP3    H228546   5.963   3.853   2.762 -0.2066  0.0916 -1.4749
 9528TIP3   OH228547   4.391   1.538   2.562 -0.4732  0.1734 -0.3445
 9528TIP3    H128548   4.405   1.490   2.643 -1.2587 -0.2240 -0.4315
 9528TIP3    H228549   4.454   1.610   2.565  1.5111 -1.4616 -0.7316
 9529TIP3   OH228550   6.786   5.656   2.942 -0.0976 -0.1504  0.1768
 9529TIP3    H128551   6.843   5.596   2.989  1.5812  0.3732 -1.0955
 9529TIP3    H228552   6.838   5.736   2.932 -0.8346  0.1817 -1.4511
 9530TIP3   OH228553   3.838   3.015   0.886 -0.2054  0.8101  0.1877
 9530TIP3    H128554   3.790   3.066   0.952  0.2478  0.6361  0.6589
 9530TIP3    H228555   3.926   3.006   0.922 -0.0389  0.4354 -0.2984
 9531TIP3   OH228556   0.494   2.896   3.440  0.5943 -0.2515  0.3814
 9531TIP3    H128557   0.457   2.875   3.526  0.6555  3.2081  1.4434
 9531TIP3    H228558   0.577   2.940   3.460 -0.4779  2.7847 -1.1770
 9532TIP3   OH228559   6.975   3.207   4.285 -0.1439 -0.4747  0.4135
 9532TIP3    H128560   7.024   3.129   4.258  0.4849  0.9205 -3.0063
 9532TIP3    H228561   7.041   3.274   4.297 -0.8676  0.9842 -2.5877
 9533TIP3   OH228562   0.896   4.394   0.738  0.0630  0.6324 -0.2926
 9533TIP3    H128563   0.833   4.419   0.670  0.9705 -2.3659 -2.4737
 9533TIP3    H228564   0.852   4.324   0.787  1.0262 -0.3211 -0.7468
 9534TIP3   OH228565   1.821   4.987   5.237  0.2112 -0.0523  0.1750
 9534TIP3    H128566   1.866   4.922   5.183 -0.8212 -1.6633  1.1616
 9534TIP3    H228567   1.892   5.038   5.277  1.0921 -1.0472 -0.0690
 9535TIP3   OH228568   4.989   1.693   4.533 -0.3118 -0.3478  0.2859
 9535TIP3    H128569   5.015   1.715   4.444  0.0271 -1.2631  0.1474
 9535TIP3    H228570   5.065   1.717   4.587 -0.1206 -0.7549  0.1963
 9536TIP3   OH228571   2.321   1.117   1.150  0.2064  0.4424  0.5893
 9536TIP3    H128572   2.274   1.054   1.204  0.0848 -0.2901 -0.3408
 9536TIP3    H228573   2.338   1.191   1.208 -1.8727  0.6291  1.0412
 9537TIP3   OH228574   0.343   4.155   5.429 -0.6348 -0.6318 -0.3353
 9537TIP3    H128575   0.308   4.192   5.510  0.9563  3.2700 -1.1723
 9537TIP3    H228576   0.271   4.161   5.367 -0.5716  0.8768 -0.3140
 9538TIP3   OH228577   2.851   5.731   5.108  0.2612  0.3811 -0.1780
 9538TIP3    H128578   2.773   5.747   5.162  0.2339 -0.4382  0.0274
 9538TIP3    H228579   2.898   5.815   5.110  0.1008  0.4614  0.8619
 9539TIP3   OH228580   3.562   3.787   1.774  0.1499 -0.0335  0.4574
 9539TIP3    H128581   3.512   3.848   1.720  0.0950  0.0424  0.5947
 9539TIP3    H228582   3.502   3.715   1.792 -0.3514  0.6775  1.7327
 9540TIP3   OH228583   3.255   0.718   3.120 -0.2416  0.0673 -0.0713
 9540TIP3    H128584   3.177   0.714   3.066 -1.4446 -0.5672  1.6390
 9540TIP3    H228585   3.315   0.654   3.080 -1.1375 -0.4724 -0.5765
 9541TIP3   OH228586   1.876   6.216   4.687 -0.2417  0.3913  0.8236
 9541TIP3    H128587   1.828   6.298   4.684 -0.8552  0.0319  0.6299
 9541TIP3    H228588   1.894   6.202   4.780 -0.1911  0.7114  0.8617
 9542TIP3   OH228589   5.217   3.323   2.947  0.0444  0.1900 -0.1199
 9542TIP3    H128590   5.305   3.289   2.964 -1.1995 -2.2877  2.0403
 9542TIP3    H228591   5.168   3.248   2.914 -1.9080  0.7608  1.2816
 9543TIP3   OH228592   3.059   1.400   1.696 -0.0851 -0.3553 -0.1975
 9543TIP3    H128593   3.043   1.434   1.608  1.6937  0.6689 -0.1759
 9543TIP3    H228594   2.981   1.350   1.717 -1.2371  0.7110 -1.7196
 9544TIP3   OH228595   3.094   1.997   4.537 -0.6373  0.6016  0.0937
 9544TIP3    H128596   3.047   1.936   4.594  0.9099 -0.8459 -0.1360
 9544TIP3    H228597   3.135   2.059   4.597 -0.9072  0.4837  0.4046
 9545TIP3   OH228598   6.944   4.271   3.520 -0.2376 -0.0232 -0.1381
 9545TIP3    H128599   6.926   4.205   3.587 -0.0789  0.9760  0.9308
 9545TIP3    H228600   7.029   4.246   3.484 -0.3433 -0.5929  0.0024
 9546TIP3   OH228601   2.525   0.934   4.176  0.7498  0.0983 -0.5107
 9546TIP3    H128602   2.552   1.010   4.124 -0.3221  0.5597 -0.4145
 9546TIP3    H228603   2.434   0.952   4.198  0.9840 -0.4382  0.9358
 9547TIP3   OH228604   6.002   6.251   3.148  0.0984 -0.1918 -0.1872
 9547TIP3    H128605   5.973   6.331   3.191  2.6793  1.1605 -0.8111
 9547TIP3    H228606   5.954   6.250   3.065  0.4688  1.0447 -0.4389
 9548TIP3   OH228607   5.401   1.947   1.779 -0.1601  0.1528 -0.4551
 9548TIP3    H128608   5.415   1.871   1.722 -0.8554 -0.2241 -0.1242
 9548TIP3    H228609   5.408   1.912   1.868 -1.4619  0.2757 -0.2883
 9549TIP3   OH228610   6.141   5.201   1.029 -0.2051  0.1057  0.3849
 9549TIP3    H128611   6.108   5.177   0.943 -0.2158  1.4544  0.0074
 9549TIP3    H228612   6.065   5.236   1.075 -0.2512 -0.8107  1.0357
 9550TIP3   OH228613   3.589   4.259   3.877  0.7646  0.1728  0.6344
 9550TIP3    H128614   3.568   4.174   3.838  3.2348 -0.9068  1.4362
 9550TIP3    H228615   3.526   4.319   3.838 -0.3198 -1.7956 -0.8748
 9551TIP3   OH228616   3.533   2.172   5.809 -0.4206 -0.5115  0.2279
 9551TIP3    H128617   3.444   2.143   5.792 -0.2540 -0.6414 -0.4500
 9551TIP3    H228618   3.572   2.102   5.861 -0.1754 -1.3052 -0.9802
 9552TIP3   OH228619   2.793   3.595   5.852 -0.1034 -0.5685 -0.1139
 9552TIP3    H128620   2.828   3.626   5.768 -1.6559 -1.4361 -1.1305
 9552TIP3    H228621   2.793   3.499   5.843 -1.4206 -0.6250  0.3894
 9553TIP3   OH228622   1.519   5.272   5.767  0.0849  0.0226 -0.8237
 9553TIP3    H128623   1.488   5.353   5.809  1.9439  1.4948 -2.1217
 9553TIP3    H228624   1.439   5.226   5.743 -1.0488  0.3048  2.0142
 9554TIP3   OH228625   1.381   1.427   3.956  0.7759 -0.3183  0.4391
 9554TIP3    H128626   1.429   1.416   3.874 -1.4797 -0.7347 -0.8848
 9554TIP3    H228627   1.296   1.386   3.941 -0.1519  0.6520  2.5854
 9555TIP3   OH228628   0.431   3.190  -0.004 -0.0284  0.2104 -0.6268
 9555TIP3    H128629   0.406   3.117   0.052  0.6361 -0.4477 -1.1873
 9555TIP3    H228630   0.496   3.239   0.047 -1.6608  1.3806  0.4354
 9556TIP3   OH228631   5.687   2.655   4.594 -0.1567 -0.0644  0.2579
 9556TIP3    H128632   5.783   2.657   4.596 -0.1761  0.4117  1.1672
 9556TIP3    H228633   5.666   2.633   4.504  0.8022  0.6691 -0.1629
 9557TIP3   OH228634   3.144   5.808   1.799 -0.0785  0.3169  0.2572
 9557TIP3    H128635   3.193   5.761   1.867 -2.6908 -1.3509  1.1197
 9557TIP3    H228636   3.058   5.823   1.838 -0.6764  2.1237 -1.5989
 9558TIP3   OH228637   1.048   4.554   3.556  0.1187 -0.1342 -0.1927
 9558TIP3    H128638   1.126   4.538   3.611 -0.9694 -0.9393  1.1885
 9558TIP3    H228639   0.976   4.559   3.619 -1.0989 -0.4250 -1.5281
 9559TIP3   OH228640   1.725   0.433   0.255 -0.3186 -0.1224 -1.0583
 9559TIP3    H128641   1.733   0.506   0.194 -0.0002  0.2572 -0.5738
 9559TIP3    H228642   1.792   0.370   0.226 -0.2362  0.0118 -1.1606
 9560TIP3   OH228643   1.737   1.605   0.315 -0.1865 -0.3037  0.6503
 9560TIP3    H128644   1.681   1.607   0.238 -0.6252  1.2550  0.9738
 9560TIP3    H228645   1.823   1.579   0.281 -0.3100  0.6018 -0.4187
 9561TIP3   OH228646   3.172   0.416   0.903 -0.1811 -0.1656  0.3978
 9561TIP3    H128647   3.187   0.508   0.881  1.5988  0.3290  3.0393
 9561TIP3    H228648   3.257   0.374   0.888 -0.3017 -0.8218  1.4312
 9562TIP3   OH228649   5.244   0.620   2.867 -0.3523 -0.0882 -0.4449
 9562TIP3    H128650   5.205   0.705   2.851 -0.7523 -0.3741 -1.0097
 9562TIP3    H228651   5.248   0.613   2.963  0.5063  0.9266 -0.3856
 9563TIP3   OH228652   6.378   4.598   1.935 -0.3710 -0.6520  0.2212
 9563TIP3    H128653   6.429   4.634   1.863  0.6035 -1.2414  0.5955
 9563TIP3    H228654   6.373   4.504   1.916  0.8551 -1.0037  1.4657
 9564TIP3   OH228655   2.373   1.224   0.363  1.1455 -0.0885 -0.0507
 9564TIP3    H128656   2.358   1.280   0.287  0.8356 -0.3497 -0.1822
 9564TIP3    H228657   2.380   1.136   0.327  1.1410 -0.1962  0.2078
 9565TIP3   OH228658   0.887   4.383   2.548  0.0738  0.4674  0.0700
 9565TIP3    H128659   0.980   4.396   2.531 -0.0268  3.4001  1.2273
 9565TIP3    H228660   0.881   4.294   2.583  2.8117  1.0395  2.2684
 9566TIP3   OH228661   1.433   6.514   2.102 -0.8053 -0.2036 -0.1481
 9566TIP3    H128662   1.466   6.584   2.045  0.2222 -1.2752 -0.9514
 9566TIP3    H228663   1.338   6.518   2.093 -0.6672 -0.4740 -2.1601
 9567TIP3   OH228664   3.035   6.204   2.677 -0.5183  0.0427  0.0540
 9567TIP3    H128665   2.945   6.212   2.710 -0.2724 -0.6374  0.9352
 9567TIP3    H228666   3.070   6.126   2.721  0.2188 -0.2142 -0.9495
 9568TIP3   OH228667   1.547   0.714   3.244 -0.5911  0.0309 -0.4868
 9568TIP3    H128668   1.505   0.662   3.313  1.5282  0.2651  1.0574
 9568TIP3    H228669   1.556   0.801   3.282  0.0517  0.3332 -1.3055
 9569TIP3   OH228670   0.038   4.272   2.866 -0.9302  0.2657 -0.1746
 9569TIP3    H128671   0.066   4.262   2.776 -0.7241  2.2098 -0.3855
 9569TIP3    H228672  -0.048   4.231   2.870 -0.3367 -1.0870 -0.8691
 9570TIP3   OH228673   6.786   0.239   5.123 -0.0719 -0.4139 -0.5887
 9570TIP3    H128674   6.771   0.266   5.214 -0.2845  1.2662 -1.0924
 9570TIP3    H228675   6.699   0.243   5.083  0.3317  1.0192 -1.3909
 9571TIP3   OH228676   0.583   0.536   4.304  0.1624 -0.0089  0.1658
 9571TIP3    H128677   0.642   0.499   4.238  0.0162 -0.9712  0.5651
 9571TIP3    H228678   0.616   0.504   4.388 -1.3778 -1.2503  0.3472
 9572TIP3   OH228679   0.302   4.691   4.283 -0.5274  0.4251 -0.8173
 9572TIP3    H128680   0.256   4.756   4.230 -0.6928  2.2189  1.3333
 9572TIP3    H228681   0.255   4.691   4.367  0.8100 -0.8791 -0.0033
 9573TIP3   OH228682   2.958   1.504   2.374 -0.5026  0.2614 -1.0385
 9573TIP3    H128683   2.948   1.432   2.436 -1.9039  0.9864 -0.3843
 9573TIP3    H228684   3.020   1.471   2.309 -0.1038 -1.0371 -0.0353
 9574TIP3   OH228685   3.536   1.055   0.325 -0.1686  0.1026  0.0567
 9574TIP3    H128686   3.613   1.111   0.317  0.8535 -1.1891  0.4591
 9574TIP3    H228687   3.493   1.084   0.405 -0.5870  1.3854 -0.6127
 9575TIP3   OH228688   1.177   6.093   0.472 -0.3289  0.1810  0.0603
 9575TIP3    H128689   1.088   6.105   0.438  0.2241  0.9153 -1.1731
 9575TIP3    H228690   1.191   6.167   0.531  0.4153  1.6492 -1.8605
 9576TIP3   OH228691   0.757   1.896   4.444  0.1549  0.3456 -0.9733
 9576TIP3    H128692   0.764   1.801   4.456 -1.4711  0.2891 -0.1275
 9576TIP3    H228693   0.713   1.906   4.359 -0.3812  0.2988 -0.7075
 9577TIP3   OH228694   2.368   3.776   4.174  0.0233 -0.2570  0.5011
 9577TIP3    H128695   2.295   3.832   4.200 -0.1425  0.8151 -2.0149
 9577TIP3    H228696   2.420   3.765   4.254 -0.1182  3.2492  1.2285
 9578TIP3   OH228697   4.961   1.552   5.583 -0.6757 -0.7744  0.1638
 9578TIP3    H128698   4.934   1.533   5.673 -2.1579 -0.2083 -0.1387
 9578TIP3    H228699   4.906   1.495   5.529  0.3508 -1.2629 -0.4024
 9579TIP3   OH228700   5.821   4.507   3.949  0.0928 -0.3979 -0.1149
 9579TIP3    H128701   5.729   4.523   3.928 -0.5792 -1.0064  2.0539
 9579TIP3    H228702   5.819   4.479   4.041  2.6696  1.6315  0.6574
 9580TIP3   OH228703   2.349   6.499   0.500 -0.2924  0.4976 -0.4667
 9580TIP3    H128704   2.266   6.528   0.539  0.4288  1.5498  0.3477
 9580TIP3    H228705   2.381   6.576   0.452  1.1986  0.8194  0.9530
 9581TIP3   OH228706   1.185   1.145   2.985  0.1905 -0.1792  0.3901
 9581TIP3    H128707   1.188   1.097   2.903  1.3533 -0.6590  0.6970
 9581TIP3    H228708   1.123   1.096   3.039 -1.1753  0.5706 -0.4342
 9582TIP3   OH228709   4.850   6.593   2.468 -0.2331 -0.0180  0.2754
 9582TIP3    H128710   4.780   6.528   2.457 -0.3221 -0.0430  0.9182
 9582TIP3    H228711   4.886   6.574   2.555 -0.6183  1.1397  0.7049
 9583TIP3   OH228712   0.802   0.822   3.684  0.3317  0.3087  0.5942
 9583TIP3    H128713   0.710   0.817   3.660  0.4257  0.0964  0.2671
 9583TIP3    H228714   0.847   0.771   3.616  0.5944 -0.4259  1.3068
 9584TIP3   OH228715   1.102   1.871   0.075 -0.1596  0.1472 -0.1925
 9584TIP3    H128716   1.143   1.948   0.035 -0.0875 -0.2709 -0.9250
 9584TIP3    H228717   1.132   1.797   0.022 -0.3408 -0.3752  0.4215
 9585TIP3   OH228718   3.561   3.072   1.469 -0.3316  0.2375  0.1652
 9585TIP3    H128719   3.548   2.979   1.488 -0.2648 -0.2911 -2.0179
 9585TIP3    H228720   3.485   3.097   1.417 -0.4017  1.4560  0.8184
 9586TIP3   OH228721   5.487   6.086   0.918  0.4557  0.1988 -0.4065
 9586TIP3    H128722   5.395   6.101   0.893  0.8018  1.3612 -1.0453
 9586TIP3    H228723   5.537   6.118   0.843  1.3747 -1.5106 -0.5642
 9587TIP3   OH228724   7.096   2.522   2.183 -0.1447 -0.4663  0.3899
 9587TIP3    H128725   7.066   2.613   2.182  1.4547  0.0980 -0.2790
 9587TIP3    H228726   7.187   2.527   2.150 -0.4360 -2.4320 -0.8679
 9588TIP3   OH228727   3.874   1.975   4.074 -0.1380  0.5208  0.5170
 9588TIP3    H128728   3.855   1.884   4.053  0.3144  0.6218 -0.3784
 9588TIP3    H228729   3.791   2.011   4.106 -0.4013 -0.1087  0.5405
 9589TIP3   OH228730   0.899   4.376   4.446  0.4620 -0.2978 -0.1924
 9589TIP3    H128731   0.897   4.287   4.482 -1.1737 -0.3837 -0.4241
 9589TIP3    H228732   0.820   4.382   4.392 -0.6545  1.9758  1.4953
 9590TIP3   OH228733   0.727   2.798   0.774  0.1872  0.1304 -0.1868
 9590TIP3    H128734   0.771   2.715   0.791  0.4392  0.5790  1.5335
 9590TIP3    H228735   0.766   2.831   0.693 -0.2702 -1.6313 -1.1809
 9591TIP3   OH228736   3.693   4.598   4.708 -0.0410  0.2176  0.0843
 9591TIP3    H128737   3.601   4.573   4.703  0.0612 -0.8773  2.3400
 9591TIP3    H228738   3.695   4.689   4.677 -2.4210  1.3074  2.6950
 9592TIP3   OH228739   4.273   1.128   1.445 -0.7783 -0.7465  0.2735
 9592TIP3    H128740   4.365   1.153   1.445 -0.2578 -2.5283 -0.5075
 9592TIP3    H228741   4.226   1.211   1.445  0.8321  0.2499 -1.5405
 9593TIP3   OH228742   0.142   1.041   4.123  0.6151 -0.1939 -0.1427
 9593TIP3    H128743   0.089   1.051   4.044  0.3726  0.8794  0.1374
 9593TIP3    H228744   0.160   0.947   4.129  0.8417 -0.2579 -1.5954
 9594TIP3   OH228745   5.668   3.446   5.631  0.1117  0.2107 -0.5476
 9594TIP3    H128746   5.744   3.407   5.675  0.2238 -0.8009 -1.5973
 9594TIP3    H228747   5.684   3.540   5.636  1.3626  0.0249 -0.5995
 9595TIP3   OH228748   6.643   1.218   0.142  0.2267 -0.7301 -0.4113
 9595TIP3    H128749   6.659   1.312   0.150  0.6686 -0.7734 -0.7197
 9595TIP3    H228750   6.613   1.206   0.052 -0.6595 -0.7784 -0.1186
 9596TIP3   OH228751   3.962   0.445   0.081  0.1862 -0.6457  0.0123
 9596TIP3    H128752   4.016   0.523   0.090  1.9788 -1.8523  0.2064
 9596TIP3    H228753   4.018   0.382   0.036 -1.1158 -1.9178  0.0964
 9597TIP3   OH228754   0.290   0.363   0.142  0.1825 -0.3925 -0.5738
 9597TIP3    H128755   0.324   0.294   0.085 -1.0561  1.0154 -3.1713
 9597TIP3    H228756   0.221   0.406   0.091 -1.1633  0.8683  2.0858
 9598TIP3   OH228757   2.609   5.554   3.488 -0.1261 -0.3378 -0.4098
 9598TIP3    H128758   2.676   5.495   3.456  0.0995 -1.4999  1.9745
 9598TIP3    H228759   2.655   5.637   3.504  0.1627 -0.3515 -1.1228
 9599TIP3   OH228760   1.484   0.596   5.416 -0.5584  0.4394  0.4693
 9599TIP3    H128761   1.513   0.617   5.327 -2.5223  1.9226  0.0904
 9599TIP3    H228762   1.412   0.534   5.405 -3.2595  3.2438  0.5803
 9600TIP3   OH228763   6.851   0.982   2.614 -0.0122  0.1226  0.2360
 9600TIP3    H128764   6.944   1.002   2.606 -0.3050  0.7993 -2.9156
 9600TIP3    H228765   6.844   0.889   2.591 -0.0691 -0.0574  0.9730
 9601TIP3   OH228766   1.585   3.381   1.650 -0.6848 -0.7127 -0.3880
 9601TIP3    H128767   1.601   3.374   1.556 -0.5474 -0.1090 -0.4139
 9601TIP3    H228768   1.493   3.404   1.657 -0.2850  1.0306 -0.4614
 9602TIP3   OH228769   7.016   2.631   3.863 -0.5093  0.2162 -0.7385
 9602TIP3    H128770   7.021   2.597   3.773 -0.1596 -1.2666 -0.1852
 9602TIP3    H228771   7.077   2.577   3.913 -0.8124  0.9200  0.4280
 9603TIP3   OH228772   0.144   5.735   4.458 -0.2297  0.2112  0.4719
 9603TIP3    H128773   0.148   5.763   4.367  1.5483  0.5547  0.6326
 9603TIP3    H228774   0.085   5.799   4.500  1.1395  1.7661  0.1285
 9604TIP3   OH228775   0.499   6.748   1.831  0.0553  0.2837  0.3111
 9604TIP3    H128776   0.491   6.663   1.788  2.1061 -0.1451  0.6461
 9604TIP3    H228777   0.482   6.811   1.762 -0.4543 -0.3996 -0.2028
 9605TIP3   OH228778   6.179   0.313   0.130  0.5059 -0.7753 -0.1770
 9605TIP3    H128779   6.197   0.223   0.105 -0.9192 -1.0870 -0.1623
 9605TIP3    H228780   6.084   0.322   0.121  0.5766  0.5998  0.2224
 9606TIP3   OH228781   3.947   2.543   4.502  0.1439 -0.4836  0.4051
 9606TIP3    H128782   3.977   2.532   4.411 -0.6846 -0.0496  0.0738
 9606TIP3    H228783   4.028   2.544   4.553  0.7386  0.8351 -0.4946
 9607TIP3   OH228784   2.605   5.572   0.179 -0.0659  0.5853  0.4328
 9607TIP3    H128785   2.651   5.632   0.239  1.2230 -0.0911  0.1513
 9607TIP3    H228786   2.662   5.496   0.174 -3.0122 -2.1350  3.2309
 9608TIP3   OH228787   6.668   1.813   0.895  0.7851  0.2997 -0.1694
 9608TIP3    H128788   6.680   1.772   0.809 -1.0922 -1.2304  0.2337
 9608TIP3    H228789   6.579   1.847   0.892  1.0196  1.0191  0.8726
 9609TIP3   OH228790   3.239   2.915   1.077 -0.1210 -0.6275  0.5695
 9609TIP3    H128791   3.268   2.994   1.123  1.4855 -0.6037 -0.3939
 9609TIP3    H228792   3.220   2.852   1.147 -0.8662  0.4103  1.3262
 9610TIP3   OH228793   4.394   6.343   4.597  0.0368  0.0993  0.0747
 9610TIP3    H128794   4.367   6.254   4.576  0.9271 -0.1728  0.0533
 9610TIP3    H228795   4.472   6.333   4.651  0.8399  0.8548 -0.8917
 9611TIP3   OH228796   5.920   5.969   1.135 -0.0053  0.0850  0.8783
 9611TIP3    H128797   5.828   5.994   1.142 -0.1109  0.0936 -0.3506
 9611TIP3    H228798   5.958   6.036   1.078  0.3975 -0.8041  0.0825
 9612TIP3   OH228799   0.764   0.910   1.212  0.8728  0.2397  0.2386
 9612TIP3    H128800   0.806   0.996   1.223  1.0569  0.1534  0.2106
 9612TIP3    H228801   0.820   0.850   1.261  0.8423  0.1056  0.1091
 9613TIP3   OH228802   0.430   0.361   3.733 -0.7049  0.0075  0.5328
 9613TIP3    H128803   0.377   0.342   3.810 -0.0651 -0.2402  0.9250
 9613TIP3    H228804   0.466   0.277   3.707  0.6829  0.3545  1.1834
 9614TIP3   OH228805   0.481   3.321   2.252  0.4841  0.3087  0.4418
 9614TIP3    H128806   0.444   3.408   2.266  0.6852  0.5538 -0.4460
 9614TIP3    H228807   0.412   3.272   2.208 -0.1203 -0.4230  2.1204
 9615TIP3   OH228808   4.812   6.475   0.486  0.1206 -0.1815  0.2709
 9615TIP3    H128809   4.722   6.508   0.480  0.3518  0.4919  0.4383
 9615TIP3    H228810   4.804   6.381   0.467 -0.6705 -0.2052  0.6577
 9616TIP3   OH228811   0.598   4.751   1.612 -0.2040 -0.4850 -0.6953
 9616TIP3    H128812   0.582   4.723   1.702  0.0959 -1.0380 -0.8096
 9616TIP3    H228813   0.675   4.808   1.618  0.6145 -1.5561 -0.7658
 9617TIP3   OH228814   2.493   0.358   3.283  0.8962 -0.0561 -0.1405
 9617TIP3    H128815   2.469   0.283   3.228  0.7367 -1.0874  1.2737
 9617TIP3    H228816   2.414   0.413   3.284  0.2800 -0.9203  0.4441
 9618TIP3   OH228817   6.674   1.716   2.724  0.2608 -0.4099 -0.3430
 9618TIP3    H128818   6.754   1.679   2.687  1.2599  0.8276  0.4797
 9618TIP3    H228819   6.684   1.705   2.819  1.4795  3.3405  0.1656
 9619TIP3   OH228820   3.076   3.124   2.560  0.2121 -0.3758  0.0550
 9619TIP3    H128821   3.158   3.089   2.526 -0.3505  0.4214 -2.3548
 9619TIP3    H228822   3.060   3.202   2.507 -2.1671 -0.5875  0.3539
 9620TIP3   OH228823   2.267   3.419   4.386  0.6770 -0.3338 -0.0152
 9620TIP3    H128824   2.304   3.488   4.441 -1.0552 -0.3149  1.2278
 9620TIP3    H228825   2.174   3.443   4.377 -1.0025 -4.1805  3.5210
 9621TIP3   OH228826   1.289   3.220   2.144  0.4057  0.3985 -0.2190
 9621TIP3    H128827   1.344   3.152   2.106 -0.1229  0.9774 -2.1546
 9621TIP3    H228828   1.229   3.173   2.201  0.9627 -0.5811 -0.4080
 9622TIP3   OH228829   3.102   0.801   5.477 -0.6152  0.5142 -0.2412
 9622TIP3    H128830   3.136   0.884   5.512 -0.7596  0.9387 -1.0932
 9622TIP3    H228831   3.146   0.734   5.530 -1.5155  1.1380  1.3788
 9623TIP3   OH228832   4.223   1.923   2.519  0.2028  0.3177 -0.0957
 9623TIP3    H128833   4.231   1.864   2.444  0.0886 -0.3721  0.4214
 9623TIP3    H228834   4.226   1.865   2.595  0.0088  0.9788  0.4237
 9624TIP3   OH228835   2.659   3.795   2.844 -0.2073 -0.6294  0.0182
 9624TIP3    H128836   2.565   3.804   2.857  0.0212  0.5484  1.0739
 9624TIP3    H228837   2.673   3.819   2.753 -0.9996 -1.5575 -0.3642
 9625TIP3   OH228838   1.483   0.903   4.089  0.1443 -0.1508 -0.4531
 9625TIP3    H128839   1.424   0.875   4.019 -0.1155 -0.0421 -0.2788
 9625TIP3    H228840   1.488   0.998   4.079  0.9408 -0.2332 -0.9785
 9626TIP3   OH228841   1.562   0.836   1.495  0.5707  0.2431  0.1992
 9626TIP3    H128842   1.495   0.904   1.495 -0.2657 -0.5619  0.0411
 9626TIP3    H228843   1.630   0.868   1.554  0.4097  1.4180 -0.2266
 9627TIP3   OH228844   3.379   3.090   5.423 -0.4521 -0.0972  0.0736
 9627TIP3    H128845   3.452   3.049   5.376 -0.0807  0.6543 -0.0232
 9627TIP3    H228846   3.301   3.045   5.391  0.0546 -1.8422  1.1579
 9628TIP3   OH228847   2.094   4.428   2.416 -0.2065 -0.2225  0.6538
 9628TIP3    H128848   2.049   4.357   2.370  0.6760 -0.6956  0.5096
 9628TIP3    H228849   2.126   4.485   2.346 -2.1086  1.1226  0.7781
 9629TIP3   OH228850   7.202   6.276   3.822 -0.4969 -0.0704 -0.5757
 9629TIP3    H128851   7.277   6.250   3.769  0.6281  1.4476  0.2109
 9629TIP3    H228852   7.127   6.264   3.764  0.2736 -1.9573 -1.2579
 9630TIP3   OH228853   1.634   4.374   3.424  0.3220 -0.0206  0.0586
 9630TIP3    H128854   1.626   4.298   3.482  0.6062 -0.7809 -0.8599
 9630TIP3    H228855   1.561   4.430   3.447  0.4919 -0.2564  1.2134
 9631TIP3   OH228856   6.711   3.482   4.136  0.1141 -0.1950  0.2208
 9631TIP3    H128857   6.773   3.542   4.093  0.6476  0.9608  2.4493
 9631TIP3    H228858   6.715   3.402   4.083 -0.6518  1.6592 -2.9064
 9632TIP3   OH228859   3.987   0.854  -0.013 -0.8629  0.4793  0.5014
 9632TIP3    H128860   3.949   0.814   0.066 -0.2402 -0.5849  0.2788
 9632TIP3    H228861   4.043   0.786  -0.049 -1.4815  0.7898 -1.1118
 9633TIP3   OH228862   3.253   0.270   2.364  0.1670  0.6030  0.2304
 9633TIP3    H128863   3.285   0.300   2.278  3.0035 -0.8257  0.6542
 9633TIP3    H228864   3.208   0.346   2.401 -0.8519  1.3608 -2.3474
 9634TIP3   OH228865   3.566   3.599   2.114 -0.0930  0.2987 -0.0251
 9634TIP3    H128866   3.601   3.601   2.025 -1.2873 -0.3666 -0.5423
 9634TIP3    H228867   3.504   3.672   2.117 -1.3464 -0.7057 -0.3428
 9635TIP3   OH228868   2.422   6.009   0.313  0.4507 -0.0204 -0.5899
 9635TIP3    H128869   2.479   6.011   0.390  0.7558  1.5019 -0.8129
 9635TIP3    H228870   2.479   5.984   0.241  1.1508  2.4525 -0.9887
 9636TIP3   OH228871   4.343   1.266   3.690 -0.4156  0.7195 -0.5273
 9636TIP3    H128872   4.383   1.181   3.710 -1.3694  0.6095  1.1093
 9636TIP3    H228873   4.404   1.330   3.727  0.3675  0.7803 -1.8732
 9637TIP3   OH228874   4.110   2.322   4.089  0.4615  0.2471  0.0994
 9637TIP3    H128875   4.177   2.340   4.024  2.1636 -0.2133  1.6411
 9637TIP3    H228876   4.138   2.241   4.132 -0.4847  0.6102  1.5018
 9638TIP3   OH228877   5.741   4.707   5.329  0.1042  0.5169  0.0893
 9638TIP3    H128878   5.808   4.759   5.284  0.2434  0.2160 -0.0562
 9638TIP3    H228879   5.790   4.639   5.375 -0.1491 -0.2983 -0.8025
 9639TIP3   OH228880   6.592   4.098   2.238  0.0642  0.1261 -0.3554
 9639TIP3    H128881   6.647   4.090   2.160 -0.4546  0.0483 -0.7113
 9639TIP3    H228882   6.655   4.115   2.309  0.5654 -0.1186 -0.7316
 9640TIP3   OH228883   0.503   2.613   5.231  0.6080  0.2275 -0.1258
 9640TIP3    H128884   0.511   2.529   5.186  0.9270  0.9436 -1.4237
 9640TIP3    H228885   0.434   2.660   5.184  0.4446  0.7184  0.5806
 9641TIP3   OH228886   7.178   1.613   2.756  0.0985 -0.2312  0.4554
 9641TIP3    H128887   7.255   1.649   2.799 -0.5422  0.8649  0.7454
 9641TIP3    H228888   7.203   1.525   2.730  1.6616  0.3209 -0.0289
 9642TIP3   OH228889   3.314   3.420   0.376  0.2113  0.5088  0.0531
 9642TIP3    H128890   3.401   3.459   0.386  0.0705  1.0243 -0.6424
 9642TIP3    H228891   3.330   3.334   0.337  0.3244  1.2696 -1.6511
 9643TIP3   OH228892   4.821   6.490   5.117  0.1076  0.9236 -0.1849
 9643TIP3    H128893   4.810   6.570   5.169 -0.9632  1.3372 -1.0170
 9643TIP3    H228894   4.806   6.419   5.179 -0.0497  1.3836  0.3137
 9644TIP3   OH228895   6.590   5.531   2.300 -0.5213 -0.1905 -0.9996
 9644TIP3    H128896   6.617   5.481   2.376 -1.4253  0.1304 -0.4452
 9644TIP3    H228897   6.671   5.560   2.259 -0.0091 -1.2483 -0.7636
 9645TIP3   OH228898   2.949   0.831   0.432  0.1680  0.0365  0.2086
 9645TIP3    H128899   2.856   0.843   0.411 -0.2336 -2.4465  0.2060
 9645TIP3    H228900   2.995   0.890   0.372 -1.3735  0.6481 -0.4270
 9646TIP3   OH228901   3.482   4.767   1.913  0.6762  0.0676 -0.2947
 9646TIP3    H128902   3.542   4.705   1.872  1.2730 -0.4559  1.2995
 9646TIP3    H228903   3.395   4.733   1.894  0.9900 -1.1163  0.3167
 9647TIP3   OH228904   6.485   2.575   5.207  0.0394  0.4601  0.5420
 9647TIP3    H128905   6.417   2.566   5.273 -1.5312  0.9490 -0.9448
 9647TIP3    H228906   6.534   2.653   5.233  1.1540 -0.8351  2.5409
 9648TIP3   OH228907   1.609   0.879   5.332 -0.2279  0.0653 -0.1980
 9648TIP3    H128908   1.700   0.868   5.302  0.0257 -0.2818  0.6872
 9648TIP3    H228909   1.556   0.854   5.256  0.4114 -0.4385 -0.4888
 9649TIP3   OH228910   0.985   3.474   2.091 -0.1047  0.2645  0.8087
 9649TIP3    H128911   1.046   3.502   2.023 -0.9659 -0.0709 -0.1365
 9649TIP3    H228912   0.946   3.555   2.123 -2.0146  0.3242 -1.3710
 9650TIP3   OH228913   6.702   3.036   3.701  0.3472 -0.6410 -0.4471
 9650TIP3    H128914   6.732   3.005   3.616 -0.1186 -3.3701  0.2931
 9650TIP3    H228915   6.735   2.972   3.764 -2.4343 -0.8260  0.9972
 9651TIP3   OH228916   4.463   2.153   4.574  0.3330 -0.1494 -0.6059
 9651TIP3    H128917   4.381   2.138   4.527  0.2290 -1.0561 -0.1651
 9651TIP3    H228918   4.531   2.125   4.513  0.2831  0.0677 -0.7615
 9652TIP3   OH228919   6.848   0.810   3.096 -0.5908  0.5911  0.4794
 9652TIP3    H128920   6.919   0.748   3.111 -0.6364 -0.3010 -2.3067
 9652TIP3    H228921   6.771   0.769   3.135 -1.0054 -2.1901 -2.7455
 9653TIP3   OH228922   6.438   1.444   3.433  0.0786 -0.0072  0.2310
 9653TIP3    H128923   6.387   1.501   3.490 -0.5475  0.1867 -0.5148
 9653TIP3    H228924   6.527   1.446   3.470 -0.4344 -0.3119  1.5067
 9654TIP3   OH228925   1.390   1.512   5.525 -0.2706 -0.3691  0.4114
 9654TIP3    H128926   1.413   1.455   5.451 -0.2035 -1.7973  1.4951
 9654TIP3    H228927   1.447   1.483   5.596  1.8277  2.9083  0.3039
 9655TIP3   OH228928   1.100   1.306   4.920  0.5725  0.1552 -0.5519
 9655TIP3    H128929   1.075   1.244   4.990  0.4418 -0.8305 -1.4439
 9655TIP3    H228930   1.191   1.329   4.940  0.9812 -1.1743 -0.7950
 9656TIP3   OH228931   0.350   3.286   3.563  0.3452 -0.5435  0.3373
 9656TIP3    H128932   0.415   3.319   3.625  2.4907 -2.3630 -0.7715
 9656TIP3    H228933   0.328   3.362   3.509  2.3696 -0.0318  0.1234
 9657TIP3   OH228934   6.377   4.734   4.003 -0.0557 -0.0260  0.4547
 9657TIP3    H128935   6.293   4.772   4.030  0.5712  0.2881  2.0564
 9657TIP3    H228936   6.417   4.705   4.084 -0.1422 -3.4867 -0.5825
 9658TIP3   OH228937   6.737   2.925   2.282 -0.0076 -0.5167 -0.2712
 9658TIP3    H128938   6.696   2.922   2.368 -1.2659 -0.7444 -0.8510
 9658TIP3    H228939   6.806   2.860   2.285 -0.4303 -0.9437  0.3800
 9659TIP3   OH228940   2.865   0.945   4.604  0.2089 -0.2668  0.1527
 9659TIP3    H128941   2.784   0.922   4.648 -0.4833 -0.2454 -1.0620
 9659TIP3    H228942   2.916   0.864   4.603  0.7050 -0.0055  1.9083
 9660TIP3   OH228943   6.757   1.859   0.100 -0.5405 -0.0150  0.3706
 9660TIP3    H128944   6.778   1.928   0.163 -1.9475  1.3406 -0.5788
 9660TIP3    H228945   6.817   1.874   0.027 -0.4326 -0.1948  0.4208
 9661TIP3   OH228946   0.793   4.067   5.100  0.2372 -0.5769 -0.5464
 9661TIP3    H128947   0.790   4.028   5.187 -1.1253 -1.0959 -0.7940
 9661TIP3    H228948   0.703   4.059   5.067  0.4149  0.8255 -1.4642
 9662TIP3   OH228949   0.508   5.858   1.654 -0.2160 -0.3775 -0.8790
 9662TIP3    H128950   0.582   5.901   1.612 -0.7346  1.4369 -0.0613
 9662TIP3    H228951   0.440   5.925   1.656 -0.2857 -0.3379  2.5813
 9663TIP3   OH228952   2.966   3.908   5.562 -0.0720  0.4357 -0.5912
 9663TIP3    H128953   2.904   3.973   5.528  0.0320  0.4538 -0.7444
 9663TIP3    H228954   2.954   3.831   5.507  0.0442  0.4402 -0.6242
 9664TIP3   OH228955   7.075   0.967   3.686  0.2556 -0.2887 -0.3857
 9664TIP3    H128956   6.985   0.995   3.669  0.5112  1.2834  0.5877
 9664TIP3    H228957   7.066   0.891   3.744 -0.5096  1.7375  2.3831
 9665TIP3   OH228958   5.940   5.921   4.964  0.2746  0.0532 -0.6142
 9665TIP3    H128959   6.023   5.968   4.954 -0.2130  1.1789  0.3580
 9665TIP3    H228960   5.884   5.957   4.895 -0.3552  1.5565  0.6196
 9666TIP3   OH228961   4.279   2.793   5.536 -0.3296 -0.1333 -0.1945
 9666TIP3    H128962   4.310   2.882   5.552  2.7636 -1.0889 -0.2460
 9666TIP3    H228963   4.261   2.758   5.624  1.3155 -0.3499  0.0811
 9667TIP3   OH228964   3.260   0.914   1.321  0.2396 -0.4532  0.0534
 9667TIP3    H128965   3.196   0.873   1.263 -1.8577  0.5255  1.5562
 9667TIP3    H228966   3.265   1.005   1.290  1.4565 -0.6642 -0.4511
 9668TIP3   OH228967   1.439   1.402   0.338  0.3859 -0.5551  0.2776
 9668TIP3    H128968   1.464   1.470   0.400 -0.7431  0.8502 -0.7344
 9668TIP3    H228969   1.448   1.320   0.387 -0.2166  0.4779  2.2165
 9669TIP3   OH228970   7.181   3.768   0.597 -0.2310 -0.1459  0.1917
 9669TIP3    H128971   7.158   3.733   0.683  0.2012  0.1461  0.4292
 9669TIP3    H228972   7.098   3.796   0.559 -0.4590 -0.5525  0.3870
 9670TIP3   OH228973   5.264   1.853   5.272  0.0851  0.3642 -0.0562
 9670TIP3    H128974   5.225   1.865   5.359 -2.9074  2.8117 -1.5375
 9670TIP3    H228975   5.354   1.827   5.290 -0.8290 -0.8625  3.7341
 9671TIP3   OH228976   1.792   5.455   5.738  0.3514  0.3100 -0.1000
 9671TIP3    H128977   1.767   5.394   5.669 -3.2454  3.4505 -1.9681
 9671TIP3    H228978   1.874   5.493   5.707  0.2140 -0.2893 -1.2568
 9672TIP3   OH228979   6.938   0.500   4.708 -0.1476  0.4164 -0.1066
 9672TIP3    H128980   7.008   0.562   4.726  1.3295 -1.0375 -0.6270
 9672TIP3    H228981   6.886   0.542   4.639  0.3189  1.4192  0.1298
 9673TIP3   OH228982   3.919   4.270   1.911 -0.3625 -0.1547  0.2770
 9673TIP3    H128983   3.962   4.184   1.917 -0.2259 -0.2210 -1.2547
 9673TIP3    H228984   3.958   4.310   1.834  0.2628  1.6984  1.4983
 9674TIP3   OH228985   4.222   6.614   3.618  0.0675  0.2463 -1.0556
 9674TIP3    H128986   4.244   6.543   3.679 -1.0236 -0.6258 -1.6252
 9674TIP3    H228987   4.137   6.645   3.649  0.1744  0.7727 -1.2920
 9675TIP3   OH228988   1.330   2.389   2.228  0.7828  0.1919 -0.1628
 9675TIP3    H128989   1.388   2.464   2.242  0.0692  0.5792  0.8633
 9675TIP3    H228990   1.242   2.427   2.227  0.4018 -0.6368  0.5291
 9676TIP3   OH228991   0.394   6.448   4.473 -0.3546 -0.1699  0.1194
 9676TIP3    H128992   0.323   6.451   4.537 -0.2211  2.4339  0.2683
 9676TIP3    H228993   0.362   6.502   4.399  0.5300 -0.9469 -0.8600
 9677TIP3   OH228994   4.050   2.804   2.225 -0.7727  0.0377  0.1108
 9677TIP3    H128995   4.108   2.782   2.298 -0.5507 -2.3081 -0.6814
 9677TIP3    H228996   4.061   2.898   2.213 -1.5368  0.7669  3.6814
 9678TIP3   OH228997   5.310   2.705   5.777  0.0935 -0.4102  0.0858
 9678TIP3    H128998   5.341   2.615   5.777  1.2889 -0.0383 -1.6638
 9678TIP3    H228999   5.251   2.711   5.703  0.0348  0.2466  0.1785
 9679TIP3   OH229000   4.986   1.662   0.267  0.4230 -0.0221  0.3634
 9679TIP3    H129001   5.022   1.575   0.280  0.6002 -0.1793 -1.0226
 9679TIP3    H229002   5.029   1.695   0.188 -0.5587  0.8130  0.1454
 9680TIP3   OH229003   6.824   3.747   4.314 -0.1428  0.2281  0.7961
 9680TIP3    H129004   6.764   3.765   4.241 -0.3127 -0.6461  0.7060
 9680TIP3    H229005   6.841   3.653   4.308  0.7503  0.3562  1.2018
 9681TIP3   OH229006   4.136   4.313   3.652  0.0758  0.1950 -0.5157
 9681TIP3    H129007   4.076   4.279   3.587 -2.4735  0.4165  1.5665
 9681TIP3    H229008   4.102   4.400   3.674  0.4695 -0.1031  1.5054
 9682TIP3   OH229009   6.482   1.892   1.255  0.0861 -0.3121 -0.1530
 9682TIP3    H129010   6.451   1.978   1.283  1.4793 -0.2269  1.2546
 9682TIP3    H229011   6.566   1.909   1.213  1.2089 -1.0775  1.6355
 9683TIP3   OH229012   5.327   0.882   2.574  0.3814 -0.0045  0.2632
 9683TIP3    H129013   5.274   0.803   2.561  0.4651 -0.2431  1.2742
 9683TIP3    H229014   5.266   0.955   2.556  0.4831 -0.2711 -1.3389
 9684TIP3   OH229015   6.511   4.909   3.594 -0.1060 -0.0058 -0.2489
 9684TIP3    H129016   6.525   4.964   3.672 -1.7102  1.7090 -1.1141
 9684TIP3    H229017   6.418   4.918   3.574  0.2326 -0.5479 -2.2732
 9685TIP3   OH229018   3.634   5.244   2.595  0.1627  0.2176  0.2291
 9685TIP3    H129019   3.722   5.245   2.632 -0.1521  2.2469  1.0824
 9685TIP3    H229020   3.641   5.297   2.515 -0.0436 -0.5834 -0.3234
 9686TIP3   OH229021   2.607   5.273   1.592  1.0530 -0.3971 -0.4927
 9686TIP3    H129022   2.600   5.303   1.683 -0.8960 -1.5092 -0.2237
 9686TIP3    H229023   2.653   5.189   1.598 -0.1698 -1.0692 -0.3759
 9687TIP3   OH229024   4.935   2.839   0.949 -0.7006 -0.0859 -0.7876
 9687TIP3    H129025   4.862   2.891   0.982  1.0714  0.8470  1.9674
 9687TIP3    H229026   5.004   2.850   1.014  1.7532 -1.3280 -3.0056
 9688TIP3   OH229027   0.503   6.242   0.624 -0.4670 -0.7334 -0.1732
 9688TIP3    H129028   0.418   6.199   0.627 -0.7461 -0.2065  2.6490
 9688TIP3    H229029   0.526   6.255   0.716  2.1349  0.1996 -0.8689
 9689TIP3   OH229030   0.869   5.368   0.153 -0.3460  0.1655 -0.1846
 9689TIP3    H129031   0.904   5.423   0.084 -1.5719  0.7251 -0.3857
 9689TIP3    H229032   0.779   5.350   0.126 -1.0577  0.9057  1.5509
 9690TIP3   OH229033   5.245   0.670   0.532 -0.2405 -0.2842  0.3051
 9690TIP3    H129034   5.319   0.728   0.546 -0.8268  0.4979  0.2210
 9690TIP3    H229035   5.247   0.609   0.606  1.6453 -1.5669 -0.7183
 9691TIP3   OH229036   2.981   0.877   5.805 -0.4834 -0.2078 -0.0344
 9691TIP3    H129037   3.034   0.892   5.883 -1.9662 -0.5450  1.0878
 9691TIP3    H229038   3.024   0.803   5.761  0.1214 -0.2965  0.6898
 9692TIP3   OH229039   4.035   1.106   4.074  0.2211  0.1223 -0.0927
 9692TIP3    H129040   4.093   1.182   4.076  1.3766 -0.7231 -0.4508
 9692TIP3    H229041   4.070   1.047   4.141 -0.3990 -0.2716 -0.1129
 9693TIP3   OH229042   7.146   5.696   0.507  0.3411  0.1490 -0.3306
 9693TIP3    H129043   7.144   5.681   0.602 -1.3360  1.3079 -0.1331
 9693TIP3    H229044   7.151   5.791   0.499 -1.1782  0.1662 -1.3833
 9694TIP3   OH229045   0.966   6.747   2.914 -0.4528  0.5186 -0.3575
 9694TIP3    H129046   0.996   6.838   2.924  0.2843  0.2250  0.1638
 9694TIP3    H229047   1.045   6.694   2.927 -0.7243 -0.1776 -1.4312
 9695TIP3   OH229048   5.315   0.265   5.354  0.3791  0.2120  0.3841
 9695TIP3    H129049   5.263   0.220   5.287  0.8872 -2.1280  1.4416
 9695TIP3    H229050   5.401   0.278   5.312  0.1471  0.4455 -0.0263
 9696TIP3   OH229051   4.157   0.526   0.878  0.0091 -0.0290 -0.1906
 9696TIP3    H129052   4.170   0.514   0.973  1.5904  1.1442 -0.2157
 9696TIP3    H229053   4.066   0.502   0.864  0.1343 -1.7603  1.3613
 9697TIP3   OH229054   4.204   6.575   1.594  0.2508 -0.9860 -0.0866
 9697TIP3    H129055   4.224   6.646   1.532 -0.0539  0.3325  1.2775
 9697TIP3    H229056   4.284   6.566   1.646  0.2843 -1.6543 -0.2453
 9698TIP3   OH229057   2.148   2.581   5.380 -0.0779  0.0883 -0.0437
 9698TIP3    H129058   2.067   2.597   5.332  0.0935  0.0086 -0.3693
 9698TIP3    H229059   2.215   2.624   5.327  0.1606 -0.2842 -0.0490
 9699TIP3   OH229060   2.963   4.116   2.912  0.3292  0.3796  0.2708
 9699TIP3    H129061   2.985   4.170   2.988  1.9385  1.5198 -0.9638
 9699TIP3    H229062   2.887   4.160   2.873 -0.1150  0.1357  0.8312
 9700TIP3   OH229063   3.180   5.045   2.565  0.7392 -0.4179  0.0429
 9700TIP3    H129064   3.144   5.134   2.565  0.2707 -0.5903  1.2161
 9700TIP3    H229065   3.132   5.000   2.634  1.3765 -1.4214 -0.1550
 9701TIP3   OH229066   6.740   3.252   5.184 -0.0992  0.3303 -0.1576
 9701TIP3    H129067   6.785   3.173   5.213  0.6505  1.0413  0.6577
 9701TIP3    H229068   6.800   3.323   5.206 -1.2683  1.2347  0.2007
 9702TIP3   OH229069   5.647   3.725   2.096  0.1925  0.2069  0.1336
 9702TIP3    H129070   5.718   3.761   2.042  0.5480  0.5285  0.7998
 9702TIP3    H229071   5.662   3.762   2.183 -1.3212  1.0111  0.0890
 9703TIP3   OH229072   4.072   0.245   4.381  0.4418  0.3958  0.2465
 9703TIP3    H129073   3.986   0.205   4.396  0.0854  1.4000  1.0106
 9703TIP3    H229074   4.093   0.223   4.290 -0.5316 -0.0312  0.1063
 9704TIP3   OH229075   0.142   2.015   5.491  0.2518  0.6763  0.1917
 9704TIP3    H129076   0.163   2.040   5.401 -0.6971  2.4649  0.4158
 9704TIP3    H229077   0.219   2.039   5.541  0.5413  0.2490 -0.0388
 9705TIP3   OH229078   1.374   2.702   3.719 -0.5608 -0.2842  0.4142
 9705TIP3    H129079   1.325   2.677   3.797  2.0218 -1.4426  1.7796
 9705TIP3    H229080   1.452   2.647   3.720  0.2915  0.6982 -2.2133
 9706TIP3   OH229081   1.118   1.243   2.632  0.7613  0.3059  0.2910
 9706TIP3    H129082   1.132   1.328   2.674  0.5673  0.6754 -0.3786
 9706TIP3    H229083   1.084   1.264   2.545  1.4032 -0.4437 -0.1532
 9707TIP3   OH229084   6.517   5.245   5.728  0.2061  0.1706  0.0204
 9707TIP3    H129085   6.535   5.155   5.756 -1.7066 -0.4241 -0.4709
 9707TIP3    H229086   6.563   5.300   5.791  1.2856 -1.1372  0.4236
 9708TIP3   OH229087   3.215   2.981   1.534 -0.3252 -0.0380  0.0935
 9708TIP3    H129088   3.183   2.921   1.602 -3.4977  0.1633 -1.0484
 9708TIP3    H229089   3.169   3.064   1.552  0.6407  0.7410 -0.8904
 9709TIP3   OH229090   4.208   5.916   0.999 -0.2676  0.5012  0.1123
 9709TIP3    H129091   4.227   6.009   1.013  1.8881 -0.0701  1.6374
 9709TIP3    H229092   4.292   5.873   1.014 -1.6490 -1.8726  1.5466
 9710TIP3   OH229093   0.063   0.202   4.179 -0.4341 -0.2049  0.0356
 9710TIP3    H129094   0.117   0.246   4.114 -0.7032 -0.2430 -0.2187
 9710TIP3    H229095   0.087   0.242   4.262  1.3093 -1.4772  0.2078
 9711TIP3   OH229096   1.999   1.621   5.831 -0.2824 -0.1990  0.3317
 9711TIP3    H129097   1.920   1.634   5.779 -0.4249  0.3110  0.6662
 9711TIP3    H229098   2.041   1.543   5.793  0.2674  0.8522 -1.3579
 9712TIP3   OH229099   0.179   3.569   0.746  0.1493 -0.3956  0.2887
 9712TIP3    H129100   0.187   3.553   0.652  1.2714 -2.5333  0.6775
 9712TIP3    H229101   0.154   3.661   0.753  0.5993 -0.0327 -2.0763
 9713TIP3   OH229102   1.151   5.188   4.521 -0.3461 -0.0076  0.1195
 9713TIP3    H129103   1.181   5.132   4.593 -0.2325  0.3324  0.3387
 9713TIP3    H229104   1.156   5.277   4.556 -0.7120  0.1263 -0.1620
 9714TIP3   OH229105   4.367   5.371   0.172  0.3722  0.0287  0.5094
 9714TIP3    H129106   4.385   5.362   0.266 -0.4469 -0.1502  0.6515
 9714TIP3    H229107   4.341   5.462   0.161  1.8118  0.4393  0.2122
 9715TIP3   OH229108   2.395   0.753   5.464 -0.6064  0.1794  0.1191
 9715TIP3    H129109   2.439   0.814   5.523 -1.0270  0.8217 -0.2269
 9715TIP3    H229110   2.466   0.699   5.428 -0.4509 -1.0588  2.1154
 9716TIP3   OH229111   2.497   1.942   3.355  0.0437 -0.4424 -0.3548
 9716TIP3    H129112   2.499   1.849   3.333  1.3964 -0.1341 -1.6799
 9716TIP3    H229113   2.422   1.951   3.414  0.3702 -2.5086  0.4566
 9717TIP3   OH229114   2.255   5.448   2.449 -0.0970  0.1152 -0.1298
 9717TIP3    H129115   2.245   5.396   2.369  0.0668 -1.1489  0.6417
 9717TIP3    H229116   2.175   5.429   2.499 -0.0129  0.5806  0.1838
 9718TIP3   OH229117   3.387   3.218   4.930  0.5425  0.4708 -0.8040
 9718TIP3    H129118   3.363   3.126   4.940  2.5663 -0.3455 -2.5396
 9718TIP3    H229119   3.479   3.221   4.958  0.4970  1.9947 -0.7447
 9719TIP3   OH229120   5.507   3.711   4.426  0.8419 -0.2315  0.2375
 9719TIP3    H129121   5.524   3.735   4.334 -2.5560 -0.5800 -0.5964
 9719TIP3    H229122   5.452   3.633   4.420  2.1859 -1.4826  2.6995
 9720TIP3   OH229123   0.293   0.564   1.998 -0.2673 -0.2522 -0.2030
 9720TIP3    H129124   0.348   0.639   2.021  0.4666 -1.1804  1.1603
 9720TIP3    H229125   0.282   0.516   2.080 -1.8479 -0.9333 -0.7738
 9721TIP3   OH229126   6.398   4.654   4.941  0.8844  0.3487  0.0700
 9721TIP3    H129127   6.441   4.615   5.017  0.0342 -0.9297 -0.0686
 9721TIP3    H229128   6.313   4.610   4.937  0.6738  0.8317 -1.2667
 9722TIP3   OH229129   3.686   4.177   0.689 -0.1680 -0.0327  0.0390
 9722TIP3    H129130   3.690   4.112   0.619  0.8341  0.9673 -0.8595
 9722TIP3    H229131   3.774   4.179   0.726 -0.4695  0.0525  0.7769
 9723TIP3   OH229132   3.384   4.531   3.201  0.1178 -0.2730  0.7114
 9723TIP3    H129133   3.296   4.493   3.199  0.0492 -0.2473 -2.9061
 9723TIP3    H229134   3.434   4.481   3.138  1.8589  1.6225  0.4584
 9724TIP3   OH229135   3.490   1.307   2.443  0.6376 -0.6436 -0.1205
 9724TIP3    H129136   3.418   1.307   2.507 -0.5968 -0.0657 -1.4669
 9724TIP3    H229137   3.447   1.309   2.358  2.2626 -0.2841 -0.9703
 9725TIP3   OH229138   4.199   2.588   1.109  0.1666 -0.5232 -0.2426
 9725TIP3    H129139   4.176   2.519   1.172  1.3535  0.2334  1.0787
 9725TIP3    H229140   4.115   2.617   1.074 -0.5074 -1.2485  0.7078
 9726TIP3   OH229141   6.916   6.713   0.398  0.4244  0.0355 -0.4702
 9726TIP3    H129142   6.878   6.664   0.470  0.9804 -0.1866 -0.3182
 9726TIP3    H229143   6.885   6.802   0.410  1.6618  0.3229  0.8969
 9727TIP3   OH229144   1.996   4.388   3.649  0.2992 -0.6857  0.4382
 9727TIP3    H129145   1.918   4.410   3.701  0.4806  1.7591 -0.2026
 9727TIP3    H229146   1.963   4.331   3.580 -1.6143  2.3874 -1.4566
 9728TIP3   OH229147   2.615   5.020   2.213  0.6589  0.3632 -0.0688
 9728TIP3    H129148   2.707   5.005   2.232  0.7515  1.5573  0.5016
 9728TIP3    H229149   2.587   4.942   2.164  1.2467 -1.2845  2.0867
 9729TIP3   OH229150   1.655   4.891   4.579  0.6279 -0.3867 -0.3364
 9729TIP3    H129151   1.641   4.980   4.611 -0.6667 -0.5805 -0.2816
 9729TIP3    H229152   1.603   4.885   4.499  0.1809 -1.2621 -0.0034
 9730TIP3   OH229153   6.841   5.781   4.922  0.2859 -0.4056  0.3773
 9730TIP3    H129154   6.818   5.763   5.014 -0.1024  2.1852  0.8546
 9730TIP3    H229155   6.930   5.815   4.926 -0.3211  1.3258  0.0595
 9731TIP3   OH229156   2.578   5.593   1.718 -0.1024  0.7985 -0.8823
 9731TIP3    H129157   2.644   5.599   1.787  0.8920 -0.8253 -1.6337
 9731TIP3    H229158   2.511   5.535   1.754  0.3738  0.0216 -1.2216
 9732TIP3   OH229159   0.768   4.888   3.900 -0.5230  0.3508  0.1350
 9732TIP3    H129160   0.773   4.978   3.930  1.4378  0.5762 -0.6801
 9732TIP3    H229161   0.789   4.836   3.978 -0.2695  0.6688  0.2818
 9733TIP3   OH229162   4.818   3.355   2.397 -0.3465  0.4699  0.4206
 9733TIP3    H129163   4.865   3.437   2.408 -0.4304  0.4137  1.3036
 9733TIP3    H229164   4.884   3.287   2.413  0.0061  0.3307 -1.4838
 9734TIP3   OH229165   4.489   2.793   4.754 -1.0126 -0.5213 -0.1406
 9734TIP3    H129166   4.510   2.702   4.774 -2.0638 -0.9353 -0.8179
 9734TIP3    H229167   4.467   2.832   4.838 -0.4973 -0.8656  0.1626
 9735TIP3   OH229168   2.797   4.720   1.500  0.0905  0.2203  0.1421
 9735TIP3    H129169   2.858   4.647   1.489 -1.0992 -1.0509  1.5651
 9735TIP3    H229170   2.851   4.798   1.488  2.0781 -0.8265  1.6090
 9736TIP3   OH229171   5.030   3.293   3.172 -0.2682 -0.2518  1.3245
 9736TIP3    H129172   5.095   3.284   3.102 -0.1005  0.9091  1.3089
 9736TIP3    H229173   5.074   3.347   3.238 -1.7789  2.0232  0.5678
 9737TIP3   OH229174   1.527   3.623   0.207 -0.1627 -0.5245 -0.3737
 9737TIP3    H129175   1.466   3.697   0.210 -0.9748 -1.1254 -1.4783
 9737TIP3    H229176   1.470   3.545   0.213  0.6487 -1.0821  0.3962
 9738TIP3   OH229177   1.915   2.245   2.765 -0.5195  0.4466  0.2200
 9738TIP3    H129178   1.936   2.162   2.723 -2.2095  1.1073 -2.1472
 9738TIP3    H229179   1.985   2.304   2.739 -0.1382  0.1817  0.6230
 9739TIP3   OH229180   4.470   2.564   4.937 -0.5618  0.1065 -0.0206
 9739TIP3    H129181   4.504   2.624   5.003 -1.0625 -0.1580  0.4830
 9739TIP3    H229182   4.387   2.533   4.972 -0.5958 -0.4278 -0.5438
 9740TIP3   OH229183   6.111   6.175   2.224 -0.2575  0.1147 -0.4271
 9740TIP3    H129184   6.151   6.153   2.308  1.4977  0.2682 -1.1662
 9740TIP3    H229185   6.167   6.244   2.189 -1.7100  0.9656 -1.1692
 9741TIP3   OH229186   7.093   1.489   0.948  0.3038 -0.2408 -0.6428
 9741TIP3    H129187   7.076   1.484   1.042 -1.2101  0.0003 -0.8790
 9741TIP3    H229188   7.187   1.507   0.941  0.2108  0.9677  0.8529
 9742TIP3   OH229189   6.213   3.906   4.821  0.0160  0.2697 -0.5035
 9742TIP3    H129190   6.185   3.837   4.761 -0.7823 -0.2258  0.4111
 9742TIP3    H229191   6.178   3.879   4.906 -2.1624  2.8421 -0.4522
 9743TIP3   OH229192   0.203   4.532   3.428 -0.1684  0.0295 -0.2752
 9743TIP3    H129193   0.272   4.505   3.367  1.2085  0.0402  1.2067
 9743TIP3    H229194   0.169   4.613   3.391  2.5852  1.5915  0.3334
 9744TIP3   OH229195   0.805   4.814   4.172  0.1390  0.5601  0.1177
 9744TIP3    H129196   0.752   4.736   4.191  1.5736 -0.9772 -1.7760
 9744TIP3    H229197   0.895   4.784   4.183  0.7123  2.1414 -0.0820
 9745TIP3   OH229198   1.324   2.995   2.740 -0.2073  0.0837 -0.0495
 9745TIP3    H129199   1.338   3.054   2.666 -1.2986 -0.3052 -0.6028
 9745TIP3    H229200   1.383   2.922   2.724 -2.4481 -1.4394 -2.2215
 9746TIP3   OH229201   6.076   5.737   5.834  0.4468 -0.2168  0.1464
 9746TIP3    H129202   6.029   5.780   5.905  0.0724  0.2668 -0.3839
 9746TIP3    H229203   6.127   5.807   5.793  0.8531 -0.5419  0.0955
 9747TIP3   OH229204   0.192   3.085   5.208 -0.2309  0.0375  0.4289
 9747TIP3    H129205   0.193   3.046   5.120 -2.0868 -0.8004  0.7309
 9747TIP3    H229206   0.284   3.095   5.231  0.2996  0.4401 -1.6781
 9748TIP3   OH229207   2.548   0.298   0.247 -0.5076 -0.3540 -0.7620
 9748TIP3    H129208   2.576   0.249   0.324 -0.3224  1.6502  0.5447
 9748TIP3    H229209   2.629   0.335   0.212 -0.7364 -0.2454 -1.1832
 9749TIP3   OH229210   5.892   4.275   5.529  0.2907  0.0914  0.3321
 9749TIP3    H129211   5.923   4.344   5.470 -0.0216 -0.7804 -0.8939
 9749TIP3    H229212   5.955   4.276   5.602  0.6016  1.2916  0.0690
   7.21496   6.80233   5.89098   0.00000   0.00000  -2.40499   0.00000  -2.40499  -3.40116
